MODEL 1
REMARK VINA RESULT:   -10.893      0.000      0.000
REMARK INTER + INTRA:         -14.986
REMARK INTER:                 -14.713
REMARK INTRA:                  -0.272
REMARK UNBOUND:                -0.272
REMARK SMILES N#CCC1(n2cc(-c3ncnc4[nH]ccc34)cn2)CN(C2CCN(Cc3cc4ccccc4nc3Cl)CC2)C1
REMARK SMILES IDX 21 1 22 2 23 3 24 4 37 5 38 6 20 7 4 8 19 9 39 10 3 11 1 12
REMARK SMILES IDX 2 13 5 14 6 15 18 16 7 17 17 18 8 19 9 20 16 21 10 22 15 23
REMARK SMILES IDX 12 24 11 25 14 26 13 27 25 29 26 30 27 31 35 32 28 33 34 34
REMARK SMILES IDX 29 35 33 36 30 37 32 38 31 39 36 40
REMARK H PARENT 13 28
ROOT
ATOM      1  C   UNL     1       4.618 -18.552  21.638  1.00  0.00     0.059 C 
ATOM      2  C   UNL     1       3.438 -19.491  21.343  1.00  0.00     0.035 C 
ATOM      3  C   UNL     1       2.107 -18.759  21.537  1.00  0.00     0.086 C 
ATOM      4  N   UNL     1       1.973 -17.520  20.754  1.00  0.00    -0.299 NA
ATOM      5  C   UNL     1       3.126 -16.635  20.961  1.00  0.00     0.086 C 
ATOM      6  C   UNL     1       4.484 -17.306  20.748  1.00  0.00     0.035 C 
ENDROOT
BRANCH   1   7
ATOM      7  N   UNL     1       5.913 -19.218  21.379  1.00  0.00    -0.295 NA
ATOM      8  C   UNL     1       6.630 -21.153  20.902  1.00  0.00     0.101 C 
ATOM      9  C   UNL     1       5.859 -20.039  20.139  1.00  0.00     0.118 C 
ATOM     10  C   UNL     1       6.020 -20.482  22.163  1.00  0.00     0.118 C 
BRANCH   8  11
ATOM     11  C   UNL     1       8.143 -21.125  20.727  1.00  0.00     0.153 C 
ATOM     12  N   UNL     1       9.250 -23.244  21.817  1.00  0.00    -0.198 NA
ATOM     13  C   UNL     1       8.771 -22.307  21.328  1.00  0.00     0.065 C 
ENDBRANCH   8  11
BRANCH   8  14
ATOM     14  N   UNL     1       6.062 -22.483  20.580  1.00  0.00    -0.262 N 
ATOM     15  C   UNL     1       5.581 -23.387  21.483  1.00  0.00     0.119 A 
ATOM     16  N   UNL     1       5.976 -22.911  19.308  1.00  0.00    -0.180 NA
ATOM     17  C   UNL     1       5.061 -24.429  20.747  1.00  0.00     0.039 A 
ATOM     18  C   UNL     1       5.336 -24.080  19.411  1.00  0.00     0.145 A 
BRANCH  17  19
ATOM     19  C   UNL     1       4.349 -25.549  21.307  1.00  0.00     0.086 A 
ATOM     20  N   UNL     1       3.052 -25.715  20.947  1.00  0.00    -0.235 NA
ATOM     21  C   UNL     1       4.964 -26.466  22.160  1.00  0.00     0.045 A 
ATOM     22  C   UNL     1       2.409 -26.797  21.423  1.00  0.00     0.224 A 
ATOM     23  C   UNL     1       6.230 -26.642  22.791  1.00  0.00     0.032 A 
ATOM     24  C   UNL     1       4.169 -27.530  22.565  1.00  0.00     0.141 A 
ATOM     25  N   UNL     1       2.890 -27.759  22.230  1.00  0.00    -0.219 NA
ATOM     26  C   UNL     1       6.166 -27.797  23.545  1.00  0.00     0.085 A 
ATOM     27  N   UNL     1       4.912 -28.333  23.385  1.00  0.00    -0.346 N 
ATOM     28  H   UNL     1       4.559 -29.176  23.816  1.00  0.00     0.167 HD
ENDBRANCH  17  19
ENDBRANCH   8  14
ENDBRANCH   1   7
BRANCH   4  29
ATOM     29  C   UNL     1       1.708 -17.771  19.325  1.00  0.00     0.123 C 
BRANCH  29  30
ATOM     30  C   UNL     1       0.671 -16.828  18.766  1.00  0.00     0.004 A 
ATOM     31  C   UNL     1      -0.516 -16.600  19.480  1.00  0.00     0.018 A 
ATOM     32  C   UNL     1       0.807 -16.140  17.568  1.00  0.00     0.134 A 
ATOM     33  C   UNL     1      -1.497 -15.734  18.982  1.00  0.00     0.001 A 
ATOM     34  N   UNL     1      -0.113 -15.288  17.060  1.00  0.00    -0.236 NA
ATOM     35  C   UNL     1      -2.700 -15.504  19.672  1.00  0.00     0.010 A 
ATOM     36  C   UNL     1      -1.246 -15.093  17.754  1.00  0.00     0.072 A 
ATOM     37  C   UNL     1      -3.659 -14.642  19.145  1.00  0.00     0.001 A 
ATOM     38  C   UNL     1      -2.216 -14.235  17.253  1.00  0.00     0.029 A 
ATOM     39  C   UNL     1      -3.416 -14.005  17.933  1.00  0.00     0.002 A 
ATOM     40  Cl  UNL     1       2.183 -16.296  16.546  1.00  0.00    -0.062 Cl
ENDBRANCH  29  30
ENDBRANCH   4  29
TORSDOF 6
ENDMDL
MODEL 2
REMARK VINA RESULT:   -10.856      2.756     11.149
REMARK INTER + INTRA:         -14.936
REMARK INTER:                 -14.863
REMARK INTRA:                  -0.072
REMARK UNBOUND:                -0.272
REMARK SMILES N#CCC1(n2cc(-c3ncnc4[nH]ccc34)cn2)CN(C2CCN(Cc3cc4ccccc4nc3Cl)CC2)C1
REMARK SMILES IDX 21 1 22 2 23 3 24 4 37 5 38 6 20 7 4 8 19 9 39 10 3 11 1 12
REMARK SMILES IDX 2 13 5 14 6 15 18 16 7 17 17 18 8 19 9 20 16 21 10 22 15 23
REMARK SMILES IDX 12 24 11 25 14 26 13 27 25 29 26 30 27 31 35 32 28 33 34 34
REMARK SMILES IDX 29 35 33 36 30 37 32 38 31 39 36 40
REMARK H PARENT 13 28
ROOT
ATOM      1  C   UNL     1       4.319 -19.119  20.729  1.00  0.00     0.059 C 
ATOM      2  C   UNL     1       5.336 -19.379  21.852  1.00  0.00     0.035 C 
ATOM      3  C   UNL     1       4.939 -20.618  22.660  1.00  0.00     0.086 C 
ATOM      4  N   UNL     1       4.755 -21.837  21.855  1.00  0.00    -0.299 NA
ATOM      5  C   UNL     1       3.843 -21.596  20.730  1.00  0.00     0.086 C 
ATOM      6  C   UNL     1       4.211 -20.388  19.867  1.00  0.00     0.035 C 
ENDROOT
BRANCH   1   7
ATOM      7  N   UNL     1       4.727 -17.974  19.888  1.00  0.00    -0.295 NA
ATOM      8  C   UNL     1       3.868 -16.205  19.101  1.00  0.00     0.101 C 
ATOM      9  C   UNL     1       4.327 -16.681  20.508  1.00  0.00     0.118 C 
ATOM     10  C   UNL     1       3.721 -17.724  18.816  1.00  0.00     0.118 C 
BRANCH   8  11
ATOM     11  C   UNL     1       4.911 -15.419  18.315  1.00  0.00     0.153 C 
ATOM     12  N   UNL     1       3.870 -14.423  16.116  1.00  0.00    -0.198 NA
ATOM     13  C   UNL     1       4.339 -14.854  17.087  1.00  0.00     0.065 C 
ENDBRANCH   8  11
BRANCH   8  14
ATOM     14  N   UNL     1       2.584 -15.471  19.200  1.00  0.00    -0.262 N 
ATOM     15  C   UNL     1       1.485 -15.677  18.418  1.00  0.00     0.119 A 
ATOM     16  N   UNL     1       2.407 -14.504  20.118  1.00  0.00    -0.180 NA
ATOM     17  C   UNL     1       0.496 -14.858  18.920  1.00  0.00     0.039 A 
ATOM     18  C   UNL     1       1.126 -14.158  19.967  1.00  0.00     0.145 A 
BRANCH  17  19
ATOM     19  C   UNL     1      -0.868 -14.846  18.457  1.00  0.00     0.086 A 
ATOM     20  N   UNL     1      -1.178 -14.019  17.429  1.00  0.00    -0.235 NA
ATOM     21  C   UNL     1      -1.843 -15.679  19.006  1.00  0.00     0.045 A 
ATOM     22  C   UNL     1      -2.438 -14.056  16.959  1.00  0.00     0.224 A 
ATOM     23  C   UNL     1      -1.954 -16.626  20.066  1.00  0.00     0.032 A 
ATOM     24  C   UNL     1      -3.095 -15.604  18.412  1.00  0.00     0.141 A 
ATOM     25  N   UNL     1      -3.459 -14.822  17.384  1.00  0.00    -0.219 NA
ATOM     26  C   UNL     1      -3.252 -17.094  20.077  1.00  0.00     0.085 A 
ATOM     27  N   UNL     1      -3.930 -16.475  19.056  1.00  0.00    -0.346 N 
ATOM     28  H   UNL     1      -4.902 -16.606  18.813  1.00  0.00     0.167 HD
ENDBRANCH  17  19
ENDBRANCH   8  14
ENDBRANCH   1   7
BRANCH   4  29
ATOM     29  C   UNL     1       6.031 -22.438  21.425  1.00  0.00     0.123 C 
BRANCH  29  30
ATOM     30  C   UNL     1       6.234 -23.815  22.008  1.00  0.00     0.004 A 
ATOM     31  C   UNL     1       5.222 -24.779  21.881  1.00  0.00     0.018 A 
ATOM     32  C   UNL     1       7.384 -24.218  22.674  1.00  0.00     0.134 A 
ATOM     33  C   UNL     1       5.383 -26.063  22.417  1.00  0.00     0.001 A 
ATOM     34  N   UNL     1       7.580 -25.451  23.197  1.00  0.00    -0.236 NA
ATOM     35  C   UNL     1       4.376 -27.038  22.315  1.00  0.00     0.010 A 
ATOM     36  C   UNL     1       6.594 -26.355  23.073  1.00  0.00     0.072 A 
ATOM     37  C   UNL     1       4.565 -28.304  22.866  1.00  0.00     0.001 A 
ATOM     38  C   UNL     1       6.759 -27.625  23.609  1.00  0.00     0.029 A 
ATOM     39  C   UNL     1       5.759 -28.597  23.514  1.00  0.00     0.002 A 
ATOM     40  Cl  UNL     1       8.729 -23.178  22.942  1.00  0.00    -0.062 Cl
ENDBRANCH  29  30
ENDBRANCH   4  29
TORSDOF 6
ENDMDL
MODEL 3
REMARK VINA RESULT:   -10.820      3.138     10.243
REMARK INTER + INTRA:         -14.888
REMARK INTER:                 -14.718
REMARK INTRA:                  -0.170
REMARK UNBOUND:                -0.272
REMARK SMILES N#CCC1(n2cc(-c3ncnc4[nH]ccc34)cn2)CN(C2CCN(Cc3cc4ccccc4nc3Cl)CC2)C1
REMARK SMILES IDX 21 1 22 2 23 3 24 4 37 5 38 6 20 7 4 8 19 9 39 10 3 11 1 12
REMARK SMILES IDX 2 13 5 14 6 15 18 16 7 17 17 18 8 19 9 20 16 21 10 22 15 23
REMARK SMILES IDX 12 24 11 25 14 26 13 27 25 29 26 30 27 31 35 32 28 33 34 34
REMARK SMILES IDX 29 35 33 36 30 37 32 38 31 39 36 40
REMARK H PARENT 13 28
ROOT
ATOM      1  C   UNL     1       8.725 -21.064  21.624  1.00  0.00     0.059 C 
ATOM      2  C   UNL     1       7.618 -21.879  20.936  1.00  0.00     0.035 C 
ATOM      3  C   UNL     1       7.869 -23.380  21.107  1.00  0.00     0.086 C 
ATOM      4  N   UNL     1       8.022 -23.817  22.504  1.00  0.00    -0.299 NA
ATOM      5  C   UNL     1       9.023 -23.006  23.207  1.00  0.00     0.086 C 
ATOM      6  C   UNL     1       8.803 -21.496  23.098  1.00  0.00     0.035 C 
ENDROOT
BRANCH   1   7
ATOM      7  N   UNL     1       8.458 -19.613  21.539  1.00  0.00    -0.295 NA
ATOM      8  C   UNL     1       6.935 -18.324  20.829  1.00  0.00     0.101 C 
ATOM      9  C   UNL     1       7.095 -19.285  22.040  1.00  0.00     0.118 C 
ATOM     10  C   UNL     1       7.999 -19.243  20.169  1.00  0.00     0.118 C 
BRANCH   8  11
ATOM     11  C   UNL     1       7.303 -16.871  21.105  1.00  0.00     0.153 C 
ATOM     12  N   UNL     1       7.698 -15.562  18.861  1.00  0.00    -0.198 NA
ATOM     13  C   UNL     1       7.521 -16.130  19.858  1.00  0.00     0.065 C 
ENDBRANCH   8  11
BRANCH   8  14
ATOM     14  N   UNL     1       5.575 -18.447  20.251  1.00  0.00    -0.262 N 
ATOM     15  C   UNL     1       4.602 -17.491  20.288  1.00  0.00     0.119 A 
ATOM     16  N   UNL     1       5.191 -19.569  19.616  1.00  0.00    -0.180 NA
ATOM     17  C   UNL     1       3.549 -17.983  19.547  1.00  0.00     0.039 A 
ATOM     18  C   UNL     1       3.971 -19.270  19.160  1.00  0.00     0.145 A 
BRANCH  17  19
ATOM     19  C   UNL     1       2.355 -17.243  19.233  1.00  0.00     0.086 A 
ATOM     20  N   UNL     1       1.269 -17.431  20.022  1.00  0.00    -0.235 NA
ATOM     21  C   UNL     1       2.307 -16.327  18.181  1.00  0.00     0.045 A 
ATOM     22  C   UNL     1       0.175 -16.692  19.763  1.00  0.00     0.224 A 
ATOM     23  C   UNL     1       3.161 -15.869  17.134  1.00  0.00     0.032 A 
ATOM     24  C   UNL     1       1.109 -15.640  18.042  1.00  0.00     0.141 A 
ATOM     25  N   UNL     1       0.009 -15.768  18.800  1.00  0.00    -0.219 NA
ATOM     26  C   UNL     1       2.463 -14.926  16.407  1.00  0.00     0.085 A 
ATOM     27  N   UNL     1       1.223 -14.786  16.980  1.00  0.00    -0.346 N 
ATOM     28  H   UNL     1       0.483 -14.174  16.669  1.00  0.00     0.167 HD
ENDBRANCH  17  19
ENDBRANCH   8  14
ENDBRANCH   1   7
BRANCH   4  29
ATOM     29  C   UNL     1       6.739 -23.877  23.229  1.00  0.00     0.123 C 
BRANCH  29  30
ATOM     30  C   UNL     1       5.992 -25.159  22.955  1.00  0.00     0.004 A 
ATOM     31  C   UNL     1       4.828 -25.130  22.172  1.00  0.00     0.018 A 
ATOM     32  C   UNL     1       6.384 -26.406  23.423  1.00  0.00     0.134 A 
ATOM     33  C   UNL     1       4.113 -26.304  21.906  1.00  0.00     0.001 A 
ATOM     34  N   UNL     1       5.725 -27.563  23.179  1.00  0.00    -0.236 NA
ATOM     35  C   UNL     1       2.935 -26.295  21.138  1.00  0.00     0.010 A 
ATOM     36  C   UNL     1       4.608 -27.510  22.437  1.00  0.00     0.072 A 
ATOM     37  C   UNL     1       2.243 -27.480  20.898  1.00  0.00     0.001 A 
ATOM     38  C   UNL     1       3.901 -28.678  22.180  1.00  0.00     0.029 A 
ATOM     39  C   UNL     1       2.728 -28.674  21.420  1.00  0.00     0.002 A 
ATOM     40  Cl  UNL     1       7.775 -26.646  24.408  1.00  0.00    -0.062 Cl
ENDBRANCH  29  30
ENDBRANCH   4  29
TORSDOF 6
ENDMDL
MODEL 4
REMARK VINA RESULT:   -10.572      2.346     10.883
REMARK INTER + INTRA:         -14.553
REMARK INTER:                 -15.024
REMARK INTRA:                   0.472
REMARK UNBOUND:                -0.272
REMARK SMILES N#CCC1(n2cc(-c3ncnc4[nH]ccc34)cn2)CN(C2CCN(Cc3cc4ccccc4nc3Cl)CC2)C1
REMARK SMILES IDX 21 1 22 2 23 3 24 4 37 5 38 6 20 7 4 8 19 9 39 10 3 11 1 12
REMARK SMILES IDX 2 13 5 14 6 15 18 16 7 17 17 18 8 19 9 20 16 21 10 22 15 23
REMARK SMILES IDX 12 24 11 25 14 26 13 27 25 29 26 30 27 31 35 32 28 33 34 34
REMARK SMILES IDX 29 35 33 36 30 37 32 38 31 39 36 40
REMARK H PARENT 13 28
ROOT
ATOM      1  C   UNL     1       5.549 -19.076  20.354  1.00  0.00     0.059 C 
ATOM      2  C   UNL     1       6.329 -20.313  19.882  1.00  0.00     0.035 C 
ATOM      3  C   UNL     1       6.411 -21.356  21.000  1.00  0.00     0.086 C 
ATOM      4  N   UNL     1       5.107 -21.762  21.550  1.00  0.00    -0.299 NA
ATOM      5  C   UNL     1       4.310 -20.593  21.942  1.00  0.00     0.086 C 
ATOM      6  C   UNL     1       4.168 -19.532  20.851  1.00  0.00     0.035 C 
ENDROOT
BRANCH   1   7
ATOM      7  N   UNL     1       5.391 -18.090  19.263  1.00  0.00    -0.295 NA
ATOM      8  C   UNL     1       3.949 -16.693  18.591  1.00  0.00     0.101 C 
ATOM      9  C   UNL     1       4.937 -16.773  19.788  1.00  0.00     0.118 C 
ATOM     10  C   UNL     1       4.060 -18.242  18.607  1.00  0.00     0.118 C 
BRANCH   8  11
ATOM     11  C   UNL     1       4.472 -15.941  17.372  1.00  0.00     0.153 C 
ATOM     12  N   UNL     1       2.573 -14.485  16.286  1.00  0.00    -0.198 NA
ATOM     13  C   UNL     1       3.420 -15.121  16.761  1.00  0.00     0.065 C 
ENDBRANCH   8  11
BRANCH   8  14
ATOM     14  N   UNL     1       2.638 -16.167  19.042  1.00  0.00    -0.262 N 
ATOM     15  C   UNL     1       1.425 -16.468  18.493  1.00  0.00     0.119 A 
ATOM     16  N   UNL     1       2.552 -15.315  20.079  1.00  0.00    -0.180 NA
ATOM     17  C   UNL     1       0.480 -15.849  19.282  1.00  0.00     0.039 A 
ATOM     18  C   UNL     1       1.236 -15.150  20.243  1.00  0.00     0.145 A 
BRANCH  17  19
ATOM     19  C   UNL     1      -0.943 -16.000  19.123  1.00  0.00     0.086 A 
ATOM     20  N   UNL     1      -1.584 -16.856  19.957  1.00  0.00    -0.235 NA
ATOM     21  C   UNL     1      -1.664 -15.271  18.177  1.00  0.00     0.045 A 
ATOM     22  C   UNL     1      -2.921 -16.948  19.846  1.00  0.00     0.224 A 
ATOM     23  C   UNL     1      -1.400 -14.339  17.130  1.00  0.00     0.032 A 
ATOM     24  C   UNL     1      -3.037 -15.474  18.187  1.00  0.00     0.141 A 
ATOM     25  N   UNL     1      -3.730 -16.290  18.996  1.00  0.00    -0.219 NA
ATOM     26  C   UNL     1      -2.607 -14.006  16.550  1.00  0.00     0.085 A 
ATOM     27  N   UNL     1      -3.595 -14.692  17.213  1.00  0.00    -0.346 N 
ATOM     28  H   UNL     1      -4.585 -14.661  17.016  1.00  0.00     0.167 HD
ENDBRANCH  17  19
ENDBRANCH   8  14
ENDBRANCH   1   7
BRANCH   4  29
ATOM     29  C   UNL     1       4.367 -22.673  20.658  1.00  0.00     0.123 C 
BRANCH  29  30
ATOM     30  C   UNL     1       4.299 -24.076  21.208  1.00  0.00     0.004 A 
ATOM     31  C   UNL     1       5.420 -24.624  21.852  1.00  0.00     0.018 A 
ATOM     32  C   UNL     1       3.178 -24.891  21.133  1.00  0.00     0.134 A 
ATOM     33  C   UNL     1       5.386 -25.925  22.367  1.00  0.00     0.001 A 
ATOM     34  N   UNL     1       3.104 -26.149  21.628  1.00  0.00    -0.236 NA
ATOM     35  C   UNL     1       6.503 -26.498  23.001  1.00  0.00     0.010 A 
ATOM     36  C   UNL     1       4.191 -26.656  22.230  1.00  0.00     0.072 A 
ATOM     37  C   UNL     1       6.439 -27.799  23.496  1.00  0.00     0.001 A 
ATOM     38  C   UNL     1       4.153 -27.949  22.736  1.00  0.00     0.029 A 
ATOM     39  C   UNL     1       5.260 -28.525  23.364  1.00  0.00     0.002 A 
ATOM     40  Cl  UNL     1       1.712 -24.405  20.373  1.00  0.00    -0.062 Cl
ENDBRANCH  29  30
ENDBRANCH   4  29
TORSDOF 6
ENDMDL
MODEL 5
REMARK VINA RESULT:   -10.493      1.654      2.545
REMARK INTER + INTRA:         -14.446
REMARK INTER:                 -15.202
REMARK INTRA:                   0.756
REMARK UNBOUND:                -0.272
REMARK SMILES N#CCC1(n2cc(-c3ncnc4[nH]ccc34)cn2)CN(C2CCN(Cc3cc4ccccc4nc3Cl)CC2)C1
REMARK SMILES IDX 21 1 22 2 23 3 24 4 37 5 38 6 20 7 4 8 19 9 39 10 3 11 1 12
REMARK SMILES IDX 2 13 5 14 6 15 18 16 7 17 17 18 8 19 9 20 16 21 10 22 15 23
REMARK SMILES IDX 12 24 11 25 14 26 13 27 25 29 26 30 27 31 35 32 28 33 34 34
REMARK SMILES IDX 29 35 33 36 30 37 32 38 31 39 36 40
REMARK H PARENT 13 28
ROOT
ATOM      1  C   UNL     1       5.004 -20.085  20.895  1.00  0.00     0.059 C 
ATOM      2  C   UNL     1       4.922 -19.094  19.722  1.00  0.00     0.035 C 
ATOM      3  C   UNL     1       3.468 -18.900  19.284  1.00  0.00     0.086 C 
ATOM      4  N   UNL     1       2.557 -18.480  20.361  1.00  0.00    -0.299 NA
ATOM      5  C   UNL     1       2.669 -19.368  21.525  1.00  0.00     0.086 C 
ATOM      6  C   UNL     1       4.099 -19.573  22.028  1.00  0.00     0.035 C 
ENDROOT
BRANCH   1   7
ATOM      7  N   UNL     1       6.392 -20.225  21.385  1.00  0.00    -0.295 NA
ATOM      8  C   UNL     1       7.627 -21.726  22.227  1.00  0.00     0.101 C 
ATOM      9  C   UNL     1       7.045 -21.436  20.815  1.00  0.00     0.118 C 
ATOM     10  C   UNL     1       6.413 -20.892  22.719  1.00  0.00     0.118 C 
BRANCH   8  11
ATOM     11  C   UNL     1       9.029 -21.178  22.471  1.00  0.00     0.153 C 
ATOM     12  N   UNL     1      10.560 -21.555  20.369  1.00  0.00    -0.198 NA
ATOM     13  C   UNL     1       9.891 -21.379  21.300  1.00  0.00     0.065 C 
ENDBRANCH   8  11
BRANCH   8  14
ATOM     14  N   UNL     1       7.541 -23.174  22.531  1.00  0.00    -0.262 N 
ATOM     15  C   UNL     1       6.408 -23.933  22.489  1.00  0.00     0.119 A 
ATOM     16  N   UNL     1       8.634 -23.874  22.885  1.00  0.00    -0.180 NA
ATOM     17  C   UNL     1       6.802 -25.230  22.739  1.00  0.00     0.039 A 
ATOM     18  C   UNL     1       8.186 -25.130  22.977  1.00  0.00     0.145 A 
BRANCH  17  19
ATOM     19  C   UNL     1       5.931 -26.375  22.675  1.00  0.00     0.086 A 
ATOM     20  N   UNL     1       6.379 -27.539  23.206  1.00  0.00    -0.235 NA
ATOM     21  C   UNL     1       4.650 -26.300  22.128  1.00  0.00     0.045 A 
ATOM     22  C   UNL     1       5.539 -28.589  23.200  1.00  0.00     0.224 A 
ATOM     23  C   UNL     1       3.835 -25.337  21.464  1.00  0.00     0.032 A 
ATOM     24  C   UNL     1       3.903 -27.469  22.198  1.00  0.00     0.141 A 
ATOM     25  N   UNL     1       4.282 -28.643  22.725  1.00  0.00    -0.219 NA
ATOM     26  C   UNL     1       2.631 -25.942  21.161  1.00  0.00     0.085 A 
ATOM     27  N   UNL     1       2.682 -27.233  21.628  1.00  0.00    -0.346 N 
ATOM     28  H   UNL     1       1.954 -27.929  21.551  1.00  0.00     0.167 HD
ENDBRANCH  17  19
ENDBRANCH   8  14
ENDBRANCH   1   7
BRANCH   4  29
ATOM     29  C   UNL     1       2.713 -17.059  20.723  1.00  0.00     0.123 C 
BRANCH  29  30
ATOM     30  C   UNL     1       1.507 -16.239  20.334  1.00  0.00     0.004 A 
ATOM     31  C   UNL     1       0.235 -16.831  20.341  1.00  0.00     0.018 A 
ATOM     32  C   UNL     1       1.559 -14.902  19.967  1.00  0.00     0.134 A 
ATOM     33  C   UNL     1      -0.900 -16.094  19.980  1.00  0.00     0.001 A 
ATOM     34  N   UNL     1       0.484 -14.155  19.622  1.00  0.00    -0.236 NA
ATOM     35  C   UNL     1      -2.182 -16.671  19.964  1.00  0.00     0.010 A 
ATOM     36  C   UNL     1      -0.722 -14.744  19.625  1.00  0.00     0.072 A 
ATOM     37  C   UNL     1      -3.290 -15.913  19.592  1.00  0.00     0.001 A 
ATOM     38  C   UNL     1      -1.843 -14.009  19.263  1.00  0.00     0.029 A 
ATOM     39  C   UNL     1      -3.120 -14.578  19.242  1.00  0.00     0.002 A 
ATOM     40  Cl  UNL     1       3.026 -14.005  19.885  1.00  0.00    -0.062 Cl
ENDBRANCH  29  30
ENDBRANCH   4  29
TORSDOF 6
ENDMDL
MODEL 6
REMARK VINA RESULT:   -10.492      3.717     10.002
REMARK INTER + INTRA:         -14.445
REMARK INTER:                 -14.524
REMARK INTRA:                   0.080
REMARK UNBOUND:                -0.272
REMARK SMILES N#CCC1(n2cc(-c3ncnc4[nH]ccc34)cn2)CN(C2CCN(Cc3cc4ccccc4nc3Cl)CC2)C1
REMARK SMILES IDX 21 1 22 2 23 3 24 4 37 5 38 6 20 7 4 8 19 9 39 10 3 11 1 12
REMARK SMILES IDX 2 13 5 14 6 15 18 16 7 17 17 18 8 19 9 20 16 21 10 22 15 23
REMARK SMILES IDX 12 24 11 25 14 26 13 27 25 29 26 30 27 31 35 32 28 33 34 34
REMARK SMILES IDX 29 35 33 36 30 37 32 38 31 39 36 40
REMARK H PARENT 13 28
ROOT
ATOM      1  C   UNL     1       9.661 -22.135  22.345  1.00  0.00     0.059 C 
ATOM      2  C   UNL     1       8.434 -22.659  21.581  1.00  0.00     0.035 C 
ATOM      3  C   UNL     1       8.411 -24.190  21.587  1.00  0.00     0.086 C 
ATOM      4  N   UNL     1       8.465 -24.795  22.927  1.00  0.00    -0.299 NA
ATOM      5  C   UNL     1       9.587 -24.257  23.707  1.00  0.00     0.086 C 
ATOM      6  C   UNL     1       9.642 -22.730  23.763  1.00  0.00     0.035 C 
ENDROOT
BRANCH   1   7
ATOM      7  N   UNL     1       9.659 -20.658  22.419  1.00  0.00    -0.295 NA
ATOM      8  C   UNL     1       8.264 -19.070  22.294  1.00  0.00     0.101 C 
ATOM      9  C   UNL     1       8.601 -20.166  23.343  1.00  0.00     0.118 C 
ATOM     10  C   UNL     1       8.883 -20.077  21.286  1.00  0.00     0.118 C 
BRANCH   8  11
ATOM     11  C   UNL     1       8.966 -17.734  22.508  1.00  0.00     0.153 C 
ATOM     12  N   UNL     1       9.952 -16.824  20.249  1.00  0.00    -0.198 NA
ATOM     13  C   UNL     1       9.517 -17.214  21.251  1.00  0.00     0.065 C 
ENDBRANCH   8  11
BRANCH   8  14
ATOM     14  N   UNL     1       6.795 -18.908  22.175  1.00  0.00    -0.262 N 
ATOM     15  C   UNL     1       6.153 -18.041  21.339  1.00  0.00     0.119 A 
ATOM     16  N   UNL     1       5.953 -19.645  22.921  1.00  0.00    -0.180 NA
ATOM     17  C   UNL     1       4.806 -18.296  21.480  1.00  0.00     0.039 A 
ATOM     18  C   UNL     1       4.745 -19.295  22.471  1.00  0.00     0.145 A 
BRANCH  17  19
ATOM     19  C   UNL     1       3.771 -17.679  20.691  1.00  0.00     0.086 A 
ATOM     20  N   UNL     1       2.879 -16.883  21.331  1.00  0.00    -0.235 NA
ATOM     21  C   UNL     1       3.694 -17.849  19.308  1.00  0.00     0.045 A 
ATOM     22  C   UNL     1       1.952 -16.260  20.582  1.00  0.00     0.224 A 
ATOM     23  C   UNL     1       4.368 -18.587  18.291  1.00  0.00     0.032 A 
ATOM     24  C   UNL     1       2.683 -17.138  18.676  1.00  0.00     0.141 A 
ATOM     25  N   UNL     1       1.784 -16.323  19.249  1.00  0.00    -0.219 NA
ATOM     26  C   UNL     1       3.756 -18.299  17.088  1.00  0.00     0.085 A 
ATOM     27  N   UNL     1       2.743 -17.405  17.336  1.00  0.00    -0.346 N 
ATOM     28  H   UNL     1       2.110 -17.011  16.655  1.00  0.00     0.167 HD
ENDBRANCH  17  19
ENDBRANCH   8  14
ENDBRANCH   1   7
BRANCH   4  29
ATOM     29  C   UNL     1       7.184 -24.702  23.651  1.00  0.00     0.123 C 
BRANCH  29  30
ATOM     30  C   UNL     1       6.213 -25.777  23.226  1.00  0.00     0.004 A 
ATOM     31  C   UNL     1       5.117 -25.441  22.417  1.00  0.00     0.018 A 
ATOM     32  C   UNL     1       6.329 -27.115  23.577  1.00  0.00     0.134 A 
ATOM     33  C   UNL     1       4.198 -26.418  22.013  1.00  0.00     0.001 A 
ATOM     34  N   UNL     1       5.468 -28.088  23.198  1.00  0.00    -0.236 NA
ATOM     35  C   UNL     1       3.084 -26.101  21.216  1.00  0.00     0.010 A 
ATOM     36  C   UNL     1       4.420 -27.743  22.433  1.00  0.00     0.072 A 
ATOM     37  C   UNL     1       2.185 -27.095  20.838  1.00  0.00     0.001 A 
ATOM     38  C   UNL     1       3.511 -28.716  22.039  1.00  0.00     0.029 A 
ATOM     39  C   UNL     1       2.400 -28.406  21.249  1.00  0.00     0.002 A 
ATOM     40  Cl  UNL     1       7.596 -27.720  24.573  1.00  0.00    -0.062 Cl
ENDBRANCH  29  30
ENDBRANCH   4  29
TORSDOF 6
ENDMDL
MODEL 7
REMARK VINA RESULT:   -10.294      3.347      9.404
REMARK INTER + INTRA:         -14.178
REMARK INTER:                 -13.886
REMARK INTRA:                  -0.292
REMARK UNBOUND:                -0.272
REMARK SMILES N#CCC1(n2cc(-c3ncnc4[nH]ccc34)cn2)CN(C2CCN(Cc3cc4ccccc4nc3Cl)CC2)C1
REMARK SMILES IDX 21 1 22 2 23 3 24 4 37 5 38 6 20 7 4 8 19 9 39 10 3 11 1 12
REMARK SMILES IDX 2 13 5 14 6 15 18 16 7 17 17 18 8 19 9 20 16 21 10 22 15 23
REMARK SMILES IDX 12 24 11 25 14 26 13 27 25 29 26 30 27 31 35 32 28 33 34 34
REMARK SMILES IDX 29 35 33 36 30 37 32 38 31 39 36 40
REMARK H PARENT 13 28
ROOT
ATOM      1  C   UNL     1       9.880 -21.606  22.378  1.00  0.00     0.059 C 
ATOM      2  C   UNL     1       8.638 -21.774  21.488  1.00  0.00     0.035 C 
ATOM      3  C   UNL     1       8.304 -23.257  21.306  1.00  0.00     0.086 C 
ATOM      4  N   UNL     1       8.126 -24.000  22.564  1.00  0.00    -0.299 NA
ATOM      5  C   UNL     1       9.267 -23.798  23.465  1.00  0.00     0.086 C 
ATOM      6  C   UNL     1       9.626 -22.331  23.709  1.00  0.00     0.035 C 
ENDROOT
BRANCH   1   7
ATOM      7  N   UNL     1      10.172 -20.179  22.630  1.00  0.00    -0.295 NA
ATOM      8  C   UNL     1       9.279 -18.293  22.268  1.00  0.00     0.101 C 
ATOM      9  C   UNL     1       8.997 -19.485  23.225  1.00  0.00     0.118 C 
ATOM     10  C   UNL     1       9.969 -19.374  21.392  1.00  0.00     0.118 C 
BRANCH   8  11
ATOM     11  C   UNL     1      10.138 -17.181  22.858  1.00  0.00     0.153 C 
ATOM     12  N   UNL     1      11.866 -16.295  21.087  1.00  0.00    -0.198 NA
ATOM     13  C   UNL     1      11.104 -16.675  21.875  1.00  0.00     0.065 C 
ENDBRANCH   8  11
BRANCH   8  14
ATOM     14  N   UNL     1       8.009 -17.771  21.710  1.00  0.00    -0.262 N 
ATOM     15  C   UNL     1       6.854 -18.481  21.550  1.00  0.00     0.119 A 
ATOM     16  N   UNL     1       7.903 -16.492  21.305  1.00  0.00    -0.180 NA
ATOM     17  C   UNL     1       5.909 -17.585  21.101  1.00  0.00     0.039 A 
ATOM     18  C   UNL     1       6.616 -16.374  20.968  1.00  0.00     0.145 A 
BRANCH  17  19
ATOM     19  C   UNL     1       4.515 -17.895  20.910  1.00  0.00     0.086 A 
ATOM     20  N   UNL     1       3.787 -18.230  22.004  1.00  0.00    -0.235 NA
ATOM     21  C   UNL     1       3.906 -17.820  19.657  1.00  0.00     0.045 A 
ATOM     22  C   UNL     1       2.473 -18.458  21.830  1.00  0.00     0.224 A 
ATOM     23  C   UNL     1       4.284 -17.557  18.308  1.00  0.00     0.032 A 
ATOM     24  C   UNL     1       2.542 -18.081  19.641  1.00  0.00     0.141 A 
ATOM     25  N   UNL     1       1.766 -18.399  20.688  1.00  0.00    -0.219 NA
ATOM     26  C   UNL     1       3.151 -17.661  17.527  1.00  0.00     0.085 A 
ATOM     27  N   UNL     1       2.097 -17.965  18.353  1.00  0.00    -0.346 N 
ATOM     28  H   UNL     1       1.137 -18.110  18.075  1.00  0.00     0.167 HD
ENDBRANCH  17  19
ENDBRANCH   8  14
ENDBRANCH   1   7
BRANCH   4  29
ATOM     29  C   UNL     1       6.836 -23.717  23.220  1.00  0.00     0.123 C 
BRANCH  29  30
ATOM     30  C   UNL     1       5.704 -24.507  22.611  1.00  0.00     0.004 A 
ATOM     31  C   UNL     1       5.584 -25.876  22.892  1.00  0.00     0.018 A 
ATOM     32  C   UNL     1       4.737 -23.966  21.775  1.00  0.00     0.134 A 
ATOM     33  C   UNL     1       4.546 -26.634  22.337  1.00  0.00     0.001 A 
ATOM     34  N   UNL     1       3.714 -24.663  21.227  1.00  0.00    -0.236 NA
ATOM     35  C   UNL     1       4.416 -28.011  22.592  1.00  0.00     0.010 A 
ATOM     36  C   UNL     1       3.624 -25.974  21.501  1.00  0.00     0.072 A 
ATOM     37  C   UNL     1       3.376 -28.737  22.017  1.00  0.00     0.001 A 
ATOM     38  C   UNL     1       2.594 -26.721  20.944  1.00  0.00     0.029 A 
ATOM     39  C   UNL     1       2.462 -28.091  21.192  1.00  0.00     0.002 A 
ATOM     40  Cl  UNL     1       4.720 -22.311  21.303  1.00  0.00    -0.062 Cl
ENDBRANCH  29  30
ENDBRANCH   4  29
TORSDOF 6
ENDMDL
MODEL 8
REMARK VINA RESULT:   -10.272      3.499      9.001
REMARK INTER + INTRA:         -14.147
REMARK INTER:                 -13.344
REMARK INTRA:                  -0.803
REMARK UNBOUND:                -0.272
REMARK SMILES N#CCC1(n2cc(-c3ncnc4[nH]ccc34)cn2)CN(C2CCN(Cc3cc4ccccc4nc3Cl)CC2)C1
REMARK SMILES IDX 21 1 22 2 23 3 24 4 37 5 38 6 20 7 4 8 19 9 39 10 3 11 1 12
REMARK SMILES IDX 2 13 5 14 6 15 18 16 7 17 17 18 8 19 9 20 16 21 10 22 15 23
REMARK SMILES IDX 12 24 11 25 14 26 13 27 25 29 26 30 27 31 35 32 28 33 34 34
REMARK SMILES IDX 29 35 33 36 30 37 32 38 31 39 36 40
REMARK H PARENT 13 28
ROOT
ATOM      1  C   UNL     1      10.053 -21.388  22.040  1.00  0.00     0.059 C 
ATOM      2  C   UNL     1       8.916 -21.678  21.047  1.00  0.00     0.035 C 
ATOM      3  C   UNL     1       8.498 -23.150  21.123  1.00  0.00     0.086 C 
ATOM      4  N   UNL     1       8.118 -23.606  22.470  1.00  0.00    -0.299 NA
ATOM      5  C   UNL     1       9.156 -23.275  23.454  1.00  0.00     0.086 C 
ATOM      6  C   UNL     1       9.590 -21.809  23.445  1.00  0.00     0.035 C 
ENDROOT
BRANCH   1   7
ATOM      7  N   UNL     1      10.417 -19.956  22.038  1.00  0.00    -0.295 NA
ATOM      8  C   UNL     1       9.527 -18.098  21.545  1.00  0.00     0.101 C 
ATOM      9  C   UNL     1       9.366 -19.131  22.695  1.00  0.00     0.118 C 
ATOM     10  C   UNL     1      10.046 -19.321  20.741  1.00  0.00     0.118 C 
BRANCH   8  11
ATOM     11  C   UNL     1      10.496 -16.957  21.834  1.00  0.00     0.153 C 
ATOM     12  N   UNL     1      11.989 -16.443  19.734  1.00  0.00    -0.198 NA
ATOM     13  C   UNL     1      11.331 -16.658  20.665  1.00  0.00     0.065 C 
ENDBRANCH   8  11
BRANCH   8  14
ATOM     14  N   UNL     1       8.200 -17.598  21.113  1.00  0.00    -0.262 N 
ATOM     15  C   UNL     1       7.120 -18.370  20.796  1.00  0.00     0.119 A 
ATOM     16  N   UNL     1       7.958 -16.280  21.002  1.00  0.00    -0.180 NA
ATOM     17  C   UNL     1       6.080 -17.499  20.555  1.00  0.00     0.039 A 
ATOM     18  C   UNL     1       6.659 -16.223  20.695  1.00  0.00     0.145 A 
BRANCH  17  19
ATOM     19  C   UNL     1       4.722 -17.900  20.296  1.00  0.00     0.086 A 
ATOM     20  N   UNL     1       4.222 -17.676  19.056  1.00  0.00    -0.235 NA
ATOM     21  C   UNL     1       3.941 -18.536  21.262  1.00  0.00     0.045 A 
ATOM     22  C   UNL     1       2.974 -18.108  18.800  1.00  0.00     0.224 A 
ATOM     23  C   UNL     1       4.050 -18.914  22.632  1.00  0.00     0.032 A 
ATOM     24  C   UNL     1       2.675 -18.923  20.845  1.00  0.00     0.141 A 
ATOM     25  N   UNL     1       2.132 -18.747  19.631  1.00  0.00    -0.219 NA
ATOM     26  C   UNL     1       2.864 -19.518  22.997  1.00  0.00     0.085 A 
ATOM     27  N   UNL     1       2.043 -19.530  21.896  1.00  0.00    -0.346 N 
ATOM     28  H   UNL     1       1.104 -19.900  21.850  1.00  0.00     0.167 HD
ENDBRANCH  17  19
ENDBRANCH   8  14
ENDBRANCH   1   7
BRANCH   4  29
ATOM     29  C   UNL     1       6.784 -23.131  22.881  1.00  0.00     0.123 C 
BRANCH  29  30
ATOM     30  C   UNL     1       5.679 -24.003  22.338  1.00  0.00     0.004 A 
ATOM     31  C   UNL     1       5.571 -25.335  22.768  1.00  0.00     0.018 A 
ATOM     32  C   UNL     1       4.725 -23.576  21.424  1.00  0.00     0.134 A 
ATOM     33  C   UNL     1       4.558 -26.167  22.276  1.00  0.00     0.001 A 
ATOM     34  N   UNL     1       3.727 -24.347  20.934  1.00  0.00    -0.236 NA
ATOM     35  C   UNL     1       4.442 -27.509  22.681  1.00  0.00     0.010 A 
ATOM     36  C   UNL     1       3.649 -25.621  21.351  1.00  0.00     0.072 A 
ATOM     37  C   UNL     1       3.427 -28.313  22.166  1.00  0.00     0.001 A 
ATOM     38  C   UNL     1       2.644 -26.442  20.857  1.00  0.00     0.029 A 
ATOM     39  C   UNL     1       2.526 -27.778  21.253  1.00  0.00     0.002 A 
ATOM     40  Cl  UNL     1       4.697 -21.984  20.770  1.00  0.00    -0.062 Cl
ENDBRANCH  29  30
ENDBRANCH   4  29
TORSDOF 6
ENDMDL
MODEL 9
REMARK VINA RESULT:   -10.221      2.738      9.821
REMARK INTER + INTRA:         -14.078
REMARK INTER:                 -13.780
REMARK INTRA:                  -0.299
REMARK UNBOUND:                -0.272
REMARK SMILES N#CCC1(n2cc(-c3ncnc4[nH]ccc34)cn2)CN(C2CCN(Cc3cc4ccccc4nc3Cl)CC2)C1
REMARK SMILES IDX 21 1 22 2 23 3 24 4 37 5 38 6 20 7 4 8 19 9 39 10 3 11 1 12
REMARK SMILES IDX 2 13 5 14 6 15 18 16 7 17 17 18 8 19 9 20 16 21 10 22 15 23
REMARK SMILES IDX 12 24 11 25 14 26 13 27 25 29 26 30 27 31 35 32 28 33 34 34
REMARK SMILES IDX 29 35 33 36 30 37 32 38 31 39 36 40
REMARK H PARENT 13 28
ROOT
ATOM      1  C   UNL     1       9.202 -21.427  21.873  1.00  0.00     0.059 C 
ATOM      2  C   UNL     1       8.037 -22.143  21.171  1.00  0.00     0.035 C 
ATOM      3  C   UNL     1       8.110 -23.654  21.413  1.00  0.00     0.086 C 
ATOM      4  N   UNL     1       8.158 -24.042  22.832  1.00  0.00    -0.299 NA
ATOM      5  C   UNL     1       9.218 -23.316  23.545  1.00  0.00     0.086 C 
ATOM      6  C   UNL     1       9.174 -21.798  23.365  1.00  0.00     0.035 C 
ENDROOT
BRANCH   1   7
ATOM      7  N   UNL     1       9.104 -19.960  21.717  1.00  0.00    -0.295 NA
ATOM      8  C   UNL     1       7.819 -18.549  20.799  1.00  0.00     0.101 C 
ATOM      9  C   UNL     1       7.736 -19.473  22.046  1.00  0.00     0.118 C 
ATOM     10  C   UNL     1       8.846 -19.599  20.294  1.00  0.00     0.118 C 
BRANCH   8  11
ATOM     11  C   UNL     1       8.308 -17.133  21.077  1.00  0.00     0.153 C 
ATOM     12  N   UNL     1       7.971 -15.596  18.972  1.00  0.00    -0.198 NA
ATOM     13  C   UNL     1       8.120 -16.265  19.909  1.00  0.00     0.065 C 
ENDBRANCH   8  11
BRANCH   8  14
ATOM     14  N   UNL     1       6.529 -18.553  20.070  1.00  0.00    -0.262 N 
ATOM     15  C   UNL     1       5.317 -18.197  20.588  1.00  0.00     0.119 A 
ATOM     16  N   UNL     1       6.462 -18.926  18.779  1.00  0.00    -0.180 NA
ATOM     17  C   UNL     1       4.420 -18.249  19.544  1.00  0.00     0.039 A 
ATOM     18  C   UNL     1       5.185 -18.707  18.454  1.00  0.00     0.145 A 
BRANCH  17  19
ATOM     19  C   UNL     1       3.043 -17.837  19.628  1.00  0.00     0.086 A 
ATOM     20  N   UNL     1       2.432 -17.919  20.836  1.00  0.00    -0.235 NA
ATOM     21  C   UNL     1       2.353 -17.330  18.526  1.00  0.00     0.045 A 
ATOM     22  C   UNL     1       1.165 -17.475  20.924  1.00  0.00     0.224 A 
ATOM     23  C   UNL     1       2.587 -17.116  17.136  1.00  0.00     0.032 A 
ATOM     24  C   UNL     1       1.053 -16.912  18.777  1.00  0.00     0.141 A 
ATOM     25  N   UNL     1       0.402 -16.949  19.949  1.00  0.00    -0.219 NA
ATOM     26  C   UNL     1       1.438 -16.575  16.596  1.00  0.00     0.085 A 
ATOM     27  N   UNL     1       0.520 -16.442  17.608  1.00  0.00    -0.346 N 
ATOM     28  H   UNL     1      -0.420 -16.081  17.525  1.00  0.00     0.167 HD
ENDBRANCH  17  19
ENDBRANCH   8  14
ENDBRANCH   1   7
BRANCH   4  29
ATOM     29  C   UNL     1       6.851 -23.926  23.503  1.00  0.00     0.123 C 
BRANCH  29  30
ATOM     30  C   UNL     1       5.820 -24.850  22.901  1.00  0.00     0.004 A 
ATOM     31  C   UNL     1       5.851 -26.218  23.208  1.00  0.00     0.018 A 
ATOM     32  C   UNL     1       4.807 -24.437  22.046  1.00  0.00     0.134 A 
ATOM     33  C   UNL     1       4.910 -27.098  22.660  1.00  0.00     0.001 A 
ATOM     34  N   UNL     1       3.875 -25.255  21.504  1.00  0.00    -0.236 NA
ATOM     35  C   UNL     1       4.933 -28.475  22.942  1.00  0.00     0.010 A 
ATOM     36  C   UNL     1       3.930 -26.562  21.804  1.00  0.00     0.072 A 
ATOM     37  C   UNL     1       3.987 -29.325  22.373  1.00  0.00     0.001 A 
ATOM     38  C   UNL     1       2.996 -27.430  21.253  1.00  0.00     0.029 A 
ATOM     39  C   UNL     1       3.015 -28.801  21.528  1.00  0.00     0.002 A 
ATOM     40  Cl  UNL     1       4.611 -22.803  21.541  1.00  0.00    -0.062 Cl
ENDBRANCH  29  30
ENDBRANCH   4  29
TORSDOF 6
ENDMDL
