MODEL 2
REMARK VINA RESULT:    -7.192      2.389      3.648
REMARK INTER + INTRA:         -12.814
REMARK INTER:                 -10.932
REMARK INTRA:                  -1.882
REMARK UNBOUND:                -1.839
REMARK SMILES CCc1sc2ncnc(N[C@H](CO)C(=O)O)c2c1-c1cccc(Oc2ccc(F)cc2)c1
REMARK SMILES IDX 3 1 4 2 5 3 6 4 7 5 8 6 9 7 17 8 18 9 2 10 1 11 19 12 20 13
REMARK SMILES IDX 32 14 21 15 23 16 22 17 24 18 25 19 26 20 31 21 27 22 30 23
REMARK SMILES IDX 28 24 29 25 10 26 11 28 12 29 13 30 14 32 15 33 16 34
REMARK H PARENT 10 27 13 31 16 35
ROOT
ATOM      1  C   UNL     1      43.374  12.433 -46.893  1.00  0.00     0.015 A 
ATOM      2  S   UNL     1      41.929  11.738 -47.495  1.00  0.00    -0.120 S 
ATOM      3  C   UNL     1      41.389  13.220 -48.126  1.00  0.00     0.129 A 
ATOM      4  N   UNL     1      40.216  13.281 -48.776  1.00  0.00    -0.225 NA
ATOM      5  C   UNL     1      39.946  14.505 -49.221  1.00  0.00     0.225 A 
ATOM      6  N   UNL     1      40.692  15.610 -49.068  1.00  0.00    -0.219 NA
ATOM      7  C   UNL     1      41.857  15.532 -48.381  1.00  0.00     0.139 A 
ATOM      8  C   UNL     1      42.264  14.268 -47.888  1.00  0.00     0.062 A 
ATOM      9  C   UNL     1      43.430  13.793 -47.167  1.00  0.00     0.009 A 
ENDROOT
BRANCH   1  10
ATOM     10  C   UNL     1      44.363  11.550 -46.180  1.00  0.00     0.044 C 
ATOM     11  C   UNL     1      44.231  10.094 -46.602  1.00  0.00     0.010 C 
ENDBRANCH   1  10
BRANCH   9  12
ATOM     12  C   UNL     1      44.578  14.589 -46.760  1.00  0.00    -0.013 A 
ATOM     13  C   UNL     1      45.683  14.713 -47.610  1.00  0.00     0.009 A 
ATOM     14  C   UNL     1      44.596  15.196 -45.500  1.00  0.00     0.055 A 
ATOM     15  C   UNL     1      46.802  15.438 -47.199  1.00  0.00     0.004 A 
ATOM     16  C   UNL     1      45.707  15.938 -45.101  1.00  0.00     0.128 A 
ATOM     17  C   UNL     1      46.818  16.045 -45.942  1.00  0.00     0.047 A 
BRANCH  16  18
ATOM     18  O   UNL     1      45.667  16.471 -43.832  1.00  0.00    -0.457 OA
BRANCH  18  19
ATOM     19  C   UNL     1      46.194  15.715 -42.812  1.00  0.00     0.127 A 
ATOM     20  C   UNL     1      45.388  14.952 -41.959  1.00  0.00     0.050 A 
ATOM     21  C   UNL     1      47.586  15.671 -42.701  1.00  0.00     0.050 A 
ATOM     22  C   UNL     1      45.981  14.170 -40.968  1.00  0.00     0.043 A 
ATOM     23  C   UNL     1      48.177  14.889 -41.708  1.00  0.00     0.043 A 
ATOM     24  C   UNL     1      47.368  14.149 -40.849  1.00  0.00     0.123 A 
ATOM     25  F   UNL     1      47.936  13.397 -39.896  1.00  0.00    -0.207 F 
ENDBRANCH  18  19
ENDBRANCH  16  18
ENDBRANCH   9  12
BRANCH   7  26
ATOM     26  N   UNL     1      42.610  16.691 -48.236  1.00  0.00    -0.354 N 
ATOM     27  H   UNL     1      42.323  17.263 -47.441  1.00  0.00     0.163 HD
BRANCH  26  28
ATOM     28  C   UNL     1      42.872  17.507 -49.447  1.00  0.00     0.216 C 
BRANCH  28  29
ATOM     29  C   UNL     1      44.372  17.478 -49.785  1.00  0.00     0.193 C 
BRANCH  29  30
ATOM     30  O   UNL     1      45.177  17.894 -48.676  1.00  0.00    -0.394 OA
ATOM     31  H   UNL     1      46.060  18.105 -49.049  1.00  0.00     0.210 HD
ENDBRANCH  29  30
ENDBRANCH  28  29
BRANCH  28  32
ATOM     32  C   UNL     1      42.427  18.947 -49.182  1.00  0.00     0.328 C 
ATOM     33  O   UNL     1      41.277  19.313 -48.974  1.00  0.00    -0.250 OA
BRANCH  32  34
ATOM     34  O   UNL     1      43.417  19.857 -49.256  1.00  0.00    -0.480 OA
ATOM     35  H   UNL     1      44.180  19.361 -49.623  1.00  0.00     0.296 HD
ENDBRANCH  32  34
ENDBRANCH  28  32
ENDBRANCH  26  28
ENDBRANCH   7  26
TORSDOF 10
ENDMDL
