MODEL 1
REMARK VINA RESULT:    -9.196      0.000      0.000
REMARK INTER + INTRA:         -10.729
REMARK INTER:                 -10.540
REMARK INTRA:                  -0.189
REMARK UNBOUND:                -0.189
REMARK SMILES CC1(C)OCCn2c1nc1c(N3CCOCC3)nc(-c3cnc(N)nc3)nc12
REMARK SMILES IDX 20 1 21 2 22 3 23 4 25 5 26 6 19 7 2 8 4 9 8 10 5 11 7 12
REMARK SMILES IDX 9 13 6 14 28 15 10 16 27 17 11 18 18 19 1 20 3 21 12 22
REMARK SMILES IDX 13 23 17 24 14 25 16 26 15 27 24 28
REMARK H PARENT 24 29 24 30
ROOT
ATOM      1  C   UNL     1     -15.978  10.043  26.179  1.00  0.00     0.056 A 
ATOM      2  C   UNL     1     -14.811  10.248  25.467  1.00  0.00     0.128 A 
ATOM      3  N   UNL     1     -14.269   9.362  24.597  1.00  0.00    -0.221 NA
ATOM      4  C   UNL     1     -14.918   8.206  24.444  1.00  0.00     0.219 A 
ATOM      5  N   UNL     1     -16.061   7.894  25.057  1.00  0.00    -0.221 NA
ATOM      6  C   UNL     1     -16.558   8.816  25.915  1.00  0.00     0.128 A 
ENDROOT
BRANCH   1   7
ATOM      7  C   UNL     1     -16.540  11.021  27.107  1.00  0.00     0.167 A 
ATOM      8  C   UNL     1     -20.780  13.682  30.172  1.00  0.00     0.120 C 
ATOM      9  O   UNL     1     -21.865  12.748  29.952  1.00  0.00    -0.366 OA
ATOM     10  C   UNL     1     -19.516  13.174  29.524  1.00  0.00     0.143 A 
ATOM     11  C   UNL     1     -21.937  12.210  28.628  1.00  0.00     0.183 C 
ATOM     12  N   UNL     1     -19.526  12.098  28.674  1.00  0.00    -0.308 N 
ATOM     13  N   UNL     1     -18.294  13.669  29.626  1.00  0.00    -0.224 NA
ATOM     14  C   UNL     1     -20.717  11.345  28.358  1.00  0.00     0.154 C 
ATOM     15  C   UNL     1     -18.261  11.888  28.217  1.00  0.00     0.166 A 
ATOM     16  C   UNL     1     -17.491  12.864  28.831  1.00  0.00     0.151 A 
ATOM     17  N   UNL     1     -17.861  10.942  27.357  1.00  0.00    -0.208 NA
ATOM     18  C   UNL     1     -16.109  12.877  28.521  1.00  0.00     0.161 A 
ATOM     19  N   UNL     1     -15.681  11.929  27.629  1.00  0.00    -0.208 NA
ATOM     20  C   UNL     1     -21.162  15.058  29.616  1.00  0.00     0.051 C 
ATOM     21  C   UNL     1     -20.596  13.770  31.689  1.00  0.00     0.051 C 
BRANCH  18  22
ATOM     22  N   UNL     1     -15.144  13.754  29.029  1.00  0.00    -0.350 N 
ATOM     23  C   UNL     1     -15.353  14.397  30.337  1.00  0.00     0.146 C 
ATOM     24  C   UNL     1     -14.614  14.656  27.984  1.00  0.00     0.146 C 
ATOM     25  C   UNL     1     -15.879  15.823  30.141  1.00  0.00     0.181 C 
ATOM     26  C   UNL     1     -14.026  15.932  28.607  1.00  0.00     0.181 C 
ATOM     27  O   UNL     1     -14.984  16.667  29.390  1.00  0.00    -0.378 OA
ENDBRANCH  18  22
ENDBRANCH   1   7
BRANCH   4  28
ATOM     28  N   UNL     1     -14.397   7.292  23.555  1.00  0.00    -0.368 N 
ATOM     29  H   UNL     1     -13.527   6.926  23.914  1.00  0.00     0.159 HD
ATOM     30  H   UNL     1     -14.391   7.686  22.625  1.00  0.00     0.159 HD
ENDBRANCH   4  28
TORSDOF 3
ENDMDL
MODEL 2
REMARK VINA RESULT:    -8.585      2.958      7.734
REMARK INTER + INTRA:         -10.029
REMARK INTER:                  -9.345
REMARK INTRA:                  -0.684
REMARK UNBOUND:                -0.189
REMARK SMILES CC1(C)OCCn2c1nc1c(N3CCOCC3)nc(-c3cnc(N)nc3)nc12
REMARK SMILES IDX 20 1 21 2 22 3 23 4 25 5 26 6 19 7 2 8 4 9 8 10 5 11 7 12
REMARK SMILES IDX 9 13 6 14 28 15 10 16 27 17 11 18 18 19 1 20 3 21 12 22
REMARK SMILES IDX 13 23 17 24 14 25 16 26 15 27 24 28
REMARK H PARENT 24 29 24 30
ROOT
ATOM      1  C   UNL     1     -18.402  14.549  30.391  1.00  0.00     0.056 A 
ATOM      2  C   UNL     1     -19.306  15.234  31.181  1.00  0.00     0.128 A 
ATOM      3  N   UNL     1     -19.037  16.381  31.850  1.00  0.00    -0.221 NA
ATOM      4  C   UNL     1     -17.795  16.856  31.739  1.00  0.00     0.219 A 
ATOM      5  N   UNL     1     -16.836  16.300  30.995  1.00  0.00    -0.221 NA
ATOM      6  C   UNL     1     -17.161  15.157  30.348  1.00  0.00     0.128 A 
ENDROOT
BRANCH   1   7
ATOM      7  C   UNL     1     -18.725  13.316  29.676  1.00  0.00     0.167 A 
ATOM      8  C   UNL     1     -17.603   8.510  26.500  1.00  0.00     0.120 C 
ATOM      9  O   UNL     1     -16.156   8.501  26.571  1.00  0.00    -0.366 OA
ATOM     10  C   UNL     1     -18.159   9.646  27.323  1.00  0.00     0.143 A 
ATOM     11  C   UNL     1     -15.542   9.789  26.471  1.00  0.00     0.183 C 
ATOM     12  N   UNL     1     -17.346  10.622  27.842  1.00  0.00    -0.308 N 
ATOM     13  N   UNL     1     -19.423   9.893  27.621  1.00  0.00    -0.224 NA
ATOM     14  C   UNL     1     -15.911  10.631  27.681  1.00  0.00     0.154 C 
ATOM     15  C   UNL     1     -18.117  11.528  28.504  1.00  0.00     0.166 A 
ATOM     16  C   UNL     1     -19.414  11.056  28.377  1.00  0.00     0.151 A 
ATOM     17  N   UNL     1     -17.699  12.635  29.133  1.00  0.00    -0.208 NA
ATOM     18  C   UNL     1     -20.436  11.827  28.982  1.00  0.00     0.161 A 
ATOM     19  N   UNL     1     -20.034  12.973  29.616  1.00  0.00    -0.208 NA
ATOM     20  C   UNL     1     -18.049   8.627  25.039  1.00  0.00     0.051 C 
ATOM     21  C   UNL     1     -18.064   7.168  27.076  1.00  0.00     0.051 C 
BRANCH  18  22
ATOM     22  N   UNL     1     -21.807  11.540  28.997  1.00  0.00    -0.350 N 
ATOM     23  C   UNL     1     -22.603  11.706  27.770  1.00  0.00     0.146 C 
ATOM     24  C   UNL     1     -22.463  12.043  30.223  1.00  0.00     0.146 C 
ATOM     25  C   UNL     1     -23.353  13.043  27.810  1.00  0.00     0.181 C 
ATOM     26  C   UNL     1     -23.970  12.243  29.996  1.00  0.00     0.181 C 
ATOM     27  O   UNL     1     -24.259  13.159  28.925  1.00  0.00    -0.378 OA
ENDBRANCH  18  22
ENDBRANCH   1   7
BRANCH   4  28
ATOM     28  N   UNL     1     -17.496  18.028  32.398  1.00  0.00    -0.368 N 
ATOM     29  H   UNL     1     -18.122  18.146  33.182  1.00  0.00     0.159 HD
ATOM     30  H   UNL     1     -17.429  18.786  31.734  1.00  0.00     0.159 HD
ENDBRANCH   4  28
TORSDOF 3
ENDMDL
MODEL 3
REMARK VINA RESULT:    -8.531      3.222      6.910
REMARK INTER + INTRA:          -9.967
REMARK INTER:                  -9.386
REMARK INTRA:                  -0.581
REMARK UNBOUND:                -0.189
REMARK SMILES CC1(C)OCCn2c1nc1c(N3CCOCC3)nc(-c3cnc(N)nc3)nc12
REMARK SMILES IDX 20 1 21 2 22 3 23 4 25 5 26 6 19 7 2 8 4 9 8 10 5 11 7 12
REMARK SMILES IDX 9 13 6 14 28 15 10 16 27 17 11 18 18 19 1 20 3 21 12 22
REMARK SMILES IDX 13 23 17 24 14 25 16 26 15 27 24 28
REMARK H PARENT 24 29 24 30
ROOT
ATOM      1  C   UNL     1     -18.313  13.940  29.650  1.00  0.00     0.056 A 
ATOM      2  C   UNL     1     -19.156  14.635  30.496  1.00  0.00     0.128 A 
ATOM      3  N   UNL     1     -18.775  15.653  31.305  1.00  0.00    -0.221 NA
ATOM      4  C   UNL     1     -17.481  15.979  31.281  1.00  0.00     0.219 A 
ATOM      5  N   UNL     1     -16.570  15.399  30.498  1.00  0.00    -0.221 NA
ATOM      6  C   UNL     1     -17.007  14.388  29.709  1.00  0.00     0.128 A 
ENDROOT
BRANCH   1   7
ATOM      7  C   UNL     1     -18.756  12.849  28.784  1.00  0.00     0.167 A 
ATOM      8  C   UNL     1     -22.418  10.024  25.171  1.00  0.00     0.120 C 
ATOM      9  O   UNL     1     -23.377  11.080  24.919  1.00  0.00    -0.366 OA
ATOM     10  C   UNL     1     -21.299  10.534  26.046  1.00  0.00     0.143 A 
ATOM     11  C   UNL     1     -23.704  11.880  26.059  1.00  0.00     0.183 C 
ATOM     12  N   UNL     1     -21.369  11.757  26.662  1.00  0.00    -0.308 N 
ATOM     13  N   UNL     1     -20.176   9.918  26.372  1.00  0.00    -0.224 NA
ATOM     14  C   UNL     1     -22.481  12.665  26.503  1.00  0.00     0.154 C 
ATOM     15  C   UNL     1     -20.245  11.938  27.408  1.00  0.00     0.166 A 
ATOM     16  C   UNL     1     -19.493  10.791  27.208  1.00  0.00     0.151 A 
ATOM     17  N   UNL     1     -19.945  12.998  28.170  1.00  0.00    -0.208 NA
ATOM     18  C   UNL     1     -18.252  10.713  27.885  1.00  0.00     0.161 A 
ATOM     19  N   UNL     1     -17.933  11.779  28.684  1.00  0.00    -0.208 NA
ATOM     20  C   UNL     1     -23.121   8.831  25.827  1.00  0.00     0.051 C 
ATOM     21  C   UNL     1     -21.870   9.613  23.802  1.00  0.00     0.051 C 
BRANCH  18  22
ATOM     22  N   UNL     1     -17.326   9.666  27.821  1.00  0.00    -0.350 N 
ATOM     23  C   UNL     1     -16.464   9.520  26.636  1.00  0.00     0.146 C 
ATOM     24  C   UNL     1     -17.894   8.395  28.323  1.00  0.00     0.146 C 
ATOM     25  C   UNL     1     -17.041   8.452  25.699  1.00  0.00     0.181 C 
ATOM     26  C   UNL     1     -17.134   7.190  27.747  1.00  0.00     0.181 C 
ATOM     27  O   UNL     1     -17.150   7.151  26.309  1.00  0.00    -0.378 OA
ENDBRANCH  18  22
ENDBRANCH   1   7
BRANCH   4  28
ATOM     28  N   UNL     1     -17.068  17.019  32.083  1.00  0.00    -0.368 N 
ATOM     29  H   UNL     1     -16.392  16.682  32.755  1.00  0.00     0.159 HD
ATOM     30  H   UNL     1     -17.871  17.517  32.438  1.00  0.00     0.159 HD
ENDBRANCH   4  28
TORSDOF 3
ENDMDL
MODEL 4
REMARK VINA RESULT:    -8.437      3.790      6.580
REMARK INTER + INTRA:          -9.859
REMARK INTER:                  -9.266
REMARK INTRA:                  -0.594
REMARK UNBOUND:                -0.189
REMARK SMILES CC1(C)OCCn2c1nc1c(N3CCOCC3)nc(-c3cnc(N)nc3)nc12
REMARK SMILES IDX 20 1 21 2 22 3 23 4 25 5 26 6 19 7 2 8 4 9 8 10 5 11 7 12
REMARK SMILES IDX 9 13 6 14 28 15 10 16 27 17 11 18 18 19 1 20 3 21 12 22
REMARK SMILES IDX 13 23 17 24 14 25 16 26 15 27 24 28
REMARK H PARENT 24 29 24 30
ROOT
ATOM      1  C   UNL     1     -16.843  14.648  29.707  1.00  0.00     0.056 A 
ATOM      2  C   UNL     1     -16.532  13.748  28.705  1.00  0.00     0.128 A 
ATOM      3  N   UNL     1     -15.287  13.530  28.218  1.00  0.00    -0.221 NA
ATOM      4  C   UNL     1     -14.305  14.263  28.748  1.00  0.00     0.219 A 
ATOM      5  N   UNL     1     -14.469  15.150  29.731  1.00  0.00    -0.221 NA
ATOM      6  C   UNL     1     -15.735  15.326  30.180  1.00  0.00     0.128 A 
ENDROOT
BRANCH   1   7
ATOM      7  C   UNL     1     -18.197  14.856  30.215  1.00  0.00     0.167 A 
ATOM      8  C   UNL     1     -22.288  16.928  33.878  1.00  0.00     0.120 C 
ATOM      9  O   UNL     1     -21.482  17.850  34.650  1.00  0.00    -0.366 OA
ATOM     10  C   UNL     1     -21.458  16.297  32.787  1.00  0.00     0.143 A 
ATOM     11  C   UNL     1     -20.168  17.381  34.968  1.00  0.00     0.183 C 
ATOM     12  N   UNL     1     -20.096  16.447  32.742  1.00  0.00    -0.308 N 
ATOM     13  N   UNL     1     -21.868  15.521  31.798  1.00  0.00    -0.224 NA
ATOM     14  C   UNL     1     -19.351  17.238  33.695  1.00  0.00     0.154 C 
ATOM     15  C   UNL     1     -19.612  15.747  31.680  1.00  0.00     0.166 A 
ATOM     16  C   UNL     1     -20.728  15.184  31.082  1.00  0.00     0.151 A 
ATOM     17  N   UNL     1     -18.330  15.632  31.307  1.00  0.00    -0.208 NA
ATOM     18  C   UNL     1     -20.505  14.386  29.935  1.00  0.00     0.161 A 
ATOM     19  N   UNL     1     -19.200  14.239  29.546  1.00  0.00    -0.208 NA
ATOM     20  C   UNL     1     -22.877  15.857  34.803  1.00  0.00     0.051 C 
ATOM     21  C   UNL     1     -23.417  17.761  33.266  1.00  0.00     0.051 C 
BRANCH  18  22
ATOM     22  N   UNL     1     -21.475  13.735  29.164  1.00  0.00    -0.350 N 
ATOM     23  C   UNL     1     -22.433  12.822  29.809  1.00  0.00     0.146 C 
ATOM     24  C   UNL     1     -20.921  13.234  27.887  1.00  0.00     0.146 C 
ATOM     25  C   UNL     1     -21.977  11.370  29.627  1.00  0.00     0.181 C 
ATOM     26  C   UNL     1     -21.773  12.079  27.335  1.00  0.00     0.181 C 
ATOM     27  O   UNL     1     -21.873  10.971  28.246  1.00  0.00    -0.378 OA
ENDBRANCH  18  22
ENDBRANCH   1   7
BRANCH   4  28
ATOM     28  N   UNL     1     -13.027  14.052  28.281  1.00  0.00    -0.368 N 
ATOM     29  H   UNL     1     -13.047  13.386  27.523  1.00  0.00     0.159 HD
ATOM     30  H   UNL     1     -12.407  13.861  29.056  1.00  0.00     0.159 HD
ENDBRANCH   4  28
TORSDOF 3
ENDMDL
MODEL 5
REMARK VINA RESULT:    -8.402      4.181      7.440
REMARK INTER + INTRA:          -9.818
REMARK INTER:                  -9.210
REMARK INTRA:                  -0.608
REMARK UNBOUND:                -0.189
REMARK SMILES CC1(C)OCCn2c1nc1c(N3CCOCC3)nc(-c3cnc(N)nc3)nc12
REMARK SMILES IDX 20 1 21 2 22 3 23 4 25 5 26 6 19 7 2 8 4 9 8 10 5 11 7 12
REMARK SMILES IDX 9 13 6 14 28 15 10 16 27 17 11 18 18 19 1 20 3 21 12 22
REMARK SMILES IDX 13 23 17 24 14 25 16 26 15 27 24 28
REMARK H PARENT 24 29 24 30
ROOT
ATOM      1  C   UNL     1     -16.404  15.398  30.325  1.00  0.00     0.056 A 
ATOM      2  C   UNL     1     -15.407  16.263  29.915  1.00  0.00     0.128 A 
ATOM      3  N   UNL     1     -14.363  15.921  29.123  1.00  0.00    -0.221 NA
ATOM      4  C   UNL     1     -14.303  14.645  28.736  1.00  0.00     0.219 A 
ATOM      5  N   UNL     1     -15.209  13.717  29.047  1.00  0.00    -0.221 NA
ATOM      6  C   UNL     1     -16.232  14.114  29.841  1.00  0.00     0.128 A 
ENDROOT
BRANCH   1   7
ATOM      7  C   UNL     1     -17.522  15.798  31.176  1.00  0.00     0.167 A 
ATOM      8  C   UNL     1     -20.132  18.555  35.653  1.00  0.00     0.120 C 
ATOM      9  O   UNL     1     -19.045  19.411  36.081  1.00  0.00    -0.366 OA
ATOM     10  C   UNL     1     -19.725  17.768  34.431  1.00  0.00     0.143 A 
ATOM     11  C   UNL     1     -17.751  18.801  36.053  1.00  0.00     0.183 C 
ATOM     12  N   UNL     1     -18.427  17.747  33.989  1.00  0.00    -0.308 N 
ATOM     13  N   UNL     1     -20.483  16.996  33.671  1.00  0.00    -0.224 NA
ATOM     14  C   UNL     1     -17.360  18.490  34.617  1.00  0.00     0.154 C 
ATOM     15  C   UNL     1     -18.348  16.936  32.899  1.00  0.00     0.166 A 
ATOM     16  C   UNL     1     -19.643  16.483  32.694  1.00  0.00     0.151 A 
ATOM     17  N   UNL     1     -17.250  16.643  32.189  1.00  0.00    -0.208 NA
ATOM     18  C   UNL     1     -19.847  15.602  31.604  1.00  0.00     0.161 A 
ATOM     19  N   UNL     1     -18.734  15.274  30.875  1.00  0.00    -0.208 NA
ATOM     20  C   UNL     1     -20.531  17.616  36.797  1.00  0.00     0.051 C 
ATOM     21  C   UNL     1     -21.299  19.486  35.316  1.00  0.00     0.051 C 
BRANCH  18  22
ATOM     22  N   UNL     1     -21.061  15.034  31.200  1.00  0.00    -0.350 N 
ATOM     23  C   UNL     1     -21.839  14.217  32.146  1.00  0.00     0.146 C 
ATOM     24  C   UNL     1     -20.982  14.476  29.834  1.00  0.00     0.146 C 
ATOM     25  C   UNL     1     -21.585  12.728  31.882  1.00  0.00     0.181 C 
ATOM     26  C   UNL     1     -22.056  13.398  29.618  1.00  0.00     0.181 C 
ATOM     27  O   UNL     1     -21.956  12.310  30.553  1.00  0.00    -0.378 OA
ENDBRANCH  18  22
ENDBRANCH   1   7
BRANCH   4  28
ATOM     28  N   UNL     1     -13.259  14.272  27.918  1.00  0.00    -0.368 N 
ATOM     29  H   UNL     1     -13.303  13.279  27.742  1.00  0.00     0.159 HD
ATOM     30  H   UNL     1     -12.393  14.645  28.279  1.00  0.00     0.159 HD
ENDBRANCH   4  28
TORSDOF 3
ENDMDL
MODEL 6
REMARK VINA RESULT:    -8.297      2.678      5.501
REMARK INTER + INTRA:          -9.699
REMARK INTER:                  -9.016
REMARK INTRA:                  -0.683
REMARK UNBOUND:                -0.189
REMARK SMILES CC1(C)OCCn2c1nc1c(N3CCOCC3)nc(-c3cnc(N)nc3)nc12
REMARK SMILES IDX 20 1 21 2 22 3 23 4 25 5 26 6 19 7 2 8 4 9 8 10 5 11 7 12
REMARK SMILES IDX 9 13 6 14 28 15 10 16 27 17 11 18 18 19 1 20 3 21 12 22
REMARK SMILES IDX 13 23 17 24 14 25 16 26 15 27 24 28
REMARK H PARENT 24 29 24 30
ROOT
ATOM      1  C   UNL     1     -16.141  13.288  28.297  1.00  0.00     0.056 A 
ATOM      2  C   UNL     1     -15.968  14.442  29.038  1.00  0.00     0.128 A 
ATOM      3  N   UNL     1     -14.819  15.158  29.099  1.00  0.00    -0.221 NA
ATOM      4  C   UNL     1     -13.786  14.686  28.399  1.00  0.00     0.219 A 
ATOM      5  N   UNL     1     -13.828  13.595  27.631  1.00  0.00    -0.221 NA
ATOM      6  C   UNL     1     -15.001  12.920  27.606  1.00  0.00     0.128 A 
ENDROOT
BRANCH   1   7
ATOM      7  C   UNL     1     -17.395  12.541  28.246  1.00  0.00     0.167 A 
ATOM      8  C   UNL     1     -23.078  11.527  29.310  1.00  0.00     0.120 C 
ATOM      9  O   UNL     1     -23.467  12.825  29.821  1.00  0.00    -0.366 OA
ATOM     10  C   UNL     1     -21.630  11.547  28.884  1.00  0.00     0.143 A 
ATOM     11  C   UNL     1     -22.505  13.447  30.679  1.00  0.00     0.183 C 
ATOM     12  N   UNL     1     -20.807  12.603  29.184  1.00  0.00    -0.308 N 
ATOM     13  N   UNL     1     -20.958  10.607  28.242  1.00  0.00    -0.224 NA
ATOM     14  C   UNL     1     -21.252  13.783  29.887  1.00  0.00     0.154 C 
ATOM     15  C   UNL     1     -19.560  12.335  28.711  1.00  0.00     0.166 A 
ATOM     16  C   UNL     1     -19.664  11.092  28.106  1.00  0.00     0.151 A 
ATOM     17  N   UNL     1     -18.473  13.111  28.817  1.00  0.00    -0.208 NA
ATOM     18  C   UNL     1     -18.487  10.563  27.523  1.00  0.00     0.161 A 
ATOM     19  N   UNL     1     -17.359  11.332  27.636  1.00  0.00    -0.208 NA
ATOM     20  C   UNL     1     -23.315  10.457  30.380  1.00  0.00     0.051 C 
ATOM     21  C   UNL     1     -23.978  11.259  28.101  1.00  0.00     0.051 C 
BRANCH  18  22
ATOM     22  N   UNL     1     -18.359   9.342  26.850  1.00  0.00    -0.350 N 
ATOM     23  C   UNL     1     -18.149   8.102  27.615  1.00  0.00     0.146 C 
ATOM     24  C   UNL     1     -17.516   9.464  25.641  1.00  0.00     0.146 C 
ATOM     25  C   UNL     1     -16.661   7.732  27.612  1.00  0.00     0.181 C 
ATOM     26  C   UNL     1     -16.922   8.102  25.247  1.00  0.00     0.181 C 
ATOM     27  O   UNL     1     -16.127   7.513  26.291  1.00  0.00    -0.378 OA
ENDBRANCH  18  22
ENDBRANCH   1   7
BRANCH   4  28
ATOM     28  N   UNL     1     -12.610  15.401  28.432  1.00  0.00    -0.368 N 
ATOM     29  H   UNL     1     -12.813  16.390  28.450  1.00  0.00     0.159 HD
ATOM     30  H   UNL     1     -11.985  15.065  27.714  1.00  0.00     0.159 HD
ENDBRANCH   4  28
TORSDOF 3
ENDMDL
MODEL 7
REMARK VINA RESULT:    -8.200      3.757      5.722
REMARK INTER + INTRA:          -9.587
REMARK INTER:                  -9.132
REMARK INTRA:                  -0.455
REMARK UNBOUND:                -0.189
REMARK SMILES CC1(C)OCCn2c1nc1c(N3CCOCC3)nc(-c3cnc(N)nc3)nc12
REMARK SMILES IDX 20 1 21 2 22 3 23 4 25 5 26 6 19 7 2 8 4 9 8 10 5 11 7 12
REMARK SMILES IDX 9 13 6 14 28 15 10 16 27 17 11 18 18 19 1 20 3 21 12 22
REMARK SMILES IDX 13 23 17 24 14 25 16 26 15 27 24 28
REMARK H PARENT 24 29 24 30
ROOT
ATOM      1  C   UNL     1     -16.919  14.533  29.583  1.00  0.00     0.056 A 
ATOM      2  C   UNL     1     -16.240  13.835  28.602  1.00  0.00     0.128 A 
ATOM      3  N   UNL     1     -14.973  14.097  28.202  1.00  0.00    -0.221 NA
ATOM      4  C   UNL     1     -14.359  15.119  28.801  1.00  0.00     0.219 A 
ATOM      5  N   UNL     1     -14.896  15.859  29.773  1.00  0.00    -0.221 NA
ATOM      6  C   UNL     1     -16.165  15.553  30.133  1.00  0.00     0.128 A 
ENDROOT
BRANCH   1   7
ATOM      7  C   UNL     1     -18.285  14.222  29.997  1.00  0.00     0.167 A 
ATOM      8  C   UNL     1     -23.515  11.577  29.672  1.00  0.00     0.120 C 
ATOM      9  O   UNL     1     -23.225  10.585  28.657  1.00  0.00    -0.366 OA
ATOM     10  C   UNL     1     -22.271  12.368  29.998  1.00  0.00     0.143 A 
ATOM     11  C   UNL     1     -22.400  11.045  27.583  1.00  0.00     0.183 C 
ATOM     12  N   UNL     1     -21.133  12.263  29.239  1.00  0.00    -0.308 N 
ATOM     13  N   UNL     1     -22.101  13.254  30.964  1.00  0.00    -0.224 NA
ATOM     14  C   UNL     1     -21.012  11.376  28.106  1.00  0.00     0.154 C 
ATOM     15  C   UNL     1     -20.192  13.108  29.741  1.00  0.00     0.166 A 
ATOM     16  C   UNL     1     -20.798  13.713  30.832  1.00  0.00     0.151 A 
ATOM     17  N   UNL     1     -18.954  13.307  29.270  1.00  0.00    -0.208 NA
ATOM     18  C   UNL     1     -20.026  14.660  31.547  1.00  0.00     0.161 A 
ATOM     19  N   UNL     1     -18.763  14.893  31.072  1.00  0.00    -0.208 NA
ATOM     20  C   UNL     1     -24.636  12.502  29.186  1.00  0.00     0.051 C 
ATOM     21  C   UNL     1     -23.983  10.800  30.905  1.00  0.00     0.051 C 
BRANCH  18  22
ATOM     22  N   UNL     1     -20.422  15.379  32.682  1.00  0.00    -0.350 N 
ATOM     23  C   UNL     1     -21.815  15.835  32.812  1.00  0.00     0.146 C 
ATOM     24  C   UNL     1     -19.412  16.384  33.078  1.00  0.00     0.146 C 
ATOM     25  C   UNL     1     -21.923  17.310  32.408  1.00  0.00     0.181 C 
ATOM     26  C   UNL     1     -20.052  17.507  33.910  1.00  0.00     0.181 C 
ATOM     27  O   UNL     1     -21.112  18.186  33.214  1.00  0.00    -0.378 OA
ENDBRANCH  18  22
ENDBRANCH   1   7
BRANCH   4  28
ATOM     28  N   UNL     1     -13.065  15.400  28.423  1.00  0.00    -0.368 N 
ATOM     29  H   UNL     1     -12.894  16.392  28.505  1.00  0.00     0.159 HD
ATOM     30  H   UNL     1     -12.866  14.962  27.535  1.00  0.00     0.159 HD
ENDBRANCH   4  28
TORSDOF 3
ENDMDL
MODEL 8
REMARK VINA RESULT:    -8.187      4.868      9.147
REMARK INTER + INTRA:          -9.572
REMARK INTER:                  -8.906
REMARK INTRA:                  -0.666
REMARK UNBOUND:                -0.189
REMARK SMILES CC1(C)OCCn2c1nc1c(N3CCOCC3)nc(-c3cnc(N)nc3)nc12
REMARK SMILES IDX 20 1 21 2 22 3 23 4 25 5 26 6 19 7 2 8 4 9 8 10 5 11 7 12
REMARK SMILES IDX 9 13 6 14 28 15 10 16 27 17 11 18 18 19 1 20 3 21 12 22
REMARK SMILES IDX 13 23 17 24 14 25 16 26 15 27 24 28
REMARK H PARENT 24 29 24 30
ROOT
ATOM      1  C   UNL     1     -22.119  16.305  33.013  1.00  0.00     0.056 A 
ATOM      2  C   UNL     1     -22.805  15.107  33.081  1.00  0.00     0.128 A 
ATOM      3  N   UNL     1     -24.117  14.982  33.392  1.00  0.00    -0.221 NA
ATOM      4  C   UNL     1     -24.773  16.111  33.666  1.00  0.00     0.219 A 
ATOM      5  N   UNL     1     -24.233  17.330  33.618  1.00  0.00    -0.221 NA
ATOM      6  C   UNL     1     -22.918  17.396  33.301  1.00  0.00     0.128 A 
ENDROOT
BRANCH   1   7
ATOM      7  C   UNL     1     -20.703  16.408  32.669  1.00  0.00     0.167 A 
ATOM      8  C   UNL     1     -15.784  15.079  29.755  1.00  0.00     0.120 C 
ATOM      9  O   UNL     1     -16.338  14.251  28.703  1.00  0.00    -0.366 OA
ATOM     10  C   UNL     1     -16.890  15.622  30.628  1.00  0.00     0.143 A 
ATOM     11  C   UNL     1     -17.384  13.368  29.120  1.00  0.00     0.183 C 
ATOM     12  N   UNL     1     -18.179  15.167  30.520  1.00  0.00    -0.308 N 
ATOM     13  N   UNL     1     -16.797  16.521  31.592  1.00  0.00    -0.224 NA
ATOM     14  C   UNL     1     -18.595  14.175  29.556  1.00  0.00     0.154 C 
ATOM     15  C   UNL     1     -18.947  15.803  31.447  1.00  0.00     0.166 A 
ATOM     16  C   UNL     1     -18.080  16.663  32.103  1.00  0.00     0.151 A 
ATOM     17  N   UNL     1     -20.256  15.624  31.669  1.00  0.00    -0.208 NA
ATOM     18  C   UNL     1     -18.629  17.457  33.138  1.00  0.00     0.161 A 
ATOM     19  N   UNL     1     -19.962  17.278  33.396  1.00  0.00    -0.208 NA
ATOM     20  C   UNL     1     -14.787  14.263  30.584  1.00  0.00     0.051 C 
ATOM     21  C   UNL     1     -15.056  16.228  29.053  1.00  0.00     0.051 C 
BRANCH  18  22
ATOM     22  N   UNL     1     -17.951  18.400  33.922  1.00  0.00    -0.350 N 
ATOM     23  C   UNL     1     -16.946  17.953  34.900  1.00  0.00     0.146 C 
ATOM     24  C   UNL     1     -18.857  19.458  34.418  1.00  0.00     0.146 C 
ATOM     25  C   UNL     1     -17.562  17.913  36.303  1.00  0.00     0.181 C 
ATOM     26  C   UNL     1     -18.283  20.124  35.679  1.00  0.00     0.181 C 
ATOM     27  O   UNL     1     -18.052  19.192  36.750  1.00  0.00    -0.378 OA
ENDBRANCH  18  22
ENDBRANCH   1   7
BRANCH   4  28
ATOM     28  N   UNL     1     -26.113  16.015  33.972  1.00  0.00    -0.368 N 
ATOM     29  H   UNL     1     -26.652  15.951  33.120  1.00  0.00     0.159 HD
ATOM     30  H   UNL     1     -26.365  16.736  34.632  1.00  0.00     0.159 HD
ENDBRANCH   4  28
TORSDOF 3
ENDMDL
MODEL 9
REMARK VINA RESULT:    -7.962      1.905      4.917
REMARK INTER + INTRA:          -9.315
REMARK INTER:                  -9.046
REMARK INTRA:                  -0.269
REMARK UNBOUND:                -0.189
REMARK SMILES CC1(C)OCCn2c1nc1c(N3CCOCC3)nc(-c3cnc(N)nc3)nc12
REMARK SMILES IDX 20 1 21 2 22 3 23 4 25 5 26 6 19 7 2 8 4 9 8 10 5 11 7 12
REMARK SMILES IDX 9 13 6 14 28 15 10 16 27 17 11 18 18 19 1 20 3 21 12 22
REMARK SMILES IDX 13 23 17 24 14 25 16 26 15 27 24 28
REMARK H PARENT 24 29 24 30
ROOT
ATOM      1  C   UNL     1     -16.347  11.286  26.887  1.00  0.00     0.056 A 
ATOM      2  C   UNL     1     -16.502  10.085  26.221  1.00  0.00     0.128 A 
ATOM      3  N   UNL     1     -15.538   9.473  25.494  1.00  0.00    -0.221 NA
ATOM      4  C   UNL     1     -14.364  10.103  25.413  1.00  0.00     0.219 A 
ATOM      5  N   UNL     1     -14.080  11.255  26.023  1.00  0.00    -0.221 NA
ATOM      6  C   UNL     1     -15.082  11.822  26.737  1.00  0.00     0.128 A 
ENDROOT
BRANCH   1   7
ATOM      7  C   UNL     1     -17.406  11.919  27.669  1.00  0.00     0.167 A 
ATOM      8  C   UNL     1     -19.699  15.764  31.466  1.00  0.00     0.120 C 
ATOM      9  O   UNL     1     -18.571  16.660  31.619  1.00  0.00    -0.366 OA
ATOM     10  C   UNL     1     -19.380  14.692  30.453  1.00  0.00     0.143 A 
ATOM     11  C   UNL     1     -17.295  16.016  31.676  1.00  0.00     0.183 C 
ATOM     12  N   UNL     1     -18.109  14.519  29.965  1.00  0.00    -0.308 N 
ATOM     13  N   UNL     1     -20.196  13.787  29.941  1.00  0.00    -0.224 NA
ATOM     14  C   UNL     1     -16.993  15.355  30.342  1.00  0.00     0.154 C 
ATOM     15  C   UNL     1     -18.110  13.467  29.102  1.00  0.00     0.166 A 
ATOM     16  C   UNL     1     -19.423  13.024  29.077  1.00  0.00     0.151 A 
ATOM     17  N   UNL     1     -17.060  12.974  28.432  1.00  0.00    -0.208 NA
ATOM     18  C   UNL     1     -19.707  11.914  28.246  1.00  0.00     0.161 A 
ATOM     19  N   UNL     1     -18.645  11.381  27.564  1.00  0.00    -0.208 NA
ATOM     20  C   UNL     1     -20.054  15.144  32.821  1.00  0.00     0.051 C 
ATOM     21  C   UNL     1     -20.863  16.626  30.970  1.00  0.00     0.051 C 
BRANCH  18  22
ATOM     22  N   UNL     1     -20.955  11.308  28.052  1.00  0.00    -0.350 N 
ATOM     23  C   UNL     1     -21.692  11.533  26.797  1.00  0.00     0.146 C 
ATOM     24  C   UNL     1     -21.792  11.367  29.269  1.00  0.00     0.146 C 
ATOM     25  C   UNL     1     -22.763  12.610  27.005  1.00  0.00     0.181 C 
ATOM     26  C   UNL     1     -23.283  11.242  28.918  1.00  0.00     0.181 C 
ATOM     27  O   UNL     1     -23.733  12.267  28.014  1.00  0.00    -0.378 OA
ENDBRANCH  18  22
ENDBRANCH   1   7
BRANCH   4  28
ATOM     28  N   UNL     1     -13.360   9.496  24.691  1.00  0.00    -0.368 N 
ATOM     29  H   UNL     1     -12.905  10.178  24.101  1.00  0.00     0.159 HD
ATOM     30  H   UNL     1     -13.714   8.659  24.250  1.00  0.00     0.159 HD
ENDBRANCH   4  28
TORSDOF 3
ENDMDL
