REMARK SMILES COC(=O)c1cn(CC(c2ccccc2)c2c[nH]c3ccccc23)cc2c([O-])nnc1-2
REMARK SMILES IDX 5 1 6 2 7 3 25 4 26 5 27 6 28 7 29 8 30 9 31 10 3 11 4 12
REMARK SMILES IDX 2 13 1 14 8 15 9 16 10 17 11 18 15 19 12 20 14 21 13 22
REMARK SMILES IDX 16 23 17 24 24 25 18 26 23 27 19 28 22 29 20 30 21 31
REMARK H PARENT 18 32
ROOT
ATOM      1  C   UNL     1       3.651  -0.432  -0.329  1.00  0.00     0.104 C 
ATOM      2  C   UNL     1       2.380  -0.744   0.006  1.00  0.00     0.103 C 
ATOM      3  N   UNL     1       1.272  -0.691  -0.849  1.00  0.00    -0.352 N 
ATOM      4  C   UNL     1       1.510  -0.334  -2.178  1.00  0.00     0.097 C 
ATOM      5  C   UNL     1       2.717  -0.001  -2.641  1.00  0.00     0.032 C 
ATOM      6  C   UNL     1       3.312   0.417  -3.907  1.00  0.00     0.022 C 
ATOM      7  O   UNL     1       2.497   0.499  -4.836  1.00  0.00    -0.857 OA
ATOM      8  N   UNL     1       4.602   0.612  -3.749  1.00  0.00    -0.166 NA
ATOM      9  N   UNL     1       4.957   0.328  -2.356  1.00  0.00    -0.150 NA
ATOM     10  C   UNL     1       3.866  -0.024  -1.734  1.00  0.00     0.111 C 
ENDROOT
BRANCH   1  11
ATOM     11  C   UNL     1       4.692  -0.540   0.710  1.00  0.00     0.341 C 
ATOM     12  O   UNL     1       4.470  -0.907   1.860  1.00  0.00    -0.246 OA
BRANCH  11  13
ATOM     13  O   UNL     1       5.909  -0.183   0.242  1.00  0.00    -0.465 OA
ATOM     14  C   UNL     1       6.967  -0.261   1.194  1.00  0.00     0.282 C 
ENDBRANCH  11  13
ENDBRANCH   1  11
BRANCH   3  15
ATOM     15  C   UNL     1      -0.082  -1.088  -0.405  1.00  0.00     0.134 C 
BRANCH  15  16
ATOM     16  C   UNL     1      -0.667  -0.175   0.703  1.00  0.00     0.071 C 
BRANCH  16  17
ATOM     17  C   UNL     1      -1.035   1.268   0.373  1.00  0.00    -0.039 A 
ATOM     18  C   UNL     1      -1.247   2.182   1.425  1.00  0.00     0.004 A 
ATOM     19  C   UNL     1      -1.148   1.750  -0.939  1.00  0.00     0.004 A 
ATOM     20  C   UNL     1      -1.567   3.519   1.174  1.00  0.00     0.000 A 
ATOM     21  C   UNL     1      -1.462   3.089  -1.191  1.00  0.00     0.000 A 
ATOM     22  C   UNL     1      -1.674   3.972  -0.137  1.00  0.00     0.000 A 
ENDBRANCH  16  17
BRANCH  16  23
ATOM     23  C   UNL     1      -1.918  -0.789   1.312  1.00  0.00    -0.013 A 
ATOM     24  C   UNL     1      -2.028  -1.227   2.622  1.00  0.00     0.087 A 
ATOM     25  C   UNL     1      -3.182  -1.072   0.683  1.00  0.00     0.003 A 
ATOM     26  N   UNL     1      -3.281  -1.740   2.808  1.00  0.00    -0.361 N 
ATOM     27  C   UNL     1      -3.708  -0.883  -0.612  1.00  0.00     0.010 A 
ATOM     28  C   UNL     1      -4.004  -1.666   1.643  1.00  0.00     0.046 A 
ATOM     29  C   UNL     1      -5.016  -1.290  -0.900  1.00  0.00     0.001 A 
ATOM     30  C   UNL     1      -5.315  -2.080   1.373  1.00  0.00     0.026 A 
ATOM     31  C   UNL     1      -5.806  -1.882   0.081  1.00  0.00     0.002 A 
ATOM     32  H   UNL     1      -3.629  -2.127   3.673  1.00  0.00     0.166 HD
ENDBRANCH  16  23
ENDBRANCH  15  16
ENDBRANCH   3  15
TORSDOF 6
