MODEL 1
REMARK VINA RESULT:    -9.162      0.000      0.000
REMARK INTER + INTRA:         -16.669
REMARK INTER:                 -15.589
REMARK INTRA:                  -1.080
REMARK UNBOUND:                -1.080
REMARK SMILES COC(=O)C(Cc1ccc(OCCN2CCC(C)(C)c3cc(C(=O)c4ccccc4)ccc32)cc1)C(=O)OC
REMARK SMILES IDX 7 1 8 2 9 3 10 4 34 5 35 6 6 7 5 8 3 9 4 10 2 11 1 12 36 13
REMARK SMILES IDX 37 14 38 15 39 16 11 17 12 18 13 19 14 20 15 21 33 22 16 23
REMARK SMILES IDX 32 24 20 25 17 26 31 27 21 28 22 29 18 30 19 31 23 32 24 33
REMARK SMILES IDX 25 34 26 35 30 36 27 37 29 38 28 39
REMARK H PARENT
ROOT
ATOM      1  C   UNL     1       4.110   6.717  -4.256  1.00  0.00    -0.046 A 
ATOM      2  C   UNL     1       4.465   7.678  -5.209  1.00  0.00     0.007 A 
ATOM      3  C   UNL     1       5.450   7.407  -6.166  1.00  0.00     0.047 A 
ATOM      4  C   UNL     1       6.093   6.169  -6.179  1.00  0.00     0.119 A 
ATOM      5  C   UNL     1       5.731   5.204  -5.237  1.00  0.00     0.047 A 
ATOM      6  C   UNL     1       4.749   5.471  -4.281  1.00  0.00     0.007 A 
ENDROOT
BRANCH   1   7
ATOM      7  C   UNL     1       3.042   7.006  -3.226  1.00  0.00     0.062 C 
BRANCH   7   8
ATOM      8  C   UNL     1       3.393   8.202  -2.335  1.00  0.00     0.213 C 
BRANCH   8   9
ATOM      9  C   UNL     1       2.676   8.036  -1.025  1.00  0.00     0.320 C 
ATOM     10  O   UNL     1       2.349   8.982  -0.316  1.00  0.00    -0.251 OA
BRANCH   9  11
ATOM     11  O   UNL     1       2.367   6.737  -0.765  1.00  0.00    -0.468 OA
ATOM     12  C   UNL     1       2.423   6.383   0.618  1.00  0.00     0.282 C 
ENDBRANCH   9  11
ENDBRANCH   8   9
BRANCH   8  13
ATOM     13  C   UNL     1       4.881   8.367  -2.150  1.00  0.00     0.320 C 
ATOM     14  O   UNL     1       5.634   7.542  -1.647  1.00  0.00    -0.251 OA
BRANCH  13  15
ATOM     15  O   UNL     1       5.276   9.583  -2.630  1.00  0.00    -0.468 OA
ATOM     16  C   UNL     1       6.648   9.892  -2.378  1.00  0.00     0.282 C 
ENDBRANCH  13  15
ENDBRANCH   8  13
ENDBRANCH   7   8
ENDBRANCH   1   7
BRANCH   4  17
ATOM     17  O   UNL     1       7.073   5.780  -7.048  1.00  0.00    -0.492 OA
BRANCH  17  18
ATOM     18  C   UNL     1       7.838   4.623  -6.692  1.00  0.00     0.251 C 
BRANCH  18  19
ATOM     19  C   UNL     1       9.331   4.987  -6.688  1.00  0.00     0.158 C 
BRANCH  19  20
ATOM     20  N   UNL     1       9.896   5.131  -8.046  1.00  0.00    -0.368 N 
ATOM     21  C   UNL     1       9.737   3.967  -8.917  1.00  0.00     0.117 C 
ATOM     22  C   UNL     1      10.039   6.375  -8.667  1.00  0.00     0.041 A 
ATOM     23  C   UNL     1      10.808   3.983  -9.988  1.00  0.00     0.032 C 
ATOM     24  C   UNL     1       9.852   7.581  -7.961  1.00  0.00     0.027 A 
ATOM     25  C   UNL     1      10.419   6.478 -10.032  1.00  0.00    -0.018 A 
ATOM     26  C   UNL     1      10.667   5.226 -10.887  1.00  0.00    -0.007 C 
ATOM     27  C   UNL     1       9.995   8.835  -8.562  1.00  0.00     0.014 A 
ATOM     28  C   UNL     1      10.540   7.752 -10.635  1.00  0.00     0.018 A 
ATOM     29  C   UNL     1      10.352   8.923  -9.900  1.00  0.00     0.023 A 
ATOM     30  C   UNL     1      11.974   5.336 -11.705  1.00  0.00     0.016 C 
ATOM     31  C   UNL     1       9.488   5.044 -11.866  1.00  0.00     0.016 C 
BRANCH  29  32
ATOM     32  C   UNL     1      10.490  10.264 -10.518  1.00  0.00     0.193 C 
ATOM     33  O   UNL     1      10.491  11.257  -9.795  1.00  0.00    -0.289 OA
BRANCH  32  34
ATOM     34  C   UNL     1      10.631  10.429 -11.988  1.00  0.00     0.022 A 
ATOM     35  C   UNL     1       9.565  10.864 -12.785  1.00  0.00     0.012 A 
ATOM     36  C   UNL     1      11.854  10.099 -12.582  1.00  0.00     0.012 A 
ATOM     37  C   UNL     1       9.736  10.998 -14.164  1.00  0.00     0.001 A 
ATOM     38  C   UNL     1      12.020  10.233 -13.961  1.00  0.00     0.001 A 
ATOM     39  C   UNL     1      10.963  10.687 -14.751  1.00  0.00     0.000 A 
ENDBRANCH  32  34
ENDBRANCH  29  32
ENDBRANCH  19  20
ENDBRANCH  18  19
ENDBRANCH  17  18
ENDBRANCH   4  17
TORSDOF 12
ENDMDL
