MODEL 1
REMARK minimizedAffinity -8.7306757
REMARK CNNscore 0.723691404
REMARK CNNaffinity 6.48855639
REMARK SMILES Oc1c(Cl)cccc1CN(Cc1ccc(F)cc1)C(=S)Nc1ccccc1
REMARK SMILES IDX 9 1 8 2 2 3 3 4 5 5 7 6 6 7 4 8 1 9 10 11 11 12 12 13 13 14
REMARK SMILES IDX 18 15 14 16 17 17 15 18 16 19 19 20 20 21 21 22 22 24 23 25
REMARK SMILES IDX 27 26 24 27 26 28 25 29
REMARK H PARENT 1 10 21 23
ROOT
ATOM      1  C   UNL     1      21.421  33.565  15.047  1.00  0.00     0.158 C 
ENDROOT
BRANCH   1   2
ATOM      2  C   UNL     1      22.225  34.769  14.610  1.00  0.00     0.015 A 
ATOM      3  C   UNL     1      22.440  35.079  13.263  1.00  0.00     0.139 A 
ATOM      4  C   UNL     1      23.208  36.195  12.900  1.00  0.00     0.083 A 
ATOM      5  C   UNL     1      23.763  37.018  13.876  1.00  0.00     0.024 A 
ATOM      6  C   UNL     1      22.785  35.615  15.585  1.00  0.00     0.009 A 
ATOM      7  C   UNL     1      23.548  36.729  15.222  1.00  0.00     0.002 A 
ATOM      8  Cl  UNL     1      23.469  36.567  11.235  1.00  0.00    -0.080 Cl
BRANCH   3   9
ATOM      9  O   UNL     1      21.878  34.283  12.297  1.00  0.00    -0.506 OA
ATOM     10  H   UNL     1      22.181  34.638  11.437  1.00  0.00     0.293 HD
ENDBRANCH   3   9
ENDBRANCH   1   2
BRANCH   1  11
ATOM     11  N   UNL     1      19.957  33.751  14.933  1.00  0.00    -0.340 N 
BRANCH  11  12
ATOM     12  C   UNL     1      19.244  32.735  14.131  1.00  0.00     0.154 C 
BRANCH  12  13
ATOM     13  C   UNL     1      18.307  33.314  13.090  1.00  0.00    -0.028 A 
ATOM     14  C   UNL     1      16.945  33.516  13.367  1.00  0.00     0.008 A 
ATOM     15  C   UNL     1      18.808  33.703  11.835  1.00  0.00     0.008 A 
ATOM     16  C   UNL     1      16.099  34.067  12.403  1.00  0.00     0.039 A 
ATOM     17  C   UNL     1      17.961  34.253  10.873  1.00  0.00     0.039 A 
ATOM     18  C   UNL     1      16.614  34.428  11.166  1.00  0.00     0.123 A 
ATOM     19  F   UNL     1      15.802  34.957  10.240  1.00  0.00    -0.207 F 
ENDBRANCH  12  13
ENDBRANCH  11  12
BRANCH  11  20
ATOM     20  C   UNL     1      19.276  34.795  15.606  1.00  0.00     0.174 C 
ATOM     21  S   UNL     1      19.544  36.434  15.317  1.00  0.00    -0.041 S 
ATOM     22  N   UNL     1      18.408  34.328  16.580  1.00  0.00    -0.333 N 
ATOM     23  H   UNL     1      18.762  33.505  17.066  1.00  0.00     0.169 HD
BRANCH  22  24
ATOM     24  C   UNL     1      17.222  34.871  17.117  1.00  0.00     0.040 A 
ATOM     25  C   UNL     1      17.357  35.770  18.184  1.00  0.00     0.026 A 
ATOM     26  C   UNL     1      15.938  34.511  16.703  1.00  0.00     0.026 A 
ATOM     27  C   UNL     1      16.232  36.331  18.793  1.00  0.00     0.002 A 
ATOM     28  C   UNL     1      14.810  35.073  17.312  1.00  0.00     0.002 A 
ATOM     29  C   UNL     1      14.958  35.986  18.353  1.00  0.00     0.000 A 
ENDBRANCH  22  24
ENDBRANCH  11  20
ENDBRANCH   1  11
TORSDOF 7
ENDMDL
MODEL 2
REMARK minimizedAffinity -8.45649624
REMARK CNNscore 0.546991706
REMARK CNNaffinity 7.07228851
REMARK SMILES Oc1c(Cl)cccc1CN(Cc1ccc(F)cc1)C(=S)Nc1ccccc1
REMARK SMILES IDX 9 1 8 2 2 3 3 4 5 5 7 6 6 7 4 8 1 9 10 11 11 12 12 13 13 14
REMARK SMILES IDX 18 15 14 16 17 17 15 18 16 19 19 20 20 21 21 22 22 24 23 25
REMARK SMILES IDX 27 26 24 27 26 28 25 29
REMARK H PARENT 1 10 21 23
ROOT
ATOM      1  C   UNL     1      16.953  32.546  12.019  1.00  0.00     0.158 C 
ENDROOT
BRANCH   1   2
ATOM      2  C   UNL     1      16.936  32.886  10.545  1.00  0.00     0.015 A 
ATOM      3  C   UNL     1      17.686  32.175   9.602  1.00  0.00     0.139 A 
ATOM      4  C   UNL     1      17.657  32.534   8.247  1.00  0.00     0.083 A 
ATOM      5  C   UNL     1      16.873  33.601   7.816  1.00  0.00     0.024 A 
ATOM      6  C   UNL     1      16.142  33.956  10.093  1.00  0.00     0.009 A 
ATOM      7  C   UNL     1      16.111  34.312   8.742  1.00  0.00     0.002 A 
ATOM      8  Cl  UNL     1      18.589  31.652   7.093  1.00  0.00    -0.080 Cl
BRANCH   3   9
ATOM      9  O   UNL     1      18.444  31.109  10.019  1.00  0.00    -0.506 OA
ATOM     10  H   UNL     1      18.919  30.783   9.228  1.00  0.00     0.293 HD
ENDBRANCH   3   9
ENDBRANCH   1   2
BRANCH   1  11
ATOM     11  N   UNL     1      17.190  33.713  12.897  1.00  0.00    -0.340 N 
BRANCH  11  12
ATOM     12  C   UNL     1      18.464  34.429  12.678  1.00  0.00     0.154 C 
BRANCH  12  13
ATOM     13  C   UNL     1      19.664  33.773  13.333  1.00  0.00    -0.028 A 
ATOM     14  C   UNL     1      19.630  33.371  14.679  1.00  0.00     0.008 A 
ATOM     15  C   UNL     1      20.820  33.513  12.577  1.00  0.00     0.008 A 
ATOM     16  C   UNL     1      20.737  32.752  15.262  1.00  0.00     0.039 A 
ATOM     17  C   UNL     1      21.925  32.894  13.162  1.00  0.00     0.039 A 
ATOM     18  C   UNL     1      21.874  32.521  14.499  1.00  0.00     0.123 A 
ATOM     19  F   UNL     1      22.936  31.927  15.059  1.00  0.00    -0.207 F 
ENDBRANCH  12  13
ENDBRANCH  11  12
BRANCH  11  20
ATOM     20  C   UNL     1      16.229  34.157  13.838  1.00  0.00     0.174 C 
ATOM     21  S   UNL     1      14.610  33.686  13.823  1.00  0.00    -0.041 S 
ATOM     22  N   UNL     1      16.743  35.078  14.736  1.00  0.00    -0.333 N 
ATOM     23  H   UNL     1      17.425  35.706  14.315  1.00  0.00     0.169 HD
BRANCH  22  24
ATOM     24  C   UNL     1      16.381  35.395  16.063  1.00  0.00     0.040 A 
ATOM     25  C   UNL     1      15.028  35.263  16.404  1.00  0.00     0.026 A 
ATOM     26  C   UNL     1      17.266  35.900  17.017  1.00  0.00     0.026 A 
ATOM     27  C   UNL     1      14.578  35.585  17.686  1.00  0.00     0.002 A 
ATOM     28  C   UNL     1      16.817  36.223  18.303  1.00  0.00     0.002 A 
ATOM     29  C   UNL     1      15.475  36.060  18.639  1.00  0.00     0.000 A 
ENDBRANCH  22  24
ENDBRANCH  11  20
ENDBRANCH   1  11
TORSDOF 7
ENDMDL
MODEL 3
REMARK minimizedAffinity -8.32485867
REMARK CNNscore 0.477346361
REMARK CNNaffinity 6.86750031
REMARK SMILES Oc1c(Cl)cccc1CN(Cc1ccc(F)cc1)C(=S)Nc1ccccc1
REMARK SMILES IDX 9 1 8 2 2 3 3 4 5 5 7 6 6 7 4 8 1 9 10 11 11 12 12 13 13 14
REMARK SMILES IDX 18 15 14 16 17 17 15 18 16 19 19 20 20 21 21 22 22 24 23 25
REMARK SMILES IDX 27 26 24 27 26 28 25 29
REMARK H PARENT 1 10 21 23
ROOT
ATOM      1  C   UNL     1      18.853  32.321  12.108  1.00  0.00     0.158 C 
ENDROOT
BRANCH   1   2
ATOM      2  C   UNL     1      18.118  33.023  10.989  1.00  0.00     0.015 A 
ATOM      3  C   UNL     1      17.831  32.398   9.770  1.00  0.00     0.139 A 
ATOM      4  C   UNL     1      17.163  33.090   8.750  1.00  0.00     0.083 A 
ATOM      5  C   UNL     1      16.768  34.412   8.937  1.00  0.00     0.024 A 
ATOM      6  C   UNL     1      17.704  34.356  11.165  1.00  0.00     0.009 A 
ATOM      7  C   UNL     1      17.036  35.045  10.148  1.00  0.00     0.002 A 
ATOM      8  Cl  UNL     1      16.818  32.310   7.251  1.00  0.00    -0.080 Cl
BRANCH   3   9
ATOM      9  O   UNL     1      18.201  31.088   9.590  1.00  0.00    -0.506 OA
ATOM     10  H   UNL     1      17.955  30.857   8.671  1.00  0.00     0.293 HD
ENDBRANCH   3   9
ENDBRANCH   1   2
BRANCH   1  11
ATOM     11  N   UNL     1      18.612  32.911  13.443  1.00  0.00    -0.340 N 
BRANCH  11  12
ATOM     12  C   UNL     1      19.797  33.014  14.320  1.00  0.00     0.154 C 
BRANCH  12  13
ATOM     13  C   UNL     1      20.719  34.169  13.981  1.00  0.00    -0.028 A 
ATOM     14  C   UNL     1      20.771  35.319  14.786  1.00  0.00     0.008 A 
ATOM     15  C   UNL     1      21.575  34.079  12.870  1.00  0.00     0.008 A 
ATOM     16  C   UNL     1      21.638  36.366  14.471  1.00  0.00     0.039 A 
ATOM     17  C   UNL     1      22.441  35.128  12.557  1.00  0.00     0.039 A 
ATOM     18  C   UNL     1      22.463  36.262  13.359  1.00  0.00     0.123 A 
ATOM     19  F   UNL     1      23.295  37.267  13.056  1.00  0.00    -0.207 F 
ENDBRANCH  12  13
ENDBRANCH  11  12
BRANCH  11  20
ATOM     20  C   UNL     1      17.343  33.409  13.829  1.00  0.00     0.174 C 
ATOM     21  S   UNL     1      15.884  32.888  13.163  1.00  0.00    -0.041 S 
ATOM     22  N   UNL     1      17.429  34.424  14.769  1.00  0.00    -0.333 N 
ATOM     23  H   UNL     1      18.234  35.032  14.625  1.00  0.00     0.169 HD
BRANCH  22  24
ATOM     24  C   UNL     1      16.532  34.850  15.772  1.00  0.00     0.040 A 
ATOM     25  C   UNL     1      17.087  35.450  16.911  1.00  0.00     0.026 A 
ATOM     26  C   UNL     1      15.152  34.641  15.729  1.00  0.00     0.026 A 
ATOM     27  C   UNL     1      16.273  35.873  17.965  1.00  0.00     0.002 A 
ATOM     28  C   UNL     1      14.336  35.065  16.785  1.00  0.00     0.002 A 
ATOM     29  C   UNL     1      14.896  35.685  17.898  1.00  0.00     0.000 A 
ENDBRANCH  22  24
ENDBRANCH  11  20
ENDBRANCH   1  11
TORSDOF 7
ENDMDL
MODEL 4
REMARK minimizedAffinity -8.4249382
REMARK CNNscore 0.344079733
REMARK CNNaffinity 6.25603724
REMARK SMILES Oc1c(Cl)cccc1CN(Cc1ccc(F)cc1)C(=S)Nc1ccccc1
REMARK SMILES IDX 9 1 8 2 2 3 3 4 5 5 7 6 6 7 4 8 1 9 10 11 11 12 12 13 13 14
REMARK SMILES IDX 18 15 14 16 17 17 15 18 16 19 19 20 20 21 21 22 22 24 23 25
REMARK SMILES IDX 27 26 24 27 26 28 25 29
REMARK H PARENT 1 10 21 23
ROOT
ATOM      1  C   UNL     1      19.130  32.768  14.863  1.00  0.00     0.158 C 
ENDROOT
BRANCH   1   2
ATOM      2  C   UNL     1      18.273  33.057  13.652  1.00  0.00     0.015 A 
ATOM      3  C   UNL     1      18.623  32.632  12.365  1.00  0.00     0.139 A 
ATOM      4  C   UNL     1      17.809  32.937  11.265  1.00  0.00     0.083 A 
ATOM      5  C   UNL     1      16.634  33.663  11.436  1.00  0.00     0.024 A 
ATOM      6  C   UNL     1      17.077  33.782  13.810  1.00  0.00     0.009 A 
ATOM      7  C   UNL     1      16.265  34.084  12.712  1.00  0.00     0.002 A 
ATOM      8  Cl  UNL     1      18.252  32.410   9.683  1.00  0.00    -0.080 Cl
BRANCH   3   9
ATOM      9  O   UNL     1      19.770  31.898  12.195  1.00  0.00    -0.506 OA
ATOM     10  H   UNL     1      19.857  31.742  11.233  1.00  0.00     0.293 HD
ENDBRANCH   3   9
ENDBRANCH   1   2
BRANCH   1  11
ATOM     11  N   UNL     1      19.482  33.973  15.646  1.00  0.00    -0.340 N 
BRANCH  11  12
ATOM     12  C   UNL     1      19.188  33.902  17.093  1.00  0.00     0.154 C 
BRANCH  12  13
ATOM     13  C   UNL     1      17.905  34.599  17.499  1.00  0.00    -0.028 A 
ATOM     14  C   UNL     1      17.922  35.742  18.315  1.00  0.00     0.008 A 
ATOM     15  C   UNL     1      16.670  34.128  17.019  1.00  0.00     0.008 A 
ATOM     16  C   UNL     1      16.732  36.382  18.665  1.00  0.00     0.039 A 
ATOM     17  C   UNL     1      15.482  34.769  17.370  1.00  0.00     0.039 A 
ATOM     18  C   UNL     1      15.524  35.889  18.192  1.00  0.00     0.123 A 
ATOM     19  F   UNL     1      14.382  36.503  18.528  1.00  0.00    -0.207 F 
ENDBRANCH  12  13
ENDBRANCH  11  12
BRANCH  11  20
ATOM     20  C   UNL     1      20.121  35.093  15.061  1.00  0.00     0.174 C 
ATOM     21  S   UNL     1      19.743  36.694  15.432  1.00  0.00    -0.041 S 
ATOM     22  N   UNL     1      21.048  34.736  14.094  1.00  0.00    -0.333 N 
ATOM     23  H   UNL     1      20.762  33.924  13.550  1.00  0.00     0.169 HD
BRANCH  22  24
ATOM     24  C   UNL     1      22.217  35.380  13.635  1.00  0.00     0.040 A 
ATOM     25  C   UNL     1      22.848  36.265  14.521  1.00  0.00     0.026 A 
ATOM     26  C   UNL     1      22.730  35.246  12.344  1.00  0.00     0.026 A 
ATOM     27  C   UNL     1      23.993  36.967  14.136  1.00  0.00     0.002 A 
ATOM     28  C   UNL     1      23.878  35.948  11.958  1.00  0.00     0.002 A 
ATOM     29  C   UNL     1      24.511  36.804  12.855  1.00  0.00     0.000 A 
ENDBRANCH  22  24
ENDBRANCH  11  20
ENDBRANCH   1  11
TORSDOF 7
ENDMDL
MODEL 5
REMARK minimizedAffinity -8.7725029
REMARK CNNscore 0.315827191
REMARK CNNaffinity 6.49721098
REMARK SMILES Oc1c(Cl)cccc1CN(Cc1ccc(F)cc1)C(=S)Nc1ccccc1
REMARK SMILES IDX 9 1 8 2 2 3 3 4 5 5 7 6 6 7 4 8 1 9 10 11 11 12 12 13 13 14
REMARK SMILES IDX 18 15 14 16 17 17 15 18 16 19 19 20 20 21 21 22 22 24 23 25
REMARK SMILES IDX 27 26 24 27 26 28 25 29
REMARK H PARENT 1 10 21 23
ROOT
ATOM      1  C   UNL     1      18.369  33.957  10.804  1.00  0.00     0.158 C 
ENDROOT
BRANCH   1   2
ATOM      2  C   UNL     1      17.486  33.481   9.672  1.00  0.00     0.015 A 
ATOM      3  C   UNL     1      17.559  32.181   9.159  1.00  0.00     0.139 A 
ATOM      4  C   UNL     1      16.735  31.785   8.096  1.00  0.00     0.083 A 
ATOM      5  C   UNL     1      15.826  32.678   7.536  1.00  0.00     0.024 A 
ATOM      6  C   UNL     1      16.556  34.370   9.101  1.00  0.00     0.009 A 
ATOM      7  C   UNL     1      15.734  33.973   8.043  1.00  0.00     0.002 A 
ATOM      8  Cl  UNL     1      16.835  30.180   7.470  1.00  0.00    -0.080 Cl
BRANCH   3   9
ATOM      9  O   UNL     1      18.439  31.290   9.721  1.00  0.00    -0.506 OA
ATOM     10  H   UNL     1      18.368  30.466   9.198  1.00  0.00     0.293 HD
ENDBRANCH   3   9
ENDBRANCH   1   2
BRANCH   1  11
ATOM     11  N   UNL     1      18.049  33.339  12.110  1.00  0.00    -0.340 N 
BRANCH  11  12
ATOM     12  C   UNL     1      19.135  32.548  12.725  1.00  0.00     0.154 C 
BRANCH  12  13
ATOM     13  C   UNL     1      19.767  33.204  13.937  1.00  0.00    -0.028 A 
ATOM     14  C   UNL     1      20.503  34.395  13.820  1.00  0.00     0.008 A 
ATOM     15  C   UNL     1      19.582  32.644  15.213  1.00  0.00     0.008 A 
ATOM     16  C   UNL     1      21.064  34.996  14.948  1.00  0.00     0.039 A 
ATOM     17  C   UNL     1      20.143  33.247  16.340  1.00  0.00     0.039 A 
ATOM     18  C   UNL     1      20.881  34.416  16.196  1.00  0.00     0.123 A 
ATOM     19  F   UNL     1      21.419  34.992  17.279  1.00  0.00    -0.207 F 
ENDBRANCH  12  13
ENDBRANCH  11  12
BRANCH  11  20
ATOM     20  C   UNL     1      16.808  33.548  12.759  1.00  0.00     0.174 C 
ATOM     21  S   UNL     1      15.389  32.727  12.367  1.00  0.00    -0.041 S 
ATOM     22  N   UNL     1      16.865  34.554  13.711  1.00  0.00    -0.333 N 
ATOM     23  H   UNL     1      17.477  35.323  13.441  1.00  0.00     0.169 HD
BRANCH  22  24
ATOM     24  C   UNL     1      16.118  34.772  14.889  1.00  0.00     0.040 A 
ATOM     25  C   UNL     1      16.827  35.183  16.026  1.00  0.00     0.026 A 
ATOM     26  C   UNL     1      14.748  34.531  15.004  1.00  0.00     0.026 A 
ATOM     27  C   UNL     1      16.171  35.392  17.242  1.00  0.00     0.002 A 
ATOM     28  C   UNL     1      14.089  34.740  16.221  1.00  0.00     0.002 A 
ATOM     29  C   UNL     1      14.799  35.175  17.337  1.00  0.00     0.000 A 
ENDBRANCH  22  24
ENDBRANCH  11  20
ENDBRANCH   1  11
TORSDOF 7
ENDMDL
MODEL 6
REMARK minimizedAffinity -8.76934338
REMARK CNNscore 0.292733192
REMARK CNNaffinity 6.56380272
REMARK SMILES Oc1c(Cl)cccc1CN(Cc1ccc(F)cc1)C(=S)Nc1ccccc1
REMARK SMILES IDX 9 1 8 2 2 3 3 4 5 5 7 6 6 7 4 8 1 9 10 11 11 12 12 13 13 14
REMARK SMILES IDX 18 15 14 16 17 17 15 18 16 19 19 20 20 21 21 22 22 24 23 25
REMARK SMILES IDX 27 26 24 27 26 28 25 29
REMARK H PARENT 1 10 21 23
ROOT
ATOM      1  C   UNL     1      17.134  32.559  12.079  1.00  0.00     0.158 C 
ENDROOT
BRANCH   1   2
ATOM      2  C   UNL     1      17.042  32.917  10.612  1.00  0.00     0.015 A 
ATOM      3  C   UNL     1      17.688  32.175   9.617  1.00  0.00     0.139 A 
ATOM      4  C   UNL     1      17.592  32.551   8.269  1.00  0.00     0.083 A 
ATOM      5  C   UNL     1      16.846  33.666   7.899  1.00  0.00     0.024 A 
ATOM      6  C   UNL     1      16.285  34.036  10.221  1.00  0.00     0.009 A 
ATOM      7  C   UNL     1      16.188  34.409   8.877  1.00  0.00     0.002 A 
ATOM      8  Cl  UNL     1      18.395  31.630   7.050  1.00  0.00    -0.080 Cl
BRANCH   3   9
ATOM      9  O   UNL     1      18.407  31.062   9.975  1.00  0.00    -0.506 OA
ATOM     10  H   UNL     1      18.810  30.718   9.153  1.00  0.00     0.293 HD
ENDBRANCH   3   9
ENDBRANCH   1   2
BRANCH   1  11
ATOM     11  N   UNL     1      18.088  33.398  12.838  1.00  0.00    -0.340 N 
BRANCH  11  12
ATOM     12  C   UNL     1      17.612  34.755  13.180  1.00  0.00     0.154 C 
BRANCH  12  13
ATOM     13  C   UNL     1      16.853  34.833  14.490  1.00  0.00    -0.028 A 
ATOM     14  C   UNL     1      17.426  35.419  15.631  1.00  0.00     0.008 A 
ATOM     15  C   UNL     1      15.534  34.354  14.564  1.00  0.00     0.008 A 
ATOM     16  C   UNL     1      16.707  35.499  16.824  1.00  0.00     0.039 A 
ATOM     17  C   UNL     1      14.817  34.435  15.759  1.00  0.00     0.039 A 
ATOM     18  C   UNL     1      15.411  35.005  16.878  1.00  0.00     0.123 A 
ATOM     19  F   UNL     1      14.721  35.081  18.024  1.00  0.00    -0.207 F 
ENDBRANCH  12  13
ENDBRANCH  11  12
BRANCH  11  20
ATOM     20  C   UNL     1      19.345  32.909  13.269  1.00  0.00     0.174 C 
ATOM     21  S   UNL     1      20.511  32.267  12.234  1.00  0.00    -0.041 S 
ATOM     22  N   UNL     1      19.492  32.949  14.647  1.00  0.00    -0.333 N 
ATOM     23  H   UNL     1      18.627  32.746  15.145  1.00  0.00     0.169 HD
BRANCH  22  24
ATOM     24  C   UNL     1      20.638  33.062  15.463  1.00  0.00     0.040 A 
ATOM     25  C   UNL     1      21.855  32.634  14.917  1.00  0.00     0.026 A 
ATOM     26  C   UNL     1      20.614  33.497  16.790  1.00  0.00     0.026 A 
ATOM     27  C   UNL     1      23.033  32.683  15.667  1.00  0.00     0.002 A 
ATOM     28  C   UNL     1      21.793  33.546  17.543  1.00  0.00     0.002 A 
ATOM     29  C   UNL     1      23.002  33.145  16.980  1.00  0.00     0.000 A 
ENDBRANCH  22  24
ENDBRANCH  11  20
ENDBRANCH   1  11
TORSDOF 7
ENDMDL
MODEL 7
REMARK minimizedAffinity -8.80474186
REMARK CNNscore 0.245854035
REMARK CNNaffinity 5.90404749
REMARK SMILES Oc1c(Cl)cccc1CN(Cc1ccc(F)cc1)C(=S)Nc1ccccc1
REMARK SMILES IDX 9 1 8 2 2 3 3 4 5 5 7 6 6 7 4 8 1 9 10 11 11 12 12 13 13 14
REMARK SMILES IDX 18 15 14 16 17 17 15 18 16 19 19 20 20 21 21 22 22 24 23 25
REMARK SMILES IDX 27 26 24 27 26 28 25 29
REMARK H PARENT 1 10 21 23
ROOT
ATOM      1  C   UNL     1      18.900  32.643  12.692  1.00  0.00     0.158 C 
ENDROOT
BRANCH   1   2
ATOM      2  C   UNL     1      20.183  33.327  13.107  1.00  0.00     0.015 A 
ATOM      3  C   UNL     1      21.438  32.907  12.653  1.00  0.00     0.139 A 
ATOM      4  C   UNL     1      22.607  33.557  13.077  1.00  0.00     0.083 A 
ATOM      5  C   UNL     1      22.536  34.637  13.951  1.00  0.00     0.024 A 
ATOM      6  C   UNL     1      20.128  34.426  13.984  1.00  0.00     0.009 A 
ATOM      7  C   UNL     1      21.292  35.075  14.403  1.00  0.00     0.002 A 
ATOM      8  Cl  UNL     1      24.149  33.028  12.513  1.00  0.00    -0.080 Cl
BRANCH   3   9
ATOM      9  O   UNL     1      21.512  31.855  11.775  1.00  0.00    -0.506 OA
ATOM     10  H   UNL     1      22.464  31.692  11.619  1.00  0.00     0.293 HD
ENDBRANCH   3   9
ENDBRANCH   1   2
BRANCH   1  11
ATOM     11  N   UNL     1      17.861  33.573  12.197  1.00  0.00    -0.340 N 
BRANCH  11  12
ATOM     12  C   UNL     1      18.130  34.189  10.881  1.00  0.00     0.154 C 
BRANCH  12  13
ATOM     13  C   UNL     1      17.622  33.380   9.704  1.00  0.00    -0.028 A 
ATOM     14  C   UNL     1      18.210  32.152   9.356  1.00  0.00     0.008 A 
ATOM     15  C   UNL     1      16.514  33.833   8.968  1.00  0.00     0.008 A 
ATOM     16  C   UNL     1      17.719  31.410   8.280  1.00  0.00     0.039 A 
ATOM     17  C   UNL     1      16.024  33.090   7.893  1.00  0.00     0.039 A 
ATOM     18  C   UNL     1      16.633  31.886   7.558  1.00  0.00     0.123 A 
ATOM     19  F   UNL     1      16.161  31.175   6.526  1.00  0.00    -0.207 F 
ENDBRANCH  12  13
ENDBRANCH  11  12
BRANCH  11  20
ATOM     20  C   UNL     1      16.656  33.805  12.906  1.00  0.00     0.174 C 
ATOM     21  S   UNL     1      15.195  33.041  12.553  1.00  0.00    -0.041 S 
ATOM     22  N   UNL     1      16.787  34.781  13.880  1.00  0.00    -0.333 N 
ATOM     23  H   UNL     1      17.413  35.537  13.605  1.00  0.00     0.169 HD
BRANCH  22  24
ATOM     24  C   UNL     1      16.099  34.990  15.095  1.00  0.00     0.040 A 
ATOM     25  C   UNL     1      16.876  35.254  16.231  1.00  0.00     0.026 A 
ATOM     26  C   UNL     1      14.716  34.874  15.241  1.00  0.00     0.026 A 
ATOM     27  C   UNL     1      16.278  35.443  17.479  1.00  0.00     0.002 A 
ATOM     28  C   UNL     1      14.115  35.063  16.491  1.00  0.00     0.002 A 
ATOM     29  C   UNL     1      14.895  35.352  17.608  1.00  0.00     0.000 A 
ENDBRANCH  22  24
ENDBRANCH  11  20
ENDBRANCH   1  11
TORSDOF 7
ENDMDL
MODEL 8
REMARK minimizedAffinity -8.00319576
REMARK CNNscore 0.236446291
REMARK CNNaffinity 6.71824408
REMARK SMILES Oc1c(Cl)cccc1CN(Cc1ccc(F)cc1)C(=S)Nc1ccccc1
REMARK SMILES IDX 9 1 8 2 2 3 3 4 5 5 7 6 6 7 4 8 1 9 10 11 11 12 12 13 13 14
REMARK SMILES IDX 18 15 14 16 17 17 15 18 16 19 19 20 20 21 21 22 22 24 23 25
REMARK SMILES IDX 27 26 24 27 26 28 25 29
REMARK H PARENT 1 10 21 23
ROOT
ATOM      1  C   UNL     1      18.091  32.821  12.662  1.00  0.00     0.158 C 
ENDROOT
BRANCH   1   2
ATOM      2  C   UNL     1      17.581  33.182  11.284  1.00  0.00     0.015 A 
ATOM      3  C   UNL     1      17.871  32.414  10.151  1.00  0.00     0.139 A 
ATOM      4  C   UNL     1      17.395  32.794   8.888  1.00  0.00     0.083 A 
ATOM      5  C   UNL     1      16.619  33.940   8.742  1.00  0.00     0.024 A 
ATOM      6  C   UNL     1      16.789  34.334  11.121  1.00  0.00     0.009 A 
ATOM      7  C   UNL     1      16.313  34.710   9.862  1.00  0.00     0.002 A 
ATOM      8  Cl  UNL     1      17.761  31.840   7.498  1.00  0.00    -0.080 Cl
BRANCH   3   9
ATOM      9  O   UNL     1      18.618  31.271  10.294  1.00  0.00    -0.506 OA
ATOM     10  H   UNL     1      18.744  30.910   9.393  1.00  0.00     0.293 HD
ENDBRANCH   3   9
ENDBRANCH   1   2
BRANCH   1  11
ATOM     11  N   UNL     1      18.565  33.983  13.446  1.00  0.00    -0.340 N 
BRANCH  11  12
ATOM     12  C   UNL     1      19.848  34.570  13.006  1.00  0.00     0.154 C 
BRANCH  12  13
ATOM     13  C   UNL     1      21.054  34.064  13.772  1.00  0.00    -0.028 A 
ATOM     14  C   UNL     1      20.967  32.940  14.610  1.00  0.00     0.008 A 
ATOM     15  C   UNL     1      22.299  34.697  13.614  1.00  0.00     0.008 A 
ATOM     16  C   UNL     1      22.091  32.477  15.295  1.00  0.00     0.039 A 
ATOM     17  C   UNL     1      23.423  34.232  14.300  1.00  0.00     0.039 A 
ATOM     18  C   UNL     1      23.307  33.127  15.135  1.00  0.00     0.123 A 
ATOM     19  F   UNL     1      24.387  32.683  15.792  1.00  0.00    -0.207 F 
ENDBRANCH  12  13
ENDBRANCH  11  12
BRANCH  11  20
ATOM     20  C   UNL     1      17.805  34.539  14.504  1.00  0.00     0.174 C 
ATOM     21  S   UNL     1      16.254  34.026  14.921  1.00  0.00    -0.041 S 
ATOM     22  N   UNL     1      18.444  35.602  15.122  1.00  0.00    -0.333 N 
ATOM     23  H   UNL     1      18.978  36.177  14.472  1.00  0.00     0.169 HD
BRANCH  22  24
ATOM     24  C   UNL     1      18.360  36.110  16.436  1.00  0.00     0.040 A 
ATOM     25  C   UNL     1      19.539  36.612  17.003  1.00  0.00     0.026 A 
ATOM     26  C   UNL     1      17.204  36.071  17.218  1.00  0.00     0.026 A 
ATOM     27  C   UNL     1      19.551  37.107  18.309  1.00  0.00     0.002 A 
ATOM     28  C   UNL     1      17.215  36.566  18.527  1.00  0.00     0.002 A 
ATOM     29  C   UNL     1      18.386  37.088  19.070  1.00  0.00     0.000 A 
ENDBRANCH  22  24
ENDBRANCH  11  20
ENDBRANCH   1  11
TORSDOF 7
ENDMDL
MODEL 9
REMARK minimizedAffinity -8.93550587
REMARK CNNscore 0.231711745
REMARK CNNaffinity 6.4478116
REMARK SMILES Oc1c(Cl)cccc1CN(Cc1ccc(F)cc1)C(=S)Nc1ccccc1
REMARK SMILES IDX 9 1 8 2 2 3 3 4 5 5 7 6 6 7 4 8 1 9 10 11 11 12 12 13 13 14
REMARK SMILES IDX 18 15 14 16 17 17 15 18 16 19 19 20 20 21 21 22 22 24 23 25
REMARK SMILES IDX 27 26 24 27 26 28 25 29
REMARK H PARENT 1 10 21 23
ROOT
ATOM      1  C   UNL     1      18.622  32.615  12.359  1.00  0.00     0.158 C 
ENDROOT
BRANCH   1   2
ATOM      2  C   UNL     1      17.848  33.143  11.172  1.00  0.00     0.015 A 
ATOM      3  C   UNL     1      17.807  32.473   9.945  1.00  0.00     0.139 A 
ATOM      4  C   UNL     1      17.093  33.006   8.862  1.00  0.00     0.083 A 
ATOM      5  C   UNL     1      16.406  34.210   8.994  1.00  0.00     0.024 A 
ATOM      6  C   UNL     1      17.143  34.355  11.292  1.00  0.00     0.009 A 
ATOM      7  C   UNL     1      16.429  34.884  10.213  1.00  0.00     0.002 A 
ATOM      8  Cl  UNL     1      17.050  32.171   7.352  1.00  0.00    -0.080 Cl
BRANCH   3   9
ATOM      9  O   UNL     1      18.465  31.275   9.817  1.00  0.00    -0.506 OA
ATOM     10  H   UNL     1      18.352  30.997   8.885  1.00  0.00     0.293 HD
ENDBRANCH   3   9
ENDBRANCH   1   2
BRANCH   1  11
ATOM     11  N   UNL     1      19.363  33.660  13.101  1.00  0.00    -0.340 N 
BRANCH  11  12
ATOM     12  C   UNL     1      20.669  34.045  12.527  1.00  0.00     0.154 C 
BRANCH  12  13
ATOM     13  C   UNL     1      21.851  33.759  13.433  1.00  0.00    -0.028 A 
ATOM     14  C   UNL     1      22.935  34.648  13.519  1.00  0.00     0.008 A 
ATOM     15  C   UNL     1      21.852  32.609  14.241  1.00  0.00     0.008 A 
ATOM     16  C   UNL     1      24.007  34.379  14.370  1.00  0.00     0.039 A 
ATOM     17  C   UNL     1      22.925  32.341  15.092  1.00  0.00     0.039 A 
ATOM     18  C   UNL     1      23.994  33.228  15.147  1.00  0.00     0.123 A 
ATOM     19  F   UNL     1      25.023  32.969  15.965  1.00  0.00    -0.207 F 
ENDBRANCH  12  13
ENDBRANCH  11  12
BRANCH  11  20
ATOM     20  C   UNL     1      18.824  34.298  14.245  1.00  0.00     0.174 C 
ATOM     21  S   UNL     1      19.500  35.663  14.968  1.00  0.00    -0.041 S 
ATOM     22  N   UNL     1      17.715  33.640  14.754  1.00  0.00    -0.333 N 
ATOM     23  H   UNL     1      17.784  32.626  14.675  1.00  0.00     0.169 HD
BRANCH  22  24
ATOM     24  C   UNL     1      16.605  34.106  15.489  1.00  0.00     0.040 A 
ATOM     25  C   UNL     1      15.422  34.345  14.775  1.00  0.00     0.026 A 
ATOM     26  C   UNL     1      16.639  34.413  16.850  1.00  0.00     0.026 A 
ATOM     27  C   UNL     1      14.285  34.836  15.419  1.00  0.00     0.002 A 
ATOM     28  C   UNL     1      15.500  34.906  17.497  1.00  0.00     0.002 A 
ATOM     29  C   UNL     1      14.322  35.112  16.783  1.00  0.00     0.000 A 
ENDBRANCH  22  24
ENDBRANCH  11  20
ENDBRANCH   1  11
TORSDOF 7
ENDMDL
