MODEL 9
REMARK minimizedAffinity -9.35102654
REMARK CNNscore 0.293570578
REMARK CNNaffinity 6.66753244
REMARK SMILES CO/N=C/c1c(N)ncnc1Nc1ccc2c(ccn2Cc2cccc(F)c2)c1
REMARK SMILES IDX 12 1 11 3 5 4 6 5 10 6 8 7 9 8 4 9 3 10 2 11 1 12 7 13 13 16
REMARK SMILES IDX 29 17 14 18 17 19 15 20 16 21 18 22 20 23 19 24 21 25 22 26
REMARK SMILES IDX 28 27 23 28 26 29 24 30 25 31 27 32
REMARK H PARENT 12 2 7 14 7 15
ROOT
ATOM      1  N   UNL     1      10.924   1.844  30.599  1.00  0.00    -0.339 N 
ATOM      2  H   UNL     1      10.867   2.658  31.193  1.00  0.00     0.168 HD
ENDROOT
BRANCH   1   3
ATOM      3  C   UNL     1      10.044   0.823  31.018  1.00  0.00     0.144 A 
ATOM      4  C   UNL     1       8.687   1.115  31.335  1.00  0.00     0.081 A 
ATOM      5  C   UNL     1       7.886   0.001  31.692  1.00  0.00     0.137 A 
ATOM      6  N   UNL     1      10.527  -0.447  31.069  1.00  0.00    -0.218 NA
ATOM      7  N   UNL     1       8.369  -1.265  31.743  1.00  0.00    -0.219 NA
ATOM      8  C   UNL     1       9.672  -1.429  31.431  1.00  0.00     0.226 A 
BRANCH   4   9
ATOM      9  C   UNL     1       8.100   2.478  31.290  1.00  0.00     0.169 C 
ATOM     10  N   UNL     1       7.949   3.153  30.227  1.00  0.00    -0.094 NA
BRANCH  10  11
ATOM     11  O   UNL     1       7.367   4.392  30.543  1.00  0.00    -0.399 OA
ATOM     12  C   UNL     1       6.192   4.558  29.765  1.00  0.00     0.315 C 
ENDBRANCH  10  11
ENDBRANCH   4   9
BRANCH   5  13
ATOM     13  N   UNL     1       6.533   0.111  32.032  1.00  0.00    -0.383 N 
ATOM     14  H   UNL     1       6.091   1.018  32.033  1.00  0.00     0.158 HD
ATOM     15  H   UNL     1       6.021  -0.721  32.286  1.00  0.00     0.158 HD
ENDBRANCH   5  13
ENDBRANCH   1   3
BRANCH   1  16
ATOM     16  C   UNL     1      11.864   2.003  29.562  1.00  0.00     0.040 A 
ATOM     17  C   UNL     1      11.530   2.364  28.248  1.00  0.00     0.036 A 
ATOM     18  C   UNL     1      13.199   1.765  29.895  1.00  0.00     0.028 A 
ATOM     19  C   UNL     1      12.545   2.499  27.289  1.00  0.00     0.002 A 
ATOM     20  C   UNL     1      14.239   1.888  28.976  1.00  0.00     0.029 A 
ATOM     21  C   UNL     1      13.900   2.263  27.672  1.00  0.00     0.048 A 
ATOM     22  C   UNL     1      12.557   2.837  25.899  1.00  0.00     0.028 A 
ATOM     23  N   UNL     1      14.687   2.478  26.548  1.00  0.00    -0.343 N 
ATOM     24  C   UNL     1      13.871   2.802  25.488  1.00  0.00     0.087 A 
BRANCH  23  25
ATOM     25  C   UNL     1      16.137   2.317  26.469  1.00  0.00     0.157 C 
BRANCH  25  26
ATOM     26  C   UNL     1      16.840   3.247  25.482  1.00  0.00    -0.025 A 
ATOM     27  C   UNL     1      17.601   2.700  24.444  1.00  0.00     0.044 A 
ATOM     28  C   UNL     1      16.763   4.640  25.612  1.00  0.00     0.006 A 
ATOM     29  C   UNL     1      18.265   3.531  23.539  1.00  0.00     0.123 A 
ATOM     30  C   UNL     1      17.426   5.471  24.708  1.00  0.00     0.003 A 
ATOM     31  C   UNL     1      18.175   4.917  23.671  1.00  0.00     0.039 A 
ATOM     32  F   UNL     1      18.995   2.992  22.538  1.00  0.00    -0.207 F 
ENDBRANCH  25  26
ENDBRANCH  23  25
ENDBRANCH   1  16
TORSDOF 7
ENDMDL
