REMARK SMILES CC[C@@]1(C(=O)O)Cc2cc(OCCCOc3ccc(CC(C)(C)C)cc3Cl)ccc2O1
REMARK SMILES IDX 13 1 12 2 11 3 10 4 3 5 7 6 31 7 8 8 30 9 9 10 29 11 28 12
REMARK SMILES IDX 2 13 1 14 4 15 5 16 6 17 14 19 15 20 16 21 17 22 26 23 18 24
REMARK SMILES IDX 25 25 19 26 27 27 20 28 21 29 22 30 23 31 24 32
REMARK H PARENT 6 18
REMARK INDEX MAP 13 1 12 2 11 3 10 4 3 5 7 6 31 7 8 8 30 9 9 10 29 11 28 12
REMARK INDEX MAP 2 13 1 14 4 15 5 16 6 17 37 18 14 19 15 20 16 21 17 22 26 23
REMARK INDEX MAP 18 24 25 25 19 26 27 27 20 28 21 29 22 30 23 31 24 32
ROOT
ATOM      1  C   UNL     1       8.509   4.241  -6.174  1.00  0.00     0.083 C 
ENDROOT
BRANCH   1   2
ATOM      2  C   UNL     1       8.979   5.448  -6.985  1.00  0.00     0.233 C 
BRANCH   2   3
ATOM      3  O   UNL     1      10.179   5.090  -7.672  1.00  0.00    -0.493 OA
BRANCH   3   4
ATOM      4  C   UNL     1      10.257   5.416  -9.000  1.00  0.00     0.119 A 
ATOM      5  C   UNL     1      10.869   8.289 -12.591  1.00  0.00     0.209 C 
ATOM      6  C   UNL     1      10.603   8.595 -11.096  1.00  0.00     0.100 C 
ATOM      7  O   UNL     1      10.536   6.895 -12.843  1.00  0.00    -0.475 OA
ATOM      8  C   UNL     1      10.491   7.219 -10.563  1.00  0.00     0.002 A 
ATOM      9  C   UNL     1      10.441   6.319 -11.608  1.00  0.00     0.124 A 
ATOM     10  C   UNL     1      10.395   6.786  -9.251  1.00  0.00     0.054 A 
ATOM     11  C   UNL     1      10.294   4.965 -11.394  1.00  0.00     0.050 A 
ATOM     12  C   UNL     1      10.204   4.510 -10.072  1.00  0.00     0.050 A 
BRANCH   5  13
ATOM     13  C   UNL     1       9.982   9.162 -13.502  1.00  0.00     0.058 C 
ATOM     14  C   UNL     1       9.397  10.385 -12.803  1.00  0.00     0.009 C 
ENDBRANCH   5  13
BRANCH   5  15
ATOM     15  C   UNL     1      12.355   8.527 -12.905  1.00  0.00     0.348 C 
ATOM     16  O   UNL     1      13.265   7.714 -12.870  1.00  0.00    -0.248 OA
BRANCH  15  17
ATOM     17  O   UNL     1      12.626   9.801 -13.271  1.00  0.00    -0.478 OA
ATOM     18  H   UNL     1      13.553  10.065 -13.496  1.00  0.00     0.296 HD
ENDBRANCH  15  17
ENDBRANCH   5  15
ENDBRANCH   3   4
ENDBRANCH   2   3
ENDBRANCH   1   2
BRANCH   1  19
ATOM     19  C   UNL     1       9.358   3.000  -6.443  1.00  0.00     0.233 C 
BRANCH  19  20
ATOM     20  O   UNL     1       9.210   2.110  -5.337  1.00  0.00    -0.492 OA
BRANCH  20  21
ATOM     21  C   UNL     1      10.318   1.832  -4.580  1.00  0.00     0.137 A 
ATOM     22  C   UNL     1      11.359   0.989  -4.976  1.00  0.00     0.048 A 
ATOM     23  C   UNL     1      10.392   2.444  -3.320  1.00  0.00     0.083 A 
ATOM     24  C   UNL     1      12.452   0.761  -4.131  1.00  0.00     0.007 A 
ATOM     25  C   UNL     1      11.483   2.215  -2.474  1.00  0.00     0.028 A 
ATOM     26  C   UNL     1      12.523   1.366  -2.869  1.00  0.00    -0.046 A 
ATOM     27  Cl  UNL     1       9.143   3.503  -2.759  1.00  0.00    -0.080 Cl
BRANCH  26  28
ATOM     28  C   UNL     1      13.703   1.117  -1.958  1.00  0.00     0.041 C 
BRANCH  28  29
ATOM     29  C   UNL     1      15.000   1.920  -2.258  1.00  0.00    -0.034 C 
ATOM     30  C   UNL     1      16.203   1.004  -1.954  1.00  0.00     0.011 C 
ATOM     31  C   UNL     1      15.079   2.340  -3.736  1.00  0.00     0.011 C 
ATOM     32  C   UNL     1      15.111   3.171  -1.371  1.00  0.00     0.011 C 
ENDBRANCH  28  29
ENDBRANCH  26  28
ENDBRANCH  20  21
ENDBRANCH  19  20
ENDBRANCH   1  19
TORSDOF 11
