MODEL 1
REMARK VINA RESULT:    -9.475      0.000      0.000
REMARK INTER + INTRA:         -13.687
REMARK INTER:                 -12.798
REMARK INTRA:                  -0.889
REMARK UNBOUND:                -0.889
REMARK SMILES Cn1ccc(-c2ccc(Nc3nn([C@@H](CC#N)C4CC4)c4cc[nH]c(=O)c34)cc2Cl)n1
REMARK SMILES IDX 10 1 9 3 6 4 7 5 29 6 8 7 28 8 30 9 5 10 2 11 3 12 31 13
REMARK SMILES IDX 4 14 1 15 11 16 12 17 27 18 13 19 25 20 21 21 24 22 26 23
REMARK SMILES IDX 22 24 23 25 14 27 15 28 16 29 17 30 18 31 19 32 20 33
REMARK H PARENT 10 2 24 26
ROOT
ATOM      1  N   UNL     1     -16.832  19.116  19.063  1.00  0.00    -0.338 N 
ATOM      2  H   UNL     1     -16.272  19.706  18.447  1.00  0.00     0.168 HD
ENDROOT
BRANCH   1   3
ATOM      3  C   UNL     1     -16.238  17.855  19.276  1.00  0.00     0.041 A 
ATOM      4  C   UNL     1     -15.066  15.276  19.591  1.00  0.00     0.021 A 
ATOM      5  C   UNL     1     -15.981  15.536  18.561  1.00  0.00     0.014 A 
ATOM      6  C   UNL     1     -14.730  16.328  20.454  1.00  0.00     0.052 A 
ATOM      7  C   UNL     1     -16.562  16.802  18.410  1.00  0.00     0.027 A 
ATOM      8  C   UNL     1     -15.308  17.597  20.290  1.00  0.00     0.047 A 
ATOM      9  Cl  UNL     1     -13.578  16.166  21.737  1.00  0.00    -0.084 Cl
BRANCH   4  10
ATOM     10  C   UNL     1     -14.511  13.928  19.699  1.00  0.00     0.094 A 
ATOM     11  N   UNL     1     -13.062  12.372  19.648  1.00  0.00    -0.275 N 
ATOM     12  C   UNL     1     -14.219  11.736  19.978  1.00  0.00     0.109 A 
ATOM     13  N   UNL     1     -13.214  13.690  19.441  1.00  0.00    -0.173 NA
ATOM     14  C   UNL     1     -15.182  12.715  20.018  1.00  0.00     0.050 A 
ATOM     15  C   UNL     1     -11.754  11.781  19.503  1.00  0.00     0.173 C 
ENDBRANCH   4  10
ENDBRANCH   1   3
BRANCH   1  16
ATOM     16  C   UNL     1     -18.009  19.640  19.484  1.00  0.00     0.166 A 
ATOM     17  N   UNL     1     -19.149  18.991  19.760  1.00  0.00    -0.153 NA
ATOM     18  C   UNL     1     -18.175  21.022  19.698  1.00  0.00     0.109 A 
ATOM     19  N   UNL     1     -20.033  19.947  20.129  1.00  0.00    -0.258 N 
ATOM     20  C   UNL     1     -17.310  22.172  19.569  1.00  0.00     0.261 A 
ATOM     21  C   UNL     1     -19.479  21.191  20.107  1.00  0.00     0.078 A 
ATOM     22  N   UNL     1     -17.935  23.375  19.897  1.00  0.00    -0.328 N 
ATOM     23  O   UNL     1     -16.141  22.104  19.206  1.00  0.00    -0.269 OA
ATOM     24  C   UNL     1     -20.072  22.428  20.433  1.00  0.00     0.046 A 
ATOM     25  C   UNL     1     -19.256  23.494  20.310  1.00  0.00     0.088 A 
ATOM     26  H   UNL     1     -17.355  24.202  19.818  1.00  0.00     0.169 HD
BRANCH  19  27
ATOM     27  C   UNL     1     -21.405  19.546  20.467  1.00  0.00     0.125 C 
BRANCH  27  28
ATOM     28  C   UNL     1     -21.763  20.038  21.882  1.00  0.00     0.147 C 
ATOM     29  C   UNL     1     -22.019  18.911  22.784  1.00  0.00     0.064 C 
ATOM     30  N   UNL     1     -22.204  18.010  23.491  1.00  0.00    -0.198 NA
ENDBRANCH  27  28
BRANCH  27  31
ATOM     31  C   UNL     1     -22.364  20.083  19.426  1.00  0.00     0.015 C 
ATOM     32  C   UNL     1     -23.648  19.361  19.091  1.00  0.00     0.006 C 
ATOM     33  C   UNL     1     -23.696  20.668  19.829  1.00  0.00     0.006 C 
ENDBRANCH  27  31
ENDBRANCH  19  27
ENDBRANCH   1  16
TORSDOF 6
ENDMDL
MODEL 2
REMARK VINA RESULT:    -9.340      1.704      2.167
REMARK INTER + INTRA:         -13.506
REMARK INTER:                 -13.178
REMARK INTRA:                  -0.328
REMARK UNBOUND:                -0.889
REMARK SMILES Cn1ccc(-c2ccc(Nc3nn([C@@H](CC#N)C4CC4)c4cc[nH]c(=O)c34)cc2Cl)n1
REMARK SMILES IDX 10 1 9 3 6 4 7 5 29 6 8 7 28 8 30 9 5 10 2 11 3 12 31 13
REMARK SMILES IDX 4 14 1 15 11 16 12 17 27 18 13 19 25 20 21 21 24 22 26 23
REMARK SMILES IDX 22 24 23 25 14 27 15 28 16 29 17 30 18 31 19 32 20 33
REMARK H PARENT 10 2 24 26
ROOT
ATOM      1  N   UNL     1     -16.951  18.228  21.936  1.00  0.00    -0.338 N 
ATOM      2  H   UNL     1     -16.657  18.618  22.831  1.00  0.00     0.168 HD
ENDROOT
BRANCH   1   3
ATOM      3  C   UNL     1     -16.025  17.292  21.432  1.00  0.00     0.041 A 
ATOM      4  C   UNL     1     -14.087  15.413  20.517  1.00  0.00     0.021 A 
ATOM      5  C   UNL     1     -13.791  16.315  21.550  1.00  0.00     0.014 A 
ATOM      6  C   UNL     1     -15.371  15.450  19.957  1.00  0.00     0.052 A 
ATOM      7  C   UNL     1     -14.742  17.242  21.995  1.00  0.00     0.027 A 
ATOM      8  C   UNL     1     -16.322  16.376  20.416  1.00  0.00     0.047 A 
ATOM      9  Cl  UNL     1     -15.890  14.365  18.712  1.00  0.00    -0.084 Cl
BRANCH   4  10
ATOM     10  C   UNL     1     -13.042  14.483  20.092  1.00  0.00     0.094 A 
ATOM     11  N   UNL     1     -12.119  12.632  19.600  1.00  0.00    -0.275 N 
ATOM     12  C   UNL     1     -11.129  13.550  19.431  1.00  0.00     0.109 A 
ATOM     13  N   UNL     1     -13.275  13.161  20.030  1.00  0.00    -0.173 NA
ATOM     14  C   UNL     1     -11.692  14.764  19.745  1.00  0.00     0.050 A 
ATOM     15  C   UNL     1     -12.034  11.209  19.371  1.00  0.00     0.173 C 
ENDBRANCH   4  10
ENDBRANCH   1   3
BRANCH   1  16
ATOM     16  C   UNL     1     -18.106  18.719  21.421  1.00  0.00     0.166 A 
ATOM     17  N   UNL     1     -19.362  18.401  21.764  1.00  0.00    -0.153 NA
ATOM     18  C   UNL     1     -18.113  19.689  20.401  1.00  0.00     0.109 A 
ATOM     19  N   UNL     1     -20.158  19.147  20.962  1.00  0.00    -0.258 N 
ATOM     20  C   UNL     1     -17.082  20.386  19.667  1.00  0.00     0.261 A 
ATOM     21  C   UNL     1     -19.438  19.943  20.125  1.00  0.00     0.078 A 
ATOM     22  N   UNL     1     -17.583  21.280  18.721  1.00  0.00    -0.328 N 
ATOM     23  O   UNL     1     -15.883  20.211  19.851  1.00  0.00    -0.269 OA
ATOM     24  C   UNL     1     -19.903  20.860  19.160  1.00  0.00     0.046 A 
ATOM     25  C   UNL     1     -18.933  21.506  18.481  1.00  0.00     0.088 A 
ATOM     26  H   UNL     1     -16.885  21.786  18.188  1.00  0.00     0.169 HD
BRANCH  19  27
ATOM     27  C   UNL     1     -21.615  18.997  21.078  1.00  0.00     0.125 C 
BRANCH  27  28
ATOM     28  C   UNL     1     -22.094  19.539  22.437  1.00  0.00     0.147 C 
ATOM     29  C   UNL     1     -22.686  18.474  23.251  1.00  0.00     0.064 C 
ATOM     30  N   UNL     1     -23.139  17.618  23.892  1.00  0.00    -0.198 NA
ENDBRANCH  27  28
BRANCH  27  31
ATOM     31  C   UNL     1     -22.292  19.700  19.921  1.00  0.00     0.015 C 
ATOM     32  C   UNL     1     -23.674  19.302  19.457  1.00  0.00     0.006 C 
ATOM     33  C   UNL     1     -23.470  20.616  20.155  1.00  0.00     0.006 C 
ENDBRANCH  27  31
ENDBRANCH  19  27
ENDBRANCH   1  16
TORSDOF 6
ENDMDL
MODEL 3
REMARK VINA RESULT:    -9.156      4.817      8.030
REMARK INTER + INTRA:         -13.257
REMARK INTER:                 -12.376
REMARK INTRA:                  -0.881
REMARK UNBOUND:                -0.889
REMARK SMILES Cn1ccc(-c2ccc(Nc3nn([C@@H](CC#N)C4CC4)c4cc[nH]c(=O)c34)cc2Cl)n1
REMARK SMILES IDX 10 1 9 3 6 4 7 5 29 6 8 7 28 8 30 9 5 10 2 11 3 12 31 13
REMARK SMILES IDX 4 14 1 15 11 16 12 17 27 18 13 19 25 20 21 21 24 22 26 23
REMARK SMILES IDX 22 24 23 25 14 27 15 28 16 29 17 30 18 31 19 32 20 33
REMARK H PARENT 10 2 24 26
ROOT
ATOM      1  N   UNL     1     -12.137  13.892  19.812  1.00  0.00    -0.338 N 
ATOM      2  H   UNL     1     -12.313  12.891  19.727  1.00  0.00     0.168 HD
ENDROOT
BRANCH   1   3
ATOM      3  C   UNL     1     -10.759  14.188  19.843  1.00  0.00     0.041 A 
ATOM      4  C   UNL     1      -7.953  14.689  19.836  1.00  0.00     0.021 A 
ATOM      5  C   UNL     1      -8.465  13.425  19.509  1.00  0.00     0.014 A 
ATOM      6  C   UNL     1      -8.863  15.707  20.151  1.00  0.00     0.052 A 
ATOM      7  C   UNL     1      -9.844  13.178  19.519  1.00  0.00     0.027 A 
ATOM      8  C   UNL     1     -10.244  15.454  20.149  1.00  0.00     0.047 A 
ATOM      9  Cl  UNL     1      -8.377  17.326  20.524  1.00  0.00    -0.084 Cl
BRANCH   4  10
ATOM     10  C   UNL     1      -6.502  14.872  19.821  1.00  0.00     0.094 A 
ATOM     11  N   UNL     1      -4.571  15.320  19.053  1.00  0.00    -0.275 N 
ATOM     12  C   UNL     1      -4.339  14.966  20.347  1.00  0.00     0.109 A 
ATOM     13  N   UNL     1      -5.863  15.241  18.698  1.00  0.00    -0.173 NA
ATOM     14  C   UNL     1      -5.571  14.666  20.875  1.00  0.00     0.050 A 
ATOM     15  C   UNL     1      -3.595  15.747  18.079  1.00  0.00     0.173 C 
ENDBRANCH   4  10
ENDBRANCH   1   3
BRANCH   1  16
ATOM     16  C   UNL     1     -13.231  14.684  19.925  1.00  0.00     0.166 A 
ATOM     17  N   UNL     1     -13.276  16.020  20.015  1.00  0.00    -0.153 NA
ATOM     18  C   UNL     1     -14.535  14.152  19.957  1.00  0.00     0.109 A 
ATOM     19  N   UNL     1     -14.589  16.335  20.120  1.00  0.00    -0.258 N 
ATOM     20  C   UNL     1     -15.079  12.815  19.893  1.00  0.00     0.261 A 
ATOM     21  C   UNL     1     -15.383  15.229  20.084  1.00  0.00     0.078 A 
ATOM     22  N   UNL     1     -16.471  12.779  19.969  1.00  0.00    -0.328 N 
ATOM     23  O   UNL     1     -14.390  11.807  19.786  1.00  0.00    -0.269 OA
ATOM     24  C   UNL     1     -16.790  15.149  20.154  1.00  0.00     0.046 A 
ATOM     25  C   UNL     1     -17.287  13.898  20.093  1.00  0.00     0.088 A 
ATOM     26  H   UNL     1     -16.886  11.856  19.926  1.00  0.00     0.169 HD
BRANCH  19  27
ATOM     27  C   UNL     1     -14.966  17.746  20.268  1.00  0.00     0.125 C 
BRANCH  27  28
ATOM     28  C   UNL     1     -14.809  18.182  21.737  1.00  0.00     0.147 C 
ATOM     29  C   UNL     1     -16.085  18.095  22.453  1.00  0.00     0.064 C 
ATOM     30  N   UNL     1     -17.098  18.007  23.012  1.00  0.00    -0.198 NA
ENDBRANCH  27  28
BRANCH  27  31
ATOM     31  C   UNL     1     -14.130  18.598  19.337  1.00  0.00     0.015 C 
ATOM     32  C   UNL     1     -14.496  20.033  19.039  1.00  0.00     0.006 C 
ATOM     33  C   UNL     1     -13.284  19.729  19.871  1.00  0.00     0.006 C 
ENDBRANCH  27  31
ENDBRANCH  19  27
ENDBRANCH   1  16
TORSDOF 6
ENDMDL
MODEL 4
REMARK VINA RESULT:    -9.072      2.281      4.459
REMARK INTER + INTRA:         -13.144
REMARK INTER:                 -12.359
REMARK INTRA:                  -0.785
REMARK UNBOUND:                -0.889
REMARK SMILES Cn1ccc(-c2ccc(Nc3nn([C@@H](CC#N)C4CC4)c4cc[nH]c(=O)c34)cc2Cl)n1
REMARK SMILES IDX 10 1 9 3 6 4 7 5 29 6 8 7 28 8 30 9 5 10 2 11 3 12 31 13
REMARK SMILES IDX 4 14 1 15 11 16 12 17 27 18 13 19 25 20 21 21 24 22 26 23
REMARK SMILES IDX 22 24 23 25 14 27 15 28 16 29 17 30 18 31 19 32 20 33
REMARK H PARENT 10 2 24 26
ROOT
ATOM      1  N   UNL     1     -16.060  18.261  21.955  1.00  0.00    -0.338 N 
ATOM      2  H   UNL     1     -15.916  18.370  22.959  1.00  0.00     0.168 HD
ENDROOT
BRANCH   1   3
ATOM      3  C   UNL     1     -15.300  17.199  21.422  1.00  0.00     0.041 A 
ATOM      4  C   UNL     1     -13.699  15.051  20.449  1.00  0.00     0.021 A 
ATOM      5  C   UNL     1     -13.263  15.858  21.510  1.00  0.00     0.014 A 
ATOM      6  C   UNL     1     -14.955  15.321  19.889  1.00  0.00     0.052 A 
ATOM      7  C   UNL     1     -14.048  16.917  21.984  1.00  0.00     0.027 A 
ATOM      8  C   UNL     1     -15.741  16.379  20.377  1.00  0.00     0.047 A 
ATOM      9  Cl  UNL     1     -15.642  14.378  18.609  1.00  0.00    -0.084 Cl
BRANCH   4  10
ATOM     10  C   UNL     1     -12.823  13.973  19.994  1.00  0.00     0.094 A 
ATOM     11  N   UNL     1     -12.236  12.025  19.376  1.00  0.00    -0.275 N 
ATOM     12  C   UNL     1     -11.079  12.741  19.355  1.00  0.00     0.109 A 
ATOM     13  N   UNL     1     -13.298  12.733  19.789  1.00  0.00    -0.173 NA
ATOM     14  C   UNL     1     -11.421  14.010  19.754  1.00  0.00     0.050 A 
ATOM     15  C   UNL     1     -12.408  10.639  19.014  1.00  0.00     0.173 C 
ENDBRANCH   4  10
ENDBRANCH   1   3
BRANCH   1  16
ATOM     16  C   UNL     1     -16.882  19.164  21.367  1.00  0.00     0.166 A 
ATOM     17  N   UNL     1     -16.557  20.348  20.831  1.00  0.00    -0.153 NA
ATOM     18  C   UNL     1     -18.267  18.939  21.241  1.00  0.00     0.109 A 
ATOM     19  N   UNL     1     -17.720  20.878  20.384  1.00  0.00    -0.258 N 
ATOM     20  C   UNL     1     -19.150  17.862  21.624  1.00  0.00     0.261 A 
ATOM     21  C   UNL     1     -18.778  20.051  20.612  1.00  0.00     0.078 A 
ATOM     22  N   UNL     1     -20.484  18.092  21.286  1.00  0.00    -0.328 N 
ATOM     23  O   UNL     1     -18.772  16.843  22.191  1.00  0.00    -0.269 OA
ATOM     24  C   UNL     1     -20.137  20.244  20.285  1.00  0.00     0.046 A 
ATOM     25  C   UNL     1     -20.953  19.233  20.645  1.00  0.00     0.088 A 
ATOM     26  H   UNL     1     -21.131  17.356  21.540  1.00  0.00     0.169 HD
BRANCH  19  27
ATOM     27  C   UNL     1     -17.697  22.209  19.764  1.00  0.00     0.125 C 
BRANCH  27  28
ATOM     28  C   UNL     1     -18.825  23.081  20.346  1.00  0.00     0.147 C 
ATOM     29  C   UNL     1     -19.637  23.674  19.280  1.00  0.00     0.064 C 
ATOM     30  N   UNL     1     -20.282  24.125  18.427  1.00  0.00    -0.198 NA
ENDBRANCH  27  28
BRANCH  27  31
ATOM     31  C   UNL     1     -16.336  22.841  19.966  1.00  0.00     0.015 C 
ATOM     32  C   UNL     1     -15.366  23.008  18.819  1.00  0.00     0.006 C 
ATOM     33  C   UNL     1     -16.031  24.214  19.417  1.00  0.00     0.006 C 
ENDBRANCH  27  31
ENDBRANCH  19  27
ENDBRANCH   1  16
TORSDOF 6
ENDMDL
MODEL 5
REMARK VINA RESULT:    -8.921      2.755      8.649
REMARK INTER + INTRA:         -12.939
REMARK INTER:                 -12.129
REMARK INTRA:                  -0.810
REMARK UNBOUND:                -0.889
REMARK SMILES Cn1ccc(-c2ccc(Nc3nn([C@@H](CC#N)C4CC4)c4cc[nH]c(=O)c34)cc2Cl)n1
REMARK SMILES IDX 10 1 9 3 6 4 7 5 29 6 8 7 28 8 30 9 5 10 2 11 3 12 31 13
REMARK SMILES IDX 4 14 1 15 11 16 12 17 27 18 13 19 25 20 21 21 24 22 26 23
REMARK SMILES IDX 22 24 23 25 14 27 15 28 16 29 17 30 18 31 19 32 20 33
REMARK H PARENT 10 2 24 26
ROOT
ATOM      1  N   UNL     1     -16.017  18.603  21.425  1.00  0.00    -0.338 N 
ATOM      2  H   UNL     1     -15.638  19.263  22.104  1.00  0.00     0.168 HD
ENDROOT
BRANCH   1   3
ATOM      3  C   UNL     1     -17.421  18.682  21.334  1.00  0.00     0.041 A 
ATOM      4  C   UNL     1     -20.269  18.793  21.262  1.00  0.00     0.021 A 
ATOM      5  C   UNL     1     -19.598  17.976  22.183  1.00  0.00     0.014 A 
ATOM      6  C   UNL     1     -19.498  19.569  20.386  1.00  0.00     0.052 A 
ATOM      7  C   UNL     1     -18.199  17.916  22.214  1.00  0.00     0.027 A 
ATOM      8  C   UNL     1     -18.095  19.512  20.430  1.00  0.00     0.047 A 
ATOM      9  Cl  UNL     1     -20.189  20.660  19.232  1.00  0.00    -0.084 Cl
BRANCH   4  10
ATOM     10  C   UNL     1     -21.731  18.795  21.276  1.00  0.00     0.094 A 
ATOM     11  N   UNL     1     -23.706  18.350  21.925  1.00  0.00    -0.275 N 
ATOM     12  C   UNL     1     -23.888  19.108  20.809  1.00  0.00     0.109 A 
ATOM     13  N   UNL     1     -22.416  18.117  22.212  1.00  0.00    -0.173 NA
ATOM     14  C   UNL     1     -22.626  19.412  20.359  1.00  0.00     0.050 A 
ATOM     15  C   UNL     1     -24.731  17.800  22.779  1.00  0.00     0.173 C 
ENDBRANCH   4  10
ENDBRANCH   1   3
BRANCH   1  16
ATOM     16  C   UNL     1     -15.119  17.788  20.819  1.00  0.00     0.166 A 
ATOM     17  N   UNL     1     -15.135  16.449  20.752  1.00  0.00    -0.153 NA
ATOM     18  C   UNL     1     -13.992  18.293  20.142  1.00  0.00     0.109 A 
ATOM     19  N   UNL     1     -14.026  16.106  20.055  1.00  0.00    -0.258 N 
ATOM     20  C   UNL     1     -13.480  19.621  19.893  1.00  0.00     0.261 A 
ATOM     21  C   UNL     1     -13.310  17.197  19.665  1.00  0.00     0.078 A 
ATOM     22  N   UNL     1     -12.294  19.628  19.157  1.00  0.00    -0.328 N 
ATOM     23  O   UNL     1     -14.026  20.644  20.288  1.00  0.00    -0.269 OA
ATOM     24  C   UNL     1     -12.113  17.248  18.921  1.00  0.00     0.046 A 
ATOM     25  C   UNL     1     -11.643  18.491  18.693  1.00  0.00     0.088 A 
ATOM     26  H   UNL     1     -11.907  20.544  18.964  1.00  0.00     0.169 HD
BRANCH  19  27
ATOM     27  C   UNL     1     -13.743  14.681  19.837  1.00  0.00     0.125 C 
BRANCH  27  28
ATOM     28  C   UNL     1     -12.471  14.274  20.604  1.00  0.00     0.147 C 
ATOM     29  C   UNL     1     -11.472  13.696  19.701  1.00  0.00     0.064 C 
ATOM     30  N   UNL     1     -10.683  13.255  18.973  1.00  0.00    -0.198 NA
ENDBRANCH  27  28
BRANCH  27  31
ATOM     31  C   UNL     1     -14.940  13.854  20.255  1.00  0.00     0.015 C 
ATOM     32  C   UNL     1     -15.805  13.150  19.236  1.00  0.00     0.006 C 
ATOM     33  C   UNL     1     -14.918  12.349  20.145  1.00  0.00     0.006 C 
ENDBRANCH  27  31
ENDBRANCH  19  27
ENDBRANCH   1  16
TORSDOF 6
ENDMDL
MODEL 6
REMARK VINA RESULT:    -8.787      1.376      2.073
REMARK INTER + INTRA:         -12.759
REMARK INTER:                 -11.396
REMARK INTRA:                  -1.363
REMARK UNBOUND:                -0.889
REMARK SMILES Cn1ccc(-c2ccc(Nc3nn([C@@H](CC#N)C4CC4)c4cc[nH]c(=O)c34)cc2Cl)n1
REMARK SMILES IDX 10 1 9 3 6 4 7 5 29 6 8 7 28 8 30 9 5 10 2 11 3 12 31 13
REMARK SMILES IDX 4 14 1 15 11 16 12 17 27 18 13 19 25 20 21 21 24 22 26 23
REMARK SMILES IDX 22 24 23 25 14 27 15 28 16 29 17 30 18 31 19 32 20 33
REMARK H PARENT 10 2 24 26
ROOT
ATOM      1  N   UNL     1     -18.133  18.372  18.659  1.00  0.00    -0.338 N 
ATOM      2  H   UNL     1     -18.433  18.218  17.697  1.00  0.00     0.168 HD
ENDROOT
BRANCH   1   3
ATOM      3  C   UNL     1     -17.038  17.557  19.012  1.00  0.00     0.041 A 
ATOM      4  C   UNL     1     -14.810  15.882  19.606  1.00  0.00     0.021 A 
ATOM      5  C   UNL     1     -15.502  15.764  18.393  1.00  0.00     0.014 A 
ATOM      6  C   UNL     1     -15.235  16.861  20.515  1.00  0.00     0.052 A 
ATOM      7  C   UNL     1     -16.601  16.583  18.104  1.00  0.00     0.027 A 
ATOM      8  C   UNL     1     -16.331  17.685  20.213  1.00  0.00     0.047 A 
ATOM      9  Cl  UNL     1     -14.444  17.152  22.028  1.00  0.00    -0.084 Cl
BRANCH   4  10
ATOM     10  C   UNL     1     -13.682  14.983  19.849  1.00  0.00     0.094 A 
ATOM     11  N   UNL     1     -11.662  14.347  20.041  1.00  0.00    -0.275 N 
ATOM     12  C   UNL     1     -12.387  13.221  20.280  1.00  0.00     0.109 A 
ATOM     13  N   UNL     1     -12.415  15.418  19.746  1.00  0.00    -0.173 NA
ATOM     14  C   UNL     1     -13.704  13.596  20.161  1.00  0.00     0.050 A 
ATOM     15  C   UNL     1     -10.226  14.480  20.072  1.00  0.00     0.173 C 
ENDBRANCH   4  10
ENDBRANCH   1   3
BRANCH   1  16
ATOM     16  C   UNL     1     -18.862  19.261  19.377  1.00  0.00     0.166 A 
ATOM     17  N   UNL     1     -19.992  19.038  20.062  1.00  0.00    -0.153 NA
ATOM     18  C   UNL     1     -18.484  20.613  19.495  1.00  0.00     0.109 A 
ATOM     19  N   UNL     1     -20.338  20.233  20.595  1.00  0.00    -0.258 N 
ATOM     20  C   UNL     1     -17.383  21.397  18.985  1.00  0.00     0.261 A 
ATOM     21  C   UNL     1     -19.446  21.212  20.276  1.00  0.00     0.078 A 
ATOM     22  N   UNL     1     -17.431  22.737  19.373  1.00  0.00    -0.328 N 
ATOM     23  O   UNL     1     -16.492  20.939  18.280  1.00  0.00    -0.269 OA
ATOM     24  C   UNL     1     -19.455  22.572  20.649  1.00  0.00     0.046 A 
ATOM     25  C   UNL     1     -18.423  23.295  20.170  1.00  0.00     0.088 A 
ATOM     26  H   UNL     1     -16.672  23.316  19.034  1.00  0.00     0.169 HD
BRANCH  19  27
ATOM     27  C   UNL     1     -21.571  20.322  21.389  1.00  0.00     0.125 C 
BRANCH  27  28
ATOM     28  C   UNL     1     -22.696  20.948  20.545  1.00  0.00     0.147 C 
ATOM     29  C   UNL     1     -23.260  19.970  19.609  1.00  0.00     0.064 C 
ATOM     30  N   UNL     1     -23.709  19.182  18.885  1.00  0.00    -0.198 NA
ENDBRANCH  27  28
BRANCH  27  31
ATOM     31  C   UNL     1     -21.948  18.947  21.898  1.00  0.00     0.015 C 
ATOM     32  C   UNL     1     -21.430  18.426  23.218  1.00  0.00     0.006 C 
ATOM     33  C   UNL     1     -22.880  18.786  23.075  1.00  0.00     0.006 C 
ENDBRANCH  27  31
ENDBRANCH  19  27
ENDBRANCH   1  16
TORSDOF 6
ENDMDL
MODEL 7
REMARK VINA RESULT:    -8.770      6.291      9.986
REMARK INTER + INTRA:         -12.735
REMARK INTER:                 -11.690
REMARK INTRA:                  -1.045
REMARK UNBOUND:                -0.889
REMARK SMILES Cn1ccc(-c2ccc(Nc3nn([C@@H](CC#N)C4CC4)c4cc[nH]c(=O)c34)cc2Cl)n1
REMARK SMILES IDX 10 1 9 3 6 4 7 5 29 6 8 7 28 8 30 9 5 10 2 11 3 12 31 13
REMARK SMILES IDX 4 14 1 15 11 16 12 17 27 18 13 19 25 20 21 21 24 22 26 23
REMARK SMILES IDX 22 24 23 25 14 27 15 28 16 29 17 30 18 31 19 32 20 33
REMARK H PARENT 10 2 24 26
ROOT
ATOM      1  N   UNL     1      -9.418  16.547  20.581  1.00  0.00    -0.338 N 
ATOM      2  H   UNL     1      -9.423  17.039  21.474  1.00  0.00     0.168 HD
ENDROOT
BRANCH   1   3
ATOM      3  C   UNL     1      -8.145  16.557  19.975  1.00  0.00     0.041 A 
ATOM      4  C   UNL     1      -5.588  16.696  18.724  1.00  0.00     0.021 A 
ATOM      5  C   UNL     1      -6.572  17.662  18.471  1.00  0.00     0.014 A 
ATOM      6  C   UNL     1      -5.891  15.666  19.625  1.00  0.00     0.052 A 
ATOM      7  C   UNL     1      -7.831  17.590  19.082  1.00  0.00     0.027 A 
ATOM      8  C   UNL     1      -7.152  15.606  20.240  1.00  0.00     0.047 A 
ATOM      9  Cl  UNL     1      -4.757  14.435  20.069  1.00  0.00    -0.084 Cl
BRANCH   4  10
ATOM     10  C   UNL     1      -4.302  16.825  18.041  1.00  0.00     0.094 A 
ATOM     11  N   UNL     1      -2.368  17.583  17.585  1.00  0.00    -0.275 N 
ATOM     12  C   UNL     1      -2.562  16.598  16.666  1.00  0.00     0.109 A 
ATOM     13  N   UNL     1      -3.414  17.765  18.406  1.00  0.00    -0.173 NA
ATOM     14  C   UNL     1      -3.809  16.085  16.930  1.00  0.00     0.050 A 
ATOM     15  C   UNL     1      -1.195  18.409  17.740  1.00  0.00     0.173 C 
ENDBRANCH   4  10
ENDBRANCH   1   3
BRANCH   1  16
ATOM     16  C   UNL     1     -10.610  16.052  20.165  1.00  0.00     0.166 A 
ATOM     17  N   UNL     1     -11.007  14.773  20.138  1.00  0.00    -0.153 NA
ATOM     18  C   UNL     1     -11.636  16.889  19.685  1.00  0.00     0.109 A 
ATOM     19  N   UNL     1     -12.263  14.792  19.633  1.00  0.00    -0.258 N 
ATOM     20  C   UNL     1     -11.767  18.315  19.497  1.00  0.00     0.261 A 
ATOM     21  C   UNL     1     -12.681  16.057  19.350  1.00  0.00     0.078 A 
ATOM     22  N   UNL     1     -13.003  18.694  18.974  1.00  0.00    -0.328 N 
ATOM     23  O   UNL     1     -10.882  19.119  19.766  1.00  0.00    -0.269 OA
ATOM     24  C   UNL     1     -13.919  16.483  18.825  1.00  0.00     0.046 A 
ATOM     25  C   UNL     1     -14.032  17.815  18.655  1.00  0.00     0.088 A 
ATOM     26  H   UNL     1     -13.129  19.689  18.830  1.00  0.00     0.169 HD
BRANCH  19  27
ATOM     27  C   UNL     1     -12.969  13.517  19.447  1.00  0.00     0.125 C 
BRANCH  27  28
ATOM     28  C   UNL     1     -12.081  12.351  19.918  1.00  0.00     0.147 C 
ATOM     29  C   UNL     1     -12.238  11.183  19.046  1.00  0.00     0.064 C 
ATOM     30  N   UNL     1     -12.359  10.270  18.339  1.00  0.00    -0.198 NA
ENDBRANCH  27  28
BRANCH  27  31
ATOM     31  C   UNL     1     -14.289  13.553  20.188  1.00  0.00     0.015 C 
ATOM     32  C   UNL     1     -15.607  13.462  19.455  1.00  0.00     0.006 C 
ATOM     33  C   UNL     1     -15.145  12.315  20.307  1.00  0.00     0.006 C 
ENDBRANCH  27  31
ENDBRANCH  19  27
ENDBRANCH   1  16
TORSDOF 6
ENDMDL
MODEL 8
REMARK VINA RESULT:    -8.700      2.064      3.247
REMARK INTER + INTRA:         -12.641
REMARK INTER:                 -11.685
REMARK INTRA:                  -0.957
REMARK UNBOUND:                -0.889
REMARK SMILES Cn1ccc(-c2ccc(Nc3nn([C@@H](CC#N)C4CC4)c4cc[nH]c(=O)c34)cc2Cl)n1
REMARK SMILES IDX 10 1 9 3 6 4 7 5 29 6 8 7 28 8 30 9 5 10 2 11 3 12 31 13
REMARK SMILES IDX 4 14 1 15 11 16 12 17 27 18 13 19 25 20 21 21 24 22 26 23
REMARK SMILES IDX 22 24 23 25 14 27 15 28 16 29 17 30 18 31 19 32 20 33
REMARK H PARENT 10 2 24 26
ROOT
ATOM      1  N   UNL     1     -16.091  18.290  21.936  1.00  0.00    -0.338 N 
ATOM      2  H   UNL     1     -16.052  18.311  22.955  1.00  0.00     0.168 HD
ENDROOT
BRANCH   1   3
ATOM      3  C   UNL     1     -15.362  17.209  21.399  1.00  0.00     0.041 A 
ATOM      4  C   UNL     1     -13.824  15.019  20.418  1.00  0.00     0.021 A 
ATOM      5  C   UNL     1     -13.381  15.786  21.505  1.00  0.00     0.014 A 
ATOM      6  C   UNL     1     -15.056  15.349  19.837  1.00  0.00     0.052 A 
ATOM      7  C   UNL     1     -14.134  16.867  21.983  1.00  0.00     0.027 A 
ATOM      8  C   UNL     1     -15.810  16.427  20.328  1.00  0.00     0.047 A 
ATOM      9  Cl  UNL     1     -15.750  14.459  18.523  1.00  0.00    -0.084 Cl
BRANCH   4  10
ATOM     10  C   UNL     1     -12.981  13.915  19.962  1.00  0.00     0.094 A 
ATOM     11  N   UNL     1     -12.453  11.951  19.343  1.00  0.00    -0.275 N 
ATOM     12  C   UNL     1     -11.275  12.633  19.317  1.00  0.00     0.109 A 
ATOM     13  N   UNL     1     -13.493  12.690  19.760  1.00  0.00    -0.173 NA
ATOM     14  C   UNL     1     -11.580  13.912  19.716  1.00  0.00     0.050 A 
ATOM     15  C   UNL     1     -12.666  10.569  18.984  1.00  0.00     0.173 C 
ENDBRANCH   4  10
ENDBRANCH   1   3
BRANCH   1  16
ATOM     16  C   UNL     1     -16.769  19.303  21.343  1.00  0.00     0.166 A 
ATOM     17  N   UNL     1     -18.090  19.403  21.141  1.00  0.00    -0.153 NA
ATOM     18  C   UNL     1     -16.115  20.444  20.842  1.00  0.00     0.109 A 
ATOM     19  N   UNL     1     -18.273  20.584  20.505  1.00  0.00    -0.258 N 
ATOM     20  C   UNL     1     -14.736  20.872  20.788  1.00  0.00     0.261 A 
ATOM     21  C   UNL     1     -17.099  21.246  20.310  1.00  0.00     0.078 A 
ATOM     22  N   UNL     1     -14.563  22.113  20.175  1.00  0.00    -0.328 N 
ATOM     23  O   UNL     1     -13.803  20.213  21.234  1.00  0.00    -0.269 OA
ATOM     24  C   UNL     1     -16.882  22.499  19.699  1.00  0.00     0.046 A 
ATOM     25  C   UNL     1     -15.593  22.889  19.655  1.00  0.00     0.088 A 
ATOM     26  H   UNL     1     -13.607  22.443  20.121  1.00  0.00     0.169 HD
BRANCH  19  27
ATOM     27  C   UNL     1     -19.635  20.971  20.113  1.00  0.00     0.125 C 
BRANCH  27  28
ATOM     28  C   UNL     1     -19.687  21.252  18.600  1.00  0.00     0.147 C 
ATOM     29  C   UNL     1     -20.220  22.592  18.331  1.00  0.00     0.064 C 
ATOM     30  N   UNL     1     -20.628  23.659  18.132  1.00  0.00    -0.198 NA
ENDBRANCH  27  28
BRANCH  27  31
ATOM     31  C   UNL     1     -20.609  19.883  20.516  1.00  0.00     0.015 C 
ATOM     32  C   UNL     1     -21.853  20.196  21.315  1.00  0.00     0.006 C 
ATOM     33  C   UNL     1     -21.972  19.788  19.875  1.00  0.00     0.006 C 
ENDBRANCH  27  31
ENDBRANCH  19  27
ENDBRANCH   1  16
TORSDOF 6
ENDMDL
MODEL 9
REMARK VINA RESULT:    -8.681      4.725      8.190
REMARK INTER + INTRA:         -12.616
REMARK INTER:                 -12.249
REMARK INTRA:                  -0.366
REMARK UNBOUND:                -0.889
REMARK SMILES Cn1ccc(-c2ccc(Nc3nn([C@@H](CC#N)C4CC4)c4cc[nH]c(=O)c34)cc2Cl)n1
REMARK SMILES IDX 10 1 9 3 6 4 7 5 29 6 8 7 28 8 30 9 5 10 2 11 3 12 31 13
REMARK SMILES IDX 4 14 1 15 11 16 12 17 27 18 13 19 25 20 21 21 24 22 26 23
REMARK SMILES IDX 22 24 23 25 14 27 15 28 16 29 17 30 18 31 19 32 20 33
REMARK H PARENT 10 2 24 26
ROOT
ATOM      1  N   UNL     1     -12.036  13.848  19.885  1.00  0.00    -0.338 N 
ATOM      2  H   UNL     1     -12.210  12.845  19.828  1.00  0.00     0.168 HD
ENDROOT
BRANCH   1   3
ATOM      3  C   UNL     1     -10.658  14.149  19.885  1.00  0.00     0.041 A 
ATOM      4  C   UNL     1      -7.855  14.663  19.811  1.00  0.00     0.021 A 
ATOM      5  C   UNL     1      -8.374  13.415  19.434  1.00  0.00     0.014 A 
ATOM      6  C   UNL     1      -8.757  15.658  20.210  1.00  0.00     0.052 A 
ATOM      7  C   UNL     1      -9.751  13.161  19.477  1.00  0.00     0.027 A 
ATOM      8  C   UNL     1     -10.137  15.399  20.240  1.00  0.00     0.047 A 
ATOM      9  Cl  UNL     1      -8.263  17.258  20.652  1.00  0.00    -0.084 Cl
BRANCH   4  10
ATOM     10  C   UNL     1      -6.407  14.853  19.756  1.00  0.00     0.094 A 
ATOM     11  N   UNL     1      -4.358  14.628  20.278  1.00  0.00    -0.275 N 
ATOM     12  C   UNL     1      -4.340  15.518  19.250  1.00  0.00     0.109 A 
ATOM     13  N   UNL     1      -5.593  14.235  20.628  1.00  0.00    -0.173 NA
ATOM     14  C   UNL     1      -5.655  15.691  18.887  1.00  0.00     0.050 A 
ATOM     15  C   UNL     1      -3.220  14.100  20.992  1.00  0.00     0.173 C 
ENDBRANCH   4  10
ENDBRANCH   1   3
BRANCH   1  16
ATOM     16  C   UNL     1     -13.130  14.640  19.996  1.00  0.00     0.166 A 
ATOM     17  N   UNL     1     -13.174  15.972  20.137  1.00  0.00    -0.153 NA
ATOM     18  C   UNL     1     -14.436  14.113  19.969  1.00  0.00     0.109 A 
ATOM     19  N   UNL     1     -14.488  16.288  20.214  1.00  0.00    -0.258 N 
ATOM     20  C   UNL     1     -14.982  12.782  19.838  1.00  0.00     0.261 A 
ATOM     21  C   UNL     1     -15.284  15.188  20.113  1.00  0.00     0.078 A 
ATOM     22  N   UNL     1     -16.376  12.749  19.871  1.00  0.00    -0.328 N 
ATOM     23  O   UNL     1     -14.293  11.776  19.711  1.00  0.00    -0.269 OA
ATOM     24  C   UNL     1     -16.693  15.111  20.138  1.00  0.00     0.046 A 
ATOM     25  C   UNL     1     -17.192  13.865  20.014  1.00  0.00     0.088 A 
ATOM     26  H   UNL     1     -16.792  11.829  19.780  1.00  0.00     0.169 HD
BRANCH  19  27
ATOM     27  C   UNL     1     -14.865  17.694  20.407  1.00  0.00     0.125 C 
BRANCH  27  28
ATOM     28  C   UNL     1     -14.902  18.420  19.049  1.00  0.00     0.147 C 
ATOM     29  C   UNL     1     -13.695  19.227  18.850  1.00  0.00     0.064 C 
ATOM     30  N   UNL     1     -12.727  19.850  18.697  1.00  0.00    -0.198 NA
ENDBRANCH  27  28
BRANCH  27  31
ATOM     31  C   UNL     1     -16.198  17.771  21.121  1.00  0.00     0.015 C 
ATOM     32  C   UNL     1     -16.294  18.193  22.569  1.00  0.00     0.006 C 
ATOM     33  C   UNL     1     -16.805  19.103  21.489  1.00  0.00     0.006 C 
ENDBRANCH  27  31
ENDBRANCH  19  27
ENDBRANCH   1  16
TORSDOF 6
ENDMDL
