MODEL 3
REMARK VINA RESULT:    -9.258      5.139      8.984
REMARK INTER + INTRA:         -14.940
REMARK INTER:                 -13.618
REMARK INTRA:                  -1.323
REMARK UNBOUND:                -1.353
REMARK SMILES CCOC(=O)c1[nH]c(C)c2cnnc(Nc3ccc(OCc4cccc(F)c4)c(Cl)c3)c12
REMARK SMILES IDX 15 1 14 3 6 4 32 5 7 6 10 7 8 8 11 9 13 10 12 11 9 13 4 14
REMARK SMILES IDX 5 15 3 16 2 17 1 18 16 19 31 20 17 21 29 22 18 23 19 24
REMARK SMILES IDX 30 25 20 26 21 27 22 28 28 29 23 30 26 31 24 32 25 33 27 34
REMARK H PARENT 15 2 7 12
ROOT
ATOM      1  N   UNL     1      17.059  33.605  13.218  1.00  0.00    -0.338 N 
ATOM      2  H   UNL     1      16.121  33.339  13.488  1.00  0.00     0.168 HD
ENDROOT
BRANCH   1   3
ATOM      3  C   UNL     1      17.800  34.146  14.281  1.00  0.00     0.163 A 
ATOM      4  C   UNL     1      15.769  34.899  15.817  1.00  0.00     0.137 A 
ATOM      5  C   UNL     1      17.133  34.704  15.396  1.00  0.00     0.061 A 
ATOM      6  N   UNL     1      15.806  35.512  17.050  1.00  0.00    -0.352 N 
ATOM      7  C   UNL     1      17.951  35.245  16.452  1.00  0.00     0.027 A 
ATOM      8  C   UNL     1      17.089  35.741  17.475  1.00  0.00     0.022 A 
ATOM      9  C   UNL     1      19.341  35.188  16.295  1.00  0.00     0.146 A 
ATOM     10  N   UNL     1      19.159  34.146  14.213  1.00  0.00    -0.132 NA
ATOM     11  N   UNL     1      19.916  34.651  15.193  1.00  0.00    -0.156 NA
ATOM     12  H   UNL     1      14.982  35.764  17.577  1.00  0.00     0.166 HD
ATOM     13  C   UNL     1      17.382  36.401  18.802  1.00  0.00     0.065 C 
BRANCH   4  14
ATOM     14  C   UNL     1      14.466  34.587  15.209  1.00  0.00     0.355 C 
ATOM     15  O   UNL     1      13.455  34.339  15.870  1.00  0.00    -0.244 OA
BRANCH  14  16
ATOM     16  O   UNL     1      14.502  34.620  13.850  1.00  0.00    -0.461 OA
BRANCH  16  17
ATOM     17  C   UNL     1      14.239  35.825  13.142  1.00  0.00     0.230 C 
ATOM     18  C   UNL     1      12.763  35.868  12.740  1.00  0.00     0.049 C 
ENDBRANCH  16  17
ENDBRANCH  14  16
ENDBRANCH   4  14
ENDBRANCH   1   3
BRANCH   1  19
ATOM     19  C   UNL     1      17.346  33.332  11.868  1.00  0.00     0.041 A 
ATOM     20  C   UNL     1      16.646  34.059  10.902  1.00  0.00     0.050 A 
ATOM     21  C   UNL     1      18.260  32.358  11.449  1.00  0.00     0.030 A 
ATOM     22  C   UNL     1      16.862  33.834   9.542  1.00  0.00     0.085 A 
ATOM     23  C   UNL     1      18.479  32.132  10.090  1.00  0.00     0.050 A 
ATOM     24  C   UNL     1      17.783  32.867   9.117  1.00  0.00     0.138 A 
ATOM     25  Cl  UNL     1      15.971  34.766   8.390  1.00  0.00    -0.080 Cl
BRANCH  24  26
ATOM     26  O   UNL     1      17.943  32.692   7.754  1.00  0.00    -0.487 OA
BRANCH  26  27
ATOM     27  C   UNL     1      18.476  31.464   7.258  1.00  0.00     0.265 C 
BRANCH  27  28
ATOM     28  C   UNL     1      17.367  30.466   6.936  1.00  0.00    -0.008 A 
ATOM     29  C   UNL     1      16.040  30.822   7.200  1.00  0.00     0.046 A 
ATOM     30  C   UNL     1      17.638  29.212   6.373  1.00  0.00     0.007 A 
ATOM     31  C   UNL     1      14.999  29.940   6.911  1.00  0.00     0.123 A 
ATOM     32  C   UNL     1      16.597  28.328   6.084  1.00  0.00     0.003 A 
ATOM     33  C   UNL     1      15.277  28.692   6.353  1.00  0.00     0.039 A 
ATOM     34  F   UNL     1      13.720  30.295   7.169  1.00  0.00    -0.207 F 
ENDBRANCH  27  28
ENDBRANCH  26  27
ENDBRANCH  24  26
ENDBRANCH   1  19
TORSDOF 8
ENDMDL
