REMARK SMILES CC(C)(O)C1=C[C@@H](O)[C@@](C)(O)CC1
REMARK SMILES IDX 5 1 6 2 7 3 9 4 10 5 12 6 13 7 2 8 1 9 3 10 4 11 8 13 11 15
REMARK H PARENT 4 12 8 14 11 16
REMARK INDEX MAP 5 1 6 2 7 3 9 4 10 5 12 6 13 7 2 8 1 9 3 10 4 11 20 12 8 13
REMARK INDEX MAP 23 14 11 15 27 16
ROOT
ATOM      1  C   UNL     1       3.615   6.265  -2.775  1.00  0.00    -0.041 C 
ATOM      2  C   UNL     1       3.858   6.193  -4.101  1.00  0.00     0.009 C 
ATOM      3  C   UNL     1       4.525   7.265  -4.914  1.00  0.00     0.169 C 
ATOM      4  C   UNL     1       4.609   8.633  -4.188  1.00  0.00     0.092 C 
ATOM      5  C   UNL     1       5.597   9.564  -4.896  1.00  0.00     0.045 C 
ATOM      6  C   UNL     1       5.009   8.429  -2.725  1.00  0.00     0.042 C 
ATOM      7  C   UNL     1       4.044   7.494  -1.983  1.00  0.00     0.037 C 
ENDROOT
BRANCH   1   8
ATOM      8  C   UNL     1       2.921   5.161  -1.971  1.00  0.00     0.080 C 
ATOM      9  C   UNL     1       1.873   5.641  -0.955  1.00  0.00     0.047 C 
ATOM     10  C   UNL     1       3.940   4.279  -1.238  1.00  0.00     0.047 C 
BRANCH   8  11
ATOM     11  O   UNL     1       2.230   4.327  -2.907  1.00  0.00    -0.386 OA
ATOM     12  H   UNL     1       1.681   3.665  -2.417  1.00  0.00     0.211 HD
ENDBRANCH   8  11
ENDBRANCH   1   8
BRANCH   3  13
ATOM     13  O   UNL     1       3.774   7.397  -6.122  1.00  0.00    -0.386 OA
ATOM     14  H   UNL     1       2.823   7.564  -5.903  1.00  0.00     0.211 HD
ENDBRANCH   3  13
BRANCH   4  15
ATOM     15  O   UNL     1       3.324   9.285  -4.263  1.00  0.00    -0.387 OA
ATOM     16  H   UNL     1       2.987   9.456  -3.348  1.00  0.00     0.211 HD
ENDBRANCH   4  15
TORSDOF 4
