MODEL 1
REMARK VINA RESULT:    -7.604      0.000      0.000
REMARK INTER + INTRA:         -12.493
REMARK INTER:                 -10.493
REMARK INTRA:                  -2.000
REMARK UNBOUND:                -2.000
REMARK SMILES Cc1cc(N2C[C@H](CNC(=O)c3ccc(Cl)s3)OC2=O)ccc1-n1cccc(CO)c1=O
REMARK SMILES IDX 1 1 2 2 3 3 4 4 21 5 22 6 23 7 24 8 25 9 31 10 26 11 28 12
REMARK SMILES IDX 32 13 27 14 29 15 30 16 5 18 6 19 19 20 7 21 18 22 20 23
REMARK SMILES IDX 8 24 9 25 10 26 11 27 12 29 13 30 17 31 14 32 15 33 16 34
REMARK H PARENT 30 17 9 28
ROOT
ATOM      1  C   UNL     1     130.410 -15.747 164.471  1.00  0.00     0.047 C 
ATOM      2  C   UNL     1     130.464 -17.194 164.885  1.00  0.00    -0.025 A 
ATOM      3  C   UNL     1     129.487 -18.057 164.331  1.00  0.00     0.032 A 
ATOM      4  C   UNL     1     129.487 -19.438 164.563  1.00  0.00     0.048 A 
ATOM      5  C   UNL     1     130.501 -19.951 165.375  1.00  0.00     0.028 A 
ATOM      6  C   UNL     1     131.463 -19.112 165.951  1.00  0.00     0.029 A 
ATOM      7  C   UNL     1     131.451 -17.725 165.740  1.00  0.00     0.052 A 
ENDROOT
BRANCH   7   8
ATOM      8  N   UNL     1     132.417 -16.909 166.428  1.00  0.00    -0.284 N 
ATOM      9  C   UNL     1     132.103 -16.316 167.647  1.00  0.00     0.095 A 
ATOM     10  C   UNL     1     133.703 -16.752 165.864  1.00  0.00     0.260 A 
ATOM     11  C   UNL     1     132.977 -15.556 168.315  1.00  0.00     0.019 A 
ATOM     12  C   UNL     1     134.673 -15.897 166.630  1.00  0.00     0.043 A 
ATOM     13  O   UNL     1     134.079 -17.224 164.789  1.00  0.00    -0.269 OA
ATOM     14  C   UNL     1     134.293 -15.336 167.787  1.00  0.00     0.013 A 
BRANCH  12  15
ATOM     15  C   UNL     1     136.040 -15.749 166.041  1.00  0.00     0.197 C 
BRANCH  15  16
ATOM     16  O   UNL     1     136.726 -16.994 166.049  1.00  0.00    -0.391 OA
ATOM     17  H   UNL     1     136.064 -17.659 166.330  1.00  0.00     0.211 HD
ENDBRANCH  15  16
ENDBRANCH  12  15
ENDBRANCH   7   8
BRANCH   4  18
ATOM     18  N   UNL     1     128.511 -20.296 163.993  1.00  0.00    -0.274 N 
ATOM     19  C   UNL     1     128.492 -20.655 162.606  1.00  0.00     0.176 C 
ATOM     20  C   UNL     1     127.514 -20.997 164.659  1.00  0.00     0.414 C 
ATOM     21  C   UNL     1     127.133 -21.296 162.432  1.00  0.00     0.217 C 
ATOM     22  O   UNL     1     126.780 -21.725 163.755  1.00  0.00    -0.442 OA
ATOM     23  O   UNL     1     127.264 -21.034 165.852  1.00  0.00    -0.224 OA
BRANCH  21  24
ATOM     24  C   UNL     1     126.078 -20.303 161.926  1.00  0.00     0.163 C 
BRANCH  24  25
ATOM     25  N   UNL     1     126.583 -18.943 161.898  1.00  0.00    -0.348 N 
ATOM     26  C   UNL     1     126.049 -17.948 162.689  1.00  0.00     0.261 C 
ATOM     27  O   UNL     1     125.108 -18.181 163.446  1.00  0.00    -0.268 OA
ATOM     28  H   UNL     1     127.391 -18.726 161.326  1.00  0.00     0.163 HD
BRANCH  26  29
ATOM     29  C   UNL     1     126.671 -16.635 162.582  1.00  0.00     0.093 A 
ATOM     30  C   UNL     1     127.684 -16.269 161.710  1.00  0.00     0.027 A 
ATOM     31  S   UNL     1     126.205 -15.310 163.572  1.00  0.00    -0.118 S 
ATOM     32  C   UNL     1     128.070 -14.903 161.857  1.00  0.00     0.033 A 
ATOM     33  C   UNL     1     127.336 -14.291 162.838  1.00  0.00     0.094 A 
ATOM     34  Cl  UNL     1     127.469 -12.657 163.347  1.00  0.00    -0.072 Cl
ENDBRANCH  26  29
ENDBRANCH  24  25
ENDBRANCH  21  24
ENDBRANCH   4  18
TORSDOF 7
ENDMDL
MODEL 2
REMARK VINA RESULT:    -7.297      3.042      3.713
REMARK INTER + INTRA:         -12.069
REMARK INTER:                 -11.368
REMARK INTRA:                  -0.701
REMARK UNBOUND:                -2.000
REMARK SMILES Cc1cc(N2C[C@H](CNC(=O)c3ccc(Cl)s3)OC2=O)ccc1-n1cccc(CO)c1=O
REMARK SMILES IDX 1 1 2 2 3 3 4 4 21 5 22 6 23 7 24 8 25 9 31 10 26 11 28 12
REMARK SMILES IDX 32 13 27 14 29 15 30 16 5 18 6 19 19 20 7 21 18 22 20 23
REMARK SMILES IDX 8 24 9 25 10 26 11 27 12 29 13 30 17 31 14 32 15 33 16 34
REMARK H PARENT 30 17 9 28
ROOT
ATOM      1  C   UNL     1     132.723 -16.412 167.045  1.00  0.00     0.047 C 
ATOM      2  C   UNL     1     132.316 -17.511 166.100  1.00  0.00    -0.025 A 
ATOM      3  C   UNL     1     131.233 -17.240 165.230  1.00  0.00     0.032 A 
ATOM      4  C   UNL     1     130.819 -18.143 164.242  1.00  0.00     0.048 A 
ATOM      5  C   UNL     1     131.523 -19.347 164.139  1.00  0.00     0.028 A 
ATOM      6  C   UNL     1     132.582 -19.644 165.006  1.00  0.00     0.029 A 
ATOM      7  C   UNL     1     132.982 -18.751 166.012  1.00  0.00     0.052 A 
ENDROOT
BRANCH   7   8
ATOM      8  N   UNL     1     134.023 -19.151 166.922  1.00  0.00    -0.284 N 
ATOM      9  C   UNL     1     133.707 -19.657 168.180  1.00  0.00     0.095 A 
ATOM     10  C   UNL     1     135.369 -19.060 166.504  1.00  0.00     0.260 A 
ATOM     11  C   UNL     1     134.647 -20.042 169.049  1.00  0.00     0.019 A 
ATOM     12  C   UNL     1     136.412 -19.500 167.492  1.00  0.00     0.043 A 
ATOM     13  O   UNL     1     135.756 -18.619 165.420  1.00  0.00    -0.269 OA
ATOM     14  C   UNL     1     136.035 -19.953 168.697  1.00  0.00     0.013 A 
BRANCH  12  15
ATOM     15  C   UNL     1     137.835 -19.420 167.039  1.00  0.00     0.197 C 
BRANCH  15  16
ATOM     16  O   UNL     1     138.156 -18.098 166.627  1.00  0.00    -0.391 OA
ATOM     17  H   UNL     1     138.094 -17.548 167.434  1.00  0.00     0.211 HD
ENDBRANCH  15  16
ENDBRANCH  12  15
ENDBRANCH   7   8
BRANCH   4  18
ATOM     18  N   UNL     1     129.740 -17.858 163.365  1.00  0.00    -0.274 N 
ATOM     19  C   UNL     1     129.110 -16.574 163.286  1.00  0.00     0.176 C 
ATOM     20  C   UNL     1     129.198 -18.693 162.397  1.00  0.00     0.414 C 
ATOM     21  C   UNL     1     127.860 -16.851 162.481  1.00  0.00     0.217 C 
ATOM     22  O   UNL     1     128.174 -18.045 161.751  1.00  0.00    -0.442 OA
ATOM     23  O   UNL     1     129.523 -19.828 162.089  1.00  0.00    -0.224 OA
BRANCH  21  24
ATOM     24  C   UNL     1     126.636 -17.111 163.371  1.00  0.00     0.163 C 
BRANCH  24  25
ATOM     25  N   UNL     1     126.296 -15.953 164.177  1.00  0.00    -0.348 N 
ATOM     26  C   UNL     1     125.532 -14.917 163.685  1.00  0.00     0.261 C 
ATOM     27  O   UNL     1     125.116 -14.936 162.527  1.00  0.00    -0.268 OA
ATOM     28  H   UNL     1     126.577 -15.928 165.151  1.00  0.00     0.163 HD
BRANCH  26  29
ATOM     29  C   UNL     1     125.243 -13.832 164.611  1.00  0.00     0.093 A 
ATOM     30  C   UNL     1     124.313 -13.848 165.639  1.00  0.00     0.027 A 
ATOM     31  S   UNL     1     126.056 -12.320 164.544  1.00  0.00    -0.118 S 
ATOM     32  C   UNL     1     124.276 -12.622 166.368  1.00  0.00     0.033 A 
ATOM     33  C   UNL     1     125.176 -11.724 165.859  1.00  0.00     0.094 A 
ATOM     34  Cl  UNL     1     125.463 -10.129 166.426  1.00  0.00    -0.072 Cl
ENDBRANCH  26  29
ENDBRANCH  24  25
ENDBRANCH  21  24
ENDBRANCH   4  18
TORSDOF 7
ENDMDL
MODEL 3
REMARK VINA RESULT:    -7.282      3.154      4.916
REMARK INTER + INTRA:         -12.049
REMARK INTER:                 -10.586
REMARK INTRA:                  -1.463
REMARK UNBOUND:                -2.000
REMARK SMILES Cc1cc(N2C[C@H](CNC(=O)c3ccc(Cl)s3)OC2=O)ccc1-n1cccc(CO)c1=O
REMARK SMILES IDX 1 1 2 2 3 3 4 4 21 5 22 6 23 7 24 8 25 9 31 10 26 11 28 12
REMARK SMILES IDX 32 13 27 14 29 15 30 16 5 18 6 19 19 20 7 21 18 22 20 23
REMARK SMILES IDX 8 24 9 25 10 26 11 27 12 29 13 30 17 31 14 32 15 33 16 34
REMARK H PARENT 30 17 9 28
ROOT
ATOM      1  C   UNL     1     132.835 -15.909 167.469  1.00  0.00     0.047 C 
ATOM      2  C   UNL     1     132.195 -16.448 166.216  1.00  0.00    -0.025 A 
ATOM      3  C   UNL     1     131.422 -15.541 165.451  1.00  0.00     0.032 A 
ATOM      4  C   UNL     1     130.853 -15.893 164.220  1.00  0.00     0.048 A 
ATOM      5  C   UNL     1     131.076 -17.193 163.760  1.00  0.00     0.028 A 
ATOM      6  C   UNL     1     131.817 -18.112 164.513  1.00  0.00     0.029 A 
ATOM      7  C   UNL     1     132.367 -17.769 165.757  1.00  0.00     0.052 A 
ENDROOT
BRANCH   7   8
ATOM      8  N   UNL     1     133.048 -18.783 166.519  1.00  0.00    -0.284 N 
ATOM      9  C   UNL     1     132.339 -19.623 167.373  1.00  0.00     0.095 A 
ATOM     10  C   UNL     1     134.443 -18.939 166.356  1.00  0.00     0.260 A 
ATOM     11  C   UNL     1     132.938 -20.578 168.092  1.00  0.00     0.019 A 
ATOM     12  C   UNL     1     135.099 -20.020 167.169  1.00  0.00     0.043 A 
ATOM     13  O   UNL     1     135.164 -18.246 165.636  1.00  0.00    -0.269 OA
ATOM     14  C   UNL     1     134.356 -20.774 167.991  1.00  0.00     0.013 A 
BRANCH  12  15
ATOM     15  C   UNL     1     136.572 -20.195 166.979  1.00  0.00     0.197 C 
BRANCH  15  16
ATOM     16  O   UNL     1     137.275 -19.044 167.428  1.00  0.00    -0.391 OA
ATOM     17  H   UNL     1     136.947 -18.303 166.879  1.00  0.00     0.211 HD
ENDBRANCH  15  16
ENDBRANCH  12  15
ENDBRANCH   7   8
BRANCH   4  18
ATOM     18  N   UNL     1     130.090 -14.974 163.454  1.00  0.00    -0.274 N 
ATOM     19  C   UNL     1     128.732 -14.631 163.759  1.00  0.00     0.176 C 
ATOM     20  C   UNL     1     130.528 -14.196 162.390  1.00  0.00     0.414 C 
ATOM     21  C   UNL     1     128.273 -13.898 162.520  1.00  0.00     0.217 C 
ATOM     22  O   UNL     1     129.490 -13.429 161.922  1.00  0.00    -0.442 OA
ATOM     23  O   UNL     1     131.640 -14.128 161.893  1.00  0.00    -0.224 OA
BRANCH  21  24
ATOM     24  C   UNL     1     127.547 -14.819 161.529  1.00  0.00     0.163 C 
BRANCH  24  25
ATOM     25  N   UNL     1     127.412 -16.170 162.044  1.00  0.00    -0.348 N 
ATOM     26  C   UNL     1     126.219 -16.647 162.541  1.00  0.00     0.261 C 
ATOM     27  O   UNL     1     125.218 -15.932 162.574  1.00  0.00    -0.268 OA
ATOM     28  H   UNL     1     128.201 -16.804 161.984  1.00  0.00     0.163 HD
BRANCH  26  29
ATOM     29  C   UNL     1     126.218 -18.030 162.999  1.00  0.00     0.093 A 
ATOM     30  C   UNL     1     127.205 -18.655 163.745  1.00  0.00     0.027 A 
ATOM     31  S   UNL     1     124.931 -19.115 162.654  1.00  0.00    -0.118 S 
ATOM     32  C   UNL     1     126.898 -20.018 164.033  1.00  0.00     0.033 A 
ATOM     33  C   UNL     1     125.692 -20.373 163.489  1.00  0.00     0.094 A 
ATOM     34  Cl  UNL     1     124.937 -21.911 163.586  1.00  0.00    -0.072 Cl
ENDBRANCH  26  29
ENDBRANCH  24  25
ENDBRANCH  21  24
ENDBRANCH   4  18
TORSDOF 7
ENDMDL
MODEL 4
REMARK VINA RESULT:    -7.172      3.290      5.313
REMARK INTER + INTRA:         -11.897
REMARK INTER:                 -10.377
REMARK INTRA:                  -1.520
REMARK UNBOUND:                -2.000
REMARK SMILES Cc1cc(N2C[C@H](CNC(=O)c3ccc(Cl)s3)OC2=O)ccc1-n1cccc(CO)c1=O
REMARK SMILES IDX 1 1 2 2 3 3 4 4 21 5 22 6 23 7 24 8 25 9 31 10 26 11 28 12
REMARK SMILES IDX 32 13 27 14 29 15 30 16 5 18 6 19 19 20 7 21 18 22 20 23
REMARK SMILES IDX 8 24 9 25 10 26 11 27 12 29 13 30 17 31 14 32 15 33 16 34
REMARK H PARENT 30 17 9 28
ROOT
ATOM      1  C   UNL     1     133.096 -15.966 166.875  1.00  0.00     0.047 C 
ATOM      2  C   UNL     1     132.171 -16.494 165.810  1.00  0.00    -0.025 A 
ATOM      3  C   UNL     1     131.397 -15.541 165.105  1.00  0.00     0.032 A 
ATOM      4  C   UNL     1     130.570 -15.893 164.030  1.00  0.00     0.048 A 
ATOM      5  C   UNL     1     130.530 -17.242 163.667  1.00  0.00     0.028 A 
ATOM      6  C   UNL     1     131.270 -18.203 164.368  1.00  0.00     0.029 A 
ATOM      7  C   UNL     1     132.080 -17.856 165.460  1.00  0.00     0.052 A 
ENDROOT
BRANCH   7   8
ATOM      8  N   UNL     1     132.751 -18.902 166.188  1.00  0.00    -0.284 N 
ATOM      9  C   UNL     1     134.010 -19.344 165.793  1.00  0.00     0.095 A 
ATOM     10  C   UNL     1     132.128 -19.443 167.335  1.00  0.00     0.260 A 
ATOM     11  C   UNL     1     134.663 -20.309 166.448  1.00  0.00     0.019 A 
ATOM     12  C   UNL     1     132.878 -20.524 168.060  1.00  0.00     0.043 A 
ATOM     13  O   UNL     1     131.015 -19.130 167.763  1.00  0.00    -0.269 OA
ATOM     14  C   UNL     1     134.077 -20.919 167.607  1.00  0.00     0.013 A 
BRANCH  12  15
ATOM     15  C   UNL     1     132.225 -21.081 169.285  1.00  0.00     0.197 C 
BRANCH  15  16
ATOM     16  O   UNL     1     130.913 -21.542 168.987  1.00  0.00    -0.391 OA
ATOM     17  H   UNL     1     130.310 -20.830 169.282  1.00  0.00     0.211 HD
ENDBRANCH  15  16
ENDBRANCH  12  15
ENDBRANCH   7   8
BRANCH   4  18
ATOM     18  N   UNL     1     129.806 -14.930 163.321  1.00  0.00    -0.274 N 
ATOM     19  C   UNL     1     128.496 -14.512 163.724  1.00  0.00     0.176 C 
ATOM     20  C   UNL     1     130.209 -14.175 162.227  1.00  0.00     0.414 C 
ATOM     21  C   UNL     1     127.990 -13.750 162.520  1.00  0.00     0.217 C 
ATOM     22  O   UNL     1     129.185 -13.349 161.835  1.00  0.00    -0.442 OA
ATOM     23  O   UNL     1     131.284 -14.169 161.650  1.00  0.00    -0.224 OA
BRANCH  21  24
ATOM     24  C   UNL     1     127.143 -14.625 161.586  1.00  0.00     0.163 C 
BRANCH  24  25
ATOM     25  N   UNL     1     127.076 -16.001 162.046  1.00  0.00    -0.348 N 
ATOM     26  C   UNL     1     125.937 -16.528 162.614  1.00  0.00     0.261 C 
ATOM     27  O   UNL     1     124.929 -15.838 162.761  1.00  0.00    -0.268 OA
ATOM     28  H   UNL     1     127.870 -16.613 161.892  1.00  0.00     0.163 HD
BRANCH  26  29
ATOM     29  C   UNL     1     125.999 -17.930 163.003  1.00  0.00     0.093 A 
ATOM     30  C   UNL     1     127.031 -18.553 163.688  1.00  0.00     0.027 A 
ATOM     31  S   UNL     1     124.741 -19.044 162.645  1.00  0.00    -0.118 S 
ATOM     32  C   UNL     1     126.782 -19.938 163.918  1.00  0.00     0.033 A 
ATOM     33  C   UNL     1     125.573 -20.311 163.394  1.00  0.00     0.094 A 
ATOM     34  Cl  UNL     1     124.876 -21.879 163.439  1.00  0.00    -0.072 Cl
ENDBRANCH  26  29
ENDBRANCH  24  25
ENDBRANCH  21  24
ENDBRANCH   4  18
TORSDOF 7
ENDMDL
MODEL 5
REMARK VINA RESULT:    -7.125      3.341      7.026
REMARK INTER + INTRA:         -11.832
REMARK INTER:                  -9.898
REMARK INTRA:                  -1.934
REMARK UNBOUND:                -2.000
REMARK SMILES Cc1cc(N2C[C@H](CNC(=O)c3ccc(Cl)s3)OC2=O)ccc1-n1cccc(CO)c1=O
REMARK SMILES IDX 1 1 2 2 3 3 4 4 21 5 22 6 23 7 24 8 25 9 31 10 26 11 28 12
REMARK SMILES IDX 32 13 27 14 29 15 30 16 5 18 6 19 19 20 7 21 18 22 20 23
REMARK SMILES IDX 8 24 9 25 10 26 11 27 12 29 13 30 17 31 14 32 15 33 16 34
REMARK H PARENT 30 17 9 28
ROOT
ATOM      1  C   UNL     1     130.784 -15.478 163.428  1.00  0.00     0.047 C 
ATOM      2  C   UNL     1     129.995 -16.749 163.250  1.00  0.00    -0.025 A 
ATOM      3  C   UNL     1     130.649 -17.960 163.580  1.00  0.00     0.032 A 
ATOM      4  C   UNL     1     129.997 -19.199 163.548  1.00  0.00     0.048 A 
ATOM      5  C   UNL     1     128.651 -19.204 163.171  1.00  0.00     0.028 A 
ATOM      6  C   UNL     1     127.992 -18.020 162.818  1.00  0.00     0.029 A 
ATOM      7  C   UNL     1     128.651 -16.781 162.826  1.00  0.00     0.052 A 
ENDROOT
BRANCH   7   8
ATOM      8  N   UNL     1     127.942 -15.613 162.374  1.00  0.00    -0.284 N 
ATOM      9  C   UNL     1     127.935 -15.267 161.025  1.00  0.00     0.095 A 
ATOM     10  C   UNL     1     127.218 -14.846 163.314  1.00  0.00     0.260 A 
ATOM     11  C   UNL     1     127.283 -14.193 160.569  1.00  0.00     0.019 A 
ATOM     12  C   UNL     1     126.489 -13.644 162.783  1.00  0.00     0.043 A 
ATOM     13  O   UNL     1     127.166 -15.059 164.527  1.00  0.00    -0.269 OA
ATOM     14  C   UNL     1     126.549 -13.357 161.474  1.00  0.00     0.013 A 
BRANCH  12  15
ATOM     15  C   UNL     1     125.708 -12.846 163.777  1.00  0.00     0.197 C 
BRANCH  15  16
ATOM     16  O   UNL     1     126.567 -11.986 164.515  1.00  0.00    -0.391 OA
ATOM     17  H   UNL     1     125.988 -11.293 164.891  1.00  0.00     0.211 HD
ENDBRANCH  15  16
ENDBRANCH  12  15
ENDBRANCH   7   8
BRANCH   4  18
ATOM     18  N   UNL     1     130.657 -20.407 163.892  1.00  0.00    -0.274 N 
ATOM     19  C   UNL     1     130.840 -20.845 165.244  1.00  0.00     0.176 C 
ATOM     20  C   UNL     1     131.124 -21.388 163.028  1.00  0.00     0.414 C 
ATOM     21  C   UNL     1     131.839 -21.972 165.111  1.00  0.00     0.217 C 
ATOM     22  O   UNL     1     131.693 -22.407 163.752  1.00  0.00    -0.442 OA
ATOM     23  O   UNL     1     131.069 -21.431 161.810  1.00  0.00    -0.224 OA
BRANCH  21  24
ATOM     24  C   UNL     1     133.283 -21.504 165.338  1.00  0.00     0.163 C 
BRANCH  24  25
ATOM     25  N   UNL     1     133.337 -20.170 165.909  1.00  0.00    -0.348 N 
ATOM     26  C   UNL     1     133.787 -19.084 165.189  1.00  0.00     0.261 C 
ATOM     27  O   UNL     1     134.171 -19.213 164.027  1.00  0.00    -0.268 OA
ATOM     28  H   UNL     1     132.980 -20.017 166.845  1.00  0.00     0.163 HD
BRANCH  26  29
ATOM     29  C   UNL     1     133.760 -17.800 165.874  1.00  0.00     0.093 A 
ATOM     30  C   UNL     1     133.710 -16.547 165.283  1.00  0.00     0.027 A 
ATOM     31  S   UNL     1     133.789 -17.668 167.587  1.00  0.00    -0.118 S 
ATOM     32  C   UNL     1     133.693 -15.488 166.238  1.00  0.00     0.033 A 
ATOM     33  C   UNL     1     133.735 -15.980 167.515  1.00  0.00     0.094 A 
ATOM     34  Cl  UNL     1     133.734 -15.063 168.966  1.00  0.00    -0.072 Cl
ENDBRANCH  26  29
ENDBRANCH  24  25
ENDBRANCH  21  24
ENDBRANCH   4  18
TORSDOF 7
ENDMDL
MODEL 6
REMARK VINA RESULT:    -7.120      3.205      6.855
REMARK INTER + INTRA:         -11.826
REMARK INTER:                 -10.118
REMARK INTRA:                  -1.708
REMARK UNBOUND:                -2.000
REMARK SMILES Cc1cc(N2C[C@H](CNC(=O)c3ccc(Cl)s3)OC2=O)ccc1-n1cccc(CO)c1=O
REMARK SMILES IDX 1 1 2 2 3 3 4 4 21 5 22 6 23 7 24 8 25 9 31 10 26 11 28 12
REMARK SMILES IDX 32 13 27 14 29 15 30 16 5 18 6 19 19 20 7 21 18 22 20 23
REMARK SMILES IDX 8 24 9 25 10 26 11 27 12 29 13 30 17 31 14 32 15 33 16 34
REMARK H PARENT 30 17 9 28
ROOT
ATOM      1  C   UNL     1     130.593 -16.555 163.510  1.00  0.00     0.047 C 
ATOM      2  C   UNL     1     129.451 -17.526 163.661  1.00  0.00    -0.025 A 
ATOM      3  C   UNL     1     129.718 -18.725 164.364  1.00  0.00     0.032 A 
ATOM      4  C   UNL     1     128.720 -19.665 164.652  1.00  0.00     0.048 A 
ATOM      5  C   UNL     1     127.424 -19.377 164.216  1.00  0.00     0.028 A 
ATOM      6  C   UNL     1     127.143 -18.207 163.498  1.00  0.00     0.029 A 
ATOM      7  C   UNL     1     128.147 -17.277 163.187  1.00  0.00     0.052 A 
ENDROOT
BRANCH   7   8
ATOM      8  N   UNL     1     127.810 -16.136 162.376  1.00  0.00    -0.284 N 
ATOM      9  C   UNL     1     128.007 -16.164 160.999  1.00  0.00     0.095 A 
ATOM     10  C   UNL     1     127.238 -15.002 162.995  1.00  0.00     0.260 A 
ATOM     11  C   UNL     1     127.701 -15.125 160.214  1.00  0.00     0.019 A 
ATOM     12  C   UNL     1     126.897 -13.846 162.099  1.00  0.00     0.043 A 
ATOM     13  O   UNL     1     127.030 -14.871 164.204  1.00  0.00    -0.269 OA
ATOM     14  C   UNL     1     127.139 -13.933 160.783  1.00  0.00     0.013 A 
BRANCH  12  15
ATOM     15  C   UNL     1     126.274 -12.655 162.755  1.00  0.00     0.197 C 
BRANCH  15  16
ATOM     16  O   UNL     1     125.887 -11.693 161.782  1.00  0.00    -0.391 OA
ATOM     17  H   UNL     1     124.924 -11.818 161.654  1.00  0.00     0.211 HD
ENDBRANCH  15  16
ENDBRANCH  12  15
ENDBRANCH   7   8
BRANCH   4  18
ATOM     18  N   UNL     1     128.994 -20.859 165.369  1.00  0.00    -0.274 N 
ATOM     19  C   UNL     1     128.679 -21.033 166.756  1.00  0.00     0.176 C 
ATOM     20  C   UNL     1     129.488 -22.052 164.860  1.00  0.00     0.414 C 
ATOM     21  C   UNL     1     129.428 -22.295 167.125  1.00  0.00     0.217 C 
ATOM     22  O   UNL     1     129.604 -22.973 165.872  1.00  0.00    -0.442 OA
ATOM     23  O   UNL     1     129.786 -22.334 163.711  1.00  0.00    -0.224 OA
BRANCH  21  24
ATOM     24  C   UNL     1     130.804 -22.002 167.737  1.00  0.00     0.163 C 
BRANCH  24  25
ATOM     25  N   UNL     1     131.072 -20.577 167.811  1.00  0.00    -0.348 N 
ATOM     26  C   UNL     1     132.060 -19.978 167.060  1.00  0.00     0.261 C 
ATOM     27  O   UNL     1     132.763 -20.641 166.299  1.00  0.00    -0.268 OA
ATOM     28  H   UNL     1     130.478 -19.991 168.388  1.00  0.00     0.163 HD
BRANCH  26  29
ATOM     29  C   UNL     1     132.201 -18.536 167.211  1.00  0.00     0.093 A 
ATOM     30  C   UNL     1     131.174 -17.608 167.286  1.00  0.00     0.027 A 
ATOM     31  S   UNL     1     133.732 -17.765 167.322  1.00  0.00    -0.118 S 
ATOM     32  C   UNL     1     131.649 -16.272 167.436  1.00  0.00     0.033 A 
ATOM     33  C   UNL     1     133.018 -16.240 167.465  1.00  0.00     0.094 A 
ATOM     34  Cl  UNL     1     134.007 -14.847 167.629  1.00  0.00    -0.072 Cl
ENDBRANCH  26  29
ENDBRANCH  24  25
ENDBRANCH  21  24
ENDBRANCH   4  18
TORSDOF 7
ENDMDL
MODEL 7
REMARK VINA RESULT:    -7.059      3.084      4.875
REMARK INTER + INTRA:         -11.741
REMARK INTER:                 -10.245
REMARK INTRA:                  -1.497
REMARK UNBOUND:                -2.000
REMARK SMILES Cc1cc(N2C[C@H](CNC(=O)c3ccc(Cl)s3)OC2=O)ccc1-n1cccc(CO)c1=O
REMARK SMILES IDX 1 1 2 2 3 3 4 4 21 5 22 6 23 7 24 8 25 9 31 10 26 11 28 12
REMARK SMILES IDX 32 13 27 14 29 15 30 16 5 18 6 19 19 20 7 21 18 22 20 23
REMARK SMILES IDX 8 24 9 25 10 26 11 27 12 29 13 30 17 31 14 32 15 33 16 34
REMARK H PARENT 30 17 9 28
ROOT
ATOM      1  C   UNL     1     130.891 -16.955 166.914  1.00  0.00     0.047 C 
ATOM      2  C   UNL     1     131.092 -16.277 165.584  1.00  0.00    -0.025 A 
ATOM      3  C   UNL     1     129.939 -15.751 164.952  1.00  0.00     0.032 A 
ATOM      4  C   UNL     1     130.005 -15.017 163.760  1.00  0.00     0.048 A 
ATOM      5  C   UNL     1     131.270 -14.816 163.201  1.00  0.00     0.028 A 
ATOM      6  C   UNL     1     132.419 -15.348 163.798  1.00  0.00     0.029 A 
ATOM      7  C   UNL     1     132.353 -16.104 164.978  1.00  0.00     0.052 A 
ENDROOT
BRANCH   7   8
ATOM      8  N   UNL     1     133.561 -16.692 165.496  1.00  0.00    -0.284 N 
ATOM      9  C   UNL     1     134.442 -15.938 166.264  1.00  0.00     0.095 A 
ATOM     10  C   UNL     1     133.817 -18.059 165.245  1.00  0.00     0.260 A 
ATOM     11  C   UNL     1     135.570 -16.453 166.765  1.00  0.00     0.019 A 
ATOM     12  C   UNL     1     135.087 -18.621 165.819  1.00  0.00     0.043 A 
ATOM     13  O   UNL     1     133.109 -18.811 164.572  1.00  0.00    -0.269 OA
ATOM     14  C   UNL     1     135.903 -17.828 166.528  1.00  0.00     0.013 A 
BRANCH  12  15
ATOM     15  C   UNL     1     135.345 -20.073 165.568  1.00  0.00     0.197 C 
BRANCH  15  16
ATOM     16  O   UNL     1     135.687 -20.293 164.206  1.00  0.00    -0.391 OA
ATOM     17  H   UNL     1     136.004 -21.219 164.160  1.00  0.00     0.211 HD
ENDBRANCH  15  16
ENDBRANCH  12  15
ENDBRANCH   7   8
BRANCH   4  18
ATOM     18  N   UNL     1     128.846 -14.482 163.140  1.00  0.00    -0.274 N 
ATOM     19  C   UNL     1     127.600 -14.300 163.826  1.00  0.00     0.176 C 
ATOM     20  C   UNL     1     128.740 -13.963 161.857  1.00  0.00     0.414 C 
ATOM     21  C   UNL     1     126.626 -14.020 162.704  1.00  0.00     0.217 C 
ATOM     22  O   UNL     1     127.454 -13.536 161.636  1.00  0.00    -0.442 OA
ATOM     23  O   UNL     1     129.600 -13.850 160.999  1.00  0.00    -0.224 OA
BRANCH  21  24
ATOM     24  C   UNL     1     125.890 -15.284 162.238  1.00  0.00     0.163 C 
BRANCH  24  25
ATOM     25  N   UNL     1     126.321 -16.462 162.969  1.00  0.00    -0.348 N 
ATOM     26  C   UNL     1     127.198 -17.377 162.429  1.00  0.00     0.261 C 
ATOM     27  O   UNL     1     127.644 -17.229 161.292  1.00  0.00    -0.268 OA
ATOM     28  H   UNL     1     126.015 -16.589 163.927  1.00  0.00     0.163 HD
BRANCH  26  29
ATOM     29  C   UNL     1     127.568 -18.497 163.283  1.00  0.00     0.093 A 
ATOM     30  C   UNL     1     128.836 -18.790 163.760  1.00  0.00     0.027 A 
ATOM     31  S   UNL     1     126.424 -19.655 163.834  1.00  0.00    -0.118 S 
ATOM     32  C   UNL     1     128.861 -19.959 164.577  1.00  0.00     0.033 A 
ATOM     33  C   UNL     1     127.611 -20.508 164.682  1.00  0.00     0.094 A 
ATOM     34  Cl  UNL     1     127.182 -21.918 165.564  1.00  0.00    -0.072 Cl
ENDBRANCH  26  29
ENDBRANCH  24  25
ENDBRANCH  21  24
ENDBRANCH   4  18
TORSDOF 7
ENDMDL
MODEL 8
REMARK VINA RESULT:    -7.037      3.260      4.970
REMARK INTER + INTRA:         -11.711
REMARK INTER:                 -10.120
REMARK INTRA:                  -1.591
REMARK UNBOUND:                -2.000
REMARK SMILES Cc1cc(N2C[C@H](CNC(=O)c3ccc(Cl)s3)OC2=O)ccc1-n1cccc(CO)c1=O
REMARK SMILES IDX 1 1 2 2 3 3 4 4 21 5 22 6 23 7 24 8 25 9 31 10 26 11 28 12
REMARK SMILES IDX 32 13 27 14 29 15 30 16 5 18 6 19 19 20 7 21 18 22 20 23
REMARK SMILES IDX 8 24 9 25 10 26 11 27 12 29 13 30 17 31 14 32 15 33 16 34
REMARK H PARENT 30 17 9 28
ROOT
ATOM      1  C   UNL     1     130.566 -19.555 164.943  1.00  0.00     0.047 C 
ATOM      2  C   UNL     1     131.123 -18.163 164.804  1.00  0.00    -0.025 A 
ATOM      3  C   UNL     1     130.322 -17.216 164.121  1.00  0.00     0.032 A 
ATOM      4  C   UNL     1     130.684 -15.868 164.007  1.00  0.00     0.048 A 
ATOM      5  C   UNL     1     131.887 -15.476 164.601  1.00  0.00     0.028 A 
ATOM      6  C   UNL     1     132.706 -16.401 165.260  1.00  0.00     0.029 A 
ATOM      7  C   UNL     1     132.356 -17.757 165.354  1.00  0.00     0.052 A 
ENDROOT
BRANCH   7   8
ATOM      8  N   UNL     1     133.280 -18.671 165.973  1.00  0.00    -0.284 N 
ATOM      9  C   UNL     1     133.220 -18.920 167.341  1.00  0.00     0.095 A 
ATOM     10  C   UNL     1     134.222 -19.344 165.163  1.00  0.00     0.260 A 
ATOM     11  C   UNL     1     134.057 -19.767 167.949  1.00  0.00     0.019 A 
ATOM     12  C   UNL     1     135.154 -20.293 165.862  1.00  0.00     0.043 A 
ATOM     13  O   UNL     1     134.366 -19.189 163.949  1.00  0.00    -0.269 OA
ATOM     14  C   UNL     1     135.055 -20.464 167.189  1.00  0.00     0.013 A 
BRANCH  12  15
ATOM     15  C   UNL     1     136.137 -21.018 164.999  1.00  0.00     0.197 C 
BRANCH  15  16
ATOM     16  O   UNL     1     136.998 -20.098 164.340  1.00  0.00    -0.391 OA
ATOM     17  H   UNL     1     137.822 -20.083 164.869  1.00  0.00     0.211 HD
ENDBRANCH  15  16
ENDBRANCH  12  15
ENDBRANCH   7   8
BRANCH   4  18
ATOM     18  N   UNL     1     129.868 -14.924 163.331  1.00  0.00    -0.274 N 
ATOM     19  C   UNL     1     128.552 -14.566 163.770  1.00  0.00     0.176 C 
ATOM     20  C   UNL     1     130.218 -14.134 162.244  1.00  0.00     0.414 C 
ATOM     21  C   UNL     1     127.990 -13.803 162.591  1.00  0.00     0.217 C 
ATOM     22  O   UNL     1     129.154 -13.342 161.889  1.00  0.00    -0.442 OA
ATOM     23  O   UNL     1     131.279 -14.075 161.645  1.00  0.00    -0.224 OA
BRANCH  21  24
ATOM     24  C   UNL     1     127.159 -14.695 161.658  1.00  0.00     0.163 C 
BRANCH  24  25
ATOM     25  N   UNL     1     127.092 -16.064 162.136  1.00  0.00    -0.348 N 
ATOM     26  C   UNL     1     125.918 -16.621 162.596  1.00  0.00     0.261 C 
ATOM     27  O   UNL     1     124.878 -15.965 162.626  1.00  0.00    -0.268 OA
ATOM     28  H   UNL     1     127.916 -16.650 162.076  1.00  0.00     0.163 HD
BRANCH  26  29
ATOM     29  C   UNL     1     125.987 -18.014 163.018  1.00  0.00     0.093 A 
ATOM     30  C   UNL     1     127.015 -18.612 163.730  1.00  0.00     0.027 A 
ATOM     31  S   UNL     1     124.744 -19.147 162.669  1.00  0.00    -0.118 S 
ATOM     32  C   UNL     1     126.775 -19.994 163.987  1.00  0.00     0.033 A 
ATOM     33  C   UNL     1     125.576 -20.389 163.456  1.00  0.00     0.094 A 
ATOM     34  Cl  UNL     1     124.892 -21.962 163.528  1.00  0.00    -0.072 Cl
ENDBRANCH  26  29
ENDBRANCH  24  25
ENDBRANCH  21  24
ENDBRANCH   4  18
TORSDOF 7
ENDMDL
MODEL 9
REMARK VINA RESULT:    -7.018      4.305      5.528
REMARK INTER + INTRA:         -11.685
REMARK INTER:                 -10.465
REMARK INTRA:                  -1.219
REMARK UNBOUND:                -2.000
REMARK SMILES Cc1cc(N2C[C@H](CNC(=O)c3ccc(Cl)s3)OC2=O)ccc1-n1cccc(CO)c1=O
REMARK SMILES IDX 1 1 2 2 3 3 4 4 21 5 22 6 23 7 24 8 25 9 31 10 26 11 28 12
REMARK SMILES IDX 32 13 27 14 29 15 30 16 5 18 6 19 19 20 7 21 18 22 20 23
REMARK SMILES IDX 8 24 9 25 10 26 11 27 12 29 13 30 17 31 14 32 15 33 16 34
REMARK H PARENT 30 17 9 28
ROOT
ATOM      1  C   UNL     1     135.490 -15.718 166.790  1.00  0.00     0.047 C 
ATOM      2  C   UNL     1     134.354 -16.430 166.103  1.00  0.00    -0.025 A 
ATOM      3  C   UNL     1     133.490 -15.640 165.308  1.00  0.00     0.032 A 
ATOM      4  C   UNL     1     132.455 -16.195 164.545  1.00  0.00     0.048 A 
ATOM      5  C   UNL     1     132.297 -17.583 164.592  1.00  0.00     0.028 A 
ATOM      6  C   UNL     1     133.126 -18.380 165.392  1.00  0.00     0.029 A 
ATOM      7  C   UNL     1     134.148 -17.823 166.176  1.00  0.00     0.052 A 
ENDROOT
BRANCH   7   8
ATOM      8  N   UNL     1     134.912 -18.687 167.038  1.00  0.00    -0.284 N 
ATOM      9  C   UNL     1     134.463 -18.982 168.322  1.00  0.00     0.095 A 
ATOM     10  C   UNL     1     136.104 -19.263 166.546  1.00  0.00     0.260 A 
ATOM     11  C   UNL     1     135.143 -19.783 169.147  1.00  0.00     0.019 A 
ATOM     12  C   UNL     1     136.854 -20.163 167.486  1.00  0.00     0.043 A 
ATOM     13  O   UNL     1     136.593 -19.061 165.432  1.00  0.00    -0.269 OA
ATOM     14  C   UNL     1     136.375 -20.382 168.719  1.00  0.00     0.013 A 
BRANCH  12  15
ATOM     15  C   UNL     1     138.106 -20.787 166.955  1.00  0.00     0.197 C 
BRANCH  15  16
ATOM     16  O   UNL     1     137.796 -21.814 166.022  1.00  0.00    -0.391 OA
ATOM     17  H   UNL     1     138.337 -22.586 166.289  1.00  0.00     0.211 HD
ENDBRANCH  15  16
ENDBRANCH  12  15
ENDBRANCH   7   8
BRANCH   4  18
ATOM     18  N   UNL     1     131.601 -15.397 163.740  1.00  0.00    -0.274 N 
ATOM     19  C   UNL     1     130.328 -14.912 164.185  1.00  0.00     0.176 C 
ATOM     20  C   UNL     1     131.874 -14.874 162.483  1.00  0.00     0.414 C 
ATOM     21  C   UNL     1     129.685 -14.408 162.913  1.00  0.00     0.217 C 
ATOM     22  O   UNL     1     130.795 -14.147 162.042  1.00  0.00    -0.442 OA
ATOM     23  O   UNL     1     132.885 -14.978 161.809  1.00  0.00    -0.224 OA
BRANCH  21  24
ATOM     24  C   UNL     1     128.771 -15.456 162.262  1.00  0.00     0.163 C 
BRANCH  24  25
ATOM     25  N   UNL     1     128.850 -15.420 160.813  1.00  0.00    -0.348 N 
ATOM     26  C   UNL     1     128.070 -14.569 160.060  1.00  0.00     0.261 C 
ATOM     27  O   UNL     1     127.264 -13.810 160.597  1.00  0.00    -0.268 OA
ATOM     28  H   UNL     1     129.539 -15.993 160.340  1.00  0.00     0.163 HD
BRANCH  26  29
ATOM     29  C   UNL     1     128.272 -14.616 158.618  1.00  0.00     0.093 A 
ATOM     30  C   UNL     1     127.945 -15.663 157.771  1.00  0.00     0.027 A 
ATOM     31  S   UNL     1     128.975 -13.315 157.742  1.00  0.00    -0.118 S 
ATOM     32  C   UNL     1     128.271 -15.391 156.409  1.00  0.00     0.033 A 
ATOM     33  C   UNL     1     128.835 -14.150 156.279  1.00  0.00     0.094 A 
ATOM     34  Cl  UNL     1     129.378 -13.419 154.824  1.00  0.00    -0.072 Cl
ENDBRANCH  26  29
ENDBRANCH  24  25
ENDBRANCH  21  24
ENDBRANCH   4  18
TORSDOF 7
ENDMDL
