REMARK SMILES CCN(CC)C/C=C/C(=O)Nc1ccc2ncnc(Nc3cccc(Br)c3)c2c1
REMARK SMILES IDX 9 1 10 2 11 3 8 5 7 6 6 7 3 8 2 9 1 10 4 11 5 12 12 13 13 14
REMARK SMILES IDX 29 15 14 16 28 17 15 18 19 19 16 20 18 21 17 22 20 23 21 25
REMARK SMILES IDX 22 26 27 27 23 28 25 29 24 30 26 31
REMARK H PARENT 11 4 20 24
REMARK INDEX MAP 9 1 10 2 11 3 44 4 8 5 7 6 6 7 3 8 2 9 1 10 4 11 5 12 12 13
REMARK INDEX MAP 13 14 29 15 14 16 28 17 15 18 19 19 16 20 18 21 17 22 20 23
REMARK INDEX MAP 48 24 21 25 22 26 27 27 23 28 25 29 24 30 26 31
ROOT
ATOM      1  C   UNL     1      17.090  34.106  11.714  1.00  0.00     0.248 C 
ATOM      2  O   UNL     1      16.498  34.471  12.722  1.00  0.00    -0.270 OA
ATOM      3  N   UNL     1      18.412  33.717  11.620  1.00  0.00    -0.322 N 
ATOM      4  H   UNL     1      18.731  33.397  10.694  1.00  0.00     0.170 HD
ENDROOT
BRANCH   1   5
ATOM      5  C   UNL     1      16.394  34.012  10.399  1.00  0.00     0.068 C 
ATOM      6  C   UNL     1      16.965  33.379   9.361  1.00  0.00    -0.006 C 
BRANCH   6   7
ATOM      7  C   UNL     1      16.372  33.201   7.988  1.00  0.00     0.112 C 
BRANCH   7   8
ATOM      8  N   UNL     1      16.351  31.810   7.509  1.00  0.00    -0.300 NA
BRANCH   8   9
ATOM      9  C   UNL     1      17.635  31.119   7.733  1.00  0.00     0.081 C 
ATOM     10  C   UNL     1      18.308  30.488   6.515  1.00  0.00     0.021 C 
ENDBRANCH   8   9
BRANCH   8  11
ATOM     11  C   UNL     1      15.220  31.048   8.057  1.00  0.00     0.081 C 
ATOM     12  C   UNL     1      14.648  30.068   7.036  1.00  0.00     0.021 C 
ENDBRANCH   8  11
ENDBRANCH   7   8
ENDBRANCH   6   7
ENDBRANCH   1   5
BRANCH   3  13
ATOM     13  C   UNL     1      19.373  33.710  12.651  1.00  0.00     0.042 A 
ATOM     14  C   UNL     1      20.714  33.781  12.281  1.00  0.00     0.028 A 
ATOM     15  C   UNL     1      19.064  33.646  14.009  1.00  0.00     0.040 A 
ATOM     16  C   UNL     1      21.717  33.773  13.257  1.00  0.00     0.031 A 
ATOM     17  C   UNL     1      20.082  33.628  15.004  1.00  0.00     0.045 A 
ATOM     18  C   UNL     1      21.424  33.698  14.610  1.00  0.00     0.076 A 
ATOM     19  C   UNL     1      19.862  33.556  16.397  1.00  0.00     0.141 A 
ATOM     20  N   UNL     1      22.438  33.702  15.476  1.00  0.00    -0.236 NA
ATOM     21  N   UNL     1      20.882  33.578  17.275  1.00  0.00    -0.219 NA
ATOM     22  C   UNL     1      22.115  33.645  16.772  1.00  0.00     0.224 A 
BRANCH  19  23
ATOM     23  N   UNL     1      18.540  33.479  16.888  1.00  0.00    -0.340 N 
ATOM     24  H   UNL     1      18.111  32.546  16.807  1.00  0.00     0.168 HD
BRANCH  23  25
ATOM     25  C   UNL     1      17.707  34.452  17.468  1.00  0.00     0.041 A 
ATOM     26  C   UNL     1      16.323  34.382  17.238  1.00  0.00     0.026 A 
ATOM     27  C   UNL     1      18.192  35.525  18.225  1.00  0.00     0.041 A 
ATOM     28  C   UNL     1      15.448  35.338  17.766  1.00  0.00     0.003 A 
ATOM     29  C   UNL     1      17.317  36.479  18.753  1.00  0.00     0.020 A 
ATOM     30  C   UNL     1      15.947  36.388  18.530  1.00  0.00     0.016 A 
ATOM     31  Br  UNL     1      18.003  37.916  19.775  1.00  0.00    -0.051 Br
ENDBRANCH  23  25
ENDBRANCH  19  23
ENDBRANCH   3  13
TORSDOF 8
