REMARK VINA RESULT:    -7.766      0.000      0.000
REMARK INTER + INTRA:          -9.284
REMARK INTER:                  -8.901
REMARK INTRA:                  -0.383
REMARK UNBOUND:                -0.383
REMARK SMILES O=C1CSC(N/N=C/c2cc(F)ccc2O)=N1
REMARK SMILES IDX 9 1 10 2 11 3 12 4 13 5 14 6 15 7 8 8 7 9 6 10 1 11 2 12
REMARK SMILES IDX 3 13 17 14 4 15 5 16 16 18
REMARK H PARENT 6 17 16 19
ROOT
ATOM      1  C   UNL     1      17.474  33.175  11.820  1.00  0.00     0.039 A 
ATOM      2  C   UNL     1      16.965  33.900  12.900  1.00  0.00     0.052 A 
ATOM      3  C   UNL     1      17.848  34.491  13.799  1.00  0.00     0.124 A 
ATOM      4  F   UNL     1      17.362  35.184  14.836  1.00  0.00    -0.207 F 
ATOM      5  C   UNL     1      19.225  34.375  13.641  1.00  0.00     0.043 A 
ATOM      6  C   UNL     1      19.735  33.655  12.560  1.00  0.00     0.050 A 
ATOM      7  C   UNL     1      18.861  33.058  11.653  1.00  0.00     0.124 A 
ENDROOT
BRANCH   1   8
ATOM      8  C   UNL     1      16.508  32.557  10.888  1.00  0.00     0.145 C 
ATOM      9  N   UNL     1      16.821  32.333   9.648  1.00  0.00    -0.181 NA
BRANCH   9  10
ATOM     10  N   UNL     1      15.853  31.797   8.847  1.00  0.00    -0.256 N 
ATOM     11  O   UNL     1      17.305  27.954   6.650  1.00  0.00    -0.272 OA
ATOM     12  C   UNL     1      16.511  28.815   7.014  1.00  0.00     0.258 C 
ATOM     13  C   UNL     1      15.066  28.801   6.571  1.00  0.00     0.180 C 
ATOM     14  N   UNL     1      16.851  29.857   7.841  1.00  0.00    -0.187 NA
ATOM     15  S   UNL     1      14.345  30.283   7.305  1.00  0.00    -0.077 SA
ATOM     16  C   UNL     1      15.873  30.665   8.070  1.00  0.00     0.185 C 
ATOM     17  H   UNL     1      14.925  32.205   8.950  1.00  0.00     0.192 HD
ENDBRANCH   9  10
ENDBRANCH   1   8
BRANCH   7  18
ATOM     18  O   UNL     1      19.434  32.371  10.619  1.00  0.00    -0.507 OA
ATOM     19  H   UNL     1      19.092  32.756   9.783  1.00  0.00     0.293 HD
ENDBRANCH   7  18
TORSDOF 3
