MODEL 8
REMARK VINA RESULT:    -8.135      5.065      8.899
REMARK INTER + INTRA:         -12.990
REMARK INTER:                 -12.061
REMARK INTRA:                  -0.929
REMARK UNBOUND:                -0.813
REMARK SMILES CCC(CC)n1cc(-c2nc(-c3cnn(CCN4CC[C@@H](O)C4)c3)cn3nccc23)cn1
REMARK SMILES IDX 12 1 13 2 14 3 15 4 24 5 11 6 9 7 10 8 30 9 29 10 26 11
REMARK SMILES IDX 25 12 28 13 27 14 8 15 6 16 7 17 32 18 31 19 3 20 2 21 1 22
REMARK SMILES IDX 4 23 5 24 16 25 17 26 18 27 19 28 23 29 20 30 21 31 22 32
REMARK H PARENT 22 33
ROOT
ATOM      1  C   UNL     1      -1.349  24.648 -25.518  1.00  0.00     0.040 A 
ATOM      2  C   UNL     1      -1.605  24.756 -24.132  1.00  0.00     0.145 A 
ATOM      3  N   UNL     1      -0.649  24.194 -23.387  1.00  0.00    -0.181 NA
ATOM      4  N   UNL     1       0.224  23.725 -24.295  1.00  0.00    -0.271 N 
ATOM      5  C   UNL     1      -0.150  23.968 -25.586  1.00  0.00     0.119 A 
ENDROOT
BRANCH   1   6
ATOM      6  C   UNL     1      -2.150  25.129 -26.605  1.00  0.00     0.092 A 
ATOM      7  C   UNL     1      -3.425  24.464 -28.420  1.00  0.00     0.100 A 
ATOM      8  N   UNL     1      -2.700  24.130 -27.391  1.00  0.00    -0.244 NA
ATOM      9  C   UNL     1      -3.712  25.837 -28.741  1.00  0.00     0.093 A 
ATOM     10  C   UNL     1      -4.489  26.501 -29.663  1.00  0.00     0.052 A 
ATOM     11  N   UNL     1      -3.141  26.802 -27.936  1.00  0.00    -0.237 N 
ATOM     12  C   UNL     1      -2.353  26.434 -26.864  1.00  0.00     0.142 A 
ATOM     13  C   UNL     1      -4.292  27.861 -29.375  1.00  0.00     0.136 A 
ATOM     14  N   UNL     1      -3.470  28.052 -28.343  1.00  0.00    -0.176 NA
BRANCH   7  15
ATOM     15  C   UNL     1      -3.945  23.392 -29.243  1.00  0.00     0.040 A 
ATOM     16  N   UNL     1      -4.664  22.120 -30.898  1.00  0.00    -0.269 N 
ATOM     17  C   UNL     1      -4.236  23.384 -30.594  1.00  0.00     0.119 A 
ATOM     18  N   UNL     1      -4.681  21.300 -29.833  1.00  0.00    -0.181 NA
ATOM     19  C   UNL     1      -4.217  22.062 -28.840  1.00  0.00     0.145 A 
BRANCH  16  20
ATOM     20  C   UNL     1      -5.058  21.631 -32.216  1.00  0.00     0.107 C 
BRANCH  20  21
ATOM     21  C   UNL     1      -5.274  22.786 -33.214  1.00  0.00     0.024 C 
ATOM     22  C   UNL     1      -6.744  23.113 -33.441  1.00  0.00     0.006 C 
ENDBRANCH  20  21
BRANCH  20  23
ATOM     23  C   UNL     1      -6.313  20.736 -32.151  1.00  0.00     0.024 C 
ATOM     24  C   UNL     1      -6.004  19.253 -32.320  1.00  0.00     0.006 C 
ENDBRANCH  20  23
ENDBRANCH  16  20
ENDBRANCH   7  15
ENDBRANCH   1   6
BRANCH   4  25
ATOM     25  C   UNL     1       1.419  23.025 -23.851  1.00  0.00     0.159 C 
BRANCH  25  26
ATOM     26  C   UNL     1       1.070  21.669 -23.227  1.00  0.00     0.108 C 
BRANCH  26  27
ATOM     27  N   UNL     1       1.013  20.501 -24.112  1.00  0.00    -0.299 NA
ATOM     28  C   UNL     1       1.421  19.240 -23.498  1.00  0.00     0.087 C 
ATOM     29  C   UNL     1      -0.280  20.243 -24.748  1.00  0.00     0.116 C 
ATOM     30  C   UNL     1       1.094  18.243 -24.597  1.00  0.00     0.048 C 
ATOM     31  C   UNL     1      -0.204  18.773 -25.197  1.00  0.00     0.129 C 
BRANCH  31  32
ATOM     32  O   UNL     1      -1.299  18.026 -24.670  1.00  0.00    -0.392 OA
ATOM     33  H   UNL     1      -1.872  18.649 -24.189  1.00  0.00     0.211 HD
ENDBRANCH  31  32
ENDBRANCH  26  27
ENDBRANCH  25  26
ENDBRANCH   4  25
TORSDOF 9
ENDMDL
