MODEL 1
REMARK VINA RESULT:    -9.049      0.000      0.000
REMARK INTER + INTRA:         -11.220
REMARK INTER:                 -10.636
REMARK INTRA:                  -0.584
REMARK UNBOUND:                -0.584
REMARK SMILES c1ccc(CNc2c3c(nc4ccccc24)CCCC3)nc1
REMARK SMILES IDX 5 1 4 2 1 3 2 4 22 5 3 6 21 7 6 8 7 10 8 11 16 12 9 13 20 14
REMARK SMILES IDX 15 15 11 16 10 17 17 18 19 19 14 20 12 21 18 22 13 23
REMARK H PARENT 6 9
ROOT
ATOM      1  C   UNL     1     135.292 114.055  39.465  1.00  0.00     0.169 C 
ENDROOT
BRANCH   1   2
ATOM      2  C   UNL     1     135.488 112.790  40.278  1.00  0.00     0.059 A 
ATOM      3  C   UNL     1     135.743 110.479  41.741  1.00  0.00     0.020 A 
ATOM      4  C   UNL     1     136.120 111.687  42.313  1.00  0.00     0.004 A 
ATOM      5  C   UNL     1     135.240 110.495  40.451  1.00  0.00     0.111 A 
ATOM      6  C   UNL     1     135.988 112.861  41.577  1.00  0.00     0.026 A 
ATOM      7  N   UNL     1     135.098 111.617  39.712  1.00  0.00    -0.259 NA
ENDBRANCH   1   2
BRANCH   1   8
ATOM      8  N   UNL     1     133.867 114.377  39.396  1.00  0.00    -0.379 N 
ATOM      9  H   UNL     1     133.539 114.513  38.442  1.00  0.00     0.161 HD
BRANCH   8  10
ATOM     10  C   UNL     1     133.394 115.303  40.343  1.00  0.00     0.049 A 
ATOM     11  C   UNL     1     133.701 116.671  40.199  1.00  0.00    -0.003 A 
ATOM     12  C   UNL     1     132.687 114.863  41.494  1.00  0.00     0.024 A 
ATOM     13  C   UNL     1     133.263 117.546  41.197  1.00  0.00     0.046 A 
ATOM     14  C   UNL     1     134.426 117.190  38.979  1.00  0.00     0.039 C 
ATOM     15  C   UNL     1     132.303 113.518  41.715  1.00  0.00     0.012 A 
ATOM     16  C   UNL     1     132.323 115.832  42.449  1.00  0.00     0.073 A 
ATOM     17  N   UNL     1     132.606 117.134  42.308  1.00  0.00    -0.252 NA
ATOM     18  C   UNL     1     133.551 119.024  41.140  1.00  0.00     0.056 C 
ATOM     19  C   UNL     1     134.952 118.617  39.122  1.00  0.00     0.005 C 
ATOM     20  C   UNL     1     131.610 113.138  42.863  1.00  0.00     0.001 A 
ATOM     21  C   UNL     1     131.635 115.431  43.587  1.00  0.00     0.029 A 
ATOM     22  C   UNL     1     133.893 119.517  39.739  1.00  0.00     0.007 C 
ATOM     23  C   UNL     1     131.279 114.098  43.807  1.00  0.00     0.002 A 
ENDBRANCH   8  10
ENDBRANCH   1   8
TORSDOF 3
ENDMDL
MODEL 2
REMARK VINA RESULT:    -8.986      3.621      5.589
REMARK INTER + INTRA:         -11.145
REMARK INTER:                 -11.109
REMARK INTRA:                  -0.036
REMARK UNBOUND:                -0.584
REMARK SMILES c1ccc(CNc2c3c(nc4ccccc24)CCCC3)nc1
REMARK SMILES IDX 5 1 4 2 1 3 2 4 22 5 3 6 21 7 6 8 7 10 8 11 16 12 9 13 20 14
REMARK SMILES IDX 15 15 11 16 10 17 17 18 19 19 14 20 12 21 18 22 13 23
REMARK H PARENT 6 9
ROOT
ATOM      1  C   UNL     1     138.399 116.843  40.887  1.00  0.00     0.169 C 
ENDROOT
BRANCH   1   2
ATOM      2  C   UNL     1     139.709 116.281  41.405  1.00  0.00     0.059 A 
ATOM      3  C   UNL     1     142.031 115.180  42.376  1.00  0.00     0.020 A 
ATOM      4  C   UNL     1     141.620 116.420  42.849  1.00  0.00     0.004 A 
ATOM      5  C   UNL     1     141.238 114.544  41.435  1.00  0.00     0.111 A 
ATOM      6  C   UNL     1     140.442 116.979  42.363  1.00  0.00     0.026 A 
ATOM      7  N   UNL     1     140.089 115.059  40.946  1.00  0.00    -0.259 NA
ENDBRANCH   1   2
BRANCH   1   8
ATOM      8  N   UNL     1     137.594 115.764  40.316  1.00  0.00    -0.379 N 
ATOM      9  H   UNL     1     137.581 115.776  39.300  1.00  0.00     0.161 HD
BRANCH   8  10
ATOM     10  C   UNL     1     136.359 115.516  40.941  1.00  0.00     0.049 A 
ATOM     11  C   UNL     1     136.064 114.224  41.422  1.00  0.00    -0.003 A 
ATOM     12  C   UNL     1     135.366 116.530  41.012  1.00  0.00     0.024 A 
ATOM     13  C   UNL     1     134.800 114.007  41.979  1.00  0.00     0.046 A 
ATOM     14  C   UNL     1     137.096 113.120  41.394  1.00  0.00     0.039 C 
ATOM     15  C   UNL     1     135.574 117.864  40.587  1.00  0.00     0.012 A 
ATOM     16  C   UNL     1     134.118 116.187  41.566  1.00  0.00     0.073 A 
ATOM     17  N   UNL     1     133.840 114.962  42.032  1.00  0.00    -0.252 NA
ATOM     18  C   UNL     1     134.386 112.659  42.509  1.00  0.00     0.056 C 
ATOM     19  C   UNL     1     136.530 111.725  41.652  1.00  0.00     0.005 C 
ATOM     20  C   UNL     1     134.566 118.822  40.677  1.00  0.00     0.001 A 
ATOM     21  C   UNL     1     133.126 117.157  41.644  1.00  0.00     0.029 A 
ATOM     22  C   UNL     1     135.567 111.749  42.829  1.00  0.00     0.007 C 
ATOM     23  C   UNL     1     133.334 118.466  41.203  1.00  0.00     0.002 A 
ENDBRANCH   8  10
ENDBRANCH   1   8
TORSDOF 3
ENDMDL
MODEL 3
REMARK VINA RESULT:    -8.942      4.308      7.373
REMARK INTER + INTRA:         -11.094
REMARK INTER:                 -10.794
REMARK INTRA:                  -0.300
REMARK UNBOUND:                -0.584
REMARK SMILES c1ccc(CNc2c3c(nc4ccccc24)CCCC3)nc1
REMARK SMILES IDX 5 1 4 2 1 3 2 4 22 5 3 6 21 7 6 8 7 10 8 11 16 12 9 13 20 14
REMARK SMILES IDX 15 15 11 16 10 17 17 18 19 19 14 20 12 21 18 22 13 23
REMARK H PARENT 6 9
ROOT
ATOM      1  C   UNL     1     136.432 115.499  41.023  1.00  0.00     0.169 C 
ENDROOT
BRANCH   1   2
ATOM      2  C   UNL     1     135.362 116.573  41.014  1.00  0.00     0.059 A 
ATOM      3  C   UNL     1     133.480 118.574  41.065  1.00  0.00     0.020 A 
ATOM      4  C   UNL     1     133.111 117.288  41.441  1.00  0.00     0.004 A 
ATOM      5  C   UNL     1     134.794 118.794  40.688  1.00  0.00     0.111 A 
ATOM      6  C   UNL     1     134.063 116.273  41.422  1.00  0.00     0.026 A 
ATOM      7  N   UNL     1     135.741 117.830  40.660  1.00  0.00    -0.259 NA
ENDBRANCH   1   2
BRANCH   1   8
ATOM      8  N   UNL     1     137.490 115.853  40.077  1.00  0.00    -0.379 N 
ATOM      9  H   UNL     1     137.137 116.033  39.140  1.00  0.00     0.161 HD
BRANCH   8  10
ATOM     10  C   UNL     1     138.668 115.090  40.151  1.00  0.00     0.049 A 
ATOM     11  C   UNL     1     139.729 115.517  40.975  1.00  0.00    -0.003 A 
ATOM     12  C   UNL     1     138.839 113.940  39.334  1.00  0.00     0.024 A 
ATOM     13  C   UNL     1     140.905 114.761  40.969  1.00  0.00     0.046 A 
ATOM     14  C   UNL     1     139.585 116.717  41.882  1.00  0.00     0.039 C 
ATOM     15  C   UNL     1     137.825 113.412  38.498  1.00  0.00     0.012 A 
ATOM     16  C   UNL     1     140.079 113.275  39.389  1.00  0.00     0.073 A 
ATOM     17  N   UNL     1     141.084 113.676  40.179  1.00  0.00    -0.252 NA
ATOM     18  C   UNL     1     142.098 115.143  41.806  1.00  0.00     0.056 C 
ATOM     19  C   UNL     1     140.904 117.228  42.460  1.00  0.00     0.005 C 
ATOM     20  C   UNL     1     138.043 112.281  37.715  1.00  0.00     0.001 A 
ATOM     21  C   UNL     1     140.276 112.151  38.597  1.00  0.00     0.029 A 
ATOM     22  C   UNL     1     141.749 116.069  42.965  1.00  0.00     0.007 C 
ATOM     23  C   UNL     1     139.277 111.650  37.760  1.00  0.00     0.002 A 
ENDBRANCH   8  10
ENDBRANCH   1   8
TORSDOF 3
ENDMDL
MODEL 4
REMARK VINA RESULT:    -8.931      3.640      4.764
REMARK INTER + INTRA:         -11.081
REMARK INTER:                 -11.020
REMARK INTRA:                  -0.061
REMARK UNBOUND:                -0.584
REMARK SMILES c1ccc(CNc2c3c(nc4ccccc24)CCCC3)nc1
REMARK SMILES IDX 5 1 4 2 1 3 2 4 22 5 3 6 21 7 6 8 7 10 8 11 16 12 9 13 20 14
REMARK SMILES IDX 15 15 11 16 10 17 17 18 19 19 14 20 12 21 18 22 13 23
REMARK H PARENT 6 9
ROOT
ATOM      1  C   UNL     1     138.410 116.762  40.769  1.00  0.00     0.169 C 
ENDROOT
BRANCH   1   2
ATOM      2  C   UNL     1     139.718 116.257  41.346  1.00  0.00     0.059 A 
ATOM      3  C   UNL     1     142.041 115.255  42.419  1.00  0.00     0.020 A 
ATOM      4  C   UNL     1     141.537 116.459  42.897  1.00  0.00     0.004 A 
ATOM      5  C   UNL     1     141.336 114.603  41.421  1.00  0.00     0.111 A 
ATOM      6  C   UNL     1     140.359 116.967  42.360  1.00  0.00     0.026 A 
ATOM      7  N   UNL     1     140.189 115.070  40.880  1.00  0.00    -0.259 NA
ENDBRANCH   1   2
BRANCH   1   8
ATOM      8  N   UNL     1     137.667 115.644  40.186  1.00  0.00    -0.379 N 
ATOM      9  H   UNL     1     137.598 115.703  39.173  1.00  0.00     0.161 HD
BRANCH   8  10
ATOM     10  C   UNL     1     136.493 115.262  40.859  1.00  0.00     0.049 A 
ATOM     11  C   UNL     1     135.468 116.206  41.070  1.00  0.00    -0.003 A 
ATOM     12  C   UNL     1     136.366 113.959  41.409  1.00  0.00     0.024 A 
ATOM     13  C   UNL     1     134.346 115.799  41.797  1.00  0.00     0.046 A 
ATOM     14  C   UNL     1     135.545 117.595  40.480  1.00  0.00     0.039 C 
ATOM     15  C   UNL     1     137.323 112.931  41.227  1.00  0.00     0.012 A 
ATOM     16  C   UNL     1     135.204 113.671  42.151  1.00  0.00     0.073 A 
ATOM     17  N   UNL     1     134.225 114.565  42.344  1.00  0.00    -0.252 NA
ATOM     18  C   UNL     1     133.204 116.737  42.086  1.00  0.00     0.056 C 
ATOM     19  C   UNL     1     134.526 118.578  41.055  1.00  0.00     0.005 C 
ATOM     20  C   UNL     1     137.152 111.668  41.789  1.00  0.00     0.001 A 
ATOM     21  C   UNL     1     135.055 112.406  42.706  1.00  0.00     0.029 A 
ATOM     22  C   UNL     1     133.152 117.932  41.141  1.00  0.00     0.007 C 
ATOM     23  C   UNL     1     136.014 111.406  42.537  1.00  0.00     0.002 A 
ENDBRANCH   8  10
ENDBRANCH   1   8
TORSDOF 3
ENDMDL
MODEL 5
REMARK VINA RESULT:    -8.905      0.293      3.910
REMARK INTER + INTRA:         -11.051
REMARK INTER:                 -10.527
REMARK INTRA:                  -0.524
REMARK UNBOUND:                -0.584
REMARK SMILES c1ccc(CNc2c3c(nc4ccccc24)CCCC3)nc1
REMARK SMILES IDX 5 1 4 2 1 3 2 4 22 5 3 6 21 7 6 8 7 10 8 11 16 12 9 13 20 14
REMARK SMILES IDX 15 15 11 16 10 17 17 18 19 19 14 20 12 21 18 22 13 23
REMARK H PARENT 6 9
ROOT
ATOM      1  C   UNL     1     135.111 113.849  39.162  1.00  0.00     0.169 C 
ENDROOT
BRANCH   1   2
ATOM      2  C   UNL     1     135.412 112.694  40.095  1.00  0.00     0.059 A 
ATOM      3  C   UNL     1     135.856 110.583  41.798  1.00  0.00     0.020 A 
ATOM      4  C   UNL     1     136.354 111.837  42.129  1.00  0.00     0.004 A 
ATOM      5  C   UNL     1     135.141 110.455  40.619  1.00  0.00     0.111 A 
ATOM      6  C   UNL     1     136.127 112.910  41.272  1.00  0.00     0.026 A 
ATOM      7  N   UNL     1     134.903 111.476  39.767  1.00  0.00    -0.259 NA
ENDBRANCH   1   2
BRANCH   1   8
ATOM      8  N   UNL     1     133.692 114.196  39.252  1.00  0.00    -0.379 N 
ATOM      9  H   UNL     1     133.261 114.335  38.341  1.00  0.00     0.161 HD
BRANCH   8  10
ATOM     10  C   UNL     1     133.345 115.132  40.242  1.00  0.00     0.049 A 
ATOM     11  C   UNL     1     132.633 114.713  41.384  1.00  0.00    -0.003 A 
ATOM     12  C   UNL     1     133.623 116.514  40.061  1.00  0.00     0.024 A 
ATOM     13  C   UNL     1     132.255 115.687  42.311  1.00  0.00     0.046 A 
ATOM     14  C   UNL     1     132.339 113.251  41.633  1.00  0.00     0.039 C 
ATOM     15  C   UNL     1     134.357 117.032  38.967  1.00  0.00     0.012 A 
ATOM     16  C   UNL     1     133.165 117.409  41.048  1.00  0.00     0.073 A 
ATOM     17  N   UNL     1     132.497 117.009  42.138  1.00  0.00    -0.252 NA
ATOM     18  C   UNL     1     131.482 115.340  43.557  1.00  0.00     0.056 C 
ATOM     19  C   UNL     1     131.305 112.998  42.729  1.00  0.00     0.005 C 
ATOM     20  C   UNL     1     134.602 118.397  38.836  1.00  0.00     0.001 A 
ATOM     21  C   UNL     1     133.417 118.766  40.895  1.00  0.00     0.029 A 
ATOM     22  C   UNL     1     131.589 113.870  43.943  1.00  0.00     0.007 C 
ATOM     23  C   UNL     1     134.125 119.270  39.802  1.00  0.00     0.002 A 
ENDBRANCH   8  10
ENDBRANCH   1   8
TORSDOF 3
ENDMDL
MODEL 6
REMARK VINA RESULT:    -8.903      4.225      7.583
REMARK INTER + INTRA:         -11.048
REMARK INTER:                 -10.724
REMARK INTRA:                  -0.325
REMARK UNBOUND:                -0.584
REMARK SMILES c1ccc(CNc2c3c(nc4ccccc24)CCCC3)nc1
REMARK SMILES IDX 5 1 4 2 1 3 2 4 22 5 3 6 21 7 6 8 7 10 8 11 16 12 9 13 20 14
REMARK SMILES IDX 15 15 11 16 10 17 17 18 19 19 14 20 12 21 18 22 13 23
REMARK H PARENT 6 9
ROOT
ATOM      1  C   UNL     1     136.385 115.479  40.941  1.00  0.00     0.169 C 
ENDROOT
BRANCH   1   2
ATOM      2  C   UNL     1     135.336 116.572  40.997  1.00  0.00     0.059 A 
ATOM      3  C   UNL     1     133.495 118.605  41.163  1.00  0.00     0.020 A 
ATOM      4  C   UNL     1     133.113 117.315  41.511  1.00  0.00     0.004 A 
ATOM      5  C   UNL     1     134.802 118.812  40.755  1.00  0.00     0.111 A 
ATOM      6  C   UNL     1     134.044 116.283  41.433  1.00  0.00     0.026 A 
ATOM      7  N   UNL     1     135.729 117.832  40.670  1.00  0.00    -0.259 NA
ENDBRANCH   1   2
BRANCH   1   8
ATOM      8  N   UNL     1     137.447 115.865  40.013  1.00  0.00    -0.379 N 
ATOM      9  H   UNL     1     137.103 116.049  39.073  1.00  0.00     0.161 HD
BRANCH   8  10
ATOM     10  C   UNL     1     138.640 115.125  40.093  1.00  0.00     0.049 A 
ATOM     11  C   UNL     1     138.791 113.953  39.325  1.00  0.00    -0.003 A 
ATOM     12  C   UNL     1     139.661 115.495  41.010  1.00  0.00     0.024 A 
ATOM     13  C   UNL     1     139.968 113.216  39.483  1.00  0.00     0.046 A 
ATOM     14  C   UNL     1     137.746 113.535  38.316  1.00  0.00     0.039 C 
ATOM     15  C   UNL     1     139.619 116.668  41.802  1.00  0.00     0.012 A 
ATOM     16  C   UNL     1     140.789 114.658  41.107  1.00  0.00     0.073 A 
ATOM     17  N   UNL     1     140.937 113.549  40.369  1.00  0.00    -0.252 NA
ATOM     18  C   UNL     1     140.217 111.944  38.716  1.00  0.00     0.056 C 
ATOM     19  C   UNL     1     137.905 112.104  37.806  1.00  0.00     0.005 C 
ATOM     20  C   UNL     1     140.647 116.985  42.688  1.00  0.00     0.001 A 
ATOM     21  C   UNL     1     141.801 114.991  41.998  1.00  0.00     0.029 A 
ATOM     22  C   UNL     1     139.359 111.818  37.463  1.00  0.00     0.007 C 
ATOM     23  C   UNL     1     141.741 116.140  42.791  1.00  0.00     0.002 A 
ENDBRANCH   8  10
ENDBRANCH   1   8
TORSDOF 3
ENDMDL
MODEL 7
REMARK VINA RESULT:    -8.819      3.775      5.524
REMARK INTER + INTRA:         -10.949
REMARK INTER:                 -10.500
REMARK INTRA:                  -0.449
REMARK UNBOUND:                -0.584
REMARK SMILES c1ccc(CNc2c3c(nc4ccccc24)CCCC3)nc1
REMARK SMILES IDX 5 1 4 2 1 3 2 4 22 5 3 6 21 7 6 8 7 10 8 11 16 12 9 13 20 14
REMARK SMILES IDX 15 15 11 16 10 17 17 18 19 19 14 20 12 21 18 22 13 23
REMARK H PARENT 6 9
ROOT
ATOM      1  C   UNL     1     138.927 112.340  40.297  1.00  0.00     0.169 C 
ENDROOT
BRANCH   1   2
ATOM      2  C   UNL     1     137.528 111.785  40.481  1.00  0.00     0.059 A 
ATOM      3  C   UNL     1     134.957 110.856  40.755  1.00  0.00     0.020 A 
ATOM      4  C   UNL     1     135.673 111.212  41.892  1.00  0.00     0.004 A 
ATOM      5  C   UNL     1     135.574 110.997  39.523  1.00  0.00     0.111 A 
ATOM      6  C   UNL     1     136.974 111.689  41.757  1.00  0.00     0.026 A 
ATOM      7  N   UNL     1     136.833 111.457  39.360  1.00  0.00    -0.259 NA
ENDBRANCH   1   2
BRANCH   1   8
ATOM      8  N   UNL     1     138.867 113.567  39.503  1.00  0.00    -0.379 N 
ATOM      9  H   UNL     1     139.570 113.596  38.768  1.00  0.00     0.161 HD
BRANCH   8  10
ATOM     10  C   UNL     1     138.684 114.762  40.221  1.00  0.00     0.049 A 
ATOM     11  C   UNL     1     137.502 115.509  40.046  1.00  0.00    -0.003 A 
ATOM     12  C   UNL     1     139.716 115.273  41.053  1.00  0.00     0.024 A 
ATOM     13  C   UNL     1     137.389 116.722  40.732  1.00  0.00     0.046 A 
ATOM     14  C   UNL     1     136.365 114.995  39.194  1.00  0.00     0.039 C 
ATOM     15  C   UNL     1     140.925 114.584  41.318  1.00  0.00     0.012 A 
ATOM     16  C   UNL     1     139.503 116.520  41.670  1.00  0.00     0.073 A 
ATOM     17  N   UNL     1     138.375 117.227  41.511  1.00  0.00    -0.252 NA
ATOM     18  C   UNL     1     136.170 117.598  40.602  1.00  0.00     0.056 C 
ATOM     19  C   UNL     1     135.308 116.045  38.856  1.00  0.00     0.005 C 
ATOM     20  C   UNL     1     141.907 115.130  42.142  1.00  0.00     0.001 A 
ATOM     21  C   UNL     1     140.497 117.047  42.485  1.00  0.00     0.029 A 
ATOM     22  C   UNL     1     134.943 116.851  40.093  1.00  0.00     0.007 C 
ATOM     23  C   UNL     1     141.694 116.370  42.724  1.00  0.00     0.002 A 
ENDBRANCH   8  10
ENDBRANCH   1   8
TORSDOF 3
ENDMDL
MODEL 8
REMARK VINA RESULT:    -8.538      4.170      6.863
REMARK INTER + INTRA:         -10.619
REMARK INTER:                 -10.057
REMARK INTRA:                  -0.563
REMARK UNBOUND:                -0.584
REMARK SMILES c1ccc(CNc2c3c(nc4ccccc24)CCCC3)nc1
REMARK SMILES IDX 5 1 4 2 1 3 2 4 22 5 3 6 21 7 6 8 7 10 8 11 16 12 9 13 20 14
REMARK SMILES IDX 15 15 11 16 10 17 17 18 19 19 14 20 12 21 18 22 13 23
REMARK H PARENT 6 9
ROOT
ATOM      1  C   UNL     1     136.508 115.210  41.485  1.00  0.00     0.169 C 
ENDROOT
BRANCH   1   2
ATOM      2  C   UNL     1     135.746 113.917  41.275  1.00  0.00     0.059 A 
ATOM      3  C   UNL     1     134.277 111.622  40.923  1.00  0.00     0.020 A 
ATOM      4  C   UNL     1     135.349 111.611  41.808  1.00  0.00     0.004 A 
ATOM      5  C   UNL     1     133.988 112.803  40.261  1.00  0.00     0.111 A 
ATOM      6  C   UNL     1     136.092 112.773  41.993  1.00  0.00     0.026 A 
ATOM      7  N   UNL     1     134.689 113.947  40.420  1.00  0.00    -0.259 NA
ENDBRANCH   1   2
BRANCH   1   8
ATOM      8  N   UNL     1     137.273 115.531  40.280  1.00  0.00    -0.379 N 
ATOM      9  H   UNL     1     136.706 115.506  39.435  1.00  0.00     0.161 HD
BRANCH   8  10
ATOM     10  C   UNL     1     138.547 114.945  40.179  1.00  0.00     0.049 A 
ATOM     11  C   UNL     1     138.752 113.861  39.302  1.00  0.00    -0.003 A 
ATOM     12  C   UNL     1     139.609 115.374  41.019  1.00  0.00     0.024 A 
ATOM     13  C   UNL     1     140.018 113.270  39.281  1.00  0.00     0.046 A 
ATOM     14  C   UNL     1     137.661 113.387  38.369  1.00  0.00     0.039 C 
ATOM     15  C   UNL     1     139.514 116.471  41.909  1.00  0.00     0.012 A 
ATOM     16  C   UNL     1     140.833 114.682  40.933  1.00  0.00     0.073 A 
ATOM     17  N   UNL     1     141.031 113.657  40.092  1.00  0.00    -0.252 NA
ATOM     18  C   UNL     1     140.333 112.098  38.387  1.00  0.00     0.056 C 
ATOM     19  C   UNL     1     137.933 112.029  37.725  1.00  0.00     0.005 C 
ATOM     20  C   UNL     1     140.587 116.851  42.713  1.00  0.00     0.001 A 
ATOM     21  C   UNL     1     141.888 115.076  41.746  1.00  0.00     0.029 A 
ATOM     22  C   UNL     1     139.365 111.956  37.218  1.00  0.00     0.007 C 
ATOM     23  C   UNL     1     141.778 116.146  42.635  1.00  0.00     0.002 A 
ENDBRANCH   8  10
ENDBRANCH   1   8
TORSDOF 3
ENDMDL
MODEL 9
REMARK VINA RESULT:    -8.499      2.892      4.450
REMARK INTER + INTRA:         -10.574
REMARK INTER:                 -10.117
REMARK INTRA:                  -0.457
REMARK UNBOUND:                -0.584
REMARK SMILES c1ccc(CNc2c3c(nc4ccccc24)CCCC3)nc1
REMARK SMILES IDX 5 1 4 2 1 3 2 4 22 5 3 6 21 7 6 8 7 10 8 11 16 12 9 13 20 14
REMARK SMILES IDX 15 15 11 16 10 17 17 18 19 19 14 20 12 21 18 22 13 23
REMARK H PARENT 6 9
ROOT
ATOM      1  C   UNL     1     135.424 113.144  40.066  1.00  0.00     0.169 C 
ENDROOT
BRANCH   1   2
ATOM      2  C   UNL     1     136.013 111.962  40.810  1.00  0.00     0.059 A 
ATOM      3  C   UNL     1     137.024 109.758  42.101  1.00  0.00     0.020 A 
ATOM      4  C   UNL     1     136.377 110.739  42.842  1.00  0.00     0.004 A 
ATOM      5  C   UNL     1     137.120 109.931  40.731  1.00  0.00     0.111 A 
ATOM      6  C   UNL     1     135.860 111.855  42.191  1.00  0.00     0.026 A 
ATOM      7  N   UNL     1     136.627 111.001  40.070  1.00  0.00    -0.259 NA
ENDBRANCH   1   2
BRANCH   1   8
ATOM      8  N   UNL     1     136.492 113.883  39.393  1.00  0.00    -0.379 N 
ATOM      9  H   UNL     1     137.253 113.283  39.084  1.00  0.00     0.161 HD
BRANCH   8  10
ATOM     10  C   UNL     1     136.875 115.098  39.988  1.00  0.00     0.049 A 
ATOM     11  C   UNL     1     136.094 116.254  39.784  1.00  0.00    -0.003 A 
ATOM     12  C   UNL     1     138.090 115.197  40.717  1.00  0.00     0.024 A 
ATOM     13  C   UNL     1     136.545 117.453  40.343  1.00  0.00     0.046 A 
ATOM     14  C   UNL     1     134.780 116.194  39.040  1.00  0.00     0.039 C 
ATOM     15  C   UNL     1     138.927 114.091  41.003  1.00  0.00     0.012 A 
ATOM     16  C   UNL     1     138.459 116.464  41.207  1.00  0.00     0.073 A 
ATOM     17  N   UNL     1     137.713 117.561  41.022  1.00  0.00    -0.252 NA
ATOM     18  C   UNL     1     135.788 118.744  40.171  1.00  0.00     0.056 C 
ATOM     19  C   UNL     1     134.224 117.559  38.638  1.00  0.00     0.005 C 
ATOM     20  C   UNL     1     140.111 114.241  41.722  1.00  0.00     0.001 A 
ATOM     21  C   UNL     1     139.645 116.592  41.919  1.00  0.00     0.029 A 
ATOM     22  C   UNL     1     134.325 118.538  39.797  1.00  0.00     0.007 C 
ATOM     23  C   UNL     1     140.475 115.499  42.178  1.00  0.00     0.002 A 
ENDBRANCH   8  10
ENDBRANCH   1   8
TORSDOF 3
ENDMDL
