MODEL 5
REMARK VINA RESULT:    -7.332      3.239      6.037
REMARK INTER + INTRA:         -11.580
REMARK INTER:                 -10.693
REMARK INTRA:                  -0.887
REMARK UNBOUND:                -1.034
REMARK SMILES COc1ncc(Nc2ncc([C@@H](C)N3CCN(S(C)(=O)=O)C[C@@H]3C)cc2-c2nc(C)nc(N)n2)cn1
REMARK SMILES IDX 8 1 9 2 10 3 11 4 25 5 26 6 7 7 6 9 3 10 36 11 4 12 35 13
REMARK SMILES IDX 5 14 2 15 1 16 27 17 34 18 28 19 32 20 29 21 31 22 30 23
REMARK SMILES IDX 33 24 12 27 13 28 14 29 23 30 15 31 22 32 16 33 17 34 24 35
REMARK SMILES IDX 18 36 20 37 21 38 19 39
REMARK H PARENT 7 8 33 25 33 26
ROOT
ATOM      1  C   UNL     1      34.381  47.161  41.441  1.00  0.00     0.141 A 
ATOM      2  N   UNL     1      35.123  47.268  42.575  1.00  0.00    -0.238 NA
ATOM      3  C   UNL     1      36.448  47.521  42.479  1.00  0.00     0.118 A 
ATOM      4  C   UNL     1      37.104  47.689  41.260  1.00  0.00    -0.012 A 
ATOM      5  C   UNL     1      36.334  47.570  40.098  1.00  0.00     0.022 A 
ATOM      6  C   UNL     1      34.957  47.299  40.154  1.00  0.00     0.062 A 
ENDROOT
BRANCH   1   7
ATOM      7  N   UNL     1      32.996  46.928  41.571  1.00  0.00    -0.337 N 
ATOM      8  H   UNL     1      32.523  46.945  40.679  1.00  0.00     0.168 HD
BRANCH   7   9
ATOM      9  C   UNL     1      32.131  46.643  42.642  1.00  0.00     0.077 A 
ATOM     10  C   UNL     1      30.381  45.960  44.616  1.00  0.00     0.316 A 
ATOM     11  N   UNL     1      31.260  46.959  44.884  1.00  0.00    -0.202 NA
ATOM     12  N   UNL     1      30.298  45.272  43.441  1.00  0.00    -0.202 NA
ATOM     13  C   UNL     1      32.125  47.288  43.889  1.00  0.00     0.144 A 
ATOM     14  C   UNL     1      31.179  45.630  42.473  1.00  0.00     0.144 A 
BRANCH  10  15
ATOM     15  O   UNL     1      29.523  45.658  45.657  1.00  0.00    -0.467 OA
ATOM     16  C   UNL     1      29.148  44.301  45.884  1.00  0.00     0.282 C 
ENDBRANCH  10  15
ENDBRANCH   7   9
ENDBRANCH   1   7
BRANCH   6  17
ATOM     17  C   UNL     1      34.190  47.179  38.872  1.00  0.00     0.168 A 
ATOM     18  N   UNL     1      34.830  46.669  37.780  1.00  0.00    -0.193 NA
ATOM     19  N   UNL     1      32.900  47.622  38.874  1.00  0.00    -0.213 NA
ATOM     20  C   UNL     1      34.084  46.609  36.647  1.00  0.00     0.223 A 
ATOM     21  C   UNL     1      32.259  47.510  37.681  1.00  0.00     0.131 A 
ATOM     22  N   UNL     1      32.793  47.012  36.533  1.00  0.00    -0.198 NA
ATOM     23  C   UNL     1      30.823  47.992  37.628  1.00  0.00     0.090 C 
BRANCH  20  24
ATOM     24  N   UNL     1      34.693  46.090  35.509  1.00  0.00    -0.368 N 
ATOM     25  H   UNL     1      35.225  45.235  35.580  1.00  0.00     0.159 HD
ATOM     26  H   UNL     1      34.610  46.588  34.636  1.00  0.00     0.159 HD
ENDBRANCH  20  24
ENDBRANCH   6  17
BRANCH   4  27
ATOM     27  C   UNL     1      38.615  47.970  41.217  1.00  0.00     0.085 C 
ATOM     28  C   UNL     1      39.249  47.713  39.831  1.00  0.00     0.030 C 
BRANCH  27  29
ATOM     29  N   UNL     1      39.024  49.285  41.766  1.00  0.00    -0.291 NA
ATOM     30  C   UNL     1      39.648  49.223  43.118  1.00  0.00     0.069 C 
ATOM     31  C   UNL     1      37.932  50.282  41.711  1.00  0.00     0.102 C 
ATOM     32  C   UNL     1      40.088  50.643  43.590  1.00  0.00     0.121 C 
ATOM     33  C   UNL     1      38.472  51.674  42.071  1.00  0.00     0.118 C 
ATOM     34  N   UNL     1      38.987  51.621  43.452  1.00  0.00    -0.199 NA
ATOM     35  C   UNL     1      40.863  48.281  43.265  1.00  0.00     0.026 C 
BRANCH  34  36
ATOM     36  S   UNL     1      39.236  53.181  44.251  1.00  0.00     0.211 S 
ATOM     37  O   UNL     1      38.257  54.128  43.704  1.00  0.00    -0.213 OA
ATOM     38  O   UNL     1      39.306  52.948  45.697  1.00  0.00    -0.213 OA
ATOM     39  C   UNL     1      40.951  53.706  43.666  1.00  0.00     0.176 C 
ENDBRANCH  34  36
ENDBRANCH  27  29
ENDBRANCH   4  27
TORSDOF 8
ENDMDL
