MODEL 5
REMARK VINA RESULT:    -8.442      2.802      5.268
REMARK INTER + INTRA:         -10.534
REMARK INTER:                  -9.774
REMARK INTRA:                  -0.761
REMARK UNBOUND:                -0.612
REMARK SMILES O=c1cc(-c2[nH]c(C3CCNCC3)nc2-c2ccc(F)cc2)cc[nH]1
REMARK SMILES IDX 5 1 6 2 7 3 14 4 15 5 4 7 1 8 2 9 3 10 25 11 24 12 23 13
REMARK SMILES IDX 16 15 17 16 22 17 18 18 21 19 19 20 20 21 8 22 9 23 13 24
REMARK SMILES IDX 10 25 12 26 11 27
REMARK H PARENT 6 6 25 14 11 28
ROOT
ATOM      1  C   UNL     1     -10.607  17.040  20.013  1.00  0.00     0.074 A 
ATOM      2  N   UNL     1     -11.134  18.298  20.184  1.00  0.00    -0.341 N 
ATOM      3  C   UNL     1     -12.504  18.201  20.216  1.00  0.00     0.110 A 
ATOM      4  N   UNL     1     -12.880  16.948  20.072  1.00  0.00    -0.232 NA
ATOM      5  C   UNL     1     -11.718  16.212  19.964  1.00  0.00     0.096 A 
ATOM      6  H   UNL     1     -10.630  19.178  20.232  1.00  0.00     0.168 HD
ENDROOT
BRANCH   1   7
ATOM      7  C   UNL     1      -9.200  16.892  19.862  1.00  0.00     0.007 A 
ATOM      8  O   UNL     1      -6.470  18.440  18.165  1.00  0.00    -0.270 OA
ATOM      9  C   UNL     1      -7.076  17.660  18.891  1.00  0.00     0.248 A 
ATOM     10  C   UNL     1      -8.545  17.765  19.072  1.00  0.00     0.082 A 
ATOM     11  N   UNL     1      -6.454  16.650  19.580  1.00  0.00    -0.329 N 
ATOM     12  C   UNL     1      -7.112  15.764  20.390  1.00  0.00     0.086 A 
ATOM     13  C   UNL     1      -8.438  15.855  20.547  1.00  0.00     0.028 A 
ATOM     14  H   UNL     1      -5.451  16.583  19.457  1.00  0.00     0.169 HD
ENDBRANCH   1   7
BRANCH   5  15
ATOM     15  C   UNL     1     -11.739  14.769  19.789  1.00  0.00     0.003 A 
ATOM     16  C   UNL     1     -12.800  14.030  20.335  1.00  0.00     0.013 A 
ATOM     17  C   UNL     1     -10.714  14.088  19.114  1.00  0.00     0.013 A 
ATOM     18  C   UNL     1     -12.851  12.642  20.189  1.00  0.00     0.040 A 
ATOM     19  C   UNL     1     -10.766  12.699  18.967  1.00  0.00     0.040 A 
ATOM     20  C   UNL     1     -11.834  11.990  19.502  1.00  0.00     0.123 A 
ATOM     21  F   UNL     1     -11.881  10.659  19.360  1.00  0.00    -0.207 F 
ENDBRANCH   5  15
BRANCH   3  22
ATOM     22  C   UNL     1     -13.400  19.399  20.382  1.00  0.00     0.058 C 
ATOM     23  C   UNL     1     -13.957  19.877  19.037  1.00  0.00     0.027 C 
ATOM     24  C   UNL     1     -12.695  20.550  21.124  1.00  0.00     0.027 C 
ATOM     25  C   UNL     1     -12.895  20.549  18.155  1.00  0.00     0.081 C 
ATOM     26  C   UNL     1     -12.191  21.651  20.184  1.00  0.00     0.081 C 
ATOM     27  N   UNL     1     -11.753  21.094  18.906  1.00  0.00    -0.317 NA
ATOM     28  H   UNL     1     -11.318  21.831  18.347  1.00  0.00     0.122 HD
ENDBRANCH   3  22
TORSDOF 3
ENDMDL
