REMARK SMILES COc1cc2/c(=N/c3ccc(Br)cc3F)nc[nH]c2cc1OCC1CCN(C)CC1
REMARK SMILES IDX 22 1 21 2 3 3 4 4 5 5 20 6 6 7 19 8 7 9 16 10 18 11 17 12
REMARK SMILES IDX 2 14 1 15 8 16 9 17 14 18 10 19 13 20 11 21 15 22 12 23
REMARK SMILES IDX 23 24 24 25 25 26 30 27 26 28 29 29 27 30 28 31
REMARK H PARENT 18 13
REMARK INDEX MAP 22 1 21 2 3 3 4 4 5 5 20 6 6 7 19 8 7 9 16 10 18 11 17 12
REMARK INDEX MAP 39 13 2 14 1 15 8 16 9 17 14 18 10 19 13 20 11 21 15 22 12 23
REMARK INDEX MAP 23 24 24 25 25 26 30 27 26 28 29 29 27 30 28 31
ROOT
ATOM      1  O   UNL     1      16.076  32.179  10.844  1.00  0.00    -0.489 OA
ENDROOT
BRANCH   1   2
ATOM      2  C   UNL     1      16.424  32.751  12.042  1.00  0.00     0.163 A 
ATOM      3  C   UNL     1      17.751  32.743  12.504  1.00  0.00     0.161 A 
ATOM      4  C   UNL     1      18.041  33.368  13.718  1.00  0.00     0.064 A 
ATOM      5  C   UNL     1      17.017  33.999  14.438  1.00  0.00     0.047 A 
ATOM      6  C   UNL     1      15.409  33.402  12.750  1.00  0.00     0.077 A 
ATOM      7  C   UNL     1      17.285  34.678  15.742  1.00  0.00     0.163 A 
ATOM      8  C   UNL     1      15.699  34.021  13.962  1.00  0.00     0.054 A 
ATOM      9  N   UNL     1      18.503  34.732  16.186  1.00  0.00    -0.225 NA
ATOM     10  N   UNL     1      16.244  35.247  16.448  1.00  0.00    -0.219 NA
ATOM     11  N   UNL     1      14.717  34.653  14.723  1.00  0.00    -0.346 N 
ATOM     12  C   UNL     1      15.071  35.205  15.917  1.00  0.00     0.199 A 
ATOM     13  H   UNL     1      13.744  34.702  14.389  1.00  0.00     0.167 HD
BRANCH   3  14
ATOM     14  O   UNL     1      18.668  32.108  11.710  1.00  0.00    -0.493 OA
ATOM     15  C   UNL     1      19.987  31.982  12.219  1.00  0.00     0.278 C 
ENDBRANCH   3  14
BRANCH   9  16
ATOM     16  C   UNL     1      18.737  35.340  17.431  1.00  0.00     0.101 A 
ATOM     17  C   UNL     1      18.424  34.654  18.608  1.00  0.00     0.033 A 
ATOM     18  C   UNL     1      19.232  36.647  17.526  1.00  0.00     0.150 A 
ATOM     19  C   UNL     1      18.625  35.255  19.854  1.00  0.00     0.018 A 
ATOM     20  C   UNL     1      19.435  37.257  18.761  1.00  0.00     0.057 A 
ATOM     21  C   UNL     1      19.131  36.553  19.922  1.00  0.00     0.021 A 
ATOM     22  F   UNL     1      19.513  37.345  16.417  1.00  0.00    -0.205 F 
ATOM     23  Br  UNL     1      19.399  37.367  21.606  1.00  0.00    -0.051 Br
ENDBRANCH   9  16
ENDBRANCH   1   2
BRANCH   1  24
ATOM     24  C   UNL     1      16.453  33.023   9.750  1.00  0.00     0.233 C 
BRANCH  24  25
ATOM     25  C   UNL     1      16.538  32.169   8.482  1.00  0.00     0.029 C 
ATOM     26  C   UNL     1      17.892  31.463   8.392  1.00  0.00     0.022 C 
ATOM     27  C   UNL     1      15.405  31.133   8.420  1.00  0.00     0.022 C 
ATOM     28  C   UNL     1      17.958  30.528   7.183  1.00  0.00     0.084 C 
ATOM     29  C   UNL     1      15.559  30.220   7.205  1.00  0.00     0.084 C 
ATOM     30  N   UNL     1      16.865  29.548   7.219  1.00  0.00    -0.306 NA
ATOM     31  C   UNL     1      16.972  28.623   6.091  1.00  0.00     0.105 C 
ENDBRANCH  24  25
ENDBRANCH   1  24
TORSDOF 5
