REMARK SMILES COc1cc2/c(=N/c3ccc(Br)cc3F)nc[nH]c2cc1OCC1CCN(C)CC1
REMARK SMILES IDX 22 1 21 2 3 3 4 4 5 5 20 6 6 7 19 8 7 9 16 10 18 11 17 12
REMARK SMILES IDX 2 14 1 15 8 16 9 17 14 18 10 19 13 20 11 21 15 22 12 23
REMARK SMILES IDX 23 24 24 25 25 26 30 27 26 28 29 29 27 30 28 31
REMARK H PARENT 18 13
REMARK INDEX MAP 22 1 21 2 3 3 4 4 5 5 20 6 6 7 19 8 7 9 16 10 18 11 17 12
REMARK INDEX MAP 39 13 2 14 1 15 8 16 9 17 14 18 10 19 13 20 11 21 15 22 12 23
REMARK INDEX MAP 23 24 24 25 25 26 30 27 26 28 29 29 27 30 28 31
ROOT
ATOM      1  O   UNL     1      18.328  34.740  19.465  1.00  0.00    -0.489 OA
ENDROOT
BRANCH   1   2
ATOM      2  C   UNL     1      18.122  34.551  18.121  1.00  0.00     0.163 A 
ATOM      3  C   UNL     1      19.183  34.249  17.250  1.00  0.00     0.161 A 
ATOM      4  C   UNL     1      18.900  34.041  15.899  1.00  0.00     0.064 A 
ATOM      5  C   UNL     1      17.576  34.123  15.444  1.00  0.00     0.047 A 
ATOM      6  C   UNL     1      16.800  34.609  17.670  1.00  0.00     0.077 A 
ATOM      7  C   UNL     1      17.231  33.909  14.006  1.00  0.00     0.163 A 
ATOM      8  C   UNL     1      16.521  34.406  16.322  1.00  0.00     0.054 A 
ATOM      9  N   UNL     1      18.172  33.585  13.173  1.00  0.00    -0.225 NA
ATOM     10  N   UNL     1      15.924  34.045  13.584  1.00  0.00    -0.219 NA
ATOM     11  N   UNL     1      15.225  34.486  15.815  1.00  0.00    -0.346 N 
ATOM     12  C   UNL     1      15.035  34.312  14.477  1.00  0.00     0.199 A 
ATOM     13  H   UNL     1      14.427  34.673  16.439  1.00  0.00     0.167 HD
BRANCH   3  14
ATOM     14  O   UNL     1      20.430  34.182  17.809  1.00  0.00    -0.493 OA
ATOM     15  C   UNL     1      21.461  33.605  17.022  1.00  0.00     0.278 C 
ENDBRANCH   3  14
BRANCH   9  16
ATOM     16  C   UNL     1      17.842  33.424  11.817  1.00  0.00     0.101 A 
ATOM     17  C   UNL     1      16.947  34.311  11.210  1.00  0.00     0.033 A 
ATOM     18  C   UNL     1      18.349  32.359  11.061  1.00  0.00     0.150 A 
ATOM     19  C   UNL     1      16.587  34.148   9.869  1.00  0.00     0.018 A 
ATOM     20  C   UNL     1      17.996  32.185   9.726  1.00  0.00     0.057 A 
ATOM     21  C   UNL     1      17.115  33.086   9.135  1.00  0.00     0.021 A 
ATOM     22  F   UNL     1      19.184  31.472  11.620  1.00  0.00    -0.205 F 
ATOM     23  Br  UNL     1      16.626  32.865   7.324  1.00  0.00    -0.051 Br
ENDBRANCH   9  16
ENDBRANCH   1   2
BRANCH   1  24
ATOM     24  C   UNL     1      18.238  36.129  19.801  1.00  0.00     0.233 C 
BRANCH  24  25
ATOM     25  C   UNL     1      19.608  36.600  20.297  1.00  0.00     0.029 C 
ATOM     26  C   UNL     1      20.386  37.289  19.174  1.00  0.00     0.022 C 
ATOM     27  C   UNL     1      19.481  37.548  21.499  1.00  0.00     0.022 C 
ATOM     28  C   UNL     1      21.716  37.854  19.676  1.00  0.00     0.084 C 
ATOM     29  C   UNL     1      20.845  38.091  21.920  1.00  0.00     0.084 C 
ATOM     30  N   UNL     1      21.503  38.776  20.799  1.00  0.00    -0.306 NA
ATOM     31  C   UNL     1      22.774  39.355  21.233  1.00  0.00     0.105 C 
ENDBRANCH  24  25
ENDBRANCH   1  24
TORSDOF 5
