MODEL 9
REMARK minimizedAffinity -10.6759834
REMARK CNNscore 0.211662486
REMARK CNNaffinity 6.19509125
REMARK SMILES c1ccc(C(c2ccccc2)c2nnc(Cc3nc4ccccc4[nH]3)o2)cc1
REMARK SMILES IDX 12 1 13 2 14 3 15 4 26 5 5 6 4 7 1 8 2 9 28 10 3 11 27 12
REMARK SMILES IDX 6 13 7 14 11 15 8 16 10 17 9 18 16 19 17 20 18 21 25 22
REMARK SMILES IDX 19 23 24 24 20 25 23 26 21 27 22 28
REMARK H PARENT 25 29
ROOT
ATOM      1  C   UNL     1      10.155   1.793  30.137  1.00  0.00     0.228 A 
ATOM      2  N   UNL     1      11.170   1.219  30.757  1.00  0.00    -0.112 NA
ATOM      3  N   UNL     1      12.315   1.629  30.110  1.00  0.00    -0.112 NA
ATOM      4  C   UNL     1      11.924   2.429  29.138  1.00  0.00     0.224 A 
ATOM      5  O   UNL     1      10.564   2.580  29.086  1.00  0.00    -0.424 OA
ENDROOT
BRANCH   1   6
ATOM      6  C   UNL     1       8.676   1.719  30.402  1.00  0.00     0.138 C 
BRANCH   6   7
ATOM      7  C   UNL     1       8.078   2.991  31.011  1.00  0.00    -0.031 A 
ATOM      8  C   UNL     1       6.896   5.316  32.074  1.00  0.00     0.000 A 
ATOM      9  C   UNL     1       6.511   4.851  30.820  1.00  0.00     0.000 A 
ATOM     10  C   UNL     1       7.859   4.625  32.806  1.00  0.00     0.000 A 
ATOM     11  C   UNL     1       7.094   3.697  30.294  1.00  0.00     0.005 A 
ATOM     12  C   UNL     1       8.442   3.469  32.282  1.00  0.00     0.005 A 
ENDBRANCH   6   7
BRANCH   6  13
ATOM     13  C   UNL     1       8.274   0.457  31.165  1.00  0.00    -0.031 A 
ATOM     14  C   UNL     1       7.437   0.512  32.292  1.00  0.00     0.005 A 
ATOM     15  C   UNL     1       8.739  -0.799  30.739  1.00  0.00     0.005 A 
ATOM     16  C   UNL     1       7.079  -0.653  32.973  1.00  0.00     0.000 A 
ATOM     17  C   UNL     1       8.378  -1.963  31.422  1.00  0.00     0.000 A 
ATOM     18  C   UNL     1       7.549  -1.890  32.538  1.00  0.00     0.000 A 
ENDBRANCH   6  13
ENDBRANCH   1   6
BRANCH   4  19
ATOM     19  C   UNL     1      12.745   3.157  28.141  1.00  0.00     0.174 C 
BRANCH  19  20
ATOM     20  C   UNL     1      13.942   2.384  27.691  1.00  0.00     0.116 A 
ATOM     21  N   UNL     1      14.928   2.838  26.942  1.00  0.00    -0.233 NA
ATOM     22  N   UNL     1      14.135   1.053  27.993  1.00  0.00    -0.342 N 
ATOM     23  C   UNL     1      15.784   1.778  26.767  1.00  0.00     0.089 A 
ATOM     24  C   UNL     1      15.309   0.645  27.418  1.00  0.00     0.065 A 
ATOM     25  C   UNL     1      16.994   1.707  26.062  1.00  0.00     0.030 A 
ATOM     26  C   UNL     1      15.980  -0.580  27.414  1.00  0.00     0.028 A 
ATOM     27  C   UNL     1      17.688   0.490  26.039  1.00  0.00     0.002 A 
ATOM     28  C   UNL     1      17.186  -0.632  26.704  1.00  0.00     0.002 A 
ATOM     29  H   UNL     1      13.523   0.485  28.566  1.00  0.00     0.168 HD
ENDBRANCH  19  20
ENDBRANCH   4  19
TORSDOF 5
ENDMDL
