MODEL 5
REMARK VINA RESULT:    -6.918     14.788     17.968
REMARK INTER + INTRA:         -17.544
REMARK INTER:                 -14.086
REMARK INTRA:                  -3.458
REMARK UNBOUND:                -6.784
REMARK SMILES O=C(O)c1ccccc1-c1cccc2c1c(-c1cccc(C(F)(F)F)c1)cn2CCCOc1cccc2ccccc12
REMARK SMILES IDX 10 1 11 2 12 3 13 4 14 5 15 6 16 7 27 8 28 9 9 10 4 11 5 12
REMARK SMILES IDX 6 13 8 14 7 15 2 16 1 17 3 18 17 20 18 21 26 22 19 23 21 24
REMARK SMILES IDX 20 25 22 26 23 27 24 28 25 29 29 30 30 31 31 32 32 33 33 34
REMARK SMILES IDX 34 35 42 36 35 37 41 38 37 39 36 40 40 41 38 42 39 43
REMARK H PARENT 3 19
ROOT
ATOM      1  C   UNL     1      25.172  15.770 -42.771  1.00  0.00    -0.007 A 
ATOM      2  C   UNL     1      24.501  16.040 -43.981  1.00  0.00     0.009 A 
ATOM      3  C   UNL     1      24.959  15.531 -45.190  1.00  0.00     0.003 A 
ATOM      4  C   UNL     1      26.096  14.727 -45.239  1.00  0.00     0.027 A 
ATOM      5  C   UNL     1      26.772  14.450 -44.037  1.00  0.00     0.049 A 
ATOM      6  C   UNL     1      26.344  14.960 -42.801  1.00  0.00     0.015 A 
ATOM      7  C   UNL     1      27.282  14.488 -41.821  1.00  0.00     0.008 A 
ATOM      8  C   UNL     1      28.216  13.710 -42.469  1.00  0.00     0.095 A 
ATOM      9  N   UNL     1      27.906  13.700 -43.801  1.00  0.00    -0.347 N 
ENDROOT
BRANCH   1  10
ATOM     10  C   UNL     1      24.641  16.283 -41.502  1.00  0.00    -0.003 A 
ATOM     11  C   UNL     1      23.658  15.615 -40.744  1.00  0.00     0.067 A 
ATOM     12  C   UNL     1      23.224  16.143 -39.515  1.00  0.00     0.016 A 
ATOM     13  C   UNL     1      23.762  17.333 -39.027  1.00  0.00     0.001 A 
ATOM     14  C   UNL     1      25.173  17.480 -40.981  1.00  0.00     0.009 A 
ATOM     15  C   UNL     1      24.736  18.002 -39.762  1.00  0.00     0.001 A 
BRANCH  11  16
ATOM     16  C   UNL     1      23.012  14.376 -41.239  1.00  0.00     0.336 C 
ATOM     17  O   UNL     1      21.975  14.277 -41.861  1.00  0.00    -0.246 OA
BRANCH  16  18
ATOM     18  O   UNL     1      23.736  13.286 -40.910  1.00  0.00    -0.478 OA
ATOM     19  H   UNL     1      23.437  13.083 -40.000  1.00  0.00     0.297 HD
ENDBRANCH  16  18
ENDBRANCH  11  16
ENDBRANCH   1  10
BRANCH   7  20
ATOM     20  C   UNL     1      27.365  14.747 -40.397  1.00  0.00    -0.016 A 
ATOM     21  C   UNL     1      26.645  13.962 -39.492  1.00  0.00     0.009 A 
ATOM     22  C   UNL     1      28.162  15.795 -39.926  1.00  0.00     0.021 A 
ATOM     23  C   UNL     1      26.706  14.235 -38.125  1.00  0.00     0.001 A 
ATOM     24  C   UNL     1      28.215  16.092 -38.555  1.00  0.00     0.056 A 
ATOM     25  C   UNL     1      27.485  15.296 -37.659  1.00  0.00     0.013 A 
BRANCH  24  26
ATOM     26  C   UNL     1      29.056  17.244 -38.068  1.00  0.00     0.416 C 
ATOM     27  F   UNL     1      30.050  17.582 -38.937  1.00  0.00    -0.166 F 
ATOM     28  F   UNL     1      29.667  16.980 -36.881  1.00  0.00    -0.166 F 
ATOM     29  F   UNL     1      28.341  18.389 -37.870  1.00  0.00    -0.166 F 
ENDBRANCH  24  26
ENDBRANCH   7  20
BRANCH   9  30
ATOM     30  C   UNL     1      28.678  12.991 -44.809  1.00  0.00     0.125 C 
BRANCH  30  31
ATOM     31  C   UNL     1      30.114  12.745 -44.366  1.00  0.00     0.063 C 
BRANCH  31  32
ATOM     32  C   UNL     1      30.319  11.295 -43.941  1.00  0.00     0.231 C 
BRANCH  32  33
ATOM     33  O   UNL     1      31.692  10.973 -44.147  1.00  0.00    -0.493 OA
BRANCH  33  34
ATOM     34  C   UNL     1      32.004   9.696 -44.550  1.00  0.00     0.127 A 
ATOM     35  C   UNL     1      31.666   8.544 -43.832  1.00  0.00     0.047 A 
ATOM     36  C   UNL     1      32.711   9.586 -45.776  1.00  0.00     0.024 A 
ATOM     37  C   UNL     1      32.023   7.285 -44.312  1.00  0.00     0.004 A 
ATOM     38  C   UNL     1      33.081  10.707 -46.552  1.00  0.00     0.012 A 
ATOM     39  C   UNL     1      33.068   8.302 -46.255  1.00  0.00    -0.015 A 
ATOM     40  C   UNL     1      32.717   7.164 -45.513  1.00  0.00     0.009 A 
ATOM     41  C   UNL     1      33.779  10.567 -47.753  1.00  0.00     0.001 A 
ATOM     42  C   UNL     1      33.770   8.176 -47.465  1.00  0.00     0.009 A 
ATOM     43  C   UNL     1      34.123   9.300 -48.210  1.00  0.00     0.001 A 
ENDBRANCH  33  34
ENDBRANCH  32  33
ENDBRANCH  31  32
ENDBRANCH  30  31
ENDBRANCH   9  30
TORSDOF 10
ENDMDL
