MODEL 1
REMARK VINA RESULT:    -8.660      0.000      0.000
REMARK INTER + INTRA:         -12.444
REMARK INTER:                 -11.697
REMARK INTRA:                  -0.747
REMARK UNBOUND:                -0.747
REMARK SMILES COCCNC(=O)c1nc2cnc3[nH]ccc3c2n1[C@H]1CC[C@H](CC#N)CC1
REMARK SMILES IDX 5 1 6 2 7 3 4 5 3 6 2 7 1 8 8 9 9 10 19 11 10 12 18 13 11 14
REMARK SMILES IDX 17 15 12 16 16 17 13 18 15 19 14 20 20 22 28 23 21 24 27 25
REMARK SMILES IDX 22 26 23 27 24 28 25 29 26 30
REMARK H PARENT 5 4 14 21
ROOT
ATOM      1  N   UNL     1      -8.929  17.331  20.469  1.00  0.00    -0.347 N 
ATOM      2  C   UNL     1      -9.909  17.136  19.522  1.00  0.00     0.287 C 
ATOM      3  O   UNL     1     -10.118  17.952  18.628  1.00  0.00    -0.266 OA
ATOM      4  H   UNL     1      -8.851  16.617  21.187  1.00  0.00     0.164 HD
ENDROOT
BRANCH   1   5
ATOM      5  C   UNL     1      -8.112  18.525  20.529  1.00  0.00     0.144 C 
BRANCH   5   6
ATOM      6  C   UNL     1      -6.685  18.275  20.027  1.00  0.00     0.181 C 
BRANCH   6   7
ATOM      7  O   UNL     1      -6.455  18.843  18.732  1.00  0.00    -0.383 OA
ATOM      8  C   UNL     1      -6.329  17.869  17.705  1.00  0.00     0.194 C 
ENDBRANCH   6   7
ENDBRANCH   5   6
ENDBRANCH   1   5
BRANCH   2   9
ATOM      9  C   UNL     1     -10.628  15.878  19.703  1.00  0.00     0.200 A 
ATOM     10  N   UNL     1      -9.978  14.715  19.647  1.00  0.00    -0.222 NA
ATOM     11  N   UNL     1     -11.988  15.672  19.941  1.00  0.00    -0.316 N 
ATOM     12  C   UNL     1     -10.940  13.745  19.700  1.00  0.00     0.108 A 
ATOM     13  C   UNL     1     -12.181  14.336  19.820  1.00  0.00     0.082 A 
ATOM     14  C   UNL     1     -10.859  12.342  19.634  1.00  0.00     0.144 A 
ATOM     15  C   UNL     1     -13.297  13.552  19.811  1.00  0.00     0.045 A 
ATOM     16  N   UNL     1     -11.964  11.535  19.664  1.00  0.00    -0.236 NA
ATOM     17  C   UNL     1     -14.677  13.867  19.809  1.00  0.00     0.032 A 
ATOM     18  C   UNL     1     -13.137  12.186  19.736  1.00  0.00     0.139 A 
ATOM     19  C   UNL     1     -15.332  12.647  19.773  1.00  0.00     0.085 A 
ATOM     20  N   UNL     1     -14.390  11.639  19.738  1.00  0.00    -0.346 N 
ATOM     21  H   UNL     1     -14.571  10.647  19.691  1.00  0.00     0.167 HD
BRANCH  11  22
ATOM     22  C   UNL     1     -12.964  16.672  20.361  1.00  0.00     0.089 C 
ATOM     23  C   UNL     1     -13.981  17.074  19.277  1.00  0.00     0.026 C 
ATOM     24  C   UNL     1     -13.609  16.346  21.713  1.00  0.00     0.026 C 
ATOM     25  C   UNL     1     -14.931  18.164  19.775  1.00  0.00     0.007 C 
ATOM     26  C   UNL     1     -14.573  17.442  22.164  1.00  0.00     0.007 C 
ATOM     27  C   UNL     1     -15.626  17.764  21.087  1.00  0.00     0.003 C 
BRANCH  27  28
ATOM     28  C   UNL     1     -16.580  18.886  21.535  1.00  0.00     0.123 C 
ATOM     29  C   UNL     1     -17.992  18.481  21.466  1.00  0.00     0.062 C 
ATOM     30  N   UNL     1     -19.107  18.165  21.418  1.00  0.00    -0.198 NA
ENDBRANCH  27  28
ENDBRANCH  11  22
ENDBRANCH   2   9
TORSDOF 6
ENDMDL
MODEL 2
REMARK VINA RESULT:    -8.551      1.740      2.350
REMARK INTER + INTRA:         -12.297
REMARK INTER:                 -11.514
REMARK INTRA:                  -0.783
REMARK UNBOUND:                -0.747
REMARK SMILES COCCNC(=O)c1nc2cnc3[nH]ccc3c2n1[C@H]1CC[C@H](CC#N)CC1
REMARK SMILES IDX 5 1 6 2 7 3 4 5 3 6 2 7 1 8 8 9 9 10 19 11 10 12 18 13 11 14
REMARK SMILES IDX 17 15 12 16 16 17 13 18 15 19 14 20 20 22 28 23 21 24 27 25
REMARK SMILES IDX 22 26 23 27 24 28 25 29 26 30
REMARK H PARENT 5 4 14 21
ROOT
ATOM      1  N   UNL     1     -10.925  18.798  20.397  1.00  0.00    -0.347 N 
ATOM      2  C   UNL     1     -10.785  17.969  19.307  1.00  0.00     0.287 C 
ATOM      3  O   UNL     1     -10.258  18.351  18.265  1.00  0.00    -0.266 OA
ATOM      4  H   UNL     1     -11.401  18.403  21.202  1.00  0.00     0.164 HD
ENDROOT
BRANCH   1   5
ATOM      5  C   UNL     1     -10.523  20.189  20.391  1.00  0.00     0.144 C 
BRANCH   5   6
ATOM      6  C   UNL     1     -11.694  21.128  20.077  1.00  0.00     0.181 C 
BRANCH   6   7
ATOM      7  O   UNL     1     -11.911  21.277  18.669  1.00  0.00    -0.383 OA
ATOM      8  C   UNL     1     -13.136  20.711  18.226  1.00  0.00     0.194 C 
ENDBRANCH   6   7
ENDBRANCH   5   6
ENDBRANCH   1   5
BRANCH   2   9
ATOM      9  C   UNL     1     -11.312  16.628  19.545  1.00  0.00     0.200 A 
ATOM     10  N   UNL     1     -10.496  15.573  19.546  1.00  0.00    -0.222 NA
ATOM     11  N   UNL     1     -12.628  16.233  19.787  1.00  0.00    -0.316 N 
ATOM     12  C   UNL     1     -11.304  14.475  19.642  1.00  0.00     0.108 A 
ATOM     13  C   UNL     1     -12.620  14.879  19.729  1.00  0.00     0.082 A 
ATOM     14  C   UNL     1     -11.016  13.097  19.643  1.00  0.00     0.144 A 
ATOM     15  C   UNL     1     -13.607  13.938  19.752  1.00  0.00     0.045 A 
ATOM     16  N   UNL     1     -11.989  12.137  19.706  1.00  0.00    -0.236 NA
ATOM     17  C   UNL     1     -15.019  14.045  19.730  1.00  0.00     0.032 A 
ATOM     18  C   UNL     1     -13.246  12.610  19.743  1.00  0.00     0.139 A 
ATOM     19  C   UNL     1     -15.485  12.740  19.750  1.00  0.00     0.085 A 
ATOM     20  N   UNL     1     -14.403  11.883  19.766  1.00  0.00    -0.346 N 
ATOM     21  H   UNL     1     -14.435  10.874  19.765  1.00  0.00     0.167 HD
BRANCH  11  22
ATOM     22  C   UNL     1     -13.747  17.096  20.156  1.00  0.00     0.089 C 
ATOM     23  C   UNL     1     -14.860  17.194  19.096  1.00  0.00     0.026 C 
ATOM     24  C   UNL     1     -14.271  16.822  21.570  1.00  0.00     0.026 C 
ATOM     25  C   UNL     1     -15.965  18.157  19.531  1.00  0.00     0.007 C 
ATOM     26  C   UNL     1     -15.394  17.784  21.958  1.00  0.00     0.007 C 
ATOM     27  C   UNL     1     -16.528  17.798  20.916  1.00  0.00     0.003 C 
BRANCH  27  28
ATOM     28  C   UNL     1     -17.644  18.786  21.298  1.00  0.00     0.123 C 
ATOM     29  C   UNL     1     -18.826  18.109  21.853  1.00  0.00     0.062 C 
ATOM     30  N   UNL     1     -19.758  17.580  22.296  1.00  0.00    -0.198 NA
ENDBRANCH  27  28
ENDBRANCH  11  22
ENDBRANCH   2   9
TORSDOF 6
ENDMDL
MODEL 3
REMARK VINA RESULT:    -8.378      2.546      4.092
REMARK INTER + INTRA:         -12.064
REMARK INTER:                 -10.898
REMARK INTRA:                  -1.165
REMARK UNBOUND:                -0.747
REMARK SMILES COCCNC(=O)c1nc2cnc3[nH]ccc3c2n1[C@H]1CC[C@H](CC#N)CC1
REMARK SMILES IDX 5 1 6 2 7 3 4 5 3 6 2 7 1 8 8 9 9 10 19 11 10 12 18 13 11 14
REMARK SMILES IDX 17 15 12 16 16 17 13 18 15 19 14 20 20 22 28 23 21 24 27 25
REMARK SMILES IDX 22 26 23 27 24 28 25 29 26 30
REMARK H PARENT 5 4 14 21
ROOT
ATOM      1  N   UNL     1     -13.248  19.216  18.630  1.00  0.00    -0.347 N 
ATOM      2  C   UNL     1     -12.643  18.830  19.805  1.00  0.00     0.287 C 
ATOM      3  O   UNL     1     -12.290  19.648  20.651  1.00  0.00    -0.266 OA
ATOM      4  H   UNL     1     -13.475  18.471  17.977  1.00  0.00     0.164 HD
ENDROOT
BRANCH   1   5
ATOM      5  C   UNL     1     -13.465  20.601  18.268  1.00  0.00     0.144 C 
BRANCH   5   6
ATOM      6  C   UNL     1     -14.741  21.170  18.899  1.00  0.00     0.181 C 
BRANCH   6   7
ATOM      7  O   UNL     1     -15.898  20.382  18.597  1.00  0.00    -0.383 OA
ATOM      8  C   UNL     1     -17.121  21.055  18.858  1.00  0.00     0.194 C 
ENDBRANCH   6   7
ENDBRANCH   5   6
ENDBRANCH   1   5
BRANCH   2   9
ATOM      9  C   UNL     1     -12.492  17.382  19.914  1.00  0.00     0.200 A 
ATOM     10  N   UNL     1     -11.293  16.816  19.768  1.00  0.00    -0.222 NA
ATOM     11  N   UNL     1     -13.467  16.414  20.161  1.00  0.00    -0.316 N 
ATOM     12  C   UNL     1     -11.513  15.467  19.773  1.00  0.00     0.108 A 
ATOM     13  C   UNL     1     -12.858  15.221  19.954  1.00  0.00     0.082 A 
ATOM     14  C   UNL     1     -10.639  14.375  19.611  1.00  0.00     0.144 A 
ATOM     15  C   UNL     1     -13.314  13.937  19.911  1.00  0.00     0.045 A 
ATOM     16  N   UNL     1     -11.071  13.076  19.606  1.00  0.00    -0.236 NA
ATOM     17  C   UNL     1     -14.620  13.392  19.955  1.00  0.00     0.032 A 
ATOM     18  C   UNL     1     -12.399  12.922  19.742  1.00  0.00     0.139 A 
ATOM     19  C   UNL     1     -14.450  12.022  19.849  1.00  0.00     0.085 A 
ATOM     20  N   UNL     1     -13.102  11.750  19.729  1.00  0.00    -0.346 N 
ATOM     21  H   UNL     1     -12.678  10.841  19.619  1.00  0.00     0.167 HD
BRANCH  11  22
ATOM     22  C   UNL     1     -14.818  16.643  20.665  1.00  0.00     0.089 C 
ATOM     23  C   UNL     1     -14.903  17.602  21.866  1.00  0.00     0.026 C 
ATOM     24  C   UNL     1     -15.823  16.964  19.553  1.00  0.00     0.026 C 
ATOM     25  C   UNL     1     -16.339  17.745  22.369  1.00  0.00     0.007 C 
ATOM     26  C   UNL     1     -17.241  17.129  20.097  1.00  0.00     0.007 C 
ATOM     27  C   UNL     1     -17.304  18.155  21.244  1.00  0.00     0.003 C 
BRANCH  27  28
ATOM     28  C   UNL     1     -18.730  18.299  21.806  1.00  0.00     0.123 C 
ATOM     29  C   UNL     1     -19.654  18.907  20.837  1.00  0.00     0.062 C 
ATOM     30  N   UNL     1     -20.389  19.382  20.075  1.00  0.00    -0.198 NA
ENDBRANCH  27  28
ENDBRANCH  11  22
ENDBRANCH   2   9
TORSDOF 6
ENDMDL
MODEL 4
REMARK VINA RESULT:    -8.243      3.493      8.139
REMARK INTER + INTRA:         -11.882
REMARK INTER:                 -11.458
REMARK INTRA:                  -0.424
REMARK UNBOUND:                -0.747
REMARK SMILES COCCNC(=O)c1nc2cnc3[nH]ccc3c2n1[C@H]1CC[C@H](CC#N)CC1
REMARK SMILES IDX 5 1 6 2 7 3 4 5 3 6 2 7 1 8 8 9 9 10 19 11 10 12 18 13 11 14
REMARK SMILES IDX 17 15 12 16 16 17 13 18 15 19 14 20 20 22 28 23 21 24 27 25
REMARK SMILES IDX 22 26 23 27 24 28 25 29 26 30
REMARK H PARENT 5 4 14 21
ROOT
ATOM      1  N   UNL     1     -17.705  18.323  21.224  1.00  0.00    -0.347 N 
ATOM      2  C   UNL     1     -16.767  18.214  22.226  1.00  0.00     0.287 C 
ATOM      3  O   UNL     1     -17.068  17.833  23.355  1.00  0.00    -0.266 OA
ATOM      4  H   UNL     1     -17.368  18.676  20.332  1.00  0.00     0.164 HD
ENDROOT
BRANCH   1   5
ATOM      5  C   UNL     1     -19.114  18.061  21.425  1.00  0.00     0.144 C 
BRANCH   5   6
ATOM      6  C   UNL     1     -20.000  19.124  20.765  1.00  0.00     0.181 C 
BRANCH   6   7
ATOM      7  O   UNL     1     -21.242  19.306  21.456  1.00  0.00    -0.383 OA
ATOM      8  C   UNL     1     -21.221  18.813  22.788  1.00  0.00     0.194 C 
ENDBRANCH   6   7
ENDBRANCH   5   6
ENDBRANCH   1   5
BRANCH   2   9
ATOM      9  C   UNL     1     -15.425  18.582  21.787  1.00  0.00     0.200 A 
ATOM     10  N   UNL     1     -14.958  19.812  22.005  1.00  0.00    -0.222 NA
ATOM     11  N   UNL     1     -14.474  17.804  21.123  1.00  0.00    -0.316 N 
ATOM     12  C   UNL     1     -13.759  19.878  21.350  1.00  0.00     0.108 A 
ATOM     13  C   UNL     1     -13.491  18.661  20.758  1.00  0.00     0.082 A 
ATOM     14  C   UNL     1     -12.839  20.930  21.187  1.00  0.00     0.144 A 
ATOM     15  C   UNL     1     -12.378  18.528  19.982  1.00  0.00     0.045 A 
ATOM     16  N   UNL     1     -11.695  20.805  20.446  1.00  0.00    -0.236 NA
ATOM     17  C   UNL     1     -11.905  17.463  19.177  1.00  0.00     0.032 A 
ATOM     18  C   UNL     1     -11.529  19.605  19.863  1.00  0.00     0.139 A 
ATOM     19  C   UNL     1     -10.728  17.926  18.611  1.00  0.00     0.085 A 
ATOM     20  N   UNL     1     -10.508  19.219  19.041  1.00  0.00    -0.346 N 
ATOM     21  H   UNL     1      -9.738  19.817  18.780  1.00  0.00     0.167 HD
BRANCH  11  22
ATOM     22  C   UNL     1     -14.482  16.351  20.974  1.00  0.00     0.089 C 
ATOM     23  C   UNL     1     -15.097  15.843  19.657  1.00  0.00     0.026 C 
ATOM     24  C   UNL     1     -13.130  15.711  21.306  1.00  0.00     0.026 C 
ATOM     25  C   UNL     1     -15.119  14.315  19.602  1.00  0.00     0.007 C 
ATOM     26  C   UNL     1     -13.184  14.186  21.211  1.00  0.00     0.007 C 
ATOM     27  C   UNL     1     -13.728  13.711  19.851  1.00  0.00     0.003 C 
BRANCH  27  28
ATOM     28  C   UNL     1     -13.803  12.176  19.770  1.00  0.00     0.123 C 
ATOM     29  C   UNL     1     -12.534  11.575  19.330  1.00  0.00     0.062 C 
ATOM     30  N   UNL     1     -11.535  11.096  18.988  1.00  0.00    -0.198 NA
ENDBRANCH  27  28
ENDBRANCH  11  22
ENDBRANCH   2   9
TORSDOF 6
ENDMDL
MODEL 5
REMARK VINA RESULT:    -8.157      2.364      6.344
REMARK INTER + INTRA:         -11.766
REMARK INTER:                 -10.846
REMARK INTRA:                  -0.919
REMARK UNBOUND:                -0.747
REMARK SMILES COCCNC(=O)c1nc2cnc3[nH]ccc3c2n1[C@H]1CC[C@H](CC#N)CC1
REMARK SMILES IDX 5 1 6 2 7 3 4 5 3 6 2 7 1 8 8 9 9 10 19 11 10 12 18 13 11 14
REMARK SMILES IDX 17 15 12 16 16 17 13 18 15 19 14 20 20 22 28 23 21 24 27 25
REMARK SMILES IDX 22 26 23 27 24 28 25 29 26 30
REMARK H PARENT 5 4 14 21
ROOT
ATOM      1  N   UNL     1     -12.601  18.943  19.305  1.00  0.00    -0.347 N 
ATOM      2  C   UNL     1     -13.517  18.227  18.568  1.00  0.00     0.287 C 
ATOM      3  O   UNL     1     -13.182  17.554  17.596  1.00  0.00    -0.266 OA
ATOM      4  H   UNL     1     -12.975  19.494  20.072  1.00  0.00     0.164 HD
ENDROOT
BRANCH   1   5
ATOM      5  C   UNL     1     -11.194  19.012  18.970  1.00  0.00     0.144 C 
BRANCH   5   6
ATOM      6  C   UNL     1     -10.353  18.033  19.797  1.00  0.00     0.181 C 
BRANCH   6   7
ATOM      7  O   UNL     1     -10.622  16.666  19.463  1.00  0.00    -0.383 OA
ATOM      8  C   UNL     1      -9.814  15.743  20.179  1.00  0.00     0.194 C 
ENDBRANCH   6   7
ENDBRANCH   5   6
ENDBRANCH   1   5
BRANCH   2   9
ATOM      9  C   UNL     1     -14.878  18.356  19.079  1.00  0.00     0.200 A 
ATOM     10  N   UNL     1     -15.599  19.445  18.808  1.00  0.00    -0.222 NA
ATOM     11  N   UNL     1     -15.609  17.465  19.867  1.00  0.00    -0.316 N 
ATOM     12  C   UNL     1     -16.746  19.327  19.543  1.00  0.00     0.108 A 
ATOM     13  C   UNL     1     -16.723  18.137  20.241  1.00  0.00     0.082 A 
ATOM     14  C   UNL     1     -17.851  20.185  19.698  1.00  0.00     0.144 A 
ATOM     15  C   UNL     1     -17.739  17.852  21.106  1.00  0.00     0.045 A 
ATOM     16  N   UNL     1     -18.899  19.898  20.530  1.00  0.00    -0.236 NA
ATOM     17  C   UNL     1     -17.935  16.788  22.020  1.00  0.00     0.032 A 
ATOM     18  C   UNL     1     -18.782  18.745  21.209  1.00  0.00     0.139 A 
ATOM     19  C   UNL     1     -19.146  17.054  22.637  1.00  0.00     0.085 A 
ATOM     20  N   UNL     1     -19.652  18.235  22.132  1.00  0.00    -0.346 N 
ATOM     21  H   UNL     1     -20.511  18.687  22.405  1.00  0.00     0.167 HD
BRANCH  11  22
ATOM     22  C   UNL     1     -15.295  16.061  20.120  1.00  0.00     0.089 C 
ATOM     23  C   UNL     1     -15.738  15.093  19.008  1.00  0.00     0.026 C 
ATOM     24  C   UNL     1     -13.848  15.847  20.578  1.00  0.00     0.026 C 
ATOM     25  C   UNL     1     -15.425  13.641  19.372  1.00  0.00     0.007 C 
ATOM     26  C   UNL     1     -13.565  14.381  20.904  1.00  0.00     0.007 C 
ATOM     27  C   UNL     1     -13.946  13.447  19.740  1.00  0.00     0.003 C 
BRANCH  27  28
ATOM     28  C   UNL     1     -13.682  11.969  20.082  1.00  0.00     0.123 C 
ATOM     29  C   UNL     1     -12.566  11.406  19.308  1.00  0.00     0.062 C 
ATOM     30  N   UNL     1     -11.683  10.957  18.703  1.00  0.00    -0.198 NA
ENDBRANCH  27  28
ENDBRANCH  11  22
ENDBRANCH   2   9
TORSDOF 6
ENDMDL
MODEL 6
REMARK VINA RESULT:    -7.981      3.622      6.448
REMARK INTER + INTRA:         -11.527
REMARK INTER:                 -10.422
REMARK INTRA:                  -1.105
REMARK UNBOUND:                -0.747
REMARK SMILES COCCNC(=O)c1nc2cnc3[nH]ccc3c2n1[C@H]1CC[C@H](CC#N)CC1
REMARK SMILES IDX 5 1 6 2 7 3 4 5 3 6 2 7 1 8 8 9 9 10 19 11 10 12 18 13 11 14
REMARK SMILES IDX 17 15 12 16 16 17 13 18 15 19 14 20 20 22 28 23 21 24 27 25
REMARK SMILES IDX 22 26 23 27 24 28 25 29 26 30
REMARK H PARENT 5 4 14 21
ROOT
ATOM      1  N   UNL     1     -16.881  17.062  21.605  1.00  0.00    -0.347 N 
ATOM      2  C   UNL     1     -16.864  16.722  20.271  1.00  0.00     0.287 C 
ATOM      3  O   UNL     1     -17.520  17.340  19.436  1.00  0.00    -0.266 OA
ATOM      4  H   UNL     1     -16.332  16.474  22.225  1.00  0.00     0.164 HD
ENDROOT
BRANCH   1   5
ATOM      5  C   UNL     1     -17.707  18.124  22.141  1.00  0.00     0.144 C 
BRANCH   5   6
ATOM      6  C   UNL     1     -18.959  17.584  22.843  1.00  0.00     0.181 C 
BRANCH   6   7
ATOM      7  O   UNL     1     -20.116  17.621  22.000  1.00  0.00    -0.383 OA
ATOM      8  C   UNL     1     -20.196  18.795  21.205  1.00  0.00     0.194 C 
ENDBRANCH   6   7
ENDBRANCH   5   6
ENDBRANCH   1   5
BRANCH   2   9
ATOM      9  C   UNL     1     -15.991  15.586  19.989  1.00  0.00     0.200 A 
ATOM     10  N   UNL     1     -16.502  14.364  19.838  1.00  0.00    -0.222 NA
ATOM     11  N   UNL     1     -14.603  15.561  19.842  1.00  0.00    -0.316 N 
ATOM     12  C   UNL     1     -15.432  13.519  19.740  1.00  0.00     0.108 A 
ATOM     13  C   UNL     1     -14.263  14.250  19.804  1.00  0.00     0.082 A 
ATOM     14  C   UNL     1     -15.351  12.120  19.616  1.00  0.00     0.144 A 
ATOM     15  C   UNL     1     -13.066  13.596  19.805  1.00  0.00     0.045 A 
ATOM     16  N   UNL     1     -14.160  11.448  19.575  1.00  0.00    -0.236 NA
ATOM     17  C   UNL     1     -11.736  14.054  19.965  1.00  0.00     0.032 A 
ATOM     18  C   UNL     1     -13.069  12.225  19.688  1.00  0.00     0.139 A 
ATOM     19  C   UNL     1     -10.947  12.918  19.897  1.00  0.00     0.085 A 
ATOM     20  N   UNL     1     -11.764  11.820  19.720  1.00  0.00    -0.346 N 
ATOM     21  H   UNL     1     -11.471  10.856  19.653  1.00  0.00     0.167 HD
BRANCH  11  22
ATOM     22  C   UNL     1     -13.724  16.710  19.640  1.00  0.00     0.089 C 
ATOM     23  C   UNL     1     -14.137  17.640  18.485  1.00  0.00     0.026 C 
ATOM     24  C   UNL     1     -13.406  17.454  20.941  1.00  0.00     0.026 C 
ATOM     25  C   UNL     1     -13.139  18.784  18.302  1.00  0.00     0.007 C 
ATOM     26  C   UNL     1     -12.429  18.607  20.714  1.00  0.00     0.007 C 
ATOM     27  C   UNL     1     -12.912  19.563  19.607  1.00  0.00     0.003 C 
BRANCH  27  28
ATOM     28  C   UNL     1     -11.913  20.709  19.364  1.00  0.00     0.123 C 
ATOM     29  C   UNL     1     -12.239  21.911  20.147  1.00  0.00     0.062 C 
ATOM     30  N   UNL     1     -12.488  22.859  20.767  1.00  0.00    -0.198 NA
ENDBRANCH  27  28
ENDBRANCH  11  22
ENDBRANCH   2   9
TORSDOF 6
ENDMDL
MODEL 7
REMARK VINA RESULT:    -7.944      1.904      2.473
REMARK INTER + INTRA:         -11.478
REMARK INTER:                 -10.563
REMARK INTRA:                  -0.915
REMARK UNBOUND:                -0.747
REMARK SMILES COCCNC(=O)c1nc2cnc3[nH]ccc3c2n1[C@H]1CC[C@H](CC#N)CC1
REMARK SMILES IDX 5 1 6 2 7 3 4 5 3 6 2 7 1 8 8 9 9 10 19 11 10 12 18 13 11 14
REMARK SMILES IDX 17 15 12 16 16 17 13 18 15 19 14 20 20 22 28 23 21 24 27 25
REMARK SMILES IDX 22 26 23 27 24 28 25 29 26 30
REMARK H PARENT 5 4 14 21
ROOT
ATOM      1  N   UNL     1     -11.519  19.187  20.519  1.00  0.00    -0.347 N 
ATOM      2  C   UNL     1     -12.248  18.499  19.575  1.00  0.00     0.287 C 
ATOM      3  O   UNL     1     -12.902  19.079  18.713  1.00  0.00    -0.266 OA
ATOM      4  H   UNL     1     -11.035  18.622  21.211  1.00  0.00     0.164 HD
ENDROOT
BRANCH   1   5
ATOM      5  C   UNL     1     -11.508  20.632  20.613  1.00  0.00     0.144 C 
BRANCH   5   6
ATOM      6  C   UNL     1     -10.116  21.178  20.954  1.00  0.00     0.181 C 
BRANCH   6   7
ATOM      7  O   UNL     1      -9.168  20.136  21.211  1.00  0.00    -0.383 OA
ATOM      8  C   UNL     1      -7.827  20.599  21.281  1.00  0.00     0.194 C 
ENDBRANCH   6   7
ENDBRANCH   5   6
ENDBRANCH   1   5
BRANCH   2   9
ATOM      9  C   UNL     1     -12.135  17.051  19.720  1.00  0.00     0.200 A 
ATOM     10  N   UNL     1     -10.956  16.447  19.569  1.00  0.00    -0.222 NA
ATOM     11  N   UNL     1     -13.133  16.118  20.008  1.00  0.00    -0.316 N 
ATOM     12  C   UNL     1     -11.213  15.105  19.613  1.00  0.00     0.108 A 
ATOM     13  C   UNL     1     -12.562  14.903  19.823  1.00  0.00     0.082 A 
ATOM     14  C   UNL     1     -10.374  13.985  19.466  1.00  0.00     0.144 A 
ATOM     15  C   UNL     1     -13.054  13.631  19.821  1.00  0.00     0.045 A 
ATOM     16  N   UNL     1     -10.841  12.700  19.502  1.00  0.00    -0.236 NA
ATOM     17  C   UNL     1     -14.374  13.125  19.901  1.00  0.00     0.032 A 
ATOM     18  C   UNL     1     -12.170  12.587  19.664  1.00  0.00     0.139 A 
ATOM     19  C   UNL     1     -14.244  11.748  19.828  1.00  0.00     0.085 A 
ATOM     20  N   UNL     1     -12.906  11.436  19.693  1.00  0.00    -0.346 N 
ATOM     21  H   UNL     1     -12.510  10.512  19.600  1.00  0.00     0.167 HD
BRANCH  11  22
ATOM     22  C   UNL     1     -14.468  16.397  20.528  1.00  0.00     0.089 C 
ATOM     23  C   UNL     1     -14.515  17.456  21.645  1.00  0.00     0.026 C 
ATOM     24  C   UNL     1     -15.503  16.630  19.421  1.00  0.00     0.026 C 
ATOM     25  C   UNL     1     -15.936  17.651  22.174  1.00  0.00     0.007 C 
ATOM     26  C   UNL     1     -16.905  16.850  19.989  1.00  0.00     0.007 C 
ATOM     27  C   UNL     1     -16.930  17.970  21.046  1.00  0.00     0.003 C 
BRANCH  27  28
ATOM     28  C   UNL     1     -18.339  18.172  21.633  1.00  0.00     0.123 C 
ATOM     29  C   UNL     1     -19.271  18.762  20.660  1.00  0.00     0.062 C 
ATOM     30  N   UNL     1     -20.012  19.222  19.896  1.00  0.00    -0.198 NA
ENDBRANCH  27  28
ENDBRANCH  11  22
ENDBRANCH   2   9
TORSDOF 6
ENDMDL
MODEL 8
REMARK VINA RESULT:    -7.917      2.025      2.235
REMARK INTER + INTRA:         -11.441
REMARK INTER:                 -10.695
REMARK INTRA:                  -0.745
REMARK UNBOUND:                -0.747
REMARK SMILES COCCNC(=O)c1nc2cnc3[nH]ccc3c2n1[C@H]1CC[C@H](CC#N)CC1
REMARK SMILES IDX 5 1 6 2 7 3 4 5 3 6 2 7 1 8 8 9 9 10 19 11 10 12 18 13 11 14
REMARK SMILES IDX 17 15 12 16 16 17 13 18 15 19 14 20 20 22 28 23 21 24 27 25
REMARK SMILES IDX 22 26 23 27 24 28 25 29 26 30
REMARK H PARENT 5 4 14 21
ROOT
ATOM      1  N   UNL     1      -9.282  16.675  20.565  1.00  0.00    -0.347 N 
ATOM      2  C   UNL     1     -10.239  16.745  19.578  1.00  0.00     0.287 C 
ATOM      3  O   UNL     1     -10.136  17.519  18.630  1.00  0.00    -0.266 OA
ATOM      4  H   UNL     1      -9.470  16.027  21.326  1.00  0.00     0.164 HD
ENDROOT
BRANCH   1   5
ATOM      5  C   UNL     1      -8.118  17.534  20.603  1.00  0.00     0.144 C 
BRANCH   5   6
ATOM      6  C   UNL     1      -6.810  16.739  20.515  1.00  0.00     0.181 C 
BRANCH   6   7
ATOM      7  O   UNL     1      -6.690  16.020  19.281  1.00  0.00    -0.383 OA
ATOM      8  C   UNL     1      -6.454  14.631  19.460  1.00  0.00     0.194 C 
ENDBRANCH   6   7
ENDBRANCH   5   6
ENDBRANCH   1   5
BRANCH   2   9
ATOM      9  C   UNL     1     -11.341  15.811  19.791  1.00  0.00     0.200 A 
ATOM     10  N   UNL     1     -11.102  14.505  19.921  1.00  0.00    -0.222 NA
ATOM     11  N   UNL     1     -12.709  16.074  19.885  1.00  0.00    -0.316 N 
ATOM     12  C   UNL     1     -12.329  13.902  19.951  1.00  0.00     0.108 A 
ATOM     13  C   UNL     1     -13.315  14.863  19.868  1.00  0.00     0.082 A 
ATOM     14  C   UNL     1     -12.705  12.548  20.027  1.00  0.00     0.144 A 
ATOM     15  C   UNL     1     -14.621  14.474  19.801  1.00  0.00     0.045 A 
ATOM     16  N   UNL     1     -14.010  12.139  20.002  1.00  0.00    -0.236 NA
ATOM     17  C   UNL     1     -15.819  15.204  19.606  1.00  0.00     0.032 A 
ATOM     18  C   UNL     1     -14.909  13.130  19.873  1.00  0.00     0.139 A 
ATOM     19  C   UNL     1     -16.830  14.257  19.608  1.00  0.00     0.085 A 
ATOM     20  N   UNL     1     -16.267  13.009  19.779  1.00  0.00    -0.346 N 
ATOM     21  H   UNL     1     -16.757  12.126  19.804  1.00  0.00     0.167 HD
BRANCH  11  22
ATOM     22  C   UNL     1     -13.337  17.376  20.092  1.00  0.00     0.089 C 
ATOM     23  C   UNL     1     -14.118  17.913  18.878  1.00  0.00     0.026 C 
ATOM     24  C   UNL     1     -14.119  17.458  21.407  1.00  0.00     0.026 C 
ATOM     25  C   UNL     1     -14.697  19.301  19.154  1.00  0.00     0.007 C 
ATOM     26  C   UNL     1     -14.707  18.851  21.634  1.00  0.00     0.007 C 
ATOM     27  C   UNL     1     -15.548  19.324  20.433  1.00  0.00     0.003 C 
BRANCH  27  28
ATOM     28  C   UNL     1     -16.118  20.737  20.656  1.00  0.00     0.123 C 
ATOM     29  C   UNL     1     -15.143  21.790  20.335  1.00  0.00     0.062 C 
ATOM     30  N   UNL     1     -14.380  22.625  20.078  1.00  0.00    -0.198 NA
ENDBRANCH  27  28
ENDBRANCH  11  22
ENDBRANCH   2   9
TORSDOF 6
ENDMDL
MODEL 9
REMARK VINA RESULT:    -7.898      2.723      6.843
REMARK INTER + INTRA:         -11.415
REMARK INTER:                 -10.498
REMARK INTRA:                  -0.917
REMARK UNBOUND:                -0.747
REMARK SMILES COCCNC(=O)c1nc2cnc3[nH]ccc3c2n1[C@H]1CC[C@H](CC#N)CC1
REMARK SMILES IDX 5 1 6 2 7 3 4 5 3 6 2 7 1 8 8 9 9 10 19 11 10 12 18 13 11 14
REMARK SMILES IDX 17 15 12 16 16 17 13 18 15 19 14 20 20 22 28 23 21 24 27 25
REMARK SMILES IDX 22 26 23 27 24 28 25 29 26 30
REMARK H PARENT 5 4 14 21
ROOT
ATOM      1  N   UNL     1     -12.884  20.282  19.695  1.00  0.00    -0.347 N 
ATOM      2  C   UNL     1     -13.644  20.656  18.610  1.00  0.00     0.287 C 
ATOM      3  O   UNL     1     -13.131  21.018  17.554  1.00  0.00    -0.266 OA
ATOM      4  H   UNL     1     -13.397  20.028  20.535  1.00  0.00     0.164 HD
ENDROOT
BRANCH   1   5
ATOM      5  C   UNL     1     -11.437  20.336  19.707  1.00  0.00     0.144 C 
BRANCH   5   6
ATOM      6  C   UNL     1     -10.807  18.942  19.804  1.00  0.00     0.181 C 
BRANCH   6   7
ATOM      7  O   UNL     1     -10.932  18.200  18.585  1.00  0.00    -0.383 OA
ATOM      8  C   UNL     1     -11.819  17.095  18.687  1.00  0.00     0.194 C 
ENDBRANCH   6   7
ENDBRANCH   5   6
ENDBRANCH   1   5
BRANCH   2   9
ATOM      9  C   UNL     1     -15.078  20.560  18.864  1.00  0.00     0.200 A 
ATOM     10  N   UNL     1     -15.877  21.599  18.616  1.00  0.00    -0.222 NA
ATOM     11  N   UNL     1     -15.811  19.483  19.364  1.00  0.00    -0.316 N 
ATOM     12  C   UNL     1     -17.108  21.247  19.095  1.00  0.00     0.108 A 
ATOM     13  C   UNL     1     -17.052  19.968  19.610  1.00  0.00     0.082 A 
ATOM     14  C   UNL     1     -18.326  21.949  19.155  1.00  0.00     0.144 A 
ATOM     15  C   UNL     1     -18.155  19.443  20.216  1.00  0.00     0.045 A 
ATOM     16  N   UNL     1     -19.456  21.426  19.722  1.00  0.00    -0.236 NA
ATOM     17  C   UNL     1     -18.366  18.230  20.915  1.00  0.00     0.032 A 
ATOM     18  C   UNL     1     -19.308  20.195  20.242  1.00  0.00     0.139 A 
ATOM     19  C   UNL     1     -19.690  18.267  21.321  1.00  0.00     0.085 A 
ATOM     20  N   UNL     1     -20.250  19.455  20.900  1.00  0.00    -0.346 N 
ATOM     21  H   UNL     1     -21.196  19.767  21.065  1.00  0.00     0.167 HD
BRANCH  11  22
ATOM     22  C   UNL     1     -15.365  18.097  19.473  1.00  0.00     0.089 C 
ATOM     23  C   UNL     1     -15.195  17.587  20.916  1.00  0.00     0.026 C 
ATOM     24  C   UNL     1     -16.161  17.142  18.576  1.00  0.00     0.026 C 
ATOM     25  C   UNL     1     -14.673  16.150  20.945  1.00  0.00     0.007 C 
ATOM     26  C   UNL     1     -15.630  15.711  18.654  1.00  0.00     0.007 C 
ATOM     27  C   UNL     1     -15.548  15.204  20.106  1.00  0.00     0.003 C 
BRANCH  27  28
ATOM     28  C   UNL     1     -14.989  13.772  20.181  1.00  0.00     0.123 C 
ATOM     29  C   UNL     1     -13.533  13.728  19.977  1.00  0.00     0.062 C 
ATOM     30  N   UNL     1     -12.384  13.688  19.822  1.00  0.00    -0.198 NA
ENDBRANCH  27  28
ENDBRANCH  11  22
ENDBRANCH   2   9
TORSDOF 6
ENDMDL
