MODEL 1
REMARK VINA RESULT:   -10.575      0.000      0.000
REMARK INTER + INTRA:         -12.879
REMARK INTER:                 -12.430
REMARK INTRA:                  -0.448
REMARK UNBOUND:                -0.448
REMARK SMILES c1ccc(CNc2c3c(nc4ccccc24)CCCC3)nc1
REMARK SMILES IDX 5 1 4 2 1 3 2 4 22 5 3 6 21 7 6 8 7 10 8 11 16 12 9 13 20 14
REMARK SMILES IDX 15 15 11 16 10 17 17 18 19 19 14 20 12 21 18 22 13 23
REMARK H PARENT 6 9
ROOT
ATOM      1  C   UNL     1     -10.421 -46.278  29.236  1.00  0.00     0.169 C 
ENDROOT
BRANCH   1   2
ATOM      2  C   UNL     1     -11.432 -45.509  28.409  1.00  0.00     0.059 A 
ATOM      3  C   UNL     1     -13.283 -44.056  26.991  1.00  0.00     0.020 A 
ATOM      4  C   UNL     1     -13.467 -45.425  27.140  1.00  0.00     0.004 A 
ATOM      5  C   UNL     1     -12.171 -43.478  27.579  1.00  0.00     0.111 A 
ATOM      6  C   UNL     1     -12.535 -46.164  27.862  1.00  0.00     0.026 A 
ATOM      7  N   UNL     1     -11.249 -44.168  28.286  1.00  0.00    -0.259 NA
ENDBRANCH   1   2
BRANCH   1   8
ATOM      8  N   UNL     1     -10.913 -46.418  30.606  1.00  0.00    -0.379 N 
ATOM      9  H   UNL     1     -11.810 -46.894  30.657  1.00  0.00     0.161 HD
BRANCH   8  10
ATOM     10  C   UNL     1     -10.770 -45.291  31.434  1.00  0.00     0.049 A 
ATOM     11  C   UNL     1     -11.907 -44.540  31.798  1.00  0.00    -0.003 A 
ATOM     12  C   UNL     1      -9.482 -44.845  31.835  1.00  0.00     0.024 A 
ATOM     13  C   UNL     1     -11.711 -43.392  32.571  1.00  0.00     0.046 A 
ATOM     14  C   UNL     1     -13.299 -44.990  31.419  1.00  0.00     0.039 C 
ATOM     15  C   UNL     1      -8.284 -45.543  31.549  1.00  0.00     0.012 A 
ATOM     16  C   UNL     1      -9.405 -43.656  32.586  1.00  0.00     0.073 A 
ATOM     17  N   UNL     1     -10.486 -42.948  32.940  1.00  0.00    -0.252 NA
ATOM     18  C   UNL     1     -12.860 -42.518  32.999  1.00  0.00     0.056 C 
ATOM     19  C   UNL     1     -14.376 -43.923  31.609  1.00  0.00     0.005 C 
ATOM     20  C   UNL     1      -7.044 -45.063  31.965  1.00  0.00     0.001 A 
ATOM     21  C   UNL     1      -8.158 -43.193  32.988  1.00  0.00     0.029 A 
ATOM     22  C   UNL     1     -14.208 -43.229  32.952  1.00  0.00     0.007 C 
ATOM     23  C   UNL     1      -6.980 -43.878  32.683  1.00  0.00     0.002 A 
ENDBRANCH   8  10
ENDBRANCH   1   8
TORSDOF 3
ENDMDL
MODEL 2
REMARK VINA RESULT:   -10.258      0.383      3.916
REMARK INTER + INTRA:         -12.506
REMARK INTER:                 -12.123
REMARK INTRA:                  -0.383
REMARK UNBOUND:                -0.448
REMARK SMILES c1ccc(CNc2c3c(nc4ccccc24)CCCC3)nc1
REMARK SMILES IDX 5 1 4 2 1 3 2 4 22 5 3 6 21 7 6 8 7 10 8 11 16 12 9 13 20 14
REMARK SMILES IDX 15 15 11 16 10 17 17 18 19 19 14 20 12 21 18 22 13 23
REMARK H PARENT 6 9
ROOT
ATOM      1  C   UNL     1     -10.653 -45.993  29.232  1.00  0.00     0.169 C 
ENDROOT
BRANCH   1   2
ATOM      2  C   UNL     1     -11.636 -45.200  28.394  1.00  0.00     0.059 A 
ATOM      3  C   UNL     1     -13.424 -43.694  26.951  1.00  0.00     0.020 A 
ATOM      4  C   UNL     1     -13.738 -45.013  27.252  1.00  0.00     0.004 A 
ATOM      5  C   UNL     1     -12.218 -43.189  27.406  1.00  0.00     0.111 A 
ATOM      6  C   UNL     1     -12.837 -45.778  27.987  1.00  0.00     0.026 A 
ATOM      7  N   UNL     1     -11.323 -43.905  28.122  1.00  0.00    -0.259 NA
ENDBRANCH   1   2
BRANCH   1   8
ATOM      8  N   UNL     1     -11.147 -46.094  30.604  1.00  0.00    -0.379 N 
ATOM      9  H   UNL     1     -12.062 -46.534  30.663  1.00  0.00     0.161 HD
BRANCH   8  10
ATOM     10  C   UNL     1     -10.960 -44.961  31.416  1.00  0.00     0.049 A 
ATOM     11  C   UNL     1      -9.662 -44.606  31.835  1.00  0.00    -0.003 A 
ATOM     12  C   UNL     1     -12.075 -44.221  31.894  1.00  0.00     0.024 A 
ATOM     13  C   UNL     1      -9.530 -43.509  32.691  1.00  0.00     0.046 A 
ATOM     14  C   UNL     1      -8.444 -45.345  31.331  1.00  0.00     0.039 C 
ATOM     15  C   UNL     1     -13.413 -44.477  31.508  1.00  0.00     0.012 A 
ATOM     16  C   UNL     1     -11.823 -43.154  32.778  1.00  0.00     0.073 A 
ATOM     17  N   UNL     1     -10.588 -42.810  33.169  1.00  0.00    -0.252 NA
ATOM     18  C   UNL     1      -8.187 -43.059  33.204  1.00  0.00     0.056 C 
ATOM     19  C   UNL     1      -7.164 -45.049  32.111  1.00  0.00     0.005 C 
ATOM     20  C   UNL     1     -14.472 -43.722  32.007  1.00  0.00     0.001 A 
ATOM     21  C   UNL     1     -12.894 -42.416  33.266  1.00  0.00     0.029 A 
ATOM     22  C   UNL     1      -7.022 -43.554  32.355  1.00  0.00     0.007 C 
ATOM     23  C   UNL     1     -14.212 -42.690  32.896  1.00  0.00     0.002 A 
ENDBRANCH   8  10
ENDBRANCH   1   8
TORSDOF 3
ENDMDL
MODEL 3
REMARK VINA RESULT:   -10.101      7.784     11.410
REMARK INTER + INTRA:         -12.321
REMARK INTER:                 -12.227
REMARK INTRA:                  -0.094
REMARK UNBOUND:                -0.448
REMARK SMILES c1ccc(CNc2c3c(nc4ccccc24)CCCC3)nc1
REMARK SMILES IDX 5 1 4 2 1 3 2 4 22 5 3 6 21 7 6 8 7 10 8 11 16 12 9 13 20 14
REMARK SMILES IDX 15 15 11 16 10 17 17 18 19 19 14 20 12 21 18 22 13 23
REMARK H PARENT 6 9
ROOT
ATOM      1  C   UNL     1     -17.881 -40.872  21.989  1.00  0.00     0.169 C 
ENDROOT
BRANCH   1   2
ATOM      2  C   UNL     1     -19.058 -40.141  21.375  1.00  0.00     0.059 A 
ATOM      3  C   UNL     1     -21.126 -38.760  20.206  1.00  0.00     0.020 A 
ATOM      4  C   UNL     1     -20.998 -38.744  21.589  1.00  0.00     0.004 A 
ATOM      5  C   UNL     1     -20.190 -39.468  19.471  1.00  0.00     0.111 A 
ATOM      6  C   UNL     1     -19.949 -39.438  22.185  1.00  0.00     0.026 A 
ATOM      7  N   UNL     1     -19.161 -40.150  20.019  1.00  0.00    -0.259 NA
ENDBRANCH   1   2
BRANCH   1   8
ATOM      8  N   UNL     1     -18.352 -42.079  22.668  1.00  0.00    -0.379 N 
ATOM      9  H   UNL     1     -19.277 -42.369  22.360  1.00  0.00     0.161 HD
BRANCH   8  10
ATOM     10  C   UNL     1     -18.122 -42.141  24.053  1.00  0.00     0.049 A 
ATOM     11  C   UNL     1     -16.900 -42.651  24.538  1.00  0.00    -0.003 A 
ATOM     12  C   UNL     1     -19.142 -41.780  24.975  1.00  0.00     0.024 A 
ATOM     13  C   UNL     1     -16.739 -42.752  25.922  1.00  0.00     0.046 A 
ATOM     14  C   UNL     1     -15.775 -43.021  23.599  1.00  0.00     0.039 C 
ATOM     15  C   UNL     1     -20.388 -41.230  24.591  1.00  0.00     0.012 A 
ATOM     16  C   UNL     1     -18.877 -41.955  26.347  1.00  0.00     0.073 A 
ATOM     17  N   UNL     1     -17.712 -42.431  26.808  1.00  0.00    -0.252 NA
ATOM     18  C   UNL     1     -15.475 -43.296  26.537  1.00  0.00     0.056 C 
ATOM     19  C   UNL     1     -14.661 -43.840  24.248  1.00  0.00     0.005 C 
ATOM     20  C   UNL     1     -21.357 -40.893  25.534  1.00  0.00     0.001 A 
ATOM     21  C   UNL     1     -19.858 -41.616  27.270  1.00  0.00     0.029 A 
ATOM     22  C   UNL     1     -14.278 -43.247  25.595  1.00  0.00     0.007 C 
ATOM     23  C   UNL     1     -21.092 -41.092  26.881  1.00  0.00     0.002 A 
ENDBRANCH   8  10
ENDBRANCH   1   8
TORSDOF 3
ENDMDL
MODEL 4
REMARK VINA RESULT:    -9.873      7.761     10.747
REMARK INTER + INTRA:         -12.053
REMARK INTER:                 -11.912
REMARK INTRA:                  -0.142
REMARK UNBOUND:                -0.448
REMARK SMILES c1ccc(CNc2c3c(nc4ccccc24)CCCC3)nc1
REMARK SMILES IDX 5 1 4 2 1 3 2 4 22 5 3 6 21 7 6 8 7 10 8 11 16 12 9 13 20 14
REMARK SMILES IDX 15 15 11 16 10 17 17 18 19 19 14 20 12 21 18 22 13 23
REMARK H PARENT 6 9
ROOT
ATOM      1  C   UNL     1     -17.842 -40.911  22.012  1.00  0.00     0.169 C 
ENDROOT
BRANCH   1   2
ATOM      2  C   UNL     1     -19.005 -40.166  21.388  1.00  0.00     0.059 A 
ATOM      3  C   UNL     1     -21.046 -38.758  20.205  1.00  0.00     0.020 A 
ATOM      4  C   UNL     1     -20.942 -38.763  21.590  1.00  0.00     0.004 A 
ATOM      5  C   UNL     1     -20.101 -39.459  19.475  1.00  0.00     0.111 A 
ATOM      6  C   UNL     1     -19.906 -39.471  22.194  1.00  0.00     0.026 A 
ATOM      7  N   UNL     1     -19.084 -40.154  20.031  1.00  0.00    -0.259 NA
ENDBRANCH   1   2
BRANCH   1   8
ATOM      8  N   UNL     1     -18.322 -42.153  22.617  1.00  0.00    -0.379 N 
ATOM      9  H   UNL     1     -19.241 -42.428  22.278  1.00  0.00     0.161 HD
BRANCH   8  10
ATOM     10  C   UNL     1     -18.115 -42.289  24.001  1.00  0.00     0.049 A 
ATOM     11  C   UNL     1     -19.130 -41.907  24.902  1.00  0.00    -0.003 A 
ATOM     12  C   UNL     1     -16.860 -42.723  24.506  1.00  0.00     0.024 A 
ATOM     13  C   UNL     1     -18.857 -42.001  26.269  1.00  0.00     0.046 A 
ATOM     14  C   UNL     1     -20.490 -41.466  24.413  1.00  0.00     0.039 C 
ATOM     15  C   UNL     1     -15.791 -43.158  23.687  1.00  0.00     0.012 A 
ATOM     16  C   UNL     1     -16.690 -42.747  25.904  1.00  0.00     0.073 A 
ATOM     17  N   UNL     1     -17.657 -42.393  26.761  1.00  0.00    -0.252 NA
ATOM     18  C   UNL     1     -19.871 -41.604  27.310  1.00  0.00     0.056 C 
ATOM     19  C   UNL     1     -21.353 -40.795  25.480  1.00  0.00     0.005 C 
ATOM     20  C   UNL     1     -14.578 -43.573  24.233  1.00  0.00     0.001 A 
ATOM     21  C   UNL     1     -15.471 -43.162  26.427  1.00  0.00     0.029 A 
ATOM     22  C   UNL     1     -21.300 -41.581  26.781  1.00  0.00     0.007 C 
ATOM     23  C   UNL     1     -14.415 -43.569  25.610  1.00  0.00     0.002 A 
ENDBRANCH   8  10
ENDBRANCH   1   8
TORSDOF 3
ENDMDL
MODEL 5
REMARK VINA RESULT:    -9.795      1.811      5.786
REMARK INTER + INTRA:         -11.961
REMARK INTER:                 -11.776
REMARK INTRA:                  -0.186
REMARK UNBOUND:                -0.448
REMARK SMILES c1ccc(CNc2c3c(nc4ccccc24)CCCC3)nc1
REMARK SMILES IDX 5 1 4 2 1 3 2 4 22 5 3 6 21 7 6 8 7 10 8 11 16 12 9 13 20 14
REMARK SMILES IDX 15 15 11 16 10 17 17 18 19 19 14 20 12 21 18 22 13 23
REMARK H PARENT 6 9
ROOT
ATOM      1  C   UNL     1     -13.290 -43.934  32.172  1.00  0.00     0.169 C 
ENDROOT
BRANCH   1   2
ATOM      2  C   UNL     1     -14.152 -42.864  32.811  1.00  0.00     0.059 A 
ATOM      3  C   UNL     1     -15.698 -40.864  33.887  1.00  0.00     0.020 A 
ATOM      4  C   UNL     1     -14.601 -41.330  34.601  1.00  0.00     0.004 A 
ATOM      5  C   UNL     1     -15.959 -41.426  32.649  1.00  0.00     0.111 A 
ATOM      6  C   UNL     1     -13.812 -42.340  34.057  1.00  0.00     0.026 A 
ATOM      7  N   UNL     1     -15.212 -42.406  32.093  1.00  0.00    -0.259 NA
ENDBRANCH   1   2
BRANCH   1   8
ATOM      8  N   UNL     1     -12.270 -43.306  31.332  1.00  0.00    -0.379 N 
ATOM      9  H   UNL     1     -12.653 -42.605  30.703  1.00  0.00     0.161 HD
BRANCH   8  10
ATOM     10  C   UNL     1     -11.308 -44.168  30.775  1.00  0.00     0.049 A 
ATOM     11  C   UNL     1      -9.991 -44.166  31.278  1.00  0.00    -0.003 A 
ATOM     12  C   UNL     1     -11.625 -44.976  29.650  1.00  0.00     0.024 A 
ATOM     13  C   UNL     1      -9.054 -44.994  30.653  1.00  0.00     0.046 A 
ATOM     14  C   UNL     1      -9.613 -43.346  32.489  1.00  0.00     0.039 C 
ATOM     15  C   UNL     1     -12.923 -45.071  29.091  1.00  0.00     0.012 A 
ATOM     16  C   UNL     1     -10.591 -45.745  29.084  1.00  0.00     0.073 A 
ATOM     17  N   UNL     1      -9.341 -45.751  29.567  1.00  0.00    -0.252 NA
ATOM     18  C   UNL     1      -7.619 -45.053  31.108  1.00  0.00     0.056 C 
ATOM     19  C   UNL     1      -8.108 -43.209  32.709  1.00  0.00     0.005 C 
ATOM     20  C   UNL     1     -13.182 -45.878  27.985  1.00  0.00     0.001 A 
ATOM     21  C   UNL     1     -10.870 -46.541  27.980  1.00  0.00     0.029 A 
ATOM     22  C   UNL     1      -7.419 -44.554  32.534  1.00  0.00     0.007 C 
ATOM     23  C   UNL     1     -12.149 -46.613  27.423  1.00  0.00     0.002 A 
ENDBRANCH   8  10
ENDBRANCH   1   8
TORSDOF 3
ENDMDL
MODEL 6
REMARK VINA RESULT:    -9.743      1.778      4.853
REMARK INTER + INTRA:         -11.900
REMARK INTER:                 -11.754
REMARK INTRA:                  -0.146
REMARK UNBOUND:                -0.448
REMARK SMILES c1ccc(CNc2c3c(nc4ccccc24)CCCC3)nc1
REMARK SMILES IDX 5 1 4 2 1 3 2 4 22 5 3 6 21 7 6 8 7 10 8 11 16 12 9 13 20 14
REMARK SMILES IDX 15 15 11 16 10 17 17 18 19 19 14 20 12 21 18 22 13 23
REMARK H PARENT 6 9
ROOT
ATOM      1  C   UNL     1     -13.164 -43.859  32.205  1.00  0.00     0.169 C 
ENDROOT
BRANCH   1   2
ATOM      2  C   UNL     1     -14.086 -42.819  32.810  1.00  0.00     0.059 A 
ATOM      3  C   UNL     1     -15.739 -40.874  33.826  1.00  0.00     0.020 A 
ATOM      4  C   UNL     1     -14.643 -41.289  34.573  1.00  0.00     0.004 A 
ATOM      5  C   UNL     1     -15.944 -41.457  32.586  1.00  0.00     0.111 A 
ATOM      6  C   UNL     1     -13.801 -42.271  34.060  1.00  0.00     0.026 A 
ATOM      7  N   UNL     1     -15.144 -42.410  32.061  1.00  0.00    -0.259 NA
ENDBRANCH   1   2
BRANCH   1   8
ATOM      8  N   UNL     1     -12.132 -43.197  31.409  1.00  0.00    -0.379 N 
ATOM      9  H   UNL     1     -12.513 -42.519  30.753  1.00  0.00     0.161 HD
BRANCH   8  10
ATOM     10  C   UNL     1     -11.109 -44.022  30.910  1.00  0.00     0.049 A 
ATOM     11  C   UNL     1     -11.386 -44.929  29.867  1.00  0.00    -0.003 A 
ATOM     12  C   UNL     1      -9.819 -44.018  31.506  1.00  0.00     0.024 A 
ATOM     13  C   UNL     1     -10.355 -45.773  29.445  1.00  0.00     0.046 A 
ATOM     14  C   UNL     1     -12.733 -44.951  29.182  1.00  0.00     0.039 C 
ATOM     15  C   UNL     1      -9.432 -43.126  32.536  1.00  0.00     0.012 A 
ATOM     16  C   UNL     1      -8.869 -44.936  31.019  1.00  0.00     0.073 A 
ATOM     17  N   UNL     1      -9.129 -45.791  30.021  1.00  0.00    -0.252 NA
ATOM     18  C   UNL     1     -10.556 -46.784  28.346  1.00  0.00     0.056 C 
ATOM     19  C   UNL     1     -12.972 -46.180  28.307  1.00  0.00     0.005 C 
ATOM     20  C   UNL     1      -8.154 -43.164  33.089  1.00  0.00     0.001 A 
ATOM     21  C   UNL     1      -7.601 -44.958  31.587  1.00  0.00     0.029 A 
ATOM     22  C   UNL     1     -11.749 -46.471  27.450  1.00  0.00     0.007 C 
ATOM     23  C   UNL     1      -7.235 -44.088  32.616  1.00  0.00     0.002 A 
ENDBRANCH   8  10
ENDBRANCH   1   8
TORSDOF 3
ENDMDL
MODEL 7
REMARK VINA RESULT:    -9.554      1.680      2.498
REMARK INTER + INTRA:         -11.678
REMARK INTER:                 -11.947
REMARK INTRA:                   0.269
REMARK UNBOUND:                -0.448
REMARK SMILES c1ccc(CNc2c3c(nc4ccccc24)CCCC3)nc1
REMARK SMILES IDX 5 1 4 2 1 3 2 4 22 5 3 6 21 7 6 8 7 10 8 11 16 12 9 13 20 14
REMARK SMILES IDX 15 15 11 16 10 17 17 18 19 19 14 20 12 21 18 22 13 23
REMARK H PARENT 6 9
ROOT
ATOM      1  C   UNL     1     -13.376 -45.678  28.958  1.00  0.00     0.169 C 
ENDROOT
BRANCH   1   2
ATOM      2  C   UNL     1     -14.102 -44.738  28.016  1.00  0.00     0.059 A 
ATOM      3  C   UNL     1     -15.506 -43.072  26.343  1.00  0.00     0.020 A 
ATOM      4  C   UNL     1     -14.587 -43.960  25.799  1.00  0.00     0.004 A 
ATOM      5  C   UNL     1     -15.684 -43.074  27.716  1.00  0.00     0.111 A 
ATOM      6  C   UNL     1     -13.877 -44.809  26.642  1.00  0.00     0.026 A 
ATOM      7  N   UNL     1     -15.011 -43.887  28.561  1.00  0.00    -0.259 NA
ENDBRANCH   1   2
BRANCH   1   8
ATOM      8  N   UNL     1     -13.807 -45.424  30.333  1.00  0.00    -0.379 N 
ATOM      9  H   UNL     1     -14.743 -45.028  30.387  1.00  0.00     0.161 HD
BRANCH   8  10
ATOM     10  C   UNL     1     -12.850 -44.850  31.187  1.00  0.00     0.049 A 
ATOM     11  C   UNL     1     -13.221 -43.797  32.048  1.00  0.00    -0.003 A 
ATOM     12  C   UNL     1     -11.489 -45.256  31.128  1.00  0.00     0.024 A 
ATOM     13  C   UNL     1     -12.223 -43.215  32.834  1.00  0.00     0.046 A 
ATOM     14  C   UNL     1     -14.659 -43.349  32.167  1.00  0.00     0.039 C 
ATOM     15  C   UNL     1     -11.022 -46.321  30.321  1.00  0.00     0.012 A 
ATOM     16  C   UNL     1     -10.566 -44.575  31.944  1.00  0.00     0.073 A 
ATOM     17  N   UNL     1     -10.920 -43.580  32.769  1.00  0.00    -0.252 NA
ATOM     18  C   UNL     1     -12.517 -42.076  33.776  1.00  0.00     0.056 C 
ATOM     19  C   UNL     1     -14.843 -42.015  32.889  1.00  0.00     0.005 C 
ATOM     20  C   UNL     1      -9.676 -46.680  30.297  1.00  0.00     0.001 A 
ATOM     21  C   UNL     1      -9.228 -44.947  31.903  1.00  0.00     0.029 A 
ATOM     22  C   UNL     1     -13.991 -41.968  34.148  1.00  0.00     0.007 C 
ATOM     23  C   UNL     1      -8.773 -45.986  31.088  1.00  0.00     0.002 A 
ENDBRANCH   8  10
ENDBRANCH   1   8
TORSDOF 3
ENDMDL
MODEL 8
REMARK VINA RESULT:    -9.440      1.281      1.719
REMARK INTER + INTRA:         -11.544
REMARK INTER:                 -11.278
REMARK INTRA:                  -0.266
REMARK UNBOUND:                -0.448
REMARK SMILES c1ccc(CNc2c3c(nc4ccccc24)CCCC3)nc1
REMARK SMILES IDX 5 1 4 2 1 3 2 4 22 5 3 6 21 7 6 8 7 10 8 11 16 12 9 13 20 14
REMARK SMILES IDX 15 15 11 16 10 17 17 18 19 19 14 20 12 21 18 22 13 23
REMARK H PARENT 6 9
ROOT
ATOM      1  C   UNL     1     -11.403 -43.906  29.492  1.00  0.00     0.169 C 
ENDROOT
BRANCH   1   2
ATOM      2  C   UNL     1     -12.155 -44.585  28.365  1.00  0.00     0.059 A 
ATOM      3  C   UNL     1     -13.606 -45.795  26.370  1.00  0.00     0.020 A 
ATOM      4  C   UNL     1     -12.656 -46.537  27.062  1.00  0.00     0.004 A 
ATOM      5  C   UNL     1     -13.788 -44.470  26.728  1.00  0.00     0.111 A 
ATOM      6  C   UNL     1     -11.923 -45.929  28.076  1.00  0.00     0.026 A 
ATOM      7  N   UNL     1     -13.093 -43.852  27.709  1.00  0.00    -0.259 NA
ENDBRANCH   1   2
BRANCH   1   8
ATOM      8  N   UNL     1     -11.716 -44.566  30.759  1.00  0.00    -0.379 N 
ATOM      9  H   UNL     1     -12.567 -45.121  30.716  1.00  0.00     0.161 HD
BRANCH   8  10
ATOM     10  C   UNL     1     -11.550 -43.791  31.920  1.00  0.00     0.049 A 
ATOM     11  C   UNL     1     -12.671 -43.187  32.526  1.00  0.00    -0.003 A 
ATOM     12  C   UNL     1     -10.253 -43.532  32.440  1.00  0.00     0.024 A 
ATOM     13  C   UNL     1     -12.452 -42.374  33.641  1.00  0.00     0.046 A 
ATOM     14  C   UNL     1     -14.072 -43.454  32.027  1.00  0.00     0.039 C 
ATOM     15  C   UNL     1      -9.070 -44.114  31.924  1.00  0.00     0.012 A 
ATOM     16  C   UNL     1     -10.151 -42.672  33.550  1.00  0.00     0.073 A 
ATOM     17  N   UNL     1     -11.218 -42.105  34.131  1.00  0.00    -0.252 NA
ATOM     18  C   UNL     1     -13.583 -41.676  34.350  1.00  0.00     0.056 C 
ATOM     19  C   UNL     1     -15.127 -42.495  32.577  1.00  0.00     0.005 C 
ATOM     20  C   UNL     1      -7.820 -43.827  32.470  1.00  0.00     0.001 A 
ATOM     21  C   UNL     1      -8.895 -42.397  34.076  1.00  0.00     0.029 A 
ATOM     22  C   UNL     1     -14.945 -42.303  34.074  1.00  0.00     0.007 C 
ATOM     23  C   UNL     1      -7.732 -42.959  33.548  1.00  0.00     0.002 A 
ENDBRANCH   8  10
ENDBRANCH   1   8
TORSDOF 3
ENDMDL
MODEL 9
REMARK VINA RESULT:    -8.650      7.382     10.616
REMARK INTER + INTRA:         -10.616
REMARK INTER:                 -10.063
REMARK INTRA:                  -0.552
REMARK UNBOUND:                -0.448
REMARK SMILES c1ccc(CNc2c3c(nc4ccccc24)CCCC3)nc1
REMARK SMILES IDX 5 1 4 2 1 3 2 4 22 5 3 6 21 7 6 8 7 10 8 11 16 12 9 13 20 14
REMARK SMILES IDX 15 15 11 16 10 17 17 18 19 19 14 20 12 21 18 22 13 23
REMARK H PARENT 6 9
ROOT
ATOM      1  C   UNL     1     -19.684 -43.174  27.802  1.00  0.00     0.169 C 
ENDROOT
BRANCH   1   2
ATOM      2  C   UNL     1     -20.995 -43.602  27.174  1.00  0.00     0.059 A 
ATOM      3  C   UNL     1     -23.410 -44.393  26.130  1.00  0.00     0.020 A 
ATOM      4  C   UNL     1     -22.258 -45.082  25.770  1.00  0.00     0.004 A 
ATOM      5  C   UNL     1     -23.289 -43.336  27.017  1.00  0.00     0.111 A 
ATOM      6  C   UNL     1     -21.034 -44.687  26.300  1.00  0.00     0.026 A 
ATOM      7  N   UNL     1     -22.116 -42.931  27.550  1.00  0.00    -0.259 NA
ENDBRANCH   1   2
BRANCH   1   8
ATOM      8  N   UNL     1     -19.254 -41.902  27.223  1.00  0.00    -0.379 N 
ATOM      9  H   UNL     1     -19.955 -41.171  27.310  1.00  0.00     0.161 HD
BRANCH   8  10
ATOM     10  C   UNL     1     -18.600 -41.977  25.980  1.00  0.00     0.049 A 
ATOM     11  C   UNL     1     -19.287 -41.616  24.804  1.00  0.00    -0.003 A 
ATOM     12  C   UNL     1     -17.281 -42.499  25.885  1.00  0.00     0.024 A 
ATOM     13  C   UNL     1     -18.619 -41.765  23.585  1.00  0.00     0.046 A 
ATOM     14  C   UNL     1     -20.679 -41.030  24.855  1.00  0.00     0.039 C 
ATOM     15  C   UNL     1     -16.496 -42.859  27.008  1.00  0.00     0.012 A 
ATOM     16  C   UNL     1     -16.720 -42.633  24.601  1.00  0.00     0.073 A 
ATOM     17  N   UNL     1     -17.370 -42.281  23.483  1.00  0.00    -0.252 NA
ATOM     18  C   UNL     1     -19.273 -41.419  22.273  1.00  0.00     0.056 C 
ATOM     19  C   UNL     1     -21.394 -40.991  23.505  1.00  0.00     0.005 C 
ATOM     20  C   UNL     1     -15.208 -43.368  26.861  1.00  0.00     0.001 A 
ATOM     21  C   UNL     1     -15.435 -43.145  24.477  1.00  0.00     0.029 A 
ATOM     22  C   UNL     1     -20.460 -40.474  22.422  1.00  0.00     0.007 C 
ATOM     23  C   UNL     1     -14.676 -43.517  25.589  1.00  0.00     0.002 A 
ENDBRANCH   8  10
ENDBRANCH   1   8
TORSDOF 3
ENDMDL
