MODEL 1
REMARK VINA RESULT:    -9.925      0.000      0.000
REMARK INTER + INTRA:         -15.921
REMARK INTER:                 -14.857
REMARK INTRA:                  -1.064
REMARK UNBOUND:                -1.064
REMARK SMILES COc1ccc(C[C@@H](C)C(=O)O)cc1CNC(=O)c1ccc(C(F)(F)F)cc1
REMARK SMILES IDX 3 1 4 2 5 3 6 4 13 5 14 6 2 7 1 8 15 9 16 10 17 11 18 12
REMARK SMILES IDX 19 14 20 15 28 16 21 17 27 18 22 19 23 20 24 21 25 22 26 23
REMARK SMILES IDX 7 24 8 25 9 26 10 27 11 28 12 29
REMARK H PARENT 16 13 12 30
ROOT
ATOM      1  C   UNL     1      43.336 -38.078 107.459  1.00  0.00     0.123 A 
ATOM      2  C   UNL     1      44.171 -38.501 108.499  1.00  0.00     0.047 A 
ATOM      3  C   UNL     1      44.850 -39.720 108.417  1.00  0.00     0.007 A 
ATOM      4  C   UNL     1      44.715 -40.536 107.291  1.00  0.00    -0.047 A 
ATOM      5  C   UNL     1      43.876 -40.117 106.253  1.00  0.00     0.013 A 
ATOM      6  C   UNL     1      43.174 -38.900 106.330  1.00  0.00     0.014 A 
ENDROOT
BRANCH   1   7
ATOM      7  O   UNL     1      42.653 -36.890 107.442  1.00  0.00    -0.496 OA
ATOM      8  C   UNL     1      41.683 -36.681 108.463  1.00  0.00     0.278 C 
ENDBRANCH   1   7
BRANCH   6   9
ATOM      9  C   UNL     1      42.299 -38.492 105.170  1.00  0.00     0.156 C 
BRANCH   9  10
ATOM     10  N   UNL     1      42.787 -39.068 103.937  1.00  0.00    -0.348 N 
ATOM     11  C   UNL     1      42.086 -38.970 102.757  1.00  0.00     0.251 C 
ATOM     12  O   UNL     1      41.011 -38.390 102.649  1.00  0.00    -0.269 OA
ATOM     13  H   UNL     1      43.593 -39.669 104.013  1.00  0.00     0.164 HD
BRANCH  11  14
ATOM     14  C   UNL     1      42.684 -39.652 101.574  1.00  0.00     0.039 A 
ATOM     15  C   UNL     1      43.710 -40.596 101.697  1.00  0.00     0.014 A 
ATOM     16  C   UNL     1      42.212 -39.308 100.302  1.00  0.00     0.014 A 
ATOM     17  C   UNL     1      44.242 -41.205 100.556  1.00  0.00     0.014 A 
ATOM     18  C   UNL     1      42.743 -39.918  99.162  1.00  0.00     0.014 A 
ATOM     19  C   UNL     1      43.767 -40.870  99.277  1.00  0.00     0.056 A 
BRANCH  19  20
ATOM     20  C   UNL     1      44.330 -41.546  98.049  1.00  0.00     0.416 C 
ATOM     21  F   UNL     1      45.149 -42.596  98.340  1.00  0.00    -0.166 F 
ATOM     22  F   UNL     1      45.068 -40.695  97.285  1.00  0.00    -0.166 F 
ATOM     23  F   UNL     1      43.364 -42.046  97.227  1.00  0.00    -0.166 F 
ENDBRANCH  19  20
ENDBRANCH  11  14
ENDBRANCH   9  10
ENDBRANCH   6   9
BRANCH   4  24
ATOM     24  C   UNL     1      45.447 -41.855 107.199  1.00  0.00     0.050 C 
BRANCH  24  25
ATOM     25  C   UNL     1      44.525 -43.021 106.818  1.00  0.00     0.100 C 
ATOM     26  C   UNL     1      44.957 -43.648 105.495  1.00  0.00     0.020 C 
BRANCH  25  27
ATOM     27  C   UNL     1      44.548 -44.093 107.882  1.00  0.00     0.306 C 
ATOM     28  O   UNL     1      43.615 -44.789 108.245  1.00  0.00    -0.252 OA
BRANCH  27  29
ATOM     29  O   UNL     1      45.752 -44.200 108.478  1.00  0.00    -0.481 OA
ATOM     30  H   UNL     1      45.885 -43.327 108.905  1.00  0.00     0.296 HD
ENDBRANCH  27  29
ENDBRANCH  25  27
ENDBRANCH  24  25
ENDBRANCH   4  24
TORSDOF 9
ENDMDL
MODEL 2
REMARK VINA RESULT:    -9.566      2.397      4.697
REMARK INTER + INTRA:         -15.384
REMARK INTER:                 -14.403
REMARK INTRA:                  -0.981
REMARK UNBOUND:                -1.064
REMARK SMILES COc1ccc(C[C@@H](C)C(=O)O)cc1CNC(=O)c1ccc(C(F)(F)F)cc1
REMARK SMILES IDX 3 1 4 2 5 3 6 4 13 5 14 6 2 7 1 8 15 9 16 10 17 11 18 12
REMARK SMILES IDX 19 14 20 15 28 16 21 17 27 18 22 19 23 20 24 21 25 22 26 23
REMARK SMILES IDX 7 24 8 25 9 26 10 27 11 28 12 29
REMARK H PARENT 16 13 12 30
ROOT
ATOM      1  C   UNL     1      45.239 -42.251 107.443  1.00  0.00     0.123 A 
ATOM      2  C   UNL     1      46.428 -42.384 108.169  1.00  0.00     0.047 A 
ATOM      3  C   UNL     1      47.301 -41.301 108.309  1.00  0.00     0.007 A 
ATOM      4  C   UNL     1      46.999 -40.064 107.736  1.00  0.00    -0.047 A 
ATOM      5  C   UNL     1      45.813 -39.931 107.005  1.00  0.00     0.013 A 
ATOM      6  C   UNL     1      44.935 -41.017 106.841  1.00  0.00     0.014 A 
ENDROOT
BRANCH   1   7
ATOM      7  O   UNL     1      44.314 -43.248 107.274  1.00  0.00    -0.496 OA
ATOM      8  C   UNL     1      44.391 -44.365 108.153  1.00  0.00     0.278 C 
ENDBRANCH   1   7
BRANCH   6   9
ATOM      9  C   UNL     1      43.661 -40.809 106.060  1.00  0.00     0.156 C 
BRANCH   9  10
ATOM     10  N   UNL     1      43.912 -40.906 104.639  1.00  0.00    -0.348 N 
ATOM     11  C   UNL     1      42.925 -40.696 103.705  1.00  0.00     0.251 C 
ATOM     12  O   UNL     1      41.769 -40.405 103.991  1.00  0.00    -0.269 OA
ATOM     13  H   UNL     1      44.811 -41.278 104.369  1.00  0.00     0.164 HD
BRANCH  11  14
ATOM     14  C   UNL     1      43.314 -40.877 102.278  1.00  0.00     0.039 A 
ATOM     15  C   UNL     1      42.951 -39.961 101.283  1.00  0.00     0.014 A 
ATOM     16  C   UNL     1      44.047 -42.018 101.931  1.00  0.00     0.014 A 
ATOM     17  C   UNL     1      43.338 -40.178  99.957  1.00  0.00     0.014 A 
ATOM     18  C   UNL     1      44.434 -42.233 100.605  1.00  0.00     0.014 A 
ATOM     19  C   UNL     1      44.080 -41.317  99.603  1.00  0.00     0.056 A 
BRANCH  19  20
ATOM     20  C   UNL     1      44.513 -41.535  98.173  1.00  0.00     0.416 C 
ATOM     21  F   UNL     1      43.473 -41.767  97.324  1.00  0.00    -0.166 F 
ATOM     22  F   UNL     1      45.347 -42.604  98.045  1.00  0.00    -0.166 F 
ATOM     23  F   UNL     1      45.187 -40.471  97.652  1.00  0.00    -0.166 F 
ENDBRANCH  19  20
ENDBRANCH  11  14
ENDBRANCH   9  10
ENDBRANCH   6   9
BRANCH   4  24
ATOM     24  C   UNL     1      47.941 -38.891 107.885  1.00  0.00     0.050 C 
BRANCH  24  25
ATOM     25  C   UNL     1      47.206 -37.549 108.000  1.00  0.00     0.100 C 
ATOM     26  C   UNL     1      46.869 -37.235 109.455  1.00  0.00     0.020 C 
BRANCH  25  27
ATOM     27  C   UNL     1      48.054 -36.425 107.454  1.00  0.00     0.306 C 
ATOM     28  O   UNL     1      49.271 -36.346 107.471  1.00  0.00    -0.252 OA
BRANCH  27  29
ATOM     29  O   UNL     1      47.313 -35.418 106.950  1.00  0.00    -0.481 OA
ATOM     30  H   UNL     1      46.440 -35.524 107.384  1.00  0.00     0.296 HD
ENDBRANCH  27  29
ENDBRANCH  25  27
ENDBRANCH  24  25
ENDBRANCH   4  24
TORSDOF 9
ENDMDL
MODEL 3
REMARK VINA RESULT:    -9.388      2.082      2.460
REMARK INTER + INTRA:         -15.118
REMARK INTER:                 -14.039
REMARK INTRA:                  -1.079
REMARK UNBOUND:                -1.064
REMARK SMILES COc1ccc(C[C@@H](C)C(=O)O)cc1CNC(=O)c1ccc(C(F)(F)F)cc1
REMARK SMILES IDX 3 1 4 2 5 3 6 4 13 5 14 6 2 7 1 8 15 9 16 10 17 11 18 12
REMARK SMILES IDX 19 14 20 15 28 16 21 17 27 18 22 19 23 20 24 21 25 22 26 23
REMARK SMILES IDX 7 24 8 25 9 26 10 27 11 28 12 29
REMARK H PARENT 16 13 12 30
ROOT
ATOM      1  C   UNL     1      41.785 -39.142 107.327  1.00  0.00     0.123 A 
ATOM      2  C   UNL     1      42.682 -39.259 108.395  1.00  0.00     0.047 A 
ATOM      3  C   UNL     1      43.954 -39.806 108.201  1.00  0.00     0.007 A 
ATOM      4  C   UNL     1      44.357 -40.238 106.935  1.00  0.00    -0.047 A 
ATOM      5  C   UNL     1      43.460 -40.127 105.868  1.00  0.00     0.013 A 
ATOM      6  C   UNL     1      42.171 -39.594 106.053  1.00  0.00     0.014 A 
ENDROOT
BRANCH   1   7
ATOM      7  O   UNL     1      40.531 -38.597 107.419  1.00  0.00    -0.496 OA
ATOM      8  C   UNL     1      40.279 -37.722 108.513  1.00  0.00     0.278 C 
ENDBRANCH   1   7
BRANCH   6   9
ATOM      9  C   UNL     1      41.255 -39.480 104.860  1.00  0.00     0.156 C 
BRANCH   9  10
ATOM     10  N   UNL     1      41.892 -40.011 103.675  1.00  0.00    -0.348 N 
ATOM     11  C   UNL     1      42.139 -39.234 102.567  1.00  0.00     0.251 C 
ATOM     12  O   UNL     1      41.852 -38.044 102.492  1.00  0.00    -0.269 OA
ATOM     13  H   UNL     1      42.015 -41.011 103.644  1.00  0.00     0.164 HD
BRANCH  11  14
ATOM     14  C   UNL     1      42.758 -39.923 101.400  1.00  0.00     0.039 A 
ATOM     15  C   UNL     1      43.731 -40.918 101.551  1.00  0.00     0.014 A 
ATOM     16  C   UNL     1      42.361 -39.536 100.114  1.00  0.00     0.014 A 
ATOM     17  C   UNL     1      44.286 -41.532 100.424  1.00  0.00     0.014 A 
ATOM     18  C   UNL     1      42.915 -40.152  98.989  1.00  0.00     0.014 A 
ATOM     19  C   UNL     1      43.887 -41.154  99.131  1.00  0.00     0.056 A 
BRANCH  19  20
ATOM     20  C   UNL     1      44.473 -41.836  97.918  1.00  0.00     0.416 C 
ATOM     21  F   UNL     1      45.230 -41.005  97.147  1.00  0.00    -0.166 F 
ATOM     22  F   UNL     1      43.512 -42.338  97.095  1.00  0.00    -0.166 F 
ATOM     23  F   UNL     1      45.280 -42.886  98.236  1.00  0.00    -0.166 F 
ENDBRANCH  19  20
ENDBRANCH  11  14
ENDBRANCH   9  10
ENDBRANCH   6   9
BRANCH   4  24
ATOM     24  C   UNL     1      45.731 -40.830 106.722  1.00  0.00     0.050 C 
BRANCH  24  25
ATOM     25  C   UNL     1      46.582 -40.834 108.000  1.00  0.00     0.100 C 
ATOM     26  C   UNL     1      46.908 -42.261 108.433  1.00  0.00     0.020 C 
BRANCH  25  27
ATOM     27  C   UNL     1      47.880 -40.093 107.782  1.00  0.00     0.306 C 
ATOM     28  O   UNL     1      48.150 -39.337 106.864  1.00  0.00    -0.252 OA
BRANCH  27  29
ATOM     29  O   UNL     1      48.803 -40.386 108.719  1.00  0.00    -0.481 OA
ATOM     30  H   UNL     1      49.542 -39.771 108.528  1.00  0.00     0.296 HD
ENDBRANCH  27  29
ENDBRANCH  25  27
ENDBRANCH  24  25
ENDBRANCH   4  24
TORSDOF 9
ENDMDL
MODEL 4
REMARK VINA RESULT:    -9.259      5.781      7.499
REMARK INTER + INTRA:         -14.923
REMARK INTER:                 -13.757
REMARK INTRA:                  -1.167
REMARK UNBOUND:                -1.064
REMARK SMILES COc1ccc(C[C@@H](C)C(=O)O)cc1CNC(=O)c1ccc(C(F)(F)F)cc1
REMARK SMILES IDX 3 1 4 2 5 3 6 4 13 5 14 6 2 7 1 8 15 9 16 10 17 11 18 12
REMARK SMILES IDX 19 14 20 15 28 16 21 17 27 18 22 19 23 20 24 21 25 22 26 23
REMARK SMILES IDX 7 24 8 25 9 26 10 27 11 28 12 29
REMARK H PARENT 16 13 12 30
ROOT
ATOM      1  C   UNL     1      36.852 -38.193 110.071  1.00  0.00     0.123 A 
ATOM      2  C   UNL     1      37.950 -38.108 110.934  1.00  0.00     0.047 A 
ATOM      3  C   UNL     1      39.238 -38.411 110.481  1.00  0.00     0.007 A 
ATOM      4  C   UNL     1      39.454 -38.797 109.156  1.00  0.00    -0.047 A 
ATOM      5  C   UNL     1      38.356 -38.888 108.293  1.00  0.00     0.013 A 
ATOM      6  C   UNL     1      37.053 -38.601 108.741  1.00  0.00     0.014 A 
ENDROOT
BRANCH   1   7
ATOM      7  O   UNL     1      35.562 -37.891 110.420  1.00  0.00    -0.496 OA
ATOM      8  C   UNL     1      35.296 -36.559 110.846  1.00  0.00     0.278 C 
ENDBRANCH   1   7
BRANCH   6   9
ATOM      9  C   UNL     1      35.911 -38.697 107.759  1.00  0.00     0.156 C 
BRANCH   9  10
ATOM     10  N   UNL     1      36.231 -37.997 106.535  1.00  0.00    -0.348 N 
ATOM     11  C   UNL     1      36.168 -38.609 105.304  1.00  0.00     0.251 C 
ATOM     12  O   UNL     1      35.834 -39.777 105.142  1.00  0.00    -0.269 OA
ATOM     13  H   UNL     1      36.642 -37.082 106.639  1.00  0.00     0.164 HD
BRANCH  11  14
ATOM     14  C   UNL     1      36.570 -37.781 104.133  1.00  0.00     0.039 A 
ATOM     15  C   UNL     1      36.029 -36.513 103.894  1.00  0.00     0.014 A 
ATOM     16  C   UNL     1      37.505 -38.313 103.235  1.00  0.00     0.014 A 
ATOM     17  C   UNL     1      36.436 -35.776 102.777  1.00  0.00     0.014 A 
ATOM     18  C   UNL     1      37.912 -37.575 102.121  1.00  0.00     0.014 A 
ATOM     19  C   UNL     1      37.378 -36.300 101.877  1.00  0.00     0.056 A 
BRANCH  19  20
ATOM     20  C   UNL     1      37.831 -35.492 100.684  1.00  0.00     0.416 C 
ATOM     21  F   UNL     1      39.153 -35.655 100.394  1.00  0.00    -0.166 F 
ATOM     22  F   UNL     1      37.650 -34.155 100.868  1.00  0.00    -0.166 F 
ATOM     23  F   UNL     1      37.160 -35.808  99.541  1.00  0.00    -0.166 F 
ENDBRANCH  19  20
ENDBRANCH  11  14
ENDBRANCH   9  10
ENDBRANCH   6   9
BRANCH   4  24
ATOM     24  C   UNL     1      40.844 -39.126 108.663  1.00  0.00     0.050 C 
BRANCH  24  25
ATOM     25  C   UNL     1      41.911 -38.168 109.210  1.00  0.00     0.100 C 
ATOM     26  C   UNL     1      43.280 -38.842 109.249  1.00  0.00     0.020 C 
BRANCH  25  27
ATOM     27  C   UNL     1      42.013 -36.931 108.349  1.00  0.00     0.306 C 
ATOM     28  O   UNL     1      42.689 -36.788 107.344  1.00  0.00    -0.252 OA
BRANCH  27  29
ATOM     29  O   UNL     1      41.286 -35.905 108.834  1.00  0.00    -0.481 OA
ATOM     30  H   UNL     1      41.657 -35.116 108.386  1.00  0.00     0.296 HD
ENDBRANCH  27  29
ENDBRANCH  25  27
ENDBRANCH  24  25
ENDBRANCH   4  24
TORSDOF 9
ENDMDL
MODEL 5
REMARK VINA RESULT:    -9.174      2.318      4.747
REMARK INTER + INTRA:         -14.797
REMARK INTER:                 -13.710
REMARK INTRA:                  -1.088
REMARK UNBOUND:                -1.064
REMARK SMILES COc1ccc(C[C@@H](C)C(=O)O)cc1CNC(=O)c1ccc(C(F)(F)F)cc1
REMARK SMILES IDX 3 1 4 2 5 3 6 4 13 5 14 6 2 7 1 8 15 9 16 10 17 11 18 12
REMARK SMILES IDX 19 14 20 15 28 16 21 17 27 18 22 19 23 20 24 21 25 22 26 23
REMARK SMILES IDX 7 24 8 25 9 26 10 27 11 28 12 29
REMARK H PARENT 16 13 12 30
ROOT
ATOM      1  C   UNL     1      45.941 -40.292 107.648  1.00  0.00     0.123 A 
ATOM      2  C   UNL     1      45.940 -39.210 108.535  1.00  0.00     0.047 A 
ATOM      3  C   UNL     1      44.761 -38.810 109.170  1.00  0.00     0.007 A 
ATOM      4  C   UNL     1      43.562 -39.488 108.937  1.00  0.00    -0.047 A 
ATOM      5  C   UNL     1      43.560 -40.567 108.046  1.00  0.00     0.013 A 
ATOM      6  C   UNL     1      44.736 -40.969 107.388  1.00  0.00     0.014 A 
ENDROOT
BRANCH   1   7
ATOM      7  O   UNL     1      47.052 -40.770 107.002  1.00  0.00    -0.496 OA
ATOM      8  C   UNL     1      48.263 -40.039 107.161  1.00  0.00     0.278 C 
ENDBRANCH   1   7
BRANCH   6   9
ATOM      9  C   UNL     1      44.677 -42.152 106.454  1.00  0.00     0.156 C 
BRANCH   9  10
ATOM     10  N   UNL     1      44.214 -41.746 105.146  1.00  0.00    -0.348 N 
ATOM     11  C   UNL     1      44.834 -42.159 103.989  1.00  0.00     0.251 C 
ATOM     12  O   UNL     1      45.812 -42.899 103.968  1.00  0.00    -0.269 OA
ATOM     13  H   UNL     1      43.503 -41.031 105.126  1.00  0.00     0.164 HD
BRANCH  11  14
ATOM     14  C   UNL     1      44.279 -41.625 102.714  1.00  0.00     0.039 A 
ATOM     15  C   UNL     1      43.427 -40.514 102.678  1.00  0.00     0.014 A 
ATOM     16  C   UNL     1      44.609 -42.280 101.521  1.00  0.00     0.014 A 
ATOM     17  C   UNL     1      42.928 -40.054 101.455  1.00  0.00     0.014 A 
ATOM     18  C   UNL     1      44.111 -41.818 100.300  1.00  0.00     0.014 A 
ATOM     19  C   UNL     1      43.261 -40.702 100.254  1.00  0.00     0.056 A 
BRANCH  19  20
ATOM     20  C   UNL     1      42.737 -40.188  98.934  1.00  0.00     0.416 C 
ATOM     21  F   UNL     1      41.955 -41.090  98.278  1.00  0.00    -0.166 F 
ATOM     22  F   UNL     1      43.740 -39.864  98.073  1.00  0.00    -0.166 F 
ATOM     23  F   UNL     1      41.978 -39.064  99.065  1.00  0.00    -0.166 F 
ENDBRANCH  19  20
ENDBRANCH  11  14
ENDBRANCH   9  10
ENDBRANCH   6   9
BRANCH   4  24
ATOM     24  C   UNL     1      42.285 -39.058 109.621  1.00  0.00     0.050 C 
BRANCH  24  25
ATOM     25  C   UNL     1      41.239 -38.512 108.639  1.00  0.00     0.100 C 
ATOM     26  C   UNL     1      39.838 -38.584 109.240  1.00  0.00     0.020 C 
BRANCH  25  27
ATOM     27  C   UNL     1      41.533 -37.073 108.287  1.00  0.00     0.306 C 
ATOM     28  O   UNL     1      42.356 -36.665 107.484  1.00  0.00    -0.252 OA
BRANCH  27  29
ATOM     29  O   UNL     1      40.799 -36.206 109.012  1.00  0.00    -0.481 OA
ATOM     30  H   UNL     1      41.241 -36.193 109.887  1.00  0.00     0.296 HD
ENDBRANCH  27  29
ENDBRANCH  25  27
ENDBRANCH  24  25
ENDBRANCH   4  24
TORSDOF 9
ENDMDL
MODEL 6
REMARK VINA RESULT:    -9.146      1.862      2.754
REMARK INTER + INTRA:         -14.756
REMARK INTER:                 -13.632
REMARK INTRA:                  -1.124
REMARK UNBOUND:                -1.064
REMARK SMILES COc1ccc(C[C@@H](C)C(=O)O)cc1CNC(=O)c1ccc(C(F)(F)F)cc1
REMARK SMILES IDX 3 1 4 2 5 3 6 4 13 5 14 6 2 7 1 8 15 9 16 10 17 11 18 12
REMARK SMILES IDX 19 14 20 15 28 16 21 17 27 18 22 19 23 20 24 21 25 22 26 23
REMARK SMILES IDX 7 24 8 25 9 26 10 27 11 28 12 29
REMARK H PARENT 16 13 12 30
ROOT
ATOM      1  C   UNL     1      46.139 -38.718 108.373  1.00  0.00     0.123 A 
ATOM      2  C   UNL     1      47.160 -39.526 108.883  1.00  0.00     0.047 A 
ATOM      3  C   UNL     1      47.047 -40.919 108.858  1.00  0.00     0.007 A 
ATOM      4  C   UNL     1      45.916 -41.531 108.314  1.00  0.00    -0.047 A 
ATOM      5  C   UNL     1      44.891 -40.725 107.807  1.00  0.00     0.013 A 
ATOM      6  C   UNL     1      44.985 -39.321 107.842  1.00  0.00     0.014 A 
ENDROOT
BRANCH   1   7
ATOM      7  O   UNL     1      46.175 -37.348 108.332  1.00  0.00    -0.496 OA
ATOM      8  C   UNL     1      47.436 -36.723 108.543  1.00  0.00     0.278 C 
ENDBRANCH   1   7
BRANCH   6   9
ATOM      9  C   UNL     1      43.857 -38.504 107.262  1.00  0.00     0.156 C 
BRANCH   9  10
ATOM     10  N   UNL     1      43.764 -38.704 105.834  1.00  0.00    -0.348 N 
ATOM     11  C   UNL     1      42.739 -39.421 105.260  1.00  0.00     0.251 C 
ATOM     12  O   UNL     1      41.827 -39.935 105.899  1.00  0.00    -0.269 OA
ATOM     13  H   UNL     1      44.564 -38.418 105.290  1.00  0.00     0.164 HD
BRANCH  11  14
ATOM     14  C   UNL     1      42.795 -39.588 103.781  1.00  0.00     0.039 A 
ATOM     15  C   UNL     1      42.364 -38.588 102.900  1.00  0.00     0.014 A 
ATOM     16  C   UNL     1      43.274 -40.799 103.268  1.00  0.00     0.014 A 
ATOM     17  C   UNL     1      42.433 -38.795 101.518  1.00  0.00     0.014 A 
ATOM     18  C   UNL     1      43.344 -41.004 101.888  1.00  0.00     0.014 A 
ATOM     19  C   UNL     1      42.920 -40.006 100.998  1.00  0.00     0.056 A 
BRANCH  19  20
ATOM     20  C   UNL     1      43.013 -40.216  99.505  1.00  0.00     0.416 C 
ATOM     21  F   UNL     1      42.451 -41.386  99.090  1.00  0.00    -0.166 F 
ATOM     22  F   UNL     1      44.302 -40.243  99.068  1.00  0.00    -0.166 F 
ATOM     23  F   UNL     1      42.395 -39.234  98.790  1.00  0.00    -0.166 F 
ENDBRANCH  19  20
ENDBRANCH  11  14
ENDBRANCH   9  10
ENDBRANCH   6   9
BRANCH   4  24
ATOM     24  C   UNL     1      45.790 -43.037 108.285  1.00  0.00     0.050 C 
BRANCH  24  25
ATOM     25  C   UNL     1      44.495 -43.513 107.611  1.00  0.00     0.100 C 
ATOM     26  C   UNL     1      44.744 -43.881 106.151  1.00  0.00     0.020 C 
BRANCH  25  27
ATOM     27  C   UNL     1      43.936 -44.724 108.319  1.00  0.00     0.306 C 
ATOM     28  O   UNL     1      44.422 -45.309 109.273  1.00  0.00    -0.252 OA
BRANCH  27  29
ATOM     29  O   UNL     1      42.800 -45.174 107.750  1.00  0.00    -0.481 OA
ATOM     30  H   UNL     1      42.356 -45.675 108.466  1.00  0.00     0.296 HD
ENDBRANCH  27  29
ENDBRANCH  25  27
ENDBRANCH  24  25
ENDBRANCH   4  24
TORSDOF 9
ENDMDL
MODEL 7
REMARK VINA RESULT:    -8.964      6.113      7.619
REMARK INTER + INTRA:         -14.483
REMARK INTER:                 -13.337
REMARK INTRA:                  -1.146
REMARK UNBOUND:                -1.064
REMARK SMILES COc1ccc(C[C@@H](C)C(=O)O)cc1CNC(=O)c1ccc(C(F)(F)F)cc1
REMARK SMILES IDX 3 1 4 2 5 3 6 4 13 5 14 6 2 7 1 8 15 9 16 10 17 11 18 12
REMARK SMILES IDX 19 14 20 15 28 16 21 17 27 18 22 19 23 20 24 21 25 22 26 23
REMARK SMILES IDX 7 24 8 25 9 26 10 27 11 28 12 29
REMARK H PARENT 16 13 12 30
ROOT
ATOM      1  C   UNL     1      46.263 -38.683 108.490  1.00  0.00     0.123 A 
ATOM      2  C   UNL     1      47.119 -39.549 109.177  1.00  0.00     0.047 A 
ATOM      3  C   UNL     1      46.977 -40.935 109.058  1.00  0.00     0.007 A 
ATOM      4  C   UNL     1      45.983 -41.481 108.243  1.00  0.00    -0.047 A 
ATOM      5  C   UNL     1      45.122 -40.616 107.559  1.00  0.00     0.013 A 
ATOM      6  C   UNL     1      45.244 -39.220 107.684  1.00  0.00     0.014 A 
ENDROOT
BRANCH   1   7
ATOM      7  O   UNL     1      46.343 -37.315 108.527  1.00  0.00    -0.496 OA
ATOM      8  C   UNL     1      47.500 -36.715 107.955  1.00  0.00     0.278 C 
ENDBRANCH   1   7
BRANCH   6   9
ATOM      9  C   UNL     1      44.299 -38.337 106.905  1.00  0.00     0.156 C 
BRANCH   9  10
ATOM     10  N   UNL     1      42.929 -38.589 107.294  1.00  0.00    -0.348 N 
ATOM     11  C   UNL     1      42.283 -37.823 108.237  1.00  0.00     0.251 C 
ATOM     12  O   UNL     1      42.802 -36.873 108.812  1.00  0.00    -0.269 OA
ATOM     13  H   UNL     1      42.516 -39.442 106.948  1.00  0.00     0.164 HD
BRANCH  11  14
ATOM     14  C   UNL     1      40.889 -38.225 108.574  1.00  0.00     0.039 A 
ATOM     15  C   UNL     1      39.899 -38.380 107.595  1.00  0.00     0.014 A 
ATOM     16  C   UNL     1      40.565 -38.428 109.921  1.00  0.00     0.014 A 
ATOM     17  C   UNL     1      38.603 -38.755 107.963  1.00  0.00     0.014 A 
ATOM     18  C   UNL     1      39.269 -38.804 110.287  1.00  0.00     0.014 A 
ATOM     19  C   UNL     1      38.273 -38.967 109.312  1.00  0.00     0.056 A 
BRANCH  19  20
ATOM     20  C   UNL     1      36.878 -39.393 109.702  1.00  0.00     0.416 C 
ATOM     21  F   UNL     1      36.368 -38.676 110.743  1.00  0.00    -0.166 F 
ATOM     22  F   UNL     1      36.826 -40.699 110.085  1.00  0.00    -0.166 F 
ATOM     23  F   UNL     1      35.979 -39.265 108.687  1.00  0.00    -0.166 F 
ENDBRANCH  19  20
ENDBRANCH  11  14
ENDBRANCH   9  10
ENDBRANCH   6   9
BRANCH   4  24
ATOM     24  C   UNL     1      45.827 -42.979 108.112  1.00  0.00     0.050 C 
BRANCH  24  25
ATOM     25  C   UNL     1      44.520 -43.381 107.414  1.00  0.00     0.100 C 
ATOM     26  C   UNL     1      44.767 -43.713 105.944  1.00  0.00     0.020 C 
BRANCH  25  27
ATOM     27  C   UNL     1      43.908 -44.591 108.079  1.00  0.00     0.306 C 
ATOM     28  O   UNL     1      42.868 -45.151 107.774  1.00  0.00    -0.252 OA
BRANCH  27  29
ATOM     29  O   UNL     1      44.622 -45.011 109.142  1.00  0.00    -0.481 OA
ATOM     30  H   UNL     1      44.254 -44.501 109.893  1.00  0.00     0.296 HD
ENDBRANCH  27  29
ENDBRANCH  25  27
ENDBRANCH  24  25
ENDBRANCH   4  24
TORSDOF 9
ENDMDL
MODEL 8
REMARK VINA RESULT:    -8.934      5.582      8.609
REMARK INTER + INTRA:         -14.437
REMARK INTER:                 -13.471
REMARK INTRA:                  -0.966
REMARK UNBOUND:                -1.064
REMARK SMILES COc1ccc(C[C@@H](C)C(=O)O)cc1CNC(=O)c1ccc(C(F)(F)F)cc1
REMARK SMILES IDX 3 1 4 2 5 3 6 4 13 5 14 6 2 7 1 8 15 9 16 10 17 11 18 12
REMARK SMILES IDX 19 14 20 15 28 16 21 17 27 18 22 19 23 20 24 21 25 22 26 23
REMARK SMILES IDX 7 24 8 25 9 26 10 27 11 28 12 29
REMARK H PARENT 16 13 12 30
ROOT
ATOM      1  C   UNL     1      37.832 -38.873 109.668  1.00  0.00     0.123 A 
ATOM      2  C   UNL     1      36.577 -39.490 109.621  1.00  0.00     0.047 A 
ATOM      3  C   UNL     1      35.761 -39.360 108.493  1.00  0.00     0.007 A 
ATOM      4  C   UNL     1      36.187 -38.618 107.388  1.00  0.00    -0.047 A 
ATOM      5  C   UNL     1      37.439 -37.995 107.437  1.00  0.00     0.013 A 
ATOM      6  C   UNL     1      38.262 -38.105 108.572  1.00  0.00     0.014 A 
ENDROOT
BRANCH   1   7
ATOM      7  O   UNL     1      38.707 -38.967 110.719  1.00  0.00    -0.496 OA
ATOM      8  C   UNL     1      38.714 -37.898 111.659  1.00  0.00     0.278 C 
ENDBRANCH   1   7
BRANCH   6   9
ATOM      9  C   UNL     1      39.611 -37.428 108.558  1.00  0.00     0.156 C 
BRANCH   9  10
ATOM     10  N   UNL     1      40.673 -38.408 108.534  1.00  0.00    -0.348 N 
ATOM     11  C   UNL     1      41.998 -38.050 108.430  1.00  0.00     0.251 C 
ATOM     12  O   UNL     1      42.385 -36.889 108.359  1.00  0.00    -0.269 OA
ATOM     13  H   UNL     1      40.389 -39.372 108.449  1.00  0.00     0.164 HD
BRANCH  11  14
ATOM     14  C   UNL     1      42.982 -39.166 108.368  1.00  0.00     0.039 A 
ATOM     15  C   UNL     1      43.965 -39.350 109.348  1.00  0.00     0.014 A 
ATOM     16  C   UNL     1      42.926 -40.040 107.275  1.00  0.00     0.014 A 
ATOM     17  C   UNL     1      44.870 -40.411 109.242  1.00  0.00     0.014 A 
ATOM     18  C   UNL     1      43.829 -41.101 107.172  1.00  0.00     0.014 A 
ATOM     19  C   UNL     1      44.814 -41.295 108.152  1.00  0.00     0.056 A 
BRANCH  19  20
ATOM     20  C   UNL     1      45.779 -42.453 108.054  1.00  0.00     0.416 C 
ATOM     21  F   UNL     1      46.952 -42.233 108.711  1.00  0.00    -0.166 F 
ATOM     22  F   UNL     1      46.118 -42.733 106.765  1.00  0.00    -0.166 F 
ATOM     23  F   UNL     1      45.277 -43.610 108.568  1.00  0.00    -0.166 F 
ENDBRANCH  19  20
ENDBRANCH  11  14
ENDBRANCH   9  10
ENDBRANCH   6   9
BRANCH   4  24
ATOM     24  C   UNL     1      35.307 -38.474 106.168  1.00  0.00     0.050 C 
BRANCH  24  25
ATOM     25  C   UNL     1      35.984 -38.976 104.885  1.00  0.00     0.100 C 
ATOM     26  C   UNL     1      35.304 -40.243 104.370  1.00  0.00     0.020 C 
BRANCH  25  27
ATOM     27  C   UNL     1      35.921 -37.928 103.800  1.00  0.00     0.306 C 
ATOM     28  O   UNL     1      36.214 -38.067 102.624  1.00  0.00    -0.252 OA
BRANCH  27  29
ATOM     29  O   UNL     1      35.534 -36.725 104.269  1.00  0.00    -0.481 OA
ATOM     30  H   UNL     1      35.923 -36.085 103.636  1.00  0.00     0.296 HD
ENDBRANCH  27  29
ENDBRANCH  25  27
ENDBRANCH  24  25
ENDBRANCH   4  24
TORSDOF 9
ENDMDL
MODEL 9
REMARK VINA RESULT:    -8.915      2.876      5.274
REMARK INTER + INTRA:         -14.410
REMARK INTER:                 -13.270
REMARK INTRA:                  -1.140
REMARK UNBOUND:                -1.064
REMARK SMILES COc1ccc(C[C@@H](C)C(=O)O)cc1CNC(=O)c1ccc(C(F)(F)F)cc1
REMARK SMILES IDX 3 1 4 2 5 3 6 4 13 5 14 6 2 7 1 8 15 9 16 10 17 11 18 12
REMARK SMILES IDX 19 14 20 15 28 16 21 17 27 18 22 19 23 20 24 21 25 22 26 23
REMARK SMILES IDX 7 24 8 25 9 26 10 27 11 28 12 29
REMARK H PARENT 16 13 12 30
ROOT
ATOM      1  C   UNL     1      45.599 -40.697 108.542  1.00  0.00     0.123 A 
ATOM      2  C   UNL     1      46.840 -40.409 109.120  1.00  0.00     0.047 A 
ATOM      3  C   UNL     1      47.183 -39.095 109.453  1.00  0.00     0.007 A 
ATOM      4  C   UNL     1      46.290 -38.046 109.223  1.00  0.00    -0.047 A 
ATOM      5  C   UNL     1      45.051 -38.332 108.640  1.00  0.00     0.013 A 
ATOM      6  C   UNL     1      44.700 -39.647 108.285  1.00  0.00     0.014 A 
ENDROOT
BRANCH   1   7
ATOM      7  O   UNL     1      45.168 -41.954 108.208  1.00  0.00    -0.496 OA
ATOM      8  C   UNL     1      46.155 -42.974 108.098  1.00  0.00     0.278 C 
ENDBRANCH   1   7
BRANCH   6   9
ATOM      9  C   UNL     1      43.341 -39.897 107.679  1.00  0.00     0.156 C 
BRANCH   9  10
ATOM     10  N   UNL     1      43.451 -40.117 106.254  1.00  0.00    -0.348 N 
ATOM     11  C   UNL     1      42.778 -39.341 105.339  1.00  0.00     0.251 C 
ATOM     12  O   UNL     1      42.047 -38.406 105.646  1.00  0.00    -0.269 OA
ATOM     13  H   UNL     1      43.929 -40.958 105.968  1.00  0.00     0.164 HD
BRANCH  11  14
ATOM     14  C   UNL     1      42.947 -39.712 103.906  1.00  0.00     0.039 A 
ATOM     15  C   UNL     1      42.708 -38.804 102.867  1.00  0.00     0.014 A 
ATOM     16  C   UNL     1      43.334 -41.022 103.601  1.00  0.00     0.014 A 
ATOM     17  C   UNL     1      42.877 -39.202 101.537  1.00  0.00     0.014 A 
ATOM     18  C   UNL     1      43.503 -41.418 102.272  1.00  0.00     0.014 A 
ATOM     19  C   UNL     1      43.272 -40.513 101.224  1.00  0.00     0.056 A 
BRANCH  19  20
ATOM     20  C   UNL     1      43.473 -40.932  99.787  1.00  0.00     0.416 C 
ATOM     21  F   UNL     1      44.251 -40.066  99.079  1.00  0.00    -0.166 F 
ATOM     22  F   UNL     1      42.297 -41.023  99.107  1.00  0.00    -0.166 F 
ATOM     23  F   UNL     1      44.070 -42.151  99.667  1.00  0.00    -0.166 F 
ENDBRANCH  19  20
ENDBRANCH  11  14
ENDBRANCH   9  10
ENDBRANCH   6   9
BRANCH   4  24
ATOM     24  C   UNL     1      46.658 -36.624 109.581  1.00  0.00     0.050 C 
BRANCH  24  25
ATOM     25  C   UNL     1      47.888 -36.118 108.815  1.00  0.00     0.100 C 
ATOM     26  C   UNL     1      47.748 -36.388 107.319  1.00  0.00     0.020 C 
BRANCH  25  27
ATOM     27  C   UNL     1      48.070 -34.632 109.015  1.00  0.00     0.306 C 
ATOM     28  O   UNL     1      48.058 -33.766 108.156  1.00  0.00    -0.252 OA
BRANCH  27  29
ATOM     29  O   UNL     1      48.311 -34.312 110.302  1.00  0.00    -0.481 OA
ATOM     30  H   UNL     1      47.808 -33.482 110.440  1.00  0.00     0.296 HD
ENDBRANCH  27  29
ENDBRANCH  25  27
ENDBRANCH  24  25
ENDBRANCH   4  24
TORSDOF 9
ENDMDL
