MODEL 4
REMARK VINA RESULT:   -10.538      4.477      9.350
REMARK INTER + INTRA:         -17.125
REMARK INTER:                 -16.207
REMARK INTRA:                  -0.918
REMARK UNBOUND:                -1.042
REMARK SMILES CN(C)C(=O)CN1CCN(C(=O)Cn2cc(NC(=O)c3cnn4cccnc34)c(-c3cc4ccccc4cc3OC(F)F)n2)CC1
REMARK SMILES IDX 14 1 15 2 16 3 29 4 44 5 13 6 11 7 7 8 8 9 46 10 9 11 45 12
REMARK SMILES IDX 10 13 12 14 6 15 4 16 2 17 5 18 1 19 3 20 17 21 18 22 19 23
REMARK SMILES IDX 20 25 21 26 28 27 22 28 27 29 23 30 26 31 24 32 25 33 30 34
REMARK SMILES IDX 31 35 39 36 32 37 38 38 33 39 37 40 34 41 36 42 35 43 40 44
REMARK SMILES IDX 41 45 42 46 43 47
REMARK H PARENT 17 24
ROOT
ATOM      1  N   UNL     1      -8.708  14.760  19.951  1.00  0.00    -0.261 N 
ATOM      2  C   UNL     1      -9.069  16.075  19.868  1.00  0.00     0.136 A 
ATOM      3  C   UNL     1     -10.442  16.100  19.921  1.00  0.00     0.088 A 
ATOM      4  C   UNL     1     -10.835  14.730  20.023  1.00  0.00     0.120 A 
ATOM      5  N   UNL     1      -9.763  13.923  20.030  1.00  0.00    -0.170 NA
ENDROOT
BRANCH   1   6
ATOM      6  C   UNL     1      -7.376  14.205  19.808  1.00  0.00     0.244 C 
BRANCH   6   7
ATOM      7  C   UNL     1      -6.335  15.261  19.511  1.00  0.00     0.244 C 
ATOM      8  N   UNL     1      -6.270  18.503  21.980  1.00  0.00    -0.291 NA
ATOM      9  C   UNL     1      -6.758  17.240  22.579  1.00  0.00     0.106 C 
ATOM     10  C   UNL     1      -4.984  18.312  21.291  1.00  0.00     0.106 C 
ATOM     11  C   UNL     1      -6.159  15.954  21.965  1.00  0.00     0.135 C 
ATOM     12  C   UNL     1      -5.087  17.253  20.169  1.00  0.00     0.135 C 
ATOM     13  N   UNL     1      -5.916  16.103  20.531  1.00  0.00    -0.339 N 
ATOM     14  O   UNL     1      -5.890  15.387  18.364  1.00  0.00    -0.273 OA
BRANCH   8  15
ATOM     15  C   UNL     1      -6.209  19.624  22.943  1.00  0.00     0.185 C 
BRANCH  15  16
ATOM     16  C   UNL     1      -7.480  20.508  22.979  1.00  0.00     0.236 C 
ATOM     17  N   UNL     1      -8.242  20.453  24.154  1.00  0.00    -0.348 N 
ATOM     18  O   UNL     1      -7.830  21.215  22.026  1.00  0.00    -0.273 OA
ATOM     19  C   UNL     1      -8.046  19.482  25.222  1.00  0.00     0.146 C 
ATOM     20  C   UNL     1      -9.485  21.204  24.200  1.00  0.00     0.146 C 
ENDBRANCH  15  16
ENDBRANCH   8  15
ENDBRANCH   6   7
ENDBRANCH   1   6
BRANCH   3  21
ATOM     21  N   UNL     1     -11.281  17.199  19.860  1.00  0.00    -0.319 N 
ATOM     22  C   UNL     1     -11.157  18.283  19.016  1.00  0.00     0.261 C 
ATOM     23  O   UNL     1     -10.282  18.438  18.169  1.00  0.00    -0.269 OA
ATOM     24  H   UNL     1     -12.062  17.206  20.511  1.00  0.00     0.170 HD
BRANCH  22  25
ATOM     25  C   UNL     1     -12.193  19.284  19.211  1.00  0.00     0.104 A 
ATOM     26  C   UNL     1     -12.345  20.512  18.536  1.00  0.00     0.151 A 
ATOM     27  C   UNL     1     -13.257  19.250  20.094  1.00  0.00     0.167 A 
ATOM     28  N   UNL     1     -13.400  21.217  18.950  1.00  0.00    -0.174 NA
ATOM     29  N   UNL     1     -13.652  18.303  21.006  1.00  0.00    -0.236 NA
ATOM     30  N   UNL     1     -13.959  20.446  19.913  1.00  0.00    -0.222 N 
ATOM     31  C   UNL     1     -14.713  18.593  21.700  1.00  0.00     0.115 A 
ATOM     32  C   UNL     1     -15.084  20.724  20.683  1.00  0.00     0.117 A 
ATOM     33  C   UNL     1     -15.515  19.844  21.596  1.00  0.00     0.040 A 
ENDBRANCH  22  25
ENDBRANCH   3  21
BRANCH   4  34
ATOM     34  C   UNL     1     -12.193  14.192  20.082  1.00  0.00     0.047 A 
ATOM     35  C   UNL     1     -13.284  15.074  20.098  1.00  0.00     0.023 A 
ATOM     36  C   UNL     1     -12.430  12.810  20.090  1.00  0.00     0.136 A 
ATOM     37  C   UNL     1     -14.603  14.594  20.099  1.00  0.00    -0.017 A 
ATOM     38  C   UNL     1     -13.741  12.317  20.055  1.00  0.00     0.056 A 
ATOM     39  C   UNL     1     -15.695  15.474  20.115  1.00  0.00     0.009 A 
ATOM     40  C   UNL     1     -14.836  13.199  20.067  1.00  0.00    -0.015 A 
ATOM     41  C   UNL     1     -17.001  14.985  20.104  1.00  0.00     0.001 A 
ATOM     42  C   UNL     1     -16.155  12.722  20.051  1.00  0.00     0.009 A 
ATOM     43  C   UNL     1     -17.231  13.611  20.075  1.00  0.00     0.001 A 
BRANCH  36  44
ATOM     44  O   UNL     1     -11.361  11.952  20.047  1.00  0.00    -0.434 OA
BRANCH  44  45
ATOM     45  C   UNL     1     -11.380  11.111  18.894  1.00  0.00     0.542 C 
ATOM     46  F   UNL     1     -12.344  10.166  19.072  1.00  0.00    -0.167 F 
ATOM     47  F   UNL     1     -11.710  11.812  17.784  1.00  0.00    -0.167 F 
ENDBRANCH  44  45
ENDBRANCH  36  44
ENDBRANCH   4  34
TORSDOF 9
ENDMDL
