MODEL 1
REMARK VINA RESULT:    -9.362      0.000      0.000
REMARK INTER + INTRA:         -12.335
REMARK INTER:                 -11.551
REMARK INTRA:                  -0.784
REMARK UNBOUND:                -0.784
REMARK SMILES O=c1[nH]c2ncc(-c3ccc(-c4nc[nH]n4)cc3)nc2n1CC1CCOCC1
REMARK SMILES IDX 1 1 2 2 3 3 4 4 5 5 6 6 7 7 19 8 20 9 21 10 22 12 23 13
REMARK SMILES IDX 24 14 28 15 25 16 27 17 26 18 8 19 9 20 18 21 10 22 17 23
REMARK SMILES IDX 11 24 12 25 13 26 16 27 14 28 15 29
REMARK H PARENT 3 11 15 30
ROOT
ATOM      1  O   UNL     1     -21.864 -31.438 -51.384  1.00  0.00    -0.248 OA
ATOM      2  C   UNL     1     -21.029 -32.000 -52.071  1.00  0.00     0.328 A 
ATOM      3  N   UNL     1     -20.216 -33.060 -51.656  1.00  0.00    -0.289 N 
ATOM      4  C   UNL     1     -19.387 -33.420 -52.705  1.00  0.00     0.178 A 
ATOM      5  N   UNL     1     -18.463 -34.380 -52.712  1.00  0.00    -0.233 NA
ATOM      6  C   UNL     1     -17.816 -34.462 -53.912  1.00  0.00     0.142 A 
ATOM      7  C   UNL     1     -18.078 -33.630 -55.027  1.00  0.00     0.091 A 
ATOM      8  N   UNL     1     -19.044 -32.663 -54.972  1.00  0.00    -0.225 NA
ATOM      9  C   UNL     1     -19.671 -32.593 -53.792  1.00  0.00     0.181 A 
ATOM     10  N   UNL     1     -20.689 -31.720 -53.402  1.00  0.00    -0.275 N 
ATOM     11  H   UNL     1     -20.225 -33.487 -50.746  1.00  0.00     0.173 HD
ENDROOT
BRANCH  10  12
ATOM     12  C   UNL     1     -21.238 -30.687 -54.242  1.00  0.00     0.133 C 
BRANCH  12  13
ATOM     13  C   UNL     1     -22.462 -31.149 -55.052  1.00  0.00     0.014 C 
ATOM     14  C   UNL     1     -23.575 -30.086 -55.032  1.00  0.00     0.034 C 
ATOM     15  C   UNL     1     -22.079 -31.513 -56.499  1.00  0.00     0.034 C 
ATOM     16  C   UNL     1     -23.579 -29.268 -56.316  1.00  0.00     0.160 C 
ATOM     17  C   UNL     1     -23.287 -31.395 -57.415  1.00  0.00     0.160 C 
ATOM     18  O   UNL     1     -23.813 -30.068 -57.474  1.00  0.00    -0.381 OA
ENDBRANCH  12  13
ENDBRANCH  10  12
BRANCH   7  19
ATOM     19  C   UNL     1     -17.350 -33.745 -56.307  1.00  0.00     0.002 A 
ATOM     20  C   UNL     1     -16.028 -34.225 -56.336  1.00  0.00     0.011 A 
ATOM     21  C   UNL     1     -17.935 -33.397 -57.537  1.00  0.00     0.011 A 
ATOM     22  C   UNL     1     -15.315 -34.338 -57.537  1.00  0.00     0.013 A 
ATOM     23  C   UNL     1     -17.223 -33.510 -58.740  1.00  0.00     0.013 A 
ATOM     24  C   UNL     1     -15.904 -33.979 -58.753  1.00  0.00     0.021 A 
BRANCH  24  25
ATOM     25  C   UNL     1     -15.158 -34.099 -60.001  1.00  0.00     0.180 A 
ATOM     26  N   UNL     1     -14.336 -35.175 -60.271  1.00  0.00    -0.216 NA
ATOM     27  N   UNL     1     -15.195 -33.191 -60.994  1.00  0.00    -0.154 NA
ATOM     28  C   UNL     1     -13.862 -34.912 -61.465  1.00  0.00     0.217 A 
ATOM     29  N   UNL     1     -14.370 -33.734 -61.901  1.00  0.00    -0.265 N 
ATOM     30  H   UNL     1     -14.205 -33.251 -62.776  1.00  0.00     0.191 HD
ENDBRANCH  24  25
ENDBRANCH   7  19
TORSDOF 4
ENDMDL
MODEL 2
REMARK VINA RESULT:    -9.081      3.148      7.993
REMARK INTER + INTRA:         -11.988
REMARK INTER:                 -11.408
REMARK INTRA:                  -0.580
REMARK UNBOUND:                -0.784
REMARK SMILES O=c1[nH]c2ncc(-c3ccc(-c4nc[nH]n4)cc3)nc2n1CC1CCOCC1
REMARK SMILES IDX 1 1 2 2 3 3 4 4 5 5 6 6 7 7 19 8 20 9 21 10 22 12 23 13
REMARK SMILES IDX 24 14 28 15 25 16 27 17 26 18 8 19 9 20 18 21 10 22 17 23
REMARK SMILES IDX 11 24 12 25 13 26 16 27 14 28 15 29
REMARK H PARENT 3 11 15 30
ROOT
ATOM      1  O   UNL     1     -13.985 -33.391 -62.507  1.00  0.00    -0.248 OA
ATOM      2  C   UNL     1     -14.350 -33.595 -61.362  1.00  0.00     0.328 A 
ATOM      3  N   UNL     1     -13.820 -34.562 -60.501  1.00  0.00    -0.289 N 
ATOM      4  C   UNL     1     -14.499 -34.502 -59.296  1.00  0.00     0.178 A 
ATOM      5  N   UNL     1     -14.301 -35.260 -58.218  1.00  0.00    -0.233 NA
ATOM      6  C   UNL     1     -15.155 -34.942 -57.201  1.00  0.00     0.142 A 
ATOM      7  C   UNL     1     -16.146 -33.933 -57.268  1.00  0.00     0.091 A 
ATOM      8  N   UNL     1     -16.304 -33.175 -58.396  1.00  0.00    -0.225 NA
ATOM      9  C   UNL     1     -15.461 -33.496 -59.385  1.00  0.00     0.181 A 
ATOM     10  N   UNL     1     -15.365 -32.932 -60.658  1.00  0.00    -0.275 N 
ATOM     11  H   UNL     1     -13.075 -35.200 -60.720  1.00  0.00     0.173 HD
ENDROOT
BRANCH  10  12
ATOM     12  C   UNL     1     -16.217 -31.878 -61.146  1.00  0.00     0.133 C 
BRANCH  12  13
ATOM     13  C   UNL     1     -17.709 -32.255 -61.148  1.00  0.00     0.014 C 
ATOM     14  C   UNL     1     -18.504 -31.374 -60.166  1.00  0.00     0.034 C 
ATOM     15  C   UNL     1     -18.312 -32.179 -62.563  1.00  0.00     0.034 C 
ATOM     16  C   UNL     1     -19.234 -30.255 -60.897  1.00  0.00     0.160 C 
ATOM     17  C   UNL     1     -19.817 -31.970 -62.489  1.00  0.00     0.160 C 
ATOM     18  O   UNL     1     -20.178 -30.747 -61.847  1.00  0.00    -0.381 OA
ENDBRANCH  12  13
ENDBRANCH  10  12
BRANCH   7  19
ATOM     19  C   UNL     1     -17.057 -33.623 -56.148  1.00  0.00     0.002 A 
ATOM     20  C   UNL     1     -18.172 -32.788 -56.344  1.00  0.00     0.011 A 
ATOM     21  C   UNL     1     -16.864 -34.146 -54.858  1.00  0.00     0.011 A 
ATOM     22  C   UNL     1     -19.048 -32.475 -55.295  1.00  0.00     0.013 A 
ATOM     23  C   UNL     1     -17.740 -33.835 -53.806  1.00  0.00     0.013 A 
ATOM     24  C   UNL     1     -18.839 -32.994 -54.013  1.00  0.00     0.021 A 
BRANCH  24  25
ATOM     25  C   UNL     1     -19.754 -32.666 -52.925  1.00  0.00     0.180 A 
ATOM     26  N   UNL     1     -20.737 -31.705 -53.049  1.00  0.00    -0.216 NA
ATOM     27  N   UNL     1     -19.731 -33.255 -51.715  1.00  0.00    -0.154 NA
ATOM     28  C   UNL     1     -21.329 -31.712 -51.880  1.00  0.00     0.217 A 
ATOM     29  N   UNL     1     -20.736 -32.633 -51.082  1.00  0.00    -0.265 N 
ATOM     30  H   UNL     1     -20.953 -32.886 -50.125  1.00  0.00     0.191 HD
ENDBRANCH  24  25
ENDBRANCH   7  19
TORSDOF 4
ENDMDL
MODEL 3
REMARK VINA RESULT:    -8.689      1.251      1.787
REMARK INTER + INTRA:         -11.504
REMARK INTER:                 -10.823
REMARK INTRA:                  -0.681
REMARK UNBOUND:                -0.784
REMARK SMILES O=c1[nH]c2ncc(-c3ccc(-c4nc[nH]n4)cc3)nc2n1CC1CCOCC1
REMARK SMILES IDX 1 1 2 2 3 3 4 4 5 5 6 6 7 7 19 8 20 9 21 10 22 12 23 13
REMARK SMILES IDX 24 14 28 15 25 16 27 17 26 18 8 19 9 20 18 21 10 22 17 23
REMARK SMILES IDX 11 24 12 25 13 26 16 27 14 28 15 29
REMARK H PARENT 3 11 15 30
ROOT
ATOM      1  O   UNL     1     -21.979 -30.977 -53.076  1.00  0.00    -0.248 OA
ATOM      2  C   UNL     1     -21.058 -31.558 -53.624  1.00  0.00     0.328 A 
ATOM      3  N   UNL     1     -20.239 -32.524 -53.029  1.00  0.00    -0.289 N 
ATOM      4  C   UNL     1     -19.301 -32.941 -53.957  1.00  0.00     0.178 A 
ATOM      5  N   UNL     1     -18.336 -33.844 -53.781  1.00  0.00    -0.233 NA
ATOM      6  C   UNL     1     -17.577 -34.010 -54.904  1.00  0.00     0.142 A 
ATOM      7  C   UNL     1     -17.771 -33.310 -56.119  1.00  0.00     0.091 A 
ATOM      8  N   UNL     1     -18.781 -32.398 -56.252  1.00  0.00    -0.225 NA
ATOM      9  C   UNL     1     -19.519 -32.244 -55.145  1.00  0.00     0.181 A 
ATOM     10  N   UNL     1     -20.608 -31.394 -54.941  1.00  0.00    -0.275 N 
ATOM     11  H   UNL     1     -20.314 -32.857 -52.084  1.00  0.00     0.173 HD
ENDROOT
BRANCH  10  12
ATOM     12  C   UNL     1     -21.123 -30.483 -55.931  1.00  0.00     0.133 C 
BRANCH  12  13
ATOM     13  C   UNL     1     -22.428 -30.971 -56.585  1.00  0.00     0.014 C 
ATOM     14  C   UNL     1     -22.882 -30.010 -57.699  1.00  0.00     0.034 C 
ATOM     15  C   UNL     1     -22.289 -32.407 -57.123  1.00  0.00     0.034 C 
ATOM     16  C   UNL     1     -22.505 -30.543 -59.074  1.00  0.00     0.160 C 
ATOM     17  C   UNL     1     -23.299 -32.659 -58.232  1.00  0.00     0.160 C 
ATOM     18  O   UNL     1     -23.114 -31.802 -59.359  1.00  0.00    -0.381 OA
ENDBRANCH  12  13
ENDBRANCH  10  12
BRANCH   7  19
ATOM     19  C   UNL     1     -16.922 -33.513 -57.310  1.00  0.00     0.002 A 
ATOM     20  C   UNL     1     -17.311 -32.999 -58.560  1.00  0.00     0.011 A 
ATOM     21  C   UNL     1     -15.702 -34.208 -57.252  1.00  0.00     0.011 A 
ATOM     22  C   UNL     1     -16.525 -33.183 -59.706  1.00  0.00     0.013 A 
ATOM     23  C   UNL     1     -14.913 -34.394 -58.398  1.00  0.00     0.013 A 
ATOM     24  C   UNL     1     -15.318 -33.886 -59.638  1.00  0.00     0.021 A 
BRANCH  24  25
ATOM     25  C   UNL     1     -14.503 -34.075 -60.833  1.00  0.00     0.180 A 
ATOM     26  N   UNL     1     -13.674 -35.167 -60.997  1.00  0.00    -0.216 NA
ATOM     27  N   UNL     1     -14.478 -33.222 -61.873  1.00  0.00    -0.154 NA
ATOM     28  C   UNL     1     -13.131 -34.971 -62.174  1.00  0.00     0.217 A 
ATOM     29  N   UNL     1     -13.606 -33.816 -62.701  1.00  0.00    -0.265 N 
ATOM     30  H   UNL     1     -13.389 -33.381 -63.590  1.00  0.00     0.191 HD
ENDBRANCH  24  25
ENDBRANCH   7  19
TORSDOF 4
ENDMDL
MODEL 4
REMARK VINA RESULT:    -8.324      3.568      8.282
REMARK INTER + INTRA:         -11.054
REMARK INTER:                 -10.258
REMARK INTRA:                  -0.796
REMARK UNBOUND:                -0.784
REMARK SMILES O=c1[nH]c2ncc(-c3ccc(-c4nc[nH]n4)cc3)nc2n1CC1CCOCC1
REMARK SMILES IDX 1 1 2 2 3 3 4 4 5 5 6 6 7 7 19 8 20 9 21 10 22 12 23 13
REMARK SMILES IDX 24 14 28 15 25 16 27 17 26 18 8 19 9 20 18 21 10 22 17 23
REMARK SMILES IDX 11 24 12 25 13 26 16 27 14 28 15 29
REMARK H PARENT 3 11 15 30
ROOT
ATOM      1  O   UNL     1     -14.346 -34.529 -61.447  1.00  0.00    -0.248 OA
ATOM      2  C   UNL     1     -14.897 -34.307 -60.382  1.00  0.00     0.328 A 
ATOM      3  N   UNL     1     -14.446 -34.739 -59.130  1.00  0.00    -0.289 N 
ATOM      4  C   UNL     1     -15.339 -34.307 -58.165  1.00  0.00     0.178 A 
ATOM      5  N   UNL     1     -15.273 -34.519 -56.850  1.00  0.00    -0.233 NA
ATOM      6  C   UNL     1     -16.327 -33.960 -56.186  1.00  0.00     0.142 A 
ATOM      7  C   UNL     1     -17.380 -33.243 -56.805  1.00  0.00     0.091 A 
ATOM      8  N   UNL     1     -17.398 -33.046 -58.158  1.00  0.00    -0.225 NA
ATOM      9  C   UNL     1     -16.359 -33.598 -58.798  1.00  0.00     0.181 A 
ATOM     10  N   UNL     1     -16.083 -33.593 -60.166  1.00  0.00    -0.275 N 
ATOM     11  H   UNL     1     -13.616 -35.279 -58.958  1.00  0.00     0.173 HD
ENDROOT
BRANCH  10  12
ATOM     12  C   UNL     1     -16.926 -32.984 -61.163  1.00  0.00     0.133 C 
BRANCH  12  13
ATOM     13  C   UNL     1     -16.580 -31.508 -61.431  1.00  0.00     0.014 C 
ATOM     14  C   UNL     1     -16.602 -31.200 -62.940  1.00  0.00     0.034 C 
ATOM     15  C   UNL     1     -17.518 -30.558 -60.665  1.00  0.00     0.034 C 
ATOM     16  C   UNL     1     -17.901 -30.516 -63.344  1.00  0.00     0.160 C 
ATOM     17  C   UNL     1     -17.575 -29.201 -61.349  1.00  0.00     0.160 C 
ATOM     18  O   UNL     1     -18.092 -29.269 -62.678  1.00  0.00    -0.381 OA
ENDBRANCH  12  13
ENDBRANCH  10  12
BRANCH   7  19
ATOM     19  C   UNL     1     -18.508 -32.660 -56.052  1.00  0.00     0.002 A 
ATOM     20  C   UNL     1     -19.375 -31.736 -56.665  1.00  0.00     0.011 A 
ATOM     21  C   UNL     1     -18.773 -32.999 -54.714  1.00  0.00     0.011 A 
ATOM     22  C   UNL     1     -20.449 -31.164 -55.969  1.00  0.00     0.013 A 
ATOM     23  C   UNL     1     -19.848 -32.429 -54.015  1.00  0.00     0.013 A 
ATOM     24  C   UNL     1     -20.696 -31.503 -54.635  1.00  0.00     0.021 A 
BRANCH  24  25
ATOM     25  C   UNL     1     -21.816 -30.905 -53.914  1.00  0.00     0.180 A 
ATOM     26  N   UNL     1     -22.929 -30.407 -54.561  1.00  0.00    -0.216 NA
ATOM     27  N   UNL     1     -21.873 -30.782 -52.576  1.00  0.00    -0.154 NA
ATOM     28  C   UNL     1     -23.686 -29.970 -53.584  1.00  0.00     0.217 A 
ATOM     29  N   UNL     1     -23.064 -30.191 -52.400  1.00  0.00    -0.265 N 
ATOM     30  H   UNL     1     -23.378 -29.973 -51.462  1.00  0.00     0.191 HD
ENDBRANCH  24  25
ENDBRANCH   7  19
TORSDOF 4
ENDMDL
MODEL 5
REMARK VINA RESULT:    -8.160      1.482      2.326
REMARK INTER + INTRA:         -10.851
REMARK INTER:                 -10.036
REMARK INTRA:                  -0.815
REMARK UNBOUND:                -0.784
REMARK SMILES O=c1[nH]c2ncc(-c3ccc(-c4nc[nH]n4)cc3)nc2n1CC1CCOCC1
REMARK SMILES IDX 1 1 2 2 3 3 4 4 5 5 6 6 7 7 19 8 20 9 21 10 22 12 23 13
REMARK SMILES IDX 24 14 28 15 25 16 27 17 26 18 8 19 9 20 18 21 10 22 17 23
REMARK SMILES IDX 11 24 12 25 13 26 16 27 14 28 15 29
REMARK H PARENT 3 11 15 30
ROOT
ATOM      1  O   UNL     1     -23.614 -29.153 -52.724  1.00  0.00    -0.248 OA
ATOM      2  C   UNL     1     -22.722 -29.932 -53.013  1.00  0.00     0.328 A 
ATOM      3  N   UNL     1     -22.167 -30.886 -52.153  1.00  0.00    -0.289 N 
ATOM      4  C   UNL     1     -21.173 -31.569 -52.832  1.00  0.00     0.178 A 
ATOM      5  N   UNL     1     -20.401 -32.549 -52.363  1.00  0.00    -0.233 NA
ATOM      6  C   UNL     1     -19.513 -32.997 -53.299  1.00  0.00     0.142 A 
ATOM      7  C   UNL     1     -19.405 -32.487 -54.616  1.00  0.00     0.091 A 
ATOM      8  N   UNL     1     -20.227 -31.485 -55.052  1.00  0.00    -0.225 NA
ATOM      9  C   UNL     1     -21.094 -31.055 -54.126  1.00  0.00     0.181 A 
ATOM     10  N   UNL     1     -22.054 -30.048 -54.240  1.00  0.00    -0.275 N 
ATOM     11  H   UNL     1     -22.438 -31.046 -51.199  1.00  0.00     0.173 HD
ENDROOT
BRANCH  10  12
ATOM     12  C   UNL     1     -22.261 -29.253 -55.423  1.00  0.00     0.133 C 
BRANCH  12  13
ATOM     13  C   UNL     1     -23.232 -29.899 -56.427  1.00  0.00     0.014 C 
ATOM     14  C   UNL     1     -24.378 -28.936 -56.786  1.00  0.00     0.034 C 
ATOM     15  C   UNL     1     -22.501 -30.377 -57.695  1.00  0.00     0.034 C 
ATOM     16  C   UNL     1     -24.130 -28.259 -58.127  1.00  0.00     0.160 C 
ATOM     17  C   UNL     1     -23.466 -30.457 -58.867  1.00  0.00     0.160 C 
ATOM     18  O   UNL     1     -24.040 -29.193 -59.203  1.00  0.00    -0.381 OA
ENDBRANCH  12  13
ENDBRANCH  10  12
BRANCH   7  19
ATOM     19  C   UNL     1     -18.424 -32.992 -55.597  1.00  0.00     0.002 A 
ATOM     20  C   UNL     1     -18.556 -32.682 -56.963  1.00  0.00     0.011 A 
ATOM     21  C   UNL     1     -17.327 -33.786 -55.221  1.00  0.00     0.011 A 
ATOM     22  C   UNL     1     -17.642 -33.155 -57.915  1.00  0.00     0.013 A 
ATOM     23  C   UNL     1     -16.410 -34.260 -56.171  1.00  0.00     0.013 A 
ATOM     24  C   UNL     1     -16.559 -33.952 -57.529  1.00  0.00     0.021 A 
BRANCH  24  25
ATOM     25  C   UNL     1     -15.610 -34.442 -58.523  1.00  0.00     0.180 A 
ATOM     26  N   UNL     1     -15.878 -34.417 -59.877  1.00  0.00    -0.216 NA
ATOM     27  N   UNL     1     -14.403 -34.957 -58.225  1.00  0.00    -0.154 NA
ATOM     28  C   UNL     1     -14.800 -34.931 -60.417  1.00  0.00     0.217 A 
ATOM     29  N   UNL     1     -13.918 -35.253 -59.439  1.00  0.00    -0.265 N 
ATOM     30  H   UNL     1     -12.996 -35.666 -59.520  1.00  0.00     0.191 HD
ENDBRANCH  24  25
ENDBRANCH   7  19
TORSDOF 4
ENDMDL
MODEL 6
REMARK VINA RESULT:    -8.028      3.496      8.453
REMARK INTER + INTRA:         -10.689
REMARK INTER:                 -10.577
REMARK INTRA:                  -0.112
REMARK UNBOUND:                -0.784
REMARK SMILES O=c1[nH]c2ncc(-c3ccc(-c4nc[nH]n4)cc3)nc2n1CC1CCOCC1
REMARK SMILES IDX 1 1 2 2 3 3 4 4 5 5 6 6 7 7 19 8 20 9 21 10 22 12 23 13
REMARK SMILES IDX 24 14 28 15 25 16 27 17 26 18 8 19 9 20 18 21 10 22 17 23
REMARK SMILES IDX 11 24 12 25 13 26 16 27 14 28 15 29
REMARK H PARENT 3 11 15 30
ROOT
ATOM      1  O   UNL     1     -16.191 -35.106 -54.253  1.00  0.00    -0.248 OA
ATOM      2  C   UNL     1     -17.160 -34.420 -53.974  1.00  0.00     0.328 A 
ATOM      3  N   UNL     1     -17.849 -34.444 -52.757  1.00  0.00    -0.289 N 
ATOM      4  C   UNL     1     -18.896 -33.541 -52.823  1.00  0.00     0.178 A 
ATOM      5  N   UNL     1     -19.792 -33.272 -51.873  1.00  0.00    -0.233 NA
ATOM      6  C   UNL     1     -20.698 -32.332 -52.273  1.00  0.00     0.142 A 
ATOM      7  C   UNL     1     -20.707 -31.711 -53.545  1.00  0.00     0.091 A 
ATOM      8  N   UNL     1     -19.760 -32.016 -54.484  1.00  0.00    -0.225 NA
ATOM      9  C   UNL     1     -18.876 -32.938 -54.080  1.00  0.00     0.181 A 
ATOM     10  N   UNL     1     -17.801 -33.476 -54.789  1.00  0.00    -0.275 N 
ATOM     11  H   UNL     1     -17.627 -35.025 -51.967  1.00  0.00     0.173 HD
ENDROOT
BRANCH  10  12
ATOM     12  C   UNL     1     -17.467 -33.128 -56.146  1.00  0.00     0.133 C 
BRANCH  12  13
ATOM     13  C   UNL     1     -16.765 -34.265 -56.910  1.00  0.00     0.014 C 
ATOM     14  C   UNL     1     -17.559 -34.660 -58.168  1.00  0.00     0.034 C 
ATOM     15  C   UNL     1     -15.315 -33.893 -57.272  1.00  0.00     0.034 C 
ATOM     16  C   UNL     1     -16.957 -34.036 -59.419  1.00  0.00     0.160 C 
ATOM     17  C   UNL     1     -14.842 -34.702 -58.470  1.00  0.00     0.160 C 
ATOM     18  O   UNL     1     -15.612 -34.455 -59.647  1.00  0.00    -0.381 OA
ENDBRANCH  12  13
ENDBRANCH  10  12
BRANCH   7  19
ATOM     19  C   UNL     1     -21.710 -30.704 -53.943  1.00  0.00     0.002 A 
ATOM     20  C   UNL     1     -22.150 -29.733 -53.025  1.00  0.00     0.011 A 
ATOM     21  C   UNL     1     -22.258 -30.660 -55.237  1.00  0.00     0.011 A 
ATOM     22  C   UNL     1     -23.106 -28.770 -53.377  1.00  0.00     0.013 A 
ATOM     23  C   UNL     1     -23.215 -29.698 -55.592  1.00  0.00     0.013 A 
ATOM     24  C   UNL     1     -23.651 -28.744 -54.665  1.00  0.00     0.021 A 
BRANCH  24  25
ATOM     25  C   UNL     1     -24.646 -27.739 -55.027  1.00  0.00     0.180 A 
ATOM     26  N   UNL     1     -25.939 -27.771 -54.544  1.00  0.00    -0.216 NA
ATOM     27  N   UNL     1     -24.408 -26.704 -55.852  1.00  0.00    -0.154 NA
ATOM     28  C   UNL     1     -26.501 -26.721 -55.091  1.00  0.00     0.217 A 
ATOM     29  N   UNL     1     -25.595 -26.081 -55.870  1.00  0.00    -0.265 N 
ATOM     30  H   UNL     1     -25.709 -25.242 -56.426  1.00  0.00     0.191 HD
ENDBRANCH  24  25
ENDBRANCH   7  19
TORSDOF 4
ENDMDL
MODEL 7
REMARK VINA RESULT:    -7.859      1.882      2.534
REMARK INTER + INTRA:         -10.480
REMARK INTER:                  -9.706
REMARK INTRA:                  -0.774
REMARK UNBOUND:                -0.784
REMARK SMILES O=c1[nH]c2ncc(-c3ccc(-c4nc[nH]n4)cc3)nc2n1CC1CCOCC1
REMARK SMILES IDX 1 1 2 2 3 3 4 4 5 5 6 6 7 7 19 8 20 9 21 10 22 12 23 13
REMARK SMILES IDX 24 14 28 15 25 16 27 17 26 18 8 19 9 20 18 21 10 22 17 23
REMARK SMILES IDX 11 24 12 25 13 26 16 27 14 28 15 29
REMARK H PARENT 3 11 15 30
ROOT
ATOM      1  O   UNL     1     -23.023 -30.300 -54.139  1.00  0.00    -0.248 OA
ATOM      2  C   UNL     1     -22.014 -30.864 -54.526  1.00  0.00     0.328 A 
ATOM      3  N   UNL     1     -21.106 -31.550 -53.712  1.00  0.00    -0.289 N 
ATOM      4  C   UNL     1     -20.084 -32.042 -54.507  1.00  0.00     0.178 A 
ATOM      5  N   UNL     1     -19.022 -32.744 -54.114  1.00  0.00    -0.233 NA
ATOM      6  C   UNL     1     -18.201 -33.063 -55.158  1.00  0.00     0.142 A 
ATOM      7  C   UNL     1     -18.432 -32.694 -56.505  1.00  0.00     0.091 A 
ATOM      8  N   UNL     1     -19.543 -31.979 -56.859  1.00  0.00    -0.225 NA
ATOM      9  C   UNL     1     -20.340 -31.673 -55.827  1.00  0.00     0.181 A 
ATOM     10  N   UNL     1     -21.534 -30.951 -55.840  1.00  0.00    -0.275 N 
ATOM     11  H   UNL     1     -21.177 -31.663 -52.716  1.00  0.00     0.173 HD
ENDROOT
BRANCH  10  12
ATOM     12  C   UNL     1     -22.119 -30.369 -57.020  1.00  0.00     0.133 C 
BRANCH  12  13
ATOM     13  C   UNL     1     -21.862 -28.856 -57.142  1.00  0.00     0.014 C 
ATOM     14  C   UNL     1     -20.857 -28.553 -58.268  1.00  0.00     0.034 C 
ATOM     15  C   UNL     1     -23.172 -28.074 -57.353  1.00  0.00     0.034 C 
ATOM     16  C   UNL     1     -21.569 -28.092 -59.533  1.00  0.00     0.160 C 
ATOM     17  C   UNL     1     -22.894 -26.744 -58.036  1.00  0.00     0.160 C 
ATOM     18  O   UNL     1     -22.319 -26.895 -59.334  1.00  0.00    -0.381 OA
ENDBRANCH  12  13
ENDBRANCH  10  12
BRANCH   7  19
ATOM     19  C   UNL     1     -17.515 -33.052 -57.606  1.00  0.00     0.002 A 
ATOM     20  C   UNL     1     -16.298 -33.706 -57.338  1.00  0.00     0.011 A 
ATOM     21  C   UNL     1     -17.812 -32.771 -58.951  1.00  0.00     0.011 A 
ATOM     22  C   UNL     1     -15.410 -34.051 -58.366  1.00  0.00     0.013 A 
ATOM     23  C   UNL     1     -16.924 -33.115 -59.981  1.00  0.00     0.013 A 
ATOM     24  C   UNL     1     -15.712 -33.757 -59.699  1.00  0.00     0.021 A 
BRANCH  24  25
ATOM     25  C   UNL     1     -14.783 -34.118 -60.765  1.00  0.00     0.180 A 
ATOM     26  N   UNL     1     -14.131 -35.334 -60.797  1.00  0.00    -0.216 NA
ATOM     27  N   UNL     1     -14.476 -33.318 -61.803  1.00  0.00    -0.154 NA
ATOM     28  C   UNL     1     -13.407 -35.271 -61.888  1.00  0.00     0.217 A 
ATOM     29  N   UNL     1     -13.609 -34.074 -62.492  1.00  0.00    -0.265 N 
ATOM     30  H   UNL     1     -13.204 -33.712 -63.347  1.00  0.00     0.191 HD
ENDBRANCH  24  25
ENDBRANCH   7  19
TORSDOF 4
ENDMDL
MODEL 8
REMARK VINA RESULT:    -7.838      3.474      7.866
REMARK INTER + INTRA:         -10.455
REMARK INTER:                  -9.961
REMARK INTRA:                  -0.494
REMARK UNBOUND:                -0.784
REMARK SMILES O=c1[nH]c2ncc(-c3ccc(-c4nc[nH]n4)cc3)nc2n1CC1CCOCC1
REMARK SMILES IDX 1 1 2 2 3 3 4 4 5 5 6 6 7 7 19 8 20 9 21 10 22 12 23 13
REMARK SMILES IDX 24 14 28 15 25 16 27 17 26 18 8 19 9 20 18 21 10 22 17 23
REMARK SMILES IDX 11 24 12 25 13 26 16 27 14 28 15 29
REMARK H PARENT 3 11 15 30
ROOT
ATOM      1  O   UNL     1     -17.307 -30.930 -64.008  1.00  0.00    -0.248 OA
ATOM      2  C   UNL     1     -17.341 -31.394 -62.881  1.00  0.00     0.328 A 
ATOM      3  N   UNL     1     -16.629 -32.516 -62.444  1.00  0.00    -0.289 N 
ATOM      4  C   UNL     1     -16.935 -32.744 -61.114  1.00  0.00     0.178 A 
ATOM      5  N   UNL     1     -16.471 -33.720 -60.334  1.00  0.00    -0.233 NA
ATOM      6  C   UNL     1     -16.987 -33.658 -59.071  1.00  0.00     0.142 A 
ATOM      7  C   UNL     1     -17.914 -32.684 -58.626  1.00  0.00     0.091 A 
ATOM      8  N   UNL     1     -18.354 -31.698 -59.464  1.00  0.00    -0.225 NA
ATOM      9  C   UNL     1     -17.840 -31.768 -60.699  1.00  0.00     0.181 A 
ATOM     10  N   UNL     1     -18.086 -30.931 -61.788  1.00  0.00    -0.275 N 
ATOM     11  H   UNL     1     -16.004 -33.070 -63.003  1.00  0.00     0.173 HD
ENDROOT
BRANCH  10  12
ATOM     12  C   UNL     1     -18.997 -29.815 -61.766  1.00  0.00     0.133 C 
BRANCH  12  13
ATOM     13  C   UNL     1     -20.385 -30.153 -62.338  1.00  0.00     0.014 C 
ATOM     14  C   UNL     1     -20.619 -31.675 -62.363  1.00  0.00     0.034 C 
ATOM     15  C   UNL     1     -21.507 -29.439 -61.562  1.00  0.00     0.034 C 
ATOM     16  C   UNL     1     -21.477 -32.119 -61.186  1.00  0.00     0.160 C 
ATOM     17  C   UNL     1     -22.821 -30.189 -61.717  1.00  0.00     0.160 C 
ATOM     18  O   UNL     1     -22.770 -31.516 -61.193  1.00  0.00    -0.381 OA
ENDBRANCH  12  13
ENDBRANCH  10  12
BRANCH   7  19
ATOM     19  C   UNL     1     -18.455 -32.656 -57.253  1.00  0.00     0.002 A 
ATOM     20  C   UNL     1     -17.707 -33.173 -56.179  1.00  0.00     0.011 A 
ATOM     21  C   UNL     1     -19.717 -32.113 -56.955  1.00  0.00     0.011 A 
ATOM     22  C   UNL     1     -18.202 -33.163 -54.868  1.00  0.00     0.013 A 
ATOM     23  C   UNL     1     -20.215 -32.101 -55.643  1.00  0.00     0.013 A 
ATOM     24  C   UNL     1     -19.464 -32.629 -54.586  1.00  0.00     0.021 A 
BRANCH  24  25
ATOM     25  C   UNL     1     -19.975 -32.620 -53.219  1.00  0.00     0.180 A 
ATOM     26  N   UNL     1     -20.911 -31.703 -52.786  1.00  0.00    -0.216 NA
ATOM     27  N   UNL     1     -19.593 -33.487 -52.264  1.00  0.00    -0.154 NA
ATOM     28  C   UNL     1     -21.104 -32.024 -51.530  1.00  0.00     0.217 A 
ATOM     29  N   UNL     1     -20.323 -33.086 -51.214  1.00  0.00    -0.265 N 
ATOM     30  H   UNL     1     -20.236 -33.576 -50.331  1.00  0.00     0.191 HD
ENDBRANCH  24  25
ENDBRANCH   7  19
TORSDOF 4
ENDMDL
MODEL 9
REMARK VINA RESULT:    -7.712      4.733      7.970
REMARK INTER + INTRA:         -10.300
REMARK INTER:                  -9.508
REMARK INTRA:                  -0.792
REMARK UNBOUND:                -0.784
REMARK SMILES O=c1[nH]c2ncc(-c3ccc(-c4nc[nH]n4)cc3)nc2n1CC1CCOCC1
REMARK SMILES IDX 1 1 2 2 3 3 4 4 5 5 6 6 7 7 19 8 20 9 21 10 22 12 23 13
REMARK SMILES IDX 24 14 28 15 25 16 27 17 26 18 8 19 9 20 18 21 10 22 17 23
REMARK SMILES IDX 11 24 12 25 13 26 16 27 14 28 15 29
REMARK H PARENT 3 11 15 30
ROOT
ATOM      1  O   UNL     1     -14.344 -35.213 -57.615  1.00  0.00    -0.248 OA
ATOM      2  C   UNL     1     -15.003 -34.528 -58.379  1.00  0.00     0.328 A 
ATOM      3  N   UNL     1     -14.530 -33.948 -59.561  1.00  0.00    -0.289 N 
ATOM      4  C   UNL     1     -15.562 -33.234 -60.147  1.00  0.00     0.178 A 
ATOM      5  N   UNL     1     -15.518 -32.532 -61.279  1.00  0.00    -0.233 NA
ATOM      6  C   UNL     1     -16.715 -31.942 -61.565  1.00  0.00     0.142 A 
ATOM      7  C   UNL     1     -17.877 -32.045 -60.761  1.00  0.00     0.091 A 
ATOM      8  N   UNL     1     -17.873 -32.786 -59.611  1.00  0.00    -0.225 NA
ATOM      9  C   UNL     1     -16.694 -33.361 -59.342  1.00  0.00     0.181 A 
ATOM     10  N   UNL     1     -16.350 -34.164 -58.254  1.00  0.00    -0.275 N 
ATOM     11  H   UNL     1     -13.596 -34.028 -59.923  1.00  0.00     0.173 HD
ENDROOT
BRANCH  10  12
ATOM     12  C   UNL     1     -17.247 -34.501 -57.178  1.00  0.00     0.133 C 
BRANCH  12  13
ATOM     13  C   UNL     1     -17.192 -33.504 -56.007  1.00  0.00     0.014 C 
ATOM     14  C   UNL     1     -18.428 -32.585 -56.003  1.00  0.00     0.034 C 
ATOM     15  C   UNL     1     -17.043 -34.225 -54.655  1.00  0.00     0.034 C 
ATOM     16  C   UNL     1     -19.460 -33.053 -54.986  1.00  0.00     0.160 C 
ATOM     17  C   UNL     1     -17.565 -33.351 -53.525  1.00  0.00     0.160 C 
ATOM     18  O   UNL     1     -18.954 -33.048 -53.652  1.00  0.00    -0.381 OA
ENDBRANCH  12  13
ENDBRANCH  10  12
BRANCH   7  19
ATOM     19  C   UNL     1     -19.152 -31.384 -61.101  1.00  0.00     0.002 A 
ATOM     20  C   UNL     1     -20.380 -32.004 -60.802  1.00  0.00     0.011 A 
ATOM     21  C   UNL     1     -19.203 -30.123 -61.718  1.00  0.00     0.011 A 
ATOM     22  C   UNL     1     -21.604 -31.399 -61.119  1.00  0.00     0.013 A 
ATOM     23  C   UNL     1     -20.427 -29.515 -62.037  1.00  0.00     0.013 A 
ATOM     24  C   UNL     1     -21.640 -30.148 -61.743  1.00  0.00     0.021 A 
BRANCH  24  25
ATOM     25  C   UNL     1     -22.917 -29.522 -62.072  1.00  0.00     0.180 A 
ATOM     26  N   UNL     1     -24.019 -29.612 -61.245  1.00  0.00    -0.216 NA
ATOM     27  N   UNL     1     -23.143 -28.810 -63.190  1.00  0.00    -0.154 NA
ATOM     28  C   UNL     1     -24.941 -28.931 -61.881  1.00  0.00     0.217 A 
ATOM     29  N   UNL     1     -24.426 -28.450 -63.039  1.00  0.00    -0.265 N 
ATOM     30  H   UNL     1     -24.873 -27.889 -63.754  1.00  0.00     0.191 HD
ENDBRANCH  24  25
ENDBRANCH   7  19
TORSDOF 4
ENDMDL
