REMARK SMILES CCCCCCCC/C=C\CCCCCCCCCCCC(=O)O
REMARK SMILES IDX 13 1 12 2 11 3 10 4 9 5 8 6 7 7 6 8 5 9 4 10 3 11 2 12 1 13
REMARK SMILES IDX 14 14 15 15 16 16 17 17 18 18 19 19 20 20 21 21 22 22 23 23
REMARK SMILES IDX 24 24
REMARK H PARENT 24 25
REMARK INDEX MAP 13 1 12 2 11 3 10 4 9 5 8 6 7 7 6 8 5 9 4 10 3 11 2 12 1 13
REMARK INDEX MAP 14 14 15 15 16 16 17 17 18 18 19 19 20 20 21 21 22 22 23 23
REMARK INDEX MAP 24 24 66 25
ROOT
ATOM      1  C   UNL     1      44.852 -41.845 101.088  1.00  0.00     0.000 C 
ENDROOT
BRANCH   1   2
ATOM      2  C   UNL     1      43.765 -42.465 101.972  1.00  0.00     0.004 C 
BRANCH   2   3
ATOM      3  C   UNL     1      43.919 -42.093 103.453  1.00  0.00     0.027 C 
BRANCH   3   4
ATOM      4  C   UNL     1      45.231 -42.539 104.034  1.00  0.00    -0.031 C 
ATOM      5  C   UNL     1      45.468 -42.987 105.277  1.00  0.00    -0.031 C 
BRANCH   5   6
ATOM      6  C   UNL     1      44.484 -43.142 106.404  1.00  0.00     0.027 C 
BRANCH   6   7
ATOM      7  C   UNL     1      45.098 -43.763 107.663  1.00  0.00     0.004 C 
BRANCH   7   8
ATOM      8  C   UNL     1      46.125 -42.899 108.404  1.00  0.00     0.000 C 
BRANCH   8   9
ATOM      9  C   UNL     1      45.997 -41.405 108.096  1.00  0.00     0.000 C 
BRANCH   9  10
ATOM     10  C   UNL     1      45.356 -40.653 109.264  1.00  0.00    -0.000 C 
BRANCH  10  11
ATOM     11  C   UNL     1      44.303 -39.632 108.826  1.00  0.00    -0.000 C 
BRANCH  11  12
ATOM     12  C   UNL     1      44.062 -39.615 107.316  1.00  0.00    -0.003 C 
ATOM     13  C   UNL     1      42.638 -40.027 106.975  1.00  0.00     0.004 C 
ENDBRANCH  11  12
ENDBRANCH  10  11
ENDBRANCH   9  10
ENDBRANCH   8   9
ENDBRANCH   7   8
ENDBRANCH   6   7
ENDBRANCH   5   6
ENDBRANCH   3   4
ENDBRANCH   2   3
ENDBRANCH   1   2
BRANCH   1  14
ATOM     14  C   UNL     1      44.506 -41.863  99.597  1.00  0.00     0.000 C 
BRANCH  14  15
ATOM     15  C   UNL     1      44.565 -40.484  98.937  1.00  0.00     0.000 C 
BRANCH  15  16
ATOM     16  C   UNL     1      43.200 -40.086  98.369  1.00  0.00     0.000 C 
BRANCH  16  17
ATOM     17  C   UNL     1      42.118 -40.102  99.449  1.00  0.00     0.000 C 
BRANCH  17  18
ATOM     18  C   UNL     1      42.166 -38.833 100.300  1.00  0.00     0.000 C 
BRANCH  18  19
ATOM     19  C   UNL     1      42.883 -39.078 101.629  1.00  0.00     0.001 C 
BRANCH  19  20
ATOM     20  C   UNL     1      42.097 -38.480 102.801  1.00  0.00     0.012 C 
BRANCH  20  21
ATOM     21  C   UNL     1      41.226 -39.513 103.509  1.00  0.00     0.122 C 
BRANCH  21  22
ATOM     22  C   UNL     1      39.776 -39.122 103.561  1.00  0.00     0.303 C 
ATOM     23  O   UNL     1      38.968 -39.474 104.404  1.00  0.00    -0.252 OA
BRANCH  22  24
ATOM     24  O   UNL     1      39.401 -38.339 102.535  1.00  0.00    -0.481 OA
ATOM     25  H   UNL     1      38.465 -38.022 102.470  1.00  0.00     0.296 HD
ENDBRANCH  22  24
ENDBRANCH  21  22
ENDBRANCH  20  21
ENDBRANCH  19  20
ENDBRANCH  18  19
ENDBRANCH  17  18
ENDBRANCH  16  17
ENDBRANCH  15  16
ENDBRANCH  14  15
ENDBRANCH   1  14
TORSDOF 20
