REMARK SMILES C[C@H]1CN(c2cccc(C(=N)N)c2)C(=O)N(C2CCN(Cc3ccccc3)CC2)C1
REMARK SMILES IDX 1 1 2 2 3 3 4 4 14 5 15 6 16 7 30 8 5 9 6 10 13 11 7 12 9 13
REMARK SMILES IDX 8 14 10 15 11 16 12 17 17 21 18 22 29 23 19 24 28 25 20 26
REMARK SMILES IDX 21 27 22 28 23 29 27 30 24 31 26 32 25 33
REMARK H PARENT 11 18 12 19 12 20
REMARK INDEX MAP 1 1 2 2 3 3 4 4 14 5 15 6 16 7 30 8 5 9 6 10 13 11 7 12 9 13
REMARK INDEX MAP 8 14 10 15 11 16 12 17 40 18 41 19 42 20 17 21 18 22 29 23
REMARK INDEX MAP 19 24 28 25 20 26 21 27 22 28 23 29 27 30 24 31 26 32 25 33
ROOT
ATOM      1  C   UNL     1      -4.095  15.244  24.717  1.00  0.00     0.011 C 
ATOM      2  C   UNL     1      -3.644  13.957  24.036  1.00  0.00     0.025 C 
ATOM      3  C   UNL     1      -3.330  12.871  25.046  1.00  0.00     0.132 C 
ATOM      4  N   UNL     1      -2.896  11.632  24.398  1.00  0.00    -0.294 N 
ATOM      5  C   UNL     1      -3.401  11.264  23.138  1.00  0.00     0.324 C 
ATOM      6  O   UNL     1      -3.038  10.254  22.531  1.00  0.00    -0.248 OA
ATOM      7  N   UNL     1      -4.334  12.125  22.556  1.00  0.00    -0.321 N 
ATOM      8  C   UNL     1      -4.725  13.399  23.139  1.00  0.00     0.126 C 
ENDROOT
BRANCH   4   9
ATOM      9  C   UNL     1      -2.065  10.727  25.164  1.00  0.00     0.046 A 
ATOM     10  C   UNL     1      -0.704  10.552  24.863  1.00  0.00     0.026 A 
ATOM     11  C   UNL     1      -2.581  10.002  26.252  1.00  0.00     0.038 A 
ATOM     12  C   UNL     1       0.111   9.696  25.615  1.00  0.00     0.003 A 
ATOM     13  C   UNL     1      -1.769   9.141  27.007  1.00  0.00     0.018 A 
ATOM     14  C   UNL     1      -0.419   8.992  26.690  1.00  0.00     0.012 A 
BRANCH  13  15
ATOM     15  C   UNL     1      -2.339   8.404  28.167  1.00  0.00     0.122 C 
ATOM     16  N   UNL     1      -1.765   7.357  28.670  1.00  0.00    -0.284 NA
ATOM     17  N   UNL     1      -3.491   8.819  28.749  1.00  0.00    -0.384 N 
ATOM     18  H   UNL     1      -2.190   6.873  29.474  1.00  0.00     0.189 HD
ATOM     19  H   UNL     1      -3.878   8.302  29.552  1.00  0.00     0.158 HD
ATOM     20  H   UNL     1      -3.979   9.651  28.389  1.00  0.00     0.158 HD
ENDBRANCH  13  15
ENDBRANCH   4   9
BRANCH   7  21
ATOM     21  C   UNL     1      -4.943  11.727  21.266  1.00  0.00     0.089 C 
ATOM     22  C   UNL     1      -6.071  10.695  21.405  1.00  0.00     0.041 C 
ATOM     23  C   UNL     1      -5.431  12.950  20.482  1.00  0.00     0.041 C 
ATOM     24  C   UNL     1      -6.648  10.346  20.032  1.00  0.00     0.087 C 
ATOM     25  C   UNL     1      -6.041  12.525  19.146  1.00  0.00     0.087 C 
ATOM     26  N   UNL     1      -7.122  11.555  19.351  1.00  0.00    -0.299 NA
BRANCH  26  27
ATOM     27  C   UNL     1      -7.885  11.270  18.125  1.00  0.00     0.120 C 
BRANCH  27  28
ATOM     28  C   UNL     1      -9.395  11.275  18.238  1.00  0.00    -0.034 A 
ATOM     29  C   UNL     1     -10.020  11.447  19.482  1.00  0.00     0.005 A 
ATOM     30  C   UNL     1     -10.198  11.100  17.100  1.00  0.00     0.005 A 
ATOM     31  C   UNL     1     -11.412  11.455  19.583  1.00  0.00     0.000 A 
ATOM     32  C   UNL     1     -11.590  11.108  17.203  1.00  0.00     0.000 A 
ATOM     33  C   UNL     1     -12.197  11.287  18.445  1.00  0.00     0.000 A 
ENDBRANCH  27  28
ENDBRANCH  26  27
ENDBRANCH   7  21
TORSDOF 5
