MODEL 8
REMARK VINA RESULT:    -7.570      2.630      4.372
REMARK INTER + INTRA:         -13.298
REMARK INTER:                 -11.424
REMARK INTRA:                  -1.874
REMARK UNBOUND:                -1.966
REMARK SMILES CCc1sc2nc(-c3cccnc3)nc(N[C@H](C)C(=O)O)c2c1-c1cccc(Oc2ccc(F)cc2)c1
REMARK SMILES IDX 3 1 4 2 5 3 6 4 7 5 14 6 15 7 22 8 23 9 2 10 1 11 24 12
REMARK SMILES IDX 25 13 37 14 26 15 28 16 27 17 29 18 30 19 31 20 36 21 32 22
REMARK SMILES IDX 35 23 33 24 34 25 16 26 17 28 18 29 19 30 20 31 21 32 8 34
REMARK SMILES IDX 9 35 13 36 10 37 12 38 11 39
REMARK H PARENT 16 27 21 33
ROOT
ATOM      1  C   UNL     1     -16.756   4.002  22.994  1.00  0.00     0.015 A 
ATOM      2  S   UNL     1     -17.949   5.084  22.411  1.00  0.00    -0.120 S 
ATOM      3  C   UNL     1     -16.925   6.429  22.582  1.00  0.00     0.130 A 
ATOM      4  N   UNL     1     -17.371   7.652  22.259  1.00  0.00    -0.217 NA
ATOM      5  C   UNL     1     -16.459   8.612  22.440  1.00  0.00     0.164 A 
ATOM      6  N   UNL     1     -15.211   8.424  22.904  1.00  0.00    -0.210 NA
ATOM      7  C   UNL     1     -14.775   7.184  23.221  1.00  0.00     0.140 A 
ATOM      8  C   UNL     1     -15.670   6.100  23.061  1.00  0.00     0.062 A 
ATOM      9  C   UNL     1     -15.575   4.672  23.297  1.00  0.00     0.009 A 
ENDROOT
BRANCH   1  10
ATOM     10  C   UNL     1     -17.098   2.540  23.108  1.00  0.00     0.044 C 
ATOM     11  C   UNL     1     -16.655   1.758  21.879  1.00  0.00     0.010 C 
ENDBRANCH   1  10
BRANCH   9  12
ATOM     12  C   UNL     1     -14.413   3.956  23.803  1.00  0.00    -0.013 A 
ATOM     13  C   UNL     1     -13.980   4.162  25.118  1.00  0.00     0.009 A 
ATOM     14  C   UNL     1     -13.696   3.099  22.963  1.00  0.00     0.055 A 
ATOM     15  C   UNL     1     -12.830   3.522  25.588  1.00  0.00     0.004 A 
ATOM     16  C   UNL     1     -12.565   2.440  23.449  1.00  0.00     0.128 A 
ATOM     17  C   UNL     1     -12.116   2.668  24.750  1.00  0.00     0.047 A 
BRANCH  16  18
ATOM     18  O   UNL     1     -11.821   1.599  22.651  1.00  0.00    -0.457 OA
BRANCH  18  19
ATOM     19  C   UNL     1     -12.538   0.647  21.959  1.00  0.00     0.127 A 
ATOM     20  C   UNL     1     -13.085  -0.476  22.597  1.00  0.00     0.050 A 
ATOM     21  C   UNL     1     -12.643   0.805  20.572  1.00  0.00     0.050 A 
ATOM     22  C   UNL     1     -13.777  -1.428  21.845  1.00  0.00     0.043 A 
ATOM     23  C   UNL     1     -13.341  -0.147  19.825  1.00  0.00     0.043 A 
ATOM     24  C   UNL     1     -13.905  -1.251  20.470  1.00  0.00     0.123 A 
ATOM     25  F   UNL     1     -14.568  -2.166  19.747  1.00  0.00    -0.207 F 
ENDBRANCH  18  19
ENDBRANCH  16  18
ENDBRANCH   9  12
BRANCH   7  26
ATOM     26  N   UNL     1     -13.473   7.016  23.695  1.00  0.00    -0.357 N 
ATOM     27  H   UNL     1     -12.807   7.113  22.933  1.00  0.00     0.163 HD
BRANCH  26  28
ATOM     28  C   UNL     1     -13.049   7.755  24.903  1.00  0.00     0.187 C 
ATOM     29  C   UNL     1     -14.132   7.720  25.980  1.00  0.00     0.043 C 
BRANCH  28  30
ATOM     30  C   UNL     1     -12.492   9.150  24.580  1.00  0.00     0.325 C 
ATOM     31  O   UNL     1     -13.015  10.216  24.886  1.00  0.00    -0.250 OA
BRANCH  30  32
ATOM     32  O   UNL     1     -11.367   9.148  23.834  1.00  0.00    -0.480 OA
ATOM     33  H   UNL     1     -10.726   9.667  24.367  1.00  0.00     0.296 HD
ENDBRANCH  30  32
ENDBRANCH  28  30
ENDBRANCH  26  28
ENDBRANCH   7  26
BRANCH   5  34
ATOM     34  C   UNL     1     -16.847   9.989  22.093  1.00  0.00     0.038 A 
ATOM     35  C   UNL     1     -16.042  11.100  22.393  1.00  0.00     0.015 A 
ATOM     36  C   UNL     1     -18.051  10.276  21.445  1.00  0.00     0.123 A 
ATOM     37  C   UNL     1     -16.449  12.390  22.050  1.00  0.00     0.021 A 
ATOM     38  N   UNL     1     -18.483  11.521  21.103  1.00  0.00    -0.264 NA
ATOM     39  C   UNL     1     -17.668  12.548  21.413  1.00  0.00     0.111 A 
ENDBRANCH   5  34
TORSDOF 9
ENDMDL
