REMARK SMILES O=C1CSC(N/N=C/c2cc(F)ccc2O)=N1
REMARK SMILES IDX 9 1 10 2 11 3 12 4 13 5 14 6 15 7 8 8 7 9 6 10 1 11 2 12
REMARK SMILES IDX 3 13 17 14 4 15 5 16 16 18
REMARK H PARENT 6 17 16 19
REMARK INDEX MAP 9 1 10 2 11 3 12 4 13 5 14 6 15 7 8 8 7 9 6 10 1 11 2 12 3 13
REMARK INDEX MAP 17 14 4 15 5 16 20 17 16 18 25 19
ROOT
ATOM      1  C   UNL     1      16.151  34.882  16.446  1.00  0.00     0.039 A 
ATOM      2  C   UNL     1      17.076  35.587  17.220  1.00  0.00     0.052 A 
ATOM      3  C   UNL     1      16.629  36.313  18.321  1.00  0.00     0.124 A 
ATOM      4  F   UNL     1      17.514  36.990  19.062  1.00  0.00    -0.207 F 
ATOM      5  C   UNL     1      15.282  36.348  18.664  1.00  0.00     0.043 A 
ATOM      6  C   UNL     1      14.357  35.642  17.894  1.00  0.00     0.050 A 
ATOM      7  C   UNL     1      14.792  34.912  16.790  1.00  0.00     0.124 A 
ENDROOT
BRANCH   1   8
ATOM      8  C   UNL     1      16.658  34.126  15.282  1.00  0.00     0.145 C 
ATOM      9  N   UNL     1      16.269  34.409  14.077  1.00  0.00    -0.181 NA
BRANCH   9  10
ATOM     10  N   UNL     1      16.757  33.631  13.065  1.00  0.00    -0.256 N 
ATOM     11  O   UNL     1      15.691  35.326   8.860  1.00  0.00    -0.272 OA
ATOM     12  C   UNL     1      16.222  34.580   9.674  1.00  0.00     0.258 C 
ATOM     13  C   UNL     1      17.104  33.431   9.242  1.00  0.00     0.180 C 
ATOM     14  N   UNL     1      16.069  34.712  11.033  1.00  0.00    -0.187 NA
ATOM     15  S   UNL     1      17.578  32.612  10.779  1.00  0.00    -0.077 SA
ATOM     16  C   UNL     1      16.688  33.801  11.705  1.00  0.00     0.185 C 
ATOM     17  H   UNL     1      17.255  32.783  13.371  1.00  0.00     0.192 HD
ENDBRANCH   9  10
ENDBRANCH   1   8
BRANCH   7  18
ATOM     18  O   UNL     1      13.828  34.244  16.085  1.00  0.00    -0.507 OA
ATOM     19  H   UNL     1      14.077  33.708  15.291  1.00  0.00     0.293 HD
ENDBRANCH   7  18
TORSDOF 3
