MODEL 9
REMARK VINA RESULT:    -8.906      4.312      7.091
REMARK INTER + INTRA:         -11.640
REMARK INTER:                 -10.590
REMARK INTRA:                  -1.051
REMARK UNBOUND:                -0.652
REMARK SMILES N#C[C@H]1CCCC[C@@H]1n1nc(Nc2ccc(-c3ccno3)cc2)c2c(=O)[nH]ccc21
REMARK SMILES IDX 12 1 11 3 9 4 10 5 30 6 29 7 24 8 28 9 25 10 27 11 26 12
REMARK SMILES IDX 8 14 1 15 2 16 3 17 4 18 5 19 7 20 6 21 13 22 14 23 23 24
REMARK SMILES IDX 15 25 22 26 16 27 17 28 18 29 21 30 19 31 20 32
REMARK H PARENT 12 2 27 13
ROOT
ATOM      1  N   UNL     1       6.705 -22.102  20.182  1.00  0.00    -0.338 N 
ATOM      2  H   UNL     1       6.072 -22.500  19.492  1.00  0.00     0.168 HD
ENDROOT
BRANCH   1   3
ATOM      3  C   UNL     1       6.492 -20.782  20.382  1.00  0.00     0.166 A 
ATOM      4  N   UNL     1       5.434 -18.928  20.504  1.00  0.00    -0.258 N 
ATOM      5  N   UNL     1       5.275 -20.243  20.238  1.00  0.00    -0.153 NA
ATOM      6  C   UNL     1       6.731 -18.616  20.785  1.00  0.00     0.078 A 
ATOM      7  C   UNL     1       7.285 -17.356  21.103  1.00  0.00     0.046 A 
ATOM      8  C   UNL     1       7.452 -19.792  20.675  1.00  0.00     0.109 A 
ATOM      9  C   UNL     1       8.620 -17.346  21.280  1.00  0.00     0.088 A 
ATOM     10  C   UNL     1       8.892 -19.758  20.841  1.00  0.00     0.261 A 
ATOM     11  N   UNL     1       9.387 -18.491  21.154  1.00  0.00    -0.328 N 
ATOM     12  O   UNL     1       9.652 -20.713  20.722  1.00  0.00    -0.269 OA
ATOM     13  H   UNL     1      10.391 -18.447  21.275  1.00  0.00     0.169 HD
BRANCH   4  14
ATOM     14  C   UNL     1       4.238 -18.088  20.441  1.00  0.00     0.125 C 
ATOM     15  N   UNL     1       3.304 -19.392  23.575  1.00  0.00    -0.198 NA
ATOM     16  C   UNL     1       3.185 -19.108  22.457  1.00  0.00     0.068 C 
ATOM     17  C   UNL     1       2.984 -18.755  21.038  1.00  0.00     0.117 C 
ATOM     18  C   UNL     1       1.760 -17.830  20.919  1.00  0.00     0.021 C 
ATOM     19  C   UNL     1       1.541 -17.349  19.488  1.00  0.00     0.002 C 
ATOM     20  C   UNL     1       4.005 -17.558  19.015  1.00  0.00     0.029 C 
ATOM     21  C   UNL     1       2.780 -16.651  18.941  1.00  0.00     0.002 C 
ENDBRANCH   4  14
ENDBRANCH   1   3
BRANCH   1  22
ATOM     22  C   UNL     1       7.068 -23.103  21.113  1.00  0.00     0.040 A 
ATOM     23  C   UNL     1       6.131 -23.483  22.082  1.00  0.00     0.027 A 
ATOM     24  C   UNL     1       8.300 -23.760  21.099  1.00  0.00     0.027 A 
ATOM     25  C   UNL     1       6.422 -24.484  23.019  1.00  0.00     0.014 A 
ATOM     26  C   UNL     1       8.595 -24.760  22.036  1.00  0.00     0.014 A 
ATOM     27  C   UNL     1       7.662 -25.137  23.010  1.00  0.00     0.020 A 
BRANCH  27  28
ATOM     28  C   UNL     1       7.958 -26.180  23.986  1.00  0.00     0.166 A 
ATOM     29  C   UNL     1       8.846 -26.310  25.031  1.00  0.00     0.074 A 
ATOM     30  O   UNL     1       7.224 -27.330  23.899  1.00  0.00    -0.356 OA
ATOM     31  C   UNL     1       8.592 -27.591  25.551  1.00  0.00     0.158 A 
ATOM     32  N   UNL     1       7.623 -28.220  24.884  1.00  0.00    -0.088 NA
ENDBRANCH  27  28
ENDBRANCH   1  22
TORSDOF 4
ENDMDL
