MODEL 3
REMARK VINA RESULT:    -9.512      3.147      7.114
REMARK INTER + INTRA:         -11.222
REMARK INTER:                 -10.594
REMARK INTRA:                  -0.629
REMARK UNBOUND:                -0.599
REMARK SMILES Cc1cc(N2CC[C@H]3CCN(c4ncnc5[nH]ccc45)C[C@@]3(C)C2)ncc1Br
REMARK SMILES IDX 5 1 6 2 7 3 8 4 9 5 10 6 11 7 21 8 22 9 23 10 24 11 4 12
REMARK SMILES IDX 2 13 3 14 27 15 26 16 25 17 1 18 28 19 12 20 13 21 20 22
REMARK SMILES IDX 14 23 19 24 16 25 15 26 18 27 17 28
REMARK H PARENT 17 29
ROOT
ATOM      1  N   UNL     1      -4.540  28.813 -31.067  1.00  0.00    -0.356 N 
ATOM      2  C   UNL     1      -5.795  29.019 -31.790  1.00  0.00     0.118 C 
ATOM      3  C   UNL     1      -5.925  27.995 -32.910  1.00  0.00     0.026 C 
ATOM      4  C   UNL     1      -5.957  26.556 -32.365  1.00  0.00     0.002 C 
ATOM      5  C   UNL     1      -5.682  25.574 -33.513  1.00  0.00     0.026 C 
ATOM      6  C   UNL     1      -5.703  24.111 -33.061  1.00  0.00     0.118 C 
ATOM      7  N   UNL     1      -5.135  23.948 -31.716  1.00  0.00    -0.355 N 
ATOM      8  C   UNL     1      -4.208  25.001 -31.296  1.00  0.00     0.127 C 
ATOM      9  C   UNL     1      -4.982  26.344 -31.161  1.00  0.00     0.006 C 
ATOM     10  C   UNL     1      -5.796  26.298 -29.842  1.00  0.00     0.015 C 
ATOM     11  C   UNL     1      -3.933  27.481 -31.068  1.00  0.00     0.126 C 
ENDROOT
BRANCH   1  12
ATOM     12  C   UNL     1      -4.248  29.737 -30.074  1.00  0.00     0.128 A 
ATOM     13  C   UNL     1      -4.229  32.029 -29.220  1.00  0.00    -0.032 A 
ATOM     14  C   UNL     1      -4.521  31.099 -30.234  1.00  0.00     0.051 A 
ATOM     15  C   UNL     1      -3.669  31.547 -28.039  1.00  0.00     0.039 A 
ATOM     16  C   UNL     1      -3.441  30.185 -27.937  1.00  0.00     0.129 A 
ATOM     17  N   UNL     1      -3.723  29.289 -28.913  1.00  0.00    -0.238 NA
ATOM     18  C   UNL     1      -4.540  33.481 -29.436  1.00  0.00     0.046 C 
ATOM     19  Br  UNL     1      -3.222  32.663 -26.580  1.00  0.00    -0.049 Br
ENDBRANCH   1  12
BRANCH   7  20
ATOM     20  C   UNL     1      -4.723  22.643 -31.410  1.00  0.00     0.141 A 
ATOM     21  N   UNL     1      -4.862  21.651 -32.332  1.00  0.00    -0.219 NA
ATOM     22  C   UNL     1      -4.199  22.269 -30.150  1.00  0.00     0.061 A 
ATOM     23  C   UNL     1      -4.459  20.400 -32.032  1.00  0.00     0.226 A 
ATOM     24  C   UNL     1      -3.952  22.904 -28.896  1.00  0.00     0.033 A 
ATOM     25  C   UNL     1      -3.829  20.941 -29.985  1.00  0.00     0.142 A 
ATOM     26  N   UNL     1      -3.919  19.956 -30.888  1.00  0.00    -0.218 NA
ATOM     27  C   UNL     1      -3.419  21.967 -28.036  1.00  0.00     0.085 A 
ATOM     28  N   UNL     1      -3.348  20.779 -28.715  1.00  0.00    -0.346 N 
ATOM     29  H   UNL     1      -3.016  19.897 -28.352  1.00  0.00     0.167 HD
ENDBRANCH   7  20
TORSDOF 2
ENDMDL
