MODEL 1
REMARK minimizedAffinity -9.04189682
REMARK CNNscore 0.541626871
REMARK CNNaffinity 7.63446045
REMARK SMILES CN1CCN(CCC#CC(=O)Nc2cc3c(Nc4ccc(F)c(Cl)c4)ncnc3cn2)CC1
REMARK SMILES IDX 9 1 10 2 11 3 12 4 8 6 7 7 6 8 5 9 2 10 3 11 33 12 4 13
REMARK SMILES IDX 32 14 1 15 13 16 14 17 31 18 15 19 30 20 16 21 29 22 26 23
REMARK SMILES IDX 28 24 27 25 17 26 18 28 19 29 25 30 20 31 23 32 21 33 24 34
REMARK SMILES IDX 22 35
REMARK H PARENT 12 5 17 27
ROOT
ATOM      1  C   UNL     1      11.820   2.116  31.069  1.00  0.00    -0.005 C 
ATOM      2  C   UNL     1      13.124   1.911  30.478  1.00  0.00     0.301 C 
ATOM      3  O   UNL     1      14.099   2.410  31.021  1.00  0.00    -0.259 OA
ATOM      4  N   UNL     1      13.103   1.142  29.348  1.00  0.00    -0.300 N 
ATOM      5  H   UNL     1      12.212   0.775  29.035  1.00  0.00     0.172 HD
ENDROOT
BRANCH   1   6
ATOM      6  C   UNL     1      10.718   2.257  31.527  1.00  0.00    -0.092 C 
ATOM      7  C   UNL     1       9.357   2.386  32.071  1.00  0.00     0.105 C 
BRANCH   7   8
ATOM      8  C   UNL     1       8.761   1.023  32.475  1.00  0.00     0.097 C 
BRANCH   8   9
ATOM      9  N   UNL     1       7.532   0.641  31.750  1.00  0.00    -0.300 NA
ATOM     10  N   UNL     1       6.994  -2.276  32.169  1.00  0.00    -0.304 NA
ATOM     11  C   UNL     1       8.082  -1.809  31.293  1.00  0.00     0.099 C 
ATOM     12  C   UNL     1       6.715  -1.280  33.219  1.00  0.00     0.099 C 
ATOM     13  C   UNL     1       7.813  -0.393  30.729  1.00  0.00     0.100 C 
ATOM     14  C   UNL     1       6.463   0.132  32.637  1.00  0.00     0.100 C 
ATOM     15  C   UNL     1       7.307  -3.579  32.749  1.00  0.00     0.105 C 
ENDBRANCH   8   9
ENDBRANCH   7   8
ENDBRANCH   1   6
BRANCH   4  16
ATOM     16  C   UNL     1      14.174   0.761  28.546  1.00  0.00     0.134 A 
ATOM     17  C   UNL     1      14.809   1.595  27.641  1.00  0.00     0.061 A 
ATOM     18  N   UNL     1      14.557  -0.515  28.722  1.00  0.00    -0.237 NA
ATOM     19  C   UNL     1      15.907   1.112  26.883  1.00  0.00     0.048 A 
ATOM     20  C   UNL     1      15.603  -0.957  27.973  1.00  0.00     0.142 A 
ATOM     21  C   UNL     1      16.645   1.858  25.943  1.00  0.00     0.141 A 
ATOM     22  C   UNL     1      16.316  -0.213  27.048  1.00  0.00     0.094 A 
ATOM     23  N   UNL     1      17.653   1.310  25.238  1.00  0.00    -0.219 NA
ATOM     24  N   UNL     1      17.330  -0.761  26.364  1.00  0.00    -0.235 NA
ATOM     25  C   UNL     1      17.948   0.032  25.486  1.00  0.00     0.224 A 
BRANCH  21  26
ATOM     26  N   UNL     1      16.316   3.214  25.719  1.00  0.00    -0.340 N 
ATOM     27  H   UNL     1      15.553   3.535  26.300  1.00  0.00     0.168 HD
BRANCH  26  28
ATOM     28  C   UNL     1      17.039   4.245  25.091  1.00  0.00     0.041 A 
ATOM     29  C   UNL     1      18.290   4.046  24.492  1.00  0.00     0.029 A 
ATOM     30  C   UNL     1      16.468   5.527  25.020  1.00  0.00     0.049 A 
ATOM     31  C   UNL     1      18.966   5.096  23.861  1.00  0.00     0.043 A 
ATOM     32  C   UNL     1      17.141   6.578  24.391  1.00  0.00     0.078 A 
ATOM     33  C   UNL     1      18.388   6.358  23.818  1.00  0.00     0.141 A 
ATOM     34  Cl  UNL     1      16.411   8.136  24.335  1.00  0.00    -0.081 Cl
ATOM     35  F   UNL     1      19.051   7.352  23.209  1.00  0.00    -0.205 F 
ENDBRANCH  26  28
ENDBRANCH  21  26
ENDBRANCH   4  16
TORSDOF 6
ENDMDL
MODEL 2
REMARK minimizedAffinity -9.04256248
REMARK CNNscore 0.261515081
REMARK CNNaffinity 7.28425789
REMARK SMILES CN1CCN(CCC#CC(=O)Nc2cc3c(Nc4ccc(F)c(Cl)c4)ncnc3cn2)CC1
REMARK SMILES IDX 9 1 10 2 11 3 12 4 8 6 7 7 6 8 5 9 2 10 3 11 33 12 4 13
REMARK SMILES IDX 32 14 1 15 13 16 14 17 31 18 15 19 30 20 16 21 29 22 26 23
REMARK SMILES IDX 28 24 27 25 17 26 18 28 19 29 25 30 20 31 23 32 21 33 24 34
REMARK SMILES IDX 22 35
REMARK H PARENT 12 5 17 27
ROOT
ATOM      1  C   UNL     1      11.950   1.768  31.269  1.00  0.00    -0.005 C 
ATOM      2  C   UNL     1      13.211   1.774  30.561  1.00  0.00     0.301 C 
ATOM      3  O   UNL     1      14.106   2.503  30.963  1.00  0.00    -0.259 OA
ATOM      4  N   UNL     1      13.249   0.920  29.495  1.00  0.00    -0.300 N 
ATOM      5  H   UNL     1      12.430   0.357  29.302  1.00  0.00     0.172 HD
ENDROOT
BRANCH   1   6
ATOM      6  C   UNL     1      10.887   1.727  31.828  1.00  0.00    -0.092 C 
ATOM      7  C   UNL     1       9.585   1.726  32.514  1.00  0.00     0.105 C 
BRANCH   7   8
ATOM      8  C   UNL     1       8.739   2.964  32.159  1.00  0.00     0.097 C 
BRANCH   8   9
ATOM      9  N   UNL     1       7.615   2.707  31.236  1.00  0.00    -0.300 NA
ATOM     10  N   UNL     1       5.141   4.029  32.288  1.00  0.00    -0.304 NA
ATOM     11  C   UNL     1       5.692   2.813  32.911  1.00  0.00     0.099 C 
ATOM     12  C   UNL     1       6.212   4.802  31.633  1.00  0.00     0.099 C 
ATOM     13  C   UNL     1       6.525   1.970  31.915  1.00  0.00     0.100 C 
ATOM     14  C   UNL     1       7.043   3.940  30.652  1.00  0.00     0.100 C 
ATOM     15  C   UNL     1       4.426   4.844  33.266  1.00  0.00     0.105 C 
ENDBRANCH   8   9
ENDBRANCH   7   8
ENDBRANCH   1   6
BRANCH   4  16
ATOM     16  C   UNL     1      14.302   0.689  28.614  1.00  0.00     0.134 A 
ATOM     17  C   UNL     1      14.891   1.665  27.827  1.00  0.00     0.061 A 
ATOM     18  N   UNL     1      14.715  -0.589  28.584  1.00  0.00    -0.237 NA
ATOM     19  C   UNL     1      15.973   1.327  26.974  1.00  0.00     0.048 A 
ATOM     20  C   UNL     1      15.744  -0.888  27.747  1.00  0.00     0.142 A 
ATOM     21  C   UNL     1      16.666   2.224  26.136  1.00  0.00     0.141 A 
ATOM     22  C   UNL     1      16.413   0.003  26.925  1.00  0.00     0.094 A 
ATOM     23  N   UNL     1      17.661   1.812  25.328  1.00  0.00    -0.219 NA
ATOM     24  N   UNL     1      17.415  -0.411  26.137  1.00  0.00    -0.235 NA
ATOM     25  C   UNL     1      17.989   0.519  25.371  1.00  0.00     0.224 A 
BRANCH  21  26
ATOM     26  N   UNL     1      16.303   3.590  26.129  1.00  0.00    -0.340 N 
ATOM     27  H   UNL     1      16.345   4.013  27.047  1.00  0.00     0.168 HD
BRANCH  26  28
ATOM     28  C   UNL     1      16.209   4.511  25.070  1.00  0.00     0.041 A 
ATOM     29  C   UNL     1      17.167   5.508  24.835  1.00  0.00     0.029 A 
ATOM     30  C   UNL     1      15.129   4.409  24.176  1.00  0.00     0.049 A 
ATOM     31  C   UNL     1      17.044   6.391  23.758  1.00  0.00     0.043 A 
ATOM     32  C   UNL     1      15.003   5.292  23.100  1.00  0.00     0.078 A 
ATOM     33  C   UNL     1      15.959   6.280  22.898  1.00  0.00     0.141 A 
ATOM     34  Cl  UNL     1      13.659   5.139  22.034  1.00  0.00    -0.081 Cl
ATOM     35  F   UNL     1      15.858   7.137  21.871  1.00  0.00    -0.205 F 
ENDBRANCH  26  28
ENDBRANCH  21  26
ENDBRANCH   4  16
TORSDOF 6
ENDMDL
MODEL 3
REMARK minimizedAffinity -9.04879761
REMARK CNNscore 0.242488235
REMARK CNNaffinity 7.27358627
REMARK SMILES CN1CCN(CCC#CC(=O)Nc2cc3c(Nc4ccc(F)c(Cl)c4)ncnc3cn2)CC1
REMARK SMILES IDX 9 1 10 2 11 3 12 4 8 6 7 7 6 8 5 9 2 10 3 11 33 12 4 13
REMARK SMILES IDX 32 14 1 15 13 16 14 17 31 18 15 19 30 20 16 21 29 22 26 23
REMARK SMILES IDX 28 24 27 25 17 26 18 28 19 29 25 30 20 31 23 32 21 33 24 34
REMARK SMILES IDX 22 35
REMARK H PARENT 12 5 17 27
ROOT
ATOM      1  C   UNL     1      11.867   7.463  24.860  1.00  0.00    -0.005 C 
ATOM      2  C   UNL     1      12.428   6.318  25.541  1.00  0.00     0.301 C 
ATOM      3  O   UNL     1      11.876   5.908  26.553  1.00  0.00    -0.259 OA
ATOM      4  N   UNL     1      13.544   5.808  24.938  1.00  0.00    -0.300 N 
ATOM      5  H   UNL     1      13.867   6.244  24.083  1.00  0.00     0.172 HD
ENDROOT
BRANCH   1   6
ATOM      6  C   UNL     1      11.434   8.409  24.259  1.00  0.00    -0.092 C 
ATOM      7  C   UNL     1      10.871   9.538  23.501  1.00  0.00     0.105 C 
BRANCH   7   8
ATOM      8  C   UNL     1       9.373   9.344  23.194  1.00  0.00     0.097 C 
BRANCH   8   9
ATOM      9  N   UNL     1       8.478  10.353  23.795  1.00  0.00    -0.300 NA
ATOM     10  N   UNL     1       5.679   9.904  22.827  1.00  0.00    -0.304 NA
ATOM     11  C   UNL     1       6.717  10.474  21.952  1.00  0.00     0.099 C 
ATOM     12  C   UNL     1       6.288   9.041  23.855  1.00  0.00     0.099 C 
ATOM     13  C   UNL     1       7.834  11.185  22.753  1.00  0.00     0.100 C 
ATOM     14  C   UNL     1       7.413   9.764  24.636  1.00  0.00     0.100 C 
ATOM     15  C   UNL     1       4.679   9.174  22.053  1.00  0.00     0.105 C 
ENDBRANCH   8   9
ENDBRANCH   7   8
ENDBRANCH   1   6
BRANCH   4  16
ATOM     16  C   UNL     1      14.317   4.722  25.334  1.00  0.00     0.134 A 
ATOM     17  C   UNL     1      13.905   3.758  26.240  1.00  0.00     0.061 A 
ATOM     18  N   UNL     1      15.528   4.677  24.755  1.00  0.00    -0.237 NA
ATOM     19  C   UNL     1      14.765   2.677  26.563  1.00  0.00     0.048 A 
ATOM     20  C   UNL     1      16.339   3.638  25.093  1.00  0.00     0.142 A 
ATOM     21  C   UNL     1      14.463   1.628  27.454  1.00  0.00     0.141 A 
ATOM     22  C   UNL     1      16.031   2.616  25.976  1.00  0.00     0.094 A 
ATOM     23  N   UNL     1      15.354   0.658  27.733  1.00  0.00    -0.219 NA
ATOM     24  N   UNL     1      16.916   1.644  26.233  1.00  0.00    -0.235 NA
ATOM     25  C   UNL     1      16.532   0.710  27.107  1.00  0.00     0.224 A 
BRANCH  21  26
ATOM     26  N   UNL     1      13.200   1.594  28.085  1.00  0.00    -0.340 N 
ATOM     27  H   UNL     1      12.440   1.435  27.437  1.00  0.00     0.168 HD
BRANCH  26  28
ATOM     28  C   UNL     1      12.851   1.428  29.438  1.00  0.00     0.041 A 
ATOM     29  C   UNL     1      13.507   2.092  30.484  1.00  0.00     0.029 A 
ATOM     30  C   UNL     1      11.768   0.592  29.761  1.00  0.00     0.049 A 
ATOM     31  C   UNL     1      13.114   1.912  31.815  1.00  0.00     0.043 A 
ATOM     32  C   UNL     1      11.375   0.410  31.090  1.00  0.00     0.078 A 
ATOM     33  C   UNL     1      12.052   1.068  32.110  1.00  0.00     0.141 A 
ATOM     34  Cl  UNL     1      10.050  -0.632  31.445  1.00  0.00    -0.081 Cl
ATOM     35  F   UNL     1      11.691   0.908  33.392  1.00  0.00    -0.205 F 
ENDBRANCH  26  28
ENDBRANCH  21  26
ENDBRANCH   4  16
TORSDOF 6
ENDMDL
MODEL 4
REMARK minimizedAffinity -9.27289391
REMARK CNNscore 0.24221082
REMARK CNNaffinity 7.31728601
REMARK SMILES CN1CCN(CCC#CC(=O)Nc2cc3c(Nc4ccc(F)c(Cl)c4)ncnc3cn2)CC1
REMARK SMILES IDX 9 1 10 2 11 3 12 4 8 6 7 7 6 8 5 9 2 10 3 11 33 12 4 13
REMARK SMILES IDX 32 14 1 15 13 16 14 17 31 18 15 19 30 20 16 21 29 22 26 23
REMARK SMILES IDX 28 24 27 25 17 26 18 28 19 29 25 30 20 31 23 32 21 33 24 34
REMARK SMILES IDX 22 35
REMARK H PARENT 12 5 17 27
ROOT
ATOM      1  C   UNL     1      11.549   1.433  31.099  1.00  0.00    -0.005 C 
ATOM      2  C   UNL     1      12.864   1.457  30.498  1.00  0.00     0.301 C 
ATOM      3  O   UNL     1      13.727   2.162  31.002  1.00  0.00    -0.259 OA
ATOM      4  N   UNL     1      12.986   0.646  29.405  1.00  0.00    -0.300 N 
ATOM      5  H   UNL     1      12.183   0.098  29.123  1.00  0.00     0.172 HD
ENDROOT
BRANCH   1   6
ATOM      6  C   UNL     1      10.443   1.379  31.567  1.00  0.00    -0.092 C 
ATOM      7  C   UNL     1       9.079   1.354  32.117  1.00  0.00     0.105 C 
BRANCH   7   8
ATOM      8  C   UNL     1       8.060   2.031  31.179  1.00  0.00     0.097 C 
BRANCH   8   9
ATOM      9  N   UNL     1       8.152   3.504  31.119  1.00  0.00    -0.300 NA
ATOM     10  N   UNL     1       5.683   4.705  32.315  1.00  0.00    -0.304 NA
ATOM     11  C   UNL     1       5.664   4.055  30.994  1.00  0.00     0.099 C 
ATOM     12  C   UNL     1       6.748   4.131  33.157  1.00  0.00     0.099 C 
ATOM     13  C   UNL     1       7.052   4.076  30.310  1.00  0.00     0.100 C 
ATOM     14  C   UNL     1       8.125   4.147  32.451  1.00  0.00     0.100 C 
ATOM     15  C   UNL     1       4.382   4.604  32.971  1.00  0.00     0.105 C 
ENDBRANCH   8   9
ENDBRANCH   7   8
ENDBRANCH   1   6
BRANCH   4  16
ATOM     16  C   UNL     1      14.106   0.442  28.605  1.00  0.00     0.134 A 
ATOM     17  C   UNL     1      14.725   1.431  27.859  1.00  0.00     0.061 A 
ATOM     18  N   UNL     1      14.556  -0.824  28.613  1.00  0.00    -0.237 NA
ATOM     19  C   UNL     1      15.876   1.121  27.089  1.00  0.00     0.048 A 
ATOM     20  C   UNL     1      15.652  -1.097  27.856  1.00  0.00     0.142 A 
ATOM     21  C   UNL     1      16.603   2.034  26.300  1.00  0.00     0.141 A 
ATOM     22  C   UNL     1      16.354  -0.191  27.080  1.00  0.00     0.094 A 
ATOM     23  N   UNL     1      17.666   1.648  25.569  1.00  0.00    -0.219 NA
ATOM     24  N   UNL     1      17.423  -0.579  26.370  1.00  0.00    -0.235 NA
ATOM     25  C   UNL     1      18.026   0.365  25.644  1.00  0.00     0.224 A 
BRANCH  21  26
ATOM     26  N   UNL     1      16.204   3.389  26.259  1.00  0.00    -0.340 N 
ATOM     27  H   UNL     1      16.964   4.029  26.449  1.00  0.00     0.168 HD
BRANCH  26  28
ATOM     28  C   UNL     1      15.061   3.996  25.707  1.00  0.00     0.041 A 
ATOM     29  C   UNL     1      14.876   5.384  25.666  1.00  0.00     0.029 A 
ATOM     30  C   UNL     1      14.073   3.180  25.130  1.00  0.00     0.049 A 
ATOM     31  C   UNL     1      13.732   5.946  25.091  1.00  0.00     0.043 A 
ATOM     32  C   UNL     1      12.928   3.738  24.555  1.00  0.00     0.078 A 
ATOM     33  C   UNL     1      12.761   5.118  24.541  1.00  0.00     0.141 A 
ATOM     34  Cl  UNL     1      11.736   2.703  23.868  1.00  0.00    -0.081 Cl
ATOM     35  F   UNL     1      11.671   5.675  23.994  1.00  0.00    -0.205 F 
ENDBRANCH  26  28
ENDBRANCH  21  26
ENDBRANCH   4  16
TORSDOF 6
ENDMDL
MODEL 5
REMARK minimizedAffinity -8.78730106
REMARK CNNscore 0.232996032
REMARK CNNaffinity 7.22320175
REMARK SMILES CN1CCN(CCC#CC(=O)Nc2cc3c(Nc4ccc(F)c(Cl)c4)ncnc3cn2)CC1
REMARK SMILES IDX 9 1 10 2 11 3 12 4 8 6 7 7 6 8 5 9 2 10 3 11 33 12 4 13
REMARK SMILES IDX 32 14 1 15 13 16 14 17 31 18 15 19 30 20 16 21 29 22 26 23
REMARK SMILES IDX 28 24 27 25 17 26 18 28 19 29 25 30 20 31 23 32 21 33 24 34
REMARK SMILES IDX 22 35
REMARK H PARENT 12 5 17 27
ROOT
ATOM      1  C   UNL     1      12.104   2.032  31.166  1.00  0.00    -0.005 C 
ATOM      2  C   UNL     1      13.371   1.936  30.475  1.00  0.00     0.301 C 
ATOM      3  O   UNL     1      14.315   2.596  30.886  1.00  0.00    -0.259 OA
ATOM      4  N   UNL     1      13.357   1.076  29.413  1.00  0.00    -0.300 N 
ATOM      5  H   UNL     1      12.499   0.577  29.212  1.00  0.00     0.172 HD
ENDROOT
BRANCH   1   6
ATOM      6  C   UNL     1      11.034   2.076  31.711  1.00  0.00    -0.092 C 
ATOM      7  C   UNL     1       9.711   2.091  32.354  1.00  0.00     0.105 C 
BRANCH   7   8
ATOM      8  C   UNL     1       9.118   0.675  32.498  1.00  0.00     0.097 C 
BRANCH   8   9
ATOM      9  N   UNL     1       8.875  -0.030  31.224  1.00  0.00    -0.300 NA
ATOM     10  N   UNL     1       7.732  -2.741  31.789  1.00  0.00    -0.304 NA
ATOM     11  C   UNL     1       9.151  -2.433  32.039  1.00  0.00     0.099 C 
ATOM     12  C   UNL     1       6.913  -1.520  31.894  1.00  0.00     0.099 C 
ATOM     13  C   UNL     1       9.666  -1.280  31.145  1.00  0.00     0.100 C 
ATOM     14  C   UNL     1       7.452  -0.373  31.006  1.00  0.00     0.100 C 
ATOM     15  C   UNL     1       7.250  -3.778  32.697  1.00  0.00     0.105 C 
ENDBRANCH   8   9
ENDBRANCH   7   8
ENDBRANCH   1   6
BRANCH   4  16
ATOM     16  C   UNL     1      14.400   0.760  28.547  1.00  0.00     0.134 A 
ATOM     17  C   UNL     1      15.025   1.671  27.712  1.00  0.00     0.061 A 
ATOM     18  N   UNL     1      14.764  -0.533  28.585  1.00  0.00    -0.237 NA
ATOM     19  C   UNL     1      16.093   1.248  26.879  1.00  0.00     0.048 A 
ATOM     20  C   UNL     1      15.781  -0.914  27.767  1.00  0.00     0.142 A 
ATOM     21  C   UNL     1      16.820   2.073  25.997  1.00  0.00     0.141 A 
ATOM     22  C   UNL     1      16.483  -0.093  26.900  1.00  0.00     0.094 A 
ATOM     23  N   UNL     1      17.799   1.583  25.213  1.00  0.00    -0.219 NA
ATOM     24  N   UNL     1      17.469  -0.585  26.137  1.00  0.00    -0.235 NA
ATOM     25  C   UNL     1      18.077   0.282  25.325  1.00  0.00     0.224 A 
BRANCH  21  26
ATOM     26  N   UNL     1      16.509   3.450  25.918  1.00  0.00    -0.340 N 
ATOM     27  H   UNL     1      17.267   4.042  26.230  1.00  0.00     0.168 HD
BRANCH  26  28
ATOM     28  C   UNL     1      15.498   4.125  25.211  1.00  0.00     0.041 A 
ATOM     29  C   UNL     1      14.834   3.571  24.108  1.00  0.00     0.029 A 
ATOM     30  C   UNL     1      15.099   5.399  25.651  1.00  0.00     0.049 A 
ATOM     31  C   UNL     1      13.821   4.271  23.446  1.00  0.00     0.043 A 
ATOM     32  C   UNL     1      14.087   6.101  24.991  1.00  0.00     0.078 A 
ATOM     33  C   UNL     1      13.455   5.535  23.889  1.00  0.00     0.141 A 
ATOM     34  Cl  UNL     1      13.635   7.664  25.555  1.00  0.00    -0.081 Cl
ATOM     35  F   UNL     1      12.481   6.192  23.241  1.00  0.00    -0.205 F 
ENDBRANCH  26  28
ENDBRANCH  21  26
ENDBRANCH   4  16
TORSDOF 6
ENDMDL
MODEL 6
REMARK minimizedAffinity -8.13179111
REMARK CNNscore 0.21802412
REMARK CNNaffinity 6.51773787
REMARK SMILES CN1CCN(CCC#CC(=O)Nc2cc3c(Nc4ccc(F)c(Cl)c4)ncnc3cn2)CC1
REMARK SMILES IDX 9 1 10 2 11 3 12 4 8 6 7 7 6 8 5 9 2 10 3 11 33 12 4 13
REMARK SMILES IDX 32 14 1 15 13 16 14 17 31 18 15 19 30 20 16 21 29 22 26 23
REMARK SMILES IDX 28 24 27 25 17 26 18 28 19 29 25 30 20 31 23 32 21 33 24 34
REMARK SMILES IDX 22 35
REMARK H PARENT 12 5 17 27
ROOT
ATOM      1  C   UNL     1      12.175   4.518  25.109  1.00  0.00    -0.005 C 
ATOM      2  C   UNL     1      12.089   4.416  26.549  1.00  0.00     0.301 C 
ATOM      3  O   UNL     1      11.688   5.381  27.183  1.00  0.00    -0.259 OA
ATOM      4  N   UNL     1      12.470   3.198  27.039  1.00  0.00    -0.300 N 
ATOM      5  H   UNL     1      12.754   2.484  26.380  1.00  0.00     0.172 HD
ENDROOT
BRANCH   1   6
ATOM      6  C   UNL     1      12.258   4.557  23.911  1.00  0.00    -0.092 C 
ATOM      7  C   UNL     1      12.388   4.643  22.448  1.00  0.00     0.105 C 
BRANCH   7   8
ATOM      8  C   UNL     1      13.726   5.277  22.019  1.00  0.00     0.097 C 
BRANCH   8   9
ATOM      9  N   UNL     1      13.676   6.043  20.757  1.00  0.00    -0.300 NA
ATOM     10  N   UNL     1      12.820   8.855  21.332  1.00  0.00    -0.304 NA
ATOM     11  C   UNL     1      11.869   7.731  21.386  1.00  0.00     0.099 C 
ATOM     12  C   UNL     1      14.186   8.388  21.627  1.00  0.00     0.099 C 
ATOM     13  C   UNL     1      12.310   6.548  20.492  1.00  0.00     0.100 C 
ATOM     14  C   UNL     1      14.604   7.195  20.734  1.00  0.00     0.100 C 
ATOM     15  C   UNL     1      12.422   9.926  22.241  1.00  0.00     0.105 C 
ENDBRANCH   8   9
ENDBRANCH   7   8
ENDBRANCH   1   6
BRANCH   4  16
ATOM     16  C   UNL     1      12.506   2.777  28.365  1.00  0.00     0.134 A 
ATOM     17  C   UNL     1      11.387   2.438  29.108  1.00  0.00     0.061 A 
ATOM     18  N   UNL     1      13.744   2.721  28.884  1.00  0.00    -0.237 NA
ATOM     19  C   UNL     1      11.536   2.002  30.450  1.00  0.00     0.048 A 
ATOM     20  C   UNL     1      13.857   2.313  30.176  1.00  0.00     0.142 A 
ATOM     21  C   UNL     1      10.485   1.617  31.307  1.00  0.00     0.141 A 
ATOM     22  C   UNL     1      12.814   1.943  31.009  1.00  0.00     0.094 A 
ATOM     23  N   UNL     1      10.711   1.249  32.583  1.00  0.00    -0.219 NA
ATOM     24  N   UNL     1      13.049   1.560  32.272  1.00  0.00    -0.235 NA
ATOM     25  C   UNL     1      11.978   1.234  33.000  1.00  0.00     0.224 A 
BRANCH  21  26
ATOM     26  N   UNL     1       9.156   1.628  30.826  1.00  0.00    -0.340 N 
ATOM     27  H   UNL     1       9.100   1.507  29.823  1.00  0.00     0.168 HD
BRANCH  26  28
ATOM     28  C   UNL     1       7.932   1.461  31.499  1.00  0.00     0.041 A 
ATOM     29  C   UNL     1       7.375   0.205  31.774  1.00  0.00     0.029 A 
ATOM     30  C   UNL     1       7.251   2.602  31.958  1.00  0.00     0.049 A 
ATOM     31  C   UNL     1       6.164   0.085  32.464  1.00  0.00     0.043 A 
ATOM     32  C   UNL     1       6.040   2.484  32.647  1.00  0.00     0.078 A 
ATOM     33  C   UNL     1       5.501   1.227  32.893  1.00  0.00     0.141 A 
ATOM     34  Cl  UNL     1       5.231   3.907  33.183  1.00  0.00    -0.081 Cl
ATOM     35  F   UNL     1       4.341   1.092  33.552  1.00  0.00    -0.205 F 
ENDBRANCH  26  28
ENDBRANCH  21  26
ENDBRANCH   4  16
TORSDOF 6
ENDMDL
MODEL 7
REMARK minimizedAffinity -8.37605381
REMARK CNNscore 0.206449866
REMARK CNNaffinity 7.18939638
REMARK SMILES CN1CCN(CCC#CC(=O)Nc2cc3c(Nc4ccc(F)c(Cl)c4)ncnc3cn2)CC1
REMARK SMILES IDX 9 1 10 2 11 3 12 4 8 6 7 7 6 8 5 9 2 10 3 11 33 12 4 13
REMARK SMILES IDX 32 14 1 15 13 16 14 17 31 18 15 19 30 20 16 21 29 22 26 23
REMARK SMILES IDX 28 24 27 25 17 26 18 28 19 29 25 30 20 31 23 32 21 33 24 34
REMARK SMILES IDX 22 35
REMARK H PARENT 12 5 17 27
ROOT
ATOM      1  C   UNL     1       5.427   4.503  32.349  1.00  0.00    -0.005 C 
ATOM      2  C   UNL     1       6.367   3.487  31.932  1.00  0.00     0.301 C 
ATOM      3  O   UNL     1       7.306   3.812  31.220  1.00  0.00    -0.259 OA
ATOM      4  N   UNL     1       6.083   2.240  32.416  1.00  0.00    -0.300 N 
ATOM      5  H   UNL     1       5.278   2.134  33.021  1.00  0.00     0.172 HD
ENDROOT
BRANCH   1   6
ATOM      6  C   UNL     1       4.624   5.315  32.724  1.00  0.00    -0.092 C 
ATOM      7  C   UNL     1       3.673   6.344  33.171  1.00  0.00     0.105 C 
BRANCH   7   8
ATOM      8  C   UNL     1       3.840   7.667  32.397  1.00  0.00     0.097 C 
BRANCH   8   9
ATOM      9  N   UNL     1       2.728   8.625  32.555  1.00  0.00    -0.300 NA
ATOM     10  N   UNL     1       3.167  10.265  35.023  1.00  0.00    -0.304 NA
ATOM     11  C   UNL     1       2.753   8.853  35.097  1.00  0.00     0.099 C 
ATOM     12  C   UNL     1       3.925  10.515  33.784  1.00  0.00     0.099 C 
ATOM     13  C   UNL     1       2.000   8.396  33.824  1.00  0.00     0.100 C 
ATOM     14  C   UNL     1       3.163  10.039  32.524  1.00  0.00     0.100 C 
ATOM     15  C   UNL     1       3.941  10.648  36.201  1.00  0.00     0.105 C 
ENDBRANCH   8   9
ENDBRANCH   7   8
ENDBRANCH   1   6
BRANCH   4  16
ATOM     16  C   UNL     1       6.780   1.055  32.204  1.00  0.00     0.134 A 
ATOM     17  C   UNL     1       8.128   0.986  31.892  1.00  0.00     0.061 A 
ATOM     18  N   UNL     1       6.025  -0.049  32.329  1.00  0.00    -0.237 NA
ATOM     19  C   UNL     1       8.748  -0.278  31.714  1.00  0.00     0.048 A 
ATOM     20  C   UNL     1       6.641  -1.247  32.139  1.00  0.00     0.142 A 
ATOM     21  C   UNL     1      10.108  -0.487  31.409  1.00  0.00     0.141 A 
ATOM     22  C   UNL     1       7.978  -1.437  31.834  1.00  0.00     0.094 A 
ATOM     23  N   UNL     1      10.609  -1.722  31.220  1.00  0.00    -0.219 NA
ATOM     24  N   UNL     1       8.474  -2.671  31.666  1.00  0.00    -0.235 NA
ATOM     25  C   UNL     1       9.771  -2.751  31.362  1.00  0.00     0.224 A 
BRANCH  21  26
ATOM     26  N   UNL     1      10.971   0.625  31.284  1.00  0.00    -0.340 N 
ATOM     27  H   UNL     1      11.450   0.851  32.145  1.00  0.00     0.168 HD
BRANCH  26  28
ATOM     28  C   UNL     1      11.506   1.251  30.143  1.00  0.00     0.041 A 
ATOM     29  C   UNL     1      10.921   2.373  29.540  1.00  0.00     0.029 A 
ATOM     30  C   UNL     1      12.706   0.760  29.600  1.00  0.00     0.049 A 
ATOM     31  C   UNL     1      11.497   2.976  28.417  1.00  0.00     0.043 A 
ATOM     32  C   UNL     1      13.284   1.359  28.478  1.00  0.00     0.078 A 
ATOM     33  C   UNL     1      12.675   2.462  27.890  1.00  0.00     0.141 A 
ATOM     34  Cl  UNL     1      14.749   0.720  27.838  1.00  0.00    -0.081 Cl
ATOM     35  F   UNL     1      13.213   3.053  26.813  1.00  0.00    -0.205 F 
ENDBRANCH  26  28
ENDBRANCH  21  26
ENDBRANCH   4  16
TORSDOF 6
ENDMDL
MODEL 8
REMARK minimizedAffinity -8.42340851
REMARK CNNscore 0.187326878
REMARK CNNaffinity 6.45961046
REMARK SMILES CN1CCN(CCC#CC(=O)Nc2cc3c(Nc4ccc(F)c(Cl)c4)ncnc3cn2)CC1
REMARK SMILES IDX 9 1 10 2 11 3 12 4 8 6 7 7 6 8 5 9 2 10 3 11 33 12 4 13
REMARK SMILES IDX 32 14 1 15 13 16 14 17 31 18 15 19 30 20 16 21 29 22 26 23
REMARK SMILES IDX 28 24 27 25 17 26 18 28 19 29 25 30 20 31 23 32 21 33 24 34
REMARK SMILES IDX 22 35
REMARK H PARENT 12 5 17 27
ROOT
ATOM      1  C   UNL     1      12.451   4.256  25.202  1.00  0.00    -0.005 C 
ATOM      2  C   UNL     1      12.176   4.141  26.617  1.00  0.00     0.301 C 
ATOM      3  O   UNL     1      11.690   5.100  27.200  1.00  0.00    -0.259 OA
ATOM      4  N   UNL     1      12.496   2.921  27.144  1.00  0.00    -0.300 N 
ATOM      5  H   UNL     1      12.869   2.214  26.523  1.00  0.00     0.172 HD
ENDROOT
BRANCH   1   6
ATOM      6  C   UNL     1      12.692   4.305  24.025  1.00  0.00    -0.092 C 
ATOM      7  C   UNL     1      13.010   4.406  22.593  1.00  0.00     0.105 C 
BRANCH   7   8
ATOM      8  C   UNL     1      14.349   5.129  22.344  1.00  0.00     0.097 C 
BRANCH   8   9
ATOM      9  N   UNL     1      14.268   6.300  21.449  1.00  0.00    -0.300 NA
ATOM     10  N   UNL     1      14.317   8.809  23.084  1.00  0.00    -0.304 NA
ATOM     11  C   UNL     1      13.128   7.940  23.039  1.00  0.00     0.099 C 
ATOM     12  C   UNL     1      15.539   8.024  22.837  1.00  0.00     0.099 C 
ATOM     13  C   UNL     1      13.061   7.109  21.735  1.00  0.00     0.100 C 
ATOM     14  C   UNL     1      15.447   7.189  21.537  1.00  0.00     0.100 C 
ATOM     15  C   UNL     1      14.398   9.524  24.355  1.00  0.00     0.105 C 
ENDBRANCH   8   9
ENDBRANCH   7   8
ENDBRANCH   1   6
BRANCH   4  16
ATOM     16  C   UNL     1      12.359   2.489  28.460  1.00  0.00     0.134 A 
ATOM     17  C   UNL     1      11.151   2.400  29.132  1.00  0.00     0.061 A 
ATOM     18  N   UNL     1      13.521   2.154  29.045  1.00  0.00    -0.237 NA
ATOM     19  C   UNL     1      11.119   1.928  30.469  1.00  0.00     0.048 A 
ATOM     20  C   UNL     1      13.464   1.718  30.332  1.00  0.00     0.142 A 
ATOM     21  C   UNL     1       9.960   1.778  31.257  1.00  0.00     0.141 A 
ATOM     22  C   UNL     1      12.317   1.581  31.097  1.00  0.00     0.094 A 
ATOM     23  N   UNL     1      10.022   1.357  32.534  1.00  0.00    -0.219 NA
ATOM     24  N   UNL     1      12.386   1.142  32.362  1.00  0.00    -0.235 NA
ATOM     25  C   UNL     1      11.228   1.056  33.021  1.00  0.00     0.224 A 
BRANCH  21  26
ATOM     26  N   UNL     1       8.698   2.090  30.703  1.00  0.00    -0.340 N 
ATOM     27  H   UNL     1       8.300   1.324  30.175  1.00  0.00     0.168 HD
BRANCH  26  28
ATOM     28  C   UNL     1       7.787   3.118  31.008  1.00  0.00     0.041 A 
ATOM     29  C   UNL     1       7.367   4.071  30.070  1.00  0.00     0.029 A 
ATOM     30  C   UNL     1       7.236   3.173  32.300  1.00  0.00     0.049 A 
ATOM     31  C   UNL     1       6.445   5.065  30.412  1.00  0.00     0.043 A 
ATOM     32  C   UNL     1       6.315   4.167  32.644  1.00  0.00     0.078 A 
ATOM     33  C   UNL     1       5.926   5.109  31.699  1.00  0.00     0.141 A 
ATOM     34  Cl  UNL     1       5.671   4.206  34.241  1.00  0.00    -0.081 Cl
ATOM     35  F   UNL     1       5.043   6.070  32.008  1.00  0.00    -0.205 F 
ENDBRANCH  26  28
ENDBRANCH  21  26
ENDBRANCH   4  16
TORSDOF 6
ENDMDL
MODEL 9
REMARK minimizedAffinity -8.75722122
REMARK CNNscore 0.16897352
REMARK CNNaffinity 6.23852015
REMARK SMILES CN1CCN(CCC#CC(=O)Nc2cc3c(Nc4ccc(F)c(Cl)c4)ncnc3cn2)CC1
REMARK SMILES IDX 9 1 10 2 11 3 12 4 8 6 7 7 6 8 5 9 2 10 3 11 33 12 4 13
REMARK SMILES IDX 32 14 1 15 13 16 14 17 31 18 15 19 30 20 16 21 29 22 26 23
REMARK SMILES IDX 28 24 27 25 17 26 18 28 19 29 25 30 20 31 23 32 21 33 24 34
REMARK SMILES IDX 22 35
REMARK H PARENT 12 5 17 27
ROOT
ATOM      1  C   UNL     1      12.811   4.852  25.669  1.00  0.00    -0.005 C 
ATOM      2  C   UNL     1      12.302   4.402  26.946  1.00  0.00     0.301 C 
ATOM      3  O   UNL     1      11.212   4.811  27.320  1.00  0.00    -0.259 OA
ATOM      4  N   UNL     1      13.133   3.533  27.595  1.00  0.00    -0.300 N 
ATOM      5  H   UNL     1      13.998   3.267  27.140  1.00  0.00     0.172 HD
ENDROOT
BRANCH   1   6
ATOM      6  C   UNL     1      13.270   5.195  24.612  1.00  0.00    -0.092 C 
ATOM      7  C   UNL     1      13.874   5.595  23.332  1.00  0.00     0.105 C 
BRANCH   7   8
ATOM      8  C   UNL     1      14.980   4.620  22.881  1.00  0.00     0.097 C 
BRANCH   8   9
ATOM      9  N   UNL     1      16.356   5.043  23.212  1.00  0.00    -0.300 NA
ATOM     10  N   UNL     1      17.638   2.978  24.963  1.00  0.00    -0.304 NA
ATOM     11  C   UNL     1      16.596   3.886  25.474  1.00  0.00     0.099 C 
ATOM     12  C   UNL     1      17.472   2.767  23.515  1.00  0.00     0.099 C 
ATOM     13  C   UNL     1      16.527   5.209  24.674  1.00  0.00     0.100 C 
ATOM     14  C   UNL     1      17.390   4.100  22.732  1.00  0.00     0.100 C 
ATOM     15  C   UNL     1      17.631   1.709  25.685  1.00  0.00     0.105 C 
ENDBRANCH   8   9
ENDBRANCH   7   8
ENDBRANCH   1   6
BRANCH   4  16
ATOM     16  C   UNL     1      12.944   2.922  28.831  1.00  0.00     0.134 A 
ATOM     17  C   UNL     1      11.707   2.588  29.357  1.00  0.00     0.061 A 
ATOM     18  N   UNL     1      14.086   2.674  29.494  1.00  0.00    -0.237 NA
ATOM     19  C   UNL     1      11.625   1.950  30.621  1.00  0.00     0.048 A 
ATOM     20  C   UNL     1      13.979   2.073  30.710  1.00  0.00     0.142 A 
ATOM     21  C   UNL     1      10.436   1.547  31.260  1.00  0.00     0.141 A 
ATOM     22  C   UNL     1      12.801   1.688  31.329  1.00  0.00     0.094 A 
ATOM     23  N   UNL     1      10.445   0.978  32.481  1.00  0.00    -0.219 NA
ATOM     24  N   UNL     1      12.820   1.104  32.535  1.00  0.00    -0.235 NA
ATOM     25  C   UNL     1      11.634   0.781  33.055  1.00  0.00     0.224 A 
BRANCH  21  26
ATOM     26  N   UNL     1       9.196   1.755  30.615  1.00  0.00    -0.340 N 
ATOM     27  H   UNL     1       9.045   1.123  29.840  1.00  0.00     0.168 HD
BRANCH  26  28
ATOM     28  C   UNL     1       8.041   2.439  31.038  1.00  0.00     0.041 A 
ATOM     29  C   UNL     1       7.233   1.996  32.094  1.00  0.00     0.029 A 
ATOM     30  C   UNL     1       7.699   3.647  30.406  1.00  0.00     0.049 A 
ATOM     31  C   UNL     1       6.104   2.717  32.495  1.00  0.00     0.043 A 
ATOM     32  C   UNL     1       6.571   4.370  30.804  1.00  0.00     0.078 A 
ATOM     33  C   UNL     1       5.777   3.900  31.844  1.00  0.00     0.141 A 
ATOM     34  Cl  UNL     1       6.180   5.840  29.996  1.00  0.00    -0.081 Cl
ATOM     35  F   UNL     1       4.691   4.578  32.242  1.00  0.00    -0.205 F 
ENDBRANCH  26  28
ENDBRANCH  21  26
ENDBRANCH   4  16
TORSDOF 6
ENDMDL
