REMARK VINA RESULT:    -6.430      3.538      6.379
REMARK INTER + INTRA:         -13.487
REMARK INTER:                 -11.891
REMARK INTRA:                  -1.596
REMARK UNBOUND:                -1.795
REMARK SMILES CN1C/C=C/COCc2ccc(s2)-c2ccnc(n2)Nc2ccc(OCCN3CCCC3)c(c2)C1
REMARK SMILES IDX 20 1 21 3 33 4 24 5 34 6 23 7 22 8 35 9 2 10 1 11 3 12 4 13
REMARK SMILES IDX 5 14 25 16 26 17 27 18 28 19 29 20 32 21 30 22 31 23 18 24
REMARK SMILES IDX 17 25 19 26 16 27 14 28 15 29 12 30 11 31 13 32 10 33 9 34
REMARK SMILES IDX 8 35 7 36 6 37
REMARK H PARENT 20 2
REMARK Flexibility Score:  104.900
ROOT
ATOM      1  N   UNL     1       9.671 -24.150  23.139  1.00  0.00    -0.324 N 
ATOM      2  H   UNL     1      10.607 -24.340  22.821  1.00  0.00     0.170 HD
ENDROOT
BRANCH   1   3
ATOM      3  C   UNL     1       9.138 -22.877  22.903  1.00  0.00     0.041 A 
ATOM      4  C   UNL     1       7.729 -21.328  21.604  1.00  0.00     0.010 A 
ATOM      5  C   UNL     1       8.212 -20.245  22.346  1.00  0.00     0.124 A 
ATOM      6  C   UNL     1       8.197 -22.625  21.903  1.00  0.00     0.035 A 
ATOM      7  C   UNL     1       9.136 -20.482  23.369  1.00  0.00     0.049 A 
ATOM      8  C   UNL     1       9.597 -21.782  23.638  1.00  0.00     0.030 A 
BRANCH   4   9
ATOM      9  C   UNL     1       6.734 -21.182  20.466  1.00  0.00     0.124 C 
BRANCH   9  10
ATOM     10  N   UNL     1       5.384 -21.722  20.721  1.00  0.00    -0.298 NA
ATOM     11  C   UNL     1       4.380 -20.700  21.018  1.00  0.00     0.106 C 
BRANCH  10  12
ATOM     12  C   UNL     1       4.937 -22.608  19.638  1.00  0.00     0.111 C 
BRANCH  12  13
ATOM     13  C   UNL     1       4.224 -23.863  20.077  1.00  0.00    -0.014 C 
ATOM     14  C   UNL     1       2.968 -23.894  20.556  1.00  0.00    -0.002 CG0
ATOM     15  G   UNL     1       2.254 -25.140  20.976  1.00  0.00     0.000 G0
ENDBRANCH  12  13
ENDBRANCH  10  12
ENDBRANCH   9  10
ENDBRANCH   4   9
BRANCH   5  16
ATOM     16  O   UNL     1       7.707 -19.016  22.021  1.00  0.00    -0.492 OA
BRANCH  16  17
ATOM     17  C   UNL     1       8.605 -17.905  22.056  1.00  0.00     0.245 C 
BRANCH  17  18
ATOM     18  C   UNL     1       9.515 -17.946  20.813  1.00  0.00     0.126 C 
BRANCH  18  19
ATOM     19  N   UNL     1      10.888 -17.478  21.065  1.00  0.00    -0.300 NA
ATOM     20  C   UNL     1      11.843 -18.050  20.113  1.00  0.00     0.084 C 
ATOM     21  C   UNL     1      11.397 -17.859  22.388  1.00  0.00     0.084 C 
ATOM     22  C   UNL     1      13.193 -17.793  20.767  1.00  0.00     0.017 C 
ATOM     23  C   UNL     1      12.895 -17.630  22.253  1.00  0.00     0.017 C 
ENDBRANCH  18  19
ENDBRANCH  17  18
ENDBRANCH  16  17
ENDBRANCH   5  16
ENDBRANCH   1   3
BRANCH   1  24
ATOM     24  C   UNL     1       9.148 -25.252  23.813  1.00  0.00     0.227 A 
ATOM     25  N   UNL     1       9.866 -25.723  24.845  1.00  0.00    -0.221 NA
ATOM     26  N   UNL     1       7.994 -25.802  23.422  1.00  0.00    -0.212 NA
ATOM     27  C   UNL     1       9.352 -26.768  25.526  1.00  0.00     0.117 A 
ATOM     28  C   UNL     1       7.511 -26.835  24.131  1.00  0.00     0.086 A 
ATOM     29  C   UNL     1       8.158 -27.370  25.216  1.00  0.00     0.050 A 
BRANCH  28  30
ATOM     30  C   UNL     1       6.247 -27.349  23.623  1.00  0.00     0.053 A 
ATOM     31  C   UNL     1       5.764 -28.641  23.678  1.00  0.00     0.022 A 
ATOM     32  S   UNL     1       5.185 -26.317  22.764  1.00  0.00    -0.136 S 
ATOM     33  C   UNL     1       4.526 -28.784  22.990  1.00  0.00     0.018 A 
ATOM     34  C   UNL     1       4.102 -27.599  22.419  1.00  0.00     0.031 A 
BRANCH  34  35
ATOM     35  C   UNL     1       2.871 -27.361  21.601  1.00  0.00     0.207 C 
BRANCH  35  36
ATOM     36  O   UNL     1       3.115 -26.246  20.746  1.00  0.00    -0.372 OA
BRANCH  36  37
ATOM     37  C   UNL     1       2.254 -25.135  20.987  1.00  0.00     0.188 CG0
ATOM     38  G   UNL     1       2.968 -23.889  20.566  1.00  0.00     0.000 G0
ENDBRANCH  36  37
ENDBRANCH  35  36
ENDBRANCH  34  35
ENDBRANCH  28  30
ENDBRANCH   1  24
TORSDOF 4
