REMARK SMILES COc1cc(-c2nc3c(s2)CCC3)ccc1OCCCOc1ccc2c(c1)CC[C@H]2CC(=O)O
REMARK SMILES IDX 20 1 19 2 18 3 17 4 16 5 3 6 4 7 5 8 15 9 14 10 2 11 1 12
REMARK SMILES IDX 6 13 7 14 10 15 8 16 9 17 13 18 11 19 12 20 21 21 22 22
REMARK SMILES IDX 23 23 27 24 24 25 26 26 25 27 28 28 30 29 29 30 31 31 32 32
REMARK SMILES IDX 33 33 34 34
REMARK H PARENT 34 35
REMARK INDEX MAP 20 1 19 2 18 3 17 4 16 5 3 6 4 7 5 8 15 9 14 10 2 11 1 12
REMARK INDEX MAP 6 13 7 14 10 15 8 16 9 17 13 18 11 19 12 20 21 21 22 22 23 23
REMARK INDEX MAP 27 24 24 25 26 26 25 27 28 28 30 29 29 30 31 31 32 32 33 33
REMARK INDEX MAP 34 34 63 35
ROOT
ATOM      1  C   UNL     1      42.062 -38.569 109.155  1.00  0.00     0.233 C 
ENDROOT
BRANCH   1   2
ATOM      2  C   UNL     1      40.957 -39.313 108.416  1.00  0.00     0.083 C 
BRANCH   2   3
ATOM      3  C   UNL     1      41.022 -39.080 106.909  1.00  0.00     0.233 C 
BRANCH   3   4
ATOM      4  O   UNL     1      42.361 -39.248 106.444  1.00  0.00    -0.490 OA
BRANCH   4   5
ATOM      5  C   UNL     1      42.580 -39.526 105.118  1.00  0.00     0.161 A 
ATOM      6  C   UNL     1      43.368 -40.660 104.847  1.00  0.00     0.161 A 
ATOM      7  C   UNL     1      43.634 -41.016 103.518  1.00  0.00     0.061 A 
ATOM      8  C   UNL     1      43.126 -40.271 102.438  1.00  0.00     0.014 A 
ATOM      9  C   UNL     1      42.061 -38.787 104.055  1.00  0.00     0.051 A 
ATOM     10  C   UNL     1      42.332 -39.155 102.730  1.00  0.00     0.015 A 
BRANCH   6  11
ATOM     11  O   UNL     1      43.834 -41.346 105.943  1.00  0.00    -0.493 OA
ATOM     12  C   UNL     1      45.007 -42.130 105.778  1.00  0.00     0.278 C 
ENDBRANCH   6  11
BRANCH   8  13
ATOM     13  C   UNL     1      43.451 -40.709 101.062  1.00  0.00     0.124 A 
ATOM     14  N   UNL     1      44.413 -41.584 100.772  1.00  0.00    -0.241 NA
ATOM     15  S   UNL     1      42.585 -40.090  99.666  1.00  0.00    -0.119 S 
ATOM     16  C   UNL     1      44.447 -41.756  99.424  1.00  0.00     0.055 A 
ATOM     17  C   UNL     1      43.548 -41.040  98.693  1.00  0.00     0.028 A 
ATOM     18  C   UNL     1      45.313 -42.600  98.577  1.00  0.00     0.058 C 
ATOM     19  C   UNL     1      43.641 -41.267  97.239  1.00  0.00     0.049 C 
ATOM     20  C   UNL     1      44.573 -42.526  97.199  1.00  0.00     0.012 C 
ENDBRANCH   8  13
ENDBRANCH   4   5
ENDBRANCH   3   4
ENDBRANCH   2   3
ENDBRANCH   1   2
BRANCH   1  21
ATOM     21  O   UNL     1      42.993 -39.525 109.659  1.00  0.00    -0.493 OA
BRANCH  21  22
ATOM     22  C   UNL     1      44.300 -39.382 109.278  1.00  0.00     0.119 A 
ATOM     23  C   UNL     1      44.684 -38.057 109.012  1.00  0.00     0.047 A 
ATOM     24  C   UNL     1      45.233 -40.414 109.152  1.00  0.00     0.050 A 
ATOM     25  C   UNL     1      45.988 -37.742 108.619  1.00  0.00     0.008 A 
ATOM     26  C   UNL     1      46.523 -40.094 108.748  1.00  0.00    -0.041 A 
ATOM     27  C   UNL     1      46.901 -38.774 108.480  1.00  0.00    -0.041 A 
ATOM     28  C   UNL     1      47.682 -41.028 108.587  1.00  0.00     0.036 C 
ATOM     29  C   UNL     1      48.364 -38.703 108.117  1.00  0.00     0.031 C 
ATOM     30  C   UNL     1      48.627 -40.177 107.729  1.00  0.00     0.014 C 
BRANCH  29  31
ATOM     31  C   UNL     1      48.690 -37.723 106.992  1.00  0.00     0.131 C 
BRANCH  31  32
ATOM     32  C   UNL     1      48.801 -36.310 107.495  1.00  0.00     0.303 C 
ATOM     33  O   UNL     1      49.657 -35.846 108.225  1.00  0.00    -0.252 OA
BRANCH  32  34
ATOM     34  O   UNL     1      47.785 -35.540 107.057  1.00  0.00    -0.481 OA
ATOM     35  H   UNL     1      47.739 -34.586 107.317  1.00  0.00     0.296 HD
ENDBRANCH  32  34
ENDBRANCH  31  32
ENDBRANCH  29  31
ENDBRANCH  21  22
ENDBRANCH   1  21
TORSDOF 11
