MODEL 1
REMARK VINA RESULT:    -8.565      0.000      0.000
REMARK INTER + INTRA:         -10.962
REMARK INTER:                 -10.818
REMARK INTRA:                  -0.144
REMARK UNBOUND:                -0.144
REMARK SMILES NCCn1c(C2CCCCC2)nc2cc(C(N)=O)ccc21
REMARK SMILES IDX 3 1 2 2 1 3 4 6 5 7 21 8 12 9 20 10 13 11 19 12 14 13 15 14
REMARK SMILES IDX 6 15 7 16 11 17 8 18 10 19 9 20 16 21 17 22 18 23
REMARK H PARENT 1 4 1 5 17 24 17 25
ROOT
ATOM      1  C   UNL     1      -4.808  20.342 -32.276  1.00  0.00     0.139 C 
ENDROOT
BRANCH   1   2
ATOM      2  C   UNL     1      -6.238  19.803 -32.192  1.00  0.00     0.099 C 
BRANCH   2   3
ATOM      3  N   UNL     1      -6.274  18.347 -32.327  1.00  0.00    -0.329 NA
ATOM      4  H   UNL     1      -5.767  18.061 -33.165  1.00  0.00     0.118 HD
ATOM      5  H   UNL     1      -7.239  18.047 -32.473  1.00  0.00     0.118 HD
ENDBRANCH   2   3
ENDBRANCH   1   2
BRANCH   1   6
ATOM      6  N   UNL     1      -4.706  21.690 -31.742  1.00  0.00    -0.326 N 
ATOM      7  C   UNL     1      -4.107  22.068 -30.556  1.00  0.00     0.113 A 
ATOM      8  C   UNL     1      -5.202  22.819 -32.356  1.00  0.00     0.068 A 
ATOM      9  N   UNL     1      -4.196  23.374 -30.397  1.00  0.00    -0.233 NA
ATOM     10  C   UNL     1      -5.892  23.036 -33.554  1.00  0.00     0.029 A 
ATOM     11  C   UNL     1      -4.865  23.852 -31.490  1.00  0.00     0.090 A 
ATOM     12  C   UNL     1      -6.241  24.360 -33.853  1.00  0.00     0.016 A 
ATOM     13  C   UNL     1      -5.216  25.173 -31.802  1.00  0.00     0.044 A 
ATOM     14  C   UNL     1      -5.918  25.420 -32.990  1.00  0.00     0.041 A 
BRANCH   7  15
ATOM     15  C   UNL     1      -3.439  21.109 -29.597  1.00  0.00     0.056 C 
ATOM     16  C   UNL     1      -1.949  21.440 -29.426  1.00  0.00     0.011 C 
ATOM     17  C   UNL     1      -4.162  21.043 -28.239  1.00  0.00     0.011 C 
ATOM     18  C   UNL     1      -1.699  22.647 -28.525  1.00  0.00     0.001 C 
ATOM     19  C   UNL     1      -3.868  22.222 -27.311  1.00  0.00     0.001 C 
ATOM     20  C   UNL     1      -2.372  22.479 -27.168  1.00  0.00     0.000 C 
ENDBRANCH   7  15
BRANCH  14  21
ATOM     21  C   UNL     1      -6.331  26.792 -33.393  1.00  0.00     0.248 C 
ATOM     22  N   UNL     1      -6.211  27.796 -32.476  1.00  0.00    -0.366 N 
ATOM     23  O   UNL     1      -6.790  27.021 -34.506  1.00  0.00    -0.270 OA
ATOM     24  H   UNL     1      -6.500  28.721 -32.766  1.00  0.00     0.159 HD
ATOM     25  H   UNL     1      -5.913  27.669 -31.520  1.00  0.00     0.159 HD
ENDBRANCH  14  21
ENDBRANCH   1   6
TORSDOF 5
ENDMDL
MODEL 2
REMARK VINA RESULT:    -8.404      2.260      2.809
REMARK INTER + INTRA:         -10.759
REMARK INTER:                 -10.691
REMARK INTRA:                  -0.068
REMARK UNBOUND:                -0.144
REMARK SMILES NCCn1c(C2CCCCC2)nc2cc(C(N)=O)ccc21
REMARK SMILES IDX 3 1 2 2 1 3 4 6 5 7 21 8 12 9 20 10 13 11 19 12 14 13 15 14
REMARK SMILES IDX 6 15 7 16 11 17 8 18 10 19 9 20 16 21 17 22 18 23
REMARK H PARENT 1 4 1 5 17 24 17 25
ROOT
ATOM      1  C   UNL     1      -5.241  22.924 -33.060  1.00  0.00     0.139 C 
ENDROOT
BRANCH   1   2
ATOM      2  C   UNL     1      -6.754  22.983 -33.281  1.00  0.00     0.099 C 
BRANCH   2   3
ATOM      3  N   UNL     1      -7.084  23.385 -34.648  1.00  0.00    -0.329 NA
ATOM      4  H   UNL     1      -7.837  22.800 -35.012  1.00  0.00     0.118 HD
ATOM      5  H   UNL     1      -6.281  23.209 -35.253  1.00  0.00     0.118 HD
ENDBRANCH   2   3
ENDBRANCH   1   2
BRANCH   1   6
ATOM      6  N   UNL     1      -4.816  23.808 -31.988  1.00  0.00    -0.326 N 
ATOM      7  C   UNL     1      -4.170  23.445 -30.821  1.00  0.00     0.113 A 
ATOM      8  C   UNL     1      -4.996  25.174 -31.976  1.00  0.00     0.068 A 
ATOM      9  N   UNL     1      -3.931  24.511 -30.082  1.00  0.00    -0.233 NA
ATOM     10  C   UNL     1      -5.579  26.073 -32.876  1.00  0.00     0.029 A 
ATOM     11  C   UNL     1      -4.431  25.580 -30.774  1.00  0.00     0.090 A 
ATOM     12  C   UNL     1      -5.575  27.426 -32.511  1.00  0.00     0.016 A 
ATOM     13  C   UNL     1      -4.430  26.937 -30.421  1.00  0.00     0.044 A 
ATOM     14  C   UNL     1      -5.017  27.860 -31.298  1.00  0.00     0.041 A 
BRANCH   7  15
ATOM     15  C   UNL     1      -3.790  22.026 -30.466  1.00  0.00     0.056 C 
ATOM     16  C   UNL     1      -2.391  21.966 -29.833  1.00  0.00     0.011 C 
ATOM     17  C   UNL     1      -4.843  21.345 -29.572  1.00  0.00     0.011 C 
ATOM     18  C   UNL     1      -2.368  22.426 -28.377  1.00  0.00     0.001 C 
ATOM     19  C   UNL     1      -4.784  21.760 -28.101  1.00  0.00     0.001 C 
ATOM     20  C   UNL     1      -3.374  21.655 -27.533  1.00  0.00     0.000 C 
ENDBRANCH   7  15
BRANCH  14  21
ATOM     21  C   UNL     1      -5.062  29.318 -30.998  1.00  0.00     0.248 C 
ATOM     22  N   UNL     1      -5.949  30.091 -31.689  1.00  0.00    -0.366 N 
ATOM     23  O   UNL     1      -4.310  29.823 -30.172  1.00  0.00    -0.270 OA
ATOM     24  H   UNL     1      -5.963  31.080 -31.473  1.00  0.00     0.159 HD
ATOM     25  H   UNL     1      -6.545  29.758 -32.432  1.00  0.00     0.159 HD
ENDBRANCH  14  21
ENDBRANCH   1   6
TORSDOF 5
ENDMDL
MODEL 3
REMARK VINA RESULT:    -7.859      2.347      4.356
REMARK INTER + INTRA:         -10.071
REMARK INTER:                  -9.732
REMARK INTRA:                  -0.339
REMARK UNBOUND:                -0.144
REMARK SMILES NCCn1c(C2CCCCC2)nc2cc(C(N)=O)ccc21
REMARK SMILES IDX 3 1 2 2 1 3 4 6 5 7 21 8 12 9 20 10 13 11 19 12 14 13 15 14
REMARK SMILES IDX 6 15 7 16 11 17 8 18 10 19 9 20 16 21 17 22 18 23
REMARK H PARENT 1 4 1 5 17 24 17 25
ROOT
ATOM      1  C   UNL     1      -2.822  26.385 -28.456  1.00  0.00     0.139 C 
ENDROOT
BRANCH   1   2
ATOM      2  C   UNL     1      -3.805  26.559 -27.296  1.00  0.00     0.099 C 
BRANCH   2   3
ATOM      3  N   UNL     1      -3.896  27.956 -26.871  1.00  0.00    -0.329 NA
ATOM      4  H   UNL     1      -3.278  28.536 -27.439  1.00  0.00     0.118 HD
ATOM      5  H   UNL     1      -3.549  28.039 -25.914  1.00  0.00     0.118 HD
ENDBRANCH   2   3
ENDBRANCH   1   2
BRANCH   1   6
ATOM      6  N   UNL     1      -3.347  25.500 -29.481  1.00  0.00    -0.326 N 
ATOM      7  C   UNL     1      -3.116  24.143 -29.602  1.00  0.00     0.113 A 
ATOM      8  C   UNL     1      -4.176  25.891 -30.510  1.00  0.00     0.068 A 
ATOM      9  N   UNL     1      -3.761  23.663 -30.648  1.00  0.00    -0.233 NA
ATOM     10  C   UNL     1      -4.730  27.122 -30.881  1.00  0.00     0.029 A 
ATOM     11  C   UNL     1      -4.416  24.721 -31.217  1.00  0.00     0.090 A 
ATOM     12  C   UNL     1      -5.548  27.130 -32.018  1.00  0.00     0.016 A 
ATOM     13  C   UNL     1      -5.240  24.740 -32.351  1.00  0.00     0.044 A 
ATOM     14  C   UNL     1      -5.800  25.961 -32.754  1.00  0.00     0.041 A 
BRANCH   7  15
ATOM     15  C   UNL     1      -2.255  23.339 -28.655  1.00  0.00     0.056 C 
ATOM     16  C   UNL     1      -3.065  22.854 -27.442  1.00  0.00     0.011 C 
ATOM     17  C   UNL     1      -1.542  22.172 -29.361  1.00  0.00     0.011 C 
ATOM     18  C   UNL     1      -3.972  21.667 -27.759  1.00  0.00     0.001 C 
ATOM     19  C   UNL     1      -2.434  20.958 -29.627  1.00  0.00     0.001 C 
ATOM     20  C   UNL     1      -3.188  20.516 -28.379  1.00  0.00     0.000 C 
ENDBRANCH   7  15
BRANCH  14  21
ATOM     21  C   UNL     1      -6.682  26.070 -33.948  1.00  0.00     0.248 C 
ATOM     22  N   UNL     1      -7.325  24.945 -34.378  1.00  0.00    -0.366 N 
ATOM     23  O   UNL     1      -6.815  27.129 -34.551  1.00  0.00    -0.270 OA
ATOM     24  H   UNL     1      -7.917  25.037 -35.193  1.00  0.00     0.159 HD
ATOM     25  H   UNL     1      -7.205  24.026 -33.978  1.00  0.00     0.159 HD
ENDBRANCH  14  21
ENDBRANCH   1   6
TORSDOF 5
ENDMDL
MODEL 4
REMARK VINA RESULT:    -7.431      3.090      5.157
REMARK INTER + INTRA:          -9.529
REMARK INTER:                  -9.268
REMARK INTRA:                  -0.261
REMARK UNBOUND:                -0.144
REMARK SMILES NCCn1c(C2CCCCC2)nc2cc(C(N)=O)ccc21
REMARK SMILES IDX 3 1 2 2 1 3 4 6 5 7 21 8 12 9 20 10 13 11 19 12 14 13 15 14
REMARK SMILES IDX 6 15 7 16 11 17 8 18 10 19 9 20 16 21 17 22 18 23
REMARK H PARENT 1 4 1 5 17 24 17 25
ROOT
ATOM      1  C   UNL     1      -2.508  24.849 -26.155  1.00  0.00     0.139 C 
ENDROOT
BRANCH   1   2
ATOM      2  C   UNL     1      -1.023  25.218 -26.191  1.00  0.00     0.099 C 
BRANCH   2   3
ATOM      3  N   UNL     1      -0.192  24.076 -26.573  1.00  0.00    -0.329 NA
ATOM      4  H   UNL     1       0.712  24.402 -26.917  1.00  0.00     0.118 HD
ATOM      5  H   UNL     1      -0.629  23.592 -27.359  1.00  0.00     0.118 HD
ENDBRANCH   2   3
ENDBRANCH   1   2
BRANCH   1   6
ATOM      6  N   UNL     1      -3.102  24.871 -27.480  1.00  0.00    -0.326 N 
ATOM      7  C   UNL     1      -3.413  23.778 -28.267  1.00  0.00     0.113 A 
ATOM      8  C   UNL     1      -3.455  26.012 -28.167  1.00  0.00     0.068 A 
ATOM      9  N   UNL     1      -3.947  24.174 -29.406  1.00  0.00    -0.233 NA
ATOM     10  C   UNL     1      -3.373  27.377 -27.866  1.00  0.00     0.029 A 
ATOM     11  C   UNL     1      -3.980  25.541 -29.362  1.00  0.00     0.090 A 
ATOM     12  C   UNL     1      -3.846  28.268 -28.837  1.00  0.00     0.016 A 
ATOM     13  C   UNL     1      -4.455  26.443 -30.326  1.00  0.00     0.044 A 
ATOM     14  C   UNL     1      -4.374  27.817 -30.057  1.00  0.00     0.041 A 
BRANCH   7  15
ATOM     15  C   UNL     1      -3.178  22.341 -27.859  1.00  0.00     0.056 C 
ATOM     16  C   UNL     1      -4.427  21.481 -28.108  1.00  0.00     0.011 C 
ATOM     17  C   UNL     1      -1.933  21.738 -28.534  1.00  0.00     0.011 C 
ATOM     18  C   UNL     1      -4.625  21.119 -29.579  1.00  0.00     0.001 C 
ATOM     19  C   UNL     1      -2.146  21.320 -29.990  1.00  0.00     0.001 C 
ATOM     20  C   UNL     1      -3.386  20.451 -30.161  1.00  0.00     0.000 C 
ENDBRANCH   7  15
BRANCH  14  21
ATOM     21  C   UNL     1      -4.851  28.840 -31.027  1.00  0.00     0.248 C 
ATOM     22  N   UNL     1      -5.621  28.425 -32.076  1.00  0.00    -0.366 N 
ATOM     23  O   UNL     1      -4.547  30.022 -30.912  1.00  0.00    -0.270 OA
ATOM     24  H   UNL     1      -5.933  29.133 -32.727  1.00  0.00     0.159 HD
ATOM     25  H   UNL     1      -5.848  27.462 -32.276  1.00  0.00     0.159 HD
ENDBRANCH  14  21
ENDBRANCH   1   6
TORSDOF 5
ENDMDL
MODEL 5
REMARK VINA RESULT:    -7.111      2.929      4.084
REMARK INTER + INTRA:          -9.125
REMARK INTER:                  -8.827
REMARK INTRA:                  -0.298
REMARK UNBOUND:                -0.144
REMARK SMILES NCCn1c(C2CCCCC2)nc2cc(C(N)=O)ccc21
REMARK SMILES IDX 3 1 2 2 1 3 4 6 5 7 21 8 12 9 20 10 13 11 19 12 14 13 15 14
REMARK SMILES IDX 6 15 7 16 11 17 8 18 10 19 9 20 16 21 17 22 18 23
REMARK H PARENT 1 4 1 5 17 24 17 25
ROOT
ATOM      1  C   UNL     1      -1.926  22.094 -29.111  1.00  0.00     0.139 C 
ENDROOT
BRANCH   1   2
ATOM      2  C   UNL     1      -2.873  21.116 -28.413  1.00  0.00     0.099 C 
BRANCH   2   3
ATOM      3  N   UNL     1      -2.217  20.432 -27.299  1.00  0.00    -0.329 NA
ATOM      4  H   UNL     1      -2.361  19.424 -27.373  1.00  0.00     0.118 HD
ATOM      5  H   UNL     1      -2.664  20.710 -26.424  1.00  0.00     0.118 HD
ENDBRANCH   2   3
ENDBRANCH   1   2
BRANCH   1   6
ATOM      6  N   UNL     1      -2.296  23.476 -28.860  1.00  0.00    -0.326 N 
ATOM      7  C   UNL     1      -1.931  24.248 -27.774  1.00  0.00     0.113 A 
ATOM      8  C   UNL     1      -3.085  24.243 -29.690  1.00  0.00     0.068 A 
ATOM      9  N   UNL     1      -2.443  25.459 -27.882  1.00  0.00    -0.233 NA
ATOM     10  C   UNL     1      -3.726  23.991 -30.908  1.00  0.00     0.029 A 
ATOM     11  C   UNL     1      -3.154  25.474 -29.050  1.00  0.00     0.090 A 
ATOM     12  C   UNL     1      -4.458  25.045 -31.469  1.00  0.00     0.016 A 
ATOM     13  C   UNL     1      -3.887  26.524 -29.623  1.00  0.00     0.044 A 
ATOM     14  C   UNL     1      -4.550  26.296 -30.838  1.00  0.00     0.041 A 
BRANCH   7  15
ATOM     15  C   UNL     1      -1.058  23.761 -26.639  1.00  0.00     0.056 C 
ATOM     16  C   UNL     1       0.114  24.722 -26.387  1.00  0.00     0.011 C 
ATOM     17  C   UNL     1      -1.863  23.502 -25.353  1.00  0.00     0.011 C 
ATOM     18  C   UNL     1      -0.296  25.989 -25.639  1.00  0.00     0.001 C 
ATOM     19  C   UNL     1      -2.224  24.766 -24.571  1.00  0.00     0.001 C 
ATOM     20  C   UNL     1      -1.013  25.660 -24.336  1.00  0.00     0.000 C 
ENDBRANCH   7  15
BRANCH  14  21
ATOM     21  C   UNL     1      -5.352  27.354 -31.510  1.00  0.00     0.248 C 
ATOM     22  N   UNL     1      -6.260  26.972 -32.456  1.00  0.00    -0.366 N 
ATOM     23  O   UNL     1      -5.192  28.541 -31.248  1.00  0.00    -0.270 OA
ATOM     24  H   UNL     1      -6.794  27.705 -32.904  1.00  0.00     0.159 HD
ATOM     25  H   UNL     1      -6.392  26.023 -32.775  1.00  0.00     0.159 HD
ENDBRANCH  14  21
ENDBRANCH   1   6
TORSDOF 5
ENDMDL
MODEL 6
REMARK VINA RESULT:    -7.010      3.440      5.903
REMARK INTER + INTRA:          -8.998
REMARK INTER:                  -8.806
REMARK INTRA:                  -0.193
REMARK UNBOUND:                -0.144
REMARK SMILES NCCn1c(C2CCCCC2)nc2cc(C(N)=O)ccc21
REMARK SMILES IDX 3 1 2 2 1 3 4 6 5 7 21 8 12 9 20 10 13 11 19 12 14 13 15 14
REMARK SMILES IDX 6 15 7 16 11 17 8 18 10 19 9 20 16 21 17 22 18 23
REMARK H PARENT 1 4 1 5 17 24 17 25
ROOT
ATOM      1  C   UNL     1      -2.957  26.526 -28.632  1.00  0.00     0.139 C 
ENDROOT
BRANCH   1   2
ATOM      2  C   UNL     1      -4.182  27.287 -28.121  1.00  0.00     0.099 C 
BRANCH   2   3
ATOM      3  N   UNL     1      -3.851  28.134 -26.975  1.00  0.00    -0.329 NA
ATOM      4  H   UNL     1      -3.014  28.682 -27.175  1.00  0.00     0.118 HD
ATOM      5  H   UNL     1      -3.610  27.543 -26.179  1.00  0.00     0.118 HD
ENDBRANCH   2   3
ENDBRANCH   1   2
BRANCH   1   6
ATOM      6  N   UNL     1      -3.059  25.100 -28.371  1.00  0.00    -0.326 N 
ATOM      7  C   UNL     1      -2.709  24.444 -27.206  1.00  0.00     0.113 A 
ATOM      8  C   UNL     1      -3.534  24.167 -29.267  1.00  0.00     0.068 A 
ATOM      9  N   UNL     1      -2.945  23.151 -27.322  1.00  0.00    -0.233 NA
ATOM     10  C   UNL     1      -4.020  24.255 -30.576  1.00  0.00     0.029 A 
ATOM     11  C   UNL     1      -3.451  22.964 -28.580  1.00  0.00     0.090 A 
ATOM     12  C   UNL     1      -4.424  23.059 -31.183  1.00  0.00     0.016 A 
ATOM     13  C   UNL     1      -3.862  21.773 -29.196  1.00  0.00     0.044 A 
ATOM     14  C   UNL     1      -4.342  21.828 -30.512  1.00  0.00     0.041 A 
BRANCH   7  15
ATOM     15  C   UNL     1      -2.149  25.128 -25.980  1.00  0.00     0.056 C 
ATOM     16  C   UNL     1      -2.162  24.189 -24.764  1.00  0.00     0.011 C 
ATOM     17  C   UNL     1      -0.746  25.713 -26.226  1.00  0.00     0.011 C 
ATOM     18  C   UNL     1      -1.046  23.146 -24.795  1.00  0.00     0.001 C 
ATOM     19  C   UNL     1       0.380  24.678 -26.200  1.00  0.00     0.001 C 
ATOM     20  C   UNL     1       0.321  23.798 -24.958  1.00  0.00     0.000 C 
ENDBRANCH   7  15
BRANCH  14  21
ATOM     21  C   UNL     1      -4.795  20.611 -31.239  1.00  0.00     0.248 C 
ATOM     22  N   UNL     1      -6.032  20.628 -31.818  1.00  0.00    -0.366 N 
ATOM     23  O   UNL     1      -4.095  19.607 -31.303  1.00  0.00    -0.270 OA
ATOM     24  H   UNL     1      -6.323  19.791 -32.305  1.00  0.00     0.159 HD
ATOM     25  H   UNL     1      -6.690  21.390 -31.743  1.00  0.00     0.159 HD
ENDBRANCH  14  21
ENDBRANCH   1   6
TORSDOF 5
ENDMDL
MODEL 7
REMARK VINA RESULT:    -6.931      3.146      6.174
REMARK INTER + INTRA:          -8.898
REMARK INTER:                  -8.796
REMARK INTRA:                  -0.102
REMARK UNBOUND:                -0.144
REMARK SMILES NCCn1c(C2CCCCC2)nc2cc(C(N)=O)ccc21
REMARK SMILES IDX 3 1 2 2 1 3 4 6 5 7 21 8 12 9 20 10 13 11 19 12 14 13 15 14
REMARK SMILES IDX 6 15 7 16 11 17 8 18 10 19 9 20 16 21 17 22 18 23
REMARK H PARENT 1 4 1 5 17 24 17 25
ROOT
ATOM      1  C   UNL     1      -5.099  21.787 -31.670  1.00  0.00     0.139 C 
ENDROOT
BRANCH   1   2
ATOM      2  C   UNL     1      -4.208  20.649 -32.174  1.00  0.00     0.099 C 
BRANCH   2   3
ATOM      3  N   UNL     1      -4.833  19.342 -31.965  1.00  0.00    -0.329 NA
ATOM      4  H   UNL     1      -5.847  19.422 -32.048  1.00  0.00     0.118 HD
ATOM      5  H   UNL     1      -4.657  19.036 -31.007  1.00  0.00     0.118 HD
ENDBRANCH   2   3
ENDBRANCH   1   2
BRANCH   1   6
ATOM      6  N   UNL     1      -4.387  22.668 -30.761  1.00  0.00    -0.326 N 
ATOM      7  C   UNL     1      -4.175  24.025 -30.918  1.00  0.00     0.113 A 
ATOM      8  C   UNL     1      -3.804  22.274 -29.577  1.00  0.00     0.068 A 
ATOM      9  N   UNL     1      -3.496  24.502 -29.892  1.00  0.00    -0.233 NA
ATOM     10  C   UNL     1      -3.704  21.042 -28.919  1.00  0.00     0.029 A 
ATOM     11  C   UNL     1      -3.259  23.442 -29.060  1.00  0.00     0.090 A 
ATOM     12  C   UNL     1      -3.018  21.030 -27.698  1.00  0.00     0.016 A 
ATOM     13  C   UNL     1      -2.578  23.418 -27.835  1.00  0.00     0.044 A 
ATOM     14  C   UNL     1      -2.452  22.196 -27.159  1.00  0.00     0.041 A 
BRANCH   7  15
ATOM     15  C   UNL     1      -4.668  24.832 -32.097  1.00  0.00     0.056 C 
ATOM     16  C   UNL     1      -6.169  25.136 -31.974  1.00  0.00     0.011 C 
ATOM     17  C   UNL     1      -3.847  26.117 -32.310  1.00  0.00     0.011 C 
ATOM     18  C   UNL     1      -6.478  26.250 -30.975  1.00  0.00     0.001 C 
ATOM     19  C   UNL     1      -4.196  27.254 -31.348  1.00  0.00     0.001 C 
ATOM     20  C   UNL     1      -5.696  27.517 -31.293  1.00  0.00     0.000 C 
ENDBRANCH   7  15
BRANCH  14  21
ATOM     21  C   UNL     1      -1.741  22.083 -25.856  1.00  0.00     0.248 C 
ATOM     22  N   UNL     1      -1.169  20.885 -25.536  1.00  0.00    -0.366 N 
ATOM     23  O   UNL     1      -1.685  23.026 -25.075  1.00  0.00    -0.270 OA
ATOM     24  H   UNL     1      -0.693  20.826 -24.645  1.00  0.00     0.159 HD
ATOM     25  H   UNL     1      -1.239  20.047 -26.095  1.00  0.00     0.159 HD
ENDBRANCH  14  21
ENDBRANCH   1   6
TORSDOF 5
ENDMDL
MODEL 8
REMARK VINA RESULT:    -6.748      3.421      4.534
REMARK INTER + INTRA:          -8.667
REMARK INTER:                  -8.492
REMARK INTRA:                  -0.176
REMARK UNBOUND:                -0.144
REMARK SMILES NCCn1c(C2CCCCC2)nc2cc(C(N)=O)ccc21
REMARK SMILES IDX 3 1 2 2 1 3 4 6 5 7 21 8 12 9 20 10 13 11 19 12 14 13 15 14
REMARK SMILES IDX 6 15 7 16 11 17 8 18 10 19 9 20 16 21 17 22 18 23
REMARK H PARENT 1 4 1 5 17 24 17 25
ROOT
ATOM      1  C   UNL     1      -4.593  24.688 -32.345  1.00  0.00     0.139 C 
ENDROOT
BRANCH   1   2
ATOM      2  C   UNL     1      -6.093  24.930 -32.533  1.00  0.00     0.099 C 
BRANCH   2   3
ATOM      3  N   UNL     1      -6.355  25.857 -33.634  1.00  0.00    -0.329 NA
ATOM      4  H   UNL     1      -6.828  26.691 -33.283  1.00  0.00     0.118 HD
ATOM      5  H   UNL     1      -7.008  25.424 -34.289  1.00  0.00     0.118 HD
ENDBRANCH   2   3
ENDBRANCH   1   2
BRANCH   1   6
ATOM      6  N   UNL     1      -4.158  25.022 -31.000  1.00  0.00    -0.326 N 
ATOM      7  C   UNL     1      -3.729  24.141 -30.025  1.00  0.00     0.113 A 
ATOM      8  C   UNL     1      -4.102  26.299 -30.484  1.00  0.00     0.068 A 
ATOM      9  N   UNL     1      -3.404  24.799 -28.928  1.00  0.00    -0.233 NA
ATOM     10  C   UNL     1      -4.410  27.559 -31.007  1.00  0.00     0.029 A 
ATOM     11  C   UNL     1      -3.627  26.123 -29.191  1.00  0.00     0.090 A 
ATOM     12  C   UNL     1      -4.221  28.660 -30.161  1.00  0.00     0.016 A 
ATOM     13  C   UNL     1      -3.437  27.232 -28.354  1.00  0.00     0.044 A 
ATOM     14  C   UNL     1      -3.748  28.507 -28.848  1.00  0.00     0.041 A 
BRANCH   7  15
ATOM     15  C   UNL     1      -3.642  22.644 -30.210  1.00  0.00     0.056 C 
ATOM     16  C   UNL     1      -2.277  22.105 -29.756  1.00  0.00     0.011 C 
ATOM     17  C   UNL     1      -4.800  21.901 -29.519  1.00  0.00     0.011 C 
ATOM     18  C   UNL     1      -2.141  22.010 -28.237  1.00  0.00     0.001 C 
ATOM     19  C   UNL     1      -4.639  21.752 -28.005  1.00  0.00     0.001 C 
ATOM     20  C   UNL     1      -3.273  21.192 -27.627  1.00  0.00     0.000 C 
ENDBRANCH   7  15
BRANCH  14  21
ATOM     21  C   UNL     1      -3.580  29.735 -28.024  1.00  0.00     0.248 C 
ATOM     22  N   UNL     1      -2.584  29.753 -27.090  1.00  0.00    -0.366 N 
ATOM     23  O   UNL     1      -4.324  30.700 -28.155  1.00  0.00    -0.270 OA
ATOM     24  H   UNL     1      -2.487  30.595 -26.538  1.00  0.00     0.159 HD
ATOM     25  H   UNL     1      -1.983  28.971 -26.876  1.00  0.00     0.159 HD
ENDBRANCH  14  21
ENDBRANCH   1   6
TORSDOF 5
ENDMDL
MODEL 9
REMARK VINA RESULT:    -6.581      3.134      5.994
REMARK INTER + INTRA:          -8.456
REMARK INTER:                  -8.192
REMARK INTRA:                  -0.263
REMARK UNBOUND:                -0.144
REMARK SMILES NCCn1c(C2CCCCC2)nc2cc(C(N)=O)ccc21
REMARK SMILES IDX 3 1 2 2 1 3 4 6 5 7 21 8 12 9 20 10 13 11 19 12 14 13 15 14
REMARK SMILES IDX 6 15 7 16 11 17 8 18 10 19 9 20 16 21 17 22 18 23
REMARK H PARENT 1 4 1 5 17 24 17 25
ROOT
ATOM      1  C   UNL     1      -4.542  25.476 -32.119  1.00  0.00     0.139 C 
ENDROOT
BRANCH   1   2
ATOM      2  C   UNL     1      -5.994  25.954 -32.050  1.00  0.00     0.099 C 
BRANCH   2   3
ATOM      3  N   UNL     1      -6.152  27.284 -32.638  1.00  0.00    -0.329 NA
ATOM      4  H   UNL     1      -5.793  27.994 -31.999  1.00  0.00     0.118 HD
ATOM      5  H   UNL     1      -7.147  27.487 -32.745  1.00  0.00     0.118 HD
ENDBRANCH   2   3
ENDBRANCH   1   2
BRANCH   1   6
ATOM      6  N   UNL     1      -4.270  24.429 -31.149  1.00  0.00    -0.326 N 
ATOM      7  C   UNL     1      -4.414  23.067 -31.337  1.00  0.00     0.113 A 
ATOM      8  C   UNL     1      -3.817  24.643 -29.866  1.00  0.00     0.068 A 
ATOM      9  N   UNL     1      -4.068  22.417 -30.242  1.00  0.00    -0.233 NA
ATOM     10  C   UNL     1      -3.501  25.797 -29.139  1.00  0.00     0.029 A 
ATOM     11  C   UNL     1      -3.700  23.368 -29.329  1.00  0.00     0.090 A 
ATOM     12  C   UNL     1      -3.057  25.615 -27.823  1.00  0.00     0.016 A 
ATOM     13  C   UNL     1      -3.250  23.197 -28.012  1.00  0.00     0.044 A 
ATOM     14  C   UNL     1      -2.938  24.336 -27.256  1.00  0.00     0.041 A 
BRANCH   7  15
ATOM     15  C   UNL     1      -4.888  22.432 -32.624  1.00  0.00     0.056 C 
ATOM     16  C   UNL     1      -4.152  21.110 -32.896  1.00  0.00     0.011 C 
ATOM     17  C   UNL     1      -6.416  22.244 -32.654  1.00  0.00     0.011 C 
ATOM     18  C   UNL     1      -4.657  19.952 -32.039  1.00  0.00     0.001 C 
ATOM     19  C   UNL     1      -6.919  21.048 -31.844  1.00  0.00     0.001 C 
ATOM     20  C   UNL     1      -6.163  19.768 -32.180  1.00  0.00     0.000 C 
ENDBRANCH   7  15
BRANCH  14  21
ATOM     21  C   UNL     1      -2.458  24.243 -25.850  1.00  0.00     0.248 C 
ATOM     22  N   UNL     1      -2.728  25.284 -25.008  1.00  0.00    -0.366 N 
ATOM     23  O   UNL     1      -1.818  23.276 -25.455  1.00  0.00    -0.270 OA
ATOM     24  H   UNL     1      -2.391  25.205 -24.057  1.00  0.00     0.159 HD
ATOM     25  H   UNL     1      -3.183  26.142 -25.282  1.00  0.00     0.159 HD
ENDBRANCH  14  21
ENDBRANCH   1   6
TORSDOF 5
ENDMDL
