MODEL 8
REMARK VINA RESULT:    -7.678      2.705      8.422
REMARK INTER + INTRA:         -10.667
REMARK INTER:                  -9.733
REMARK INTRA:                  -0.934
REMARK UNBOUND:                -0.970
REMARK SMILES O=C(NCC1(O)CCCC1)[C@H]1CCN(c2ncnc3[nH]ccc23)CC12CC2
REMARK SMILES IDX 1 1 2 2 3 3 11 5 12 6 25 7 13 8 24 9 26 10 27 11 14 12 15 13
REMARK SMILES IDX 16 14 23 15 17 16 22 17 19 18 18 19 21 20 20 21 4 23 5 24
REMARK SMILES IDX 7 25 10 26 8 27 9 28 6 29
REMARK H PARENT 3 4 20 22 6 30
ROOT
ATOM      1  O   UNL     1     -12.906  19.124  18.599  1.00  0.00    -0.275 OA
ATOM      2  C   UNL     1     -13.780  18.307  18.877  1.00  0.00     0.223 C 
ATOM      3  N   UNL     1     -13.549  16.950  18.877  1.00  0.00    -0.353 N 
ATOM      4  H   UNL     1     -14.242  16.327  19.279  1.00  0.00     0.163 HD
ENDROOT
BRANCH   2   5
ATOM      5  C   UNL     1     -15.219  18.694  19.212  1.00  0.00     0.088 C 
ATOM      6  C   UNL     1     -16.097  17.440  19.098  1.00  0.00     0.035 C 
ATOM      7  C   UNL     1     -15.415  19.335  20.601  1.00  0.00    -0.000 C 
ATOM      8  C   UNL     1     -17.580  17.772  19.275  1.00  0.00     0.119 C 
ATOM      9  C   UNL     1     -16.783  19.056  21.217  1.00  0.00     0.126 C 
ATOM     10  C   UNL     1     -14.804  20.707  20.841  1.00  0.00     0.010 C 
ATOM     11  C   UNL     1     -14.250  19.517  21.564  1.00  0.00     0.010 C 
ATOM     12  N   UNL     1     -17.753  18.954  20.129  1.00  0.00    -0.355 N 
BRANCH  12  13
ATOM     13  C   UNL     1     -19.078  19.194  20.521  1.00  0.00     0.141 A 
ATOM     14  N   UNL     1     -19.740  18.288  21.290  1.00  0.00    -0.219 NA
ATOM     15  C   UNL     1     -19.806  20.331  20.103  1.00  0.00     0.061 A 
ATOM     16  C   UNL     1     -21.014  18.534  21.654  1.00  0.00     0.226 A 
ATOM     17  C   UNL     1     -19.572  21.462  19.265  1.00  0.00     0.033 A 
ATOM     18  C   UNL     1     -21.112  20.449  20.556  1.00  0.00     0.142 A 
ATOM     19  N   UNL     1     -21.777  19.593  21.344  1.00  0.00    -0.218 NA
ATOM     20  C   UNL     1     -20.715  22.233  19.259  1.00  0.00     0.085 A 
ATOM     21  N   UNL     1     -21.641  21.605  20.053  1.00  0.00    -0.346 N 
ATOM     22  H   UNL     1     -22.583  21.916  20.238  1.00  0.00     0.167 HD
ENDBRANCH  12  13
ENDBRANCH   2   5
BRANCH   3  23
ATOM     23  C   UNL     1     -12.228  16.397  18.643  1.00  0.00     0.151 C 
BRANCH  23  24
ATOM     24  C   UNL     1     -11.621  15.829  19.940  1.00  0.00     0.082 C 
ATOM     25  C   UNL     1     -10.852  14.530  19.702  1.00  0.00     0.037 C 
ATOM     26  C   UNL     1     -12.677  15.385  20.954  1.00  0.00     0.037 C 
ATOM     27  C   UNL     1     -11.920  13.441  19.687  1.00  0.00     0.003 C 
ATOM     28  C   UNL     1     -13.097  13.993  20.494  1.00  0.00     0.003 C 
BRANCH  24  29
ATOM     29  O   UNL     1     -10.771  16.814  20.533  1.00  0.00    -0.388 OA
ATOM     30  H   UNL     1     -10.481  16.468  21.396  1.00  0.00     0.211 HD
ENDBRANCH  24  29
ENDBRANCH  23  24
ENDBRANCH   3  23
TORSDOF 5
ENDMDL
