REMARK SMILES N=C(N)NCCCNC(=O)[C@@H]1CS[C@H]2CC[C@@H](NS(=O)(=O)Cc3ccccc3)C(=O)N21
REMARK SMILES IDX 8 1 9 2 10 3 7 5 6 6 5 7 4 8 1 9 2 10 3 11 11 16 12 17 31 18
REMARK SMILES IDX 13 19 29 20 14 21 17 22 30 23 15 24 16 25 18 26 19 28 20 29
REMARK SMILES IDX 21 30 22 31 23 32 24 33 28 34 25 35 27 36 26 37
REMARK H PARENT 8 4 1 12 3 13 3 14 4 15 18 27
REMARK INDEX MAP 8 1 9 2 10 3 42 4 7 5 6 6 5 7 4 8 1 9 2 10 3 11 32 12 33 13
REMARK INDEX MAP 34 14 35 15 11 16 12 17 31 18 13 19 29 20 14 21 17 22 30 23
REMARK INDEX MAP 15 24 16 25 18 26 52 27 19 28 20 29 21 30 22 31 23 32 24 33
REMARK INDEX MAP 28 34 25 35 27 36 26 37
ROOT
ATOM      1  N   UNL     1      -0.647  10.112  23.643  1.00  0.00    -0.354 N 
ATOM      2  C   UNL     1      -0.631  11.241  22.854  1.00  0.00     0.243 C 
ATOM      3  O   UNL     1      -0.120  12.298  23.223  1.00  0.00    -0.273 OA
ATOM      4  H   UNL     1      -0.992   9.231  23.236  1.00  0.00     0.163 HD
ENDROOT
BRANCH   1   5
ATOM      5  C   UNL     1      -0.200  10.112  25.020  1.00  0.00     0.117 C 
BRANCH   5   6
ATOM      6  C   UNL     1      -1.332  10.085  26.046  1.00  0.00     0.042 C 
BRANCH   6   7
ATOM      7  C   UNL     1      -2.718  10.455  25.516  1.00  0.00     0.117 C 
BRANCH   7   8
ATOM      8  N   UNL     1      -2.977  11.877  25.612  1.00  0.00    -0.357 N 
ATOM      9  N   UNL     1      -5.292  11.961  25.190  1.00  0.00    -0.270 NA
ATOM     10  C   UNL     1      -4.139  12.506  25.345  1.00  0.00     0.185 C 
ATOM     11  N   UNL     1      -4.011  13.830  25.212  1.00  0.00    -0.370 N 
ATOM     12  H   UNL     1      -5.397  10.941  25.291  1.00  0.00     0.191 HD
ATOM     13  H   UNL     1      -3.089  14.273  25.335  1.00  0.00     0.159 HD
ATOM     14  H   UNL     1      -4.834  14.407  24.986  1.00  0.00     0.159 HD
ATOM     15  H   UNL     1      -2.191  12.469  25.916  1.00  0.00     0.163 HD
ENDBRANCH   7   8
ENDBRANCH   6   7
ENDBRANCH   5   6
ENDBRANCH   1   5
BRANCH   2  16
ATOM     16  C   UNL     1      -1.281  11.053  21.466  1.00  0.00     0.185 C 
ATOM     17  C   UNL     1      -0.419  11.639  20.356  1.00  0.00     0.107 C 
ATOM     18  N   UNL     1      -2.585  11.703  21.411  1.00  0.00    -0.316 N 
ATOM     19  S   UNL     1      -1.043  13.322  20.055  1.00  0.00    -0.134 SA
ATOM     20  C   UNL     1      -3.708  11.094  21.914  1.00  0.00     0.242 C 
ATOM     21  C   UNL     1      -2.540  13.101  21.055  1.00  0.00     0.144 C 
ATOM     22  C   UNL     1      -5.059  11.815  21.730  1.00  0.00     0.159 C 
ATOM     23  O   UNL     1      -3.670   9.950  22.375  1.00  0.00    -0.273 OA
ATOM     24  C   UNL     1      -3.803  13.521  20.326  1.00  0.00     0.039 C 
ATOM     25  C   UNL     1      -4.980  13.271  21.266  1.00  0.00     0.033 C 
BRANCH  22  26
ATOM     26  N   UNL     1      -5.807  11.037  20.717  1.00  0.00    -0.202 NA
ATOM     27  H   UNL     1      -5.809  11.592  19.849  1.00  0.00     0.141 HD
BRANCH  26  28
ATOM     28  S   UNL     1      -7.401  10.615  21.037  1.00  0.00     0.216 S 
ATOM     29  O   UNL     1      -8.131  11.058  19.869  1.00  0.00    -0.212 OA
ATOM     30  O   UNL     1      -7.696  11.127  22.359  1.00  0.00    -0.212 OA
BRANCH  28  31
ATOM     31  C   UNL     1      -7.364   8.812  21.068  1.00  0.00     0.189 C 
BRANCH  31  32
ATOM     32  C   UNL     1      -6.654   8.306  19.837  1.00  0.00    -0.032 A 
ATOM     33  C   UNL     1      -5.273   8.061  19.856  1.00  0.00     0.005 A 
ATOM     34  C   UNL     1      -7.369   8.072  18.652  1.00  0.00     0.005 A 
ATOM     35  C   UNL     1      -4.623   7.592  18.712  1.00  0.00     0.000 A 
ATOM     36  C   UNL     1      -6.717   7.594  17.514  1.00  0.00     0.000 A 
ATOM     37  C   UNL     1      -5.346   7.355  17.545  1.00  0.00     0.000 A 
ENDBRANCH  31  32
ENDBRANCH  28  31
ENDBRANCH  26  28
ENDBRANCH  22  26
ENDBRANCH   2  16
TORSDOF 9
