MODEL 5
REMARK VINA RESULT:   -10.214      4.776      7.288
REMARK INTER + INTRA:         -14.809
REMARK INTER:                 -13.830
REMARK INTRA:                  -0.979
REMARK UNBOUND:                -0.713
REMARK SMILES O=C(O)c1cccc(NC(=O)c2ccc(Cl)cc2NC(=O)c2ccc(C(F)(F)F)cc2)c1
REMARK SMILES IDX 12 1 13 2 14 3 15 4 16 5 17 6 18 7 10 8 9 9 11 10 8 12 4 13
REMARK SMILES IDX 5 14 32 15 6 16 7 17 2 18 1 19 3 20 19 22 20 23 21 24 22 26
REMARK SMILES IDX 23 27 31 28 24 29 30 30 25 31 26 32 27 33 28 34 29 35
REMARK H PARENT 9 11 3 21 19 25
ROOT
ATOM      1  C   UNL     1      31.923   0.119 133.655  1.00  0.00     0.063 A 
ATOM      2  C   UNL     1      30.829  -0.765 133.625  1.00  0.00     0.017 A 
ATOM      3  C   UNL     1      30.483  -1.491 134.764  1.00  0.00     0.021 A 
ATOM      4  C   UNL     1      31.233  -1.345 135.928  1.00  0.00     0.043 A 
ATOM      5  Cl  UNL     1      30.799  -2.246 137.329  1.00  0.00    -0.084 Cl
ATOM      6  C   UNL     1      32.336  -0.491 135.964  1.00  0.00     0.047 A 
ATOM      7  C   UNL     1      32.705   0.245 134.831  1.00  0.00     0.055 A 
ENDROOT
BRANCH   1   8
ATOM      8  C   UNL     1      32.261   0.912 132.429  1.00  0.00     0.257 C 
ATOM      9  N   UNL     1      32.175   0.221 131.234  1.00  0.00    -0.322 N 
ATOM     10  O   UNL     1      32.525   2.103 132.563  1.00  0.00    -0.269 OA
ATOM     11  H   UNL     1      31.775  -0.709 131.266  1.00  0.00     0.170 HD
BRANCH   9  12
ATOM     12  C   UNL     1      32.476   0.705 129.941  1.00  0.00     0.042 A 
ATOM     13  C   UNL     1      33.971   1.234 128.101  1.00  0.00     0.061 A 
ATOM     14  C   UNL     1      32.885   1.691 127.344  1.00  0.00     0.016 A 
ATOM     15  C   UNL     1      33.762   0.740 129.398  1.00  0.00     0.041 A 
ATOM     16  C   UNL     1      31.600   1.653 127.878  1.00  0.00     0.003 A 
ATOM     17  C   UNL     1      31.398   1.160 129.169  1.00  0.00     0.026 A 
BRANCH  13  18
ATOM     18  C   UNL     1      35.320   1.290 127.485  1.00  0.00     0.335 C 
ATOM     19  O   UNL     1      36.332   1.685 128.032  1.00  0.00    -0.246 OA
BRANCH  18  20
ATOM     20  O   UNL     1      35.339   0.849 126.217  1.00  0.00    -0.478 OA
ATOM     21  H   UNL     1      36.288   0.685 126.036  1.00  0.00     0.297 HD
ENDBRANCH  18  20
ENDBRANCH  13  18
ENDBRANCH   9  12
ENDBRANCH   1   8
BRANCH   7  22
ATOM     22  N   UNL     1      33.844   1.090 134.813  1.00  0.00    -0.321 N 
ATOM     23  C   UNL     1      34.923   1.093 135.672  1.00  0.00     0.255 C 
ATOM     24  O   UNL     1      35.036   0.427 136.695  1.00  0.00    -0.269 OA
ATOM     25  H   UNL     1      33.840   1.781 134.062  1.00  0.00     0.170 HD
BRANCH  23  26
ATOM     26  C   UNL     1      36.020   2.044 135.318  1.00  0.00     0.040 A 
ATOM     27  C   UNL     1      36.494   2.910 136.312  1.00  0.00     0.014 A 
ATOM     28  C   UNL     1      36.601   2.078 134.044  1.00  0.00     0.014 A 
ATOM     29  C   UNL     1      37.520   3.816 136.032  1.00  0.00     0.014 A 
ATOM     30  C   UNL     1      37.628   2.987 133.765  1.00  0.00     0.014 A 
ATOM     31  C   UNL     1      38.102   3.862 134.756  1.00  0.00     0.056 A 
BRANCH  31  32
ATOM     32  C   UNL     1      39.195   4.855 134.444  1.00  0.00     0.416 C 
ATOM     33  F   UNL     1      40.023   4.443 133.444  1.00  0.00    -0.166 F 
ATOM     34  F   UNL     1      40.002   5.116 135.511  1.00  0.00    -0.166 F 
ATOM     35  F   UNL     1      38.699   6.060 134.047  1.00  0.00    -0.166 F 
ENDBRANCH  31  32
ENDBRANCH  23  26
ENDBRANCH   7  22
TORSDOF 7
ENDMDL
