MODEL 1
REMARK VINA RESULT:   -10.240      0.000      0.000
REMARK INTER + INTRA:         -20.309
REMARK INTER:                 -18.620
REMARK INTRA:                  -1.689
REMARK UNBOUND:                -1.689
REMARK SMILES CN(Cc1ccccc1)Cc1ccc(C(=O)c2ccc(OCCCCCCN3CCCCC3)cc2)cc1
REMARK SMILES IDX 21 1 20 2 17 3 18 4 35 5 19 6 34 7 15 8 16 9 14 10 11 11
REMARK SMILES IDX 12 12 37 13 13 14 36 15 10 16 2 17 1 18 3 19 4 20 5 21 9 22
REMARK SMILES IDX 6 23 8 24 7 25 22 26 23 27 24 28 25 29 26 30 27 31 28 32
REMARK SMILES IDX 29 33 33 34 30 35 32 36 31 37
REMARK H PARENT
ROOT
ATOM      1  O   UNL     1     -17.648 -43.157  29.114  1.00  0.00    -0.494 OA
ENDROOT
BRANCH   1   2
ATOM      2  C   UNL     1     -16.826 -42.931  30.182  1.00  0.00     0.119 A 
ATOM      3  C   UNL     1     -15.002 -42.711  32.302  1.00  0.00     0.023 A 
ATOM      4  C   UNL     1     -16.055 -41.797  32.180  1.00  0.00     0.016 A 
ATOM      5  C   UNL     1     -14.844 -43.716  31.343  1.00  0.00     0.016 A 
ATOM      6  C   UNL     1     -16.969 -41.912  31.126  1.00  0.00     0.047 A 
ATOM      7  C   UNL     1     -15.759 -43.826  30.293  1.00  0.00     0.047 A 
BRANCH   3   8
ATOM      8  C   UNL     1     -14.011 -42.620  33.404  1.00  0.00     0.193 C 
ATOM      9  O   UNL     1     -14.394 -42.311  34.529  1.00  0.00    -0.289 OA
BRANCH   8  10
ATOM     10  C   UNL     1     -12.569 -42.892  33.174  1.00  0.00     0.023 A 
ATOM     11  C   UNL     1      -9.860 -43.484  32.716  1.00  0.00    -0.034 A 
ATOM     12  C   UNL     1     -10.223 -42.409  33.538  1.00  0.00     0.006 A 
ATOM     13  C   UNL     1     -10.869 -44.269  32.137  1.00  0.00     0.006 A 
ATOM     14  C   UNL     1     -11.569 -42.119  33.775  1.00  0.00     0.012 A 
ATOM     15  C   UNL     1     -12.215 -43.980  32.369  1.00  0.00     0.012 A 
BRANCH  11  16
ATOM     16  C   UNL     1      -8.401 -43.805  32.453  1.00  0.00     0.120 C 
BRANCH  16  17
ATOM     17  N   UNL     1      -8.183 -44.471  31.154  1.00  0.00    -0.298 NA
ATOM     18  C   UNL     1      -7.109 -45.466  31.247  1.00  0.00     0.106 C 
BRANCH  17  19
ATOM     19  C   UNL     1      -7.854 -43.488  30.106  1.00  0.00     0.120 C 
BRANCH  19  20
ATOM     20  C   UNL     1      -9.008 -43.197  29.167  1.00  0.00    -0.034 A 
ATOM     21  C   UNL     1     -10.190 -43.950  29.236  1.00  0.00     0.005 A 
ATOM     22  C   UNL     1      -8.931 -42.144  28.241  1.00  0.00     0.005 A 
ATOM     23  C   UNL     1     -11.264 -43.664  28.390  1.00  0.00     0.000 A 
ATOM     24  C   UNL     1     -10.005 -41.861  27.395  1.00  0.00     0.000 A 
ATOM     25  C   UNL     1     -11.170 -42.620  27.469  1.00  0.00     0.000 A 
ENDBRANCH  19  20
ENDBRANCH  17  19
ENDBRANCH  16  17
ENDBRANCH  11  16
ENDBRANCH   8  10
ENDBRANCH   3   8
ENDBRANCH   1   2
BRANCH   1  26
ATOM     26  C   UNL     1     -19.054 -43.153  29.352  1.00  0.00     0.229 C 
BRANCH  26  27
ATOM     27  C   UNL     1     -19.793 -43.325  28.024  1.00  0.00     0.042 C 
BRANCH  27  28
ATOM     28  C   UNL     1     -20.035 -42.016  27.262  1.00  0.00     0.004 C 
BRANCH  28  29
ATOM     29  C   UNL     1     -19.985 -42.091  25.734  1.00  0.00     0.001 C 
BRANCH  29  30
ATOM     30  C   UNL     1     -18.972 -43.069  25.121  1.00  0.00     0.016 C 
BRANCH  30  31
ATOM     31  C   UNL     1     -17.926 -42.420  24.199  1.00  0.00     0.084 C 
BRANCH  31  32
ATOM     32  N   UNL     1     -16.531 -42.579  24.642  1.00  0.00    -0.303 NA
ATOM     33  C   UNL     1     -16.493 -43.104  26.017  1.00  0.00     0.084 C 
ATOM     34  C   UNL     1     -15.776 -43.462  23.736  1.00  0.00     0.084 C 
ATOM     35  C   UNL     1     -15.057 -43.219  26.531  1.00  0.00     0.016 C 
ATOM     36  C   UNL     1     -14.315 -43.580  24.172  1.00  0.00     0.016 C 
ATOM     37  C   UNL     1     -14.203 -44.078  25.607  1.00  0.00     0.003 C 
ENDBRANCH  31  32
ENDBRANCH  30  31
ENDBRANCH  29  30
ENDBRANCH  28  29
ENDBRANCH  27  28
ENDBRANCH  26  27
ENDBRANCH   1  26
TORSDOF 14
ENDMDL
MODEL 2
REMARK VINA RESULT:    -9.578      2.049      9.745
REMARK INTER + INTRA:         -19.105
REMARK INTER:                 -18.164
REMARK INTRA:                  -0.941
REMARK UNBOUND:                -1.689
REMARK SMILES CN(Cc1ccccc1)Cc1ccc(C(=O)c2ccc(OCCCCCCN3CCCCC3)cc2)cc1
REMARK SMILES IDX 21 1 20 2 17 3 18 4 35 5 19 6 34 7 15 8 16 9 14 10 11 11
REMARK SMILES IDX 12 12 37 13 13 14 36 15 10 16 2 17 1 18 3 19 4 20 5 21 9 22
REMARK SMILES IDX 6 23 8 24 7 25 22 26 23 27 24 28 25 29 26 30 27 31 28 32
REMARK SMILES IDX 29 33 33 34 30 35 32 36 31 37
REMARK H PARENT
ROOT
ATOM      1  O   UNL     1      -8.727 -42.181  28.559  1.00  0.00    -0.494 OA
ENDROOT
BRANCH   1   2
ATOM      2  C   UNL     1     -10.029 -42.498  28.290  1.00  0.00     0.119 A 
ATOM      3  C   UNL     1     -12.630 -43.422  27.790  1.00  0.00     0.023 A 
ATOM      4  C   UNL     1     -12.312 -42.073  27.596  1.00  0.00     0.016 A 
ATOM      5  C   UNL     1     -11.653 -44.302  28.266  1.00  0.00     0.016 A 
ATOM      6  C   UNL     1     -11.012 -41.614  27.838  1.00  0.00     0.047 A 
ATOM      7  C   UNL     1     -10.357 -43.838  28.507  1.00  0.00     0.047 A 
BRANCH   3   8
ATOM      8  C   UNL     1     -13.997 -43.946  27.545  1.00  0.00     0.193 C 
ATOM      9  O   UNL     1     -14.454 -44.800  28.301  1.00  0.00    -0.289 OA
BRANCH   8  10
ATOM     10  C   UNL     1     -14.821 -43.463  26.408  1.00  0.00     0.023 A 
ATOM     11  C   UNL     1     -16.448 -42.560  24.302  1.00  0.00    -0.034 A 
ATOM     12  C   UNL     1     -15.136 -42.985  24.055  1.00  0.00     0.006 A 
ATOM     13  C   UNL     1     -16.941 -42.605  25.615  1.00  0.00     0.006 A 
ATOM     14  C   UNL     1     -14.329 -43.443  25.099  1.00  0.00     0.012 A 
ATOM     15  C   UNL     1     -16.136 -43.060  26.661  1.00  0.00     0.012 A 
BRANCH  11  16
ATOM     16  C   UNL     1     -17.331 -42.060  23.175  1.00  0.00     0.120 C 
BRANCH  16  17
ATOM     17  N   UNL     1     -18.726 -42.531  23.284  1.00  0.00    -0.298 NA
ATOM     18  C   UNL     1     -19.417 -42.430  21.994  1.00  0.00     0.106 C 
BRANCH  17  19
ATOM     19  C   UNL     1     -19.465 -41.759  24.300  1.00  0.00     0.120 C 
BRANCH  19  20
ATOM     20  C   UNL     1     -19.889 -42.586  25.497  1.00  0.00    -0.034 A 
ATOM     21  C   UNL     1     -20.234 -43.937  25.343  1.00  0.00     0.005 A 
ATOM     22  C   UNL     1     -19.904 -42.027  26.785  1.00  0.00     0.005 A 
ATOM     23  C   UNL     1     -20.598 -44.707  26.450  1.00  0.00     0.000 A 
ATOM     24  C   UNL     1     -20.270 -42.798  27.890  1.00  0.00     0.000 A 
ATOM     25  C   UNL     1     -20.617 -44.137  27.723  1.00  0.00     0.000 A 
ENDBRANCH  19  20
ENDBRANCH  17  19
ENDBRANCH  16  17
ENDBRANCH  11  16
ENDBRANCH   8  10
ENDBRANCH   3   8
ENDBRANCH   1   2
BRANCH   1  26
ATOM     26  C   UNL     1      -8.255 -42.404  29.886  1.00  0.00     0.229 C 
BRANCH  26  27
ATOM     27  C   UNL     1      -7.824 -43.864  30.033  1.00  0.00     0.042 C 
BRANCH  27  28
ATOM     28  C   UNL     1      -8.154 -44.486  31.395  1.00  0.00     0.004 C 
BRANCH  28  29
ATOM     29  C   UNL     1      -9.115 -45.676  31.393  1.00  0.00     0.001 C 
BRANCH  29  30
ATOM     30  C   UNL     1     -10.586 -45.381  31.720  1.00  0.00     0.016 C 
BRANCH  30  31
ATOM     31  C   UNL     1     -10.866 -43.942  32.186  1.00  0.00     0.084 C 
BRANCH  31  32
ATOM     32  N   UNL     1     -12.259 -43.685  32.586  1.00  0.00    -0.303 NA
ATOM     33  C   UNL     1     -12.328 -42.491  33.445  1.00  0.00     0.084 C 
ATOM     34  C   UNL     1     -13.135 -43.523  31.412  1.00  0.00     0.084 C 
ATOM     35  C   UNL     1     -13.755 -42.235  33.932  1.00  0.00     0.016 C 
ATOM     36  C   UNL     1     -14.590 -43.309  31.835  1.00  0.00     0.016 C 
ATOM     37  C   UNL     1     -14.726 -42.111  32.765  1.00  0.00     0.003 C 
ENDBRANCH  31  32
ENDBRANCH  30  31
ENDBRANCH  29  30
ENDBRANCH  28  29
ENDBRANCH  27  28
ENDBRANCH  26  27
ENDBRANCH   1  26
TORSDOF 14
ENDMDL
MODEL 3
REMARK VINA RESULT:    -9.258      1.573      8.924
REMARK INTER + INTRA:         -18.525
REMARK INTER:                 -16.329
REMARK INTRA:                  -2.196
REMARK UNBOUND:                -1.689
REMARK SMILES CN(Cc1ccccc1)Cc1ccc(C(=O)c2ccc(OCCCCCCN3CCCCC3)cc2)cc1
REMARK SMILES IDX 21 1 20 2 17 3 18 4 35 5 19 6 34 7 15 8 16 9 14 10 11 11
REMARK SMILES IDX 12 12 37 13 13 14 36 15 10 16 2 17 1 18 3 19 4 20 5 21 9 22
REMARK SMILES IDX 6 23 8 24 7 25 22 26 23 27 24 28 25 29 26 30 27 31 28 32
REMARK SMILES IDX 29 33 33 34 30 35 32 36 31 37
REMARK H PARENT
ROOT
ATOM      1  O   UNL     1     -12.081 -41.640  34.355  1.00  0.00    -0.494 OA
ENDROOT
BRANCH   1   2
ATOM      2  C   UNL     1     -12.681 -42.317  33.330  1.00  0.00     0.119 A 
ATOM      3  C   UNL     1     -14.163 -43.597  31.322  1.00  0.00     0.023 A 
ATOM      4  C   UNL     1     -12.789 -43.835  31.445  1.00  0.00     0.016 A 
ATOM      5  C   UNL     1     -14.788 -42.692  32.185  1.00  0.00     0.016 A 
ATOM      6  C   UNL     1     -12.052 -43.202  32.452  1.00  0.00     0.047 A 
ATOM      7  C   UNL     1     -14.047 -42.062  33.189  1.00  0.00     0.047 A 
BRANCH   3   8
ATOM      8  C   UNL     1     -14.978 -44.247  30.266  1.00  0.00     0.193 C 
ATOM      9  O   UNL     1     -15.763 -45.139  30.580  1.00  0.00    -0.289 OA
BRANCH   8  10
ATOM     10  C   UNL     1     -14.864 -43.845  28.840  1.00  0.00     0.023 A 
ATOM     11  C   UNL     1     -14.728 -43.098  26.135  1.00  0.00    -0.034 A 
ATOM     12  C   UNL     1     -13.569 -43.473  26.827  1.00  0.00     0.006 A 
ATOM     13  C   UNL     1     -15.959 -43.115  26.809  1.00  0.00     0.006 A 
ATOM     14  C   UNL     1     -13.636 -43.854  28.170  1.00  0.00     0.012 A 
ATOM     15  C   UNL     1     -16.028 -43.492  28.151  1.00  0.00     0.012 A 
BRANCH  11  16
ATOM     16  C   UNL     1     -14.665 -42.682  24.677  1.00  0.00     0.120 C 
BRANCH  16  17
ATOM     17  N   UNL     1     -15.677 -43.357  23.842  1.00  0.00    -0.298 NA
ATOM     18  C   UNL     1     -15.087 -44.481  23.107  1.00  0.00     0.106 C 
BRANCH  17  19
ATOM     19  C   UNL     1     -16.289 -42.414  22.889  1.00  0.00     0.120 C 
BRANCH  19  20
ATOM     20  C   UNL     1     -17.692 -41.991  23.274  1.00  0.00    -0.034 A 
ATOM     21  C   UNL     1     -18.470 -41.220  22.397  1.00  0.00     0.005 A 
ATOM     22  C   UNL     1     -18.253 -42.396  24.496  1.00  0.00     0.005 A 
ATOM     23  C   UNL     1     -19.773 -40.853  22.740  1.00  0.00     0.000 A 
ATOM     24  C   UNL     1     -19.555 -42.026  24.839  1.00  0.00     0.000 A 
ATOM     25  C   UNL     1     -20.315 -41.256  23.961  1.00  0.00     0.000 A 
ENDBRANCH  19  20
ENDBRANCH  17  19
ENDBRANCH  16  17
ENDBRANCH  11  16
ENDBRANCH   8  10
ENDBRANCH   3   8
ENDBRANCH   1   2
BRANCH   1  26
ATOM     26  C   UNL     1     -10.725 -41.236  34.174  1.00  0.00     0.229 C 
BRANCH  26  27
ATOM     27  C   UNL     1      -9.839 -41.963  35.187  1.00  0.00     0.042 C 
BRANCH  27  28
ATOM     28  C   UNL     1      -8.537 -42.521  34.600  1.00  0.00     0.004 C 
BRANCH  28  29
ATOM     29  C   UNL     1      -8.594 -43.025  33.156  1.00  0.00     0.001 C 
BRANCH  29  30
ATOM     30  C   UNL     1      -7.258 -43.403  32.500  1.00  0.00     0.016 C 
BRANCH  30  31
ATOM     31  C   UNL     1      -7.333 -44.581  31.516  1.00  0.00     0.084 C 
BRANCH  31  32
ATOM     32  N   UNL     1      -8.013 -44.280  30.246  1.00  0.00    -0.303 NA
ATOM     33  C   UNL     1      -9.380 -44.827  30.260  1.00  0.00     0.084 C 
ATOM     34  C   UNL     1      -8.044 -42.831  29.982  1.00  0.00     0.084 C 
ATOM     35  C   UNL     1     -10.092 -44.587  28.928  1.00  0.00     0.016 C 
ATOM     36  C   UNL     1      -8.704 -42.529  28.635  1.00  0.00     0.016 C 
ATOM     37  C   UNL     1     -10.111 -43.108  28.566  1.00  0.00     0.003 C 
ENDBRANCH  31  32
ENDBRANCH  30  31
ENDBRANCH  29  30
ENDBRANCH  28  29
ENDBRANCH  27  28
ENDBRANCH  26  27
ENDBRANCH   1  26
TORSDOF 14
ENDMDL
MODEL 4
REMARK VINA RESULT:    -9.239      1.641      8.265
REMARK INTER + INTRA:         -18.490
REMARK INTER:                 -15.543
REMARK INTRA:                  -2.947
REMARK UNBOUND:                -1.689
REMARK SMILES CN(Cc1ccccc1)Cc1ccc(C(=O)c2ccc(OCCCCCCN3CCCCC3)cc2)cc1
REMARK SMILES IDX 21 1 20 2 17 3 18 4 35 5 19 6 34 7 15 8 16 9 14 10 11 11
REMARK SMILES IDX 12 12 37 13 13 14 36 15 10 16 2 17 1 18 3 19 4 20 5 21 9 22
REMARK SMILES IDX 6 23 8 24 7 25 22 26 23 27 24 28 25 29 26 30 27 31 28 32
REMARK SMILES IDX 29 33 33 34 30 35 32 36 31 37
REMARK H PARENT
ROOT
ATOM      1  O   UNL     1      -9.897 -45.129  32.245  1.00  0.00    -0.494 OA
ENDROOT
BRANCH   1   2
ATOM      2  C   UNL     1     -10.992 -44.311  32.254  1.00  0.00     0.119 A 
ATOM      3  C   UNL     1     -13.399 -42.871  32.237  1.00  0.00     0.023 A 
ATOM      4  C   UNL     1     -12.174 -42.196  32.288  1.00  0.00     0.016 A 
ATOM      5  C   UNL     1     -13.419 -44.269  32.228  1.00  0.00     0.016 A 
ATOM      6  C   UNL     1     -10.974 -42.916  32.289  1.00  0.00     0.047 A 
ATOM      7  C   UNL     1     -12.217 -44.982  32.229  1.00  0.00     0.047 A 
BRANCH   3   8
ATOM      8  C   UNL     1     -14.694 -42.144  32.237  1.00  0.00     0.193 C 
ATOM      9  O   UNL     1     -14.871 -41.240  33.050  1.00  0.00    -0.289 OA
BRANCH   8  10
ATOM     10  C   UNL     1     -15.776 -42.487  31.280  1.00  0.00     0.023 A 
ATOM     11  C   UNL     1     -17.878 -43.096  29.516  1.00  0.00    -0.034 A 
ATOM     12  C   UNL     1     -16.699 -43.853  29.505  1.00  0.00     0.006 A 
ATOM     13  C   UNL     1     -17.998 -42.038  30.430  1.00  0.00     0.006 A 
ATOM     14  C   UNL     1     -15.657 -43.559  30.388  1.00  0.00     0.012 A 
ATOM     15  C   UNL     1     -16.957 -41.739  31.312  1.00  0.00     0.012 A 
BRANCH  11  16
ATOM     16  C   UNL     1     -19.014 -43.408  28.561  1.00  0.00     0.120 C 
BRANCH  16  17
ATOM     17  N   UNL     1     -19.022 -42.535  27.370  1.00  0.00    -0.298 NA
ATOM     18  C   UNL     1     -20.268 -41.767  27.291  1.00  0.00     0.106 C 
BRANCH  17  19
ATOM     19  C   UNL     1     -18.850 -43.324  26.137  1.00  0.00     0.120 C 
BRANCH  19  20
ATOM     20  C   UNL     1     -17.583 -42.988  25.376  1.00  0.00    -0.034 A 
ATOM     21  C   UNL     1     -17.649 -42.507  24.060  1.00  0.00     0.005 A 
ATOM     22  C   UNL     1     -16.325 -43.111  25.988  1.00  0.00     0.005 A 
ATOM     23  C   UNL     1     -16.483 -42.171  23.368  1.00  0.00     0.000 A 
ATOM     24  C   UNL     1     -15.161 -42.777  25.294  1.00  0.00     0.000 A 
ATOM     25  C   UNL     1     -15.240 -42.307  23.985  1.00  0.00     0.000 A 
ENDBRANCH  19  20
ENDBRANCH  17  19
ENDBRANCH  16  17
ENDBRANCH  11  16
ENDBRANCH   8  10
ENDBRANCH   3   8
ENDBRANCH   1   2
BRANCH   1  26
ATOM     26  C   UNL     1      -9.904 -46.230  31.340  1.00  0.00     0.229 C 
BRANCH  26  27
ATOM     27  C   UNL     1      -8.483 -46.480  30.834  1.00  0.00     0.042 C 
BRANCH  27  28
ATOM     28  C   UNL     1      -7.425 -45.547  31.435  1.00  0.00     0.004 C 
BRANCH  28  29
ATOM     29  C   UNL     1      -6.923 -44.410  30.541  1.00  0.00     0.001 C 
BRANCH  29  30
ATOM     30  C   UNL     1      -7.800 -43.153  30.461  1.00  0.00     0.016 C 
BRANCH  30  31
ATOM     31  C   UNL     1      -8.355 -42.841  29.061  1.00  0.00     0.084 C 
BRANCH  31  32
ATOM     32  N   UNL     1      -9.821 -42.726  28.991  1.00  0.00    -0.303 NA
ATOM     33  C   UNL     1     -10.204 -41.781  27.929  1.00  0.00     0.084 C 
ATOM     34  C   UNL     1     -10.453 -44.037  28.763  1.00  0.00     0.084 C 
ATOM     35  C   UNL     1     -11.721 -41.589  27.874  1.00  0.00     0.016 C 
ATOM     36  C   UNL     1     -11.979 -43.917  28.745  1.00  0.00     0.016 C 
ATOM     37  C   UNL     1     -12.443 -42.918  27.694  1.00  0.00     0.003 C 
ENDBRANCH  31  32
ENDBRANCH  30  31
ENDBRANCH  29  30
ENDBRANCH  28  29
ENDBRANCH  27  28
ENDBRANCH  26  27
ENDBRANCH   1  26
TORSDOF 14
ENDMDL
MODEL 5
REMARK VINA RESULT:    -9.062      2.734     10.121
REMARK INTER + INTRA:         -18.167
REMARK INTER:                 -17.934
REMARK INTRA:                  -0.233
REMARK UNBOUND:                -1.689
REMARK SMILES CN(Cc1ccccc1)Cc1ccc(C(=O)c2ccc(OCCCCCCN3CCCCC3)cc2)cc1
REMARK SMILES IDX 21 1 20 2 17 3 18 4 35 5 19 6 34 7 15 8 16 9 14 10 11 11
REMARK SMILES IDX 12 12 37 13 13 14 36 15 10 16 2 17 1 18 3 19 4 20 5 21 9 22
REMARK SMILES IDX 6 23 8 24 7 25 22 26 23 27 24 28 25 29 26 30 27 31 28 32
REMARK SMILES IDX 29 33 33 34 30 35 32 36 31 37
REMARK H PARENT
ROOT
ATOM      1  O   UNL     1      -8.421 -42.877  28.755  1.00  0.00    -0.494 OA
ENDROOT
BRANCH   1   2
ATOM      2  C   UNL     1      -9.768 -42.966  28.536  1.00  0.00     0.119 A 
ATOM      3  C   UNL     1     -12.515 -43.419  28.192  1.00  0.00     0.023 A 
ATOM      4  C   UNL     1     -11.934 -42.228  27.738  1.00  0.00     0.016 A 
ATOM      5  C   UNL     1     -11.725 -44.368  28.847  1.00  0.00     0.016 A 
ATOM      6  C   UNL     1     -10.561 -42.007  27.904  1.00  0.00     0.047 A 
ATOM      7  C   UNL     1     -10.356 -44.142  29.010  1.00  0.00     0.047 A 
BRANCH   3   8
ATOM      8  C   UNL     1     -13.966 -43.689  28.037  1.00  0.00     0.193 C 
ATOM      9  O   UNL     1     -14.592 -44.158  28.985  1.00  0.00    -0.289 OA
BRANCH   8  10
ATOM     10  C   UNL     1     -14.676 -43.408  26.763  1.00  0.00     0.023 A 
ATOM     11  C   UNL     1     -16.089 -42.890  24.389  1.00  0.00    -0.034 A 
ATOM     12  C   UNL     1     -14.722 -43.194  24.350  1.00  0.00     0.006 A 
ATOM     13  C   UNL     1     -16.744 -42.862  25.630  1.00  0.00     0.006 A 
ATOM     14  C   UNL     1     -14.019 -43.461  25.528  1.00  0.00     0.012 A 
ATOM     15  C   UNL     1     -16.045 -43.126  26.809  1.00  0.00     0.012 A 
BRANCH  11  16
ATOM     16  C   UNL     1     -16.860 -42.598  23.116  1.00  0.00     0.120 C 
BRANCH  16  17
ATOM     17  N   UNL     1     -18.190 -42.011  23.370  1.00  0.00    -0.298 NA
ATOM     18  C   UNL     1     -18.861 -42.692  24.482  1.00  0.00     0.106 C 
BRANCH  17  19
ATOM     19  C   UNL     1     -19.037 -42.084  22.165  1.00  0.00     0.120 C 
BRANCH  19  20
ATOM     20  C   UNL     1     -19.529 -40.732  21.690  1.00  0.00    -0.034 A 
ATOM     21  C   UNL     1     -20.185 -39.862  22.573  1.00  0.00     0.005 A 
ATOM     22  C   UNL     1     -19.300 -40.310  20.370  1.00  0.00     0.005 A 
ATOM     23  C   UNL     1     -20.614 -38.604  22.142  1.00  0.00     0.000 A 
ATOM     24  C   UNL     1     -19.731 -39.053  19.941  1.00  0.00     0.000 A 
ATOM     25  C   UNL     1     -20.387 -38.201  20.826  1.00  0.00     0.000 A 
ENDBRANCH  19  20
ENDBRANCH  17  19
ENDBRANCH  16  17
ENDBRANCH  11  16
ENDBRANCH   8  10
ENDBRANCH   3   8
ENDBRANCH   1   2
BRANCH   1  26
ATOM     26  C   UNL     1      -7.839 -43.806  29.667  1.00  0.00     0.229 C 
BRANCH  26  27
ATOM     27  C   UNL     1      -7.431 -43.073  30.946  1.00  0.00     0.042 C 
BRANCH  27  28
ATOM     28  C   UNL     1      -7.888 -43.758  32.240  1.00  0.00     0.004 C 
BRANCH  28  29
ATOM     29  C   UNL     1      -8.375 -42.845  33.366  1.00  0.00     0.001 C 
BRANCH  29  30
ATOM     30  C   UNL     1      -9.891 -42.784  33.603  1.00  0.00     0.016 C 
BRANCH  30  31
ATOM     31  C   UNL     1     -10.741 -43.467  32.519  1.00  0.00     0.084 C 
BRANCH  31  32
ATOM     32  N   UNL     1     -12.194 -43.300  32.681  1.00  0.00    -0.303 NA
ATOM     33  C   UNL     1     -12.689 -42.253  31.771  1.00  0.00     0.084 C 
ATOM     34  C   UNL     1     -12.911 -44.565  32.442  1.00  0.00     0.084 C 
ATOM     35  C   UNL     1     -14.187 -42.010  31.962  1.00  0.00     0.016 C 
ATOM     36  C   UNL     1     -14.415 -44.398  32.664  1.00  0.00     0.016 C 
ATOM     37  C   UNL     1     -14.986 -43.295  31.783  1.00  0.00     0.003 C 
ENDBRANCH  31  32
ENDBRANCH  30  31
ENDBRANCH  29  30
ENDBRANCH  28  29
ENDBRANCH  27  28
ENDBRANCH  26  27
ENDBRANCH   1  26
TORSDOF 14
ENDMDL
MODEL 6
REMARK VINA RESULT:    -8.830      2.247      9.389
REMARK INTER + INTRA:         -17.746
REMARK INTER:                 -15.895
REMARK INTRA:                  -1.851
REMARK UNBOUND:                -1.689
REMARK SMILES CN(Cc1ccccc1)Cc1ccc(C(=O)c2ccc(OCCCCCCN3CCCCC3)cc2)cc1
REMARK SMILES IDX 21 1 20 2 17 3 18 4 35 5 19 6 34 7 15 8 16 9 14 10 11 11
REMARK SMILES IDX 12 12 37 13 13 14 36 15 10 16 2 17 1 18 3 19 4 20 5 21 9 22
REMARK SMILES IDX 6 23 8 24 7 25 22 26 23 27 24 28 25 29 26 30 27 31 28 32
REMARK SMILES IDX 29 33 33 34 30 35 32 36 31 37
REMARK H PARENT
ROOT
ATOM      1  O   UNL     1      -7.154 -45.036  30.731  1.00  0.00    -0.494 OA
ENDROOT
BRANCH   1   2
ATOM      2  C   UNL     1      -8.385 -44.546  30.396  1.00  0.00     0.119 A 
ATOM      3  C   UNL     1     -10.777 -43.292  29.638  1.00  0.00     0.023 A 
ATOM      4  C   UNL     1     -10.800 -44.577  30.193  1.00  0.00     0.016 A 
ATOM      5  C   UNL     1      -9.553 -42.648  29.433  1.00  0.00     0.016 A 
ATOM      6  C   UNL     1      -9.606 -45.198  30.578  1.00  0.00     0.047 A 
ATOM      7  C   UNL     1      -8.365 -43.273  29.818  1.00  0.00     0.047 A 
BRANCH   3   8
ATOM      8  C   UNL     1     -12.021 -42.601  29.215  1.00  0.00     0.193 C 
ATOM      9  O   UNL     1     -12.412 -41.627  29.855  1.00  0.00    -0.289 OA
BRANCH   8  10
ATOM     10  C   UNL     1     -12.803 -43.062  28.039  1.00  0.00     0.023 A 
ATOM     11  C   UNL     1     -14.260 -43.865  25.775  1.00  0.00    -0.034 A 
ATOM     12  C   UNL     1     -14.526 -44.432  27.029  1.00  0.00     0.006 A 
ATOM     13  C   UNL     1     -13.266 -42.881  25.670  1.00  0.00     0.006 A 
ATOM     14  C   UNL     1     -13.809 -44.027  28.158  1.00  0.00     0.012 A 
ATOM     15  C   UNL     1     -12.545 -42.476  26.796  1.00  0.00     0.012 A 
BRANCH  11  16
ATOM     16  C   UNL     1     -15.033 -44.299  24.544  1.00  0.00     0.120 C 
BRANCH  16  17
ATOM     17  N   UNL     1     -16.244 -43.488  24.308  1.00  0.00    -0.298 NA
ATOM     18  C   UNL     1     -16.075 -42.621  23.137  1.00  0.00     0.106 C 
BRANCH  17  19
ATOM     19  C   UNL     1     -16.565 -42.665  25.488  1.00  0.00     0.120 C 
BRANCH  19  20
ATOM     20  C   UNL     1     -17.950 -42.923  26.045  1.00  0.00    -0.034 A 
ATOM     21  C   UNL     1     -18.950 -43.484  25.237  1.00  0.00     0.005 A 
ATOM     22  C   UNL     1     -18.246 -42.643  27.390  1.00  0.00     0.005 A 
ATOM     23  C   UNL     1     -20.219 -43.747  25.758  1.00  0.00     0.000 A 
ATOM     24  C   UNL     1     -19.515 -42.905  27.908  1.00  0.00     0.000 A 
ATOM     25  C   UNL     1     -20.501 -43.457  27.093  1.00  0.00     0.000 A 
ENDBRANCH  19  20
ENDBRANCH  17  19
ENDBRANCH  16  17
ENDBRANCH  11  16
ENDBRANCH   8  10
ENDBRANCH   3   8
ENDBRANCH   1   2
BRANCH   1  26
ATOM     26  C   UNL     1      -6.756 -44.939  32.097  1.00  0.00     0.229 C 
BRANCH  26  27
ATOM     27  C   UNL     1      -6.686 -43.465  32.501  1.00  0.00     0.042 C 
BRANCH  27  28
ATOM     28  C   UNL     1      -7.650 -43.073  33.627  1.00  0.00     0.004 C 
BRANCH  28  29
ATOM     29  C   UNL     1      -9.083 -42.729  33.216  1.00  0.00     0.001 C 
BRANCH  29  30
ATOM     30  C   UNL     1     -10.136 -42.696  34.334  1.00  0.00     0.016 C 
BRANCH  30  31
ATOM     31  C   UNL     1     -11.165 -41.560  34.217  1.00  0.00     0.084 C 
BRANCH  31  32
ATOM     32  N   UNL     1     -12.442 -41.947  33.595  1.00  0.00    -0.303 NA
ATOM     33  C   UNL     1     -12.349 -43.314  33.056  1.00  0.00     0.084 C 
ATOM     34  C   UNL     1     -13.558 -41.850  34.552  1.00  0.00     0.084 C 
ATOM     35  C   UNL     1     -13.640 -43.723  32.345  1.00  0.00     0.016 C 
ATOM     36  C   UNL     1     -14.889 -42.202  33.885  1.00  0.00     0.016 C 
ATOM     37  C   UNL     1     -14.847 -43.592  33.265  1.00  0.00     0.003 C 
ENDBRANCH  31  32
ENDBRANCH  30  31
ENDBRANCH  29  30
ENDBRANCH  28  29
ENDBRANCH  27  28
ENDBRANCH  26  27
ENDBRANCH   1  26
TORSDOF 14
ENDMDL
MODEL 7
REMARK VINA RESULT:    -8.741      2.262      9.489
REMARK INTER + INTRA:         -17.584
REMARK INTER:                 -17.294
REMARK INTRA:                  -0.290
REMARK UNBOUND:                -1.689
REMARK SMILES CN(Cc1ccccc1)Cc1ccc(C(=O)c2ccc(OCCCCCCN3CCCCC3)cc2)cc1
REMARK SMILES IDX 21 1 20 2 17 3 18 4 35 5 19 6 34 7 15 8 16 9 14 10 11 11
REMARK SMILES IDX 12 12 37 13 13 14 36 15 10 16 2 17 1 18 3 19 4 20 5 21 9 22
REMARK SMILES IDX 6 23 8 24 7 25 22 26 23 27 24 28 25 29 26 30 27 31 28 32
REMARK SMILES IDX 29 33 33 34 30 35 32 36 31 37
REMARK H PARENT
ROOT
ATOM      1  O   UNL     1      -7.405 -43.377  29.834  1.00  0.00    -0.494 OA
ENDROOT
BRANCH   1   2
ATOM      2  C   UNL     1      -8.741 -43.541  29.594  1.00  0.00     0.119 A 
ATOM      3  C   UNL     1     -11.489 -43.597  29.036  1.00  0.00     0.023 A 
ATOM      4  C   UNL     1     -10.848 -44.736  29.538  1.00  0.00     0.016 A 
ATOM      5  C   UNL     1     -10.746 -42.441  28.783  1.00  0.00     0.016 A 
ATOM      6  C   UNL     1      -9.478 -44.705  29.823  1.00  0.00     0.047 A 
ATOM      7  C   UNL     1      -9.379 -42.415  29.069  1.00  0.00     0.047 A 
BRANCH   3   8
ATOM      8  C   UNL     1     -12.939 -43.592  28.718  1.00  0.00     0.193 C 
ATOM      9  O   UNL     1     -13.753 -43.560  29.638  1.00  0.00    -0.289 OA
BRANCH   8  10
ATOM     10  C   UNL     1     -13.426 -43.628  27.315  1.00  0.00     0.023 A 
ATOM     11  C   UNL     1     -14.357 -43.777  24.668  1.00  0.00    -0.034 A 
ATOM     12  C   UNL     1     -13.622 -42.665  25.101  1.00  0.00     0.006 A 
ATOM     13  C   UNL     1     -14.610 -44.820  25.572  1.00  0.00     0.006 A 
ATOM     14  C   UNL     1     -13.150 -42.594  26.414  1.00  0.00     0.012 A 
ATOM     15  C   UNL     1     -14.142 -44.750  26.886  1.00  0.00     0.012 A 
BRANCH  11  16
ATOM     16  C   UNL     1     -14.874 -43.862  23.244  1.00  0.00     0.120 C 
BRANCH  16  17
ATOM     17  N   UNL     1     -16.124 -43.105  23.039  1.00  0.00    -0.298 NA
ATOM     18  C   UNL     1     -15.856 -41.667  22.934  1.00  0.00     0.106 C 
BRANCH  17  19
ATOM     19  C   UNL     1     -17.076 -43.350  24.138  1.00  0.00     0.120 C 
BRANCH  19  20
ATOM     20  C   UNL     1     -18.328 -42.502  24.053  1.00  0.00    -0.034 A 
ATOM     21  C   UNL     1     -19.036 -42.157  25.214  1.00  0.00     0.005 A 
ATOM     22  C   UNL     1     -18.780 -42.012  22.817  1.00  0.00     0.005 A 
ATOM     23  C   UNL     1     -20.175 -41.353  25.139  1.00  0.00     0.000 A 
ATOM     24  C   UNL     1     -19.919 -41.210  22.743  1.00  0.00     0.000 A 
ATOM     25  C   UNL     1     -20.617 -40.880  23.903  1.00  0.00     0.000 A 
ENDBRANCH  19  20
ENDBRANCH  17  19
ENDBRANCH  16  17
ENDBRANCH  11  16
ENDBRANCH   8  10
ENDBRANCH   3   8
ENDBRANCH   1   2
BRANCH   1  26
ATOM     26  C   UNL     1      -7.005 -43.102  31.175  1.00  0.00     0.229 C 
BRANCH  26  27
ATOM     27  C   UNL     1      -8.003 -43.740  32.142  1.00  0.00     0.042 C 
BRANCH  27  28
ATOM     28  C   UNL     1      -8.387 -42.851  33.331  1.00  0.00     0.004 C 
BRANCH  28  29
ATOM     29  C   UNL     1      -9.882 -42.685  33.610  1.00  0.00     0.001 C 
BRANCH  29  30
ATOM     30  C   UNL     1     -10.783 -42.383  32.404  1.00  0.00     0.016 C 
BRANCH  30  31
ATOM     31  C   UNL     1     -12.192 -42.993  32.483  1.00  0.00     0.084 C 
BRANCH  31  32
ATOM     32  N   UNL     1     -13.229 -42.084  32.998  1.00  0.00    -0.303 NA
ATOM     33  C   UNL     1     -14.494 -42.295  32.274  1.00  0.00     0.084 C 
ATOM     34  C   UNL     1     -13.432 -42.265  34.446  1.00  0.00     0.084 C 
ATOM     35  C   UNL     1     -15.574 -41.319  32.743  1.00  0.00     0.016 C 
ATOM     36  C   UNL     1     -14.471 -41.280  34.985  1.00  0.00     0.016 C 
ATOM     37  C   UNL     1     -15.796 -41.415  34.246  1.00  0.00     0.003 C 
ENDBRANCH  31  32
ENDBRANCH  30  31
ENDBRANCH  29  30
ENDBRANCH  28  29
ENDBRANCH  27  28
ENDBRANCH  26  27
ENDBRANCH   1  26
TORSDOF 14
ENDMDL
MODEL 8
REMARK VINA RESULT:    -8.737      1.387      8.424
REMARK INTER + INTRA:         -17.576
REMARK INTER:                 -15.791
REMARK INTRA:                  -1.785
REMARK UNBOUND:                -1.689
REMARK SMILES CN(Cc1ccccc1)Cc1ccc(C(=O)c2ccc(OCCCCCCN3CCCCC3)cc2)cc1
REMARK SMILES IDX 21 1 20 2 17 3 18 4 35 5 19 6 34 7 15 8 16 9 14 10 11 11
REMARK SMILES IDX 12 12 37 13 13 14 36 15 10 16 2 17 1 18 3 19 4 20 5 21 9 22
REMARK SMILES IDX 6 23 8 24 7 25 22 26 23 27 24 28 25 29 26 30 27 31 28 32
REMARK SMILES IDX 29 33 33 34 30 35 32 36 31 37
REMARK H PARENT
ROOT
ATOM      1  O   UNL     1     -13.825 -43.121  31.962  1.00  0.00    -0.494 OA
ENDROOT
BRANCH   1   2
ATOM      2  C   UNL     1     -15.050 -42.982  31.372  1.00  0.00     0.119 A 
ATOM      3  C   UNL     1     -17.482 -42.903  29.976  1.00  0.00     0.023 A 
ATOM      4  C   UNL     1     -17.230 -41.988  31.005  1.00  0.00     0.016 A 
ATOM      5  C   UNL     1     -16.529 -43.878  29.669  1.00  0.00     0.016 A 
ATOM      6  C   UNL     1     -16.012 -42.023  31.695  1.00  0.00     0.047 A 
ATOM      7  C   UNL     1     -15.316 -43.909  30.362  1.00  0.00     0.047 A 
BRANCH   3   8
ATOM      8  C   UNL     1     -18.761 -42.900  29.223  1.00  0.00     0.193 C 
ATOM      9  O   UNL     1     -19.818 -43.012  29.839  1.00  0.00    -0.289 OA
BRANCH   8  10
ATOM     10  C   UNL     1     -18.790 -42.765  27.744  1.00  0.00     0.023 A 
ATOM     11  C   UNL     1     -18.762 -42.515  24.945  1.00  0.00    -0.034 A 
ATOM     12  C   UNL     1     -19.891 -42.133  25.681  1.00  0.00     0.006 A 
ATOM     13  C   UNL     1     -17.641 -43.012  25.628  1.00  0.00     0.006 A 
ATOM     14  C   UNL     1     -19.903 -42.247  27.074  1.00  0.00     0.012 A 
ATOM     15  C   UNL     1     -17.651 -43.130  27.019  1.00  0.00     0.012 A 
BRANCH  11  16
ATOM     16  C   UNL     1     -18.740 -42.395  23.433  1.00  0.00     0.120 C 
BRANCH  16  17
ATOM     17  N   UNL     1     -17.855 -41.315  22.954  1.00  0.00    -0.298 NA
ATOM     18  C   UNL     1     -18.573 -40.411  22.049  1.00  0.00     0.106 C 
BRANCH  17  19
ATOM     19  C   UNL     1     -16.674 -41.866  22.265  1.00  0.00     0.120 C 
BRANCH  19  20
ATOM     20  C   UNL     1     -15.737 -42.622  23.185  1.00  0.00    -0.034 A 
ATOM     21  C   UNL     1     -15.055 -41.954  24.212  1.00  0.00     0.005 A 
ATOM     22  C   UNL     1     -15.566 -44.010  23.052  1.00  0.00     0.005 A 
ATOM     23  C   UNL     1     -14.212 -42.655  25.078  1.00  0.00     0.000 A 
ATOM     24  C   UNL     1     -14.721 -44.708  23.916  1.00  0.00     0.000 A 
ATOM     25  C   UNL     1     -14.045 -44.032  24.929  1.00  0.00     0.000 A 
ENDBRANCH  19  20
ENDBRANCH  17  19
ENDBRANCH  16  17
ENDBRANCH  11  16
ENDBRANCH   8  10
ENDBRANCH   3   8
ENDBRANCH   1   2
BRANCH   1  26
ATOM     26  C   UNL     1     -13.702 -42.725  33.326  1.00  0.00     0.229 C 
BRANCH  26  27
ATOM     27  C   UNL     1     -12.237 -42.408  33.632  1.00  0.00     0.042 C 
BRANCH  27  28
ATOM     28  C   UNL     1     -11.288 -42.600  32.443  1.00  0.00     0.004 C 
BRANCH  28  29
ATOM     29  C   UNL     1     -10.406 -43.850  32.462  1.00  0.00     0.001 C 
BRANCH  29  30
ATOM     30  C   UNL     1     -10.787 -44.981  31.496  1.00  0.00     0.016 C 
BRANCH  30  31
ATOM     31  C   UNL     1      -9.902 -45.085  30.243  1.00  0.00     0.084 C 
BRANCH  31  32
ATOM     32  N   UNL     1     -10.307 -44.212  29.129  1.00  0.00    -0.303 NA
ATOM     33  C   UNL     1     -11.748 -43.921  29.211  1.00  0.00     0.084 C 
ATOM     34  C   UNL     1      -9.532 -42.959  29.118  1.00  0.00     0.084 C 
ATOM     35  C   UNL     1     -12.214 -43.069  28.029  1.00  0.00     0.016 C 
ATOM     36  C   UNL     1      -9.921 -42.080  27.927  1.00  0.00     0.016 C 
ATOM     37  C   UNL     1     -11.413 -41.777  27.926  1.00  0.00     0.003 C 
ENDBRANCH  31  32
ENDBRANCH  30  31
ENDBRANCH  29  30
ENDBRANCH  28  29
ENDBRANCH  27  28
ENDBRANCH  26  27
ENDBRANCH   1  26
TORSDOF 14
ENDMDL
MODEL 9
REMARK VINA RESULT:    -8.530      1.370      2.565
REMARK INTER + INTRA:         -17.200
REMARK INTER:                 -17.611
REMARK INTRA:                   0.412
REMARK UNBOUND:                -1.689
REMARK SMILES CN(Cc1ccccc1)Cc1ccc(C(=O)c2ccc(OCCCCCCN3CCCCC3)cc2)cc1
REMARK SMILES IDX 21 1 20 2 17 3 18 4 35 5 19 6 34 7 15 8 16 9 14 10 11 11
REMARK SMILES IDX 12 12 37 13 13 14 36 15 10 16 2 17 1 18 3 19 4 20 5 21 9 22
REMARK SMILES IDX 6 23 8 24 7 25 22 26 23 27 24 28 25 29 26 30 27 31 28 32
REMARK SMILES IDX 29 33 33 34 30 35 32 36 31 37
REMARK H PARENT
ROOT
ATOM      1  O   UNL     1     -17.770 -42.401  30.403  1.00  0.00    -0.494 OA
ENDROOT
BRANCH   1   2
ATOM      2  C   UNL     1     -16.688 -42.260  31.226  1.00  0.00     0.119 A 
ATOM      3  C   UNL     1     -14.361 -42.213  32.792  1.00  0.00     0.023 A 
ATOM      4  C   UNL     1     -15.378 -41.276  33.011  1.00  0.00     0.016 A 
ATOM      5  C   UNL     1     -14.496 -43.153  31.767  1.00  0.00     0.016 A 
ATOM      6  C   UNL     1     -16.542 -41.306  32.234  1.00  0.00     0.047 A 
ATOM      7  C   UNL     1     -15.659 -43.177  30.994  1.00  0.00     0.047 A 
BRANCH   3   8
ATOM      8  C   UNL     1     -13.111 -42.212  33.594  1.00  0.00     0.193 C 
ATOM      9  O   UNL     1     -13.084 -41.600  34.659  1.00  0.00    -0.289 OA
BRANCH   8  10
ATOM     10  C   UNL     1     -11.895 -42.931  33.135  1.00  0.00     0.023 A 
ATOM     11  C   UNL     1      -9.640 -44.361  32.259  1.00  0.00    -0.034 A 
ATOM     12  C   UNL     1      -9.490 -43.158  32.962  1.00  0.00     0.006 A 
ATOM     13  C   UNL     1     -10.933 -44.847  32.012  1.00  0.00     0.006 A 
ATOM     14  C   UNL     1     -10.610 -42.450  33.407  1.00  0.00     0.012 A 
ATOM     15  C   UNL     1     -12.054 -44.141  32.452  1.00  0.00     0.012 A 
BRANCH  11  16
ATOM     16  C   UNL     1      -8.430 -45.135  31.772  1.00  0.00     0.120 C 
BRANCH  16  17
ATOM     17  N   UNL     1      -7.986 -44.723  30.426  1.00  0.00    -0.298 NA
ATOM     18  C   UNL     1      -7.753 -43.276  30.370  1.00  0.00     0.106 C 
BRANCH  17  19
ATOM     19  C   UNL     1      -8.979 -45.101  29.404  1.00  0.00     0.120 C 
BRANCH  19  20
ATOM     20  C   UNL     1      -9.704 -43.917  28.799  1.00  0.00    -0.034 A 
ATOM     21  C   UNL     1      -9.012 -42.981  28.017  1.00  0.00     0.005 A 
ATOM     22  C   UNL     1     -11.089 -43.757  28.975  1.00  0.00     0.005 A 
ATOM     23  C   UNL     1      -9.685 -41.904  27.435  1.00  0.00     0.000 A 
ATOM     24  C   UNL     1     -11.760 -42.679  28.396  1.00  0.00     0.000 A 
ATOM     25  C   UNL     1     -11.059 -41.754  27.626  1.00  0.00     0.000 A 
ENDBRANCH  19  20
ENDBRANCH  17  19
ENDBRANCH  16  17
ENDBRANCH  11  16
ENDBRANCH   8  10
ENDBRANCH   3   8
ENDBRANCH   1   2
BRANCH   1  26
ATOM     26  C   UNL     1     -17.598 -43.165  29.212  1.00  0.00     0.229 C 
BRANCH  26  27
ATOM     27  C   UNL     1     -18.373 -42.507  28.070  1.00  0.00     0.042 C 
BRANCH  27  28
ATOM     28  C   UNL     1     -17.825 -42.820  26.672  1.00  0.00     0.004 C 
BRANCH  28  29
ATOM     29  C   UNL     1     -16.353 -43.229  26.587  1.00  0.00     0.001 C 
BRANCH  29  30
ATOM     30  C   UNL     1     -15.544 -42.664  25.411  1.00  0.00     0.016 C 
BRANCH  30  31
ATOM     31  C   UNL     1     -16.143 -42.944  24.022  1.00  0.00     0.084 C 
BRANCH  31  32
ATOM     32  N   UNL     1     -16.970 -41.856  23.477  1.00  0.00    -0.303 NA
ATOM     33  C   UNL     1     -16.384 -41.353  22.224  1.00  0.00     0.084 C 
ATOM     34  C   UNL     1     -18.358 -42.296  23.253  1.00  0.00     0.084 C 
ATOM     35  C   UNL     1     -17.187 -40.176  21.665  1.00  0.00     0.016 C 
ATOM     36  C   UNL     1     -19.226 -41.146  22.737  1.00  0.00     0.016 C 
ATOM     37  C   UNL     1     -18.649 -40.548  21.461  1.00  0.00     0.003 C 
ENDBRANCH  31  32
ENDBRANCH  30  31
ENDBRANCH  29  30
ENDBRANCH  28  29
ENDBRANCH  27  28
ENDBRANCH  26  27
ENDBRANCH   1  26
TORSDOF 14
ENDMDL
