MODEL 1
REMARK VINA RESULT:    -9.203      0.000      0.000
REMARK INTER + INTRA:         -14.434
REMARK INTER:                 -12.969
REMARK INTRA:                  -1.465
REMARK UNBOUND:                -1.465
REMARK SMILES CCS(=O)(=O)N1C[C@H](NC(=O)c2ccc(-n3ccccc3=O)cc2)[C@H](NC(=O)c2ccc(Cl)s2)C1
REMARK SMILES IDX 6 1 7 2 8 3 25 4 35 5 3 6 4 7 5 8 2 9 1 10 9 11 10 12 11 13
REMARK SMILES IDX 12 15 13 16 24 17 14 18 23 19 15 20 16 21 17 22 21 23 18 24
REMARK SMILES IDX 20 25 22 26 19 27 26 28 27 29 28 30 29 32 30 33 34 34 31 35
REMARK SMILES IDX 32 36 33 37
REMARK H PARENT 9 14 26 31
ROOT
ATOM      1  N   UNL     1      13.368 -16.501  19.078  1.00  0.00    -0.198 NA
ATOM      2  C   UNL     1      14.023 -15.417  18.280  1.00  0.00     0.129 C 
ATOM      3  C   UNL     1      13.936 -14.170  19.163  1.00  0.00     0.121 C 
ATOM      4  C   UNL     1      12.513 -14.322  19.728  1.00  0.00     0.121 C 
ATOM      5  C   UNL     1      12.471 -15.820  20.085  1.00  0.00     0.129 C 
ENDROOT
BRANCH   1   6
ATOM      6  S   UNL     1      14.392 -17.677  19.741  1.00  0.00     0.213 S 
ATOM      7  O   UNL     1      15.745 -17.170  19.700  1.00  0.00    -0.212 OA
ATOM      8  O   UNL     1      14.051 -18.930  19.094  1.00  0.00    -0.212 OA
BRANCH   6   9
ATOM      9  C   UNL     1      13.863 -17.745  21.451  1.00  0.00     0.151 C 
ATOM     10  C   UNL     1      14.936 -17.290  22.419  1.00  0.00     0.022 C 
ENDBRANCH   6   9
ENDBRANCH   1   6
BRANCH   3  11
ATOM     11  N   UNL     1      14.981 -14.177  20.199  1.00  0.00    -0.346 N 
ATOM     12  C   UNL     1      16.232 -13.645  19.992  1.00  0.00     0.251 C 
ATOM     13  O   UNL     1      16.545 -13.108  18.933  1.00  0.00    -0.269 OA
ATOM     14  H   UNL     1      14.741 -14.583  21.105  1.00  0.00     0.164 HD
BRANCH  12  15
ATOM     15  C   UNL     1      17.201 -13.718  21.117  1.00  0.00     0.039 A 
ATOM     16  C   UNL     1      16.723 -14.074  22.380  1.00  0.00     0.016 A 
ATOM     17  C   UNL     1      18.567 -13.483  20.952  1.00  0.00     0.016 A 
ATOM     18  C   UNL     1      17.597 -14.168  23.471  1.00  0.00     0.027 A 
ATOM     19  C   UNL     1      19.436 -13.579  22.049  1.00  0.00     0.027 A 
ATOM     20  C   UNL     1      18.972 -13.922  23.333  1.00  0.00     0.049 A 
BRANCH  20  21
ATOM     21  N   UNL     1      19.883 -14.002  24.456  1.00  0.00    -0.284 N 
ATOM     22  C   UNL     1      20.232 -12.854  25.175  1.00  0.00     0.095 A 
ATOM     23  C   UNL     1      20.439 -15.252  24.827  1.00  0.00     0.255 A 
ATOM     24  C   UNL     1      21.072 -12.878  26.215  1.00  0.00     0.019 A 
ATOM     25  C   UNL     1      21.360 -15.248  26.002  1.00  0.00     0.072 A 
ATOM     26  O   UNL     1      20.271 -16.335  24.267  1.00  0.00    -0.269 OA
ATOM     27  C   UNL     1      21.657 -14.114  26.643  1.00  0.00     0.007 A 
ENDBRANCH  20  21
ENDBRANCH  12  15
ENDBRANCH   3  11
BRANCH   4  28
ATOM     28  N   UNL     1      12.210 -13.410  20.816  1.00  0.00    -0.345 N 
ATOM     29  C   UNL     1      12.545 -12.074  20.774  1.00  0.00     0.261 C 
ATOM     30  O   UNL     1      13.088 -11.605  19.776  1.00  0.00    -0.268 OA
ATOM     31  H   UNL     1      11.861 -13.819  21.679  1.00  0.00     0.164 HD
BRANCH  29  32
ATOM     32  C   UNL     1      12.209 -11.308  21.968  1.00  0.00     0.093 A 
ATOM     33  C   UNL     1      11.422 -11.638  23.062  1.00  0.00     0.027 A 
ATOM     34  S   UNL     1      12.841  -9.712  22.134  1.00  0.00    -0.118 S 
ATOM     35  C   UNL     1      11.344 -10.584  24.024  1.00  0.00     0.033 A 
ATOM     36  C   UNL     1      12.075  -9.498  23.624  1.00  0.00     0.094 A 
ATOM     37  Cl  UNL     1      12.259  -8.018  24.474  1.00  0.00    -0.072 Cl
ENDBRANCH  29  32
ENDBRANCH   4  28
TORSDOF 7
ENDMDL
MODEL 2
REMARK VINA RESULT:    -8.672      1.946      2.243
REMARK INTER + INTRA:         -13.687
REMARK INTER:                 -12.433
REMARK INTRA:                  -1.254
REMARK UNBOUND:                -1.465
REMARK SMILES CCS(=O)(=O)N1C[C@H](NC(=O)c2ccc(-n3ccccc3=O)cc2)[C@H](NC(=O)c2ccc(Cl)s2)C1
REMARK SMILES IDX 6 1 7 2 8 3 25 4 35 5 3 6 4 7 5 8 2 9 1 10 9 11 10 12 11 13
REMARK SMILES IDX 12 15 13 16 24 17 14 18 23 19 15 20 16 21 17 22 21 23 18 24
REMARK SMILES IDX 20 25 22 26 19 27 26 28 27 29 28 30 29 32 30 33 34 34 31 35
REMARK SMILES IDX 32 36 33 37
REMARK H PARENT 9 14 26 31
ROOT
ATOM      1  N   UNL     1      12.434 -18.008  20.270  1.00  0.00    -0.198 NA
ATOM      2  C   UNL     1      13.296 -17.742  19.075  1.00  0.00     0.129 C 
ATOM      3  C   UNL     1      13.588 -16.239  19.126  1.00  0.00     0.121 C 
ATOM      4  C   UNL     1      12.210 -15.698  19.549  1.00  0.00     0.121 C 
ATOM      5  C   UNL     1      11.806 -16.689  20.657  1.00  0.00     0.129 C 
ENDROOT
BRANCH   1   6
ATOM      6  S   UNL     1      13.158 -18.838  21.557  1.00  0.00     0.213 S 
ATOM      7  O   UNL     1      12.226 -19.840  22.026  1.00  0.00    -0.212 OA
ATOM      8  O   UNL     1      13.673 -17.827  22.461  1.00  0.00    -0.212 OA
BRANCH   6   9
ATOM      9  C   UNL     1      14.535 -19.669  20.769  1.00  0.00     0.151 C 
ATOM     10  C   UNL     1      15.879 -19.222  21.307  1.00  0.00     0.022 C 
ENDBRANCH   6   9
ENDBRANCH   1   6
BRANCH   3  11
ATOM     11  N   UNL     1      14.656 -15.937  20.091  1.00  0.00    -0.346 N 
ATOM     12  C   UNL     1      15.619 -14.984  19.856  1.00  0.00     0.251 C 
ATOM     13  O   UNL     1      15.630 -14.308  18.830  1.00  0.00    -0.269 OA
ATOM     14  H   UNL     1      14.655 -16.455  20.972  1.00  0.00     0.164 HD
BRANCH  12  15
ATOM     15  C   UNL     1      16.648 -14.775  20.908  1.00  0.00     0.039 A 
ATOM     16  C   UNL     1      16.777 -13.501  21.462  1.00  0.00     0.016 A 
ATOM     17  C   UNL     1      17.457 -15.807  21.387  1.00  0.00     0.016 A 
ATOM     18  C   UNL     1      17.724 -13.253  22.466  1.00  0.00     0.027 A 
ATOM     19  C   UNL     1      18.403 -15.552  22.392  1.00  0.00     0.027 A 
ATOM     20  C   UNL     1      18.559 -14.270  22.952  1.00  0.00     0.049 A 
BRANCH  20  21
ATOM     21  N   UNL     1      19.551 -14.024  23.979  1.00  0.00    -0.284 N 
ATOM     22  C   UNL     1      19.228 -14.167  25.332  1.00  0.00     0.095 A 
ATOM     23  C   UNL     1      20.860 -13.623  23.614  1.00  0.00     0.255 A 
ATOM     24  C   UNL     1      20.107 -13.947  26.315  1.00  0.00     0.019 A 
ATOM     25  C   UNL     1      21.824 -13.401  24.733  1.00  0.00     0.072 A 
ATOM     26  O   UNL     1      21.282 -13.406  22.478  1.00  0.00    -0.269 OA
ATOM     27  C   UNL     1      21.449 -13.549  26.006  1.00  0.00     0.007 A 
ENDBRANCH  20  21
ENDBRANCH  12  15
ENDBRANCH   3  11
BRANCH   4  28
ATOM     28  N   UNL     1      12.220 -14.299  19.932  1.00  0.00    -0.345 N 
ATOM     29  C   UNL     1      12.507 -13.886  21.215  1.00  0.00     0.261 C 
ATOM     30  O   UNL     1      12.803 -14.712  22.077  1.00  0.00    -0.268 OA
ATOM     31  H   UNL     1      11.873 -13.630  19.250  1.00  0.00     0.164 HD
BRANCH  29  32
ATOM     32  C   UNL     1      12.430 -12.448  21.442  1.00  0.00     0.093 A 
ATOM     33  C   UNL     1      12.854 -11.386  20.656  1.00  0.00     0.027 A 
ATOM     34  S   UNL     1      11.716 -11.876  22.903  1.00  0.00    -0.118 S 
ATOM     35  C   UNL     1      12.592 -10.116  21.258  1.00  0.00     0.033 A 
ATOM     36  C   UNL     1      11.978 -10.264  22.472  1.00  0.00     0.094 A 
ATOM     37  Cl  UNL     1      11.485  -9.005  23.531  1.00  0.00    -0.072 Cl
ENDBRANCH  29  32
ENDBRANCH   4  28
TORSDOF 7
ENDMDL
MODEL 3
REMARK VINA RESULT:    -8.393      1.448      1.807
REMARK INTER + INTRA:         -13.293
REMARK INTER:                 -12.657
REMARK INTRA:                  -0.636
REMARK UNBOUND:                -1.465
REMARK SMILES CCS(=O)(=O)N1C[C@H](NC(=O)c2ccc(-n3ccccc3=O)cc2)[C@H](NC(=O)c2ccc(Cl)s2)C1
REMARK SMILES IDX 6 1 7 2 8 3 25 4 35 5 3 6 4 7 5 8 2 9 1 10 9 11 10 12 11 13
REMARK SMILES IDX 12 15 13 16 24 17 14 18 23 19 15 20 16 21 17 22 21 23 18 24
REMARK SMILES IDX 20 25 22 26 19 27 26 28 27 29 28 30 29 32 30 33 34 34 31 35
REMARK SMILES IDX 32 36 33 37
REMARK H PARENT 9 14 26 31
ROOT
ATOM      1  N   UNL     1      14.265 -14.751  18.048  1.00  0.00    -0.198 NA
ATOM      2  C   UNL     1      15.170 -13.668  17.549  1.00  0.00     0.129 C 
ATOM      3  C   UNL     1      15.123 -12.585  18.631  1.00  0.00     0.121 C 
ATOM      4  C   UNL     1      13.624 -12.601  18.980  1.00  0.00     0.121 C 
ATOM      5  C   UNL     1      13.329 -14.111  19.046  1.00  0.00     0.129 C 
ENDROOT
BRANCH   1   6
ATOM      6  S   UNL     1      15.010 -16.168  18.602  1.00  0.00     0.213 S 
ATOM      7  O   UNL     1      15.938 -15.807  19.650  1.00  0.00    -0.212 OA
ATOM      8  O   UNL     1      15.467 -16.879  17.423  1.00  0.00    -0.212 OA
BRANCH   6   9
ATOM      9  C   UNL     1      13.649 -17.072  19.335  1.00  0.00     0.151 C 
ATOM     10  C   UNL     1      13.436 -18.431  18.702  1.00  0.00     0.022 C 
ENDBRANCH   6   9
ENDBRANCH   1   6
BRANCH   3  11
ATOM     11  N   UNL     1      15.992 -12.929  19.767  1.00  0.00    -0.346 N 
ATOM     12  C   UNL     1      17.332 -12.623  19.793  1.00  0.00     0.251 C 
ATOM     13  O   UNL     1      17.881 -12.019  18.874  1.00  0.00    -0.269 OA
ATOM     14  H   UNL     1      15.560 -13.399  20.564  1.00  0.00     0.164 HD
BRANCH  12  15
ATOM     15  C   UNL     1      18.104 -13.028  20.997  1.00  0.00     0.039 A 
ATOM     16  C   UNL     1      19.491 -12.869  20.978  1.00  0.00     0.016 A 
ATOM     17  C   UNL     1      17.495 -13.521  22.153  1.00  0.00     0.016 A 
ATOM     18  C   UNL     1      20.264 -13.225  22.091  1.00  0.00     0.027 A 
ATOM     19  C   UNL     1      18.275 -13.874  23.264  1.00  0.00     0.027 A 
ATOM     20  C   UNL     1      19.676 -13.737  23.258  1.00  0.00     0.049 A 
BRANCH  20  21
ATOM     21  N   UNL     1      20.465 -14.122  24.411  1.00  0.00    -0.284 N 
ATOM     22  C   UNL     1      20.403 -13.383  25.597  1.00  0.00     0.095 A 
ATOM     23  C   UNL     1      21.319 -15.250  24.337  1.00  0.00     0.255 A 
ATOM     24  C   UNL     1      21.115 -13.696  26.684  1.00  0.00     0.019 A 
ATOM     25  C   UNL     1      22.088 -15.584  25.573  1.00  0.00     0.072 A 
ATOM     26  O   UNL     1      21.521 -15.967  23.357  1.00  0.00    -0.269 OA
ATOM     27  C   UNL     1      21.988 -14.832  26.672  1.00  0.00     0.007 A 
ENDBRANCH  20  21
ENDBRANCH  12  15
ENDBRANCH   3  11
BRANCH   4  28
ATOM     28  N   UNL     1      13.290 -11.844  20.172  1.00  0.00    -0.345 N 
ATOM     29  C   UNL     1      12.304 -12.242  21.048  1.00  0.00     0.261 C 
ATOM     30  O   UNL     1      11.694 -13.292  20.855  1.00  0.00    -0.268 OA
ATOM     31  H   UNL     1      13.718 -10.927  20.273  1.00  0.00     0.164 HD
BRANCH  29  32
ATOM     32  C   UNL     1      12.066 -11.344  22.172  1.00  0.00     0.093 A 
ATOM     33  C   UNL     1      11.287 -11.507  23.310  1.00  0.00     0.027 A 
ATOM     34  S   UNL     1      12.829  -9.798  22.175  1.00  0.00    -0.118 S 
ATOM     35  C   UNL     1      11.323 -10.366  24.170  1.00  0.00     0.033 A 
ATOM     36  C   UNL     1      12.127  -9.386  23.655  1.00  0.00     0.094 A 
ATOM     37  Cl  UNL     1      12.454  -7.854  24.358  1.00  0.00    -0.072 Cl
ENDBRANCH  29  32
ENDBRANCH   4  28
TORSDOF 7
ENDMDL
MODEL 4
REMARK VINA RESULT:    -7.630      4.025      8.536
REMARK INTER + INTRA:         -12.217
REMARK INTER:                 -10.767
REMARK INTRA:                  -1.450
REMARK UNBOUND:                -1.465
REMARK SMILES CCS(=O)(=O)N1C[C@H](NC(=O)c2ccc(-n3ccccc3=O)cc2)[C@H](NC(=O)c2ccc(Cl)s2)C1
REMARK SMILES IDX 6 1 7 2 8 3 25 4 35 5 3 6 4 7 5 8 2 9 1 10 9 11 10 12 11 13
REMARK SMILES IDX 12 15 13 16 24 17 14 18 23 19 15 20 16 21 17 22 21 23 18 24
REMARK SMILES IDX 20 25 22 26 19 27 26 28 27 29 28 30 29 32 30 33 34 34 31 35
REMARK SMILES IDX 32 36 33 37
REMARK H PARENT 9 14 26 31
ROOT
ATOM      1  N   UNL     1      21.480 -16.198  23.668  1.00  0.00    -0.198 NA
ATOM      2  C   UNL     1      21.105 -16.865  22.382  1.00  0.00     0.129 C 
ATOM      3  C   UNL     1      19.714 -17.453  22.634  1.00  0.00     0.121 C 
ATOM      4  C   UNL     1      19.889 -17.991  24.065  1.00  0.00     0.121 C 
ATOM      5  C   UNL     1      20.638 -16.832  24.750  1.00  0.00     0.129 C 
ENDROOT
BRANCH   1   6
ATOM      6  S   UNL     1      21.463 -14.504  23.677  1.00  0.00     0.213 S 
ATOM      7  O   UNL     1      20.676 -14.057  22.550  1.00  0.00    -0.212 OA
ATOM      8  O   UNL     1      22.843 -14.081  23.831  1.00  0.00    -0.212 OA
BRANCH   6   9
ATOM      9  C   UNL     1      20.568 -14.123  25.181  1.00  0.00     0.151 C 
ATOM     10  C   UNL     1      20.772 -12.695  25.642  1.00  0.00     0.022 C 
ENDBRANCH   6   9
ENDBRANCH   1   6
BRANCH   3  11
ATOM     11  N   UNL     1      18.671 -16.421  22.520  1.00  0.00    -0.346 N 
ATOM     12  C   UNL     1      17.609 -16.534  21.655  1.00  0.00     0.251 C 
ATOM     13  O   UNL     1      17.453 -17.520  20.938  1.00  0.00    -0.269 OA
ATOM     14  H   UNL     1      18.750 -15.605  23.129  1.00  0.00     0.164 HD
BRANCH  12  15
ATOM     15  C   UNL     1      16.624 -15.421  21.630  1.00  0.00     0.039 A 
ATOM     16  C   UNL     1      17.015 -14.181  22.139  1.00  0.00     0.016 A 
ATOM     17  C   UNL     1      15.345 -15.556  21.088  1.00  0.00     0.016 A 
ATOM     18  C   UNL     1      16.129 -13.095  22.129  1.00  0.00     0.027 A 
ATOM     19  C   UNL     1      14.463 -14.465  21.081  1.00  0.00     0.027 A 
ATOM     20  C   UNL     1      14.833 -13.212  21.602  1.00  0.00     0.049 A 
BRANCH  20  21
ATOM     21  N   UNL     1      13.903 -12.101  21.599  1.00  0.00    -0.284 N 
ATOM     22  C   UNL     1      12.640 -12.227  22.187  1.00  0.00     0.095 A 
ATOM     23  C   UNL     1      14.267 -10.877  20.986  1.00  0.00     0.255 A 
ATOM     24  C   UNL     1      11.746 -11.233  22.206  1.00  0.00     0.019 A 
ATOM     25  C   UNL     1      13.254  -9.780  21.037  1.00  0.00     0.072 A 
ATOM     26  O   UNL     1      15.313 -10.628  20.387  1.00  0.00    -0.269 OA
ATOM     27  C   UNL     1      12.062  -9.968  21.610  1.00  0.00     0.007 A 
ENDBRANCH  20  21
ENDBRANCH  12  15
ENDBRANCH   3  11
BRANCH   4  28
ATOM     28  N   UNL     1      18.647 -18.397  24.697  1.00  0.00    -0.345 N 
ATOM     29  C   UNL     1      17.922 -19.488  24.269  1.00  0.00     0.261 C 
ATOM     30  O   UNL     1      18.338 -20.180  23.343  1.00  0.00    -0.268 OA
ATOM     31  H   UNL     1      18.252 -17.764  25.388  1.00  0.00     0.164 HD
BRANCH  29  32
ATOM     32  C   UNL     1      16.676 -19.730  24.986  1.00  0.00     0.093 A 
ATOM     33  C   UNL     1      15.359 -19.672  24.553  1.00  0.00     0.027 A 
ATOM     34  S   UNL     1      16.749 -20.161  26.654  1.00  0.00    -0.118 S 
ATOM     35  C   UNL     1      14.424 -19.979  25.590  1.00  0.00     0.033 A 
ATOM     36  C   UNL     1      15.067 -20.260  26.765  1.00  0.00     0.094 A 
ATOM     37  Cl  UNL     1      14.332 -20.680  28.259  1.00  0.00    -0.072 Cl
ENDBRANCH  29  32
ENDBRANCH   4  28
TORSDOF 7
ENDMDL
MODEL 5
REMARK VINA RESULT:    -7.483      3.879      8.020
REMARK INTER + INTRA:         -12.010
REMARK INTER:                 -10.724
REMARK INTRA:                  -1.286
REMARK UNBOUND:                -1.465
REMARK SMILES CCS(=O)(=O)N1C[C@H](NC(=O)c2ccc(-n3ccccc3=O)cc2)[C@H](NC(=O)c2ccc(Cl)s2)C1
REMARK SMILES IDX 6 1 7 2 8 3 25 4 35 5 3 6 4 7 5 8 2 9 1 10 9 11 10 12 11 13
REMARK SMILES IDX 12 15 13 16 24 17 14 18 23 19 15 20 16 21 17 22 21 23 18 24
REMARK SMILES IDX 20 25 22 26 19 27 26 28 27 29 28 30 29 32 30 33 34 34 31 35
REMARK SMILES IDX 32 36 33 37
REMARK H PARENT 9 14 26 31
ROOT
ATOM      1  N   UNL     1      19.650 -13.507  21.933  1.00  0.00    -0.198 NA
ATOM      2  C   UNL     1      18.482 -12.703  22.412  1.00  0.00     0.129 C 
ATOM      3  C   UNL     1      17.563 -12.580  21.193  1.00  0.00     0.121 C 
ATOM      4  C   UNL     1      18.599 -12.338  20.082  1.00  0.00     0.121 C 
ATOM      5  C   UNL     1      19.686 -13.372  20.429  1.00  0.00     0.129 C 
ENDROOT
BRANCH   1   6
ATOM      6  S   UNL     1      19.752 -15.103  22.492  1.00  0.00     0.213 S 
ATOM      7  O   UNL     1      20.326 -15.912  21.439  1.00  0.00    -0.212 OA
ATOM      8  O   UNL     1      18.452 -15.428  23.048  1.00  0.00    -0.212 OA
BRANCH   6   9
ATOM      9  C   UNL     1      20.940 -14.982  23.826  1.00  0.00     0.151 C 
ATOM     10  C   UNL     1      21.627 -13.633  23.883  1.00  0.00     0.022 C 
ENDBRANCH   6   9
ENDBRANCH   1   6
BRANCH   3  11
ATOM     11  N   UNL     1      16.770 -13.804  20.998  1.00  0.00    -0.346 N 
ATOM     12  C   UNL     1      15.422 -13.863  21.262  1.00  0.00     0.251 C 
ATOM     13  O   UNL     1      14.791 -12.885  21.655  1.00  0.00    -0.269 OA
ATOM     14  H   UNL     1      17.257 -14.626  20.637  1.00  0.00     0.164 HD
BRANCH  12  15
ATOM     15  C   UNL     1      14.735 -15.160  21.028  1.00  0.00     0.039 A 
ATOM     16  C   UNL     1      13.411 -15.293  21.451  1.00  0.00     0.016 A 
ATOM     17  C   UNL     1      15.345 -16.230  20.371  1.00  0.00     0.016 A 
ATOM     18  C   UNL     1      12.714 -16.491  21.245  1.00  0.00     0.027 A 
ATOM     19  C   UNL     1      14.641 -17.426  20.167  1.00  0.00     0.027 A 
ATOM     20  C   UNL     1      13.312 -17.585  20.601  1.00  0.00     0.049 A 
BRANCH  20  21
ATOM     21  N   UNL     1      12.607 -18.834  20.393  1.00  0.00    -0.284 N 
ATOM     22  C   UNL     1      12.749 -19.891  21.297  1.00  0.00     0.095 A 
ATOM     23  C   UNL     1      11.773 -18.994  19.259  1.00  0.00     0.255 A 
ATOM     24  C   UNL     1      12.123 -21.063  21.147  1.00  0.00     0.019 A 
ATOM     25  C   UNL     1      11.074 -20.307  19.127  1.00  0.00     0.072 A 
ATOM     26  O   UNL     1      11.585 -18.181  18.354  1.00  0.00    -0.269 OA
ATOM     27  C   UNL     1      11.258 -21.279  20.024  1.00  0.00     0.007 A 
ENDBRANCH  20  21
ENDBRANCH  12  15
ENDBRANCH   3  11
BRANCH   4  28
ATOM     28  N   UNL     1      18.053 -12.427  18.740  1.00  0.00    -0.345 N 
ATOM     29  C   UNL     1      16.896 -11.779  18.368  1.00  0.00     0.261 C 
ATOM     30  O   UNL     1      16.303 -11.063  19.173  1.00  0.00    -0.268 OA
ATOM     31  H   UNL     1      18.482 -13.101  18.110  1.00  0.00     0.164 HD
BRANCH  29  32
ATOM     32  C   UNL     1      16.463 -12.010  16.995  1.00  0.00     0.093 A 
ATOM     33  C   UNL     1      15.735 -13.054  16.441  1.00  0.00     0.027 A 
ATOM     34  S   UNL     1      16.883 -10.854  15.786  1.00  0.00    -0.118 S 
ATOM     35  C   UNL     1      15.529 -12.897  15.035  1.00  0.00     0.033 A 
ATOM     36  C   UNL     1      16.106 -11.742  14.579  1.00  0.00     0.094 A 
ATOM     37  Cl  UNL     1      16.100 -11.164  12.962  1.00  0.00    -0.072 Cl
ENDBRANCH  29  32
ENDBRANCH   4  28
TORSDOF 7
ENDMDL
MODEL 6
REMARK VINA RESULT:    -7.462      3.739      7.467
REMARK INTER + INTRA:         -11.981
REMARK INTER:                 -10.111
REMARK INTRA:                  -1.870
REMARK UNBOUND:                -1.465
REMARK SMILES CCS(=O)(=O)N1C[C@H](NC(=O)c2ccc(-n3ccccc3=O)cc2)[C@H](NC(=O)c2ccc(Cl)s2)C1
REMARK SMILES IDX 6 1 7 2 8 3 25 4 35 5 3 6 4 7 5 8 2 9 1 10 9 11 10 12 11 13
REMARK SMILES IDX 12 15 13 16 24 17 14 18 23 19 15 20 16 21 17 22 21 23 18 24
REMARK SMILES IDX 20 25 22 26 19 27 26 28 27 29 28 30 29 32 30 33 34 34 31 35
REMARK SMILES IDX 32 36 33 37
REMARK H PARENT 9 14 26 31
ROOT
ATOM      1  N   UNL     1      14.609 -19.230  21.342  1.00  0.00    -0.198 NA
ATOM      2  C   UNL     1      13.464 -18.380  21.796  1.00  0.00     0.129 C 
ATOM      3  C   UNL     1      14.111 -17.094  22.319  1.00  0.00     0.121 C 
ATOM      4  C   UNL     1      15.328 -17.672  23.062  1.00  0.00     0.121 C 
ATOM      5  C   UNL     1      15.838 -18.729  22.063  1.00  0.00     0.129 C 
ENDROOT
BRANCH   1   6
ATOM      6  S   UNL     1      14.806 -19.405  19.668  1.00  0.00     0.213 S 
ATOM      7  O   UNL     1      15.242 -20.758  19.406  1.00  0.00    -0.212 OA
ATOM      8  O   UNL     1      15.601 -18.273  19.228  1.00  0.00    -0.212 OA
BRANCH   6   9
ATOM      9  C   UNL     1      13.136 -19.217  19.050  1.00  0.00     0.151 C 
ATOM     10  C   UNL     1      13.004 -18.094  18.041  1.00  0.00     0.022 C 
ENDBRANCH   6   9
ENDBRANCH   1   6
BRANCH   3  11
ATOM     11  N   UNL     1      14.473 -16.194  21.213  1.00  0.00    -0.346 N 
ATOM     12  C   UNL     1      13.615 -15.236  20.727  1.00  0.00     0.251 C 
ATOM     13  O   UNL     1      12.497 -15.058  21.204  1.00  0.00    -0.269 OA
ATOM     14  H   UNL     1      15.410 -16.289  20.817  1.00  0.00     0.164 HD
BRANCH  12  15
ATOM     15  C   UNL     1      14.099 -14.390  19.603  1.00  0.00     0.039 A 
ATOM     16  C   UNL     1      13.936 -13.007  19.699  1.00  0.00     0.016 A 
ATOM     17  C   UNL     1      14.739 -14.920  18.481  1.00  0.00     0.016 A 
ATOM     18  C   UNL     1      14.384 -12.165  18.673  1.00  0.00     0.027 A 
ATOM     19  C   UNL     1      15.185 -14.070  17.458  1.00  0.00     0.027 A 
ATOM     20  C   UNL     1      15.017 -12.675  17.529  1.00  0.00     0.049 A 
BRANCH  20  21
ATOM     21  N   UNL     1      15.472 -11.816  16.455  1.00  0.00    -0.284 N 
ATOM     22  C   UNL     1      14.663 -11.580  15.339  1.00  0.00     0.095 A 
ATOM     23  C   UNL     1      16.754 -11.215  16.526  1.00  0.00     0.255 A 
ATOM     24  C   UNL     1      15.041 -10.799  14.322  1.00  0.00     0.019 A 
ATOM     25  C   UNL     1      17.140 -10.335  15.384  1.00  0.00     0.072 A 
ATOM     26  O   UNL     1      17.596 -11.365  17.411  1.00  0.00    -0.269 OA
ATOM     27  C   UNL     1      16.322 -10.156  14.343  1.00  0.00     0.007 A 
ENDBRANCH  20  21
ENDBRANCH  12  15
ENDBRANCH   3  11
BRANCH   4  28
ATOM     28  N   UNL     1      16.299 -16.673  23.467  1.00  0.00    -0.345 N 
ATOM     29  C   UNL     1      17.068 -16.808  24.603  1.00  0.00     0.261 C 
ATOM     30  O   UNL     1      16.973 -17.819  25.296  1.00  0.00    -0.268 OA
ATOM     31  H   UNL     1      16.300 -15.794  22.956  1.00  0.00     0.164 HD
BRANCH  29  32
ATOM     32  C   UNL     1      17.962 -15.693  24.889  1.00  0.00     0.093 A 
ATOM     33  C   UNL     1      18.337 -14.611  24.104  1.00  0.00     0.027 A 
ATOM     34  S   UNL     1      18.734 -15.622  26.429  1.00  0.00    -0.118 S 
ATOM     35  C   UNL     1      19.251 -13.737  24.771  1.00  0.00     0.033 A 
ATOM     36  C   UNL     1      19.532 -14.187  26.032  1.00  0.00     0.094 A 
ATOM     37  Cl  UNL     1      20.576 -13.447  27.176  1.00  0.00    -0.072 Cl
ENDBRANCH  29  32
ENDBRANCH   4  28
TORSDOF 7
ENDMDL
MODEL 7
REMARK VINA RESULT:    -7.324      3.973      7.862
REMARK INTER + INTRA:         -11.787
REMARK INTER:                  -9.728
REMARK INTRA:                  -2.058
REMARK UNBOUND:                -1.465
REMARK SMILES CCS(=O)(=O)N1C[C@H](NC(=O)c2ccc(-n3ccccc3=O)cc2)[C@H](NC(=O)c2ccc(Cl)s2)C1
REMARK SMILES IDX 6 1 7 2 8 3 25 4 35 5 3 6 4 7 5 8 2 9 1 10 9 11 10 12 11 13
REMARK SMILES IDX 12 15 13 16 24 17 14 18 23 19 15 20 16 21 17 22 21 23 18 24
REMARK SMILES IDX 20 25 22 26 19 27 26 28 27 29 28 30 29 32 30 33 34 34 31 35
REMARK SMILES IDX 32 36 33 37
REMARK H PARENT 9 14 26 31
ROOT
ATOM      1  N   UNL     1      15.049 -19.177  21.793  1.00  0.00    -0.198 NA
ATOM      2  C   UNL     1      14.213 -18.122  22.446  1.00  0.00     0.129 C 
ATOM      3  C   UNL     1      15.122 -16.892  22.526  1.00  0.00     0.121 C 
ATOM      4  C   UNL     1      16.453 -17.551  22.927  1.00  0.00     0.121 C 
ATOM      5  C   UNL     1      16.492 -18.780  21.999  1.00  0.00     0.129 C 
ENDROOT
BRANCH   1   6
ATOM      6  S   UNL     1      14.658 -19.573  20.193  1.00  0.00     0.213 S 
ATOM      7  O   UNL     1      13.644 -18.649  19.736  1.00  0.00    -0.212 OA
ATOM      8  O   UNL     1      14.418 -21.004  20.171  1.00  0.00    -0.212 OA
BRANCH   6   9
ATOM      9  C   UNL     1      16.179 -19.226  19.314  1.00  0.00     0.151 C 
ATOM     10  C   UNL     1      16.007 -18.188  18.224  1.00  0.00     0.022 C 
ENDBRANCH   6   9
ENDBRANCH   1   6
BRANCH   3  11
ATOM     11  N   UNL     1      15.182 -16.190  21.235  1.00  0.00    -0.346 N 
ATOM     12  C   UNL     1      15.509 -14.858  21.130  1.00  0.00     0.251 C 
ATOM     13  O   UNL     1      15.795 -14.178  22.113  1.00  0.00    -0.269 OA
ATOM     14  H   UNL     1      14.986 -16.735  20.393  1.00  0.00     0.164 HD
BRANCH  12  15
ATOM     15  C   UNL     1      15.531 -14.263  19.768  1.00  0.00     0.039 A 
ATOM     16  C   UNL     1      16.438 -13.233  19.512  1.00  0.00     0.016 A 
ATOM     17  C   UNL     1      14.713 -14.717  18.733  1.00  0.00     0.016 A 
ATOM     18  C   UNL     1      16.507 -12.645  18.241  1.00  0.00     0.027 A 
ATOM     19  C   UNL     1      14.788 -14.125  17.463  1.00  0.00     0.027 A 
ATOM     20  C   UNL     1      15.684 -13.075  17.189  1.00  0.00     0.049 A 
BRANCH  20  21
ATOM     21  N   UNL     1      15.736 -12.466  15.875  1.00  0.00    -0.284 N 
ATOM     22  C   UNL     1      16.457 -13.068  14.838  1.00  0.00     0.095 A 
ATOM     23  C   UNL     1      15.062 -11.243  15.637  1.00  0.00     0.255 A 
ATOM     24  C   UNL     1      16.538 -12.542  13.612  1.00  0.00     0.019 A 
ATOM     25  C   UNL     1      15.157 -10.690  14.253  1.00  0.00     0.072 A 
ATOM     26  O   UNL     1      14.433 -10.569  16.453  1.00  0.00    -0.269 OA
ATOM     27  C   UNL     1      15.868 -11.312  13.309  1.00  0.00     0.007 A 
ENDBRANCH  20  21
ENDBRANCH  12  15
ENDBRANCH   3  11
BRANCH   4  28
ATOM     28  N   UNL     1      17.598 -16.663  22.840  1.00  0.00    -0.345 N 
ATOM     29  C   UNL     1      18.048 -15.930  23.917  1.00  0.00     0.261 C 
ATOM     30  O   UNL     1      17.498 -16.040  25.011  1.00  0.00    -0.268 OA
ATOM     31  H   UNL     1      17.983 -16.493  21.915  1.00  0.00     0.164 HD
BRANCH  29  32
ATOM     32  C   UNL     1      19.182 -15.055  23.648  1.00  0.00     0.093 A 
ATOM     33  C   UNL     1      19.379 -14.112  22.649  1.00  0.00     0.027 A 
ATOM     34  S   UNL     1      20.557 -15.137  24.685  1.00  0.00    -0.118 S 
ATOM     35  C   UNL     1      20.652 -13.468  22.742  1.00  0.00     0.033 A 
ATOM     36  C   UNL     1      21.368 -13.945  23.806  1.00  0.00     0.094 A 
ATOM     37  Cl  UNL     1      22.941 -13.450  24.286  1.00  0.00    -0.072 Cl
ENDBRANCH  29  32
ENDBRANCH   4  28
TORSDOF 7
ENDMDL
MODEL 8
REMARK VINA RESULT:    -7.297      3.434      6.189
REMARK INTER + INTRA:         -11.749
REMARK INTER:                  -9.932
REMARK INTRA:                  -1.816
REMARK UNBOUND:                -1.465
REMARK SMILES CCS(=O)(=O)N1C[C@H](NC(=O)c2ccc(-n3ccccc3=O)cc2)[C@H](NC(=O)c2ccc(Cl)s2)C1
REMARK SMILES IDX 6 1 7 2 8 3 25 4 35 5 3 6 4 7 5 8 2 9 1 10 9 11 10 12 11 13
REMARK SMILES IDX 12 15 13 16 24 17 14 18 23 19 15 20 16 21 17 22 21 23 18 24
REMARK SMILES IDX 20 25 22 26 19 27 26 28 27 29 28 30 29 32 30 33 34 34 31 35
REMARK SMILES IDX 32 36 33 37
REMARK H PARENT 9 14 26 31
ROOT
ATOM      1  N   UNL     1      12.802 -12.776  20.346  1.00  0.00    -0.198 NA
ATOM      2  C   UNL     1      12.345 -13.767  21.370  1.00  0.00     0.129 C 
ATOM      3  C   UNL     1      13.065 -15.069  21.009  1.00  0.00     0.121 C 
ATOM      4  C   UNL     1      12.949 -15.039  19.474  1.00  0.00     0.121 C 
ATOM      5  C   UNL     1      13.292 -13.571  19.158  1.00  0.00     0.129 C 
ENDROOT
BRANCH   1   6
ATOM      6  S   UNL     1      13.880 -11.581  20.876  1.00  0.00     0.213 S 
ATOM      7  O   UNL     1      14.770 -11.261  19.782  1.00  0.00    -0.212 OA
ATOM      8  O   UNL     1      14.407 -12.038  22.148  1.00  0.00    -0.212 OA
BRANCH   6   9
ATOM      9  C   UNL     1      12.806 -10.177  21.163  1.00  0.00     0.151 C 
ATOM     10  C   UNL     1      12.164 -10.197  22.535  1.00  0.00     0.022 C 
ENDBRANCH   6   9
ENDBRANCH   1   6
BRANCH   3  11
ATOM     11  N   UNL     1      14.455 -15.060  21.491  1.00  0.00    -0.346 N 
ATOM     12  C   UNL     1      15.165 -16.214  21.724  1.00  0.00     0.251 C 
ATOM     13  O   UNL     1      14.686 -17.327  21.521  1.00  0.00    -0.269 OA
ATOM     14  H   UNL     1      14.896 -14.150  21.635  1.00  0.00     0.164 HD
BRANCH  12  15
ATOM     15  C   UNL     1      16.561 -16.071  22.215  1.00  0.00     0.039 A 
ATOM     16  C   UNL     1      17.515 -15.534  21.348  1.00  0.00     0.016 A 
ATOM     17  C   UNL     1      16.944 -16.416  23.512  1.00  0.00     0.016 A 
ATOM     18  C   UNL     1      18.843 -15.368  21.764  1.00  0.00     0.027 A 
ATOM     19  C   UNL     1      18.275 -16.247  23.922  1.00  0.00     0.027 A 
ATOM     20  C   UNL     1      19.254 -15.722  23.058  1.00  0.00     0.049 A 
BRANCH  20  21
ATOM     21  N   UNL     1      20.627 -15.568  23.496  1.00  0.00    -0.284 N 
ATOM     22  C   UNL     1      21.487 -16.670  23.546  1.00  0.00     0.095 A 
ATOM     23  C   UNL     1      21.104 -14.293  23.890  1.00  0.00     0.255 A 
ATOM     24  C   UNL     1      22.759 -16.578  23.947  1.00  0.00     0.019 A 
ATOM     25  C   UNL     1      22.533 -14.220  24.317  1.00  0.00     0.072 A 
ATOM     26  O   UNL     1      20.461 -13.245  23.950  1.00  0.00    -0.269 OA
ATOM     27  C   UNL     1      23.300 -15.313  24.348  1.00  0.00     0.007 A 
ENDBRANCH  20  21
ENDBRANCH  12  15
ENDBRANCH   3  11
BRANCH   4  28
ATOM     28  N   UNL     1      13.767 -16.033  18.803  1.00  0.00    -0.345 N 
ATOM     29  C   UNL     1      13.223 -17.117  18.149  1.00  0.00     0.261 C 
ATOM     30  O   UNL     1      12.003 -17.252  18.086  1.00  0.00    -0.268 OA
ATOM     31  H   UNL     1      14.772 -15.978  18.946  1.00  0.00     0.164 HD
BRANCH  29  32
ATOM     32  C   UNL     1      14.187 -18.042  17.565  1.00  0.00     0.093 A 
ATOM     33  C   UNL     1      14.033 -19.002  16.575  1.00  0.00     0.027 A 
ATOM     34  S   UNL     1      15.812 -18.020  18.141  1.00  0.00    -0.118 S 
ATOM     35  C   UNL     1      15.244 -19.709  16.298  1.00  0.00     0.033 A 
ATOM     36  C   UNL     1      16.268 -19.257  17.086  1.00  0.00     0.094 A 
ATOM     37  Cl  UNL     1      17.889 -19.824  17.084  1.00  0.00    -0.072 Cl
ENDBRANCH  29  32
ENDBRANCH   4  28
TORSDOF 7
ENDMDL
MODEL 9
REMARK VINA RESULT:    -6.964      3.514      7.995
REMARK INTER + INTRA:         -11.279
REMARK INTER:                  -9.577
REMARK INTRA:                  -1.702
REMARK UNBOUND:                -1.465
REMARK SMILES CCS(=O)(=O)N1C[C@H](NC(=O)c2ccc(-n3ccccc3=O)cc2)[C@H](NC(=O)c2ccc(Cl)s2)C1
REMARK SMILES IDX 6 1 7 2 8 3 25 4 35 5 3 6 4 7 5 8 2 9 1 10 9 11 10 12 11 13
REMARK SMILES IDX 12 15 13 16 24 17 14 18 23 19 15 20 16 21 17 22 21 23 18 24
REMARK SMILES IDX 20 25 22 26 19 27 26 28 27 29 28 30 29 32 30 33 34 34 31 35
REMARK SMILES IDX 32 36 33 37
REMARK H PARENT 9 14 26 31
ROOT
ATOM      1  N   UNL     1      15.825 -11.751  19.960  1.00  0.00    -0.198 NA
ATOM      2  C   UNL     1      16.935 -12.464  19.253  1.00  0.00     0.129 C 
ATOM      3  C   UNL     1      17.416 -13.526  20.246  1.00  0.00     0.121 C 
ATOM      4  C   UNL     1      17.373 -12.725  21.559  1.00  0.00     0.121 C 
ATOM      5  C   UNL     1      16.024 -11.989  21.438  1.00  0.00     0.129 C 
ENDROOT
BRANCH   1   6
ATOM      6  S   UNL     1      14.253 -12.063  19.411  1.00  0.00     0.213 S 
ATOM      7  O   UNL     1      14.058 -13.496  19.394  1.00  0.00    -0.212 OA
ATOM      8  O   UNL     1      14.076 -11.278  18.204  1.00  0.00    -0.212 OA
BRANCH   6   9
ATOM      9  C   UNL     1      13.233 -11.368  20.710  1.00  0.00     0.151 C 
ATOM     10  C   UNL     1      12.405 -12.411  21.431  1.00  0.00     0.022 C 
ENDBRANCH   6   9
ENDBRANCH   1   6
BRANCH   3  11
ATOM     11  N   UNL     1      16.527 -14.697  20.245  1.00  0.00    -0.346 N 
ATOM     12  C   UNL     1      16.954 -15.952  20.611  1.00  0.00     0.251 C 
ATOM     13  O   UNL     1      18.105 -16.165  20.986  1.00  0.00    -0.269 OA
ATOM     14  H   UNL     1      15.554 -14.548  19.974  1.00  0.00     0.164 HD
BRANCH  12  15
ATOM     15  C   UNL     1      15.959 -17.055  20.564  1.00  0.00     0.039 A 
ATOM     16  C   UNL     1      14.611 -16.738  20.738  1.00  0.00     0.016 A 
ATOM     17  C   UNL     1      16.315 -18.382  20.316  1.00  0.00     0.016 A 
ATOM     18  C   UNL     1      13.632 -17.740  20.692  1.00  0.00     0.027 A 
ATOM     19  C   UNL     1      15.330 -19.380  20.270  1.00  0.00     0.027 A 
ATOM     20  C   UNL     1      13.967 -19.082  20.458  1.00  0.00     0.049 A 
BRANCH  20  21
ATOM     21  N   UNL     1      12.966 -20.129  20.422  1.00  0.00    -0.284 N 
ATOM     22  C   UNL     1      12.177 -20.322  19.283  1.00  0.00     0.095 A 
ATOM     23  C   UNL     1      12.772 -20.960  21.553  1.00  0.00     0.255 A 
ATOM     24  C   UNL     1      11.239 -21.270  19.203  1.00  0.00     0.019 A 
ATOM     25  C   UNL     1      11.728 -22.021  21.427  1.00  0.00     0.072 A 
ATOM     26  O   UNL     1      13.347 -20.884  22.639  1.00  0.00    -0.269 OA
ATOM     27  C   UNL     1      11.004 -22.148  20.312  1.00  0.00     0.007 A 
ENDBRANCH  20  21
ENDBRANCH  12  15
ENDBRANCH   3  11
BRANCH   4  28
ATOM     28  N   UNL     1      17.539 -13.538  22.750  1.00  0.00    -0.345 N 
ATOM     29  C   UNL     1      18.778 -13.839  23.272  1.00  0.00     0.261 C 
ATOM     30  O   UNL     1      19.794 -13.386  22.750  1.00  0.00    -0.268 OA
ATOM     31  H   UNL     1      16.709 -13.998  23.116  1.00  0.00     0.164 HD
BRANCH  29  32
ATOM     32  C   UNL     1      18.769 -14.704  24.446  1.00  0.00     0.093 A 
ATOM     33  C   UNL     1      19.123 -14.444  25.762  1.00  0.00     0.027 A 
ATOM     34  S   UNL     1      18.254 -16.340  24.267  1.00  0.00    -0.118 S 
ATOM     35  C   UNL     1      18.971 -15.585  26.610  1.00  0.00     0.033 A 
ATOM     36  C   UNL     1      18.506 -16.662  25.906  1.00  0.00     0.094 A 
ATOM     37  Cl  UNL     1      18.179 -18.229  26.528  1.00  0.00    -0.072 Cl
ENDBRANCH  29  32
ENDBRANCH   4  28
TORSDOF 7
ENDMDL
