MODEL 1
REMARK VINA RESULT:   -10.362      0.000      0.000
REMARK INTER + INTRA:         -14.230
REMARK INTER:                 -13.694
REMARK INTRA:                  -0.536
REMARK UNBOUND:                -0.536
REMARK SMILES Cn1cc(-c2cc(-c3cnn([C@]4(CC#N)C[C@@H](C#N)C4)n3)c3cccnc3c2)c(CO)n1
REMARK SMILES IDX 5 1 6 2 7 3 22 4 23 5 24 6 25 7 26 8 27 9 28 10 4 11 2 12
REMARK SMILES IDX 3 13 32 14 29 15 1 16 30 17 31 18 8 20 9 21 21 22 10 23
REMARK SMILES IDX 11 24 12 25 16 26 20 27 17 28 18 29 19 30 13 31 14 32 15 33
REMARK H PARENT 31 19
ROOT
ATOM      1  C   UNL     1       6.462 -26.318  23.248  1.00  0.00    -0.012 A 
ATOM      2  C   UNL     1       6.186 -25.112  22.606  1.00  0.00     0.020 A 
ATOM      3  C   UNL     1       5.028 -24.968  21.824  1.00  0.00     0.014 A 
ATOM      4  C   UNL     1       4.135 -26.065  21.662  1.00  0.00     0.010 A 
ATOM      5  C   UNL     1       2.967 -26.055  20.860  1.00  0.00     0.012 A 
ATOM      6  C   UNL     1       2.154 -27.178  20.769  1.00  0.00     0.021 A 
ATOM      7  C   UNL     1       2.527 -28.300  21.476  1.00  0.00     0.112 A 
ATOM      8  N   UNL     1       3.638 -28.366  22.239  1.00  0.00    -0.256 NA
ATOM      9  C   UNL     1       4.423 -27.281  22.324  1.00  0.00     0.071 A 
ATOM     10  C   UNL     1       5.571 -27.383  23.096  1.00  0.00     0.037 A 
ENDROOT
BRANCH   1  11
ATOM     11  C   UNL     1       7.650 -26.464  24.064  1.00  0.00     0.025 A 
ATOM     12  N   UNL     1       9.108 -27.321  25.465  1.00  0.00    -0.275 N 
ATOM     13  C   UNL     1       7.903 -27.554  24.873  1.00  0.00     0.117 A 
ATOM     14  N   UNL     1       9.669 -26.152  25.104  1.00  0.00    -0.175 NA
ATOM     15  C   UNL     1       8.785 -25.624  24.238  1.00  0.00     0.096 A 
ATOM     16  C   UNL     1       9.796 -28.178  26.401  1.00  0.00     0.173 C 
BRANCH  15  17
ATOM     17  C   UNL     1       9.096 -24.315  23.578  1.00  0.00     0.214 C 
BRANCH  17  18
ATOM     18  O   UNL     1       9.549 -24.487  22.231  1.00  0.00    -0.390 OA
ATOM     19  H   UNL     1      10.067 -25.320  22.267  1.00  0.00     0.211 HD
ENDBRANCH  17  18
ENDBRANCH  15  17
ENDBRANCH   1  11
BRANCH   3  20
ATOM     20  C   UNL     1       4.791 -23.667  21.213  1.00  0.00     0.113 A 
ATOM     21  C   UNL     1       4.519 -23.346  19.866  1.00  0.00     0.166 A 
ATOM     22  N   UNL     1       4.768 -22.533  21.929  1.00  0.00    -0.153 NA
ATOM     23  N   UNL     1       4.362 -22.028  19.724  1.00  0.00    -0.161 NA
ATOM     24  N   UNL     1       4.485 -21.602  20.998  1.00  0.00    -0.177 N 
BRANCH  24  25
ATOM     25  C   UNL     1       4.363 -20.146  21.329  1.00  0.00     0.098 C 
ATOM     26  C   UNL     1       5.369 -19.643  22.411  1.00  0.00     0.052 C 
ATOM     27  C   UNL     1       5.174 -19.286  20.309  1.00  0.00     0.052 C 
ATOM     28  C   UNL     1       6.384 -19.346  21.278  1.00  0.00     0.097 C 
ATOM     29  C   UNL     1       7.136 -18.119  21.415  1.00  0.00     0.066 C 
ATOM     30  N   UNL     1       7.722 -17.123  21.522  1.00  0.00    -0.198 NA
BRANCH  25  31
ATOM     31  C   UNL     1       2.901 -19.755  21.528  1.00  0.00     0.152 C 
ATOM     32  C   UNL     1       2.378 -19.005  20.377  1.00  0.00     0.065 C 
ATOM     33  N   UNL     1       1.976 -18.423  19.458  1.00  0.00    -0.198 NA
ENDBRANCH  25  31
ENDBRANCH  24  25
ENDBRANCH   3  20
TORSDOF 6
ENDMDL
MODEL 2
REMARK VINA RESULT:   -10.174      0.568      2.267
REMARK INTER + INTRA:         -13.982
REMARK INTER:                 -13.577
REMARK INTRA:                  -0.405
REMARK UNBOUND:                -0.536
REMARK SMILES Cn1cc(-c2cc(-c3cnn([C@]4(CC#N)C[C@@H](C#N)C4)n3)c3cccnc3c2)c(CO)n1
REMARK SMILES IDX 5 1 6 2 7 3 22 4 23 5 24 6 25 7 26 8 27 9 28 10 4 11 2 12
REMARK SMILES IDX 3 13 32 14 29 15 1 16 30 17 31 18 8 20 9 21 21 22 10 23
REMARK SMILES IDX 11 24 12 25 16 26 20 27 17 28 18 29 19 30 13 31 14 32 15 33
REMARK H PARENT 31 19
ROOT
ATOM      1  C   UNL     1       6.505 -26.246  23.263  1.00  0.00    -0.012 A 
ATOM      2  C   UNL     1       6.279 -25.029  22.624  1.00  0.00     0.020 A 
ATOM      3  C   UNL     1       5.131 -24.838  21.838  1.00  0.00     0.014 A 
ATOM      4  C   UNL     1       4.198 -25.900  21.668  1.00  0.00     0.010 A 
ATOM      5  C   UNL     1       3.035 -25.842  20.860  1.00  0.00     0.012 A 
ATOM      6  C   UNL     1       2.180 -26.933  20.761  1.00  0.00     0.021 A 
ATOM      7  C   UNL     1       2.507 -28.071  21.465  1.00  0.00     0.112 A 
ATOM      8  N   UNL     1       3.611 -28.182  22.232  1.00  0.00    -0.256 NA
ATOM      9  C   UNL     1       4.436 -27.128  22.325  1.00  0.00     0.071 A 
ATOM     10  C   UNL     1       5.575 -27.276  23.103  1.00  0.00     0.037 A 
ENDROOT
BRANCH   1  11
ATOM     11  C   UNL     1       7.683 -26.441  24.084  1.00  0.00     0.025 A 
ATOM     12  N   UNL     1       9.104 -27.361  25.483  1.00  0.00    -0.275 N 
ATOM     13  C   UNL     1       7.895 -27.547  24.882  1.00  0.00     0.117 A 
ATOM     14  N   UNL     1       9.706 -26.207  25.138  1.00  0.00    -0.175 NA
ATOM     15  C   UNL     1       8.844 -25.641  24.273  1.00  0.00     0.096 A 
ATOM     16  C   UNL     1       9.757 -28.250  26.414  1.00  0.00     0.173 C 
BRANCH  15  17
ATOM     17  C   UNL     1       9.202 -24.336  23.629  1.00  0.00     0.214 C 
BRANCH  17  18
ATOM     18  O   UNL     1       9.569 -24.498  22.254  1.00  0.00    -0.390 OA
ATOM     19  H   UNL     1      10.496 -24.181  22.224  1.00  0.00     0.211 HD
ENDBRANCH  17  18
ENDBRANCH  15  17
ENDBRANCH   1  11
BRANCH   3  20
ATOM     20  C   UNL     1       4.946 -23.526  21.231  1.00  0.00     0.113 A 
ATOM     21  C   UNL     1       4.906 -23.168  19.867  1.00  0.00     0.166 A 
ATOM     22  N   UNL     1       4.741 -22.421  21.963  1.00  0.00    -0.153 NA
ATOM     23  N   UNL     1       4.715 -21.853  19.736  1.00  0.00    -0.161 NA
ATOM     24  N   UNL     1       4.586 -21.469  21.023  1.00  0.00    -0.177 N 
BRANCH  24  25
ATOM     25  C   UNL     1       4.337 -20.033  21.367  1.00  0.00     0.098 C 
ATOM     26  C   UNL     1       4.414 -19.056  20.152  1.00  0.00     0.052 C 
ATOM     27  C   UNL     1       2.804 -19.736  21.389  1.00  0.00     0.052 C 
ATOM     28  C   UNL     1       2.904 -19.304  19.902  1.00  0.00     0.097 C 
ATOM     29  C   UNL     1       2.129 -18.140  19.536  1.00  0.00     0.066 C 
ATOM     30  N   UNL     1       1.510 -17.198  19.262  1.00  0.00    -0.198 NA
BRANCH  25  31
ATOM     31  C   UNL     1       5.120 -19.628  22.613  1.00  0.00     0.152 C 
ATOM     32  C   UNL     1       6.476 -19.170  22.278  1.00  0.00     0.065 C 
ATOM     33  N   UNL     1       7.539 -18.802  21.997  1.00  0.00    -0.198 NA
ENDBRANCH  25  31
ENDBRANCH  24  25
ENDBRANCH   3  20
TORSDOF 6
ENDMDL
MODEL 3
REMARK VINA RESULT:    -9.784      2.412      8.240
REMARK INTER + INTRA:         -13.467
REMARK INTER:                 -12.791
REMARK INTRA:                  -0.675
REMARK UNBOUND:                -0.536
REMARK SMILES Cn1cc(-c2cc(-c3cnn([C@]4(CC#N)C[C@@H](C#N)C4)n3)c3cccnc3c2)c(CO)n1
REMARK SMILES IDX 5 1 6 2 7 3 22 4 23 5 24 6 25 7 26 8 27 9 28 10 4 11 2 12
REMARK SMILES IDX 3 13 32 14 29 15 1 16 30 17 31 18 8 20 9 21 21 22 10 23
REMARK SMILES IDX 11 24 12 25 16 26 20 27 17 28 18 29 19 30 13 31 14 32 15 33
REMARK H PARENT 31 19
ROOT
ATOM      1  C   UNL     1       5.600 -23.779  22.294  1.00  0.00    -0.012 A 
ATOM      2  C   UNL     1       6.813 -23.989  22.948  1.00  0.00     0.020 A 
ATOM      3  C   UNL     1       7.177 -25.274  23.382  1.00  0.00     0.014 A 
ATOM      4  C   UNL     1       6.295 -26.373  23.177  1.00  0.00     0.010 A 
ATOM      5  C   UNL     1       6.531 -27.700  23.615  1.00  0.00     0.012 A 
ATOM      6  C   UNL     1       5.609 -28.709  23.362  1.00  0.00     0.021 A 
ATOM      7  C   UNL     1       4.459 -28.372  22.683  1.00  0.00     0.112 A 
ATOM      8  N   UNL     1       4.180 -27.122  22.261  1.00  0.00    -0.256 NA
ATOM      9  C   UNL     1       5.071 -26.148  22.508  1.00  0.00     0.071 A 
ATOM     10  C   UNL     1       4.750 -24.867  22.084  1.00  0.00     0.037 A 
ENDROOT
BRANCH   1  11
ATOM     11  C   UNL     1       5.228 -22.456  21.836  1.00  0.00     0.025 A 
ATOM     12  N   UNL     1       4.822 -20.298  21.847  1.00  0.00    -0.275 N 
ATOM     13  C   UNL     1       5.221 -21.334  22.638  1.00  0.00     0.117 A 
ATOM     14  N   UNL     1       4.565 -20.659  20.576  1.00  0.00    -0.175 NA
ATOM     15  C   UNL     1       4.820 -21.980  20.559  1.00  0.00     0.096 A 
ATOM     16  C   UNL     1       4.659 -18.919  22.239  1.00  0.00     0.173 C 
BRANCH  15  17
ATOM     17  C   UNL     1       4.684 -22.737  19.272  1.00  0.00     0.214 C 
BRANCH  17  18
ATOM     18  O   UNL     1       5.949 -22.951  18.638  1.00  0.00    -0.390 OA
ATOM     19  H   UNL     1       5.750 -22.841  17.684  1.00  0.00     0.211 HD
ENDBRANCH  17  18
ENDBRANCH  15  17
ENDBRANCH   1  11
BRANCH   3  20
ATOM     20  C   UNL     1       8.476 -25.420  24.026  1.00  0.00     0.113 A 
ATOM     21  C   UNL     1       9.740 -24.956  23.607  1.00  0.00     0.166 A 
ATOM     22  N   UNL     1       8.624 -26.033  25.210  1.00  0.00    -0.153 NA
ATOM     23  N   UNL     1      10.680 -25.301  24.490  1.00  0.00    -0.161 NA
ATOM     24  N   UNL     1       9.944 -25.909  25.444  1.00  0.00    -0.177 N 
BRANCH  24  25
ATOM     25  C   UNL     1      10.598 -26.461  26.673  1.00  0.00     0.098 C 
ATOM     26  C   UNL     1      12.058 -25.959  26.907  1.00  0.00     0.052 C 
ATOM     27  C   UNL     1      10.205 -25.615  27.926  1.00  0.00     0.052 C 
ATOM     28  C   UNL     1      11.479 -24.758  27.701  1.00  0.00     0.097 C 
ATOM     29  C   UNL     1      12.203 -24.389  28.896  1.00  0.00     0.066 C 
ATOM     30  N   UNL     1      12.778 -24.111  29.865  1.00  0.00    -0.198 NA
BRANCH  25  31
ATOM     31  C   UNL     1      10.374 -27.966  26.779  1.00  0.00     0.152 C 
ATOM     32  C   UNL     1      11.071 -28.539  27.940  1.00  0.00     0.065 C 
ATOM     33  N   UNL     1      11.617 -28.975  28.865  1.00  0.00    -0.198 NA
ENDBRANCH  25  31
ENDBRANCH  24  25
ENDBRANCH   3  20
TORSDOF 6
ENDMDL
MODEL 4
REMARK VINA RESULT:    -9.750      2.615      5.787
REMARK INTER + INTRA:         -13.421
REMARK INTER:                 -12.606
REMARK INTRA:                  -0.814
REMARK UNBOUND:                -0.536
REMARK SMILES Cn1cc(-c2cc(-c3cnn([C@]4(CC#N)C[C@@H](C#N)C4)n3)c3cccnc3c2)c(CO)n1
REMARK SMILES IDX 5 1 6 2 7 3 22 4 23 5 24 6 25 7 26 8 27 9 28 10 4 11 2 12
REMARK SMILES IDX 3 13 32 14 29 15 1 16 30 17 31 18 8 20 9 21 21 22 10 23
REMARK SMILES IDX 11 24 12 25 16 26 20 27 17 28 18 29 19 30 13 31 14 32 15 33
REMARK H PARENT 31 19
ROOT
ATOM      1  C   UNL     1       5.730 -23.683  21.616  1.00  0.00    -0.012 A 
ATOM      2  C   UNL     1       5.070 -22.456  21.651  1.00  0.00     0.020 A 
ATOM      3  C   UNL     1       5.785 -21.257  21.498  1.00  0.00     0.014 A 
ATOM      4  C   UNL     1       7.198 -21.285  21.330  1.00  0.00     0.010 A 
ATOM      5  C   UNL     1       8.029 -20.142  21.218  1.00  0.00     0.012 A 
ATOM      6  C   UNL     1       9.402 -20.272  21.050  1.00  0.00     0.021 A 
ATOM      7  C   UNL     1       9.926 -21.546  21.007  1.00  0.00     0.112 A 
ATOM      8  N   UNL     1       9.181 -22.664  21.127  1.00  0.00    -0.256 NA
ATOM      9  C   UNL     1       7.855 -22.536  21.290  1.00  0.00     0.071 A 
ATOM     10  C   UNL     1       7.115 -23.700  21.433  1.00  0.00     0.037 A 
ENDROOT
BRANCH   1  11
ATOM     11  C   UNL     1       4.992 -24.922  21.762  1.00  0.00     0.025 A 
ATOM     12  N   UNL     1       3.436 -26.449  21.502  1.00  0.00    -0.275 N 
ATOM     13  C   UNL     1       3.808 -25.198  21.110  1.00  0.00     0.117 A 
ATOM     14  N   UNL     1       4.294 -27.020  22.367  1.00  0.00    -0.175 NA
ATOM     15  C   UNL     1       5.256 -26.092  22.526  1.00  0.00     0.096 A 
ATOM     16  C   UNL     1       2.259 -27.174  21.089  1.00  0.00     0.173 C 
BRANCH  15  17
ATOM     17  C   UNL     1       6.432 -26.397  23.405  1.00  0.00     0.214 C 
BRANCH  17  18
ATOM     18  O   UNL     1       6.866 -27.754  23.270  1.00  0.00    -0.390 OA
ATOM     19  H   UNL     1       6.753 -28.122  24.172  1.00  0.00     0.211 HD
ENDBRANCH  17  18
ENDBRANCH  15  17
ENDBRANCH   1  11
BRANCH   3  20
ATOM     20  C   UNL     1       5.021 -20.016  21.511  1.00  0.00     0.113 A 
ATOM     21  C   UNL     1       4.552 -19.264  22.608  1.00  0.00     0.166 A 
ATOM     22  N   UNL     1       4.676 -19.376  20.383  1.00  0.00    -0.153 NA
ATOM     23  N   UNL     1       3.891 -18.184  22.184  1.00  0.00    -0.161 NA
ATOM     24  N   UNL     1       4.033 -18.288  20.847  1.00  0.00    -0.177 N 
BRANCH  24  25
ATOM     25  C   UNL     1       3.444 -17.254  19.937  1.00  0.00     0.098 C 
ATOM     26  C   UNL     1       2.180 -17.729  19.153  1.00  0.00     0.052 C 
ATOM     27  C   UNL     1       2.483 -16.313  20.732  1.00  0.00     0.052 C 
ATOM     28  C   UNL     1       1.306 -17.246  20.340  1.00  0.00     0.097 C 
ATOM     29  C   UNL     1       0.074 -16.581  19.982  1.00  0.00     0.066 C 
ATOM     30  N   UNL     1      -0.904 -16.030  19.687  1.00  0.00    -0.198 NA
BRANCH  25  31
ATOM     31  C   UNL     1       4.532 -16.568  19.117  1.00  0.00     0.152 C 
ATOM     32  C   UNL     1       3.982 -15.503  18.266  1.00  0.00     0.065 C 
ATOM     33  N   UNL     1       3.535 -14.659  17.608  1.00  0.00    -0.198 NA
ENDBRANCH  25  31
ENDBRANCH  24  25
ENDBRANCH   3  20
TORSDOF 6
ENDMDL
MODEL 5
REMARK VINA RESULT:    -9.740      2.533      5.263
REMARK INTER + INTRA:         -13.408
REMARK INTER:                 -12.509
REMARK INTRA:                  -0.899
REMARK UNBOUND:                -0.536
REMARK SMILES Cn1cc(-c2cc(-c3cnn([C@]4(CC#N)C[C@@H](C#N)C4)n3)c3cccnc3c2)c(CO)n1
REMARK SMILES IDX 5 1 6 2 7 3 22 4 23 5 24 6 25 7 26 8 27 9 28 10 4 11 2 12
REMARK SMILES IDX 3 13 32 14 29 15 1 16 30 17 31 18 8 20 9 21 21 22 10 23
REMARK SMILES IDX 11 24 12 25 16 26 20 27 17 28 18 29 19 30 13 31 14 32 15 33
REMARK H PARENT 31 19
ROOT
ATOM      1  C   UNL     1       5.617 -24.017  21.691  1.00  0.00    -0.012 A 
ATOM      2  C   UNL     1       4.936 -22.805  21.784  1.00  0.00     0.020 A 
ATOM      3  C   UNL     1       5.620 -21.588  21.627  1.00  0.00     0.014 A 
ATOM      4  C   UNL     1       7.024 -21.583  21.393  1.00  0.00     0.010 A 
ATOM      5  C   UNL     1       7.826 -20.421  21.270  1.00  0.00     0.012 A 
ATOM      6  C   UNL     1       9.192 -20.519  21.036  1.00  0.00     0.021 A 
ATOM      7  C   UNL     1       9.738 -21.781  20.940  1.00  0.00     0.112 A 
ATOM      8  N   UNL     1       9.022 -22.916  21.068  1.00  0.00    -0.256 NA
ATOM      9  C   UNL     1       7.702 -22.819  21.295  1.00  0.00     0.071 A 
ATOM     10  C   UNL     1       6.992 -24.001  21.445  1.00  0.00     0.037 A 
ENDROOT
BRANCH   1  11
ATOM     11  C   UNL     1       4.912 -25.274  21.842  1.00  0.00     0.025 A 
ATOM     12  N   UNL     1       3.385 -26.834  21.602  1.00  0.00    -0.275 N 
ATOM     13  C   UNL     1       3.720 -25.571  21.214  1.00  0.00     0.117 A 
ATOM     14  N   UNL     1       4.275 -27.392  22.444  1.00  0.00    -0.175 NA
ATOM     15  C   UNL     1       5.219 -26.444  22.590  1.00  0.00     0.096 A 
ATOM     16  C   UNL     1       2.216 -27.583  21.209  1.00  0.00     0.173 C 
BRANCH  15  17
ATOM     17  C   UNL     1       6.420 -26.728  23.440  1.00  0.00     0.214 C 
BRANCH  17  18
ATOM     18  O   UNL     1       6.785 -28.112  23.409  1.00  0.00    -0.390 OA
ATOM     19  H   UNL     1       6.180 -28.524  24.062  1.00  0.00     0.211 HD
ENDBRANCH  17  18
ENDBRANCH  15  17
ENDBRANCH   1  11
BRANCH   3  20
ATOM     20  C   UNL     1       4.832 -20.364  21.703  1.00  0.00     0.113 A 
ATOM     21  C   UNL     1       4.513 -19.573  22.826  1.00  0.00     0.166 A 
ATOM     22  N   UNL     1       4.306 -19.782  20.615  1.00  0.00    -0.153 NA
ATOM     23  N   UNL     1       3.767 -18.527  22.463  1.00  0.00    -0.161 NA
ATOM     24  N   UNL     1       3.710 -18.688  21.125  1.00  0.00    -0.177 N 
BRANCH  24  25
ATOM     25  C   UNL     1       2.963 -17.708  20.272  1.00  0.00     0.098 C 
ATOM     26  C   UNL     1       3.671 -16.326  20.108  1.00  0.00     0.052 C 
ATOM     27  C   UNL     1       3.283 -17.946  18.762  1.00  0.00     0.052 C 
ATOM     28  C   UNL     1       4.420 -16.896  18.875  1.00  0.00     0.097 C 
ATOM     29  C   UNL     1       4.554 -15.996  17.752  1.00  0.00     0.066 C 
ATOM     30  N   UNL     1       4.641 -15.275  16.847  1.00  0.00    -0.198 NA
BRANCH  25  31
ATOM     31  C   UNL     1       1.486 -17.672  20.651  1.00  0.00     0.152 C 
ATOM     32  C   UNL     1       0.704 -16.857  19.710  1.00  0.00     0.065 C 
ATOM     33  N   UNL     1       0.098 -16.220  18.954  1.00  0.00    -0.198 NA
ENDBRANCH  25  31
ENDBRANCH  24  25
ENDBRANCH   3  20
TORSDOF 6
ENDMDL
MODEL 6
REMARK VINA RESULT:    -9.703      2.353      8.106
REMARK INTER + INTRA:         -13.359
REMARK INTER:                 -12.833
REMARK INTRA:                  -0.527
REMARK UNBOUND:                -0.536
REMARK SMILES Cn1cc(-c2cc(-c3cnn([C@]4(CC#N)C[C@@H](C#N)C4)n3)c3cccnc3c2)c(CO)n1
REMARK SMILES IDX 5 1 6 2 7 3 22 4 23 5 24 6 25 7 26 8 27 9 28 10 4 11 2 12
REMARK SMILES IDX 3 13 32 14 29 15 1 16 30 17 31 18 8 20 9 21 21 22 10 23
REMARK SMILES IDX 11 24 12 25 16 26 20 27 17 28 18 29 19 30 13 31 14 32 15 33
REMARK H PARENT 31 19
ROOT
ATOM      1  C   UNL     1       6.140 -24.020  22.531  1.00  0.00    -0.012 A 
ATOM      2  C   UNL     1       7.021 -24.698  23.371  1.00  0.00     0.020 A 
ATOM      3  C   UNL     1       6.840 -26.064  23.643  1.00  0.00     0.014 A 
ATOM      4  C   UNL     1       5.737 -26.764  23.077  1.00  0.00     0.010 A 
ATOM      5  C   UNL     1       5.424 -28.125  23.319  1.00  0.00     0.012 A 
ATOM      6  C   UNL     1       4.325 -28.723  22.714  1.00  0.00     0.021 A 
ATOM      7  C   UNL     1       3.547 -27.945  21.883  1.00  0.00     0.112 A 
ATOM      8  N   UNL     1       3.792 -26.642  21.636  1.00  0.00    -0.256 NA
ATOM      9  C   UNL     1       4.853 -26.066  22.222  1.00  0.00     0.071 A 
ATOM     10  C   UNL     1       5.070 -24.720  21.968  1.00  0.00     0.037 A 
ENDROOT
BRANCH   1  11
ATOM     11  C   UNL     1       6.331 -22.613  22.241  1.00  0.00     0.025 A 
ATOM     12  N   UNL     1       5.961 -20.452  22.132  1.00  0.00    -0.275 N 
ATOM     13  C   UNL     1       5.420 -21.628  22.559  1.00  0.00     0.117 A 
ATOM     14  N   UNL     1       7.168 -20.593  21.554  1.00  0.00    -0.175 NA
ATOM     15  C   UNL     1       7.406 -21.915  21.624  1.00  0.00     0.096 A 
ATOM     16  C   UNL     1       5.376 -19.137  22.241  1.00  0.00     0.173 C 
BRANCH  15  17
ATOM     17  C   UNL     1       8.705 -22.455  21.107  1.00  0.00     0.214 C 
BRANCH  17  18
ATOM     18  O   UNL     1       9.663 -22.643  22.155  1.00  0.00    -0.390 OA
ATOM     19  H   UNL     1       9.304 -22.107  22.894  1.00  0.00     0.211 HD
ENDBRANCH  17  18
ENDBRANCH  15  17
ENDBRANCH   1  11
BRANCH   3  20
ATOM     20  C   UNL     1       7.822 -26.711  24.503  1.00  0.00     0.113 A 
ATOM     21  C   UNL     1       7.929 -28.067  24.879  1.00  0.00     0.166 A 
ATOM     22  N   UNL     1       8.845 -26.040  25.053  1.00  0.00    -0.153 NA
ATOM     23  N   UNL     1       8.979 -28.246  25.683  1.00  0.00    -0.161 NA
ATOM     24  N   UNL     1       9.507 -27.005  25.718  1.00  0.00    -0.177 N 
BRANCH  24  25
ATOM     25  C   UNL     1      10.746 -26.728  26.514  1.00  0.00     0.098 C 
ATOM     26  C   UNL     1      11.662 -27.973  26.735  1.00  0.00     0.052 C 
ATOM     27  C   UNL     1      11.877 -26.178  25.587  1.00  0.00     0.052 C 
ATOM     28  C   UNL     1      12.386 -27.632  25.407  1.00  0.00     0.097 C 
ATOM     29  C   UNL     1      13.822 -27.798  25.414  1.00  0.00     0.066 C 
ATOM     30  N   UNL     1      14.976 -27.914  25.434  1.00  0.00    -0.198 NA
BRANCH  25  31
ATOM     31  C   UNL     1      10.423 -25.895  27.750  1.00  0.00     0.152 C 
ATOM     32  C   UNL     1      11.631 -25.593  28.532  1.00  0.00     0.065 C 
ATOM     33  N   UNL     1      12.593 -25.353  29.133  1.00  0.00    -0.198 NA
ENDBRANCH  25  31
ENDBRANCH  24  25
ENDBRANCH   3  20
TORSDOF 6
ENDMDL
MODEL 7
REMARK VINA RESULT:    -9.693      2.294      8.281
REMARK INTER + INTRA:         -13.346
REMARK INTER:                 -12.810
REMARK INTRA:                  -0.535
REMARK UNBOUND:                -0.536
REMARK SMILES Cn1cc(-c2cc(-c3cnn([C@]4(CC#N)C[C@@H](C#N)C4)n3)c3cccnc3c2)c(CO)n1
REMARK SMILES IDX 5 1 6 2 7 3 22 4 23 5 24 6 25 7 26 8 27 9 28 10 4 11 2 12
REMARK SMILES IDX 3 13 32 14 29 15 1 16 30 17 31 18 8 20 9 21 21 22 10 23
REMARK SMILES IDX 11 24 12 25 16 26 20 27 17 28 18 29 19 30 13 31 14 32 15 33
REMARK H PARENT 31 19
ROOT
ATOM      1  C   UNL     1       5.594 -23.735  22.282  1.00  0.00    -0.012 A 
ATOM      2  C   UNL     1       6.808 -23.892  22.947  1.00  0.00     0.020 A 
ATOM      3  C   UNL     1       7.209 -25.156  23.412  1.00  0.00     0.014 A 
ATOM      4  C   UNL     1       6.363 -26.286  23.227  1.00  0.00     0.010 A 
ATOM      5  C   UNL     1       6.636 -27.595  23.696  1.00  0.00     0.012 A 
ATOM      6  C   UNL     1       5.747 -28.637  23.460  1.00  0.00     0.021 A 
ATOM      7  C   UNL     1       4.591 -28.351  22.767  1.00  0.00     0.112 A 
ATOM      8  N   UNL     1       4.277 -27.119  22.316  1.00  0.00    -0.256 NA
ATOM      9  C   UNL     1       5.136 -26.114  22.546  1.00  0.00     0.071 A 
ATOM     10  C   UNL     1       4.778 -24.853  22.092  1.00  0.00     0.037 A 
ENDROOT
BRANCH   1  11
ATOM     11  C   UNL     1       5.184 -22.434  21.792  1.00  0.00     0.025 A 
ATOM     12  N   UNL     1       4.722 -20.288  21.750  1.00  0.00    -0.275 N 
ATOM     13  C   UNL     1       5.153 -21.292  22.565  1.00  0.00     0.117 A 
ATOM     14  N   UNL     1       4.466 -20.688  20.491  1.00  0.00    -0.175 NA
ATOM     15  C   UNL     1       4.755 -22.003  20.507  1.00  0.00     0.096 A 
ATOM     16  C   UNL     1       4.526 -18.903  22.107  1.00  0.00     0.173 C 
BRANCH  15  17
ATOM     17  C   UNL     1       4.629 -22.796  19.241  1.00  0.00     0.214 C 
BRANCH  17  18
ATOM     18  O   UNL     1       5.892 -22.973  18.590  1.00  0.00    -0.390 OA
ATOM     19  H   UNL     1       5.646 -23.250  17.682  1.00  0.00     0.211 HD
ENDBRANCH  17  18
ENDBRANCH  15  17
ENDBRANCH   1  11
BRANCH   3  20
ATOM     20  C   UNL     1       8.508 -25.247  24.066  1.00  0.00     0.113 A 
ATOM     21  C   UNL     1       9.688 -24.516  23.818  1.00  0.00     0.166 A 
ATOM     22  N   UNL     1       8.738 -26.084  25.089  1.00  0.00    -0.153 NA
ATOM     23  N   UNL     1      10.661 -24.907  24.645  1.00  0.00    -0.161 NA
ATOM     24  N   UNL     1      10.019 -25.819  25.404  1.00  0.00    -0.177 N 
BRANCH  24  25
ATOM     25  C   UNL     1      10.739 -26.531  26.508  1.00  0.00     0.098 C 
ATOM     26  C   UNL     1      10.920 -28.064  26.277  1.00  0.00     0.052 C 
ATOM     27  C   UNL     1      12.285 -26.414  26.315  1.00  0.00     0.052 C 
ATOM     28  C   UNL     1      12.253 -27.760  25.544  1.00  0.00     0.097 C 
ATOM     29  C   UNL     1      13.343 -28.667  25.824  1.00  0.00     0.066 C 
ATOM     30  N   UNL     1      14.220 -29.387  26.069  1.00  0.00    -0.198 NA
BRANCH  25  31
ATOM     31  C   UNL     1      10.197 -26.110  27.871  1.00  0.00     0.152 C 
ATOM     32  C   UNL     1      10.815 -24.862  28.340  1.00  0.00     0.065 C 
ATOM     33  N   UNL     1      11.303 -23.871  28.692  1.00  0.00    -0.198 NA
ENDBRANCH  25  31
ENDBRANCH  24  25
ENDBRANCH   3  20
TORSDOF 6
ENDMDL
MODEL 8
REMARK VINA RESULT:    -9.464      2.419      8.030
REMARK INTER + INTRA:         -13.044
REMARK INTER:                 -12.680
REMARK INTRA:                  -0.363
REMARK UNBOUND:                -0.536
REMARK SMILES Cn1cc(-c2cc(-c3cnn([C@]4(CC#N)C[C@@H](C#N)C4)n3)c3cccnc3c2)c(CO)n1
REMARK SMILES IDX 5 1 6 2 7 3 22 4 23 5 24 6 25 7 26 8 27 9 28 10 4 11 2 12
REMARK SMILES IDX 3 13 32 14 29 15 1 16 30 17 31 18 8 20 9 21 21 22 10 23
REMARK SMILES IDX 11 24 12 25 16 26 20 27 17 28 18 29 19 30 13 31 14 32 15 33
REMARK H PARENT 31 19
ROOT
ATOM      1  C   UNL     1       6.112 -23.819  22.580  1.00  0.00    -0.012 A 
ATOM      2  C   UNL     1       7.015 -24.529  23.369  1.00  0.00     0.020 A 
ATOM      3  C   UNL     1       6.842 -25.907  23.587  1.00  0.00     0.014 A 
ATOM      4  C   UNL     1       5.726 -26.584  23.021  1.00  0.00     0.010 A 
ATOM      5  C   UNL     1       5.421 -27.955  23.213  1.00  0.00     0.012 A 
ATOM      6  C   UNL     1       4.308 -28.529  22.611  1.00  0.00     0.021 A 
ATOM      7  C   UNL     1       3.509 -27.719  21.833  1.00  0.00     0.112 A 
ATOM      8  N   UNL     1       3.746 -26.407  21.635  1.00  0.00    -0.256 NA
ATOM      9  C   UNL     1       4.821 -25.853  22.218  1.00  0.00     0.071 A 
ATOM     10  C   UNL     1       5.029 -24.497  22.016  1.00  0.00     0.037 A 
ENDROOT
BRANCH   1  11
ATOM     11  C   UNL     1       6.295 -22.401  22.345  1.00  0.00     0.025 A 
ATOM     12  N   UNL     1       5.857 -20.255  22.182  1.00  0.00    -0.275 N 
ATOM     13  C   UNL     1       5.295 -21.459  22.484  1.00  0.00     0.117 A 
ATOM     14  N   UNL     1       7.160 -20.336  21.853  1.00  0.00    -0.175 NA
ATOM     15  C   UNL     1       7.438 -21.648  21.958  1.00  0.00     0.096 A 
ATOM     16  C   UNL     1       5.205 -18.968  22.183  1.00  0.00     0.173 C 
BRANCH  15  17
ATOM     17  C   UNL     1       8.836 -22.125  21.705  1.00  0.00     0.214 C 
BRANCH  17  18
ATOM     18  O   UNL     1       9.262 -21.853  20.365  1.00  0.00    -0.390 OA
ATOM     19  H   UNL     1       9.511 -22.737  20.019  1.00  0.00     0.211 HD
ENDBRANCH  17  18
ENDBRANCH  15  17
ENDBRANCH   1  11
BRANCH   3  20
ATOM     20  C   UNL     1       7.847 -26.587  24.394  1.00  0.00     0.113 A 
ATOM     21  C   UNL     1       7.882 -27.924  24.840  1.00  0.00     0.166 A 
ATOM     22  N   UNL     1       8.966 -25.975  24.810  1.00  0.00    -0.153 NA
ATOM     23  N   UNL     1       8.985 -28.148  25.558  1.00  0.00    -0.161 NA
ATOM     24  N   UNL     1       9.610 -26.955  25.471  1.00  0.00    -0.177 N 
BRANCH  24  25
ATOM     25  C   UNL     1      10.935 -26.741  26.135  1.00  0.00     0.098 C 
ATOM     26  C   UNL     1      11.209 -25.266  26.568  1.00  0.00     0.052 C 
ATOM     27  C   UNL     1      10.841 -27.072  27.659  1.00  0.00     0.052 C 
ATOM     28  C   UNL     1      10.528 -25.576  27.927  1.00  0.00     0.097 C 
ATOM     29  C   UNL     1      11.163 -25.003  29.092  1.00  0.00     0.066 C 
ATOM     30  N   UNL     1      11.690 -24.557  30.024  1.00  0.00    -0.198 NA
BRANCH  25  31
ATOM     31  C   UNL     1      12.050 -27.438  25.362  1.00  0.00     0.152 C 
ATOM     32  C   UNL     1      13.378 -27.078  25.880  1.00  0.00     0.065 C 
ATOM     33  N   UNL     1      14.418 -26.794  26.306  1.00  0.00    -0.198 NA
ENDBRANCH  25  31
ENDBRANCH  24  25
ENDBRANCH   3  20
TORSDOF 6
ENDMDL
MODEL 9
REMARK VINA RESULT:    -9.316      3.118     10.032
REMARK INTER + INTRA:         -12.848
REMARK INTER:                 -11.810
REMARK INTRA:                  -1.038
REMARK UNBOUND:                -0.536
REMARK SMILES Cn1cc(-c2cc(-c3cnn([C@]4(CC#N)C[C@@H](C#N)C4)n3)c3cccnc3c2)c(CO)n1
REMARK SMILES IDX 5 1 6 2 7 3 22 4 23 5 24 6 25 7 26 8 27 9 28 10 4 11 2 12
REMARK SMILES IDX 3 13 32 14 29 15 1 16 30 17 31 18 8 20 9 21 21 22 10 23
REMARK SMILES IDX 11 24 12 25 16 26 20 27 17 28 18 29 19 30 13 31 14 32 15 33
REMARK H PARENT 31 19
ROOT
ATOM      1  C   UNL     1       3.241 -17.316  19.700  1.00  0.00    -0.012 A 
ATOM      2  C   UNL     1       3.568 -18.549  20.261  1.00  0.00     0.020 A 
ATOM      3  C   UNL     1       4.904 -18.863  20.565  1.00  0.00     0.014 A 
ATOM      4  C   UNL     1       5.939 -17.930  20.278  1.00  0.00     0.010 A 
ATOM      5  C   UNL     1       7.322 -18.155  20.492  1.00  0.00     0.012 A 
ATOM      6  C   UNL     1       8.260 -17.177  20.184  1.00  0.00     0.021 A 
ATOM      7  C   UNL     1       7.801 -15.990  19.656  1.00  0.00     0.112 A 
ATOM      8  N   UNL     1       6.498 -15.734  19.417  1.00  0.00    -0.256 NA
ATOM      9  C   UNL     1       5.594 -16.680  19.714  1.00  0.00     0.071 A 
ATOM     10  C   UNL     1       4.264 -16.401  19.437  1.00  0.00     0.037 A 
ENDROOT
BRANCH   1  11
ATOM     11  C   UNL     1       1.863 -16.986  19.396  1.00  0.00     0.025 A 
ATOM     12  N   UNL     1      -0.278 -16.582  19.667  1.00  0.00    -0.275 N 
ATOM     13  C   UNL     1       0.858 -16.924  20.339  1.00  0.00     0.117 A 
ATOM     14  N   UNL     1      -0.092 -16.413  18.345  1.00  0.00    -0.175 NA
ATOM     15  C   UNL     1       1.221 -16.651  18.172  1.00  0.00     0.096 A 
ATOM     16  C   UNL     1      -1.596 -16.398  20.226  1.00  0.00     0.173 C 
BRANCH  15  17
ATOM     17  C   UNL     1       1.818 -16.512  16.804  1.00  0.00     0.214 C 
BRANCH  17  18
ATOM     18  O   UNL     1       2.179 -17.778  16.243  1.00  0.00    -0.390 OA
ATOM     19  H   UNL     1       2.545 -18.272  17.008  1.00  0.00     0.211 HD
ENDBRANCH  17  18
ENDBRANCH  15  17
ENDBRANCH   1  11
BRANCH   3  20
ATOM     20  C   UNL     1       5.162 -20.158  21.182  1.00  0.00     0.113 A 
ATOM     21  C   UNL     1       5.197 -20.507  22.549  1.00  0.00     0.166 A 
ATOM     22  N   UNL     1       5.380 -21.266  20.459  1.00  0.00    -0.153 NA
ATOM     23  N   UNL     1       5.469 -21.806  22.691  1.00  0.00    -0.161 NA
ATOM     24  N   UNL     1       5.529 -22.211  21.405  1.00  0.00    -0.177 N 
BRANCH  24  25
ATOM     25  C   UNL     1       5.806 -23.646  21.073  1.00  0.00     0.098 C 
ATOM     26  C   UNL     1       5.345 -24.661  22.165  1.00  0.00     0.052 C 
ATOM     27  C   UNL     1       4.664 -24.228  20.181  1.00  0.00     0.052 C 
ATOM     28  C   UNL     1       3.959 -24.722  21.472  1.00  0.00     0.097 C 
ATOM     29  C   UNL     1       3.355 -26.033  21.392  1.00  0.00     0.066 C 
ATOM     30  N   UNL     1       2.885 -27.091  21.313  1.00  0.00    -0.198 NA
BRANCH  25  31
ATOM     31  C   UNL     1       7.227 -23.817  20.544  1.00  0.00     0.152 C 
ATOM     32  C   UNL     1       8.111 -24.424  21.550  1.00  0.00     0.065 C 
ATOM     33  N   UNL     1       8.794 -24.913  22.349  1.00  0.00    -0.198 NA
ENDBRANCH  25  31
ENDBRANCH  24  25
ENDBRANCH   3  20
TORSDOF 6
ENDMDL
