MODEL 1
REMARK VINA RESULT:    -8.431      0.000      0.000
REMARK INTER + INTRA:         -13.241
REMARK INTER:                 -11.634
REMARK INTRA:                  -1.607
REMARK UNBOUND:                -1.607
REMARK SMILES Cc1ccc(NC(=O)c2ccccc2NC(=O)c2ccc(C(C)(C)C)cc2)cc1C(=O)O
REMARK SMILES IDX 9 1 10 2 11 3 12 4 13 5 14 6 7 7 6 8 8 9 5 11 2 12 3 13
REMARK SMILES IDX 29 14 4 15 28 16 1 17 30 18 31 19 32 20 15 22 16 23 17 24
REMARK SMILES IDX 18 26 19 27 27 28 20 29 26 30 21 31 22 32 23 33 24 34 25 35
REMARK H PARENT 6 10 32 21 15 25
ROOT
ATOM      1  C   UNL     1       9.740   5.200  -8.498  1.00  0.00     0.063 A 
ATOM      2  C   UNL     1       9.764   3.905  -9.050  1.00  0.00     0.016 A 
ATOM      3  C   UNL     1      10.472   3.655 -10.224  1.00  0.00     0.001 A 
ATOM      4  C   UNL     1      11.164   4.689 -10.845  1.00  0.00     0.002 A 
ATOM      5  C   UNL     1      11.169   5.972 -10.289  1.00  0.00     0.027 A 
ATOM      6  C   UNL     1      10.470   6.247  -9.108  1.00  0.00     0.054 A 
ENDROOT
BRANCH   1   7
ATOM      7  C   UNL     1       8.945   5.452  -7.253  1.00  0.00     0.257 C 
ATOM      8  N   UNL     1       7.619   5.794  -7.457  1.00  0.00    -0.322 N 
ATOM      9  O   UNL     1       9.521   5.395  -6.171  1.00  0.00    -0.269 OA
ATOM     10  H   UNL     1       7.330   5.961  -8.414  1.00  0.00     0.170 HD
BRANCH   8  11
ATOM     11  C   UNL     1       6.639   6.049  -6.474  1.00  0.00     0.042 A 
ATOM     12  C   UNL     1       4.663   6.732  -4.555  1.00  0.00    -0.036 A 
ATOM     13  C   UNL     1       5.216   5.442  -4.607  1.00  0.00     0.006 A 
ATOM     14  C   UNL     1       5.089   7.677  -5.506  1.00  0.00     0.064 A 
ATOM     15  C   UNL     1       6.190   5.105  -5.555  1.00  0.00     0.026 A 
ATOM     16  C   UNL     1       6.082   7.331  -6.444  1.00  0.00     0.042 A 
ATOM     17  C   UNL     1       3.642   7.028  -3.495  1.00  0.00     0.045 C 
BRANCH  14  18
ATOM     18  C   UNL     1       4.578   9.067  -5.604  1.00  0.00     0.336 C 
ATOM     19  O   UNL     1       5.006  10.019  -4.976  1.00  0.00    -0.246 OA
BRANCH  18  20
ATOM     20  O   UNL     1       3.624   9.228  -6.534  1.00  0.00    -0.478 OA
ATOM     21  H   UNL     1       3.943   8.702  -7.296  1.00  0.00     0.297 HD
ENDBRANCH  18  20
ENDBRANCH  14  18
ENDBRANCH   8  11
ENDBRANCH   1   7
BRANCH   6  22
ATOM     22  N   UNL     1      10.487   7.527  -8.498  1.00  0.00    -0.321 N 
ATOM     23  C   UNL     1       9.990   8.718  -8.987  1.00  0.00     0.255 C 
ATOM     24  O   UNL     1       9.330   8.865 -10.009  1.00  0.00    -0.269 OA
ATOM     25  H   UNL     1      10.925   7.543  -7.577  1.00  0.00     0.170 HD
BRANCH  23  26
ATOM     26  C   UNL     1      10.265   9.917  -8.137  1.00  0.00     0.040 A 
ATOM     27  C   UNL     1      11.363  10.718  -8.454  1.00  0.00     0.014 A 
ATOM     28  C   UNL     1       9.482  10.244  -7.026  1.00  0.00     0.014 A 
ATOM     29  C   UNL     1      11.658  11.849  -7.686  1.00  0.00     0.005 A 
ATOM     30  C   UNL     1       9.782  11.379  -6.259  1.00  0.00     0.005 A 
ATOM     31  C   UNL     1      10.871  12.209  -6.573  1.00  0.00    -0.043 A 
BRANCH  31  32
ATOM     32  C   UNL     1      11.227  13.460  -5.750  1.00  0.00    -0.013 C 
ATOM     33  C   UNL     1      10.343  14.644  -6.197  1.00  0.00     0.016 C 
ATOM     34  C   UNL     1      12.700  13.907  -5.898  1.00  0.00     0.016 C 
ATOM     35  C   UNL     1      10.986  13.183  -4.249  1.00  0.00     0.016 C 
ENDBRANCH  31  32
ENDBRANCH  23  26
ENDBRANCH   6  22
TORSDOF 7
ENDMDL
