MODEL 5
REMARK VINA RESULT:    -8.295      3.016      5.740
REMARK INTER + INTRA:         -12.034
REMARK INTER:                 -10.365
REMARK INTRA:                  -1.670
REMARK UNBOUND:                -2.042
REMARK SMILES Nc1ccc(-c2ccc3ncc4ccc(=O)n(-c5cccc(C(F)(F)F)c5)c4c3c2)cn1
REMARK SMILES IDX 6 1 7 2 8 3 9 4 10 5 11 6 12 7 13 8 14 9 15 10 16 11 17 12
REMARK SMILES IDX 28 13 29 14 30 15 5 16 2 17 3 18 32 19 4 20 31 21 1 22 18 25
REMARK SMILES IDX 19 26 27 27 20 28 22 29 21 30 23 31 24 32 25 33 26 34
REMARK H PARENT 1 23 1 24
ROOT
ATOM      1  C   UNL     1     -17.206  12.967  28.246  1.00  0.00    -0.016 A 
ATOM      2  C   UNL     1     -15.978  13.602  28.073  1.00  0.00     0.011 A 
ATOM      3  C   UNL     1     -14.973  13.000  27.313  1.00  0.00     0.029 A 
ATOM      4  C   UNL     1     -15.155  11.781  26.681  1.00  0.00     0.072 A 
ATOM      5  N   UNL     1     -14.095  11.266  26.049  1.00  0.00    -0.255 NA
ATOM      6  C   UNL     1     -14.211  10.036  25.517  1.00  0.00     0.122 A 
ATOM      7  C   UNL     1     -15.388   9.308  25.500  1.00  0.00     0.018 A 
ATOM      8  C   UNL     1     -15.398   7.945  24.988  1.00  0.00     0.017 A 
ATOM      9  C   UNL     1     -16.531   7.245  25.001  1.00  0.00     0.073 A 
ATOM     10  C   UNL     1     -17.822   7.849  25.408  1.00  0.00     0.255 A 
ATOM     11  O   UNL     1     -18.826   7.148  25.274  1.00  0.00    -0.269 OA
ATOM     12  N   UNL     1     -17.794   9.182  25.846  1.00  0.00    -0.276 N 
ATOM     13  C   UNL     1     -16.545   9.898  26.027  1.00  0.00     0.067 A 
ATOM     14  C   UNL     1     -16.408  11.131  26.755  1.00  0.00     0.026 A 
ATOM     15  C   UNL     1     -17.390  11.733  27.598  1.00  0.00     0.021 A 
ENDROOT
BRANCH   1  16
ATOM     16  C   UNL     1     -18.265  13.557  29.075  1.00  0.00     0.000 A 
ATOM     17  C   UNL     1     -20.217  14.648  30.710  1.00  0.00     0.123 A 
ATOM     18  C   UNL     1     -20.472  14.519  29.355  1.00  0.00     0.047 A 
ATOM     19  N   UNL     1     -19.056  14.277  31.270  1.00  0.00    -0.239 NA
ATOM     20  C   UNL     1     -19.488  13.967  28.532  1.00  0.00     0.014 A 
ATOM     21  C   UNL     1     -18.115  13.746  30.449  1.00  0.00     0.122 A 
BRANCH  17  22
ATOM     22  N   UNL     1     -21.166  15.210  31.560  1.00  0.00    -0.384 N 
ATOM     23  H   UNL     1     -20.972  16.207  31.595  1.00  0.00     0.158 HD
ATOM     24  H   UNL     1     -21.135  14.790  32.483  1.00  0.00     0.158 HD
ENDBRANCH  17  22
ENDBRANCH   1  16
BRANCH  12  25
ATOM     25  C   UNL     1     -19.024   9.917  25.757  1.00  0.00     0.050 A 
ATOM     26  C   UNL     1     -19.536  10.331  24.517  1.00  0.00     0.027 A 
ATOM     27  C   UNL     1     -19.773  10.188  26.913  1.00  0.00     0.039 A 
ATOM     28  C   UNL     1     -20.742  11.029  24.436  1.00  0.00     0.003 A 
ATOM     29  C   UNL     1     -20.985  10.896  26.846  1.00  0.00     0.058 A 
ATOM     30  C   UNL     1     -21.462  11.311  25.595  1.00  0.00     0.013 A 
BRANCH  29  31
ATOM     31  C   UNL     1     -21.774  11.168  28.104  1.00  0.00     0.416 C 
ATOM     32  F   UNL     1     -22.760  10.252  28.311  1.00  0.00    -0.166 F 
ATOM     33  F   UNL     1     -21.002  11.157  29.226  1.00  0.00    -0.166 F 
ATOM     34  F   UNL     1     -22.394  12.385  28.094  1.00  0.00    -0.166 F 
ENDBRANCH  29  31
ENDBRANCH  12  25
TORSDOF 4
ENDMDL
