MODEL 4
REMARK VINA RESULT:    -8.329      1.672      2.424
REMARK INTER + INTRA:         -12.074
REMARK INTER:                 -10.049
REMARK INTRA:                  -2.025
REMARK UNBOUND:                -2.042
REMARK SMILES Nc1ccc(-c2ccc3ncc4ccc(=O)n(-c5cccc(C(F)(F)F)c5)c4c3c2)cn1
REMARK SMILES IDX 6 1 7 2 8 3 9 4 10 5 11 6 12 7 13 8 14 9 15 10 16 11 17 12
REMARK SMILES IDX 28 13 29 14 30 15 5 16 2 17 3 18 32 19 4 20 31 21 1 22 18 25
REMARK SMILES IDX 19 26 27 27 20 28 22 29 21 30 23 31 24 32 25 33 26 34
REMARK H PARENT 1 23 1 24
ROOT
ATOM      1  C   UNL     1     -20.293  13.251  29.867  1.00  0.00    -0.016 A 
ATOM      2  C   UNL     1     -21.493  13.296  30.572  1.00  0.00     0.011 A 
ATOM      3  C   UNL     1     -22.592  12.549  30.144  1.00  0.00     0.029 A 
ATOM      4  C   UNL     1     -22.534  11.719  29.036  1.00  0.00     0.072 A 
ATOM      5  N   UNL     1     -23.671  11.116  28.674  1.00  0.00    -0.255 NA
ATOM      6  C   UNL     1     -23.671  10.389  27.543  1.00  0.00     0.122 A 
ATOM      7  C   UNL     1     -22.542  10.147  26.779  1.00  0.00     0.018 A 
ATOM      8  C   UNL     1     -22.653   9.428  25.518  1.00  0.00     0.017 A 
ATOM      9  C   UNL     1     -21.564   9.224  24.779  1.00  0.00     0.073 A 
ATOM     10  C   UNL     1     -20.211   9.598  25.255  1.00  0.00     0.255 A 
ATOM     11  O   UNL     1     -19.263   9.261  24.544  1.00  0.00    -0.269 OA
ATOM     12  N   UNL     1     -20.126  10.240  26.499  1.00  0.00    -0.276 N 
ATOM     13  C   UNL     1     -21.313  10.648  27.228  1.00  0.00     0.067 A 
ATOM     14  C   UNL     1     -21.318  11.571  28.331  1.00  0.00     0.026 A 
ATOM     15  C   UNL     1     -20.235  12.402  28.748  1.00  0.00     0.021 A 
ENDROOT
BRANCH   1  16
ATOM     16  C   UNL     1     -19.135  14.059  30.272  1.00  0.00     0.000 A 
ATOM     17  C   UNL     1     -17.005  15.649  31.054  1.00  0.00     0.123 A 
ATOM     18  C   UNL     1     -16.747  14.449  30.411  1.00  0.00     0.047 A 
ATOM     19  N   UNL     1     -18.248  16.074  31.327  1.00  0.00    -0.239 NA
ATOM     20  C   UNL     1     -17.821  13.650  30.015  1.00  0.00     0.014 A 
ATOM     21  C   UNL     1     -19.275  15.278  30.936  1.00  0.00     0.122 A 
BRANCH  17  22
ATOM     22  N   UNL     1     -15.961  16.465  31.480  1.00  0.00    -0.384 N 
ATOM     23  H   UNL     1     -15.514  15.986  32.257  1.00  0.00     0.158 HD
ATOM     24  H   UNL     1     -16.293  17.385  31.748  1.00  0.00     0.158 HD
ENDBRANCH  17  22
ENDBRANCH   1  16
BRANCH  12  25
ATOM     25  C   UNL     1     -18.870  10.153  27.188  1.00  0.00     0.050 A 
ATOM     26  C   UNL     1     -18.564   9.054  28.007  1.00  0.00     0.027 A 
ATOM     27  C   UNL     1     -17.892  11.144  27.009  1.00  0.00     0.039 A 
ATOM     28  C   UNL     1     -17.332   8.966  28.657  1.00  0.00     0.003 A 
ATOM     29  C   UNL     1     -16.651  11.071  27.664  1.00  0.00     0.058 A 
ATOM     30  C   UNL     1     -16.382   9.970  28.488  1.00  0.00     0.013 A 
BRANCH  29  31
ATOM     31  C   UNL     1     -15.616  12.148  27.448  1.00  0.00     0.416 C 
ATOM     32  F   UNL     1     -14.859  11.930  26.338  1.00  0.00    -0.166 F 
ATOM     33  F   UNL     1     -16.163  13.386  27.299  1.00  0.00    -0.166 F 
ATOM     34  F   UNL     1     -14.733  12.257  28.485  1.00  0.00    -0.166 F 
ENDBRANCH  29  31
ENDBRANCH  12  25
TORSDOF 4
ENDMDL
