REMARK VINA RESULT:    -6.612      2.676      4.026
REMARK INTER + INTRA:          -9.733
REMARK INTER:                  -9.182
REMARK INTRA:                  -0.551
REMARK UNBOUND:                -0.415
REMARK SMILES C/C=C\CC/C=C/C=C/C(=O)NCC(C)C
REMARK SMILES IDX 6 1 7 2 5 3 4 4 3 5 2 6 1 7 8 8 9 9 10 10 11 11 12 12 13 14
REMARK SMILES IDX 14 15 15 16 16 17
REMARK H PARENT 12 13
ROOT
ATOM      1  C   UNL     1      -7.696  -6.755 -21.413  1.00  0.00    -0.027 C 
ATOM      2  C   UNL     1      -7.420  -6.069 -20.294  1.00  0.00    -0.004 C 
ENDROOT
BRANCH   1   3
ATOM      3  C   UNL     1      -8.751  -7.823 -21.502  1.00  0.00     0.031 C 
BRANCH   3   4
ATOM      4  C   UNL     1      -8.470  -8.796 -22.650  1.00  0.00     0.031 C 
BRANCH   4   5
ATOM      5  C   UNL     1      -8.540  -8.105 -23.984  1.00  0.00    -0.031 C 
ATOM      6  C   UNL     1      -9.631  -7.887 -24.735  1.00  0.00    -0.035 C 
ATOM      7  C   UNL     1     -11.036  -8.308 -24.448  1.00  0.00     0.035 C 
ENDBRANCH   4   5
ENDBRANCH   3   4
ENDBRANCH   1   3
BRANCH   2   8
ATOM      8  C   UNL     1      -6.403  -5.042 -20.239  1.00  0.00     0.005 C 
ATOM      9  C   UNL     1      -5.090  -5.314 -20.240  1.00  0.00     0.071 C 
BRANCH   9  10
ATOM     10  C   UNL     1      -4.105  -4.204 -20.182  1.00  0.00     0.243 C 
ATOM     11  O   UNL     1      -2.940  -4.370 -19.845  1.00  0.00    -0.270 OA
ATOM     12  N   UNL     1      -4.645  -2.996 -20.548  1.00  0.00    -0.352 N 
ATOM     13  H   UNL     1      -5.618  -2.936 -20.812  1.00  0.00     0.163 HD
BRANCH  12  14
ATOM     14  C   UNL     1      -3.862  -1.775 -20.567  1.00  0.00     0.119 C 
BRANCH  14  15
ATOM     15  C   UNL     1      -3.769  -1.124 -21.957  1.00  0.00     0.002 C 
ATOM     16  C   UNL     1      -2.688  -0.046 -22.023  1.00  0.00     0.009 C 
ATOM     17  C   UNL     1      -3.557  -2.162 -23.060  1.00  0.00     0.009 C 
ENDBRANCH  14  15
ENDBRANCH  12  14
ENDBRANCH   9  10
ENDBRANCH   2   8
TORSDOF 7
