REMARK VINA RESULT:    -7.748      3.970      8.024
REMARK INTER + INTRA:         -15.123
REMARK INTER:                 -12.602
REMARK INTRA:                  -2.521
REMARK UNBOUND:                -2.393
REMARK SMILES CC(C)CNC(=O)c1ccc(-c2ccc(-c3sccc3CO)cc2C(=O)Nc2ccc(C(=N)N)cc2)c(C(=O)O)c1
REMARK SMILES IDX 8 1 9 2 10 3 11 4 37 5 41 6 6 7 5 8 7 9 4 11 2 12 1 13 3 14
REMARK SMILES IDX 38 15 39 16 40 17 12 19 13 20 24 21 14 22 23 23 15 24 25 25
REMARK SMILES IDX 26 26 27 27 28 29 29 30 36 31 30 32 35 33 31 34 32 35 33 36
REMARK SMILES IDX 34 37 16 41 17 42 20 43 18 44 19 45 21 46 22 47
REMARK H PARENT 5 10 40 18 27 28 33 38 34 39 34 40 22 48
ROOT
ATOM      1  C   UNL     1     130.250 -14.957 162.952  1.00  0.00     0.040 A 
ATOM      2  C   UNL     1     131.606 -14.828 162.640  1.00  0.00     0.014 A 
ATOM      3  C   UNL     1     132.573 -15.494 163.401  1.00  0.00     0.010 A 
ATOM      4  C   UNL     1     132.208 -16.294 164.499  1.00  0.00    -0.003 A 
ATOM      5  C   UNL     1     130.840 -16.385 164.824  1.00  0.00     0.068 A 
ATOM      6  C   UNL     1     129.866 -15.722 164.056  1.00  0.00     0.030 A 
ENDROOT
BRANCH   1   7
ATOM      7  C   UNL     1     129.257 -14.239 162.109  1.00  0.00     0.251 C 
ATOM      8  N   UNL     1     128.631 -14.985 161.131  1.00  0.00    -0.352 N 
ATOM      9  O   UNL     1     129.061 -13.042 162.284  1.00  0.00    -0.269 OA
ATOM     10  H   UNL     1     128.903 -15.944 160.973  1.00  0.00     0.163 HD
BRANCH   8  11
ATOM     11  C   UNL     1     127.641 -14.410 160.241  1.00  0.00     0.119 C 
BRANCH  11  12
ATOM     12  C   UNL     1     128.057 -14.434 158.760  1.00  0.00     0.002 C 
ATOM     13  C   UNL     1     128.131 -15.859 158.210  1.00  0.00     0.009 C 
ATOM     14  C   UNL     1     129.373 -13.696 158.514  1.00  0.00     0.009 C 
ENDBRANCH  11  12
ENDBRANCH   8  11
ENDBRANCH   1   7
BRANCH   5  15
ATOM     15  C   UNL     1     130.397 -17.122 166.027  1.00  0.00     0.336 C 
ATOM     16  O   UNL     1     130.324 -18.331 166.139  1.00  0.00    -0.246 OA
BRANCH  15  17
ATOM     17  O   UNL     1     130.079 -16.284 167.028  1.00  0.00    -0.478 OA
ATOM     18  H   UNL     1     129.424 -15.665 166.639  1.00  0.00     0.297 HD
ENDBRANCH  15  17
ENDBRANCH   5  15
BRANCH   4  19
ATOM     19  C   UNL     1     133.260 -17.030 165.219  1.00  0.00    -0.005 A 
ATOM     20  C   UNL     1     133.867 -16.438 166.340  1.00  0.00     0.010 A 
ATOM     21  C   UNL     1     133.666 -18.334 164.874  1.00  0.00     0.048 A 
ATOM     22  C   UNL     1     134.834 -17.122 167.085  1.00  0.00     0.010 A 
ATOM     23  C   UNL     1     134.621 -19.028 165.628  1.00  0.00     0.024 A 
ATOM     24  C   UNL     1     135.219 -18.422 166.738  1.00  0.00    -0.007 A 
BRANCH  21  25
ATOM     25  C   UNL     1     133.101 -19.036 163.702  1.00  0.00     0.256 C 
ATOM     26  O   UNL     1     133.774 -19.082 162.682  1.00  0.00    -0.269 OA
ATOM     27  N   UNL     1     131.832 -19.530 163.917  1.00  0.00    -0.322 N 
ATOM     28  H   UNL     1     131.419 -19.340 164.832  1.00  0.00     0.170 HD
BRANCH  27  29
ATOM     29  C   UNL     1     131.035 -20.263 163.016  1.00  0.00     0.041 A 
ATOM     30  C   UNL     1     131.427 -21.469 162.433  1.00  0.00     0.027 A 
ATOM     31  C   UNL     1     129.774 -19.736 162.706  1.00  0.00     0.027 A 
ATOM     32  C   UNL     1     130.577 -22.141 161.547  1.00  0.00     0.014 A 
ATOM     33  C   UNL     1     128.918 -20.404 161.826  1.00  0.00     0.014 A 
ATOM     34  C   UNL     1     129.323 -21.606 161.242  1.00  0.00     0.016 A 
BRANCH  34  35
ATOM     35  C   UNL     1     128.415 -22.317 160.306  1.00  0.00     0.122 C 
ATOM     36  N   UNL     1     128.853 -22.938 159.257  1.00  0.00    -0.284 NA
ATOM     37  N   UNL     1     127.079 -22.337 160.530  1.00  0.00    -0.384 N 
ATOM     38  H   UNL     1     129.868 -22.832 159.167  1.00  0.00     0.189 HD
ATOM     39  H   UNL     1     126.513 -22.859 159.874  1.00  0.00     0.158 HD
ATOM     40  H   UNL     1     126.653 -21.995 161.378  1.00  0.00     0.158 HD
ENDBRANCH  34  35
ENDBRANCH  27  29
ENDBRANCH  21  25
BRANCH  24  41
ATOM     41  C   UNL     1     136.219 -19.137 167.539  1.00  0.00     0.040 A 
ATOM     42  S   UNL     1     135.737 -19.829 169.035  1.00  0.00    -0.143 S 
ATOM     43  C   UNL     1     137.560 -19.379 167.266  1.00  0.00    -0.004 A 
ATOM     44  C   UNL     1     137.299 -20.439 169.339  1.00  0.00     0.066 A 
ATOM     45  C   UNL     1     138.175 -20.134 168.324  1.00  0.00     0.018 A 
BRANCH  43  46
ATOM     46  C   UNL     1     138.298 -18.926 166.044  1.00  0.00     0.193 C 
BRANCH  46  47
ATOM     47  O   UNL     1     138.309 -17.506 165.946  1.00  0.00    -0.392 OA
ATOM     48  H   UNL     1     138.436 -17.297 165.005  1.00  0.00     0.211 HD
ENDBRANCH  46  47
ENDBRANCH  43  46
ENDBRANCH  24  41
ENDBRANCH   4  19
TORSDOF 12
