MODEL 1
REMARK minimizedAffinity -11.2017813
REMARK CNNscore 0.939467728
REMARK CNNaffinity 8.48227406
REMARK SMILES C[C@H](C(=O)Nc1cccc2c(-c3nc(Nc4cccc(S(C)(=O)=O)c4F)ncc3F)c[nH]c12)N1CCN(C)CC1
REMARK SMILES IDX 6 1 7 2 8 3 9 4 10 5 11 6 31 7 32 8 33 9 5 11 3 12 4 13 2 15
REMARK SMILES IDX 1 16 34 17 35 18 40 19 36 20 39 21 37 22 38 23 12 24 13 25
REMARK SMILES IDX 29 26 14 27 28 28 27 29 30 30 15 31 16 33 17 34 25 35 18 36
REMARK SMILES IDX 20 37 19 38 26 39 21 40 23 41 24 42 22 43
REMARK H PARENT 32 10 5 14 15 32
ROOT
ATOM      1  C   UNL     1       4.383 -22.064  20.790  1.00  0.00     0.065 A 
ATOM      2  C   UNL     1       5.699 -21.799  21.212  1.00  0.00     0.028 A 
ATOM      3  C   UNL     1       6.499 -22.784  21.787  1.00  0.00     0.003 A 
ATOM      4  C   UNL     1       6.009 -24.078  21.958  1.00  0.00     0.011 A 
ATOM      5  C   UNL     1       4.692 -24.389  21.557  1.00  0.00     0.011 A 
ATOM      6  C   UNL     1       3.906 -25.592  21.580  1.00  0.00     0.029 A 
ATOM      7  C   UNL     1       2.668 -25.265  21.062  1.00  0.00     0.094 A 
ATOM      8  N   UNL     1       2.688 -23.944  20.711  1.00  0.00    -0.359 N 
ATOM      9  C   UNL     1       3.911 -23.373  20.989  1.00  0.00     0.070 A 
ATOM     10  H   UNL     1       1.917 -23.427  20.299  1.00  0.00     0.166 HD
ENDROOT
BRANCH   1  11
ATOM     11  N   UNL     1       3.687 -20.998  20.195  1.00  0.00    -0.323 N 
ATOM     12  C   UNL     1       4.136 -19.752  19.800  1.00  0.00     0.241 C 
ATOM     13  O   UNL     1       5.298 -19.352  19.847  1.00  0.00    -0.273 OA
ATOM     14  H   UNL     1       2.699 -21.139  19.990  1.00  0.00     0.170 HD
BRANCH  12  15
ATOM     15  C   UNL     1       2.962 -18.829  19.367  1.00  0.00     0.143 C 
ATOM     16  C   UNL     1       2.156 -18.373  20.585  1.00  0.00     0.035 C 
BRANCH  15  17
ATOM     17  N   UNL     1       3.470 -17.754  18.464  1.00  0.00    -0.290 NA
ATOM     18  C   UNL     1       4.187 -16.675  19.177  1.00  0.00     0.101 C 
ATOM     19  C   UNL     1       2.377 -17.158  17.666  1.00  0.00     0.101 C 
ATOM     20  C   UNL     1       4.712 -15.588  18.206  1.00  0.00     0.099 C 
ATOM     21  C   UNL     1       2.888 -16.062  16.700  1.00  0.00     0.099 C 
ATOM     22  N   UNL     1       3.623 -14.997  17.406  1.00  0.00    -0.304 NA
ATOM     23  C   UNL     1       4.145 -14.009  16.464  1.00  0.00     0.105 C 
ENDBRANCH  15  17
ENDBRANCH  12  15
ENDBRANCH   1  11
BRANCH   6  24
ATOM     24  C   UNL     1       4.259 -26.922  22.062  1.00  0.00     0.114 A 
ATOM     25  N   UNL     1       5.357 -26.982  22.854  1.00  0.00    -0.210 NA
ATOM     26  C   UNL     1       3.538 -28.045  21.723  1.00  0.00     0.167 A 
ATOM     27  C   UNL     1       5.738 -28.180  23.318  1.00  0.00     0.228 A 
ATOM     28  C   UNL     1       4.001 -29.228  22.237  1.00  0.00     0.156 A 
ATOM     29  N   UNL     1       5.088 -29.322  23.030  1.00  0.00    -0.218 NA
ATOM     30  F   UNL     1       2.462 -28.029  20.926  1.00  0.00    -0.203 F 
BRANCH  27  31
ATOM     31  N   UNL     1       6.861 -28.329  24.119  1.00  0.00    -0.322 N 
ATOM     32  H   UNL     1       6.954 -29.295  24.407  1.00  0.00     0.170 HD
BRANCH  31  33
ATOM     33  C   UNL     1       7.865 -27.457  24.564  1.00  0.00     0.078 A 
ATOM     34  C   UNL     1       8.037 -26.154  24.082  1.00  0.00     0.029 A 
ATOM     35  C   UNL     1       8.770 -27.915  25.536  1.00  0.00     0.165 A 
ATOM     36  C   UNL     1       9.076 -25.339  24.546  1.00  0.00     0.004 A 
ATOM     37  C   UNL     1       9.802 -27.108  26.003  1.00  0.00     0.104 A 
ATOM     38  C   UNL     1       9.966 -25.814  25.507  1.00  0.00     0.023 A 
ATOM     39  F   UNL     1       8.618 -29.164  26.008  1.00  0.00    -0.203 F 
BRANCH  37  40
ATOM     40  S   UNL     1      10.911 -27.739  27.218  1.00  0.00     0.178 S 
ATOM     41  O   UNL     1      12.098 -28.196  26.515  1.00  0.00    -0.224 OA
ATOM     42  O   UNL     1      10.155 -28.653  28.053  1.00  0.00    -0.224 OA
ATOM     43  C   UNL     1      11.407 -26.343  28.190  1.00  0.00     0.164 C 
ENDBRANCH  37  40
ENDBRANCH  31  33
ENDBRANCH  27  31
ENDBRANCH   6  24
TORSDOF 7
ENDMDL
MODEL 2
REMARK minimizedAffinity -10.3295403
REMARK CNNscore 0.691471457
REMARK CNNaffinity 8.24489117
REMARK SMILES C[C@H](C(=O)Nc1cccc2c(-c3nc(Nc4cccc(S(C)(=O)=O)c4F)ncc3F)c[nH]c12)N1CCN(C)CC1
REMARK SMILES IDX 6 1 7 2 8 3 9 4 10 5 11 6 31 7 32 8 33 9 5 11 3 12 4 13 2 15
REMARK SMILES IDX 1 16 34 17 35 18 40 19 36 20 39 21 37 22 38 23 12 24 13 25
REMARK SMILES IDX 29 26 14 27 28 28 27 29 30 30 15 31 16 33 17 34 25 35 18 36
REMARK SMILES IDX 20 37 19 38 26 39 21 40 23 41 24 42 22 43
REMARK H PARENT 32 10 5 14 15 32
ROOT
ATOM      1  C   UNL     1       5.305 -20.758  20.691  1.00  0.00     0.065 A 
ATOM      2  C   UNL     1       6.110 -20.464  21.806  1.00  0.00     0.028 A 
ATOM      3  C   UNL     1       6.412 -21.425  22.768  1.00  0.00     0.003 A 
ATOM      4  C   UNL     1       5.920 -22.724  22.645  1.00  0.00     0.011 A 
ATOM      5  C   UNL     1       5.102 -23.063  21.546  1.00  0.00     0.011 A 
ATOM      6  C   UNL     1       4.460 -24.279  21.126  1.00  0.00     0.029 A 
ATOM      7  C   UNL     1       3.774 -23.982  19.965  1.00  0.00     0.094 A 
ATOM      8  N   UNL     1       3.996 -22.667  19.663  1.00  0.00    -0.359 N 
ATOM      9  C   UNL     1       4.810 -22.071  20.601  1.00  0.00     0.070 A 
ATOM     10  H   UNL     1       3.621 -22.170  18.860  1.00  0.00     0.166 HD
ENDROOT
BRANCH   1  11
ATOM     11  N   UNL     1       5.098 -19.714  19.772  1.00  0.00    -0.323 N 
ATOM     12  C   UNL     1       3.970 -18.953  19.531  1.00  0.00     0.241 C 
ATOM     13  O   UNL     1       2.908 -19.014  20.147  1.00  0.00    -0.273 OA
ATOM     14  H   UNL     1       5.888 -19.437  19.191  1.00  0.00     0.170 HD
BRANCH  12  15
ATOM     15  C   UNL     1       4.149 -18.042  18.283  1.00  0.00     0.143 C 
ATOM     16  C   UNL     1       2.788 -17.589  17.746  1.00  0.00     0.035 C 
BRANCH  15  17
ATOM     17  N   UNL     1       5.140 -16.966  18.579  1.00  0.00    -0.290 NA
ATOM     18  C   UNL     1       6.242 -17.405  19.462  1.00  0.00     0.101 C 
ATOM     19  C   UNL     1       4.488 -15.782  19.179  1.00  0.00     0.101 C 
ATOM     20  C   UNL     1       7.257 -16.267  19.732  1.00  0.00     0.099 C 
ATOM     21  C   UNL     1       5.494 -14.641  19.465  1.00  0.00     0.099 C 
ATOM     22  N   UNL     1       6.606 -15.083  20.326  1.00  0.00    -0.304 NA
ATOM     23  C   UNL     1       7.570 -14.005  20.529  1.00  0.00     0.105 C 
ENDBRANCH  15  17
ENDBRANCH  12  15
ENDBRANCH   1  11
BRANCH   6  24
ATOM     24  C   UNL     1       4.460 -25.594  21.755  1.00  0.00     0.114 A 
ATOM     25  N   UNL     1       5.593 -25.919  22.424  1.00  0.00    -0.210 NA
ATOM     26  C   UNL     1       3.390 -26.456  21.663  1.00  0.00     0.167 A 
ATOM     27  C   UNL     1       5.656 -27.121  23.013  1.00  0.00     0.228 A 
ATOM     28  C   UNL     1       3.543 -27.664  22.291  1.00  0.00     0.156 A 
ATOM     29  N   UNL     1       4.655 -28.018  22.967  1.00  0.00    -0.218 NA
ATOM     30  F   UNL     1       2.264 -26.179  20.993  1.00  0.00    -0.203 F 
BRANCH  27  31
ATOM     31  N   UNL     1       6.787 -27.538  23.702  1.00  0.00    -0.322 N 
ATOM     32  H   UNL     1       6.774 -28.544  23.809  1.00  0.00     0.170 HD
BRANCH  31  33
ATOM     33  C   UNL     1       7.907 -26.879  24.227  1.00  0.00     0.078 A 
ATOM     34  C   UNL     1       8.417 -25.679  23.717  1.00  0.00     0.029 A 
ATOM     35  C   UNL     1       8.578 -27.459  25.317  1.00  0.00     0.165 A 
ATOM     36  C   UNL     1       9.557 -25.081  24.269  1.00  0.00     0.004 A 
ATOM     37  C   UNL     1       9.709 -26.869  25.869  1.00  0.00     0.104 A 
ATOM     38  C   UNL     1      10.210 -25.677  25.346  1.00  0.00     0.023 A 
ATOM     39  F   UNL     1       8.101 -28.612  25.816  1.00  0.00    -0.203 F 
BRANCH  37  40
ATOM     40  S   UNL     1      10.513 -27.647  27.231  1.00  0.00     0.178 S 
ATOM     41  O   UNL     1       9.826 -28.905  27.468  1.00  0.00    -0.224 OA
ATOM     42  O   UNL     1      10.619 -26.658  28.287  1.00  0.00    -0.224 OA
ATOM     43  C   UNL     1      12.139 -28.060  26.660  1.00  0.00     0.164 C 
ENDBRANCH  37  40
ENDBRANCH  31  33
ENDBRANCH  27  31
ENDBRANCH   6  24
TORSDOF 7
ENDMDL
MODEL 3
REMARK minimizedAffinity -11.0783243
REMARK CNNscore 0.620134115
REMARK CNNaffinity 8.24281788
REMARK SMILES C[C@H](C(=O)Nc1cccc2c(-c3nc(Nc4cccc(S(C)(=O)=O)c4F)ncc3F)c[nH]c12)N1CCN(C)CC1
REMARK SMILES IDX 6 1 7 2 8 3 9 4 10 5 11 6 31 7 32 8 33 9 5 11 3 12 4 13 2 15
REMARK SMILES IDX 1 16 34 17 35 18 40 19 36 20 39 21 37 22 38 23 12 24 13 25
REMARK SMILES IDX 29 26 14 27 28 28 27 29 30 30 15 31 16 33 17 34 25 35 18 36
REMARK SMILES IDX 20 37 19 38 26 39 21 40 23 41 24 42 22 43
REMARK H PARENT 32 10 5 14 15 32
ROOT
ATOM      1  C   UNL     1       5.162 -20.610  21.104  1.00  0.00     0.065 A 
ATOM      2  C   UNL     1       6.156 -20.412  22.079  1.00  0.00     0.028 A 
ATOM      3  C   UNL     1       6.615 -21.453  22.882  1.00  0.00     0.003 A 
ATOM      4  C   UNL     1       6.095 -22.738  22.735  1.00  0.00     0.011 A 
ATOM      5  C   UNL     1       5.090 -22.983  21.775  1.00  0.00     0.011 A 
ATOM      6  C   UNL     1       4.371 -24.159  21.370  1.00  0.00     0.029 A 
ATOM      7  C   UNL     1       3.491 -23.764  20.381  1.00  0.00     0.094 A 
ATOM      8  N   UNL     1       3.670 -22.426  20.162  1.00  0.00    -0.359 N 
ATOM      9  C   UNL     1       4.645 -21.912  20.988  1.00  0.00     0.070 A 
ATOM     10  H   UNL     1       3.163 -21.862  19.486  1.00  0.00     0.166 HD
ENDROOT
BRANCH   1  11
ATOM     11  N   UNL     1       4.805 -19.489  20.333  1.00  0.00    -0.323 N 
ATOM     12  C   UNL     1       3.556 -19.002  19.997  1.00  0.00     0.241 C 
ATOM     13  O   UNL     1       2.476 -19.450  20.378  1.00  0.00    -0.273 OA
ATOM     14  H   UNL     1       5.560 -18.912  19.966  1.00  0.00     0.170 HD
BRANCH  12  15
ATOM     15  C   UNL     1       3.651 -17.846  18.962  1.00  0.00     0.143 C 
ATOM     16  C   UNL     1       4.148 -18.369  17.611  1.00  0.00     0.035 C 
BRANCH  15  17
ATOM     17  N   UNL     1       2.373 -17.074  18.947  1.00  0.00    -0.290 NA
ATOM     18  C   UNL     1       1.504 -17.348  20.112  1.00  0.00     0.101 C 
ATOM     19  C   UNL     1       1.607 -17.322  17.707  1.00  0.00     0.101 C 
ATOM     20  C   UNL     1       0.198 -16.517  20.069  1.00  0.00     0.099 C 
ATOM     21  C   UNL     1       0.292 -16.506  17.658  1.00  0.00     0.099 C 
ATOM     22  N   UNL     1      -0.565 -16.760  18.830  1.00  0.00    -0.304 NA
ATOM     23  C   UNL     1      -1.768 -15.933  18.787  1.00  0.00     0.105 C 
ENDBRANCH  15  17
ENDBRANCH  12  15
ENDBRANCH   1  11
BRANCH   6  24
ATOM     24  C   UNL     1       4.468 -25.525  21.870  1.00  0.00     0.114 A 
ATOM     25  N   UNL     1       5.579 -25.800  22.598  1.00  0.00    -0.210 NA
ATOM     26  C   UNL     1       3.510 -26.478  21.607  1.00  0.00     0.167 A 
ATOM     27  C   UNL     1       5.730 -27.044  23.075  1.00  0.00     0.228 A 
ATOM     28  C   UNL     1       3.748 -27.723  22.129  1.00  0.00     0.156 A 
ATOM     29  N   UNL     1       4.840 -28.028  22.860  1.00  0.00    -0.218 NA
ATOM     30  F   UNL     1       2.413 -26.250  20.874  1.00  0.00    -0.203 F 
BRANCH  27  31
ATOM     31  N   UNL     1       6.846 -27.411  23.813  1.00  0.00    -0.322 N 
ATOM     32  H   UNL     1       6.800 -28.396  24.039  1.00  0.00     0.170 HD
BRANCH  31  33
ATOM     33  C   UNL     1       7.986 -26.730  24.262  1.00  0.00     0.078 A 
ATOM     34  C   UNL     1       8.386 -25.477  23.782  1.00  0.00     0.029 A 
ATOM     35  C   UNL     1       8.794 -27.342  25.235  1.00  0.00     0.165 A 
ATOM     36  C   UNL     1       9.552 -24.858  24.250  1.00  0.00     0.004 A 
ATOM     37  C   UNL     1       9.951 -26.730  25.705  1.00  0.00     0.104 A 
ATOM     38  C   UNL     1      10.342 -25.485  25.212  1.00  0.00     0.023 A 
ATOM     39  F   UNL     1       8.424 -28.545  25.704  1.00  0.00    -0.203 F 
BRANCH  37  40
ATOM     40  S   UNL     1      10.929 -27.548  26.921  1.00  0.00     0.178 S 
ATOM     41  O   UNL     1      11.991 -28.245  26.216  1.00  0.00    -0.224 OA
ATOM     42  O   UNL     1      10.018 -28.278  27.782  1.00  0.00    -0.224 OA
ATOM     43  C   UNL     1      11.706 -26.262  27.861  1.00  0.00     0.164 C 
ENDBRANCH  37  40
ENDBRANCH  31  33
ENDBRANCH  27  31
ENDBRANCH   6  24
TORSDOF 7
ENDMDL
MODEL 4
REMARK minimizedAffinity -9.99608707
REMARK CNNscore 0.551856279
REMARK CNNaffinity 7.99749374
REMARK SMILES C[C@H](C(=O)Nc1cccc2c(-c3nc(Nc4cccc(S(C)(=O)=O)c4F)ncc3F)c[nH]c12)N1CCN(C)CC1
REMARK SMILES IDX 6 1 7 2 8 3 9 4 10 5 11 6 31 7 32 8 33 9 5 11 3 12 4 13 2 15
REMARK SMILES IDX 1 16 34 17 35 18 40 19 36 20 39 21 37 22 38 23 12 24 13 25
REMARK SMILES IDX 29 26 14 27 28 28 27 29 30 30 15 31 16 33 17 34 25 35 18 36
REMARK SMILES IDX 20 37 19 38 26 39 21 40 23 41 24 42 22 43
REMARK H PARENT 32 10 5 14 15 32
ROOT
ATOM      1  C   UNL     1       5.031 -21.959  20.575  1.00  0.00     0.065 A 
ATOM      2  C   UNL     1       4.798 -22.575  19.332  1.00  0.00     0.028 A 
ATOM      3  C   UNL     1       4.842 -23.959  19.179  1.00  0.00     0.003 A 
ATOM      4  C   UNL     1       5.119 -24.780  20.271  1.00  0.00     0.011 A 
ATOM      5  C   UNL     1       5.368 -24.206  21.536  1.00  0.00     0.011 A 
ATOM      6  C   UNL     1       5.664 -24.752  22.832  1.00  0.00     0.029 A 
ATOM      7  C   UNL     1       5.824 -23.678  23.686  1.00  0.00     0.094 A 
ATOM      8  N   UNL     1       5.614 -22.531  22.972  1.00  0.00    -0.359 N 
ATOM      9  C   UNL     1       5.324 -22.810  21.654  1.00  0.00     0.070 A 
ATOM     10  H   UNL     1       5.661 -21.585  23.340  1.00  0.00     0.166 HD
ENDROOT
BRANCH   1  11
ATOM     11  N   UNL     1       4.927 -20.557  20.611  1.00  0.00    -0.323 N 
ATOM     12  C   UNL     1       3.830 -19.753  20.859  1.00  0.00     0.241 C 
ATOM     13  O   UNL     1       2.703 -20.138  21.164  1.00  0.00    -0.273 OA
ATOM     14  H   UNL     1       5.777 -20.019  20.455  1.00  0.00     0.170 HD
BRANCH  12  15
ATOM     15  C   UNL     1       4.148 -18.253  20.601  1.00  0.00     0.143 C 
ATOM     16  C   UNL     1       3.140 -17.355  21.323  1.00  0.00     0.035 C 
BRANCH  15  17
ATOM     17  N   UNL     1       5.591 -17.988  20.875  1.00  0.00    -0.290 NA
ATOM     18  C   UNL     1       6.472 -18.267  19.720  1.00  0.00     0.101 C 
ATOM     19  C   UNL     1       6.071 -18.759  22.042  1.00  0.00     0.101 C 
ATOM     20  C   UNL     1       7.958 -17.964  20.038  1.00  0.00     0.099 C 
ATOM     21  C   UNL     1       7.558 -18.475  22.362  1.00  0.00     0.099 C 
ATOM     22  N   UNL     1       8.435 -18.730  21.205  1.00  0.00    -0.304 NA
ATOM     23  C   UNL     1       9.822 -18.395  21.517  1.00  0.00     0.105 C 
ENDBRANCH  15  17
ENDBRANCH  12  15
ENDBRANCH   1  11
BRANCH   6  24
ATOM     24  C   UNL     1       5.811 -26.143  23.242  1.00  0.00     0.114 A 
ATOM     25  N   UNL     1       6.930 -26.426  23.953  1.00  0.00    -0.210 NA
ATOM     26  C   UNL     1       4.887 -27.111  22.915  1.00  0.00     0.167 A 
ATOM     27  C   UNL     1       7.126 -27.691  24.347  1.00  0.00     0.228 A 
ATOM     28  C   UNL     1       5.170 -28.377  23.355  1.00  0.00     0.156 A 
ATOM     29  N   UNL     1       6.272 -28.691  24.066  1.00  0.00    -0.218 NA
ATOM     30  F   UNL     1       3.782 -26.875  22.196  1.00  0.00    -0.203 F 
BRANCH  27  31
ATOM     31  N   UNL     1       8.255 -28.067  25.062  1.00  0.00    -0.322 N 
ATOM     32  H   UNL     1       8.254 -29.068  25.206  1.00  0.00     0.170 HD
BRANCH  31  33
ATOM     33  C   UNL     1       9.360 -27.372  25.574  1.00  0.00     0.078 A 
ATOM     34  C   UNL     1       9.815 -26.148  25.070  1.00  0.00     0.029 A 
ATOM     35  C   UNL     1      10.073 -27.941  26.643  1.00  0.00     0.165 A 
ATOM     36  C   UNL     1      10.943 -25.516  25.608  1.00  0.00     0.004 A 
ATOM     37  C   UNL     1      11.192 -27.316  27.182  1.00  0.00     0.104 A 
ATOM     38  C   UNL     1      11.639 -26.100  26.665  1.00  0.00     0.023 A 
ATOM     39  F   UNL     1       9.648 -29.117  27.137  1.00  0.00    -0.203 F 
BRANCH  37  40
ATOM     40  S   UNL     1      12.050 -28.080  28.518  1.00  0.00     0.178 S 
ATOM     41  O   UNL     1      11.667 -29.481  28.523  1.00  0.00    -0.224 OA
ATOM     42  O   UNL     1      11.836 -27.255  29.691  1.00  0.00    -0.224 OA
ATOM     43  C   UNL     1      13.767 -28.029  28.081  1.00  0.00     0.164 C 
ENDBRANCH  37  40
ENDBRANCH  31  33
ENDBRANCH  27  31
ENDBRANCH   6  24
TORSDOF 7
ENDMDL
MODEL 5
REMARK minimizedAffinity -10.7493029
REMARK CNNscore 0.311949223
REMARK CNNaffinity 7.74376297
REMARK SMILES C[C@H](C(=O)Nc1cccc2c(-c3nc(Nc4cccc(S(C)(=O)=O)c4F)ncc3F)c[nH]c12)N1CCN(C)CC1
REMARK SMILES IDX 6 1 7 2 8 3 9 4 10 5 11 6 31 7 32 8 33 9 5 11 3 12 4 13 2 15
REMARK SMILES IDX 1 16 34 17 35 18 40 19 36 20 39 21 37 22 38 23 12 24 13 25
REMARK SMILES IDX 29 26 14 27 28 28 27 29 30 30 15 31 16 33 17 34 25 35 18 36
REMARK SMILES IDX 20 37 19 38 26 39 21 40 23 41 24 42 22 43
REMARK H PARENT 32 10 5 14 15 32
ROOT
ATOM      1  C   UNL     1       5.115 -21.662  20.570  1.00  0.00     0.065 A 
ATOM      2  C   UNL     1       4.933 -22.231  19.296  1.00  0.00     0.028 A 
ATOM      3  C   UNL     1       4.977 -23.608  19.094  1.00  0.00     0.003 A 
ATOM      4  C   UNL     1       5.202 -24.471  20.166  1.00  0.00     0.011 A 
ATOM      5  C   UNL     1       5.398 -23.945  21.461  1.00  0.00     0.011 A 
ATOM      6  C   UNL     1       5.634 -24.540  22.748  1.00  0.00     0.029 A 
ATOM      7  C   UNL     1       5.761 -23.499  23.647  1.00  0.00     0.094 A 
ATOM      8  N   UNL     1       5.589 -22.325  22.967  1.00  0.00    -0.359 N 
ATOM      9  C   UNL     1       5.355 -22.554  21.629  1.00  0.00     0.070 A 
ATOM     10  H   UNL     1       5.623 -21.394  23.372  1.00  0.00     0.166 HD
ENDROOT
BRANCH   1  11
ATOM     11  N   UNL     1       5.015 -20.261  20.653  1.00  0.00    -0.323 N 
ATOM     12  C   UNL     1       3.909 -19.459  20.862  1.00  0.00     0.241 C 
ATOM     13  O   UNL     1       2.763 -19.847  21.081  1.00  0.00    -0.273 OA
ATOM     14  H   UNL     1       5.877 -19.724  20.572  1.00  0.00     0.170 HD
BRANCH  12  15
ATOM     15  C   UNL     1       4.251 -17.953  20.683  1.00  0.00     0.143 C 
ATOM     16  C   UNL     1       5.636 -17.784  20.053  1.00  0.00     0.035 C 
BRANCH  15  17
ATOM     17  N   UNL     1       3.121 -17.255  20.001  1.00  0.00    -0.290 NA
ATOM     18  C   UNL     1       1.901 -17.157  20.832  1.00  0.00     0.101 C 
ATOM     19  C   UNL     1       2.777 -17.908  18.719  1.00  0.00     0.101 C 
ATOM     20  C   UNL     1       0.758 -16.413  20.098  1.00  0.00     0.099 C 
ATOM     21  C   UNL     1       1.627 -17.180  17.982  1.00  0.00     0.099 C 
ATOM     22  N   UNL     1       0.418 -17.060  18.817  1.00  0.00    -0.304 NA
ATOM     23  C   UNL     1      -0.628 -16.317  18.118  1.00  0.00     0.105 C 
ENDBRANCH  15  17
ENDBRANCH  12  15
ENDBRANCH   1  11
BRANCH   6  24
ATOM     24  C   UNL     1       5.755 -25.946  23.112  1.00  0.00     0.114 A 
ATOM     25  N   UNL     1       6.841 -26.262  23.860  1.00  0.00    -0.210 NA
ATOM     26  C   UNL     1       4.843 -26.895  22.710  1.00  0.00     0.167 A 
ATOM     27  C   UNL     1       7.014 -27.542  24.215  1.00  0.00     0.228 A 
ATOM     28  C   UNL     1       5.099 -28.179  23.114  1.00  0.00     0.156 A 
ATOM     29  N   UNL     1       6.168 -28.526  23.861  1.00  0.00    -0.218 NA
ATOM     30  F   UNL     1       3.771 -26.625  21.953  1.00  0.00    -0.203 F 
BRANCH  27  31
ATOM     31  N   UNL     1       8.108 -27.951  24.965  1.00  0.00    -0.322 N 
ATOM     32  H   UNL     1       8.041 -28.941  25.161  1.00  0.00     0.170 HD
BRANCH  31  33
ATOM     33  C   UNL     1       9.250 -27.303  25.456  1.00  0.00     0.078 A 
ATOM     34  C   UNL     1       9.751 -26.103  24.937  1.00  0.00     0.029 A 
ATOM     35  C   UNL     1       9.955 -27.896  26.517  1.00  0.00     0.165 A 
ATOM     36  C   UNL     1      10.914 -25.517  25.453  1.00  0.00     0.004 A 
ATOM     37  C   UNL     1      11.108 -27.318  27.034  1.00  0.00     0.104 A 
ATOM     38  C   UNL     1      11.599 -26.125  26.502  1.00  0.00     0.023 A 
ATOM     39  F   UNL     1       9.487 -29.049  27.025  1.00  0.00    -0.203 F 
BRANCH  37  40
ATOM     40  S   UNL     1      11.953 -28.111  28.361  1.00  0.00     0.178 S 
ATOM     41  O   UNL     1      11.484 -29.485  28.403  1.00  0.00    -0.224 OA
ATOM     42  O   UNL     1      11.823 -27.254  29.525  1.00  0.00    -0.224 OA
ATOM     43  C   UNL     1      13.658 -28.174  27.880  1.00  0.00     0.164 C 
ENDBRANCH  37  40
ENDBRANCH  31  33
ENDBRANCH  27  31
ENDBRANCH   6  24
TORSDOF 7
ENDMDL
MODEL 6
REMARK minimizedAffinity -9.2440443
REMARK CNNscore 0.246165201
REMARK CNNaffinity 7.00210428
REMARK SMILES C[C@H](C(=O)Nc1cccc2c(-c3nc(Nc4cccc(S(C)(=O)=O)c4F)ncc3F)c[nH]c12)N1CCN(C)CC1
REMARK SMILES IDX 6 1 7 2 8 3 9 4 10 5 11 6 31 7 32 8 33 9 5 11 3 12 4 13 2 15
REMARK SMILES IDX 1 16 34 17 35 18 40 19 36 20 39 21 37 22 38 23 12 24 13 25
REMARK SMILES IDX 29 26 14 27 28 28 27 29 30 30 15 31 16 33 17 34 25 35 18 36
REMARK SMILES IDX 20 37 19 38 26 39 21 40 23 41 24 42 22 43
REMARK H PARENT 32 10 5 14 15 32
ROOT
ATOM      1  C   UNL     1       9.754 -26.297  25.265  1.00  0.00     0.065 A 
ATOM      2  C   UNL     1      10.129 -25.038  24.761  1.00  0.00     0.028 A 
ATOM      3  C   UNL     1       9.346 -24.354  23.835  1.00  0.00     0.003 A 
ATOM      4  C   UNL     1       8.149 -24.907  23.380  1.00  0.00     0.011 A 
ATOM      5  C   UNL     1       7.736 -26.171  23.851  1.00  0.00     0.011 A 
ATOM      6  C   UNL     1       6.585 -26.995  23.601  1.00  0.00     0.029 A 
ATOM      7  C   UNL     1       6.752 -28.144  24.350  1.00  0.00     0.094 A 
ATOM      8  N   UNL     1       7.923 -28.032  25.047  1.00  0.00    -0.359 N 
ATOM      9  C   UNL     1       8.552 -26.837  24.776  1.00  0.00     0.070 A 
ATOM     10  H   UNL     1       8.303 -28.725  25.685  1.00  0.00     0.166 HD
ENDROOT
BRANCH   1  11
ATOM     11  N   UNL     1      10.611 -26.873  26.219  1.00  0.00    -0.323 N 
ATOM     12  C   UNL     1      10.687 -26.669  27.584  1.00  0.00     0.241 C 
ATOM     13  O   UNL     1       9.943 -25.954  28.253  1.00  0.00    -0.273 OA
ATOM     14  H   UNL     1      11.279 -27.568  25.891  1.00  0.00     0.170 HD
BRANCH  12  15
ATOM     15  C   UNL     1      11.922 -27.382  28.203  1.00  0.00     0.143 C 
ATOM     16  C   UNL     1      12.476 -28.437  27.240  1.00  0.00     0.035 C 
BRANCH  15  17
ATOM     17  N   UNL     1      12.893 -26.367  28.708  1.00  0.00    -0.290 NA
ATOM     18  C   UNL     1      12.484 -25.744  29.986  1.00  0.00     0.101 C 
ATOM     19  C   UNL     1      13.129 -25.302  27.709  1.00  0.00     0.101 C 
ATOM     20  C   UNL     1      13.524 -24.710  30.485  1.00  0.00     0.099 C 
ATOM     21  C   UNL     1      14.157 -24.256  28.201  1.00  0.00     0.099 C 
ATOM     22  N   UNL     1      13.764 -23.651  29.487  1.00  0.00    -0.304 NA
ATOM     23  C   UNL     1      14.781 -22.713  29.956  1.00  0.00     0.105 C 
ENDBRANCH  15  17
ENDBRANCH  12  15
ENDBRANCH   1  11
BRANCH   6  24
ATOM     24  C   UNL     1       5.443 -26.755  22.728  1.00  0.00     0.114 A 
ATOM     25  N   UNL     1       5.516 -25.633  21.970  1.00  0.00    -0.210 NA
ATOM     26  C   UNL     1       4.355 -27.597  22.686  1.00  0.00     0.167 A 
ATOM     27  C   UNL     1       4.490 -25.352  21.156  1.00  0.00     0.228 A 
ATOM     28  C   UNL     1       3.350 -27.231  21.830  1.00  0.00     0.156 A 
ATOM     29  N   UNL     1       3.393 -26.124  21.060  1.00  0.00    -0.218 NA
ATOM     30  F   UNL     1       4.237 -28.701  23.435  1.00  0.00    -0.203 F 
BRANCH  27  31
ATOM     31  N   UNL     1       4.479 -24.214  20.361  1.00  0.00    -0.322 N 
ATOM     32  H   UNL     1       4.183 -24.452  19.423  1.00  0.00     0.170 HD
BRANCH  31  33
ATOM     33  C   UNL     1       4.753 -22.859  20.595  1.00  0.00     0.078 A 
ATOM     34  C   UNL     1       3.766 -21.876  20.737  1.00  0.00     0.029 A 
ATOM     35  C   UNL     1       6.095 -22.449  20.670  1.00  0.00     0.165 A 
ATOM     36  C   UNL     1       4.104 -20.533  20.941  1.00  0.00     0.004 A 
ATOM     37  C   UNL     1       6.435 -21.117  20.876  1.00  0.00     0.104 A 
ATOM     38  C   UNL     1       5.441 -20.147  21.009  1.00  0.00     0.023 A 
ATOM     39  F   UNL     1       7.053 -23.381  20.534  1.00  0.00    -0.203 F 
BRANCH  37  40
ATOM     40  S   UNL     1       8.135 -20.661  20.955  1.00  0.00     0.178 S 
ATOM     41  O   UNL     1       8.372 -19.715  19.878  1.00  0.00    -0.224 OA
ATOM     42  O   UNL     1       8.904 -21.887  21.039  1.00  0.00    -0.224 OA
ATOM     43  C   UNL     1       8.322 -19.757  22.469  1.00  0.00     0.164 C 
ENDBRANCH  37  40
ENDBRANCH  31  33
ENDBRANCH  27  31
ENDBRANCH   6  24
TORSDOF 7
ENDMDL
MODEL 7
REMARK minimizedAffinity -9.33025742
REMARK CNNscore 0.243518472
REMARK CNNaffinity 7.16266394
REMARK SMILES C[C@H](C(=O)Nc1cccc2c(-c3nc(Nc4cccc(S(C)(=O)=O)c4F)ncc3F)c[nH]c12)N1CCN(C)CC1
REMARK SMILES IDX 6 1 7 2 8 3 9 4 10 5 11 6 31 7 32 8 33 9 5 11 3 12 4 13 2 15
REMARK SMILES IDX 1 16 34 17 35 18 40 19 36 20 39 21 37 22 38 23 12 24 13 25
REMARK SMILES IDX 29 26 14 27 28 28 27 29 30 30 15 31 16 33 17 34 25 35 18 36
REMARK SMILES IDX 20 37 19 38 26 39 21 40 23 41 24 42 22 43
REMARK H PARENT 32 10 5 14 15 32
ROOT
ATOM      1  C   UNL     1       9.660 -25.838  24.894  1.00  0.00     0.065 A 
ATOM      2  C   UNL     1      10.003 -24.566  24.401  1.00  0.00     0.028 A 
ATOM      3  C   UNL     1       9.167 -23.861  23.538  1.00  0.00     0.003 A 
ATOM      4  C   UNL     1       7.948 -24.406  23.138  1.00  0.00     0.011 A 
ATOM      5  C   UNL     1       7.564 -25.683  23.600  1.00  0.00     0.011 A 
ATOM      6  C   UNL     1       6.403 -26.505  23.396  1.00  0.00     0.029 A 
ATOM      7  C   UNL     1       6.613 -27.671  24.105  1.00  0.00     0.094 A 
ATOM      8  N   UNL     1       7.822 -27.573  24.737  1.00  0.00    -0.359 N 
ATOM      9  C   UNL     1       8.432 -26.369  24.461  1.00  0.00     0.070 A 
ATOM     10  H   UNL     1       8.239 -28.280  25.335  1.00  0.00     0.166 HD
ENDROOT
BRANCH   1  11
ATOM     11  N   UNL     1      10.570 -26.435  25.784  1.00  0.00    -0.323 N 
ATOM     12  C   UNL     1      10.599 -26.425  27.166  1.00  0.00     0.241 C 
ATOM     13  O   UNL     1       9.760 -25.915  27.905  1.00  0.00    -0.273 OA
ATOM     14  H   UNL     1      11.327 -26.985  25.382  1.00  0.00     0.170 HD
BRANCH  12  15
ATOM     15  C   UNL     1      11.908 -27.060  27.716  1.00  0.00     0.143 C 
ATOM     16  C   UNL     1      12.430 -28.136  26.761  1.00  0.00     0.035 C 
BRANCH  15  17
ATOM     17  N   UNL     1      12.871 -25.984  28.097  1.00  0.00    -0.290 NA
ATOM     18  C   UNL     1      12.621 -25.418  29.440  1.00  0.00     0.101 C 
ATOM     19  C   UNL     1      12.874 -24.886  27.106  1.00  0.00     0.101 C 
ATOM     20  C   UNL     1      13.650 -24.318  29.806  1.00  0.00     0.099 C 
ATOM     21  C   UNL     1      13.889 -23.775  27.467  1.00  0.00     0.099 C 
ATOM     22  N   UNL     1      13.657 -23.226  28.815  1.00  0.00    -0.304 NA
ATOM     23  C   UNL     1      14.666 -22.224  29.152  1.00  0.00     0.105 C 
ENDBRANCH  15  17
ENDBRANCH  12  15
ENDBRANCH   1  11
BRANCH   6  24
ATOM     24  C   UNL     1       5.212 -26.246  22.595  1.00  0.00     0.114 A 
ATOM     25  N   UNL     1       5.143 -25.012  22.037  1.00  0.00    -0.210 NA
ATOM     26  C   UNL     1       4.216 -27.181  22.429  1.00  0.00     0.167 A 
ATOM     27  C   UNL     1       4.066 -24.711  21.299  1.00  0.00     0.228 A 
ATOM     28  C   UNL     1       3.150 -26.788  21.664  1.00  0.00     0.156 A 
ATOM     29  N   UNL     1       3.051 -25.570  21.092  1.00  0.00    -0.218 NA
ATOM     30  F   UNL     1       4.239 -28.401  22.982  1.00  0.00    -0.203 F 
BRANCH  27  31
ATOM     31  N   UNL     1       3.910 -23.465  20.710  1.00  0.00    -0.322 N 
ATOM     32  H   UNL     1       2.984 -23.387  20.308  1.00  0.00     0.170 HD
BRANCH  31  33
ATOM     33  C   UNL     1       4.728 -22.333  20.591  1.00  0.00     0.078 A 
ATOM     34  C   UNL     1       6.106 -22.388  20.347  1.00  0.00     0.029 A 
ATOM     35  C   UNL     1       4.145 -21.064  20.746  1.00  0.00     0.165 A 
ATOM     36  C   UNL     1       6.876 -21.221  20.266  1.00  0.00     0.004 A 
ATOM     37  C   UNL     1       4.905 -19.902  20.664  1.00  0.00     0.104 A 
ATOM     38  C   UNL     1       6.279 -19.973  20.428  1.00  0.00     0.023 A 
ATOM     39  F   UNL     1       2.824 -20.995  20.982  1.00  0.00    -0.203 F 
BRANCH  37  40
ATOM     40  S   UNL     1       4.121 -18.339  20.874  1.00  0.00     0.178 S 
ATOM     41  O   UNL     1       3.737 -18.239  22.272  1.00  0.00    -0.224 OA
ATOM     42  O   UNL     1       3.123 -18.217  19.828  1.00  0.00    -0.224 OA
ATOM     43  C   UNL     1       5.385 -17.125  20.611  1.00  0.00     0.164 C 
ENDBRANCH  37  40
ENDBRANCH  31  33
ENDBRANCH  27  31
ENDBRANCH   6  24
TORSDOF 7
ENDMDL
MODEL 8
REMARK minimizedAffinity -9.45140743
REMARK CNNscore 0.159577236
REMARK CNNaffinity 6.91414881
REMARK SMILES C[C@H](C(=O)Nc1cccc2c(-c3nc(Nc4cccc(S(C)(=O)=O)c4F)ncc3F)c[nH]c12)N1CCN(C)CC1
REMARK SMILES IDX 6 1 7 2 8 3 9 4 10 5 11 6 31 7 32 8 33 9 5 11 3 12 4 13 2 15
REMARK SMILES IDX 1 16 34 17 35 18 40 19 36 20 39 21 37 22 38 23 12 24 13 25
REMARK SMILES IDX 29 26 14 27 28 28 27 29 30 30 15 31 16 33 17 34 25 35 18 36
REMARK SMILES IDX 20 37 19 38 26 39 21 40 23 41 24 42 22 43
REMARK H PARENT 32 10 5 14 15 32
ROOT
ATOM      1  C   UNL     1       9.938 -24.915  24.704  1.00  0.00     0.065 A 
ATOM      2  C   UNL     1      10.099 -23.622  24.175  1.00  0.00     0.028 A 
ATOM      3  C   UNL     1       9.141 -23.043  23.347  1.00  0.00     0.003 A 
ATOM      4  C   UNL     1       7.978 -23.740  23.020  1.00  0.00     0.011 A 
ATOM      5  C   UNL     1       7.777 -25.044  23.520  1.00  0.00     0.011 A 
ATOM      6  C   UNL     1       6.716 -26.004  23.390  1.00  0.00     0.029 A 
ATOM      7  C   UNL     1       7.103 -27.121  24.104  1.00  0.00     0.094 A 
ATOM      8  N   UNL     1       8.321 -26.864  24.670  1.00  0.00    -0.359 N 
ATOM      9  C   UNL     1       8.765 -25.601  24.345  1.00  0.00     0.070 A 
ATOM     10  H   UNL     1       8.851 -27.502  25.256  1.00  0.00     0.166 HD
ENDROOT
BRANCH   1  11
ATOM     11  N   UNL     1      10.959 -25.379  25.554  1.00  0.00    -0.323 N 
ATOM     12  C   UNL     1      10.889 -25.859  26.848  1.00  0.00     0.241 C 
ATOM     13  O   UNL     1       9.862 -26.030  27.503  1.00  0.00    -0.273 OA
ATOM     14  H   UNL     1      11.907 -25.396  25.182  1.00  0.00     0.170 HD
BRANCH  12  15
ATOM     15  C   UNL     1      12.303 -26.072  27.458  1.00  0.00     0.143 C 
ATOM     16  C   UNL     1      12.200 -26.488  28.928  1.00  0.00     0.035 C 
BRANCH  15  17
ATOM     17  N   UNL     1      13.108 -26.962  26.569  1.00  0.00    -0.290 NA
ATOM     18  C   UNL     1      13.021 -28.393  26.931  1.00  0.00     0.101 C 
ATOM     19  C   UNL     1      14.530 -26.557  26.546  1.00  0.00     0.101 C 
ATOM     20  C   UNL     1      13.856 -29.284  25.977  1.00  0.00     0.099 C 
ATOM     21  C   UNL     1      15.377 -27.448  25.606  1.00  0.00     0.099 C 
ATOM     22  N   UNL     1      15.274 -28.878  25.950  1.00  0.00    -0.304 NA
ATOM     23  C   UNL     1      16.033 -29.699  25.010  1.00  0.00     0.105 C 
ENDBRANCH  15  17
ENDBRANCH  12  15
ENDBRANCH   1  11
BRANCH   6  24
ATOM     24  C   UNL     1       5.464 -25.909  22.649  1.00  0.00     0.114 A 
ATOM     25  N   UNL     1       5.289 -24.762  21.946  1.00  0.00    -0.210 NA
ATOM     26  C   UNL     1       4.514 -26.905  22.673  1.00  0.00     0.167 A 
ATOM     27  C   UNL     1       4.152 -24.612  21.254  1.00  0.00     0.228 A 
ATOM     28  C   UNL     1       3.380 -26.665  21.941  1.00  0.00     0.156 A 
ATOM     29  N   UNL     1       3.176 -25.538  21.230  1.00  0.00    -0.218 NA
ATOM     30  F   UNL     1       4.640 -28.040  23.372  1.00  0.00    -0.203 F 
BRANCH  27  31
ATOM     31  N   UNL     1       3.888 -23.461  20.525  1.00  0.00    -0.322 N 
ATOM     32  H   UNL     1       3.008 -23.558  20.035  1.00  0.00     0.170 HD
BRANCH  31  33
ATOM     33  C   UNL     1       4.551 -22.237  20.362  1.00  0.00     0.078 A 
ATOM     34  C   UNL     1       5.885 -22.119  19.956  1.00  0.00     0.029 A 
ATOM     35  C   UNL     1       3.849 -21.052  20.641  1.00  0.00     0.165 A 
ATOM     36  C   UNL     1       6.501 -20.867  19.838  1.00  0.00     0.004 A 
ATOM     37  C   UNL     1       4.455 -19.806  20.523  1.00  0.00     0.104 A 
ATOM     38  C   UNL     1       5.788 -19.704  20.124  1.00  0.00     0.023 A 
ATOM     39  F   UNL     1       2.567 -21.149  21.033  1.00  0.00    -0.203 F 
BRANCH  37  40
ATOM     40  S   UNL     1       3.527 -18.355  20.893  1.00  0.00     0.178 S 
ATOM     41  O   UNL     1       4.388 -17.217  20.619  1.00  0.00    -0.224 OA
ATOM     42  O   UNL     1       2.951 -18.539  22.212  1.00  0.00    -0.224 OA
ATOM     43  C   UNL     1       2.221 -18.298  19.696  1.00  0.00     0.164 C 
ENDBRANCH  37  40
ENDBRANCH  31  33
ENDBRANCH  27  31
ENDBRANCH   6  24
TORSDOF 7
ENDMDL
MODEL 9
REMARK minimizedAffinity -10.4198666
REMARK CNNscore 0.148272052
REMARK CNNaffinity 6.140522
REMARK SMILES C[C@H](C(=O)Nc1cccc2c(-c3nc(Nc4cccc(S(C)(=O)=O)c4F)ncc3F)c[nH]c12)N1CCN(C)CC1
REMARK SMILES IDX 6 1 7 2 8 3 9 4 10 5 11 6 31 7 32 8 33 9 5 11 3 12 4 13 2 15
REMARK SMILES IDX 1 16 34 17 35 18 40 19 36 20 39 21 37 22 38 23 12 24 13 25
REMARK SMILES IDX 29 26 14 27 28 28 27 29 30 30 15 31 16 33 17 34 25 35 18 36
REMARK SMILES IDX 20 37 19 38 26 39 21 40 23 41 24 42 22 43
REMARK H PARENT 32 10 5 14 15 32
ROOT
ATOM      1  C   UNL     1       9.562 -26.984  25.468  1.00  0.00     0.065 A 
ATOM      2  C   UNL     1       8.885 -28.214  25.566  1.00  0.00     0.028 A 
ATOM      3  C   UNL     1       7.671 -28.437  24.922  1.00  0.00     0.003 A 
ATOM      4  C   UNL     1       7.089 -27.433  24.149  1.00  0.00     0.011 A 
ATOM      5  C   UNL     1       7.727 -26.180  24.028  1.00  0.00     0.011 A 
ATOM      6  C   UNL     1       7.412 -24.970  23.320  1.00  0.00     0.029 A 
ATOM      7  C   UNL     1       8.422 -24.072  23.604  1.00  0.00     0.094 A 
ATOM      8  N   UNL     1       9.327 -24.692  24.419  1.00  0.00    -0.359 N 
ATOM      9  C   UNL     1       8.944 -25.986  24.696  1.00  0.00     0.070 A 
ATOM     10  H   UNL     1      10.178 -24.276  24.787  1.00  0.00     0.166 HD
ENDROOT
BRANCH   1  11
ATOM     11  N   UNL     1      10.796 -26.891  26.137  1.00  0.00    -0.323 N 
ATOM     12  C   UNL     1      11.150 -27.292  27.411  1.00  0.00     0.241 C 
ATOM     13  O   UNL     1      10.429 -27.886  28.211  1.00  0.00    -0.273 OA
ATOM     14  H   UNL     1      11.578 -26.488  25.623  1.00  0.00     0.170 HD
BRANCH  12  15
ATOM     15  C   UNL     1      12.578 -26.807  27.789  1.00  0.00     0.143 C 
ATOM     16  C   UNL     1      12.690 -26.580  29.299  1.00  0.00     0.035 C 
BRANCH  15  17
ATOM     17  N   UNL     1      13.598 -27.708  27.174  1.00  0.00    -0.290 NA
ATOM     18  C   UNL     1      13.713 -27.556  25.708  1.00  0.00     0.101 C 
ATOM     19  C   UNL     1      13.325 -29.127  27.490  1.00  0.00     0.101 C 
ATOM     20  C   UNL     1      14.791 -28.494  25.110  1.00  0.00     0.099 C 
ATOM     21  C   UNL     1      14.389 -30.076  26.887  1.00  0.00     0.099 C 
ATOM     22  N   UNL     1      14.522 -29.909  25.429  1.00  0.00    -0.304 NA
ATOM     23  C   UNL     1      15.574 -30.772  24.897  1.00  0.00     0.105 C 
ENDBRANCH  15  17
ENDBRANCH  12  15
ENDBRANCH   1  11
BRANCH   6  24
ATOM     24  C   UNL     1       6.266 -24.662  22.474  1.00  0.00     0.114 A 
ATOM     25  N   UNL     1       6.207 -23.388  22.014  1.00  0.00    -0.210 NA
ATOM     26  C   UNL     1       5.297 -25.593  22.175  1.00  0.00     0.167 A 
ATOM     27  C   UNL     1       5.169 -23.041  21.241  1.00  0.00     0.228 A 
ATOM     28  C   UNL     1       4.270 -25.152  21.382  1.00  0.00     0.156 A 
ATOM     29  N   UNL     1       4.183 -23.893  20.906  1.00  0.00    -0.218 NA
ATOM     30  F   UNL     1       5.309 -26.854  22.628  1.00  0.00    -0.203 F 
BRANCH  27  31
ATOM     31  N   UNL     1       5.025 -21.753  20.746  1.00  0.00    -0.322 N 
ATOM     32  H   UNL     1       5.463 -21.683  19.836  1.00  0.00     0.170 HD
BRANCH  31  33
ATOM     33  C   UNL     1       4.399 -20.591  21.217  1.00  0.00     0.078 A 
ATOM     34  C   UNL     1       4.245 -20.283  22.574  1.00  0.00     0.029 A 
ATOM     35  C   UNL     1       3.870 -19.686  20.281  1.00  0.00     0.165 A 
ATOM     36  C   UNL     1       3.584 -19.118  22.984  1.00  0.00     0.004 A 
ATOM     37  C   UNL     1       3.216 -18.527  20.683  1.00  0.00     0.104 A 
ATOM     38  C   UNL     1       3.064 -18.237  22.039  1.00  0.00     0.023 A 
ATOM     39  F   UNL     1       4.009 -19.969  18.974  1.00  0.00    -0.203 F 
BRANCH  37  40
ATOM     40  S   UNL     1       2.568 -17.433  19.464  1.00  0.00     0.178 S 
ATOM     41  O   UNL     1       1.401 -18.079  18.889  1.00  0.00    -0.224 OA
ATOM     42  O   UNL     1       3.676 -17.030  18.618  1.00  0.00    -0.224 OA
ATOM     43  C   UNL     1       1.974 -16.018  20.351  1.00  0.00     0.164 C 
ENDBRANCH  37  40
ENDBRANCH  31  33
ENDBRANCH  27  31
ENDBRANCH   6  24
TORSDOF 7
ENDMDL
