MODEL 8
REMARK VINA RESULT:    -7.934      2.641      6.123
REMARK INTER + INTRA:         -10.516
REMARK INTER:                 -10.480
REMARK INTRA:                  -0.035
REMARK UNBOUND:                -0.727
REMARK SMILES FC(F)c1nc2ccccc2n1-c1nc(N2CCOCC2)nc(N2CCOCC2)n1
REMARK SMILES IDX 4 1 5 2 6 3 7 4 8 5 9 6 10 7 11 8 12 9 2 10 1 11 3 12 13 13
REMARK SMILES IDX 30 14 14 15 23 16 15 17 22 18 24 19 29 20 25 21 28 22 26 23
REMARK SMILES IDX 27 24 16 25 21 26 17 27 20 28 18 29 19 30
REMARK H PARENT
ROOT
ATOM      1  C   UNL     1      51.518  -0.356 -43.542  1.00  0.00     0.184 A 
ATOM      2  N   UNL     1      52.505   0.051 -42.780  1.00  0.00    -0.227 NA
ATOM      3  C   UNL     1      53.475   0.464 -43.646  1.00  0.00     0.090 A 
ATOM      4  C   UNL     1      54.736   1.002 -43.355  1.00  0.00     0.030 A 
ATOM      5  C   UNL     1      55.566   1.346 -44.421  1.00  0.00     0.002 A 
ATOM      6  C   UNL     1      55.160   1.159 -45.742  1.00  0.00     0.002 A 
ATOM      7  C   UNL     1      53.910   0.624 -46.063  1.00  0.00     0.029 A 
ATOM      8  C   UNL     1      53.069   0.283 -44.992  1.00  0.00     0.076 A 
ATOM      9  N   UNL     1      51.792  -0.261 -44.905  1.00  0.00    -0.259 N 
ENDROOT
BRANCH   1  10
ATOM     10  C   UNL     1      50.219  -0.890 -42.954  1.00  0.00     0.408 C 
ATOM     11  F   UNL     1      50.436  -1.642 -41.876  1.00  0.00    -0.201 F 
ATOM     12  F   UNL     1      49.371   0.086 -42.624  1.00  0.00    -0.201 F 
ENDBRANCH   1  10
BRANCH   9  13
ATOM     13  C   UNL     1      50.963  -0.640 -45.990  1.00  0.00     0.242 A 
ATOM     14  N   UNL     1      49.853  -1.371 -45.700  1.00  0.00    -0.176 NA
ATOM     15  N   UNL     1      51.333  -0.256 -47.240  1.00  0.00    -0.176 NA
ATOM     16  C   UNL     1      49.083  -1.728 -46.767  1.00  0.00     0.232 A 
ATOM     17  C   UNL     1      50.499  -0.637 -48.249  1.00  0.00     0.232 A 
ATOM     18  N   UNL     1      49.369  -1.376 -48.054  1.00  0.00    -0.176 NA
BRANCH  16  19
ATOM     19  N   UNL     1      47.896  -2.427 -46.521  1.00  0.00    -0.336 N 
ATOM     20  C   UNL     1      46.901  -2.662 -47.590  1.00  0.00     0.148 C 
ATOM     21  C   UNL     1      47.269  -2.437 -45.182  1.00  0.00     0.148 C 
ATOM     22  C   UNL     1      45.877  -3.771 -47.275  1.00  0.00     0.181 C 
ATOM     23  C   UNL     1      46.226  -3.553 -44.972  1.00  0.00     0.181 C 
ATOM     24  O   UNL     1      45.269  -3.532 -46.018  1.00  0.00    -0.378 OA
ENDBRANCH  16  19
BRANCH  17  25
ATOM     25  N   UNL     1      50.861  -0.319 -49.563  1.00  0.00    -0.336 N 
ATOM     26  C   UNL     1      49.848  -0.169 -50.628  1.00  0.00     0.148 C 
ATOM     27  C   UNL     1      52.087   0.453 -49.862  1.00  0.00     0.148 C 
ATOM     28  C   UNL     1      50.413  -0.225 -52.062  1.00  0.00     0.181 C 
ATOM     29  C   UNL     1      52.553   0.371 -51.330  1.00  0.00     0.181 C 
ATOM     30  O   UNL     1      51.484   0.693 -52.202  1.00  0.00    -0.378 OA
ENDBRANCH  17  25
ENDBRANCH   9  13
TORSDOF 4
ENDMDL
