MODEL 1
REMARK VINA RESULT:    -7.097      0.000      0.000
REMARK INTER + INTRA:          -8.632
REMARK INTER:                  -8.134
REMARK INTRA:                  -0.498
REMARK UNBOUND:                -0.498
REMARK SMILES O=C1CS/C(=N\N=C\c2cc(F)ccc2O)N1
REMARK SMILES IDX 9 1 10 2 11 3 12 4 13 5 14 6 15 7 8 8 7 9 6 10 1 11 2 12
REMARK SMILES IDX 17 13 3 14 5 15 4 16 16 18
REMARK H PARENT 17 17 16 19
ROOT
ATOM      1  C   UNL     1      15.070  40.678   7.570  1.00  0.00     0.039 A 
ATOM      2  C   UNL     1      15.823  41.260   6.533  1.00  0.00     0.052 A 
ATOM      3  C   UNL     1      17.214  41.172   6.510  1.00  0.00     0.124 A 
ATOM      4  F   UNL     1      17.911  41.742   5.503  1.00  0.00    -0.207 F 
ATOM      5  C   UNL     1      17.884  40.494   7.524  1.00  0.00     0.043 A 
ATOM      6  C   UNL     1      17.162  39.909   8.560  1.00  0.00     0.050 A 
ATOM      7  C   UNL     1      15.768  39.995   8.589  1.00  0.00     0.124 A 
ENDROOT
BRANCH   1   8
ATOM      8  C   UNL     1      13.595  40.783   7.579  1.00  0.00     0.147 C 
ATOM      9  N   UNL     1      12.917  41.178   8.590  1.00  0.00    -0.156 NA
BRANCH   9  10
ATOM     10  N   UNL     1      11.651  41.201   8.385  1.00  0.00    -0.125 NA
ATOM     11  O   UNL     1       7.697  39.276   9.840  1.00  0.00    -0.274 OA
ATOM     12  C   UNL     1       8.916  39.438   9.839  1.00  0.00     0.236 C 
ATOM     13  N   UNL     1       9.583  40.284   9.047  1.00  0.00    -0.303 N 
ATOM     14  C   UNL     1       9.866  38.692  10.752  1.00  0.00     0.178 C 
ATOM     15  C   UNL     1      10.926  40.415   9.099  1.00  0.00     0.190 C 
ATOM     16  S   UNL     1      11.524  39.268  10.378  1.00  0.00    -0.076 SA
ATOM     17  H   UNL     1       9.061  40.845   8.388  1.00  0.00     0.172 HD
ENDBRANCH   9  10
ENDBRANCH   1   8
BRANCH   7  18
ATOM     18  O   UNL     1      15.123  39.391   9.643  1.00  0.00    -0.507 OA
ATOM     19  H   UNL     1      15.637  39.404  10.454  1.00  0.00     0.293 HD
ENDBRANCH   7  18
TORSDOF 3
ENDMDL
MODEL 2
REMARK VINA RESULT:    -7.061      3.880      7.127
REMARK INTER + INTRA:          -8.590
REMARK INTER:                  -8.089
REMARK INTRA:                  -0.501
REMARK UNBOUND:                -0.498
REMARK SMILES O=C1CS/C(=N\N=C\c2cc(F)ccc2O)N1
REMARK SMILES IDX 9 1 10 2 11 3 12 4 13 5 14 6 15 7 8 8 7 9 6 10 1 11 2 12
REMARK SMILES IDX 17 13 3 14 5 15 4 16 16 18
REMARK H PARENT 17 17 16 19
ROOT
ATOM      1  C   UNL     1      12.728  40.435   7.919  1.00  0.00     0.039 A 
ATOM      2  C   UNL     1      11.418  40.951   7.924  1.00  0.00     0.052 A 
ATOM      3  C   UNL     1      10.371  40.263   8.534  1.00  0.00     0.124 A 
ATOM      4  F   UNL     1       9.123  40.781   8.522  1.00  0.00    -0.207 F 
ATOM      5  C   UNL     1      10.611  39.043   9.159  1.00  0.00     0.043 A 
ATOM      6  C   UNL     1      11.898  38.512   9.169  1.00  0.00     0.050 A 
ATOM      7  C   UNL     1      12.951  39.196   8.558  1.00  0.00     0.124 A 
ENDROOT
BRANCH   1   8
ATOM      8  C   UNL     1      13.826  41.177   7.265  1.00  0.00     0.147 C 
ATOM      9  N   UNL     1      14.990  41.325   7.780  1.00  0.00    -0.156 NA
BRANCH   9  10
ATOM     10  N   UNL     1      15.798  41.998   7.045  1.00  0.00    -0.125 NA
ATOM     11  O   UNL     1      19.863  41.655   4.852  1.00  0.00    -0.274 OA
ATOM     12  C   UNL     1      18.943  41.237   5.552  1.00  0.00     0.236 C 
ATOM     13  N   UNL     1      17.854  41.933   5.895  1.00  0.00    -0.303 N 
ATOM     14  C   UNL     1      18.900  39.844   6.145  1.00  0.00     0.178 C 
ATOM     15  C   UNL     1      16.877  41.412   6.668  1.00  0.00     0.190 C 
ATOM     16  S   UNL     1      17.375  39.710   7.079  1.00  0.00    -0.076 SA
ATOM     17  H   UNL     1      17.761  42.882   5.562  1.00  0.00     0.172 HD
ENDBRANCH   9  10
ENDBRANCH   1   8
BRANCH   7  18
ATOM     18  O   UNL     1      14.195  38.611   8.609  1.00  0.00    -0.507 OA
ATOM     19  H   UNL     1      14.704  38.744   7.805  1.00  0.00     0.293 HD
ENDBRANCH   7  18
TORSDOF 3
ENDMDL
MODEL 3
REMARK VINA RESULT:    -6.801      4.075      7.282
REMARK INTER + INTRA:          -8.293
REMARK INTER:                  -7.798
REMARK INTRA:                  -0.495
REMARK UNBOUND:                -0.498
REMARK SMILES O=C1CS/C(=N\N=C\c2cc(F)ccc2O)N1
REMARK SMILES IDX 9 1 10 2 11 3 12 4 13 5 14 6 15 7 8 8 7 9 6 10 1 11 2 12
REMARK SMILES IDX 17 13 3 14 5 15 4 16 16 18
REMARK H PARENT 17 17 16 19
ROOT
ATOM      1  C   UNL     1      12.730  39.703   8.894  1.00  0.00     0.039 A 
ATOM      2  C   UNL     1      11.719  39.221   9.745  1.00  0.00     0.052 A 
ATOM      3  C   UNL     1      10.397  39.643   9.612  1.00  0.00     0.124 A 
ATOM      4  F   UNL     1       9.446  39.164  10.445  1.00  0.00    -0.207 F 
ATOM      5  C   UNL     1      10.056  40.557   8.620  1.00  0.00     0.043 A 
ATOM      6  C   UNL     1      11.038  41.048   7.764  1.00  0.00     0.050 A 
ATOM      7  C   UNL     1      12.364  40.630   7.894  1.00  0.00     0.124 A 
ENDROOT
BRANCH   1   8
ATOM      8  C   UNL     1      14.127  39.245   9.051  1.00  0.00     0.147 C 
ATOM      9  N   UNL     1      15.139  40.028   9.018  1.00  0.00    -0.156 NA
BRANCH   9  10
ATOM     10  N   UNL     1      16.262  39.427   9.180  1.00  0.00    -0.125 NA
ATOM     11  O   UNL     1      20.226  38.473   6.983  1.00  0.00    -0.274 OA
ATOM     12  C   UNL     1      19.102  38.962   7.078  1.00  0.00     0.236 C 
ATOM     13  N   UNL     1      18.313  38.883   8.156  1.00  0.00    -0.303 N 
ATOM     14  C   UNL     1      18.426  39.744   5.972  1.00  0.00     0.178 C 
ATOM     15  C   UNL     1      17.086  39.446   8.195  1.00  0.00     0.190 C 
ATOM     16  S   UNL     1      16.816  40.246   6.583  1.00  0.00    -0.076 SA
ATOM     17  H   UNL     1      18.649  38.385   8.967  1.00  0.00     0.172 HD
ENDBRANCH   9  10
ENDBRANCH   1   8
BRANCH   7  18
ATOM     18  O   UNL     1      13.279  41.157   7.013  1.00  0.00    -0.507 OA
ATOM     19  H   UNL     1      13.863  40.492   6.638  1.00  0.00     0.293 HD
ENDBRANCH   7  18
TORSDOF 3
ENDMDL
MODEL 4
REMARK VINA RESULT:    -6.644      8.175      9.448
REMARK INTER + INTRA:          -8.113
REMARK INTER:                  -7.706
REMARK INTRA:                  -0.407
REMARK UNBOUND:                -0.498
REMARK SMILES O=C1CS/C(=N\N=C\c2cc(F)ccc2O)N1
REMARK SMILES IDX 9 1 10 2 11 3 12 4 13 5 14 6 15 7 8 8 7 9 6 10 1 11 2 12
REMARK SMILES IDX 17 13 3 14 5 15 4 16 16 18
REMARK H PARENT 17 17 16 19
ROOT
ATOM      1  C   UNL     1      16.845  31.469   7.331  1.00  0.00     0.039 A 
ATOM      2  C   UNL     1      15.971  30.467   6.870  1.00  0.00     0.052 A 
ATOM      3  C   UNL     1      16.454  29.304   6.271  1.00  0.00     0.124 A 
ATOM      4  F   UNL     1      15.591  28.359   5.836  1.00  0.00    -0.207 F 
ATOM      5  C   UNL     1      17.825  29.116   6.121  1.00  0.00     0.043 A 
ATOM      6  C   UNL     1      18.710  30.092   6.570  1.00  0.00     0.050 A 
ATOM      7  C   UNL     1      18.233  31.260   7.170  1.00  0.00     0.124 A 
ENDROOT
BRANCH   1   8
ATOM      8  C   UNL     1      16.316  32.696   7.962  1.00  0.00     0.147 C 
ATOM      9  N   UNL     1      16.916  33.827   7.931  1.00  0.00    -0.156 NA
BRANCH   9  10
ATOM     10  N   UNL     1      16.282  34.764   8.537  1.00  0.00    -0.125 NA
ATOM     11  O   UNL     1      16.451  39.316   9.374  1.00  0.00    -0.274 OA
ATOM     12  C   UNL     1      16.862  38.262   8.893  1.00  0.00     0.236 C 
ATOM     13  N   UNL     1      16.272  37.069   9.026  1.00  0.00    -0.303 N 
ATOM     14  C   UNL     1      18.121  38.150   8.059  1.00  0.00     0.178 C 
ATOM     15  C   UNL     1      16.777  35.948   8.468  1.00  0.00     0.190 C 
ATOM     16  S   UNL     1      18.298  36.427   7.592  1.00  0.00    -0.076 SA
ATOM     17  H   UNL     1      15.419  37.008   9.562  1.00  0.00     0.172 HD
ENDBRANCH   9  10
ENDBRANCH   1   8
BRANCH   7  18
ATOM     18  O   UNL     1      19.166  32.179   7.589  1.00  0.00    -0.507 OA
ATOM     19  H   UNL     1      19.547  31.961   8.444  1.00  0.00     0.293 HD
ENDBRANCH   7  18
TORSDOF 3
ENDMDL
MODEL 5
REMARK VINA RESULT:    -6.544      3.336      7.100
REMARK INTER + INTRA:          -7.998
REMARK INTER:                  -7.747
REMARK INTRA:                  -0.251
REMARK UNBOUND:                -0.498
REMARK SMILES O=C1CS/C(=N\N=C\c2cc(F)ccc2O)N1
REMARK SMILES IDX 9 1 10 2 11 3 12 4 13 5 14 6 15 7 8 8 7 9 6 10 1 11 2 12
REMARK SMILES IDX 17 13 3 14 5 15 4 16 16 18
REMARK H PARENT 17 17 16 19
ROOT
ATOM      1  C   UNL     1      10.857  39.997   9.369  1.00  0.00     0.039 A 
ATOM      2  C   UNL     1      11.274  39.277  10.504  1.00  0.00     0.052 A 
ATOM      3  C   UNL     1      10.368  38.551  11.275  1.00  0.00     0.124 A 
ATOM      4  F   UNL     1      10.798  37.870  12.361  1.00  0.00    -0.207 F 
ATOM      5  C   UNL     1       9.022  38.525  10.925  1.00  0.00     0.043 A 
ATOM      6  C   UNL     1       8.584  39.227   9.806  1.00  0.00     0.050 A 
ATOM      7  C   UNL     1       9.486  39.958   9.030  1.00  0.00     0.124 A 
ENDROOT
BRANCH   1   8
ATOM      8  C   UNL     1      11.831  40.763   8.563  1.00  0.00     0.147 C 
ATOM      9  N   UNL     1      12.950  41.189   9.016  1.00  0.00    -0.156 NA
BRANCH   9  10
ATOM     10  N   UNL     1      13.649  41.827   8.150  1.00  0.00    -0.125 NA
ATOM     11  O   UNL     1      17.805  41.811   6.106  1.00  0.00    -0.274 OA
ATOM     12  C   UNL     1      16.950  41.386   6.880  1.00  0.00     0.236 C 
ATOM     13  N   UNL     1      15.733  41.913   7.052  1.00  0.00    -0.303 N 
ATOM     14  C   UNL     1      17.146  40.180   7.774  1.00  0.00     0.178 C 
ATOM     15  C   UNL     1      14.837  41.395   7.920  1.00  0.00     0.190 C 
ATOM     16  S   UNL     1      15.630  39.960   8.709  1.00  0.00    -0.076 SA
ATOM     17  H   UNL     1      15.476  42.726   6.511  1.00  0.00     0.172 HD
ENDBRANCH   9  10
ENDBRANCH   1   8
BRANCH   7  18
ATOM     18  O   UNL     1       8.982  40.626   7.939  1.00  0.00    -0.507 OA
ATOM     19  H   UNL     1       9.348  40.314   7.108  1.00  0.00     0.293 HD
ENDBRANCH   7  18
TORSDOF 3
ENDMDL
MODEL 6
REMARK VINA RESULT:    -6.523      3.700      7.064
REMARK INTER + INTRA:          -7.975
REMARK INTER:                  -7.724
REMARK INTRA:                  -0.251
REMARK UNBOUND:                -0.498
REMARK SMILES O=C1CS/C(=N\N=C\c2cc(F)ccc2O)N1
REMARK SMILES IDX 9 1 10 2 11 3 12 4 13 5 14 6 15 7 8 8 7 9 6 10 1 11 2 12
REMARK SMILES IDX 17 13 3 14 5 15 4 16 16 18
REMARK H PARENT 17 17 16 19
ROOT
ATOM      1  C   UNL     1      12.854  39.148   9.297  1.00  0.00     0.039 A 
ATOM      2  C   UNL     1      12.199  39.809   8.241  1.00  0.00     0.052 A 
ATOM      3  C   UNL     1      10.843  40.123   8.314  1.00  0.00     0.124 A 
ATOM      4  F   UNL     1      10.240  40.757   7.284  1.00  0.00    -0.207 F 
ATOM      5  C   UNL     1      10.111  39.787   9.448  1.00  0.00     0.043 A 
ATOM      6  C   UNL     1      10.736  39.134  10.506  1.00  0.00     0.050 A 
ATOM      7  C   UNL     1      12.095  38.814  10.439  1.00  0.00     0.124 A 
ENDROOT
BRANCH   1   8
ATOM      8  C   UNL     1      14.293  38.821   9.202  1.00  0.00     0.147 C 
ATOM      9  N   UNL     1      15.228  39.689   9.304  1.00  0.00    -0.156 NA
BRANCH   9  10
ATOM     10  N   UNL     1      16.407  39.194   9.198  1.00  0.00    -0.125 NA
ATOM     11  O   UNL     1      20.119  39.199   6.428  1.00  0.00    -0.274 OA
ATOM     12  C   UNL     1      18.981  39.528   6.756  1.00  0.00     0.236 C 
ATOM     13  N   UNL     1      18.346  39.122   7.861  1.00  0.00    -0.303 N 
ATOM     14  C   UNL     1      18.107  40.462   5.945  1.00  0.00     0.178 C 
ATOM     15  C   UNL     1      17.093  39.524   8.163  1.00  0.00     0.190 C 
ATOM     16  S   UNL     1      16.553  40.633   6.826  1.00  0.00    -0.076 SA
ATOM     17  H   UNL     1      18.823  38.493   8.490  1.00  0.00     0.172 HD
ENDBRANCH   9  10
ENDBRANCH   1   8
BRANCH   7  18
ATOM     18  O   UNL     1      12.644  38.171  11.523  1.00  0.00    -0.507 OA
ATOM     19  H   UNL     1      12.900  38.773  12.226  1.00  0.00     0.293 HD
ENDBRANCH   7  18
TORSDOF 3
ENDMDL
MODEL 7
REMARK VINA RESULT:    -6.394      5.635      6.715
REMARK INTER + INTRA:          -7.827
REMARK INTER:                  -7.335
REMARK INTRA:                  -0.492
REMARK UNBOUND:                -0.498
REMARK SMILES O=C1CS/C(=N\N=C\c2cc(F)ccc2O)N1
REMARK SMILES IDX 9 1 10 2 11 3 12 4 13 5 14 6 15 7 8 8 7 9 6 10 1 11 2 12
REMARK SMILES IDX 17 13 3 14 5 15 4 16 16 18
REMARK H PARENT 17 17 16 19
ROOT
ATOM      1  C   UNL     1      13.632  35.639  13.151  1.00  0.00     0.039 A 
ATOM      2  C   UNL     1      13.765  35.027  14.411  1.00  0.00     0.052 A 
ATOM      3  C   UNL     1      14.900  34.287  14.741  1.00  0.00     0.124 A 
ATOM      4  F   UNL     1      14.999  33.709  15.959  1.00  0.00    -0.207 F 
ATOM      5  C   UNL     1      15.931  34.145  13.817  1.00  0.00     0.043 A 
ATOM      6  C   UNL     1      15.824  34.741  12.564  1.00  0.00     0.050 A 
ATOM      7  C   UNL     1      14.689  35.483  12.227  1.00  0.00     0.124 A 
ENDROOT
BRANCH   1   8
ATOM      8  C   UNL     1      12.422  36.419  12.817  1.00  0.00     0.147 C 
ATOM      9  N   UNL     1      12.442  37.653  12.477  1.00  0.00    -0.156 NA
BRANCH   9  10
ATOM     10  N   UNL     1      11.282  38.138  12.224  1.00  0.00    -0.125 NA
ATOM     11  O   UNL     1       8.908  40.346   8.916  1.00  0.00    -0.274 OA
ATOM     12  C   UNL     1       9.909  39.818   9.396  1.00  0.00     0.236 C 
ATOM     13  N   UNL     1       9.983  39.263  10.611  1.00  0.00    -0.303 N 
ATOM     14  C   UNL     1      11.235  39.710   8.673  1.00  0.00     0.178 C 
ATOM     15  C   UNL     1      11.116  38.696  11.078  1.00  0.00     0.190 C 
ATOM     16  S   UNL     1      12.373  38.867   9.774  1.00  0.00    -0.076 SA
ATOM     17  H   UNL     1       9.161  39.269  11.198  1.00  0.00     0.172 HD
ENDBRANCH   9  10
ENDBRANCH   1   8
BRANCH   7  18
ATOM     18  O   UNL     1      14.654  36.044  10.972  1.00  0.00    -0.507 OA
ATOM     19  H   UNL     1      13.768  36.297  10.700  1.00  0.00     0.293 HD
ENDBRANCH   7  18
TORSDOF 3
ENDMDL
MODEL 8
REMARK VINA RESULT:    -6.352      7.187      8.156
REMARK INTER + INTRA:          -7.778
REMARK INTER:                  -7.354
REMARK INTRA:                  -0.424
REMARK UNBOUND:                -0.498
REMARK SMILES O=C1CS/C(=N\N=C\c2cc(F)ccc2O)N1
REMARK SMILES IDX 9 1 10 2 11 3 12 4 13 5 14 6 15 7 8 8 7 9 6 10 1 11 2 12
REMARK SMILES IDX 17 13 3 14 5 15 4 16 16 18
REMARK H PARENT 17 17 16 19
ROOT
ATOM      1  C   UNL     1      15.348  34.980  14.651  1.00  0.00     0.039 A 
ATOM      2  C   UNL     1      16.630  35.177  15.196  1.00  0.00     0.052 A 
ATOM      3  C   UNL     1      16.922  34.817  16.511  1.00  0.00     0.124 A 
ATOM      4  F   UNL     1      18.163  35.020  17.008  1.00  0.00    -0.207 F 
ATOM      5  C   UNL     1      15.936  34.249  17.311  1.00  0.00     0.043 A 
ATOM      6  C   UNL     1      14.660  34.043  16.795  1.00  0.00     0.050 A 
ATOM      7  C   UNL     1      14.361  34.402  15.479  1.00  0.00     0.124 A 
ENDROOT
BRANCH   1   8
ATOM      8  C   UNL     1      15.055  35.369  13.255  1.00  0.00     0.147 C 
ATOM      9  N   UNL     1      13.917  35.803  12.861  1.00  0.00    -0.156 NA
BRANCH   9  10
ATOM     10  N   UNL     1      13.878  36.089  11.611  1.00  0.00    -0.125 NA
ATOM     11  O   UNL     1      11.667  38.788   8.565  1.00  0.00    -0.274 OA
ATOM     12  C   UNL     1      11.897  38.342   9.687  1.00  0.00     0.236 C 
ATOM     13  N   UNL     1      12.817  37.415   9.977  1.00  0.00    -0.303 N 
ATOM     14  C   UNL     1      11.164  38.783  10.937  1.00  0.00     0.178 C 
ATOM     15  C   UNL     1      13.021  36.969  11.236  1.00  0.00     0.190 C 
ATOM     16  S   UNL     1      11.850  37.855  12.310  1.00  0.00    -0.076 SA
ATOM     17  H   UNL     1      13.377  37.037   9.227  1.00  0.00     0.172 HD
ENDBRANCH   9  10
ENDBRANCH   1   8
BRANCH   7  18
ATOM     18  O   UNL     1      13.080  34.168  15.038  1.00  0.00    -0.507 OA
ATOM     19  H   UNL     1      12.461  34.007  15.755  1.00  0.00     0.293 HD
ENDBRANCH   7  18
TORSDOF 3
ENDMDL
MODEL 9
REMARK VINA RESULT:    -6.320      1.650      2.099
REMARK INTER + INTRA:          -7.742
REMARK INTER:                  -7.274
REMARK INTRA:                  -0.467
REMARK UNBOUND:                -0.498
REMARK SMILES O=C1CS/C(=N\N=C\c2cc(F)ccc2O)N1
REMARK SMILES IDX 9 1 10 2 11 3 12 4 13 5 14 6 15 7 8 8 7 9 6 10 1 11 2 12
REMARK SMILES IDX 17 13 3 14 5 15 4 16 16 18
REMARK H PARENT 17 17 16 19
ROOT
ATOM      1  C   UNL     1      16.903  40.142   7.179  1.00  0.00     0.039 A 
ATOM      2  C   UNL     1      17.800  40.716   6.259  1.00  0.00     0.052 A 
ATOM      3  C   UNL     1      19.027  40.118   5.974  1.00  0.00     0.124 A 
ATOM      4  F   UNL     1      19.870  40.693   5.087  1.00  0.00    -0.207 F 
ATOM      5  C   UNL     1      19.384  38.929   6.602  1.00  0.00     0.043 A 
ATOM      6  C   UNL     1      18.513  38.341   7.515  1.00  0.00     0.050 A 
ATOM      7  C   UNL     1      17.283  38.935   7.806  1.00  0.00     0.124 A 
ENDROOT
BRANCH   1   8
ATOM      8  C   UNL     1      15.607  40.790   7.470  1.00  0.00     0.147 C 
ATOM      9  N   UNL     1      14.982  40.664   8.580  1.00  0.00    -0.156 NA
BRANCH   9  10
ATOM     10  N   UNL     1      13.877  41.314   8.628  1.00  0.00    -0.125 NA
ATOM     11  O   UNL     1       9.313  40.696   9.115  1.00  0.00    -0.274 OA
ATOM     12  C   UNL     1      10.480  40.317   9.035  1.00  0.00     0.236 C 
ATOM     13  N   UNL     1      11.541  41.114   8.864  1.00  0.00    -0.303 N 
ATOM     14  C   UNL     1      10.903  38.866   9.119  1.00  0.00     0.178 C 
ATOM     15  C   UNL     1      12.800  40.631   8.785  1.00  0.00     0.190 C 
ATOM     16  S   UNL     1      12.689  38.823   8.949  1.00  0.00    -0.076 SA
ATOM     17  H   UNL     1      11.393  42.110   8.793  1.00  0.00     0.172 HD
ENDBRANCH   9  10
ENDBRANCH   1   8
BRANCH   7  18
ATOM     18  O   UNL     1      16.475  38.296   8.717  1.00  0.00    -0.507 OA
ATOM     19  H   UNL     1      16.885  37.516   9.098  1.00  0.00     0.293 HD
ENDBRANCH   7  18
TORSDOF 3
ENDMDL
