MODEL 1
REMARK minimizedAffinity -8.83192348
REMARK CNNscore 0.732323706
REMARK CNNaffinity 7.27242613
REMARK SMILES CCO[C@@H](Cc1ccc2c(ccn2Cc2nc(-c3ccccc3Cl)oc2C)c1)C(=O)O
REMARK SMILES IDX 6 1 7 2 8 3 9 4 10 5 11 6 12 7 13 8 28 9 5 10 4 11 3 12 2 13
REMARK SMILES IDX 1 14 29 15 30 16 31 17 14 19 15 20 16 21 26 22 17 23 25 24
REMARK SMILES IDX 27 25 18 26 19 27 23 28 20 29 22 30 21 31 24 32
REMARK H PARENT 31 18
ROOT
ATOM      1  C   UNL     1       5.764   6.417  -6.148  1.00  0.00    -0.044 A 
ATOM      2  C   UNL     1       6.595   7.463  -6.565  1.00  0.00     0.006 A 
ATOM      3  C   UNL     1       7.890   7.223  -7.034  1.00  0.00     0.027 A 
ATOM      4  C   UNL     1       8.342   5.895  -7.078  1.00  0.00     0.048 A 
ATOM      5  C   UNL     1       7.538   4.829  -6.668  1.00  0.00    -0.000 A 
ATOM      6  C   UNL     1       8.294   3.638  -6.843  1.00  0.00     0.028 A 
ATOM      7  C   UNL     1       9.522   3.990  -7.352  1.00  0.00     0.087 A 
ATOM      8  N   UNL     1       9.550   5.359  -7.479  1.00  0.00    -0.341 N 
ATOM      9  C   UNL     1       6.235   5.094  -6.200  1.00  0.00     0.014 A 
ENDROOT
BRANCH   1  10
ATOM     10  C   UNL     1       4.354   6.704  -5.671  1.00  0.00     0.079 C 
BRANCH  10  11
ATOM     11  C   UNL     1       4.316   7.849  -4.647  1.00  0.00     0.231 C 
BRANCH  11  12
ATOM     12  O   UNL     1       3.365   7.513  -3.627  1.00  0.00    -0.366 OA
BRANCH  12  13
ATOM     13  C   UNL     1       3.882   6.580  -2.682  1.00  0.00     0.158 C 
ATOM     14  C   UNL     1       3.029   5.329  -2.731  1.00  0.00     0.035 C 
ENDBRANCH  12  13
ENDBRANCH  11  12
BRANCH  11  15
ATOM     15  C   UNL     1       3.915   9.149  -5.345  1.00  0.00     0.333 C 
ATOM     16  O   UNL     1       3.467   9.277  -6.474  1.00  0.00    -0.249 OA
BRANCH  15  17
ATOM     17  O   UNL     1       4.150  10.251  -4.595  1.00  0.00    -0.479 OA
ATOM     18  H   UNL     1       3.827  10.989  -5.154  1.00  0.00     0.296 HD
ENDBRANCH  15  17
ENDBRANCH  11  15
ENDBRANCH  10  11
ENDBRANCH   1  10
BRANCH   8  19
ATOM     19  C   UNL     1      10.679   6.113  -8.013  1.00  0.00     0.182 C 
BRANCH  19  20
ATOM     20  C   UNL     1      10.517   6.402  -9.461  1.00  0.00     0.102 A 
ATOM     21  N   UNL     1      10.602   7.697  -9.939  1.00  0.00    -0.212 NA
ATOM     22  C   UNL     1      10.260   5.548 -10.514  1.00  0.00     0.126 A 
ATOM     23  C   UNL     1      10.392   7.582 -11.238  1.00  0.00     0.228 A 
ATOM     24  O   UNL     1      10.197   6.295 -11.655  1.00  0.00    -0.441 OA
ATOM     25  C   UNL     1      10.074   4.094 -10.657  1.00  0.00     0.090 C 
BRANCH  23  26
ATOM     26  C   UNL     1      10.438   8.617 -12.264  1.00  0.00     0.056 A 
ATOM     27  C   UNL     1       9.314   9.458 -12.390  1.00  0.00     0.015 A 
ATOM     28  C   UNL     1      11.518   8.821 -13.138  1.00  0.00     0.053 A 
ATOM     29  C   UNL     1       9.277  10.483 -13.337  1.00  0.00     0.001 A 
ATOM     30  C   UNL     1      11.477   9.853 -14.088  1.00  0.00     0.021 A 
ATOM     31  C   UNL     1      10.361  10.684 -14.183  1.00  0.00     0.002 A 
ATOM     32  Cl  UNL     1      12.924   7.810 -13.160  1.00  0.00    -0.083 Cl
ENDBRANCH  23  26
ENDBRANCH  19  20
ENDBRANCH   8  19
TORSDOF 9
ENDMDL
MODEL 2
REMARK minimizedAffinity -7.56076145
REMARK CNNscore 0.673921227
REMARK CNNaffinity 7.09646273
REMARK SMILES CCO[C@@H](Cc1ccc2c(ccn2Cc2nc(-c3ccccc3Cl)oc2C)c1)C(=O)O
REMARK SMILES IDX 6 1 7 2 8 3 9 4 10 5 11 6 12 7 13 8 28 9 5 10 4 11 3 12 2 13
REMARK SMILES IDX 1 14 29 15 30 16 31 17 14 19 15 20 16 21 26 22 17 23 25 24
REMARK SMILES IDX 27 25 18 26 19 27 23 28 20 29 22 30 21 31 24 32
REMARK H PARENT 31 18
ROOT
ATOM      1  C   UNL     1      12.255   1.361  -2.574  1.00  0.00    -0.044 A 
ATOM      2  C   UNL     1      12.418   1.183  -3.952  1.00  0.00     0.006 A 
ATOM      3  C   UNL     1      11.479   1.669  -4.867  1.00  0.00     0.027 A 
ATOM      4  C   UNL     1      10.358   2.348  -4.366  1.00  0.00     0.048 A 
ATOM      5  C   UNL     1      10.165   2.541  -2.996  1.00  0.00    -0.000 A 
ATOM      6  C   UNL     1       8.948   3.258  -2.837  1.00  0.00     0.028 A 
ATOM      7  C   UNL     1       8.429   3.489  -4.091  1.00  0.00     0.087 A 
ATOM      8  N   UNL     1       9.280   2.924  -5.011  1.00  0.00    -0.341 N 
ATOM      9  C   UNL     1      11.125   2.044  -2.093  1.00  0.00     0.014 A 
ENDROOT
BRANCH   1  10
ATOM     10  C   UNL     1      13.304   0.848  -1.608  1.00  0.00     0.079 C 
BRANCH  10  11
ATOM     11  C   UNL     1      14.729   1.140  -2.100  1.00  0.00     0.231 C 
BRANCH  11  12
ATOM     12  O   UNL     1      15.615   1.100  -0.972  1.00  0.00    -0.366 OA
BRANCH  12  13
ATOM     13  C   UNL     1      16.580   2.150  -0.997  1.00  0.00     0.158 C 
ATOM     14  C   UNL     1      17.942   1.539  -1.259  1.00  0.00     0.035 C 
ENDBRANCH  12  13
ENDBRANCH  11  12
BRANCH  11  15
ATOM     15  C   UNL     1      14.772   2.517  -2.764  1.00  0.00     0.333 C 
ATOM     16  O   UNL     1      15.233   2.798  -3.859  1.00  0.00    -0.249 OA
BRANCH  15  17
ATOM     17  O   UNL     1      14.272   3.501  -1.981  1.00  0.00    -0.479 OA
ATOM     18  H   UNL     1      14.343   4.304  -2.539  1.00  0.00     0.296 HD
ENDBRANCH  15  17
ENDBRANCH  11  15
ENDBRANCH  10  11
ENDBRANCH   1  10
BRANCH   8  19
ATOM     19  C   UNL     1       9.086   2.981  -6.455  1.00  0.00     0.182 C 
BRANCH  19  20
ATOM     20  C   UNL     1       8.870   4.372  -6.930  1.00  0.00     0.102 A 
ATOM     21  N   UNL     1       9.777   4.981  -7.778  1.00  0.00    -0.212 NA
ATOM     22  C   UNL     1       7.849   5.258  -6.649  1.00  0.00     0.126 A 
ATOM     23  C   UNL     1       9.284   6.191  -7.970  1.00  0.00     0.228 A 
ATOM     24  O   UNL     1       8.100   6.417  -7.326  1.00  0.00    -0.441 OA
ATOM     25  C   UNL     1       6.617   5.209  -5.843  1.00  0.00     0.090 C 
BRANCH  23  26
ATOM     26  C   UNL     1       9.785   7.252  -8.838  1.00  0.00     0.056 A 
ATOM     27  C   UNL     1       9.707   8.575  -8.358  1.00  0.00     0.015 A 
ATOM     28  C   UNL     1      10.323   7.043 -10.117  1.00  0.00     0.053 A 
ATOM     29  C   UNL     1      10.175   9.650  -9.116  1.00  0.00     0.001 A 
ATOM     30  C   UNL     1      10.792   8.126 -10.876  1.00  0.00     0.021 A 
ATOM     31  C   UNL     1      10.721   9.425 -10.373  1.00  0.00     0.002 A 
ATOM     32  Cl  UNL     1      10.399   5.485 -10.872  1.00  0.00    -0.083 Cl
ENDBRANCH  23  26
ENDBRANCH  19  20
ENDBRANCH   8  19
TORSDOF 9
ENDMDL
MODEL 3
REMARK minimizedAffinity -7.0802536
REMARK CNNscore 0.665911794
REMARK CNNaffinity 7.33537483
REMARK SMILES CCO[C@@H](Cc1ccc2c(ccn2Cc2nc(-c3ccccc3Cl)oc2C)c1)C(=O)O
REMARK SMILES IDX 6 1 7 2 8 3 9 4 10 5 11 6 12 7 13 8 28 9 5 10 4 11 3 12 2 13
REMARK SMILES IDX 1 14 29 15 30 16 31 17 14 19 15 20 16 21 26 22 17 23 25 24
REMARK SMILES IDX 27 25 18 26 19 27 23 28 20 29 22 30 21 31 24 32
REMARK H PARENT 31 18
ROOT
ATOM      1  C   UNL     1       9.622   2.616  -4.537  1.00  0.00    -0.044 A 
ATOM      2  C   UNL     1      10.203   3.871  -4.328  1.00  0.00     0.006 A 
ATOM      3  C   UNL     1      10.278   4.821  -5.351  1.00  0.00     0.027 A 
ATOM      4  C   UNL     1       9.750   4.483  -6.607  1.00  0.00     0.048 A 
ATOM      5  C   UNL     1       9.164   3.238  -6.849  1.00  0.00    -0.000 A 
ATOM      6  C   UNL     1       8.737   3.228  -8.205  1.00  0.00     0.028 A 
ATOM      7  C   UNL     1       9.061   4.446  -8.756  1.00  0.00     0.087 A 
ATOM      8  N   UNL     1       9.685   5.196  -7.788  1.00  0.00    -0.341 N 
ATOM      9  C   UNL     1       9.098   2.297  -5.802  1.00  0.00     0.014 A 
ENDROOT
BRANCH   1  10
ATOM     10  C   UNL     1       9.528   1.617  -3.401  1.00  0.00     0.079 C 
BRANCH  10  11
ATOM     11  C   UNL     1      10.877   0.936  -3.124  1.00  0.00     0.231 C 
BRANCH  11  12
ATOM     12  O   UNL     1      11.878   1.953  -2.984  1.00  0.00    -0.366 OA
BRANCH  12  13
ATOM     13  C   UNL     1      13.097   1.450  -2.440  1.00  0.00     0.158 C 
ATOM     14  C   UNL     1      14.230   2.346  -2.899  1.00  0.00     0.035 C 
ENDBRANCH  12  13
ENDBRANCH  11  12
BRANCH  11  15
ATOM     15  C   UNL     1      11.226  -0.002  -4.281  1.00  0.00     0.333 C 
ATOM     16  O   UNL     1      10.920  -1.178  -4.401  1.00  0.00    -0.249 OA
BRANCH  15  17
ATOM     17  O   UNL     1      12.003   0.581  -5.223  1.00  0.00    -0.479 OA
ATOM     18  H   UNL     1      12.122  -0.120  -5.897  1.00  0.00     0.296 HD
ENDBRANCH  15  17
ENDBRANCH  11  15
ENDBRANCH  10  11
ENDBRANCH   1  10
BRANCH   8  19
ATOM     19  C   UNL     1      10.156   6.563  -7.982  1.00  0.00     0.182 C 
BRANCH  19  20
ATOM     20  C   UNL     1      10.508   6.832  -9.400  1.00  0.00     0.102 A 
ATOM     21  N   UNL     1      10.193   8.041  -9.992  1.00  0.00    -0.212 NA
ATOM     22  C   UNL     1      11.135   6.025 -10.327  1.00  0.00     0.126 A 
ATOM     23  C   UNL     1      10.628   7.922 -11.233  1.00  0.00     0.228 A 
ATOM     24  O   UNL     1      11.230   6.723 -11.497  1.00  0.00    -0.441 OA
ATOM     25  C   UNL     1      11.705   4.666 -10.314  1.00  0.00     0.090 C 
BRANCH  23  26
ATOM     26  C   UNL     1      10.630   8.919 -12.298  1.00  0.00     0.056 A 
ATOM     27  C   UNL     1       9.458   9.682 -12.476  1.00  0.00     0.015 A 
ATOM     28  C   UNL     1      11.712   9.157 -13.160  1.00  0.00     0.053 A 
ATOM     29  C   UNL     1       9.377  10.667 -13.462  1.00  0.00     0.001 A 
ATOM     30  C   UNL     1      11.626  10.148 -14.150  1.00  0.00     0.021 A 
ATOM     31  C   UNL     1      10.463  10.903 -14.297  1.00  0.00     0.002 A 
ATOM     32  Cl  UNL     1      13.179   8.236 -13.118  1.00  0.00    -0.083 Cl
ENDBRANCH  23  26
ENDBRANCH  19  20
ENDBRANCH   8  19
TORSDOF 9
ENDMDL
MODEL 4
REMARK minimizedAffinity -7.77475452
REMARK CNNscore 0.665828168
REMARK CNNaffinity 7.01730967
REMARK SMILES CCO[C@@H](Cc1ccc2c(ccn2Cc2nc(-c3ccccc3Cl)oc2C)c1)C(=O)O
REMARK SMILES IDX 6 1 7 2 8 3 9 4 10 5 11 6 12 7 13 8 28 9 5 10 4 11 3 12 2 13
REMARK SMILES IDX 1 14 29 15 30 16 31 17 14 19 15 20 16 21 26 22 17 23 25 24
REMARK SMILES IDX 27 25 18 26 19 27 23 28 20 29 22 30 21 31 24 32
REMARK H PARENT 31 18
ROOT
ATOM      1  C   UNL     1       5.294   6.283  -5.495  1.00  0.00    -0.044 A 
ATOM      2  C   UNL     1       5.971   5.112  -5.854  1.00  0.00     0.006 A 
ATOM      3  C   UNL     1       7.180   5.153  -6.554  1.00  0.00     0.027 A 
ATOM      4  C   UNL     1       7.706   6.410  -6.892  1.00  0.00     0.048 A 
ATOM      5  C   UNL     1       7.055   7.597  -6.549  1.00  0.00    -0.000 A 
ATOM      6  C   UNL     1       7.851   8.671  -7.034  1.00  0.00     0.028 A 
ATOM      7  C   UNL     1       8.956   8.130  -7.650  1.00  0.00     0.087 A 
ATOM      8  N   UNL     1       8.856   6.762  -7.573  1.00  0.00    -0.341 N 
ATOM      9  C   UNL     1       5.839   7.531  -5.841  1.00  0.00     0.014 A 
ENDROOT
BRANCH   1  10
ATOM     10  C   UNL     1       4.000   6.208  -4.711  1.00  0.00     0.079 C 
BRANCH  10  11
ATOM     11  C   UNL     1       4.250   6.083  -3.200  1.00  0.00     0.231 C 
BRANCH  11  12
ATOM     12  O   UNL     1       3.177   5.326  -2.624  1.00  0.00    -0.366 OA
BRANCH  12  13
ATOM     13  C   UNL     1       3.387   5.042  -1.243  1.00  0.00     0.158 C 
ATOM     14  C   UNL     1       4.539   4.064  -1.127  1.00  0.00     0.035 C 
ENDBRANCH  12  13
ENDBRANCH  11  12
BRANCH  11  15
ATOM     15  C   UNL     1       4.317   7.478  -2.573  1.00  0.00     0.333 C 
ATOM     16  O   UNL     1       3.453   8.341  -2.593  1.00  0.00    -0.249 OA
BRANCH  15  17
ATOM     17  O   UNL     1       5.507   7.742  -1.989  1.00  0.00    -0.479 OA
ATOM     18  H   UNL     1       5.393   8.643  -1.620  1.00  0.00     0.296 HD
ENDBRANCH  15  17
ENDBRANCH  11  15
ENDBRANCH  10  11
ENDBRANCH   1  10
BRANCH   8  19
ATOM     19  C   UNL     1       9.854   5.832  -8.091  1.00  0.00     0.182 C 
BRANCH  19  20
ATOM     20  C   UNL     1      10.193   6.119  -9.509  1.00  0.00     0.102 A 
ATOM     21  N   UNL     1      10.230   7.418  -9.980  1.00  0.00    -0.212 NA
ATOM     22  C   UNL     1      10.493   5.255 -10.542  1.00  0.00     0.126 A 
ATOM     23  C   UNL     1      10.538   7.295 -11.258  1.00  0.00     0.228 A 
ATOM     24  O   UNL     1      10.732   6.003 -11.660  1.00  0.00    -0.441 OA
ATOM     25  C   UNL     1      10.622   3.793 -10.678  1.00  0.00     0.090 C 
BRANCH  23  26
ATOM     26  C   UNL     1      10.785   8.344 -12.242  1.00  0.00     0.056 A 
ATOM     27  C   UNL     1       9.741   9.257 -12.495  1.00  0.00     0.015 A 
ATOM     28  C   UNL     1      11.984   8.494 -12.957  1.00  0.00     0.053 A 
ATOM     29  C   UNL     1       9.895  10.299 -13.411  1.00  0.00     0.001 A 
ATOM     30  C   UNL     1      12.135   9.544 -13.876  1.00  0.00     0.021 A 
ATOM     31  C   UNL     1      11.095  10.445 -14.098  1.00  0.00     0.002 A 
ATOM     32  Cl  UNL     1      13.317   7.397 -12.816  1.00  0.00    -0.083 Cl
ENDBRANCH  23  26
ENDBRANCH  19  20
ENDBRANCH   8  19
TORSDOF 9
ENDMDL
MODEL 5
REMARK minimizedAffinity -6.55112219
REMARK CNNscore 0.60206461
REMARK CNNaffinity 6.87731409
REMARK SMILES CCO[C@@H](Cc1ccc2c(ccn2Cc2nc(-c3ccccc3Cl)oc2C)c1)C(=O)O
REMARK SMILES IDX 6 1 7 2 8 3 9 4 10 5 11 6 12 7 13 8 28 9 5 10 4 11 3 12 2 13
REMARK SMILES IDX 1 14 29 15 30 16 31 17 14 19 15 20 16 21 26 22 17 23 25 24
REMARK SMILES IDX 27 25 18 26 19 27 23 28 20 29 22 30 21 31 24 32
REMARK H PARENT 31 18
ROOT
ATOM      1  C   UNL     1      10.740   2.185  -4.370  1.00  0.00    -0.044 A 
ATOM      2  C   UNL     1      10.287   2.772  -5.557  1.00  0.00     0.006 A 
ATOM      3  C   UNL     1       9.121   3.542  -5.591  1.00  0.00     0.027 A 
ATOM      4  C   UNL     1       8.408   3.716  -4.394  1.00  0.00     0.048 A 
ATOM      5  C   UNL     1       8.834   3.144  -3.193  1.00  0.00    -0.000 A 
ATOM      6  C   UNL     1       7.896   3.516  -2.191  1.00  0.00     0.028 A 
ATOM      7  C   UNL     1       6.934   4.299  -2.786  1.00  0.00     0.087 A 
ATOM      8  N   UNL     1       7.242   4.405  -4.121  1.00  0.00    -0.341 N 
ATOM      9  C   UNL     1      10.013   2.372  -3.182  1.00  0.00     0.014 A 
ENDROOT
BRANCH   1  10
ATOM     10  C   UNL     1      12.023   1.379  -4.358  1.00  0.00     0.079 C 
BRANCH  10  11
ATOM     11  C   UNL     1      12.986   1.849  -3.257  1.00  0.00     0.231 C 
BRANCH  11  12
ATOM     12  O   UNL     1      14.318   1.466  -3.626  1.00  0.00    -0.366 OA
BRANCH  12  13
ATOM     13  C   UNL     1      15.285   2.463  -3.299  1.00  0.00     0.158 C 
ATOM     14  C   UNL     1      16.191   1.912  -2.217  1.00  0.00     0.035 C 
ENDBRANCH  12  13
ENDBRANCH  11  12
BRANCH  11  15
ATOM     15  C   UNL     1      12.596   1.207  -1.924  1.00  0.00     0.333 C 
ATOM     16  O   UNL     1      11.509   1.252  -1.370  1.00  0.00    -0.249 OA
BRANCH  15  17
ATOM     17  O   UNL     1      13.626   0.574  -1.316  1.00  0.00    -0.479 OA
ATOM     18  H   UNL     1      13.225   0.201  -0.503  1.00  0.00     0.296 HD
ENDBRANCH  15  17
ENDBRANCH  11  15
ENDBRANCH  10  11
ENDBRANCH   1  10
BRANCH   8  19
ATOM     19  C   UNL     1       6.469   5.181  -5.085  1.00  0.00     0.182 C 
BRANCH  19  20
ATOM     20  C   UNL     1       5.438   6.019  -4.421  1.00  0.00     0.102 A 
ATOM     21  N   UNL     1       5.009   5.731  -3.138  1.00  0.00    -0.212 NA
ATOM     22  C   UNL     1       4.755   7.124  -4.888  1.00  0.00     0.126 A 
ATOM     23  C   UNL     1       4.096   6.650  -2.884  1.00  0.00     0.228 A 
ATOM     24  O   UNL     1       3.908   7.542  -3.902  1.00  0.00    -0.441 OA
ATOM     25  C   UNL     1       4.764   7.906  -6.136  1.00  0.00     0.090 C 
BRANCH  23  26
ATOM     26  C   UNL     1       3.354   6.882  -1.649  1.00  0.00     0.056 A 
ATOM     27  C   UNL     1       2.979   8.208  -1.355  1.00  0.00     0.015 A 
ATOM     28  C   UNL     1       3.004   5.876  -0.733  1.00  0.00     0.053 A 
ATOM     29  C   UNL     1       2.256   8.519  -0.202  1.00  0.00     0.001 A 
ATOM     30  C   UNL     1       2.277   6.193   0.424  1.00  0.00     0.021 A 
ATOM     31  C   UNL     1       1.901   7.511   0.686  1.00  0.00     0.002 A 
ATOM     32  Cl  UNL     1       3.475   4.220  -0.917  1.00  0.00    -0.083 Cl
ENDBRANCH  23  26
ENDBRANCH  19  20
ENDBRANCH   8  19
TORSDOF 9
ENDMDL
MODEL 6
REMARK minimizedAffinity -6.94316339
REMARK CNNscore 0.572057724
REMARK CNNaffinity 7.29860544
REMARK SMILES CCO[C@@H](Cc1ccc2c(ccn2Cc2nc(-c3ccccc3Cl)oc2C)c1)C(=O)O
REMARK SMILES IDX 6 1 7 2 8 3 9 4 10 5 11 6 12 7 13 8 28 9 5 10 4 11 3 12 2 13
REMARK SMILES IDX 1 14 29 15 30 16 31 17 14 19 15 20 16 21 26 22 17 23 25 24
REMARK SMILES IDX 27 25 18 26 19 27 23 28 20 29 22 30 21 31 24 32
REMARK H PARENT 31 18
ROOT
ATOM      1  C   UNL     1       9.403   2.642  -5.070  1.00  0.00    -0.044 A 
ATOM      2  C   UNL     1       9.972   3.884  -4.771  1.00  0.00     0.006 A 
ATOM      3  C   UNL     1      10.193   4.843  -5.764  1.00  0.00     0.027 A 
ATOM      4  C   UNL     1       9.826   4.528  -7.081  1.00  0.00     0.048 A 
ATOM      5  C   UNL     1       9.256   3.296  -7.413  1.00  0.00    -0.000 A 
ATOM      6  C   UNL     1       9.007   3.309  -8.812  1.00  0.00     0.028 A 
ATOM      7  C   UNL     1       9.418   4.527  -9.302  1.00  0.00     0.087 A 
ATOM      8  N   UNL     1       9.925   5.255  -8.252  1.00  0.00    -0.341 N 
ATOM      9  C   UNL     1       9.040   2.346  -6.395  1.00  0.00     0.014 A 
ENDROOT
BRANCH   1  10
ATOM     10  C   UNL     1       9.148   1.632  -3.968  1.00  0.00     0.079 C 
BRANCH  10  11
ATOM     11  C   UNL     1      10.028   1.893  -2.736  1.00  0.00     0.231 C 
BRANCH  11  12
ATOM     12  O   UNL     1       9.866   3.263  -2.345  1.00  0.00    -0.366 OA
BRANCH  12  13
ATOM     13  C   UNL     1       8.523   3.572  -1.979  1.00  0.00     0.158 C 
ATOM     14  C   UNL     1       8.554   4.667  -0.932  1.00  0.00     0.035 C 
ENDBRANCH  12  13
ENDBRANCH  11  12
BRANCH  11  15
ATOM     15  C   UNL     1      11.491   1.606  -3.079  1.00  0.00     0.333 C 
ATOM     16  O   UNL     1      11.996   0.521  -3.323  1.00  0.00    -0.249 OA
BRANCH  15  17
ATOM     17  O   UNL     1      12.273   2.709  -3.046  1.00  0.00    -0.479 OA
ATOM     18  H   UNL     1      13.158   2.378  -3.305  1.00  0.00     0.296 HD
ENDBRANCH  15  17
ENDBRANCH  11  15
ENDBRANCH  10  11
ENDBRANCH   1  10
BRANCH   8  19
ATOM     19  C   UNL     1      10.439   6.616  -8.366  1.00  0.00     0.182 C 
BRANCH  19  20
ATOM     20  C   UNL     1      10.724   6.983  -9.776  1.00  0.00     0.102 A 
ATOM     21  N   UNL     1      10.281   8.184 -10.300  1.00  0.00    -0.212 NA
ATOM     22  C   UNL     1      11.399   6.284 -10.757  1.00  0.00     0.126 A 
ATOM     23  C   UNL     1      10.690   8.165 -11.555  1.00  0.00     0.228 A 
ATOM     24  O   UNL     1      11.395   7.044 -11.892  1.00  0.00    -0.441 OA
ATOM     25  C   UNL     1      12.094   4.988 -10.824  1.00  0.00     0.090 C 
BRANCH  23  26
ATOM     26  C   UNL     1      10.568   9.207 -12.569  1.00  0.00     0.056 A 
ATOM     27  C   UNL     1       9.312   9.831 -12.713  1.00  0.00     0.015 A 
ATOM     28  C   UNL     1      11.611   9.616 -13.415  1.00  0.00     0.053 A 
ATOM     29  C   UNL     1       9.110  10.847 -13.649  1.00  0.00     0.001 A 
ATOM     30  C   UNL     1      11.403  10.638 -14.355  1.00  0.00     0.021 A 
ATOM     31  C   UNL     1      10.157  11.253 -14.467  1.00  0.00     0.002 A 
ATOM     32  Cl  UNL     1      13.178   8.879 -13.415  1.00  0.00    -0.083 Cl
ENDBRANCH  23  26
ENDBRANCH  19  20
ENDBRANCH   8  19
TORSDOF 9
ENDMDL
MODEL 7
REMARK minimizedAffinity -7.56874704
REMARK CNNscore 0.512545586
REMARK CNNaffinity 7.38734961
REMARK SMILES CCO[C@@H](Cc1ccc2c(ccn2Cc2nc(-c3ccccc3Cl)oc2C)c1)C(=O)O
REMARK SMILES IDX 6 1 7 2 8 3 9 4 10 5 11 6 12 7 13 8 28 9 5 10 4 11 3 12 2 13
REMARK SMILES IDX 1 14 29 15 30 16 31 17 14 19 15 20 16 21 26 22 17 23 25 24
REMARK SMILES IDX 27 25 18 26 19 27 23 28 20 29 22 30 21 31 24 32
REMARK H PARENT 31 18
ROOT
ATOM      1  C   UNL     1      10.205  11.718  -9.536  1.00  0.00    -0.044 A 
ATOM      2  C   UNL     1      10.040  10.331  -9.461  1.00  0.00     0.006 A 
ATOM      3  C   UNL     1      10.123   9.523 -10.599  1.00  0.00     0.027 A 
ATOM      4  C   UNL     1      10.380  10.143 -11.832  1.00  0.00     0.048 A 
ATOM      5  C   UNL     1      10.549  11.525 -11.941  1.00  0.00    -0.000 A 
ATOM      6  C   UNL     1      10.793  11.814 -13.311  1.00  0.00     0.028 A 
ATOM      7  C   UNL     1      10.774  10.625 -14.002  1.00  0.00     0.087 A 
ATOM      8  N   UNL     1      10.510   9.618 -13.104  1.00  0.00    -0.341 N 
ATOM      9  C   UNL     1      10.462  12.319 -10.780  1.00  0.00     0.014 A 
ENDROOT
BRANCH   1  10
ATOM     10  C   UNL     1      10.137  12.566  -8.281  1.00  0.00     0.079 C 
BRANCH  10  11
ATOM     11  C   UNL     1      11.285  12.247  -7.311  1.00  0.00     0.231 C 
BRANCH  11  12
ATOM     12  O   UNL     1      12.419  11.815  -8.076  1.00  0.00    -0.366 OA
BRANCH  12  13
ATOM     13  C   UNL     1      13.630  12.444  -7.663  1.00  0.00     0.158 C 
ATOM     14  C   UNL     1      13.281  13.762  -7.002  1.00  0.00     0.035 C 
ENDBRANCH  12  13
ENDBRANCH  11  12
BRANCH  11  15
ATOM     15  C   UNL     1      10.847  11.149  -6.340  1.00  0.00     0.333 C 
ATOM     16  O   UNL     1      10.380  11.292  -5.221  1.00  0.00    -0.249 OA
BRANCH  15  17
ATOM     17  O   UNL     1      11.070   9.901  -6.812  1.00  0.00    -0.479 OA
ATOM     18  H   UNL     1      10.725   9.317  -6.104  1.00  0.00     0.296 HD
ENDBRANCH  15  17
ENDBRANCH  11  15
ENDBRANCH  10  11
ENDBRANCH   1  10
BRANCH   8  19
ATOM     19  C   UNL     1      10.435   8.203 -13.450  1.00  0.00     0.182 C 
BRANCH  19  20
ATOM     20  C   UNL     1      10.884   7.335 -12.332  1.00  0.00     0.102 A 
ATOM     21  N   UNL     1       9.974   6.806 -11.436  1.00  0.00    -0.212 NA
ATOM     22  C   UNL     1      12.155   6.929 -11.977  1.00  0.00     0.126 A 
ATOM     23  C   UNL     1      10.713   6.118 -10.585  1.00  0.00     0.228 A 
ATOM     24  O   UNL     1      12.050   6.136 -10.870  1.00  0.00    -0.441 OA
ATOM     25  C   UNL     1      13.508   7.141 -12.519  1.00  0.00     0.090 C 
BRANCH  23  26
ATOM     26  C   UNL     1      10.281   5.287  -9.467  1.00  0.00     0.056 A 
ATOM     27  C   UNL     1      10.238   5.884  -8.190  1.00  0.00     0.015 A 
ATOM     28  C   UNL     1       9.918   3.935  -9.576  1.00  0.00     0.053 A 
ATOM     29  C   UNL     1       9.825   5.167  -7.066  1.00  0.00     0.001 A 
ATOM     30  C   UNL     1       9.502   3.218  -8.445  1.00  0.00     0.021 A 
ATOM     31  C   UNL     1       9.452   3.834  -7.194  1.00  0.00     0.002 A 
ATOM     32  Cl  UNL     1      10.007   3.047 -11.061  1.00  0.00    -0.083 Cl
ENDBRANCH  23  26
ENDBRANCH  19  20
ENDBRANCH   8  19
TORSDOF 9
ENDMDL
MODEL 8
REMARK minimizedAffinity -7.51573658
REMARK CNNscore 0.484598488
REMARK CNNaffinity 6.9481926
REMARK SMILES CCO[C@@H](Cc1ccc2c(ccn2Cc2nc(-c3ccccc3Cl)oc2C)c1)C(=O)O
REMARK SMILES IDX 6 1 7 2 8 3 9 4 10 5 11 6 12 7 13 8 28 9 5 10 4 11 3 12 2 13
REMARK SMILES IDX 1 14 29 15 30 16 31 17 14 19 15 20 16 21 26 22 17 23 25 24
REMARK SMILES IDX 27 25 18 26 19 27 23 28 20 29 22 30 21 31 24 32
REMARK H PARENT 31 18
ROOT
ATOM      1  C   UNL     1       5.574   6.065  -5.578  1.00  0.00    -0.044 A 
ATOM      2  C   UNL     1       6.280   4.944  -6.027  1.00  0.00     0.006 A 
ATOM      3  C   UNL     1       7.460   5.072  -6.765  1.00  0.00     0.027 A 
ATOM      4  C   UNL     1       7.926   6.365  -7.048  1.00  0.00     0.048 A 
ATOM      5  C   UNL     1       7.244   7.505  -6.615  1.00  0.00    -0.000 A 
ATOM      6  C   UNL     1       7.981   8.635  -7.064  1.00  0.00     0.028 A 
ATOM      7  C   UNL     1       9.082   8.174  -7.749  1.00  0.00     0.087 A 
ATOM      8  N   UNL     1       9.036   6.800  -7.747  1.00  0.00    -0.341 N 
ATOM      9  C   UNL     1       6.058   7.352  -5.870  1.00  0.00     0.014 A 
ENDROOT
BRANCH   1  10
ATOM     10  C   UNL     1       4.313   5.896  -4.755  1.00  0.00     0.079 C 
BRANCH  10  11
ATOM     11  C   UNL     1       3.880   7.212  -4.090  1.00  0.00     0.231 C 
BRANCH  11  12
ATOM     12  O   UNL     1       4.183   8.292  -4.983  1.00  0.00    -0.366 OA
BRANCH  12  13
ATOM     13  C   UNL     1       3.015   8.973  -5.435  1.00  0.00     0.158 C 
ATOM     14  C   UNL     1       2.431   8.198  -6.599  1.00  0.00     0.035 C 
ENDBRANCH  12  13
ENDBRANCH  11  12
BRANCH  11  15
ATOM     15  C   UNL     1       4.626   7.388  -2.766  1.00  0.00     0.333 C 
ATOM     16  O   UNL     1       5.279   6.549  -2.165  1.00  0.00    -0.249 OA
BRANCH  15  17
ATOM     17  O   UNL     1       4.467   8.618  -2.225  1.00  0.00    -0.479 OA
ATOM     18  H   UNL     1       5.011   8.589  -1.410  1.00  0.00     0.296 HD
ENDBRANCH  15  17
ENDBRANCH  11  15
ENDBRANCH  10  11
ENDBRANCH   1  10
BRANCH   8  19
ATOM     19  C   UNL     1      10.048   5.941  -8.352  1.00  0.00     0.182 C 
BRANCH  19  20
ATOM     20  C   UNL     1      10.381   6.370  -9.735  1.00  0.00     0.102 A 
ATOM     21  N   UNL     1      10.339   7.705 -10.093  1.00  0.00    -0.212 NA
ATOM     22  C   UNL     1      10.747   5.619 -10.834  1.00  0.00     0.126 A 
ATOM     23  C   UNL     1      10.668   7.712 -11.372  1.00  0.00     0.228 A 
ATOM     24  O   UNL     1      10.948   6.474 -11.879  1.00  0.00    -0.441 OA
ATOM     25  C   UNL     1      10.971   4.186 -11.091  1.00  0.00     0.090 C 
BRANCH  23  26
ATOM     26  C   UNL     1      10.856   8.855 -12.259  1.00  0.00     0.056 A 
ATOM     27  C   UNL     1      11.184   8.587 -13.604  1.00  0.00     0.015 A 
ATOM     28  C   UNL     1      10.746  10.196 -11.859  1.00  0.00     0.053 A 
ATOM     29  C   UNL     1      11.370   9.620 -14.524  1.00  0.00     0.001 A 
ATOM     30  C   UNL     1      10.933  11.231 -12.788  1.00  0.00     0.021 A 
ATOM     31  C   UNL     1      11.239  10.942 -14.118  1.00  0.00     0.002 A 
ATOM     32  Cl  UNL     1      10.438  10.676 -10.223  1.00  0.00    -0.083 Cl
ENDBRANCH  23  26
ENDBRANCH  19  20
ENDBRANCH   8  19
TORSDOF 9
ENDMDL
MODEL 9
REMARK minimizedAffinity -7.11536598
REMARK CNNscore 0.462159842
REMARK CNNaffinity 7.13092279
REMARK SMILES CCO[C@@H](Cc1ccc2c(ccn2Cc2nc(-c3ccccc3Cl)oc2C)c1)C(=O)O
REMARK SMILES IDX 6 1 7 2 8 3 9 4 10 5 11 6 12 7 13 8 28 9 5 10 4 11 3 12 2 13
REMARK SMILES IDX 1 14 29 15 30 16 31 17 14 19 15 20 16 21 26 22 17 23 25 24
REMARK SMILES IDX 27 25 18 26 19 27 23 28 20 29 22 30 21 31 24 32
REMARK H PARENT 31 18
ROOT
ATOM      1  C   UNL     1      10.372  11.230  -8.337  1.00  0.00    -0.044 A 
ATOM      2  C   UNL     1      10.259   9.847  -8.518  1.00  0.00     0.006 A 
ATOM      3  C   UNL     1      10.235   9.278  -9.795  1.00  0.00     0.027 A 
ATOM      4  C   UNL     1      10.328  10.135 -10.902  1.00  0.00     0.048 A 
ATOM      5  C   UNL     1      10.441  11.520 -10.756  1.00  0.00    -0.000 A 
ATOM      6  C   UNL     1      10.516  12.078 -12.061  1.00  0.00     0.028 A 
ATOM      7  C   UNL     1      10.453  11.044 -12.966  1.00  0.00     0.087 A 
ATOM      8  N   UNL     1      10.325   9.872 -12.259  1.00  0.00    -0.341 N 
ATOM      9  C   UNL     1      10.466  12.071  -9.460  1.00  0.00     0.014 A 
ENDROOT
BRANCH   1  10
ATOM     10  C   UNL     1      10.425  11.816  -6.941  1.00  0.00     0.079 C 
BRANCH  10  11
ATOM     11  C   UNL     1      11.055  13.218  -6.930  1.00  0.00     0.231 C 
BRANCH  11  12
ATOM     12  O   UNL     1      10.567  13.942  -8.068  1.00  0.00    -0.366 OA
BRANCH  12  13
ATOM     13  C   UNL     1       9.789  15.079  -7.701  1.00  0.00     0.158 C 
ATOM     14  C   UNL     1       8.553  15.115  -8.577  1.00  0.00     0.035 C 
ENDBRANCH  12  13
ENDBRANCH  11  12
BRANCH  11  15
ATOM     15  C   UNL     1      12.579  13.097  -6.987  1.00  0.00     0.333 C 
ATOM     16  O   UNL     1      13.233  12.228  -7.540  1.00  0.00    -0.249 OA
BRANCH  15  17
ATOM     17  O   UNL     1      13.216  14.064  -6.287  1.00  0.00    -0.479 OA
ATOM     18  H   UNL     1      14.166  13.873  -6.434  1.00  0.00     0.296 HD
ENDBRANCH  15  17
ENDBRANCH  11  15
ENDBRANCH  10  11
ENDBRANCH   1  10
BRANCH   8  19
ATOM     19  C   UNL     1      10.254   8.547 -12.867  1.00  0.00     0.182 C 
BRANCH  19  20
ATOM     20  C   UNL     1      10.708   7.485 -11.933  1.00  0.00     0.102 A 
ATOM     21  N   UNL     1       9.859   6.984 -10.963  1.00  0.00    -0.212 NA
ATOM     22  C   UNL     1      11.931   6.853 -11.834  1.00  0.00     0.126 A 
ATOM     23  C   UNL     1      10.588   6.091 -10.319  1.00  0.00     0.228 A 
ATOM     24  O   UNL     1      11.855   5.948 -10.814  1.00  0.00    -0.441 OA
ATOM     25  C   UNL     1      13.209   6.931 -12.562  1.00  0.00     0.090 C 
BRANCH  23  26
ATOM     26  C   UNL     1      10.189   5.195  -9.240  1.00  0.00     0.056 A 
ATOM     27  C   UNL     1      10.126   5.732  -7.938  1.00  0.00     0.015 A 
ATOM     28  C   UNL     1       9.876   3.837  -9.411  1.00  0.00     0.053 A 
ATOM     29  C   UNL     1       9.741   4.950  -6.848  1.00  0.00     0.001 A 
ATOM     30  C   UNL     1       9.488   3.054  -8.312  1.00  0.00     0.021 A 
ATOM     31  C   UNL     1       9.417   3.612  -7.035  1.00  0.00     0.002 A 
ATOM     32  Cl  UNL     1       9.995   3.020 -10.933  1.00  0.00    -0.083 Cl
ENDBRANCH  23  26
ENDBRANCH  19  20
ENDBRANCH   8  19
TORSDOF 9
ENDMDL
