REMARK VINA RESULT:    -9.671      2.211      3.477
REMARK INTER + INTRA:         -14.592
REMARK INTER:                 -13.653
REMARK INTRA:                  -0.940
REMARK UNBOUND:                -1.246
REMARK SMILES COc1ccc2c(ccn2S(=O)(=O)c2cccc(C(=O)Nc3ccc(Cl)cc3C(=O)O)c2)c1C
REMARK SMILES IDX 14 1 15 2 16 3 17 4 18 5 32 6 11 7 12 8 13 9 10 10 3 11 4 12
REMARK SMILES IDX 33 13 5 14 7 15 6 16 8 17 9 18 34 19 2 20 1 21 19 22 20 23
REMARK SMILES IDX 21 24 22 26 23 27 28 28 24 29 27 30 25 31 26 32 29 33 30 34
REMARK SMILES IDX 31 35
REMARK H PARENT 21 25 31 36
ROOT
ATOM      1  C   UNL     1      41.459 -38.677 106.460  1.00  0.00     0.089 A 
ATOM      2  C   UNL     1      40.126 -39.083 106.582  1.00  0.00     0.022 A 
ATOM      3  C   UNL     1      39.430 -39.509 105.451  1.00  0.00     0.002 A 
ATOM      4  C   UNL     1      40.065 -39.526 104.208  1.00  0.00     0.014 A 
ATOM      5  C   UNL     1      41.396 -39.108 104.084  1.00  0.00     0.041 A 
ATOM      6  C   UNL     1      42.107 -38.696 105.218  1.00  0.00     0.036 A 
ENDROOT
BRANCH   1   7
ATOM      7  S   UNL     1      42.355 -38.173 107.907  1.00  0.00     0.268 S 
ATOM      8  O   UNL     1      41.561 -38.505 109.071  1.00  0.00    -0.201 OA
ATOM      9  O   UNL     1      42.879 -36.839 107.687  1.00  0.00    -0.201 OA
BRANCH   7  10
ATOM     10  N   UNL     1      43.719 -39.200 107.899  1.00  0.00    -0.241 N 
ATOM     11  C   UNL     1      47.836 -38.649 108.013  1.00  0.00     0.122 A 
ATOM     12  C   UNL     1      47.071 -37.506 107.791  1.00  0.00     0.049 A 
ATOM     13  C   UNL     1      47.213 -39.907 108.192  1.00  0.00     0.000 A 
ATOM     14  C   UNL     1      45.675 -37.565 107.745  1.00  0.00     0.032 A 
ATOM     15  C   UNL     1      45.796 -39.976 108.132  1.00  0.00     0.007 A 
ATOM     16  C   UNL     1      45.046 -38.808 107.916  1.00  0.00     0.065 A 
ATOM     17  C   UNL     1      44.869 -41.056 108.253  1.00  0.00     0.030 A 
ATOM     18  C   UNL     1      43.600 -40.549 108.119  1.00  0.00     0.105 A 
ATOM     19  C   UNL     1      48.075 -41.124 108.429  1.00  0.00     0.049 C 
BRANCH  11  20
ATOM     20  O   UNL     1      49.206 -38.661 108.094  1.00  0.00    -0.496 OA
ATOM     21  C   UNL     1      49.924 -37.683 107.352  1.00  0.00     0.278 C 
ENDBRANCH  11  20
ENDBRANCH   7  10
ENDBRANCH   1   7
BRANCH   5  22
ATOM     22  C   UNL     1      42.030 -39.164 102.737  1.00  0.00     0.255 C 
ATOM     23  O   UNL     1      42.075 -38.133 102.077  1.00  0.00    -0.269 OA
ATOM     24  N   UNL     1      42.542 -40.397 102.384  1.00  0.00    -0.321 N 
ATOM     25  H   UNL     1      42.553 -41.125 103.099  1.00  0.00     0.170 HD
BRANCH  24  26
ATOM     26  C   UNL     1      43.140 -40.784 101.161  1.00  0.00     0.056 A 
ATOM     27  C   UNL     1      42.634 -40.359  99.925  1.00  0.00     0.028 A 
ATOM     28  C   UNL     1      44.268 -41.641 101.166  1.00  0.00     0.084 A 
ATOM     29  C   UNL     1      43.227 -40.759  98.722  1.00  0.00     0.023 A 
ATOM     30  C   UNL     1      44.856 -42.038  99.950  1.00  0.00     0.038 A 
ATOM     31  C   UNL     1      44.334 -41.597  98.739  1.00  0.00     0.042 A 
ATOM     32  Cl  UNL     1      45.061 -42.090  97.262  1.00  0.00    -0.084 Cl
BRANCH  28  33
ATOM     33  C   UNL     1      44.908 -42.196 102.390  1.00  0.00     0.337 C 
ATOM     34  O   UNL     1      46.108 -42.250 102.591  1.00  0.00    -0.246 OA
BRANCH  33  35
ATOM     35  O   UNL     1      44.040 -42.660 103.313  1.00  0.00    -0.478 OA
ATOM     36  H   UNL     1      44.586 -42.692 104.134  1.00  0.00     0.297 HD
ENDBRANCH  33  35
ENDBRANCH  28  33
ENDBRANCH  24  26
ENDBRANCH   5  22
TORSDOF 7
