MODEL 1
REMARK VINA RESULT:    -9.920      0.000      0.000
REMARK INTER + INTRA:         -17.653
REMARK INTER:                 -16.879
REMARK INTRA:                  -0.774
REMARK UNBOUND:                -0.774
REMARK SMILES COCCCN1C[C@@H]2CN(C(=O)Cn3cc(NC(=O)c4cnn5cccnc45)c(-c4cc(Cl)ccc4OC(F)F)n3)C[C@@H]2C1
REMARK SMILES IDX 11 1 12 2 10 3 6 4 7 5 44 6 8 7 43 8 9 9 42 10 5 11 4 12
REMARK SMILES IDX 3 13 2 14 1 15 13 16 14 17 15 18 41 19 16 20 29 21 17 22
REMARK SMILES IDX 18 23 19 24 20 26 21 27 28 28 22 29 27 30 23 31 26 32 24 33
REMARK SMILES IDX 25 34 30 35 31 36 36 37 32 38 35 39 34 40 33 41 37 42 38 43
REMARK SMILES IDX 39 44 40 45
REMARK H PARENT 17 25
ROOT
ATOM      1  C   UNL     1       4.516 -19.887  21.611  1.00  0.00     0.244 C 
ATOM      2  O   UNL     1       4.211 -20.078  22.789  1.00  0.00    -0.273 OA
ENDROOT
BRANCH   1   3
ATOM      3  N   UNL     1       3.923 -18.879  20.872  1.00  0.00    -0.340 N 
ATOM      4  N   UNL     1       0.941 -16.724  20.098  1.00  0.00    -0.303 NA
ATOM      5  C   UNL     1       1.455 -17.346  18.876  1.00  0.00     0.090 C 
ATOM      6  C   UNL     1       2.014 -15.832  20.561  1.00  0.00     0.090 C 
ATOM      7  C   UNL     1       2.950 -17.556  19.148  1.00  0.00     0.029 C 
ATOM      8  C   UNL     1       3.258 -16.681  20.373  1.00  0.00     0.029 C 
ATOM      9  C   UNL     1       3.357 -18.978  19.539  1.00  0.00     0.124 C 
ATOM     10  C   UNL     1       3.502 -17.657  21.516  1.00  0.00     0.124 C 
BRANCH   4  11
ATOM     11  C   UNL     1      -0.319 -15.991  19.926  1.00  0.00     0.087 C 
BRANCH  11  12
ATOM     12  C   UNL     1      -1.222 -16.579  18.834  1.00  0.00     0.044 C 
BRANCH  12  13
ATOM     13  C   UNL     1      -1.867 -15.464  18.013  1.00  0.00     0.161 C 
BRANCH  13  14
ATOM     14  O   UNL     1      -3.284 -15.616  18.050  1.00  0.00    -0.385 OA
ATOM     15  C   UNL     1      -3.674 -16.981  18.146  1.00  0.00     0.194 C 
ENDBRANCH  13  14
ENDBRANCH  12  13
ENDBRANCH  11  12
ENDBRANCH   4  11
ENDBRANCH   1   3
BRANCH   1  16
ATOM     16  C   UNL     1       5.586 -20.722  20.941  1.00  0.00     0.244 C 
BRANCH  16  17
ATOM     17  N   UNL     1       5.687 -22.045  21.531  1.00  0.00    -0.261 N 
ATOM     18  C   UNL     1       6.654 -22.497  22.382  1.00  0.00     0.136 A 
ATOM     19  N   UNL     1       4.827 -23.012  21.149  1.00  0.00    -0.170 NA
ATOM     20  C   UNL     1       6.342 -23.803  22.670  1.00  0.00     0.088 A 
ATOM     21  C   UNL     1       5.171 -24.072  21.898  1.00  0.00     0.120 A 
BRANCH  20  22
ATOM     22  N   UNL     1       7.007 -24.668  23.520  1.00  0.00    -0.319 N 
ATOM     23  C   UNL     1       8.182 -25.335  23.239  1.00  0.00     0.261 C 
ATOM     24  O   UNL     1       8.819 -25.261  22.194  1.00  0.00    -0.269 OA
ATOM     25  H   UNL     1       6.569 -24.860  24.420  1.00  0.00     0.170 HD
BRANCH  23  26
ATOM     26  C   UNL     1       8.635 -26.196  24.318  1.00  0.00     0.104 A 
ATOM     27  C   UNL     1       8.054 -27.410  24.744  1.00  0.00     0.151 A 
ATOM     28  C   UNL     1       9.723 -26.030  25.153  1.00  0.00     0.167 A 
ATOM     29  N   UNL     1       8.700 -27.978  25.763  1.00  0.00    -0.174 NA
ATOM     30  N   UNL     1      10.679 -25.043  25.229  1.00  0.00    -0.236 NA
ATOM     31  N   UNL     1       9.733 -27.139  26.009  1.00  0.00    -0.222 N 
ATOM     32  C   UNL     1      11.594 -25.214  26.139  1.00  0.00     0.115 A 
ATOM     33  C   UNL     1      10.728 -27.282  26.967  1.00  0.00     0.117 A 
ATOM     34  C   UNL     1      11.693 -26.360  27.084  1.00  0.00     0.040 A 
ENDBRANCH  23  26
ENDBRANCH  20  22
BRANCH  21  35
ATOM     35  C   UNL     1       4.429 -25.323  21.817  1.00  0.00     0.048 A 
ATOM     36  C   UNL     1       4.949 -26.455  22.465  1.00  0.00     0.035 A 
ATOM     37  C   UNL     1       3.198 -25.410  21.139  1.00  0.00     0.135 A 
ATOM     38  C   UNL     1       4.260 -27.665  22.418  1.00  0.00     0.041 A 
ATOM     39  C   UNL     1       2.532 -26.642  21.075  1.00  0.00     0.049 A 
ATOM     40  C   UNL     1       3.059 -27.765  21.719  1.00  0.00     0.024 A 
ATOM     41  Cl  UNL     1       4.897 -29.044  23.225  1.00  0.00    -0.084 Cl
BRANCH  37  42
ATOM     42  O   UNL     1       2.721 -24.277  20.532  1.00  0.00    -0.434 OA
BRANCH  42  43
ATOM     43  C   UNL     1       1.327 -24.060  20.668  1.00  0.00     0.542 C 
ATOM     44  F   UNL     1       1.129 -22.726  20.794  1.00  0.00    -0.167 F 
ATOM     45  F   UNL     1       0.706 -24.439  19.522  1.00  0.00    -0.167 F 
ENDBRANCH  42  43
ENDBRANCH  37  42
ENDBRANCH  21  35
ENDBRANCH  16  17
ENDBRANCH   1  16
TORSDOF 12
ENDMDL
