MODEL 3
REMARK VINA RESULT:    -8.195      2.917      8.366
REMARK INTER + INTRA:         -15.438
REMARK INTER:                 -13.181
REMARK INTRA:                  -2.257
REMARK UNBOUND:                -1.973
REMARK SMILES COC(=O)C[C@H](CCCCc1ccc(NC(=N)N)cc1)c1cccc(C(=N)N)c1
REMARK SMILES IDX 7 1 6 2 5 3 3 4 4 5 2 6 1 7 21 8 22 9 29 10 23 11 25 12
REMARK SMILES IDX 24 13 26 14 27 15 28 16 8 20 9 21 10 22 11 23 12 24 20 25
REMARK SMILES IDX 13 26 19 27 14 28 15 29 16 30 17 31 18 32
REMARK H PARENT 27 17 28 18 28 19 15 33 17 34 18 35 18 36
ROOT
ATOM      1  C   UNL     1     130.906 -17.386 164.778  1.00  0.00     0.009 C 
ENDROOT
BRANCH   1   2
ATOM      2  C   UNL     1     131.831 -16.192 164.448  1.00  0.00     0.030 C 
BRANCH   2   3
ATOM      3  C   UNL     1     131.047 -14.902 164.162  1.00  0.00     0.131 C 
BRANCH   3   4
ATOM      4  C   UNL     1     131.080 -14.565 162.692  1.00  0.00     0.306 C 
ATOM      5  O   UNL     1     130.287 -13.812 162.145  1.00  0.00    -0.252 OA
BRANCH   4   6
ATOM      6  O   UNL     1     132.106 -15.215 162.076  1.00  0.00    -0.469 OA
ATOM      7  C   UNL     1     133.283 -14.420 161.924  1.00  0.00     0.282 C 
ENDBRANCH   4   6
ENDBRANCH   3   4
ENDBRANCH   2   3
BRANCH   2   8
ATOM      8  C   UNL     1     132.844 -16.002 165.574  1.00  0.00    -0.044 A 
ATOM      9  C   UNL     1     132.391 -15.741 166.877  1.00  0.00     0.004 A 
ATOM     10  C   UNL     1     134.229 -16.081 165.346  1.00  0.00     0.016 A 
ATOM     11  C   UNL     1     133.295 -15.556 167.924  1.00  0.00     0.001 A 
ATOM     12  C   UNL     1     135.139 -15.912 166.400  1.00  0.00     0.016 A 
ATOM     13  C   UNL     1     134.666 -15.638 167.686  1.00  0.00     0.012 A 
BRANCH  12  14
ATOM     14  C   UNL     1     136.609 -16.019 166.163  1.00  0.00     0.122 C 
ATOM     15  N   UNL     1     137.340 -14.952 166.190  1.00  0.00    -0.284 NA
ATOM     16  N   UNL     1     137.189 -17.236 165.937  1.00  0.00    -0.384 N 
ATOM     17  H   UNL     1     138.309 -15.189 165.977  1.00  0.00     0.189 HD
ATOM     18  H   UNL     1     138.187 -17.275 166.101  1.00  0.00     0.158 HD
ATOM     19  H   UNL     1     136.717 -18.026 166.365  1.00  0.00     0.158 HD
ENDBRANCH  12  14
ENDBRANCH   2   8
ENDBRANCH   1   2
BRANCH   1  20
ATOM     20  C   UNL     1     130.876 -18.518 163.742  1.00  0.00     0.001 C 
BRANCH  20  21
ATOM     21  C   UNL     1     129.513 -19.201 163.619  1.00  0.00     0.005 C 
BRANCH  21  22
ATOM     22  C   UNL     1     128.898 -18.966 162.237  1.00  0.00     0.035 C 
BRANCH  22  23
ATOM     23  C   UNL     1     128.198 -17.633 162.160  1.00  0.00    -0.048 A 
ATOM     24  C   UNL     1     127.593 -17.078 163.291  1.00  0.00     0.006 A 
ATOM     25  C   UNL     1     128.160 -16.915 160.961  1.00  0.00     0.006 A 
ATOM     26  C   UNL     1     126.964 -15.831 163.218  1.00  0.00     0.026 A 
ATOM     27  C   UNL     1     127.526 -15.669 160.895  1.00  0.00     0.026 A 
ATOM     28  C   UNL     1     126.936 -15.092 162.023  1.00  0.00     0.041 A 
BRANCH  28  29
ATOM     29  N   UNL     1     126.241 -13.865 162.007  1.00  0.00    -0.327 N 
ATOM     30  C   UNL     1     126.638 -12.651 162.478  1.00  0.00     0.190 C 
ATOM     31  N   UNL     1     127.734 -12.345 163.071  1.00  0.00    -0.269 NA
ATOM     32  N   UNL     1     125.692 -11.707 162.242  1.00  0.00    -0.370 N 
ATOM     33  H   UNL     1     125.239 -13.985 161.996  1.00  0.00     0.170 HD
ATOM     34  H   UNL     1     127.734 -11.361 163.336  1.00  0.00     0.191 HD
ATOM     35  H   UNL     1     126.011 -10.756 162.378  1.00  0.00     0.159 HD
ATOM     36  H   UNL     1     125.263 -11.801 161.328  1.00  0.00     0.159 HD
ENDBRANCH  28  29
ENDBRANCH  22  23
ENDBRANCH  21  22
ENDBRANCH  20  21
ENDBRANCH   1  20
TORSDOF 11
ENDMDL
