MODEL 2
REMARK VINA RESULT:    -8.480      2.414      7.805
REMARK INTER + INTRA:         -15.906
REMARK INTER:                 -14.190
REMARK INTRA:                  -1.716
REMARK UNBOUND:                -1.973
REMARK SMILES COC(=O)C[C@H](CCCCc1ccc(NC(=N)N)cc1)c1cccc(C(=N)N)c1
REMARK SMILES IDX 7 1 6 2 5 3 3 4 4 5 2 6 1 7 21 8 22 9 29 10 23 11 25 12
REMARK SMILES IDX 24 13 26 14 27 15 28 16 8 20 9 21 10 22 11 23 12 24 20 25
REMARK SMILES IDX 13 26 19 27 14 28 15 29 16 30 17 31 18 32
REMARK H PARENT 27 17 28 18 28 19 15 33 17 34 18 35 18 36
ROOT
ATOM      1  C   UNL     1     129.344 -17.432 163.456  1.00  0.00     0.009 C 
ENDROOT
BRANCH   1   2
ATOM      2  C   UNL     1     130.368 -16.302 163.709  1.00  0.00     0.030 C 
BRANCH   2   3
ATOM      3  C   UNL     1     129.776 -14.906 163.463  1.00  0.00     0.131 C 
BRANCH   3   4
ATOM      4  C   UNL     1     130.488 -14.208 162.331  1.00  0.00     0.306 C 
ATOM      5  O   UNL     1     131.699 -14.245 162.158  1.00  0.00    -0.252 OA
BRANCH   4   6
ATOM      6  O   UNL     1     129.598 -13.540 161.547  1.00  0.00    -0.469 OA
ATOM      7  C   UNL     1     129.290 -14.212 160.325  1.00  0.00     0.282 C 
ENDBRANCH   4   6
ENDBRANCH   3   4
ENDBRANCH   2   3
BRANCH   2   8
ATOM      8  C   UNL     1     130.941 -16.435 165.118  1.00  0.00    -0.044 A 
ATOM      9  C   UNL     1     130.266 -17.217 166.069  1.00  0.00     0.004 A 
ATOM     10  C   UNL     1     132.133 -15.794 165.498  1.00  0.00     0.016 A 
ATOM     11  C   UNL     1     130.762 -17.351 167.367  1.00  0.00     0.001 A 
ATOM     12  C   UNL     1     132.643 -15.941 166.796  1.00  0.00     0.016 A 
ATOM     13  C   UNL     1     131.946 -16.712 167.730  1.00  0.00     0.012 A 
BRANCH  12  14
ATOM     14  C   UNL     1     133.921 -15.279 167.192  1.00  0.00     0.122 C 
ATOM     15  N   UNL     1     133.930 -14.449 168.185  1.00  0.00    -0.284 NA
ATOM     16  N   UNL     1     135.082 -15.557 166.527  1.00  0.00    -0.384 N 
ATOM     17  H   UNL     1     134.866 -14.061 168.305  1.00  0.00     0.189 HD
ATOM     18  H   UNL     1     135.932 -15.334 167.030  1.00  0.00     0.158 HD
ATOM     19  H   UNL     1     135.133 -16.483 166.116  1.00  0.00     0.158 HD
ENDBRANCH  12  14
ENDBRANCH   2   8
ENDBRANCH   1   2
BRANCH   1  20
ATOM     20  C   UNL     1     128.449 -17.263 162.220  1.00  0.00     0.001 C 
BRANCH  20  21
ATOM     21  C   UNL     1     126.974 -17.037 162.556  1.00  0.00     0.005 C 
BRANCH  21  22
ATOM     22  C   UNL     1     126.441 -15.770 161.882  1.00  0.00     0.035 C 
BRANCH  22  23
ATOM     23  C   UNL     1     125.906 -14.787 162.891  1.00  0.00    -0.048 A 
ATOM     24  C   UNL     1     125.085 -15.215 163.939  1.00  0.00     0.006 A 
ATOM     25  C   UNL     1     126.239 -13.432 162.813  1.00  0.00     0.006 A 
ATOM     26  C   UNL     1     124.610 -14.301 164.885  1.00  0.00     0.026 A 
ATOM     27  C   UNL     1     125.757 -12.523 163.762  1.00  0.00     0.026 A 
ATOM     28  C   UNL     1     124.954 -12.939 164.827  1.00  0.00     0.041 A 
BRANCH  28  29
ATOM     29  N   UNL     1     124.399 -12.064 165.784  1.00  0.00    -0.327 N 
ATOM     30  C   UNL     1     124.963 -10.978 166.378  1.00  0.00     0.190 C 
ATOM     31  N   UNL     1     126.148 -10.510 166.223  1.00  0.00    -0.269 NA
ATOM     32  N   UNL     1     124.086 -10.377 167.222  1.00  0.00    -0.370 N 
ATOM     33  H   UNL     1     123.681 -12.503 166.342  1.00  0.00     0.170 HD
ATOM     34  H   UNL     1     126.295  -9.703 166.828  1.00  0.00     0.191 HD
ATOM     35  H   UNL     1     124.371  -9.456 167.531  1.00  0.00     0.159 HD
ATOM     36  H   UNL     1     123.145 -10.341 166.848  1.00  0.00     0.159 HD
ENDBRANCH  28  29
ENDBRANCH  22  23
ENDBRANCH  21  22
ENDBRANCH  20  21
ENDBRANCH   1  20
TORSDOF 11
ENDMDL
