MODEL 4
REMARK VINA RESULT:    -8.571      5.109      7.118
REMARK INTER + INTRA:         -13.701
REMARK INTER:                 -13.290
REMARK INTRA:                  -0.411
REMARK UNBOUND:                -0.872
REMARK SMILES Cc1cc(CN2CCN(c3ccc(OC(F)(F)F)cc3)C2=O)cc(C)c1OC(C)(C)C(=O)O
REMARK SMILES IDX 1 1 2 2 3 3 4 4 23 5 24 6 25 7 26 8 27 9 28 10 29 11 30 12
REMARK SMILES IDX 31 13 32 14 33 15 5 17 6 18 7 19 21 20 8 21 9 22 22 23 10 24
REMARK SMILES IDX 11 25 20 26 12 27 19 28 13 29 14 30 15 31 16 32 17 33 18 34
REMARK H PARENT 33 16
ROOT
ATOM      1  C   UNL     1      41.715   4.250 132.495  1.00  0.00     0.048 C 
ATOM      2  C   UNL     1      40.619   3.335 132.030  1.00  0.00    -0.008 A 
ATOM      3  C   UNL     1      39.309   3.574 132.476  1.00  0.00     0.012 A 
ATOM      4  C   UNL     1      38.242   2.773 132.053  1.00  0.00    -0.028 A 
ATOM      5  C   UNL     1      38.500   1.727 131.157  1.00  0.00     0.012 A 
ATOM      6  C   UNL     1      39.799   1.470 130.690  1.00  0.00    -0.008 A 
ATOM      7  C   UNL     1      39.987   0.360 129.697  1.00  0.00     0.048 C 
ATOM      8  C   UNL     1      40.864   2.236 131.187  1.00  0.00     0.126 A 
ENDROOT
BRANCH   8   9
ATOM      9  O   UNL     1      42.142   1.965 130.772  1.00  0.00    -0.476 OA
BRANCH   9  10
ATOM     10  C   UNL     1      42.870   1.025 131.583  1.00  0.00     0.200 C 
ATOM     11  C   UNL     1      41.892   0.481 132.643  1.00  0.00     0.069 C 
ATOM     12  C   UNL     1      43.208  -0.163 130.662  1.00  0.00     0.069 C 
BRANCH  10  13
ATOM     13  C   UNL     1      44.183   1.460 132.286  1.00  0.00     0.347 C 
ATOM     14  O   UNL     1      44.895   0.766 132.998  1.00  0.00    -0.248 OA
BRANCH  13  15
ATOM     15  O   UNL     1      44.537   2.743 132.044  1.00  0.00    -0.478 OA
ATOM     16  H   UNL     1      45.492   2.690 131.827  1.00  0.00     0.296 HD
ENDBRANCH  13  15
ENDBRANCH  10  13
ENDBRANCH   9  10
ENDBRANCH   8   9
BRANCH   4  17
ATOM     17  C   UNL     1      36.834   3.047 132.529  1.00  0.00     0.157 C 
BRANCH  17  18
ATOM     18  N   UNL     1      36.560   2.473 133.833  1.00  0.00    -0.318 N 
ATOM     19  C   UNL     1      36.480   1.053 134.054  1.00  0.00     0.144 C 
ATOM     20  C   UNL     1      36.764   3.162 135.034  1.00  0.00     0.324 C 
ATOM     21  C   UNL     1      36.246   0.936 135.551  1.00  0.00     0.149 C 
ATOM     22  N   UNL     1      36.612   2.231 136.088  1.00  0.00    -0.293 N 
ATOM     23  O   UNL     1      37.032   4.351 135.097  1.00  0.00    -0.248 OA
BRANCH  22  24
ATOM     24  C   UNL     1      36.703   2.494 137.480  1.00  0.00     0.046 A 
ATOM     25  C   UNL     1      35.549   2.511 138.281  1.00  0.00     0.030 A 
ATOM     26  C   UNL     1      37.926   2.748 138.109  1.00  0.00     0.030 A 
ATOM     27  C   UNL     1      35.617   2.757 139.658  1.00  0.00     0.049 A 
ATOM     28  C   UNL     1      38.001   2.999 139.486  1.00  0.00     0.049 A 
ATOM     29  C   UNL     1      36.849   2.978 140.264  1.00  0.00     0.129 A 
BRANCH  29  30
ATOM     30  O   UNL     1      36.982   3.262 141.592  1.00  0.00    -0.406 OA
BRANCH  30  31
ATOM     31  C   UNL     1      36.916   4.656 141.867  1.00  0.00     0.573 C 
ATOM     32  F   UNL     1      35.637   5.089 141.942  1.00  0.00    -0.132 F 
ATOM     33  F   UNL     1      37.507   4.888 143.062  1.00  0.00    -0.132 F 
ATOM     34  F   UNL     1      37.578   5.372 140.930  1.00  0.00    -0.132 F 
ENDBRANCH  30  31
ENDBRANCH  29  30
ENDBRANCH  22  24
ENDBRANCH  17  18
ENDBRANCH   4  17
TORSDOF 9
ENDMDL
