MODEL 6
REMARK VINA RESULT:    -7.115      4.244      8.868
REMARK INTER + INTRA:         -10.578
REMARK INTER:                  -9.669
REMARK INTRA:                  -0.909
REMARK UNBOUND:                -0.967
REMARK SMILES O=C(Nc1ccc(OCc2cccs2)cc1C(=O)[O-])c1ccc(Cl)cc1Cl
REMARK SMILES IDX 4 1 5 2 6 3 7 4 15 5 16 6 3 7 1 8 2 9 20 11 21 12 26 13
REMARK SMILES IDX 22 14 25 15 23 16 27 17 24 18 17 19 18 20 19 21 8 22 9 23
REMARK SMILES IDX 10 24 11 25 14 26 12 27 13 28
REMARK H PARENT 3 10
ROOT
ATOM      1  C   UNL     1      -9.554  -8.055 -26.020  1.00  0.00     0.050 A 
ATOM      2  C   UNL     1     -10.430  -7.976 -24.931  1.00  0.00     0.030 A 
ATOM      3  C   UNL     1     -10.035  -8.414 -23.662  1.00  0.00     0.048 A 
ATOM      4  C   UNL     1      -8.756  -8.926 -23.467  1.00  0.00     0.120 A 
ATOM      5  C   UNL     1      -7.888  -9.035 -24.552  1.00  0.00     0.058 A 
ATOM      6  C   UNL     1      -8.260  -8.599 -25.840  1.00  0.00     0.024 A 
ENDROOT
BRANCH   1   7
ATOM      7  N   UNL     1      -9.915  -7.612 -27.309  1.00  0.00    -0.321 N 
ATOM      8  O   UNL     1     -11.750  -8.914 -27.919  1.00  0.00    -0.269 OA
ATOM      9  C   UNL     1     -10.922  -8.038 -28.138  1.00  0.00     0.257 C 
ATOM     10  H   UNL     1      -9.271  -6.878 -27.652  1.00  0.00     0.170 HD
BRANCH   9  11
ATOM     11  C   UNL     1     -10.939  -7.352 -29.460  1.00  0.00     0.058 A 
ATOM     12  C   UNL     1     -10.443  -8.039 -30.583  1.00  0.00     0.017 A 
ATOM     13  C   UNL     1     -11.460  -6.061 -29.617  1.00  0.00     0.055 A 
ATOM     14  C   UNL     1     -10.467  -7.443 -31.845  1.00  0.00     0.021 A 
ATOM     15  C   UNL     1     -11.486  -5.469 -30.887  1.00  0.00     0.041 A 
ATOM     16  C   UNL     1     -10.992  -6.162 -31.991  1.00  0.00     0.042 A 
ATOM     17  Cl  UNL     1     -12.039  -5.103 -28.300  1.00  0.00    -0.083 Cl
ATOM     18  Cl  UNL     1     -11.031  -5.425 -33.547  1.00  0.00    -0.084 Cl
ENDBRANCH   9  11
ENDBRANCH   1   7
BRANCH   6  19
ATOM     19  C   UNL     1      -7.268  -8.737 -26.986  1.00  0.00     0.074 C 
ATOM     20  O   UNL     1      -6.436  -9.707 -26.918  1.00  0.00    -0.545 OA
ATOM     21  O   UNL     1      -7.327  -7.888 -27.927  1.00  0.00    -0.545 OA
ENDBRANCH   6  19
BRANCH   4  22
ATOM     22  O   UNL     1      -8.284  -9.397 -22.272  1.00  0.00    -0.488 OA
BRANCH  22  23
ATOM     23  C   UNL     1      -6.951  -9.004 -21.931  1.00  0.00     0.276 C 
BRANCH  23  24
ATOM     24  C   UNL     1      -6.994  -7.706 -21.177  1.00  0.00     0.042 A 
ATOM     25  C   UNL     1      -8.085  -6.960 -20.769  1.00  0.00     0.019 A 
ATOM     26  S   UNL     1      -5.522  -6.966 -20.694  1.00  0.00    -0.145 S 
ATOM     27  C   UNL     1      -7.709  -5.776 -20.071  1.00  0.00     0.012 A 
ATOM     28  C   UNL     1      -6.342  -5.656 -19.961  1.00  0.00     0.065 A 
ENDBRANCH  23  24
ENDBRANCH  22  23
ENDBRANCH   4  22
TORSDOF 6
ENDMDL
