MODEL 3
REMARK VINA RESULT:    -8.382      1.787      2.635
REMARK INTER + INTRA:         -11.495
REMARK INTER:                 -10.586
REMARK INTRA:                  -0.909
REMARK UNBOUND:                -0.418
REMARK SMILES CC[C@H](CO)n1cc(-c2nc(-c3cnn(C)c3)cn3nccc23)cn1
REMARK SMILES IDX 6 1 7 2 8 3 24 4 25 5 3 6 2 7 1 8 4 9 5 10 9 12 10 13 23 14
REMARK SMILES IDX 11 15 22 16 19 17 18 18 21 19 20 20 12 21 13 22 17 23 14 24
REMARK SMILES IDX 15 25 16 26
REMARK H PARENT 5 11
ROOT
ATOM      1  N   UNL     1      -2.582  23.270 -28.217  1.00  0.00    -0.267 N 
ATOM      2  C   UNL     1      -3.537  24.145 -28.646  1.00  0.00     0.119 A 
ATOM      3  C   UNL     1      -3.418  24.235 -30.022  1.00  0.00     0.040 A 
ATOM      4  C   UNL     1      -2.373  23.328 -30.314  1.00  0.00     0.145 A 
ATOM      5  N   UNL     1      -1.854  22.754 -29.226  1.00  0.00    -0.180 NA
ENDROOT
BRANCH   1   6
ATOM      6  C   UNL     1      -2.323  22.877 -26.828  1.00  0.00     0.132 C 
BRANCH   6   7
ATOM      7  C   UNL     1      -1.375  23.898 -26.175  1.00  0.00     0.026 C 
ATOM      8  C   UNL     1      -2.099  24.992 -25.403  1.00  0.00     0.006 C 
ENDBRANCH   6   7
BRANCH   6   9
ATOM      9  C   UNL     1      -1.798  21.435 -26.737  1.00  0.00     0.183 C 
BRANCH   9  10
ATOM     10  O   UNL     1      -2.623  20.531 -27.472  1.00  0.00    -0.394 OA
ATOM     11  H   UNL     1      -2.203  19.653 -27.386  1.00  0.00     0.210 HD
ENDBRANCH   9  10
ENDBRANCH   6   9
ENDBRANCH   1   6
BRANCH   3  12
ATOM     12  C   UNL     1      -4.246  25.051 -30.889  1.00  0.00     0.100 A 
ATOM     13  N   UNL     1      -4.220  26.341 -30.703  1.00  0.00    -0.244 NA
ATOM     14  C   UNL     1      -5.053  24.441 -31.912  1.00  0.00     0.093 A 
ATOM     15  C   UNL     1      -5.023  27.149 -31.490  1.00  0.00     0.092 A 
ATOM     16  C   UNL     1      -5.230  23.173 -32.422  1.00  0.00     0.052 A 
ATOM     17  N   UNL     1      -5.851  25.281 -32.663  1.00  0.00    -0.237 N 
ATOM     18  C   UNL     1      -5.830  26.645 -32.441  1.00  0.00     0.142 A 
ATOM     19  C   UNL     1      -6.187  23.331 -33.436  1.00  0.00     0.136 A 
ATOM     20  N   UNL     1      -6.577  24.597 -33.578  1.00  0.00    -0.176 NA
BRANCH  15  21
ATOM     21  C   UNL     1      -4.918  28.547 -31.192  1.00  0.00     0.040 A 
ATOM     22  C   UNL     1      -5.596  29.624 -31.809  1.00  0.00     0.145 A 
ATOM     23  C   UNL     1      -4.132  29.151 -30.233  1.00  0.00     0.118 A 
ATOM     24  N   UNL     1      -5.268  30.809 -31.284  1.00  0.00    -0.181 NA
ATOM     25  N   UNL     1      -4.375  30.492 -30.330  1.00  0.00    -0.275 N 
ATOM     26  C   UNL     1      -3.786  31.542 -29.535  1.00  0.00     0.173 C 
ENDBRANCH  15  21
ENDBRANCH   3  12
TORSDOF 6
ENDMDL
