MODEL 1
REMARK VINA RESULT:    -8.886      0.000      0.000
REMARK INTER + INTRA:         -17.435
REMARK INTER:                 -15.119
REMARK INTRA:                  -2.316
REMARK UNBOUND:                -2.316
REMARK SMILES NCc1ccc(Cl)cc1CNC(=O)CNC(=O)[C@@H](CCc1cccc[n+]1[O-])NC(=O)C(=O)O
REMARK SMILES IDX 14 1 12 2 11 3 13 4 10 6 9 7 3 8 4 9 5 10 8 11 6 12 7 13
REMARK SMILES IDX 2 14 1 15 15 18 16 19 17 20 18 22 19 23 20 24 21 25 22 26
REMARK SMILES IDX 26 27 23 28 25 29 24 30 27 31 28 32 29 33 30 34 31 36 32 37
REMARK SMILES IDX 33 38
REMARK H PARENT 11 5 1 16 1 17 15 21 28 35 33 39
ROOT
ATOM      1  C   UNL     1     130.598 -14.131 162.909  1.00  0.00     0.216 C 
ENDROOT
BRANCH   1   2
ATOM      2  C   UNL     1     129.257 -13.689 162.322  1.00  0.00     0.239 C 
ATOM      3  N   UNL     1     128.343 -13.277 163.276  1.00  0.00    -0.350 N 
ATOM      4  O   UNL     1     129.005 -13.723 161.119  1.00  0.00    -0.273 OA
ATOM      5  H   UNL     1     128.433 -13.727 164.179  1.00  0.00     0.163 HD
BRANCH   3   6
ATOM      6  C   UNL     1     127.000 -12.937 162.867  1.00  0.00     0.152 C 
BRANCH   6   7
ATOM      7  C   UNL     1     126.073 -12.900 164.060  1.00  0.00    -0.023 A 
ATOM      8  C   UNL     1     125.310 -14.007 164.488  1.00  0.00    -0.029 A 
ATOM      9  C   UNL     1     124.450 -13.856 165.595  1.00  0.00     0.007 A 
ATOM     10  C   UNL     1     124.365 -12.646 166.284  1.00  0.00     0.021 A 
ATOM     11  C   UNL     1     125.980 -11.686 164.775  1.00  0.00     0.026 A 
ATOM     12  C   UNL     1     125.139 -11.566 165.875  1.00  0.00     0.041 A 
ATOM     13  Cl  UNL     1     125.051 -10.073 166.728  1.00  0.00    -0.084 Cl
BRANCH   8  14
ATOM     14  C   UNL     1     125.337 -15.350 163.792  1.00  0.00     0.113 C 
BRANCH  14  15
ATOM     15  N   UNL     1     126.593 -16.046 164.036  1.00  0.00    -0.326 NA
ATOM     16  H   UNL     1     127.339 -15.357 164.146  1.00  0.00     0.119 HD
ATOM     17  H   UNL     1     126.542 -16.543 164.925  1.00  0.00     0.119 HD
ENDBRANCH  14  15
ENDBRANCH   8  14
ENDBRANCH   6   7
ENDBRANCH   3   6
ENDBRANCH   1   2
BRANCH   1  18
ATOM     18  N   UNL     1     130.641 -15.572 163.043  1.00  0.00    -0.345 N 
ATOM     19  C   UNL     1     130.105 -16.215 164.128  1.00  0.00     0.243 C 
ATOM     20  O   UNL     1     129.543 -15.608 165.041  1.00  0.00    -0.273 OA
ATOM     21  H   UNL     1     131.071 -16.108 162.276  1.00  0.00     0.164 HD
BRANCH  19  22
ATOM     22  C   UNL     1     130.218 -17.756 164.096  1.00  0.00     0.172 C 
BRANCH  22  23
ATOM     23  C   UNL     1     131.360 -18.269 164.995  1.00  0.00     0.046 C 
BRANCH  23  24
ATOM     24  C   UNL     1     132.653 -17.455 164.815  1.00  0.00     0.112 C 
BRANCH  24  25
ATOM     25  C   UNL     1     133.017 -16.679 166.050  1.00  0.00     0.192 A 
ATOM     26  C   UNL     1     132.263 -16.753 167.229  1.00  0.00     0.076 A 
ATOM     27  N   UNL     1     134.157 -15.875 165.998  1.00  0.00    -0.176 N 
ATOM     28  C   UNL     1     132.649 -16.028 168.351  1.00  0.00     0.013 A 
ATOM     29  C   UNL     1     134.522 -15.159 167.126  1.00  0.00     0.321 A 
ATOM     30  C   UNL     1     133.782 -15.227 168.304  1.00  0.00     0.072 A 
ATOM     31  O   UNL     1     134.849 -15.780 164.934  1.00  0.00    -0.619 OA
ENDBRANCH  24  25
ENDBRANCH  23  24
ENDBRANCH  22  23
BRANCH  22  32
ATOM     32  N   UNL     1     128.934 -18.311 164.503  1.00  0.00    -0.335 N 
ATOM     33  C   UNL     1     128.279 -19.270 163.761  1.00  0.00     0.330 C 
ATOM     34  O   UNL     1     128.767 -19.860 162.813  1.00  0.00    -0.262 OA
ATOM     35  H   UNL     1     128.379 -17.782 165.182  1.00  0.00     0.164 HD
BRANCH  33  36
ATOM     36  C   UNL     1     126.821 -19.553 164.224  1.00  0.00     0.394 C 
ATOM     37  O   UNL     1     125.834 -18.931 163.890  1.00  0.00    -0.241 OA
BRANCH  36  38
ATOM     38  O   UNL     1     126.750 -20.598 165.066  1.00  0.00    -0.474 OA
ATOM     39  H   UNL     1     125.794 -20.650 165.287  1.00  0.00     0.297 HD
ENDBRANCH  36  38
ENDBRANCH  33  36
ENDBRANCH  22  32
ENDBRANCH  19  22
ENDBRANCH   1  18
TORSDOF 13
ENDMDL
