MODEL 6
REMARK VINA RESULT:    -8.589      1.251      1.777
REMARK INTER + INTRA:         -12.115
REMARK INTER:                 -11.150
REMARK INTRA:                  -0.965
REMARK UNBOUND:                -0.765
REMARK SMILES NC(=O)c1nc(-c2c(F)cccc2F)oc1Nc1ccc(S(N)(=O)=O)cc1
REMARK SMILES IDX 18 1 19 2 20 3 21 4 26 5 27 6 17 7 16 9 4 10 5 11 6 12 15 13
REMARK SMILES IDX 2 14 1 15 3 16 7 19 8 20 13 21 10 22 12 23 11 24 9 25 14 26
REMARK SMILES IDX 22 27 24 28 25 29 23 30
REMARK H PARENT 17 8 1 17 1 18 23 31 23 32
ROOT
ATOM      1  C   UNL     1     -17.187  18.648  21.238  1.00  0.00     0.041 A 
ATOM      2  C   UNL     1     -17.636  19.667  20.388  1.00  0.00     0.027 A 
ATOM      3  C   UNL     1     -18.999  19.951  20.248  1.00  0.00     0.024 A 
ATOM      4  C   UNL     1     -19.935  19.195  20.953  1.00  0.00     0.082 A 
ATOM      5  C   UNL     1     -19.521  18.178  21.809  1.00  0.00     0.024 A 
ATOM      6  C   UNL     1     -18.155  17.907  21.941  1.00  0.00     0.027 A 
ENDROOT
BRANCH   1   7
ATOM      7  N   UNL     1     -15.837  18.279  21.392  1.00  0.00    -0.324 N 
ATOM      8  H   UNL     1     -15.356  18.808  22.121  1.00  0.00     0.170 HD
BRANCH   7   9
ATOM      9  C   UNL     1     -15.063  17.452  20.654  1.00  0.00     0.231 A 
ATOM     10  C   UNL     1     -14.062  17.701  19.733  1.00  0.00     0.192 A 
ATOM     11  N   UNL     1     -13.545  16.504  19.263  1.00  0.00    -0.201 NA
ATOM     12  C   UNL     1     -14.231  15.584  19.916  1.00  0.00     0.235 A 
ATOM     13  O   UNL     1     -15.159  16.097  20.782  1.00  0.00    -0.419 OA
BRANCH  10  14
ATOM     14  C   UNL     1     -13.597  19.007  19.306  1.00  0.00     0.273 C 
ATOM     15  N   UNL     1     -12.342  18.998  18.767  1.00  0.00    -0.364 N 
ATOM     16  O   UNL     1     -14.252  20.038  19.418  1.00  0.00    -0.268 OA
ATOM     17  H   UNL     1     -11.825  18.129  18.710  1.00  0.00     0.160 HD
ATOM     18  H   UNL     1     -11.927  19.863  18.455  1.00  0.00     0.160 HD
ENDBRANCH  10  14
BRANCH  12  19
ATOM     19  C   UNL     1     -14.118  14.133  19.850  1.00  0.00     0.109 A 
ATOM     20  C   UNL     1     -15.220  13.298  19.634  1.00  0.00     0.138 A 
ATOM     21  C   UNL     1     -12.871  13.514  19.998  1.00  0.00     0.138 A 
ATOM     22  C   UNL     1     -15.089  11.908  19.572  1.00  0.00     0.040 A 
ATOM     23  C   UNL     1     -12.725  12.125  19.939  1.00  0.00     0.040 A 
ATOM     24  C   UNL     1     -13.838  11.317  19.725  1.00  0.00     0.006 A 
ATOM     25  F   UNL     1     -16.451  13.804  19.465  1.00  0.00    -0.206 F 
ATOM     26  F   UNL     1     -11.764  14.241  20.213  1.00  0.00    -0.206 F 
ENDBRANCH  12  19
ENDBRANCH   7   9
ENDBRANCH   1   7
BRANCH   4  27
ATOM     27  S   UNL     1     -21.665  19.541  20.779  1.00  0.00     0.238 S 
ATOM     28  O   UNL     1     -22.059  20.449  21.828  1.00  0.00    -0.207 OA
ATOM     29  O   UNL     1     -21.948  19.791  19.384  1.00  0.00    -0.207 OA
BRANCH  27  30
ATOM     30  N   UNL     1     -22.340  18.035  21.116  1.00  0.00    -0.225 NA
ATOM     31  H   UNL     1     -22.757  17.663  20.259  1.00  0.00     0.137 HD
ATOM     32  H   UNL     1     -21.676  17.381  21.529  1.00  0.00     0.137 HD
ENDBRANCH  27  30
ENDBRANCH   4  27
TORSDOF 6
ENDMDL
