MODEL 1
REMARK VINA RESULT:   -10.257      0.000      0.000
REMARK INTER + INTRA:         -16.254
REMARK INTER:                 -15.354
REMARK INTRA:                  -0.900
REMARK UNBOUND:                -0.900
REMARK SMILES Cc1oc(-c2ccccc2)nc1CCOc1ccc(C[C@@]2(C(=O)O)C=CC=CO2)cc1
REMARK SMILES IDX 16 1 17 2 18 3 19 4 30 5 31 6 15 7 14 8 13 9 12 10 2 11 3 12
REMARK SMILES IDX 4 13 11 14 1 15 5 16 6 17 10 18 7 19 9 20 8 21 20 22 21 23
REMARK SMILES IDX 25 24 29 25 26 26 28 27 27 28 22 29 23 30 24 31
REMARK H PARENT 24 32
ROOT
ATOM      1  C   UNL     1       6.799   9.518  -5.549  1.00  0.00     0.119 A 
ATOM      2  C   UNL     1       6.282  10.212  -4.454  1.00  0.00     0.047 A 
ATOM      3  C   UNL     1       5.163   9.733  -3.769  1.00  0.00     0.008 A 
ATOM      4  C   UNL     1       4.542   8.545  -4.170  1.00  0.00    -0.043 A 
ATOM      5  C   UNL     1       5.063   7.852  -5.271  1.00  0.00     0.008 A 
ATOM      6  C   UNL     1       6.185   8.335  -5.956  1.00  0.00     0.047 A 
ENDROOT
BRANCH   1   7
ATOM      7  O   UNL     1       7.895  10.097  -6.126  1.00  0.00    -0.493 OA
BRANCH   7   8
ATOM      8  C   UNL     1       8.712  10.925  -5.293  1.00  0.00     0.236 C 
BRANCH   8   9
ATOM      9  C   UNL     1      10.136  10.925  -5.847  1.00  0.00     0.101 C 
BRANCH   9  10
ATOM     10  C   UNL     1      10.167  10.838  -7.332  1.00  0.00     0.086 A 
ATOM     11  C   UNL     1      10.164  11.844  -8.275  1.00  0.00     0.125 A 
ATOM     12  O   UNL     1      10.194  11.260  -9.509  1.00  0.00    -0.441 OA
ATOM     13  C   UNL     1      10.217   9.914  -9.251  1.00  0.00     0.226 A 
ATOM     14  N   UNL     1      10.202   9.615  -7.965  1.00  0.00    -0.214 NA
ATOM     15  C   UNL     1      10.120  13.314  -8.230  1.00  0.00     0.090 C 
BRANCH  13  16
ATOM     16  C   UNL     1      10.253   9.021 -10.407  1.00  0.00     0.037 A 
ATOM     17  C   UNL     1      10.147   9.557 -11.700  1.00  0.00     0.014 A 
ATOM     18  C   UNL     1      10.390   7.631 -10.270  1.00  0.00     0.014 A 
ATOM     19  C   UNL     1      10.177   8.728 -12.824  1.00  0.00     0.001 A 
ATOM     20  C   UNL     1      10.421   6.801 -11.395  1.00  0.00     0.001 A 
ATOM     21  C   UNL     1      10.314   7.351 -12.671  1.00  0.00     0.000 A 
ENDBRANCH  13  16
ENDBRANCH   9  10
ENDBRANCH   8   9
ENDBRANCH   7   8
ENDBRANCH   1   7
BRANCH   4  22
ATOM     22  C   UNL     1       3.333   8.018  -3.426  1.00  0.00     0.101 C 
BRANCH  22  23
ATOM     23  C   UNL     1       3.638   7.229  -2.128  1.00  0.00     0.226 C 
ATOM     24  C   UNL     1       2.628   6.116  -1.876  1.00  0.00     0.033 C 
ATOM     25  O   UNL     1       5.020   6.795  -2.172  1.00  0.00    -0.479 OA
ATOM     26  C   UNL     1       2.997   4.845  -1.681  1.00  0.00     0.004 C 
ATOM     27  C   UNL     1       5.298   5.473  -1.953  1.00  0.00     0.189 C 
ATOM     28  C   UNL     1       4.392   4.520  -1.719  1.00  0.00     0.038 C 
BRANCH  23  29
ATOM     29  C   UNL     1       3.504   8.249  -0.972  1.00  0.00     0.352 C 
ATOM     30  O   UNL     1       2.467   8.714  -0.518  1.00  0.00    -0.247 OA
BRANCH  29  31
ATOM     31  O   UNL     1       4.685   8.698  -0.486  1.00  0.00    -0.478 OA
ATOM     32  H   UNL     1       5.357   8.251  -1.041  1.00  0.00     0.296 HD
ENDBRANCH  29  31
ENDBRANCH  23  29
ENDBRANCH  22  23
ENDBRANCH   4  22
TORSDOF 9
ENDMDL
MODEL 2
REMARK VINA RESULT:   -10.214      2.588      3.630
REMARK INTER + INTRA:         -16.189
REMARK INTER:                 -15.304
REMARK INTRA:                  -0.885
REMARK UNBOUND:                -0.900
REMARK SMILES Cc1oc(-c2ccccc2)nc1CCOc1ccc(C[C@@]2(C(=O)O)C=CC=CO2)cc1
REMARK SMILES IDX 16 1 17 2 18 3 19 4 30 5 31 6 15 7 14 8 13 9 12 10 2 11 3 12
REMARK SMILES IDX 4 13 11 14 1 15 5 16 6 17 10 18 7 19 9 20 8 21 20 22 21 23
REMARK SMILES IDX 25 24 29 25 26 26 28 27 27 28 22 29 23 30 24 31
REMARK H PARENT 24 32
ROOT
ATOM      1  C   UNL     1       7.095   6.572  -6.626  1.00  0.00     0.119 A 
ATOM      2  C   UNL     1       6.548   7.809  -6.285  1.00  0.00     0.047 A 
ATOM      3  C   UNL     1       5.371   7.889  -5.536  1.00  0.00     0.008 A 
ATOM      4  C   UNL     1       4.722   6.724  -5.114  1.00  0.00    -0.043 A 
ATOM      5  C   UNL     1       5.273   5.483  -5.459  1.00  0.00     0.008 A 
ATOM      6  C   UNL     1       6.452   5.406  -6.210  1.00  0.00     0.047 A 
ENDROOT
BRANCH   1   7
ATOM      7  O   UNL     1       8.247   6.639  -7.359  1.00  0.00    -0.493 OA
BRANCH   7   8
ATOM      8  C   UNL     1       9.019   5.440  -7.473  1.00  0.00     0.236 C 
BRANCH   8   9
ATOM      9  C   UNL     1      10.407   5.799  -8.004  1.00  0.00     0.101 C 
BRANCH   9  10
ATOM     10  C   UNL     1      10.390   6.145  -9.450  1.00  0.00     0.086 A 
ATOM     11  C   UNL     1      10.308   5.322 -10.554  1.00  0.00     0.125 A 
ATOM     12  O   UNL     1      10.334   6.112 -11.668  1.00  0.00    -0.441 OA
ATOM     13  C   UNL     1      10.429   7.390 -11.180  1.00  0.00     0.226 A 
ATOM     14  N   UNL     1      10.466   7.458  -9.862  1.00  0.00    -0.214 NA
ATOM     15  C   UNL     1      10.221   3.868 -10.765  1.00  0.00     0.090 C 
BRANCH  13  16
ATOM     16  C   UNL     1      10.477   8.470 -12.162  1.00  0.00     0.037 A 
ATOM     17  C   UNL     1      11.401   8.405 -13.218  1.00  0.00     0.014 A 
ATOM     18  C   UNL     1       9.625   9.581 -12.089  1.00  0.00     0.014 A 
ATOM     19  C   UNL     1      11.471   9.423 -14.172  1.00  0.00     0.001 A 
ATOM     20  C   UNL     1       9.694  10.600 -13.044  1.00  0.00     0.001 A 
ATOM     21  C   UNL     1      10.618  10.520 -14.084  1.00  0.00     0.000 A 
ENDBRANCH  13  16
ENDBRANCH   9  10
ENDBRANCH   8   9
ENDBRANCH   7   8
ENDBRANCH   1   7
BRANCH   4  22
ATOM     22  C   UNL     1       3.450   6.804  -4.296  1.00  0.00     0.101 C 
BRANCH  22  23
ATOM     23  C   UNL     1       3.628   6.641  -2.765  1.00  0.00     0.226 C 
ATOM     24  C   UNL     1       2.583   5.713  -2.156  1.00  0.00     0.033 C 
ATOM     25  O   UNL     1       5.002   6.263  -2.503  1.00  0.00    -0.479 OA
ATOM     26  C   UNL     1       2.916   4.652  -1.414  1.00  0.00     0.004 C 
ATOM     27  C   UNL     1       5.240   5.163  -1.725  1.00  0.00     0.189 C 
ATOM     28  C   UNL     1       4.304   4.375  -1.190  1.00  0.00     0.038 C 
BRANCH  23  29
ATOM     29  C   UNL     1       3.407   8.050  -2.162  1.00  0.00     0.352 C 
ATOM     30  O   UNL     1       3.160   8.318  -0.993  1.00  0.00    -0.247 OA
BRANCH  29  31
ATOM     31  O   UNL     1       3.428   9.054  -3.069  1.00  0.00    -0.478 OA
ATOM     32  H   UNL     1       2.497   9.130  -3.363  1.00  0.00     0.296 HD
ENDBRANCH  29  31
ENDBRANCH  23  29
ENDBRANCH  22  23
ENDBRANCH   4  22
TORSDOF 9
ENDMDL
MODEL 3
REMARK VINA RESULT:   -10.156      1.400      2.305
REMARK INTER + INTRA:         -16.102
REMARK INTER:                 -15.403
REMARK INTRA:                  -0.699
REMARK UNBOUND:                -0.900
REMARK SMILES Cc1oc(-c2ccccc2)nc1CCOc1ccc(C[C@@]2(C(=O)O)C=CC=CO2)cc1
REMARK SMILES IDX 16 1 17 2 18 3 19 4 30 5 31 6 15 7 14 8 13 9 12 10 2 11 3 12
REMARK SMILES IDX 4 13 11 14 1 15 5 16 6 17 10 18 7 19 9 20 8 21 20 22 21 23
REMARK SMILES IDX 25 24 29 25 26 26 28 27 27 28 22 29 23 30 24 31
REMARK H PARENT 24 32
ROOT
ATOM      1  C   UNL     1       7.602  10.189  -4.600  1.00  0.00     0.119 A 
ATOM      2  C   UNL     1       6.740   9.615  -5.536  1.00  0.00     0.047 A 
ATOM      3  C   UNL     1       5.497   9.109  -5.147  1.00  0.00     0.008 A 
ATOM      4  C   UNL     1       5.096   9.170  -3.809  1.00  0.00    -0.043 A 
ATOM      5  C   UNL     1       5.964   9.746  -2.871  1.00  0.00     0.008 A 
ATOM      6  C   UNL     1       7.209  10.252  -3.264  1.00  0.00     0.047 A 
ENDROOT
BRANCH   1   7
ATOM      7  O   UNL     1       8.783  10.644  -5.115  1.00  0.00    -0.493 OA
BRANCH   7   8
ATOM      8  C   UNL     1       8.795  11.010  -6.498  1.00  0.00     0.236 C 
BRANCH   8   9
ATOM      9  C   UNL     1      10.200  10.777  -7.055  1.00  0.00     0.101 C 
BRANCH   9  10
ATOM     10  C   UNL     1      10.179  10.130  -8.394  1.00  0.00     0.086 A 
ATOM     11  C   UNL     1       9.823   8.847  -8.749  1.00  0.00     0.125 A 
ATOM     12  O   UNL     1       9.977   8.727 -10.101  1.00  0.00    -0.441 OA
ATOM     13  C   UNL     1      10.423   9.959 -10.505  1.00  0.00     0.226 A 
ATOM     14  N   UNL     1      10.558  10.828  -9.520  1.00  0.00    -0.214 NA
ATOM     15  C   UNL     1       9.358   7.655  -8.019  1.00  0.00     0.090 C 
BRANCH  13  16
ATOM     16  C   UNL     1      10.680  10.133 -11.932  1.00  0.00     0.037 A 
ATOM     17  C   UNL     1      11.389   9.144 -12.633  1.00  0.00     0.014 A 
ATOM     18  C   UNL     1      10.241  11.264 -12.636  1.00  0.00     0.014 A 
ATOM     19  C   UNL     1      11.651   9.282 -13.998  1.00  0.00     0.001 A 
ATOM     20  C   UNL     1      10.502  11.403 -14.003  1.00  0.00     0.001 A 
ATOM     21  C   UNL     1      11.208  10.412 -14.682  1.00  0.00     0.000 A 
ENDBRANCH  13  16
ENDBRANCH   9  10
ENDBRANCH   8   9
ENDBRANCH   7   8
ENDBRANCH   1   7
BRANCH   4  22
ATOM     22  C   UNL     1       3.747   8.630  -3.383  1.00  0.00     0.101 C 
BRANCH  22  23
ATOM     23  C   UNL     1       3.781   7.524  -2.298  1.00  0.00     0.226 C 
ATOM     24  C   UNL     1       2.721   6.453  -2.528  1.00  0.00     0.033 C 
ATOM     25  O   UNL     1       5.138   7.024  -2.199  1.00  0.00    -0.479 OA
ATOM     26  C   UNL     1       3.023   5.153  -2.602  1.00  0.00     0.004 C 
ATOM     27  C   UNL     1       5.344   5.674  -2.280  1.00  0.00     0.189 C 
ATOM     28  C   UNL     1       4.393   4.755  -2.467  1.00  0.00     0.038 C 
BRANCH  23  29
ATOM     29  C   UNL     1       3.444   8.232  -0.963  1.00  0.00     0.352 C 
ATOM     30  O   UNL     1       2.368   8.718  -0.639  1.00  0.00    -0.247 OA
BRANCH  29  31
ATOM     31  O   UNL     1       4.497   8.365  -0.122  1.00  0.00    -0.478 OA
ATOM     32  H   UNL     1       4.352   7.672   0.554  1.00  0.00     0.296 HD
ENDBRANCH  29  31
ENDBRANCH  23  29
ENDBRANCH  22  23
ENDBRANCH   4  22
TORSDOF 9
ENDMDL
MODEL 4
REMARK VINA RESULT:    -9.791      1.856      2.953
REMARK INTER + INTRA:         -15.557
REMARK INTER:                 -14.641
REMARK INTRA:                  -0.915
REMARK UNBOUND:                -0.900
REMARK SMILES Cc1oc(-c2ccccc2)nc1CCOc1ccc(C[C@@]2(C(=O)O)C=CC=CO2)cc1
REMARK SMILES IDX 16 1 17 2 18 3 19 4 30 5 31 6 15 7 14 8 13 9 12 10 2 11 3 12
REMARK SMILES IDX 4 13 11 14 1 15 5 16 6 17 10 18 7 19 9 20 8 21 20 22 21 23
REMARK SMILES IDX 25 24 29 25 26 26 28 27 27 28 22 29 23 30 24 31
REMARK H PARENT 24 32
ROOT
ATOM      1  C   UNL     1       7.750  10.297  -4.688  1.00  0.00     0.119 A 
ATOM      2  C   UNL     1       6.963   9.756  -5.706  1.00  0.00     0.047 A 
ATOM      3  C   UNL     1       5.723   9.179  -5.420  1.00  0.00     0.008 A 
ATOM      4  C   UNL     1       5.249   9.136  -4.105  1.00  0.00    -0.043 A 
ATOM      5  C   UNL     1       6.042   9.680  -3.086  1.00  0.00     0.008 A 
ATOM      6  C   UNL     1       7.284  10.257  -3.375  1.00  0.00     0.047 A 
ENDROOT
BRANCH   1   7
ATOM      7  O   UNL     1       8.937  10.830  -5.106  1.00  0.00    -0.493 OA
BRANCH   7   8
ATOM      8  C   UNL     1       9.021  11.249  -6.472  1.00  0.00     0.236 C 
BRANCH   8   9
ATOM      9  C   UNL     1      10.382  10.833  -7.030  1.00  0.00     0.101 C 
BRANCH   9  10
ATOM     10  C   UNL     1      10.274  10.187  -8.365  1.00  0.00     0.086 A 
ATOM     11  C   UNL     1       9.782   8.946  -8.708  1.00  0.00     0.125 A 
ATOM     12  O   UNL     1       9.903   8.806 -10.061  1.00  0.00    -0.441 OA
ATOM     13  C   UNL     1      10.467   9.984 -10.478  1.00  0.00     0.226 A 
ATOM     14  N   UNL     1      10.706  10.838  -9.500  1.00  0.00    -0.214 NA
ATOM     15  C   UNL     1       9.208   7.811  -7.966  1.00  0.00     0.090 C 
BRANCH  13  16
ATOM     16  C   UNL     1      10.719  10.125 -11.909  1.00  0.00     0.037 A 
ATOM     17  C   UNL     1      10.155  11.204 -12.609  1.00  0.00     0.014 A 
ATOM     18  C   UNL     1      11.513   9.212 -12.620  1.00  0.00     0.014 A 
ATOM     19  C   UNL     1      10.377  11.365 -13.979  1.00  0.00     0.001 A 
ATOM     20  C   UNL     1      11.737   9.373 -13.991  1.00  0.00     0.001 A 
ATOM     21  C   UNL     1      11.168  10.449 -14.669  1.00  0.00     0.000 A 
ENDBRANCH  13  16
ENDBRANCH   9  10
ENDBRANCH   8   9
ENDBRANCH   7   8
ENDBRANCH   1   7
BRANCH   4  22
ATOM     22  C   UNL     1       3.902   8.518  -3.791  1.00  0.00     0.101 C 
BRANCH  22  23
ATOM     23  C   UNL     1       3.889   6.975  -3.655  1.00  0.00     0.226 C 
ATOM     24  C   UNL     1       4.982   6.467  -2.722  1.00  0.00     0.033 C 
ATOM     25  O   UNL     1       2.547   6.559  -3.301  1.00  0.00    -0.479 OA
ATOM     26  C   UNL     1       4.719   5.675  -1.677  1.00  0.00     0.004 C 
ATOM     27  C   UNL     1       2.381   5.741  -2.217  1.00  0.00     0.189 C 
ATOM     28  C   UNL     1       3.360   5.297  -1.424  1.00  0.00     0.038 C 
BRANCH  23  29
ATOM     29  C   UNL     1       4.193   6.424  -5.069  1.00  0.00     0.352 C 
ATOM     30  O   UNL     1       5.128   5.701  -5.392  1.00  0.00    -0.247 OA
BRANCH  29  31
ATOM     31  O   UNL     1       3.352   6.867  -6.033  1.00  0.00    -0.478 OA
ATOM     32  H   UNL     1       3.682   6.443  -6.851  1.00  0.00     0.296 HD
ENDBRANCH  29  31
ENDBRANCH  23  29
ENDBRANCH  22  23
ENDBRANCH   4  22
TORSDOF 9
ENDMDL
MODEL 5
REMARK VINA RESULT:    -9.485      1.418      2.076
REMARK INTER + INTRA:         -15.099
REMARK INTER:                 -14.446
REMARK INTRA:                  -0.653
REMARK UNBOUND:                -0.900
REMARK SMILES Cc1oc(-c2ccccc2)nc1CCOc1ccc(C[C@@]2(C(=O)O)C=CC=CO2)cc1
REMARK SMILES IDX 16 1 17 2 18 3 19 4 30 5 31 6 15 7 14 8 13 9 12 10 2 11 3 12
REMARK SMILES IDX 4 13 11 14 1 15 5 16 6 17 10 18 7 19 9 20 8 21 20 22 21 23
REMARK SMILES IDX 25 24 29 25 26 26 28 27 27 28 22 29 23 30 24 31
REMARK H PARENT 24 32
ROOT
ATOM      1  C   UNL     1       7.581  10.230  -4.586  1.00  0.00     0.119 A 
ATOM      2  C   UNL     1       6.677   9.693  -5.504  1.00  0.00     0.047 A 
ATOM      3  C   UNL     1       5.437   9.206  -5.084  1.00  0.00     0.008 A 
ATOM      4  C   UNL     1       5.080   9.250  -3.732  1.00  0.00    -0.043 A 
ATOM      5  C   UNL     1       5.990   9.790  -2.813  1.00  0.00     0.008 A 
ATOM      6  C   UNL     1       7.232  10.276  -3.236  1.00  0.00     0.047 A 
ENDROOT
BRANCH   1   7
ATOM      7  O   UNL     1       8.755  10.670  -5.130  1.00  0.00    -0.493 OA
BRANCH   7   8
ATOM      8  C   UNL     1       8.748  10.993  -6.524  1.00  0.00     0.236 C 
BRANCH   8   9
ATOM      9  C   UNL     1      10.172  10.864  -7.064  1.00  0.00     0.101 C 
BRANCH   9  10
ATOM     10  C   UNL     1      10.262   9.914  -8.204  1.00  0.00     0.086 A 
ATOM     11  C   UNL     1      10.431  10.163  -9.550  1.00  0.00     0.125 A 
ATOM     12  O   UNL     1      10.446   8.962 -10.200  1.00  0.00    -0.441 OA
ATOM     13  C   UNL     1      10.286   8.032  -9.204  1.00  0.00     0.226 A 
ATOM     14  N   UNL     1      10.173   8.554  -7.997  1.00  0.00    -0.214 NA
ATOM     15  C   UNL     1      10.570  11.373 -10.376  1.00  0.00     0.090 C 
BRANCH  13  16
ATOM     16  C   UNL     1      10.264   6.629  -9.609  1.00  0.00     0.037 A 
ATOM     17  C   UNL     1      10.443   6.295 -10.962  1.00  0.00     0.014 A 
ATOM     18  C   UNL     1      10.067   5.590  -8.687  1.00  0.00     0.014 A 
ATOM     19  C   UNL     1      10.425   4.962 -11.379  1.00  0.00     0.001 A 
ATOM     20  C   UNL     1      10.050   4.256  -9.104  1.00  0.00     0.001 A 
ATOM     21  C   UNL     1      10.228   3.943 -10.451  1.00  0.00     0.000 A 
ENDBRANCH  13  16
ENDBRANCH   9  10
ENDBRANCH   8   9
ENDBRANCH   7   8
ENDBRANCH   1   7
BRANCH   4  22
ATOM     22  C   UNL     1       3.733   8.730  -3.273  1.00  0.00     0.101 C 
BRANCH  22  23
ATOM     23  C   UNL     1       3.778   7.544  -2.278  1.00  0.00     0.226 C 
ATOM     24  C   UNL     1       2.748   6.470  -2.611  1.00  0.00     0.033 C 
ATOM     25  O   UNL     1       5.145   7.069  -2.196  1.00  0.00    -0.479 OA
ATOM     26  C   UNL     1       3.083   5.187  -2.782  1.00  0.00     0.004 C 
ATOM     27  C   UNL     1       5.385   5.734  -2.380  1.00  0.00     0.189 C 
ATOM     28  C   UNL     1       4.460   4.811  -2.656  1.00  0.00     0.038 C 
BRANCH  23  29
ATOM     29  C   UNL     1       3.404   8.135  -0.898  1.00  0.00     0.352 C 
ATOM     30  O   UNL     1       2.287   8.189  -0.399  1.00  0.00    -0.247 OA
BRANCH  29  31
ATOM     31  O   UNL     1       4.440   8.702  -0.235  1.00  0.00    -0.478 OA
ATOM     32  H   UNL     1       4.229   9.658  -0.236  1.00  0.00     0.296 HD
ENDBRANCH  29  31
ENDBRANCH  23  29
ENDBRANCH  22  23
ENDBRANCH   4  22
TORSDOF 9
ENDMDL
MODEL 6
REMARK VINA RESULT:    -9.332      1.879      2.957
REMARK INTER + INTRA:         -14.869
REMARK INTER:                 -13.949
REMARK INTRA:                  -0.919
REMARK UNBOUND:                -0.900
REMARK SMILES Cc1oc(-c2ccccc2)nc1CCOc1ccc(C[C@@]2(C(=O)O)C=CC=CO2)cc1
REMARK SMILES IDX 16 1 17 2 18 3 19 4 30 5 31 6 15 7 14 8 13 9 12 10 2 11 3 12
REMARK SMILES IDX 4 13 11 14 1 15 5 16 6 17 10 18 7 19 9 20 8 21 20 22 21 23
REMARK SMILES IDX 25 24 29 25 26 26 28 27 27 28 22 29 23 30 24 31
REMARK H PARENT 24 32
ROOT
ATOM      1  C   UNL     1       7.682  10.249  -4.792  1.00  0.00     0.119 A 
ATOM      2  C   UNL     1       6.887   9.652  -5.771  1.00  0.00     0.047 A 
ATOM      3  C   UNL     1       5.661   9.069  -5.439  1.00  0.00     0.008 A 
ATOM      4  C   UNL     1       5.210   9.077  -4.115  1.00  0.00    -0.043 A 
ATOM      5  C   UNL     1       6.011   9.678  -3.134  1.00  0.00     0.008 A 
ATOM      6  C   UNL     1       7.238  10.260  -3.470  1.00  0.00     0.047 A 
ENDROOT
BRANCH   1   7
ATOM      7  O   UNL     1       8.854  10.781  -5.253  1.00  0.00    -0.493 OA
BRANCH   7   8
ATOM      8  C   UNL     1       8.899  11.168  -6.629  1.00  0.00     0.236 C 
BRANCH   8   9
ATOM      9  C   UNL     1      10.306  10.909  -7.166  1.00  0.00     0.101 C 
BRANCH   9  10
ATOM     10  C   UNL     1      10.323   9.881  -8.241  1.00  0.00     0.086 A 
ATOM     11  C   UNL     1      10.424  10.033  -9.607  1.00  0.00     0.125 A 
ATOM     12  O   UNL     1      10.388   8.790 -10.172  1.00  0.00    -0.441 OA
ATOM     13  C   UNL     1      10.268   7.934  -9.107  1.00  0.00     0.226 A 
ATOM     14  N   UNL     1      10.225   8.541  -7.935  1.00  0.00    -0.214 NA
ATOM     15  C   UNL     1      10.537  11.181 -10.522  1.00  0.00     0.090 C 
BRANCH  13  16
ATOM     16  C   UNL     1      10.204   6.507  -9.411  1.00  0.00     0.037 A 
ATOM     17  C   UNL     1      10.449   6.066 -10.722  1.00  0.00     0.014 A 
ATOM     18  C   UNL     1       9.905   5.549  -8.431  1.00  0.00     0.014 A 
ATOM     19  C   UNL     1      10.394   4.708 -11.043  1.00  0.00     0.001 A 
ATOM     20  C   UNL     1       9.851   4.189  -8.751  1.00  0.00     0.001 A 
ATOM     21  C   UNL     1      10.095   3.770 -10.058  1.00  0.00     0.000 A 
ENDBRANCH  13  16
ENDBRANCH   9  10
ENDBRANCH   8   9
ENDBRANCH   7   8
ENDBRANCH   1   7
BRANCH   4  22
ATOM     22  C   UNL     1       3.878   8.454  -3.751  1.00  0.00     0.101 C 
BRANCH  22  23
ATOM     23  C   UNL     1       3.876   6.910  -3.620  1.00  0.00     0.226 C 
ATOM     24  C   UNL     1       4.993   6.405  -2.714  1.00  0.00     0.033 C 
ATOM     25  O   UNL     1       2.545   6.486  -3.236  1.00  0.00    -0.479 OA
ATOM     26  C   UNL     1       4.758   5.608  -1.666  1.00  0.00     0.004 C 
ATOM     27  C   UNL     1       2.408   5.664  -2.151  1.00  0.00     0.189 C 
ATOM     28  C   UNL     1       3.408   5.223  -1.382  1.00  0.00     0.038 C 
BRANCH  23  29
ATOM     29  C   UNL     1       4.150   6.364  -5.042  1.00  0.00     0.352 C 
ATOM     30  O   UNL     1       5.075   5.640  -5.387  1.00  0.00    -0.247 OA
BRANCH  29  31
ATOM     31  O   UNL     1       3.292   6.816  -5.987  1.00  0.00    -0.478 OA
ATOM     32  H   UNL     1       2.599   7.283  -5.476  1.00  0.00     0.296 HD
ENDBRANCH  29  31
ENDBRANCH  23  29
ENDBRANCH  22  23
ENDBRANCH   4  22
TORSDOF 9
ENDMDL
MODEL 7
REMARK VINA RESULT:    -8.727      5.664      8.062
REMARK INTER + INTRA:         -13.963
REMARK INTER:                 -13.093
REMARK INTRA:                  -0.870
REMARK UNBOUND:                -0.900
REMARK SMILES Cc1oc(-c2ccccc2)nc1CCOc1ccc(C[C@@]2(C(=O)O)C=CC=CO2)cc1
REMARK SMILES IDX 16 1 17 2 18 3 19 4 30 5 31 6 15 7 14 8 13 9 12 10 2 11 3 12
REMARK SMILES IDX 4 13 11 14 1 15 5 16 6 17 10 18 7 19 9 20 8 21 20 22 21 23
REMARK SMILES IDX 25 24 29 25 26 26 28 27 27 28 22 29 23 30 24 31
REMARK H PARENT 24 32
ROOT
ATOM      1  C   UNL     1      10.062  10.212 -11.292  1.00  0.00     0.119 A 
ATOM      2  C   UNL     1      10.857  11.300 -10.931  1.00  0.00     0.047 A 
ATOM      3  C   UNL     1      11.231  11.502  -9.600  1.00  0.00     0.008 A 
ATOM      4  C   UNL     1      10.814  10.611  -8.606  1.00  0.00    -0.043 A 
ATOM      5  C   UNL     1      10.014   9.519  -8.972  1.00  0.00     0.008 A 
ATOM      6  C   UNL     1       9.641   9.321 -10.306  1.00  0.00     0.047 A 
ENDROOT
BRANCH   1   7
ATOM      7  O   UNL     1       9.772  10.134 -12.626  1.00  0.00    -0.493 OA
BRANCH   7   8
ATOM      8  C   UNL     1      10.833  10.414 -13.543  1.00  0.00     0.236 C 
BRANCH   8   9
ATOM      9  C   UNL     1      11.235   9.114 -14.240  1.00  0.00     0.101 C 
BRANCH   9  10
ATOM     10  C   UNL     1      11.593   8.040 -13.275  1.00  0.00     0.086 A 
ATOM     11  C   UNL     1      12.832   7.617 -12.844  1.00  0.00     0.125 A 
ATOM     12  O   UNL     1      12.642   6.595 -11.958  1.00  0.00    -0.441 OA
ATOM     13  C   UNL     1      11.280   6.449 -11.892  1.00  0.00     0.226 A 
ATOM     14  N   UNL     1      10.613   7.290 -12.660  1.00  0.00    -0.214 NA
ATOM     15  C   UNL     1      14.223   8.000 -13.137  1.00  0.00     0.090 C 
BRANCH  13  16
ATOM     16  C   UNL     1      10.770   5.408 -11.003  1.00  0.00     0.037 A 
ATOM     17  C   UNL     1      10.470   5.724  -9.667  1.00  0.00     0.014 A 
ATOM     18  C   UNL     1      10.568   4.090 -11.438  1.00  0.00     0.014 A 
ATOM     19  C   UNL     1       9.982   4.749  -8.794  1.00  0.00     0.001 A 
ATOM     20  C   UNL     1      10.079   3.114 -10.564  1.00  0.00     0.001 A 
ATOM     21  C   UNL     1       9.787   3.445  -9.242  1.00  0.00     0.000 A 
ENDBRANCH  13  16
ENDBRANCH   9  10
ENDBRANCH   8   9
ENDBRANCH   7   8
ENDBRANCH   1   7
BRANCH   4  22
ATOM     22  C   UNL     1      11.222  10.821  -7.162  1.00  0.00     0.101 C 
BRANCH  22  23
ATOM     23  C   UNL     1      10.806  12.177  -6.540  1.00  0.00     0.226 C 
ATOM     24  C   UNL     1      11.959  13.173  -6.499  1.00  0.00     0.033 C 
ATOM     25  O   UNL     1       9.620  12.649  -7.225  1.00  0.00    -0.479 OA
ATOM     26  C   UNL     1      11.865  14.397  -7.030  1.00  0.00     0.004 C 
ATOM     27  C   UNL     1       9.619  13.921  -7.729  1.00  0.00     0.189 C 
ATOM     28  C   UNL     1      10.640  14.780  -7.666  1.00  0.00     0.038 C 
BRANCH  23  29
ATOM     29  C   UNL     1      10.409  11.866  -5.076  1.00  0.00     0.352 C 
ATOM     30  O   UNL     1       9.899  10.835  -4.655  1.00  0.00    -0.247 OA
BRANCH  29  31
ATOM     31  O   UNL     1      10.601  12.894  -4.217  1.00  0.00    -0.478 OA
ATOM     32  H   UNL     1      11.127  12.503  -3.489  1.00  0.00     0.296 HD
ENDBRANCH  29  31
ENDBRANCH  23  29
ENDBRANCH  22  23
ENDBRANCH   4  22
TORSDOF 9
ENDMDL
MODEL 8
REMARK VINA RESULT:    -8.618      5.619     11.109
REMARK INTER + INTRA:         -13.801
REMARK INTER:                 -13.954
REMARK INTRA:                   0.153
REMARK UNBOUND:                -0.900
REMARK SMILES Cc1oc(-c2ccccc2)nc1CCOc1ccc(C[C@@]2(C(=O)O)C=CC=CO2)cc1
REMARK SMILES IDX 16 1 17 2 18 3 19 4 30 5 31 6 15 7 14 8 13 9 12 10 2 11 3 12
REMARK SMILES IDX 4 13 11 14 1 15 5 16 6 17 10 18 7 19 9 20 8 21 20 22 21 23
REMARK SMILES IDX 25 24 29 25 26 26 28 27 27 28 22 29 23 30 24 31
REMARK H PARENT 24 32
ROOT
ATOM      1  C   UNL     1      10.125   5.429  -8.668  1.00  0.00     0.119 A 
ATOM      2  C   UNL     1      10.118   6.817  -8.812  1.00  0.00     0.047 A 
ATOM      3  C   UNL     1      10.190   7.404 -10.078  1.00  0.00     0.008 A 
ATOM      4  C   UNL     1      10.269   6.607 -11.225  1.00  0.00    -0.043 A 
ATOM      5  C   UNL     1      10.277   5.214 -11.076  1.00  0.00     0.008 A 
ATOM      6  C   UNL     1      10.205   4.628  -9.807  1.00  0.00     0.047 A 
ENDROOT
BRANCH   1   7
ATOM      7  O   UNL     1      10.049   4.988  -7.377  1.00  0.00    -0.493 OA
BRANCH   7   8
ATOM      8  C   UNL     1       9.311   3.785  -7.140  1.00  0.00     0.236 C 
BRANCH   8   9
ATOM      9  C   UNL     1       8.680   3.863  -5.750  1.00  0.00     0.101 C 
BRANCH   9  10
ATOM     10  C   UNL     1       9.588   3.361  -4.685  1.00  0.00     0.086 A 
ATOM     11  C   UNL     1       9.383   3.255  -3.326  1.00  0.00     0.125 A 
ATOM     12  O   UNL     1      10.518   2.740  -2.769  1.00  0.00    -0.441 OA
ATOM     13  C   UNL     1      11.366   2.554  -3.830  1.00  0.00     0.226 A 
ATOM     14  N   UNL     1      10.854   2.911  -4.993  1.00  0.00    -0.214 NA
ATOM     15  C   UNL     1       8.274   3.576  -2.412  1.00  0.00     0.090 C 
BRANCH  13  16
ATOM     16  C   UNL     1      12.686   2.002  -3.532  1.00  0.00     0.037 A 
ATOM     17  C   UNL     1      13.252   1.055  -4.400  1.00  0.00     0.014 A 
ATOM     18  C   UNL     1      13.416   2.389  -2.398  1.00  0.00     0.014 A 
ATOM     19  C   UNL     1      14.512   0.509  -4.140  1.00  0.00     0.001 A 
ATOM     20  C   UNL     1      14.677   1.843  -2.138  1.00  0.00     0.001 A 
ATOM     21  C   UNL     1      15.223   0.903  -3.010  1.00  0.00     0.000 A 
ENDBRANCH  13  16
ENDBRANCH   9  10
ENDBRANCH   8   9
ENDBRANCH   7   8
ENDBRANCH   1   7
BRANCH   4  22
ATOM     22  C   UNL     1      10.340   7.239 -12.599  1.00  0.00     0.101 C 
BRANCH  22  23
ATOM     23  C   UNL     1      11.286   8.459 -12.726  1.00  0.00     0.226 C 
ATOM     24  C   UNL     1      11.059   9.236 -14.018  1.00  0.00     0.033 C 
ATOM     25  O   UNL     1      11.177   9.250 -11.517  1.00  0.00    -0.479 OA
ATOM     26  C   UNL     1      10.809  10.550 -14.028  1.00  0.00     0.004 C 
ATOM     27  C   UNL     1      10.925  10.590 -11.632  1.00  0.00     0.189 C 
ATOM     28  C   UNL     1      10.745  11.249 -12.779  1.00  0.00     0.038 C 
BRANCH  23  29
ATOM     29  C   UNL     1      12.720   7.879 -12.779  1.00  0.00     0.352 C 
ATOM     30  O   UNL     1      13.128   6.872 -12.214  1.00  0.00    -0.247 OA
BRANCH  29  31
ATOM     31  O   UNL     1      13.600   8.633 -13.479  1.00  0.00    -0.478 OA
ATOM     32  H   UNL     1      13.038   9.284 -13.947  1.00  0.00     0.296 HD
ENDBRANCH  29  31
ENDBRANCH  23  29
ENDBRANCH  22  23
ENDBRANCH   4  22
TORSDOF 9
ENDMDL
MODEL 9
REMARK VINA RESULT:    -8.311      2.838      4.384
REMARK INTER + INTRA:         -13.341
REMARK INTER:                 -12.163
REMARK INTRA:                  -1.179
REMARK UNBOUND:                -0.900
REMARK SMILES Cc1oc(-c2ccccc2)nc1CCOc1ccc(C[C@@]2(C(=O)O)C=CC=CO2)cc1
REMARK SMILES IDX 16 1 17 2 18 3 19 4 30 5 31 6 15 7 14 8 13 9 12 10 2 11 3 12
REMARK SMILES IDX 4 13 11 14 1 15 5 16 6 17 10 18 7 19 9 20 8 21 20 22 21 23
REMARK SMILES IDX 25 24 29 25 26 26 28 27 27 28 22 29 23 30 24 31
REMARK H PARENT 24 32
ROOT
ATOM      1  C   UNL     1       7.312   5.154  -6.101  1.00  0.00     0.119 A 
ATOM      2  C   UNL     1       6.349   6.079  -6.506  1.00  0.00     0.047 A 
ATOM      3  C   UNL     1       5.277   6.408  -5.672  1.00  0.00     0.008 A 
ATOM      4  C   UNL     1       5.154   5.814  -4.411  1.00  0.00    -0.043 A 
ATOM      5  C   UNL     1       6.123   4.885  -4.007  1.00  0.00     0.008 A 
ATOM      6  C   UNL     1       7.195   4.557  -4.846  1.00  0.00     0.047 A 
ENDROOT
BRANCH   1   7
ATOM      7  O   UNL     1       8.304   4.926  -7.013  1.00  0.00    -0.493 OA
BRANCH   7   8
ATOM      8  C   UNL     1       8.996   6.068  -7.525  1.00  0.00     0.236 C 
BRANCH   8   9
ATOM      9  C   UNL     1      10.289   5.600  -8.193  1.00  0.00     0.101 C 
BRANCH   9  10
ATOM     10  C   UNL     1      10.370   6.010  -9.620  1.00  0.00     0.086 A 
ATOM     11  C   UNL     1      10.445   5.236 -10.759  1.00  0.00     0.125 A 
ATOM     12  O   UNL     1      10.509   6.076 -11.834  1.00  0.00    -0.441 OA
ATOM     13  C   UNL     1      10.466   7.333 -11.288  1.00  0.00     0.226 A 
ATOM     14  N   UNL     1      10.384   7.343  -9.971  1.00  0.00    -0.214 NA
ATOM     15  C   UNL     1      10.485   3.790 -11.035  1.00  0.00     0.090 C 
BRANCH  13  16
ATOM     16  C   UNL     1      10.519   8.458 -12.218  1.00  0.00     0.037 A 
ATOM     17  C   UNL     1      11.426   8.430 -13.290  1.00  0.00     0.014 A 
ATOM     18  C   UNL     1       9.686   9.579 -12.080  1.00  0.00     0.014 A 
ATOM     19  C   UNL     1      11.500   9.491 -14.195  1.00  0.00     0.001 A 
ATOM     20  C   UNL     1       9.759  10.642 -12.986  1.00  0.00     0.001 A 
ATOM     21  C   UNL     1      10.667  10.596 -14.042  1.00  0.00     0.000 A 
ENDBRANCH  13  16
ENDBRANCH   9  10
ENDBRANCH   8   9
ENDBRANCH   7   8
ENDBRANCH   1   7
BRANCH   4  22
ATOM     22  C   UNL     1       3.999   6.172  -3.499  1.00  0.00     0.101 C 
BRANCH  22  23
ATOM     23  C   UNL     1       3.906   7.665  -3.094  1.00  0.00     0.226 C 
ATOM     24  C   UNL     1       5.269   8.262  -2.765  1.00  0.00     0.033 C 
ATOM     25  O   UNL     1       3.166   8.371  -4.120  1.00  0.00    -0.479 OA
ATOM     26  C   UNL     1       5.727   9.369  -3.359  1.00  0.00     0.004 C 
ATOM     27  C   UNL     1       3.717   9.500  -4.663  1.00  0.00     0.189 C 
ATOM     28  C   UNL     1       4.909  10.010  -4.345  1.00  0.00     0.038 C 
BRANCH  23  29
ATOM     29  C   UNL     1       3.059   7.698  -1.798  1.00  0.00     0.352 C 
ATOM     30  O   UNL     1       2.864   8.665  -1.072  1.00  0.00    -0.247 OA
BRANCH  29  31
ATOM     31  O   UNL     1       2.557   6.497  -1.430  1.00  0.00    -0.478 OA
ATOM     32  H   UNL     1       1.705   6.716  -0.999  1.00  0.00     0.296 HD
ENDBRANCH  29  31
ENDBRANCH  23  29
ENDBRANCH  22  23
ENDBRANCH   4  22
TORSDOF 9
ENDMDL
