REMARK SMILES CCOC(=O)C1(c2ccc3c(c2)nc(Cc2ccc(C(=N)N)cc2)c(=O)n3C)CC1
REMARK SMILES IDX 7 1 8 2 9 3 10 4 11 5 12 6 13 7 14 8 25 9 26 10 27 11 28 12
REMARK SMILES IDX 6 13 29 14 30 15 4 16 5 17 3 18 2 19 1 20 15 21 16 22 17 23
REMARK SMILES IDX 24 24 18 25 23 26 19 27 20 28 21 29 22 30
REMARK H PARENT 21 31 22 32 22 33
REMARK INDEX MAP 7 1 8 2 9 3 10 4 11 5 12 6 13 7 14 8 25 9 26 10 27 11 28 12
REMARK INDEX MAP 6 13 29 14 30 15 4 16 5 17 3 18 2 19 1 20 15 21 16 22 17 23
REMARK INDEX MAP 24 24 18 25 23 26 19 27 20 28 21 29 22 30 43 31 44 32 45 33
ROOT
ATOM      1  C   UNL     1      -5.372   9.727  19.645  1.00  0.00    -0.028 A 
ATOM      2  C   UNL     1      -6.242  10.825  19.697  1.00  0.00     0.007 A 
ATOM      3  C   UNL     1      -6.023  11.893  20.575  1.00  0.00     0.029 A 
ATOM      4  C   UNL     1      -4.912  11.897  21.426  1.00  0.00     0.069 A 
ATOM      5  C   UNL     1      -4.018  10.816  21.381  1.00  0.00     0.088 A 
ATOM      6  C   UNL     1      -4.258   9.754  20.499  1.00  0.00     0.035 A 
ATOM      7  N   UNL     1      -2.862  10.744  22.172  1.00  0.00    -0.245 NA
ATOM      8  C   UNL     1      -2.625  11.717  23.002  1.00  0.00     0.111 A 
ATOM      9  C   UNL     1      -3.548  12.915  23.176  1.00  0.00     0.272 A 
ATOM     10  O   UNL     1      -3.280  13.744  24.037  1.00  0.00    -0.267 OA
ATOM     11  N   UNL     1      -4.659  12.960  22.339  1.00  0.00    -0.308 N 
ATOM     12  C   UNL     1      -5.567  14.088  22.434  1.00  0.00     0.154 C 
ENDROOT
BRANCH   1  13
ATOM     13  C   UNL     1      -5.602   8.569  18.678  1.00  0.00     0.093 C 
ATOM     14  C   UNL     1      -4.733   7.321  18.834  1.00  0.00     0.025 C 
ATOM     15  C   UNL     1      -6.168   7.267  19.246  1.00  0.00     0.025 C 
BRANCH  13  16
ATOM     16  C   UNL     1      -6.043   8.963  17.296  1.00  0.00     0.316 C 
ATOM     17  O   UNL     1      -7.219   9.158  17.022  1.00  0.00    -0.251 OA
BRANCH  16  18
ATOM     18  O   UNL     1      -4.988   9.078  16.446  1.00  0.00    -0.465 OA
BRANCH  18  19
ATOM     19  C   UNL     1      -4.972  10.291  15.687  1.00  0.00     0.229 C 
ATOM     20  C   UNL     1      -4.270  11.352  16.515  1.00  0.00     0.049 C 
ENDBRANCH  18  19
ENDBRANCH  16  18
ENDBRANCH  13  16
ENDBRANCH   1  13
BRANCH   8  21
ATOM     21  C   UNL     1      -1.366  11.700  23.835  1.00  0.00     0.097 C 
BRANCH  21  22
ATOM     22  C   UNL     1      -1.408  10.643  24.913  1.00  0.00    -0.042 A 
ATOM     23  C   UNL     1      -2.464  10.615  25.836  1.00  0.00     0.005 A 
ATOM     24  C   UNL     1      -0.404   9.668  24.993  1.00  0.00     0.005 A 
ATOM     25  C   UNL     1      -2.509   9.635  26.831  1.00  0.00     0.012 A 
ATOM     26  C   UNL     1      -0.447   8.688  25.987  1.00  0.00     0.012 A 
ATOM     27  C   UNL     1      -1.498   8.674  26.909  1.00  0.00     0.016 A 
BRANCH  27  28
ATOM     28  C   UNL     1      -1.539   7.631  27.968  1.00  0.00     0.122 C 
ATOM     29  N   UNL     1      -0.763   6.593  27.947  1.00  0.00    -0.284 NA
ATOM     30  N   UNL     1      -2.405   7.741  29.005  1.00  0.00    -0.384 N 
ATOM     31  H   UNL     1      -0.821   5.891  28.699  1.00  0.00     0.189 HD
ATOM     32  H   UNL     1      -2.429   7.015  29.735  1.00  0.00     0.158 HD
ATOM     33  H   UNL     1      -3.039   8.550  29.062  1.00  0.00     0.158 HD
ENDBRANCH  27  28
ENDBRANCH  21  22
ENDBRANCH   8  21
TORSDOF 7
