MODEL 1
REMARK VINA RESULT:    -8.664      0.000      0.000
REMARK INTER + INTRA:         -11.787
REMARK INTER:                 -11.197
REMARK INTRA:                  -0.590
REMARK UNBOUND:                -0.590
REMARK SMILES CCNc1nc(NCc2ccccc2)c2ccccc2n1
REMARK SMILES IDX 4 1 5 2 6 3 15 4 16 5 17 6 18 7 19 8 20 9 21 10 3 11 2 13
REMARK SMILES IDX 1 14 7 15 8 17 9 18 10 19 14 20 11 21 13 22 12 23
REMARK H PARENT 3 12 7 16
ROOT
ATOM      1  C   UNL     1     134.174 115.096  38.046  1.00  0.00     0.225 A 
ATOM      2  N   UNL     1     133.649 114.414  39.068  1.00  0.00    -0.195 NA
ATOM      3  C   UNL     1     133.259 115.101  40.156  1.00  0.00     0.139 A 
ATOM      4  C   UNL     1     133.433 116.490  40.254  1.00  0.00     0.043 A 
ATOM      5  C   UNL     1     133.099 117.283  41.384  1.00  0.00     0.014 A 
ATOM      6  C   UNL     1     133.304 118.661  41.376  1.00  0.00     0.001 A 
ATOM      7  C   UNL     1     133.844 119.261  40.247  1.00  0.00     0.002 A 
ATOM      8  C   UNL     1     134.180 118.477  39.141  1.00  0.00     0.029 A 
ATOM      9  C   UNL     1     133.988 117.100  39.127  1.00  0.00     0.078 A 
ATOM     10  N   UNL     1     134.347 116.418  38.037  1.00  0.00    -0.213 NA
ENDROOT
BRANCH   1  11
ATOM     11  N   UNL     1     134.574 114.437  36.916  1.00  0.00    -0.354 N 
ATOM     12  H   UNL     1     135.567 114.442  36.746  1.00  0.00     0.163 HD
BRANCH  11  13
ATOM     13  C   UNL     1     133.634 113.759  36.065  1.00  0.00     0.112 C 
ATOM     14  C   UNL     1     133.985 112.282  35.982  1.00  0.00     0.027 C 
ENDBRANCH  11  13
ENDBRANCH   1  11
BRANCH   3  15
ATOM     15  N   UNL     1     132.716 114.383  41.216  1.00  0.00    -0.365 N 
ATOM     16  H   UNL     1     132.024 114.853  41.781  1.00  0.00     0.162 HD
BRANCH  15  17
ATOM     17  C   UNL     1     132.575 112.947  41.090  1.00  0.00     0.150 C 
BRANCH  17  18
ATOM     18  C   UNL     1     133.782 112.281  41.708  1.00  0.00    -0.029 A 
ATOM     19  C   UNL     1     134.192 112.608  43.009  1.00  0.00     0.005 A 
ATOM     20  C   UNL     1     134.535 111.354  40.972  1.00  0.00     0.005 A 
ATOM     21  C   UNL     1     135.321 112.006  43.567  1.00  0.00     0.000 A 
ATOM     22  C   UNL     1     135.664 110.754  41.531  1.00  0.00     0.000 A 
ATOM     23  C   UNL     1     136.054 111.078  42.829  1.00  0.00     0.000 A 
ENDBRANCH  17  18
ENDBRANCH  15  17
ENDBRANCH   3  15
TORSDOF 5
ENDMDL
MODEL 2
REMARK VINA RESULT:    -8.646      4.381      5.580
REMARK INTER + INTRA:         -11.762
REMARK INTER:                 -11.102
REMARK INTRA:                  -0.660
REMARK UNBOUND:                -0.590
REMARK SMILES CCNc1nc(NCc2ccccc2)c2ccccc2n1
REMARK SMILES IDX 4 1 5 2 6 3 15 4 16 5 17 6 18 7 19 8 20 9 21 10 3 11 2 13
REMARK SMILES IDX 1 14 7 15 8 17 9 18 10 19 14 20 11 21 13 22 12 23
REMARK H PARENT 3 12 7 16
ROOT
ATOM      1  C   UNL     1     137.624 117.138  40.561  1.00  0.00     0.225 A 
ATOM      2  N   UNL     1     137.434 115.870  40.186  1.00  0.00    -0.195 NA
ATOM      3  C   UNL     1     138.348 114.955  40.555  1.00  0.00     0.139 A 
ATOM      4  C   UNL     1     139.499 115.310  41.276  1.00  0.00     0.043 A 
ATOM      5  C   UNL     1     140.536 114.419  41.659  1.00  0.00     0.014 A 
ATOM      6  C   UNL     1     141.637 114.872  42.384  1.00  0.00     0.001 A 
ATOM      7  C   UNL     1     141.716 116.214  42.730  1.00  0.00     0.002 A 
ATOM      8  C   UNL     1     140.698 117.090  42.343  1.00  0.00     0.029 A 
ATOM      9  C   UNL     1     139.593 116.661  41.617  1.00  0.00     0.078 A 
ATOM     10  N   UNL     1     138.669 117.562  41.273  1.00  0.00    -0.213 NA
ENDROOT
BRANCH   1  11
ATOM     11  N   UNL     1     136.713 118.099  40.216  1.00  0.00    -0.354 N 
ATOM     12  H   UNL     1     137.043 119.048  40.292  1.00  0.00     0.163 HD
BRANCH  11  13
ATOM     13  C   UNL     1     135.398 117.758  39.743  1.00  0.00     0.112 C 
ATOM     14  C   UNL     1     134.833 118.905  38.922  1.00  0.00     0.027 C 
ENDBRANCH  11  13
ENDBRANCH   1  11
BRANCH   3  15
ATOM     15  N   UNL     1     138.144 113.638  40.158  1.00  0.00    -0.365 N 
ATOM     16  H   UNL     1     138.818 112.955  40.473  1.00  0.00     0.162 HD
BRANCH  15  17
ATOM     17  C   UNL     1     136.788 113.165  39.973  1.00  0.00     0.150 C 
BRANCH  17  18
ATOM     18  C   UNL     1     136.217 112.778  41.317  1.00  0.00    -0.029 A 
ATOM     19  C   UNL     1     136.570 111.562  41.921  1.00  0.00     0.005 A 
ATOM     20  C   UNL     1     135.295 113.614  41.963  1.00  0.00     0.005 A 
ATOM     21  C   UNL     1     136.024 111.200  43.154  1.00  0.00     0.000 A 
ATOM     22  C   UNL     1     134.748 113.250  43.195  1.00  0.00     0.000 A 
ATOM     23  C   UNL     1     135.115 112.044  43.790  1.00  0.00     0.000 A 
ENDBRANCH  17  18
ENDBRANCH  15  17
ENDBRANCH   3  15
TORSDOF 5
ENDMDL
MODEL 3
REMARK VINA RESULT:    -8.589      4.416      5.576
REMARK INTER + INTRA:         -11.690
REMARK INTER:                 -11.039
REMARK INTRA:                  -0.651
REMARK UNBOUND:                -0.590
REMARK SMILES CCNc1nc(NCc2ccccc2)c2ccccc2n1
REMARK SMILES IDX 4 1 5 2 6 3 15 4 16 5 17 6 18 7 19 8 20 9 21 10 3 11 2 13
REMARK SMILES IDX 1 14 7 15 8 17 9 18 10 19 14 20 11 21 13 22 12 23
REMARK H PARENT 3 12 7 16
ROOT
ATOM      1  C   UNL     1     137.644 117.093  40.587  1.00  0.00     0.225 A 
ATOM      2  N   UNL     1     137.488 115.829  40.181  1.00  0.00    -0.195 NA
ATOM      3  C   UNL     1     138.422 114.929  40.535  1.00  0.00     0.139 A 
ATOM      4  C   UNL     1     139.560 115.295  41.269  1.00  0.00     0.043 A 
ATOM      5  C   UNL     1     140.618 114.422  41.638  1.00  0.00     0.014 A 
ATOM      6  C   UNL     1     141.703 114.885  42.379  1.00  0.00     0.001 A 
ATOM      7  C   UNL     1     141.747 116.220  42.757  1.00  0.00     0.002 A 
ATOM      8  C   UNL     1     140.710 117.079  42.384  1.00  0.00     0.029 A 
ATOM      9  C   UNL     1     139.619 116.640  41.642  1.00  0.00     0.078 A 
ATOM     10  N   UNL     1     138.675 117.525  41.314  1.00  0.00    -0.213 NA
ENDROOT
BRANCH   1  11
ATOM     11  N   UNL     1     136.712 118.038  40.259  1.00  0.00    -0.354 N 
ATOM     12  H   UNL     1     136.984 118.990  40.444  1.00  0.00     0.163 HD
BRANCH  11  13
ATOM     13  C   UNL     1     135.454 117.683  39.658  1.00  0.00     0.112 C 
ATOM     14  C   UNL     1     134.453 118.809  39.852  1.00  0.00     0.027 C 
ENDBRANCH  11  13
ENDBRANCH   1  11
BRANCH   3  15
ATOM     15  N   UNL     1     138.253 113.617  40.106  1.00  0.00    -0.365 N 
ATOM     16  H   UNL     1     138.930 112.940  40.426  1.00  0.00     0.162 HD
BRANCH  15  17
ATOM     17  C   UNL     1     136.912 113.124  39.873  1.00  0.00     0.150 C 
BRANCH  17  18
ATOM     18  C   UNL     1     136.317 112.685  41.191  1.00  0.00    -0.029 A 
ATOM     19  C   UNL     1     135.388 113.495  41.861  1.00  0.00     0.005 A 
ATOM     20  C   UNL     1     136.716 111.477  41.782  1.00  0.00     0.005 A 
ATOM     21  C   UNL     1     134.858 113.095  43.089  1.00  0.00     0.000 A 
ATOM     22  C   UNL     1     136.186 111.079  43.010  1.00  0.00     0.000 A 
ATOM     23  C   UNL     1     135.255 111.887  43.661  1.00  0.00     0.000 A 
ENDBRANCH  17  18
ENDBRANCH  15  17
ENDBRANCH   3  15
TORSDOF 5
ENDMDL
MODEL 4
REMARK VINA RESULT:    -8.523      4.336      6.675
REMARK INTER + INTRA:         -11.603
REMARK INTER:                 -10.808
REMARK INTRA:                  -0.796
REMARK UNBOUND:                -0.590
REMARK SMILES CCNc1nc(NCc2ccccc2)c2ccccc2n1
REMARK SMILES IDX 4 1 5 2 6 3 15 4 16 5 17 6 18 7 19 8 20 9 21 10 3 11 2 13
REMARK SMILES IDX 1 14 7 15 8 17 9 18 10 19 14 20 11 21 13 22 12 23
REMARK H PARENT 3 12 7 16
ROOT
ATOM      1  C   UNL     1     134.635 115.119  42.736  1.00  0.00     0.225 A 
ATOM      2  N   UNL     1     135.580 115.651  41.956  1.00  0.00    -0.195 NA
ATOM      3  C   UNL     1     136.476 114.823  41.391  1.00  0.00     0.139 A 
ATOM      4  C   UNL     1     136.466 113.442  41.638  1.00  0.00     0.043 A 
ATOM      5  C   UNL     1     137.404 112.507  41.127  1.00  0.00     0.014 A 
ATOM      6  C   UNL     1     137.298 111.151  41.426  1.00  0.00     0.001 A 
ATOM      7  C   UNL     1     136.261 110.713  42.238  1.00  0.00     0.002 A 
ATOM      8  C   UNL     1     135.345 111.637  42.748  1.00  0.00     0.029 A 
ATOM      9  C   UNL     1     135.432 112.996  42.465  1.00  0.00     0.078 A 
ATOM     10  N   UNL     1     134.526 113.817  43.001  1.00  0.00    -0.213 NA
ENDROOT
BRANCH   1  11
ATOM     11  N   UNL     1     133.696 115.924  43.321  1.00  0.00    -0.354 N 
ATOM     12  H   UNL     1     134.000 116.398  44.156  1.00  0.00     0.163 HD
BRANCH  11  13
ATOM     13  C   UNL     1     132.388 116.099  42.749  1.00  0.00     0.112 C 
ATOM     14  C   UNL     1     131.344 115.449  43.642  1.00  0.00     0.027 C 
ENDBRANCH  11  13
ENDBRANCH   1  11
BRANCH   3  15
ATOM     15  N   UNL     1     137.458 115.386  40.582  1.00  0.00    -0.365 N 
ATOM     16  H   UNL     1     137.325 115.316  39.583  1.00  0.00     0.162 HD
BRANCH  15  17
ATOM     17  C   UNL     1     138.170 116.556  41.054  1.00  0.00     0.150 C 
BRANCH  17  18
ATOM     18  C   UNL     1     139.529 116.130  41.559  1.00  0.00    -0.029 A 
ATOM     19  C   UNL     1     140.248 116.942  42.448  1.00  0.00     0.005 A 
ATOM     20  C   UNL     1     140.108 114.933  41.112  1.00  0.00     0.005 A 
ATOM     21  C   UNL     1     141.513 116.554  42.894  1.00  0.00     0.000 A 
ATOM     22  C   UNL     1     141.373 114.547  41.558  1.00  0.00     0.000 A 
ATOM     23  C   UNL     1     142.073 115.357  42.451  1.00  0.00     0.000 A 
ENDBRANCH  17  18
ENDBRANCH  15  17
ENDBRANCH   3  15
TORSDOF 5
ENDMDL
MODEL 5
REMARK VINA RESULT:    -8.406      4.075      5.408
REMARK INTER + INTRA:         -11.453
REMARK INTER:                 -10.777
REMARK INTRA:                  -0.676
REMARK UNBOUND:                -0.590
REMARK SMILES CCNc1nc(NCc2ccccc2)c2ccccc2n1
REMARK SMILES IDX 4 1 5 2 6 3 15 4 16 5 17 6 18 7 19 8 20 9 21 10 3 11 2 13
REMARK SMILES IDX 1 14 7 15 8 17 9 18 10 19 14 20 11 21 13 22 12 23
REMARK H PARENT 3 12 7 16
ROOT
ATOM      1  C   UNL     1     134.725 114.273  41.472  1.00  0.00     0.225 A 
ATOM      2  N   UNL     1     135.947 114.460  40.966  1.00  0.00    -0.195 NA
ATOM      3  C   UNL     1     136.296 115.702  40.590  1.00  0.00     0.139 A 
ATOM      4  C   UNL     1     135.401 116.779  40.675  1.00  0.00     0.043 A 
ATOM      5  C   UNL     1     135.668 118.108  40.252  1.00  0.00     0.014 A 
ATOM      6  C   UNL     1     134.709 119.109  40.389  1.00  0.00     0.001 A 
ATOM      7  C   UNL     1     133.476 118.797  40.944  1.00  0.00     0.002 A 
ATOM      8  C   UNL     1     133.212 117.487  41.350  1.00  0.00     0.029 A 
ATOM      9  C   UNL     1     134.152 116.470  41.221  1.00  0.00     0.078 A 
ATOM     10  N   UNL     1     133.819 115.241  41.620  1.00  0.00    -0.213 NA
ENDROOT
BRANCH   1  11
ATOM     11  N   UNL     1     134.333 113.027  41.877  1.00  0.00    -0.354 N 
ATOM     12  H   UNL     1     134.491 112.290  41.208  1.00  0.00     0.163 HD
BRANCH  11  13
ATOM     13  C   UNL     1     133.775 112.798  43.182  1.00  0.00     0.112 C 
ATOM     14  C   UNL     1     134.878 112.415  44.155  1.00  0.00     0.027 C 
ENDBRANCH  11  13
ENDBRANCH   1  11
BRANCH   3  15
ATOM     15  N   UNL     1     137.570 115.887  40.063  1.00  0.00    -0.365 N 
ATOM     16  H   UNL     1     137.915 116.835  40.018  1.00  0.00     0.162 HD
BRANCH  15  17
ATOM     17  C   UNL     1     138.564 114.850  40.253  1.00  0.00     0.150 C 
BRANCH  17  18
ATOM     18  C   UNL     1     139.669 115.388  41.132  1.00  0.00    -0.029 A 
ATOM     19  C   UNL     1     140.682 114.541  41.605  1.00  0.00     0.005 A 
ATOM     20  C   UNL     1     139.674 116.735  41.520  1.00  0.00     0.005 A 
ATOM     21  C   UNL     1     141.689 115.038  42.434  1.00  0.00     0.000 A 
ATOM     22  C   UNL     1     140.680 117.231  42.350  1.00  0.00     0.000 A 
ATOM     23  C   UNL     1     141.688 116.382  42.804  1.00  0.00     0.000 A 
ENDBRANCH  17  18
ENDBRANCH  15  17
ENDBRANCH   3  15
TORSDOF 5
ENDMDL
MODEL 6
REMARK VINA RESULT:    -8.393      3.621      4.831
REMARK INTER + INTRA:         -11.436
REMARK INTER:                 -10.654
REMARK INTRA:                  -0.782
REMARK UNBOUND:                -0.590
REMARK SMILES CCNc1nc(NCc2ccccc2)c2ccccc2n1
REMARK SMILES IDX 4 1 5 2 6 3 15 4 16 5 17 6 18 7 19 8 20 9 21 10 3 11 2 13
REMARK SMILES IDX 1 14 7 15 8 17 9 18 10 19 14 20 11 21 13 22 12 23
REMARK H PARENT 3 12 7 16
ROOT
ATOM      1  C   UNL     1     138.233 116.663  40.968  1.00  0.00     0.225 A 
ATOM      2  N   UNL     1     137.521 115.618  41.398  1.00  0.00    -0.195 NA
ATOM      3  C   UNL     1     136.186 115.652  41.241  1.00  0.00     0.139 A 
ATOM      4  C   UNL     1     135.535 116.763  40.684  1.00  0.00     0.043 A 
ATOM      5  C   UNL     1     134.130 116.903  40.531  1.00  0.00     0.014 A 
ATOM      6  C   UNL     1     133.584 118.048  39.955  1.00  0.00     0.001 A 
ATOM      7  C   UNL     1     134.429 119.064  39.530  1.00  0.00     0.002 A 
ATOM      8  C   UNL     1     135.810 118.928  39.692  1.00  0.00     0.029 A 
ATOM      9  C   UNL     1     136.378 117.796  40.266  1.00  0.00     0.078 A 
ATOM     10  N   UNL     1     137.705 117.747  40.398  1.00  0.00    -0.213 NA
ENDROOT
BRANCH   1  11
ATOM     11  N   UNL     1     139.595 116.665  41.098  1.00  0.00    -0.354 N 
ATOM     12  H   UNL     1     140.073 117.385  40.582  1.00  0.00     0.163 HD
BRANCH  11  13
ATOM     13  C   UNL     1     140.274 115.723  41.947  1.00  0.00     0.112 C 
ATOM     14  C   UNL     1     141.339 116.438  42.762  1.00  0.00     0.027 C 
ENDBRANCH  11  13
ENDBRANCH   1  11
BRANCH   3  15
ATOM     15  N   UNL     1     135.452 114.560  41.695  1.00  0.00    -0.365 N 
ATOM     16  H   UNL     1     135.600 113.681  41.221  1.00  0.00     0.162 HD
BRANCH  15  17
ATOM     17  C   UNL     1     135.104 114.485  43.098  1.00  0.00     0.150 C 
BRANCH  17  18
ATOM     18  C   UNL     1     133.598 114.488  43.229  1.00  0.00    -0.029 A 
ATOM     19  C   UNL     1     132.914 115.660  43.583  1.00  0.00     0.005 A 
ATOM     20  C   UNL     1     132.867 113.307  43.037  1.00  0.00     0.005 A 
ATOM     21  C   UNL     1     131.525 115.653  43.723  1.00  0.00     0.000 A 
ATOM     22  C   UNL     1     131.479 113.300  43.178  1.00  0.00     0.000 A 
ATOM     23  C   UNL     1     130.809 114.474  43.519  1.00  0.00     0.000 A 
ENDBRANCH  17  18
ENDBRANCH  15  17
ENDBRANCH   3  15
TORSDOF 5
ENDMDL
MODEL 7
REMARK VINA RESULT:    -8.344      5.357      6.091
REMARK INTER + INTRA:         -11.373
REMARK INTER:                 -10.615
REMARK INTRA:                  -0.758
REMARK UNBOUND:                -0.590
REMARK SMILES CCNc1nc(NCc2ccccc2)c2ccccc2n1
REMARK SMILES IDX 4 1 5 2 6 3 15 4 16 5 17 6 18 7 19 8 20 9 21 10 3 11 2 13
REMARK SMILES IDX 1 14 7 15 8 17 9 18 10 19 14 20 11 21 13 22 12 23
REMARK H PARENT 3 12 7 16
ROOT
ATOM      1  C   UNL     1     140.584 113.172  39.574  1.00  0.00     0.225 A 
ATOM      2  N   UNL     1     139.310 113.563  39.485  1.00  0.00    -0.195 NA
ATOM      3  C   UNL     1     138.910 114.601  40.240  1.00  0.00     0.139 A 
ATOM      4  C   UNL     1     139.779 115.240  41.137  1.00  0.00     0.043 A 
ATOM      5  C   UNL     1     139.427 116.305  42.008  1.00  0.00     0.014 A 
ATOM      6  C   UNL     1     140.371 116.877  42.857  1.00  0.00     0.001 A 
ATOM      7  C   UNL     1     141.672 116.394  42.851  1.00  0.00     0.002 A 
ATOM      8  C   UNL     1     142.014 115.339  42.000  1.00  0.00     0.029 A 
ATOM      9  C   UNL     1     141.088 114.750  41.146  1.00  0.00     0.078 A 
ATOM     10  N   UNL     1     141.489 113.738  40.374  1.00  0.00    -0.213 NA
ENDROOT
BRANCH   1  11
ATOM     11  N   UNL     1     141.035 112.127  38.815  1.00  0.00    -0.354 N 
ATOM     12  H   UNL     1     142.037 112.046  38.750  1.00  0.00     0.163 HD
BRANCH  11  13
ATOM     13  C   UNL     1     140.130 111.198  38.194  1.00  0.00     0.112 C 
ATOM     14  C   UNL     1     140.912 110.178  37.384  1.00  0.00     0.027 C 
ENDBRANCH  11  13
ENDBRANCH   1  11
BRANCH   3  15
ATOM     15  N   UNL     1     137.581 115.001  40.142  1.00  0.00    -0.365 N 
ATOM     16  H   UNL     1     137.404 115.905  39.730  1.00  0.00     0.162 HD
BRANCH  15  17
ATOM     17  C   UNL     1     136.560 113.993  39.945  1.00  0.00     0.150 C 
BRANCH  17  18
ATOM     18  C   UNL     1     135.987 113.609  41.289  1.00  0.00    -0.029 A 
ATOM     19  C   UNL     1     136.006 112.273  41.719  1.00  0.00     0.005 A 
ATOM     20  C   UNL     1     135.393 114.578  42.110  1.00  0.00     0.005 A 
ATOM     21  C   UNL     1     135.456 111.920  42.953  1.00  0.00     0.000 A 
ATOM     22  C   UNL     1     134.842 114.223  43.343  1.00  0.00     0.000 A 
ATOM     23  C   UNL     1     134.877 112.895  43.764  1.00  0.00     0.000 A 
ENDBRANCH  17  18
ENDBRANCH  15  17
ENDBRANCH   3  15
TORSDOF 5
ENDMDL
MODEL 8
REMARK VINA RESULT:    -8.327      4.214      5.591
REMARK INTER + INTRA:         -11.351
REMARK INTER:                 -10.840
REMARK INTRA:                  -0.512
REMARK UNBOUND:                -0.590
REMARK SMILES CCNc1nc(NCc2ccccc2)c2ccccc2n1
REMARK SMILES IDX 4 1 5 2 6 3 15 4 16 5 17 6 18 7 19 8 20 9 21 10 3 11 2 13
REMARK SMILES IDX 1 14 7 15 8 17 9 18 10 19 14 20 11 21 13 22 12 23
REMARK H PARENT 3 12 7 16
ROOT
ATOM      1  C   UNL     1     134.206 117.350  40.493  1.00  0.00     0.225 A 
ATOM      2  N   UNL     1     135.492 117.108  40.763  1.00  0.00    -0.195 NA
ATOM      3  C   UNL     1     135.796 116.017  41.487  1.00  0.00     0.139 A 
ATOM      4  C   UNL     1     134.801 115.167  41.994  1.00  0.00     0.043 A 
ATOM      5  C   UNL     1     135.030 114.028  42.810  1.00  0.00     0.014 A 
ATOM      6  C   UNL     1     133.969 113.242  43.256  1.00  0.00     0.001 A 
ATOM      7  C   UNL     1     132.673 113.585  42.897  1.00  0.00     0.002 A 
ATOM      8  C   UNL     1     132.450 114.712  42.103  1.00  0.00     0.029 A 
ATOM      9  C   UNL     1     133.492 115.513  41.649  1.00  0.00     0.078 A 
ATOM     10  N   UNL     1     133.197 116.581  40.905  1.00  0.00    -0.213 NA
ENDROOT
BRANCH   1  11
ATOM     11  N   UNL     1     133.855 118.442  39.750  1.00  0.00    -0.354 N 
ATOM     12  H   UNL     1     133.082 118.977  40.114  1.00  0.00     0.163 HD
BRANCH  11  13
ATOM     13  C   UNL     1     134.572 118.809  38.559  1.00  0.00     0.112 C 
ATOM     14  C   UNL     1     134.194 117.876  37.421  1.00  0.00     0.027 C 
ENDBRANCH  11  13
ENDBRANCH   1  11
BRANCH   3  15
ATOM     15  N   UNL     1     137.137 115.775  41.765  1.00  0.00    -0.365 N 
ATOM     16  H   UNL     1     137.340 115.137  42.521  1.00  0.00     0.162 HD
BRANCH  15  17
ATOM     17  C   UNL     1     138.095 115.812  40.679  1.00  0.00     0.150 C 
BRANCH  17  18
ATOM     18  C   UNL     1     139.490 115.802  41.258  1.00  0.00    -0.029 A 
ATOM     19  C   UNL     1     140.307 114.667  41.137  1.00  0.00     0.005 A 
ATOM     20  C   UNL     1     139.975 116.914  41.961  1.00  0.00     0.005 A 
ATOM     21  C   UNL     1     141.587 114.655  41.692  1.00  0.00     0.000 A 
ATOM     22  C   UNL     1     141.254 116.901  42.516  1.00  0.00     0.000 A 
ATOM     23  C   UNL     1     142.061 115.772  42.380  1.00  0.00     0.000 A 
ENDBRANCH  17  18
ENDBRANCH  15  17
ENDBRANCH   3  15
TORSDOF 5
ENDMDL
MODEL 9
REMARK VINA RESULT:    -8.279      4.137      6.025
REMARK INTER + INTRA:         -11.289
REMARK INTER:                 -10.588
REMARK INTRA:                  -0.701
REMARK UNBOUND:                -0.590
REMARK SMILES CCNc1nc(NCc2ccccc2)c2ccccc2n1
REMARK SMILES IDX 4 1 5 2 6 3 15 4 16 5 17 6 18 7 19 8 20 9 21 10 3 11 2 13
REMARK SMILES IDX 1 14 7 15 8 17 9 18 10 19 14 20 11 21 13 22 12 23
REMARK H PARENT 3 12 7 16
ROOT
ATOM      1  C   UNL     1     135.283 113.412  38.045  1.00  0.00     0.225 A 
ATOM      2  N   UNL     1     136.430 114.055  38.282  1.00  0.00    -0.195 NA
ATOM      3  C   UNL     1     137.169 113.668  39.336  1.00  0.00     0.139 A 
ATOM      4  C   UNL     1     136.744 112.649  40.202  1.00  0.00     0.043 A 
ATOM      5  C   UNL     1     137.435 112.215  41.364  1.00  0.00     0.014 A 
ATOM      6  C   UNL     1     136.931 111.185  42.154  1.00  0.00     0.001 A 
ATOM      7  C   UNL     1     135.734 110.579  41.797  1.00  0.00     0.002 A 
ATOM      8  C   UNL     1     135.051 111.015  40.659  1.00  0.00     0.029 A 
ATOM      9  C   UNL     1     135.533 112.043  39.857  1.00  0.00     0.078 A 
ATOM     10  N   UNL     1     134.816 112.411  38.793  1.00  0.00    -0.213 NA
ENDROOT
BRANCH   1  11
ATOM     11  N   UNL     1     134.506 113.766  36.977  1.00  0.00    -0.354 N 
ATOM     12  H   UNL     1     134.692 114.681  36.597  1.00  0.00     0.163 HD
BRANCH  11  13
ATOM     13  C   UNL     1     133.528 112.870  36.423  1.00  0.00     0.112 C 
ATOM     14  C   UNL     1     133.476 113.031  34.913  1.00  0.00     0.027 C 
ENDBRANCH  11  13
ENDBRANCH   1  11
BRANCH   3  15
ATOM     15  N   UNL     1     138.360 114.346  39.577  1.00  0.00    -0.365 N 
ATOM     16  H   UNL     1     139.113 114.196  38.921  1.00  0.00     0.162 HD
BRANCH  15  17
ATOM     17  C   UNL     1     138.309 115.646  40.212  1.00  0.00     0.150 C 
BRANCH  17  18
ATOM     18  C   UNL     1     139.532 115.812  41.084  1.00  0.00    -0.029 A 
ATOM     19  C   UNL     1     140.249 114.693  41.529  1.00  0.00     0.005 A 
ATOM     20  C   UNL     1     139.943 117.089  41.493  1.00  0.00     0.005 A 
ATOM     21  C   UNL     1     141.366 114.850  42.353  1.00  0.00     0.000 A 
ATOM     22  C   UNL     1     141.058 117.245  42.317  1.00  0.00     0.000 A 
ATOM     23  C   UNL     1     141.770 116.126  42.744  1.00  0.00     0.000 A 
ENDBRANCH  17  18
ENDBRANCH  15  17
ENDBRANCH   3  15
TORSDOF 5
ENDMDL
