MODEL 1
REMARK VINA RESULT:   -10.988      0.000      0.000
REMARK INTER + INTRA:         -15.796
REMARK INTER:                 -14.842
REMARK INTRA:                  -0.955
REMARK UNBOUND:                -0.955
REMARK SMILES C=CC(=O)N1C[C@]2(n3nc(-c4ccc(Oc5ccc6c(c5)ncn6C)c(C)c4)c4c(C)ncnc43)C[C@H]1C2
REMARK SMILES IDX 8 1 9 2 10 3 29 4 30 5 31 6 32 7 33 8 34 9 35 10 7 11 5 12
REMARK SMILES IDX 6 13 37 14 36 15 38 16 3 17 4 18 2 19 1 20 11 21 12 22 28 23
REMARK SMILES IDX 13 24 26 25 14 26 27 27 15 28 16 29 17 30 21 31 18 32 20 33
REMARK SMILES IDX 19 34 22 35 24 36 23 37 25 38
REMARK H PARENT
ROOT
ATOM      1  N   UNL     1      16.358   2.843  25.582  1.00  0.00    -0.238 N 
ATOM      2  N   UNL     1      15.345   3.275  26.358  1.00  0.00    -0.170 NA
ATOM      3  C   UNL     1      15.034   2.210  27.114  1.00  0.00     0.104 A 
ATOM      4  C   UNL     1      15.891   1.103  26.841  1.00  0.00     0.068 A 
ATOM      5  C   UNL     1      16.096  -0.206  27.303  1.00  0.00     0.052 A 
ATOM      6  C   UNL     1      15.315  -0.871  28.392  1.00  0.00     0.067 C 
ATOM      7  N   UNL     1      17.081  -0.942  26.712  1.00  0.00    -0.241 NA
ATOM      8  C   UNL     1      17.826  -0.381  25.739  1.00  0.00     0.224 A 
ATOM      9  N   UNL     1      17.723   0.860  25.242  1.00  0.00    -0.217 NA
ATOM     10  C   UNL     1      16.734   1.551  25.837  1.00  0.00     0.162 A 
ENDROOT
BRANCH   1  11
ATOM     11  C   UNL     1      17.006   3.701  24.607  1.00  0.00     0.087 C 
ATOM     12  N   UNL     1      17.518   4.565  22.634  1.00  0.00    -0.334 N 
ATOM     13  C   UNL     1      16.606   3.537  23.148  1.00  0.00     0.151 C 
ATOM     14  C   UNL     1      18.211   5.091  23.831  1.00  0.00     0.090 C 
ATOM     15  C   UNL     1      17.070   5.232  24.914  1.00  0.00     0.058 C 
ATOM     16  C   UNL     1      18.569   3.801  24.665  1.00  0.00     0.058 C 
BRANCH  12  17
ATOM     17  C   UNL     1      17.600   4.876  21.303  1.00  0.00     0.246 C 
ATOM     18  O   UNL     1      16.659   5.360  20.680  1.00  0.00    -0.270 OA
BRANCH  17  19
ATOM     19  C   UNL     1      18.899   4.593  20.639  1.00  0.00     0.063 C 
ATOM     20  C   UNL     1      19.330   3.332  20.500  1.00  0.00     0.014 C 
ENDBRANCH  17  19
ENDBRANCH  12  17
ENDBRANCH   1  11
BRANCH   3  21
ATOM     21  C   UNL     1      13.945   2.290  28.077  1.00  0.00     0.003 A 
ATOM     22  C   UNL     1      12.632   2.468  27.629  1.00  0.00     0.014 A 
ATOM     23  C   UNL     1      14.203   2.193  29.451  1.00  0.00     0.017 A 
ATOM     24  C   UNL     1      11.586   2.565  28.548  1.00  0.00     0.048 A 
ATOM     25  C   UNL     1      13.160   2.288  30.385  1.00  0.00    -0.008 A 
ATOM     26  C   UNL     1      11.847   2.460  29.919  1.00  0.00     0.130 A 
ATOM     27  C   UNL     1      13.448   2.192  31.856  1.00  0.00     0.048 C 
BRANCH  26  28
ATOM     28  O   UNL     1      10.845   2.592  30.861  1.00  0.00    -0.457 OA
BRANCH  28  29
ATOM     29  C   UNL     1      10.145   1.453  31.196  1.00  0.00     0.129 A 
ATOM     30  C   UNL     1       8.859   1.513  31.746  1.00  0.00     0.049 A 
ATOM     31  C   UNL     1      10.753   0.228  30.899  1.00  0.00     0.077 A 
ATOM     32  C   UNL     1       8.156   0.344  32.061  1.00  0.00     0.032 A 
ATOM     33  C   UNL     1      10.061  -0.949  31.213  1.00  0.00     0.092 A 
ATOM     34  C   UNL     1       8.794  -0.871  31.788  1.00  0.00     0.068 A 
ATOM     35  N   UNL     1      10.444  -2.258  31.039  1.00  0.00    -0.237 NA
ATOM     36  N   UNL     1       8.430  -2.184  31.965  1.00  0.00    -0.334 N 
ATOM     37  C   UNL     1       9.442  -2.974  31.497  1.00  0.00     0.200 A 
ATOM     38  C   UNL     1       7.203  -2.658  32.549  1.00  0.00     0.151 C 
ENDBRANCH  28  29
ENDBRANCH  26  28
ENDBRANCH   3  21
TORSDOF 6
ENDMDL
MODEL 2
REMARK VINA RESULT:   -10.504      3.099      4.083
REMARK INTER + INTRA:         -15.143
REMARK INTER:                 -13.592
REMARK INTRA:                  -1.551
REMARK UNBOUND:                -0.955
REMARK SMILES C=CC(=O)N1C[C@]2(n3nc(-c4ccc(Oc5ccc6c(c5)ncn6C)c(C)c4)c4c(C)ncnc43)C[C@H]1C2
REMARK SMILES IDX 8 1 9 2 10 3 29 4 30 5 31 6 32 7 33 8 34 9 35 10 7 11 5 12
REMARK SMILES IDX 6 13 37 14 36 15 38 16 3 17 4 18 2 19 1 20 11 21 12 22 28 23
REMARK SMILES IDX 13 24 26 25 14 26 27 27 15 28 16 29 17 30 21 31 18 32 20 33
REMARK SMILES IDX 19 34 22 35 24 36 23 37 25 38
REMARK H PARENT
ROOT
ATOM      1  N   UNL     1      13.918   4.843  25.952  1.00  0.00    -0.238 N 
ATOM      2  N   UNL     1      13.055   4.497  26.926  1.00  0.00    -0.170 NA
ATOM      3  C   UNL     1      13.504   3.306  27.355  1.00  0.00     0.104 A 
ATOM      4  C   UNL     1      14.692   2.915  26.669  1.00  0.00     0.068 A 
ATOM      5  C   UNL     1      15.618   1.861  26.688  1.00  0.00     0.052 A 
ATOM      6  C   UNL     1      15.563   0.678  27.604  1.00  0.00     0.067 C 
ATOM      7  N   UNL     1      16.653   1.906  25.800  1.00  0.00    -0.241 NA
ATOM      8  C   UNL     1      16.758   2.961  24.968  1.00  0.00     0.224 A 
ATOM      9  N   UNL     1      15.942   4.021  24.883  1.00  0.00    -0.217 NA
ATOM     10  C   UNL     1      14.927   3.936  25.762  1.00  0.00     0.162 A 
ENDROOT
BRANCH   1  11
ATOM     11  C   UNL     1      13.796   6.089  25.217  1.00  0.00     0.087 C 
ATOM     12  N   UNL     1      14.327   8.103  24.465  1.00  0.00    -0.334 N 
ATOM     13  C   UNL     1      14.939   7.088  25.330  1.00  0.00     0.151 C 
ATOM     14  C   UNL     1      13.034   7.515  24.046  1.00  0.00     0.090 C 
ATOM     15  C   UNL     1      13.379   6.010  23.713  1.00  0.00     0.058 C 
ATOM     16  C   UNL     1      12.454   6.883  25.368  1.00  0.00     0.058 C 
BRANCH  12  17
ATOM     17  C   UNL     1      14.938   9.295  24.184  1.00  0.00     0.246 C 
ATOM     18  O   UNL     1      14.577  10.356  24.689  1.00  0.00    -0.270 OA
BRANCH  17  19
ATOM     19  C   UNL     1      16.070   9.245  23.223  1.00  0.00     0.063 C 
ATOM     20  C   UNL     1      15.915   8.677  22.020  1.00  0.00     0.014 C 
ENDBRANCH  17  19
ENDBRANCH  12  17
ENDBRANCH   1  11
BRANCH   3  21
ATOM     21  C   UNL     1      12.796   2.593  28.408  1.00  0.00     0.003 A 
ATOM     22  C   UNL     1      11.566   1.986  28.132  1.00  0.00     0.014 A 
ATOM     23  C   UNL     1      13.337   2.513  29.698  1.00  0.00     0.017 A 
ATOM     24  C   UNL     1      10.873   1.319  29.143  1.00  0.00     0.048 A 
ATOM     25  C   UNL     1      12.650   1.843  30.723  1.00  0.00    -0.008 A 
ATOM     26  C   UNL     1      11.420   1.233  30.429  1.00  0.00     0.130 A 
ATOM     27  C   UNL     1      13.234   1.769  32.104  1.00  0.00     0.048 C 
BRANCH  26  28
ATOM     28  O   UNL     1      10.747   0.617  31.465  1.00  0.00    -0.457 OA
BRANCH  28  29
ATOM     29  C   UNL     1       9.478   1.075  31.750  1.00  0.00     0.129 A 
ATOM     30  C   UNL     1       8.389   0.204  31.866  1.00  0.00     0.049 A 
ATOM     31  C   UNL     1       9.342   2.448  31.984  1.00  0.00     0.077 A 
ATOM     32  C   UNL     1       7.112   0.687  32.176  1.00  0.00     0.032 A 
ATOM     33  C   UNL     1       8.068   2.944  32.291  1.00  0.00     0.092 A 
ATOM     34  C   UNL     1       6.988   2.067  32.374  1.00  0.00     0.068 A 
ATOM     35  N   UNL     1       7.674   4.237  32.543  1.00  0.00    -0.237 NA
ATOM     36  N   UNL     1       5.923   2.882  32.674  1.00  0.00    -0.334 N 
ATOM     37  C   UNL     1       6.382   4.165  32.772  1.00  0.00     0.200 A 
ATOM     38  C   UNL     1       4.556   2.469  32.849  1.00  0.00     0.151 C 
ENDBRANCH  28  29
ENDBRANCH  26  28
ENDBRANCH   3  21
TORSDOF 6
ENDMDL
MODEL 3
REMARK VINA RESULT:   -10.408      1.974      3.414
REMARK INTER + INTRA:         -15.013
REMARK INTER:                 -13.693
REMARK INTRA:                  -1.320
REMARK UNBOUND:                -0.955
REMARK SMILES C=CC(=O)N1C[C@]2(n3nc(-c4ccc(Oc5ccc6c(c5)ncn6C)c(C)c4)c4c(C)ncnc43)C[C@H]1C2
REMARK SMILES IDX 8 1 9 2 10 3 29 4 30 5 31 6 32 7 33 8 34 9 35 10 7 11 5 12
REMARK SMILES IDX 6 13 37 14 36 15 38 16 3 17 4 18 2 19 1 20 11 21 12 22 28 23
REMARK SMILES IDX 13 24 26 25 14 26 27 27 15 28 16 29 17 30 21 31 18 32 20 33
REMARK SMILES IDX 19 34 22 35 24 36 23 37 25 38
REMARK H PARENT
ROOT
ATOM      1  N   UNL     1      15.819   3.805  24.983  1.00  0.00    -0.238 N 
ATOM      2  N   UNL     1      15.598   2.898  25.954  1.00  0.00    -0.170 NA
ATOM      3  C   UNL     1      14.378   3.210  26.422  1.00  0.00     0.104 A 
ATOM      4  C   UNL     1      13.805   4.303  25.708  1.00  0.00     0.068 A 
ATOM      5  C   UNL     1      12.606   5.033  25.687  1.00  0.00     0.052 A 
ATOM      6  C   UNL     1      11.430   4.788  26.578  1.00  0.00     0.067 C 
ATOM      7  N   UNL     1      12.498   6.053  24.788  1.00  0.00    -0.241 NA
ATOM      8  C   UNL     1      13.523   6.301  23.949  1.00  0.00     0.224 A 
ATOM      9  N   UNL     1      14.695   5.655  23.876  1.00  0.00    -0.217 NA
ATOM     10  C   UNL     1      14.773   4.666  24.785  1.00  0.00     0.162 A 
ENDROOT
BRANCH   1  11
ATOM     11  C   UNL     1      17.042   3.818  24.201  1.00  0.00     0.087 C 
ATOM     12  N   UNL     1      18.353   3.814  22.417  1.00  0.00    -0.334 N 
ATOM     13  C   UNL     1      16.910   3.818  22.685  1.00  0.00     0.151 C 
ATOM     14  C   UNL     1      18.988   3.822  23.754  1.00  0.00     0.090 C 
ATOM     15  C   UNL     1      18.139   4.864  24.584  1.00  0.00     0.058 C 
ATOM     16  C   UNL     1      18.149   2.777  24.583  1.00  0.00     0.058 C 
BRANCH  12  17
ATOM     17  C   UNL     1      18.864   3.812  21.147  1.00  0.00     0.246 C 
ATOM     18  O   UNL     1      18.502   3.008  20.291  1.00  0.00    -0.270 OA
BRANCH  17  19
ATOM     19  C   UNL     1      19.895   4.840  20.850  1.00  0.00     0.063 C 
ATOM     20  C   UNL     1      19.637   6.139  21.055  1.00  0.00     0.014 C 
ENDBRANCH  17  19
ENDBRANCH  12  17
ENDBRANCH   1  11
BRANCH   3  21
ATOM     21  C   UNL     1      13.799   2.448  27.519  1.00  0.00     0.003 A 
ATOM     22  C   UNL     1      12.897   1.413  27.247  1.00  0.00     0.014 A 
ATOM     23  C   UNL     1      14.135   2.746  28.846  1.00  0.00     0.017 A 
ATOM     24  C   UNL     1      12.323   0.692  28.295  1.00  0.00     0.048 A 
ATOM     25  C   UNL     1      13.565   2.027  29.908  1.00  0.00    -0.008 A 
ATOM     26  C   UNL     1      12.668   0.987  29.619  1.00  0.00     0.130 A 
ATOM     27  C   UNL     1      13.926   2.360  31.328  1.00  0.00     0.048 C 
BRANCH  26  28
ATOM     28  O   UNL     1      12.091   0.325  30.685  1.00  0.00    -0.457 OA
BRANCH  28  29
ATOM     29  C   UNL     1      10.835   0.738  31.075  1.00  0.00     0.129 A 
ATOM     30  C   UNL     1      10.470   2.089  31.073  1.00  0.00     0.049 A 
ATOM     31  C   UNL     1       9.917  -0.264  31.410  1.00  0.00     0.077 A 
ATOM     32  C   UNL     1       9.183   2.487  31.454  1.00  0.00     0.032 A 
ATOM     33  C   UNL     1       8.627   0.122  31.796  1.00  0.00     0.092 A 
ATOM     34  C   UNL     1       8.289   1.474  31.818  1.00  0.00     0.068 A 
ATOM     35  N   UNL     1       7.563  -0.658  32.184  1.00  0.00    -0.237 NA
ATOM     36  N   UNL     1       6.983   1.481  32.244  1.00  0.00    -0.334 N 
ATOM     37  C   UNL     1       6.592   0.187  32.443  1.00  0.00     0.200 A 
ATOM     38  C   UNL     1       6.162   2.644  32.458  1.00  0.00     0.151 C 
ENDBRANCH  28  29
ENDBRANCH  26  28
ENDBRANCH   3  21
TORSDOF 6
ENDMDL
MODEL 4
REMARK VINA RESULT:   -10.373      3.415      4.380
REMARK INTER + INTRA:         -14.966
REMARK INTER:                 -13.497
REMARK INTRA:                  -1.469
REMARK UNBOUND:                -0.955
REMARK SMILES C=CC(=O)N1C[C@]2(n3nc(-c4ccc(Oc5ccc6c(c5)ncn6C)c(C)c4)c4c(C)ncnc43)C[C@H]1C2
REMARK SMILES IDX 8 1 9 2 10 3 29 4 30 5 31 6 32 7 33 8 34 9 35 10 7 11 5 12
REMARK SMILES IDX 6 13 37 14 36 15 38 16 3 17 4 18 2 19 1 20 11 21 12 22 28 23
REMARK SMILES IDX 13 24 26 25 14 26 27 27 15 28 16 29 17 30 21 31 18 32 20 33
REMARK SMILES IDX 19 34 22 35 24 36 23 37 25 38
REMARK H PARENT
ROOT
ATOM      1  N   UNL     1      13.683   5.230  25.769  1.00  0.00    -0.238 N 
ATOM      2  N   UNL     1      12.858   4.784  26.736  1.00  0.00    -0.170 NA
ATOM      3  C   UNL     1      13.431   3.645  27.156  1.00  0.00     0.104 A 
ATOM      4  C   UNL     1      14.656   3.390  26.473  1.00  0.00     0.068 A 
ATOM      5  C   UNL     1      15.690   2.441  26.487  1.00  0.00     0.052 A 
ATOM      6  C   UNL     1      15.759   1.251  27.392  1.00  0.00     0.067 C 
ATOM      7  N   UNL     1      16.718   2.605  25.605  1.00  0.00    -0.241 NA
ATOM      8  C   UNL     1      16.712   3.673  24.782  1.00  0.00     0.224 A 
ATOM      9  N   UNL     1      15.787   4.640  24.703  1.00  0.00    -0.217 NA
ATOM     10  C   UNL     1      14.784   4.439  25.576  1.00  0.00     0.162 A 
ENDROOT
BRANCH   1  11
ATOM     11  C   UNL     1      13.431   6.463  25.045  1.00  0.00     0.087 C 
ATOM     12  N   UNL     1      13.067   7.811  23.327  1.00  0.00    -0.334 N 
ATOM     13  C   UNL     1      13.268   6.372  23.534  1.00  0.00     0.151 C 
ATOM     14  C   UNL     1      13.140   8.404  24.681  1.00  0.00     0.090 C 
ATOM     15  C   UNL     1      12.313   7.410  25.589  1.00  0.00     0.058 C 
ATOM     16  C   UNL     1      14.369   7.680  25.351  1.00  0.00     0.058 C 
BRANCH  12  17
ATOM     17  C   UNL     1      12.858   8.353  22.087  1.00  0.00     0.246 C 
ATOM     18  O   UNL     1      13.752   8.902  21.448  1.00  0.00    -0.270 OA
BRANCH  17  19
ATOM     19  C   UNL     1      11.478   8.247  21.546  1.00  0.00     0.063 C 
ATOM     20  C   UNL     1      10.419   8.471  22.337  1.00  0.00     0.014 C 
ENDBRANCH  17  19
ENDBRANCH  12  17
ENDBRANCH   1  11
BRANCH   3  21
ATOM     21  C   UNL     1      12.800   2.851  28.200  1.00  0.00     0.003 A 
ATOM     22  C   UNL     1      11.594   2.190  27.938  1.00  0.00     0.014 A 
ATOM     23  C   UNL     1      13.389   2.744  29.466  1.00  0.00     0.017 A 
ATOM     24  C   UNL     1      10.973   1.443  28.941  1.00  0.00     0.048 A 
ATOM     25  C   UNL     1      12.775   1.995  30.482  1.00  0.00    -0.008 A 
ATOM     26  C   UNL     1      11.570   1.333  30.202  1.00  0.00     0.130 A 
ATOM     27  C   UNL     1      13.411   1.895  31.839  1.00  0.00     0.048 C 
BRANCH  26  28
ATOM     28  O   UNL     1      10.967   0.637  31.232  1.00  0.00    -0.457 OA
BRANCH  28  29
ATOM     29  C   UNL     1       9.687   1.014  31.579  1.00  0.00     0.129 A 
ATOM     30  C   UNL     1       8.652   0.080  31.699  1.00  0.00     0.049 A 
ATOM     31  C   UNL     1       9.484   2.367  31.871  1.00  0.00     0.077 A 
ATOM     32  C   UNL     1       7.362   0.479  32.072  1.00  0.00     0.032 A 
ATOM     33  C   UNL     1       8.198   2.780  32.241  1.00  0.00     0.092 A 
ATOM     34  C   UNL     1       7.171   1.842  32.328  1.00  0.00     0.068 A 
ATOM     35  N   UNL     1       7.743   4.038  32.557  1.00  0.00    -0.237 NA
ATOM     36  N   UNL     1       6.076   2.584  32.697  1.00  0.00    -0.334 N 
ATOM     37  C   UNL     1       6.467   3.887  32.828  1.00  0.00     0.200 A 
ATOM     38  C   UNL     1       4.740   2.089  32.903  1.00  0.00     0.151 C 
ENDBRANCH  28  29
ENDBRANCH  26  28
ENDBRANCH   3  21
TORSDOF 6
ENDMDL
MODEL 5
REMARK VINA RESULT:   -10.367      3.044      3.947
REMARK INTER + INTRA:         -14.958
REMARK INTER:                 -13.706
REMARK INTRA:                  -1.252
REMARK UNBOUND:                -0.955
REMARK SMILES C=CC(=O)N1C[C@]2(n3nc(-c4ccc(Oc5ccc6c(c5)ncn6C)c(C)c4)c4c(C)ncnc43)C[C@H]1C2
REMARK SMILES IDX 8 1 9 2 10 3 29 4 30 5 31 6 32 7 33 8 34 9 35 10 7 11 5 12
REMARK SMILES IDX 6 13 37 14 36 15 38 16 3 17 4 18 2 19 1 20 11 21 12 22 28 23
REMARK SMILES IDX 13 24 26 25 14 26 27 27 15 28 16 29 17 30 21 31 18 32 20 33
REMARK SMILES IDX 19 34 22 35 24 36 23 37 25 38
REMARK H PARENT
ROOT
ATOM      1  N   UNL     1      13.691   4.554  26.003  1.00  0.00    -0.238 N 
ATOM      2  N   UNL     1      12.796   4.312  26.981  1.00  0.00    -0.170 NA
ATOM      3  C   UNL     1      13.204   3.151  27.518  1.00  0.00     0.104 A 
ATOM      4  C   UNL     1      14.396   2.674  26.898  1.00  0.00     0.068 A 
ATOM      5  C   UNL     1      15.294   1.603  27.028  1.00  0.00     0.052 A 
ATOM      6  C   UNL     1      15.186   0.503  28.037  1.00  0.00     0.067 C 
ATOM      7  N   UNL     1      16.349   1.548  26.165  1.00  0.00    -0.241 NA
ATOM      8  C   UNL     1      16.501   2.527  25.251  1.00  0.00     0.224 A 
ATOM      9  N   UNL     1      15.716   3.596  25.058  1.00  0.00    -0.217 NA
ATOM     10  C   UNL     1      14.679   3.610  25.915  1.00  0.00     0.162 A 
ENDROOT
BRANCH   1  11
ATOM     11  C   UNL     1      13.619   5.736  25.164  1.00  0.00     0.087 C 
ATOM     12  N   UNL     1      13.296   6.966  23.352  1.00  0.00    -0.334 N 
ATOM     13  C   UNL     1      13.181   5.550  23.719  1.00  0.00     0.151 C 
ATOM     14  C   UNL     1      13.742   7.645  24.590  1.00  0.00     0.090 C 
ATOM     15  C   UNL     1      12.871   6.986  25.732  1.00  0.00     0.058 C 
ATOM     16  C   UNL     1      14.859   6.694  25.167  1.00  0.00     0.058 C 
BRANCH  12  17
ATOM     17  C   UNL     1      13.012   7.425  22.094  1.00  0.00     0.246 C 
ATOM     18  O   UNL     1      13.294   8.564  21.728  1.00  0.00    -0.270 OA
BRANCH  17  19
ATOM     19  C   UNL     1      12.333   6.470  21.181  1.00  0.00     0.063 C 
ATOM     20  C   UNL     1      12.803   6.262  19.943  1.00  0.00     0.014 C 
ENDBRANCH  17  19
ENDBRANCH  12  17
ENDBRANCH   1  11
BRANCH   3  21
ATOM     21  C   UNL     1      12.453   2.547  28.609  1.00  0.00     0.003 A 
ATOM     22  C   UNL     1      11.136   2.126  28.398  1.00  0.00     0.014 A 
ATOM     23  C   UNL     1      13.040   2.386  29.872  1.00  0.00     0.017 A 
ATOM     24  C   UNL     1      10.404   1.564  29.445  1.00  0.00     0.048 A 
ATOM     25  C   UNL     1      12.315   1.821  30.932  1.00  0.00    -0.008 A 
ATOM     26  C   UNL     1      10.996   1.398  30.703  1.00  0.00     0.130 A 
ATOM     27  C   UNL     1      12.950   1.661  32.284  1.00  0.00     0.048 C 
BRANCH  26  28
ATOM     28  O   UNL     1      10.293   0.884  31.775  1.00  0.00    -0.457 OA
BRANCH  28  29
ATOM     29  C   UNL     1       9.085   1.477  32.075  1.00  0.00     0.129 A 
ATOM     30  C   UNL     1       8.941   2.868  32.130  1.00  0.00     0.049 A 
ATOM     31  C   UNL     1       7.991   0.624  32.256  1.00  0.00     0.077 A 
ATOM     32  C   UNL     1       7.701   3.452  32.417  1.00  0.00     0.032 A 
ATOM     33  C   UNL     1       6.745   1.195  32.547  1.00  0.00     0.092 A 
ATOM     34  C   UNL     1       6.625   2.582  32.628  1.00  0.00     0.068 A 
ATOM     35  N   UNL     1       5.538   0.582  32.782  1.00  0.00    -0.237 NA
ATOM     36  N   UNL     1       5.301   2.781  32.933  1.00  0.00    -0.334 N 
ATOM     37  C   UNL     1       4.691   1.560  33.007  1.00  0.00     0.200 A 
ATOM     38  C   UNL     1       4.656   4.050  33.148  1.00  0.00     0.151 C 
ENDBRANCH  28  29
ENDBRANCH  26  28
ENDBRANCH   3  21
TORSDOF 6
ENDMDL
MODEL 6
REMARK VINA RESULT:   -10.345      4.311      5.568
REMARK INTER + INTRA:         -14.928
REMARK INTER:                 -13.824
REMARK INTRA:                  -1.103
REMARK UNBOUND:                -0.955
REMARK SMILES C=CC(=O)N1C[C@]2(n3nc(-c4ccc(Oc5ccc6c(c5)ncn6C)c(C)c4)c4c(C)ncnc43)C[C@H]1C2
REMARK SMILES IDX 8 1 9 2 10 3 29 4 30 5 31 6 32 7 33 8 34 9 35 10 7 11 5 12
REMARK SMILES IDX 6 13 37 14 36 15 38 16 3 17 4 18 2 19 1 20 11 21 12 22 28 23
REMARK SMILES IDX 13 24 26 25 14 26 27 27 15 28 16 29 17 30 21 31 18 32 20 33
REMARK SMILES IDX 19 34 22 35 24 36 23 37 25 38
REMARK H PARENT
ROOT
ATOM      1  N   UNL     1      12.362   5.953  25.448  1.00  0.00    -0.238 N 
ATOM      2  N   UNL     1      11.851   5.270  26.491  1.00  0.00    -0.170 NA
ATOM      3  C   UNL     1      12.756   4.305  26.726  1.00  0.00     0.104 A 
ATOM      4  C   UNL     1      13.873   4.407  25.845  1.00  0.00     0.068 A 
ATOM      5  C   UNL     1      15.100   3.763  25.624  1.00  0.00     0.052 A 
ATOM      6  C   UNL     1      15.619   2.599  26.409  1.00  0.00     0.067 C 
ATOM      7  N   UNL     1      15.889   4.224  24.611  1.00  0.00    -0.241 NA
ATOM      8  C   UNL     1      15.475   5.284  23.888  1.00  0.00     0.224 A 
ATOM      9  N   UNL     1      14.336   5.977  24.029  1.00  0.00    -0.217 NA
ATOM     10  C   UNL     1      13.578   5.486  25.027  1.00  0.00     0.162 A 
ENDROOT
BRANCH   1  11
ATOM     11  C   UNL     1      11.688   7.103  24.873  1.00  0.00     0.087 C 
ATOM     12  N   UNL     1      10.111   8.621  24.546  1.00  0.00    -0.334 N 
ATOM     13  C   UNL     1      10.329   7.481  25.444  1.00  0.00     0.151 C 
ATOM     14  C   UNL     1      11.322   8.673  23.696  1.00  0.00     0.090 C 
ATOM     15  C   UNL     1      12.515   8.418  24.700  1.00  0.00     0.058 C 
ATOM     16  C   UNL     1      11.585   7.168  23.311  1.00  0.00     0.058 C 
BRANCH  12  17
ATOM     17  C   UNL     1       8.981   9.393  24.600  1.00  0.00     0.246 C 
ATOM     18  O   UNL     1       8.459   9.725  25.661  1.00  0.00    -0.270 OA
BRANCH  17  19
ATOM     19  C   UNL     1       8.408   9.814  23.295  1.00  0.00     0.063 C 
ATOM     20  C   UNL     1       8.545  11.077  22.869  1.00  0.00     0.014 C 
ENDBRANCH  17  19
ENDBRANCH  12  17
ENDBRANCH   1  11
BRANCH   3  21
ATOM     21  C   UNL     1      12.531   3.334  27.786  1.00  0.00     0.003 A 
ATOM     22  C   UNL     1      11.550   2.348  27.630  1.00  0.00     0.014 A 
ATOM     23  C   UNL     1      13.288   3.380  28.964  1.00  0.00     0.017 A 
ATOM     24  C   UNL     1      11.316   1.426  28.651  1.00  0.00     0.048 A 
ATOM     25  C   UNL     1      13.063   2.457  29.998  1.00  0.00    -0.008 A 
ATOM     26  C   UNL     1      12.080   1.470  29.823  1.00  0.00     0.130 A 
ATOM     27  C   UNL     1      13.874   2.521  31.260  1.00  0.00     0.048 C 
BRANCH  26  28
ATOM     28  O   UNL     1      11.851   0.602  30.873  1.00  0.00    -0.457 OA
BRANCH  28  29
ATOM     29  C   UNL     1      10.565   0.535  31.363  1.00  0.00     0.129 A 
ATOM     30  C   UNL     1       9.870   1.681  31.767  1.00  0.00     0.049 A 
ATOM     31  C   UNL     1       9.959  -0.725  31.376  1.00  0.00     0.077 A 
ATOM     32  C   UNL     1       8.556   1.596  32.244  1.00  0.00     0.032 A 
ATOM     33  C   UNL     1       8.645  -0.825  31.853  1.00  0.00     0.092 A 
ATOM     34  C   UNL     1       7.978   0.321  32.281  1.00  0.00     0.068 A 
ATOM     35  N   UNL     1       7.847  -1.937  31.982  1.00  0.00    -0.237 NA
ATOM     36  N   UNL     1       6.749  -0.142  32.683  1.00  0.00    -0.334 N 
ATOM     37  C   UNL     1       6.715  -1.493  32.480  1.00  0.00     0.200 A 
ATOM     38  C   UNL     1       5.679   0.647  33.233  1.00  0.00     0.151 C 
ENDBRANCH  28  29
ENDBRANCH  26  28
ENDBRANCH   3  21
TORSDOF 6
ENDMDL
MODEL 7
REMARK VINA RESULT:   -10.060      2.967      3.762
REMARK INTER + INTRA:         -14.543
REMARK INTER:                 -13.462
REMARK INTRA:                  -1.081
REMARK UNBOUND:                -0.955
REMARK SMILES C=CC(=O)N1C[C@]2(n3nc(-c4ccc(Oc5ccc6c(c5)ncn6C)c(C)c4)c4c(C)ncnc43)C[C@H]1C2
REMARK SMILES IDX 8 1 9 2 10 3 29 4 30 5 31 6 32 7 33 8 34 9 35 10 7 11 5 12
REMARK SMILES IDX 6 13 37 14 36 15 38 16 3 17 4 18 2 19 1 20 11 21 12 22 28 23
REMARK SMILES IDX 13 24 26 25 14 26 27 27 15 28 16 29 17 30 21 31 18 32 20 33
REMARK SMILES IDX 19 34 22 35 24 36 23 37 25 38
REMARK H PARENT
ROOT
ATOM      1  N   UNL     1      13.831   4.770  24.852  1.00  0.00    -0.238 N 
ATOM      2  N   UNL     1      13.098   4.369  25.910  1.00  0.00    -0.170 NA
ATOM      3  C   UNL     1      13.864   3.441  26.506  1.00  0.00     0.104 A 
ATOM      4  C   UNL     1      15.115   3.284  25.839  1.00  0.00     0.068 A 
ATOM      5  C   UNL     1      16.301   2.549  25.988  1.00  0.00     0.052 A 
ATOM      6  C   UNL     1      16.580   1.571  27.086  1.00  0.00     0.067 C 
ATOM      7  N   UNL     1      17.282   2.728  25.057  1.00  0.00    -0.241 NA
ATOM      8  C   UNL     1      17.087   3.612  24.059  1.00  0.00     0.224 A 
ATOM      9  N   UNL     1      16.006   4.373  23.840  1.00  0.00    -0.217 NA
ATOM     10  C   UNL     1      15.054   4.161  24.767  1.00  0.00     0.162 A 
ENDROOT
BRANCH   1  11
ATOM     11  C   UNL     1      13.364   5.789  23.931  1.00  0.00     0.087 C 
ATOM     12  N   UNL     1      12.651   6.692  22.039  1.00  0.00    -0.334 N 
ATOM     13  C   UNL     1      13.025   5.354  22.512  1.00  0.00     0.151 C 
ATOM     14  C   UNL     1      12.829   7.574  23.214  1.00  0.00     0.090 C 
ATOM     15  C   UNL     1      12.230   6.747  24.419  1.00  0.00     0.058 C 
ATOM     16  C   UNL     1      14.201   7.110  23.838  1.00  0.00     0.058 C 
BRANCH  12  17
ATOM     17  C   UNL     1      12.234   6.929  20.757  1.00  0.00     0.246 C 
ATOM     18  O   UNL     1      11.479   7.854  20.469  1.00  0.00    -0.270 OA
BRANCH  17  19
ATOM     19  C   UNL     1      12.743   5.998  19.716  1.00  0.00     0.063 C 
ATOM     20  C   UNL     1      12.726   6.351  18.423  1.00  0.00     0.014 C 
ENDBRANCH  17  19
ENDBRANCH  12  17
ENDBRANCH   1  11
BRANCH   3  21
ATOM     21  C   UNL     1      13.385   2.750  27.694  1.00  0.00     0.003 A 
ATOM     22  C   UNL     1      13.074   3.481  28.846  1.00  0.00     0.014 A 
ATOM     23  C   UNL     1      13.234   1.357  27.693  1.00  0.00     0.017 A 
ATOM     24  C   UNL     1      12.633   2.822  29.995  1.00  0.00     0.048 A 
ATOM     25  C   UNL     1      12.789   0.683  28.842  1.00  0.00    -0.008 A 
ATOM     26  C   UNL     1      12.476   1.431  29.988  1.00  0.00     0.130 A 
ATOM     27  C   UNL     1      12.639  -0.811  28.833  1.00  0.00     0.048 C 
BRANCH  26  28
ATOM     28  O   UNL     1      12.081   0.739  31.116  1.00  0.00    -0.457 OA
BRANCH  28  29
ATOM     29  C   UNL     1      10.753   0.830  31.475  1.00  0.00     0.129 A 
ATOM     30  C   UNL     1      10.173   2.047  31.850  1.00  0.00     0.049 A 
ATOM     31  C   UNL     1       9.993  -0.341  31.384  1.00  0.00     0.077 A 
ATOM     32  C   UNL     1       8.818   2.124  32.192  1.00  0.00     0.032 A 
ATOM     33  C   UNL     1       8.636  -0.279  31.727  1.00  0.00     0.092 A 
ATOM     34  C   UNL     1       8.081   0.935  32.127  1.00  0.00     0.068 A 
ATOM     35  N   UNL     1       7.693  -1.279  31.737  1.00  0.00    -0.237 NA
ATOM     36  N   UNL     1       6.768   0.628  32.390  1.00  0.00    -0.334 N 
ATOM     37  C   UNL     1       6.582  -0.702  32.137  1.00  0.00     0.200 A 
ATOM     38  C   UNL     1       5.757   1.537  32.861  1.00  0.00     0.151 C 
ENDBRANCH  28  29
ENDBRANCH  26  28
ENDBRANCH   3  21
TORSDOF 6
ENDMDL
MODEL 8
REMARK VINA RESULT:   -10.058      2.262     10.972
REMARK INTER + INTRA:         -14.541
REMARK INTER:                 -13.048
REMARK INTRA:                  -1.493
REMARK UNBOUND:                -0.955
REMARK SMILES C=CC(=O)N1C[C@]2(n3nc(-c4ccc(Oc5ccc6c(c5)ncn6C)c(C)c4)c4c(C)ncnc43)C[C@H]1C2
REMARK SMILES IDX 8 1 9 2 10 3 29 4 30 5 31 6 32 7 33 8 34 9 35 10 7 11 5 12
REMARK SMILES IDX 6 13 37 14 36 15 38 16 3 17 4 18 2 19 1 20 11 21 12 22 28 23
REMARK SMILES IDX 13 24 26 25 14 26 27 27 15 28 16 29 17 30 21 31 18 32 20 33
REMARK SMILES IDX 19 34 22 35 24 36 23 37 25 38
REMARK H PARENT
ROOT
ATOM      1  N   UNL     1      13.938   1.623  28.322  1.00  0.00    -0.238 N 
ATOM      2  N   UNL     1      13.976   2.759  27.599  1.00  0.00    -0.170 NA
ATOM      3  C   UNL     1      15.017   2.584  26.769  1.00  0.00     0.104 A 
ATOM      4  C   UNL     1      15.619   1.303  26.942  1.00  0.00     0.068 A 
ATOM      5  C   UNL     1      16.655   0.542  26.380  1.00  0.00     0.052 A 
ATOM      6  C   UNL     1      17.540   0.985  25.256  1.00  0.00     0.067 C 
ATOM      7  N   UNL     1      16.887  -0.699  26.896  1.00  0.00    -0.241 NA
ATOM      8  C   UNL     1      16.105  -1.151  27.896  1.00  0.00     0.224 A 
ATOM      9  N   UNL     1      15.083  -0.515  28.487  1.00  0.00    -0.217 NA
ATOM     10  C   UNL     1      14.893   0.710  27.963  1.00  0.00     0.162 A 
ENDROOT
BRANCH   1  11
ATOM     11  C   UNL     1      12.937   1.393  29.348  1.00  0.00     0.087 C 
ATOM     12  N   UNL     1      11.381   0.335  30.514  1.00  0.00    -0.334 N 
ATOM     13  C   UNL     1      12.249   0.036  29.370  1.00  0.00     0.151 C 
ATOM     14  C   UNL     1      11.730   1.720  30.904  1.00  0.00     0.090 C 
ATOM     15  C   UNL     1      13.307   1.764  30.820  1.00  0.00     0.058 C 
ATOM     16  C   UNL     1      11.834   2.490  29.533  1.00  0.00     0.058 C 
BRANCH  12  17
ATOM     17  C   UNL     1      10.487  -0.572  31.017  1.00  0.00     0.246 C 
ATOM     18  O   UNL     1      10.621  -1.784  30.863  1.00  0.00    -0.270 OA
BRANCH  17  19
ATOM     19  C   UNL     1       9.331  -0.014  31.764  1.00  0.00     0.063 C 
ATOM     20  C   UNL     1       8.148   0.155  31.157  1.00  0.00     0.014 C 
ENDBRANCH  17  19
ENDBRANCH  12  17
ENDBRANCH   1  11
BRANCH   3  21
ATOM     21  C   UNL     1      15.392   3.635  25.834  1.00  0.00     0.003 A 
ATOM     22  C   UNL     1      16.445   4.502  26.146  1.00  0.00     0.014 A 
ATOM     23  C   UNL     1      14.703   3.787  24.623  1.00  0.00     0.017 A 
ATOM     24  C   UNL     1      16.796   5.524  25.263  1.00  0.00     0.048 A 
ATOM     25  C   UNL     1      15.048   4.810  23.726  1.00  0.00    -0.008 A 
ATOM     26  C   UNL     1      16.111   5.667  24.050  1.00  0.00     0.130 A 
ATOM     27  C   UNL     1      14.298   4.969  22.434  1.00  0.00     0.048 C 
BRANCH  26  28
ATOM     28  O   UNL     1      16.401   6.690  23.169  1.00  0.00    -0.457 OA
BRANCH  28  29
ATOM     29  C   UNL     1      17.694   6.763  22.696  1.00  0.00     0.129 A 
ATOM     30  C   UNL     1      18.567   7.782  23.093  1.00  0.00     0.049 A 
ATOM     31  C   UNL     1      18.115   5.731  21.850  1.00  0.00     0.077 A 
ATOM     32  C   UNL     1      19.883   7.828  22.617  1.00  0.00     0.032 A 
ATOM     33  C   UNL     1      19.429   5.767  21.364  1.00  0.00     0.092 A 
ATOM     34  C   UNL     1      20.277   6.806  21.746  1.00  0.00     0.068 A 
ATOM     35  N   UNL     1      20.069   4.894  20.517  1.00  0.00    -0.237 NA
ATOM     36  N   UNL     1      21.451   6.532  21.088  1.00  0.00    -0.334 N 
ATOM     37  C   UNL     1      21.282   5.379  20.374  1.00  0.00     0.200 A 
ATOM     38  C   UNL     1      22.655   7.320  21.127  1.00  0.00     0.151 C 
ENDBRANCH  28  29
ENDBRANCH  26  28
ENDBRANCH   3  21
TORSDOF 6
ENDMDL
MODEL 9
REMARK VINA RESULT:    -9.916      2.763     11.297
REMARK INTER + INTRA:         -14.349
REMARK INTER:                 -12.770
REMARK INTRA:                  -1.579
REMARK UNBOUND:                -0.955
REMARK SMILES C=CC(=O)N1C[C@]2(n3nc(-c4ccc(Oc5ccc6c(c5)ncn6C)c(C)c4)c4c(C)ncnc43)C[C@H]1C2
REMARK SMILES IDX 8 1 9 2 10 3 29 4 30 5 31 6 32 7 33 8 34 9 35 10 7 11 5 12
REMARK SMILES IDX 6 13 37 14 36 15 38 16 3 17 4 18 2 19 1 20 11 21 12 22 28 23
REMARK SMILES IDX 13 24 26 25 14 26 27 27 15 28 16 29 17 30 21 31 18 32 20 33
REMARK SMILES IDX 19 34 22 35 24 36 23 37 25 38
REMARK H PARENT
ROOT
ATOM      1  N   UNL     1      14.313   2.370  27.603  1.00  0.00    -0.238 N 
ATOM      2  N   UNL     1      14.284   3.547  26.948  1.00  0.00    -0.170 NA
ATOM      3  C   UNL     1      15.358   3.501  26.144  1.00  0.00     0.104 A 
ATOM      4  C   UNL     1      16.051   2.260  26.264  1.00  0.00     0.068 A 
ATOM      5  C   UNL     1      17.159   1.615  25.693  1.00  0.00     0.052 A 
ATOM      6  C   UNL     1      18.038   2.188  24.626  1.00  0.00     0.067 C 
ATOM      7  N   UNL     1      17.472   0.366  26.145  1.00  0.00    -0.241 NA
ATOM      8  C   UNL     1      16.699  -0.202  27.091  1.00  0.00     0.224 A 
ATOM      9  N   UNL     1      15.615   0.319  27.684  1.00  0.00    -0.217 NA
ATOM     10  C   UNL     1      15.345   1.554  27.225  1.00  0.00     0.162 A 
ENDROOT
BRANCH   1  11
ATOM     11  C   UNL     1      13.304   2.005  28.582  1.00  0.00     0.087 C 
ATOM     12  N   UNL     1      12.386   1.642  30.563  1.00  0.00    -0.334 N 
ATOM     13  C   UNL     1      13.676   2.120  30.053  1.00  0.00     0.151 C 
ATOM     14  C   UNL     1      11.575   1.373  29.354  1.00  0.00     0.090 C 
ATOM     15  C   UNL     1      11.870   2.600  28.404  1.00  0.00     0.058 C 
ATOM     16  C   UNL     1      12.572   0.635  28.380  1.00  0.00     0.058 C 
BRANCH  12  17
ATOM     17  C   UNL     1      12.121   1.526  31.901  1.00  0.00     0.246 C 
ATOM     18  O   UNL     1      12.965   1.759  32.763  1.00  0.00    -0.270 OA
BRANCH  17  19
ATOM     19  C   UNL     1      10.747   1.094  32.267  1.00  0.00     0.063 C 
ATOM     20  C   UNL     1       9.793   2.003  32.511  1.00  0.00     0.014 C 
ENDBRANCH  17  19
ENDBRANCH  12  17
ENDBRANCH   1  11
BRANCH   3  21
ATOM     21  C   UNL     1      15.677   4.630  25.283  1.00  0.00     0.003 A 
ATOM     22  C   UNL     1      16.480   5.669  25.767  1.00  0.00     0.014 A 
ATOM     23  C   UNL     1      15.183   4.686  23.973  1.00  0.00     0.017 A 
ATOM     24  C   UNL     1      16.772   6.765  24.953  1.00  0.00     0.048 A 
ATOM     25  C   UNL     1      15.471   5.782  23.144  1.00  0.00    -0.008 A 
ATOM     26  C   UNL     1      16.283   6.813  23.642  1.00  0.00     0.130 A 
ATOM     27  C   UNL     1      14.929   5.837  21.745  1.00  0.00     0.048 C 
BRANCH  26  28
ATOM     28  O   UNL     1      16.516   7.898  22.819  1.00  0.00    -0.457 OA
BRANCH  28  29
ATOM     29  C   UNL     1      17.822   8.130  22.441  1.00  0.00     0.129 A 
ATOM     30  C   UNL     1      18.514   9.277  22.846  1.00  0.00     0.049 A 
ATOM     31  C   UNL     1      18.447   7.131  21.687  1.00  0.00     0.077 A 
ATOM     32  C   UNL     1      19.846   9.485  22.468  1.00  0.00     0.032 A 
ATOM     33  C   UNL     1      19.778   7.328  21.299  1.00  0.00     0.092 A 
ATOM     34  C   UNL     1      20.444   8.490  21.686  1.00  0.00     0.068 A 
ATOM     35  N   UNL     1      20.598   6.516  20.551  1.00  0.00    -0.237 NA
ATOM     36  N   UNL     1      21.694   8.354  21.133  1.00  0.00    -0.334 N 
ATOM     37  C   UNL     1      21.741   7.159  20.473  1.00  0.00     0.200 A 
ATOM     38  C   UNL     1      22.773   9.303  21.220  1.00  0.00     0.151 C 
ENDBRANCH  28  29
ENDBRANCH  26  28
ENDBRANCH   3  21
TORSDOF 6
ENDMDL
