MODEL 1
REMARK VINA RESULT:   -10.616      0.000      0.000
REMARK INTER + INTRA:         -12.884
REMARK INTER:                 -12.477
REMARK INTRA:                  -0.406
REMARK UNBOUND:                -0.406
REMARK SMILES c1ccc(CNc2c3c(nc4ccccc24)CCCC3)nc1
REMARK SMILES IDX 5 1 4 2 1 3 2 4 22 5 3 6 21 7 6 8 7 10 8 11 16 12 9 13 20 14
REMARK SMILES IDX 15 15 11 16 10 17 17 18 19 19 14 20 12 21 18 22 13 23
REMARK H PARENT 6 9
ROOT
ATOM      1  C   UNL     1     -10.435 -46.283  29.230  1.00  0.00     0.169 C 
ENDROOT
BRANCH   1   2
ATOM      2  C   UNL     1     -11.437 -45.505  28.401  1.00  0.00     0.059 A 
ATOM      3  C   UNL     1     -13.276 -44.037  26.982  1.00  0.00     0.020 A 
ATOM      4  C   UNL     1     -13.441 -45.413  27.083  1.00  0.00     0.004 A 
ATOM      5  C   UNL     1     -12.189 -43.460  27.616  1.00  0.00     0.111 A 
ATOM      6  C   UNL     1     -12.514 -46.160  27.805  1.00  0.00     0.026 A 
ATOM      7  N   UNL     1     -11.273 -44.157  28.325  1.00  0.00    -0.259 NA
ENDBRANCH   1   2
BRANCH   1   8
ATOM      8  N   UNL     1     -10.931 -46.421  30.599  1.00  0.00    -0.379 N 
ATOM      9  H   UNL     1     -11.834 -46.888  30.646  1.00  0.00     0.161 HD
BRANCH   8  10
ATOM     10  C   UNL     1     -10.780 -45.297  31.429  1.00  0.00     0.049 A 
ATOM     11  C   UNL     1     -11.912 -44.543  31.800  1.00  0.00    -0.003 A 
ATOM     12  C   UNL     1      -9.488 -44.858  31.827  1.00  0.00     0.024 A 
ATOM     13  C   UNL     1     -11.707 -43.398  32.575  1.00  0.00     0.046 A 
ATOM     14  C   UNL     1     -13.308 -44.984  31.426  1.00  0.00     0.039 C 
ATOM     15  C   UNL     1      -8.295 -45.562  31.533  1.00  0.00     0.012 A 
ATOM     16  C   UNL     1      -9.402 -43.672  32.581  1.00  0.00     0.073 A 
ATOM     17  N   UNL     1     -10.478 -42.960  32.941  1.00  0.00    -0.252 NA
ATOM     18  C   UNL     1     -12.851 -42.519  33.011  1.00  0.00     0.056 C 
ATOM     19  C   UNL     1     -14.378 -43.913  31.624  1.00  0.00     0.005 C 
ATOM     20  C   UNL     1      -7.051 -45.088  31.945  1.00  0.00     0.001 A 
ATOM     21  C   UNL     1      -8.152 -43.216  32.979  1.00  0.00     0.029 A 
ATOM     22  C   UNL     1     -14.202 -43.224  32.968  1.00  0.00     0.007 C 
ATOM     23  C   UNL     1      -6.978 -43.906  32.667  1.00  0.00     0.002 A 
ENDBRANCH   8  10
ENDBRANCH   1   8
TORSDOF 3
ENDMDL
MODEL 2
REMARK VINA RESULT:   -10.307      0.360      3.916
REMARK INTER + INTRA:         -12.521
REMARK INTER:                 -12.141
REMARK INTRA:                  -0.380
REMARK UNBOUND:                -0.406
REMARK SMILES c1ccc(CNc2c3c(nc4ccccc24)CCCC3)nc1
REMARK SMILES IDX 5 1 4 2 1 3 2 4 22 5 3 6 21 7 6 8 7 10 8 11 16 12 9 13 20 14
REMARK SMILES IDX 15 15 11 16 10 17 17 18 19 19 14 20 12 21 18 22 13 23
REMARK H PARENT 6 9
ROOT
ATOM      1  C   UNL     1     -10.592 -45.962  29.202  1.00  0.00     0.169 C 
ENDROOT
BRANCH   1   2
ATOM      2  C   UNL     1     -11.603 -45.214  28.356  1.00  0.00     0.059 A 
ATOM      3  C   UNL     1     -13.446 -43.791  26.899  1.00  0.00     0.020 A 
ATOM      4  C   UNL     1     -13.689 -45.131  27.173  1.00  0.00     0.004 A 
ATOM      5  C   UNL     1     -12.281 -43.224  27.386  1.00  0.00     0.111 A 
ATOM      6  C   UNL     1     -12.760 -45.854  27.915  1.00  0.00     0.026 A 
ATOM      7  N   UNL     1     -11.361 -43.899  28.110  1.00  0.00    -0.259 NA
ENDBRANCH   1   2
BRANCH   1   8
ATOM      8  N   UNL     1     -11.093 -46.086  30.571  1.00  0.00    -0.379 N 
ATOM      9  H   UNL     1     -11.999 -46.545  30.619  1.00  0.00     0.161 HD
BRANCH   8  10
ATOM     10  C   UNL     1     -10.936 -44.957  31.393  1.00  0.00     0.049 A 
ATOM     11  C   UNL     1      -9.649 -44.586  31.835  1.00  0.00    -0.003 A 
ATOM     12  C   UNL     1     -12.068 -44.237  31.861  1.00  0.00     0.024 A 
ATOM     13  C   UNL     1      -9.547 -43.494  32.701  1.00  0.00     0.046 A 
ATOM     14  C   UNL     1      -8.413 -45.302  31.343  1.00  0.00     0.039 C 
ATOM     15  C   UNL     1     -13.396 -44.510  31.453  1.00  0.00     0.012 A 
ATOM     16  C   UNL     1     -11.845 -43.174  32.757  1.00  0.00     0.073 A 
ATOM     17  N   UNL     1     -10.622 -42.815  33.169  1.00  0.00    -0.252 NA
ATOM     18  C   UNL     1      -8.218 -43.028  33.238  1.00  0.00     0.056 C 
ATOM     19  C   UNL     1      -7.149 -44.993  32.145  1.00  0.00     0.005 C 
ATOM     20  C   UNL     1     -14.474 -43.775  31.942  1.00  0.00     0.001 A 
ATOM     21  C   UNL     1     -12.934 -42.456  33.234  1.00  0.00     0.029 A 
ATOM     22  C   UNL     1      -7.033 -43.499  32.403  1.00  0.00     0.007 C 
ATOM     23  C   UNL     1     -14.243 -42.746  32.842  1.00  0.00     0.002 A 
ENDBRANCH   8  10
ENDBRANCH   1   8
TORSDOF 3
ENDMDL
MODEL 3
REMARK VINA RESULT:   -10.097      7.732     11.364
REMARK INTER + INTRA:         -12.274
REMARK INTER:                 -12.172
REMARK INTRA:                  -0.102
REMARK UNBOUND:                -0.406
REMARK SMILES c1ccc(CNc2c3c(nc4ccccc24)CCCC3)nc1
REMARK SMILES IDX 5 1 4 2 1 3 2 4 22 5 3 6 21 7 6 8 7 10 8 11 16 12 9 13 20 14
REMARK SMILES IDX 15 15 11 16 10 17 17 18 19 19 14 20 12 21 18 22 13 23
REMARK H PARENT 6 9
ROOT
ATOM      1  C   UNL     1     -17.813 -40.885  22.003  1.00  0.00     0.169 C 
ENDROOT
BRANCH   1   2
ATOM      2  C   UNL     1     -18.980 -40.138  21.388  1.00  0.00     0.059 A 
ATOM      3  C   UNL     1     -21.027 -38.726  20.221  1.00  0.00     0.020 A 
ATOM      4  C   UNL     1     -20.907 -38.724  21.605  1.00  0.00     0.004 A 
ATOM      5  C   UNL     1     -20.095 -39.437  19.484  1.00  0.00     0.111 A 
ATOM      6  C   UNL     1     -19.868 -39.434  22.200  1.00  0.00     0.026 A 
ATOM      7  N   UNL     1     -19.075 -40.134  20.032  1.00  0.00    -0.259 NA
ENDBRANCH   1   2
BRANCH   1   8
ATOM      8  N   UNL     1     -18.301 -42.088  22.677  1.00  0.00    -0.379 N 
ATOM      9  H   UNL     1     -19.229 -42.367  22.366  1.00  0.00     0.161 HD
BRANCH   8  10
ATOM     10  C   UNL     1     -18.075 -42.156  24.063  1.00  0.00     0.049 A 
ATOM     11  C   UNL     1     -16.855 -42.667  24.550  1.00  0.00    -0.003 A 
ATOM     12  C   UNL     1     -19.099 -41.801  24.982  1.00  0.00     0.024 A 
ATOM     13  C   UNL     1     -16.699 -42.775  25.935  1.00  0.00     0.046 A 
ATOM     14  C   UNL     1     -15.727 -43.032  23.614  1.00  0.00     0.039 C 
ATOM     15  C   UNL     1     -20.345 -41.249  24.596  1.00  0.00     0.012 A 
ATOM     16  C   UNL     1     -18.839 -41.981  26.355  1.00  0.00     0.073 A 
ATOM     17  N   UNL     1     -17.676 -42.458  26.818  1.00  0.00    -0.252 NA
ATOM     18  C   UNL     1     -15.437 -43.320  26.552  1.00  0.00     0.056 C 
ATOM     19  C   UNL     1     -14.614 -43.853  24.263  1.00  0.00     0.005 C 
ATOM     20  C   UNL     1     -21.317 -40.918  25.538  1.00  0.00     0.001 A 
ATOM     21  C   UNL     1     -19.824 -41.647  27.276  1.00  0.00     0.029 A 
ATOM     22  C   UNL     1     -14.237 -43.266  25.614  1.00  0.00     0.007 C 
ATOM     23  C   UNL     1     -21.058 -41.123  26.885  1.00  0.00     0.002 A 
ENDBRANCH   8  10
ENDBRANCH   1   8
TORSDOF 3
ENDMDL
MODEL 4
REMARK VINA RESULT:    -9.911      7.752     10.742
REMARK INTER + INTRA:         -12.056
REMARK INTER:                 -11.899
REMARK INTRA:                  -0.157
REMARK UNBOUND:                -0.406
REMARK SMILES c1ccc(CNc2c3c(nc4ccccc24)CCCC3)nc1
REMARK SMILES IDX 5 1 4 2 1 3 2 4 22 5 3 6 21 7 6 8 7 10 8 11 16 12 9 13 20 14
REMARK SMILES IDX 15 15 11 16 10 17 17 18 19 19 14 20 12 21 18 22 13 23
REMARK H PARENT 6 9
ROOT
ATOM      1  C   UNL     1     -17.826 -40.887  22.021  1.00  0.00     0.169 C 
ENDROOT
BRANCH   1   2
ATOM      2  C   UNL     1     -18.990 -40.141  21.399  1.00  0.00     0.059 A 
ATOM      3  C   UNL     1     -21.033 -38.735  20.217  1.00  0.00     0.020 A 
ATOM      4  C   UNL     1     -20.913 -38.719  21.601  1.00  0.00     0.004 A 
ATOM      5  C   UNL     1     -20.103 -39.457  19.488  1.00  0.00     0.111 A 
ATOM      6  C   UNL     1     -19.876 -39.426  22.203  1.00  0.00     0.026 A 
ATOM      7  N   UNL     1     -19.086 -40.152  20.043  1.00  0.00    -0.259 NA
ENDBRANCH   1   2
BRANCH   1   8
ATOM      8  N   UNL     1     -18.303 -42.137  22.612  1.00  0.00    -0.379 N 
ATOM      9  H   UNL     1     -19.218 -42.414  22.265  1.00  0.00     0.161 HD
BRANCH   8  10
ATOM     10  C   UNL     1     -18.103 -42.284  23.996  1.00  0.00     0.049 A 
ATOM     11  C   UNL     1     -19.120 -41.903  24.894  1.00  0.00    -0.003 A 
ATOM     12  C   UNL     1     -16.853 -42.728  24.504  1.00  0.00     0.024 A 
ATOM     13  C   UNL     1     -18.855 -42.008  26.263  1.00  0.00     0.046 A 
ATOM     14  C   UNL     1     -20.476 -41.451  24.402  1.00  0.00     0.039 C 
ATOM     15  C   UNL     1     -15.782 -43.163  23.687  1.00  0.00     0.012 A 
ATOM     16  C   UNL     1     -16.690 -42.764  25.902  1.00  0.00     0.073 A 
ATOM     17  N   UNL     1     -17.659 -42.410  26.757  1.00  0.00    -0.252 NA
ATOM     18  C   UNL     1     -19.872 -41.614  27.302  1.00  0.00     0.056 C 
ATOM     19  C   UNL     1     -21.340 -40.783  25.470  1.00  0.00     0.005 C 
ATOM     20  C   UNL     1     -14.574 -43.588  24.235  1.00  0.00     0.001 A 
ATOM     21  C   UNL     1     -15.476 -43.188  26.428  1.00  0.00     0.029 A 
ATOM     22  C   UNL     1     -21.298 -41.579  26.765  1.00  0.00     0.007 C 
ATOM     23  C   UNL     1     -14.418 -43.596  25.613  1.00  0.00     0.002 A 
ENDBRANCH   8  10
ENDBRANCH   1   8
TORSDOF 3
ENDMDL
MODEL 5
REMARK VINA RESULT:    -9.880      1.807      5.785
REMARK INTER + INTRA:         -12.019
REMARK INTER:                 -11.825
REMARK INTRA:                  -0.194
REMARK UNBOUND:                -0.406
REMARK SMILES c1ccc(CNc2c3c(nc4ccccc24)CCCC3)nc1
REMARK SMILES IDX 5 1 4 2 1 3 2 4 22 5 3 6 21 7 6 8 7 10 8 11 16 12 9 13 20 14
REMARK SMILES IDX 15 15 11 16 10 17 17 18 19 19 14 20 12 21 18 22 13 23
REMARK H PARENT 6 9
ROOT
ATOM      1  C   UNL     1     -13.246 -43.947  32.200  1.00  0.00     0.169 C 
ENDROOT
BRANCH   1   2
ATOM      2  C   UNL     1     -14.136 -42.874  32.795  1.00  0.00     0.059 A 
ATOM      3  C   UNL     1     -15.728 -40.869  33.791  1.00  0.00     0.020 A 
ATOM      4  C   UNL     1     -14.656 -41.321  34.549  1.00  0.00     0.004 A 
ATOM      5  C   UNL     1     -15.942 -41.446  32.550  1.00  0.00     0.111 A 
ATOM      6  C   UNL     1     -13.843 -42.333  34.046  1.00  0.00     0.026 A 
ATOM      7  N   UNL     1     -15.171 -42.428  32.034  1.00  0.00    -0.259 NA
ENDBRANCH   1   2
BRANCH   1   8
ATOM      8  N   UNL     1     -12.244 -43.329  31.332  1.00  0.00    -0.379 N 
ATOM      9  H   UNL     1     -12.640 -42.633  30.705  1.00  0.00     0.161 HD
BRANCH   8  10
ATOM     10  C   UNL     1     -11.298 -44.198  30.760  1.00  0.00     0.049 A 
ATOM     11  C   UNL     1      -9.976 -44.213  31.247  1.00  0.00    -0.003 A 
ATOM     12  C   UNL     1     -11.637 -44.998  29.635  1.00  0.00     0.024 A 
ATOM     13  C   UNL     1      -9.054 -45.047  30.608  1.00  0.00     0.046 A 
ATOM     14  C   UNL     1      -9.575 -43.402  32.458  1.00  0.00     0.039 C 
ATOM     15  C   UNL     1     -12.942 -45.077  29.091  1.00  0.00     0.012 A 
ATOM     16  C   UNL     1     -10.617 -45.776  29.053  1.00  0.00     0.073 A 
ATOM     17  N   UNL     1      -9.362 -45.797  29.522  1.00  0.00    -0.252 NA
ATOM     18  C   UNL     1      -7.615 -45.124  31.046  1.00  0.00     0.056 C 
ATOM     19  C   UNL     1      -8.066 -43.282  32.660  1.00  0.00     0.005 C 
ATOM     20  C   UNL     1     -13.221 -45.877  27.985  1.00  0.00     0.001 A 
ATOM     21  C   UNL     1     -10.917 -46.563  27.949  1.00  0.00     0.029 A 
ATOM     22  C   UNL     1      -7.393 -44.633  32.472  1.00  0.00     0.007 C 
ATOM     23  C   UNL     1     -12.203 -46.619  27.407  1.00  0.00     0.002 A 
ENDBRANCH   8  10
ENDBRANCH   1   8
TORSDOF 3
ENDMDL
MODEL 6
REMARK VINA RESULT:    -9.753      1.790      4.893
REMARK INTER + INTRA:         -11.870
REMARK INTER:                 -11.634
REMARK INTRA:                  -0.236
REMARK UNBOUND:                -0.406
REMARK SMILES c1ccc(CNc2c3c(nc4ccccc24)CCCC3)nc1
REMARK SMILES IDX 5 1 4 2 1 3 2 4 22 5 3 6 21 7 6 8 7 10 8 11 16 12 9 13 20 14
REMARK SMILES IDX 15 15 11 16 10 17 17 18 19 19 14 20 12 21 18 22 13 23
REMARK H PARENT 6 9
ROOT
ATOM      1  C   UNL     1     -13.252 -43.900  32.152  1.00  0.00     0.169 C 
ENDROOT
BRANCH   1   2
ATOM      2  C   UNL     1     -14.133 -42.855  32.807  1.00  0.00     0.059 A 
ATOM      3  C   UNL     1     -15.714 -40.899  33.914  1.00  0.00     0.020 A 
ATOM      4  C   UNL     1     -14.610 -41.359  34.622  1.00  0.00     0.004 A 
ATOM      5  C   UNL     1     -15.963 -41.443  32.666  1.00  0.00     0.111 A 
ATOM      6  C   UNL     1     -13.804 -42.346  34.063  1.00  0.00     0.026 A 
ATOM      7  N   UNL     1     -15.199 -42.401  32.096  1.00  0.00    -0.259 NA
ENDBRANCH   1   2
BRANCH   1   8
ATOM      8  N   UNL     1     -12.265 -43.242  31.296  1.00  0.00    -0.379 N 
ATOM      9  H   UNL     1     -12.689 -42.628  30.605  1.00  0.00     0.161 HD
BRANCH   8  10
ATOM     10  C   UNL     1     -11.212 -44.050  30.831  1.00  0.00     0.049 A 
ATOM     11  C   UNL     1     -11.440 -44.967  29.786  1.00  0.00    -0.003 A 
ATOM     12  C   UNL     1      -9.940 -44.017  31.465  1.00  0.00     0.024 A 
ATOM     13  C   UNL     1     -10.381 -45.792  29.399  1.00  0.00     0.046 A 
ATOM     14  C   UNL     1     -12.766 -45.019  29.062  1.00  0.00     0.039 C 
ATOM     15  C   UNL     1      -9.602 -43.112  32.501  1.00  0.00     0.012 A 
ATOM     16  C   UNL     1      -8.958 -44.918  31.011  1.00  0.00     0.073 A 
ATOM     17  N   UNL     1      -9.172 -45.783  30.011  1.00  0.00    -0.252 NA
ATOM     18  C   UNL     1     -10.529 -46.813  28.300  1.00  0.00     0.056 C 
ATOM     19  C   UNL     1     -12.954 -46.258  28.187  1.00  0.00     0.005 C 
ATOM     20  C   UNL     1      -8.340 -43.121  33.091  1.00  0.00     0.001 A 
ATOM     21  C   UNL     1      -7.708 -44.912  31.616  1.00  0.00     0.029 A 
ATOM     22  C   UNL     1     -11.702 -46.528  27.369  1.00  0.00     0.007 C 
ATOM     23  C   UNL     1      -7.389 -44.030  32.650  1.00  0.00     0.002 A 
ENDBRANCH   8  10
ENDBRANCH   1   8
TORSDOF 3
ENDMDL
MODEL 7
REMARK VINA RESULT:    -9.549      1.769      2.744
REMARK INTER + INTRA:         -11.631
REMARK INTER:                 -11.765
REMARK INTRA:                   0.134
REMARK UNBOUND:                -0.406
REMARK SMILES c1ccc(CNc2c3c(nc4ccccc24)CCCC3)nc1
REMARK SMILES IDX 5 1 4 2 1 3 2 4 22 5 3 6 21 7 6 8 7 10 8 11 16 12 9 13 20 14
REMARK SMILES IDX 15 15 11 16 10 17 17 18 19 19 14 20 12 21 18 22 13 23
REMARK H PARENT 6 9
ROOT
ATOM      1  C   UNL     1     -13.281 -45.074  28.278  1.00  0.00     0.169 C 
ENDROOT
BRANCH   1   2
ATOM      2  C   UNL     1     -14.276 -44.272  27.463  1.00  0.00     0.059 A 
ATOM      3  C   UNL     1     -16.156 -42.867  26.034  1.00  0.00     0.020 A 
ATOM      4  C   UNL     1     -15.206 -43.616  25.351  1.00  0.00     0.004 A 
ATOM      5  C   UNL     1     -16.119 -42.872  27.419  1.00  0.00     0.111 A 
ATOM      6  C   UNL     1     -14.255 -44.333  26.071  1.00  0.00     0.026 A 
ATOM      7  N   UNL     1     -15.210 -43.558  28.146  1.00  0.00    -0.259 NA
ENDBRANCH   1   2
BRANCH   1   8
ATOM      8  N   UNL     1     -13.755 -45.189  29.657  1.00  0.00    -0.379 N 
ATOM      9  H   UNL     1     -14.714 -44.870  29.773  1.00  0.00     0.161 HD
BRANCH   8  10
ATOM     10  C   UNL     1     -12.852 -44.789  30.658  1.00  0.00     0.049 A 
ATOM     11  C   UNL     1     -13.257 -43.857  31.635  1.00  0.00    -0.003 A 
ATOM     12  C   UNL     1     -11.506 -45.243  30.643  1.00  0.00     0.024 A 
ATOM     13  C   UNL     1     -12.308 -43.441  32.573  1.00  0.00     0.046 A 
ATOM     14  C   UNL     1     -14.684 -43.366  31.709  1.00  0.00     0.039 C 
ATOM     15  C   UNL     1     -11.010 -46.201  29.725  1.00  0.00     0.012 A 
ATOM     16  C   UNL     1     -10.630 -44.731  31.620  1.00  0.00     0.073 A 
ATOM     17  N   UNL     1     -11.017 -43.852  32.554  1.00  0.00    -0.252 NA
ATOM     18  C   UNL     1     -12.641 -42.439  33.648  1.00  0.00     0.056 C 
ATOM     19  C   UNL     1     -14.882 -42.144  32.604  1.00  0.00     0.005 C 
ATOM     20  C   UNL     1      -9.679 -46.613  29.752  1.00  0.00     0.001 A 
ATOM     21  C   UNL     1      -9.307 -45.153  31.626  1.00  0.00     0.029 A 
ATOM     22  C   UNL     1     -14.136 -42.319  33.918  1.00  0.00     0.007 C 
ATOM     23  C   UNL     1      -8.821 -46.083  30.704  1.00  0.00     0.002 A 
ENDBRANCH   8  10
ENDBRANCH   1   8
TORSDOF 3
ENDMDL
MODEL 8
REMARK VINA RESULT:    -9.096      1.769      2.780
REMARK INTER + INTRA:         -11.098
REMARK INTER:                 -10.712
REMARK INTRA:                  -0.386
REMARK UNBOUND:                -0.406
REMARK SMILES c1ccc(CNc2c3c(nc4ccccc24)CCCC3)nc1
REMARK SMILES IDX 5 1 4 2 1 3 2 4 22 5 3 6 21 7 6 8 7 10 8 11 16 12 9 13 20 14
REMARK SMILES IDX 15 15 11 16 10 17 17 18 19 19 14 20 12 21 18 22 13 23
REMARK H PARENT 6 9
ROOT
ATOM      1  C   UNL     1     -12.839 -45.027  31.075  1.00  0.00     0.169 C 
ENDROOT
BRANCH   1   2
ATOM      2  C   UNL     1     -12.320 -45.622  29.781  1.00  0.00     0.059 A 
ATOM      3  C   UNL     1     -11.447 -46.777  27.446  1.00  0.00     0.020 A 
ATOM      4  C   UNL     1     -10.541 -46.565  28.477  1.00  0.00     0.004 A 
ATOM      5  C   UNL     1     -12.765 -46.402  27.647  1.00  0.00     0.111 A 
ATOM      6  C   UNL     1     -10.980 -45.985  29.663  1.00  0.00     0.026 A 
ATOM      7  N   UNL     1     -13.222 -45.839  28.787  1.00  0.00    -0.259 NA
ENDBRANCH   1   2
BRANCH   1   8
ATOM      8  N   UNL     1     -12.659 -43.575  31.055  1.00  0.00    -0.379 N 
ATOM      9  H   UNL     1     -12.131 -43.254  30.247  1.00  0.00     0.161 HD
BRANCH   8  10
ATOM     10  C   UNL     1     -12.325 -42.975  32.282  1.00  0.00     0.049 A 
ATOM     11  C   UNL     1     -13.322 -42.324  33.037  1.00  0.00    -0.003 A 
ATOM     12  C   UNL     1     -10.976 -42.937  32.726  1.00  0.00     0.024 A 
ATOM     13  C   UNL     1     -12.933 -41.688  34.219  1.00  0.00     0.046 A 
ATOM     14  C   UNL     1     -14.774 -42.361  32.620  1.00  0.00     0.039 C 
ATOM     15  C   UNL     1      -9.910 -43.586  32.058  1.00  0.00     0.012 A 
ATOM     16  C   UNL     1     -10.698 -42.240  33.918  1.00  0.00     0.073 A 
ATOM     17  N   UNL     1     -11.647 -41.629  34.641  1.00  0.00    -0.252 NA
ATOM     18  C   UNL     1     -13.921 -40.955  35.089  1.00  0.00     0.056 C 
ATOM     19  C   UNL     1     -15.663 -41.360  33.357  1.00  0.00     0.005 C 
ATOM     20  C   UNL     1      -8.603 -43.518  32.535  1.00  0.00     0.001 A 
ATOM     21  C   UNL     1      -9.387 -42.182  34.374  1.00  0.00     0.029 A 
ATOM     22  C   UNL     1     -15.365 -41.378  34.848  1.00  0.00     0.007 C 
ATOM     23  C   UNL     1      -8.339 -42.807  33.696  1.00  0.00     0.002 A 
ENDBRANCH   8  10
ENDBRANCH   1   8
TORSDOF 3
ENDMDL
MODEL 9
REMARK VINA RESULT:    -8.665      7.411     10.657
REMARK INTER + INTRA:         -10.591
REMARK INTER:                 -10.041
REMARK INTRA:                  -0.551
REMARK UNBOUND:                -0.406
REMARK SMILES c1ccc(CNc2c3c(nc4ccccc24)CCCC3)nc1
REMARK SMILES IDX 5 1 4 2 1 3 2 4 22 5 3 6 21 7 6 8 7 10 8 11 16 12 9 13 20 14
REMARK SMILES IDX 15 15 11 16 10 17 17 18 19 19 14 20 12 21 18 22 13 23
REMARK H PARENT 6 9
ROOT
ATOM      1  C   UNL     1     -19.624 -43.203  27.812  1.00  0.00     0.169 C 
ENDROOT
BRANCH   1   2
ATOM      2  C   UNL     1     -20.943 -43.669  27.229  1.00  0.00     0.059 A 
ATOM      3  C   UNL     1     -23.367 -44.534  26.269  1.00  0.00     0.020 A 
ATOM      4  C   UNL     1     -22.206 -45.168  25.845  1.00  0.00     0.004 A 
ATOM      5  C   UNL     1     -23.250 -43.492  27.174  1.00  0.00     0.111 A 
ATOM      6  C   UNL     1     -20.976 -44.736  26.333  1.00  0.00     0.026 A 
ATOM      7  N   UNL     1     -22.072 -43.051  27.666  1.00  0.00    -0.259 NA
ENDBRANCH   1   2
BRANCH   1   8
ATOM      8  N   UNL     1     -19.252 -41.918  27.219  1.00  0.00    -0.379 N 
ATOM      9  H   UNL     1     -19.971 -41.207  27.336  1.00  0.00     0.161 HD
BRANCH   8  10
ATOM     10  C   UNL     1     -18.646 -41.971  25.952  1.00  0.00     0.049 A 
ATOM     11  C   UNL     1     -19.384 -41.613  24.806  1.00  0.00    -0.003 A 
ATOM     12  C   UNL     1     -17.324 -42.470  25.803  1.00  0.00     0.024 A 
ATOM     13  C   UNL     1     -18.761 -41.741  23.562  1.00  0.00     0.046 A 
ATOM     14  C   UNL     1     -20.783 -41.052  24.916  1.00  0.00     0.039 C 
ATOM     15  C   UNL     1     -16.490 -42.825  26.891  1.00  0.00     0.012 A 
ATOM     16  C   UNL     1     -16.810 -42.584  24.496  1.00  0.00     0.073 A 
ATOM     17  N   UNL     1     -17.509 -42.235  23.407  1.00  0.00    -0.252 NA
ATOM     18  C   UNL     1     -19.470 -41.396  22.278  1.00  0.00     0.056 C 
ATOM     19  C   UNL     1     -21.549 -41.014  23.595  1.00  0.00     0.005 C 
ATOM     20  C   UNL     1     -15.199 -43.311  26.690  1.00  0.00     0.001 A 
ATOM     21  C   UNL     1     -15.522 -43.074  24.319  1.00  0.00     0.029 A 
ATOM     22  C   UNL     1     -20.666 -40.473  22.481  1.00  0.00     0.007 C 
ATOM     23  C   UNL     1     -14.715 -43.441  25.398  1.00  0.00     0.002 A 
ENDBRANCH   8  10
ENDBRANCH   1   8
TORSDOF 3
ENDMDL
