MODEL 1
REMARK VINA RESULT:    -8.694      0.000      0.000
REMARK INTER + INTRA:         -17.667
REMARK INTER:                 -15.048
REMARK INTRA:                  -2.620
REMARK UNBOUND:                -2.620
REMARK SMILES Cc1sc(N2CCN(C)CC2)nc1CCOc1ccc(C[C@H](Nc2ccccc2C(=O)c2ccccc2)C(=O)O)cc1
REMARK SMILES IDX 17 1 18 2 19 3 20 4 41 5 42 6 16 7 15 8 14 9 13 10 2 11 3 12
REMARK SMILES IDX 4 13 12 14 1 15 5 16 6 17 11 18 7 19 10 20 8 21 9 22 21 23
REMARK SMILES IDX 22 24 23 25 24 27 25 28 29 29 26 30 28 31 27 32 30 33 31 34
REMARK SMILES IDX 32 35 33 36 37 37 34 38 36 39 35 40 38 41 39 42 40 43
REMARK H PARENT 23 26 40 44
ROOT
ATOM      1  C   UNL     1      -8.207  -8.638 -26.302  1.00  0.00     0.119 A 
ATOM      2  C   UNL     1      -9.559  -8.728 -26.642  1.00  0.00     0.047 A 
ATOM      3  C   UNL     1      -9.974  -8.567 -27.964  1.00  0.00     0.007 A 
ATOM      4  C   UNL     1      -9.039  -8.302 -28.973  1.00  0.00    -0.045 A 
ATOM      5  C   UNL     1      -7.686  -8.186 -28.625  1.00  0.00     0.007 A 
ATOM      6  C   UNL     1      -7.272  -8.356 -27.297  1.00  0.00     0.047 A 
ENDROOT
BRANCH   1   7
ATOM      7  O   UNL     1      -7.940  -8.840 -24.977  1.00  0.00    -0.493 OA
BRANCH   7   8
ATOM      8  C   UNL     1      -7.020  -9.884 -24.645  1.00  0.00     0.236 C 
BRANCH   8   9
ATOM      9  C   UNL     1      -7.309 -10.314 -23.209  1.00  0.00     0.099 C 
BRANCH   9  10
ATOM     10  C   UNL     1      -7.646  -9.166 -22.315  1.00  0.00     0.060 A 
ATOM     11  C   UNL     1      -8.905  -8.699 -21.986  1.00  0.00     0.027 A 
ATOM     12  S   UNL     1      -8.758  -7.342 -20.954  1.00  0.00    -0.102 S 
ATOM     13  C   UNL     1      -7.031  -7.439 -21.022  1.00  0.00     0.185 A 
ATOM     14  N   UNL     1      -6.604  -8.453 -21.748  1.00  0.00    -0.225 NA
ATOM     15  C   UNL     1     -10.250  -9.187 -22.388  1.00  0.00     0.058 C 
BRANCH  13  16
ATOM     16  N   UNL     1      -6.193  -6.565 -20.400  1.00  0.00    -0.346 N 
ATOM     17  C   UNL     1      -4.802  -6.942 -20.131  1.00  0.00     0.134 C 
ATOM     18  C   UNL     1      -6.576  -5.247 -19.896  1.00  0.00     0.134 C 
ATOM     19  C   UNL     1      -3.839  -5.833 -20.613  1.00  0.00     0.105 C 
ATOM     20  C   UNL     1      -5.581  -4.174 -20.395  1.00  0.00     0.105 C 
ATOM     21  N   UNL     1      -4.172  -4.496 -20.067  1.00  0.00    -0.303 NA
ATOM     22  C   UNL     1      -3.276  -3.478 -20.612  1.00  0.00     0.105 C 
ENDBRANCH  13  16
ENDBRANCH   9  10
ENDBRANCH   8   9
ENDBRANCH   7   8
ENDBRANCH   1   7
BRANCH   4  23
ATOM     23  C   UNL     1      -9.498  -8.128 -30.406  1.00  0.00     0.072 C 
BRANCH  23  24
ATOM     24  C   UNL     1      -8.858  -6.961 -31.179  1.00  0.00     0.194 C 
BRANCH  24  25
ATOM     25  N   UNL     1      -9.886  -5.995 -31.589  1.00  0.00    -0.371 N 
ATOM     26  H   UNL     1     -10.570  -6.365 -32.261  1.00  0.00     0.161 HD
BRANCH  25  27
ATOM     27  C   UNL     1      -9.887  -4.620 -31.443  1.00  0.00     0.046 A 
ATOM     28  C   UNL     1      -8.803  -3.812 -31.812  1.00  0.00     0.026 A 
ATOM     29  C   UNL     1     -10.982  -3.967 -30.831  1.00  0.00     0.046 A 
ATOM     30  C   UNL     1      -8.825  -2.422 -31.637  1.00  0.00     0.002 A 
ATOM     31  C   UNL     1     -11.019  -2.571 -30.672  1.00  0.00     0.014 A 
ATOM     32  C   UNL     1      -9.936  -1.799 -31.079  1.00  0.00     0.001 A 
BRANCH  29  33
ATOM     33  C   UNL     1     -12.129  -4.765 -30.324  1.00  0.00     0.195 C 
ATOM     34  O   UNL     1     -12.780  -5.454 -31.107  1.00  0.00    -0.289 OA
BRANCH  33  35
ATOM     35  C   UNL     1     -12.474  -4.771 -28.875  1.00  0.00     0.023 A 
ATOM     36  C   UNL     1     -13.341  -3.824 -28.314  1.00  0.00     0.012 A 
ATOM     37  C   UNL     1     -11.866  -5.724 -28.049  1.00  0.00     0.012 A 
ATOM     38  C   UNL     1     -13.620  -3.851 -26.946  1.00  0.00     0.001 A 
ATOM     39  C   UNL     1     -12.140  -5.743 -26.680  1.00  0.00     0.001 A 
ATOM     40  C   UNL     1     -13.023  -4.812 -26.131  1.00  0.00     0.000 A 
ENDBRANCH  33  35
ENDBRANCH  29  33
ENDBRANCH  25  27
ENDBRANCH  24  25
BRANCH  24  41
ATOM     41  C   UNL     1      -8.046  -7.481 -32.369  1.00  0.00     0.326 C 
ATOM     42  O   UNL     1      -8.439  -7.529 -33.528  1.00  0.00    -0.250 OA
BRANCH  41  43
ATOM     43  O   UNL     1      -6.796  -7.887 -32.061  1.00  0.00    -0.480 OA
ATOM     44  H   UNL     1      -6.841  -8.166 -31.124  1.00  0.00     0.296 HD
ENDBRANCH  41  43
ENDBRANCH  24  41
ENDBRANCH  23  24
ENDBRANCH   4  23
TORSDOF 13
ENDMDL
MODEL 2
REMARK VINA RESULT:    -8.569      2.835      9.348
REMARK INTER + INTRA:         -17.451
REMARK INTER:                 -15.095
REMARK INTRA:                  -2.356
REMARK UNBOUND:                -2.620
REMARK SMILES Cc1sc(N2CCN(C)CC2)nc1CCOc1ccc(C[C@H](Nc2ccccc2C(=O)c2ccccc2)C(=O)O)cc1
REMARK SMILES IDX 17 1 18 2 19 3 20 4 41 5 42 6 16 7 15 8 14 9 13 10 2 11 3 12
REMARK SMILES IDX 4 13 12 14 1 15 5 16 6 17 11 18 7 19 10 20 8 21 9 22 21 23
REMARK SMILES IDX 22 24 23 25 24 27 25 28 29 29 26 30 28 31 27 32 30 33 31 34
REMARK SMILES IDX 32 35 33 36 37 37 34 38 36 39 35 40 38 41 39 42 40 43
REMARK H PARENT 23 26 40 44
ROOT
ATOM      1  C   UNL     1      -8.841  -8.143 -31.488  1.00  0.00     0.119 A 
ATOM      2  C   UNL     1      -7.807  -7.962 -30.566  1.00  0.00     0.047 A 
ATOM      3  C   UNL     1      -7.980  -8.306 -29.226  1.00  0.00     0.007 A 
ATOM      4  C   UNL     1      -9.201  -8.829 -28.780  1.00  0.00    -0.045 A 
ATOM      5  C   UNL     1     -10.245  -8.984 -29.702  1.00  0.00     0.007 A 
ATOM      6  C   UNL     1     -10.065  -8.646 -31.050  1.00  0.00     0.047 A 
ENDROOT
BRANCH   1   7
ATOM      7  O   UNL     1      -8.527  -7.787 -32.771  1.00  0.00    -0.493 OA
BRANCH   7   8
ATOM      8  C   UNL     1      -8.107  -6.437 -32.991  1.00  0.00     0.236 C 
BRANCH   8   9
ATOM      9  C   UNL     1      -9.335  -5.636 -33.416  1.00  0.00     0.099 C 
BRANCH   9  10
ATOM     10  C   UNL     1      -9.830  -4.720 -32.346  1.00  0.00     0.060 A 
ATOM     11  C   UNL     1      -9.351  -3.463 -32.028  1.00  0.00     0.027 A 
ATOM     12  S   UNL     1     -10.233  -2.835 -30.704  1.00  0.00    -0.102 S 
ATOM     13  C   UNL     1     -11.185  -4.277 -30.614  1.00  0.00     0.185 A 
ATOM     14  N   UNL     1     -10.875  -5.154 -31.548  1.00  0.00    -0.225 NA
ATOM     15  C   UNL     1      -8.257  -2.664 -32.641  1.00  0.00     0.058 C 
BRANCH  13  16
ATOM     16  N   UNL     1     -12.151  -4.496 -29.680  1.00  0.00    -0.346 N 
ATOM     17  C   UNL     1     -11.875  -5.351 -28.521  1.00  0.00     0.134 C 
ATOM     18  C   UNL     1     -13.520  -3.986 -29.750  1.00  0.00     0.134 C 
ATOM     19  C   UNL     1     -12.299  -4.642 -27.214  1.00  0.00     0.105 C 
ATOM     20  C   UNL     1     -13.903  -3.297 -28.420  1.00  0.00     0.105 C 
ATOM     21  N   UNL     1     -13.704  -4.169 -27.239  1.00  0.00    -0.303 NA
ATOM     22  C   UNL     1     -14.027  -3.446 -26.010  1.00  0.00     0.105 C 
ENDBRANCH  13  16
ENDBRANCH   9  10
ENDBRANCH   8   9
ENDBRANCH   7   8
ENDBRANCH   1   7
BRANCH   4  23
ATOM     23  C   UNL     1      -9.381  -9.199 -27.322  1.00  0.00     0.072 C 
BRANCH  23  24
ATOM     24  C   UNL     1      -9.726  -8.038 -26.373  1.00  0.00     0.194 C 
BRANCH  24  25
ATOM     25  N   UNL     1      -8.774  -7.992 -25.254  1.00  0.00    -0.371 N 
ATOM     26  H   UNL     1      -8.631  -7.054 -24.858  1.00  0.00     0.161 HD
BRANCH  25  27
ATOM     27  C   UNL     1      -7.844  -8.941 -24.871  1.00  0.00     0.046 A 
ATOM     28  C   UNL     1      -7.089  -9.685 -25.788  1.00  0.00     0.026 A 
ATOM     29  C   UNL     1      -7.671  -9.260 -23.504  1.00  0.00     0.046 A 
ATOM     30  C   UNL     1      -6.165 -10.652 -25.370  1.00  0.00     0.002 A 
ATOM     31  C   UNL     1      -6.731 -10.214 -23.079  1.00  0.00     0.014 A 
ATOM     32  C   UNL     1      -5.977 -10.910 -24.017  1.00  0.00     0.001 A 
BRANCH  29  33
ATOM     33  C   UNL     1      -8.505  -8.585 -22.476  1.00  0.00     0.195 C 
ATOM     34  O   UNL     1      -9.718  -8.784 -22.454  1.00  0.00    -0.289 OA
BRANCH  33  35
ATOM     35  C   UNL     1      -7.885  -7.701 -21.449  1.00  0.00     0.023 A 
ATOM     36  C   UNL     1      -6.497  -7.530 -21.357  1.00  0.00     0.012 A 
ATOM     37  C   UNL     1      -8.721  -7.069 -20.520  1.00  0.00     0.012 A 
ATOM     38  C   UNL     1      -5.956  -6.711 -20.364  1.00  0.00     0.001 A 
ATOM     39  C   UNL     1      -8.176  -6.258 -19.523  1.00  0.00     0.001 A 
ATOM     40  C   UNL     1      -6.795  -6.072 -19.451  1.00  0.00     0.000 A 
ENDBRANCH  33  35
ENDBRANCH  29  33
ENDBRANCH  25  27
ENDBRANCH  24  25
BRANCH  24  41
ATOM     41  C   UNL     1     -11.177  -8.144 -25.892  1.00  0.00     0.326 C 
ATOM     42  O   UNL     1     -12.144  -8.377 -26.606  1.00  0.00    -0.250 OA
BRANCH  41  43
ATOM     43  O   UNL     1     -11.341  -7.976 -24.563  1.00  0.00    -0.480 OA
ATOM     44  H   UNL     1     -11.774  -7.103 -24.466  1.00  0.00     0.296 HD
ENDBRANCH  41  43
ENDBRANCH  24  41
ENDBRANCH  23  24
ENDBRANCH   4  23
TORSDOF 13
ENDMDL
MODEL 3
REMARK VINA RESULT:    -8.543      3.349     10.432
REMARK INTER + INTRA:         -17.406
REMARK INTER:                 -16.115
REMARK INTRA:                  -1.291
REMARK UNBOUND:                -2.620
REMARK SMILES Cc1sc(N2CCN(C)CC2)nc1CCOc1ccc(C[C@H](Nc2ccccc2C(=O)c2ccccc2)C(=O)O)cc1
REMARK SMILES IDX 17 1 18 2 19 3 20 4 41 5 42 6 16 7 15 8 14 9 13 10 2 11 3 12
REMARK SMILES IDX 4 13 12 14 1 15 5 16 6 17 11 18 7 19 10 20 8 21 9 22 21 23
REMARK SMILES IDX 22 24 23 25 24 27 25 28 29 29 26 30 28 31 27 32 30 33 31 34
REMARK SMILES IDX 32 35 33 36 37 37 34 38 36 39 35 40 38 41 39 42 40 43
REMARK H PARENT 23 26 40 44
ROOT
ATOM      1  C   UNL     1      -8.103  -9.061 -24.349  1.00  0.00     0.119 A 
ATOM      2  C   UNL     1      -8.648  -7.816 -24.029  1.00  0.00     0.047 A 
ATOM      3  C   UNL     1      -8.422  -7.238 -22.779  1.00  0.00     0.007 A 
ATOM      4  C   UNL     1      -7.650  -7.906 -21.820  1.00  0.00    -0.045 A 
ATOM      5  C   UNL     1      -7.126  -9.167 -22.134  1.00  0.00     0.007 A 
ATOM      6  C   UNL     1      -7.349  -9.741 -23.393  1.00  0.00     0.047 A 
ENDROOT
BRANCH   1   7
ATOM      7  O   UNL     1      -8.385  -9.496 -25.614  1.00  0.00    -0.493 OA
BRANCH   7   8
ATOM      8  C   UNL     1      -7.281  -9.685 -26.503  1.00  0.00     0.236 C 
BRANCH   8   9
ATOM      9  C   UNL     1      -7.166  -8.431 -27.367  1.00  0.00     0.099 C 
BRANCH   9  10
ATOM     10  C   UNL     1      -8.365  -8.206 -28.228  1.00  0.00     0.060 A 
ATOM     11  C   UNL     1      -8.501  -8.497 -29.572  1.00  0.00     0.027 A 
ATOM     12  S   UNL     1     -10.055  -8.021 -30.104  1.00  0.00    -0.102 S 
ATOM     13  C   UNL     1     -10.451  -7.435 -28.524  1.00  0.00     0.185 A 
ATOM     14  N   UNL     1      -9.482  -7.624 -27.651  1.00  0.00    -0.225 NA
ATOM     15  C   UNL     1      -7.544  -9.115 -30.527  1.00  0.00     0.058 C 
BRANCH  13  16
ATOM     16  N   UNL     1     -11.632  -6.838 -28.206  1.00  0.00    -0.346 N 
ATOM     17  C   UNL     1     -12.239  -7.060 -26.890  1.00  0.00     0.134 C 
ATOM     18  C   UNL     1     -12.424  -6.004 -29.110  1.00  0.00     0.134 C 
ATOM     19  C   UNL     1     -12.633  -5.712 -26.243  1.00  0.00     0.105 C 
ATOM     20  C   UNL     1     -12.802  -4.675 -28.417  1.00  0.00     0.105 C 
ATOM     21  N   UNL     1     -13.486  -4.874 -27.119  1.00  0.00    -0.303 NA
ATOM     22  C   UNL     1     -13.767  -3.587 -26.486  1.00  0.00     0.105 C 
ENDBRANCH  13  16
ENDBRANCH   9  10
ENDBRANCH   8   9
ENDBRANCH   7   8
ENDBRANCH   1   7
BRANCH   4  23
ATOM     23  C   UNL     1      -7.409  -7.272 -20.465  1.00  0.00     0.072 C 
BRANCH  23  24
ATOM     24  C   UNL     1      -7.682  -5.761 -20.373  1.00  0.00     0.194 C 
BRANCH  24  25
ATOM     25  N   UNL     1      -6.489  -5.054 -19.886  1.00  0.00    -0.371 N 
ATOM     26  H   UNL     1      -6.622  -4.043 -19.752  1.00  0.00     0.161 HD
BRANCH  25  27
ATOM     27  C   UNL     1      -5.175  -5.482 -19.876  1.00  0.00     0.046 A 
ATOM     28  C   UNL     1      -4.812  -6.835 -19.826  1.00  0.00     0.026 A 
ATOM     29  C   UNL     1      -4.118  -4.543 -19.837  1.00  0.00     0.046 A 
ATOM     30  C   UNL     1      -3.471  -7.239 -19.800  1.00  0.00     0.002 A 
ATOM     31  C   UNL     1      -2.771  -4.943 -19.832  1.00  0.00     0.014 A 
ATOM     32  C   UNL     1      -2.450  -6.296 -19.815  1.00  0.00     0.001 A 
BRANCH  29  33
ATOM     33  C   UNL     1      -4.422  -3.090 -19.789  1.00  0.00     0.195 C 
ATOM     34  O   UNL     1      -5.041  -2.632 -18.829  1.00  0.00    -0.289 OA
BRANCH  33  35
ATOM     35  C   UNL     1      -3.954  -2.175 -20.868  1.00  0.00     0.023 A 
ATOM     36  C   UNL     1      -3.648  -0.830 -20.620  1.00  0.00     0.012 A 
ATOM     37  C   UNL     1      -3.872  -2.672 -22.174  1.00  0.00     0.012 A 
ATOM     38  C   UNL     1      -3.235  -0.002 -21.665  1.00  0.00     0.001 A 
ATOM     39  C   UNL     1      -3.467  -1.838 -23.218  1.00  0.00     0.001 A 
ATOM     40  C   UNL     1      -3.141  -0.506 -22.962  1.00  0.00     0.000 A 
ENDBRANCH  33  35
ENDBRANCH  29  33
ENDBRANCH  25  27
ENDBRANCH  24  25
BRANCH  24  41
ATOM     41  C   UNL     1      -8.912  -5.485 -19.502  1.00  0.00     0.326 C 
ATOM     42  O   UNL     1      -9.513  -6.321 -18.839  1.00  0.00    -0.250 OA
BRANCH  41  43
ATOM     43  O   UNL     1      -9.311  -4.195 -19.488  1.00  0.00    -0.480 OA
ATOM     44  H   UNL     1     -10.288  -4.230 -19.432  1.00  0.00     0.296 HD
ENDBRANCH  41  43
ENDBRANCH  24  41
ENDBRANCH  23  24
ENDBRANCH   4  23
TORSDOF 13
ENDMDL
MODEL 4
REMARK VINA RESULT:    -8.521      1.406      3.242
REMARK INTER + INTRA:         -17.368
REMARK INTER:                 -14.439
REMARK INTRA:                  -2.929
REMARK UNBOUND:                -2.620
REMARK SMILES Cc1sc(N2CCN(C)CC2)nc1CCOc1ccc(C[C@H](Nc2ccccc2C(=O)c2ccccc2)C(=O)O)cc1
REMARK SMILES IDX 17 1 18 2 19 3 20 4 41 5 42 6 16 7 15 8 14 9 13 10 2 11 3 12
REMARK SMILES IDX 4 13 12 14 1 15 5 16 6 17 11 18 7 19 10 20 8 21 9 22 21 23
REMARK SMILES IDX 22 24 23 25 24 27 25 28 29 29 26 30 28 31 27 32 30 33 31 34
REMARK SMILES IDX 32 35 33 36 37 37 34 38 36 39 35 40 38 41 39 42 40 43
REMARK H PARENT 23 26 40 44
ROOT
ATOM      1  C   UNL     1      -8.146  -8.818 -25.824  1.00  0.00     0.119 A 
ATOM      2  C   UNL     1      -9.269  -7.999 -25.684  1.00  0.00     0.047 A 
ATOM      3  C   UNL     1     -10.198  -7.878 -26.717  1.00  0.00     0.007 A 
ATOM      4  C   UNL     1     -10.013  -8.572 -27.920  1.00  0.00    -0.045 A 
ATOM      5  C   UNL     1      -8.872  -9.373 -28.068  1.00  0.00     0.007 A 
ATOM      6  C   UNL     1      -7.945  -9.498 -27.025  1.00  0.00     0.047 A 
ENDROOT
BRANCH   1   7
ATOM      7  O   UNL     1      -7.333  -8.861 -24.726  1.00  0.00    -0.493 OA
BRANCH   7   8
ATOM      8  C   UNL     1      -6.784 -10.132 -24.367  1.00  0.00     0.236 C 
BRANCH   8   9
ATOM      9  C   UNL     1      -7.242 -10.446 -22.945  1.00  0.00     0.099 C 
BRANCH   9  10
ATOM     10  C   UNL     1      -7.585  -9.222 -22.161  1.00  0.00     0.060 A 
ATOM     11  C   UNL     1      -8.843  -8.697 -21.930  1.00  0.00     0.027 A 
ATOM     12  S   UNL     1      -8.702  -7.267 -21.003  1.00  0.00    -0.102 S 
ATOM     13  C   UNL     1      -6.978  -7.414 -20.980  1.00  0.00     0.185 A 
ATOM     14  N   UNL     1      -6.548  -8.494 -21.602  1.00  0.00    -0.225 NA
ATOM     15  C   UNL     1     -10.182  -9.180 -22.356  1.00  0.00     0.058 C 
BRANCH  13  16
ATOM     16  N   UNL     1      -6.144  -6.515 -20.389  1.00  0.00    -0.346 N 
ATOM     17  C   UNL     1      -4.755  -6.881 -20.095  1.00  0.00     0.134 C 
ATOM     18  C   UNL     1      -6.529  -5.176 -19.943  1.00  0.00     0.134 C 
ATOM     19  C   UNL     1      -3.788  -5.794 -20.617  1.00  0.00     0.105 C 
ATOM     20  C   UNL     1      -5.529  -4.126 -20.480  1.00  0.00     0.105 C 
ATOM     21  N   UNL     1      -4.123  -4.435 -20.129  1.00  0.00    -0.303 NA
ATOM     22  C   UNL     1      -3.222  -3.441 -20.710  1.00  0.00     0.105 C 
ENDBRANCH  13  16
ENDBRANCH   9  10
ENDBRANCH   8   9
ENDBRANCH   7   8
ENDBRANCH   1   7
BRANCH   4  23
ATOM     23  C   UNL     1     -11.026  -8.436 -29.038  1.00  0.00     0.072 C 
BRANCH  23  24
ATOM     24  C   UNL     1     -11.305  -7.002 -29.520  1.00  0.00     0.194 C 
BRANCH  24  25
ATOM     25  N   UNL     1     -12.648  -6.574 -29.104  1.00  0.00    -0.371 N 
ATOM     26  H   UNL     1     -13.396  -6.829 -29.762  1.00  0.00     0.161 HD
BRANCH  25  27
ATOM     27  C   UNL     1     -13.000  -5.643 -28.144  1.00  0.00     0.046 A 
ATOM     28  C   UNL     1     -13.166  -5.967 -26.790  1.00  0.00     0.026 A 
ATOM     29  C   UNL     1     -13.288  -4.309 -28.514  1.00  0.00     0.046 A 
ATOM     30  C   UNL     1     -13.539  -5.006 -25.842  1.00  0.00     0.002 A 
ATOM     31  C   UNL     1     -13.643  -3.337 -27.564  1.00  0.00     0.014 A 
ATOM     32  C   UNL     1     -13.767  -3.689 -26.224  1.00  0.00     0.001 A 
BRANCH  29  33
ATOM     33  C   UNL     1     -13.230  -3.910 -29.944  1.00  0.00     0.195 C 
ATOM     34  O   UNL     1     -14.054  -4.366 -30.735  1.00  0.00    -0.289 OA
BRANCH  33  35
ATOM     35  C   UNL     1     -12.210  -2.935 -30.424  1.00  0.00     0.023 A 
ATOM     36  C   UNL     1     -12.569  -1.725 -31.032  1.00  0.00     0.012 A 
ATOM     37  C   UNL     1     -10.856  -3.274 -30.306  1.00  0.00     0.012 A 
ATOM     38  C   UNL     1     -11.581  -0.851 -31.489  1.00  0.00     0.001 A 
ATOM     39  C   UNL     1      -9.872  -2.401 -30.772  1.00  0.00     0.001 A 
ATOM     40  C   UNL     1     -10.234  -1.186 -31.356  1.00  0.00     0.000 A 
ENDBRANCH  33  35
ENDBRANCH  29  33
ENDBRANCH  25  27
ENDBRANCH  24  25
BRANCH  24  41
ATOM     41  C   UNL     1     -11.108  -6.892 -31.035  1.00  0.00     0.326 C 
ATOM     42  O   UNL     1     -10.039  -7.008 -31.621  1.00  0.00    -0.250 OA
BRANCH  41  43
ATOM     43  O   UNL     1     -12.241  -6.667 -31.734  1.00  0.00    -0.480 OA
ATOM     44  H   UNL     1     -12.262  -7.366 -32.420  1.00  0.00     0.296 HD
ENDBRANCH  41  43
ENDBRANCH  24  41
ENDBRANCH  23  24
ENDBRANCH   4  23
TORSDOF 13
ENDMDL
MODEL 5
REMARK VINA RESULT:    -8.300      2.742      5.292
REMARK INTER + INTRA:         -16.985
REMARK INTER:                 -14.478
REMARK INTRA:                  -2.508
REMARK UNBOUND:                -2.620
REMARK SMILES Cc1sc(N2CCN(C)CC2)nc1CCOc1ccc(C[C@H](Nc2ccccc2C(=O)c2ccccc2)C(=O)O)cc1
REMARK SMILES IDX 17 1 18 2 19 3 20 4 41 5 42 6 16 7 15 8 14 9 13 10 2 11 3 12
REMARK SMILES IDX 4 13 12 14 1 15 5 16 6 17 11 18 7 19 10 20 8 21 9 22 21 23
REMARK SMILES IDX 22 24 23 25 24 27 25 28 29 29 26 30 28 31 27 32 30 33 31 34
REMARK SMILES IDX 32 35 33 36 37 37 34 38 36 39 35 40 38 41 39 42 40 43
REMARK H PARENT 23 26 40 44
ROOT
ATOM      1  C   UNL     1      -8.900  -8.750 -24.643  1.00  0.00     0.119 A 
ATOM      2  C   UNL     1      -8.939  -8.189 -25.921  1.00  0.00     0.047 A 
ATOM      3  C   UNL     1     -10.112  -7.614 -26.411  1.00  0.00     0.007 A 
ATOM      4  C   UNL     1     -11.274  -7.599 -25.629  1.00  0.00    -0.045 A 
ATOM      5  C   UNL     1     -11.239  -8.186 -24.357  1.00  0.00     0.007 A 
ATOM      6  C   UNL     1     -10.057  -8.756 -23.865  1.00  0.00     0.047 A 
ENDROOT
BRANCH   1   7
ATOM      7  O   UNL     1      -7.682  -9.256 -24.282  1.00  0.00    -0.493 OA
BRANCH   7   8
ATOM      8  C   UNL     1      -7.502  -9.616 -22.909  1.00  0.00     0.236 C 
BRANCH   8   9
ATOM      9  C   UNL     1      -6.389  -8.737 -22.345  1.00  0.00     0.099 C 
BRANCH   9  10
ATOM     10  C   UNL     1      -6.869  -7.797 -21.289  1.00  0.00     0.060 A 
ATOM     11  C   UNL     1      -6.126  -6.860 -20.597  1.00  0.00     0.027 A 
ATOM     12  S   UNL     1      -7.130  -6.054 -19.471  1.00  0.00    -0.102 S 
ATOM     13  C   UNL     1      -8.490  -7.011 -19.951  1.00  0.00     0.185 A 
ATOM     14  N   UNL     1      -8.203  -7.854 -20.923  1.00  0.00    -0.225 NA
ATOM     15  C   UNL     1      -4.686  -6.503 -20.700  1.00  0.00     0.058 C 
BRANCH  13  16
ATOM     16  N   UNL     1      -9.726  -6.914 -19.390  1.00  0.00    -0.346 N 
ATOM     17  C   UNL     1     -10.788  -7.847 -19.781  1.00  0.00     0.134 C 
ATOM     18  C   UNL     1     -10.138  -5.887 -18.434  1.00  0.00     0.134 C 
ATOM     19  C   UNL     1     -11.460  -8.455 -18.528  1.00  0.00     0.105 C 
ATOM     20  C   UNL     1     -10.814  -6.540 -17.206  1.00  0.00     0.105 C 
ATOM     21  N   UNL     1     -11.940  -7.430 -17.571  1.00  0.00    -0.303 NA
ATOM     22  C   UNL     1     -12.501  -8.060 -16.378  1.00  0.00     0.105 C 
ENDBRANCH  13  16
ENDBRANCH   9  10
ENDBRANCH   8   9
ENDBRANCH   7   8
ENDBRANCH   1   7
BRANCH   4  23
ATOM     23  C   UNL     1     -12.544  -6.973 -26.169  1.00  0.00     0.072 C 
BRANCH  23  24
ATOM     24  C   UNL     1     -12.476  -6.460 -27.618  1.00  0.00     0.194 C 
BRANCH  24  25
ATOM     25  N   UNL     1     -12.186  -5.020 -27.637  1.00  0.00    -0.371 N 
ATOM     26  H   UNL     1     -11.187  -4.788 -27.563  1.00  0.00     0.161 HD
BRANCH  25  27
ATOM     27  C   UNL     1     -13.053  -3.961 -27.439  1.00  0.00     0.046 A 
ATOM     28  C   UNL     1     -13.675  -3.703 -26.210  1.00  0.00     0.026 A 
ATOM     29  C   UNL     1     -13.413  -3.121 -28.518  1.00  0.00     0.046 A 
ATOM     30  C   UNL     1     -14.563  -2.631 -26.043  1.00  0.00     0.002 A 
ATOM     31  C   UNL     1     -14.286  -2.033 -28.351  1.00  0.00     0.014 A 
ATOM     32  C   UNL     1     -14.860  -1.789 -27.108  1.00  0.00     0.001 A 
BRANCH  29  33
ATOM     33  C   UNL     1     -12.871  -3.389 -29.876  1.00  0.00     0.195 C 
ATOM     34  O   UNL     1     -13.295  -4.347 -30.519  1.00  0.00    -0.289 OA
BRANCH  33  35
ATOM     35  C   UNL     1     -11.850  -2.488 -30.482  1.00  0.00     0.023 A 
ATOM     36  C   UNL     1     -12.207  -1.348 -31.214  1.00  0.00     0.012 A 
ATOM     37  C   UNL     1     -10.499  -2.832 -30.355  1.00  0.00     0.012 A 
ATOM     38  C   UNL     1     -11.219  -0.545 -31.786  1.00  0.00     0.001 A 
ATOM     39  C   UNL     1      -9.514  -2.031 -30.935  1.00  0.00     0.001 A 
ATOM     40  C   UNL     1      -9.873  -0.883 -31.643  1.00  0.00     0.000 A 
ENDBRANCH  33  35
ENDBRANCH  29  33
ENDBRANCH  25  27
ENDBRANCH  24  25
BRANCH  24  41
ATOM     41  C   UNL     1     -13.765  -6.801 -28.374  1.00  0.00     0.326 C 
ATOM     42  O   UNL     1     -14.891  -6.794 -27.893  1.00  0.00    -0.250 OA
BRANCH  41  43
ATOM     43  O   UNL     1     -13.587  -7.107 -29.676  1.00  0.00    -0.480 OA
ATOM     44  H   UNL     1     -14.479  -7.055 -30.076  1.00  0.00     0.296 HD
ENDBRANCH  41  43
ENDBRANCH  24  41
ENDBRANCH  23  24
ENDBRANCH   4  23
TORSDOF 13
ENDMDL
MODEL 6
REMARK VINA RESULT:    -8.277      1.610      3.741
REMARK INTER + INTRA:         -16.944
REMARK INTER:                 -14.395
REMARK INTRA:                  -2.549
REMARK UNBOUND:                -2.620
REMARK SMILES Cc1sc(N2CCN(C)CC2)nc1CCOc1ccc(C[C@H](Nc2ccccc2C(=O)c2ccccc2)C(=O)O)cc1
REMARK SMILES IDX 17 1 18 2 19 3 20 4 41 5 42 6 16 7 15 8 14 9 13 10 2 11 3 12
REMARK SMILES IDX 4 13 12 14 1 15 5 16 6 17 11 18 7 19 10 20 8 21 9 22 21 23
REMARK SMILES IDX 22 24 23 25 24 27 25 28 29 29 26 30 28 31 27 32 30 33 31 34
REMARK SMILES IDX 32 35 33 36 37 37 34 38 36 39 35 40 38 41 39 42 40 43
REMARK H PARENT 23 26 40 44
ROOT
ATOM      1  C   UNL     1      -9.252  -7.942 -25.419  1.00  0.00     0.119 A 
ATOM      2  C   UNL     1      -8.924  -7.998 -26.776  1.00  0.00     0.047 A 
ATOM      3  C   UNL     1      -9.878  -7.709 -27.752  1.00  0.00     0.007 A 
ATOM      4  C   UNL     1     -11.186  -7.367 -27.385  1.00  0.00    -0.045 A 
ATOM      5  C   UNL     1     -11.519  -7.338 -26.024  1.00  0.00     0.007 A 
ATOM      6  C   UNL     1     -10.556  -7.621 -25.046  1.00  0.00     0.047 A 
ENDROOT
BRANCH   1   7
ATOM      7  O   UNL     1      -8.216  -8.225 -24.573  1.00  0.00    -0.493 OA
BRANCH   7   8
ATOM      8  C   UNL     1      -7.633  -9.528 -24.664  1.00  0.00     0.236 C 
BRANCH   8   9
ATOM      9  C   UNL     1      -7.392 -10.025 -23.241  1.00  0.00     0.099 C 
BRANCH   9  10
ATOM     10  C   UNL     1      -7.663  -8.983 -22.207  1.00  0.00     0.060 A 
ATOM     11  C   UNL     1      -8.888  -8.626 -21.675  1.00  0.00     0.027 A 
ATOM     12  S   UNL     1      -8.673  -7.357 -20.549  1.00  0.00    -0.102 S 
ATOM     13  C   UNL     1      -6.968  -7.339 -20.848  1.00  0.00     0.185 A 
ATOM     14  N   UNL     1      -6.591  -8.258 -21.715  1.00  0.00    -0.225 NA
ATOM     15  C   UNL     1     -10.249  -9.160 -21.944  1.00  0.00     0.058 C 
BRANCH  13  16
ATOM     16  N   UNL     1      -6.100  -6.471 -20.260  1.00  0.00    -0.346 N 
ATOM     17  C   UNL     1      -4.689  -6.836 -20.097  1.00  0.00     0.134 C 
ATOM     18  C   UNL     1      -6.462  -5.171 -19.695  1.00  0.00     0.134 C 
ATOM     19  C   UNL     1      -3.774  -5.702 -20.613  1.00  0.00     0.105 C 
ATOM     20  C   UNL     1      -5.515  -4.073 -20.230  1.00  0.00     0.105 C 
ATOM     21  N   UNL     1      -4.084  -4.385 -20.008  1.00  0.00    -0.303 NA
ATOM     22  C   UNL     1      -3.238  -3.341 -20.584  1.00  0.00     0.105 C 
ENDBRANCH  13  16
ENDBRANCH   9  10
ENDBRANCH   8   9
ENDBRANCH   7   8
ENDBRANCH   1   7
BRANCH   4  23
ATOM     23  C   UNL     1     -12.217  -7.056 -28.451  1.00  0.00     0.072 C 
BRANCH  23  24
ATOM     24  C   UNL     1     -11.730  -7.164 -29.906  1.00  0.00     0.194 C 
BRANCH  24  25
ATOM     25  N   UNL     1     -11.980  -5.906 -30.624  1.00  0.00    -0.371 N 
ATOM     26  H   UNL     1     -12.804  -5.926 -31.238  1.00  0.00     0.161 HD
BRANCH  25  27
ATOM     27  C   UNL     1     -11.123  -4.839 -30.822  1.00  0.00     0.046 A 
ATOM     28  C   UNL     1     -11.229  -3.633 -30.118  1.00  0.00     0.026 A 
ATOM     29  C   UNL     1     -10.128  -4.900 -31.825  1.00  0.00     0.046 A 
ATOM     30  C   UNL     1     -10.356  -2.562 -30.352  1.00  0.00     0.002 A 
ATOM     31  C   UNL     1      -9.237  -3.837 -32.050  1.00  0.00     0.014 A 
ATOM     32  C   UNL     1      -9.353  -2.666 -31.309  1.00  0.00     0.001 A 
BRANCH  29  33
ATOM     33  C   UNL     1     -10.014  -6.109 -32.682  1.00  0.00     0.195 C 
ATOM     34  O   UNL     1     -10.893  -6.351 -33.508  1.00  0.00    -0.289 OA
BRANCH  33  35
ATOM     35  C   UNL     1      -8.831  -7.009 -32.580  1.00  0.00     0.023 A 
ATOM     36  C   UNL     1      -8.170  -7.497 -33.715  1.00  0.00     0.012 A 
ATOM     37  C   UNL     1      -8.409  -7.414 -31.308  1.00  0.00     0.012 A 
ATOM     38  C   UNL     1      -7.079  -8.357 -33.575  1.00  0.00     0.001 A 
ATOM     39  C   UNL     1      -7.323  -8.281 -31.172  1.00  0.00     0.001 A 
ATOM     40  C   UNL     1      -6.654  -8.746 -32.304  1.00  0.00     0.000 A 
ENDBRANCH  33  35
ENDBRANCH  29  33
ENDBRANCH  25  27
ENDBRANCH  24  25
BRANCH  24  41
ATOM     41  C   UNL     1     -12.375  -8.365 -30.605  1.00  0.00     0.326 C 
ATOM     42  O   UNL     1     -13.576  -8.520 -30.783  1.00  0.00    -0.250 OA
BRANCH  41  43
ATOM     43  O   UNL     1     -11.499  -9.287 -31.058  1.00  0.00    -0.480 OA
ATOM     44  H   UNL     1     -11.670  -9.353 -32.020  1.00  0.00     0.296 HD
ENDBRANCH  41  43
ENDBRANCH  24  41
ENDBRANCH  23  24
ENDBRANCH   4  23
TORSDOF 13
ENDMDL
MODEL 7
REMARK VINA RESULT:    -8.268      2.965      5.422
REMARK INTER + INTRA:         -16.929
REMARK INTER:                 -13.962
REMARK INTRA:                  -2.967
REMARK UNBOUND:                -2.620
REMARK SMILES Cc1sc(N2CCN(C)CC2)nc1CCOc1ccc(C[C@H](Nc2ccccc2C(=O)c2ccccc2)C(=O)O)cc1
REMARK SMILES IDX 17 1 18 2 19 3 20 4 41 5 42 6 16 7 15 8 14 9 13 10 2 11 3 12
REMARK SMILES IDX 4 13 12 14 1 15 5 16 6 17 11 18 7 19 10 20 8 21 9 22 21 23
REMARK SMILES IDX 22 24 23 25 24 27 25 28 29 29 26 30 28 31 27 32 30 33 31 34
REMARK SMILES IDX 32 35 33 36 37 37 34 38 36 39 35 40 38 41 39 42 40 43
REMARK H PARENT 23 26 40 44
ROOT
ATOM      1  C   UNL     1      -8.416  -9.267 -24.220  1.00  0.00     0.119 A 
ATOM      2  C   UNL     1      -7.994  -9.022 -25.529  1.00  0.00     0.047 A 
ATOM      3  C   UNL     1      -8.769  -8.252 -26.396  1.00  0.00     0.007 A 
ATOM      4  C   UNL     1      -9.992  -7.719 -25.968  1.00  0.00    -0.045 A 
ATOM      5  C   UNL     1     -10.425  -7.987 -24.662  1.00  0.00     0.007 A 
ATOM      6  C   UNL     1      -9.640  -8.755 -23.792  1.00  0.00     0.047 A 
ENDROOT
BRANCH   1   7
ATOM      7  O   UNL     1      -7.548 -10.016 -23.474  1.00  0.00    -0.493 OA
BRANCH   7   8
ATOM      8  C   UNL     1      -7.399  -9.666 -22.095  1.00  0.00     0.236 C 
BRANCH   8   9
ATOM      9  C   UNL     1      -6.411  -8.504 -22.019  1.00  0.00     0.099 C 
BRANCH   9  10
ATOM     10  C   UNL     1      -6.815  -7.461 -21.030  1.00  0.00     0.060 A 
ATOM     11  C   UNL     1      -6.007  -6.511 -20.434  1.00  0.00     0.027 A 
ATOM     12  S   UNL     1      -6.938  -5.570 -19.351  1.00  0.00    -0.102 S 
ATOM     13  C   UNL     1      -8.356  -6.493 -19.719  1.00  0.00     0.185 A 
ATOM     14  N   UNL     1      -8.139  -7.423 -20.627  1.00  0.00    -0.225 NA
ATOM     15  C   UNL     1      -4.556  -6.236 -20.603  1.00  0.00     0.058 C 
BRANCH  13  16
ATOM     16  N   UNL     1      -9.569  -6.291 -19.136  1.00  0.00    -0.346 N 
ATOM     17  C   UNL     1     -10.369  -7.433 -18.684  1.00  0.00     0.134 C 
ATOM     18  C   UNL     1     -10.211  -4.989 -18.960  1.00  0.00     0.134 C 
ATOM     19  C   UNL     1     -10.851  -7.215 -17.232  1.00  0.00     0.105 C 
ATOM     20  C   UNL     1     -10.685  -4.820 -17.497  1.00  0.00     0.105 C 
ATOM     21  N   UNL     1     -11.559  -5.926 -17.042  1.00  0.00    -0.303 NA
ATOM     22  C   UNL     1     -11.927  -5.742 -15.639  1.00  0.00     0.105 C 
ENDBRANCH  13  16
ENDBRANCH   9  10
ENDBRANCH   8   9
ENDBRANCH   7   8
ENDBRANCH   1   7
BRANCH   4  23
ATOM     23  C   UNL     1     -10.828  -6.884 -26.915  1.00  0.00     0.072 C 
BRANCH  23  24
ATOM     24  C   UNL     1     -12.353  -6.986 -26.733  1.00  0.00     0.194 C 
BRANCH  24  25
ATOM     25  N   UNL     1     -13.009  -7.216 -28.028  1.00  0.00    -0.371 N 
ATOM     26  H   UNL     1     -13.482  -8.125 -28.106  1.00  0.00     0.161 HD
BRANCH  25  27
ATOM     27  C   UNL     1     -12.827  -6.541 -29.220  1.00  0.00     0.046 A 
ATOM     28  C   UNL     1     -13.413  -5.297 -29.491  1.00  0.00     0.026 A 
ATOM     29  C   UNL     1     -12.085  -7.132 -30.269  1.00  0.00     0.046 A 
ATOM     30  C   UNL     1     -13.225  -4.644 -30.717  1.00  0.00     0.002 A 
ATOM     31  C   UNL     1     -11.876  -6.472 -31.492  1.00  0.00     0.014 A 
ATOM     32  C   UNL     1     -12.448  -5.224 -31.713  1.00  0.00     0.001 A 
BRANCH  29  33
ATOM     33  C   UNL     1     -11.514  -8.492 -30.095  1.00  0.00     0.195 C 
ATOM     34  O   UNL     1     -12.258  -9.432 -29.821  1.00  0.00    -0.289 OA
BRANCH  33  35
ATOM     35  C   UNL     1     -10.056  -8.739 -30.286  1.00  0.00     0.023 A 
ATOM     36  C   UNL     1      -9.093  -7.766 -29.989  1.00  0.00     0.012 A 
ATOM     37  C   UNL     1      -9.653  -9.965 -30.829  1.00  0.00     0.012 A 
ATOM     38  C   UNL     1      -7.740  -8.030 -30.205  1.00  0.00     0.001 A 
ATOM     39  C   UNL     1      -8.299 -10.223 -31.052  1.00  0.00     0.001 A 
ATOM     40  C   UNL     1      -7.343  -9.259 -30.732  1.00  0.00     0.000 A 
ENDBRANCH  33  35
ENDBRANCH  29  33
ENDBRANCH  25  27
ENDBRANCH  24  25
BRANCH  24  41
ATOM     41  C   UNL     1     -12.898  -5.743 -26.022  1.00  0.00     0.326 C 
ATOM     42  O   UNL     1     -13.880  -5.718 -25.291  1.00  0.00    -0.250 OA
BRANCH  41  43
ATOM     43  O   UNL     1     -12.188  -4.615 -26.240  1.00  0.00    -0.480 OA
ATOM     44  H   UNL     1     -11.590  -4.829 -26.985  1.00  0.00     0.296 HD
ENDBRANCH  41  43
ENDBRANCH  24  41
ENDBRANCH  23  24
ENDBRANCH   4  23
TORSDOF 13
ENDMDL
MODEL 8
REMARK VINA RESULT:    -8.124      1.621      3.851
REMARK INTER + INTRA:         -16.681
REMARK INTER:                 -14.001
REMARK INTRA:                  -2.681
REMARK UNBOUND:                -2.620
REMARK SMILES Cc1sc(N2CCN(C)CC2)nc1CCOc1ccc(C[C@H](Nc2ccccc2C(=O)c2ccccc2)C(=O)O)cc1
REMARK SMILES IDX 17 1 18 2 19 3 20 4 41 5 42 6 16 7 15 8 14 9 13 10 2 11 3 12
REMARK SMILES IDX 4 13 12 14 1 15 5 16 6 17 11 18 7 19 10 20 8 21 9 22 21 23
REMARK SMILES IDX 22 24 23 25 24 27 25 28 29 29 26 30 28 31 27 32 30 33 31 34
REMARK SMILES IDX 32 35 33 36 37 37 34 38 36 39 35 40 38 41 39 42 40 43
REMARK H PARENT 23 26 40 44
ROOT
ATOM      1  C   UNL     1      -8.603  -8.470 -25.664  1.00  0.00     0.119 A 
ATOM      2  C   UNL     1      -9.585  -7.683 -25.059  1.00  0.00     0.047 A 
ATOM      3  C   UNL     1     -10.769  -7.378 -25.730  1.00  0.00     0.007 A 
ATOM      4  C   UNL     1     -10.988  -7.851 -27.031  1.00  0.00    -0.045 A 
ATOM      5  C   UNL     1      -9.989  -8.619 -27.645  1.00  0.00     0.007 A 
ATOM      6  C   UNL     1      -8.805  -8.930 -26.965  1.00  0.00     0.047 A 
ENDROOT
BRANCH   1   7
ATOM      7  O   UNL     1      -7.506  -8.709 -24.884  1.00  0.00    -0.493 OA
BRANCH   7   8
ATOM      8  C   UNL     1      -7.089 -10.070 -24.739  1.00  0.00     0.236 C 
BRANCH   8   9
ATOM      9  C   UNL     1      -6.620 -10.257 -23.299  1.00  0.00     0.099 C 
BRANCH   9  10
ATOM     10  C   UNL     1      -7.140  -9.205 -22.376  1.00  0.00     0.060 A 
ATOM     11  C   UNL     1      -8.452  -8.994 -21.997  1.00  0.00     0.027 A 
ATOM     12  S   UNL     1      -8.533  -7.643 -20.951  1.00  0.00    -0.102 S 
ATOM     13  C   UNL     1      -6.824  -7.402 -21.080  1.00  0.00     0.185 A 
ATOM     14  N   UNL     1      -6.235  -8.308 -21.835  1.00  0.00    -0.225 NA
ATOM     15  C   UNL     1      -9.691  -9.730 -22.360  1.00  0.00     0.058 C 
BRANCH  13  16
ATOM     16  N   UNL     1      -6.149  -6.386 -20.473  1.00  0.00    -0.346 N 
ATOM     17  C   UNL     1      -4.858  -6.642 -19.827  1.00  0.00     0.134 C 
ATOM     18  C   UNL     1      -6.635  -5.013 -20.344  1.00  0.00     0.134 C 
ATOM     19  C   UNL     1      -3.807  -5.608 -20.294  1.00  0.00     0.105 C 
ATOM     20  C   UNL     1      -5.548  -4.016 -20.811  1.00  0.00     0.105 C 
ATOM     21  N   UNL     1      -4.254  -4.205 -20.117  1.00  0.00    -0.303 NA
ATOM     22  C   UNL     1      -3.254  -3.276 -20.638  1.00  0.00     0.105 C 
ENDBRANCH  13  16
ENDBRANCH   9  10
ENDBRANCH   8   9
ENDBRANCH   7   8
ENDBRANCH   1   7
BRANCH   4  23
ATOM     23  C   UNL     1     -12.276  -7.516 -27.754  1.00  0.00     0.072 C 
BRANCH  23  24
ATOM     24  C   UNL     1     -12.446  -6.046 -28.175  1.00  0.00     0.194 C 
BRANCH  24  25
ATOM     25  N   UNL     1     -11.212  -5.545 -28.795  1.00  0.00    -0.371 N 
ATOM     26  H   UNL     1     -10.399  -5.527 -28.165  1.00  0.00     0.161 HD
BRANCH  25  27
ATOM     27  C   UNL     1     -11.062  -4.833 -29.970  1.00  0.00     0.046 A 
ATOM     28  C   UNL     1     -11.061  -3.432 -30.020  1.00  0.00     0.026 A 
ATOM     29  C   UNL     1     -10.979  -5.509 -31.210  1.00  0.00     0.046 A 
ATOM     30  C   UNL     1     -10.924  -2.736 -31.228  1.00  0.00     0.002 A 
ATOM     31  C   UNL     1     -10.821  -4.816 -32.422  1.00  0.00     0.014 A 
ATOM     32  C   UNL     1     -10.792  -3.426 -32.428  1.00  0.00     0.001 A 
BRANCH  29  33
ATOM     33  C   UNL     1     -11.071  -6.991 -31.251  1.00  0.00     0.195 C 
ATOM     34  O   UNL     1     -12.167  -7.526 -31.412  1.00  0.00    -0.289 OA
BRANCH  33  35
ATOM     35  C   UNL     1      -9.848  -7.836 -31.139  1.00  0.00     0.023 A 
ATOM     36  C   UNL     1      -8.570  -7.278 -31.011  1.00  0.00     0.012 A 
ATOM     37  C   UNL     1      -9.990  -9.227 -31.218  1.00  0.00     0.012 A 
ATOM     38  C   UNL     1      -7.448  -8.106 -30.933  1.00  0.00     0.001 A 
ATOM     39  C   UNL     1      -8.866 -10.052 -31.149  1.00  0.00     0.001 A 
ATOM     40  C   UNL     1      -7.597  -9.492 -30.997  1.00  0.00     0.000 A 
ENDBRANCH  33  35
ENDBRANCH  29  33
ENDBRANCH  25  27
ENDBRANCH  24  25
BRANCH  24  41
ATOM     41  C   UNL     1     -12.883  -5.188 -26.983  1.00  0.00     0.326 C 
ATOM     42  O   UNL     1     -13.932  -5.315 -26.366  1.00  0.00    -0.250 OA
BRANCH  41  43
ATOM     43  O   UNL     1     -11.991  -4.243 -26.615  1.00  0.00    -0.480 OA
ATOM     44  H   UNL     1     -11.157  -4.729 -26.449  1.00  0.00     0.296 HD
ENDBRANCH  41  43
ENDBRANCH  24  41
ENDBRANCH  23  24
ENDBRANCH   4  23
TORSDOF 13
ENDMDL
MODEL 9
REMARK VINA RESULT:    -8.103      2.911      9.441
REMARK INTER + INTRA:         -16.644
REMARK INTER:                 -13.990
REMARK INTRA:                  -2.653
REMARK UNBOUND:                -2.620
REMARK SMILES Cc1sc(N2CCN(C)CC2)nc1CCOc1ccc(C[C@H](Nc2ccccc2C(=O)c2ccccc2)C(=O)O)cc1
REMARK SMILES IDX 17 1 18 2 19 3 20 4 41 5 42 6 16 7 15 8 14 9 13 10 2 11 3 12
REMARK SMILES IDX 4 13 12 14 1 15 5 16 6 17 11 18 7 19 10 20 8 21 9 22 21 23
REMARK SMILES IDX 22 24 23 25 24 27 25 28 29 29 26 30 28 31 27 32 30 33 31 34
REMARK SMILES IDX 32 35 33 36 37 37 34 38 36 39 35 40 38 41 39 42 40 43
REMARK H PARENT 23 26 40 44
ROOT
ATOM      1  C   UNL     1     -10.445  -9.099 -30.194  1.00  0.00     0.119 A 
ATOM      2  C   UNL     1     -10.802  -8.684 -28.909  1.00  0.00     0.047 A 
ATOM      3  C   UNL     1      -9.838  -8.537 -27.913  1.00  0.00     0.007 A 
ATOM      4  C   UNL     1      -8.491  -8.815 -28.184  1.00  0.00    -0.045 A 
ATOM      5  C   UNL     1      -8.139  -9.257 -29.467  1.00  0.00     0.007 A 
ATOM      6  C   UNL     1      -9.110  -9.396 -30.467  1.00  0.00     0.047 A 
ENDROOT
BRANCH   1   7
ATOM      7  O   UNL     1     -11.487  -9.178 -31.076  1.00  0.00    -0.493 OA
BRANCH   7   8
ATOM      8  C   UNL     1     -12.267  -7.995 -31.275  1.00  0.00     0.236 C 
BRANCH   8   9
ATOM      9  C   UNL     1     -11.329  -6.904 -31.784  1.00  0.00     0.099 C 
BRANCH   9  10
ATOM     10  C   UNL     1     -11.545  -5.589 -31.110  1.00  0.00     0.060 A 
ATOM     11  C   UNL     1     -10.704  -4.492 -31.120  1.00  0.00     0.027 A 
ATOM     12  S   UNL     1     -11.386  -3.243 -30.171  1.00  0.00    -0.102 S 
ATOM     13  C   UNL     1     -12.748  -4.240 -29.782  1.00  0.00     0.185 A 
ATOM     14  N   UNL     1     -12.699  -5.421 -30.365  1.00  0.00    -0.225 NA
ATOM     15  C   UNL     1      -9.395  -4.286 -31.792  1.00  0.00     0.058 C 
BRANCH  13  16
ATOM     16  N   UNL     1     -13.764  -3.856 -28.961  1.00  0.00    -0.346 N 
ATOM     17  C   UNL     1     -14.157  -4.702 -27.831  1.00  0.00     0.134 C 
ATOM     18  C   UNL     1     -14.580  -2.655 -29.137  1.00  0.00     0.134 C 
ATOM     19  C   UNL     1     -14.246  -3.865 -26.534  1.00  0.00     0.105 C 
ATOM     20  C   UNL     1     -14.648  -1.857 -27.815  1.00  0.00     0.105 C 
ATOM     21  N   UNL     1     -15.117  -2.673 -26.671  1.00  0.00    -0.303 NA
ATOM     22  C   UNL     1     -15.106  -1.883 -25.441  1.00  0.00     0.105 C 
ENDBRANCH  13  16
ENDBRANCH   9  10
ENDBRANCH   8   9
ENDBRANCH   7   8
ENDBRANCH   1   7
BRANCH   4  23
ATOM     23  C   UNL     1      -7.449  -8.654 -27.097  1.00  0.00     0.072 C 
BRANCH  23  24
ATOM     24  C   UNL     1      -7.696  -9.455 -25.807  1.00  0.00     0.194 C 
BRANCH  24  25
ATOM     25  N   UNL     1      -8.156  -8.566 -24.732  1.00  0.00    -0.371 N 
ATOM     26  H   UNL     1      -7.484  -7.832 -24.473  1.00  0.00     0.161 HD
BRANCH  25  27
ATOM     27  C   UNL     1      -9.195  -8.754 -23.840  1.00  0.00     0.046 A 
ATOM     28  C   UNL     1     -10.543  -8.748 -24.224  1.00  0.00     0.026 A 
ATOM     29  C   UNL     1      -8.934  -8.887 -22.456  1.00  0.00     0.046 A 
ATOM     30  C   UNL     1     -11.577  -8.925 -23.294  1.00  0.00     0.002 A 
ATOM     31  C   UNL     1      -9.965  -9.085 -21.522  1.00  0.00     0.014 A 
ATOM     32  C   UNL     1     -11.289  -9.105 -21.946  1.00  0.00     0.001 A 
BRANCH  29  33
ATOM     33  C   UNL     1      -7.537  -8.806 -21.957  1.00  0.00     0.195 C 
ATOM     34  O   UNL     1      -6.780  -9.763 -22.114  1.00  0.00    -0.289 OA
BRANCH  33  35
ATOM     35  C   UNL     1      -7.029  -7.566 -21.305  1.00  0.00     0.023 A 
ATOM     36  C   UNL     1      -7.793  -6.393 -21.243  1.00  0.00     0.012 A 
ATOM     37  C   UNL     1      -5.727  -7.569 -20.789  1.00  0.00     0.012 A 
ATOM     38  C   UNL     1      -7.270  -5.246 -20.643  1.00  0.00     0.001 A 
ATOM     39  C   UNL     1      -5.203  -6.418 -20.198  1.00  0.00     0.001 A 
ATOM     40  C   UNL     1      -5.978  -5.260 -20.118  1.00  0.00     0.000 A 
ENDBRANCH  33  35
ENDBRANCH  29  33
ENDBRANCH  25  27
ENDBRANCH  24  25
BRANCH  24  41
ATOM     41  C   UNL     1      -6.441 -10.241 -25.409  1.00  0.00     0.326 C 
ATOM     42  O   UNL     1      -5.303  -9.994 -25.785  1.00  0.00    -0.250 OA
BRANCH  41  43
ATOM     43  O   UNL     1      -6.667 -11.265 -24.559  1.00  0.00    -0.480 OA
ATOM     44  H   UNL     1      -6.333 -10.957 -23.692  1.00  0.00     0.296 HD
ENDBRANCH  41  43
ENDBRANCH  24  41
ENDBRANCH  23  24
ENDBRANCH   4  23
TORSDOF 13
ENDMDL
