MODEL 3
REMARK VINA RESULT:    -8.294      1.731      2.476
REMARK INTER + INTRA:         -16.768
REMARK INTER:                 -13.566
REMARK INTRA:                  -3.202
REMARK UNBOUND:                -2.655
REMARK SMILES O=C(/C=C/c1cccc(Cl)c1)Nc1ccc(C(=O)NS(=O)(=O)c2ccc(NCCSc3ccccc3)c([N+](=O)[O-])c2)cc1
REMARK SMILES IDX 20 1 21 2 22 3 19 4 17 5 18 6 16 8 13 9 14 10 43 11 15 12
REMARK SMILES IDX 42 13 12 14 1 15 2 16 3 18 4 19 5 20 6 21 11 22 7 23 9 24
REMARK SMILES IDX 8 25 10 26 23 27 24 28 41 29 25 30 37 31 26 32 38 33 39 34
REMARK SMILES IDX 40 35 27 36 28 38 29 39 30 40 31 41 32 42 36 43 33 44 35 45
REMARK SMILES IDX 34 46
REMARK H PARENT 19 7 12 17 27 37
ROOT
ATOM      1  S   UNL     1      33.955  12.226 -49.794  1.00  0.00     0.264 S 
ATOM      2  O   UNL     1      34.199  11.391 -50.948  1.00  0.00    -0.201 OA
ATOM      3  O   UNL     1      33.579  13.616 -49.954  1.00  0.00    -0.201 OA
ENDROOT
BRANCH   1   4
ATOM      4  N   UNL     1      35.301  12.254 -48.818  1.00  0.00    -0.245 N 
ATOM      5  C   UNL     1      36.166  11.170 -48.620  1.00  0.00     0.264 C 
ATOM      6  O   UNL     1      35.946  10.046 -49.041  1.00  0.00    -0.268 OA
ATOM      7  H   UNL     1      35.534  13.197 -48.530  1.00  0.00     0.183 HD
BRANCH   5   8
ATOM      8  C   UNL     1      37.393  11.460 -47.822  1.00  0.00     0.040 A 
ATOM      9  C   UNL     1      39.784  11.909 -46.388  1.00  0.00     0.041 A 
ATOM     10  C   UNL     1      39.615  10.742 -47.133  1.00  0.00     0.027 A 
ATOM     11  C   UNL     1      38.742  12.844 -46.354  1.00  0.00     0.027 A 
ATOM     12  C   UNL     1      38.428  10.517 -47.844  1.00  0.00     0.016 A 
ATOM     13  C   UNL     1      37.554  12.627 -47.066  1.00  0.00     0.016 A 
BRANCH   9  14
ATOM     14  N   UNL     1      40.944  12.208 -45.646  1.00  0.00    -0.323 N 
ATOM     15  O   UNL     1      42.509  12.709 -47.307  1.00  0.00    -0.270 OA
ATOM     16  C   UNL     1      42.186  12.542 -46.137  1.00  0.00     0.248 C 
ATOM     17  H   UNL     1      40.835  12.228 -44.638  1.00  0.00     0.170 HD
BRANCH  16  18
ATOM     18  C   UNL     1      43.197  12.800 -45.077  1.00  0.00     0.072 C 
ATOM     19  C   UNL     1      43.885  13.950 -44.995  1.00  0.00     0.014 C 
BRANCH  19  20
ATOM     20  C   UNL     1      44.887  14.259 -43.962  1.00  0.00    -0.024 A 
ATOM     21  C   UNL     1      45.427  15.554 -43.924  1.00  0.00     0.008 A 
ATOM     22  C   UNL     1      45.300  13.335 -42.992  1.00  0.00     0.028 A 
ATOM     23  C   UNL     1      46.377  15.911 -42.963  1.00  0.00     0.002 A 
ATOM     24  C   UNL     1      46.251  13.696 -42.036  1.00  0.00     0.041 A 
ATOM     25  C   UNL     1      46.794  14.977 -42.017  1.00  0.00     0.020 A 
ATOM     26  Cl  UNL     1      46.757  12.543 -40.862  1.00  0.00    -0.084 Cl
ENDBRANCH  19  20
ENDBRANCH  16  18
ENDBRANCH   9  14
ENDBRANCH   5   8
ENDBRANCH   1   4
BRANCH   1  27
ATOM     27  C   UNL     1      32.715  11.465 -48.777  1.00  0.00     0.094 A 
ATOM     28  C   UNL     1      32.359  10.137 -48.994  1.00  0.00     0.025 A 
ATOM     29  C   UNL     1      32.043  12.219 -47.820  1.00  0.00     0.110 A 
ATOM     30  C   UNL     1      31.327   9.555 -48.243  1.00  0.00     0.034 A 
ATOM     31  C   UNL     1      31.003  11.621 -47.083  1.00  0.00     0.293 A 
ATOM     32  C   UNL     1      30.586  10.286 -47.300  1.00  0.00     0.113 A 
BRANCH  31  33
ATOM     33  N   UNL     1      30.347  12.456 -46.075  1.00  0.00     0.065 N 
ATOM     34  O   UNL     1      30.151  11.947 -44.961  1.00  0.00    -0.258 OA
ATOM     35  O   UNL     1      30.050  13.621 -46.385  1.00  0.00    -0.258 OA
ENDBRANCH  31  33
BRANCH  32  36
ATOM     36  N   UNL     1      29.590   9.684 -46.518  1.00  0.00    -0.379 N 
ATOM     37  H   UNL     1      28.648   9.927 -46.861  1.00  0.00     0.160 HD
BRANCH  36  38
ATOM     38  C   UNL     1      29.630   8.267 -46.143  1.00  0.00     0.124 C 
BRANCH  38  39
ATOM     39  C   UNL     1      29.731   8.032 -44.629  1.00  0.00     0.096 C 
BRANCH  39  40
ATOM     40  S   UNL     1      31.356   7.398 -44.069  1.00  0.00    -0.124 SA
BRANCH  40  41
ATOM     41  C   UNL     1      32.543   8.586 -44.681  1.00  0.00     0.007 A 
ATOM     42  C   UNL     1      33.475   8.343 -45.695  1.00  0.00     0.015 A 
ATOM     43  C   UNL     1      32.554   9.841 -44.049  1.00  0.00     0.015 A 
ATOM     44  C   UNL     1      34.381   9.336 -46.082  1.00  0.00     0.001 A 
ATOM     45  C   UNL     1      33.470  10.829 -44.423  1.00  0.00     0.001 A 
ATOM     46  C   UNL     1      34.381  10.576 -45.444  1.00  0.00     0.000 A 
ENDBRANCH  40  41
ENDBRANCH  39  40
ENDBRANCH  38  39
ENDBRANCH  36  38
ENDBRANCH  32  36
ENDBRANCH   1  27
TORSDOF 12
ENDMDL
