MODEL 4
REMARK VINA RESULT:    -7.974      7.633     13.783
REMARK INTER + INTRA:         -16.883
REMARK INTER:                 -12.638
REMARK INTRA:                  -4.245
REMARK UNBOUND:                -2.849
REMARK SMILES Cc1cc(OCCCc2c(C(=O)NS(=O)(=O)c3ccnc(NCCC(C)C)c3)[nH]c3c(-c4c(C)nn(C)c4C)c(Cl)ccc23)cc(C)c1Cl
REMARK SMILES IDX 11 1 12 2 13 3 10 5 9 6 44 7 29 8 43 9 30 10 42 11 31 12
REMARK SMILES IDX 40 13 41 15 8 16 7 17 6 18 5 19 4 20 2 21 3 22 48 23 46 24
REMARK SMILES IDX 45 25 1 26 49 27 47 28 32 29 33 30 38 31 35 32 36 33 34 34
REMARK SMILES IDX 39 35 37 36 14 37 15 38 16 39 17 40 18 41 28 42 19 43 21 44
REMARK SMILES IDX 20 45 22 46 23 48 24 49 25 50 26 51 27 52
REMARK H PARENT 13 4 29 14 22 47
ROOT
ATOM      1  C   UNL     1      40.710  12.360 -46.196  1.00  0.00     0.281 C 
ATOM      2  O   UNL     1      40.039  12.079 -45.213  1.00  0.00    -0.266 OA
ATOM      3  N   UNL     1      40.220  13.120 -47.251  1.00  0.00    -0.244 N 
ATOM      4  H   UNL     1      40.818  13.469 -47.989  1.00  0.00     0.183 HD
ENDROOT
BRANCH   1   5
ATOM      5  C   UNL     1      42.111  12.007 -46.291  1.00  0.00     0.109 A 
ATOM      6  C   UNL     1      42.822  10.974 -46.903  1.00  0.00    -0.009 A 
ATOM      7  C   UNL     1      44.216  11.188 -46.620  1.00  0.00     0.004 A 
ATOM      8  N   UNL     1      43.041  12.784 -45.631  1.00  0.00    -0.350 N 
ATOM      9  C   UNL     1      45.401  10.501 -46.962  1.00  0.00     0.012 A 
ATOM     10  C   UNL     1      44.319  12.324 -45.825  1.00  0.00     0.056 A 
ATOM     11  C   UNL     1      46.637  10.979 -46.507  1.00  0.00     0.022 A 
ATOM     12  C   UNL     1      45.549  12.820 -45.353  1.00  0.00     0.028 A 
ATOM     13  C   UNL     1      46.713  12.125 -45.716  1.00  0.00     0.051 A 
ATOM     14  H   UNL     1      42.805  13.594 -45.070  1.00  0.00     0.167 HD
ATOM     15  Cl  UNL     1      48.280  12.639 -45.194  1.00  0.00    -0.084 Cl
BRANCH   6  16
ATOM     16  C   UNL     1      42.288   9.804 -47.673  1.00  0.00     0.042 C 
BRANCH  16  17
ATOM     17  C   UNL     1      41.390  10.234 -48.839  1.00  0.00     0.046 C 
BRANCH  17  18
ATOM     18  C   UNL     1      42.170  11.048 -49.866  1.00  0.00     0.230 C 
BRANCH  18  19
ATOM     19  O   UNL     1      41.584  12.348 -49.916  1.00  0.00    -0.494 OA
BRANCH  19  20
ATOM     20  C   UNL     1      42.436  13.419 -49.918  1.00  0.00     0.119 A 
ATOM     21  C   UNL     1      43.062  15.758 -50.162  1.00  0.00    -0.029 A 
ATOM     22  C   UNL     1      42.096  14.736 -50.216  1.00  0.00     0.051 A 
ATOM     23  C   UNL     1      44.388  15.434 -49.815  1.00  0.00     0.047 A 
ATOM     24  C   UNL     1      44.748  14.104 -49.536  1.00  0.00    -0.029 A 
ATOM     25  C   UNL     1      43.757  13.113 -49.587  1.00  0.00     0.051 A 
ATOM     26  C   UNL     1      42.649  17.170 -50.482  1.00  0.00     0.046 C 
ATOM     27  Cl  UNL     1      45.587  16.686 -49.732  1.00  0.00    -0.084 Cl
ATOM     28  C   UNL     1      46.150  13.711 -49.157  1.00  0.00     0.046 C 
ENDBRANCH  19  20
ENDBRANCH  18  19
ENDBRANCH  17  18
ENDBRANCH  16  17
ENDBRANCH   6  16
BRANCH  12  29
ATOM     29  C   UNL     1      45.535  14.020 -44.547  1.00  0.00     0.029 A 
ATOM     30  C   UNL     1      45.383  15.376 -44.932  1.00  0.00     0.068 A 
ATOM     31  C   UNL     1      45.647  14.043 -43.167  1.00  0.00     0.043 A 
ATOM     32  N   UNL     1      45.380  16.189 -43.869  1.00  0.00    -0.178 NA
ATOM     33  N   UNL     1      45.558  15.368 -42.820  1.00  0.00    -0.272 N 
ATOM     34  C   UNL     1      45.224  15.944 -46.293  1.00  0.00     0.069 C 
ATOM     35  C   UNL     1      45.841  12.960 -42.168  1.00  0.00     0.067 C 
ATOM     36  C   UNL     1      45.634  15.931 -41.493  1.00  0.00     0.174 C 
ENDBRANCH  12  29
ENDBRANCH   1   5
BRANCH   3  37
ATOM     37  S   UNL     1      38.668  13.696 -47.343  1.00  0.00     0.264 S 
ATOM     38  O   UNL     1      38.622  14.764 -48.317  1.00  0.00    -0.201 OA
ATOM     39  O   UNL     1      38.247  13.923 -45.977  1.00  0.00    -0.201 OA
BRANCH  37  40
ATOM     40  C   UNL     1      37.745  12.315 -47.939  1.00  0.00     0.093 A 
ATOM     41  C   UNL     1      37.913  11.891 -49.251  1.00  0.00     0.042 A 
ATOM     42  C   UNL     1      36.884  11.638 -47.079  1.00  0.00     0.069 A 
ATOM     43  C   UNL     1      37.171  10.801 -49.651  1.00  0.00     0.115 A 
ATOM     44  C   UNL     1      36.156  10.564 -47.573  1.00  0.00     0.127 A 
ATOM     45  N   UNL     1      36.304  10.147 -48.847  1.00  0.00    -0.239 NA
BRANCH  44  46
ATOM     46  N   UNL     1      35.295   9.895 -46.689  1.00  0.00    -0.370 N 
ATOM     47  H   UNL     1      35.859   9.427 -45.984  1.00  0.00     0.162 HD
BRANCH  46  48
ATOM     48  C   UNL     1      34.235  10.699 -46.084  1.00  0.00     0.114 C 
BRANCH  48  49
ATOM     49  C   UNL     1      32.968   9.865 -45.866  1.00  0.00     0.024 C 
BRANCH  49  50
ATOM     50  C   UNL     1      32.752   9.454 -44.397  1.00  0.00    -0.016 C 
ATOM     51  C   UNL     1      31.652  10.315 -43.772  1.00  0.00     0.007 C 
ATOM     52  C   UNL     1      32.391   7.974 -44.250  1.00  0.00     0.007 C 
ENDBRANCH  49  50
ENDBRANCH  48  49
ENDBRANCH  46  48
ENDBRANCH  44  46
ENDBRANCH  37  40
ENDBRANCH   3  37
TORSDOF 13
ENDMDL
