REMARK VINA RESULT:    -8.075      4.787      8.394
REMARK INTER + INTRA:          -9.674
REMARK INTER:                  -8.940
REMARK INTRA:                  -0.734
REMARK UNBOUND:                -0.655
REMARK SMILES Cc1cc(N2CC[C@H]3CCN(c4ncnc5[nH]ccc45)C[C@@]3(C)C2)ncc1Br
REMARK SMILES IDX 5 1 6 2 7 3 8 4 9 5 10 6 11 7 21 8 22 9 23 10 24 11 4 12
REMARK SMILES IDX 2 13 3 14 27 15 26 16 25 17 1 18 28 19 12 20 13 21 20 22
REMARK SMILES IDX 14 23 19 24 16 25 15 26 18 27 17 28
REMARK H PARENT 17 29
ROOT
ATOM      1  N   UNL     1       6.001 -22.183  21.905  1.00  0.00    -0.356 N 
ATOM      2  C   UNL     1       5.045 -21.300  22.568  1.00  0.00     0.118 C 
ATOM      3  C   UNL     1       5.607 -19.884  22.612  1.00  0.00     0.026 C 
ATOM      4  C   UNL     1       5.989 -19.375  21.209  1.00  0.00     0.002 C 
ATOM      5  C   UNL     1       6.608 -17.969  21.297  1.00  0.00     0.026 C 
ATOM      6  C   UNL     1       8.031 -17.975  21.857  1.00  0.00     0.118 C 
ATOM      7  N   UNL     1       8.853 -18.948  21.142  1.00  0.00    -0.355 N 
ATOM      8  C   UNL     1       8.351 -20.328  21.095  1.00  0.00     0.127 C 
ATOM      9  C   UNL     1       6.933 -20.365  20.470  1.00  0.00     0.006 C 
ATOM     10  C   UNL     1       7.036 -19.992  18.971  1.00  0.00     0.015 C 
ATOM     11  C   UNL     1       6.379 -21.811  20.539  1.00  0.00     0.126 C 
ENDROOT
BRANCH   1  12
ATOM     12  C   UNL     1       5.853 -23.552  22.133  1.00  0.00     0.128 A 
ATOM     13  C   UNL     1       4.557 -25.608  21.892  1.00  0.00    -0.032 A 
ATOM     14  C   UNL     1       4.723 -24.232  21.664  1.00  0.00     0.051 A 
ATOM     15  C   UNL     1       5.550 -26.272  22.609  1.00  0.00     0.039 A 
ATOM     16  C   UNL     1       6.634 -25.534  23.058  1.00  0.00     0.129 A 
ATOM     17  N   UNL     1       6.799 -24.208  22.840  1.00  0.00    -0.238 NA
ATOM     18  C   UNL     1       3.328 -26.299  21.377  1.00  0.00     0.046 C 
ATOM     19  Br  UNL     1       5.475 -28.121  23.003  1.00  0.00    -0.049 Br
ENDBRANCH   1  12
BRANCH   7  20
ATOM     20  C   UNL     1      10.231 -18.818  21.323  1.00  0.00     0.141 A 
ATOM     21  N   UNL     1      10.984 -18.232  20.352  1.00  0.00    -0.219 NA
ATOM     22  C   UNL     1      10.907 -19.237  22.491  1.00  0.00     0.061 A 
ATOM     23  C   UNL     1      12.314 -18.118  20.524  1.00  0.00     0.226 A 
ATOM     24  C   UNL     1      10.550 -19.807  23.750  1.00  0.00     0.033 A 
ATOM     25  C   UNL     1      12.281 -19.051  22.528  1.00  0.00     0.142 A 
ATOM     26  N   UNL     1      13.052 -18.509  21.574  1.00  0.00    -0.218 NA
ATOM     27  C   UNL     1      11.705 -19.976  24.485  1.00  0.00     0.085 A 
ATOM     28  N   UNL     1      12.749 -19.514  23.726  1.00  0.00    -0.346 N 
ATOM     29  H   UNL     1      13.722 -19.491  23.994  1.00  0.00     0.167 HD
ENDBRANCH   7  20
TORSDOF 2
