REMARK SMILES CN1C[C@@](C)(COc2ccc(C(=N)N)cc2)Oc2cc(N(Cc3ccc(F)cc3)C(=O)C(=O)O)ccc21
REMARK SMILES IDX 1 1 2 2 3 3 4 4 5 5 17 6 18 7 19 8 20 9 35 10 36 11 37 12
REMARK SMILES IDX 6 13 7 14 8 15 9 16 16 17 10 18 15 19 11 20 12 21 13 22
REMARK SMILES IDX 14 23 21 27 22 28 23 29 24 30 29 31 25 32 28 33 26 34 27 35
REMARK SMILES IDX 30 36 31 37 32 38 33 39 34 40
REMARK H PARENT 13 24 14 25 14 26 34 41
REMARK INDEX MAP 1 1 2 2 3 3 4 4 5 5 17 6 18 7 19 8 20 9 35 10 36 11 37 12
REMARK INDEX MAP 6 13 7 14 8 15 9 16 16 17 10 18 15 19 11 20 12 21 13 22 14 23
REMARK INDEX MAP 50 24 51 25 52 26 21 27 22 28 23 29 24 30 29 31 25 32 28 33
REMARK INDEX MAP 26 34 27 35 30 36 31 37 32 38 33 39 34 40 62 41
ROOT
ATOM      1  C   UNL     1      -1.793  13.533  18.623  1.00  0.00     0.144 C 
ATOM      2  N   UNL     1      -2.076  12.780  19.831  1.00  0.00    -0.367 N 
ATOM      3  C   UNL     1      -1.186  12.933  20.980  1.00  0.00     0.168 C 
ATOM      4  C   UNL     1      -1.297  11.725  21.934  1.00  0.00     0.157 C 
ATOM      5  C   UNL     1      -0.746  10.436  21.294  1.00  0.00     0.062 C 
ATOM      6  O   UNL     1      -2.661  11.504  22.354  1.00  0.00    -0.480 OA
ATOM      7  C   UNL     1      -3.600  11.648  21.354  1.00  0.00     0.145 A 
ATOM      8  C   UNL     1      -4.870  11.138  21.674  1.00  0.00     0.075 A 
ATOM      9  C   UNL     1      -5.925  11.181  20.756  1.00  0.00     0.048 A 
ATOM     10  C   UNL     1      -5.650  11.751  19.508  1.00  0.00     0.029 A 
ATOM     11  C   UNL     1      -4.384  12.276  19.197  1.00  0.00     0.032 A 
ATOM     12  C   UNL     1      -3.331  12.254  20.114  1.00  0.00     0.079 A 
ENDROOT
BRANCH   4  13
ATOM     13  C   UNL     1      -0.508  12.034  23.227  1.00  0.00     0.279 C 
BRANCH  13  14
ATOM     14  O   UNL     1       0.023  10.832  23.787  1.00  0.00    -0.489 OA
BRANCH  14  15
ATOM     15  C   UNL     1      -0.641  10.292  24.854  1.00  0.00     0.119 A 
ATOM     16  C   UNL     1      -1.765  10.832  25.479  1.00  0.00     0.047 A 
ATOM     17  C   UNL     1      -0.095   9.098  25.332  1.00  0.00     0.047 A 
ATOM     18  C   UNL     1      -2.343  10.175  26.573  1.00  0.00     0.016 A 
ATOM     19  C   UNL     1      -0.670   8.435  26.420  1.00  0.00     0.016 A 
ATOM     20  C   UNL     1      -1.798   8.975  27.040  1.00  0.00     0.016 A 
BRANCH  20  21
ATOM     21  C   UNL     1      -2.415   8.280  28.199  1.00  0.00     0.122 C 
ATOM     22  N   UNL     1      -1.825   7.305  28.813  1.00  0.00    -0.284 NA
ATOM     23  N   UNL     1      -3.634   8.657  28.655  1.00  0.00    -0.384 N 
ATOM     24  H   UNL     1      -2.284   6.847  29.613  1.00  0.00     0.189 HD
ATOM     25  H   UNL     1      -4.056   8.171  29.459  1.00  0.00     0.158 HD
ATOM     26  H   UNL     1      -4.139   9.430  28.198  1.00  0.00     0.158 HD
ENDBRANCH  20  21
ENDBRANCH  14  15
ENDBRANCH  13  14
ENDBRANCH   4  13
BRANCH   9  27
ATOM     27  N   UNL     1      -7.242  10.690  21.077  1.00  0.00    -0.298 N 
BRANCH  27  28
ATOM     28  C   UNL     1      -7.528   9.252  20.951  1.00  0.00     0.161 C 
BRANCH  28  29
ATOM     29  C   UNL     1      -6.817   8.587  19.786  1.00  0.00    -0.028 A 
ATOM     30  C   UNL     1      -5.547   8.007  19.932  1.00  0.00     0.008 A 
ATOM     31  C   UNL     1      -7.412   8.602  18.512  1.00  0.00     0.008 A 
ATOM     32  C   UNL     1      -4.901   7.429  18.839  1.00  0.00     0.039 A 
ATOM     33  C   UNL     1      -6.762   8.029  17.419  1.00  0.00     0.039 A 
ATOM     34  C   UNL     1      -5.514   7.446  17.592  1.00  0.00     0.123 A 
ATOM     35  F   UNL     1      -4.889   6.899  16.542  1.00  0.00    -0.207 F 
ENDBRANCH  28  29
ENDBRANCH  27  28
BRANCH  27  36
ATOM     36  C   UNL     1      -8.259  11.575  21.498  1.00  0.00     0.336 C 
ATOM     37  O   UNL     1      -8.950  12.300  20.785  1.00  0.00    -0.261 OA
BRANCH  36  38
ATOM     38  C   UNL     1      -8.545  11.642  23.008  1.00  0.00     0.394 C 
ATOM     39  O   UNL     1      -9.641  11.517  23.519  1.00  0.00    -0.241 OA
BRANCH  38  40
ATOM     40  O   UNL     1      -7.429  11.840  23.720  1.00  0.00    -0.474 OA
ATOM     41  H   UNL     1      -7.476  11.902  24.707  1.00  0.00     0.297 HD
ENDBRANCH  38  40
ENDBRANCH  36  38
ENDBRANCH  27  36
ENDBRANCH   9  27
TORSDOF 10
