MODEL 1
REMARK VINA RESULT:    -8.007      0.000      0.000
REMARK INTER + INTRA:          -9.955
REMARK INTER:                  -9.880
REMARK INTRA:                  -0.076
REMARK UNBOUND:                -0.076
REMARK SMILES COc1cc(-c2nn(C(C)C)c3ncnc(N)c23)ccc1N
REMARK SMILES IDX 6 1 7 2 8 3 12 4 13 5 14 6 15 7 16 8 18 9 5 10 3 11 4 12
REMARK SMILES IDX 21 13 20 14 19 15 2 16 1 17 22 18 9 21 10 22 11 23 17 24
REMARK H PARENT 22 19 22 20 17 25 17 26
ROOT
ATOM      1  C   UNL     1      51.454  -0.283 -48.935  1.00  0.00     0.106 A 
ATOM      2  N   UNL     1      50.667  -1.065 -48.175  1.00  0.00    -0.170 NA
ATOM      3  N   UNL     1      49.625  -1.367 -48.980  1.00  0.00    -0.244 N 
ATOM      4  C   UNL     1      49.700  -0.776 -50.212  1.00  0.00     0.164 A 
ATOM      5  N   UNL     1      48.812  -0.882 -51.216  1.00  0.00    -0.217 NA
ATOM      6  C   UNL     1      49.191  -0.160 -52.282  1.00  0.00     0.226 A 
ATOM      7  N   UNL     1      50.288   0.610 -52.412  1.00  0.00    -0.219 NA
ATOM      8  C   UNL     1      51.148   0.697 -51.374  1.00  0.00     0.138 A 
ATOM      9  C   UNL     1      50.872  -0.040 -50.214  1.00  0.00     0.089 A 
ENDROOT
BRANCH   1  10
ATOM     10  C   UNL     1      52.726   0.201 -48.411  1.00  0.00     0.007 A 
ATOM     11  C   UNL     1      54.089   0.891 -46.521  1.00  0.00     0.142 A 
ATOM     12  C   UNL     1      52.879   0.415 -47.033  1.00  0.00     0.059 A 
ATOM     13  C   UNL     1      55.173   1.135 -47.392  1.00  0.00     0.074 A 
ATOM     14  C   UNL     1      55.012   0.922 -48.763  1.00  0.00     0.030 A 
ATOM     15  C   UNL     1      53.803   0.446 -49.271  1.00  0.00     0.013 A 
BRANCH  11  16
ATOM     16  O   UNL     1      54.336   1.149 -45.192  1.00  0.00    -0.495 OA
ATOM     17  C   UNL     1      54.260   0.049 -44.296  1.00  0.00     0.278 C 
ENDBRANCH  11  16
BRANCH  13  18
ATOM     18  N   UNL     1      56.363   1.670 -46.910  1.00  0.00    -0.396 N 
ATOM     19  H   UNL     1      56.376   2.542 -46.405  1.00  0.00     0.156 HD
ATOM     20  H   UNL     1      57.214   1.341 -47.355  1.00  0.00     0.156 HD
ENDBRANCH  13  18
ENDBRANCH   1  10
BRANCH   3  21
ATOM     21  C   UNL     1      48.558  -2.238 -48.501  1.00  0.00     0.103 C 
ATOM     22  C   UNL     1      47.373  -1.430 -47.974  1.00  0.00     0.033 C 
ATOM     23  C   UNL     1      49.071  -3.222 -47.451  1.00  0.00     0.033 C 
ENDBRANCH   3  21
BRANCH   8  24
ATOM     24  N   UNL     1      52.226   1.531 -51.540  1.00  0.00    -0.383 N 
ATOM     25  H   UNL     1      52.829   1.648 -50.738  1.00  0.00     0.158 HD
ATOM     26  H   UNL     1      52.500   1.886 -52.442  1.00  0.00     0.158 HD
ENDBRANCH   8  24
TORSDOF 5
ENDMDL
MODEL 2
REMARK VINA RESULT:    -7.706      2.412      6.582
REMARK INTER + INTRA:          -9.584
REMARK INTER:                  -9.562
REMARK INTRA:                  -0.023
REMARK UNBOUND:                -0.076
REMARK SMILES COc1cc(-c2nn(C(C)C)c3ncnc(N)c23)ccc1N
REMARK SMILES IDX 6 1 7 2 8 3 12 4 13 5 14 6 15 7 16 8 18 9 5 10 3 11 4 12
REMARK SMILES IDX 21 13 20 14 19 15 2 16 1 17 22 18 9 21 10 22 11 23 17 24
REMARK H PARENT 22 19 22 20 17 25 17 26
ROOT
ATOM      1  C   UNL     1      52.894   0.333 -48.285  1.00  0.00     0.106 A 
ATOM      2  N   UNL     1      54.135   0.828 -48.447  1.00  0.00    -0.170 NA
ATOM      3  N   UNL     1      54.723   0.643 -47.245  1.00  0.00    -0.244 N 
ATOM      4  C   UNL     1      53.893   0.084 -46.312  1.00  0.00     0.164 A 
ATOM      5  N   UNL     1      54.191  -0.208 -45.034  1.00  0.00    -0.217 NA
ATOM      6  C   UNL     1      53.136  -0.737 -44.395  1.00  0.00     0.226 A 
ATOM      7  N   UNL     1      51.902  -0.965 -44.883  1.00  0.00    -0.219 NA
ATOM      8  C   UNL     1      51.642  -0.645 -46.169  1.00  0.00     0.138 A 
ATOM      9  C   UNL     1      52.678  -0.112 -46.948  1.00  0.00     0.089 A 
ENDROOT
BRANCH   1  10
ATOM     10  C   UNL     1      51.965   0.309 -49.410  1.00  0.00     0.007 A 
ATOM     11  C   UNL     1      50.072  -0.708 -50.544  1.00  0.00     0.142 A 
ATOM     12  C   UNL     1      50.960  -0.667 -49.465  1.00  0.00     0.059 A 
ATOM     13  C   UNL     1      50.171   0.255 -51.572  1.00  0.00     0.074 A 
ATOM     14  C   UNL     1      51.178   1.223 -51.510  1.00  0.00     0.030 A 
ATOM     15  C   UNL     1      52.061   1.261 -50.431  1.00  0.00     0.013 A 
BRANCH  11  16
ATOM     16  O   UNL     1      49.064  -1.631 -50.703  1.00  0.00    -0.495 OA
ATOM     17  C   UNL     1      48.050  -1.656 -49.708  1.00  0.00     0.278 C 
ENDBRANCH  11  16
BRANCH  13  18
ATOM     18  N   UNL     1      49.340   0.192 -52.685  1.00  0.00    -0.396 N 
ATOM     19  H   UNL     1      48.747  -0.606 -52.850  1.00  0.00     0.156 HD
ATOM     20  H   UNL     1      49.587   0.795 -53.464  1.00  0.00     0.156 HD
ENDBRANCH  13  18
ENDBRANCH   1  10
BRANCH   3  21
ATOM     21  C   UNL     1      56.112   1.039 -47.041  1.00  0.00     0.103 C 
ATOM     22  C   UNL     1      56.215   2.489 -46.570  1.00  0.00     0.033 C 
ATOM     23  C   UNL     1      56.948   0.802 -48.299  1.00  0.00     0.033 C 
ENDBRANCH   3  21
BRANCH   8  24
ATOM     24  N   UNL     1      50.356  -0.853 -46.605  1.00  0.00    -0.383 N 
ATOM     25  H   UNL     1      49.755  -1.383 -45.990  1.00  0.00     0.158 HD
ATOM     26  H   UNL     1      49.977  -0.380 -47.409  1.00  0.00     0.158 HD
ENDBRANCH   8  24
TORSDOF 5
ENDMDL
MODEL 3
REMARK VINA RESULT:    -7.615      2.928      6.718
REMARK INTER + INTRA:          -9.472
REMARK INTER:                  -9.506
REMARK INTRA:                   0.034
REMARK UNBOUND:                -0.076
REMARK SMILES COc1cc(-c2nn(C(C)C)c3ncnc(N)c23)ccc1N
REMARK SMILES IDX 6 1 7 2 8 3 12 4 13 5 14 6 15 7 16 8 18 9 5 10 3 11 4 12
REMARK SMILES IDX 21 13 20 14 19 15 2 16 1 17 22 18 9 21 10 22 11 23 17 24
REMARK H PARENT 22 19 22 20 17 25 17 26
ROOT
ATOM      1  C   UNL     1      53.821  -0.169 -45.256  1.00  0.00     0.106 A 
ATOM      2  N   UNL     1      53.059  -1.141 -44.723  1.00  0.00    -0.170 NA
ATOM      3  N   UNL     1      53.342  -1.096 -43.403  1.00  0.00    -0.244 N 
ATOM      4  C   UNL     1      54.282  -0.156 -43.079  1.00  0.00     0.164 A 
ATOM      5  N   UNL     1      54.769   0.114 -41.855  1.00  0.00    -0.217 NA
ATOM      6  C   UNL     1      55.690   1.089 -41.900  1.00  0.00     0.226 A 
ATOM      7  N   UNL     1      56.141   1.753 -42.982  1.00  0.00    -0.219 NA
ATOM      8  C   UNL     1      55.632   1.442 -44.193  1.00  0.00     0.138 A 
ATOM      9  C   UNL     1      54.638   0.457 -44.268  1.00  0.00     0.089 A 
ENDROOT
BRANCH   1  10
ATOM     10  C   UNL     1      53.741   0.122 -46.683  1.00  0.00     0.007 A 
ATOM     11  C   UNL     1      52.434   0.242 -48.729  1.00  0.00     0.142 A 
ATOM     12  C   UNL     1      52.520  -0.022 -47.358  1.00  0.00     0.059 A 
ATOM     13  C   UNL     1      53.577   0.680 -49.432  1.00  0.00     0.074 A 
ATOM     14  C   UNL     1      54.790   0.818 -48.752  1.00  0.00     0.030 A 
ATOM     15  C   UNL     1      54.871   0.555 -47.385  1.00  0.00     0.013 A 
BRANCH  11  16
ATOM     16  O   UNL     1      51.293   0.115 -49.486  1.00  0.00    -0.495 OA
ATOM     17  C   UNL     1      50.459  -1.003 -49.216  1.00  0.00     0.278 C 
ENDBRANCH  11  16
BRANCH  13  18
ATOM     18  N   UNL     1      53.528   0.884 -50.807  1.00  0.00    -0.396 N 
ATOM     19  H   UNL     1      52.677   0.736 -51.327  1.00  0.00     0.156 HD
ATOM     20  H   UNL     1      54.418   0.863 -51.295  1.00  0.00     0.156 HD
ENDBRANCH  13  18
ENDBRANCH   1  10
BRANCH   3  21
ATOM     21  C   UNL     1      52.671  -2.003 -42.479  1.00  0.00     0.103 C 
ATOM     22  C   UNL     1      52.058  -3.194 -43.214  1.00  0.00     0.033 C 
ATOM     23  C   UNL     1      51.626  -1.270 -41.639  1.00  0.00     0.033 C 
ENDBRANCH   3  21
BRANCH   8  24
ATOM     24  N   UNL     1      56.158   2.114 -45.270  1.00  0.00    -0.383 N 
ATOM     25  H   UNL     1      55.619   2.083 -46.124  1.00  0.00     0.158 HD
ATOM     26  H   UNL     1      56.947   2.734 -45.185  1.00  0.00     0.158 HD
ENDBRANCH   8  24
TORSDOF 5
ENDMDL
MODEL 4
REMARK VINA RESULT:    -7.349      4.244      8.580
REMARK INTER + INTRA:          -9.144
REMARK INTER:                  -9.479
REMARK INTRA:                   0.336
REMARK UNBOUND:                -0.076
REMARK SMILES COc1cc(-c2nn(C(C)C)c3ncnc(N)c23)ccc1N
REMARK SMILES IDX 6 1 7 2 8 3 12 4 13 5 14 6 15 7 16 8 18 9 5 10 3 11 4 12
REMARK SMILES IDX 21 13 20 14 19 15 2 16 1 17 22 18 9 21 10 22 11 23 17 24
REMARK H PARENT 22 19 22 20 17 25 17 26
ROOT
ATOM      1  C   UNL     1      55.282   0.864 -43.542  1.00  0.00     0.106 A 
ATOM      2  N   UNL     1      56.248   1.651 -43.035  1.00  0.00    -0.170 NA
ATOM      3  N   UNL     1      56.247   1.364 -41.714  1.00  0.00    -0.244 N 
ATOM      4  C   UNL     1      55.293   0.452 -41.356  1.00  0.00     0.164 A 
ATOM      5  N   UNL     1      55.046  -0.019 -40.120  1.00  0.00    -0.217 NA
ATOM      6  C   UNL     1      54.028  -0.894 -40.125  1.00  0.00     0.226 A 
ATOM      7  N   UNL     1      53.285  -1.293 -41.175  1.00  0.00    -0.219 NA
ATOM      8  C   UNL     1      53.560  -0.786 -42.395  1.00  0.00     0.138 A 
ATOM      9  C   UNL     1      54.624   0.117 -42.521  1.00  0.00     0.089 A 
ENDROOT
BRANCH   1  10
ATOM     10  C   UNL     1      55.025   0.858 -44.978  1.00  0.00     0.007 A 
ATOM     11  C   UNL     1      55.604   1.610 -47.215  1.00  0.00     0.142 A 
ATOM     12  C   UNL     1      55.849   1.598 -45.839  1.00  0.00     0.059 A 
ATOM     13  C   UNL     1      54.537   0.854 -47.745  1.00  0.00     0.074 A 
ATOM     14  C   UNL     1      53.718   0.122 -46.880  1.00  0.00     0.030 A 
ATOM     15  C   UNL     1      53.966   0.112 -45.507  1.00  0.00     0.013 A 
BRANCH  11  16
ATOM     16  O   UNL     1      56.340   2.313 -48.141  1.00  0.00    -0.495 OA
ATOM     17  C   UNL     1      57.752   2.158 -48.095  1.00  0.00     0.278 C 
ENDBRANCH  11  16
BRANCH  13  18
ATOM     18  N   UNL     1      54.237   0.905 -49.103  1.00  0.00    -0.396 N 
ATOM     19  H   UNL     1      54.115   0.062 -49.642  1.00  0.00     0.156 HD
ATOM     20  H   UNL     1      54.465   1.771 -49.580  1.00  0.00     0.156 HD
ENDBRANCH  13  18
ENDBRANCH   1  10
BRANCH   3  21
ATOM     21  C   UNL     1      57.199   2.017 -40.823  1.00  0.00     0.103 C 
ATOM     22  C   UNL     1      57.580   3.405 -41.334  1.00  0.00     0.033 C 
ATOM     23  C   UNL     1      58.436   1.148 -40.598  1.00  0.00     0.033 C 
ENDBRANCH   3  21
BRANCH   8  24
ATOM     24  N   UNL     1      52.743  -1.189 -43.425  1.00  0.00    -0.383 N 
ATOM     25  H   UNL     1      52.783  -2.168 -43.671  1.00  0.00     0.158 HD
ATOM     26  H   UNL     1      52.031  -0.592 -43.813  1.00  0.00     0.158 HD
ENDBRANCH   8  24
TORSDOF 5
ENDMDL
MODEL 5
REMARK VINA RESULT:    -7.237      1.752      4.014
REMARK INTER + INTRA:          -9.004
REMARK INTER:                  -9.186
REMARK INTRA:                   0.181
REMARK UNBOUND:                -0.076
REMARK SMILES COc1cc(-c2nn(C(C)C)c3ncnc(N)c23)ccc1N
REMARK SMILES IDX 6 1 7 2 8 3 12 4 13 5 14 6 15 7 16 8 18 9 5 10 3 11 4 12
REMARK SMILES IDX 21 13 20 14 19 15 2 16 1 17 22 18 9 21 10 22 11 23 17 24
REMARK H PARENT 22 19 22 20 17 25 17 26
ROOT
ATOM      1  C   UNL     1      52.241  -0.195 -47.705  1.00  0.00     0.106 A 
ATOM      2  N   UNL     1      52.479   0.004 -49.013  1.00  0.00    -0.170 NA
ATOM      3  N   UNL     1      51.344  -0.404 -49.621  1.00  0.00    -0.244 N 
ATOM      4  C   UNL     1      50.406  -0.891 -48.753  1.00  0.00     0.164 A 
ATOM      5  N   UNL     1      49.190  -1.376 -49.062  1.00  0.00    -0.217 NA
ATOM      6  C   UNL     1      48.532  -1.782 -47.965  1.00  0.00     0.226 A 
ATOM      7  N   UNL     1      48.960  -1.760 -46.688  1.00  0.00    -0.219 NA
ATOM      8  C   UNL     1      50.193  -1.276 -46.424  1.00  0.00     0.138 A 
ATOM      9  C   UNL     1      50.964  -0.793 -47.489  1.00  0.00     0.089 A 
ENDROOT
BRANCH   1  10
ATOM     10  C   UNL     1      53.240   0.189 -46.714  1.00  0.00     0.007 A 
ATOM     11  C   UNL     1      55.180   1.518 -46.098  1.00  0.00     0.142 A 
ATOM     12  C   UNL     1      54.209   1.151 -47.035  1.00  0.00     0.059 A 
ATOM     13  C   UNL     1      55.170   0.935 -44.812  1.00  0.00     0.074 A 
ATOM     14  C   UNL     1      54.203  -0.025 -44.501  1.00  0.00     0.030 A 
ATOM     15  C   UNL     1      53.235  -0.387 -45.439  1.00  0.00     0.013 A 
BRANCH  11  16
ATOM     16  O   UNL     1      56.181   2.436 -46.317  1.00  0.00    -0.495 OA
ATOM     17  C   UNL     1      56.689   2.533 -47.641  1.00  0.00     0.278 C 
ENDBRANCH  11  16
BRANCH  13  18
ATOM     18  N   UNL     1      56.165   1.238 -43.889  1.00  0.00    -0.396 N 
ATOM     19  H   UNL     1      56.578   0.521 -43.312  1.00  0.00     0.156 HD
ATOM     20  H   UNL     1      56.221   2.207 -43.592  1.00  0.00     0.156 HD
ENDBRANCH  13  18
ENDBRANCH   1  10
BRANCH   3  21
ATOM     21  C   UNL     1      51.215  -0.311 -51.071  1.00  0.00     0.103 C 
ATOM     22  C   UNL     1      52.570  -0.458 -51.762  1.00  0.00     0.033 C 
ATOM     23  C   UNL     1      50.518   0.985 -51.485  1.00  0.00     0.033 C 
ENDBRANCH   3  21
BRANCH   8  24
ATOM     24  N   UNL     1      50.600  -1.319 -45.113  1.00  0.00    -0.383 N 
ATOM     25  H   UNL     1      49.886  -1.164 -44.416  1.00  0.00     0.158 HD
ATOM     26  H   UNL     1      51.516  -1.641 -44.843  1.00  0.00     0.158 HD
ENDBRANCH   8  24
TORSDOF 5
ENDMDL
MODEL 6
REMARK VINA RESULT:    -7.114      3.510      5.748
REMARK INTER + INTRA:          -8.853
REMARK INTER:                  -8.159
REMARK INTRA:                  -0.694
REMARK UNBOUND:                -0.076
REMARK SMILES COc1cc(-c2nn(C(C)C)c3ncnc(N)c23)ccc1N
REMARK SMILES IDX 6 1 7 2 8 3 12 4 13 5 14 6 15 7 16 8 18 9 5 10 3 11 4 12
REMARK SMILES IDX 21 13 20 14 19 15 2 16 1 17 22 18 9 21 10 22 11 23 17 24
REMARK H PARENT 22 19 22 20 17 25 17 26
ROOT
ATOM      1  C   UNL     1      48.658  -1.147 -49.147  1.00  0.00     0.106 A 
ATOM      2  N   UNL     1      49.753  -0.450 -49.500  1.00  0.00    -0.170 NA
ATOM      3  N   UNL     1      49.764  -0.512 -50.849  1.00  0.00    -0.244 N 
ATOM      4  C   UNL     1      48.737  -1.254 -51.368  1.00  0.00     0.164 A 
ATOM      5  N   UNL     1      48.493  -1.501 -52.667  1.00  0.00    -0.217 NA
ATOM      6  C   UNL     1      47.409  -2.277 -52.821  1.00  0.00     0.226 A 
ATOM      7  N   UNL     1      46.621  -2.798 -51.861  1.00  0.00    -0.219 NA
ATOM      8  C   UNL     1      46.910  -2.533 -50.569  1.00  0.00     0.138 A 
ATOM      9  C   UNL     1      48.004  -1.706 -50.284  1.00  0.00     0.089 A 
ENDROOT
BRANCH   1  10
ATOM     10  C   UNL     1      48.283  -1.253 -47.741  1.00  0.00     0.007 A 
ATOM     11  C   UNL     1      48.680  -2.176 -45.528  1.00  0.00     0.142 A 
ATOM     12  C   UNL     1      49.038  -2.057 -46.875  1.00  0.00     0.059 A 
ATOM     13  C   UNL     1      47.566  -1.465 -45.032  1.00  0.00     0.074 A 
ATOM     14  C   UNL     1      46.817  -0.670 -45.903  1.00  0.00     0.030 A 
ATOM     15  C   UNL     1      47.178  -0.552 -47.246  1.00  0.00     0.013 A 
BRANCH  11  16
ATOM     16  O   UNL     1      49.342  -2.948 -44.602  1.00  0.00    -0.495 OA
ATOM     17  C   UNL     1      49.374  -4.350 -44.835  1.00  0.00     0.278 C 
ENDBRANCH  11  16
BRANCH  13  18
ATOM     18  N   UNL     1      47.155  -1.622 -43.713  1.00  0.00    -0.396 N 
ATOM     19  H   UNL     1      47.767  -1.395 -42.945  1.00  0.00     0.156 HD
ATOM     20  H   UNL     1      46.379  -2.259 -43.558  1.00  0.00     0.156 HD
ENDBRANCH  13  18
ENDBRANCH   1  10
BRANCH   3  21
ATOM     21  C   UNL     1      50.810   0.166 -51.606  1.00  0.00     0.103 C 
ATOM     22  C   UNL     1      52.201  -0.290 -51.167  1.00  0.00     0.033 C 
ATOM     23  C   UNL     1      50.668   1.685 -51.512  1.00  0.00     0.033 C 
ENDBRANCH   3  21
BRANCH   8  24
ATOM     24  N   UNL     1      46.104  -3.126 -49.627  1.00  0.00    -0.383 N 
ATOM     25  H   UNL     1      45.275  -2.614 -49.361  1.00  0.00     0.158 HD
ATOM     26  H   UNL     1      46.235  -4.079 -49.329  1.00  0.00     0.158 HD
ENDBRANCH   8  24
TORSDOF 5
ENDMDL
MODEL 7
REMARK VINA RESULT:    -7.085      4.170      7.877
REMARK INTER + INTRA:          -8.818
REMARK INTER:                  -8.439
REMARK INTRA:                  -0.379
REMARK UNBOUND:                -0.076
REMARK SMILES COc1cc(-c2nn(C(C)C)c3ncnc(N)c23)ccc1N
REMARK SMILES IDX 6 1 7 2 8 3 12 4 13 5 14 6 15 7 16 8 18 9 5 10 3 11 4 12
REMARK SMILES IDX 21 13 20 14 19 15 2 16 1 17 22 18 9 21 10 22 11 23 17 24
REMARK H PARENT 22 19 22 20 17 25 17 26
ROOT
ATOM      1  C   UNL     1      53.118  -0.803 -44.454  1.00  0.00     0.106 A 
ATOM      2  N   UNL     1      53.112  -0.433 -45.747  1.00  0.00    -0.170 NA
ATOM      3  N   UNL     1      54.110   0.474 -45.835  1.00  0.00    -0.244 N 
ATOM      4  C   UNL     1      54.726   0.723 -44.639  1.00  0.00     0.164 A 
ATOM      5  N   UNL     1      55.739   1.578 -44.412  1.00  0.00    -0.217 NA
ATOM      6  C   UNL     1      56.092   1.584 -43.118  1.00  0.00     0.226 A 
ATOM      7  N   UNL     1      55.551   0.876 -42.108  1.00  0.00    -0.219 NA
ATOM      8  C   UNL     1      54.528   0.038 -42.379  1.00  0.00     0.138 A 
ATOM      9  C   UNL     1      54.089  -0.077 -43.705  1.00  0.00     0.089 A 
ENDROOT
BRANCH   1  10
ATOM     10  C   UNL     1      52.195  -1.831 -43.986  1.00  0.00     0.007 A 
ATOM     11  C   UNL     1      49.933  -2.708 -43.836  1.00  0.00     0.142 A 
ATOM     12  C   UNL     1      50.829  -1.736 -44.289  1.00  0.00     0.059 A 
ATOM     13  C   UNL     1      50.409  -3.807 -43.088  1.00  0.00     0.074 A 
ATOM     14  C   UNL     1      51.771  -3.893 -42.787  1.00  0.00     0.030 A 
ATOM     15  C   UNL     1      52.662  -2.921 -43.243  1.00  0.00     0.013 A 
BRANCH  11  16
ATOM     16  O   UNL     1      48.576  -2.699 -44.063  1.00  0.00    -0.495 OA
ATOM     17  C   UNL     1      47.841  -1.605 -43.534  1.00  0.00     0.278 C 
ENDBRANCH  11  16
BRANCH  13  18
ATOM     18  N   UNL     1      49.526  -4.749 -42.571  1.00  0.00    -0.396 N 
ATOM     19  H   UNL     1      49.628  -5.730 -42.781  1.00  0.00     0.156 HD
ATOM     20  H   UNL     1      48.624  -4.398 -42.266  1.00  0.00     0.156 HD
ENDBRANCH  13  18
ENDBRANCH   1  10
BRANCH   3  21
ATOM     21  C   UNL     1      54.429   1.090 -47.118  1.00  0.00     0.103 C 
ATOM     22  C   UNL     1      53.343   0.812 -48.156  1.00  0.00     0.033 C 
ATOM     23  C   UNL     1      55.804   0.648 -47.620  1.00  0.00     0.033 C 
ENDBRANCH   3  21
BRANCH   8  24
ATOM     24  N   UNL     1      53.979  -0.626 -41.308  1.00  0.00    -0.383 N 
ATOM     25  H   UNL     1      54.212  -1.605 -41.222  1.00  0.00     0.158 HD
ATOM     26  H   UNL     1      53.504  -0.145 -40.562  1.00  0.00     0.158 HD
ENDBRANCH   8  24
TORSDOF 5
ENDMDL
MODEL 8
REMARK VINA RESULT:    -6.830      4.055      6.438
REMARK INTER + INTRA:          -8.502
REMARK INTER:                  -7.981
REMARK INTRA:                  -0.521
REMARK UNBOUND:                -0.076
REMARK SMILES COc1cc(-c2nn(C(C)C)c3ncnc(N)c23)ccc1N
REMARK SMILES IDX 6 1 7 2 8 3 12 4 13 5 14 6 15 7 16 8 18 9 5 10 3 11 4 12
REMARK SMILES IDX 21 13 20 14 19 15 2 16 1 17 22 18 9 21 10 22 11 23 17 24
REMARK H PARENT 22 19 22 20 17 25 17 26
ROOT
ATOM      1  C   UNL     1      51.504  -1.860 -43.935  1.00  0.00     0.106 A 
ATOM      2  N   UNL     1      50.478  -1.425 -44.688  1.00  0.00    -0.170 NA
ATOM      3  N   UNL     1      49.519  -2.360 -44.511  1.00  0.00    -0.244 N 
ATOM      4  C   UNL     1      49.908  -3.393 -43.703  1.00  0.00     0.164 A 
ATOM      5  N   UNL     1      49.178  -4.467 -43.353  1.00  0.00    -0.217 NA
ATOM      6  C   UNL     1      49.875  -5.293 -42.558  1.00  0.00     0.226 A 
ATOM      7  N   UNL     1      51.145  -5.155 -42.130  1.00  0.00    -0.219 NA
ATOM      8  C   UNL     1      51.845  -4.067 -42.515  1.00  0.00     0.138 A 
ATOM      9  C   UNL     1      51.211  -3.115 -43.324  1.00  0.00     0.089 A 
ENDROOT
BRANCH   1  10
ATOM     10  C   UNL     1      52.722  -1.064 -43.832  1.00  0.00     0.007 A 
ATOM     11  C   UNL     1      54.554   0.117 -44.908  1.00  0.00     0.142 A 
ATOM     12  C   UNL     1      53.379  -0.636 -44.994  1.00  0.00     0.059 A 
ATOM     13  C   UNL     1      55.069   0.469 -43.642  1.00  0.00     0.074 A 
ATOM     14  C   UNL     1      54.411   0.036 -42.488  1.00  0.00     0.030 A 
ATOM     15  C   UNL     1      53.238  -0.714 -42.579  1.00  0.00     0.013 A 
BRANCH  11  16
ATOM     16  O   UNL     1      55.281   0.571 -45.983  1.00  0.00    -0.495 OA
ATOM     17  C   UNL     1      54.558   0.883 -47.166  1.00  0.00     0.278 C 
ENDBRANCH  11  16
BRANCH  13  18
ATOM     18  N   UNL     1      56.271   1.161 -43.534  1.00  0.00    -0.396 N 
ATOM     19  H   UNL     1      56.845   1.085 -42.707  1.00  0.00     0.156 HD
ATOM     20  H   UNL     1      56.382   1.966 -44.142  1.00  0.00     0.156 HD
ENDBRANCH  13  18
ENDBRANCH   1  10
BRANCH   3  21
ATOM     21  C   UNL     1      48.223  -2.212 -45.162  1.00  0.00     0.103 C 
ATOM     22  C   UNL     1      48.346  -1.454 -46.484  1.00  0.00     0.033 C 
ATOM     23  C   UNL     1      47.206  -1.548 -44.234  1.00  0.00     0.033 C 
ENDBRANCH   3  21
BRANCH   8  24
ATOM     24  N   UNL     1      53.150  -3.995 -42.090  1.00  0.00    -0.383 N 
ATOM     25  H   UNL     1      53.688  -3.209 -42.426  1.00  0.00     0.158 HD
ATOM     26  H   UNL     1      53.514  -4.592 -41.365  1.00  0.00     0.158 HD
ENDBRANCH   8  24
TORSDOF 5
ENDMDL
MODEL 9
REMARK VINA RESULT:    -6.828      1.882      4.011
REMARK INTER + INTRA:          -8.500
REMARK INTER:                  -8.977
REMARK INTRA:                   0.477
REMARK UNBOUND:                -0.076
REMARK SMILES COc1cc(-c2nn(C(C)C)c3ncnc(N)c23)ccc1N
REMARK SMILES IDX 6 1 7 2 8 3 12 4 13 5 14 6 15 7 16 8 18 9 5 10 3 11 4 12
REMARK SMILES IDX 21 13 20 14 19 15 2 16 1 17 22 18 9 21 10 22 11 23 17 24
REMARK H PARENT 22 19 22 20 17 25 17 26
ROOT
ATOM      1  C   UNL     1      52.583  -0.005 -47.439  1.00  0.00     0.106 A 
ATOM      2  N   UNL     1      52.871   0.286 -48.721  1.00  0.00    -0.170 NA
ATOM      3  N   UNL     1      51.770  -0.098 -49.402  1.00  0.00    -0.244 N 
ATOM      4  C   UNL     1      50.806  -0.657 -48.609  1.00  0.00     0.164 A 
ATOM      5  N   UNL     1      49.613  -1.138 -49.001  1.00  0.00    -0.217 NA
ATOM      6  C   UNL     1      48.918  -1.627 -47.963  1.00  0.00     0.226 A 
ATOM      7  N   UNL     1      49.292  -1.686 -46.670  1.00  0.00    -0.219 NA
ATOM      8  C   UNL     1      50.503  -1.202 -46.322  1.00  0.00     0.138 A 
ATOM      9  C   UNL     1      51.309  -0.636 -47.319  1.00  0.00     0.089 A 
ENDROOT
BRANCH   1  10
ATOM     10  C   UNL     1      53.533   0.327 -46.384  1.00  0.00     0.007 A 
ATOM     11  C   UNL     1      54.293   0.070 -44.089  1.00  0.00     0.142 A 
ATOM     12  C   UNL     1      53.396  -0.250 -45.113  1.00  0.00     0.059 A 
ATOM     13  C   UNL     1      55.359   0.960 -44.343  1.00  0.00     0.074 A 
ATOM     14  C   UNL     1      55.487   1.532 -45.612  1.00  0.00     0.030 A 
ATOM     15  C   UNL     1      54.590   1.210 -46.631  1.00  0.00     0.013 A 
BRANCH  11  16
ATOM     16  O   UNL     1      54.237  -0.426 -42.807  1.00  0.00    -0.495 OA
ATOM     17  C   UNL     1      53.121  -1.242 -42.479  1.00  0.00     0.278 C 
ENDBRANCH  11  16
BRANCH  13  18
ATOM     18  N   UNL     1      56.223   1.341 -43.322  1.00  0.00    -0.396 N 
ATOM     19  H   UNL     1      56.813   0.668 -42.858  1.00  0.00     0.156 HD
ATOM     20  H   UNL     1      56.006   2.216 -42.855  1.00  0.00     0.156 HD
ENDBRANCH  13  18
ENDBRANCH   1  10
BRANCH   3  21
ATOM     21  C   UNL     1      51.700   0.091 -50.847  1.00  0.00     0.103 C 
ATOM     22  C   UNL     1      53.077   0.389 -51.438  1.00  0.00     0.033 C 
ATOM     23  C   UNL     1      50.689   1.176 -51.217  1.00  0.00     0.033 C 
ENDBRANCH   3  21
BRANCH   8  24
ATOM     24  N   UNL     1      50.857  -1.327 -45.001  1.00  0.00    -0.383 N 
ATOM     25  H   UNL     1      51.495  -0.632 -44.640  1.00  0.00     0.158 HD
ATOM     26  H   UNL     1      50.396  -1.971 -44.378  1.00  0.00     0.158 HD
ENDBRANCH   8  24
TORSDOF 5
ENDMDL
