MODEL 1
REMARK minimizedAffinity -11.0201797
REMARK CNNscore 0.746242404
REMARK CNNaffinity 7.48510313
REMARK SMILES COc1ccc2c(ccn2S(=O)(=O)c2cccc(C(=O)Nc3ccc(Cl)cc3C(=O)O)c2)c1
REMARK SMILES IDX 14 1 15 2 16 3 17 4 18 5 32 6 11 7 12 8 13 9 10 10 3 11 4 12
REMARK SMILES IDX 33 13 5 14 7 15 6 16 8 17 9 18 2 19 1 20 19 21 20 22 21 23
REMARK SMILES IDX 22 25 23 26 28 27 24 28 27 29 25 30 26 31 29 32 30 33 31 34
REMARK H PARENT 21 24 31 35
ROOT
ATOM      1  C   UNL     1      44.730 -40.437 107.541  1.00  0.00     0.089 A 
ATOM      2  C   UNL     1      43.612 -39.820 108.108  1.00  0.00     0.022 A 
ATOM      3  C   UNL     1      42.466 -39.635 107.336  1.00  0.00     0.002 A 
ATOM      4  C   UNL     1      42.440 -40.050 106.001  1.00  0.00     0.014 A 
ATOM      5  C   UNL     1      43.575 -40.643 105.425  1.00  0.00     0.041 A 
ATOM      6  C   UNL     1      44.722 -40.842 106.203  1.00  0.00     0.036 A 
ENDROOT
BRANCH   1   7
ATOM      7  S   UNL     1      46.186 -40.692 108.518  1.00  0.00     0.268 S 
ATOM      8  O   UNL     1      45.922 -40.177 109.848  1.00  0.00    -0.201 OA
ATOM      9  O   UNL     1      46.674 -42.040 108.299  1.00  0.00    -0.201 OA
BRANCH   7  10
ATOM     10  N   UNL     1      47.342 -39.655 107.817  1.00  0.00    -0.241 N 
ATOM     11  C   UNL     1      48.435 -35.708 108.465  1.00  0.00     0.119 A 
ATOM     12  C   UNL     1      47.295 -36.147 109.134  1.00  0.00     0.048 A 
ATOM     13  C   UNL     1      49.134 -36.587 107.633  1.00  0.00     0.056 A 
ATOM     14  C   UNL     1      46.820 -37.455 108.999  1.00  0.00     0.032 A 
ATOM     15  C   UNL     1      48.679 -37.915 107.478  1.00  0.00     0.004 A 
ATOM     16  C   UNL     1      47.529 -38.331 108.162  1.00  0.00     0.064 A 
ATOM     17  C   UNL     1      49.165 -39.027 106.729  1.00  0.00     0.029 A 
ATOM     18  C   UNL     1      48.330 -40.094 106.972  1.00  0.00     0.105 A 
BRANCH  11  19
ATOM     19  O   UNL     1      48.767 -34.400 108.705  1.00  0.00    -0.497 OA
ATOM     20  C   UNL     1      49.533 -33.736 107.708  1.00  0.00     0.278 C 
ENDBRANCH  11  19
ENDBRANCH   7  10
ENDBRANCH   1   7
BRANCH   5  21
ATOM     21  C   UNL     1      43.600 -41.106 104.006  1.00  0.00     0.255 C 
ATOM     22  O   UNL     1      43.894 -42.276 103.791  1.00  0.00    -0.269 OA
ATOM     23  N   UNL     1      43.314 -40.140 103.061  1.00  0.00    -0.321 N 
ATOM     24  H   UNL     1      43.183 -39.186 103.398  1.00  0.00     0.170 HD
BRANCH  23  25
ATOM     25  C   UNL     1      43.221 -40.286 101.653  1.00  0.00     0.056 A 
ATOM     26  C   UNL     1      43.967 -41.242 100.951  1.00  0.00     0.028 A 
ATOM     27  C   UNL     1      42.343 -39.447 100.920  1.00  0.00     0.084 A 
ATOM     28  C   UNL     1      43.859 -41.364  99.562  1.00  0.00     0.023 A 
ATOM     29  C   UNL     1      42.241 -39.576  99.523  1.00  0.00     0.038 A 
ATOM     30  C   UNL     1      43.000 -40.531  98.856  1.00  0.00     0.042 A 
ATOM     31  Cl  UNL     1      42.869 -40.687  97.148  1.00  0.00    -0.084 Cl
BRANCH  27  32
ATOM     32  C   UNL     1      41.517 -38.427 101.622  1.00  0.00     0.337 C 
ATOM     33  O   UNL     1      40.984 -38.576 102.709  1.00  0.00    -0.246 OA
BRANCH  32  34
ATOM     34  O   UNL     1      41.397 -37.274 100.942  1.00  0.00    -0.478 OA
ATOM     35  H   UNL     1      40.845 -36.699 101.511  1.00  0.00     0.297 HD
ENDBRANCH  32  34
ENDBRANCH  27  32
ENDBRANCH  23  25
ENDBRANCH   5  21
TORSDOF 7
ENDMDL
MODEL 2
REMARK minimizedAffinity -11.0174685
REMARK CNNscore 0.699432194
REMARK CNNaffinity 6.98121786
REMARK SMILES COc1ccc2c(ccn2S(=O)(=O)c2cccc(C(=O)Nc3ccc(Cl)cc3C(=O)O)c2)c1
REMARK SMILES IDX 14 1 15 2 16 3 17 4 18 5 32 6 11 7 12 8 13 9 10 10 3 11 4 12
REMARK SMILES IDX 33 13 5 14 7 15 6 16 8 17 9 18 2 19 1 20 19 21 20 22 21 23
REMARK SMILES IDX 22 25 23 26 28 27 24 28 27 29 25 30 26 31 29 32 30 33 31 34
REMARK H PARENT 21 24 31 35
ROOT
ATOM      1  C   UNL     1      43.914 -40.901 106.968  1.00  0.00     0.089 A 
ATOM      2  C   UNL     1      44.179 -42.084 107.663  1.00  0.00     0.022 A 
ATOM      3  C   UNL     1      44.628 -43.204 106.965  1.00  0.00     0.002 A 
ATOM      4  C   UNL     1      44.798 -43.148 105.578  1.00  0.00     0.014 A 
ATOM      5  C   UNL     1      44.503 -41.968 104.878  1.00  0.00     0.041 A 
ATOM      6  C   UNL     1      44.066 -40.838 105.580  1.00  0.00     0.036 A 
ENDROOT
BRANCH   1   7
ATOM      7  S   UNL     1      43.359 -39.467 107.849  1.00  0.00     0.268 S 
ATOM      8  O   UNL     1      43.478 -39.746 109.267  1.00  0.00    -0.201 OA
ATOM      9  O   UNL     1      43.945 -38.285 107.246  1.00  0.00    -0.201 OA
BRANCH   7  10
ATOM     10  N   UNL     1      41.691 -39.391 107.507  1.00  0.00    -0.241 N 
ATOM     11  C   UNL     1      38.360 -38.214 109.677  1.00  0.00     0.119 A 
ATOM     12  C   UNL     1      39.555 -38.304 110.387  1.00  0.00     0.048 A 
ATOM     13  C   UNL     1      38.339 -38.516 108.312  1.00  0.00     0.056 A 
ATOM     14  C   UNL     1      40.750 -38.691 109.772  1.00  0.00     0.032 A 
ATOM     15  C   UNL     1      39.530 -38.909 107.663  1.00  0.00     0.004 A 
ATOM     16  C   UNL     1      40.718 -38.991 108.401  1.00  0.00     0.064 A 
ATOM     17  C   UNL     1      39.831 -39.263 106.315  1.00  0.00     0.029 A 
ATOM     18  C   UNL     1      41.177 -39.538 106.244  1.00  0.00     0.105 A 
BRANCH  11  19
ATOM     19  O   UNL     1      37.282 -37.820 110.425  1.00  0.00    -0.497 OA
ATOM     20  C   UNL     1      36.271 -38.790 110.660  1.00  0.00     0.278 C 
ENDBRANCH  11  19
ENDBRANCH   7  10
ENDBRANCH   1   7
BRANCH   5  21
ATOM     21  C   UNL     1      44.669 -41.855 103.398  1.00  0.00     0.255 C 
ATOM     22  O   UNL     1      45.669 -42.353 102.895  1.00  0.00    -0.269 OA
ATOM     23  N   UNL     1      43.673 -41.160 102.741  1.00  0.00    -0.321 N 
ATOM     24  H   UNL     1      42.954 -40.722 103.318  1.00  0.00     0.170 HD
BRANCH  23  25
ATOM     25  C   UNL     1      43.535 -40.925 101.348  1.00  0.00     0.056 A 
ATOM     26  C   UNL     1      44.193 -41.707 100.392  1.00  0.00     0.028 A 
ATOM     27  C   UNL     1      42.702 -39.870 100.898  1.00  0.00     0.084 A 
ATOM     28  C   UNL     1      44.042 -41.454  99.024  1.00  0.00     0.023 A 
ATOM     29  C   UNL     1      42.556 -39.621  99.521  1.00  0.00     0.038 A 
ATOM     30  C   UNL     1      43.227 -40.413  98.596  1.00  0.00     0.042 A 
ATOM     31  Cl  UNL     1      43.044 -40.106  96.914  1.00  0.00    -0.084 Cl
BRANCH  27  32
ATOM     32  C   UNL     1      41.969 -39.019 101.876  1.00  0.00     0.337 C 
ATOM     33  O   UNL     1      41.511 -39.401 102.940  1.00  0.00    -0.246 OA
BRANCH  32  34
ATOM     34  O   UNL     1      41.844 -37.740 101.485  1.00  0.00    -0.478 OA
ATOM     35  H   UNL     1      41.357 -37.298 102.212  1.00  0.00     0.297 HD
ENDBRANCH  32  34
ENDBRANCH  27  32
ENDBRANCH  23  25
ENDBRANCH   5  21
TORSDOF 7
ENDMDL
MODEL 3
REMARK minimizedAffinity -10.7216911
REMARK CNNscore 0.687018037
REMARK CNNaffinity 7.17261887
REMARK SMILES COc1ccc2c(ccn2S(=O)(=O)c2cccc(C(=O)Nc3ccc(Cl)cc3C(=O)O)c2)c1
REMARK SMILES IDX 14 1 15 2 16 3 17 4 18 5 32 6 11 7 12 8 13 9 10 10 3 11 4 12
REMARK SMILES IDX 33 13 5 14 7 15 6 16 8 17 9 18 2 19 1 20 19 21 20 22 21 23
REMARK SMILES IDX 22 25 23 26 28 27 24 28 27 29 25 30 26 31 29 32 30 33 31 34
REMARK H PARENT 21 24 31 35
ROOT
ATOM      1  C   UNL     1      44.022 -40.104 106.588  1.00  0.00     0.089 A 
ATOM      2  C   UNL     1      43.990 -41.344 107.231  1.00  0.00     0.022 A 
ATOM      3  C   UNL     1      44.986 -41.665 108.152  1.00  0.00     0.002 A 
ATOM      4  C   UNL     1      46.017 -40.758 108.420  1.00  0.00     0.014 A 
ATOM      5  C   UNL     1      46.064 -39.526 107.751  1.00  0.00     0.041 A 
ATOM      6  C   UNL     1      45.056 -39.196 106.836  1.00  0.00     0.036 A 
ENDROOT
BRANCH   1   7
ATOM      7  S   UNL     1      42.751 -39.680 105.428  1.00  0.00     0.268 S 
ATOM      8  O   UNL     1      41.498 -40.209 105.932  1.00  0.00    -0.201 OA
ATOM      9  O   UNL     1      42.901 -38.288 105.050  1.00  0.00    -0.201 OA
BRANCH   7  10
ATOM     10  N   UNL     1      43.139 -40.588 104.039  1.00  0.00    -0.241 N 
ATOM     11  C   UNL     1      42.731 -39.930  99.965  1.00  0.00     0.119 A 
ATOM     12  C   UNL     1      42.112 -39.004 100.802  1.00  0.00     0.048 A 
ATOM     13  C   UNL     1      43.436 -41.003 100.518  1.00  0.00     0.056 A 
ATOM     14  C   UNL     1      42.173 -39.113 102.195  1.00  0.00     0.032 A 
ATOM     15  C   UNL     1      43.516 -41.139 101.922  1.00  0.00     0.004 A 
ATOM     16  C   UNL     1      42.884 -40.194 102.741  1.00  0.00     0.064 A 
ATOM     17  C   UNL     1      44.152 -42.092 102.771  1.00  0.00     0.029 A 
ATOM     18  C   UNL     1      43.918 -41.716 104.074  1.00  0.00     0.105 A 
BRANCH  11  19
ATOM     19  O   UNL     1      42.577 -39.679  98.628  1.00  0.00    -0.497 OA
ATOM     20  C   UNL     1      43.381 -40.436  97.733  1.00  0.00     0.278 C 
ENDBRANCH  11  19
ENDBRANCH   7  10
ENDBRANCH   1   7
BRANCH   5  21
ATOM     21  C   UNL     1      47.140 -38.521 108.001  1.00  0.00     0.255 C 
ATOM     22  O   UNL     1      48.208 -38.926 108.444  1.00  0.00    -0.269 OA
ATOM     23  N   UNL     1      46.802 -37.210 107.730  1.00  0.00    -0.321 N 
ATOM     24  H   UNL     1      45.837 -37.027 107.456  1.00  0.00     0.170 HD
BRANCH  23  25
ATOM     25  C   UNL     1      47.618 -36.053 107.828  1.00  0.00     0.056 A 
ATOM     26  C   UNL     1      48.349 -35.562 106.739  1.00  0.00     0.028 A 
ATOM     27  C   UNL     1      47.699 -35.358 109.061  1.00  0.00     0.084 A 
ATOM     28  C   UNL     1      49.147 -34.419 106.862  1.00  0.00     0.023 A 
ATOM     29  C   UNL     1      48.504 -34.211 109.177  1.00  0.00     0.038 A 
ATOM     30  C   UNL     1      49.222 -33.752 108.078  1.00  0.00     0.042 A 
ATOM     31  Cl  UNL     1      50.204 -32.347 108.224  1.00  0.00    -0.084 Cl
BRANCH  27  32
ATOM     32  C   UNL     1      46.928 -35.832 110.244  1.00  0.00     0.337 C 
ATOM     33  O   UNL     1      47.276 -35.715 111.407  1.00  0.00    -0.246 OA
BRANCH  32  34
ATOM     34  O   UNL     1      45.765 -36.423 109.923  1.00  0.00    -0.478 OA
ATOM     35  H   UNL     1      45.362 -36.676 110.780  1.00  0.00     0.297 HD
ENDBRANCH  32  34
ENDBRANCH  27  32
ENDBRANCH  23  25
ENDBRANCH   5  21
TORSDOF 7
ENDMDL
MODEL 4
REMARK minimizedAffinity -10.24895
REMARK CNNscore 0.680339575
REMARK CNNaffinity 7.3564086
REMARK SMILES COc1ccc2c(ccn2S(=O)(=O)c2cccc(C(=O)Nc3ccc(Cl)cc3C(=O)O)c2)c1
REMARK SMILES IDX 14 1 15 2 16 3 17 4 18 5 32 6 11 7 12 8 13 9 10 10 3 11 4 12
REMARK SMILES IDX 33 13 5 14 7 15 6 16 8 17 9 18 2 19 1 20 19 21 20 22 21 23
REMARK SMILES IDX 22 25 23 26 28 27 24 28 27 29 25 30 26 31 29 32 30 33 31 34
REMARK H PARENT 21 24 31 35
ROOT
ATOM      1  C   UNL     1      43.640 -39.748 107.735  1.00  0.00     0.089 A 
ATOM      2  C   UNL     1      42.531 -38.943 108.013  1.00  0.00     0.022 A 
ATOM      3  C   UNL     1      41.616 -38.663 107.000  1.00  0.00     0.002 A 
ATOM      4  C   UNL     1      41.813 -39.170 105.711  1.00  0.00     0.014 A 
ATOM      5  C   UNL     1      42.943 -39.953 105.427  1.00  0.00     0.041 A 
ATOM      6  C   UNL     1      43.855 -40.248 106.447  1.00  0.00     0.036 A 
ENDROOT
BRANCH   1   7
ATOM      7  S   UNL     1      44.800 -40.124 109.020  1.00  0.00     0.268 S 
ATOM      8  O   UNL     1      44.165 -39.828 110.290  1.00  0.00    -0.201 OA
ATOM      9  O   UNL     1      45.408 -41.412 108.746  1.00  0.00    -0.201 OA
BRANCH   7  10
ATOM     10  N   UNL     1      46.036 -38.969 108.813  1.00  0.00    -0.241 N 
ATOM     11  C   UNL     1      49.305 -38.675 106.279  1.00  0.00     0.119 A 
ATOM     12  C   UNL     1      48.622 -39.889 106.262  1.00  0.00     0.048 A 
ATOM     13  C   UNL     1      48.873 -37.647 107.122  1.00  0.00     0.056 A 
ATOM     14  C   UNL     1      47.504 -40.117 107.070  1.00  0.00     0.032 A 
ATOM     15  C   UNL     1      47.746 -37.847 107.950  1.00  0.00     0.004 A 
ATOM     16  C   UNL     1      47.077 -39.078 107.913  1.00  0.00     0.064 A 
ATOM     17  C   UNL     1      47.068 -37.013 108.887  1.00  0.00     0.029 A 
ATOM     18  C   UNL     1      46.005 -37.726 109.391  1.00  0.00     0.105 A 
BRANCH  11  19
ATOM     19  O   UNL     1      50.377 -38.614 105.428  1.00  0.00    -0.497 OA
ATOM     20  C   UNL     1      50.292 -39.373 104.229  1.00  0.00     0.278 C 
ENDBRANCH  11  19
ENDBRANCH   7  10
ENDBRANCH   1   7
BRANCH   5  21
ATOM     21  C   UNL     1      43.200 -40.521 104.070  1.00  0.00     0.255 C 
ATOM     22  O   UNL     1      43.694 -41.639 104.002  1.00  0.00    -0.269 OA
ATOM     23  N   UNL     1      42.874 -39.697 103.011  1.00  0.00    -0.321 N 
ATOM     24  H   UNL     1      42.560 -38.753 103.237  1.00  0.00     0.170 HD
BRANCH  23  25
ATOM     25  C   UNL     1      42.964 -39.971 101.621  1.00  0.00     0.056 A 
ATOM     26  C   UNL     1      43.861 -40.916 101.105  1.00  0.00     0.028 A 
ATOM     27  C   UNL     1      42.121 -39.278 100.716  1.00  0.00     0.084 A 
ATOM     28  C   UNL     1      43.931 -41.167  99.730  1.00  0.00     0.023 A 
ATOM     29  C   UNL     1      42.200 -39.535  99.336  1.00  0.00     0.038 A 
ATOM     30  C   UNL     1      43.103 -40.475  98.854  1.00  0.00     0.042 A 
ATOM     31  Cl  UNL     1      43.194 -40.788  97.166  1.00  0.00    -0.084 Cl
BRANCH  27  32
ATOM     32  C   UNL     1      41.141 -38.276 101.219  1.00  0.00     0.337 C 
ATOM     33  O   UNL     1      40.297 -38.481 102.075  1.00  0.00    -0.246 OA
BRANCH  32  34
ATOM     34  O   UNL     1      41.261 -37.071 100.636  1.00  0.00    -0.478 OA
ATOM     35  H   UNL     1      40.573 -36.514 101.057  1.00  0.00     0.297 HD
ENDBRANCH  32  34
ENDBRANCH  27  32
ENDBRANCH  23  25
ENDBRANCH   5  21
TORSDOF 7
ENDMDL
MODEL 5
REMARK minimizedAffinity -11.0470695
REMARK CNNscore 0.679726481
REMARK CNNaffinity 7.44532585
REMARK SMILES COc1ccc2c(ccn2S(=O)(=O)c2cccc(C(=O)Nc3ccc(Cl)cc3C(=O)O)c2)c1
REMARK SMILES IDX 14 1 15 2 16 3 17 4 18 5 32 6 11 7 12 8 13 9 10 10 3 11 4 12
REMARK SMILES IDX 33 13 5 14 7 15 6 16 8 17 9 18 2 19 1 20 19 21 20 22 21 23
REMARK SMILES IDX 22 25 23 26 28 27 24 28 27 29 25 30 26 31 29 32 30 33 31 34
REMARK H PARENT 21 24 31 35
ROOT
ATOM      1  C   UNL     1      44.057 -38.205 107.433  1.00  0.00     0.089 A 
ATOM      2  C   UNL     1      42.810 -37.879 107.972  1.00  0.00     0.022 A 
ATOM      3  C   UNL     1      41.651 -38.261 107.299  1.00  0.00     0.002 A 
ATOM      4  C   UNL     1      41.735 -38.952 106.086  1.00  0.00     0.014 A 
ATOM      5  C   UNL     1      42.989 -39.252 105.531  1.00  0.00     0.041 A 
ATOM      6  C   UNL     1      44.154 -38.882 106.214  1.00  0.00     0.036 A 
ENDROOT
BRANCH   1   7
ATOM      7  S   UNL     1      45.537 -37.739 108.289  1.00  0.00     0.268 S 
ATOM      8  O   UNL     1      46.307 -36.882 107.408  1.00  0.00    -0.201 OA
ATOM      9  O   UNL     1      45.196 -37.343 109.642  1.00  0.00    -0.201 OA
BRANCH   7  10
ATOM     10  N   UNL     1      46.408 -39.196 108.432  1.00  0.00    -0.241 N 
ATOM     11  C   UNL     1      45.388 -43.203 108.107  1.00  0.00     0.119 A 
ATOM     12  C   UNL     1      44.330 -42.297 108.102  1.00  0.00     0.048 A 
ATOM     13  C   UNL     1      46.701 -42.736 108.219  1.00  0.00     0.056 A 
ATOM     14  C   UNL     1      44.539 -40.918 108.208  1.00  0.00     0.032 A 
ATOM     15  C   UNL     1      46.944 -41.348 108.325  1.00  0.00     0.004 A 
ATOM     16  C   UNL     1      45.861 -40.459 108.318  1.00  0.00     0.064 A 
ATOM     17  C   UNL     1      48.138 -40.577 108.439  1.00  0.00     0.029 A 
ATOM     18  C   UNL     1      47.778 -39.250 108.485  1.00  0.00     0.105 A 
BRANCH  11  19
ATOM     19  O   UNL     1      45.014 -44.515 107.995  1.00  0.00    -0.497 OA
ATOM     20  C   UNL     1      43.714 -44.857 108.457  1.00  0.00     0.278 C 
ENDBRANCH  11  19
ENDBRANCH   7  10
ENDBRANCH   1   7
BRANCH   5  21
ATOM     21  C   UNL     1      43.135 -39.990 104.241  1.00  0.00     0.255 C 
ATOM     22  O   UNL     1      43.410 -41.183 104.292  1.00  0.00    -0.269 OA
ATOM     23  N   UNL     1      42.972 -39.228 103.101  1.00  0.00    -0.321 N 
ATOM     24  H   UNL     1      42.841 -38.225 103.228  1.00  0.00     0.170 HD
BRANCH  23  25
ATOM     25  C   UNL     1      43.011 -39.651 101.747  1.00  0.00     0.056 A 
ATOM     26  C   UNL     1      43.944 -40.588 101.284  1.00  0.00     0.028 A 
ATOM     27  C   UNL     1      42.075 -39.120 100.823  1.00  0.00     0.084 A 
ATOM     28  C   UNL     1      43.962 -40.987  99.944  1.00  0.00     0.023 A 
ATOM     29  C   UNL     1      42.101 -39.526  99.476  1.00  0.00     0.038 A 
ATOM     30  C   UNL     1      43.043 -40.454  99.047  1.00  0.00     0.042 A 
ATOM     31  Cl  UNL     1      43.069 -40.949  97.401  1.00  0.00    -0.084 Cl
BRANCH  27  32
ATOM     32  C   UNL     1      41.054 -38.134 101.269  1.00  0.00     0.337 C 
ATOM     33  O   UNL     1      40.174 -38.348 102.087  1.00  0.00    -0.246 OA
BRANCH  32  34
ATOM     34  O   UNL     1      41.177 -36.932 100.682  1.00  0.00    -0.478 OA
ATOM     35  H   UNL     1      40.460 -36.385 101.066  1.00  0.00     0.297 HD
ENDBRANCH  32  34
ENDBRANCH  27  32
ENDBRANCH  23  25
ENDBRANCH   5  21
TORSDOF 7
ENDMDL
MODEL 6
REMARK minimizedAffinity -11.194582
REMARK CNNscore 0.613723397
REMARK CNNaffinity 7.05047941
REMARK SMILES COc1ccc2c(ccn2S(=O)(=O)c2cccc(C(=O)Nc3ccc(Cl)cc3C(=O)O)c2)c1
REMARK SMILES IDX 14 1 15 2 16 3 17 4 18 5 32 6 11 7 12 8 13 9 10 10 3 11 4 12
REMARK SMILES IDX 33 13 5 14 7 15 6 16 8 17 9 18 2 19 1 20 19 21 20 22 21 23
REMARK SMILES IDX 22 25 23 26 28 27 24 28 27 29 25 30 26 31 29 32 30 33 31 34
REMARK H PARENT 21 24 31 35
ROOT
ATOM      1  C   UNL     1      45.374 -41.428 107.575  1.00  0.00     0.089 A 
ATOM      2  C   UNL     1      45.056 -42.656 108.160  1.00  0.00     0.022 A 
ATOM      3  C   UNL     1      44.770 -43.750 107.346  1.00  0.00     0.002 A 
ATOM      4  C   UNL     1      44.786 -43.616 105.953  1.00  0.00     0.014 A 
ATOM      5  C   UNL     1      45.075 -42.373 105.368  1.00  0.00     0.041 A 
ATOM      6  C   UNL     1      45.378 -41.277 106.185  1.00  0.00     0.036 A 
ENDROOT
BRANCH   1   7
ATOM      7  S   UNL     1      45.757 -40.035 108.602  1.00  0.00     0.268 S 
ATOM      8  O   UNL     1      44.679 -39.074 108.463  1.00  0.00    -0.201 OA
ATOM      9  O   UNL     1      46.201 -40.510 109.898  1.00  0.00    -0.201 OA
BRANCH   7  10
ATOM     10  N   UNL     1      47.126 -39.340 107.862  1.00  0.00    -0.241 N 
ATOM     11  C   UNL     1      49.033 -35.674 108.209  1.00  0.00     0.119 A 
ATOM     12  C   UNL     1      47.809 -35.794 108.864  1.00  0.00     0.048 A 
ATOM     13  C   UNL     1      49.544 -36.757 107.488  1.00  0.00     0.056 A 
ATOM     14  C   UNL     1      47.065 -36.978 108.824  1.00  0.00     0.032 A 
ATOM     15  C   UNL     1      48.815 -37.966 107.430  1.00  0.00     0.004 A 
ATOM     16  C   UNL     1      47.587 -38.060 108.098  1.00  0.00     0.064 A 
ATOM     17  C   UNL     1      49.066 -39.222 106.803  1.00  0.00     0.029 A 
ATOM     18  C   UNL     1      48.014 -40.057 107.103  1.00  0.00     0.105 A 
BRANCH  11  19
ATOM     19  O   UNL     1      49.634 -34.451 108.348  1.00  0.00    -0.497 OA
ATOM     20  C   UNL     1      49.348 -33.475 107.354  1.00  0.00     0.278 C 
ENDBRANCH  11  19
ENDBRANCH   7  10
ENDBRANCH   1   7
BRANCH   5  21
ATOM     21  C   UNL     1      45.108 -42.176 103.889  1.00  0.00     0.255 C 
ATOM     22  O   UNL     1      46.096 -42.569 103.281  1.00  0.00    -0.269 OA
ATOM     23  N   UNL     1      44.011 -41.531 103.352  1.00  0.00    -0.321 N 
ATOM     24  H   UNL     1      43.313 -41.180 104.008  1.00  0.00     0.170 HD
BRANCH  23  25
ATOM     25  C   UNL     1      43.740 -41.241 101.989  1.00  0.00     0.056 A 
ATOM     26  C   UNL     1      44.105 -42.112 100.955  1.00  0.00     0.028 A 
ATOM     27  C   UNL     1      43.073 -40.036 101.652  1.00  0.00     0.084 A 
ATOM     28  C   UNL     1      43.827 -41.802  99.619  1.00  0.00     0.023 A 
ATOM     29  C   UNL     1      42.799 -39.731 100.306  1.00  0.00     0.038 A 
ATOM     30  C   UNL     1      43.178 -40.614  99.302  1.00  0.00     0.042 A 
ATOM     31  Cl  UNL     1      42.839 -40.239  97.659  1.00  0.00    -0.084 Cl
BRANCH  27  32
ATOM     32  C   UNL     1      42.652 -39.085 102.717  1.00  0.00     0.337 C 
ATOM     33  O   UNL     1      42.846 -39.232 103.912  1.00  0.00    -0.246 OA
BRANCH  32  34
ATOM     34  O   UNL     1      42.014 -38.001 102.245  1.00  0.00    -0.478 OA
ATOM     35  H   UNL     1      41.803 -37.464 103.038  1.00  0.00     0.297 HD
ENDBRANCH  32  34
ENDBRANCH  27  32
ENDBRANCH  23  25
ENDBRANCH   5  21
TORSDOF 7
ENDMDL
MODEL 7
REMARK minimizedAffinity -10.2131662
REMARK CNNscore 0.61153388
REMARK CNNaffinity 7.02054405
REMARK SMILES COc1ccc2c(ccn2S(=O)(=O)c2cccc(C(=O)Nc3ccc(Cl)cc3C(=O)O)c2)c1
REMARK SMILES IDX 14 1 15 2 16 3 17 4 18 5 32 6 11 7 12 8 13 9 10 10 3 11 4 12
REMARK SMILES IDX 33 13 5 14 7 15 6 16 8 17 9 18 2 19 1 20 19 21 20 22 21 23
REMARK SMILES IDX 22 25 23 26 28 27 24 28 27 29 25 30 26 31 29 32 30 33 31 34
REMARK H PARENT 21 24 31 35
ROOT
ATOM      1  C   UNL     1      43.699 -39.850 106.839  1.00  0.00     0.089 A 
ATOM      2  C   UNL     1      43.810 -41.205 107.162  1.00  0.00     0.022 A 
ATOM      3  C   UNL     1      44.998 -41.683 107.713  1.00  0.00     0.002 A 
ATOM      4  C   UNL     1      46.075 -40.817 107.927  1.00  0.00     0.014 A 
ATOM      5  C   UNL     1      45.971 -39.462 107.574  1.00  0.00     0.041 A 
ATOM      6  C   UNL     1      44.773 -38.977 107.035  1.00  0.00     0.036 A 
ENDROOT
BRANCH   1   7
ATOM      7  S   UNL     1      42.187 -39.228 106.155  1.00  0.00     0.268 S 
ATOM      8  O   UNL     1      42.526 -38.400 105.013  1.00  0.00    -0.201 OA
ATOM      9  O   UNL     1      41.229 -40.312 106.060  1.00  0.00    -0.201 OA
BRANCH   7  10
ATOM     10  N   UNL     1      41.590 -38.177 107.356  1.00  0.00    -0.241 N 
ATOM     11  C   UNL     1      38.646 -38.503 110.258  1.00  0.00     0.119 A 
ATOM     12  C   UNL     1      38.710 -39.539 109.329  1.00  0.00     0.048 A 
ATOM     13  C   UNL     1      39.545 -37.436 110.171  1.00  0.00     0.056 A 
ATOM     14  C   UNL     1      39.656 -39.548 108.300  1.00  0.00     0.032 A 
ATOM     15  C   UNL     1      40.513 -37.418 109.142  1.00  0.00     0.004 A 
ATOM     16  C   UNL     1      40.556 -38.473 108.222  1.00  0.00     0.064 A 
ATOM     17  C   UNL     1      41.550 -36.501 108.801  1.00  0.00     0.029 A 
ATOM     18  C   UNL     1      42.211 -37.005 107.704  1.00  0.00     0.105 A 
BRANCH  11  19
ATOM     19  O   UNL     1      37.664 -38.646 111.202  1.00  0.00    -0.497 OA
ATOM     20  C   UNL     1      36.327 -38.403 110.784  1.00  0.00     0.278 C 
ENDBRANCH  11  19
ENDBRANCH   7  10
ENDBRANCH   1   7
BRANCH   5  21
ATOM     21  C   UNL     1      47.089 -38.495 107.783  1.00  0.00     0.255 C 
ATOM     22  O   UNL     1      48.197 -38.948 108.042  1.00  0.00    -0.269 OA
ATOM     23  N   UNL     1      46.744 -37.161 107.691  1.00  0.00    -0.321 N 
ATOM     24  H   UNL     1      45.755 -36.945 107.564  1.00  0.00     0.170 HD
BRANCH  23  25
ATOM     25  C   UNL     1      47.587 -36.024 107.799  1.00  0.00     0.056 A 
ATOM     26  C   UNL     1      48.310 -35.526 106.708  1.00  0.00     0.028 A 
ATOM     27  C   UNL     1      47.704 -35.358 109.045  1.00  0.00     0.084 A 
ATOM     28  C   UNL     1      49.136 -34.405 106.841  1.00  0.00     0.023 A 
ATOM     29  C   UNL     1      48.537 -34.232 109.171  1.00  0.00     0.038 A 
ATOM     30  C   UNL     1      49.246 -33.765 108.070  1.00  0.00     0.042 A 
ATOM     31  Cl  UNL     1      50.262 -32.386 108.228  1.00  0.00    -0.084 Cl
BRANCH  27  32
ATOM     32  C   UNL     1      46.943 -35.840 110.231  1.00  0.00     0.337 C 
ATOM     33  O   UNL     1      47.264 -35.666 111.395  1.00  0.00    -0.246 OA
BRANCH  32  34
ATOM     34  O   UNL     1      45.823 -36.509 109.912  1.00  0.00    -0.478 OA
ATOM     35  H   UNL     1      45.422 -36.758 110.770  1.00  0.00     0.297 HD
ENDBRANCH  32  34
ENDBRANCH  27  32
ENDBRANCH  23  25
ENDBRANCH   5  21
TORSDOF 7
ENDMDL
MODEL 8
REMARK minimizedAffinity -9.89191246
REMARK CNNscore 0.601117253
REMARK CNNaffinity 7.2851119
REMARK SMILES COc1ccc2c(ccn2S(=O)(=O)c2cccc(C(=O)Nc3ccc(Cl)cc3C(=O)O)c2)c1
REMARK SMILES IDX 14 1 15 2 16 3 17 4 18 5 32 6 11 7 12 8 13 9 10 10 3 11 4 12
REMARK SMILES IDX 33 13 5 14 7 15 6 16 8 17 9 18 2 19 1 20 19 21 20 22 21 23
REMARK SMILES IDX 22 25 23 26 28 27 24 28 27 29 25 30 26 31 29 32 30 33 31 34
REMARK H PARENT 21 24 31 35
ROOT
ATOM      1  C   UNL     1      44.141 -40.278 106.850  1.00  0.00     0.089 A 
ATOM      2  C   UNL     1      44.405 -41.631 107.082  1.00  0.00     0.022 A 
ATOM      3  C   UNL     1      45.675 -42.019 107.506  1.00  0.00     0.002 A 
ATOM      4  C   UNL     1      46.681 -41.064 107.684  1.00  0.00     0.014 A 
ATOM      5  C   UNL     1      46.422 -39.710 107.422  1.00  0.00     0.041 A 
ATOM      6  C   UNL     1      45.143 -39.317 107.010  1.00  0.00     0.036 A 
ENDROOT
BRANCH   1   7
ATOM      7  S   UNL     1      42.525 -39.772 106.327  1.00  0.00     0.268 S 
ATOM      8  O   UNL     1      41.643 -40.917 106.449  1.00  0.00    -0.201 OA
ATOM      9  O   UNL     1      42.211 -38.492 106.932  1.00  0.00    -0.201 OA
BRANCH   7  10
ATOM     10  N   UNL     1      42.705 -39.472 104.660  1.00  0.00    -0.241 N 
ATOM     11  C   UNL     1      44.053 -41.737 101.458  1.00  0.00     0.119 A 
ATOM     12  C   UNL     1      44.236 -42.291 102.723  1.00  0.00     0.048 A 
ATOM     13  C   UNL     1      43.446 -40.484 101.330  1.00  0.00     0.056 A 
ATOM     14  C   UNL     1      43.827 -41.628 103.884  1.00  0.00     0.032 A 
ATOM     15  C   UNL     1      43.021 -39.791 102.485  1.00  0.00     0.004 A 
ATOM     16  C   UNL     1      43.217 -40.371 103.745  1.00  0.00     0.064 A 
ATOM     17  C   UNL     1      42.376 -38.534 102.682  1.00  0.00     0.029 A 
ATOM     18  C   UNL     1      42.177 -38.372 104.034  1.00  0.00     0.105 A 
BRANCH  11  19
ATOM     19  O   UNL     1      44.508 -42.513 100.425  1.00  0.00    -0.497 OA
ATOM     20  C   UNL     1      44.625 -41.891  99.153  1.00  0.00     0.278 C 
ENDBRANCH  11  19
ENDBRANCH   7  10
ENDBRANCH   1   7
BRANCH   5  21
ATOM     21  C   UNL     1      47.460 -38.650 107.598  1.00  0.00     0.255 C 
ATOM     22  O   UNL     1      48.623 -39.007 107.739  1.00  0.00    -0.269 OA
ATOM     23  N   UNL     1      46.986 -37.353 107.613  1.00  0.00    -0.321 N 
ATOM     24  H   UNL     1      45.974 -37.229 107.579  1.00  0.00     0.170 HD
BRANCH  23  25
ATOM     25  C   UNL     1      47.726 -36.147 107.721  1.00  0.00     0.056 A 
ATOM     26  C   UNL     1      48.461 -35.625 106.649  1.00  0.00     0.028 A 
ATOM     27  C   UNL     1      47.724 -35.434 108.947  1.00  0.00     0.084 A 
ATOM     28  C   UNL     1      49.183 -34.435 106.781  1.00  0.00     0.023 A 
ATOM     29  C   UNL     1      48.454 -34.238 109.072  1.00  0.00     0.038 A 
ATOM     30  C   UNL     1      49.178 -33.749 107.990  1.00  0.00     0.042 A 
ATOM     31  Cl  UNL     1      50.067 -32.285 108.147  1.00  0.00    -0.084 Cl
BRANCH  27  32
ATOM     32  C   UNL     1      46.945 -35.940 110.110  1.00  0.00     0.337 C 
ATOM     33  O   UNL     1      47.231 -35.761 111.283  1.00  0.00    -0.246 OA
BRANCH  32  34
ATOM     34  O   UNL     1      45.852 -36.638 109.760  1.00  0.00    -0.478 OA
ATOM     35  H   UNL     1      45.435 -36.900 110.607  1.00  0.00     0.297 HD
ENDBRANCH  32  34
ENDBRANCH  27  32
ENDBRANCH  23  25
ENDBRANCH   5  21
TORSDOF 7
ENDMDL
MODEL 9
REMARK minimizedAffinity -10.2260036
REMARK CNNscore 0.55156517
REMARK CNNaffinity 6.82282495
REMARK SMILES COc1ccc2c(ccn2S(=O)(=O)c2cccc(C(=O)Nc3ccc(Cl)cc3C(=O)O)c2)c1
REMARK SMILES IDX 14 1 15 2 16 3 17 4 18 5 32 6 11 7 12 8 13 9 10 10 3 11 4 12
REMARK SMILES IDX 33 13 5 14 7 15 6 16 8 17 9 18 2 19 1 20 19 21 20 22 21 23
REMARK SMILES IDX 22 25 23 26 28 27 24 28 27 29 25 30 26 31 29 32 30 33 31 34
REMARK H PARENT 21 24 31 35
ROOT
ATOM      1  C   UNL     1      44.952 -41.340 107.333  1.00  0.00     0.089 A 
ATOM      2  C   UNL     1      44.671 -42.586 107.900  1.00  0.00     0.022 A 
ATOM      3  C   UNL     1      44.526 -43.698 107.072  1.00  0.00     0.002 A 
ATOM      4  C   UNL     1      44.646 -43.565 105.685  1.00  0.00     0.014 A 
ATOM      5  C   UNL     1      44.898 -42.307 105.116  1.00  0.00     0.041 A 
ATOM      6  C   UNL     1      45.058 -41.192 105.947  1.00  0.00     0.036 A 
ENDROOT
BRANCH   1   7
ATOM      7  S   UNL     1      45.155 -39.923 108.378  1.00  0.00     0.268 S 
ATOM      8  O   UNL     1      45.757 -40.371 109.619  1.00  0.00    -0.201 OA
ATOM      9  O   UNL     1      45.717 -38.837 107.599  1.00  0.00    -0.201 OA
BRANCH   7  10
ATOM     10  N   UNL     1      43.560 -39.454 108.753  1.00  0.00    -0.241 N 
ATOM     11  C   UNL     1      40.040 -39.223 106.574  1.00  0.00     0.119 A 
ATOM     12  C   UNL     1      41.197 -39.484 105.845  1.00  0.00     0.048 A 
ATOM     13  C   UNL     1      40.115 -39.054 107.960  1.00  0.00     0.056 A 
ATOM     14  C   UNL     1      42.449 -39.585 106.461  1.00  0.00     0.032 A 
ATOM     15  C   UNL     1      41.365 -39.152 108.610  1.00  0.00     0.004 A 
ATOM     16  C   UNL     1      42.514 -39.415 107.853  1.00  0.00     0.064 A 
ATOM     17  C   UNL     1      41.761 -39.044 109.976  1.00  0.00     0.029 A 
ATOM     18  C   UNL     1      43.120 -39.253 110.037  1.00  0.00     0.105 A 
BRANCH  11  19
ATOM     19  O   UNL     1      38.897 -39.156 105.822  1.00  0.00    -0.497 OA
ATOM     20  C   UNL     1      39.028 -39.396 104.427  1.00  0.00     0.278 C 
ENDBRANCH  11  19
ENDBRANCH   7  10
ENDBRANCH   1   7
BRANCH   5  21
ATOM     21  C   UNL     1      45.037 -42.111 103.643  1.00  0.00     0.255 C 
ATOM     22  O   UNL     1      46.079 -42.478 103.113  1.00  0.00    -0.269 OA
ATOM     23  N   UNL     1      43.968 -41.495 103.023  1.00  0.00    -0.321 N 
ATOM     24  H   UNL     1      43.214 -41.161 103.623  1.00  0.00     0.170 HD
BRANCH  23  25
ATOM     25  C   UNL     1      43.793 -41.213 101.643  1.00  0.00     0.056 A 
ATOM     26  C   UNL     1      44.183 -42.113 100.643  1.00  0.00     0.028 A 
ATOM     27  C   UNL     1      43.201 -39.986 101.251  1.00  0.00     0.084 A 
ATOM     28  C   UNL     1      44.001 -41.811  99.290  1.00  0.00     0.023 A 
ATOM     29  C   UNL     1      43.023 -39.689  99.887  1.00  0.00     0.038 A 
ATOM     30  C   UNL     1      43.424 -40.602  98.919  1.00  0.00     0.042 A 
ATOM     31  Cl  UNL     1      43.202 -40.235  97.253  1.00  0.00    -0.084 Cl
BRANCH  27  32
ATOM     32  C   UNL     1      42.756 -39.003 102.277  1.00  0.00     0.337 C 
ATOM     33  O   UNL     1      43.156 -38.954 103.428  1.00  0.00    -0.246 OA
BRANCH  32  34
ATOM     34  O   UNL     1      41.842 -38.130 101.821  1.00  0.00    -0.478 OA
ATOM     35  H   UNL     1      41.646 -37.545 102.583  1.00  0.00     0.297 HD
ENDBRANCH  32  34
ENDBRANCH  27  32
ENDBRANCH  23  25
ENDBRANCH   5  21
TORSDOF 7
ENDMDL
