MODEL 4
REMARK VINA RESULT:    -7.614      3.724      6.113
REMARK INTER + INTRA:         -10.449
REMARK INTER:                 -10.068
REMARK INTRA:                  -0.381
REMARK UNBOUND:                -0.609
REMARK SMILES CN(c1ncnc2[nH]ccc12)[C@H]1C[C@@H](CS(=O)(=O)N2CC3(CCO3)C2)C1
REMARK SMILES IDX 12 1 26 2 14 3 13 4 2 5 1 6 3 7 4 8 11 9 5 10 10 11 7 12
REMARK SMILES IDX 6 13 9 14 8 15 15 17 16 18 17 19 18 20 19 21 20 22 25 23
REMARK SMILES IDX 21 24 22 25 24 26 23 27
REMARK H PARENT 8 16
ROOT
ATOM      1  C   UNL     1      -4.298  23.843 -29.781  1.00  0.00     0.084 C 
ATOM      2  C   UNL     1      -3.989  22.845 -28.640  1.00  0.00     0.029 C 
ATOM      3  C   UNL     1      -2.986  23.900 -28.090  1.00  0.00     0.009 C 
ATOM      4  C   UNL     1      -2.893  24.442 -29.545  1.00  0.00     0.029 C 
ENDROOT
BRANCH   1   5
ATOM      5  N   UNL     1      -4.488  23.279 -31.096  1.00  0.00    -0.356 N 
ATOM      6  C   UNL     1      -4.380  21.837 -31.311  1.00  0.00     0.145 C 
BRANCH   5   7
ATOM      7  C   UNL     1      -5.299  23.906 -32.073  1.00  0.00     0.141 A 
ATOM      8  N   UNL     1      -5.948  23.145 -33.001  1.00  0.00    -0.219 NA
ATOM      9  C   UNL     1      -5.470  25.307 -32.167  1.00  0.00     0.061 A 
ATOM     10  C   UNL     1      -6.739  23.740 -33.914  1.00  0.00     0.226 A 
ATOM     11  C   UNL     1      -4.961  26.467 -31.509  1.00  0.00     0.033 A 
ATOM     12  C   UNL     1      -6.315  25.774 -33.164  1.00  0.00     0.142 A 
ATOM     13  N   UNL     1      -6.989  25.047 -34.065  1.00  0.00    -0.218 NA
ATOM     14  C   UNL     1      -5.530  27.578 -32.095  1.00  0.00     0.085 A 
ATOM     15  N   UNL     1      -6.354  27.140 -33.097  1.00  0.00    -0.346 N 
ATOM     16  H   UNL     1      -6.904  27.714 -33.720  1.00  0.00     0.167 HD
ENDBRANCH   5   7
ENDBRANCH   1   5
BRANCH   3  17
ATOM     17  C   UNL     1      -1.733  23.316 -27.465  1.00  0.00     0.158 C 
BRANCH  17  18
ATOM     18  S   UNL     1      -0.988  24.427 -26.277  1.00  0.00     0.214 S 
ATOM     19  O   UNL     1       0.427  24.522 -26.568  1.00  0.00    -0.212 OA
ATOM     20  O   UNL     1      -1.804  25.616 -26.156  1.00  0.00    -0.212 OA
BRANCH  18  21
ATOM     21  N   UNL     1      -1.136  23.546 -24.833  1.00  0.00    -0.196 NA
ATOM     22  C   UNL     1      -0.368  23.934 -23.592  1.00  0.00     0.139 C 
ATOM     23  C   UNL     1      -0.618  22.139 -24.666  1.00  0.00     0.139 C 
ATOM     24  C   UNL     1       0.411  22.630 -23.661  1.00  0.00     0.098 C 
ATOM     25  C   UNL     1       1.836  22.724 -24.147  1.00  0.00     0.067 C 
ATOM     26  O   UNL     1       0.760  21.883 -22.488  1.00  0.00    -0.372 OA
ATOM     27  C   UNL     1       2.168  22.034 -22.819  1.00  0.00     0.164 C 
ENDBRANCH  18  21
ENDBRANCH  17  18
ENDBRANCH   3  17
TORSDOF 5
ENDMDL
