REMARK SMILES Cc1oc(-c2ccccc2)nc1CCOc1ccc(CCC(=O)O)c(CNC(=O)OC(C)C)c1
REMARK SMILES IDX 16 1 17 2 18 3 19 4 25 5 34 6 15 7 14 8 13 9 12 10 2 11 3 12
REMARK SMILES IDX 4 13 11 14 1 15 5 16 6 17 10 18 7 19 9 20 8 21 26 22 27 23
REMARK SMILES IDX 28 24 29 25 30 27 31 28 32 29 33 30 20 31 21 32 22 33 23 34
REMARK SMILES IDX 24 35
REMARK H PARENT 27 26 24 36
REMARK INDEX MAP 16 1 17 2 18 3 19 4 25 5 34 6 15 7 14 8 13 9 12 10 2 11 3 12
REMARK INDEX MAP 4 13 11 14 1 15 5 16 6 17 10 18 7 19 9 20 8 21 26 22 27 23
REMARK INDEX MAP 28 24 29 25 56 26 30 27 31 28 32 29 33 30 20 31 21 32 22 33
REMARK INDEX MAP 23 34 24 35 53 36
ROOT
ATOM      1  C   UNL     1       7.213  10.036  -5.274  1.00  0.00     0.119 A 
ATOM      2  C   UNL     1       6.848  10.517  -4.021  1.00  0.00     0.047 A 
ATOM      3  C   UNL     1       5.742   9.990  -3.353  1.00  0.00     0.008 A 
ATOM      4  C   UNL     1       4.977   8.952  -3.915  1.00  0.00    -0.042 A 
ATOM      5  C   UNL     1       5.325   8.480  -5.201  1.00  0.00    -0.022 A 
ATOM      6  C   UNL     1       6.456   9.021  -5.856  1.00  0.00     0.052 A 
ENDROOT
BRANCH   1   7
ATOM      7  O   UNL     1       8.318  10.630  -5.815  1.00  0.00    -0.493 OA
BRANCH   7   8
ATOM      8  C   UNL     1       9.373  10.983  -4.914  1.00  0.00     0.236 C 
BRANCH   8   9
ATOM      9  C   UNL     1      10.581  11.444  -5.727  1.00  0.00     0.101 C 
BRANCH   9  10
ATOM     10  C   UNL     1      10.418  11.188  -7.184  1.00  0.00     0.086 A 
ATOM     11  C   UNL     1      10.164  12.072  -8.211  1.00  0.00     0.125 A 
ATOM     12  O   UNL     1      10.099  11.356  -9.373  1.00  0.00    -0.441 OA
ATOM     13  C   UNL     1      10.319  10.059  -8.988  1.00  0.00     0.226 A 
ATOM     14  N   UNL     1      10.513   9.910  -7.690  1.00  0.00    -0.214 NA
ATOM     15  C   UNL     1       9.951  13.525  -8.309  1.00  0.00     0.090 C 
BRANCH  13  16
ATOM     16  C   UNL     1      10.305   9.046 -10.041  1.00  0.00     0.037 A 
ATOM     17  C   UNL     1      10.304   7.686  -9.694  1.00  0.00     0.014 A 
ATOM     18  C   UNL     1      10.293   9.388 -11.402  1.00  0.00     0.014 A 
ATOM     19  C   UNL     1      10.294   6.695 -10.679  1.00  0.00     0.001 A 
ATOM     20  C   UNL     1      10.279   8.397 -12.388  1.00  0.00     0.001 A 
ATOM     21  C   UNL     1      10.281   7.051 -12.026  1.00  0.00     0.000 A 
ENDBRANCH  13  16
ENDBRANCH   9  10
ENDBRANCH   8   9
ENDBRANCH   7   8
ENDBRANCH   1   7
BRANCH   5  22
ATOM     22  C   UNL     1       4.550   7.404  -5.927  1.00  0.00     0.155 C 
BRANCH  22  23
ATOM     23  N   UNL     1       5.413   6.403  -6.489  1.00  0.00    -0.317 N 
ATOM     24  C   UNL     1       5.987   5.433  -5.733  1.00  0.00     0.407 C 
ATOM     25  O   UNL     1       5.796   5.267  -4.537  1.00  0.00    -0.225 OA
ATOM     26  H   UNL     1       5.603   6.422  -7.501  1.00  0.00     0.167 HD
BRANCH  24  27
ATOM     27  O   UNL     1       6.809   4.687  -6.509  1.00  0.00    -0.447 OA
BRANCH  27  28
ATOM     28  C   UNL     1       8.193   4.656  -6.124  1.00  0.00     0.172 C 
ATOM     29  C   UNL     1       8.998   5.196  -7.300  1.00  0.00     0.053 C 
ATOM     30  C   UNL     1       8.602   3.222  -5.806  1.00  0.00     0.053 C 
ENDBRANCH  27  28
ENDBRANCH  24  27
ENDBRANCH  22  23
ENDBRANCH   5  22
BRANCH   4  31
ATOM     31  C   UNL     1       3.797   8.413  -3.127  1.00  0.00     0.047 C 
BRANCH  31  32
ATOM     32  C   UNL     1       4.146   7.301  -2.132  1.00  0.00     0.127 C 
BRANCH  32  33
ATOM     33  C   UNL     1       3.833   7.676  -0.709  1.00  0.00     0.303 C 
ATOM     34  O   UNL     1       3.018   7.160   0.037  1.00  0.00    -0.252 OA
BRANCH  33  35
ATOM     35  O   UNL     1       4.555   8.741  -0.301  1.00  0.00    -0.481 OA
ATOM     36  H   UNL     1       4.444   9.091   0.618  1.00  0.00     0.296 HD
ENDBRANCH  33  35
ENDBRANCH  32  33
ENDBRANCH  31  32
ENDBRANCH   4  31
TORSDOF 13
