MODEL 4
REMARK VINA RESULT:    -7.938      3.086      4.099
REMARK INTER + INTRA:          -9.777
REMARK INTER:                  -9.146
REMARK INTRA:                  -0.631
REMARK UNBOUND:                 0.018
REMARK SMILES Nc1ncnc2c1c(-c1ccc(Cl)c(O)c1)nn2C[C@@H]1CCC[NH2+]C1
REMARK SMILES IDX 2 1 3 2 4 3 5 4 6 5 7 6 8 7 17 8 18 9 1 10 9 13 16 14 10 15
REMARK SMILES IDX 14 16 11 17 12 18 13 19 15 20 19 22 20 23 25 24 21 25 24 26
REMARK SMILES IDX 22 27 23 28
REMARK H PARENT 1 11 1 12 15 21 24 29 24 30
ROOT
ATOM      1  C   UNL     1      50.259   0.286 -49.694  1.00  0.00     0.138 A 
ATOM      2  N   UNL     1      50.591   0.641 -50.962  1.00  0.00    -0.219 NA
ATOM      3  C   UNL     1      50.016  -0.061 -51.973  1.00  0.00     0.226 A 
ATOM      4  N   UNL     1      49.142  -1.098 -51.873  1.00  0.00    -0.217 NA
ATOM      5  C   UNL     1      48.839  -1.406 -50.606  1.00  0.00     0.163 A 
ATOM      6  C   UNL     1      49.344  -0.761 -49.450  1.00  0.00     0.089 A 
ATOM      7  C   UNL     1      48.721  -1.447 -48.349  1.00  0.00     0.106 A 
ATOM      8  N   UNL     1      47.967  -2.427 -48.798  1.00  0.00    -0.170 NA
ATOM      9  N   UNL     1      48.000  -2.402 -50.146  1.00  0.00    -0.246 N 
ENDROOT
BRANCH   1  10
ATOM     10  N   UNL     1      50.885   0.981 -48.662  1.00  0.00    -0.383 N 
ATOM     11  H   UNL     1      51.178   1.936 -48.809  1.00  0.00     0.158 HD
ATOM     12  H   UNL     1      51.025   0.521 -47.773  1.00  0.00     0.158 HD
ENDBRANCH   1  10
BRANCH   7  13
ATOM     13  C   UNL     1      48.828  -1.183 -46.882  1.00  0.00     0.007 A 
ATOM     14  C   UNL     1      50.068  -1.240 -46.235  1.00  0.00     0.058 A 
ATOM     15  C   UNL     1      47.685  -0.893 -46.128  1.00  0.00     0.012 A 
ATOM     16  C   UNL     1      50.169  -1.011 -44.862  1.00  0.00     0.134 A 
ATOM     17  C   UNL     1      47.779  -0.664 -44.756  1.00  0.00     0.025 A 
ATOM     18  C   UNL     1      49.018  -0.723 -44.117  1.00  0.00     0.082 A 
ATOM     19  Cl  UNL     1      49.101  -0.433 -42.414  1.00  0.00    -0.080 Cl
BRANCH  16  20
ATOM     20  O   UNL     1      51.402  -1.071 -44.262  1.00  0.00    -0.506 OA
ATOM     21  H   UNL     1      51.948  -1.788 -44.590  1.00  0.00     0.293 HD
ENDBRANCH  16  20
ENDBRANCH   7  13
BRANCH   9  22
ATOM     22  C   UNL     1      47.259  -3.405 -50.908  1.00  0.00     0.156 C 
BRANCH  22  23
ATOM     23  C   UNL     1      46.035  -3.938 -50.122  1.00  0.00     0.066 C 
ATOM     24  C   UNL     1      44.679  -3.549 -50.770  1.00  0.00     0.265 C 
ATOM     25  C   UNL     1      46.121  -5.472 -49.947  1.00  0.00     0.017 C 
ATOM     26  N   UNL     1      43.509  -4.102 -49.931  1.00  0.00    -0.346 N 
ATOM     27  C   UNL     1      44.943  -6.010 -49.115  1.00  0.00     0.062 C 
ATOM     28  C   UNL     1      43.584  -5.629 -49.735  1.00  0.00     0.260 C 
ATOM     29  H   UNL     1      42.633  -3.862 -50.375  1.00  0.00     0.346 HD
ATOM     30  H   UNL     1      43.513  -3.653 -49.025  1.00  0.00     0.346 HD
ENDBRANCH  22  23
ENDBRANCH   9  22
TORSDOF 5
ENDMDL
