REMARK VINA RESULT:    -8.265      3.292     10.319
REMARK INTER + INTRA:         -14.312
REMARK INTER:                 -13.584
REMARK INTRA:                  -0.728
REMARK UNBOUND:                -1.457
REMARK SMILES CC[C@@H](Cc1cc(CNC(=O)c2ccc([C@]34C[C@H]5C[C@H](C[C@H](C5)C3)C4)cc2)c(OC)cc1F)C(=O)O
REMARK SMILES IDX 5 1 6 2 7 3 28 4 31 5 32 6 33 7 4 8 3 9 2 10 1 11 34 12
REMARK SMILES IDX 35 13 36 14 8 16 9 17 10 18 11 19 12 21 13 22 27 23 14 24
REMARK SMILES IDX 26 25 15 26 16 27 25 28 24 29 17 30 20 31 22 32 18 33 19 34
REMARK SMILES IDX 21 35 23 36 29 37 30 38
REMARK H PARENT 36 15 9 20
ROOT
ATOM      1  C   UNL     1       3.865   5.683  -4.012  1.00  0.00    -0.011 A 
ATOM      2  C   UNL     1       5.049   5.110  -4.487  1.00  0.00     0.016 A 
ATOM      3  C   UNL     1       5.927   5.830  -5.316  1.00  0.00     0.014 A 
ATOM      4  C   UNL     1       5.606   7.149  -5.688  1.00  0.00     0.126 A 
ATOM      5  C   UNL     1       4.409   7.713  -5.243  1.00  0.00     0.086 A 
ATOM      6  C   UNL     1       3.559   6.983  -4.414  1.00  0.00     0.130 A 
ATOM      7  F   UNL     1       2.430   7.564  -3.983  1.00  0.00    -0.207 F 
ENDROOT
BRANCH   1   8
ATOM      8  C   UNL     1       2.978   4.923  -3.054  1.00  0.00     0.054 C 
BRANCH   8   9
ATOM      9  C   UNL     1       3.279   5.157  -1.558  1.00  0.00     0.103 C 
BRANCH   9  10
ATOM     10  C   UNL     1       3.111   6.631  -1.148  1.00  0.00     0.012 C 
ATOM     11  C   UNL     1       2.701   6.787   0.313  1.00  0.00     0.005 C 
ENDBRANCH   9  10
BRANCH   9  12
ATOM     12  C   UNL     1       4.657   4.628  -1.201  1.00  0.00     0.306 C 
ATOM     13  O   UNL     1       5.705   5.254  -1.172  1.00  0.00    -0.252 OA
BRANCH  12  14
ATOM     14  O   UNL     1       4.631   3.312  -0.882  1.00  0.00    -0.481 OA
ATOM     15  H   UNL     1       4.201   2.887  -1.659  1.00  0.00     0.296 HD
ENDBRANCH  12  14
ENDBRANCH   9  12
ENDBRANCH   8   9
ENDBRANCH   1   8
BRANCH   3  16
ATOM     16  C   UNL     1       7.240   5.187  -5.692  1.00  0.00     0.156 C 
BRANCH  16  17
ATOM     17  N   UNL     1       7.784   5.831  -6.868  1.00  0.00    -0.348 N 
ATOM     18  C   UNL     1       9.116   5.746  -7.210  1.00  0.00     0.251 C 
ATOM     19  O   UNL     1       9.936   5.097  -6.560  1.00  0.00    -0.269 OA
ATOM     20  H   UNL     1       7.174   6.487  -7.327  1.00  0.00     0.164 HD
BRANCH  18  21
ATOM     21  C   UNL     1       9.556   6.519  -8.413  1.00  0.00     0.039 A 
ATOM     22  C   UNL     1       9.420   7.909  -8.391  1.00  0.00     0.014 A 
ATOM     23  C   UNL     1      10.109   5.921  -9.548  1.00  0.00     0.014 A 
ATOM     24  C   UNL     1       9.811   8.682  -9.492  1.00  0.00     0.005 A 
ATOM     25  C   UNL     1      10.492   6.699 -10.652  1.00  0.00     0.005 A 
ATOM     26  C   UNL     1      10.346   8.095 -10.653  1.00  0.00    -0.042 A 
BRANCH  26  27
ATOM     27  C   UNL     1      10.759   8.975 -11.847  1.00  0.00    -0.004 C 
ATOM     28  C   UNL     1       9.611   9.220 -12.874  1.00  0.00     0.015 C 
ATOM     29  C   UNL     1      11.240  10.374 -11.356  1.00  0.00     0.015 C 
ATOM     30  C   UNL     1      11.931   8.298 -12.617  1.00  0.00     0.015 C 
ATOM     31  C   UNL     1      10.077  10.098 -14.048  1.00  0.00    -0.010 C 
ATOM     32  C   UNL     1      11.715  11.247 -12.531  1.00  0.00    -0.010 C 
ATOM     33  C   UNL     1      12.401   9.175 -13.792  1.00  0.00    -0.010 C 
ATOM     34  C   UNL     1      11.237   9.394 -14.768  1.00  0.00     0.007 C 
ATOM     35  C   UNL     1      10.553  11.454 -13.510  1.00  0.00     0.007 C 
ATOM     36  C   UNL     1      12.872  10.536 -13.253  1.00  0.00     0.007 C 
ENDBRANCH  26  27
ENDBRANCH  18  21
ENDBRANCH  16  17
ENDBRANCH   3  16
BRANCH   4  37
ATOM     37  O   UNL     1       6.529   7.793  -6.469  1.00  0.00    -0.496 OA
ATOM     38  C   UNL     1       6.868   9.130  -6.113  1.00  0.00     0.278 C 
ENDBRANCH   4  37
TORSDOF 10
