MODEL 5
REMARK VINA RESULT:    -9.925      2.908      6.674
REMARK INTER + INTRA:         -15.222
REMARK INTER:                 -13.450
REMARK INTRA:                  -1.771
REMARK UNBOUND:                -1.815
REMARK SMILES Cc1cc(Nc2ncnc3cccc(O[C@@H]4CCN(C)CC4(F)F)c23)ccc1Oc1ccc2ccnn2c1
REMARK SMILES IDX 6 1 7 2 8 3 9 4 10 5 11 6 12 7 13 8 14 9 25 10 5 11 4 13
REMARK SMILES IDX 2 14 28 15 3 16 27 17 26 18 1 19 29 20 30 21 38 22 31 23
REMARK SMILES IDX 37 24 32 25 33 26 36 27 34 28 35 29 15 30 16 31 22 32 17 33
REMARK SMILES IDX 21 34 18 35 19 36 23 37 24 38 20 39
REMARK H PARENT 5 12
ROOT
ATOM      1  C   UNL     1      16.226   2.873  26.006  1.00  0.00     0.145 A 
ATOM      2  N   UNL     1      17.151   3.181  25.060  1.00  0.00    -0.218 NA
ATOM      3  C   UNL     1      17.998   2.199  24.688  1.00  0.00     0.224 A 
ATOM      4  N   UNL     1      18.021   0.931  25.154  1.00  0.00    -0.236 NA
ATOM      5  C   UNL     1      17.092   0.609  26.097  1.00  0.00     0.080 A 
ATOM      6  C   UNL     1      17.096  -0.712  26.596  1.00  0.00     0.029 A 
ATOM      7  C   UNL     1      16.171  -1.096  27.555  1.00  0.00     0.006 A 
ATOM      8  C   UNL     1      15.233  -0.193  28.037  1.00  0.00     0.047 A 
ATOM      9  C   UNL     1      15.179   1.132  27.575  1.00  0.00     0.133 A 
ATOM     10  C   UNL     1      16.129   1.556  26.583  1.00  0.00     0.085 A 
ENDROOT
BRANCH   1  11
ATOM     11  N   UNL     1      15.333   3.896  26.379  1.00  0.00    -0.339 N 
ATOM     12  H   UNL     1      15.186   3.949  27.377  1.00  0.00     0.168 HD
BRANCH  11  13
ATOM     13  C   UNL     1      14.629   4.876  25.657  1.00  0.00     0.040 A 
ATOM     14  C   UNL     1      14.283   7.154  24.869  1.00  0.00    -0.006 A 
ATOM     15  C   UNL     1      13.121   6.744  24.201  1.00  0.00     0.130 A 
ATOM     16  C   UNL     1      15.027   6.219  25.596  1.00  0.00     0.033 A 
ATOM     17  C   UNL     1      12.708   5.412  24.280  1.00  0.00     0.049 A 
ATOM     18  C   UNL     1      13.456   4.486  25.007  1.00  0.00     0.030 A 
ATOM     19  C   UNL     1      14.736   8.603  24.811  1.00  0.00     0.048 C 
BRANCH  15  20
ATOM     20  O   UNL     1      12.379   7.645  23.474  1.00  0.00    -0.455 OA
BRANCH  20  21
ATOM     21  C   UNL     1      11.185   8.135  23.966  1.00  0.00     0.145 A 
ATOM     22  C   UNL     1      10.277   8.642  23.037  1.00  0.00     0.160 A 
ATOM     23  C   UNL     1      10.832   8.129  25.326  1.00  0.00     0.051 A 
ATOM     24  N   UNL     1       9.073   9.127  23.472  1.00  0.00    -0.237 N 
ATOM     25  C   UNL     1       9.602   8.627  25.765  1.00  0.00     0.032 A 
ATOM     26  C   UNL     1       8.691   9.141  24.825  1.00  0.00     0.066 A 
ATOM     27  N   UNL     1       8.116   9.643  22.666  1.00  0.00    -0.176 NA
ATOM     28  C   UNL     1       7.398   9.716  24.817  1.00  0.00     0.050 A 
ATOM     29  C   UNL     1       7.136   9.984  23.475  1.00  0.00     0.136 A 
ENDBRANCH  20  21
ENDBRANCH  15  20
ENDBRANCH  11  13
ENDBRANCH   1  11
BRANCH   9  30
ATOM     30  O   UNL     1      14.254   2.054  28.041  1.00  0.00    -0.483 OA
BRANCH  30  31
ATOM     31  C   UNL     1      13.109   1.667  28.806  1.00  0.00     0.245 C 
ATOM     32  C   UNL     1      13.305   2.090  30.277  1.00  0.00     0.296 C 
ATOM     33  C   UNL     1      11.804   2.300  28.272  1.00  0.00     0.067 C 
ATOM     34  C   UNL     1      12.059   1.724  31.119  1.00  0.00     0.165 C 
ATOM     35  C   UNL     1      10.598   1.928  29.161  1.00  0.00     0.088 C 
ATOM     36  N   UNL     1      10.822   2.296  30.567  1.00  0.00    -0.300 NA
ATOM     37  F   UNL     1      14.371   1.472  30.789  1.00  0.00    -0.201 F 
ATOM     38  F   UNL     1      13.521   3.406  30.352  1.00  0.00    -0.201 F 
ATOM     39  C   UNL     1       9.673   1.928  31.387  1.00  0.00     0.105 C 
ENDBRANCH  30  31
ENDBRANCH   9  30
TORSDOF 6
ENDMDL
