MODEL 1
REMARK VINA RESULT:    -9.645      0.000      0.000
REMARK INTER + INTRA:         -19.493
REMARK INTER:                 -17.257
REMARK INTRA:                  -2.236
REMARK UNBOUND:                -2.236
REMARK SMILES CCCc1cc(C(=O)c2ccc(OC)cc2)ccc1OCCCn1ccc2cc(OC(C)(C)C(=O)O)ccc21
REMARK SMILES IDX 22 1 21 2 20 3 19 4 4 5 5 6 6 7 18 8 17 9 3 10 2 11 1 12
REMARK SMILES IDX 7 13 8 14 9 15 10 16 16 17 11 18 15 19 12 20 13 21 14 22
REMARK SMILES IDX 23 23 24 24 25 25 39 26 26 27 38 28 27 29 37 30 28 31 29 32
REMARK SMILES IDX 30 33 31 34 32 35 33 36 34 37 35 38 36 39
REMARK H PARENT 36 40
ROOT
ATOM      1  C   UNL     1      38.839 -38.517 108.417  1.00  0.00     0.063 C 
ENDROOT
BRANCH   1   2
ATOM      2  C   UNL     1      39.509 -39.798 107.920  1.00  0.00     0.231 C 
BRANCH   2   3
ATOM      3  O   UNL     1      40.828 -39.477 107.480  1.00  0.00    -0.493 OA
BRANCH   3   4
ATOM      4  C   UNL     1      41.042 -39.340 106.135  1.00  0.00     0.122 A 
ATOM      5  C   UNL     1      42.179 -38.592 105.769  1.00  0.00    -0.005 A 
ATOM      6  C   UNL     1      42.479 -38.415 104.407  1.00  0.00     0.019 A 
ATOM      7  C   UNL     1      41.669 -38.983 103.419  1.00  0.00     0.023 A 
ATOM      8  C   UNL     1      40.223 -39.884 105.139  1.00  0.00     0.047 A 
ATOM      9  C   UNL     1      40.531 -39.703 103.787  1.00  0.00     0.016 A 
BRANCH   5  10
ATOM     10  C   UNL     1      43.082 -37.957 106.806  1.00  0.00     0.039 C 
BRANCH  10  11
ATOM     11  C   UNL     1      44.265 -38.838 107.222  1.00  0.00     0.001 C 
ATOM     12  C   UNL     1      44.391 -39.007 108.729  1.00  0.00     0.004 C 
ENDBRANCH  10  11
ENDBRANCH   5  10
BRANCH   7  13
ATOM     13  C   UNL     1      42.027 -38.761 101.998  1.00  0.00     0.193 C 
ATOM     14  O   UNL     1      41.643 -37.735 101.442  1.00  0.00    -0.289 OA
BRANCH  13  15
ATOM     15  C   UNL     1      42.846 -39.742 101.239  1.00  0.00     0.023 A 
ATOM     16  C   UNL     1      42.849 -39.783  99.841  1.00  0.00     0.016 A 
ATOM     17  C   UNL     1      43.589 -40.687 101.958  1.00  0.00     0.016 A 
ATOM     18  C   UNL     1      43.615 -40.743  99.177  1.00  0.00     0.047 A 
ATOM     19  C   UNL     1      44.353 -41.648 101.286  1.00  0.00     0.047 A 
ATOM     20  C   UNL     1      44.369 -41.680  99.891  1.00  0.00     0.118 A 
BRANCH  20  21
ATOM     21  O   UNL     1      45.065 -42.563  99.114  1.00  0.00    -0.497 OA
ATOM     22  C   UNL     1      44.811 -42.526  97.714  1.00  0.00     0.278 C 
ENDBRANCH  20  21
ENDBRANCH  13  15
ENDBRANCH   7  13
ENDBRANCH   3   4
ENDBRANCH   2   3
ENDBRANCH   1   2
BRANCH   1  23
ATOM     23  C   UNL     1      37.310 -38.578 108.388  1.00  0.00     0.125 C 
BRANCH  23  24
ATOM     24  N   UNL     1      36.710 -37.585 107.511  1.00  0.00    -0.347 N 
ATOM     25  C   UNL     1      36.056 -36.463 107.952  1.00  0.00     0.087 A 
ATOM     26  C   UNL     1      36.682 -37.643 106.132  1.00  0.00     0.048 A 
ATOM     27  C   UNL     1      35.604 -35.775 106.851  1.00  0.00     0.028 A 
ATOM     28  C   UNL     1      37.183 -38.596 105.230  1.00  0.00     0.031 A 
ATOM     29  C   UNL     1      35.991 -36.507 105.695  1.00  0.00     0.003 A 
ATOM     30  C   UNL     1      36.989 -38.376 103.863  1.00  0.00     0.048 A 
ATOM     31  C   UNL     1      35.807 -36.307 104.313  1.00  0.00     0.056 A 
ATOM     32  C   UNL     1      36.345 -37.230 103.411  1.00  0.00     0.121 A 
BRANCH  32  33
ATOM     33  O   UNL     1      36.114 -37.047 102.074  1.00  0.00    -0.476 OA
BRANCH  33  34
ATOM     34  C   UNL     1      37.034 -36.165 101.406  1.00  0.00     0.199 C 
ATOM     35  C   UNL     1      36.312 -35.753 100.109  1.00  0.00     0.069 C 
ATOM     36  C   UNL     1      37.292 -34.881 102.214  1.00  0.00     0.069 C 
BRANCH  34  37
ATOM     37  C   UNL     1      38.378 -36.796 100.988  1.00  0.00     0.347 C 
ATOM     38  O   UNL     1      38.664 -37.983 100.984  1.00  0.00    -0.248 OA
BRANCH  37  39
ATOM     39  O   UNL     1      39.312 -35.890 100.620  1.00  0.00    -0.478 OA
ATOM     40  H   UNL     1      40.081 -36.100 101.190  1.00  0.00     0.296 HD
ENDBRANCH  37  39
ENDBRANCH  34  37
ENDBRANCH  33  34
ENDBRANCH  32  33
ENDBRANCH  23  24
ENDBRANCH   1  23
TORSDOF 14
ENDMDL
MODEL 2
REMARK VINA RESULT:    -9.625      2.553      5.140
REMARK INTER + INTRA:         -19.457
REMARK INTER:                 -17.504
REMARK INTRA:                  -1.952
REMARK UNBOUND:                -2.236
REMARK SMILES CCCc1cc(C(=O)c2ccc(OC)cc2)ccc1OCCCn1ccc2cc(OC(C)(C)C(=O)O)ccc21
REMARK SMILES IDX 22 1 21 2 20 3 19 4 4 5 5 6 6 7 18 8 17 9 3 10 2 11 1 12
REMARK SMILES IDX 7 13 8 14 9 15 10 16 16 17 11 18 15 19 12 20 13 21 14 22
REMARK SMILES IDX 23 23 24 24 25 25 39 26 26 27 38 28 27 29 37 30 28 31 29 32
REMARK SMILES IDX 30 33 31 34 32 35 33 36 34 37 35 38 36 39
REMARK H PARENT 36 40
ROOT
ATOM      1  C   UNL     1      38.235 -38.098 109.498  1.00  0.00     0.063 C 
ENDROOT
BRANCH   1   2
ATOM      2  C   UNL     1      39.512 -37.524 108.884  1.00  0.00     0.231 C 
BRANCH   2   3
ATOM      3  O   UNL     1      39.983 -38.431 107.888  1.00  0.00    -0.493 OA
BRANCH   3   4
ATOM      4  C   UNL     1      41.230 -38.973 108.050  1.00  0.00     0.122 A 
ATOM      5  C   UNL     1      41.795 -39.561 106.900  1.00  0.00    -0.005 A 
ATOM      6  C   UNL     1      43.078 -40.129 106.976  1.00  0.00     0.019 A 
ATOM      7  C   UNL     1      43.800 -40.101 108.173  1.00  0.00     0.023 A 
ATOM      8  C   UNL     1      41.949 -38.972 109.250  1.00  0.00     0.047 A 
ATOM      9  C   UNL     1      43.227 -39.538 109.314  1.00  0.00     0.016 A 
BRANCH   5  10
ATOM     10  C   UNL     1      41.047 -39.615 105.584  1.00  0.00     0.039 C 
BRANCH  10  11
ATOM     11  C   UNL     1      41.894 -40.115 104.409  1.00  0.00     0.001 C 
ATOM     12  C   UNL     1      41.795 -39.231 103.174  1.00  0.00     0.004 C 
ENDBRANCH  10  11
ENDBRANCH   5  10
BRANCH   7  13
ATOM     13  C   UNL     1      45.148 -40.718 108.200  1.00  0.00     0.193 C 
ATOM     14  O   UNL     1      45.241 -41.935 108.336  1.00  0.00    -0.289 OA
BRANCH  13  15
ATOM     15  C   UNL     1      46.381 -39.901 108.056  1.00  0.00     0.023 A 
ATOM     16  C   UNL     1      46.336 -38.517 107.863  1.00  0.00     0.016 A 
ATOM     17  C   UNL     1      47.619 -40.557 108.059  1.00  0.00     0.016 A 
ATOM     18  C   UNL     1      47.524 -37.799 107.706  1.00  0.00     0.047 A 
ATOM     19  C   UNL     1      48.805 -39.833 107.899  1.00  0.00     0.047 A 
ATOM     20  C   UNL     1      48.763 -38.449 107.721  1.00  0.00     0.118 A 
BRANCH  20  21
ATOM     21  O   UNL     1      49.840 -37.626 107.551  1.00  0.00    -0.497 OA
ATOM     22  C   UNL     1      49.603 -36.226 107.652  1.00  0.00     0.278 C 
ENDBRANCH  20  21
ENDBRANCH  13  15
ENDBRANCH   7  13
ENDBRANCH   3   4
ENDBRANCH   2   3
ENDBRANCH   1   2
BRANCH   1  23
ATOM     23  C   UNL     1      37.322 -38.783 108.478  1.00  0.00     0.125 C 
BRANCH  23  24
ATOM     24  N   UNL     1      36.644 -37.849 107.593  1.00  0.00    -0.347 N 
ATOM     25  C   UNL     1      35.838 -36.827 108.024  1.00  0.00     0.087 A 
ATOM     26  C   UNL     1      36.684 -37.875 106.213  1.00  0.00     0.048 A 
ATOM     27  C   UNL     1      35.354 -36.171 106.917  1.00  0.00     0.028 A 
ATOM     28  C   UNL     1      37.339 -38.737 105.318  1.00  0.00     0.031 A 
ATOM     29  C   UNL     1      35.879 -36.821 105.767  1.00  0.00     0.003 A 
ATOM     30  C   UNL     1      37.181 -38.508 103.947  1.00  0.00     0.048 A 
ATOM     31  C   UNL     1      35.734 -36.611 104.382  1.00  0.00     0.056 A 
ATOM     32  C   UNL     1      36.420 -37.438 103.488  1.00  0.00     0.121 A 
BRANCH  32  33
ATOM     33  O   UNL     1      36.229 -37.251 102.146  1.00  0.00    -0.476 OA
BRANCH  33  34
ATOM     34  C   UNL     1      37.082 -36.268 101.532  1.00  0.00     0.199 C 
ATOM     35  C   UNL     1      36.286 -35.758 100.317  1.00  0.00     0.069 C 
ATOM     36  C   UNL     1      37.329 -35.063 102.457  1.00  0.00     0.069 C 
BRANCH  34  37
ATOM     37  C   UNL     1      38.428 -36.797 100.995  1.00  0.00     0.347 C 
ATOM     38  O   UNL     1      38.794 -37.961 100.944  1.00  0.00    -0.248 OA
BRANCH  37  39
ATOM     39  O   UNL     1      39.264 -35.822 100.572  1.00  0.00    -0.478 OA
ATOM     40  H   UNL     1      40.044 -35.910 101.159  1.00  0.00     0.296 HD
ENDBRANCH  37  39
ENDBRANCH  34  37
ENDBRANCH  33  34
ENDBRANCH  32  33
ENDBRANCH  23  24
ENDBRANCH   1  23
TORSDOF 14
ENDMDL
MODEL 3
REMARK VINA RESULT:    -9.481      1.660      5.584
REMARK INTER + INTRA:         -19.199
REMARK INTER:                 -18.087
REMARK INTRA:                  -1.112
REMARK UNBOUND:                -2.236
REMARK SMILES CCCc1cc(C(=O)c2ccc(OC)cc2)ccc1OCCCn1ccc2cc(OC(C)(C)C(=O)O)ccc21
REMARK SMILES IDX 22 1 21 2 20 3 19 4 4 5 5 6 6 7 18 8 17 9 3 10 2 11 1 12
REMARK SMILES IDX 7 13 8 14 9 15 10 16 16 17 11 18 15 19 12 20 13 21 14 22
REMARK SMILES IDX 23 23 24 24 25 25 39 26 26 27 38 28 27 29 37 30 28 31 29 32
REMARK SMILES IDX 30 33 31 34 32 35 33 36 34 37 35 38 36 39
REMARK H PARENT 36 40
ROOT
ATOM      1  C   UNL     1      36.148 -37.854 105.702  1.00  0.00     0.063 C 
ENDROOT
BRANCH   1   2
ATOM      2  C   UNL     1      36.187 -38.859 104.551  1.00  0.00     0.231 C 
BRANCH   2   3
ATOM      3  O   UNL     1      36.806 -38.236 103.426  1.00  0.00    -0.493 OA
BRANCH   3   4
ATOM      4  C   UNL     1      38.134 -38.484 103.205  1.00  0.00     0.122 A 
ATOM      5  C   UNL     1      38.695 -37.849 102.078  1.00  0.00    -0.005 A 
ATOM      6  C   UNL     1      40.056 -38.039 101.786  1.00  0.00     0.019 A 
ATOM      7  C   UNL     1      40.856 -38.838 102.609  1.00  0.00     0.023 A 
ATOM      8  C   UNL     1      38.936 -39.302 104.008  1.00  0.00     0.047 A 
ATOM      9  C   UNL     1      40.291 -39.483 103.710  1.00  0.00     0.016 A 
BRANCH   5  10
ATOM     10  C   UNL     1      37.864 -36.978 101.160  1.00  0.00     0.039 C 
BRANCH  10  11
ATOM     11  C   UNL     1      37.752 -35.520 101.620  1.00  0.00     0.001 C 
ATOM     12  C   UNL     1      38.297 -34.524 100.607  1.00  0.00     0.004 C 
ENDBRANCH  10  11
ENDBRANCH   5  10
BRANCH   7  13
ATOM     13  C   UNL     1      42.286 -39.010 102.253  1.00  0.00     0.193 C 
ATOM     14  O   UNL     1      43.144 -38.554 103.003  1.00  0.00    -0.289 OA
BRANCH  13  15
ATOM     15  C   UNL     1      42.699 -39.729 101.019  1.00  0.00     0.023 A 
ATOM     16  C   UNL     1      42.143 -39.438  99.770  1.00  0.00     0.016 A 
ATOM     17  C   UNL     1      43.634 -40.765 101.134  1.00  0.00     0.016 A 
ATOM     18  C   UNL     1      42.547 -40.163  98.646  1.00  0.00     0.047 A 
ATOM     19  C   UNL     1      44.033 -41.489 100.005  1.00  0.00     0.047 A 
ATOM     20  C   UNL     1      43.490 -41.190  98.754  1.00  0.00     0.118 A 
BRANCH  20  21
ATOM     21  O   UNL     1      43.787 -41.817  97.577  1.00  0.00    -0.497 OA
ATOM     22  C   UNL     1      44.961 -42.622  97.555  1.00  0.00     0.278 C 
ENDBRANCH  20  21
ENDBRANCH  13  15
ENDBRANCH   7  13
ENDBRANCH   3   4
ENDBRANCH   2   3
ENDBRANCH   1   2
BRANCH   1  23
ATOM     23  C   UNL     1      35.562 -38.426 106.994  1.00  0.00     0.125 C 
BRANCH  23  24
ATOM     24  N   UNL     1      36.358 -38.123 108.172  1.00  0.00    -0.347 N 
ATOM     25  C   UNL     1      35.884 -37.450 109.269  1.00  0.00     0.087 A 
ATOM     26  C   UNL     1      37.692 -38.434 108.343  1.00  0.00     0.048 A 
ATOM     27  C   UNL     1      36.916 -37.327 110.170  1.00  0.00     0.028 A 
ATOM     28  C   UNL     1      38.611 -39.085 107.503  1.00  0.00     0.031 A 
ATOM     29  C   UNL     1      38.063 -37.944 109.600  1.00  0.00     0.003 A 
ATOM     30  C   UNL     1      39.922 -39.250 107.961  1.00  0.00     0.048 A 
ATOM     31  C   UNL     1      39.389 -38.121 110.039  1.00  0.00     0.056 A 
ATOM     32  C   UNL     1      40.294 -38.808 109.226  1.00  0.00     0.121 A 
BRANCH  32  33
ATOM     33  O   UNL     1      41.591 -38.928 109.647  1.00  0.00    -0.476 OA
BRANCH  33  34
ATOM     34  C   UNL     1      42.587 -38.478 108.711  1.00  0.00     0.199 C 
ATOM     35  C   UNL     1      43.914 -38.536 109.490  1.00  0.00     0.069 C 
ATOM     36  C   UNL     1      42.719 -39.429 107.509  1.00  0.00     0.069 C 
BRANCH  34  37
ATOM     37  C   UNL     1      42.425 -37.027 108.211  1.00  0.00     0.347 C 
ATOM     38  O   UNL     1      41.965 -36.082 108.832  1.00  0.00    -0.248 OA
BRANCH  37  39
ATOM     39  O   UNL     1      42.827 -36.845 106.933  1.00  0.00    -0.478 OA
ATOM     40  H   UNL     1      42.005 -36.598 106.461  1.00  0.00     0.296 HD
ENDBRANCH  37  39
ENDBRANCH  34  37
ENDBRANCH  33  34
ENDBRANCH  32  33
ENDBRANCH  23  24
ENDBRANCH   1  23
TORSDOF 14
ENDMDL
MODEL 4
REMARK VINA RESULT:    -9.367      3.923      7.020
REMARK INTER + INTRA:         -18.996
REMARK INTER:                 -18.085
REMARK INTRA:                  -0.911
REMARK UNBOUND:                -2.236
REMARK SMILES CCCc1cc(C(=O)c2ccc(OC)cc2)ccc1OCCCn1ccc2cc(OC(C)(C)C(=O)O)ccc21
REMARK SMILES IDX 22 1 21 2 20 3 19 4 4 5 5 6 6 7 18 8 17 9 3 10 2 11 1 12
REMARK SMILES IDX 7 13 8 14 9 15 10 16 16 17 11 18 15 19 12 20 13 21 14 22
REMARK SMILES IDX 23 23 24 24 25 25 39 26 26 27 38 28 27 29 37 30 28 31 29 32
REMARK SMILES IDX 30 33 31 34 32 35 33 36 34 37 35 38 36 39
REMARK H PARENT 36 40
ROOT
ATOM      1  C   UNL     1      43.321 -41.366 103.351  1.00  0.00     0.063 C 
ENDROOT
BRANCH   1   2
ATOM      2  C   UNL     1      44.293 -41.803 104.446  1.00  0.00     0.231 C 
BRANCH   2   3
ATOM      3  O   UNL     1      43.773 -41.383 105.707  1.00  0.00    -0.493 OA
BRANCH   3   4
ATOM      4  C   UNL     1      44.529 -40.524 106.459  1.00  0.00     0.122 A 
ATOM      5  C   UNL     1      45.632 -41.099 107.122  1.00  0.00    -0.005 A 
ATOM      6  C   UNL     1      46.467 -40.285 107.905  1.00  0.00     0.019 A 
ATOM      7  C   UNL     1      46.222 -38.913 108.018  1.00  0.00     0.023 A 
ATOM      8  C   UNL     1      44.277 -39.155 106.599  1.00  0.00     0.047 A 
ATOM      9  C   UNL     1      45.116 -38.352 107.378  1.00  0.00     0.016 A 
BRANCH   5  10
ATOM     10  C   UNL     1      45.932 -42.581 107.029  1.00  0.00     0.039 C 
BRANCH  10  11
ATOM     11  C   UNL     1      45.284 -43.417 108.137  1.00  0.00     0.001 C 
ATOM     12  C   UNL     1      44.015 -44.130 107.693  1.00  0.00     0.004 C 
ENDBRANCH  10  11
ENDBRANCH   5  10
BRANCH   7  13
ATOM     13  C   UNL     1      47.132 -38.100 108.861  1.00  0.00     0.193 C 
ATOM     14  O   UNL     1      47.421 -38.504 109.984  1.00  0.00    -0.289 OA
BRANCH  13  15
ATOM     15  C   UNL     1      47.706 -36.819 108.374  1.00  0.00     0.023 A 
ATOM     16  C   UNL     1      47.672 -35.651 109.142  1.00  0.00     0.016 A 
ATOM     17  C   UNL     1      48.247 -36.779 107.083  1.00  0.00     0.016 A 
ATOM     18  C   UNL     1      48.202 -34.465 108.626  1.00  0.00     0.047 A 
ATOM     19  C   UNL     1      48.774 -35.589 106.571  1.00  0.00     0.047 A 
ATOM     20  C   UNL     1      48.753 -34.425 107.342  1.00  0.00     0.118 A 
BRANCH  20  21
ATOM     21  O   UNL     1      49.229 -33.200 106.964  1.00  0.00    -0.497 OA
ATOM     22  C   UNL     1      50.116 -32.549 107.866  1.00  0.00     0.278 C 
ENDBRANCH  20  21
ENDBRANCH  13  15
ENDBRANCH   7  13
ENDBRANCH   3   4
ENDBRANCH   2   3
ENDBRANCH   1   2
BRANCH   1  23
ATOM     23  C   UNL     1      43.020 -39.866 103.364  1.00  0.00     0.125 C 
BRANCH  23  24
ATOM     24  N   UNL     1      41.603 -39.564 103.486  1.00  0.00    -0.347 N 
ATOM     25  C   UNL     1      40.814 -39.981 104.527  1.00  0.00     0.087 A 
ATOM     26  C   UNL     1      40.850 -38.856 102.571  1.00  0.00     0.048 A 
ATOM     27  C   UNL     1      39.535 -39.532 104.297  1.00  0.00     0.028 A 
ATOM     28  C   UNL     1      41.194 -38.258 101.347  1.00  0.00     0.031 A 
ATOM     29  C   UNL     1      39.542 -38.820 103.066  1.00  0.00     0.003 A 
ATOM     30  C   UNL     1      40.189 -37.602 100.629  1.00  0.00     0.048 A 
ATOM     31  C   UNL     1      38.547 -38.155 102.324  1.00  0.00     0.056 A 
ATOM     32  C   UNL     1      38.895 -37.520 101.129  1.00  0.00     0.121 A 
BRANCH  32  33
ATOM     33  O   UNL     1      37.906 -36.921 100.396  1.00  0.00    -0.476 OA
BRANCH  33  34
ATOM     34  C   UNL     1      37.450 -35.652 100.898  1.00  0.00     0.199 C 
ATOM     35  C   UNL     1      36.053 -35.462 100.277  1.00  0.00     0.069 C 
ATOM     36  C   UNL     1      37.273 -35.667 102.426  1.00  0.00     0.069 C 
BRANCH  34  37
ATOM     37  C   UNL     1      38.293 -34.428 100.483  1.00  0.00     0.347 C 
ATOM     38  O   UNL     1      38.263 -33.843  99.411  1.00  0.00    -0.248 OA
BRANCH  37  39
ATOM     39  O   UNL     1      39.160 -34.018 101.436  1.00  0.00    -0.478 OA
ATOM     40  H   UNL     1      39.619 -33.257 101.024  1.00  0.00     0.296 HD
ENDBRANCH  37  39
ENDBRANCH  34  37
ENDBRANCH  33  34
ENDBRANCH  32  33
ENDBRANCH  23  24
ENDBRANCH   1  23
TORSDOF 14
ENDMDL
MODEL 5
REMARK VINA RESULT:    -9.350      4.316      8.494
REMARK INTER + INTRA:         -18.965
REMARK INTER:                 -16.855
REMARK INTRA:                  -2.110
REMARK UNBOUND:                -2.236
REMARK SMILES CCCc1cc(C(=O)c2ccc(OC)cc2)ccc1OCCCn1ccc2cc(OC(C)(C)C(=O)O)ccc21
REMARK SMILES IDX 22 1 21 2 20 3 19 4 4 5 5 6 6 7 18 8 17 9 3 10 2 11 1 12
REMARK SMILES IDX 7 13 8 14 9 15 10 16 16 17 11 18 15 19 12 20 13 21 14 22
REMARK SMILES IDX 23 23 24 24 25 25 39 26 26 27 38 28 27 29 37 30 28 31 29 32
REMARK SMILES IDX 30 33 31 34 32 35 33 36 34 37 35 38 36 39
REMARK H PARENT 36 40
ROOT
ATOM      1  C   UNL     1      46.541 -41.437 106.944  1.00  0.00     0.063 C 
ENDROOT
BRANCH   1   2
ATOM      2  C   UNL     1      47.003 -41.471 108.400  1.00  0.00     0.231 C 
BRANCH   2   3
ATOM      3  O   UNL     1      46.923 -40.148 108.931  1.00  0.00    -0.493 OA
BRANCH   3   4
ATOM      4  C   UNL     1      45.697 -39.539 108.957  1.00  0.00     0.122 A 
ATOM      5  C   UNL     1      45.582 -38.362 108.191  1.00  0.00    -0.005 A 
ATOM      6  C   UNL     1      44.353 -37.682 108.152  1.00  0.00     0.019 A 
ATOM      7  C   UNL     1      43.246 -38.171 108.852  1.00  0.00     0.023 A 
ATOM      8  C   UNL     1      44.591 -40.007 109.675  1.00  0.00     0.047 A 
ATOM      9  C   UNL     1      43.371 -39.325 109.628  1.00  0.00     0.016 A 
BRANCH   5  10
ATOM     10  C   UNL     1      46.756 -37.797 107.419  1.00  0.00     0.039 C 
BRANCH  10  11
ATOM     11  C   UNL     1      47.602 -36.800 108.219  1.00  0.00     0.001 C 
ATOM     12  C   UNL     1      47.918 -35.524 107.451  1.00  0.00     0.004 C 
ENDBRANCH  10  11
ENDBRANCH   5  10
BRANCH   7  13
ATOM     13  C   UNL     1      41.974 -37.412 108.782  1.00  0.00     0.193 C 
ATOM     14  O   UNL     1      42.002 -36.236 108.430  1.00  0.00    -0.289 OA
BRANCH  13  15
ATOM     15  C   UNL     1      40.671 -38.045 109.116  1.00  0.00     0.023 A 
ATOM     16  C   UNL     1      40.097 -39.032 108.309  1.00  0.00     0.016 A 
ATOM     17  C   UNL     1      39.979 -37.589 110.246  1.00  0.00     0.016 A 
ATOM     18  C   UNL     1      38.857 -39.575 108.653  1.00  0.00     0.047 A 
ATOM     19  C   UNL     1      38.736 -38.135 110.584  1.00  0.00     0.047 A 
ATOM     20  C   UNL     1      38.169 -39.132 109.788  1.00  0.00     0.118 A 
BRANCH  20  21
ATOM     21  O   UNL     1      36.966 -39.746 110.001  1.00  0.00    -0.497 OA
ATOM     22  C   UNL     1      35.971 -38.990 110.683  1.00  0.00     0.278 C 
ENDBRANCH  20  21
ENDBRANCH  13  15
ENDBRANCH   7  13
ENDBRANCH   3   4
ENDBRANCH   2   3
ENDBRANCH   1   2
BRANCH   1  23
ATOM     23  C   UNL     1      45.256 -42.228 106.692  1.00  0.00     0.125 C 
BRANCH  23  24
ATOM     24  N   UNL     1      44.316 -41.538 105.823  1.00  0.00    -0.347 N 
ATOM     25  C   UNL     1      43.392 -40.623 106.262  1.00  0.00     0.087 A 
ATOM     26  C   UNL     1      44.193 -41.724 104.461  1.00  0.00     0.048 A 
ATOM     27  C   UNL     1      42.666 -40.199 105.174  1.00  0.00     0.028 A 
ATOM     28  C   UNL     1      44.883 -42.563 103.571  1.00  0.00     0.031 A 
ATOM     29  C   UNL     1      43.160 -40.884 104.031  1.00  0.00     0.003 A 
ATOM     30  C   UNL     1      44.522 -42.532 102.220  1.00  0.00     0.048 A 
ATOM     31  C   UNL     1      42.812 -40.872 102.666  1.00  0.00     0.056 A 
ATOM     32  C   UNL     1      43.527 -41.672 101.770  1.00  0.00     0.121 A 
BRANCH  32  33
ATOM     33  O   UNL     1      43.144 -41.684 100.456  1.00  0.00    -0.476 OA
BRANCH  33  34
ATOM     34  C   UNL     1      43.796 -40.716  99.615  1.00  0.00     0.199 C 
ATOM     35  C   UNL     1      42.648 -39.946  98.936  1.00  0.00     0.069 C 
ATOM     36  C   UNL     1      44.611 -39.698 100.432  1.00  0.00     0.069 C 
BRANCH  34  37
ATOM     37  C   UNL     1      44.673 -41.297  98.486  1.00  0.00     0.347 C 
ATOM     38  O   UNL     1      45.065 -42.449  98.377  1.00  0.00    -0.248 OA
BRANCH  37  39
ATOM     39  O   UNL     1      45.038 -40.384  97.558  1.00  0.00    -0.478 OA
ATOM     40  H   UNL     1      45.998 -40.542  97.438  1.00  0.00     0.296 HD
ENDBRANCH  37  39
ENDBRANCH  34  37
ENDBRANCH  33  34
ENDBRANCH  32  33
ENDBRANCH  23  24
ENDBRANCH   1  23
TORSDOF 14
ENDMDL
MODEL 6
REMARK VINA RESULT:    -9.158      3.841      8.361
REMARK INTER + INTRA:         -18.622
REMARK INTER:                 -17.345
REMARK INTRA:                  -1.276
REMARK UNBOUND:                -2.236
REMARK SMILES CCCc1cc(C(=O)c2ccc(OC)cc2)ccc1OCCCn1ccc2cc(OC(C)(C)C(=O)O)ccc21
REMARK SMILES IDX 22 1 21 2 20 3 19 4 4 5 5 6 6 7 18 8 17 9 3 10 2 11 1 12
REMARK SMILES IDX 7 13 8 14 9 15 10 16 16 17 11 18 15 19 12 20 13 21 14 22
REMARK SMILES IDX 23 23 24 24 25 25 39 26 26 27 38 28 27 29 37 30 28 31 29 32
REMARK SMILES IDX 30 33 31 34 32 35 33 36 34 37 35 38 36 39
REMARK H PARENT 36 40
ROOT
ATOM      1  C   UNL     1      39.249 -37.843 110.421  1.00  0.00     0.063 C 
ENDROOT
BRANCH   1   2
ATOM      2  C   UNL     1      37.867 -38.268 109.927  1.00  0.00     0.231 C 
BRANCH   2   3
ATOM      3  O   UNL     1      37.359 -37.248 109.068  1.00  0.00    -0.493 OA
BRANCH   3   4
ATOM      4  C   UNL     1      37.181 -37.552 107.745  1.00  0.00     0.122 A 
ATOM      5  C   UNL     1      36.270 -36.734 107.046  1.00  0.00    -0.005 A 
ATOM      6  C   UNL     1      36.038 -36.970 105.680  1.00  0.00     0.019 A 
ATOM      7  C   UNL     1      36.712 -37.995 105.010  1.00  0.00     0.023 A 
ATOM      8  C   UNL     1      37.831 -38.592 107.072  1.00  0.00     0.047 A 
ATOM      9  C   UNL     1      37.596 -38.818 105.711  1.00  0.00     0.016 A 
BRANCH   5  10
ATOM     10  C   UNL     1      35.517 -35.614 107.733  1.00  0.00     0.039 C 
BRANCH  10  11
ATOM     11  C   UNL     1      35.979 -34.212 107.322  1.00  0.00     0.001 C 
ATOM     12  C   UNL     1      35.470 -33.787 105.952  1.00  0.00     0.004 C 
ENDBRANCH  10  11
ENDBRANCH   5  10
BRANCH   7  13
ATOM     13  C   UNL     1      36.427 -38.205 103.570  1.00  0.00     0.193 C 
ATOM     14  O   UNL     1      35.659 -39.105 103.241  1.00  0.00    -0.289 OA
BRANCH  13  15
ATOM     15  C   UNL     1      37.039 -37.346 102.523  1.00  0.00     0.023 A 
ATOM     16  C   UNL     1      38.271 -37.654 101.937  1.00  0.00     0.016 A 
ATOM     17  C   UNL     1      36.379 -36.165 102.160  1.00  0.00     0.016 A 
ATOM     18  C   UNL     1      38.815 -36.799 100.976  1.00  0.00     0.047 A 
ATOM     19  C   UNL     1      36.931 -35.311 101.199  1.00  0.00     0.047 A 
ATOM     20  C   UNL     1      38.153 -35.625 100.602  1.00  0.00     0.118 A 
BRANCH  20  21
ATOM     21  O   UNL     1      38.802 -34.881  99.657  1.00  0.00    -0.497 OA
ATOM     22  C   UNL     1      39.204 -33.569 100.036  1.00  0.00     0.278 C 
ENDBRANCH  20  21
ENDBRANCH  13  15
ENDBRANCH   7  13
ENDBRANCH   3   4
ENDBRANCH   2   3
ENDBRANCH   1   2
BRANCH   1  23
ATOM     23  C   UNL     1      40.367 -38.804 110.011  1.00  0.00     0.125 C 
BRANCH  23  24
ATOM     24  N   UNL     1      41.284 -38.239 109.034  1.00  0.00    -0.347 N 
ATOM     25  C   UNL     1      40.971 -37.198 108.198  1.00  0.00     0.087 A 
ATOM     26  C   UNL     1      42.567 -38.682 108.785  1.00  0.00     0.048 A 
ATOM     27  C   UNL     1      42.064 -36.950 107.401  1.00  0.00     0.028 A 
ATOM     28  C   UNL     1      43.319 -39.724 109.353  1.00  0.00     0.031 A 
ATOM     29  C   UNL     1      43.079 -37.878 107.760  1.00  0.00     0.003 A 
ATOM     30  C   UNL     1      44.617 -39.936 108.878  1.00  0.00     0.048 A 
ATOM     31  C   UNL     1      44.389 -38.113 107.297  1.00  0.00     0.056 A 
ATOM     32  C   UNL     1      45.155 -39.118 107.891  1.00  0.00     0.121 A 
BRANCH  32  33
ATOM     33  O   UNL     1      46.407 -39.365 107.395  1.00  0.00    -0.476 OA
BRANCH  33  34
ATOM     34  C   UNL     1      47.477 -38.647 108.037  1.00  0.00     0.199 C 
ATOM     35  C   UNL     1      47.572 -39.260 109.447  1.00  0.00     0.069 C 
ATOM     36  C   UNL     1      48.829 -38.884 107.342  1.00  0.00     0.069 C 
BRANCH  34  37
ATOM     37  C   UNL     1      47.246 -37.133 108.223  1.00  0.00     0.347 C 
ATOM     38  O   UNL     1      47.351 -36.262 107.372  1.00  0.00    -0.248 OA
BRANCH  37  39
ATOM     39  O   UNL     1      46.921 -36.784 109.488  1.00  0.00    -0.478 OA
ATOM     40  H   UNL     1      47.003 -37.621 109.991  1.00  0.00     0.296 HD
ENDBRANCH  37  39
ENDBRANCH  34  37
ENDBRANCH  33  34
ENDBRANCH  32  33
ENDBRANCH  23  24
ENDBRANCH   1  23
TORSDOF 14
ENDMDL
MODEL 7
REMARK VINA RESULT:    -9.001      3.997      8.192
REMARK INTER + INTRA:         -18.340
REMARK INTER:                 -16.865
REMARK INTRA:                  -1.476
REMARK UNBOUND:                -2.236
REMARK SMILES CCCc1cc(C(=O)c2ccc(OC)cc2)ccc1OCCCn1ccc2cc(OC(C)(C)C(=O)O)ccc21
REMARK SMILES IDX 22 1 21 2 20 3 19 4 4 5 5 6 6 7 18 8 17 9 3 10 2 11 1 12
REMARK SMILES IDX 7 13 8 14 9 15 10 16 16 17 11 18 15 19 12 20 13 21 14 22
REMARK SMILES IDX 23 23 24 24 25 25 39 26 26 27 38 28 27 29 37 30 28 31 29 32
REMARK SMILES IDX 30 33 31 34 32 35 33 36 34 37 35 38 36 39
REMARK H PARENT 36 40
ROOT
ATOM      1  C   UNL     1      40.567 -39.569 105.734  1.00  0.00     0.063 C 
ENDROOT
BRANCH   1   2
ATOM      2  C   UNL     1      41.112 -39.542 107.161  1.00  0.00     0.231 C 
BRANCH   2   3
ATOM      3  O   UNL     1      42.224 -40.433 107.238  1.00  0.00    -0.493 OA
BRANCH   3   4
ATOM      4  C   UNL     1      43.438 -39.917 107.604  1.00  0.00     0.122 A 
ATOM      5  C   UNL     1      44.566 -40.540 107.033  1.00  0.00    -0.005 A 
ATOM      6  C   UNL     1      45.850 -40.063 107.345  1.00  0.00     0.019 A 
ATOM      7  C   UNL     1      46.015 -38.970 108.202  1.00  0.00     0.023 A 
ATOM      8  C   UNL     1      43.614 -38.840 108.480  1.00  0.00     0.047 A 
ATOM      9  C   UNL     1      44.896 -38.370 108.783  1.00  0.00     0.016 A 
BRANCH   5  10
ATOM     10  C   UNL     1      44.433 -41.727 106.102  1.00  0.00     0.039 C 
BRANCH  10  11
ATOM     11  C   UNL     1      45.123 -42.997 106.612  1.00  0.00     0.001 C 
ATOM     12  C   UNL     1      44.309 -43.748 107.656  1.00  0.00     0.004 C 
ENDBRANCH  10  11
ENDBRANCH   5  10
BRANCH   7  13
ATOM     13  C   UNL     1      47.392 -38.510 108.503  1.00  0.00     0.193 C 
ATOM     14  O   UNL     1      48.171 -39.284 109.051  1.00  0.00    -0.289 OA
BRANCH  13  15
ATOM     15  C   UNL     1      47.850 -37.141 108.146  1.00  0.00     0.023 A 
ATOM     16  C   UNL     1      47.724 -36.064 109.027  1.00  0.00     0.016 A 
ATOM     17  C   UNL     1      48.371 -36.927 106.864  1.00  0.00     0.016 A 
ATOM     18  C   UNL     1      48.146 -34.792 108.633  1.00  0.00     0.047 A 
ATOM     19  C   UNL     1      48.790 -35.650 106.473  1.00  0.00     0.047 A 
ATOM     20  C   UNL     1      48.679 -34.576 107.357  1.00  0.00     0.118 A 
BRANCH  20  21
ATOM     21  O   UNL     1      49.044 -33.283 107.104  1.00  0.00    -0.497 OA
ATOM     22  C   UNL     1      50.068 -32.731 107.925  1.00  0.00     0.278 C 
ENDBRANCH  20  21
ENDBRANCH  13  15
ENDBRANCH   7  13
ENDBRANCH   3   4
ENDBRANCH   2   3
ENDBRANCH   1   2
BRANCH   1  23
ATOM     23  C   UNL     1      41.324 -40.525 104.809  1.00  0.00     0.125 C 
BRANCH  23  24
ATOM     24  N   UNL     1      41.732 -39.911 103.555  1.00  0.00    -0.347 N 
ATOM     25  C   UNL     1      41.301 -38.683 103.124  1.00  0.00     0.087 A 
ATOM     26  C   UNL     1      42.571 -40.479 102.617  1.00  0.00     0.048 A 
ATOM     27  C   UNL     1      41.871 -38.440 101.896  1.00  0.00     0.028 A 
ATOM     28  C   UNL     1      43.233 -41.717 102.590  1.00  0.00     0.031 A 
ATOM     29  C   UNL     1      42.675 -39.565 101.564  1.00  0.00     0.003 A 
ATOM     30  C   UNL     1      44.025 -42.018 101.477  1.00  0.00     0.048 A 
ATOM     31  C   UNL     1      43.477 -39.890 100.452  1.00  0.00     0.056 A 
ATOM     32  C   UNL     1      44.174 -41.101 100.443  1.00  0.00     0.121 A 
BRANCH  32  33
ATOM     33  O   UNL     1      44.910 -41.423  99.334  1.00  0.00    -0.476 OA
BRANCH  33  34
ATOM     34  C   UNL     1      44.196 -41.376  98.086  1.00  0.00     0.199 C 
ATOM     35  C   UNL     1      44.750 -42.560  97.271  1.00  0.00     0.069 C 
ATOM     36  C   UNL     1      42.688 -41.616  98.275  1.00  0.00     0.069 C 
BRANCH  34  37
ATOM     37  C   UNL     1      44.418 -40.107  97.237  1.00  0.00     0.347 C 
ATOM     38  O   UNL     1      45.484 -39.557  97.000  1.00  0.00    -0.248 OA
BRANCH  37  39
ATOM     39  O   UNL     1      43.276 -39.573  96.749  1.00  0.00    -0.478 OA
ATOM     40  H   UNL     1      43.554 -38.698  96.406  1.00  0.00     0.296 HD
ENDBRANCH  37  39
ENDBRANCH  34  37
ENDBRANCH  33  34
ENDBRANCH  32  33
ENDBRANCH  23  24
ENDBRANCH   1  23
TORSDOF 14
ENDMDL
MODEL 8
REMARK VINA RESULT:    -8.969      1.782      6.057
REMARK INTER + INTRA:         -18.283
REMARK INTER:                 -17.702
REMARK INTRA:                  -0.581
REMARK UNBOUND:                -2.236
REMARK SMILES CCCc1cc(C(=O)c2ccc(OC)cc2)ccc1OCCCn1ccc2cc(OC(C)(C)C(=O)O)ccc21
REMARK SMILES IDX 22 1 21 2 20 3 19 4 4 5 5 6 6 7 18 8 17 9 3 10 2 11 1 12
REMARK SMILES IDX 7 13 8 14 9 15 10 16 16 17 11 18 15 19 12 20 13 21 14 22
REMARK SMILES IDX 23 23 24 24 25 25 39 26 26 27 38 28 27 29 37 30 28 31 29 32
REMARK SMILES IDX 30 33 31 34 32 35 33 36 34 37 35 38 36 39
REMARK H PARENT 36 40
ROOT
ATOM      1  C   UNL     1      36.389 -36.961 105.740  1.00  0.00     0.063 C 
ENDROOT
BRANCH   1   2
ATOM      2  C   UNL     1      35.520 -36.801 104.493  1.00  0.00     0.231 C 
BRANCH   2   3
ATOM      3  O   UNL     1      35.789 -37.889 103.610  1.00  0.00    -0.493 OA
BRANCH   3   4
ATOM      4  C   UNL     1      37.084 -38.085 103.209  1.00  0.00     0.122 A 
ATOM      5  C   UNL     1      37.541 -37.237 102.181  1.00  0.00    -0.005 A 
ATOM      6  C   UNL     1      38.863 -37.363 101.719  1.00  0.00     0.019 A 
ATOM      7  C   UNL     1      39.726 -38.309 102.281  1.00  0.00     0.023 A 
ATOM      8  C   UNL     1      37.947 -39.046 103.748  1.00  0.00     0.047 A 
ATOM      9  C   UNL     1      39.262 -39.162 103.283  1.00  0.00     0.016 A 
BRANCH   5  10
ATOM     10  C   UNL     1      36.639 -36.201 101.543  1.00  0.00     0.039 C 
BRANCH  10  11
ATOM     11  C   UNL     1      37.180 -35.633 100.227  1.00  0.00     0.001 C 
ATOM     12  C   UNL     1      37.927 -34.318 100.398  1.00  0.00     0.004 C 
ENDBRANCH  10  11
ENDBRANCH   5  10
BRANCH   7  13
ATOM     13  C   UNL     1      41.109 -38.404 101.753  1.00  0.00     0.193 C 
ATOM     14  O   UNL     1      41.487 -37.579 100.926  1.00  0.00    -0.289 OA
BRANCH  13  15
ATOM     15  C   UNL     1      42.045 -39.464 102.211  1.00  0.00     0.023 A 
ATOM     16  C   UNL     1      42.778 -40.245 101.313  1.00  0.00     0.016 A 
ATOM     17  C   UNL     1      42.144 -39.717 103.585  1.00  0.00     0.016 A 
ATOM     18  C   UNL     1      43.624 -41.247 101.794  1.00  0.00     0.047 A 
ATOM     19  C   UNL     1      42.991 -40.724 104.062  1.00  0.00     0.047 A 
ATOM     20  C   UNL     1      43.735 -41.494 103.167  1.00  0.00     0.118 A 
BRANCH  20  21
ATOM     21  O   UNL     1      44.593 -42.506 103.496  1.00  0.00    -0.497 OA
ATOM     22  C   UNL     1      45.082 -42.526 104.832  1.00  0.00     0.278 C 
ENDBRANCH  20  21
ENDBRANCH  13  15
ENDBRANCH   7  13
ENDBRANCH   3   4
ENDBRANCH   2   3
ENDBRANCH   1   2
BRANCH   1  23
ATOM     23  C   UNL     1      35.797 -37.916 106.779  1.00  0.00     0.125 C 
BRANCH  23  24
ATOM     24  N   UNL     1      36.520 -37.915 108.040  1.00  0.00    -0.347 N 
ATOM     25  C   UNL     1      35.977 -37.527 109.238  1.00  0.00     0.087 A 
ATOM     26  C   UNL     1      37.844 -38.267 108.209  1.00  0.00     0.048 A 
ATOM     27  C   UNL     1      36.953 -37.635 110.201  1.00  0.00     0.028 A 
ATOM     28  C   UNL     1      38.816 -38.699 107.291  1.00  0.00     0.031 A 
ATOM     29  C   UNL     1      38.136 -38.101 109.567  1.00  0.00     0.003 A 
ATOM     30  C   UNL     1      40.099 -38.980 107.772  1.00  0.00     0.048 A 
ATOM     31  C   UNL     1      39.436 -38.388 110.027  1.00  0.00     0.056 A 
ATOM     32  C   UNL     1      40.392 -38.862 109.125  1.00  0.00     0.121 A 
BRANCH  32  33
ATOM     33  O   UNL     1      41.663 -39.090 109.580  1.00  0.00    -0.476 OA
BRANCH  33  34
ATOM     34  C   UNL     1      42.718 -38.639 108.713  1.00  0.00     0.199 C 
ATOM     35  C   UNL     1      43.995 -38.719 109.570  1.00  0.00     0.069 C 
ATOM     36  C   UNL     1      42.915 -39.576 107.509  1.00  0.00     0.069 C 
BRANCH  34  37
ATOM     37  C   UNL     1      42.601 -37.180 108.223  1.00  0.00     0.347 C 
ATOM     38  O   UNL     1      42.121 -36.236 108.831  1.00  0.00    -0.248 OA
BRANCH  37  39
ATOM     39  O   UNL     1      43.071 -36.989 106.970  1.00  0.00    -0.478 OA
ATOM     40  H   UNL     1      42.614 -37.675 106.440  1.00  0.00     0.296 HD
ENDBRANCH  37  39
ENDBRANCH  34  37
ENDBRANCH  33  34
ENDBRANCH  32  33
ENDBRANCH  23  24
ENDBRANCH   1  23
TORSDOF 14
ENDMDL
MODEL 9
REMARK VINA RESULT:    -8.861      3.619      7.893
REMARK INTER + INTRA:         -18.090
REMARK INTER:                 -17.021
REMARK INTRA:                  -1.069
REMARK UNBOUND:                -2.236
REMARK SMILES CCCc1cc(C(=O)c2ccc(OC)cc2)ccc1OCCCn1ccc2cc(OC(C)(C)C(=O)O)ccc21
REMARK SMILES IDX 22 1 21 2 20 3 19 4 4 5 5 6 6 7 18 8 17 9 3 10 2 11 1 12
REMARK SMILES IDX 7 13 8 14 9 15 10 16 16 17 11 18 15 19 12 20 13 21 14 22
REMARK SMILES IDX 23 23 24 24 25 25 39 26 26 27 38 28 27 29 37 30 28 31 29 32
REMARK SMILES IDX 30 33 31 34 32 35 33 36 34 37 35 38 36 39
REMARK H PARENT 36 40
ROOT
ATOM      1  C   UNL     1      41.448 -38.038 108.453  1.00  0.00     0.063 C 
ENDROOT
BRANCH   1   2
ATOM      2  C   UNL     1      40.173 -38.469 107.730  1.00  0.00     0.231 C 
BRANCH   2   3
ATOM      3  O   UNL     1      40.466 -39.625 106.945  1.00  0.00    -0.493 OA
BRANCH   3   4
ATOM      4  C   UNL     1      40.902 -39.435 105.661  1.00  0.00     0.122 A 
ATOM      5  C   UNL     1      39.895 -39.364 104.677  1.00  0.00    -0.005 A 
ATOM      6  C   UNL     1      40.256 -39.157 103.335  1.00  0.00     0.019 A 
ATOM      7  C   UNL     1      41.598 -39.008 102.973  1.00  0.00     0.023 A 
ATOM      8  C   UNL     1      42.244 -39.310 105.286  1.00  0.00     0.047 A 
ATOM      9  C   UNL     1      42.593 -39.102 103.947  1.00  0.00     0.016 A 
BRANCH   5  10
ATOM     10  C   UNL     1      38.430 -39.522 105.025  1.00  0.00     0.039 C 
BRANCH  10  11
ATOM     11  C   UNL     1      37.477 -38.903 103.997  1.00  0.00     0.001 C 
ATOM     12  C   UNL     1      36.075 -39.495 104.039  1.00  0.00     0.004 C 
ENDBRANCH  10  11
ENDBRANCH   5  10
BRANCH   7  13
ATOM     13  C   UNL     1      41.925 -38.798 101.542  1.00  0.00     0.193 C 
ATOM     14  O   UNL     1      41.498 -37.795 100.976  1.00  0.00    -0.289 OA
BRANCH  13  15
ATOM     15  C   UNL     1      42.762 -39.764 100.784  1.00  0.00     0.023 A 
ATOM     16  C   UNL     1      42.684 -39.883  99.394  1.00  0.00     0.016 A 
ATOM     17  C   UNL     1      43.612 -40.615 101.503  1.00  0.00     0.016 A 
ATOM     18  C   UNL     1      43.474 -40.827  98.733  1.00  0.00     0.047 A 
ATOM     19  C   UNL     1      44.399 -41.561 100.836  1.00  0.00     0.047 A 
ATOM     20  C   UNL     1      44.333 -41.670  99.446  1.00  0.00     0.118 A 
BRANCH  20  21
ATOM     21  O   UNL     1      45.041 -42.548  98.673  1.00  0.00    -0.497 OA
ATOM     22  C   UNL     1      44.854 -42.460  97.265  1.00  0.00     0.278 C 
ENDBRANCH  20  21
ENDBRANCH  13  15
ENDBRANCH   7  13
ENDBRANCH   3   4
ENDBRANCH   2   3
ENDBRANCH   1   2
BRANCH   1  23
ATOM     23  C   UNL     1      42.130 -39.174 109.219  1.00  0.00     0.125 C 
BRANCH  23  24
ATOM     24  N   UNL     1      43.483 -39.447 108.762  1.00  0.00    -0.347 N 
ATOM     25  C   UNL     1      43.850 -40.576 108.076  1.00  0.00     0.087 A 
ATOM     26  C   UNL     1      44.583 -38.640 108.976  1.00  0.00     0.048 A 
ATOM     27  C   UNL     1      45.202 -40.503 107.830  1.00  0.00     0.028 A 
ATOM     28  C   UNL     1      44.719 -37.412 109.644  1.00  0.00     0.031 A 
ATOM     29  C   UNL     1      45.677 -39.287 108.393  1.00  0.00     0.003 A 
ATOM     30  C   UNL     1      45.990 -36.830 109.701  1.00  0.00     0.048 A 
ATOM     31  C   UNL     1      46.947 -38.682 108.464  1.00  0.00     0.056 A 
ATOM     32  C   UNL     1      47.079 -37.439 109.088  1.00  0.00     0.121 A 
BRANCH  32  33
ATOM     33  O   UNL     1      48.328 -36.889 109.191  1.00  0.00    -0.476 OA
BRANCH  33  34
ATOM     34  C   UNL     1      48.743 -36.086 108.072  1.00  0.00     0.199 C 
ATOM     35  C   UNL     1      50.002 -36.788 107.528  1.00  0.00     0.069 C 
ATOM     36  C   UNL     1      47.696 -36.084 106.945  1.00  0.00     0.069 C 
BRANCH  34  37
ATOM     37  C   UNL     1      49.150 -34.635 108.406  1.00  0.00     0.347 C 
ATOM     38  O   UNL     1      49.671 -34.236 109.437  1.00  0.00    -0.248 OA
BRANCH  37  39
ATOM     39  O   UNL     1      48.852 -33.749 107.430  1.00  0.00    -0.478 OA
ATOM     40  H   UNL     1      47.944 -33.453 107.651  1.00  0.00     0.296 HD
ENDBRANCH  37  39
ENDBRANCH  34  37
ENDBRANCH  33  34
ENDBRANCH  32  33
ENDBRANCH  23  24
ENDBRANCH   1  23
TORSDOF 14
ENDMDL
