MODEL 1
REMARK VINA RESULT:    -8.328      0.000      0.000
REMARK INTER + INTRA:         -14.989
REMARK INTER:                 -12.954
REMARK INTRA:                  -2.036
REMARK UNBOUND:                -2.036
REMARK SMILES CC(C)COc1ccc2c(c1)c(Oc1cccc(C(F)(F)F)c1)c(C(=O)O)n2-c1ccc(C(C)(C)C)cc1
REMARK SMILES IDX 6 1 7 2 8 3 9 4 10 5 11 6 12 7 24 8 28 9 5 10 4 11 2 12 1 13
REMARK SMILES IDX 3 14 13 15 14 16 15 17 23 18 16 19 18 20 17 21 19 22 20 23
REMARK SMILES IDX 21 24 22 25 29 26 30 27 38 28 31 29 37 30 32 31 33 32 34 33
REMARK SMILES IDX 35 34 36 35 25 36 26 37 27 38
REMARK H PARENT 27 39
ROOT
ATOM      1  C   UNL     1     -10.772  -8.869 -30.619  1.00  0.00     0.120 A 
ATOM      2  C   UNL     1     -11.103  -7.819 -31.467  1.00  0.00     0.048 A 
ATOM      3  C   UNL     1     -11.720  -6.660 -30.987  1.00  0.00     0.031 A 
ATOM      4  C   UNL     1     -11.992  -6.556 -29.609  1.00  0.00     0.058 A 
ATOM      5  C   UNL     1     -11.733  -7.630 -28.752  1.00  0.00     0.047 A 
ATOM      6  C   UNL     1     -11.090  -8.784 -29.262  1.00  0.00     0.060 A 
ATOM      7  C   UNL     1     -12.222  -7.253 -27.475  1.00  0.00     0.168 A 
ATOM      8  C   UNL     1     -12.701  -5.957 -27.530  1.00  0.00     0.176 A 
ATOM      9  N   UNL     1     -12.572  -5.531 -28.849  1.00  0.00    -0.300 N 
ENDROOT
BRANCH   1  10
ATOM     10  O   UNL     1     -10.156  -9.926 -31.234  1.00  0.00    -0.493 OA
BRANCH  10  11
ATOM     11  C   UNL     1      -8.821 -10.232 -30.828  1.00  0.00     0.232 C 
BRANCH  11  12
ATOM     12  C   UNL     1      -8.036  -8.919 -30.684  1.00  0.00     0.020 C 
ATOM     13  C   UNL     1      -7.041  -8.734 -31.834  1.00  0.00     0.011 C 
ATOM     14  C   UNL     1      -7.312  -8.874 -29.340  1.00  0.00     0.011 C 
ENDBRANCH  11  12
ENDBRANCH  10  11
ENDBRANCH   1  10
BRANCH   7  15
ATOM     15  O   UNL     1     -12.150  -7.948 -26.314  1.00  0.00    -0.454 OA
BRANCH  15  16
ATOM     16  C   UNL     1     -10.970  -8.046 -25.615  1.00  0.00     0.128 A 
ATOM     17  C   UNL     1      -9.723  -7.791 -26.189  1.00  0.00     0.047 A 
ATOM     18  C   UNL     1     -11.058  -8.484 -24.292  1.00  0.00     0.060 A 
ATOM     19  C   UNL     1      -8.564  -7.940 -25.426  1.00  0.00     0.004 A 
ATOM     20  C   UNL     1      -9.896  -8.651 -23.519  1.00  0.00     0.059 A 
ATOM     21  C   UNL     1      -8.650  -8.362 -24.097  1.00  0.00     0.013 A 
BRANCH  20  22
ATOM     22  C   UNL     1      -9.988  -9.100 -22.082  1.00  0.00     0.416 C 
ATOM     23  F   UNL     1      -9.331 -10.268 -21.838  1.00  0.00    -0.166 F 
ATOM     24  F   UNL     1      -9.467  -8.193 -21.208  1.00  0.00    -0.166 F 
ATOM     25  F   UNL     1     -11.275  -9.305 -21.687  1.00  0.00    -0.166 F 
ENDBRANCH  20  22
ENDBRANCH  15  16
ENDBRANCH   7  15
BRANCH   9  26
ATOM     26  C   UNL     1     -13.000  -4.273 -29.373  1.00  0.00     0.047 A 
ATOM     27  C   UNL     1     -12.059  -3.311 -29.746  1.00  0.00     0.027 A 
ATOM     28  C   UNL     1     -14.360  -3.996 -29.530  1.00  0.00     0.027 A 
ATOM     29  C   UNL     1     -12.480  -2.090 -30.283  1.00  0.00     0.006 A 
ATOM     30  C   UNL     1     -14.772  -2.769 -30.069  1.00  0.00     0.006 A 
ATOM     31  C   UNL     1     -13.844  -1.791 -30.460  1.00  0.00    -0.042 A 
BRANCH  31  32
ATOM     32  C   UNL     1     -14.264  -0.439 -31.064  1.00  0.00    -0.013 C 
ATOM     33  C   UNL     1     -15.333  -0.674 -32.153  1.00  0.00     0.016 C 
ATOM     34  C   UNL     1     -13.040   0.258 -31.697  1.00  0.00     0.016 C 
ATOM     35  C   UNL     1     -14.866   0.545 -30.035  1.00  0.00     0.016 C 
ENDBRANCH  31  32
ENDBRANCH   9  26
BRANCH   8  36
ATOM     36  C   UNL     1     -13.148  -5.150 -26.433  1.00  0.00     0.356 C 
ATOM     37  O   UNL     1     -12.974  -3.956 -26.249  1.00  0.00    -0.244 OA
BRANCH  36  38
ATOM     38  O   UNL     1     -13.866  -5.870 -25.546  1.00  0.00    -0.476 OA
ATOM     39  H   UNL     1     -13.610  -6.792 -25.744  1.00  0.00     0.297 HD
ENDBRANCH  36  38
ENDBRANCH   8  36
TORSDOF 10
ENDMDL
MODEL 2
REMARK VINA RESULT:    -8.283      3.735      7.857
REMARK INTER + INTRA:         -14.919
REMARK INTER:                 -12.941
REMARK INTRA:                  -1.978
REMARK UNBOUND:                -2.036
REMARK SMILES CC(C)COc1ccc2c(c1)c(Oc1cccc(C(F)(F)F)c1)c(C(=O)O)n2-c1ccc(C(C)(C)C)cc1
REMARK SMILES IDX 6 1 7 2 8 3 9 4 10 5 11 6 12 7 24 8 28 9 5 10 4 11 2 12 1 13
REMARK SMILES IDX 3 14 13 15 14 16 15 17 23 18 16 19 18 20 17 21 19 22 20 23
REMARK SMILES IDX 21 24 22 25 29 26 30 27 38 28 31 29 37 30 32 31 33 32 34 33
REMARK SMILES IDX 35 34 36 35 25 36 26 37 27 38
REMARK H PARENT 27 39
ROOT
ATOM      1  C   UNL     1      -9.764  -8.557 -31.182  1.00  0.00     0.120 A 
ATOM      2  C   UNL     1      -9.095  -9.133 -30.108  1.00  0.00     0.048 A 
ATOM      3  C   UNL     1      -9.404  -8.792 -28.788  1.00  0.00     0.031 A 
ATOM      4  C   UNL     1     -10.430  -7.856 -28.550  1.00  0.00     0.058 A 
ATOM      5  C   UNL     1     -11.064  -7.213 -29.617  1.00  0.00     0.047 A 
ATOM      6  C   UNL     1     -10.745  -7.592 -30.944  1.00  0.00     0.060 A 
ATOM      7  C   UNL     1     -11.947  -6.260 -29.046  1.00  0.00     0.168 A 
ATOM      8  C   UNL     1     -11.910  -6.368 -27.668  1.00  0.00     0.176 A 
ATOM      9  N   UNL     1     -10.963  -7.342 -27.360  1.00  0.00    -0.300 N 
ENDROOT
BRANCH   1  10
ATOM     10  O   UNL     1      -9.363  -9.007 -32.411  1.00  0.00    -0.493 OA
BRANCH  10  11
ATOM     11  C   UNL     1      -7.995  -9.396 -32.550  1.00  0.00     0.232 C 
BRANCH  11  12
ATOM     12  C   UNL     1      -7.351  -8.544 -33.655  1.00  0.00     0.020 C 
ATOM     13  C   UNL     1      -5.829  -8.717 -33.679  1.00  0.00     0.011 C 
ATOM     14  C   UNL     1      -7.716  -7.071 -33.475  1.00  0.00     0.011 C 
ENDBRANCH  11  12
ENDBRANCH  10  11
ENDBRANCH   1  10
BRANCH   7  15
ATOM     15  O   UNL     1     -12.812  -5.435 -29.684  1.00  0.00    -0.454 OA
BRANCH  15  16
ATOM     16  C   UNL     1     -12.457  -4.149 -30.014  1.00  0.00     0.128 A 
ATOM     17  C   UNL     1     -13.313  -3.058 -29.850  1.00  0.00     0.047 A 
ATOM     18  C   UNL     1     -11.199  -3.974 -30.596  1.00  0.00     0.060 A 
ATOM     19  C   UNL     1     -12.895  -1.784 -30.236  1.00  0.00     0.004 A 
ATOM     20  C   UNL     1     -10.775  -2.697 -31.002  1.00  0.00     0.059 A 
ATOM     21  C   UNL     1     -11.632  -1.603 -30.803  1.00  0.00     0.013 A 
BRANCH  20  22
ATOM     22  C   UNL     1      -9.408  -2.499 -31.607  1.00  0.00     0.416 C 
ATOM     23  F   UNL     1      -8.736  -1.435 -31.087  1.00  0.00    -0.166 F 
ATOM     24  F   UNL     1      -8.589  -3.575 -31.435  1.00  0.00    -0.166 F 
ATOM     25  F   UNL     1      -9.466  -2.283 -32.951  1.00  0.00    -0.166 F 
ENDBRANCH  20  22
ENDBRANCH  15  16
ENDBRANCH   7  15
BRANCH   9  26
ATOM     26  C   UNL     1     -10.555  -7.734 -26.050  1.00  0.00     0.047 A 
ATOM     27  C   UNL     1      -9.232  -7.549 -25.642  1.00  0.00     0.027 A 
ATOM     28  C   UNL     1     -11.472  -8.295 -25.158  1.00  0.00     0.027 A 
ATOM     29  C   UNL     1      -8.839  -7.910 -24.349  1.00  0.00     0.006 A 
ATOM     30  C   UNL     1     -11.069  -8.654 -23.864  1.00  0.00     0.006 A 
ATOM     31  C   UNL     1      -9.747  -8.468 -23.429  1.00  0.00    -0.042 A 
BRANCH  31  32
ATOM     32  C   UNL     1      -9.276  -8.843 -22.012  1.00  0.00    -0.013 C 
ATOM     33  C   UNL     1      -8.445 -10.142 -22.075  1.00  0.00     0.016 C 
ATOM     34  C   UNL     1     -10.498  -9.065 -21.095  1.00  0.00     0.016 C 
ATOM     35  C   UNL     1      -8.394  -7.765 -21.342  1.00  0.00     0.016 C 
ENDBRANCH  31  32
ENDBRANCH   9  26
BRANCH   8  36
ATOM     36  C   UNL     1     -12.750  -5.693 -26.722  1.00  0.00     0.356 C 
ATOM     37  O   UNL     1     -13.833  -6.045 -26.283  1.00  0.00    -0.244 OA
BRANCH  36  38
ATOM     38  O   UNL     1     -12.191  -4.544 -26.291  1.00  0.00    -0.476 OA
ATOM     39  H   UNL     1     -12.792  -3.856 -26.637  1.00  0.00     0.297 HD
ENDBRANCH  36  38
ENDBRANCH   8  36
TORSDOF 10
ENDMDL
MODEL 3
REMARK VINA RESULT:    -8.149      3.937      8.814
REMARK INTER + INTRA:         -14.711
REMARK INTER:                 -12.442
REMARK INTRA:                  -2.269
REMARK UNBOUND:                -2.036
REMARK SMILES CC(C)COc1ccc2c(c1)c(Oc1cccc(C(F)(F)F)c1)c(C(=O)O)n2-c1ccc(C(C)(C)C)cc1
REMARK SMILES IDX 6 1 7 2 8 3 9 4 10 5 11 6 12 7 24 8 28 9 5 10 4 11 2 12 1 13
REMARK SMILES IDX 3 14 13 15 14 16 15 17 23 18 16 19 18 20 17 21 19 22 20 23
REMARK SMILES IDX 21 24 22 25 29 26 30 27 38 28 31 29 37 30 32 31 33 32 34 33
REMARK SMILES IDX 35 34 36 35 25 36 26 37 27 38
REMARK H PARENT 27 39
ROOT
ATOM      1  C   UNL     1     -13.390  -3.765 -28.474  1.00  0.00     0.120 A 
ATOM      2  C   UNL     1     -13.201  -3.975 -27.113  1.00  0.00     0.048 A 
ATOM      3  C   UNL     1     -12.446  -5.051 -26.638  1.00  0.00     0.031 A 
ATOM      4  C   UNL     1     -11.852  -5.927 -27.569  1.00  0.00     0.058 A 
ATOM      5  C   UNL     1     -12.090  -5.775 -28.938  1.00  0.00     0.047 A 
ATOM      6  C   UNL     1     -12.843  -4.664 -29.391  1.00  0.00     0.060 A 
ATOM      7  C   UNL     1     -11.457  -6.869 -29.581  1.00  0.00     0.168 A 
ATOM      8  C   UNL     1     -10.787  -7.631 -28.640  1.00  0.00     0.176 A 
ATOM      9  N   UNL     1     -11.042  -7.058 -27.397  1.00  0.00    -0.300 N 
ENDROOT
BRANCH   1  10
ATOM     10  O   UNL     1     -14.136  -2.660 -28.782  1.00  0.00    -0.493 OA
BRANCH  10  11
ATOM     11  C   UNL     1     -14.234  -2.299 -30.160  1.00  0.00     0.232 C 
BRANCH  11  12
ATOM     12  C   UNL     1     -13.332  -1.082 -30.417  1.00  0.00     0.020 C 
ATOM     13  C   UNL     1     -14.053  -0.016 -31.247  1.00  0.00     0.011 C 
ATOM     14  C   UNL     1     -12.039  -1.511 -31.108  1.00  0.00     0.011 C 
ENDBRANCH  11  12
ENDBRANCH  10  11
ENDBRANCH   1  10
BRANCH   7  15
ATOM     15  O   UNL     1     -11.371  -7.122 -30.909  1.00  0.00    -0.454 OA
BRANCH  15  16
ATOM     16  C   UNL     1     -10.305  -6.673 -31.652  1.00  0.00     0.128 A 
ATOM     17  C   UNL     1      -9.451  -7.528 -32.350  1.00  0.00     0.047 A 
ATOM     18  C   UNL     1     -10.060  -5.298 -31.632  1.00  0.00     0.060 A 
ATOM     19  C   UNL     1      -8.370  -7.003 -33.059  1.00  0.00     0.004 A 
ATOM     20  C   UNL     1      -8.966  -4.760 -32.331  1.00  0.00     0.059 A 
ATOM     21  C   UNL     1      -8.132  -5.627 -33.054  1.00  0.00     0.013 A 
BRANCH  20  22
ATOM     22  C   UNL     1      -8.712  -3.273 -32.333  1.00  0.00     0.416 C 
ATOM     23  F   UNL     1      -7.451  -2.942 -32.727  1.00  0.00    -0.166 F 
ATOM     24  F   UNL     1      -9.551  -2.592 -33.163  1.00  0.00    -0.166 F 
ATOM     25  F   UNL     1      -8.876  -2.721 -31.099  1.00  0.00    -0.166 F 
ENDBRANCH  20  22
ENDBRANCH  15  16
ENDBRANCH   7  15
BRANCH   9  26
ATOM     26  C   UNL     1     -10.598  -7.556 -26.134  1.00  0.00     0.047 A 
ATOM     27  C   UNL     1      -9.248  -7.479 -25.785  1.00  0.00     0.027 A 
ATOM     28  C   UNL     1     -11.507  -8.113 -25.231  1.00  0.00     0.027 A 
ATOM     29  C   UNL     1      -8.819  -7.943 -24.537  1.00  0.00     0.006 A 
ATOM     30  C   UNL     1     -11.067  -8.575 -23.983  1.00  0.00     0.006 A 
ATOM     31  C   UNL     1      -9.717  -8.499 -23.606  1.00  0.00    -0.042 A 
BRANCH  31  32
ATOM     32  C   UNL     1      -9.205  -8.990 -22.240  1.00  0.00    -0.013 C 
ATOM     33  C   UNL     1      -8.323 -10.240 -22.441  1.00  0.00     0.016 C 
ATOM     34  C   UNL     1     -10.399  -9.352 -21.331  1.00  0.00     0.016 C 
ATOM     35  C   UNL     1      -8.355  -7.946 -21.480  1.00  0.00     0.016 C 
ENDBRANCH  31  32
ENDBRANCH   9  26
BRANCH   8  36
ATOM     36  C   UNL     1      -9.908  -8.736 -28.885  1.00  0.00     0.356 C 
ATOM     37  O   UNL     1      -8.770  -8.906 -28.475  1.00  0.00    -0.244 OA
BRANCH  36  38
ATOM     38  O   UNL     1     -10.494  -9.677 -29.654  1.00  0.00    -0.476 OA
ATOM     39  H   UNL     1      -9.829  -9.846 -30.350  1.00  0.00     0.297 HD
ENDBRANCH  36  38
ENDBRANCH   8  36
TORSDOF 10
ENDMDL
MODEL 4
REMARK VINA RESULT:    -8.050      4.056      8.111
REMARK INTER + INTRA:         -14.556
REMARK INTER:                 -12.664
REMARK INTRA:                  -1.892
REMARK UNBOUND:                -2.036
REMARK SMILES CC(C)COc1ccc2c(c1)c(Oc1cccc(C(F)(F)F)c1)c(C(=O)O)n2-c1ccc(C(C)(C)C)cc1
REMARK SMILES IDX 6 1 7 2 8 3 9 4 10 5 11 6 12 7 24 8 28 9 5 10 4 11 2 12 1 13
REMARK SMILES IDX 3 14 13 15 14 16 15 17 23 18 16 19 18 20 17 21 19 22 20 23
REMARK SMILES IDX 21 24 22 25 29 26 30 27 38 28 31 29 37 30 32 31 33 32 34 33
REMARK SMILES IDX 35 34 36 35 25 36 26 37 27 38
REMARK H PARENT 27 39
ROOT
ATOM      1  C   UNL     1      -9.955  -8.524 -31.089  1.00  0.00     0.120 A 
ATOM      2  C   UNL     1      -9.328  -9.177 -30.034  1.00  0.00     0.048 A 
ATOM      3  C   UNL     1      -9.562  -8.811 -28.706  1.00  0.00     0.031 A 
ATOM      4  C   UNL     1     -10.470  -7.768 -28.438  1.00  0.00     0.058 A 
ATOM      5  C   UNL     1     -11.055  -7.051 -29.486  1.00  0.00     0.047 A 
ATOM      6  C   UNL     1     -10.815  -7.456 -30.822  1.00  0.00     0.060 A 
ATOM      7  C   UNL     1     -11.811  -6.009 -28.889  1.00  0.00     0.168 A 
ATOM      8  C   UNL     1     -11.750  -6.128 -27.513  1.00  0.00     0.176 A 
ATOM      9  N   UNL     1     -10.912  -7.204 -27.233  1.00  0.00    -0.300 N 
ENDROOT
BRANCH   1  10
ATOM     10  O   UNL     1      -9.639  -9.008 -32.329  1.00  0.00    -0.493 OA
BRANCH  10  11
ATOM     11  C   UNL     1      -8.293  -9.439 -32.539  1.00  0.00     0.232 C 
BRANCH  11  12
ATOM     12  C   UNL     1      -7.657  -8.559 -33.626  1.00  0.00     0.020 C 
ATOM     13  C   UNL     1      -6.142  -8.772 -33.703  1.00  0.00     0.011 C 
ATOM     14  C   UNL     1      -7.975  -7.086 -33.374  1.00  0.00     0.011 C 
ENDBRANCH  11  12
ENDBRANCH  10  11
ENDBRANCH   1  10
BRANCH   7  15
ATOM     15  O   UNL     1     -12.594  -5.089 -29.502  1.00  0.00    -0.454 OA
BRANCH  15  16
ATOM     16  C   UNL     1     -12.057  -3.945 -30.045  1.00  0.00     0.128 A 
ATOM     17  C   UNL     1     -10.687  -3.772 -30.248  1.00  0.00     0.047 A 
ATOM     18  C   UNL     1     -12.947  -2.909 -30.334  1.00  0.00     0.060 A 
ATOM     19  C   UNL     1     -10.210  -2.571 -30.776  1.00  0.00     0.004 A 
ATOM     20  C   UNL     1     -12.476  -1.691 -30.853  1.00  0.00     0.059 A 
ATOM     21  C   UNL     1     -11.100  -1.539 -31.082  1.00  0.00     0.013 A 
BRANCH  20  22
ATOM     22  C   UNL     1     -13.437  -0.578 -31.191  1.00  0.00     0.416 C 
ATOM     23  F   UNL     1     -12.816   0.595 -31.500  1.00  0.00    -0.166 F 
ATOM     24  F   UNL     1     -14.233  -0.869 -32.259  1.00  0.00    -0.166 F 
ATOM     25  F   UNL     1     -14.281  -0.295 -30.160  1.00  0.00    -0.166 F 
ENDBRANCH  20  22
ENDBRANCH  15  16
ENDBRANCH   7  15
BRANCH   9  26
ATOM     26  C   UNL     1     -10.516  -7.648 -25.935  1.00  0.00     0.047 A 
ATOM     27  C   UNL     1      -9.215  -7.419 -25.481  1.00  0.00     0.027 A 
ATOM     28  C   UNL     1     -11.424  -8.303 -25.101  1.00  0.00     0.027 A 
ATOM     29  C   UNL     1      -8.836  -7.832 -24.200  1.00  0.00     0.006 A 
ATOM     30  C   UNL     1     -11.036  -8.712 -23.818  1.00  0.00     0.006 A 
ATOM     31  C   UNL     1      -9.737  -8.485 -23.337  1.00  0.00    -0.042 A 
BRANCH  31  32
ATOM     32  C   UNL     1      -9.283  -8.913 -21.930  1.00  0.00    -0.013 C 
ATOM     33  C   UNL     1      -8.439  -7.786 -21.297  1.00  0.00     0.016 C 
ATOM     34  C   UNL     1      -8.429 -10.196 -22.021  1.00  0.00     0.016 C 
ATOM     35  C   UNL     1     -10.450  -9.211 -20.961  1.00  0.00     0.016 C 
ENDBRANCH  31  32
ENDBRANCH   9  26
BRANCH   8  36
ATOM     36  C   UNL     1     -12.485  -5.370 -26.543  1.00  0.00     0.356 C 
ATOM     37  O   UNL     1     -13.287  -5.771 -25.715  1.00  0.00    -0.244 OA
BRANCH  36  38
ATOM     38  O   UNL     1     -12.175  -4.058 -26.600  1.00  0.00    -0.476 OA
ATOM     39  H   UNL     1     -13.026  -3.616 -26.407  1.00  0.00     0.297 HD
ENDBRANCH  36  38
ENDBRANCH   8  36
TORSDOF 10
ENDMDL
MODEL 5
REMARK VINA RESULT:    -7.562      1.795      2.297
REMARK INTER + INTRA:         -13.797
REMARK INTER:                 -11.727
REMARK INTRA:                  -2.070
REMARK UNBOUND:                -2.036
REMARK SMILES CC(C)COc1ccc2c(c1)c(Oc1cccc(C(F)(F)F)c1)c(C(=O)O)n2-c1ccc(C(C)(C)C)cc1
REMARK SMILES IDX 6 1 7 2 8 3 9 4 10 5 11 6 12 7 24 8 28 9 5 10 4 11 2 12 1 13
REMARK SMILES IDX 3 14 13 15 14 16 15 17 23 18 16 19 18 20 17 21 19 22 20 23
REMARK SMILES IDX 21 24 22 25 29 26 30 27 38 28 31 29 37 30 32 31 33 32 34 33
REMARK SMILES IDX 35 34 36 35 25 36 26 37 27 38
REMARK H PARENT 27 39
ROOT
ATOM      1  C   UNL     1     -10.732  -8.746 -30.853  1.00  0.00     0.120 A 
ATOM      2  C   UNL     1     -11.064  -7.662 -31.657  1.00  0.00     0.048 A 
ATOM      3  C   UNL     1     -11.721  -6.542 -31.137  1.00  0.00     0.031 A 
ATOM      4  C   UNL     1     -12.032  -6.513 -29.764  1.00  0.00     0.058 A 
ATOM      5  C   UNL     1     -11.771  -7.623 -28.954  1.00  0.00     0.047 A 
ATOM      6  C   UNL     1     -11.088  -8.736 -29.503  1.00  0.00     0.060 A 
ATOM      7  C   UNL     1     -12.303  -7.322 -27.674  1.00  0.00     0.168 A 
ATOM      8  C   UNL     1     -12.810  -6.035 -27.678  1.00  0.00     0.176 A 
ATOM      9  N   UNL     1     -12.656  -5.541 -28.971  1.00  0.00    -0.300 N 
ENDROOT
BRANCH   1  10
ATOM     10  O   UNL     1     -10.076  -9.756 -31.502  1.00  0.00    -0.493 OA
BRANCH  10  11
ATOM     11  C   UNL     1      -8.847 -10.211 -30.932  1.00  0.00     0.232 C 
BRANCH  11  12
ATOM     12  C   UNL     1      -7.692  -9.399 -31.539  1.00  0.00     0.020 C 
ATOM     13  C   UNL     1      -7.362  -8.171 -30.687  1.00  0.00     0.011 C 
ATOM     14  C   UNL     1      -8.028  -8.980 -32.969  1.00  0.00     0.011 C 
ENDBRANCH  11  12
ENDBRANCH  10  11
ENDBRANCH   1  10
BRANCH   7  15
ATOM     15  O   UNL     1     -12.246  -8.073 -26.548  1.00  0.00    -0.454 OA
BRANCH  15  16
ATOM     16  C   UNL     1     -11.063  -8.252 -25.871  1.00  0.00     0.128 A 
ATOM     17  C   UNL     1     -10.955  -8.128 -24.484  1.00  0.00     0.047 A 
ATOM     18  C   UNL     1      -9.928  -8.504 -26.644  1.00  0.00     0.060 A 
ATOM     19  C   UNL     1      -9.715  -8.294 -23.867  1.00  0.00     0.004 A 
ATOM     20  C   UNL     1      -8.672  -8.659 -26.034  1.00  0.00     0.059 A 
ATOM     21  C   UNL     1      -8.580  -8.563 -24.637  1.00  0.00     0.013 A 
BRANCH  20  22
ATOM     22  C   UNL     1      -7.447  -8.957 -26.863  1.00  0.00     0.416 C 
ATOM     23  F   UNL     1      -6.922  -7.855 -27.466  1.00  0.00    -0.166 F 
ATOM     24  F   UNL     1      -6.432  -9.501 -26.134  1.00  0.00    -0.166 F 
ATOM     25  F   UNL     1      -7.707  -9.843 -27.865  1.00  0.00    -0.166 F 
ENDBRANCH  20  22
ENDBRANCH  15  16
ENDBRANCH   7  15
BRANCH   9  26
ATOM     26  C   UNL     1     -13.099  -4.268 -29.443  1.00  0.00     0.047 A 
ATOM     27  C   UNL     1     -12.171  -3.269 -29.746  1.00  0.00     0.027 A 
ATOM     28  C   UNL     1     -14.460  -4.011 -29.620  1.00  0.00     0.027 A 
ATOM     29  C   UNL     1     -12.605  -2.032 -30.233  1.00  0.00     0.006 A 
ATOM     30  C   UNL     1     -14.886  -2.768 -30.109  1.00  0.00     0.006 A 
ATOM     31  C   UNL     1     -13.971  -1.753 -30.429  1.00  0.00    -0.042 A 
BRANCH  31  32
ATOM     32  C   UNL     1     -14.406  -0.382 -30.977  1.00  0.00    -0.013 C 
ATOM     33  C   UNL     1     -15.533  -0.578 -32.013  1.00  0.00     0.016 C 
ATOM     34  C   UNL     1     -13.209   0.318 -31.655  1.00  0.00     0.016 C 
ATOM     35  C   UNL     1     -14.943   0.581 -29.893  1.00  0.00     0.016 C 
ENDBRANCH  31  32
ENDBRANCH   9  26
BRANCH   8  36
ATOM     36  C   UNL     1     -13.306  -5.294 -26.555  1.00  0.00     0.356 C 
ATOM     37  O   UNL     1     -12.932  -4.210 -26.137  1.00  0.00    -0.244 OA
BRANCH  36  38
ATOM     38  O   UNL     1     -14.331  -5.931 -25.952  1.00  0.00    -0.476 OA
ATOM     39  H   UNL     1     -13.991  -6.839 -25.827  1.00  0.00     0.297 HD
ENDBRANCH  36  38
ENDBRANCH   8  36
TORSDOF 10
ENDMDL
MODEL 6
REMARK VINA RESULT:    -7.499      3.516      8.828
REMARK INTER + INTRA:         -13.699
REMARK INTER:                 -11.671
REMARK INTRA:                  -2.028
REMARK UNBOUND:                -2.036
REMARK SMILES CC(C)COc1ccc2c(c1)c(Oc1cccc(C(F)(F)F)c1)c(C(=O)O)n2-c1ccc(C(C)(C)C)cc1
REMARK SMILES IDX 6 1 7 2 8 3 9 4 10 5 11 6 12 7 24 8 28 9 5 10 4 11 2 12 1 13
REMARK SMILES IDX 3 14 13 15 14 16 15 17 23 18 16 19 18 20 17 21 19 22 20 23
REMARK SMILES IDX 21 24 22 25 29 26 30 27 38 28 31 29 37 30 32 31 33 32 34 33
REMARK SMILES IDX 35 34 36 35 25 36 26 37 27 38
REMARK H PARENT 27 39
ROOT
ATOM      1  C   UNL     1     -14.207  -4.716 -27.807  1.00  0.00     0.120 A 
ATOM      2  C   UNL     1     -13.876  -4.916 -26.471  1.00  0.00     0.048 A 
ATOM      3  C   UNL     1     -12.857  -5.797 -26.096  1.00  0.00     0.031 A 
ATOM      4  C   UNL     1     -12.143  -6.479 -27.101  1.00  0.00     0.058 A 
ATOM      5  C   UNL     1     -12.509  -6.347 -28.444  1.00  0.00     0.047 A 
ATOM      6  C   UNL     1     -13.532  -5.433 -28.797  1.00  0.00     0.060 A 
ATOM      7  C   UNL     1     -11.685  -7.240 -29.176  1.00  0.00     0.168 A 
ATOM      8  C   UNL     1     -10.790  -7.849 -28.315  1.00  0.00     0.176 A 
ATOM      9  N   UNL     1     -11.081  -7.390 -27.033  1.00  0.00    -0.300 N 
ENDROOT
BRANCH   1  10
ATOM     10  O   UNL     1     -15.211  -3.811 -28.015  1.00  0.00    -0.493 OA
BRANCH  10  11
ATOM     11  C   UNL     1     -15.387  -2.790 -27.031  1.00  0.00     0.232 C 
BRANCH  11  12
ATOM     12  C   UNL     1     -14.551  -1.566 -27.436  1.00  0.00     0.020 C 
ATOM     13  C   UNL     1     -14.839  -0.367 -26.528  1.00  0.00     0.011 C 
ATOM     14  C   UNL     1     -14.811  -1.202 -28.897  1.00  0.00     0.011 C 
ENDBRANCH  11  12
ENDBRANCH  10  11
ENDBRANCH   1  10
BRANCH   7  15
ATOM     15  O   UNL     1     -11.639  -7.426 -30.517  1.00  0.00    -0.454 OA
BRANCH  15  16
ATOM     16  C   UNL     1     -12.527  -8.262 -31.151  1.00  0.00     0.128 A 
ATOM     17  C   UNL     1     -13.430  -7.818 -32.119  1.00  0.00     0.047 A 
ATOM     18  C   UNL     1     -12.541  -9.596 -30.736  1.00  0.00     0.060 A 
ATOM     19  C   UNL     1     -14.324  -8.719 -32.699  1.00  0.00     0.004 A 
ATOM     20  C   UNL     1     -13.447 -10.508 -31.304  1.00  0.00     0.059 A 
ATOM     21  C   UNL     1     -14.329 -10.057 -32.298  1.00  0.00     0.013 A 
BRANCH  20  22
ATOM     22  C   UNL     1     -13.448 -11.955 -30.878  1.00  0.00     0.416 C 
ATOM     23  F   UNL     1     -13.733 -12.128 -29.557  1.00  0.00    -0.166 F 
ATOM     24  F   UNL     1     -14.359 -12.708 -31.556  1.00  0.00    -0.166 F 
ATOM     25  F   UNL     1     -12.241 -12.553 -31.081  1.00  0.00    -0.166 F 
ENDBRANCH  20  22
ENDBRANCH  15  16
ENDBRANCH   7  15
BRANCH   9  26
ATOM     26  C   UNL     1     -10.442  -7.806 -25.825  1.00  0.00     0.047 A 
ATOM     27  C   UNL     1      -9.069  -7.617 -25.656  1.00  0.00     0.027 A 
ATOM     28  C   UNL     1     -11.182  -8.393 -24.797  1.00  0.00     0.027 A 
ATOM     29  C   UNL     1      -8.450  -8.001 -24.463  1.00  0.00     0.006 A 
ATOM     30  C   UNL     1     -10.553  -8.775 -23.604  1.00  0.00     0.006 A 
ATOM     31  C   UNL     1      -9.176  -8.586 -23.408  1.00  0.00    -0.042 A 
BRANCH  31  32
ATOM     32  C   UNL     1      -8.458  -8.986 -22.106  1.00  0.00    -0.013 C 
ATOM     33  C   UNL     1      -7.227  -9.854 -22.445  1.00  0.00     0.016 C 
ATOM     34  C   UNL     1      -9.416  -9.793 -21.204  1.00  0.00     0.016 C 
ATOM     35  C   UNL     1      -7.955  -7.782 -21.276  1.00  0.00     0.016 C 
ENDBRANCH  31  32
ENDBRANCH   9  26
BRANCH   8  36
ATOM     36  C   UNL     1      -9.696  -8.707 -28.666  1.00  0.00     0.356 C 
ATOM     37  O   UNL     1      -9.453  -9.832 -28.259  1.00  0.00    -0.244 OA
BRANCH  36  38
ATOM     38  O   UNL     1      -8.891  -8.135 -29.586  1.00  0.00    -0.476 OA
ATOM     39  H   UNL     1      -9.455  -7.442 -29.980  1.00  0.00     0.297 HD
ENDBRANCH  36  38
ENDBRANCH   8  36
TORSDOF 10
ENDMDL
MODEL 7
REMARK VINA RESULT:    -7.239      3.880      9.112
REMARK INTER + INTRA:         -13.296
REMARK INTER:                 -11.786
REMARK INTRA:                  -1.510
REMARK UNBOUND:                -2.036
REMARK SMILES CC(C)COc1ccc2c(c1)c(Oc1cccc(C(F)(F)F)c1)c(C(=O)O)n2-c1ccc(C(C)(C)C)cc1
REMARK SMILES IDX 6 1 7 2 8 3 9 4 10 5 11 6 12 7 24 8 28 9 5 10 4 11 2 12 1 13
REMARK SMILES IDX 3 14 13 15 14 16 15 17 23 18 16 19 18 20 17 21 19 22 20 23
REMARK SMILES IDX 21 24 22 25 29 26 30 27 38 28 31 29 37 30 32 31 33 32 34 33
REMARK SMILES IDX 35 34 36 35 25 36 26 37 27 38
REMARK H PARENT 27 39
ROOT
ATOM      1  C   UNL     1     -14.404  -4.164 -27.192  1.00  0.00     0.120 A 
ATOM      2  C   UNL     1     -13.906  -4.530 -25.947  1.00  0.00     0.048 A 
ATOM      3  C   UNL     1     -12.883  -5.475 -25.819  1.00  0.00     0.031 A 
ATOM      4  C   UNL     1     -12.339  -6.049 -26.985  1.00  0.00     0.058 A 
ATOM      5  C   UNL     1     -12.875  -5.748 -28.241  1.00  0.00     0.047 A 
ATOM      6  C   UNL     1     -13.898  -4.773 -28.342  1.00  0.00     0.060 A 
ATOM      7  C   UNL     1     -12.193  -6.567 -29.177  1.00  0.00     0.168 A 
ATOM      8  C   UNL     1     -11.216  -7.296 -28.523  1.00  0.00     0.176 A 
ATOM      9  N   UNL     1     -11.315  -6.988 -27.169  1.00  0.00    -0.300 N 
ENDROOT
BRANCH   1  10
ATOM     10  O   UNL     1     -15.390  -3.215 -27.155  1.00  0.00    -0.493 OA
BRANCH  10  11
ATOM     11  C   UNL     1     -15.011  -1.893 -26.769  1.00  0.00     0.232 C 
BRANCH  11  12
ATOM     12  C   UNL     1     -15.401  -0.920 -27.893  1.00  0.00     0.020 C 
ATOM     13  C   UNL     1     -14.524  -1.117 -29.133  1.00  0.00     0.011 C 
ATOM     14  C   UNL     1     -15.315   0.524 -27.402  1.00  0.00     0.011 C 
ENDBRANCH  11  12
ENDBRANCH  10  11
ENDBRANCH   1  10
BRANCH   7  15
ATOM     15  O   UNL     1     -12.334  -6.592 -30.524  1.00  0.00    -0.454 OA
BRANCH  15  16
ATOM     16  C   UNL     1     -11.535  -5.824 -31.338  1.00  0.00     0.128 A 
ATOM     17  C   UNL     1     -10.892  -6.331 -32.468  1.00  0.00     0.047 A 
ATOM     18  C   UNL     1     -11.330  -4.499 -30.948  1.00  0.00     0.060 A 
ATOM     19  C   UNL     1     -10.071  -5.500 -33.231  1.00  0.00     0.004 A 
ATOM     20  C   UNL     1     -10.494  -3.657 -31.701  1.00  0.00     0.059 A 
ATOM     21  C   UNL     1      -9.877  -4.169 -32.853  1.00  0.00     0.013 A 
BRANCH  20  22
ATOM     22  C   UNL     1     -10.290  -2.218 -31.298  1.00  0.00     0.416 C 
ATOM     23  F   UNL     1      -9.406  -2.064 -30.273  1.00  0.00    -0.166 F 
ATOM     24  F   UNL     1      -9.817  -1.443 -32.315  1.00  0.00    -0.166 F 
ATOM     25  F   UNL     1     -11.447  -1.630 -30.885  1.00  0.00    -0.166 F 
ENDBRANCH  20  22
ENDBRANCH  15  16
ENDBRANCH   7  15
BRANCH   9  26
ATOM     26  C   UNL     1     -10.538  -7.561 -26.117  1.00  0.00     0.047 A 
ATOM     27  C   UNL     1     -11.167  -8.069 -24.978  1.00  0.00     0.027 A 
ATOM     28  C   UNL     1      -9.147  -7.631 -26.218  1.00  0.00     0.027 A 
ATOM     29  C   UNL     1     -10.406  -8.653 -23.959  1.00  0.00     0.006 A 
ATOM     30  C   UNL     1      -8.394  -8.218 -25.192  1.00  0.00     0.006 A 
ATOM     31  C   UNL     1      -9.004  -8.745 -24.043  1.00  0.00    -0.042 A 
BRANCH  31  32
ATOM     32  C   UNL     1      -8.205  -9.404 -22.904  1.00  0.00    -0.013 C 
ATOM     33  C   UNL     1      -7.111 -10.312 -23.504  1.00  0.00     0.016 C 
ATOM     34  C   UNL     1      -9.147 -10.256 -22.026  1.00  0.00     0.016 C 
ATOM     35  C   UNL     1      -7.501  -8.394 -21.969  1.00  0.00     0.016 C 
ENDBRANCH  31  32
ENDBRANCH   9  26
BRANCH   8  36
ATOM     36  C   UNL     1     -10.215  -8.133 -29.118  1.00  0.00     0.356 C 
ATOM     37  O   UNL     1      -9.020  -7.914 -29.243  1.00  0.00    -0.244 OA
BRANCH  36  38
ATOM     38  O   UNL     1     -10.734  -9.302 -29.546  1.00  0.00    -0.476 OA
ATOM     39  H   UNL     1     -10.025  -9.947 -29.356  1.00  0.00     0.297 HD
ENDBRANCH  36  38
ENDBRANCH   8  36
TORSDOF 10
ENDMDL
MODEL 8
REMARK VINA RESULT:    -7.234      2.226      3.110
REMARK INTER + INTRA:         -13.287
REMARK INTER:                 -11.492
REMARK INTRA:                  -1.796
REMARK UNBOUND:                -2.036
REMARK SMILES CC(C)COc1ccc2c(c1)c(Oc1cccc(C(F)(F)F)c1)c(C(=O)O)n2-c1ccc(C(C)(C)C)cc1
REMARK SMILES IDX 6 1 7 2 8 3 9 4 10 5 11 6 12 7 24 8 28 9 5 10 4 11 2 12 1 13
REMARK SMILES IDX 3 14 13 15 14 16 15 17 23 18 16 19 18 20 17 21 19 22 20 23
REMARK SMILES IDX 21 24 22 25 29 26 30 27 38 28 31 29 37 30 32 31 33 32 34 33
REMARK SMILES IDX 35 34 36 35 25 36 26 37 27 38
REMARK H PARENT 27 39
ROOT
ATOM      1  C   UNL     1     -11.160  -9.452 -30.521  1.00  0.00     0.120 A 
ATOM      2  C   UNL     1     -11.318  -8.444 -31.464  1.00  0.00     0.048 A 
ATOM      3  C   UNL     1     -11.706  -7.153 -31.095  1.00  0.00     0.031 A 
ATOM      4  C   UNL     1     -11.923  -6.872 -29.731  1.00  0.00     0.058 A 
ATOM      5  C   UNL     1     -11.840  -7.890 -28.776  1.00  0.00     0.047 A 
ATOM      6  C   UNL     1     -11.426  -9.184 -29.176  1.00  0.00     0.060 A 
ATOM      7  C   UNL     1     -12.224  -7.313 -27.539  1.00  0.00     0.168 A 
ATOM      8  C   UNL     1     -12.464  -5.962 -27.716  1.00  0.00     0.176 A 
ATOM      9  N   UNL     1     -12.293  -5.693 -29.071  1.00  0.00    -0.300 N 
ENDROOT
BRANCH   1  10
ATOM     10  O   UNL     1     -10.758 -10.655 -31.034  1.00  0.00    -0.493 OA
BRANCH  10  11
ATOM     11  C   UNL     1     -11.729 -11.417 -31.754  1.00  0.00     0.232 C 
BRANCH  11  12
ATOM     12  C   UNL     1     -12.859 -11.812 -30.790  1.00  0.00     0.020 C 
ATOM     13  C   UNL     1     -13.018 -13.333 -30.709  1.00  0.00     0.011 C 
ATOM     14  C   UNL     1     -14.174 -11.160 -31.213  1.00  0.00     0.011 C 
ENDBRANCH  11  12
ENDBRANCH  10  11
ENDBRANCH   1  10
BRANCH   7  15
ATOM     15  O   UNL     1     -12.250  -7.897 -26.317  1.00  0.00    -0.454 OA
BRANCH  15  16
ATOM     16  C   UNL     1     -11.088  -8.210 -25.652  1.00  0.00     0.128 A 
ATOM     17  C   UNL     1     -10.998  -8.261 -24.260  1.00  0.00     0.047 A 
ATOM     18  C   UNL     1      -9.951  -8.418 -26.437  1.00  0.00     0.060 A 
ATOM     19  C   UNL     1      -9.777  -8.557 -23.653  1.00  0.00     0.004 A 
ATOM     20  C   UNL     1      -8.714  -8.702 -25.836  1.00  0.00     0.059 A 
ATOM     21  C   UNL     1      -8.642  -8.781 -24.436  1.00  0.00     0.013 A 
BRANCH  20  22
ATOM     22  C   UNL     1      -7.489  -8.952 -26.680  1.00  0.00     0.416 C 
ATOM     23  F   UNL     1      -7.713  -9.810 -27.715  1.00  0.00    -0.166 F 
ATOM     24  F   UNL     1      -6.989  -7.816 -27.242  1.00  0.00    -0.166 F 
ATOM     25  F   UNL     1      -6.468  -9.495 -25.959  1.00  0.00    -0.166 F 
ENDBRANCH  20  22
ENDBRANCH  15  16
ENDBRANCH   7  15
BRANCH   9  26
ATOM     26  C   UNL     1     -12.502  -4.433 -29.712  1.00  0.00     0.047 A 
ATOM     27  C   UNL     1     -11.418  -3.594 -29.980  1.00  0.00     0.027 A 
ATOM     28  C   UNL     1     -13.785  -4.033 -30.088  1.00  0.00     0.027 A 
ATOM     29  C   UNL     1     -11.621  -2.373 -30.630  1.00  0.00     0.006 A 
ATOM     30  C   UNL     1     -13.979  -2.807 -30.739  1.00  0.00     0.006 A 
ATOM     31  C   UNL     1     -12.904  -1.951 -31.028  1.00  0.00    -0.042 A 
BRANCH  31  32
ATOM     32  C   UNL     1     -13.083  -0.604 -31.751  1.00  0.00    -0.013 C 
ATOM     33  C   UNL     1     -11.708   0.078 -31.914  1.00  0.00     0.016 C 
ATOM     34  C   UNL     1     -14.011   0.315 -30.927  1.00  0.00     0.016 C 
ATOM     35  C   UNL     1     -13.702  -0.730 -33.161  1.00  0.00     0.016 C 
ENDBRANCH  31  32
ENDBRANCH   9  26
BRANCH   8  36
ATOM     36  C   UNL     1     -12.735  -4.988 -26.699  1.00  0.00     0.356 C 
ATOM     37  O   UNL     1     -12.409  -3.812 -26.670  1.00  0.00    -0.244 OA
BRANCH  36  38
ATOM     38  O   UNL     1     -13.467  -5.510 -25.693  1.00  0.00    -0.476 OA
ATOM     39  H   UNL     1     -12.921  -6.259 -25.381  1.00  0.00     0.297 HD
ENDBRANCH  36  38
ENDBRANCH   8  36
TORSDOF 10
ENDMDL
MODEL 9
REMARK VINA RESULT:    -7.092      1.317      2.075
REMARK INTER + INTRA:         -13.066
REMARK INTER:                 -10.954
REMARK INTRA:                  -2.112
REMARK UNBOUND:                -2.036
REMARK SMILES CC(C)COc1ccc2c(c1)c(Oc1cccc(C(F)(F)F)c1)c(C(=O)O)n2-c1ccc(C(C)(C)C)cc1
REMARK SMILES IDX 6 1 7 2 8 3 9 4 10 5 11 6 12 7 24 8 28 9 5 10 4 11 2 12 1 13
REMARK SMILES IDX 3 14 13 15 14 16 15 17 23 18 16 19 18 20 17 21 19 22 20 23
REMARK SMILES IDX 21 24 22 25 29 26 30 27 38 28 31 29 37 30 32 31 33 32 34 33
REMARK SMILES IDX 35 34 36 35 25 36 26 37 27 38
REMARK H PARENT 27 39
ROOT
ATOM      1  C   UNL     1     -11.215  -9.299 -30.236  1.00  0.00     0.120 A 
ATOM      2  C   UNL     1     -11.582  -8.308 -31.139  1.00  0.00     0.048 A 
ATOM      3  C   UNL     1     -12.112  -7.088 -30.709  1.00  0.00     0.031 A 
ATOM      4  C   UNL     1     -12.257  -6.859 -29.327  1.00  0.00     0.058 A 
ATOM      5  C   UNL     1     -11.961  -7.869 -28.406  1.00  0.00     0.047 A 
ATOM      6  C   UNL     1     -11.408  -9.089 -28.869  1.00  0.00     0.060 A 
ATOM      7  C   UNL     1     -12.321  -7.369 -27.129  1.00  0.00     0.168 A 
ATOM      8  C   UNL     1     -12.756  -6.062 -27.254  1.00  0.00     0.176 A 
ATOM      9  N   UNL     1     -12.730  -5.751 -28.611  1.00  0.00    -0.300 N 
ENDROOT
BRANCH   1  10
ATOM     10  O   UNL     1     -10.695 -10.428 -30.808  1.00  0.00    -0.493 OA
BRANCH  10  11
ATOM     11  C   UNL     1     -11.592 -11.260 -31.546  1.00  0.00     0.232 C 
BRANCH  11  12
ATOM     12  C   UNL     1     -12.790 -11.610 -30.649  1.00  0.00     0.020 C 
ATOM     13  C   UNL     1     -12.912 -13.123 -30.444  1.00  0.00     0.011 C 
ATOM     14  C   UNL     1     -14.081 -11.046 -31.239  1.00  0.00     0.011 C 
ENDBRANCH  11  12
ENDBRANCH  10  11
ENDBRANCH   1  10
BRANCH   7  15
ATOM     15  O   UNL     1     -12.171  -7.968 -25.923  1.00  0.00    -0.454 OA
BRANCH  15  16
ATOM     16  C   UNL     1     -10.946  -8.020 -25.301  1.00  0.00     0.128 A 
ATOM     17  C   UNL     1      -9.758  -7.646 -25.931  1.00  0.00     0.047 A 
ATOM     18  C   UNL     1     -10.922  -8.534 -24.003  1.00  0.00     0.060 A 
ATOM     19  C   UNL     1      -8.546  -7.753 -25.247  1.00  0.00     0.004 A 
ATOM     20  C   UNL     1      -9.705  -8.659 -23.310  1.00  0.00     0.059 A 
ATOM     21  C   UNL     1      -8.520  -8.251 -23.942  1.00  0.00     0.013 A 
BRANCH  20  22
ATOM     22  C   UNL     1      -9.677  -9.190 -21.899  1.00  0.00     0.416 C 
ATOM     23  F   UNL     1      -8.549  -8.846 -21.216  1.00  0.00    -0.166 F 
ATOM     24  F   UNL     1     -10.719  -8.744 -21.142  1.00  0.00    -0.166 F 
ATOM     25  F   UNL     1      -9.738 -10.550 -21.859  1.00  0.00    -0.166 F 
ENDBRANCH  20  22
ENDBRANCH  15  16
ENDBRANCH   7  15
BRANCH   9  26
ATOM     26  C   UNL     1     -13.158  -4.524 -29.202  1.00  0.00     0.047 A 
ATOM     27  C   UNL     1     -12.232  -3.513 -29.468  1.00  0.00     0.027 A 
ATOM     28  C   UNL     1     -14.500  -4.325 -29.532  1.00  0.00     0.027 A 
ATOM     29  C   UNL     1     -12.648  -2.321 -30.070  1.00  0.00     0.006 A 
ATOM     30  C   UNL     1     -14.908  -3.127 -30.136  1.00  0.00     0.006 A 
ATOM     31  C   UNL     1     -13.993  -2.101 -30.421  1.00  0.00    -0.042 A 
BRANCH  31  32
ATOM     32  C   UNL     1     -14.408  -0.779 -31.092  1.00  0.00    -0.013 C 
ATOM     33  C   UNL     1     -15.567  -1.045 -32.077  1.00  0.00     0.016 C 
ATOM     34  C   UNL     1     -13.212  -0.183 -31.865  1.00  0.00     0.016 C 
ATOM     35  C   UNL     1     -14.891   0.301 -30.097  1.00  0.00     0.016 C 
ENDBRANCH  31  32
ENDBRANCH   9  26
BRANCH   8  36
ATOM     36  C   UNL     1     -13.075  -5.148 -26.195  1.00  0.00     0.356 C 
ATOM     37  O   UNL     1     -12.759  -3.974 -26.085  1.00  0.00    -0.244 OA
BRANCH  36  38
ATOM     38  O   UNL     1     -13.845  -5.730 -25.253  1.00  0.00    -0.476 OA
ATOM     39  H   UNL     1     -14.353  -6.397 -25.755  1.00  0.00     0.297 HD
ENDBRANCH  36  38
ENDBRANCH   8  36
TORSDOF 10
ENDMDL
