MODEL 1
REMARK VINA RESULT:   -10.128      0.000      0.000
REMARK INTER + INTRA:         -16.877
REMARK INTER:                 -15.457
REMARK INTRA:                  -1.420
REMARK UNBOUND:                -1.420
REMARK SMILES COCC(=O)NC/C=C/c1ccc2ncnc(Nc3ccc(Oc4ccc(C)nc4)c(C)c3)c2c1
REMARK SMILES IDX 10 1 11 2 12 3 13 4 14 5 15 6 16 7 17 8 34 9 35 10 9 11 8 12
REMARK SMILES IDX 7 13 6 14 4 15 5 16 3 18 2 19 1 20 18 21 19 23 33 24 20 25
REMARK SMILES IDX 31 26 21 27 22 28 32 29 23 30 24 31 30 32 25 33 29 34 26 35
REMARK SMILES IDX 27 36 28 37
REMARK H PARENT 6 17 18 22
ROOT
ATOM      1  C   UNL     1      11.679  40.489   8.367  1.00  0.00    -0.025 A 
ATOM      2  C   UNL     1      10.371  40.616   7.896  1.00  0.00     0.010 A 
ATOM      3  C   UNL     1       9.294  40.073   8.591  1.00  0.00     0.030 A 
ATOM      4  C   UNL     1       9.508  39.376   9.803  1.00  0.00     0.076 A 
ATOM      5  N   UNL     1       8.434  38.853  10.459  1.00  0.00    -0.236 NA
ATOM      6  C   UNL     1       8.692  38.190  11.611  1.00  0.00     0.224 A 
ATOM      7  N   UNL     1       9.903  37.995  12.181  1.00  0.00    -0.219 NA
ATOM      8  C   UNL     1      10.976  38.520  11.533  1.00  0.00     0.141 A 
ATOM      9  C   UNL     1      10.839  39.236  10.304  1.00  0.00     0.044 A 
ATOM     10  C   UNL     1      11.913  39.804   9.565  1.00  0.00     0.022 A 
ENDROOT
BRANCH   1  11
ATOM     11  C   UNL     1      12.776  41.098   7.586  1.00  0.00     0.005 C 
ATOM     12  C   UNL     1      13.816  40.449   7.028  1.00  0.00    -0.005 C 
BRANCH  12  13
ATOM     13  C   UNL     1      14.913  41.110   6.210  1.00  0.00     0.143 C 
BRANCH  13  14
ATOM     14  N   UNL     1      16.125  40.299   6.103  1.00  0.00    -0.351 N 
ATOM     15  C   UNL     1      17.386  40.762   6.205  1.00  0.00     0.246 C 
ATOM     16  O   UNL     1      17.652  41.949   6.397  1.00  0.00    -0.272 OA
ATOM     17  H   UNL     1      15.989  39.303   6.007  1.00  0.00     0.163 HD
BRANCH  15  18
ATOM     18  C   UNL     1      18.538  39.743   6.108  1.00  0.00     0.259 C 
BRANCH  18  19
ATOM     19  O   UNL     1      18.065  38.396   6.022  1.00  0.00    -0.375 OA
ATOM     20  C   UNL     1      18.273  37.605   7.188  1.00  0.00     0.195 C 
ENDBRANCH  18  19
ENDBRANCH  15  18
ENDBRANCH  13  14
ENDBRANCH  12  13
ENDBRANCH   1  11
BRANCH   8  21
ATOM     21  N   UNL     1      12.255  38.317  12.089  1.00  0.00    -0.340 N 
ATOM     22  H   UNL     1      12.623  39.136  12.551  1.00  0.00     0.168 HD
BRANCH  21  23
ATOM     23  C   UNL     1      13.118  37.208  12.147  1.00  0.00     0.040 A 
ATOM     24  C   UNL     1      12.937  36.301  13.194  1.00  0.00     0.033 A 
ATOM     25  C   UNL     1      14.113  36.956  11.194  1.00  0.00     0.030 A 
ATOM     26  C   UNL     1      13.744  35.164  13.309  1.00  0.00    -0.006 A 
ATOM     27  C   UNL     1      14.923  35.827  11.301  1.00  0.00     0.049 A 
ATOM     28  C   UNL     1      14.742  34.927  12.354  1.00  0.00     0.130 A 
ATOM     29  C   UNL     1      13.536  34.202  14.467  1.00  0.00     0.048 C 
BRANCH  28  30
ATOM     30  O   UNL     1      15.550  33.817  12.437  1.00  0.00    -0.455 OA
BRANCH  30  31
ATOM     31  C   UNL     1      16.864  33.931  12.845  1.00  0.00     0.145 A 
ATOM     32  C   UNL     1      17.865  33.602  11.927  1.00  0.00     0.158 A 
ATOM     33  C   UNL     1      17.271  34.360  14.122  1.00  0.00     0.050 A 
ATOM     34  N   UNL     1      19.193  33.676  12.206  1.00  0.00    -0.258 NA
ATOM     35  C   UNL     1      18.630  34.443  14.429  1.00  0.00     0.027 A 
ATOM     36  C   UNL     1      19.558  34.092  13.445  1.00  0.00     0.038 A 
ATOM     37  C   UNL     1      21.051  34.159  13.706  1.00  0.00     0.066 C 
ENDBRANCH  30  31
ENDBRANCH  28  30
ENDBRANCH  21  23
ENDBRANCH   8  21
TORSDOF 9
ENDMDL
MODEL 2
REMARK VINA RESULT:    -9.726      2.041      2.886
REMARK INTER + INTRA:         -16.264
REMARK INTER:                 -15.555
REMARK INTRA:                  -0.709
REMARK UNBOUND:                -1.420
REMARK SMILES COCC(=O)NC/C=C/c1ccc2ncnc(Nc3ccc(Oc4ccc(C)nc4)c(C)c3)c2c1
REMARK SMILES IDX 10 1 11 2 12 3 13 4 14 5 15 6 16 7 17 8 34 9 35 10 9 11 8 12
REMARK SMILES IDX 7 13 6 14 4 15 5 16 3 18 2 19 1 20 18 21 19 23 33 24 20 25
REMARK SMILES IDX 31 26 21 27 22 28 32 29 23 30 24 31 30 32 25 33 29 34 26 35
REMARK SMILES IDX 27 36 28 37
REMARK H PARENT 6 17 18 22
ROOT
ATOM      1  C   UNL     1      11.787  40.608   8.219  1.00  0.00    -0.025 A 
ATOM      2  C   UNL     1      10.539  40.856   7.644  1.00  0.00     0.010 A 
ATOM      3  C   UNL     1       9.367  40.365   8.213  1.00  0.00     0.030 A 
ATOM      4  C   UNL     1       9.421  39.597   9.399  1.00  0.00     0.076 A 
ATOM      5  N   UNL     1       8.257  39.127   9.931  1.00  0.00    -0.236 NA
ATOM      6  C   UNL     1       8.361  38.393  11.064  1.00  0.00     0.224 A 
ATOM      7  N   UNL     1       9.499  38.080  11.725  1.00  0.00    -0.219 NA
ATOM      8  C   UNL     1      10.661  38.551  11.203  1.00  0.00     0.141 A 
ATOM      9  C   UNL     1      10.687  39.333  10.006  1.00  0.00     0.044 A 
ATOM     10  C   UNL     1      11.862  39.852   9.395  1.00  0.00     0.022 A 
ENDROOT
BRANCH   1  11
ATOM     11  C   UNL     1      12.991  41.167   7.570  1.00  0.00     0.005 C 
ATOM     12  C   UNL     1      13.897  40.486   6.843  1.00  0.00    -0.005 C 
BRANCH  12  13
ATOM     13  C   UNL     1      15.111  41.103   6.170  1.00  0.00     0.143 C 
BRANCH  13  14
ATOM     14  N   UNL     1      16.264  40.205   6.115  1.00  0.00    -0.351 N 
ATOM     15  C   UNL     1      17.554  40.585   6.193  1.00  0.00     0.246 C 
ATOM     16  O   UNL     1      17.903  41.760   6.313  1.00  0.00    -0.272 OA
ATOM     17  H   UNL     1      16.059  39.217   6.080  1.00  0.00     0.163 HD
BRANCH  15  18
ATOM     18  C   UNL     1      18.633  39.485   6.160  1.00  0.00     0.259 C 
BRANCH  18  19
ATOM     19  O   UNL     1      18.067  38.173   6.090  1.00  0.00    -0.375 OA
ATOM     20  C   UNL     1      18.598  37.233   7.019  1.00  0.00     0.195 C 
ENDBRANCH  18  19
ENDBRANCH  15  18
ENDBRANCH  13  14
ENDBRANCH  12  13
ENDBRANCH   1  11
BRANCH   8  21
ATOM     21  N   UNL     1      11.866  38.227  11.856  1.00  0.00    -0.340 N 
ATOM     22  H   UNL     1      11.919  38.586  12.798  1.00  0.00     0.168 HD
BRANCH  21  23
ATOM     23  C   UNL     1      13.004  37.494  11.473  1.00  0.00     0.040 A 
ATOM     24  C   UNL     1      13.497  36.547  12.374  1.00  0.00     0.033 A 
ATOM     25  C   UNL     1      13.635  37.642  10.231  1.00  0.00     0.030 A 
ATOM     26  C   UNL     1      14.615  35.767  12.059  1.00  0.00    -0.006 A 
ATOM     27  C   UNL     1      14.749  36.870   9.909  1.00  0.00     0.049 A 
ATOM     28  C   UNL     1      15.242  35.930  10.816  1.00  0.00     0.130 A 
ATOM     29  C   UNL     1      15.141  34.755  13.064  1.00  0.00     0.048 C 
BRANCH  28  30
ATOM     30  O   UNL     1      16.340  35.176  10.474  1.00  0.00    -0.455 OA
BRANCH  30  31
ATOM     31  C   UNL     1      16.231  34.145   9.562  1.00  0.00     0.145 A 
ATOM     32  C   UNL     1      16.354  32.836  10.037  1.00  0.00     0.158 A 
ATOM     33  C   UNL     1      15.998  34.316   8.185  1.00  0.00     0.050 A 
ATOM     34  N   UNL     1      16.263  31.738   9.242  1.00  0.00    -0.258 NA
ATOM     35  C   UNL     1      15.900  33.202   7.351  1.00  0.00     0.027 A 
ATOM     36  C   UNL     1      16.039  31.931   7.917  1.00  0.00     0.038 A 
ATOM     37  C   UNL     1      15.943  30.674   7.074  1.00  0.00     0.066 C 
ENDBRANCH  30  31
ENDBRANCH  28  30
ENDBRANCH  21  23
ENDBRANCH   8  21
TORSDOF 9
ENDMDL
MODEL 3
REMARK VINA RESULT:    -9.664      3.860      7.030
REMARK INTER + INTRA:         -16.169
REMARK INTER:                 -15.097
REMARK INTRA:                  -1.072
REMARK UNBOUND:                -1.420
REMARK SMILES COCC(=O)NC/C=C/c1ccc2ncnc(Nc3ccc(Oc4ccc(C)nc4)c(C)c3)c2c1
REMARK SMILES IDX 10 1 11 2 12 3 13 4 14 5 15 6 16 7 17 8 34 9 35 10 9 11 8 12
REMARK SMILES IDX 7 13 6 14 4 15 5 16 3 18 2 19 1 20 18 21 19 23 33 24 20 25
REMARK SMILES IDX 31 26 21 27 22 28 32 29 23 30 24 31 30 32 25 33 29 34 26 35
REMARK SMILES IDX 27 36 28 37
REMARK H PARENT 6 17 18 22
ROOT
ATOM      1  C   UNL     1      13.536  41.015   8.235  1.00  0.00    -0.025 A 
ATOM      2  C   UNL     1      13.961  42.105   7.472  1.00  0.00     0.010 A 
ATOM      3  C   UNL     1      15.262  42.184   6.982  1.00  0.00     0.030 A 
ATOM      4  C   UNL     1      16.187  41.149   7.250  1.00  0.00     0.076 A 
ATOM      5  N   UNL     1      17.454  41.256   6.760  1.00  0.00    -0.236 NA
ATOM      6  C   UNL     1      18.303  40.241   7.048  1.00  0.00     0.224 A 
ATOM      7  N   UNL     1      18.025  39.131   7.769  1.00  0.00    -0.219 NA
ATOM      8  C   UNL     1      16.762  39.017   8.255  1.00  0.00     0.141 A 
ATOM      9  C   UNL     1      15.772  40.023   8.027  1.00  0.00     0.044 A 
ATOM     10  C   UNL     1      14.435  39.978   8.510  1.00  0.00     0.022 A 
ENDROOT
BRANCH   1  11
ATOM     11  C   UNL     1      12.139  40.989   8.716  1.00  0.00     0.005 C 
ATOM     12  C   UNL     1      11.042  40.742   7.975  1.00  0.00    -0.005 C 
BRANCH  12  13
ATOM     13  C   UNL     1       9.622  40.700   8.513  1.00  0.00     0.143 C 
BRANCH  13  14
ATOM     14  N   UNL     1       9.522  40.092   9.839  1.00  0.00    -0.351 N 
ATOM     15  C   UNL     1       9.089  38.842  10.094  1.00  0.00     0.246 C 
ATOM     16  O   UNL     1       8.717  38.067   9.213  1.00  0.00    -0.272 OA
ATOM     17  H   UNL     1       9.868  40.644  10.611  1.00  0.00     0.163 HD
BRANCH  15  18
ATOM     18  C   UNL     1       9.096  38.362  11.559  1.00  0.00     0.259 C 
BRANCH  18  19
ATOM     19  O   UNL     1      10.190  38.905  12.303  1.00  0.00    -0.375 OA
ATOM     20  C   UNL     1      11.397  38.151  12.244  1.00  0.00     0.195 C 
ENDBRANCH  18  19
ENDBRANCH  15  18
ENDBRANCH  13  14
ENDBRANCH  12  13
ENDBRANCH   1  11
BRANCH   8  21
ATOM     21  N   UNL     1      16.444  37.882   9.027  1.00  0.00    -0.340 N 
ATOM     22  H   UNL     1      15.795  38.078   9.775  1.00  0.00     0.168 HD
BRANCH  21  23
ATOM     23  C   UNL     1      16.831  36.532   8.963  1.00  0.00     0.040 A 
ATOM     24  C   UNL     1      16.486  35.708  10.038  1.00  0.00     0.033 A 
ATOM     25  C   UNL     1      17.504  35.973   7.869  1.00  0.00     0.030 A 
ATOM     26  C   UNL     1      16.820  34.349  10.040  1.00  0.00    -0.006 A 
ATOM     27  C   UNL     1      17.842  34.622   7.863  1.00  0.00     0.049 A 
ATOM     28  C   UNL     1      17.501  33.804   8.943  1.00  0.00     0.130 A 
ATOM     29  C   UNL     1      16.447  33.479  11.230  1.00  0.00     0.048 C 
BRANCH  28  30
ATOM     30  O   UNL     1      17.841  32.472   8.912  1.00  0.00    -0.455 OA
BRANCH  30  31
ATOM     31  C   UNL     1      17.090  31.570   8.183  1.00  0.00     0.145 A 
ATOM     32  C   UNL     1      17.771  30.665   7.364  1.00  0.00     0.158 A 
ATOM     33  C   UNL     1      15.686  31.492   8.210  1.00  0.00     0.050 A 
ATOM     34  N   UNL     1      17.149  29.729   6.601  1.00  0.00    -0.258 NA
ATOM     35  C   UNL     1      15.026  30.537   7.434  1.00  0.00     0.027 A 
ATOM     36  C   UNL     1      15.793  29.676   6.644  1.00  0.00     0.038 A 
ATOM     37  C   UNL     1      15.146  28.613   5.777  1.00  0.00     0.066 C 
ENDBRANCH  30  31
ENDBRANCH  28  30
ENDBRANCH  21  23
ENDBRANCH   8  21
TORSDOF 9
ENDMDL
MODEL 4
REMARK VINA RESULT:    -9.569      4.579      7.506
REMARK INTER + INTRA:         -16.024
REMARK INTER:                 -15.309
REMARK INTRA:                  -0.715
REMARK UNBOUND:                -1.420
REMARK SMILES COCC(=O)NC/C=C/c1ccc2ncnc(Nc3ccc(Oc4ccc(C)nc4)c(C)c3)c2c1
REMARK SMILES IDX 10 1 11 2 12 3 13 4 14 5 15 6 16 7 17 8 34 9 35 10 9 11 8 12
REMARK SMILES IDX 7 13 6 14 4 15 5 16 3 18 2 19 1 20 18 21 19 23 33 24 20 25
REMARK SMILES IDX 31 26 21 27 22 28 32 29 23 30 24 31 30 32 25 33 29 34 26 35
REMARK SMILES IDX 27 36 28 37
REMARK H PARENT 6 17 18 22
ROOT
ATOM      1  C   UNL     1      18.299  34.989   7.823  1.00  0.00    -0.025 A 
ATOM      2  C   UNL     1      19.159  35.901   7.209  1.00  0.00     0.010 A 
ATOM      3  C   UNL     1      18.948  37.274   7.301  1.00  0.00     0.030 A 
ATOM      4  C   UNL     1      17.845  37.776   8.030  1.00  0.00     0.076 A 
ATOM      5  N   UNL     1      17.662  39.125   8.100  1.00  0.00    -0.236 NA
ATOM      6  C   UNL     1      16.588  39.555   8.805  1.00  0.00     0.224 A 
ATOM      7  N   UNL     1      15.680  38.786   9.449  1.00  0.00    -0.219 NA
ATOM      8  C   UNL     1      15.862  37.442   9.388  1.00  0.00     0.141 A 
ATOM      9  C   UNL     1      16.952  36.860   8.669  1.00  0.00     0.044 A 
ATOM     10  C   UNL     1      17.202  35.465   8.551  1.00  0.00     0.022 A 
ENDROOT
BRANCH   1  11
ATOM     11  C   UNL     1      18.587  33.545   7.694  1.00  0.00     0.005 C 
ATOM     12  C   UNL     1      17.715  32.537   7.881  1.00  0.00    -0.005 C 
BRANCH  12  13
ATOM     13  C   UNL     1      18.045  31.063   7.715  1.00  0.00     0.143 C 
BRANCH  13  14
ATOM     14  N   UNL     1      17.155  30.371   6.783  1.00  0.00    -0.351 N 
ATOM     15  C   UNL     1      16.445  29.261   7.060  1.00  0.00     0.246 C 
ATOM     16  O   UNL     1      16.479  28.696   8.154  1.00  0.00    -0.272 OA
ATOM     17  H   UNL     1      17.025  30.808   5.882  1.00  0.00     0.163 HD
BRANCH  15  18
ATOM     18  C   UNL     1      15.525  28.700   5.958  1.00  0.00     0.259 C 
BRANCH  18  19
ATOM     19  O   UNL     1      14.144  28.748   6.328  1.00  0.00    -0.375 OA
ATOM     20  C   UNL     1      13.850  29.542   7.472  1.00  0.00     0.195 C 
ENDBRANCH  18  19
ENDBRANCH  15  18
ENDBRANCH  13  14
ENDBRANCH  12  13
ENDBRANCH   1  11
BRANCH   8  21
ATOM     21  N   UNL     1      14.923  36.611  10.031  1.00  0.00    -0.340 N 
ATOM     22  H   UNL     1      14.128  36.385   9.451  1.00  0.00     0.168 HD
BRANCH  21  23
ATOM     23  C   UNL     1      14.871  36.020  11.306  1.00  0.00     0.040 A 
ATOM     24  C   UNL     1      15.754  34.968  11.568  1.00  0.00     0.033 A 
ATOM     25  C   UNL     1      14.012  36.456  12.323  1.00  0.00     0.030 A 
ATOM     26  C   UNL     1      15.774  34.341  12.818  1.00  0.00    -0.006 A 
ATOM     27  C   UNL     1      14.025  35.836  13.571  1.00  0.00     0.049 A 
ATOM     28  C   UNL     1      14.904  34.781  13.826  1.00  0.00     0.130 A 
ATOM     29  C   UNL     1      16.732  33.189  13.072  1.00  0.00     0.048 C 
BRANCH  28  30
ATOM     30  O   UNL     1      14.902  34.188  15.067  1.00  0.00    -0.455 OA
BRANCH  30  31
ATOM     31  C   UNL     1      15.408  34.853  16.167  1.00  0.00     0.145 A 
ATOM     32  C   UNL     1      16.780  35.121  16.194  1.00  0.00     0.158 A 
ATOM     33  C   UNL     1      14.641  35.286  17.262  1.00  0.00     0.050 A 
ATOM     34  N   UNL     1      17.397  35.769  17.216  1.00  0.00    -0.258 NA
ATOM     35  C   UNL     1      15.255  35.955  18.323  1.00  0.00     0.027 A 
ATOM     36  C   UNL     1      16.633  36.176  18.262  1.00  0.00     0.038 A 
ATOM     37  C   UNL     1      17.369  36.897  19.375  1.00  0.00     0.066 C 
ENDBRANCH  30  31
ENDBRANCH  28  30
ENDBRANCH  21  23
ENDBRANCH   8  21
TORSDOF 9
ENDMDL
MODEL 5
REMARK VINA RESULT:    -9.519      2.261      3.496
REMARK INTER + INTRA:         -15.947
REMARK INTER:                 -14.964
REMARK INTRA:                  -0.983
REMARK UNBOUND:                -1.420
REMARK SMILES COCC(=O)NC/C=C/c1ccc2ncnc(Nc3ccc(Oc4ccc(C)nc4)c(C)c3)c2c1
REMARK SMILES IDX 10 1 11 2 12 3 13 4 14 5 15 6 16 7 17 8 34 9 35 10 9 11 8 12
REMARK SMILES IDX 7 13 6 14 4 15 5 16 3 18 2 19 1 20 18 21 19 23 33 24 20 25
REMARK SMILES IDX 31 26 21 27 22 28 32 29 23 30 24 31 30 32 25 33 29 34 26 35
REMARK SMILES IDX 27 36 28 37
REMARK H PARENT 6 17 18 22
ROOT
ATOM      1  C   UNL     1      15.031  41.259   7.615  1.00  0.00    -0.025 A 
ATOM      2  C   UNL     1      14.039  42.238   7.531  1.00  0.00     0.010 A 
ATOM      3  C   UNL     1      12.763  42.025   8.045  1.00  0.00     0.030 A 
ATOM      4  C   UNL     1      12.445  40.798   8.670  1.00  0.00     0.076 A 
ATOM      5  N   UNL     1      11.186  40.617   9.161  1.00  0.00    -0.236 NA
ATOM      6  C   UNL     1      10.929  39.423   9.746  1.00  0.00     0.224 A 
ATOM      7  N   UNL     1      11.791  38.391   9.897  1.00  0.00    -0.219 NA
ATOM      8  C   UNL     1      13.049  38.569   9.415  1.00  0.00     0.141 A 
ATOM      9  C   UNL     1      13.445  39.781   8.769  1.00  0.00     0.044 A 
ATOM     10  C   UNL     1      14.737  40.037   8.232  1.00  0.00     0.022 A 
ENDROOT
BRANCH   1  11
ATOM     11  C   UNL     1      16.367  41.553   7.058  1.00  0.00     0.005 C 
ATOM     12  C   UNL     1      17.222  40.664   6.517  1.00  0.00    -0.005 C 
BRANCH  12  13
ATOM     13  C   UNL     1      18.580  41.011   5.931  1.00  0.00     0.143 C 
BRANCH  13  14
ATOM     14  N   UNL     1      19.660  40.160   6.426  1.00  0.00    -0.351 N 
ATOM     15  C   UNL     1      19.851  38.868   6.095  1.00  0.00     0.246 C 
ATOM     16  O   UNL     1      19.109  38.255   5.326  1.00  0.00    -0.272 OA
ATOM     17  H   UNL     1      20.348  40.607   7.015  1.00  0.00     0.163 HD
BRANCH  15  18
ATOM     18  C   UNL     1      21.076  38.144   6.687  1.00  0.00     0.259 C 
BRANCH  18  19
ATOM     19  O   UNL     1      20.761  37.442   7.892  1.00  0.00    -0.375 OA
ATOM     20  C   UNL     1      20.698  36.024   7.769  1.00  0.00     0.195 C 
ENDBRANCH  18  19
ENDBRANCH  15  18
ENDBRANCH  13  14
ENDBRANCH  12  13
ENDBRANCH   1  11
BRANCH   8  21
ATOM     21  N   UNL     1      13.966  37.507   9.537  1.00  0.00    -0.340 N 
ATOM     22  H   UNL     1      14.508  37.349   8.700  1.00  0.00     0.168 HD
BRANCH  21  23
ATOM     23  C   UNL     1      14.296  36.633  10.588  1.00  0.00     0.040 A 
ATOM     24  C   UNL     1      15.391  35.784  10.405  1.00  0.00     0.033 A 
ATOM     25  C   UNL     1      13.609  36.601  11.809  1.00  0.00     0.030 A 
ATOM     26  C   UNL     1      15.792  34.898  11.411  1.00  0.00    -0.006 A 
ATOM     27  C   UNL     1      14.000  35.721  12.816  1.00  0.00     0.049 A 
ATOM     28  C   UNL     1      15.091  34.870  12.624  1.00  0.00     0.130 A 
ATOM     29  C   UNL     1      16.976  33.974  11.179  1.00  0.00     0.048 C 
BRANCH  28  30
ATOM     30  O   UNL     1      15.462  34.013  13.635  1.00  0.00    -0.455 OA
BRANCH  30  31
ATOM     31  C   UNL     1      15.773  34.498  14.891  1.00  0.00     0.145 A 
ATOM     32  C   UNL     1      16.981  35.184  15.045  1.00  0.00     0.158 A 
ATOM     33  C   UNL     1      14.958  34.354  16.028  1.00  0.00     0.050 A 
ATOM     34  N   UNL     1      17.398  35.710  16.226  1.00  0.00    -0.258 NA
ATOM     35  C   UNL     1      15.368  34.887  17.251  1.00  0.00     0.027 A 
ATOM     36  C   UNL     1      16.594  35.556  17.308  1.00  0.00     0.038 A 
ATOM     37  C   UNL     1      17.103  36.164  18.601  1.00  0.00     0.066 C 
ENDBRANCH  30  31
ENDBRANCH  28  30
ENDBRANCH  21  23
ENDBRANCH   8  21
TORSDOF 9
ENDMDL
MODEL 6
REMARK VINA RESULT:    -9.389      6.811      9.957
REMARK INTER + INTRA:         -15.749
REMARK INTER:                 -14.485
REMARK INTRA:                  -1.264
REMARK UNBOUND:                -1.420
REMARK SMILES COCC(=O)NC/C=C/c1ccc2ncnc(Nc3ccc(Oc4ccc(C)nc4)c(C)c3)c2c1
REMARK SMILES IDX 10 1 11 2 12 3 13 4 14 5 15 6 16 7 17 8 34 9 35 10 9 11 8 12
REMARK SMILES IDX 7 13 6 14 4 15 5 16 3 18 2 19 1 20 18 21 19 23 33 24 20 25
REMARK SMILES IDX 31 26 21 27 22 28 32 29 23 30 24 31 30 32 25 33 29 34 26 35
REMARK SMILES IDX 27 36 28 37
REMARK H PARENT 6 17 18 22
ROOT
ATOM      1  C   UNL     1      16.972  33.562  12.459  1.00  0.00    -0.025 A 
ATOM      2  C   UNL     1      15.945  34.328  13.013  1.00  0.00     0.010 A 
ATOM      3  C   UNL     1      15.982  34.741  14.342  1.00  0.00     0.030 A 
ATOM      4  C   UNL     1      17.076  34.388  15.165  1.00  0.00     0.076 A 
ATOM      5  N   UNL     1      17.083  34.804  16.463  1.00  0.00    -0.236 NA
ATOM      6  C   UNL     1      18.151  34.435  17.212  1.00  0.00     0.224 A 
ATOM      7  N   UNL     1      19.211  33.701  16.806  1.00  0.00    -0.219 NA
ATOM      8  C   UNL     1      19.212  33.289  15.511  1.00  0.00     0.141 A 
ATOM      9  C   UNL     1      18.140  33.605  14.619  1.00  0.00     0.044 A 
ATOM     10  C   UNL     1      18.066  33.203  13.257  1.00  0.00     0.022 A 
ENDROOT
BRANCH   1  11
ATOM     11  C   UNL     1      16.875  33.165  11.039  1.00  0.00     0.005 C 
ATOM     12  C   UNL     1      17.900  33.006  10.182  1.00  0.00    -0.005 C 
BRANCH  12  13
ATOM     13  C   UNL     1      17.760  32.573   8.732  1.00  0.00     0.143 C 
BRANCH  13  14
ATOM     14  N   UNL     1      16.956  31.363   8.563  1.00  0.00    -0.351 N 
ATOM     15  C   UNL     1      16.449  30.919   7.396  1.00  0.00     0.246 C 
ATOM     16  O   UNL     1      16.610  31.508   6.326  1.00  0.00    -0.272 OA
ATOM     17  H   UNL     1      16.832  30.790   9.385  1.00  0.00     0.163 HD
BRANCH  15  18
ATOM     18  C   UNL     1      15.661  29.595   7.410  1.00  0.00     0.259 C 
BRANCH  18  19
ATOM     19  O   UNL     1      16.517  28.455   7.533  1.00  0.00    -0.375 OA
ATOM     20  C   UNL     1      17.199  28.078   6.341  1.00  0.00     0.195 C 
ENDBRANCH  18  19
ENDBRANCH  15  18
ENDBRANCH  13  14
ENDBRANCH  12  13
ENDBRANCH   1  11
BRANCH   8  21
ATOM     21  N   UNL     1      20.292  32.505  15.060  1.00  0.00    -0.340 N 
ATOM     22  H   UNL     1      20.093  31.516  15.060  1.00  0.00     0.168 HD
BRANCH  21  23
ATOM     23  C   UNL     1      21.583  32.816  14.597  1.00  0.00     0.040 A 
ATOM     24  C   UNL     1      21.700  33.328  13.302  1.00  0.00     0.033 A 
ATOM     25  C   UNL     1      22.737  32.672  15.378  1.00  0.00     0.030 A 
ATOM     26  C   UNL     1      22.949  33.677  12.777  1.00  0.00    -0.006 A 
ATOM     27  C   UNL     1      23.985  33.016  14.862  1.00  0.00     0.049 A 
ATOM     28  C   UNL     1      24.097  33.521  13.565  1.00  0.00     0.130 A 
ATOM     29  C   UNL     1      23.050  34.216  11.359  1.00  0.00     0.048 C 
BRANCH  28  30
ATOM     30  O   UNL     1      25.339  33.858  13.079  1.00  0.00    -0.455 OA
BRANCH  30  31
ATOM     31  C   UNL     1      26.216  32.881  12.646  1.00  0.00     0.145 A 
ATOM     32  C   UNL     1      27.182  32.425  13.548  1.00  0.00     0.158 A 
ATOM     33  C   UNL     1      26.204  32.308  11.362  1.00  0.00     0.050 A 
ATOM     34  N   UNL     1      28.097  31.468  13.245  1.00  0.00    -0.258 NA
ATOM     35  C   UNL     1      27.135  31.323  11.030  1.00  0.00     0.027 A 
ATOM     36  C   UNL     1      28.064  30.931  11.998  1.00  0.00     0.038 A 
ATOM     37  C   UNL     1      29.104  29.866  11.711  1.00  0.00     0.066 C 
ENDBRANCH  30  31
ENDBRANCH  28  30
ENDBRANCH  21  23
ENDBRANCH   8  21
TORSDOF 9
ENDMDL
MODEL 7
REMARK VINA RESULT:    -9.381      2.311      7.617
REMARK INTER + INTRA:         -15.736
REMARK INTER:                 -14.593
REMARK INTRA:                  -1.143
REMARK UNBOUND:                -1.420
REMARK SMILES COCC(=O)NC/C=C/c1ccc2ncnc(Nc3ccc(Oc4ccc(C)nc4)c(C)c3)c2c1
REMARK SMILES IDX 10 1 11 2 12 3 13 4 14 5 15 6 16 7 17 8 34 9 35 10 9 11 8 12
REMARK SMILES IDX 7 13 6 14 4 15 5 16 3 18 2 19 1 20 18 21 19 23 33 24 20 25
REMARK SMILES IDX 31 26 21 27 22 28 32 29 23 30 24 31 30 32 25 33 29 34 26 35
REMARK SMILES IDX 27 36 28 37
REMARK H PARENT 6 17 18 22
ROOT
ATOM      1  C   UNL     1      11.547  38.134  11.718  1.00  0.00    -0.025 A 
ATOM      2  C   UNL     1      10.163  37.973  11.621  1.00  0.00     0.010 A 
ATOM      3  C   UNL     1       9.404  38.735  10.739  1.00  0.00     0.030 A 
ATOM      4  C   UNL     1      10.027  39.698   9.913  1.00  0.00     0.076 A 
ATOM      5  N   UNL     1       9.257  40.433   9.061  1.00  0.00    -0.236 NA
ATOM      6  C   UNL     1       9.901  41.345   8.295  1.00  0.00     0.224 A 
ATOM      7  N   UNL     1      11.228  41.603   8.285  1.00  0.00    -0.219 NA
ATOM      8  C   UNL     1      12.001  40.869   9.127  1.00  0.00     0.141 A 
ATOM      9  C   UNL     1      11.443  39.879   9.994  1.00  0.00     0.044 A 
ATOM     10  C   UNL     1      12.185  39.081  10.907  1.00  0.00     0.022 A 
ENDROOT
BRANCH   1  11
ATOM     11  C   UNL     1      12.295  37.285  12.668  1.00  0.00     0.005 C 
ATOM     12  C   UNL     1      12.677  36.009  12.471  1.00  0.00    -0.005 C 
BRANCH  12  13
ATOM     13  C   UNL     1      13.468  35.176  13.465  1.00  0.00     0.143 C 
BRANCH  13  14
ATOM     14  N   UNL     1      14.807  34.825  12.993  1.00  0.00    -0.351 N 
ATOM     15  C   UNL     1      15.796  34.319  13.755  1.00  0.00     0.246 C 
ATOM     16  O   UNL     1      15.671  34.102  14.961  1.00  0.00    -0.272 OA
ATOM     17  H   UNL     1      14.969  34.916  12.001  1.00  0.00     0.163 HD
BRANCH  15  18
ATOM     18  C   UNL     1      17.130  33.970  13.067  1.00  0.00     0.259 C 
BRANCH  18  19
ATOM     19  O   UNL     1      18.173  33.703  14.009  1.00  0.00    -0.375 OA
ATOM     20  C   UNL     1      19.154  34.728  14.134  1.00  0.00     0.195 C 
ENDBRANCH  18  19
ENDBRANCH  15  18
ENDBRANCH  13  14
ENDBRANCH  12  13
ENDBRANCH   1  11
BRANCH   8  21
ATOM     21  N   UNL     1      13.386  41.126   9.156  1.00  0.00    -0.340 N 
ATOM     22  H   UNL     1      13.675  41.667   9.958  1.00  0.00     0.168 HD
BRANCH  21  23
ATOM     23  C   UNL     1      14.451  40.773   8.308  1.00  0.00     0.040 A 
ATOM     24  C   UNL     1      15.398  39.870   8.799  1.00  0.00     0.033 A 
ATOM     25  C   UNL     1      14.584  41.250   6.997  1.00  0.00     0.030 A 
ATOM     26  C   UNL     1      16.476  39.457   8.010  1.00  0.00    -0.006 A 
ATOM     27  C   UNL     1      15.655  40.844   6.204  1.00  0.00     0.049 A 
ATOM     28  C   UNL     1      16.603  39.947   6.703  1.00  0.00     0.130 A 
ATOM     29  C   UNL     1      17.501  38.487   8.575  1.00  0.00     0.048 C 
BRANCH  28  30
ATOM     30  O   UNL     1      17.649  39.558   5.900  1.00  0.00    -0.455 OA
BRANCH  30  31
ATOM     31  C   UNL     1      18.844  40.251   5.914  1.00  0.00     0.145 A 
ATOM     32  C   UNL     1      20.029  39.510   5.920  1.00  0.00     0.158 A 
ATOM     33  C   UNL     1      18.956  41.653   5.919  1.00  0.00     0.050 A 
ATOM     34  N   UNL     1      21.266  40.072   5.931  1.00  0.00    -0.258 NA
ATOM     35  C   UNL     1      20.217  42.252   5.930  1.00  0.00     0.027 A 
ATOM     36  C   UNL     1      21.345  41.428   5.937  1.00  0.00     0.038 A 
ATOM     37  C   UNL     1      22.747  42.006   5.946  1.00  0.00     0.066 C 
ENDBRANCH  30  31
ENDBRANCH  28  30
ENDBRANCH  21  23
ENDBRANCH   8  21
TORSDOF 9
ENDMDL
MODEL 8
REMARK VINA RESULT:    -9.380      3.220      6.445
REMARK INTER + INTRA:         -15.735
REMARK INTER:                 -14.440
REMARK INTRA:                  -1.295
REMARK UNBOUND:                -1.420
REMARK SMILES COCC(=O)NC/C=C/c1ccc2ncnc(Nc3ccc(Oc4ccc(C)nc4)c(C)c3)c2c1
REMARK SMILES IDX 10 1 11 2 12 3 13 4 14 5 15 6 16 7 17 8 34 9 35 10 9 11 8 12
REMARK SMILES IDX 7 13 6 14 4 15 5 16 3 18 2 19 1 20 18 21 19 23 33 24 20 25
REMARK SMILES IDX 31 26 21 27 22 28 32 29 23 30 24 31 30 32 25 33 29 34 26 35
REMARK SMILES IDX 27 36 28 37
REMARK H PARENT 6 17 18 22
ROOT
ATOM      1  C   UNL     1      16.358  38.852   8.705  1.00  0.00    -0.025 A 
ATOM      2  C   UNL     1      17.414  39.408   7.979  1.00  0.00     0.010 A 
ATOM      3  C   UNL     1      18.499  38.637   7.572  1.00  0.00     0.030 A 
ATOM      4  C   UNL     1      18.552  37.260   7.887  1.00  0.00     0.076 A 
ATOM      5  N   UNL     1      19.630  36.533   7.477  1.00  0.00    -0.236 NA
ATOM      6  C   UNL     1      19.636  35.219   7.809  1.00  0.00     0.224 A 
ATOM      7  N   UNL     1      18.684  34.554   8.502  1.00  0.00    -0.219 NA
ATOM      8  C   UNL     1      17.606  35.273   8.908  1.00  0.00     0.141 A 
ATOM      9  C   UNL     1      17.482  36.670   8.628  1.00  0.00     0.044 A 
ATOM     10  C   UNL     1      16.390  37.489   9.026  1.00  0.00     0.022 A 
ENDROOT
BRANCH   1  11
ATOM     11  C   UNL     1      15.232  39.723   9.098  1.00  0.00     0.005 C 
ATOM     12  C   UNL     1      15.004  40.978   8.669  1.00  0.00    -0.005 C 
BRANCH  12  13
ATOM     13  C   UNL     1      13.818  41.835   9.079  1.00  0.00     0.143 C 
BRANCH  13  14
ATOM     14  N   UNL     1      12.781  41.087   9.788  1.00  0.00    -0.351 N 
ATOM     15  C   UNL     1      11.775  40.404   9.208  1.00  0.00     0.246 C 
ATOM     16  O   UNL     1      11.620  40.345   7.987  1.00  0.00    -0.272 OA
ATOM     17  H   UNL     1      12.874  41.036  10.793  1.00  0.00     0.163 HD
BRANCH  15  18
ATOM     18  C   UNL     1      10.800  39.639  10.123  1.00  0.00     0.259 C 
BRANCH  18  19
ATOM     19  O   UNL     1      11.413  39.231  11.349  1.00  0.00    -0.375 OA
ATOM     20  C   UNL     1      10.590  38.449  12.209  1.00  0.00     0.195 C 
ENDBRANCH  18  19
ENDBRANCH  15  18
ENDBRANCH  13  14
ENDBRANCH  12  13
ENDBRANCH   1  11
BRANCH   8  21
ATOM     21  N   UNL     1      16.605  34.615   9.650  1.00  0.00    -0.340 N 
ATOM     22  H   UNL     1      15.922  34.148   9.071  1.00  0.00     0.168 HD
BRANCH  21  23
ATOM     23  C   UNL     1      16.369  34.461  11.027  1.00  0.00     0.040 A 
ATOM     24  C   UNL     1      15.265  35.121  11.573  1.00  0.00     0.033 A 
ATOM     25  C   UNL     1      17.158  33.655  11.859  1.00  0.00     0.030 A 
ATOM     26  C   UNL     1      14.954  35.003  12.932  1.00  0.00    -0.006 A 
ATOM     27  C   UNL     1      16.856  33.532  13.214  1.00  0.00     0.049 A 
ATOM     28  C   UNL     1      15.756  34.201  13.755  1.00  0.00     0.130 A 
ATOM     29  C   UNL     1      13.758  35.746  13.503  1.00  0.00     0.048 C 
BRANCH  28  30
ATOM     30  O   UNL     1      15.475  34.060  15.095  1.00  0.00    -0.455 OA
BRANCH  30  31
ATOM     31  C   UNL     1      16.150  34.810  16.039  1.00  0.00     0.145 A 
ATOM     32  C   UNL     1      15.497  35.086  17.243  1.00  0.00     0.158 A 
ATOM     33  C   UNL     1      17.454  35.313  15.877  1.00  0.00     0.050 A 
ATOM     34  N   UNL     1      16.054  35.808  18.250  1.00  0.00    -0.258 NA
ATOM     35  C   UNL     1      18.045  36.058  16.899  1.00  0.00     0.027 A 
ATOM     36  C   UNL     1      17.313  36.284  18.068  1.00  0.00     0.038 A 
ATOM     37  C   UNL     1      17.890  37.081  19.221  1.00  0.00     0.066 C 
ENDBRANCH  30  31
ENDBRANCH  28  30
ENDBRANCH  21  23
ENDBRANCH   8  21
TORSDOF 9
ENDMDL
MODEL 9
REMARK VINA RESULT:    -9.259      2.539      8.640
REMARK INTER + INTRA:         -15.550
REMARK INTER:                 -14.149
REMARK INTRA:                  -1.402
REMARK UNBOUND:                -1.420
REMARK SMILES COCC(=O)NC/C=C/c1ccc2ncnc(Nc3ccc(Oc4ccc(C)nc4)c(C)c3)c2c1
REMARK SMILES IDX 10 1 11 2 12 3 13 4 14 5 15 6 16 7 17 8 34 9 35 10 9 11 8 12
REMARK SMILES IDX 7 13 6 14 4 15 5 16 3 18 2 19 1 20 18 21 19 23 33 24 20 25
REMARK SMILES IDX 31 26 21 27 22 28 32 29 23 30 24 31 30 32 25 33 29 34 26 35
REMARK SMILES IDX 27 36 28 37
REMARK H PARENT 6 17 18 22
ROOT
ATOM      1  C   UNL     1      15.331  34.776  14.155  1.00  0.00    -0.025 A 
ATOM      2  C   UNL     1      15.637  35.048  15.490  1.00  0.00     0.010 A 
ATOM      3  C   UNL     1      16.851  34.661  16.050  1.00  0.00     0.030 A 
ATOM      4  C   UNL     1      17.809  33.977  15.267  1.00  0.00     0.076 A 
ATOM      5  N   UNL     1      18.987  33.607  15.844  1.00  0.00    -0.236 NA
ATOM      6  C   UNL     1      19.869  32.950  15.054  1.00  0.00     0.224 A 
ATOM      7  N   UNL     1      19.705  32.624  13.752  1.00  0.00    -0.219 NA
ATOM      8  C   UNL     1      18.535  32.996  13.170  1.00  0.00     0.141 A 
ATOM      9  C   UNL     1      17.518  33.689  13.898  1.00  0.00     0.044 A 
ATOM     10  C   UNL     1      16.267  34.101  13.361  1.00  0.00     0.022 A 
ENDROOT
BRANCH   1  11
ATOM     11  C   UNL     1      14.029  35.224  13.620  1.00  0.00     0.005 C 
ATOM     12  C   UNL     1      13.812  36.297  12.837  1.00  0.00    -0.005 C 
BRANCH  12  13
ATOM     13  C   UNL     1      12.458  36.712  12.287  1.00  0.00     0.143 C 
BRANCH  13  14
ATOM     14  N   UNL     1      12.503  37.943  11.500  1.00  0.00    -0.351 N 
ATOM     15  C   UNL     1      12.686  38.012  10.167  1.00  0.00     0.246 C 
ATOM     16  O   UNL     1      12.844  37.017   9.458  1.00  0.00    -0.272 OA
ATOM     17  H   UNL     1      12.318  38.800  12.001  1.00  0.00     0.163 HD
BRANCH  15  18
ATOM     18  C   UNL     1      12.659  39.404   9.506  1.00  0.00     0.259 C 
BRANCH  18  19
ATOM     19  O   UNL     1      11.596  40.221  10.005  1.00  0.00    -0.375 OA
ATOM     20  C   UNL     1      10.321  39.981   9.418  1.00  0.00     0.195 C 
ENDBRANCH  18  19
ENDBRANCH  15  18
ENDBRANCH  13  14
ENDBRANCH  12  13
ENDBRANCH   1  11
BRANCH   8  21
ATOM     21  N   UNL     1      18.323  32.655  11.820  1.00  0.00    -0.340 N 
ATOM     22  H   UNL     1      17.989  31.710  11.695  1.00  0.00     0.168 HD
BRANCH  21  23
ATOM     23  C   UNL     1      18.465  33.361  10.612  1.00  0.00     0.040 A 
ATOM     24  C   UNL     1      19.760  33.697  10.207  1.00  0.00     0.033 A 
ATOM     25  C   UNL     1      17.386  33.705   9.789  1.00  0.00     0.030 A 
ATOM     26  C   UNL     1      19.984  34.383   9.009  1.00  0.00    -0.006 A 
ATOM     27  C   UNL     1      17.599  34.390   8.594  1.00  0.00     0.049 A 
ATOM     28  C   UNL     1      18.895  34.730   8.198  1.00  0.00     0.130 A 
ATOM     29  C   UNL     1      21.401  34.752   8.601  1.00  0.00     0.048 C 
BRANCH  28  30
ATOM     30  O   UNL     1      19.082  35.402   7.012  1.00  0.00    -0.455 OA
BRANCH  30  31
ATOM     31  C   UNL     1      18.783  36.747   6.910  1.00  0.00     0.145 A 
ATOM     32  C   UNL     1      19.208  37.425   5.764  1.00  0.00     0.158 A 
ATOM     33  C   UNL     1      18.075  37.484   7.876  1.00  0.00     0.050 A 
ATOM     34  N   UNL     1      18.974  38.745   5.544  1.00  0.00    -0.258 NA
ATOM     35  C   UNL     1      17.823  38.842   7.669  1.00  0.00     0.027 A 
ATOM     36  C   UNL     1      18.290  39.434   6.493  1.00  0.00     0.038 A 
ATOM     37  C   UNL     1      18.052  40.903   6.199  1.00  0.00     0.066 C 
ENDBRANCH  30  31
ENDBRANCH  28  30
ENDBRANCH  21  23
ENDBRANCH   8  21
TORSDOF 9
ENDMDL
