MODEL 4
REMARK VINA RESULT:    -8.878      4.921      6.882
REMARK INTER + INTRA:         -15.031
REMARK INTER:                 -13.631
REMARK INTRA:                  -1.401
REMARK UNBOUND:                -1.223
REMARK SMILES Cc1cc2c(CC(=O)O)csc2cc1OCc1ccccc1COc1ccc(C(F)(F)F)cc1
REMARK SMILES IDX 16 1 15 2 14 3 2 4 3 5 4 6 13 7 5 8 12 9 10 10 11 11 1 12
REMARK SMILES IDX 6 13 7 14 8 15 9 16 17 18 18 19 22 20 19 21 21 22 20 23
REMARK SMILES IDX 23 24 24 25 25 26 26 27 34 28 27 29 33 30 28 31 29 32 30 33
REMARK SMILES IDX 31 34 32 35
REMARK H PARENT 9 17
ROOT
ATOM      1  C   UNL     1      -8.465  -8.641 -24.797  1.00  0.00     0.265 C 
ENDROOT
BRANCH   1   2
ATOM      2  O   UNL     1      -9.002  -7.607 -25.629  1.00  0.00    -0.489 OA
BRANCH   2   3
ATOM      3  C   UNL     1      -9.532  -7.976 -26.840  1.00  0.00     0.124 A 
ATOM      4  C   UNL     1     -10.882  -7.666 -27.034  1.00  0.00    -0.008 A 
ATOM      5  C   UNL     1     -11.511  -8.021 -28.242  1.00  0.00     0.017 A 
ATOM      6  C   UNL     1     -10.807  -8.700 -29.268  1.00  0.00    -0.003 A 
ATOM      7  C   UNL     1      -8.820  -8.667 -27.826  1.00  0.00     0.066 A 
ATOM      8  C   UNL     1     -11.243  -9.156 -30.572  1.00  0.00    -0.018 A 
ATOM      9  C   UNL     1      -9.468  -9.014 -29.030  1.00  0.00     0.038 A 
ATOM     10  C   UNL     1     -10.222  -9.795 -31.250  1.00  0.00     0.070 A 
ATOM     11  S   UNL     1      -8.772  -9.851 -30.363  1.00  0.00    -0.143 S 
ATOM     12  C   UNL     1     -11.669  -6.954 -25.968  1.00  0.00     0.048 C 
BRANCH   8  13
ATOM     13  C   UNL     1     -12.626  -8.963 -31.131  1.00  0.00     0.159 C 
BRANCH  13  14
ATOM     14  C   UNL     1     -13.378 -10.262 -31.297  1.00  0.00     0.307 C 
ATOM     15  O   UNL     1     -13.657 -11.092 -30.450  1.00  0.00    -0.252 OA
BRANCH  14  16
ATOM     16  O   UNL     1     -13.725 -10.477 -32.586  1.00  0.00    -0.481 OA
ATOM     17  H   UNL     1     -13.458  -9.649 -33.038  1.00  0.00     0.296 HD
ENDBRANCH  14  16
ENDBRANCH  13  14
ENDBRANCH   8  13
ENDBRANCH   2   3
ENDBRANCH   1   2
BRANCH   1  18
ATOM     18  C   UNL     1      -9.214  -8.838 -23.489  1.00  0.00    -0.004 A 
ATOM     19  C   UNL     1     -10.616  -8.962 -23.495  1.00  0.00     0.007 A 
ATOM     20  C   UNL     1      -8.530  -8.859 -22.248  1.00  0.00    -0.004 A 
ATOM     21  C   UNL     1     -11.328  -9.151 -22.311  1.00  0.00     0.000 A 
ATOM     22  C   UNL     1      -9.267  -9.072 -21.068  1.00  0.00     0.007 A 
ATOM     23  C   UNL     1     -10.654  -9.213 -21.099  1.00  0.00     0.000 A 
BRANCH  20  24
ATOM     24  C   UNL     1      -7.019  -8.709 -22.175  1.00  0.00     0.265 C 
BRANCH  24  25
ATOM     25  O   UNL     1      -6.529  -8.309 -20.892  1.00  0.00    -0.489 OA
BRANCH  25  26
ATOM     26  C   UNL     1      -6.083  -7.023 -20.747  1.00  0.00     0.119 A 
ATOM     27  C   UNL     1      -4.702  -6.899 -20.585  1.00  0.00     0.047 A 
ATOM     28  C   UNL     1      -6.879  -5.879 -20.718  1.00  0.00     0.047 A 
ATOM     29  C   UNL     1      -4.113  -5.644 -20.414  1.00  0.00     0.017 A 
ATOM     30  C   UNL     1      -6.292  -4.619 -20.547  1.00  0.00     0.017 A 
ATOM     31  C   UNL     1      -4.905  -4.487 -20.388  1.00  0.00     0.056 A 
BRANCH  31  32
ATOM     32  C   UNL     1      -4.274  -3.126 -20.225  1.00  0.00     0.416 C 
ATOM     33  F   UNL     1      -2.926  -3.136 -20.419  1.00  0.00    -0.166 F 
ATOM     34  F   UNL     1      -4.767  -2.199 -21.094  1.00  0.00    -0.166 F 
ATOM     35  F   UNL     1      -4.468  -2.613 -18.979  1.00  0.00    -0.166 F 
ENDBRANCH  31  32
ENDBRANCH  25  26
ENDBRANCH  24  25
ENDBRANCH  20  24
ENDBRANCH   1  18
TORSDOF 10
ENDMDL
