MODEL 2
REMARK VINA RESULT:    -8.684      3.878      6.281
REMARK INTER + INTRA:         -16.374
REMARK INTER:                 -15.609
REMARK INTRA:                  -0.765
REMARK UNBOUND:                -1.344
REMARK SMILES CCCc1c(OCCOc2ccc(CCCC(=O)O)cc2)ccc2c(-c3ccccc3)noc12
REMARK SMILES IDX 9 1 8 2 7 3 6 4 5 5 4 6 34 7 22 8 33 9 24 10 23 11 32 12
REMARK SMILES IDX 25 13 3 14 2 15 1 16 26 17 27 18 31 19 28 20 30 21 29 22
REMARK SMILES IDX 10 23 11 24 21 25 12 26 20 27 13 28 14 29 15 30 16 31 17 32
REMARK SMILES IDX 18 33 19 34
REMARK H PARENT 19 35
ROOT
ATOM      1  O   UNL     1       7.229   5.870  -6.864  1.00  0.00    -0.490 OA
ENDROOT
BRANCH   1   2
ATOM      2  C   UNL     1       8.068   4.817  -6.390  1.00  0.00     0.271 C 
BRANCH   2   3
ATOM      3  C   UNL     1       8.982   4.296  -7.497  1.00  0.00     0.271 C 
BRANCH   3   4
ATOM      4  O   UNL     1      10.185   5.071  -7.529  1.00  0.00    -0.490 OA
BRANCH   4   5
ATOM      5  C   UNL     1      10.324   5.902  -8.613  1.00  0.00     0.126 A 
ATOM      6  C   UNL     1      10.972   5.360  -9.743  1.00  0.00     0.040 A 
ATOM      7  C   UNL     1      11.125   6.249 -10.816  1.00  0.00     0.174 A 
ATOM      8  C   UNL     1       9.920   7.243  -8.571  1.00  0.00     0.048 A 
ATOM      9  O   UNL     1      11.678   5.951 -12.021  1.00  0.00    -0.355 OA
ATOM     10  C   UNL     1      10.729   7.575 -10.820  1.00  0.00     0.050 A 
ATOM     11  C   UNL     1      10.105   8.091  -9.671  1.00  0.00     0.018 A 
ATOM     12  N   UNL     1      11.655   7.063 -12.837  1.00  0.00    -0.079 NA
ATOM     13  C   UNL     1      11.105   8.051 -12.112  1.00  0.00     0.121 A 
BRANCH   6  14
ATOM     14  C   UNL     1      11.435   3.929  -9.800  1.00  0.00     0.043 C 
BRANCH  14  15
ATOM     15  C   UNL     1      10.771   3.108 -10.910  1.00  0.00     0.002 C 
ATOM     16  C   UNL     1       9.299   2.818 -10.647  1.00  0.00     0.004 C 
ENDBRANCH  14  15
ENDBRANCH   6  14
BRANCH  13  17
ATOM     17  C   UNL     1      10.952   9.393 -12.669  1.00  0.00     0.004 A 
ATOM     18  C   UNL     1      10.563  10.459 -11.844  1.00  0.00     0.010 A 
ATOM     19  C   UNL     1      11.174   9.636 -14.032  1.00  0.00     0.010 A 
ATOM     20  C   UNL     1      10.418  11.746 -12.370  1.00  0.00     0.001 A 
ATOM     21  C   UNL     1      11.027  10.923 -14.556  1.00  0.00     0.001 A 
ATOM     22  C   UNL     1      10.653  11.976 -13.723  1.00  0.00     0.000 A 
ENDBRANCH  13  17
ENDBRANCH   4   5
ENDBRANCH   3   4
ENDBRANCH   2   3
ENDBRANCH   1   2
BRANCH   1  23
ATOM     23  C   UNL     1       6.207   6.300  -6.066  1.00  0.00     0.119 A 
ATOM     24  C   UNL     1       5.611   7.559  -6.091  1.00  0.00     0.047 A 
ATOM     25  C   UNL     1       5.758   5.354  -5.142  1.00  0.00     0.047 A 
ATOM     26  C   UNL     1       4.569   7.863  -5.206  1.00  0.00     0.007 A 
ATOM     27  C   UNL     1       4.715   5.652  -4.261  1.00  0.00     0.007 A 
ATOM     28  C   UNL     1       4.108   6.912  -4.287  1.00  0.00    -0.048 A 
BRANCH  28  29
ATOM     29  C   UNL     1       2.972   7.238  -3.350  1.00  0.00     0.036 C 
BRANCH  29  30
ATOM     30  C   UNL     1       2.822   6.238  -2.199  1.00  0.00     0.016 C 
BRANCH  30  31
ATOM     31  C   UNL     1       2.271   6.878  -0.926  1.00  0.00     0.123 C 
BRANCH  31  32
ATOM     32  C   UNL     1       3.042   8.110  -0.543  1.00  0.00     0.303 C 
ATOM     33  O   UNL     1       4.256   8.228  -0.552  1.00  0.00    -0.252 OA
BRANCH  32  34
ATOM     34  O   UNL     1       2.257   9.120  -0.124  1.00  0.00    -0.481 OA
ATOM     35  H   UNL     1       2.767   9.926  -0.351  1.00  0.00     0.296 HD
ENDBRANCH  32  34
ENDBRANCH  31  32
ENDBRANCH  30  31
ENDBRANCH  29  30
ENDBRANCH  28  29
ENDBRANCH   1  23
TORSDOF 13
ENDMDL
