MODEL 6
REMARK VINA RESULT:    -7.813      6.387      8.092
REMARK INTER + INTRA:         -14.866
REMARK INTER:                 -13.757
REMARK INTRA:                  -1.109
REMARK UNBOUND:                -1.344
REMARK SMILES CCCc1c(OCCOc2ccc(CCCC(=O)O)cc2)ccc2c(-c3ccccc3)noc12
REMARK SMILES IDX 9 1 8 2 7 3 6 4 5 5 4 6 34 7 22 8 33 9 24 10 23 11 32 12
REMARK SMILES IDX 25 13 3 14 2 15 1 16 26 17 27 18 31 19 28 20 30 21 29 22
REMARK SMILES IDX 10 23 11 24 21 25 12 26 20 27 13 28 14 29 15 30 16 31 17 32
REMARK SMILES IDX 18 33 19 34
REMARK H PARENT 19 35
ROOT
ATOM      1  O   UNL     1       7.968  10.612  -5.577  1.00  0.00    -0.490 OA
ENDROOT
BRANCH   1   2
ATOM      2  C   UNL     1       8.832  11.001  -4.509  1.00  0.00     0.271 C 
BRANCH   2   3
ATOM      3  C   UNL     1      10.216  11.384  -5.029  1.00  0.00     0.271 C 
BRANCH   3   4
ATOM      4  O   UNL     1      10.080  12.288  -6.131  1.00  0.00    -0.490 OA
BRANCH   4   5
ATOM      5  C   UNL     1      10.257  11.734  -7.375  1.00  0.00     0.126 A 
ATOM      6  C   UNL     1      10.110  12.602  -8.477  1.00  0.00     0.040 A 
ATOM      7  C   UNL     1      10.264  11.993  -9.730  1.00  0.00     0.174 A 
ATOM      8  C   UNL     1      10.486  10.362  -7.545  1.00  0.00     0.048 A 
ATOM      9  O   UNL     1      10.209  12.625 -10.932  1.00  0.00    -0.355 OA
ATOM     10  C   UNL     1      10.505  10.647  -9.941  1.00  0.00     0.050 A 
ATOM     11  C   UNL     1      10.623   9.804  -8.823  1.00  0.00     0.018 A 
ATOM     12  N   UNL     1      10.413  11.717 -11.951  1.00  0.00    -0.079 NA
ATOM     13  C   UNL     1      10.570  10.520 -11.362  1.00  0.00     0.121 A 
BRANCH   6  14
ATOM     14  C   UNL     1       9.841  14.075  -8.316  1.00  0.00     0.043 C 
BRANCH  14  15
ATOM     15  C   UNL     1       8.373  14.462  -8.521  1.00  0.00     0.002 C 
ATOM     16  C   UNL     1       8.147  15.342  -9.744  1.00  0.00     0.004 C 
ENDBRANCH  14  15
ENDBRANCH   6  14
BRANCH  13  17
ATOM     17  C   UNL     1      10.780   9.314 -12.160  1.00  0.00     0.004 A 
ATOM     18  C   UNL     1      10.173   8.106 -11.786  1.00  0.00     0.010 A 
ATOM     19  C   UNL     1      11.599   9.338 -13.298  1.00  0.00     0.010 A 
ATOM     20  C   UNL     1      10.367   6.950 -12.547  1.00  0.00     0.001 A 
ATOM     21  C   UNL     1      11.793   8.181 -14.057  1.00  0.00     0.001 A 
ATOM     22  C   UNL     1      11.174   6.990 -13.682  1.00  0.00     0.000 A 
ENDBRANCH  13  17
ENDBRANCH   4   5
ENDBRANCH   3   4
ENDBRANCH   2   3
ENDBRANCH   1   2
BRANCH   1  23
ATOM     23  C   UNL     1       6.882   9.836  -5.287  1.00  0.00     0.119 A 
ATOM     24  C   UNL     1       6.500   8.668  -5.946  1.00  0.00     0.047 A 
ATOM     25  C   UNL     1       6.102  10.304  -4.228  1.00  0.00     0.047 A 
ATOM     26  C   UNL     1       5.354   7.973  -5.540  1.00  0.00     0.007 A 
ATOM     27  C   UNL     1       4.961   9.611  -3.817  1.00  0.00     0.007 A 
ATOM     28  C   UNL     1       4.577   8.434  -4.470  1.00  0.00    -0.048 A 
BRANCH  28  29
ATOM     29  C   UNL     1       3.355   7.671  -4.024  1.00  0.00     0.036 C 
BRANCH  29  30
ATOM     30  C   UNL     1       3.651   6.615  -2.953  1.00  0.00     0.016 C 
BRANCH  30  31
ATOM     31  C   UNL     1       2.895   6.864  -1.649  1.00  0.00     0.123 C 
BRANCH  31  32
ATOM     32  C   UNL     1       3.457   8.037  -0.896  1.00  0.00     0.303 C 
ATOM     33  O   UNL     1       4.640   8.270  -0.711  1.00  0.00    -0.252 OA
BRANCH  32  34
ATOM     34  O   UNL     1       2.510   8.835  -0.370  1.00  0.00    -0.481 OA
ATOM     35  H   UNL     1       2.840   9.742  -0.546  1.00  0.00     0.296 HD
ENDBRANCH  32  34
ENDBRANCH  31  32
ENDBRANCH  30  31
ENDBRANCH  29  30
ENDBRANCH  28  29
ENDBRANCH   1  23
TORSDOF 13
ENDMDL
