REMARK VINA RESULT:   -10.053      1.693      2.208
REMARK INTER + INTRA:         -16.240
REMARK INTER:                 -13.990
REMARK INTRA:                  -2.249
REMARK UNBOUND:                -2.073
REMARK SMILES COc1cc(O[C@H]2CCN(C)CC2(F)F)c2c(Nc3ccc(Oc4cc5ncnn5cc4F)c(C)c3)ncnc2c1
REMARK SMILES IDX 18 1 17 3 3 4 4 5 41 6 5 7 40 8 16 9 39 10 38 11 37 12 2 13
REMARK SMILES IDX 1 14 6 15 7 16 8 17 13 18 9 19 12 20 10 21 14 22 15 23 11 24
REMARK SMILES IDX 19 25 20 26 36 27 21 28 34 29 22 30 35 31 23 32 24 33 25 34
REMARK SMILES IDX 32 35 26 36 31 37 27 38 30 39 28 40 29 41 33 42
REMARK H PARENT 18 2
ROOT
ATOM      1  N   UNL     1      14.194   2.439  26.205  1.00  0.00    -0.339 N 
ATOM      2  H   UNL     1      13.460   2.673  25.542  1.00  0.00     0.168 HD
ENDROOT
BRANCH   1   3
ATOM      3  C   UNL     1      15.477   2.465  25.618  1.00  0.00     0.145 A 
ATOM      4  C   UNL     1      16.477   4.844  22.244  1.00  0.00     0.124 A 
ATOM      5  C   UNL     1      15.161   4.882  22.684  1.00  0.00     0.093 A 
ATOM      6  C   UNL     1      17.393   4.043  22.923  1.00  0.00     0.075 A 
ATOM      7  C   UNL     1      14.780   4.137  23.808  1.00  0.00     0.136 A 
ATOM      8  C   UNL     1      17.040   3.270  24.021  1.00  0.00     0.083 A 
ATOM      9  C   UNL     1      15.718   3.298  24.491  1.00  0.00     0.085 A 
ATOM     10  N   UNL     1      18.004   2.528  24.570  1.00  0.00    -0.236 NA
ATOM     11  C   UNL     1      17.661   1.780  25.619  1.00  0.00     0.224 A 
ATOM     12  N   UNL     1      16.451   1.713  26.168  1.00  0.00    -0.218 NA
BRANCH   4  13
ATOM     13  O   UNL     1      16.991   5.522  21.174  1.00  0.00    -0.497 OA
ATOM     14  C   UNL     1      16.101   6.353  20.440  1.00  0.00     0.278 C 
ENDBRANCH   4  13
BRANCH   7  15
ATOM     15  O   UNL     1      13.470   4.116  24.232  1.00  0.00    -0.483 OA
BRANCH  15  16
ATOM     16  C   UNL     1      12.779   5.384  24.263  1.00  0.00     0.245 C 
ATOM     17  C   UNL     1      11.299   5.144  23.949  1.00  0.00     0.067 C 
ATOM     18  C   UNL     1      12.909   6.004  25.660  1.00  0.00     0.296 C 
ATOM     19  C   UNL     1      10.496   6.439  24.063  1.00  0.00     0.088 C 
ATOM     20  C   UNL     1      12.016   7.247  25.793  1.00  0.00     0.165 C 
ATOM     21  N   UNL     1      10.608   7.013  25.406  1.00  0.00    -0.300 NA
ATOM     22  F   UNL     1      14.201   6.353  25.888  1.00  0.00    -0.201 F 
ATOM     23  F   UNL     1      12.577   5.091  26.611  1.00  0.00    -0.201 F 
ATOM     24  C   UNL     1       9.828   8.244  25.522  1.00  0.00     0.105 C 
ENDBRANCH  15  16
ENDBRANCH   7  15
ENDBRANCH   1   3
BRANCH   1  25
ATOM     25  C   UNL     1      13.732   2.042  27.471  1.00  0.00     0.040 A 
ATOM     26  C   UNL     1      12.795   0.999  27.546  1.00  0.00     0.030 A 
ATOM     27  C   UNL     1      14.142   2.633  28.672  1.00  0.00     0.033 A 
ATOM     28  C   UNL     1      12.294   0.558  28.773  1.00  0.00     0.049 A 
ATOM     29  C   UNL     1      13.663   2.196  29.920  1.00  0.00    -0.006 A 
ATOM     30  C   UNL     1      12.745   1.142  29.956  1.00  0.00     0.130 A 
ATOM     31  C   UNL     1      14.105   2.886  31.178  1.00  0.00     0.048 C 
BRANCH  30  32
ATOM     32  O   UNL     1      12.243   0.746  31.176  1.00  0.00    -0.454 OA
BRANCH  32  33
ATOM     33  C   UNL     1      10.900   0.962  31.444  1.00  0.00     0.168 A 
ATOM     34  C   UNL     1      10.322   2.166  31.667  1.00  0.00     0.099 A 
ATOM     35  C   UNL     1      10.087  -0.246  31.399  1.00  0.00     0.184 A 
ATOM     36  C   UNL     1       8.922   2.240  31.913  1.00  0.00     0.159 A 
ATOM     37  C   UNL     1       8.767  -0.183  31.620  1.00  0.00     0.158 A 
ATOM     38  N   UNL     1       8.131   3.253  32.184  1.00  0.00    -0.215 NA
ATOM     39  N   UNL     1       8.184   1.051  31.882  1.00  0.00    -0.218 N 
ATOM     40  C   UNL     1       6.914   2.656  32.321  1.00  0.00     0.247 A 
ATOM     41  N   UNL     1       6.886   1.334  32.143  1.00  0.00    -0.155 NA
ATOM     42  F   UNL     1      10.679  -1.430  31.146  1.00  0.00    -0.201 F 
ENDBRANCH  32  33
ENDBRANCH  30  32
ENDBRANCH   1  25
TORSDOF 7
