REMARK VINA RESULT:    -8.460      1.726      2.701
REMARK INTER + INTRA:          -8.911
REMARK INTER:                  -9.446
REMARK INTRA:                   0.535
REMARK UNBOUND:                 0.291
REMARK SMILES Cn1nc(-c2ccc3ccccc3c2)c2c(N)ncnc21
REMARK SMILES IDX 1 1 2 2 3 3 4 4 15 5 16 6 18 7 19 8 20 9 21 10 5 11 6 12
REMARK SMILES IDX 14 13 7 14 13 15 8 16 12 17 9 18 11 19 10 20 17 21
REMARK H PARENT 17 22 17 23
ROOT
ATOM      1  C   UNL     1      35.641  48.138  39.775  1.00  0.00     0.176 C 
ATOM      2  N   UNL     1      34.447  47.330  39.743  1.00  0.00    -0.250 N 
ATOM      3  N   UNL     1      33.863  46.972  40.905  1.00  0.00    -0.170 NA
ATOM      4  C   UNL     1      32.785  46.263  40.522  1.00  0.00     0.106 A 
ATOM      5  C   UNL     1      32.724  46.131  39.102  1.00  0.00     0.089 A 
ATOM      6  C   UNL     1      31.924  45.505  38.136  1.00  0.00     0.138 A 
ATOM      7  N   UNL     1      32.236  45.677  36.833  1.00  0.00    -0.219 NA
ATOM      8  C   UNL     1      33.311  46.424  36.518  1.00  0.00     0.226 A 
ATOM      9  N   UNL     1      34.159  47.044  37.352  1.00  0.00    -0.217 NA
ATOM     10  C   UNL     1      33.808  46.855  38.636  1.00  0.00     0.163 A 
ENDROOT
BRANCH   4  11
ATOM     11  C   UNL     1      31.859  45.740  41.521  1.00  0.00     0.003 A 
ATOM     12  C   UNL     1      30.988  44.699  41.191  1.00  0.00     0.011 A 
ATOM     13  C   UNL     1      31.843  46.266  42.820  1.00  0.00     0.019 A 
ATOM     14  C   UNL     1      30.089  44.205  42.141  1.00  0.00     0.009 A 
ATOM     15  C   UNL     1      30.943  45.781  43.784  1.00  0.00    -0.018 A 
ATOM     16  C   UNL     1      30.052  44.739  43.438  1.00  0.00    -0.018 A 
ATOM     17  C   UNL     1      30.910  46.309  45.084  1.00  0.00     0.009 A 
ATOM     18  C   UNL     1      29.152  44.257  44.402  1.00  0.00     0.009 A 
ATOM     19  C   UNL     1      30.007  45.820  46.030  1.00  0.00     0.001 A 
ATOM     20  C   UNL     1      29.130  44.794  45.689  1.00  0.00     0.001 A 
ENDBRANCH   4  11
BRANCH   6  21
ATOM     21  N   UNL     1      30.845  44.699  38.408  1.00  0.00    -0.383 N 
ATOM     22  H   UNL     1      30.135  44.644  37.692  1.00  0.00     0.158 HD
ATOM     23  H   UNL     1      30.824  44.074  39.198  1.00  0.00     0.158 HD
ENDBRANCH   6  21
TORSDOF 2
