MODEL 1
REMARK minimizedAffinity -11.9757366
REMARK CNNscore 0.975847483
REMARK CNNaffinity 7.53247595
REMARK SMILES COc1cc2c(cc1OC)C(=O)[C@H](CC1CCN(Cc3ccccc3)CC1)C2
REMARK SMILES IDX 14 1 13 2 3 3 4 4 8 5 5 6 7 7 6 8 28 9 11 10 12 11 2 12 1 13
REMARK SMILES IDX 9 14 10 15 15 16 16 17 27 18 17 19 26 20 18 21 19 22 20 23
REMARK SMILES IDX 21 24 25 25 22 26 24 27 23 28
REMARK H PARENT
ROOT
ATOM      1  C   UNL     1     -14.212 -44.497  26.065  1.00  0.00     0.016 C 
ENDROOT
BRANCH   1   2
ATOM      2  C   UNL     1     -14.954 -43.170  25.893  1.00  0.00     0.066 C 
ATOM      3  C   UNL     1     -19.424 -41.719  25.185  1.00  0.00     0.161 A 
ATOM      4  C   UNL     1     -18.550 -42.109  26.212  1.00  0.00     0.055 A 
ATOM      5  C   UNL     1     -19.001 -41.760  23.826  1.00  0.00     0.161 A 
ATOM      6  C   UNL     1     -17.270 -42.524  25.879  1.00  0.00    -0.033 A 
ATOM      7  C   UNL     1     -17.710 -42.187  23.506  1.00  0.00     0.062 A 
ATOM      8  C   UNL     1     -16.880 -42.556  24.548  1.00  0.00     0.025 A 
ATOM      9  C   UNL     1     -16.200 -43.021  26.798  1.00  0.00     0.048 C 
ATOM     10  C   UNL     1     -15.501 -43.019  24.484  1.00  0.00     0.166 C 
ATOM     11  O   UNL     1     -14.902 -43.211  23.441  1.00  0.00    -0.294 OA
BRANCH   3  12
ATOM     12  O   UNL     1     -20.712 -41.288  25.393  1.00  0.00    -0.493 OA
ATOM     13  C   UNL     1     -21.108 -41.006  26.727  1.00  0.00     0.278 C 
ENDBRANCH   3  12
BRANCH   5  14
ATOM     14  O   UNL     1     -19.933 -41.360  22.898  1.00  0.00    -0.493 OA
ATOM     15  C   UNL     1     -20.510 -42.363  22.072  1.00  0.00     0.278 C 
ENDBRANCH   5  14
ENDBRANCH   1   2
BRANCH   1  16
ATOM     16  C   UNL     1     -13.484 -44.662  27.414  1.00  0.00    -0.008 C 
ATOM     17  C   UNL     1     -12.759 -46.007  27.534  1.00  0.00     0.019 C 
ATOM     18  C   UNL     1     -14.487 -44.522  28.569  1.00  0.00     0.019 C 
ATOM     19  C   UNL     1     -12.159 -46.203  28.928  1.00  0.00     0.085 C 
ATOM     20  C   UNL     1     -13.824 -44.763  29.928  1.00  0.00     0.085 C 
ATOM     21  N   UNL     1     -13.182 -46.085  29.975  1.00  0.00    -0.299 NA
BRANCH  21  22
ATOM     22  C   UNL     1     -12.584 -46.346  31.298  1.00  0.00     0.120 C 
BRANCH  22  23
ATOM     23  C   UNL     1     -11.196 -45.761  31.464  1.00  0.00    -0.034 A 
ATOM     24  C   UNL     1     -10.057 -46.545  31.227  1.00  0.00     0.005 A 
ATOM     25  C   UNL     1     -11.027 -44.433  31.886  1.00  0.00     0.005 A 
ATOM     26  C   UNL     1      -8.780 -46.008  31.400  1.00  0.00     0.000 A 
ATOM     27  C   UNL     1      -9.749 -43.898  32.058  1.00  0.00     0.000 A 
ATOM     28  C   UNL     1      -8.626 -44.686  31.814  1.00  0.00     0.000 A 
ENDBRANCH  22  23
ENDBRANCH  21  22
ENDBRANCH   1  16
TORSDOF 6
ENDMDL
MODEL 2
REMARK minimizedAffinity -11.9472818
REMARK CNNscore 0.954232752
REMARK CNNaffinity 7.36859512
REMARK SMILES COc1cc2c(cc1OC)C(=O)[C@H](CC1CCN(Cc3ccccc3)CC1)C2
REMARK SMILES IDX 14 1 13 2 3 3 4 4 8 5 5 6 7 7 6 8 28 9 11 10 12 11 2 12 1 13
REMARK SMILES IDX 9 14 10 15 15 16 16 17 27 18 17 19 26 20 18 21 19 22 20 23
REMARK SMILES IDX 21 24 25 25 22 26 24 27 23 28
REMARK H PARENT
ROOT
ATOM      1  C   UNL     1     -13.814 -44.873  26.541  1.00  0.00     0.016 C 
ENDROOT
BRANCH   1   2
ATOM      2  C   UNL     1     -14.486 -43.515  26.328  1.00  0.00     0.066 C 
ATOM      3  C   UNL     1     -18.848 -41.869  25.408  1.00  0.00     0.161 A 
ATOM      4  C   UNL     1     -18.040 -42.289  26.477  1.00  0.00     0.055 A 
ATOM      5  C   UNL     1     -18.367 -41.941  24.070  1.00  0.00     0.161 A 
ATOM      6  C   UNL     1     -16.767 -42.765  26.204  1.00  0.00    -0.033 A 
ATOM      7  C   UNL     1     -17.084 -42.428  23.812  1.00  0.00     0.062 A 
ATOM      8  C   UNL     1     -16.320 -42.825  24.893  1.00  0.00     0.025 A 
ATOM      9  C   UNL     1     -15.763 -43.302  27.175  1.00  0.00     0.048 C 
ATOM     10  C   UNL     1     -14.961 -43.352  24.894  1.00  0.00     0.166 C 
ATOM     11  O   UNL     1     -14.325 -43.580  23.881  1.00  0.00    -0.294 OA
BRANCH   3  12
ATOM     12  O   UNL     1     -20.123 -41.377  25.555  1.00  0.00    -0.493 OA
ATOM     13  C   UNL     1     -20.622 -41.214  26.875  1.00  0.00     0.278 C 
ENDBRANCH   3  12
BRANCH   5  14
ATOM     14  O   UNL     1     -19.237 -41.507  23.098  1.00  0.00    -0.493 OA
ATOM     15  C   UNL     1     -18.705 -40.711  22.048  1.00  0.00     0.278 C 
ENDBRANCH   5  14
ENDBRANCH   1   2
BRANCH   1  16
ATOM     16  C   UNL     1     -12.996 -44.993  27.843  1.00  0.00    -0.008 C 
ATOM     17  C   UNL     1     -13.883 -45.124  29.088  1.00  0.00     0.019 C 
ATOM     18  C   UNL     1     -12.080 -43.770  28.001  1.00  0.00     0.019 C 
ATOM     19  C   UNL     1     -13.055 -45.107  30.375  1.00  0.00     0.085 C 
ATOM     20  C   UNL     1     -11.310 -43.804  29.323  1.00  0.00     0.085 C 
ATOM     21  N   UNL     1     -12.230 -43.896  30.467  1.00  0.00    -0.299 NA
BRANCH  21  22
ATOM     22  C   UNL     1     -11.498 -43.878  31.748  1.00  0.00     0.120 C 
BRANCH  22  23
ATOM     23  C   UNL     1     -10.126 -44.516  31.673  1.00  0.00    -0.034 A 
ATOM     24  C   UNL     1      -9.988 -45.881  31.385  1.00  0.00     0.005 A 
ATOM     25  C   UNL     1      -8.972 -43.756  31.920  1.00  0.00     0.005 A 
ATOM     26  C   UNL     1      -8.722 -46.470  31.336  1.00  0.00     0.000 A 
ATOM     27  C   UNL     1      -7.708 -44.346  31.870  1.00  0.00     0.000 A 
ATOM     28  C   UNL     1      -7.584 -45.703  31.577  1.00  0.00     0.000 A 
ENDBRANCH  22  23
ENDBRANCH  21  22
ENDBRANCH   1  16
TORSDOF 6
ENDMDL
MODEL 3
REMARK minimizedAffinity -11.5940695
REMARK CNNscore 0.945205629
REMARK CNNaffinity 7.33257437
REMARK SMILES COc1cc2c(cc1OC)C(=O)[C@H](CC1CCN(Cc3ccccc3)CC1)C2
REMARK SMILES IDX 14 1 13 2 3 3 4 4 8 5 5 6 7 7 6 8 28 9 11 10 12 11 2 12 1 13
REMARK SMILES IDX 9 14 10 15 15 16 16 17 27 18 17 19 26 20 18 21 19 22 20 23
REMARK SMILES IDX 21 24 25 25 22 26 24 27 23 28
REMARK H PARENT
ROOT
ATOM      1  C   UNL     1     -13.605 -44.163  26.383  1.00  0.00     0.016 C 
ENDROOT
BRANCH   1   2
ATOM      2  C   UNL     1     -14.533 -42.984  26.081  1.00  0.00     0.066 C 
ATOM      3  C   UNL     1     -19.207 -42.210  25.702  1.00  0.00     0.161 A 
ATOM      4  C   UNL     1     -18.187 -42.300  26.663  1.00  0.00     0.055 A 
ATOM      5  C   UNL     1     -18.925 -42.454  24.328  1.00  0.00     0.161 A 
ATOM      6  C   UNL     1     -16.904 -42.622  26.247  1.00  0.00    -0.033 A 
ATOM      7  C   UNL     1     -17.628 -42.783  23.926  1.00  0.00     0.062 A 
ATOM      8  C   UNL     1     -16.653 -42.855  24.903  1.00  0.00     0.025 A 
ATOM      9  C   UNL     1     -15.687 -42.814  27.096  1.00  0.00     0.048 C 
ATOM     10  C   UNL     1     -15.237 -43.161  24.746  1.00  0.00     0.166 C 
ATOM     11  O   UNL     1     -14.728 -43.475  23.685  1.00  0.00    -0.294 OA
BRANCH   3  12
ATOM     12  O   UNL     1     -20.513 -41.897  25.993  1.00  0.00    -0.493 OA
ATOM     13  C   UNL     1     -21.257 -42.822  26.771  1.00  0.00     0.278 C 
ENDBRANCH   3  12
BRANCH   5  14
ATOM     14  O   UNL     1     -19.992 -42.343  23.469  1.00  0.00    -0.493 OA
ATOM     15  C   UNL     1     -19.747 -41.785  22.185  1.00  0.00     0.278 C 
ENDBRANCH   5  14
ENDBRANCH   1   2
BRANCH   1  16
ATOM     16  C   UNL     1     -13.262 -44.352  27.874  1.00  0.00    -0.008 C 
ATOM     17  C   UNL     1     -11.901 -43.753  28.248  1.00  0.00     0.019 C 
ATOM     18  C   UNL     1     -13.273 -45.846  28.228  1.00  0.00     0.019 C 
ATOM     19  C   UNL     1     -11.524 -44.069  29.697  1.00  0.00     0.085 C 
ATOM     20  C   UNL     1     -12.855 -46.088  29.681  1.00  0.00     0.085 C 
ATOM     21  N   UNL     1     -11.528 -45.516  29.950  1.00  0.00    -0.299 NA
BRANCH  21  22
ATOM     22  C   UNL     1     -11.095 -45.788  31.334  1.00  0.00     0.120 C 
BRANCH  22  23
ATOM     23  C   UNL     1      -9.727 -45.226  31.664  1.00  0.00    -0.034 A 
ATOM     24  C   UNL     1      -8.564 -45.929  31.320  1.00  0.00     0.005 A 
ATOM     25  C   UNL     1      -9.603 -44.006  32.347  1.00  0.00     0.005 A 
ATOM     26  C   UNL     1      -7.305 -45.418  31.644  1.00  0.00     0.000 A 
ATOM     27  C   UNL     1      -8.345 -43.496  32.669  1.00  0.00     0.000 A 
ATOM     28  C   UNL     1      -7.196 -44.203  32.317  1.00  0.00     0.000 A 
ENDBRANCH  22  23
ENDBRANCH  21  22
ENDBRANCH   1  16
TORSDOF 6
ENDMDL
MODEL 4
REMARK minimizedAffinity -11.7755032
REMARK CNNscore 0.943315029
REMARK CNNaffinity 7.43321848
REMARK SMILES COc1cc2c(cc1OC)C(=O)[C@H](CC1CCN(Cc3ccccc3)CC1)C2
REMARK SMILES IDX 14 1 13 2 3 3 4 4 8 5 5 6 7 7 6 8 28 9 11 10 12 11 2 12 1 13
REMARK SMILES IDX 9 14 10 15 15 16 16 17 27 18 17 19 26 20 18 21 19 22 20 23
REMARK SMILES IDX 21 24 25 25 22 26 24 27 23 28
REMARK H PARENT
ROOT
ATOM      1  C   UNL     1     -14.005 -45.048  26.285  1.00  0.00     0.016 C 
ENDROOT
BRANCH   1   2
ATOM      2  C   UNL     1     -14.603 -43.665  26.018  1.00  0.00     0.066 C 
ATOM      3  C   UNL     1     -18.905 -41.795  25.252  1.00  0.00     0.161 A 
ATOM      4  C   UNL     1     -18.056 -42.197  26.296  1.00  0.00     0.055 A 
ATOM      5  C   UNL     1     -18.517 -41.987  23.896  1.00  0.00     0.161 A 
ATOM      6  C   UNL     1     -16.836 -42.774  25.981  1.00  0.00    -0.033 A 
ATOM      7  C   UNL     1     -17.287 -42.575  23.594  1.00  0.00     0.062 A 
ATOM      8  C   UNL     1     -16.480 -42.951  24.652  1.00  0.00     0.025 A 
ATOM      9  C   UNL     1     -15.806 -43.312  26.924  1.00  0.00     0.048 C 
ATOM     10  C   UNL     1     -15.160 -43.565  24.608  1.00  0.00     0.166 C 
ATOM     11  O   UNL     1     -14.607 -43.902  23.576  1.00  0.00    -0.294 OA
BRANCH   3  12
ATOM     12  O   UNL     1     -20.134 -41.211  25.441  1.00  0.00    -0.493 OA
ATOM     13  C   UNL     1     -20.710 -41.285  26.737  1.00  0.00     0.278 C 
ENDBRANCH   3  12
BRANCH   5  14
ATOM     14  O   UNL     1     -19.419 -41.561  22.950  1.00  0.00    -0.493 OA
ATOM     15  C   UNL     1     -19.009 -40.523  22.071  1.00  0.00     0.278 C 
ENDBRANCH   5  14
ENDBRANCH   1   2
BRANCH   1  16
ATOM     16  C   UNL     1     -12.855 -45.068  27.312  1.00  0.00    -0.008 C 
ATOM     17  C   UNL     1     -12.168 -46.437  27.403  1.00  0.00     0.019 C 
ATOM     18  C   UNL     1     -13.384 -44.672  28.698  1.00  0.00     0.019 C 
ATOM     19  C   UNL     1     -11.122 -46.470  28.520  1.00  0.00     0.085 C 
ATOM     20  C   UNL     1     -12.293 -44.761  29.768  1.00  0.00     0.085 C 
ATOM     21  N   UNL     1     -11.709 -46.109  29.817  1.00  0.00    -0.299 NA
BRANCH  21  22
ATOM     22  C   UNL     1     -10.692 -46.217  30.880  1.00  0.00     0.120 C 
BRANCH  22  23
ATOM     23  C   UNL     1     -10.542 -44.957  31.708  1.00  0.00    -0.034 A 
ATOM     24  C   UNL     1     -11.672 -44.248  32.141  1.00  0.00     0.005 A 
ATOM     25  C   UNL     1      -9.268 -44.463  32.031  1.00  0.00     0.005 A 
ATOM     26  C   UNL     1     -11.529 -43.076  32.887  1.00  0.00     0.000 A 
ATOM     27  C   UNL     1      -9.128 -43.293  32.777  1.00  0.00     0.000 A 
ATOM     28  C   UNL     1     -10.259 -42.600  33.206  1.00  0.00     0.000 A 
ENDBRANCH  22  23
ENDBRANCH  21  22
ENDBRANCH   1  16
TORSDOF 6
ENDMDL
MODEL 5
REMARK minimizedAffinity -10.7955723
REMARK CNNscore 0.931698442
REMARK CNNaffinity 7.17835808
REMARK SMILES COc1cc2c(cc1OC)C(=O)[C@H](CC1CCN(Cc3ccccc3)CC1)C2
REMARK SMILES IDX 14 1 13 2 3 3 4 4 8 5 5 6 7 7 6 8 28 9 11 10 12 11 2 12 1 13
REMARK SMILES IDX 9 14 10 15 15 16 16 17 27 18 17 19 26 20 18 21 19 22 20 23
REMARK SMILES IDX 21 24 25 25 22 26 24 27 23 28
REMARK H PARENT
ROOT
ATOM      1  C   UNL     1     -14.282 -44.513  25.803  1.00  0.00     0.016 C 
ENDROOT
BRANCH   1   2
ATOM      2  C   UNL     1     -15.015 -43.200  25.519  1.00  0.00     0.066 C 
ATOM      3  C   UNL     1     -19.510 -41.718  25.087  1.00  0.00     0.161 A 
ATOM      4  C   UNL     1     -18.535 -41.986  26.061  1.00  0.00     0.055 A 
ATOM      5  C   UNL     1     -19.240 -41.968  23.711  1.00  0.00     0.161 A 
ATOM      6  C   UNL     1     -17.307 -42.487  25.657  1.00  0.00    -0.033 A 
ATOM      7  C   UNL     1     -18.000 -42.479  23.321  1.00  0.00     0.062 A 
ATOM      8  C   UNL     1     -17.067 -42.722  24.312  1.00  0.00     0.025 A 
ATOM      9  C   UNL     1     -16.151 -42.883  26.520  1.00  0.00     0.048 C 
ATOM     10  C   UNL     1     -15.711 -43.235  24.169  1.00  0.00     0.166 C 
ATOM     11  O   UNL     1     -15.234 -43.595  23.108  1.00  0.00    -0.294 OA
BRANCH   3  12
ATOM     12  O   UNL     1     -20.760 -41.219  25.366  1.00  0.00    -0.493 OA
ATOM     13  C   UNL     1     -21.126 -41.076  26.730  1.00  0.00     0.278 C 
ENDBRANCH   3  12
BRANCH   5  14
ATOM     14  O   UNL     1     -20.262 -41.675  22.839  1.00  0.00    -0.493 OA
ATOM     15  C   UNL     1     -20.170 -40.461  22.105  1.00  0.00     0.278 C 
ENDBRANCH   5  14
ENDBRANCH   1   2
BRANCH   1  16
ATOM     16  C   UNL     1     -13.636 -44.605  27.200  1.00  0.00    -0.008 C 
ATOM     17  C   UNL     1     -12.905 -45.934  27.427  1.00  0.00     0.019 C 
ATOM     18  C   UNL     1     -14.707 -44.424  28.285  1.00  0.00     0.019 C 
ATOM     19  C   UNL     1     -12.388 -46.056  28.862  1.00  0.00     0.085 C 
ATOM     20  C   UNL     1     -14.126 -44.592  29.691  1.00  0.00     0.085 C 
ATOM     21  N   UNL     1     -13.474 -45.901  29.839  1.00  0.00    -0.299 NA
BRANCH  21  22
ATOM     22  C   UNL     1     -12.954 -46.092  31.207  1.00  0.00     0.120 C 
BRANCH  22  23
ATOM     23  C   UNL     1     -12.939 -44.822  32.034  1.00  0.00    -0.034 A 
ATOM     24  C   UNL     1     -14.068 -44.438  32.772  1.00  0.00     0.005 A 
ATOM     25  C   UNL     1     -11.805 -43.995  32.050  1.00  0.00     0.005 A 
ATOM     26  C   UNL     1     -14.057 -43.257  33.518  1.00  0.00     0.000 A 
ATOM     27  C   UNL     1     -11.796 -42.816  32.797  1.00  0.00     0.000 A 
ATOM     28  C   UNL     1     -12.923 -42.448  33.530  1.00  0.00     0.000 A 
ENDBRANCH  22  23
ENDBRANCH  21  22
ENDBRANCH   1  16
TORSDOF 6
ENDMDL
MODEL 6
REMARK minimizedAffinity -11.4624977
REMARK CNNscore 0.915802717
REMARK CNNaffinity 7.26277161
REMARK SMILES COc1cc2c(cc1OC)C(=O)[C@H](CC1CCN(Cc3ccccc3)CC1)C2
REMARK SMILES IDX 14 1 13 2 3 3 4 4 8 5 5 6 7 7 6 8 28 9 11 10 12 11 2 12 1 13
REMARK SMILES IDX 9 14 10 15 15 16 16 17 27 18 17 19 26 20 18 21 19 22 20 23
REMARK SMILES IDX 21 24 25 25 22 26 24 27 23 28
REMARK H PARENT
ROOT
ATOM      1  C   UNL     1     -13.879 -44.825  26.454  1.00  0.00     0.016 C 
ENDROOT
BRANCH   1   2
ATOM      2  C   UNL     1     -14.546 -43.484  26.140  1.00  0.00     0.066 C 
ATOM      3  C   UNL     1     -18.942 -41.852  25.366  1.00  0.00     0.161 A 
ATOM      4  C   UNL     1     -18.061 -42.170  26.412  1.00  0.00     0.055 A 
ATOM      5  C   UNL     1     -18.564 -42.081  24.012  1.00  0.00     0.161 A 
ATOM      6  C   UNL     1     -16.819 -42.702  26.102  1.00  0.00    -0.033 A 
ATOM      7  C   UNL     1     -17.311 -42.622  23.716  1.00  0.00     0.062 A 
ATOM      8  C   UNL     1     -16.473 -42.915  24.776  1.00  0.00     0.025 A 
ATOM      9  C   UNL     1     -15.753 -43.151  27.050  1.00  0.00     0.048 C 
ATOM     10  C   UNL     1     -15.126 -43.468  24.736  1.00  0.00     0.166 C 
ATOM     11  O   UNL     1     -14.571 -43.821  23.711  1.00  0.00    -0.294 OA
BRANCH   3  12
ATOM     12  O   UNL     1     -20.195 -41.319  25.550  1.00  0.00    -0.493 OA
ATOM     13  C   UNL     1     -20.954 -41.780  26.658  1.00  0.00     0.278 C 
ENDBRANCH   3  12
BRANCH   5  14
ATOM     14  O   UNL     1     -19.498 -41.737  23.064  1.00  0.00    -0.493 OA
ATOM     15  C   UNL     1     -19.171 -40.680  22.173  1.00  0.00     0.278 C 
ENDBRANCH   5  14
ENDBRANCH   1   2
BRANCH   1  16
ATOM     16  C   UNL     1     -13.066 -44.853  27.764  1.00  0.00    -0.008 C 
ATOM     17  C   UNL     1     -11.909 -43.846  27.763  1.00  0.00     0.019 C 
ATOM     18  C   UNL     1     -12.510 -46.264  28.004  1.00  0.00     0.019 C 
ATOM     19  C   UNL     1     -11.039 -43.986  29.015  1.00  0.00     0.085 C 
ATOM     20  C   UNL     1     -11.624 -46.320  29.251  1.00  0.00     0.085 C 
ATOM     21  N   UNL     1     -10.522 -45.352  29.159  1.00  0.00    -0.299 NA
BRANCH  21  22
ATOM     22  C   UNL     1      -9.634 -45.435  30.335  1.00  0.00     0.120 C 
BRANCH  22  23
ATOM     23  C   UNL     1      -9.964 -44.428  31.418  1.00  0.00    -0.034 A 
ATOM     24  C   UNL     1      -8.945 -43.827  32.170  1.00  0.00     0.005 A 
ATOM     25  C   UNL     1     -11.299 -44.103  31.707  1.00  0.00     0.005 A 
ATOM     26  C   UNL     1      -9.254 -42.915  33.181  1.00  0.00     0.000 A 
ATOM     27  C   UNL     1     -11.606 -43.191  32.717  1.00  0.00     0.000 A 
ATOM     28  C   UNL     1     -10.583 -42.597  33.453  1.00  0.00     0.000 A 
ENDBRANCH  22  23
ENDBRANCH  21  22
ENDBRANCH   1  16
TORSDOF 6
ENDMDL
MODEL 7
REMARK minimizedAffinity -11.810009
REMARK CNNscore 0.758008838
REMARK CNNaffinity 6.73813629
REMARK SMILES COc1cc2c(cc1OC)C(=O)[C@H](CC1CCN(Cc3ccccc3)CC1)C2
REMARK SMILES IDX 14 1 13 2 3 3 4 4 8 5 5 6 7 7 6 8 28 9 11 10 12 11 2 12 1 13
REMARK SMILES IDX 9 14 10 15 15 16 16 17 27 18 17 19 26 20 18 21 19 22 20 23
REMARK SMILES IDX 21 24 25 25 22 26 24 27 23 28
REMARK H PARENT
ROOT
ATOM      1  C   UNL     1     -13.188 -43.327  26.489  1.00  0.00     0.016 C 
ENDROOT
BRANCH   1   2
ATOM      2  C   UNL     1     -14.529 -43.866  25.986  1.00  0.00     0.066 C 
ATOM      3  C   UNL     1     -18.250 -42.250  23.510  1.00  0.00     0.161 A 
ATOM      4  C   UNL     1     -16.965 -42.787  23.329  1.00  0.00     0.055 A 
ATOM      5  C   UNL     1     -18.744 -41.991  24.820  1.00  0.00     0.161 A 
ATOM      6  C   UNL     1     -16.195 -43.068  24.447  1.00  0.00    -0.033 A 
ATOM      7  C   UNL     1     -17.953 -42.274  25.936  1.00  0.00     0.062 A 
ATOM      8  C   UNL     1     -16.698 -42.808  25.714  1.00  0.00     0.025 A 
ATOM      9  C   UNL     1     -14.795 -43.595  24.486  1.00  0.00     0.048 C 
ATOM     10  C   UNL     1     -15.695 -43.199  26.695  1.00  0.00     0.166 C 
ATOM     11  O   UNL     1     -15.824 -43.031  27.895  1.00  0.00    -0.294 OA
BRANCH   3  12
ATOM     12  O   UNL     1     -19.103 -41.934  22.480  1.00  0.00    -0.493 OA
ATOM     13  C   UNL     1     -18.904 -40.698  21.810  1.00  0.00     0.278 C 
ENDBRANCH   3  12
BRANCH   5  14
ATOM     14  O   UNL     1     -20.011 -41.463  24.887  1.00  0.00    -0.493 OA
ATOM     15  C   UNL     1     -20.557 -41.228  26.178  1.00  0.00     0.278 C 
ENDBRANCH   5  14
ENDBRANCH   1   2
BRANCH   1  16
ATOM     16  C   UNL     1     -12.771 -43.830  27.886  1.00  0.00    -0.008 C 
ATOM     17  C   UNL     1     -11.284 -43.596  28.179  1.00  0.00     0.019 C 
ATOM     18  C   UNL     1     -13.084 -45.328  28.017  1.00  0.00     0.019 C 
ATOM     19  C   UNL     1     -10.867 -44.223  29.512  1.00  0.00     0.085 C 
ATOM     20  C   UNL     1     -12.609 -45.892  29.358  1.00  0.00     0.085 C 
ATOM     21  N   UNL     1     -11.171 -45.658  29.549  1.00  0.00    -0.299 NA
BRANCH  21  22
ATOM     22  C   UNL     1     -10.694 -46.243  30.817  1.00  0.00     0.120 C 
BRANCH  22  23
ATOM     23  C   UNL     1      -9.492 -45.529  31.402  1.00  0.00    -0.034 A 
ATOM     24  C   UNL     1      -9.650 -44.332  32.115  1.00  0.00     0.005 A 
ATOM     25  C   UNL     1      -8.198 -46.040  31.215  1.00  0.00     0.005 A 
ATOM     26  C   UNL     1      -8.538 -43.666  32.636  1.00  0.00     0.000 A 
ATOM     27  C   UNL     1      -7.089 -45.374  31.737  1.00  0.00     0.000 A 
ATOM     28  C   UNL     1      -7.259 -44.188  32.447  1.00  0.00     0.000 A 
ENDBRANCH  22  23
ENDBRANCH  21  22
ENDBRANCH   1  16
TORSDOF 6
ENDMDL
MODEL 8
REMARK minimizedAffinity -11.7860632
REMARK CNNscore 0.724599659
REMARK CNNaffinity 6.57670784
REMARK SMILES COc1cc2c(cc1OC)C(=O)[C@H](CC1CCN(Cc3ccccc3)CC1)C2
REMARK SMILES IDX 14 1 13 2 3 3 4 4 8 5 5 6 7 7 6 8 28 9 11 10 12 11 2 12 1 13
REMARK SMILES IDX 9 14 10 15 15 16 16 17 27 18 17 19 26 20 18 21 19 22 20 23
REMARK SMILES IDX 21 24 25 25 22 26 24 27 23 28
REMARK H PARENT
ROOT
ATOM      1  C   UNL     1     -13.384 -43.218  26.611  1.00  0.00     0.016 C 
ENDROOT
BRANCH   1   2
ATOM      2  C   UNL     1     -14.723 -43.777  26.127  1.00  0.00     0.066 C 
ATOM      3  C   UNL     1     -18.433 -42.269  23.568  1.00  0.00     0.161 A 
ATOM      4  C   UNL     1     -17.148 -42.814  23.417  1.00  0.00     0.055 A 
ATOM      5  C   UNL     1     -18.932 -41.953  24.864  1.00  0.00     0.161 A 
ATOM      6  C   UNL     1     -16.383 -43.046  24.549  1.00  0.00    -0.033 A 
ATOM      7  C   UNL     1     -18.146 -42.187  25.995  1.00  0.00     0.062 A 
ATOM      8  C   UNL     1     -16.890 -42.731  25.800  1.00  0.00     0.025 A 
ATOM      9  C   UNL     1     -14.984 -43.572  24.616  1.00  0.00     0.048 C 
ATOM     10  C   UNL     1     -15.892 -43.079  26.802  1.00  0.00     0.166 C 
ATOM     11  O   UNL     1     -16.025 -42.859  27.993  1.00  0.00    -0.294 OA
BRANCH   3  12
ATOM     12  O   UNL     1     -19.283 -41.998  22.523  1.00  0.00    -0.493 OA
ATOM     13  C   UNL     1     -19.163 -40.737  21.882  1.00  0.00     0.278 C 
ENDBRANCH   3  12
BRANCH   5  14
ATOM     14  O   UNL     1     -20.200 -41.422  24.903  1.00  0.00    -0.493 OA
ATOM     15  C   UNL     1     -20.738 -41.101  26.179  1.00  0.00     0.278 C 
ENDBRANCH   5  14
ENDBRANCH   1   2
BRANCH   1  16
ATOM     16  C   UNL     1     -12.540 -44.196  27.453  1.00  0.00    -0.008 C 
ATOM     17  C   UNL     1     -13.387 -45.009  28.440  1.00  0.00     0.019 C 
ATOM     18  C   UNL     1     -11.461 -43.424  28.226  1.00  0.00     0.019 C 
ATOM     19  C   UNL     1     -12.514 -45.872  29.354  1.00  0.00     0.085 C 
ATOM     20  C   UNL     1     -10.651 -44.344  29.143  1.00  0.00     0.085 C 
ATOM     21  N   UNL     1     -11.529 -45.061  30.080  1.00  0.00    -0.299 NA
BRANCH  21  22
ATOM     22  C   UNL     1     -10.752 -45.912  31.001  1.00  0.00     0.120 C 
BRANCH  22  23
ATOM     23  C   UNL     1      -9.503 -45.244  31.539  1.00  0.00    -0.034 A 
ATOM     24  C   UNL     1      -8.241 -45.820  31.336  1.00  0.00     0.005 A 
ATOM     25  C   UNL     1      -9.593 -44.053  32.276  1.00  0.00     0.005 A 
ATOM     26  C   UNL     1      -7.094 -45.212  31.850  1.00  0.00     0.000 A 
ATOM     27  C   UNL     1      -8.445 -43.446  32.788  1.00  0.00     0.000 A 
ATOM     28  C   UNL     1      -7.196 -44.026  32.574  1.00  0.00     0.000 A 
ENDBRANCH  22  23
ENDBRANCH  21  22
ENDBRANCH   1  16
TORSDOF 6
ENDMDL
MODEL 9
REMARK minimizedAffinity -10.792388
REMARK CNNscore 0.620384634
REMARK CNNaffinity 6.55176163
REMARK SMILES COc1cc2c(cc1OC)C(=O)[C@H](CC1CCN(Cc3ccccc3)CC1)C2
REMARK SMILES IDX 14 1 13 2 3 3 4 4 8 5 5 6 7 7 6 8 28 9 11 10 12 11 2 12 1 13
REMARK SMILES IDX 9 14 10 15 15 16 16 17 27 18 17 19 26 20 18 21 19 22 20 23
REMARK SMILES IDX 21 24 25 25 22 26 24 27 23 28
REMARK H PARENT
ROOT
ATOM      1  C   UNL     1     -13.818 -43.065  26.120  1.00  0.00     0.016 C 
ENDROOT
BRANCH   1   2
ATOM      2  C   UNL     1     -15.228 -43.578  25.819  1.00  0.00     0.066 C 
ATOM      3  C   UNL     1     -19.261 -41.869  23.977  1.00  0.00     0.161 A 
ATOM      4  C   UNL     1     -18.027 -42.416  23.591  1.00  0.00     0.055 A 
ATOM      5  C   UNL     1     -19.545 -41.633  25.353  1.00  0.00     0.161 A 
ATOM      6  C   UNL     1     -17.098 -42.729  24.571  1.00  0.00    -0.033 A 
ATOM      7  C   UNL     1     -18.596 -41.949  26.328  1.00  0.00     0.062 A 
ATOM      8  C   UNL     1     -17.397 -42.491  25.905  1.00  0.00     0.025 A 
ATOM      9  C   UNL     1     -15.717 -43.272  24.384  1.00  0.00     0.048 C 
ATOM     10  C   UNL     1     -16.262 -42.914  26.713  1.00  0.00     0.166 C 
ATOM     11  O   UNL     1     -16.202 -42.771  27.920  1.00  0.00    -0.294 OA
BRANCH   3  12
ATOM     12  O   UNL     1     -20.258 -41.522  23.098  1.00  0.00    -0.493 OA
ATOM     13  C   UNL     1     -20.906 -42.565  22.386  1.00  0.00     0.278 C 
ENDBRANCH   3  12
BRANCH   5  14
ATOM     14  O   UNL     1     -20.779 -41.093  25.624  1.00  0.00    -0.493 OA
ATOM     15  C   UNL     1     -21.666 -41.855  26.433  1.00  0.00     0.278 C 
ENDBRANCH   5  14
ENDBRANCH   1   2
BRANCH   1  16
ATOM     16  C   UNL     1     -13.144 -43.708  27.349  1.00  0.00    -0.008 C 
ATOM     17  C   UNL     1     -11.656 -43.354  27.460  1.00  0.00     0.019 C 
ATOM     18  C   UNL     1     -13.300 -45.235  27.292  1.00  0.00     0.019 C 
ATOM     19  C   UNL     1     -10.981 -44.109  28.608  1.00  0.00     0.085 C 
ATOM     20  C   UNL     1     -12.572 -45.923  28.450  1.00  0.00     0.085 C 
ATOM     21  N   UNL     1     -11.147 -45.561  28.467  1.00  0.00    -0.299 NA
BRANCH  21  22
ATOM     22  C   UNL     1     -10.428 -46.259  29.550  1.00  0.00     0.120 C 
BRANCH  22  23
ATOM     23  C   UNL     1      -9.941 -45.338  30.650  1.00  0.00    -0.034 A 
ATOM     24  C   UNL     1      -8.570 -45.106  30.832  1.00  0.00     0.005 A 
ATOM     25  C   UNL     1     -10.853 -44.724  31.522  1.00  0.00     0.005 A 
ATOM     26  C   UNL     1      -8.124 -44.271  31.859  1.00  0.00     0.000 A 
ATOM     27  C   UNL     1     -10.405 -43.889  32.547  1.00  0.00     0.000 A 
ATOM     28  C   UNL     1      -9.041 -43.663  32.714  1.00  0.00     0.000 A 
ENDBRANCH  22  23
ENDBRANCH  21  22
ENDBRANCH   1  16
TORSDOF 6
ENDMDL
