MODEL 6
REMARK minimizedAffinity -9.00751495
REMARK CNNscore 0.583258569
REMARK CNNaffinity 7.62613297
REMARK SMILES Cc1ccc(Oc2ccc(Nc3ncnc4[nH]nc(OCC[N@H+]5CC[C@H](O)CC5)c34)cc2F)cn1
REMARK SMILES IDX 12 1 13 2 14 3 15 4 16 5 17 6 18 7 19 8 30 9 11 11 10 13
REMARK SMILES IDX 7 14 32 15 8 16 31 17 9 18 33 19 6 20 5 21 2 22 35 23 3 24
REMARK SMILES IDX 34 25 4 26 1 27 20 28 21 29 22 30 23 31 29 32 24 33 28 34
REMARK SMILES IDX 25 35 26 36 27 38
REMARK H PARENT 17 10 11 12 23 37 27 39
ROOT
ATOM      1  C   UNL     1      15.457   1.542  26.662  1.00  0.00     0.148 A 
ATOM      2  N   UNL     1      15.839   0.371  27.244  1.00  0.00    -0.218 NA
ATOM      3  C   UNL     1      17.013  -0.178  26.839  1.00  0.00     0.226 A 
ATOM      4  N   UNL     1      17.881   0.304  25.907  1.00  0.00    -0.217 NA
ATOM      5  C   UNL     1      17.471   1.457  25.366  1.00  0.00     0.164 A 
ATOM      6  N   UNL     1      18.096   2.222  24.405  1.00  0.00    -0.257 N 
ATOM      7  N   UNL     1      17.378   3.325  24.110  1.00  0.00    -0.135 NA
ATOM      8  C   UNL     1      16.294   3.301  24.861  1.00  0.00     0.246 A 
ATOM      9  C   UNL     1      16.278   2.139  25.689  1.00  0.00     0.125 A 
ATOM     10  H   UNL     1      18.975   2.041  23.941  1.00  0.00     0.192 HD
ENDROOT
BRANCH   1  11
ATOM     11  N   UNL     1      14.263   2.183  27.034  1.00  0.00    -0.339 N 
ATOM     12  H   UNL     1      13.922   2.823  26.330  1.00  0.00     0.168 HD
BRANCH  11  13
ATOM     13  C   UNL     1      13.454   2.133  28.183  1.00  0.00     0.043 A 
ATOM     14  C   UNL     1      11.711   2.038  30.384  1.00  0.00     0.163 A 
ATOM     15  C   UNL     1      13.095   1.965  30.580  1.00  0.00     0.167 A 
ATOM     16  C   UNL     1      11.203   2.133  29.088  1.00  0.00     0.052 A 
ATOM     17  C   UNL     1      13.960   2.013  29.485  1.00  0.00     0.069 A 
ATOM     18  C   UNL     1      12.069   2.180  27.997  1.00  0.00     0.030 A 
ATOM     19  F   UNL     1      13.601   1.844  31.828  1.00  0.00    -0.203 F 
BRANCH  14  20
ATOM     20  O   UNL     1      10.842   1.980  31.447  1.00  0.00    -0.453 OA
BRANCH  20  21
ATOM     21  C   UNL     1      10.057   0.862  31.652  1.00  0.00     0.145 A 
ATOM     22  C   UNL     1       8.439  -1.330  32.112  1.00  0.00     0.038 A 
ATOM     23  N   UNL     1       9.729  -1.546  31.744  1.00  0.00    -0.258 NA
ATOM     24  C   UNL     1       7.901  -0.050  32.271  1.00  0.00     0.027 A 
ATOM     25  C   UNL     1      10.515  -0.461  31.523  1.00  0.00     0.158 A 
ATOM     26  C   UNL     1       8.728   1.051  32.040  1.00  0.00     0.050 A 
ATOM     27  C   UNL     1       7.603  -2.574  32.349  1.00  0.00     0.066 C 
ENDBRANCH  20  21
ENDBRANCH  14  20
ENDBRANCH  11  13
ENDBRANCH   1  11
BRANCH   8  28
ATOM     28  O   UNL     1      15.321   4.275  24.835  1.00  0.00    -0.470 OA
BRANCH  28  29
ATOM     29  C   UNL     1      15.592   5.507  25.504  1.00  0.00     0.292 C 
BRANCH  29  30
ATOM     30  C   UNL     1      15.266   6.694  24.577  1.00  0.00     0.304 C 
BRANCH  30  31
ATOM     31  N   UNL     1      14.594   6.237  23.256  1.00  0.00    -0.332 N 
ATOM     32  C   UNL     1      13.081   6.555  23.309  1.00  0.00     0.265 C 
ATOM     33  C   UNL     1      15.260   6.890  22.021  1.00  0.00     0.265 C 
ATOM     34  C   UNL     1      12.406   6.027  22.031  1.00  0.00     0.093 C 
ATOM     35  C   UNL     1      14.581   6.370  20.740  1.00  0.00     0.093 C 
ATOM     36  C   UNL     1      13.054   6.578  20.746  1.00  0.00     0.125 C 
ATOM     37  H   UNL     1      14.694   5.234  23.178  1.00  0.00     0.348 HD
BRANCH  36  38
ATOM     38  O   UNL     1      12.465   5.991  19.604  1.00  0.00    -0.393 OA
ATOM     39  H   UNL     1      12.870   6.366  18.819  1.00  0.00     0.210 HD
ENDBRANCH  36  38
ENDBRANCH  30  31
ENDBRANCH  29  30
ENDBRANCH  28  29
ENDBRANCH   8  28
TORSDOF 9
ENDMDL
