REMARK VINA RESULT:    -8.708      2.880      5.781
REMARK INTER + INTRA:         -15.236
REMARK INTER:                 -14.239
REMARK INTRA:                  -0.997
REMARK UNBOUND:                -1.436
REMARK SMILES CCCc1cc(-c2noc3ccccc23)ccc1OCCCOc1cccc([C@H]2SC(=O)NC2=O)c1
REMARK SMILES IDX 20 1 19 2 18 3 4 4 5 5 6 6 17 7 16 8 3 9 2 10 1 11 7 12 8 13
REMARK SMILES IDX 15 14 9 15 14 16 10 17 13 18 11 19 12 20 21 21 22 22 23 23
REMARK SMILES IDX 24 24 25 25 36 26 26 27 28 28 27 29 29 30 30 31 34 32 31 33
REMARK SMILES IDX 33 34 35 35 32 36
REMARK H PARENT 33 37
ROOT
ATOM      1  C   UNL     1      10.853  12.404  -7.871  1.00  0.00     0.233 C 
ENDROOT
BRANCH   1   2
ATOM      2  O   UNL     1      10.379  12.043  -9.170  1.00  0.00    -0.493 OA
BRANCH   2   3
ATOM      3  C   UNL     1      10.424  10.720  -9.519  1.00  0.00     0.122 A 
ATOM      4  C   UNL     1      10.391  10.449 -10.900  1.00  0.00    -0.005 A 
ATOM      5  C   UNL     1      10.430   9.114 -11.344  1.00  0.00     0.018 A 
ATOM      6  C   UNL     1      10.492   8.050 -10.436  1.00  0.00     0.005 A 
ATOM      7  C   UNL     1      10.504   9.659  -8.613  1.00  0.00     0.047 A 
ATOM      8  C   UNL     1      10.540   8.337  -9.068  1.00  0.00     0.014 A 
BRANCH   4   9
ATOM      9  C   UNL     1      10.305  11.562 -11.922  1.00  0.00     0.039 C 
BRANCH   9  10
ATOM     10  C   UNL     1      10.059  11.070 -13.352  1.00  0.00     0.001 C 
ATOM     11  C   UNL     1      11.342  10.778 -14.118  1.00  0.00     0.004 C 
ENDBRANCH   9  10
ENDBRANCH   4   9
BRANCH   6  12
ATOM     12  C   UNL     1      10.511   6.665 -10.900  1.00  0.00     0.121 A 
ATOM     13  N   UNL     1      10.875   6.364 -12.160  1.00  0.00    -0.079 NA
ATOM     14  C   UNL     1      10.194   5.476 -10.173  1.00  0.00     0.050 A 
ATOM     15  O   UNL     1      10.774   4.991 -12.277  1.00  0.00    -0.356 OA
ATOM     16  C   UNL     1       9.798   5.130  -8.866  1.00  0.00     0.014 A 
ATOM     17  C   UNL     1      10.372   4.460 -11.094  1.00  0.00     0.167 A 
ATOM     18  C   UNL     1       9.586   3.777  -8.562  1.00  0.00     0.001 A 
ATOM     19  C   UNL     1      10.171   3.108 -10.830  1.00  0.00     0.051 A 
ATOM     20  C   UNL     1       9.768   2.784  -9.530  1.00  0.00     0.004 A 
ENDBRANCH   6  12
ENDBRANCH   2   3
ENDBRANCH   1   2
BRANCH   1  21
ATOM     21  C   UNL     1       9.635  12.545  -6.960  1.00  0.00     0.083 C 
BRANCH  21  22
ATOM     22  C   UNL     1       9.514  11.390  -5.976  1.00  0.00     0.233 C 
BRANCH  22  23
ATOM     23  O   UNL     1       8.334  10.647  -6.278  1.00  0.00    -0.493 OA
BRANCH  23  24
ATOM     24  C   UNL     1       7.538  10.276  -5.230  1.00  0.00     0.119 A 
ATOM     25  C   UNL     1       8.033  10.627  -3.974  1.00  0.00     0.046 A 
ATOM     26  C   UNL     1       6.319   9.601  -5.321  1.00  0.00     0.051 A 
ATOM     27  C   UNL     1       7.325  10.303  -2.818  1.00  0.00     0.004 A 
ATOM     28  C   UNL     1       5.582   9.275  -4.163  1.00  0.00    -0.021 A 
ATOM     29  C   UNL     1       6.109   9.627  -2.910  1.00  0.00     0.006 A 
BRANCH  28  30
ATOM     30  C   UNL     1       4.277   8.521  -4.305  1.00  0.00     0.176 C 
ATOM     31  S   UNL     1       3.039   9.496  -5.223  1.00  0.00    -0.046 SA
ATOM     32  C   UNL     1       4.375   7.200  -5.047  1.00  0.00     0.245 C 
ATOM     33  C   UNL     1       2.763   8.232  -6.388  1.00  0.00     0.286 C 
ATOM     34  N   UNL     1       3.541   7.158  -6.124  1.00  0.00    -0.286 N 
ATOM     35  O   UNL     1       5.098   6.261  -4.739  1.00  0.00    -0.273 OA
ATOM     36  O   UNL     1       1.969   8.316  -7.308  1.00  0.00    -0.261 OA
ATOM     37  H   UNL     1       3.494   6.340  -6.711  1.00  0.00     0.173 HD
ENDBRANCH  28  30
ENDBRANCH  23  24
ENDBRANCH  22  23
ENDBRANCH  21  22
ENDBRANCH   1  21
TORSDOF 10
