MODEL 1
REMARK VINA RESULT:   -10.533      0.000      0.000
REMARK INTER + INTRA:         -17.125
REMARK INTER:                 -16.383
REMARK INTRA:                  -0.742
REMARK UNBOUND:                -0.742
REMARK SMILES COC(=O)C[C@]1(C(=O)Nc2ncc(-c3ccccc3S(N)(=O)=O)cn2)CC(c2cccc(C(=N)N)c2)=NO1
REMARK SMILES IDX 7 1 8 2 9 3 6 5 26 6 38 7 27 8 37 9 5 10 3 11 4 12 2 13 1 14
REMARK SMILES IDX 28 15 29 16 36 17 30 18 32 19 31 20 33 21 34 22 35 23 10 27
REMARK SMILES IDX 11 28 25 29 12 30 24 31 13 32 14 33 15 34 19 35 16 36 18 37
REMARK SMILES IDX 17 38 20 39 22 40 23 41 21 42
REMARK H PARENT 9 4 34 24 35 25 35 26 21 43 21 44
ROOT
ATOM      1  C   UNL     1      15.766 -13.636  19.789  1.00  0.00     0.274 C 
ATOM      2  O   UNL     1      15.738 -14.803  19.412  1.00  0.00    -0.270 OA
ATOM      3  N   UNL     1      16.589 -13.117  20.760  1.00  0.00    -0.291 N 
ATOM      4  H   UNL     1      16.590 -12.114  20.912  1.00  0.00     0.173 HD
ENDROOT
BRANCH   1   5
ATOM      5  C   UNL     1      14.788 -12.585  19.211  1.00  0.00     0.231 C 
ATOM      6  C   UNL     1      13.453 -12.595  19.940  1.00  0.00     0.123 C 
ATOM      7  O   UNL     1      15.331 -11.273  19.467  1.00  0.00    -0.378 OA
ATOM      8  C   UNL     1      13.672 -11.462  20.881  1.00  0.00     0.092 C 
ATOM      9  N   UNL     1      14.720 -10.744  20.628  1.00  0.00    -0.089 NA
BRANCH   5  10
ATOM     10  C   UNL     1      14.678 -12.734  17.694  1.00  0.00     0.185 C 
BRANCH  10  11
ATOM     11  C   UNL     1      15.517 -11.735  16.941  1.00  0.00     0.310 C 
ATOM     12  O   UNL     1      16.738 -11.773  16.864  1.00  0.00    -0.252 OA
BRANCH  11  13
ATOM     13  O   UNL     1      14.718 -10.834  16.306  1.00  0.00    -0.469 OA
ATOM     14  C   UNL     1      15.354 -10.158  15.222  1.00  0.00     0.282 C 
ENDBRANCH  11  13
ENDBRANCH  10  11
ENDBRANCH   5  10
BRANCH   8  15
ATOM     15  C   UNL     1      12.752 -11.184  22.009  1.00  0.00     0.000 A 
ATOM     16  C   UNL     1      11.873 -12.192  22.430  1.00  0.00     0.010 A 
ATOM     17  C   UNL     1      12.744  -9.944  22.656  1.00  0.00     0.022 A 
ATOM     18  C   UNL     1      10.988 -11.965  23.485  1.00  0.00     0.001 A 
ATOM     19  C   UNL     1      11.855  -9.722  23.714  1.00  0.00     0.017 A 
ATOM     20  C   UNL     1      10.975 -10.727  24.127  1.00  0.00     0.012 A 
BRANCH  19  21
ATOM     21  C   UNL     1      11.836  -8.404  24.400  1.00  0.00     0.122 C 
ATOM     22  N   UNL     1      12.916  -7.734  24.637  1.00  0.00    -0.284 NA
ATOM     23  N   UNL     1      10.661  -7.858  24.798  1.00  0.00    -0.384 N 
ATOM     24  H   UNL     1      13.751  -8.244  24.335  1.00  0.00     0.189 HD
ATOM     25  H   UNL     1      10.705  -6.951  25.245  1.00  0.00     0.158 HD
ATOM     26  H   UNL     1       9.757  -8.245  24.570  1.00  0.00     0.158 HD
ENDBRANCH  19  21
ENDBRANCH   8  15
ENDBRANCH   1   5
BRANCH   3  27
ATOM     27  C   UNL     1      17.504 -13.808  21.531  1.00  0.00     0.229 A 
ATOM     28  N   UNL     1      17.417 -13.558  22.846  1.00  0.00    -0.221 NA
ATOM     29  N   UNL     1      18.378 -14.659  20.989  1.00  0.00    -0.221 NA
ATOM     30  C   UNL     1      18.284 -14.218  23.645  1.00  0.00     0.125 A 
ATOM     31  C   UNL     1      19.230 -15.289  21.827  1.00  0.00     0.125 A 
ATOM     32  C   UNL     1      19.241 -15.109  23.196  1.00  0.00     0.020 A 
BRANCH  32  33
ATOM     33  C   UNL     1      20.141 -15.822  24.102  1.00  0.00     0.005 A 
ATOM     34  C   UNL     1      19.755 -17.107  24.538  1.00  0.00     0.010 A 
ATOM     35  C   UNL     1      21.362 -15.309  24.587  1.00  0.00     0.090 A 
ATOM     36  C   UNL     1      20.548 -17.849  25.418  1.00  0.00     0.001 A 
ATOM     37  C   UNL     1      22.157 -16.059  25.470  1.00  0.00     0.022 A 
ATOM     38  C   UNL     1      21.747 -17.325  25.884  1.00  0.00     0.001 A 
BRANCH  35  39
ATOM     39  S   UNL     1      21.969 -13.712  24.105  1.00  0.00     0.238 S 
ATOM     40  O   UNL     1      21.591 -13.456  22.734  1.00  0.00    -0.207 OA
ATOM     41  O   UNL     1      21.692 -12.775  25.165  1.00  0.00    -0.207 OA
BRANCH  39  42
ATOM     42  N   UNL     1      23.634 -13.925  24.053  1.00  0.00    -0.225 NA
ATOM     43  H   UNL     1      23.855 -14.723  23.457  1.00  0.00     0.137 HD
ATOM     44  H   UNL     1      24.083 -13.058  23.751  1.00  0.00     0.137 HD
ENDBRANCH  39  42
ENDBRANCH  35  39
ENDBRANCH  32  33
ENDBRANCH   3  27
TORSDOF 10
ENDMDL
MODEL 2
REMARK VINA RESULT:   -10.348      0.999      1.039
REMARK INTER + INTRA:         -16.837
REMARK INTER:                 -15.462
REMARK INTRA:                  -1.375
REMARK UNBOUND:                -0.742
REMARK SMILES COC(=O)C[C@]1(C(=O)Nc2ncc(-c3ccccc3S(N)(=O)=O)cn2)CC(c2cccc(C(=N)N)c2)=NO1
REMARK SMILES IDX 7 1 8 2 9 3 6 5 26 6 38 7 27 8 37 9 5 10 3 11 4 12 2 13 1 14
REMARK SMILES IDX 28 15 29 16 36 17 30 18 32 19 31 20 33 21 34 22 35 23 10 27
REMARK SMILES IDX 11 28 25 29 12 30 24 31 13 32 14 33 15 34 19 35 16 36 18 37
REMARK SMILES IDX 17 38 20 39 22 40 23 41 21 42
REMARK H PARENT 9 4 34 24 35 25 35 26 21 43 21 44
ROOT
ATOM      1  C   UNL     1      15.781 -13.580  19.737  1.00  0.00     0.274 C 
ATOM      2  O   UNL     1      15.576 -14.774  19.544  1.00  0.00    -0.270 OA
ATOM      3  N   UNL     1      16.813 -13.043  20.469  1.00  0.00    -0.291 N 
ATOM      4  H   UNL     1      16.936 -12.036  20.470  1.00  0.00     0.173 HD
ENDROOT
BRANCH   1   5
ATOM      5  C   UNL     1      14.818 -12.502  19.185  1.00  0.00     0.231 C 
ATOM      6  C   UNL     1      13.481 -12.516  19.910  1.00  0.00     0.123 C 
ATOM      7  O   UNL     1      15.375 -11.204  19.477  1.00  0.00    -0.378 OA
ATOM      8  C   UNL     1      13.710 -11.410  20.880  1.00  0.00     0.092 C 
ATOM      9  N   UNL     1      14.768 -10.698  20.649  1.00  0.00    -0.089 NA
BRANCH   5  10
ATOM     10  C   UNL     1      14.710 -12.610  17.663  1.00  0.00     0.185 C 
BRANCH  10  11
ATOM     11  C   UNL     1      15.541 -11.583  16.940  1.00  0.00     0.310 C 
ATOM     12  O   UNL     1      16.763 -11.597  16.878  1.00  0.00    -0.252 OA
BRANCH  11  13
ATOM     13  O   UNL     1      14.734 -10.684  16.311  1.00  0.00    -0.469 OA
ATOM     14  C   UNL     1      15.288 -10.149  15.109  1.00  0.00     0.282 C 
ENDBRANCH  11  13
ENDBRANCH  10  11
ENDBRANCH   5  10
BRANCH   8  15
ATOM     15  C   UNL     1      12.791 -11.152  22.013  1.00  0.00     0.000 A 
ATOM     16  C   UNL     1      11.925 -12.173  22.429  1.00  0.00     0.010 A 
ATOM     17  C   UNL     1      12.770  -9.917  22.670  1.00  0.00     0.022 A 
ATOM     18  C   UNL     1      11.039 -11.963  23.488  1.00  0.00     0.001 A 
ATOM     19  C   UNL     1      11.882  -9.713  23.732  1.00  0.00     0.017 A 
ATOM     20  C   UNL     1      11.015 -10.731  24.139  1.00  0.00     0.012 A 
BRANCH  19  21
ATOM     21  C   UNL     1      11.850  -8.401  24.429  1.00  0.00     0.122 C 
ATOM     22  N   UNL     1      12.925  -7.727  24.681  1.00  0.00    -0.284 NA
ATOM     23  N   UNL     1      10.669  -7.863  24.819  1.00  0.00    -0.384 N 
ATOM     24  H   UNL     1      13.766  -8.231  24.383  1.00  0.00     0.189 HD
ATOM     25  H   UNL     1      10.705  -6.959  25.274  1.00  0.00     0.158 HD
ATOM     26  H   UNL     1       9.769  -8.252  24.580  1.00  0.00     0.158 HD
ENDBRANCH  19  21
ENDBRANCH   8  15
ENDBRANCH   1   5
BRANCH   3  27
ATOM     27  C   UNL     1      17.785 -13.734  21.168  1.00  0.00     0.229 A 
ATOM     28  N   UNL     1      17.310 -14.497  22.163  1.00  0.00    -0.221 NA
ATOM     29  N   UNL     1      19.077 -13.645  20.846  1.00  0.00    -0.221 NA
ATOM     30  C   UNL     1      18.220 -15.202  22.871  1.00  0.00     0.125 A 
ATOM     31  C   UNL     1      19.950 -14.362  21.587  1.00  0.00     0.125 A 
ATOM     32  C   UNL     1      19.583 -15.177  22.640  1.00  0.00     0.020 A 
BRANCH  32  33
ATOM     33  C   UNL     1      20.529 -15.980  23.414  1.00  0.00     0.005 A 
ATOM     34  C   UNL     1      20.843 -17.269  22.938  1.00  0.00     0.010 A 
ATOM     35  C   UNL     1      21.137 -15.563  24.616  1.00  0.00     0.090 A 
ATOM     36  C   UNL     1      21.724 -18.109  23.626  1.00  0.00     0.001 A 
ATOM     37  C   UNL     1      22.023 -16.409  25.305  1.00  0.00     0.022 A 
ATOM     38  C   UNL     1      22.312 -17.679  24.810  1.00  0.00     0.001 A 
BRANCH  35  39
ATOM     39  S   UNL     1      20.837 -13.959  25.317  1.00  0.00     0.238 S 
ATOM     40  O   UNL     1      21.437 -12.954  24.469  1.00  0.00    -0.207 OA
ATOM     41  O   UNL     1      19.459 -13.889  25.733  1.00  0.00    -0.207 OA
BRANCH  39  42
ATOM     42  N   UNL     1      21.778 -13.958  26.708  1.00  0.00    -0.225 NA
ATOM     43  H   UNL     1      21.535 -13.148  27.280  1.00  0.00     0.137 HD
ATOM     44  H   UNL     1      21.668 -14.847  27.200  1.00  0.00     0.137 HD
ENDBRANCH  39  42
ENDBRANCH  35  39
ENDBRANCH  32  33
ENDBRANCH   3  27
TORSDOF 10
ENDMDL
MODEL 3
REMARK VINA RESULT:   -10.159      1.730      2.002
REMARK INTER + INTRA:         -16.542
REMARK INTER:                 -15.216
REMARK INTRA:                  -1.326
REMARK UNBOUND:                -0.742
REMARK SMILES COC(=O)C[C@]1(C(=O)Nc2ncc(-c3ccccc3S(N)(=O)=O)cn2)CC(c2cccc(C(=N)N)c2)=NO1
REMARK SMILES IDX 7 1 8 2 9 3 6 5 26 6 38 7 27 8 37 9 5 10 3 11 4 12 2 13 1 14
REMARK SMILES IDX 28 15 29 16 36 17 30 18 32 19 31 20 33 21 34 22 35 23 10 27
REMARK SMILES IDX 11 28 25 29 12 30 24 31 13 32 14 33 15 34 19 35 16 36 18 37
REMARK SMILES IDX 17 38 20 39 22 40 23 41 21 42
REMARK H PARENT 9 4 34 24 35 25 35 26 21 43 21 44
ROOT
ATOM      1  C   UNL     1      15.921 -13.512  19.850  1.00  0.00     0.274 C 
ATOM      2  O   UNL     1      15.985 -14.701  19.550  1.00  0.00    -0.270 OA
ATOM      3  N   UNL     1      16.712 -12.863  20.766  1.00  0.00    -0.291 N 
ATOM      4  H   UNL     1      16.631 -11.855  20.852  1.00  0.00     0.173 HD
ENDROOT
BRANCH   1   5
ATOM      5  C   UNL     1      14.848 -12.587  19.226  1.00  0.00     0.231 C 
ATOM      6  C   UNL     1      13.531 -12.660  19.982  1.00  0.00     0.123 C 
ATOM      7  O   UNL     1      15.282 -11.220  19.384  1.00  0.00    -0.378 OA
ATOM      8  C   UNL     1      13.668 -11.453  20.842  1.00  0.00     0.092 C 
ATOM      9  N   UNL     1      14.648 -10.668  20.521  1.00  0.00    -0.089 NA
BRANCH   5  10
ATOM     10  C   UNL     1      14.727 -12.846  17.724  1.00  0.00     0.185 C 
BRANCH  10  11
ATOM     11  C   UNL     1      15.086 -11.645  16.889  1.00  0.00     0.310 C 
ATOM     12  O   UNL     1      14.319 -10.727  16.628  1.00  0.00    -0.252 OA
BRANCH  11  13
ATOM     13  O   UNL     1      16.399 -11.696  16.532  1.00  0.00    -0.469 OA
ATOM     14  C   UNL     1      16.848 -10.551  15.806  1.00  0.00     0.282 C 
ENDBRANCH  11  13
ENDBRANCH  10  11
ENDBRANCH   5  10
BRANCH   8  15
ATOM     15  C   UNL     1      12.746 -11.178  21.969  1.00  0.00     0.000 A 
ATOM     16  C   UNL     1      11.844 -12.176  22.365  1.00  0.00     0.010 A 
ATOM     17  C   UNL     1      12.758  -9.951  22.640  1.00  0.00     0.022 A 
ATOM     18  C   UNL     1      10.955 -11.951  23.418  1.00  0.00     0.001 A 
ATOM     19  C   UNL     1      11.866  -9.731  23.697  1.00  0.00     0.017 A 
ATOM     20  C   UNL     1      10.963 -10.727  24.084  1.00  0.00     0.012 A 
BRANCH  19  21
ATOM     21  C   UNL     1      11.869  -8.427  24.409  1.00  0.00     0.122 C 
ATOM     22  N   UNL     1      12.957  -7.763  24.628  1.00  0.00    -0.284 NA
ATOM     23  N   UNL     1      10.707  -7.887  24.849  1.00  0.00    -0.384 N 
ATOM     24  H   UNL     1      13.783  -8.269  24.294  1.00  0.00     0.189 HD
ATOM     25  H   UNL     1      10.766  -6.988  25.312  1.00  0.00     0.158 HD
ATOM     26  H   UNL     1       9.796  -8.267  24.639  1.00  0.00     0.158 HD
ENDBRANCH  19  21
ENDBRANCH   8  15
ENDBRANCH   1   5
BRANCH   3  27
ATOM     27  C   UNL     1      17.696 -13.422  21.560  1.00  0.00     0.229 A 
ATOM     28  N   UNL     1      17.228 -14.118  22.608  1.00  0.00    -0.221 NA
ATOM     29  N   UNL     1      18.992 -13.282  21.276  1.00  0.00    -0.221 NA
ATOM     30  C   UNL     1      18.150 -14.694  23.410  1.00  0.00     0.125 A 
ATOM     31  C   UNL     1      19.876 -13.869  22.112  1.00  0.00     0.125 A 
ATOM     32  C   UNL     1      19.516 -14.604  23.224  1.00  0.00     0.020 A 
BRANCH  32  33
ATOM     33  C   UNL     1      20.478 -15.268  24.104  1.00  0.00     0.005 A 
ATOM     34  C   UNL     1      20.898 -14.579  25.261  1.00  0.00     0.010 A 
ATOM     35  C   UNL     1      21.030 -16.544  23.870  1.00  0.00     0.090 A 
ATOM     36  C   UNL     1      21.827 -15.133  26.145  1.00  0.00     0.001 A 
ATOM     37  C   UNL     1      21.964 -17.099  24.762  1.00  0.00     0.022 A 
ATOM     38  C   UNL     1      22.360 -16.392  25.895  1.00  0.00     0.001 A 
BRANCH  35  39
ATOM     39  S   UNL     1      20.576 -17.522  22.459  1.00  0.00     0.238 S 
ATOM     40  O   UNL     1      19.189 -17.909  22.579  1.00  0.00    -0.207 OA
ATOM     41  O   UNL     1      21.095 -16.889  21.273  1.00  0.00    -0.207 OA
BRANCH  39  42
ATOM     42  N   UNL     1      21.435 -18.948  22.678  1.00  0.00    -0.225 NA
ATOM     43  H   UNL     1      21.625 -19.080  23.672  1.00  0.00     0.137 HD
ATOM     44  H   UNL     1      20.924 -19.727  22.257  1.00  0.00     0.137 HD
ENDBRANCH  39  42
ENDBRANCH  35  39
ENDBRANCH  32  33
ENDBRANCH   3  27
TORSDOF 10
ENDMDL
MODEL 4
REMARK VINA RESULT:    -9.894      1.202      1.867
REMARK INTER + INTRA:         -16.131
REMARK INTER:                 -14.955
REMARK INTRA:                  -1.175
REMARK UNBOUND:                -0.742
REMARK SMILES COC(=O)C[C@]1(C(=O)Nc2ncc(-c3ccccc3S(N)(=O)=O)cn2)CC(c2cccc(C(=N)N)c2)=NO1
REMARK SMILES IDX 7 1 8 2 9 3 6 5 26 6 38 7 27 8 37 9 5 10 3 11 4 12 2 13 1 14
REMARK SMILES IDX 28 15 29 16 36 17 30 18 32 19 31 20 33 21 34 22 35 23 10 27
REMARK SMILES IDX 11 28 25 29 12 30 24 31 13 32 14 33 15 34 19 35 16 36 18 37
REMARK SMILES IDX 17 38 20 39 22 40 23 41 21 42
REMARK H PARENT 9 4 34 24 35 25 35 26 21 43 21 44
ROOT
ATOM      1  C   UNL     1      16.322 -13.000  20.277  1.00  0.00     0.274 C 
ATOM      2  O   UNL     1      17.362 -12.487  19.877  1.00  0.00    -0.270 OA
ATOM      3  N   UNL     1      16.208 -13.913  21.298  1.00  0.00    -0.291 N 
ATOM      4  H   UNL     1      15.281 -14.187  21.605  1.00  0.00     0.173 HD
ENDROOT
BRANCH   1   5
ATOM      5  C   UNL     1      14.965 -12.690  19.601  1.00  0.00     0.231 C 
ATOM      6  C   UNL     1      13.798 -12.914  20.550  1.00  0.00     0.123 C 
ATOM      7  O   UNL     1      14.921 -11.280  19.299  1.00  0.00    -0.378 OA
ATOM      8  C   UNL     1      13.571 -11.514  21.004  1.00  0.00     0.092 C 
ATOM      9  N   UNL     1      14.208 -10.614  20.323  1.00  0.00    -0.089 NA
BRANCH   5  10
ATOM     10  C   UNL     1      14.847 -13.435  18.271  1.00  0.00     0.185 C 
BRANCH  10  11
ATOM     11  C   UNL     1      14.611 -14.913  18.444  1.00  0.00     0.310 C 
ATOM     12  O   UNL     1      15.418 -15.691  18.936  1.00  0.00    -0.252 OA
BRANCH  11  13
ATOM     13  O   UNL     1      13.351 -15.238  18.042  1.00  0.00    -0.469 OA
ATOM     14  C   UNL     1      12.601 -15.966  19.015  1.00  0.00     0.282 C 
ENDBRANCH  11  13
ENDBRANCH  10  11
ENDBRANCH   5  10
BRANCH   8  15
ATOM     15  C   UNL     1      12.681 -11.188  22.143  1.00  0.00     0.000 A 
ATOM     16  C   UNL     1      11.806 -12.173  22.622  1.00  0.00     0.010 A 
ATOM     17  C   UNL     1      12.697  -9.925  22.745  1.00  0.00     0.022 A 
ATOM     18  C   UNL     1      10.948 -11.901  23.689  1.00  0.00     0.001 A 
ATOM     19  C   UNL     1      11.836  -9.658  23.815  1.00  0.00     0.017 A 
ATOM     20  C   UNL     1      10.959 -10.641  24.285  1.00  0.00     0.012 A 
BRANCH  19  21
ATOM     21  C   UNL     1      11.843  -8.316  24.453  1.00  0.00     0.122 C 
ATOM     22  N   UNL     1      12.937  -7.664  24.675  1.00  0.00    -0.284 NA
ATOM     23  N   UNL     1      10.678  -7.729  24.820  1.00  0.00    -0.384 N 
ATOM     24  H   UNL     1      13.762  -8.204  24.400  1.00  0.00     0.189 HD
ATOM     25  H   UNL     1      10.741  -6.807  25.234  1.00  0.00     0.158 HD
ATOM     26  H   UNL     1       9.767  -8.101  24.599  1.00  0.00     0.158 HD
ENDBRANCH  19  21
ENDBRANCH   8  15
ENDBRANCH   1   5
BRANCH   3  27
ATOM     27  C   UNL     1      17.237 -14.466  22.037  1.00  0.00     0.229 A 
ATOM     28  N   UNL     1      17.389 -13.930  23.258  1.00  0.00    -0.221 NA
ATOM     29  N   UNL     1      17.988 -15.460  21.560  1.00  0.00    -0.221 NA
ATOM     30  C   UNL     1      18.375 -14.444  24.025  1.00  0.00     0.125 A 
ATOM     31  C   UNL     1      18.967 -15.936  22.360  1.00  0.00     0.125 A 
ATOM     32  C   UNL     1      19.224 -15.461  23.631  1.00  0.00     0.020 A 
BRANCH  32  33
ATOM     33  C   UNL     1      20.262 -16.006  24.507  1.00  0.00     0.005 A 
ATOM     34  C   UNL     1      20.024 -17.258  25.110  1.00  0.00     0.010 A 
ATOM     35  C   UNL     1      21.478 -15.359  24.807  1.00  0.00     0.090 A 
ATOM     36  C   UNL     1      20.954 -17.842  25.974  1.00  0.00     0.001 A 
ATOM     37  C   UNL     1      22.412 -15.949  25.676  1.00  0.00     0.022 A 
ATOM     38  C   UNL     1      22.147 -17.187  26.258  1.00  0.00     0.001 A 
BRANCH  35  39
ATOM     39  S   UNL     1      21.906 -13.785  24.104  1.00  0.00     0.238 S 
ATOM     40  O   UNL     1      21.446 -13.739  22.735  1.00  0.00    -0.207 OA
ATOM     41  O   UNL     1      21.584 -12.752  25.057  1.00  0.00    -0.207 OA
BRANCH  39  42
ATOM     42  N   UNL     1      23.580 -13.850  23.988  1.00  0.00    -0.225 NA
ATOM     43  H   UNL     1      23.851 -14.689  23.474  1.00  0.00     0.137 HD
ATOM     44  H   UNL     1      23.930 -12.987  23.566  1.00  0.00     0.137 HD
ENDBRANCH  39  42
ENDBRANCH  35  39
ENDBRANCH  32  33
ENDBRANCH   3  27
TORSDOF 10
ENDMDL
MODEL 5
REMARK VINA RESULT:    -9.860      1.835      2.167
REMARK INTER + INTRA:         -16.078
REMARK INTER:                 -15.037
REMARK INTRA:                  -1.041
REMARK UNBOUND:                -0.742
REMARK SMILES COC(=O)C[C@]1(C(=O)Nc2ncc(-c3ccccc3S(N)(=O)=O)cn2)CC(c2cccc(C(=N)N)c2)=NO1
REMARK SMILES IDX 7 1 8 2 9 3 6 5 26 6 38 7 27 8 37 9 5 10 3 11 4 12 2 13 1 14
REMARK SMILES IDX 28 15 29 16 36 17 30 18 32 19 31 20 33 21 34 22 35 23 10 27
REMARK SMILES IDX 11 28 25 29 12 30 24 31 13 32 14 33 15 34 19 35 16 36 18 37
REMARK SMILES IDX 17 38 20 39 22 40 23 41 21 42
REMARK H PARENT 9 4 34 24 35 25 35 26 21 43 21 44
ROOT
ATOM      1  C   UNL     1      16.068 -13.653  20.057  1.00  0.00     0.274 C 
ATOM      2  O   UNL     1      15.821 -14.848  19.929  1.00  0.00    -0.270 OA
ATOM      3  N   UNL     1      17.094 -13.111  20.793  1.00  0.00    -0.291 N 
ATOM      4  H   UNL     1      17.257 -12.111  20.738  1.00  0.00     0.173 HD
ENDROOT
BRANCH   1   5
ATOM      5  C   UNL     1      15.168 -12.576  19.404  1.00  0.00     0.231 C 
ATOM      6  C   UNL     1      13.775 -12.559  20.015  1.00  0.00     0.123 C 
ATOM      7  O   UNL     1      15.716 -11.278  19.716  1.00  0.00    -0.378 OA
ATOM      8  C   UNL     1      13.938 -11.436  20.980  1.00  0.00     0.092 C 
ATOM      9  N   UNL     1      15.020 -10.741  20.824  1.00  0.00    -0.089 NA
BRANCH   5  10
ATOM     10  C   UNL     1      15.186 -12.715  17.882  1.00  0.00     0.185 C 
BRANCH  10  11
ATOM     11  C   UNL     1      15.258 -11.388  17.171  1.00  0.00     0.310 C 
ATOM     12  O   UNL     1      14.285 -10.760  16.775  1.00  0.00    -0.252 OA
BRANCH  11  13
ATOM     13  O   UNL     1      16.549 -10.962  17.101  1.00  0.00    -0.469 OA
ATOM     14  C   UNL     1      17.256 -11.439  15.955  1.00  0.00     0.282 C 
ENDBRANCH  11  13
ENDBRANCH  10  11
ENDBRANCH   5  10
BRANCH   8  15
ATOM     15  C   UNL     1      12.930 -11.143  22.026  1.00  0.00     0.000 A 
ATOM     16  C   UNL     1      11.979 -12.123  22.343  1.00  0.00     0.010 A 
ATOM     17  C   UNL     1      12.911  -9.917  22.698  1.00  0.00     0.022 A 
ATOM     18  C   UNL     1      11.010 -11.880  23.318  1.00  0.00     0.001 A 
ATOM     19  C   UNL     1      11.939  -9.679  23.677  1.00  0.00     0.017 A 
ATOM     20  C   UNL     1      10.987 -10.656  23.985  1.00  0.00     0.012 A 
BRANCH  19  21
ATOM     21  C   UNL     1      11.908  -8.375  24.389  1.00  0.00     0.122 C 
ATOM     22  N   UNL     1      12.981  -7.689  24.618  1.00  0.00    -0.284 NA
ATOM     23  N   UNL     1      10.731  -7.859  24.818  1.00  0.00    -0.384 N 
ATOM     24  H   UNL     1      13.819  -8.178  24.291  1.00  0.00     0.189 HD
ATOM     25  H   UNL     1      10.768  -6.960  25.282  1.00  0.00     0.158 HD
ATOM     26  H   UNL     1       9.831  -8.258  24.600  1.00  0.00     0.158 HD
ENDBRANCH  19  21
ENDBRANCH   8  15
ENDBRANCH   1   5
BRANCH   3  27
ATOM     27  C   UNL     1      18.012 -13.794  21.568  1.00  0.00     0.229 A 
ATOM     28  N   UNL     1      18.375 -13.150  22.688  1.00  0.00    -0.221 NA
ATOM     29  N   UNL     1      18.469 -14.998  21.218  1.00  0.00    -0.221 NA
ATOM     30  C   UNL     1      19.264 -13.781  23.486  1.00  0.00     0.125 A 
ATOM     31  C   UNL     1      19.362 -15.585  22.044  1.00  0.00     0.125 A 
ATOM     32  C   UNL     1      19.816 -15.019  23.219  1.00  0.00     0.020 A 
BRANCH  32  33
ATOM     33  C   UNL     1      20.755 -15.677  24.127  1.00  0.00     0.005 A 
ATOM     34  C   UNL     1      22.133 -15.553  23.853  1.00  0.00     0.010 A 
ATOM     35  C   UNL     1      20.381 -16.444  25.249  1.00  0.00     0.090 A 
ATOM     36  C   UNL     1      23.097 -16.165  24.659  1.00  0.00     0.001 A 
ATOM     37  C   UNL     1      21.353 -17.057  26.059  1.00  0.00     0.022 A 
ATOM     38  C   UNL     1      22.707 -16.917  25.760  1.00  0.00     0.001 A 
BRANCH  35  39
ATOM     39  S   UNL     1      18.682 -16.667  25.713  1.00  0.00     0.238 S 
ATOM     40  O   UNL     1      18.144 -15.403  26.162  1.00  0.00    -0.207 OA
ATOM     41  O   UNL     1      18.029 -17.462  24.703  1.00  0.00    -0.207 OA
BRANCH  39  42
ATOM     42  N   UNL     1      18.775 -17.607  27.102  1.00  0.00    -0.225 NA
ATOM     43  H   UNL     1      18.684 -17.008  27.923  1.00  0.00     0.137 HD
ATOM     44  H   UNL     1      18.073 -18.349  27.064  1.00  0.00     0.137 HD
ENDBRANCH  39  42
ENDBRANCH  35  39
ENDBRANCH  32  33
ENDBRANCH   3  27
TORSDOF 10
ENDMDL
MODEL 6
REMARK VINA RESULT:    -9.051      3.482      4.806
REMARK INTER + INTRA:         -14.820
REMARK INTER:                 -13.714
REMARK INTRA:                  -1.105
REMARK UNBOUND:                -0.742
REMARK SMILES COC(=O)C[C@]1(C(=O)Nc2ncc(-c3ccccc3S(N)(=O)=O)cn2)CC(c2cccc(C(=N)N)c2)=NO1
REMARK SMILES IDX 7 1 8 2 9 3 6 5 26 6 38 7 27 8 37 9 5 10 3 11 4 12 2 13 1 14
REMARK SMILES IDX 28 15 29 16 36 17 30 18 32 19 31 20 33 21 34 22 35 23 10 27
REMARK SMILES IDX 11 28 25 29 12 30 24 31 13 32 14 33 15 34 19 35 16 36 18 37
REMARK SMILES IDX 17 38 20 39 22 40 23 41 21 42
REMARK H PARENT 9 4 34 24 35 25 35 26 21 43 21 44
ROOT
ATOM      1  C   UNL     1      16.573 -12.188  19.625  1.00  0.00     0.274 C 
ATOM      2  O   UNL     1      16.933 -11.058  19.940  1.00  0.00    -0.270 OA
ATOM      3  N   UNL     1      16.927 -13.357  20.256  1.00  0.00    -0.291 N 
ATOM      4  H   UNL     1      16.481 -14.220  19.965  1.00  0.00     0.173 HD
ENDROOT
BRANCH   1   5
ATOM      5  C   UNL     1      15.672 -12.426  18.390  1.00  0.00     0.231 C 
ATOM      6  C   UNL     1      15.167 -13.859  18.327  1.00  0.00     0.123 C 
ATOM      7  O   UNL     1      14.479 -11.628  18.538  1.00  0.00    -0.378 OA
ATOM      8  C   UNL     1      13.816 -13.676  18.925  1.00  0.00     0.092 C 
ATOM      9  N   UNL     1      13.446 -12.441  19.058  1.00  0.00    -0.089 NA
BRANCH   5  10
ATOM     10  C   UNL     1      16.373 -11.949  17.117  1.00  0.00     0.185 C 
BRANCH  10  11
ATOM     11  C   UNL     1      15.635 -12.331  15.861  1.00  0.00     0.310 C 
ATOM     12  O   UNL     1      15.823 -13.365  15.233  1.00  0.00    -0.252 OA
BRANCH  11  13
ATOM     13  O   UNL     1      14.687 -11.398  15.570  1.00  0.00    -0.469 OA
ATOM     14  C   UNL     1      14.866 -10.763  14.304  1.00  0.00     0.282 C 
ENDBRANCH  11  13
ENDBRANCH  10  11
ENDBRANCH   5  10
BRANCH   8  15
ATOM     15  C   UNL     1      12.969 -14.823  19.327  1.00  0.00     0.000 A 
ATOM     16  C   UNL     1      12.874 -15.151  20.687  1.00  0.00     0.010 A 
ATOM     17  C   UNL     1      12.269 -15.580  18.382  1.00  0.00     0.022 A 
ATOM     18  C   UNL     1      12.091 -16.230  21.102  1.00  0.00     0.001 A 
ATOM     19  C   UNL     1      11.484 -16.660  18.804  1.00  0.00     0.017 A 
ATOM     20  C   UNL     1      11.397 -16.988  20.161  1.00  0.00     0.012 A 
BRANCH  19  21
ATOM     21  C   UNL     1      10.744 -17.472  17.804  1.00  0.00     0.122 C 
ATOM     22  N   UNL     1      10.157 -16.940  16.782  1.00  0.00    -0.284 NA
ATOM     23  N   UNL     1      10.669 -18.819  17.939  1.00  0.00    -0.384 N 
ATOM     24  H   UNL     1      10.236 -15.920  16.789  1.00  0.00     0.189 HD
ATOM     25  H   UNL     1      10.167 -19.324  17.220  1.00  0.00     0.158 HD
ATOM     26  H   UNL     1      11.176 -19.342  18.637  1.00  0.00     0.158 HD
ENDBRANCH  19  21
ENDBRANCH   8  15
ENDBRANCH   1   5
BRANCH   3  27
ATOM     27  C   UNL     1      17.790 -13.496  21.326  1.00  0.00     0.229 A 
ATOM     28  N   UNL     1      17.199 -13.901  22.461  1.00  0.00    -0.221 NA
ATOM     29  N   UNL     1      19.098 -13.258  21.209  1.00  0.00    -0.221 NA
ATOM     30  C   UNL     1      18.002 -14.062  23.535  1.00  0.00     0.125 A 
ATOM     31  C   UNL     1      19.859 -13.426  22.312  1.00  0.00     0.125 A 
ATOM     32  C   UNL     1      19.365 -13.831  23.537  1.00  0.00     0.020 A 
BRANCH  32  33
ATOM     33  C   UNL     1      20.200 -14.047  24.718  1.00  0.00     0.005 A 
ATOM     34  C   UNL     1      20.310 -12.992  25.648  1.00  0.00     0.010 A 
ATOM     35  C   UNL     1      20.921 -15.228  24.986  1.00  0.00     0.090 A 
ATOM     36  C   UNL     1      21.101 -13.107  26.794  1.00  0.00     0.001 A 
ATOM     37  C   UNL     1      21.715 -15.341  26.140  1.00  0.00     0.022 A 
ATOM     38  C   UNL     1      21.804 -14.280  27.039  1.00  0.00     0.001 A 
BRANCH  35  39
ATOM     39  S   UNL     1      20.860 -16.634  23.903  1.00  0.00     0.238 S 
ATOM     40  O   UNL     1      19.520 -17.177  23.910  1.00  0.00    -0.207 OA
ATOM     41  O   UNL     1      21.548 -16.305  22.680  1.00  0.00    -0.207 OA
BRANCH  39  42
ATOM     42  N   UNL     1      21.787 -17.784  24.702  1.00  0.00    -0.225 NA
ATOM     43  H   UNL     1      21.172 -18.469  25.143  1.00  0.00     0.137 HD
ATOM     44  H   UNL     1      22.454 -18.202  24.050  1.00  0.00     0.137 HD
ENDBRANCH  39  42
ENDBRANCH  35  39
ENDBRANCH  32  33
ENDBRANCH   3  27
TORSDOF 10
ENDMDL
MODEL 7
REMARK VINA RESULT:    -9.046      2.439      3.484
REMARK INTER + INTRA:         -14.811
REMARK INTER:                 -13.534
REMARK INTRA:                  -1.277
REMARK UNBOUND:                -0.742
REMARK SMILES COC(=O)C[C@]1(C(=O)Nc2ncc(-c3ccccc3S(N)(=O)=O)cn2)CC(c2cccc(C(=N)N)c2)=NO1
REMARK SMILES IDX 7 1 8 2 9 3 6 5 26 6 38 7 27 8 37 9 5 10 3 11 4 12 2 13 1 14
REMARK SMILES IDX 28 15 29 16 36 17 30 18 32 19 31 20 33 21 34 22 35 23 10 27
REMARK SMILES IDX 11 28 25 29 12 30 24 31 13 32 14 33 15 34 19 35 16 36 18 37
REMARK SMILES IDX 17 38 20 39 22 40 23 41 21 42
REMARK H PARENT 9 4 34 24 35 25 35 26 21 43 21 44
ROOT
ATOM      1  C   UNL     1      14.939 -16.171  20.262  1.00  0.00     0.274 C 
ATOM      2  O   UNL     1      14.989 -17.391  20.383  1.00  0.00    -0.270 OA
ATOM      3  N   UNL     1      15.835 -15.267  20.781  1.00  0.00    -0.291 N 
ATOM      4  H   UNL     1      15.743 -14.290  20.526  1.00  0.00     0.173 HD
ENDROOT
BRANCH   1   5
ATOM      5  C   UNL     1      13.769 -15.488  19.514  1.00  0.00     0.231 C 
ATOM      6  C   UNL     1      12.947 -14.605  20.439  1.00  0.00     0.123 C 
ATOM      7  O   UNL     1      14.324 -14.578  18.542  1.00  0.00    -0.378 OA
ATOM      8  C   UNL     1      13.550 -13.281  20.124  1.00  0.00     0.092 C 
ATOM      9  N   UNL     1      14.325 -13.273  19.085  1.00  0.00    -0.089 NA
BRANCH   5  10
ATOM     10  C   UNL     1      12.952 -16.524  18.741  1.00  0.00     0.185 C 
BRANCH  10  11
ATOM     11  C   UNL     1      11.499 -16.542  19.138  1.00  0.00     0.310 C 
ATOM     12  O   UNL     1      10.585 -16.117  18.444  1.00  0.00    -0.252 OA
BRANCH  11  13
ATOM     13  O   UNL     1      11.348 -17.162  20.341  1.00  0.00    -0.469 OA
ATOM     14  C   UNL     1      11.706 -18.544  20.330  1.00  0.00     0.282 C 
ENDBRANCH  11  13
ENDBRANCH  10  11
ENDBRANCH   5  10
BRANCH   8  15
ATOM     15  C   UNL     1      13.273 -12.074  20.937  1.00  0.00     0.000 A 
ATOM     16  C   UNL     1      14.004 -10.904  20.685  1.00  0.00     0.010 A 
ATOM     17  C   UNL     1      12.303 -12.080  21.945  1.00  0.00     0.022 A 
ATOM     18  C   UNL     1      13.775  -9.750  21.436  1.00  0.00     0.001 A 
ATOM     19  C   UNL     1      12.076 -10.919  22.695  1.00  0.00     0.017 A 
ATOM     20  C   UNL     1      12.813  -9.756  22.444  1.00  0.00     0.012 A 
BRANCH  19  21
ATOM     21  C   UNL     1      11.054 -10.921  23.772  1.00  0.00     0.122 C 
ATOM     22  N   UNL     1      10.765  -9.859  24.451  1.00  0.00    -0.284 NA
ATOM     23  N   UNL     1      10.381 -12.059  24.072  1.00  0.00    -0.384 N 
ATOM     24  H   UNL     1      11.351  -9.064  24.178  1.00  0.00     0.189 HD
ATOM     25  H   UNL     1       9.683 -11.998  24.804  1.00  0.00     0.158 HD
ATOM     26  H   UNL     1      10.453 -12.911  23.538  1.00  0.00     0.158 HD
ENDBRANCH  19  21
ENDBRANCH   8  15
ENDBRANCH   1   5
BRANCH   3  27
ATOM     27  C   UNL     1      16.932 -15.546  21.575  1.00  0.00     0.229 A 
ATOM     28  N   UNL     1      16.674 -15.543  22.891  1.00  0.00    -0.221 NA
ATOM     29  N   UNL     1      18.130 -15.810  21.050  1.00  0.00    -0.221 NA
ATOM     30  C   UNL     1      17.712 -15.821  23.711  1.00  0.00     0.125 A 
ATOM     31  C   UNL     1      19.138 -16.073  21.909  1.00  0.00     0.125 A 
ATOM     32  C   UNL     1      18.997 -16.092  23.282  1.00  0.00     0.020 A 
BRANCH  32  33
ATOM     33  C   UNL     1      20.085 -16.415  24.206  1.00  0.00     0.005 A 
ATOM     34  C   UNL     1      20.176 -17.741  24.679  1.00  0.00     0.010 A 
ATOM     35  C   UNL     1      21.040 -15.490  24.674  1.00  0.00     0.090 A 
ATOM     36  C   UNL     1      21.173 -18.130  25.578  1.00  0.00     0.001 A 
ATOM     37  C   UNL     1      22.043 -15.885  25.577  1.00  0.00     0.022 A 
ATOM     38  C   UNL     1      22.105 -17.202  26.027  1.00  0.00     0.001 A 
BRANCH  35  39
ATOM     39  S   UNL     1      21.046 -13.794  24.147  1.00  0.00     0.238 S 
ATOM     40  O   UNL     1      21.459 -13.731  22.763  1.00  0.00    -0.207 OA
ATOM     41  O   UNL     1      19.838 -13.162  24.616  1.00  0.00    -0.207 OA
BRANCH  39  42
ATOM     42  N   UNL     1      22.324 -13.122  25.003  1.00  0.00    -0.225 NA
ATOM     43  H   UNL     1      23.184 -13.220  24.462  1.00  0.00     0.137 HD
ATOM     44  H   UNL     1      22.106 -12.152  25.242  1.00  0.00     0.137 HD
ENDBRANCH  39  42
ENDBRANCH  35  39
ENDBRANCH  32  33
ENDBRANCH   3  27
TORSDOF 10
ENDMDL
MODEL 8
REMARK VINA RESULT:    -8.797      3.633      5.342
REMARK INTER + INTRA:         -14.425
REMARK INTER:                 -12.939
REMARK INTRA:                  -1.486
REMARK UNBOUND:                -0.742
REMARK SMILES COC(=O)C[C@]1(C(=O)Nc2ncc(-c3ccccc3S(N)(=O)=O)cn2)CC(c2cccc(C(=N)N)c2)=NO1
REMARK SMILES IDX 7 1 8 2 9 3 6 5 26 6 38 7 27 8 37 9 5 10 3 11 4 12 2 13 1 14
REMARK SMILES IDX 28 15 29 16 36 17 30 18 32 19 31 20 33 21 34 22 35 23 10 27
REMARK SMILES IDX 11 28 25 29 12 30 24 31 13 32 14 33 15 34 19 35 16 36 18 37
REMARK SMILES IDX 17 38 20 39 22 40 23 41 21 42
REMARK H PARENT 9 4 34 24 35 25 35 26 21 43 21 44
ROOT
ATOM      1  C   UNL     1      15.000 -12.642  20.905  1.00  0.00     0.274 C 
ATOM      2  O   UNL     1      14.680 -11.946  21.863  1.00  0.00    -0.270 OA
ATOM      3  N   UNL     1      16.115 -13.441  20.819  1.00  0.00    -0.291 N 
ATOM      4  H   UNL     1      16.217 -14.050  20.014  1.00  0.00     0.173 HD
ENDROOT
BRANCH   1   5
ATOM      5  C   UNL     1      14.158 -12.652  19.607  1.00  0.00     0.231 C 
ATOM      6  C   UNL     1      14.067 -14.045  19.004  1.00  0.00     0.123 C 
ATOM      7  O   UNL     1      12.797 -12.316  19.948  1.00  0.00    -0.378 OA
ATOM      8  C   UNL     1      12.740 -14.463  19.534  1.00  0.00     0.092 C 
ATOM      9  N   UNL     1      12.048 -13.509  20.071  1.00  0.00    -0.089 NA
BRANCH   5  10
ATOM     10  C   UNL     1      14.654 -11.578  18.638  1.00  0.00     0.185 C 
BRANCH  10  11
ATOM     11  C   UNL     1      15.778 -12.055  17.756  1.00  0.00     0.310 C 
ATOM     12  O   UNL     1      16.913 -12.294  18.147  1.00  0.00    -0.252 OA
BRANCH  11  13
ATOM     13  O   UNL     1      15.328 -12.250  16.486  1.00  0.00    -0.469 OA
ATOM     14  C   UNL     1      16.314 -12.022  15.479  1.00  0.00     0.282 C 
ENDBRANCH  11  13
ENDBRANCH  10  11
ENDBRANCH   5  10
BRANCH   8  15
ATOM     15  C   UNL     1      12.258 -15.861  19.442  1.00  0.00     0.000 A 
ATOM     16  C   UNL     1      11.961 -16.554  20.624  1.00  0.00     0.010 A 
ATOM     17  C   UNL     1      12.096 -16.498  18.207  1.00  0.00     0.022 A 
ATOM     18  C   UNL     1      11.512 -17.875  20.577  1.00  0.00     0.001 A 
ATOM     19  C   UNL     1      11.644 -17.823  18.166  1.00  0.00     0.017 A 
ATOM     20  C   UNL     1      11.355 -18.512  19.348  1.00  0.00     0.012 A 
BRANCH  19  21
ATOM     21  C   UNL     1      11.477 -18.507  16.858  1.00  0.00     0.122 C 
ATOM     22  N   UNL     1      12.420 -18.541  15.973  1.00  0.00    -0.284 NA
ATOM     23  N   UNL     1      10.313 -19.130  16.557  1.00  0.00    -0.384 N 
ATOM     24  H   UNL     1      13.242 -18.011  16.275  1.00  0.00     0.189 HD
ATOM     25  H   UNL     1      10.261 -19.595  15.659  1.00  0.00     0.158 HD
ATOM     26  H   UNL     1       9.556 -19.254  17.213  1.00  0.00     0.158 HD
ENDBRANCH  19  21
ENDBRANCH   8  15
ENDBRANCH   1   5
BRANCH   3  27
ATOM     27  C   UNL     1      17.113 -13.580  21.764  1.00  0.00     0.229 A 
ATOM     28  N   UNL     1      16.760 -14.306  22.836  1.00  0.00    -0.221 NA
ATOM     29  N   UNL     1      18.323 -13.042  21.592  1.00  0.00    -0.221 NA
ATOM     30  C   UNL     1      17.706 -14.480  23.786  1.00  0.00     0.125 A 
ATOM     31  C   UNL     1      19.232 -13.237  22.573  1.00  0.00     0.125 A 
ATOM     32  C   UNL     1      18.984 -13.959  23.724  1.00  0.00     0.020 A 
BRANCH  32  33
ATOM     33  C   UNL     1      19.985 -14.197  24.764  1.00  0.00     0.005 A 
ATOM     34  C   UNL     1      20.140 -13.215  25.765  1.00  0.00     0.010 A 
ATOM     35  C   UNL     1      20.820 -15.331  24.828  1.00  0.00     0.090 A 
ATOM     36  C   UNL     1      21.085 -13.355  26.785  1.00  0.00     0.001 A 
ATOM     37  C   UNL     1      21.768 -15.468  25.856  1.00  0.00     0.022 A 
ATOM     38  C   UNL     1      21.899 -14.480  26.830  1.00  0.00     0.001 A 
BRANCH  35  39
ATOM     39  S   UNL     1      20.716 -16.645  23.639  1.00  0.00     0.238 S 
ATOM     40  O   UNL     1      19.498 -17.389  23.862  1.00  0.00    -0.207 OA
ATOM     41  O   UNL     1      21.069 -16.122  22.342  1.00  0.00    -0.207 OA
BRANCH  39  42
ATOM     42  N   UNL     1      21.945 -17.692  24.104  1.00  0.00    -0.225 NA
ATOM     43  H   UNL     1      22.828 -17.379  23.698  1.00  0.00     0.137 HD
ATOM     44  H   UNL     1      21.971 -17.761  25.123  1.00  0.00     0.137 HD
ENDBRANCH  39  42
ENDBRANCH  35  39
ENDBRANCH  32  33
ENDBRANCH   3  27
TORSDOF 10
ENDMDL
MODEL 9
REMARK VINA RESULT:    -8.699      2.871      4.154
REMARK INTER + INTRA:         -14.272
REMARK INTER:                 -12.967
REMARK INTRA:                  -1.305
REMARK UNBOUND:                -0.742
REMARK SMILES COC(=O)C[C@]1(C(=O)Nc2ncc(-c3ccccc3S(N)(=O)=O)cn2)CC(c2cccc(C(=N)N)c2)=NO1
REMARK SMILES IDX 7 1 8 2 9 3 6 5 26 6 38 7 27 8 37 9 5 10 3 11 4 12 2 13 1 14
REMARK SMILES IDX 28 15 29 16 36 17 30 18 32 19 31 20 33 21 34 22 35 23 10 27
REMARK SMILES IDX 11 28 25 29 12 30 24 31 13 32 14 33 15 34 19 35 16 36 18 37
REMARK SMILES IDX 17 38 20 39 22 40 23 41 21 42
REMARK H PARENT 9 4 34 24 35 25 35 26 21 43 21 44
ROOT
ATOM      1  C   UNL     1      15.178 -16.033  20.852  1.00  0.00     0.274 C 
ATOM      2  O   UNL     1      15.767 -17.097  20.684  1.00  0.00    -0.270 OA
ATOM      3  N   UNL     1      15.553 -15.025  21.708  1.00  0.00    -0.291 N 
ATOM      4  H   UNL     1      15.041 -14.150  21.682  1.00  0.00     0.173 HD
ENDROOT
BRANCH   1   5
ATOM      5  C   UNL     1      13.855 -15.726  20.111  1.00  0.00     0.231 C 
ATOM      6  C   UNL     1      12.956 -14.804  20.920  1.00  0.00     0.123 C 
ATOM      7  O   UNL     1      14.167 -14.974  18.920  1.00  0.00    -0.378 OA
ATOM      8  C   UNL     1      13.289 -13.502  20.279  1.00  0.00     0.092 C 
ATOM      9  N   UNL     1      13.974 -13.598  19.184  1.00  0.00    -0.089 NA
BRANCH   5  10
ATOM     10  C   UNL     1      13.182 -17.022  19.657  1.00  0.00     0.185 C 
BRANCH  10  11
ATOM     11  C   UNL     1      12.076 -17.465  20.579  1.00  0.00     0.310 C 
ATOM     12  O   UNL     1      10.885 -17.275  20.374  1.00  0.00    -0.252 OA
BRANCH  11  13
ATOM     13  O   UNL     1      12.590 -18.164  21.628  1.00  0.00    -0.469 OA
ATOM     14  C   UNL     1      13.132 -19.435  21.269  1.00  0.00     0.282 C 
ENDBRANCH  11  13
ENDBRANCH  10  11
ENDBRANCH   5  10
BRANCH   8  15
ATOM     15  C   UNL     1      12.860 -12.206  20.856  1.00  0.00     0.000 A 
ATOM     16  C   UNL     1      13.168 -11.024  20.168  1.00  0.00     0.010 A 
ATOM     17  C   UNL     1      12.160 -12.141  22.065  1.00  0.00     0.022 A 
ATOM     18  C   UNL     1      12.786  -9.784  20.684  1.00  0.00     0.001 A 
ATOM     19  C   UNL     1      11.777 -10.896  22.577  1.00  0.00     0.017 A 
ATOM     20  C   UNL     1      12.092  -9.718  21.891  1.00  0.00     0.012 A 
BRANCH  19  21
ATOM     21  C   UNL     1      11.040 -10.820  23.865  1.00  0.00     0.122 C 
ATOM     22  N   UNL     1      10.495 -11.859  24.409  1.00  0.00    -0.284 NA
ATOM     23  N   UNL     1      10.923  -9.637  24.516  1.00  0.00    -0.384 N 
ATOM     24  H   UNL     1      10.604 -12.693  23.826  1.00  0.00     0.189 HD
ATOM     25  H   UNL     1      10.425  -9.647  25.397  1.00  0.00     0.158 HD
ATOM     26  H   UNL     1      11.397  -8.792  24.234  1.00  0.00     0.158 HD
ENDBRANCH  19  21
ENDBRANCH   8  15
ENDBRANCH   1   5
BRANCH   3  27
ATOM     27  C   UNL     1      16.628 -15.028  22.577  1.00  0.00     0.229 A 
ATOM     28  N   UNL     1      17.518 -14.050  22.355  1.00  0.00    -0.221 NA
ATOM     29  N   UNL     1      16.736 -15.929  23.556  1.00  0.00    -0.221 NA
ATOM     30  C   UNL     1      18.583 -14.003  23.185  1.00  0.00     0.125 A 
ATOM     31  C   UNL     1      17.822 -15.847  24.355  1.00  0.00     0.125 A 
ATOM     32  C   UNL     1      18.809 -14.890  24.221  1.00  0.00     0.020 A 
BRANCH  32  33
ATOM     33  C   UNL     1      19.963 -14.784  25.113  1.00  0.00     0.005 A 
ATOM     34  C   UNL     1      19.931 -13.793  26.117  1.00  0.00     0.010 A 
ATOM     35  C   UNL     1      21.116 -15.590  25.030  1.00  0.00     0.090 A 
ATOM     36  C   UNL     1      21.000 -13.612  26.999  1.00  0.00     0.001 A 
ATOM     37  C   UNL     1      22.189 -15.406  25.920  1.00  0.00     0.022 A 
ATOM     38  C   UNL     1      22.128 -14.417  26.900  1.00  0.00     0.001 A 
BRANCH  35  39
ATOM     39  S   UNL     1      21.278 -16.881  23.822  1.00  0.00     0.238 S 
ATOM     40  O   UNL     1      20.471 -18.010  24.226  1.00  0.00    -0.207 OA
ATOM     41  O   UNL     1      21.177 -16.298  22.508  1.00  0.00    -0.207 OA
BRANCH  39  42
ATOM     42  N   UNL     1      22.863 -17.402  24.015  1.00  0.00    -0.225 NA
ATOM     43  H   UNL     1      23.303 -17.497  23.099  1.00  0.00     0.137 HD
ATOM     44  H   UNL     1      23.362 -16.764  24.638  1.00  0.00     0.137 HD
ENDBRANCH  39  42
ENDBRANCH  35  39
ENDBRANCH  32  33
ENDBRANCH   3  27
TORSDOF 10
ENDMDL
