MODEL 8
REMARK VINA RESULT:    -8.957      2.516      4.845
REMARK INTER + INTRA:         -18.276
REMARK INTER:                 -14.086
REMARK INTRA:                  -4.190
REMARK UNBOUND:                -1.989
REMARK SMILES Cc1ccc(-c2ccc(O[C@H]3C[C@@H](C(=O)N[C@@H](Cc4ccc(Br)cc4)C(=O)NS(=O)(=O)c4ccc(Cl)c([N+](=O)[O-])c4)N(C(=O)OC(C)(C)C)C3)cc2)cc1
REMARK SMILES IDX 14 1 15 2 16 3 13 5 11 6 12 7 50 8 42 9 10 10 9 11 6 12 7 13
REMARK SMILES IDX 52 14 8 15 51 16 5 17 2 18 3 19 54 20 4 21 53 22 1 23 43 24
REMARK SMILES IDX 44 25 45 26 46 27 47 28 48 29 49 30 17 31 18 32 19 33 20 34
REMARK SMILES IDX 25 35 21 36 24 37 22 38 23 39 26 40 27 41 28 42 29 44 30 45
REMARK SMILES IDX 31 46 32 47 33 48 41 49 34 50 37 51 35 52 36 53 38 54 39 55
REMARK SMILES IDX 40 56
REMARK H PARENT 16 4 28 43
ROOT
ATOM      1  C   UNL     1     -13.584   8.617  22.253  1.00  0.00     0.243 C 
ATOM      2  O   UNL     1     -13.116   9.196  21.280  1.00  0.00    -0.273 OA
ATOM      3  N   UNL     1     -14.934   8.676  22.564  1.00  0.00    -0.342 N 
ATOM      4  H   UNL     1     -15.312   7.920  23.126  1.00  0.00     0.164 HD
ENDROOT
BRANCH   1   5
ATOM      5  C   UNL     1     -12.743   7.831  23.282  1.00  0.00     0.181 C 
ATOM      6  C   UNL     1     -13.308   5.964  24.749  1.00  0.00     0.195 C 
ATOM      7  C   UNL     1     -13.195   6.369  23.272  1.00  0.00     0.082 C 
ATOM      8  C   UNL     1     -13.634   7.283  25.445  1.00  0.00     0.169 C 
ATOM      9  N   UNL     1     -12.967   8.284  24.643  1.00  0.00    -0.292 N 
BRANCH   6  10
ATOM     10  O   UNL     1     -14.358   5.010  24.844  1.00  0.00    -0.488 OA
BRANCH  10  11
ATOM     11  C   UNL     1     -14.143   3.742  24.390  1.00  0.00     0.119 A 
ATOM     12  C   UNL     1     -14.023   1.083  23.427  1.00  0.00    -0.018 A 
ATOM     13  C   UNL     1     -15.254   1.696  23.696  1.00  0.00     0.012 A 
ATOM     14  C   UNL     1     -12.856   1.826  23.662  1.00  0.00     0.012 A 
ATOM     15  C   UNL     1     -15.310   3.010  24.171  1.00  0.00     0.047 A 
ATOM     16  C   UNL     1     -12.912   3.144  24.141  1.00  0.00     0.047 A 
BRANCH  12  17
ATOM     17  C   UNL     1     -13.962  -0.293  22.905  1.00  0.00    -0.018 A 
ATOM     18  C   UNL     1     -13.892  -2.937  21.890  1.00  0.00    -0.051 A 
ATOM     19  C   UNL     1     -13.835  -1.842  21.024  1.00  0.00     0.004 A 
ATOM     20  C   UNL     1     -13.962  -2.707  23.267  1.00  0.00     0.004 A 
ATOM     21  C   UNL     1     -13.871  -0.537  21.526  1.00  0.00     0.009 A 
ATOM     22  C   UNL     1     -14.002  -1.401  23.768  1.00  0.00     0.009 A 
ATOM     23  C   UNL     1     -13.821  -4.334  21.349  1.00  0.00     0.044 C 
ENDBRANCH  12  17
ENDBRANCH  10  11
ENDBRANCH   6  10
BRANCH   9  24
ATOM     24  C   UNL     1     -12.554   9.486  25.147  1.00  0.00     0.411 C 
ATOM     25  O   UNL     1     -13.317  10.318  25.617  1.00  0.00    -0.224 OA
BRANCH  24  26
ATOM     26  O   UNL     1     -11.205   9.622  25.060  1.00  0.00    -0.444 OA
BRANCH  26  27
ATOM     27  C   UNL     1     -10.613  10.734  24.339  1.00  0.00     0.106 C 
ATOM     28  C   UNL     1      -9.625  10.083  23.361  1.00  0.00     0.056 C 
ATOM     29  C   UNL     1      -9.838  11.645  25.292  1.00  0.00     0.056 C 
ATOM     30  C   UNL     1     -11.660  11.509  23.526  1.00  0.00     0.056 C 
ENDBRANCH  26  27
ENDBRANCH  24  26
ENDBRANCH   9  24
ENDBRANCH   1   5
BRANCH   3  31
ATOM     31  C   UNL     1     -15.866   9.356  21.635  1.00  0.00     0.176 C 
BRANCH  31  32
ATOM     32  C   UNL     1     -16.929   8.372  21.118  1.00  0.00     0.070 C 
BRANCH  32  33
ATOM     33  C   UNL     1     -16.374   6.992  20.861  1.00  0.00    -0.045 A 
ATOM     34  C   UNL     1     -16.800   5.907  21.642  1.00  0.00     0.005 A 
ATOM     35  C   UNL     1     -15.417   6.780  19.862  1.00  0.00     0.005 A 
ATOM     36  C   UNL     1     -16.278   4.630  21.424  1.00  0.00     0.016 A 
ATOM     37  C   UNL     1     -14.895   5.503  19.642  1.00  0.00     0.016 A 
ATOM     38  C   UNL     1     -15.329   4.435  20.425  1.00  0.00     0.017 A 
ATOM     39  Br  UNL     1     -14.624   2.707  20.125  1.00  0.00    -0.051 Br
ENDBRANCH  32  33
ENDBRANCH  31  32
BRANCH  31  40
ATOM     40  C   UNL     1     -16.514  10.579  22.317  1.00  0.00     0.256 C 
ATOM     41  O   UNL     1     -16.982  11.530  21.711  1.00  0.00    -0.272 OA
ATOM     42  N   UNL     1     -16.461  10.549  23.720  1.00  0.00    -0.247 N 
ATOM     43  H   UNL     1     -15.953   9.802  24.188  1.00  0.00     0.183 HD
BRANCH  42  44
ATOM     44  S   UNL     1     -17.260  11.576  24.740  1.00  0.00     0.264 S 
ATOM     45  O   UNL     1     -16.841  12.935  24.483  1.00  0.00    -0.201 OA
ATOM     46  O   UNL     1     -18.652  11.194  24.641  1.00  0.00    -0.201 OA
BRANCH  44  47
ATOM     47  C   UNL     1     -16.681  11.087  26.346  1.00  0.00     0.094 A 
ATOM     48  C   UNL     1     -16.083  12.041  27.181  1.00  0.00     0.024 A 
ATOM     49  C   UNL     1     -16.763   9.748  26.740  1.00  0.00     0.109 A 
ATOM     50  C   UNL     1     -15.580  11.660  28.431  1.00  0.00     0.029 A 
ATOM     51  C   UNL     1     -16.267   9.396  28.002  1.00  0.00     0.289 A 
ATOM     52  C   UNL     1     -15.673  10.330  28.854  1.00  0.00     0.118 A 
ATOM     53  Cl  UNL     1     -15.012   9.928  30.395  1.00  0.00    -0.077 Cl
BRANCH  51  54
ATOM     54  N   UNL     1     -16.373   8.015  28.409  1.00  0.00     0.064 N 
ATOM     55  O   UNL     1     -17.456   7.651  28.880  1.00  0.00    -0.258 OA
ATOM     56  O   UNL     1     -15.381   7.301  28.219  1.00  0.00    -0.258 OA
ENDBRANCH  51  54
ENDBRANCH  44  47
ENDBRANCH  42  44
ENDBRANCH  31  40
ENDBRANCH   3  31
TORSDOF 14
ENDMDL
