REMARK VINA RESULT:    -6.786      5.744      9.439
REMARK INTER + INTRA:          -9.623
REMARK INTER:                 -10.290
REMARK INTRA:                   0.667
REMARK UNBOUND:                 0.139
REMARK SMILES Cc1cc(CN2CCN(c3ccc(C(C)C)cc3)C2=O)cc(C)c1OC(C)(C)C(=O)O
REMARK SMILES IDX 1 1 2 2 3 3 4 4 21 5 22 6 23 7 24 8 25 9 26 10 27 11 28 12
REMARK SMILES IDX 29 13 30 14 31 15 5 17 6 18 7 19 19 20 8 21 9 22 20 23 10 24
REMARK SMILES IDX 11 25 18 26 12 27 17 28 13 29 14 30 15 31 16 32
REMARK H PARENT 31 16
ROOT
ATOM      1  C   UNL     1      10.514   6.511 -13.834  1.00  0.00     0.048 C 
ATOM      2  C   UNL     1      10.487   7.113 -12.459  1.00  0.00    -0.008 A 
ATOM      3  C   UNL     1      10.723   6.274 -11.359  1.00  0.00     0.012 A 
ATOM      4  C   UNL     1      10.752   6.779 -10.054  1.00  0.00    -0.028 A 
ATOM      5  C   UNL     1      10.558   8.152  -9.857  1.00  0.00     0.012 A 
ATOM      6  C   UNL     1      10.316   9.013 -10.940  1.00  0.00    -0.008 A 
ATOM      7  C   UNL     1      10.135  10.477 -10.666  1.00  0.00     0.048 C 
ATOM      8  C   UNL     1      10.213   8.471 -12.232  1.00  0.00     0.126 A 
ENDROOT
BRANCH   8   9
ATOM      9  O   UNL     1       9.942   9.305 -13.286  1.00  0.00    -0.476 OA
BRANCH   9  10
ATOM     10  C   UNL     1      11.085   9.921 -13.903  1.00  0.00     0.200 C 
ATOM     11  C   UNL     1      10.817  11.438 -13.883  1.00  0.00     0.069 C 
ATOM     12  C   UNL     1      11.082   9.505 -15.388  1.00  0.00     0.069 C 
BRANCH  10  13
ATOM     13  C   UNL     1      12.507   9.682 -13.330  1.00  0.00     0.347 C 
ATOM     14  O   UNL     1      13.231   8.723 -13.550  1.00  0.00    -0.248 OA
BRANCH  13  15
ATOM     15  O   UNL     1      12.945  10.667 -12.516  1.00  0.00    -0.478 OA
ATOM     16  H   UNL     1      12.334  11.410 -12.701  1.00  0.00     0.296 HD
ENDBRANCH  13  15
ENDBRANCH  10  13
ENDBRANCH   9  10
ENDBRANCH   8   9
BRANCH   4  17
ATOM     17  C   UNL     1      11.019   5.859  -8.889  1.00  0.00     0.157 C 
BRANCH  17  18
ATOM     18  N   UNL     1       9.801   5.428  -8.234  1.00  0.00    -0.318 N 
ATOM     19  C   UNL     1       9.494   4.048  -7.966  1.00  0.00     0.144 C 
ATOM     20  C   UNL     1       8.888   6.294  -7.631  1.00  0.00     0.324 C 
ATOM     21  C   UNL     1       8.121   4.100  -7.319  1.00  0.00     0.149 C 
ATOM     22  N   UNL     1       7.885   5.500  -7.032  1.00  0.00    -0.293 N 
ATOM     23  O   UNL     1       8.995   7.509  -7.647  1.00  0.00    -0.248 OA
BRANCH  22  24
ATOM     24  C   UNL     1       6.758   5.955  -6.297  1.00  0.00     0.045 A 
ATOM     25  C   UNL     1       6.254   7.251  -6.438  1.00  0.00     0.027 A 
ATOM     26  C   UNL     1       6.108   5.107  -5.387  1.00  0.00     0.027 A 
ATOM     27  C   UNL     1       5.145   7.688  -5.699  1.00  0.00     0.006 A 
ATOM     28  C   UNL     1       5.001   5.542  -4.646  1.00  0.00     0.006 A 
ATOM     29  C   UNL     1       4.506   6.841  -4.790  1.00  0.00    -0.045 A 
BRANCH  29  30
ATOM     30  C   UNL     1       3.304   7.291  -3.980  1.00  0.00     0.013 C 
ATOM     31  C   UNL     1       3.651   8.483  -3.085  1.00  0.00     0.012 C 
ATOM     32  C   UNL     1       2.712   6.144  -3.157  1.00  0.00     0.012 C 
ENDBRANCH  29  30
ENDBRANCH  22  24
ENDBRANCH  17  18
ENDBRANCH   4  17
TORSDOF 8
