MODEL 9
REMARK VINA RESULT:    -9.648      5.879      9.098
REMARK INTER + INTRA:         -13.387
REMARK INTER:                 -12.643
REMARK INTRA:                  -0.745
REMARK UNBOUND:                -0.637
REMARK SMILES COc1cc(-c2ccc3c(c2)Nc2ccc(C(=O)NCc4cccc(F)c4)cc2NC3=O)ccc1O
REMARK SMILES IDX 6 1 7 2 8 3 9 4 10 5 11 6 12 7 13 8 14 9 15 10 16 11 28 12
REMARK SMILES IDX 29 13 30 14 31 15 32 16 5 19 3 20 35 21 4 22 34 23 33 24
REMARK SMILES IDX 2 25 1 26 36 27 17 29 18 30 19 31 20 33 21 34 27 35 22 36
REMARK SMILES IDX 25 37 23 38 24 39 26 40
REMARK H PARENT 12 17 30 18 36 28 19 32
ROOT
ATOM      1  C   UNL     1      23.833  32.907  13.961  1.00  0.00    -0.016 A 
ATOM      2  C   UNL     1      23.833  32.991  15.352  1.00  0.00     0.010 A 
ATOM      3  C   UNL     1      22.667  33.299  16.042  1.00  0.00     0.016 A 
ATOM      4  C   UNL     1      21.451  33.539  15.370  1.00  0.00     0.063 A 
ATOM      5  C   UNL     1      21.431  33.441  13.959  1.00  0.00     0.052 A 
ATOM      6  C   UNL     1      22.626  33.135  13.295  1.00  0.00     0.035 A 
ATOM      7  N   UNL     1      20.286  33.597  13.177  1.00  0.00    -0.353 N 
ATOM      8  C   UNL     1      18.929  33.857  13.363  1.00  0.00     0.062 A 
ATOM      9  C   UNL     1      18.068  33.755  12.266  1.00  0.00     0.029 A 
ATOM     10  C   UNL     1      16.703  33.992  12.377  1.00  0.00     0.016 A 
ATOM     11  C   UNL     1      16.145  34.347  13.610  1.00  0.00     0.042 A 
ATOM     12  C   UNL     1      17.008  34.456  14.707  1.00  0.00     0.042 A 
ATOM     13  C   UNL     1      18.389  34.234  14.609  1.00  0.00     0.066 A 
ATOM     14  N   UNL     1      19.128  34.377  15.784  1.00  0.00    -0.320 N 
ATOM     15  C   UNL     1      20.285  33.902  16.283  1.00  0.00     0.257 C 
ATOM     16  O   UNL     1      20.404  33.817  17.507  1.00  0.00    -0.269 OA
ATOM     17  H   UNL     1      20.491  33.430  12.202  1.00  0.00     0.167 HD
ATOM     18  H   UNL     1      18.535  34.675  16.545  1.00  0.00     0.170 HD
ENDROOT
BRANCH   1  19
ATOM     19  C   UNL     1      25.080  32.581  13.210  1.00  0.00    -0.014 A 
ATOM     20  C   UNL     1      27.525  32.611  13.036  1.00  0.00     0.161 A 
ATOM     21  C   UNL     1      27.431  31.962  11.798  1.00  0.00     0.157 A 
ATOM     22  C   UNL     1      26.339  32.914  13.729  1.00  0.00     0.059 A 
ATOM     23  C   UNL     1      26.185  31.627  11.270  1.00  0.00     0.051 A 
ATOM     24  C   UNL     1      25.021  31.933  11.971  1.00  0.00     0.013 A 
BRANCH  20  25
ATOM     25  O   UNL     1      28.792  32.916  13.504  1.00  0.00    -0.493 OA
ATOM     26  C   UNL     1      29.189  34.279  13.615  1.00  0.00     0.278 C 
ENDBRANCH  20  25
BRANCH  21  27
ATOM     27  O   UNL     1      28.559  31.647  11.085  1.00  0.00    -0.504 OA
ATOM     28  H   UNL     1      29.249  31.259  11.627  1.00  0.00     0.293 HD
ENDBRANCH  21  27
ENDBRANCH   1  19
BRANCH  11  29
ATOM     29  C   UNL     1      14.662  34.610  13.779  1.00  0.00     0.251 C 
ATOM     30  O   UNL     1      14.014  34.024  14.650  1.00  0.00    -0.269 OA
ATOM     31  N   UNL     1      14.105  35.511  12.944  1.00  0.00    -0.348 N 
ATOM     32  H   UNL     1      14.687  35.928  12.233  1.00  0.00     0.164 HD
BRANCH  31  33
ATOM     33  C   UNL     1      12.687  35.871  12.906  1.00  0.00     0.152 C 
BRANCH  33  34
ATOM     34  C   UNL     1      12.357  36.985  11.919  1.00  0.00    -0.026 A 
ATOM     35  C   UNL     1      13.138  37.163  10.771  1.00  0.00     0.044 A 
ATOM     36  C   UNL     1      11.310  37.877  12.184  1.00  0.00     0.006 A 
ATOM     37  C   UNL     1      12.856  38.201   9.882  1.00  0.00     0.123 A 
ATOM     38  C   UNL     1      11.028  38.914  11.293  1.00  0.00     0.003 A 
ATOM     39  C   UNL     1      11.799  39.074  10.142  1.00  0.00     0.039 A 
ATOM     40  F   UNL     1      13.608  38.363   8.772  1.00  0.00    -0.207 F 
ENDBRANCH  33  34
ENDBRANCH  31  33
ENDBRANCH  11  29
TORSDOF 6
ENDMDL
