REMARK SMILES N#CCC1(n2ccc(-c3nc(-c4cn[nH]n4)cc4ncccc34)n2)CN(CC(F)(F)F)C1
REMARK SMILES IDX 5 1 6 2 7 3 8 4 24 5 4 6 25 7 32 8 26 9 3 10 1 11 2 12 27 13
REMARK SMILES IDX 28 14 29 15 30 16 31 17 9 18 10 19 23 20 11 21 22 22 18 23
REMARK SMILES IDX 17 24 21 25 19 26 20 27 12 28 13 29 16 30 14 31 15 32
REMARK H PARENT 15 33
REMARK INDEX MAP 5 1 6 2 7 3 8 4 24 5 4 6 25 7 32 8 26 9 3 10 1 11 2 12 27 13
REMARK INDEX MAP 28 14 29 15 30 16 31 17 9 18 10 19 23 20 11 21 22 22 18 23
REMARK INDEX MAP 17 24 21 25 19 26 20 27 12 28 13 29 16 30 14 31 15 32 38 33
ROOT
ATOM      1  N   UNL     1      -2.134  25.697 -26.834  1.00  0.00    -0.262 N 
ATOM      2  C   UNL     1      -2.932  26.788 -26.654  1.00  0.00     0.110 A 
ATOM      3  C   UNL     1      -3.746  26.842 -27.759  1.00  0.00     0.052 A 
ATOM      4  C   UNL     1      -3.395  25.716 -28.556  1.00  0.00     0.111 A 
ATOM      5  N   UNL     1      -2.437  24.996 -27.944  1.00  0.00    -0.171 NA
ENDROOT
BRANCH   1   6
ATOM      6  C   UNL     1      -1.161  25.160 -25.840  1.00  0.00     0.101 C 
ATOM      7  C   UNL     1       0.034  24.454 -26.547  1.00  0.00     0.118 C 
ATOM      8  C   UNL     1      -0.078  26.177 -25.374  1.00  0.00     0.118 C 
ATOM      9  N   UNL     1       0.764  25.742 -26.508  1.00  0.00    -0.290 NA
BRANCH   6  10
ATOM     10  C   UNL     1      -1.866  24.329 -24.777  1.00  0.00     0.153 C 
ATOM     11  N   UNL     1      -1.194  21.798 -24.989  1.00  0.00    -0.198 NA
ATOM     12  C   UNL     1      -1.488  22.914 -24.870  1.00  0.00     0.065 C 
ENDBRANCH   6  10
BRANCH   9  13
ATOM     13  C   UNL     1       2.172  25.553 -26.088  1.00  0.00     0.200 C 
BRANCH  13  14
ATOM     14  C   UNL     1       3.214  26.385 -26.856  1.00  0.00     0.401 C 
ATOM     15  F   UNL     1       3.614  27.470 -26.161  1.00  0.00    -0.170 F 
ATOM     16  F   UNL     1       2.731  26.802 -28.049  1.00  0.00    -0.170 F 
ATOM     17  F   UNL     1       4.313  25.635 -27.110  1.00  0.00    -0.170 F 
ENDBRANCH  13  14
ENDBRANCH   9  13
ENDBRANCH   1   6
BRANCH   4  18
ATOM     18  C   UNL     1      -4.022  25.323 -29.829  1.00  0.00     0.101 A 
ATOM     19  N   UNL     1      -4.008  23.979 -30.037  1.00  0.00    -0.243 NA
ATOM     20  C   UNL     1      -4.586  26.245 -30.741  1.00  0.00     0.028 A 
ATOM     21  C   UNL     1      -4.532  23.518 -31.192  1.00  0.00     0.095 A 
ATOM     22  C   UNL     1      -4.688  27.650 -30.575  1.00  0.00     0.014 A 
ATOM     23  C   UNL     1      -5.120  25.716 -31.929  1.00  0.00     0.075 A 
ATOM     24  C   UNL     1      -5.084  24.354 -32.147  1.00  0.00     0.059 A 
ATOM     25  C   UNL     1      -5.272  28.442 -31.556  1.00  0.00     0.021 A 
ATOM     26  N   UNL     1      -5.683  26.481 -32.882  1.00  0.00    -0.256 NA
ATOM     27  C   UNL     1      -5.748  27.815 -32.685  1.00  0.00     0.112 A 
BRANCH  21  28
ATOM     28  C   UNL     1      -4.484  22.071 -31.384  1.00  0.00     0.131 A 
ATOM     29  C   UNL     1      -3.888  21.103 -30.541  1.00  0.00     0.167 A 
ATOM     30  N   UNL     1      -5.027  21.428 -32.437  1.00  0.00    -0.154 NA
ATOM     31  N   UNL     1      -4.049  19.876 -31.044  1.00  0.00    -0.164 NA
ATOM     32  N   UNL     1      -4.730  20.147 -32.166  1.00  0.00    -0.197 N 
ATOM     33  H   UNL     1      -5.018  19.392 -32.804  1.00  0.00     0.214 HD
ENDBRANCH  21  28
ENDBRANCH   4  18
TORSDOF 6
