REMARK VINA RESULT:    -7.797      2.324      3.059
REMARK INTER + INTRA:         -13.612
REMARK INTER:                 -12.177
REMARK INTRA:                  -1.434
REMARK UNBOUND:                -1.029
REMARK SMILES CCC(CC)n1cc(-c2nc(-c3cnn(C[C@H](O)CN4CC(OC)C4)c3)cn3nccc23)cn1
REMARK SMILES IDX 12 1 13 2 14 3 15 4 26 5 11 6 9 7 10 8 32 9 31 10 28 11
REMARK SMILES IDX 27 12 30 13 29 14 8 15 6 16 7 17 34 18 33 19 3 20 2 21 1 22
REMARK SMILES IDX 4 23 5 24 16 25 17 26 18 27 19 29 20 30 21 31 25 32 22 33
REMARK SMILES IDX 23 34 24 35
REMARK H PARENT 18 28
ROOT
ATOM      1  C   UNL     1      -4.768  27.156 -31.017  1.00  0.00     0.040 A 
ATOM      2  C   UNL     1      -5.561  27.584 -32.104  1.00  0.00     0.145 A 
ATOM      3  N   UNL     1      -5.671  28.915 -32.166  1.00  0.00    -0.181 NA
ATOM      4  N   UNL     1      -4.915  29.342 -31.140  1.00  0.00    -0.269 N 
ATOM      5  C   UNL     1      -4.371  28.327 -30.405  1.00  0.00     0.119 A 
ENDROOT
BRANCH   1   6
ATOM      6  C   UNL     1      -4.434  25.816 -30.639  1.00  0.00     0.092 A 
ATOM      7  C   UNL     1      -3.390  24.544 -29.009  1.00  0.00     0.100 A 
ATOM      8  N   UNL     1      -3.733  25.723 -29.448  1.00  0.00    -0.244 NA
ATOM      9  C   UNL     1      -3.732  23.335 -29.713  1.00  0.00     0.093 A 
ATOM     10  C   UNL     1      -3.606  21.982 -29.494  1.00  0.00     0.052 A 
ATOM     11  N   UNL     1      -4.408  23.477 -30.909  1.00  0.00    -0.237 N 
ATOM     12  C   UNL     1      -4.761  24.733 -31.365  1.00  0.00     0.142 A 
ATOM     13  C   UNL     1      -4.182  21.383 -30.626  1.00  0.00     0.136 A 
ATOM     14  N   UNL     1      -4.656  22.279 -31.491  1.00  0.00    -0.176 NA
BRANCH   7  15
ATOM     15  C   UNL     1      -2.651  24.501 -27.762  1.00  0.00     0.040 A 
ATOM     16  N   UNL     1      -1.192  24.146 -26.139  1.00  0.00    -0.269 N 
ATOM     17  C   UNL     1      -1.458  23.874 -27.455  1.00  0.00     0.119 A 
ATOM     18  N   UNL     1      -2.121  24.932 -25.568  1.00  0.00    -0.181 NA
ATOM     19  C   UNL     1      -2.990  25.161 -26.554  1.00  0.00     0.145 A 
BRANCH  16  20
ATOM     20  C   UNL     1      -0.061  23.677 -25.342  1.00  0.00     0.107 C 
BRANCH  20  21
ATOM     21  C   UNL     1       0.843  24.843 -24.888  1.00  0.00     0.024 C 
ATOM     22  C   UNL     1       2.075  25.019 -25.768  1.00  0.00     0.006 C 
ENDBRANCH  20  21
BRANCH  20  23
ATOM     23  C   UNL     1      -0.517  22.843 -24.128  1.00  0.00     0.024 C 
ATOM     24  C   UNL     1       0.643  22.359 -23.267  1.00  0.00     0.006 C 
ENDBRANCH  20  23
ENDBRANCH  16  20
ENDBRANCH   7  15
ENDBRANCH   1   6
BRANCH   4  25
ATOM     25  C   UNL     1      -4.745  30.761 -30.914  1.00  0.00     0.177 C 
BRANCH  25  26
ATOM     26  C   UNL     1      -4.561  31.138 -29.444  1.00  0.00     0.150 C 
BRANCH  26  27
ATOM     27  O   UNL     1      -5.662  31.982 -29.056  1.00  0.00    -0.390 OA
ATOM     28  H   UNL     1      -5.853  31.727 -28.131  1.00  0.00     0.211 HD
ENDBRANCH  26  27
BRANCH  26  29
ATOM     29  C   UNL     1      -3.243  31.900 -29.185  1.00  0.00     0.118 C 
BRANCH  29  30
ATOM     30  N   UNL     1      -2.224  30.970 -28.658  1.00  0.00    -0.295 NA
ATOM     31  C   UNL     1      -1.065  31.720 -28.092  1.00  0.00     0.118 C 
ATOM     32  C   UNL     1      -2.573  30.558 -27.270  1.00  0.00     0.118 C 
ATOM     33  C   UNL     1      -1.077  30.729 -26.900  1.00  0.00     0.145 C 
BRANCH  33  34
ATOM     34  O   UNL     1      -0.776  31.288 -25.601  1.00  0.00    -0.379 OA
ATOM     35  C   UNL     1       0.449  30.860 -25.021  1.00  0.00     0.195 C 
ENDBRANCH  33  34
ENDBRANCH  29  30
ENDBRANCH  26  29
ENDBRANCH  25  26
ENDBRANCH   4  25
TORSDOF 11
