REMARK VINA RESULT:    -8.614      2.652      4.116
REMARK INTER + INTRA:         -14.931
REMARK INTER:                 -13.978
REMARK INTRA:                  -0.952
REMARK UNBOUND:                -1.029
REMARK SMILES CCC(CC)n1cc(-c2nc(-c3cnn(C[C@H](O)CN4CC(OC)C4)c3)cn3nccc23)cn1
REMARK SMILES IDX 12 1 13 2 14 3 15 4 26 5 11 6 9 7 10 8 32 9 31 10 28 11
REMARK SMILES IDX 27 12 30 13 29 14 8 15 6 16 7 17 34 18 33 19 3 20 2 21 1 22
REMARK SMILES IDX 4 23 5 24 16 25 17 26 18 27 19 29 20 30 21 31 25 32 22 33
REMARK SMILES IDX 23 34 24 35
REMARK H PARENT 18 28
ROOT
ATOM      1  C   UNL     1      -4.590  29.510 -30.732  1.00  0.00     0.040 A 
ATOM      2  C   UNL     1      -4.949  30.840 -31.042  1.00  0.00     0.145 A 
ATOM      3  N   UNL     1      -4.407  31.728 -30.201  1.00  0.00    -0.181 NA
ATOM      4  N   UNL     1      -3.666  30.967 -29.376  1.00  0.00    -0.269 N 
ATOM      5  C   UNL     1      -3.761  29.630 -29.636  1.00  0.00     0.119 A 
ENDROOT
BRANCH   1   6
ATOM      6  C   UNL     1      -4.979  28.308 -31.406  1.00  0.00     0.092 A 
ATOM      7  C   UNL     1      -4.758  26.003 -31.383  1.00  0.00     0.100 A 
ATOM      8  N   UNL     1      -4.455  27.153 -30.850  1.00  0.00    -0.244 NA
ATOM      9  C   UNL     1      -5.634  25.893 -32.522  1.00  0.00     0.093 A 
ATOM     10  C   UNL     1      -6.205  24.873 -33.248  1.00  0.00     0.052 A 
ATOM     11  N   UNL     1      -6.112  27.073 -33.059  1.00  0.00    -0.237 N 
ATOM     12  C   UNL     1      -5.778  28.285 -32.486  1.00  0.00     0.142 A 
ATOM     13  C   UNL     1      -6.966  25.521 -34.234  1.00  0.00     0.136 A 
ATOM     14  N   UNL     1      -6.904  26.849 -34.136  1.00  0.00    -0.176 NA
BRANCH   7  15
ATOM     15  C   UNL     1      -4.178  24.825 -30.769  1.00  0.00     0.040 A 
ATOM     16  N   UNL     1      -3.674  22.783 -30.089  1.00  0.00    -0.269 N 
ATOM     17  C   UNL     1      -4.552  23.498 -30.859  1.00  0.00     0.119 A 
ATOM     18  N   UNL     1      -2.731  23.551 -29.517  1.00  0.00    -0.181 NA
ATOM     19  C   UNL     1      -3.026  24.781 -29.944  1.00  0.00     0.145 A 
BRANCH  16  20
ATOM     20  C   UNL     1      -3.675  21.343 -29.837  1.00  0.00     0.107 C 
BRANCH  20  21
ATOM     21  C   UNL     1      -3.866  21.023 -28.339  1.00  0.00     0.024 C 
ATOM     22  C   UNL     1      -5.301  21.225 -27.866  1.00  0.00     0.006 C 
ENDBRANCH  20  21
BRANCH  20  23
ATOM     23  C   UNL     1      -4.734  20.610 -30.684  1.00  0.00     0.024 C 
ATOM     24  C   UNL     1      -4.300  20.398 -32.129  1.00  0.00     0.006 C 
ENDBRANCH  20  23
ENDBRANCH  16  20
ENDBRANCH   7  15
ENDBRANCH   1   6
BRANCH   4  25
ATOM     25  C   UNL     1      -2.872  31.594 -28.341  1.00  0.00     0.177 C 
BRANCH  25  26
ATOM     26  C   UNL     1      -3.123  33.094 -28.189  1.00  0.00     0.150 C 
BRANCH  26  27
ATOM     27  O   UNL     1      -2.431  33.774 -29.253  1.00  0.00    -0.390 OA
ATOM     28  H   UNL     1      -1.907  34.467 -28.802  1.00  0.00     0.211 HD
ENDBRANCH  26  27
BRANCH  26  29
ATOM     29  C   UNL     1      -2.616  33.648 -26.839  1.00  0.00     0.118 C 
BRANCH  29  30
ATOM     30  N   UNL     1      -3.725  34.307 -26.121  1.00  0.00    -0.295 NA
ATOM     31  C   UNL     1      -4.594  35.063 -27.069  1.00  0.00     0.118 C 
ATOM     32  C   UNL     1      -4.850  33.351 -25.928  1.00  0.00     0.118 C 
ATOM     33  C   UNL     1      -5.820  34.499 -26.307  1.00  0.00     0.145 C 
BRANCH  33  34
ATOM     34  O   UNL     1      -6.971  34.156 -27.112  1.00  0.00    -0.379 OA
ATOM     35  C   UNL     1      -8.214  34.665 -26.650  1.00  0.00     0.195 C 
ENDBRANCH  33  34
ENDBRANCH  29  30
ENDBRANCH  26  29
ENDBRANCH  25  26
ENDBRANCH   4  25
TORSDOF 11
