MODEL 3
REMARK VINA RESULT:    -8.024      1.442      1.810
REMARK INTER + INTRA:          -9.408
REMARK INTER:                  -9.017
REMARK INTRA:                  -0.390
REMARK UNBOUND:                -0.212
REMARK SMILES CC1(C)OCCn2c1nc1c(N3CCOCC3)nc(-c3cnc(N)nc3)nc12
REMARK SMILES IDX 20 1 21 2 22 3 23 4 25 5 26 6 19 7 2 8 4 9 8 10 5 11 7 12
REMARK SMILES IDX 9 13 6 14 28 15 10 16 27 17 11 18 18 19 1 20 3 21 12 22
REMARK SMILES IDX 13 23 17 24 14 25 16 26 15 27 24 28
REMARK H PARENT 24 29 24 30
ROOT
ATOM      1  C   UNL     1      -3.913 -10.443  21.372  1.00  0.00     0.056 A 
ATOM      2  C   UNL     1      -4.982 -11.245  21.022  1.00  0.00     0.128 A 
ATOM      3  N   UNL     1      -5.678 -12.028  21.883  1.00  0.00    -0.221 NA
ATOM      4  C   UNL     1      -5.272 -12.021  23.154  1.00  0.00     0.219 A 
ATOM      5  N   UNL     1      -4.267 -11.279  23.623  1.00  0.00    -0.221 NA
ATOM      6  C   UNL     1      -3.608 -10.516  22.719  1.00  0.00     0.128 A 
ENDROOT
BRANCH   1   7
ATOM      7  C   UNL     1      -3.186  -9.606  20.422  1.00  0.00     0.167 A 
ATOM      8  C   UNL     1      -0.026  -4.976  18.679  1.00  0.00     0.120 C 
ATOM      9  O   UNL     1       0.306  -4.406  19.969  1.00  0.00    -0.366 OA
ATOM     10  C   UNL     1      -0.802  -6.258  18.860  1.00  0.00     0.143 A 
ATOM     11  C   UNL     1      -0.751  -4.442  20.932  1.00  0.00     0.183 C 
ATOM     12  N   UNL     1      -1.285  -6.639  20.086  1.00  0.00    -0.308 N 
ATOM     13  N   UNL     1      -1.154  -7.133  17.934  1.00  0.00    -0.224 NA
ATOM     14  C   UNL     1      -1.066  -5.883  21.297  1.00  0.00     0.154 C 
ATOM     15  C   UNL     1      -1.968  -7.808  19.944  1.00  0.00     0.166 A 
ATOM     16  C   UNL     1      -1.867  -8.122  18.597  1.00  0.00     0.151 A 
ATOM     17  N   UNL     1      -2.600  -8.494  20.906  1.00  0.00    -0.208 NA
ATOM     18  C   UNL     1      -2.506  -9.310  18.169  1.00  0.00     0.161 A 
ATOM     19  N   UNL     1      -3.174 -10.019  19.132  1.00  0.00    -0.208 NA
ATOM     20  C   UNL     1      -0.831  -3.964  17.858  1.00  0.00     0.051 C 
ATOM     21  C   UNL     1       1.308  -5.262  17.985  1.00  0.00     0.051 C 
BRANCH  18  22
ATOM     22  N   UNL     1      -2.524  -9.831  16.869  1.00  0.00    -0.350 N 
ATOM     23  C   UNL     1      -3.385 -10.983  16.553  1.00  0.00     0.146 C 
ATOM     24  C   UNL     1      -1.168  -9.904  16.284  1.00  0.00     0.146 C 
ATOM     25  C   UNL     1      -2.556 -12.273  16.561  1.00  0.00     0.181 C 
ATOM     26  C   UNL     1      -1.110 -10.951  15.161  1.00  0.00     0.181 C 
ATOM     27  O   UNL     1      -1.480 -12.269  15.603  1.00  0.00    -0.378 OA
ENDBRANCH  18  22
ENDBRANCH   1   7
BRANCH   4  28
ATOM     28  N   UNL     1      -5.969 -12.796  24.053  1.00  0.00    -0.368 N 
ATOM     29  H   UNL     1      -6.544 -12.206  24.637  1.00  0.00     0.159 HD
ATOM     30  H   UNL     1      -5.339 -13.437  24.513  1.00  0.00     0.159 HD
ENDBRANCH   4  28
TORSDOF 3
ENDMDL
