MODEL 1
REMARK VINA RESULT:   -10.157      0.000      0.000
REMARK INTER + INTRA:         -14.457
REMARK INTER:                 -13.719
REMARK INTRA:                  -0.737
REMARK UNBOUND:                -0.737
REMARK SMILES Fc1ccc(C[n+]2ccc(CCNc3nc4ccc(F)cc4s3)cc2)cc1
REMARK SMILES IDX 11 1 10 2 7 3 8 4 25 5 9 6 24 7 6 8 5 9 2 10 3 11 27 12 4 13
REMARK SMILES IDX 26 14 1 15 12 16 13 17 14 19 15 20 23 21 16 22 22 23 17 24
REMARK SMILES IDX 21 25 18 26 19 27 20 28
REMARK H PARENT 13 18
ROOT
ATOM      1  C   UNL     1     135.684 110.850  42.080  1.00  0.00     0.057 C 
ENDROOT
BRANCH   1   2
ATOM      2  C   UNL     1     134.814 112.087  42.117  1.00  0.00    -0.034 A 
ATOM      3  N   UNL     1     133.313 114.419  42.119  1.00  0.00    -0.201 N 
ATOM      4  C   UNL     1     133.125 113.500  41.144  1.00  0.00     0.308 A 
ATOM      5  C   UNL     1     134.228 114.209  43.093  1.00  0.00     0.308 A 
ATOM      6  C   UNL     1     133.860 112.320  41.128  1.00  0.00     0.074 A 
ATOM      7  C   UNL     1     134.991 113.049  43.112  1.00  0.00     0.074 A 
BRANCH   3   8
ATOM      8  C   UNL     1     132.497 115.656  42.129  1.00  0.00     0.393 C 
BRANCH   8   9
ATOM      9  C   UNL     1     133.072 116.704  41.210  1.00  0.00     0.017 A 
ATOM     10  C   UNL     1     134.164 118.652  39.527  1.00  0.00     0.123 A 
ATOM     11  C   UNL     1     134.040 117.344  39.073  1.00  0.00     0.040 A 
ATOM     12  C   UNL     1     133.756 119.003  40.807  1.00  0.00     0.040 A 
ATOM     13  C   UNL     1     133.492 116.370  39.910  1.00  0.00     0.013 A 
ATOM     14  C   UNL     1     133.213 118.033  41.651  1.00  0.00     0.013 A 
ATOM     15  F   UNL     1     134.679 119.585  38.719  1.00  0.00    -0.207 F 
ENDBRANCH   8   9
ENDBRANCH   3   8
ENDBRANCH   1   2
BRANCH   1  16
ATOM     16  C   UNL     1     137.173 111.138  41.834  1.00  0.00     0.120 C 
BRANCH  16  17
ATOM     17  N   UNL     1     137.360 112.137  40.798  1.00  0.00    -0.361 N 
ATOM     18  H   UNL     1     136.733 112.114  40.002  1.00  0.00     0.162 HD
BRANCH  17  19
ATOM     19  C   UNL     1     138.193 113.186  40.968  1.00  0.00     0.183 A 
ATOM     20  N   UNL     1     139.487 113.100  41.173  1.00  0.00    -0.220 NA
ATOM     21  S   UNL     1     137.572 114.788  40.898  1.00  0.00    -0.097 S 
ATOM     22  C   UNL     1     140.026 114.357  41.386  1.00  0.00     0.084 A 
ATOM     23  C   UNL     1     139.128 115.419  41.260  1.00  0.00     0.059 A 
ATOM     24  C   UNL     1     141.371 114.635  41.708  1.00  0.00     0.033 A 
ATOM     25  C   UNL     1     139.527 116.754  41.430  1.00  0.00     0.060 A 
ATOM     26  C   UNL     1     141.778 115.961  41.892  1.00  0.00     0.041 A 
ATOM     27  C   UNL     1     140.862 116.993  41.748  1.00  0.00     0.124 A 
ATOM     28  F   UNL     1     141.273 118.258  41.912  1.00  0.00    -0.207 F 
ENDBRANCH  17  19
ENDBRANCH  16  17
ENDBRANCH   1  16
TORSDOF 6
ENDMDL
MODEL 2
REMARK VINA RESULT:    -9.566      3.390      5.016
REMARK INTER + INTRA:         -13.659
REMARK INTER:                 -12.475
REMARK INTRA:                  -1.184
REMARK UNBOUND:                -0.737
REMARK SMILES Fc1ccc(C[n+]2ccc(CCNc3nc4ccc(F)cc4s3)cc2)cc1
REMARK SMILES IDX 11 1 10 2 7 3 8 4 25 5 9 6 24 7 6 8 5 9 2 10 3 11 27 12 4 13
REMARK SMILES IDX 26 14 1 15 12 16 13 17 14 19 15 20 23 21 16 22 22 23 17 24
REMARK SMILES IDX 21 25 18 26 19 27 20 28
REMARK H PARENT 13 18
ROOT
ATOM      1  C   UNL     1     135.733 111.051  42.329  1.00  0.00     0.057 C 
ENDROOT
BRANCH   1   2
ATOM      2  C   UNL     1     134.879 112.299  42.376  1.00  0.00    -0.034 A 
ATOM      3  N   UNL     1     133.377 114.630  42.358  1.00  0.00    -0.201 N 
ATOM      4  C   UNL     1     132.907 113.524  41.737  1.00  0.00     0.308 A 
ATOM      5  C   UNL     1     134.573 114.608  42.989  1.00  0.00     0.308 A 
ATOM      6  C   UNL     1     133.639 112.342  41.740  1.00  0.00     0.074 A 
ATOM      7  C   UNL     1     135.343 113.452  43.011  1.00  0.00     0.074 A 
BRANCH   3   8
ATOM      8  C   UNL     1     132.565 115.869  42.363  1.00  0.00     0.393 C 
BRANCH   8   9
ATOM      9  C   UNL     1     133.107 116.889  41.394  1.00  0.00     0.017 A 
ATOM     10  C   UNL     1     134.088 118.773  39.575  1.00  0.00     0.123 A 
ATOM     11  C   UNL     1     133.647 119.190  40.825  1.00  0.00     0.040 A 
ATOM     12  C   UNL     1     134.044 117.432  39.216  1.00  0.00     0.040 A 
ATOM     13  C   UNL     1     133.160 118.251  41.737  1.00  0.00     0.013 A 
ATOM     14  C   UNL     1     133.552 116.490  40.120  1.00  0.00     0.013 A 
ATOM     15  F   UNL     1     134.564 119.673  38.708  1.00  0.00    -0.207 F 
ENDBRANCH   8   9
ENDBRANCH   3   8
ENDBRANCH   1   2
BRANCH   1  16
ATOM     16  C   UNL     1     136.992 111.186  41.458  1.00  0.00     0.120 C 
BRANCH  16  17
ATOM     17  N   UNL     1     136.822 110.540  40.169  1.00  0.00    -0.361 N 
ATOM     18  H   UNL     1     137.073 109.561  40.096  1.00  0.00     0.162 HD
BRANCH  17  19
ATOM     19  C   UNL     1     136.167 111.144  39.155  1.00  0.00     0.183 A 
ATOM     20  N   UNL     1     135.880 112.424  39.095  1.00  0.00    -0.220 NA
ATOM     21  S   UNL     1     135.663 110.221  37.795  1.00  0.00    -0.097 S 
ATOM     22  C   UNL     1     135.134 112.698  37.962  1.00  0.00     0.084 A 
ATOM     23  C   UNL     1     134.922 111.611  37.110  1.00  0.00     0.059 A 
ATOM     24  C   UNL     1     134.590 113.953  37.614  1.00  0.00     0.033 A 
ATOM     25  C   UNL     1     134.200 111.734  35.914  1.00  0.00     0.060 A 
ATOM     26  C   UNL     1     133.858 114.084  36.429  1.00  0.00     0.041 A 
ATOM     27  C   UNL     1     133.677 112.987  35.601  1.00  0.00     0.124 A 
ATOM     28  F   UNL     1     132.986 113.135  34.463  1.00  0.00    -0.207 F 
ENDBRANCH  17  19
ENDBRANCH  16  17
ENDBRANCH   1  16
TORSDOF 6
ENDMDL
MODEL 3
REMARK VINA RESULT:    -9.513      2.526      6.842
REMARK INTER + INTRA:         -13.587
REMARK INTER:                 -12.864
REMARK INTRA:                  -0.723
REMARK UNBOUND:                -0.737
REMARK SMILES Fc1ccc(C[n+]2ccc(CCNc3nc4ccc(F)cc4s3)cc2)cc1
REMARK SMILES IDX 11 1 10 2 7 3 8 4 25 5 9 6 24 7 6 8 5 9 2 10 3 11 27 12 4 13
REMARK SMILES IDX 26 14 1 15 12 16 13 17 14 19 15 20 23 21 16 22 22 23 17 24
REMARK SMILES IDX 21 25 18 26 19 27 20 28
REMARK H PARENT 13 18
ROOT
ATOM      1  C   UNL     1     136.218 111.747  37.224  1.00  0.00     0.057 C 
ENDROOT
BRANCH   1   2
ATOM      2  C   UNL     1     137.397 112.062  38.118  1.00  0.00    -0.034 A 
ATOM      3  N   UNL     1     139.607 112.522  39.728  1.00  0.00    -0.201 N 
ATOM      4  C   UNL     1     139.614 112.944  38.443  1.00  0.00     0.308 A 
ATOM      5  C   UNL     1     138.531 111.878  40.234  1.00  0.00     0.308 A 
ATOM      6  C   UNL     1     138.514 112.732  37.620  1.00  0.00     0.074 A 
ATOM      7  C   UNL     1     137.413 111.636  39.446  1.00  0.00     0.074 A 
BRANCH   3   8
ATOM      8  C   UNL     1     140.782 112.786  40.592  1.00  0.00     0.393 C 
BRANCH   8   9
ATOM      9  C   UNL     1     140.803 114.214  41.075  1.00  0.00     0.017 A 
ATOM     10  C   UNL     1     140.859 116.871  41.944  1.00  0.00     0.123 A 
ATOM     11  C   UNL     1     139.641 116.272  41.647  1.00  0.00     0.040 A 
ATOM     12  C   UNL     1     142.049 116.169  41.811  1.00  0.00     0.040 A 
ATOM     13  C   UNL     1     139.609 114.944  41.216  1.00  0.00     0.013 A 
ATOM     14  C   UNL     1     142.025 114.844  41.375  1.00  0.00     0.013 A 
ATOM     15  F   UNL     1     140.885 118.140  42.366  1.00  0.00    -0.207 F 
ENDBRANCH   8   9
ENDBRANCH   3   8
ENDBRANCH   1   2
BRANCH   1  16
ATOM     16  C   UNL     1     134.883 112.323  37.721  1.00  0.00     0.120 C 
BRANCH  16  17
ATOM     17  N   UNL     1     134.523 113.533  37.005  1.00  0.00    -0.361 N 
ATOM     18  H   UNL     1     134.272 113.445  36.027  1.00  0.00     0.162 HD
BRANCH  17  19
ATOM     19  C   UNL     1     134.326 114.703  37.647  1.00  0.00     0.183 A 
ATOM     20  N   UNL     1     134.484 115.894  37.118  1.00  0.00    -0.220 NA
ATOM     21  S   UNL     1     133.802 114.699  39.285  1.00  0.00    -0.097 S 
ATOM     22  C   UNL     1     134.279 116.877  38.070  1.00  0.00     0.084 A 
ATOM     23  C   UNL     1     133.879 116.415  39.326  1.00  0.00     0.059 A 
ATOM     24  C   UNL     1     134.436 118.265  37.873  1.00  0.00     0.033 A 
ATOM     25  C   UNL     1     133.616 117.290  40.392  1.00  0.00     0.060 A 
ATOM     26  C   UNL     1     134.188 119.147  38.930  1.00  0.00     0.041 A 
ATOM     27  C   UNL     1     133.781 118.654  40.162  1.00  0.00     0.124 A 
ATOM     28  F   UNL     1     133.533 119.514  41.159  1.00  0.00    -0.207 F 
ENDBRANCH  17  19
ENDBRANCH  16  17
ENDBRANCH   1  16
TORSDOF 6
ENDMDL
MODEL 4
REMARK VINA RESULT:    -9.435      1.373      6.432
REMARK INTER + INTRA:         -13.483
REMARK INTER:                 -12.604
REMARK INTRA:                  -0.878
REMARK UNBOUND:                -0.737
REMARK SMILES Fc1ccc(C[n+]2ccc(CCNc3nc4ccc(F)cc4s3)cc2)cc1
REMARK SMILES IDX 11 1 10 2 7 3 8 4 25 5 9 6 24 7 6 8 5 9 2 10 3 11 27 12 4 13
REMARK SMILES IDX 26 14 1 15 12 16 13 17 14 19 15 20 23 21 16 22 22 23 17 24
REMARK SMILES IDX 21 25 18 26 19 27 20 28
REMARK H PARENT 13 18
ROOT
ATOM      1  C   UNL     1     134.233 111.598  41.134  1.00  0.00     0.057 C 
ENDROOT
BRANCH   1   2
ATOM      2  C   UNL     1     135.666 111.941  40.792  1.00  0.00    -0.034 A 
ATOM      3  N   UNL     1     138.266 112.695  40.189  1.00  0.00    -0.201 N 
ATOM      4  C   UNL     1     137.958 112.290  41.443  1.00  0.00     0.308 A 
ATOM      5  C   UNL     1     137.316 112.734  39.227  1.00  0.00     0.308 A 
ATOM      6  C   UNL     1     136.664 111.900  41.766  1.00  0.00     0.074 A 
ATOM      7  C   UNL     1     136.007 112.362  39.506  1.00  0.00     0.074 A 
BRANCH   3   8
ATOM      8  C   UNL     1     139.660 113.080  39.864  1.00  0.00     0.393 C 
BRANCH   8   9
ATOM      9  C   UNL     1     140.092 114.298  40.640  1.00  0.00     0.017 A 
ATOM     10  C   UNL     1     140.918 116.561  42.059  1.00  0.00     0.123 A 
ATOM     11  C   UNL     1     139.648 116.531  41.494  1.00  0.00     0.040 A 
ATOM     12  C   UNL     1     141.783 115.484  41.924  1.00  0.00     0.040 A 
ATOM     13  C   UNL     1     139.232 115.400  40.788  1.00  0.00     0.013 A 
ATOM     14  C   UNL     1     141.375 114.354  41.215  1.00  0.00     0.013 A 
ATOM     15  F   UNL     1     141.310 117.642  42.743  1.00  0.00    -0.207 F 
ENDBRANCH   8   9
ENDBRANCH   3   8
ENDBRANCH   1   2
BRANCH   1  16
ATOM     16  C   UNL     1     133.193 112.499  40.451  1.00  0.00     0.120 C 
BRANCH  16  17
ATOM     17  N   UNL     1     132.868 113.655  41.267  1.00  0.00    -0.361 N 
ATOM     18  H   UNL     1     132.536 113.488  42.210  1.00  0.00     0.162 HD
BRANCH  17  19
ATOM     19  C   UNL     1     133.184 114.908  40.877  1.00  0.00     0.183 A 
ATOM     20  N   UNL     1     133.065 115.985  41.618  1.00  0.00    -0.220 NA
ATOM     21  S   UNL     1     133.819 115.176  39.302  1.00  0.00    -0.097 S 
ATOM     22  C   UNL     1     133.398 117.113  40.888  1.00  0.00     0.084 A 
ATOM     23  C   UNL     1     133.854 116.869  39.591  1.00  0.00     0.059 A 
ATOM     24  C   UNL     1     133.315 118.446  41.344  1.00  0.00     0.033 A 
ATOM     25  C   UNL     1     134.246 117.908  38.733  1.00  0.00     0.060 A 
ATOM     26  C   UNL     1     133.693 119.491  40.493  1.00  0.00     0.041 A 
ATOM     27  C   UNL     1     134.152 119.213  39.214  1.00  0.00     0.124 A 
ATOM     28  F   UNL     1     134.524 120.225  38.420  1.00  0.00    -0.207 F 
ENDBRANCH  17  19
ENDBRANCH  16  17
ENDBRANCH   1  16
TORSDOF 6
ENDMDL
MODEL 5
REMARK VINA RESULT:    -9.420      2.231      2.986
REMARK INTER + INTRA:         -13.461
REMARK INTER:                 -12.800
REMARK INTRA:                  -0.661
REMARK UNBOUND:                -0.737
REMARK SMILES Fc1ccc(C[n+]2ccc(CCNc3nc4ccc(F)cc4s3)cc2)cc1
REMARK SMILES IDX 11 1 10 2 7 3 8 4 25 5 9 6 24 7 6 8 5 9 2 10 3 11 27 12 4 13
REMARK SMILES IDX 26 14 1 15 12 16 13 17 14 19 15 20 23 21 16 22 22 23 17 24
REMARK SMILES IDX 21 25 18 26 19 27 20 28
REMARK H PARENT 13 18
ROOT
ATOM      1  C   UNL     1     137.303 111.231  37.605  1.00  0.00     0.057 C 
ENDROOT
BRANCH   1   2
ATOM      2  C   UNL     1     136.188 111.965  38.316  1.00  0.00    -0.034 A 
ATOM      3  N   UNL     1     134.072 113.199  39.616  1.00  0.00    -0.201 N 
ATOM      4  C   UNL     1     135.082 112.663  40.338  1.00  0.00     0.308 A 
ATOM      5  C   UNL     1     134.085 113.139  38.265  1.00  0.00     0.308 A 
ATOM      6  C   UNL     1     136.157 112.046  39.707  1.00  0.00     0.074 A 
ATOM      7  C   UNL     1     135.134 112.525  37.592  1.00  0.00     0.074 A 
BRANCH   3   8
ATOM      8  C   UNL     1     132.952 113.875  40.312  1.00  0.00     0.393 C 
BRANCH   8   9
ATOM      9  C   UNL     1     133.187 115.360  40.425  1.00  0.00     0.017 A 
ATOM     10  C   UNL     1     133.603 118.119  40.608  1.00  0.00     0.123 A 
ATOM     11  C   UNL     1     133.026 117.439  41.675  1.00  0.00     0.040 A 
ATOM     12  C   UNL     1     133.972 117.446  39.451  1.00  0.00     0.040 A 
ATOM     13  C   UNL     1     132.820 116.061  41.587  1.00  0.00     0.013 A 
ATOM     14  C   UNL     1     133.763 116.070  39.355  1.00  0.00     0.013 A 
ATOM     15  F   UNL     1     133.809 119.438  40.700  1.00  0.00    -0.207 F 
ENDBRANCH   8   9
ENDBRANCH   3   8
ENDBRANCH   1   2
BRANCH   1  16
ATOM     16  C   UNL     1     138.707 111.555  38.140  1.00  0.00     0.120 C 
BRANCH  16  17
ATOM     17  N   UNL     1     139.002 112.974  38.044  1.00  0.00    -0.361 N 
ATOM     18  H   UNL     1     138.737 113.453  37.191  1.00  0.00     0.162 HD
BRANCH  17  19
ATOM     19  C   UNL     1     139.421 113.683  39.113  1.00  0.00     0.183 A 
ATOM     20  N   UNL     1     138.789 114.707  39.638  1.00  0.00    -0.220 NA
ATOM     21  S   UNL     1     140.882 113.245  39.906  1.00  0.00    -0.097 S 
ATOM     22  C   UNL     1     139.531 115.254  40.671  1.00  0.00     0.084 A 
ATOM     23  C   UNL     1     140.712 114.577  40.979  1.00  0.00     0.059 A 
ATOM     24  C   UNL     1     139.192 116.407  41.411  1.00  0.00     0.033 A 
ATOM     25  C   UNL     1     141.564 114.999  42.012  1.00  0.00     0.060 A 
ATOM     26  C   UNL     1     140.039 116.844  42.435  1.00  0.00     0.041 A 
ATOM     27  C   UNL     1     141.199 116.141  42.723  1.00  0.00     0.124 A 
ATOM     28  F   UNL     1     141.990 116.565  43.717  1.00  0.00    -0.207 F 
ENDBRANCH  17  19
ENDBRANCH  16  17
ENDBRANCH   1  16
TORSDOF 6
ENDMDL
MODEL 6
REMARK VINA RESULT:    -9.163      1.524      2.304
REMARK INTER + INTRA:         -13.114
REMARK INTER:                 -12.214
REMARK INTRA:                  -0.900
REMARK UNBOUND:                -0.737
REMARK SMILES Fc1ccc(C[n+]2ccc(CCNc3nc4ccc(F)cc4s3)cc2)cc1
REMARK SMILES IDX 11 1 10 2 7 3 8 4 25 5 9 6 24 7 6 8 5 9 2 10 3 11 27 12 4 13
REMARK SMILES IDX 26 14 1 15 12 16 13 17 14 19 15 20 23 21 16 22 22 23 17 24
REMARK SMILES IDX 21 25 18 26 19 27 20 28
REMARK H PARENT 13 18
ROOT
ATOM      1  C   UNL     1     137.824 110.326  40.553  1.00  0.00     0.057 C 
ENDROOT
BRANCH   1   2
ATOM      2  C   UNL     1     136.488 110.958  40.874  1.00  0.00    -0.034 A 
ATOM      3  N   UNL     1     134.085 112.232  41.418  1.00  0.00    -0.201 N 
ATOM      4  C   UNL     1     134.247 111.574  40.246  1.00  0.00     0.308 A 
ATOM      5  C   UNL     1     135.086 112.273  42.326  1.00  0.00     0.308 A 
ATOM      6  C   UNL     1     135.439 110.922  39.956  1.00  0.00     0.074 A 
ATOM      7  C   UNL     1     136.299 111.643  42.075  1.00  0.00     0.074 A 
BRANCH   3   8
ATOM      8  C   UNL     1     132.794 112.896  41.714  1.00  0.00     0.393 C 
BRANCH   8   9
ATOM      9  C   UNL     1     132.894 114.392  41.559  1.00  0.00     0.017 A 
ATOM     10  C   UNL     1     133.058 117.166  41.247  1.00  0.00     0.123 A 
ATOM     11  C   UNL     1     132.594 116.636  42.445  1.00  0.00     0.040 A 
ATOM     12  C   UNL     1     133.436 116.336  40.200  1.00  0.00     0.040 A 
ATOM     13  C   UNL     1     132.515 115.251  42.605  1.00  0.00     0.013 A 
ATOM     14  C   UNL     1     133.354 114.951  40.352  1.00  0.00     0.013 A 
ATOM     15  F   UNL     1     133.143 118.493  41.101  1.00  0.00    -0.207 F 
ENDBRANCH   8   9
ENDBRANCH   3   8
ENDBRANCH   1   2
BRANCH   1  16
ATOM     16  C   UNL     1     138.548 110.963  39.357  1.00  0.00     0.120 C 
BRANCH  16  17
ATOM     17  N   UNL     1     139.886 111.400  39.713  1.00  0.00    -0.361 N 
ATOM     18  H   UNL     1     140.663 110.812  39.434  1.00  0.00     0.162 HD
BRANCH  17  19
ATOM     19  C   UNL     1     140.119 112.633  40.210  1.00  0.00     0.183 A 
ATOM     20  N   UNL     1     141.215 113.006  40.828  1.00  0.00    -0.220 NA
ATOM     21  S   UNL     1     138.932 113.864  40.029  1.00  0.00    -0.097 S 
ATOM     22  C   UNL     1     141.096 114.309  41.279  1.00  0.00     0.084 A 
ATOM     23  C   UNL     1     139.911 114.956  40.923  1.00  0.00     0.059 A 
ATOM     24  C   UNL     1     142.052 115.008  42.046  1.00  0.00     0.033 A 
ATOM     25  C   UNL     1     139.649 116.285  41.292  1.00  0.00     0.060 A 
ATOM     26  C   UNL     1     141.797 116.330  42.430  1.00  0.00     0.041 A 
ATOM     27  C   UNL     1     140.614 116.946  42.049  1.00  0.00     0.124 A 
ATOM     28  F   UNL     1     140.394 118.217  42.412  1.00  0.00    -0.207 F 
ENDBRANCH  17  19
ENDBRANCH  16  17
ENDBRANCH   1  16
TORSDOF 6
ENDMDL
MODEL 7
REMARK VINA RESULT:    -9.107      2.765      3.768
REMARK INTER + INTRA:         -13.039
REMARK INTER:                 -12.067
REMARK INTRA:                  -0.972
REMARK UNBOUND:                -0.737
REMARK SMILES Fc1ccc(C[n+]2ccc(CCNc3nc4ccc(F)cc4s3)cc2)cc1
REMARK SMILES IDX 11 1 10 2 7 3 8 4 25 5 9 6 24 7 6 8 5 9 2 10 3 11 27 12 4 13
REMARK SMILES IDX 26 14 1 15 12 16 13 17 14 19 15 20 23 21 16 22 22 23 17 24
REMARK SMILES IDX 21 25 18 26 19 27 20 28
REMARK H PARENT 13 18
ROOT
ATOM      1  C   UNL     1     137.359 111.137  38.453  1.00  0.00     0.057 C 
ENDROOT
BRANCH   1   2
ATOM      2  C   UNL     1     136.691 111.323  39.797  1.00  0.00    -0.034 A 
ATOM      3  N   UNL     1     135.485 111.794  42.250  1.00  0.00    -0.201 N 
ATOM      4  C   UNL     1     134.726 111.718  41.133  1.00  0.00     0.308 A 
ATOM      5  C   UNL     1     136.827 111.643  42.181  1.00  0.00     0.308 A 
ATOM      6  C   UNL     1     135.308 111.474  39.894  1.00  0.00     0.074 A 
ATOM      7  C   UNL     1     137.453 111.407  40.963  1.00  0.00     0.074 A 
BRANCH   3   8
ATOM      8  C   UNL     1     134.837 112.027  43.562  1.00  0.00     0.393 C 
BRANCH   8   9
ATOM      9  C   UNL     1     133.878 113.190  43.506  1.00  0.00     0.017 A 
ATOM     10  C   UNL     1     132.088 115.336  43.431  1.00  0.00     0.123 A 
ATOM     11  C   UNL     1     133.455 115.584  43.467  1.00  0.00     0.040 A 
ATOM     12  C   UNL     1     131.599 114.036  43.436  1.00  0.00     0.040 A 
ATOM     13  C   UNL     1     134.352 114.513  43.501  1.00  0.00     0.013 A 
ATOM     14  C   UNL     1     132.490 112.963  43.476  1.00  0.00     0.013 A 
ATOM     15  F   UNL     1     131.232 116.363  43.387  1.00  0.00    -0.207 F 
ENDBRANCH   8   9
ENDBRANCH   3   8
ENDBRANCH   1   2
BRANCH   1  16
ATOM     16  C   UNL     1     137.653 112.450  37.712  1.00  0.00     0.120 C 
BRANCH  16  17
ATOM     17  N   UNL     1     139.030 112.871  37.895  1.00  0.00    -0.361 N 
ATOM     18  H   UNL     1     139.667 112.752  37.115  1.00  0.00     0.162 HD
BRANCH  17  19
ATOM     19  C   UNL     1     139.416 113.582  38.975  1.00  0.00     0.183 A 
ATOM     20  N   UNL     1     138.726 114.550  39.531  1.00  0.00    -0.220 NA
ATOM     21  S   UNL     1     140.911 113.221  39.744  1.00  0.00    -0.097 S 
ATOM     22  C   UNL     1     139.442 115.120  40.569  1.00  0.00     0.084 A 
ATOM     23  C   UNL     1     140.669 114.514  40.849  1.00  0.00     0.059 A 
ATOM     24  C   UNL     1     139.039 116.231  41.339  1.00  0.00     0.033 A 
ATOM     25  C   UNL     1     141.503 114.966  41.883  1.00  0.00     0.060 A 
ATOM     26  C   UNL     1     139.868 116.699  42.365  1.00  0.00     0.041 A 
ATOM     27  C   UNL     1     141.074 116.065  42.624  1.00  0.00     0.124 A 
ATOM     28  F   UNL     1     141.848 116.517  43.620  1.00  0.00    -0.207 F 
ENDBRANCH  17  19
ENDBRANCH  16  17
ENDBRANCH   1  16
TORSDOF 6
ENDMDL
MODEL 8
REMARK VINA RESULT:    -9.050      4.279      5.212
REMARK INTER + INTRA:         -12.962
REMARK INTER:                 -12.335
REMARK INTRA:                  -0.628
REMARK UNBOUND:                -0.737
REMARK SMILES Fc1ccc(C[n+]2ccc(CCNc3nc4ccc(F)cc4s3)cc2)cc1
REMARK SMILES IDX 11 1 10 2 7 3 8 4 25 5 9 6 24 7 6 8 5 9 2 10 3 11 27 12 4 13
REMARK SMILES IDX 26 14 1 15 12 16 13 17 14 19 15 20 23 21 16 22 22 23 17 24
REMARK SMILES IDX 21 25 18 26 19 27 20 28
REMARK H PARENT 13 18
ROOT
ATOM      1  C   UNL     1     136.887 110.196  42.378  1.00  0.00     0.057 C 
ENDROOT
BRANCH   1   2
ATOM      2  C   UNL     1     135.674 111.079  42.187  1.00  0.00    -0.034 A 
ATOM      3  N   UNL     1     133.529 112.792  41.790  1.00  0.00    -0.201 N 
ATOM      4  C   UNL     1     133.866 111.903  40.827  1.00  0.00     0.308 A 
ATOM      5  C   UNL     1     134.230 112.851  42.945  1.00  0.00     0.308 A 
ATOM      6  C   UNL     1     134.932 111.029  41.007  1.00  0.00     0.074 A 
ATOM      7  C   UNL     1     135.308 112.004  43.165  1.00  0.00     0.074 A 
BRANCH   3   8
ATOM      8  C   UNL     1     132.371 113.693  41.583  1.00  0.00     0.393 C 
BRANCH   8   9
ATOM      9  C   UNL     1     132.815 115.091  41.233  1.00  0.00     0.017 A 
ATOM     10  C   UNL     1     133.616 117.683  40.558  1.00  0.00     0.123 A 
ATOM     11  C   UNL     1     133.039 117.444  41.800  1.00  0.00     0.040 A 
ATOM     12  C   UNL     1     133.796 116.652  39.646  1.00  0.00     0.040 A 
ATOM     13  C   UNL     1     132.641 116.150  42.141  1.00  0.00     0.013 A 
ATOM     14  C   UNL     1     133.395 115.357  39.979  1.00  0.00     0.013 A 
ATOM     15  F   UNL     1     134.006 118.922  40.239  1.00  0.00    -0.207 F 
ENDBRANCH   8   9
ENDBRANCH   3   8
ENDBRANCH   1   2
BRANCH   1  16
ATOM     16  C   UNL     1     137.441 109.600  41.075  1.00  0.00     0.120 C 
BRANCH  16  17
ATOM     17  N   UNL     1     138.513 110.413  40.529  1.00  0.00    -0.361 N 
ATOM     18  H   UNL     1     138.963 111.078  41.148  1.00  0.00     0.162 HD
BRANCH  17  19
ATOM     19  C   UNL     1     139.041 110.163  39.312  1.00  0.00     0.183 A 
ATOM     20  N   UNL     1     138.406 110.290  38.170  1.00  0.00    -0.220 NA
ATOM     21  S   UNL     1     140.679 109.658  39.181  1.00  0.00    -0.097 S 
ATOM     22  C   UNL     1     139.210 109.878  37.122  1.00  0.00     0.084 A 
ATOM     23  C   UNL     1     140.508 109.506  37.478  1.00  0.00     0.059 A 
ATOM     24  C   UNL     1     138.829 109.809  35.765  1.00  0.00     0.033 A 
ATOM     25  C   UNL     1     141.448 109.081  36.526  1.00  0.00     0.060 A 
ATOM     26  C   UNL     1     139.753 109.376  34.809  1.00  0.00     0.041 A 
ATOM     27  C   UNL     1     141.038 109.025  35.195  1.00  0.00     0.124 A 
ATOM     28  F   UNL     1     141.914 108.627  34.264  1.00  0.00    -0.207 F 
ENDBRANCH  17  19
ENDBRANCH  16  17
ENDBRANCH   1  16
TORSDOF 6
ENDMDL
