REMARK SMILES O=C(NS(=O)(=O)c1ccc(NCCSc2ccccc2)c([N+](=O)[O-])c1)c1ccc(C(=O)c2ccccc2)cc1
REMARK SMILES IDX 7 1 8 2 9 3 10 4 21 5 25 6 4 7 5 8 6 9 3 10 1 11 2 12 26 14
REMARK SMILES IDX 27 15 39 16 28 17 38 18 29 19 30 20 31 21 32 22 33 23 37 24
REMARK SMILES IDX 34 25 36 26 35 27 22 28 23 29 24 30 11 31 12 33 13 34 14 35
REMARK SMILES IDX 15 36 16 37 20 38 17 39 19 40 18 41
REMARK H PARENT 3 13 11 32
ROOT
ATOM      1  C   UNL     1      -1.213  -2.112  -1.561  1.00  0.00     0.094 A 
ATOM      2  C   UNL     1      -1.627  -2.694  -0.365  1.00  0.00     0.025 A 
ATOM      3  C   UNL     1      -2.631  -2.085   0.402  1.00  0.00     0.034 A 
ATOM      4  C   UNL     1      -3.280  -0.908  -0.016  1.00  0.00     0.113 A 
ATOM      5  C   UNL     1      -2.818  -0.346  -1.230  1.00  0.00     0.293 A 
ATOM      6  C   UNL     1      -1.808  -0.937  -2.010  1.00  0.00     0.110 A 
ENDROOT
BRANCH   1   7
ATOM      7  S   UNL     1       0.033  -2.895  -2.551  1.00  0.00     0.264 S 
ATOM      8  O   UNL     1      -0.272  -2.585  -3.933  1.00  0.00    -0.201 OA
ATOM      9  O   UNL     1       0.198  -4.262  -2.116  1.00  0.00    -0.201 OA
BRANCH   7  10
ATOM     10  N   UNL     1       1.411  -2.034  -2.201  1.00  0.00    -0.245 N 
ATOM     11  O   UNL     1       1.482  -2.404   0.076  1.00  0.00    -0.268 OA
ATOM     12  C   UNL     1       1.987  -1.932  -0.930  1.00  0.00     0.264 C 
ATOM     13  H   UNL     1       1.722  -1.473  -2.985  1.00  0.00     0.183 HD
BRANCH  12  14
ATOM     14  C   UNL     1       3.265  -1.169  -0.854  1.00  0.00     0.040 A 
ATOM     15  C   UNL     1       3.648  -0.650   0.393  1.00  0.00     0.014 A 
ATOM     16  C   UNL     1       4.082  -0.940  -1.971  1.00  0.00     0.014 A 
ATOM     17  C   UNL     1       4.824   0.096   0.525  1.00  0.00     0.013 A 
ATOM     18  C   UNL     1       5.258  -0.194  -1.838  1.00  0.00     0.013 A 
ATOM     19  C   UNL     1       5.638   0.316  -0.591  1.00  0.00     0.023 A 
BRANCH  19  20
ATOM     20  C   UNL     1       6.881   1.125  -0.508  1.00  0.00     0.193 C 
ATOM     21  O   UNL     1       7.208   1.810  -1.474  1.00  0.00    -0.289 OA
BRANCH  20  22
ATOM     22  C   UNL     1       7.729   1.129   0.709  1.00  0.00     0.022 A 
ATOM     23  C   UNL     1       7.946  -0.034   1.457  1.00  0.00     0.012 A 
ATOM     24  C   UNL     1       8.357   2.325   1.078  1.00  0.00     0.012 A 
ATOM     25  C   UNL     1       8.759   0.011   2.592  1.00  0.00     0.001 A 
ATOM     26  C   UNL     1       9.167   2.364   2.213  1.00  0.00     0.001 A 
ATOM     27  C   UNL     1       9.363   1.210   2.972  1.00  0.00     0.000 A 
ENDBRANCH  20  22
ENDBRANCH  19  20
ENDBRANCH  12  14
ENDBRANCH   7  10
ENDBRANCH   1   7
BRANCH   5  28
ATOM     28  N   UNL     1      -3.374   0.907  -1.725  1.00  0.00     0.065 N 
ATOM     29  O   UNL     1      -4.605   1.038  -1.702  1.00  0.00    -0.258 OA
ATOM     30  O   UNL     1      -2.574   1.744  -2.171  1.00  0.00    -0.258 OA
ENDBRANCH   5  28
BRANCH   4  31
ATOM     31  N   UNL     1      -4.224  -0.254   0.791  1.00  0.00    -0.379 N 
ATOM     32  H   UNL     1      -4.952   0.211   0.234  1.00  0.00     0.160 HD
BRANCH  31  33
ATOM     33  C   UNL     1      -4.744  -0.888   2.006  1.00  0.00     0.124 C 
BRANCH  33  34
ATOM     34  C   UNL     1      -5.747   0.009   2.742  1.00  0.00     0.096 C 
BRANCH  34  35
ATOM     35  S   UNL     1      -7.463  -0.188   2.131  1.00  0.00    -0.124 SA
BRANCH  35  36
ATOM     36  C   UNL     1      -7.513   0.969   0.779  1.00  0.00     0.007 A 
ATOM     37  C   UNL     1      -7.192   2.320   0.946  1.00  0.00     0.015 A 
ATOM     38  C   UNL     1      -7.949   0.522  -0.472  1.00  0.00     0.015 A 
ATOM     39  C   UNL     1      -7.276   3.204  -0.132  1.00  0.00     0.001 A 
ATOM     40  C   UNL     1      -8.037   1.406  -1.549  1.00  0.00     0.001 A 
ATOM     41  C   UNL     1      -7.696   2.746  -1.380  1.00  0.00     0.000 A 
ENDBRANCH  35  36
ENDBRANCH  34  35
ENDBRANCH  33  34
ENDBRANCH  31  33
ENDBRANCH   4  31
TORSDOF 11
