MODEL 1
REMARK VINA RESULT:    -9.040      0.000      0.000
REMARK INTER + INTRA:         -15.424
REMARK INTER:                 -14.060
REMARK INTRA:                  -1.363
REMARK UNBOUND:                -1.363
REMARK SMILES CC[C@@H](C(=O)O)[C@H]1CCc2cc(OCCc3nc(-c4cccc(C(F)(F)F)c4)oc3C)ccc21
REMARK SMILES IDX 13 1 12 2 7 3 8 4 34 5 9 6 33 7 10 8 32 9 11 10 3 11 2 12
REMARK SMILES IDX 1 13 4 14 5 15 6 16 14 18 15 19 16 20 17 21 30 22 18 23
REMARK SMILES IDX 29 24 31 25 19 26 20 27 28 28 21 29 23 30 22 31 24 32 25 33
REMARK SMILES IDX 26 34 27 35
REMARK H PARENT 6 17
ROOT
ATOM      1  O   UNL     1      -9.825  -8.008 -23.832  1.00  0.00    -0.493 OA
ENDROOT
BRANCH   1   2
ATOM      2  C   UNL     1      -9.545  -8.289 -25.142  1.00  0.00     0.119 A 
ATOM      3  C   UNL     1      -8.890  -9.188 -29.276  1.00  0.00     0.034 C 
ATOM      4  C   UNL     1      -7.384  -8.833 -29.239  1.00  0.00     0.014 C 
ATOM      5  C   UNL     1      -9.290  -8.834 -27.864  1.00  0.00    -0.041 A 
ATOM      6  C   UNL     1      -6.916  -9.091 -27.801  1.00  0.00     0.036 C 
ATOM      7  C   UNL     1     -10.556  -8.635 -27.340  1.00  0.00     0.008 A 
ATOM      8  C   UNL     1      -8.164  -8.780 -27.034  1.00  0.00    -0.041 A 
ATOM      9  C   UNL     1     -10.675  -8.355 -25.976  1.00  0.00     0.047 A 
ATOM     10  C   UNL     1      -8.274  -8.515 -25.675  1.00  0.00     0.050 A 
BRANCH   3  11
ATOM     11  C   UNL     1      -9.703  -8.519 -30.400  1.00  0.00     0.106 C 
BRANCH  11  12
ATOM     12  C   UNL     1      -9.448  -7.011 -30.590  1.00  0.00     0.012 C 
ATOM     13  C   UNL     1     -10.714  -6.183 -30.401  1.00  0.00     0.005 C 
ENDBRANCH  11  12
BRANCH  11  14
ATOM     14  C   UNL     1      -9.487  -9.311 -31.671  1.00  0.00     0.307 C 
ATOM     15  O   UNL     1      -9.672 -10.510 -31.796  1.00  0.00    -0.252 OA
BRANCH  14  16
ATOM     16  O   UNL     1      -8.994  -8.596 -32.697  1.00  0.00    -0.481 OA
ATOM     17  H   UNL     1      -8.365  -9.207 -33.134  1.00  0.00     0.296 HD
ENDBRANCH  14  16
ENDBRANCH  11  14
ENDBRANCH   3  11
ENDBRANCH   1   2
BRANCH   1  18
ATOM     18  C   UNL     1      -9.121  -8.762 -22.840  1.00  0.00     0.236 C 
BRANCH  18  19
ATOM     19  C   UNL     1      -9.658  -8.381 -21.461  1.00  0.00     0.101 C 
BRANCH  19  20
ATOM     20  C   UNL     1      -8.711  -7.518 -20.704  1.00  0.00     0.086 A 
ATOM     21  N   UNL     1      -7.438  -7.287 -21.176  1.00  0.00    -0.214 NA
ATOM     22  C   UNL     1      -8.888  -6.841 -19.516  1.00  0.00     0.125 A 
ATOM     23  C   UNL     1      -6.896  -6.489 -20.274  1.00  0.00     0.226 A 
ATOM     24  O   UNL     1      -7.729  -6.178 -19.232  1.00  0.00    -0.441 OA
ATOM     25  C   UNL     1     -10.002  -6.684 -18.565  1.00  0.00     0.090 C 
BRANCH  23  26
ATOM     26  C   UNL     1      -5.558  -5.906 -20.248  1.00  0.00     0.038 A 
ATOM     27  C   UNL     1      -4.426  -6.655 -19.893  1.00  0.00     0.014 A 
ATOM     28  C   UNL     1      -5.385  -4.554 -20.588  1.00  0.00     0.026 A 
ATOM     29  C   UNL     1      -3.158  -6.072 -19.880  1.00  0.00     0.001 A 
ATOM     30  C   UNL     1      -4.115  -3.951 -20.570  1.00  0.00     0.056 A 
ATOM     31  C   UNL     1      -3.003  -4.729 -20.220  1.00  0.00     0.013 A 
BRANCH  30  32
ATOM     32  C   UNL     1      -3.952  -2.502 -20.959  1.00  0.00     0.416 C 
ATOM     33  F   UNL     1      -4.991  -2.028 -21.702  1.00  0.00    -0.166 F 
ATOM     34  F   UNL     1      -2.832  -2.289 -21.703  1.00  0.00    -0.166 F 
ATOM     35  F   UNL     1      -3.853  -1.668 -19.887  1.00  0.00    -0.166 F 
ENDBRANCH  30  32
ENDBRANCH  23  26
ENDBRANCH  19  20
ENDBRANCH  18  19
ENDBRANCH   1  18
TORSDOF 10
ENDMDL
MODEL 2
REMARK VINA RESULT:    -8.707      3.505      5.335
REMARK INTER + INTRA:         -14.906
REMARK INTER:                 -13.707
REMARK INTRA:                  -1.200
REMARK UNBOUND:                -1.363
REMARK SMILES CC[C@@H](C(=O)O)[C@H]1CCc2cc(OCCc3nc(-c4cccc(C(F)(F)F)c4)oc3C)ccc21
REMARK SMILES IDX 13 1 12 2 7 3 8 4 34 5 9 6 33 7 10 8 32 9 11 10 3 11 2 12
REMARK SMILES IDX 1 13 4 14 5 15 6 16 14 18 15 19 16 20 17 21 30 22 18 23
REMARK SMILES IDX 29 24 31 25 19 26 20 27 28 28 21 29 23 30 22 31 24 32 25 33
REMARK SMILES IDX 26 34 27 35
REMARK H PARENT 6 17
ROOT
ATOM      1  O   UNL     1      -9.457  -8.045 -23.351  1.00  0.00    -0.493 OA
ENDROOT
BRANCH   1   2
ATOM      2  C   UNL     1      -9.351  -8.245 -24.701  1.00  0.00     0.119 A 
ATOM      3  C   UNL     1      -9.248  -8.855 -28.937  1.00  0.00     0.034 C 
ATOM      4  C   UNL     1      -7.708  -8.738 -29.038  1.00  0.00     0.014 C 
ATOM      5  C   UNL     1      -9.450  -8.574 -27.467  1.00  0.00    -0.041 A 
ATOM      6  C   UNL     1      -7.152  -9.192 -27.682  1.00  0.00     0.036 C 
ATOM      7  C   UNL     1     -10.611  -8.234 -26.795  1.00  0.00     0.008 A 
ATOM      8  C   UNL     1      -8.254  -8.767 -26.763  1.00  0.00    -0.041 A 
ATOM      9  C   UNL     1     -10.552  -8.063 -25.409  1.00  0.00     0.047 A 
ATOM     10  C   UNL     1      -8.190  -8.612 -25.385  1.00  0.00     0.050 A 
BRANCH   3  11
ATOM     11  C   UNL     1     -10.048  -7.972 -29.913  1.00  0.00     0.106 C 
BRANCH  11  12
ATOM     12  C   UNL     1      -9.199  -7.137 -30.892  1.00  0.00     0.012 C 
ATOM     13  C   UNL     1      -9.906  -5.856 -31.321  1.00  0.00     0.005 C 
ENDBRANCH  11  12
BRANCH  11  14
ATOM     14  C   UNL     1     -11.057  -8.850 -30.620  1.00  0.00     0.307 C 
ATOM     15  O   UNL     1     -12.135  -9.195 -30.165  1.00  0.00    -0.252 OA
BRANCH  14  16
ATOM     16  O   UNL     1     -10.656  -9.307 -31.819  1.00  0.00    -0.481 OA
ATOM     17  H   UNL     1     -10.140 -10.113 -31.608  1.00  0.00     0.296 HD
ENDBRANCH  14  16
ENDBRANCH  11  14
ENDBRANCH   3  11
ENDBRANCH   1   2
BRANCH   1  18
ATOM     18  C   UNL     1      -8.317  -8.380 -22.552  1.00  0.00     0.236 C 
BRANCH  18  19
ATOM     19  C   UNL     1      -7.747  -7.097 -21.948  1.00  0.00     0.101 C 
BRANCH  19  20
ATOM     20  C   UNL     1      -8.183  -6.893 -20.540  1.00  0.00     0.086 A 
ATOM     21  N   UNL     1      -9.461  -7.220 -20.145  1.00  0.00    -0.214 NA
ATOM     22  C   UNL     1      -7.482  -6.399 -19.461  1.00  0.00     0.125 A 
ATOM     23  C   UNL     1      -9.490  -6.921 -18.859  1.00  0.00     0.226 A 
ATOM     24  O   UNL     1      -8.313  -6.413 -18.378  1.00  0.00    -0.441 OA
ATOM     25  C   UNL     1      -6.109  -5.910 -19.248  1.00  0.00     0.090 C 
BRANCH  23  26
ATOM     26  C   UNL     1     -10.588  -7.062 -17.907  1.00  0.00     0.038 A 
ATOM     27  C   UNL     1     -11.353  -8.235 -17.823  1.00  0.00     0.014 A 
ATOM     28  C   UNL     1     -10.897  -6.000 -17.043  1.00  0.00     0.026 A 
ATOM     29  C   UNL     1     -12.396  -8.345 -16.901  1.00  0.00     0.001 A 
ATOM     30  C   UNL     1     -11.951  -6.091 -16.116  1.00  0.00     0.056 A 
ATOM     31  C   UNL     1     -12.691  -7.280 -16.050  1.00  0.00     0.013 A 
BRANCH  30  32
ATOM     32  C   UNL     1     -12.250  -4.943 -15.185  1.00  0.00     0.416 C 
ATOM     33  F   UNL     1     -11.814  -3.742 -15.658  1.00  0.00    -0.166 F 
ATOM     34  F   UNL     1     -11.664  -5.099 -13.965  1.00  0.00    -0.166 F 
ATOM     35  F   UNL     1     -13.581  -4.784 -14.942  1.00  0.00    -0.166 F 
ENDBRANCH  30  32
ENDBRANCH  23  26
ENDBRANCH  19  20
ENDBRANCH  18  19
ENDBRANCH   1  18
TORSDOF 10
ENDMDL
MODEL 3
REMARK VINA RESULT:    -8.702      1.049      1.990
REMARK INTER + INTRA:         -14.898
REMARK INTER:                 -13.692
REMARK INTRA:                  -1.206
REMARK UNBOUND:                -1.363
REMARK SMILES CC[C@@H](C(=O)O)[C@H]1CCc2cc(OCCc3nc(-c4cccc(C(F)(F)F)c4)oc3C)ccc21
REMARK SMILES IDX 13 1 12 2 7 3 8 4 34 5 9 6 33 7 10 8 32 9 11 10 3 11 2 12
REMARK SMILES IDX 1 13 4 14 5 15 6 16 14 18 15 19 16 20 17 21 30 22 18 23
REMARK SMILES IDX 29 24 31 25 19 26 20 27 28 28 21 29 23 30 22 31 24 32 25 33
REMARK SMILES IDX 26 34 27 35
REMARK H PARENT 6 17
ROOT
ATOM      1  O   UNL     1     -10.236  -8.357 -23.917  1.00  0.00    -0.493 OA
ENDROOT
BRANCH   1   2
ATOM      2  C   UNL     1     -10.184  -8.178 -25.273  1.00  0.00     0.119 A 
ATOM      3  C   UNL     1      -9.805  -7.681 -29.508  1.00  0.00     0.034 C 
ATOM      4  C   UNL     1     -11.321  -7.480 -29.742  1.00  0.00     0.014 C 
ATOM      5  C   UNL     1      -9.789  -7.956 -28.024  1.00  0.00    -0.041 A 
ATOM      6  C   UNL     1     -11.881  -6.881 -28.445  1.00  0.00     0.036 C 
ATOM      7  C   UNL     1      -8.784  -8.510 -27.249  1.00  0.00     0.008 A 
ATOM      8  C   UNL     1     -10.972  -7.499 -27.429  1.00  0.00    -0.041 A 
ATOM      9  C   UNL     1      -8.993  -8.625 -25.872  1.00  0.00     0.047 A 
ATOM     10  C   UNL     1     -11.182  -7.598 -26.060  1.00  0.00     0.050 A 
BRANCH   3  11
ATOM     11  C   UNL     1      -9.128  -8.738 -30.401  1.00  0.00     0.106 C 
BRANCH  11  12
ATOM     12  C   UNL     1     -10.057  -9.436 -31.414  1.00  0.00     0.012 C 
ATOM     13  C   UNL     1      -9.812 -10.940 -31.480  1.00  0.00     0.005 C 
ENDBRANCH  11  12
BRANCH  11  14
ATOM     14  C   UNL     1      -7.927  -8.096 -31.060  1.00  0.00     0.307 C 
ATOM     15  O   UNL     1      -7.134  -8.666 -31.792  1.00  0.00    -0.252 OA
BRANCH  14  16
ATOM     16  O   UNL     1      -7.733  -6.808 -30.732  1.00  0.00    -0.481 OA
ATOM     17  H   UNL     1      -6.758  -6.714 -30.694  1.00  0.00     0.296 HD
ENDBRANCH  14  16
ENDBRANCH  11  14
ENDBRANCH   3  11
ENDBRANCH   1   2
BRANCH   1  18
ATOM     18  C   UNL     1      -8.988  -8.393 -23.217  1.00  0.00     0.236 C 
BRANCH  18  19
ATOM     19  C   UNL     1      -9.269  -8.468 -21.717  1.00  0.00     0.101 C 
BRANCH  19  20
ATOM     20  C   UNL     1      -8.417  -7.531 -20.935  1.00  0.00     0.086 A 
ATOM     21  N   UNL     1      -7.145  -7.216 -21.358  1.00  0.00    -0.214 NA
ATOM     22  C   UNL     1      -8.691  -6.855 -19.765  1.00  0.00     0.125 A 
ATOM     23  C   UNL     1      -6.698  -6.371 -20.447  1.00  0.00     0.226 A 
ATOM     24  O   UNL     1      -7.594  -6.108 -19.445  1.00  0.00    -0.441 OA
ATOM     25  C   UNL     1      -9.851  -6.765 -18.863  1.00  0.00     0.090 C 
BRANCH  23  26
ATOM     26  C   UNL     1      -5.406  -5.694 -20.376  1.00  0.00     0.038 A 
ATOM     27  C   UNL     1      -4.239  -6.360 -19.975  1.00  0.00     0.014 A 
ATOM     28  C   UNL     1      -5.317  -4.335 -20.717  1.00  0.00     0.026 A 
ATOM     29  C   UNL     1      -3.016  -5.688 -19.919  1.00  0.00     0.001 A 
ATOM     30  C   UNL     1      -4.095  -3.643 -20.656  1.00  0.00     0.056 A 
ATOM     31  C   UNL     1      -2.944  -4.338 -20.261  1.00  0.00     0.013 A 
BRANCH  30  32
ATOM     32  C   UNL     1      -4.022  -2.187 -21.047  1.00  0.00     0.416 C 
ATOM     33  F   UNL     1      -5.098  -1.773 -21.772  1.00  0.00    -0.166 F 
ATOM     34  F   UNL     1      -2.928  -1.911 -21.810  1.00  0.00    -0.166 F 
ATOM     35  F   UNL     1      -3.951  -1.348 -19.976  1.00  0.00    -0.166 F 
ENDBRANCH  30  32
ENDBRANCH  23  26
ENDBRANCH  19  20
ENDBRANCH  18  19
ENDBRANCH   1  18
TORSDOF 10
ENDMDL
MODEL 4
REMARK VINA RESULT:    -8.552      3.556      5.644
REMARK INTER + INTRA:         -14.665
REMARK INTER:                 -13.387
REMARK INTRA:                  -1.279
REMARK UNBOUND:                -1.363
REMARK SMILES CC[C@@H](C(=O)O)[C@H]1CCc2cc(OCCc3nc(-c4cccc(C(F)(F)F)c4)oc3C)ccc21
REMARK SMILES IDX 13 1 12 2 7 3 8 4 34 5 9 6 33 7 10 8 32 9 11 10 3 11 2 12
REMARK SMILES IDX 1 13 4 14 5 15 6 16 14 18 15 19 16 20 17 21 30 22 18 23
REMARK SMILES IDX 29 24 31 25 19 26 20 27 28 28 21 29 23 30 22 31 24 32 25 33
REMARK SMILES IDX 26 34 27 35
REMARK H PARENT 6 17
ROOT
ATOM      1  O   UNL     1      -9.147  -9.171 -22.935  1.00  0.00    -0.493 OA
ENDROOT
BRANCH   1   2
ATOM      2  C   UNL     1      -9.355  -8.799 -24.236  1.00  0.00     0.119 A 
ATOM      3  C   UNL     1      -9.789  -7.680 -28.345  1.00  0.00     0.034 C 
ATOM      4  C   UNL     1     -11.331  -7.570 -28.278  1.00  0.00     0.014 C 
ATOM      5  C   UNL     1      -9.486  -8.159 -26.946  1.00  0.00    -0.041 A 
ATOM      6  C   UNL     1     -11.673  -7.207 -26.826  1.00  0.00     0.036 C 
ATOM      7  C   UNL     1      -8.327  -8.735 -26.452  1.00  0.00     0.008 A 
ATOM      8  C   UNL     1     -10.561  -7.888 -26.091  1.00  0.00    -0.041 A 
ATOM      9  C   UNL     1      -8.273  -9.060 -25.094  1.00  0.00     0.047 A 
ATOM     10  C   UNL     1     -10.510  -8.195 -24.738  1.00  0.00     0.050 A 
BRANCH   3  11
ATOM     11  C   UNL     1      -9.232  -8.542 -29.494  1.00  0.00     0.106 C 
BRANCH  11  12
ATOM     12  C   UNL     1     -10.294  -9.255 -30.354  1.00  0.00     0.012 C 
ATOM     13  C   UNL     1      -9.761 -10.539 -30.982  1.00  0.00     0.005 C 
ENDBRANCH  11  12
BRANCH  11  14
ATOM     14  C   UNL     1      -8.298  -7.683 -30.315  1.00  0.00     0.307 C 
ATOM     15  O   UNL     1      -8.538  -7.240 -31.427  1.00  0.00    -0.252 OA
BRANCH  14  16
ATOM     16  O   UNL     1      -7.096  -7.469 -29.752  1.00  0.00    -0.481 OA
ATOM     17  H   UNL     1      -7.103  -8.035 -28.952  1.00  0.00     0.296 HD
ENDBRANCH  14  16
ENDBRANCH  11  14
ENDBRANCH   3  11
ENDBRANCH   1   2
BRANCH   1  18
ATOM     18  C   UNL     1      -7.873  -8.855 -22.363  1.00  0.00     0.236 C 
BRANCH  18  19
ATOM     19  C   UNL     1      -7.832  -7.358 -22.054  1.00  0.00     0.101 C 
BRANCH  19  20
ATOM     20  C   UNL     1      -8.265  -7.058 -20.662  1.00  0.00     0.086 A 
ATOM     21  N   UNL     1      -9.517  -7.421 -20.219  1.00  0.00    -0.214 NA
ATOM     22  C   UNL     1      -7.581  -6.434 -19.640  1.00  0.00     0.125 A 
ATOM     23  C   UNL     1      -9.549  -7.013 -18.963  1.00  0.00     0.226 A 
ATOM     24  O   UNL     1      -8.397  -6.401 -18.546  1.00  0.00    -0.441 OA
ATOM     25  C   UNL     1      -6.236  -5.853 -19.491  1.00  0.00     0.090 C 
BRANCH  23  26
ATOM     26  C   UNL     1     -10.627  -7.133 -17.985  1.00  0.00     0.038 A 
ATOM     27  C   UNL     1     -11.415  -8.290 -17.885  1.00  0.00     0.014 A 
ATOM     28  C   UNL     1     -10.892  -6.066 -17.113  1.00  0.00     0.026 A 
ATOM     29  C   UNL     1     -12.437  -8.378 -16.938  1.00  0.00     0.001 A 
ATOM     30  C   UNL     1     -11.924  -6.137 -16.161  1.00  0.00     0.056 A 
ATOM     31  C   UNL     1     -12.688  -7.309 -16.079  1.00  0.00     0.013 A 
BRANCH  30  32
ATOM     32  C   UNL     1     -12.176  -4.984 -15.220  1.00  0.00     0.416 C 
ATOM     33  F   UNL     1     -11.533  -5.116 -14.027  1.00  0.00    -0.166 F 
ATOM     34  F   UNL     1     -13.497  -4.840 -14.920  1.00  0.00    -0.166 F 
ATOM     35  F   UNL     1     -11.776  -3.784 -15.726  1.00  0.00    -0.166 F 
ENDBRANCH  30  32
ENDBRANCH  23  26
ENDBRANCH  19  20
ENDBRANCH  18  19
ENDBRANCH   1  18
TORSDOF 10
ENDMDL
MODEL 5
REMARK VINA RESULT:    -8.348      4.148      8.713
REMARK INTER + INTRA:         -14.347
REMARK INTER:                 -12.790
REMARK INTRA:                  -1.558
REMARK UNBOUND:                -1.363
REMARK SMILES CC[C@@H](C(=O)O)[C@H]1CCc2cc(OCCc3nc(-c4cccc(C(F)(F)F)c4)oc3C)ccc21
REMARK SMILES IDX 13 1 12 2 7 3 8 4 34 5 9 6 33 7 10 8 32 9 11 10 3 11 2 12
REMARK SMILES IDX 1 13 4 14 5 15 6 16 14 18 15 19 16 20 17 21 30 22 18 23
REMARK SMILES IDX 29 24 31 25 19 26 20 27 28 28 21 29 23 30 22 31 24 32 25 33
REMARK SMILES IDX 26 34 27 35
REMARK H PARENT 6 17
ROOT
ATOM      1  O   UNL     1      -8.658  -6.872 -18.664  1.00  0.00    -0.493 OA
ENDROOT
BRANCH   1   2
ATOM      2  C   UNL     1      -7.592  -6.245 -19.252  1.00  0.00     0.119 A 
ATOM      3  C   UNL     1      -4.407  -4.165 -21.216  1.00  0.00     0.034 C 
ATOM      4  C   UNL     1      -3.307  -4.715 -20.276  1.00  0.00     0.014 C 
ATOM      5  C   UNL     1      -5.638  -4.766 -20.580  1.00  0.00    -0.041 A 
ATOM      6  C   UNL     1      -3.809  -6.077 -19.777  1.00  0.00     0.036 C 
ATOM      7  C   UNL     1      -6.967  -4.422 -20.755  1.00  0.00     0.008 A 
ATOM      8  C   UNL     1      -5.288  -5.850 -19.765  1.00  0.00    -0.041 A 
ATOM      9  C   UNL     1      -7.941  -5.164 -20.080  1.00  0.00     0.047 A 
ATOM     10  C   UNL     1      -6.250  -6.599 -19.101  1.00  0.00     0.050 A 
BRANCH   3  11
ATOM     11  C   UNL     1      -4.418  -2.636 -21.404  1.00  0.00     0.106 C 
BRANCH  11  12
ATOM     12  C   UNL     1      -4.343  -1.813 -20.103  1.00  0.00     0.012 C 
ATOM     13  C   UNL     1      -4.644  -0.336 -20.336  1.00  0.00     0.005 C 
ENDBRANCH  11  12
BRANCH  11  14
ATOM     14  C   UNL     1      -3.325  -2.276 -22.385  1.00  0.00     0.307 C 
ATOM     15  O   UNL     1      -2.210  -1.880 -22.087  1.00  0.00    -0.252 OA
BRANCH  14  16
ATOM     16  O   UNL     1      -3.684  -2.363 -23.677  1.00  0.00    -0.481 OA
ATOM     17  H   UNL     1      -4.643  -2.565 -23.646  1.00  0.00     0.296 HD
ENDBRANCH  14  16
ENDBRANCH  11  14
ENDBRANCH   3  11
ENDBRANCH   1   2
BRANCH   1  18
ATOM     18  C   UNL     1      -9.941  -6.675 -19.265  1.00  0.00     0.236 C 
BRANCH  18  19
ATOM     19  C   UNL     1     -10.619  -8.036 -19.430  1.00  0.00     0.101 C 
BRANCH  19  20
ATOM     20  C   UNL     1     -10.440  -8.593 -20.799  1.00  0.00     0.086 A 
ATOM     21  N   UNL     1      -9.200  -8.605 -21.397  1.00  0.00    -0.214 NA
ATOM     22  C   UNL     1     -11.366  -9.155 -21.652  1.00  0.00     0.125 A 
ATOM     23  C   UNL     1      -9.412  -9.168 -22.574  1.00  0.00     0.226 A 
ATOM     24  O   UNL     1     -10.715  -9.526 -22.793  1.00  0.00    -0.441 OA
ATOM     25  C   UNL     1     -12.810  -9.433 -21.581  1.00  0.00     0.090 C 
BRANCH  23  26
ATOM     26  C   UNL     1      -8.458  -9.453 -23.641  1.00  0.00     0.038 A 
ATOM     27  C   UNL     1      -7.314 -10.237 -23.427  1.00  0.00     0.014 A 
ATOM     28  C   UNL     1      -8.681  -8.933 -24.926  1.00  0.00     0.026 A 
ATOM     29  C   UNL     1      -6.420 -10.496 -24.467  1.00  0.00     0.001 A 
ATOM     30  C   UNL     1      -7.785  -9.178 -25.982  1.00  0.00     0.056 A 
ATOM     31  C   UNL     1      -6.656  -9.973 -25.738  1.00  0.00     0.013 A 
BRANCH  30  32
ATOM     32  C   UNL     1      -8.057  -8.625 -27.359  1.00  0.00     0.416 C 
ATOM     33  F   UNL     1      -8.450  -9.578 -28.250  1.00  0.00    -0.166 F 
ATOM     34  F   UNL     1      -6.960  -8.032 -27.905  1.00  0.00    -0.166 F 
ATOM     35  F   UNL     1      -9.038  -7.679 -27.371  1.00  0.00    -0.166 F 
ENDBRANCH  30  32
ENDBRANCH  23  26
ENDBRANCH  19  20
ENDBRANCH  18  19
ENDBRANCH   1  18
TORSDOF 10
ENDMDL
MODEL 6
REMARK VINA RESULT:    -8.335      4.395      9.776
REMARK INTER + INTRA:         -14.327
REMARK INTER:                 -12.388
REMARK INTRA:                  -1.940
REMARK UNBOUND:                -1.363
REMARK SMILES CC[C@@H](C(=O)O)[C@H]1CCc2cc(OCCc3nc(-c4cccc(C(F)(F)F)c4)oc3C)ccc21
REMARK SMILES IDX 13 1 12 2 7 3 8 4 34 5 9 6 33 7 10 8 32 9 11 10 3 11 2 12
REMARK SMILES IDX 1 13 4 14 5 15 6 16 14 18 15 19 16 20 17 21 30 22 18 23
REMARK SMILES IDX 29 24 31 25 19 26 20 27 28 28 21 29 23 30 22 31 24 32 25 33
REMARK SMILES IDX 26 34 27 35
REMARK H PARENT 6 17
ROOT
ATOM      1  O   UNL     1      -7.665  -8.135 -29.872  1.00  0.00    -0.493 OA
ENDROOT
BRANCH   1   2
ATOM      2  C   UNL     1      -8.066  -8.302 -28.574  1.00  0.00     0.119 A 
ATOM      3  C   UNL     1      -9.129  -8.940 -24.476  1.00  0.00     0.034 C 
ATOM      4  C   UNL     1     -10.346  -7.985 -24.517  1.00  0.00     0.014 C 
ATOM      5  C   UNL     1      -8.586  -8.754 -25.872  1.00  0.00    -0.041 A 
ATOM      6  C   UNL     1     -10.847  -7.989 -25.968  1.00  0.00     0.036 C 
ATOM      7  C   UNL     1      -7.342  -9.092 -26.377  1.00  0.00     0.008 A 
ATOM      8  C   UNL     1      -9.567  -8.213 -26.712  1.00  0.00    -0.041 A 
ATOM      9  C   UNL     1      -7.087  -8.856 -27.731  1.00  0.00     0.047 A 
ATOM     10  C   UNL     1      -9.326  -7.987 -28.060  1.00  0.00     0.050 A 
BRANCH   3  11
ATOM     11  C   UNL     1      -8.135  -8.701 -23.323  1.00  0.00     0.106 C 
BRANCH  11  12
ATOM     12  C   UNL     1      -8.401  -7.442 -22.475  1.00  0.00     0.012 C 
ATOM     13  C   UNL     1      -7.312  -7.207 -21.433  1.00  0.00     0.005 C 
ENDBRANCH  11  12
BRANCH  11  14
ATOM     14  C   UNL     1      -8.072  -9.962 -22.490  1.00  0.00     0.307 C 
ATOM     15  O   UNL     1      -7.052 -10.560 -22.189  1.00  0.00    -0.252 OA
BRANCH  14  16
ATOM     16  O   UNL     1      -9.270 -10.451 -22.126  1.00  0.00    -0.481 OA
ATOM     17  H   UNL     1      -9.467 -11.131 -22.805  1.00  0.00     0.296 HD
ENDBRANCH  14  16
ENDBRANCH  11  14
ENDBRANCH   3  11
ENDBRANCH   1   2
BRANCH   1  18
ATOM     18  C   UNL     1      -8.665  -8.278 -30.885  1.00  0.00     0.236 C 
BRANCH  18  19
ATOM     19  C   UNL     1      -8.416  -7.232 -31.971  1.00  0.00     0.101 C 
BRANCH  19  20
ATOM     20  C   UNL     1      -9.150  -5.963 -31.712  1.00  0.00     0.086 A 
ATOM     21  N   UNL     1     -10.174  -5.917 -30.792  1.00  0.00    -0.214 NA
ATOM     22  C   UNL     1      -8.977  -4.713 -32.267  1.00  0.00     0.125 A 
ATOM     23  C   UNL     1     -10.578  -4.660 -30.818  1.00  0.00     0.226 A 
ATOM     24  O   UNL     1      -9.889  -3.871 -31.699  1.00  0.00    -0.441 OA
ATOM     25  C   UNL     1      -8.060  -4.136 -33.264  1.00  0.00     0.090 C 
BRANCH  23  26
ATOM     26  C   UNL     1     -11.637  -4.020 -30.043  1.00  0.00     0.038 A 
ATOM     27  C   UNL     1     -12.361  -2.924 -30.536  1.00  0.00     0.014 A 
ATOM     28  C   UNL     1     -11.950  -4.507 -28.764  1.00  0.00     0.026 A 
ATOM     29  C   UNL     1     -13.371  -2.333 -29.774  1.00  0.00     0.001 A 
ATOM     30  C   UNL     1     -12.957  -3.916 -27.981  1.00  0.00     0.056 A 
ATOM     31  C   UNL     1     -13.669  -2.828 -28.505  1.00  0.00     0.013 A 
BRANCH  30  32
ATOM     32  C   UNL     1     -13.288  -4.470 -26.617  1.00  0.00     0.416 C 
ATOM     33  F   UNL     1     -14.292  -5.391 -26.643  1.00  0.00    -0.166 F 
ATOM     34  F   UNL     1     -13.690  -3.502 -25.748  1.00  0.00    -0.166 F 
ATOM     35  F   UNL     1     -12.232  -5.090 -26.021  1.00  0.00    -0.166 F 
ENDBRANCH  30  32
ENDBRANCH  23  26
ENDBRANCH  19  20
ENDBRANCH  18  19
ENDBRANCH   1  18
TORSDOF 10
ENDMDL
MODEL 7
REMARK VINA RESULT:    -8.300      1.424      1.919
REMARK INTER + INTRA:         -14.272
REMARK INTER:                 -13.001
REMARK INTRA:                  -1.272
REMARK UNBOUND:                -1.363
REMARK SMILES CC[C@@H](C(=O)O)[C@H]1CCc2cc(OCCc3nc(-c4cccc(C(F)(F)F)c4)oc3C)ccc21
REMARK SMILES IDX 13 1 12 2 7 3 8 4 34 5 9 6 33 7 10 8 32 9 11 10 3 11 2 12
REMARK SMILES IDX 1 13 4 14 5 15 6 16 14 18 15 19 16 20 17 21 30 22 18 23
REMARK SMILES IDX 29 24 31 25 19 26 20 27 28 28 21 29 23 30 22 31 24 32 25 33
REMARK SMILES IDX 26 34 27 35
REMARK H PARENT 6 17
ROOT
ATOM      1  O   UNL     1      -8.968  -7.870 -24.126  1.00  0.00    -0.493 OA
ENDROOT
BRANCH   1   2
ATOM      2  C   UNL     1      -8.982  -8.220 -25.449  1.00  0.00     0.119 A 
ATOM      3  C   UNL     1      -9.252  -9.337 -29.573  1.00  0.00     0.034 C 
ATOM      4  C   UNL     1      -7.776  -8.991 -29.888  1.00  0.00     0.014 C 
ATOM      5  C   UNL     1      -9.332  -8.908 -28.128  1.00  0.00    -0.041 A 
ATOM      6  C   UNL     1      -7.002  -9.177 -28.576  1.00  0.00     0.036 C 
ATOM      7  C   UNL     1     -10.453  -8.673 -27.348  1.00  0.00     0.008 A 
ATOM      8  C   UNL     1      -8.051  -8.819 -27.571  1.00  0.00    -0.041 A 
ATOM      9  C   UNL     1     -10.268  -8.321 -26.008  1.00  0.00     0.047 A 
ATOM     10  C   UNL     1      -7.860  -8.483 -26.237  1.00  0.00     0.050 A 
BRANCH   3  11
ATOM     11  C   UNL     1     -10.297  -8.722 -30.523  1.00  0.00     0.106 C 
BRANCH  11  12
ATOM     12  C   UNL     1      -9.725  -8.070 -31.797  1.00  0.00     0.012 C 
ATOM     13  C   UNL     1     -10.280  -6.668 -32.027  1.00  0.00     0.005 C 
ENDBRANCH  11  12
BRANCH  11  14
ATOM     14  C   UNL     1     -11.334  -9.780 -30.827  1.00  0.00     0.307 C 
ATOM     15  O   UNL     1     -11.144 -10.787 -31.490  1.00  0.00    -0.252 OA
BRANCH  14  16
ATOM     16  O   UNL     1     -12.562  -9.510 -30.352  1.00  0.00    -0.481 OA
ATOM     17  H   UNL     1     -12.531  -8.554 -30.138  1.00  0.00     0.296 HD
ENDBRANCH  14  16
ENDBRANCH  11  14
ENDBRANCH   3  11
ENDBRANCH   1   2
BRANCH   1  18
ATOM     18  C   UNL     1     -10.042  -8.354 -23.313  1.00  0.00     0.236 C 
BRANCH  18  19
ATOM     19  C   UNL     1      -9.598  -8.335 -21.851  1.00  0.00     0.101 C 
BRANCH  19  20
ATOM     20  C   UNL     1      -8.120  -8.223 -21.711  1.00  0.00     0.086 A 
ATOM     21  N   UNL     1      -7.547  -7.090 -21.179  1.00  0.00    -0.214 NA
ATOM     22  C   UNL     1      -7.131  -9.127 -22.039  1.00  0.00     0.125 A 
ATOM     23  C   UNL     1      -6.250  -7.341 -21.200  1.00  0.00     0.226 A 
ATOM     24  O   UNL     1      -5.928  -8.569 -21.715  1.00  0.00    -0.441 OA
ATOM     25  C   UNL     1      -7.110 -10.483 -22.611  1.00  0.00     0.090 C 
BRANCH  23  26
ATOM     26  C   UNL     1      -5.144  -6.500 -20.751  1.00  0.00     0.038 A 
ATOM     27  C   UNL     1      -4.061  -7.020 -20.027  1.00  0.00     0.014 A 
ATOM     28  C   UNL     1      -5.154  -5.128 -21.048  1.00  0.00     0.026 A 
ATOM     29  C   UNL     1      -3.015  -6.193 -19.613  1.00  0.00     0.001 A 
ATOM     30  C   UNL     1      -4.112  -4.281 -20.629  1.00  0.00     0.056 A 
ATOM     31  C   UNL     1      -3.039  -4.832 -19.915  1.00  0.00     0.013 A 
BRANCH  30  32
ATOM     32  C   UNL     1      -4.136  -2.813 -20.977  1.00  0.00     0.416 C 
ATOM     33  F   UNL     1      -4.329  -2.009 -19.895  1.00  0.00    -0.166 F 
ATOM     34  F   UNL     1      -5.131  -2.505 -21.855  1.00  0.00    -0.166 F 
ATOM     35  F   UNL     1      -2.980  -2.382 -21.557  1.00  0.00    -0.166 F 
ENDBRANCH  30  32
ENDBRANCH  23  26
ENDBRANCH  19  20
ENDBRANCH  18  19
ENDBRANCH   1  18
TORSDOF 10
ENDMDL
MODEL 8
REMARK VINA RESULT:    -8.268      4.451     10.296
REMARK INTER + INTRA:         -14.223
REMARK INTER:                 -13.005
REMARK INTRA:                  -1.218
REMARK UNBOUND:                -1.363
REMARK SMILES CC[C@@H](C(=O)O)[C@H]1CCc2cc(OCCc3nc(-c4cccc(C(F)(F)F)c4)oc3C)ccc21
REMARK SMILES IDX 13 1 12 2 7 3 8 4 34 5 9 6 33 7 10 8 32 9 11 10 3 11 2 12
REMARK SMILES IDX 1 13 4 14 5 15 6 16 14 18 15 19 16 20 17 21 30 22 18 23
REMARK SMILES IDX 29 24 31 25 19 26 20 27 28 28 21 29 23 30 22 31 24 32 25 33
REMARK SMILES IDX 26 34 27 35
REMARK H PARENT 6 17
ROOT
ATOM      1  O   UNL     1      -9.113  -9.493 -22.670  1.00  0.00    -0.493 OA
ENDROOT
BRANCH   1   2
ATOM      2  C   UNL     1      -8.345  -8.623 -21.945  1.00  0.00     0.119 A 
ATOM      3  C   UNL     1      -5.759  -6.020 -19.739  1.00  0.00     0.034 C 
ATOM      4  C   UNL     1      -6.865  -4.981 -19.435  1.00  0.00     0.014 C 
ATOM      5  C   UNL     1      -6.524  -6.991 -20.606  1.00  0.00    -0.041 A 
ATOM      6  C   UNL     1      -8.190  -5.754 -19.422  1.00  0.00     0.036 C 
ATOM      7  C   UNL     1      -6.040  -7.978 -21.447  1.00  0.00     0.008 A 
ATOM      8  C   UNL     1      -7.903  -6.832 -20.420  1.00  0.00    -0.041 A 
ATOM      9  C   UNL     1      -6.960  -8.787 -22.121  1.00  0.00     0.047 A 
ATOM     10  C   UNL     1      -8.823  -7.640 -21.075  1.00  0.00     0.050 A 
BRANCH   3  11
ATOM     11  C   UNL     1      -4.459  -5.453 -20.339  1.00  0.00     0.106 C 
BRANCH  11  12
ATOM     12  C   UNL     1      -4.329  -3.918 -20.296  1.00  0.00     0.012 C 
ATOM     13  C   UNL     1      -4.070  -3.321 -21.675  1.00  0.00     0.005 C 
ENDBRANCH  11  12
BRANCH  11  14
ATOM     14  C   UNL     1      -3.292  -6.154 -19.680  1.00  0.00     0.307 C 
ATOM     15  O   UNL     1      -2.145  -5.739 -19.647  1.00  0.00    -0.252 OA
BRANCH  14  16
ATOM     16  O   UNL     1      -3.588  -7.355 -19.154  1.00  0.00    -0.481 OA
ATOM     17  H   UNL     1      -4.484  -7.553 -19.499  1.00  0.00     0.296 HD
ENDBRANCH  14  16
ENDBRANCH  11  14
ENDBRANCH   3  11
ENDBRANCH   1   2
BRANCH   1  18
ATOM     18  C   UNL     1     -10.010  -8.925 -23.631  1.00  0.00     0.236 C 
BRANCH  18  19
ATOM     19  C   UNL     1      -9.275  -7.825 -24.397  1.00  0.00     0.101 C 
BRANCH  19  20
ATOM     20  C   UNL     1      -8.972  -8.221 -25.799  1.00  0.00     0.086 A 
ATOM     21  N   UNL     1      -9.684  -7.689 -26.851  1.00  0.00    -0.214 NA
ATOM     22  C   UNL     1      -8.022  -9.095 -26.285  1.00  0.00     0.125 A 
ATOM     23  C   UNL     1      -9.149  -8.247 -27.922  1.00  0.00     0.226 A 
ATOM     24  O   UNL     1      -8.129  -9.117 -27.646  1.00  0.00    -0.441 OA
ATOM     25  C   UNL     1      -6.977  -9.936 -25.680  1.00  0.00     0.090 C 
BRANCH  23  26
ATOM     26  C   UNL     1      -9.495  -8.055 -29.328  1.00  0.00     0.038 A 
ATOM     27  C   UNL     1     -10.810  -7.795 -29.742  1.00  0.00     0.014 A 
ATOM     28  C   UNL     1      -8.489  -8.130 -30.304  1.00  0.00     0.026 A 
ATOM     29  C   UNL     1     -11.111  -7.612 -31.093  1.00  0.00     0.001 A 
ATOM     30  C   UNL     1      -8.778  -7.958 -31.669  1.00  0.00     0.056 A 
ATOM     31  C   UNL     1     -10.100  -7.690 -32.050  1.00  0.00     0.013 A 
BRANCH  30  32
ATOM     32  C   UNL     1      -7.676  -8.023 -32.698  1.00  0.00     0.416 C 
ATOM     33  F   UNL     1      -6.460  -8.319 -32.161  1.00  0.00    -0.166 F 
ATOM     34  F   UNL     1      -7.516  -6.844 -33.360  1.00  0.00    -0.166 F 
ATOM     35  F   UNL     1      -7.896  -8.964 -33.658  1.00  0.00    -0.166 F 
ENDBRANCH  30  32
ENDBRANCH  23  26
ENDBRANCH  19  20
ENDBRANCH  18  19
ENDBRANCH   1  18
TORSDOF 10
ENDMDL
MODEL 9
REMARK VINA RESULT:    -8.038      5.472      8.650
REMARK INTER + INTRA:         -13.866
REMARK INTER:                 -12.033
REMARK INTRA:                  -1.833
REMARK UNBOUND:                -1.363
REMARK SMILES CC[C@@H](C(=O)O)[C@H]1CCc2cc(OCCc3nc(-c4cccc(C(F)(F)F)c4)oc3C)ccc21
REMARK SMILES IDX 13 1 12 2 7 3 8 4 34 5 9 6 33 7 10 8 32 9 11 10 3 11 2 12
REMARK SMILES IDX 1 13 4 14 5 15 6 16 14 18 15 19 16 20 17 21 30 22 18 23
REMARK SMILES IDX 29 24 31 25 19 26 20 27 28 28 21 29 23 30 22 31 24 32 25 33
REMARK SMILES IDX 26 34 27 35
REMARK H PARENT 6 17
ROOT
ATOM      1  O   UNL     1      -7.832  -6.742 -33.612  1.00  0.00    -0.493 OA
ENDROOT
BRANCH   1   2
ATOM      2  C   UNL     1      -8.676  -5.910 -32.927  1.00  0.00     0.119 A 
ATOM      3  C   UNL     1     -11.482  -3.457 -30.821  1.00  0.00     0.034 C 
ATOM      4  C   UNL     1     -10.410  -2.476 -30.290  1.00  0.00     0.014 C 
ATOM      5  C   UNL     1     -10.609  -4.457 -31.539  1.00  0.00    -0.041 A 
ATOM      6  C   UNL     1      -9.266  -2.494 -31.313  1.00  0.00     0.036 C 
ATOM      7  C   UNL     1     -10.919  -5.736 -31.971  1.00  0.00     0.008 A 
ATOM      8  C   UNL     1      -9.352  -3.902 -31.814  1.00  0.00    -0.041 A 
ATOM      9  C   UNL     1      -9.942  -6.460 -32.660  1.00  0.00     0.047 A 
ATOM     10  C   UNL     1      -8.381  -4.611 -32.509  1.00  0.00     0.050 A 
BRANCH   3  11
ATOM     11  C   UNL     1     -12.441  -4.032 -29.760  1.00  0.00     0.106 C 
BRANCH  11  12
ATOM     12  C   UNL     1     -11.787  -4.405 -28.416  1.00  0.00     0.012 C 
ATOM     13  C   UNL     1     -11.578  -5.909 -28.273  1.00  0.00     0.005 C 
ENDBRANCH  11  12
BRANCH  11  14
ATOM     14  C   UNL     1     -13.594  -3.067 -29.599  1.00  0.00     0.307 C 
ATOM     15  O   UNL     1     -14.370  -3.044 -28.657  1.00  0.00    -0.252 OA
BRANCH  14  16
ATOM     16  O   UNL     1     -13.768  -2.227 -30.634  1.00  0.00    -0.481 OA
ATOM     17  H   UNL     1     -13.830  -1.342 -30.216  1.00  0.00     0.296 HD
ENDBRANCH  14  16
ENDBRANCH  11  14
ENDBRANCH   3  11
ENDBRANCH   1   2
BRANCH   1  18
ATOM     18  C   UNL     1      -7.947  -8.145 -33.351  1.00  0.00     0.236 C 
BRANCH  18  19
ATOM     19  C   UNL     1      -6.943  -8.525 -32.263  1.00  0.00     0.101 C 
BRANCH  19  20
ATOM     20  C   UNL     1      -7.610  -8.988 -31.016  1.00  0.00     0.086 A 
ATOM     21  N   UNL     1      -7.209  -8.519 -29.785  1.00  0.00    -0.214 NA
ATOM     22  C   UNL     1      -8.653  -9.876 -30.850  1.00  0.00     0.125 A 
ATOM     23  C   UNL     1      -8.010  -9.125 -28.928  1.00  0.00     0.226 A 
ATOM     24  O   UNL     1      -8.916  -9.969 -29.513  1.00  0.00    -0.441 OA
ATOM     25  C   UNL     1      -9.494 -10.674 -31.757  1.00  0.00     0.090 C 
BRANCH  23  26
ATOM     26  C   UNL     1      -8.056  -9.010 -27.473  1.00  0.00     0.038 A 
ATOM     27  C   UNL     1      -8.914  -8.109 -26.825  1.00  0.00     0.014 A 
ATOM     28  C   UNL     1      -7.220  -9.819 -26.688  1.00  0.00     0.026 A 
ATOM     29  C   UNL     1      -8.939  -8.022 -25.432  1.00  0.00     0.001 A 
ATOM     30  C   UNL     1      -7.227  -9.736 -25.284  1.00  0.00     0.056 A 
ATOM     31  C   UNL     1      -8.103  -8.833 -24.666  1.00  0.00     0.013 A 
BRANCH  30  32
ATOM     32  C   UNL     1      -6.333 -10.632 -24.462  1.00  0.00     0.416 C 
ATOM     33  F   UNL     1      -6.637 -10.617 -23.134  1.00  0.00    -0.166 F 
ATOM     34  F   UNL     1      -5.022 -10.276 -24.550  1.00  0.00    -0.166 F 
ATOM     35  F   UNL     1      -6.392 -11.939 -24.841  1.00  0.00    -0.166 F 
ENDBRANCH  30  32
ENDBRANCH  23  26
ENDBRANCH  19  20
ENDBRANCH  18  19
ENDBRANCH   1  18
TORSDOF 10
ENDMDL
