MODEL 1
REMARK VINA RESULT:    -9.894      0.000      0.000
REMARK INTER + INTRA:         -13.866
REMARK INTER:                 -13.075
REMARK INTRA:                  -0.791
REMARK UNBOUND:                -0.791
REMARK SMILES COc1ccccc1-c1cc2c(N[C@@H]3CC[C@](C)(N)C3(C)C)c(C(N)=O)cnn2c1
REMARK SMILES IDX 9 1 10 2 11 3 12 4 23 5 27 6 28 7 29 8 30 9 8 10 3 11 4 12
REMARK SMILES IDX 5 13 7 14 6 15 2 16 1 17 13 18 14 20 15 21 20 22 16 23 17 24
REMARK SMILES IDX 21 25 22 26 18 27 19 28 24 31 25 32 26 33
REMARK H PARENT 13 19 19 29 19 30 25 34 25 35
ROOT
ATOM      1  C   UNL     1      -5.056  26.776 -31.420  1.00  0.00     0.006 A 
ATOM      2  C   UNL     1      -4.613  25.676 -30.641  1.00  0.00     0.041 A 
ATOM      3  C   UNL     1      -4.943  24.513 -31.321  1.00  0.00     0.089 A 
ATOM      4  C   UNL     1      -4.758  23.117 -31.047  1.00  0.00     0.075 A 
ATOM      5  C   UNL     1      -5.126  22.252 -32.022  1.00  0.00     0.085 A 
ATOM      6  C   UNL     1      -5.825  22.823 -33.207  1.00  0.00     0.150 A 
ATOM      7  N   UNL     1      -6.054  24.072 -33.458  1.00  0.00    -0.176 NA
ATOM      8  N   UNL     1      -5.577  24.890 -32.491  1.00  0.00    -0.238 N 
ATOM      9  C   UNL     1      -5.662  26.258 -32.544  1.00  0.00     0.122 A 
ENDROOT
BRANCH   1  10
ATOM     10  C   UNL     1      -4.937  28.198 -31.160  1.00  0.00     0.025 A 
ATOM     11  C   UNL     1      -4.165  28.687 -30.088  1.00  0.00     0.126 A 
ATOM     12  C   UNL     1      -4.098  30.069 -29.874  1.00  0.00     0.047 A 
ATOM     13  C   UNL     1      -4.775  30.954 -30.719  1.00  0.00     0.004 A 
ATOM     14  C   UNL     1      -5.614  29.092 -32.003  1.00  0.00     0.012 A 
ATOM     15  C   UNL     1      -5.531  30.466 -31.783  1.00  0.00     0.001 A 
BRANCH  11  16
ATOM     16  O   UNL     1      -3.535  27.757 -29.300  1.00  0.00    -0.496 OA
ATOM     17  C   UNL     1      -3.549  27.983 -27.899  1.00  0.00     0.278 C 
ENDBRANCH  11  16
ENDBRANCH   1  10
BRANCH   4  18
ATOM     18  N   UNL     1      -4.196  22.770 -29.816  1.00  0.00    -0.379 N 
ATOM     19  H   UNL     1      -4.494  21.846 -29.473  1.00  0.00     0.160 HD
BRANCH  18  20
ATOM     20  C   UNL     1      -2.804  23.030 -29.421  1.00  0.00     0.086 C 
ATOM     21  C   UNL     1      -1.971  21.741 -29.593  1.00  0.00     0.027 C 
ATOM     22  C   UNL     1      -2.693  23.353 -27.898  1.00  0.00     0.003 C 
ATOM     23  C   UNL     1      -1.847  21.096 -28.206  1.00  0.00     0.024 C 
ATOM     24  C   UNL     1      -2.733  21.925 -27.253  1.00  0.00     0.020 C 
ATOM     25  C   UNL     1      -1.343  24.075 -27.644  1.00  0.00     0.015 C 
ATOM     26  C   UNL     1      -3.794  24.301 -27.384  1.00  0.00     0.015 C 
ATOM     27  C   UNL     1      -2.231  21.844 -25.807  1.00  0.00     0.028 C 
BRANCH  24  28
ATOM     28  N   UNL     1      -4.097  21.350 -27.290  1.00  0.00    -0.325 NA
ATOM     29  H   UNL     1      -4.116  20.567 -27.947  1.00  0.00     0.119 HD
ATOM     30  H   UNL     1      -4.746  22.038 -27.679  1.00  0.00     0.119 HD
ENDBRANCH  24  28
ENDBRANCH  18  20
ENDBRANCH   4  18
BRANCH   5  31
ATOM     31  C   UNL     1      -4.890  20.784 -32.007  1.00  0.00     0.252 C 
ATOM     32  N   UNL     1      -5.993  19.997 -32.118  1.00  0.00    -0.365 N 
ATOM     33  O   UNL     1      -3.778  20.302 -31.824  1.00  0.00    -0.269 OA
ATOM     34  H   UNL     1      -5.892  18.992 -32.082  1.00  0.00     0.159 HD
ATOM     35  H   UNL     1      -6.899  20.412 -32.320  1.00  0.00     0.159 HD
ENDBRANCH   5  31
TORSDOF 6
ENDMDL
MODEL 2
REMARK VINA RESULT:    -9.140      1.651      2.725
REMARK INTER + INTRA:         -12.870
REMARK INTER:                 -12.423
REMARK INTRA:                  -0.446
REMARK UNBOUND:                -0.791
REMARK SMILES COc1ccccc1-c1cc2c(N[C@@H]3CC[C@](C)(N)C3(C)C)c(C(N)=O)cnn2c1
REMARK SMILES IDX 9 1 10 2 11 3 12 4 23 5 27 6 28 7 29 8 30 9 8 10 3 11 4 12
REMARK SMILES IDX 5 13 7 14 6 15 2 16 1 17 13 18 14 20 15 21 20 22 16 23 17 24
REMARK SMILES IDX 21 25 22 26 18 27 19 28 24 31 25 32 26 33
REMARK H PARENT 13 19 19 29 19 30 25 34 25 35
ROOT
ATOM      1  C   UNL     1      -4.240  28.161 -30.237  1.00  0.00     0.006 A 
ATOM      2  C   UNL     1      -3.951  26.776 -30.131  1.00  0.00     0.041 A 
ATOM      3  C   UNL     1      -4.672  26.115 -31.114  1.00  0.00     0.089 A 
ATOM      4  C   UNL     1      -4.791  24.738 -31.500  1.00  0.00     0.075 A 
ATOM      5  C   UNL     1      -5.528  24.478 -32.607  1.00  0.00     0.085 A 
ATOM      6  C   UNL     1      -6.263  25.622 -33.215  1.00  0.00     0.150 A 
ATOM      7  N   UNL     1      -6.218  26.865 -32.858  1.00  0.00    -0.176 NA
ATOM      8  N   UNL     1      -5.391  27.071 -31.808  1.00  0.00    -0.238 N 
ATOM      9  C   UNL     1      -5.144  28.307 -31.268  1.00  0.00     0.122 A 
ENDROOT
BRANCH   1  10
ATOM     10  C   UNL     1      -3.731  29.272 -29.457  1.00  0.00     0.025 A 
ATOM     11  C   UNL     1      -3.610  29.193 -28.056  1.00  0.00     0.126 A 
ATOM     12  C   UNL     1      -3.127  30.301 -27.351  1.00  0.00     0.047 A 
ATOM     13  C   UNL     1      -2.754  31.467 -28.028  1.00  0.00     0.004 A 
ATOM     14  C   UNL     1      -3.355  30.446 -30.128  1.00  0.00     0.012 A 
ATOM     15  C   UNL     1      -2.867  31.539 -29.415  1.00  0.00     0.001 A 
BRANCH  11  16
ATOM     16  O   UNL     1      -4.001  28.018 -27.464  1.00  0.00    -0.496 OA
ATOM     17  C   UNL     1      -2.978  27.199 -26.918  1.00  0.00     0.278 C 
ENDBRANCH  11  16
ENDBRANCH   1  10
BRANCH   4  18
ATOM     18  N   UNL     1      -4.123  23.790 -30.722  1.00  0.00    -0.379 N 
ATOM     19  H   UNL     1      -3.101  23.915 -30.707  1.00  0.00     0.160 HD
BRANCH  18  20
ATOM     20  C   UNL     1      -4.588  23.285 -29.422  1.00  0.00     0.086 C 
ATOM     21  C   UNL     1      -3.898  24.074 -28.287  1.00  0.00     0.027 C 
ATOM     22  C   UNL     1      -4.137  21.810 -29.186  1.00  0.00     0.003 C 
ATOM     23  C   UNL     1      -2.734  23.210 -27.781  1.00  0.00     0.024 C 
ATOM     24  C   UNL     1      -2.651  21.987 -28.719  1.00  0.00     0.020 C 
ATOM     25  C   UNL     1      -5.032  21.191 -28.080  1.00  0.00     0.015 C 
ATOM     26  C   UNL     1      -4.297  20.908 -30.426  1.00  0.00     0.015 C 
ATOM     27  C   UNL     1      -2.039  20.776 -28.009  1.00  0.00     0.028 C 
BRANCH  24  28
ATOM     28  N   UNL     1      -1.765  22.345 -29.850  1.00  0.00    -0.325 NA
ATOM     29  H   UNL     1      -0.996  22.923 -29.506  1.00  0.00     0.119 HD
ATOM     30  H   UNL     1      -2.274  22.942 -30.505  1.00  0.00     0.119 HD
ENDBRANCH  24  28
ENDBRANCH  18  20
ENDBRANCH   4  18
BRANCH   5  31
ATOM     31  C   UNL     1      -5.662  23.150 -33.261  1.00  0.00     0.252 C 
ATOM     32  N   UNL     1      -6.722  22.997 -34.098  1.00  0.00    -0.365 N 
ATOM     33  O   UNL     1      -4.910  22.215 -33.006  1.00  0.00    -0.269 OA
ATOM     34  H   UNL     1      -6.877  22.103 -34.545  1.00  0.00     0.159 HD
ATOM     35  H   UNL     1      -7.304  23.795 -34.337  1.00  0.00     0.159 HD
ENDBRANCH   5  31
TORSDOF 6
ENDMDL
MODEL 3
REMARK VINA RESULT:    -8.307      4.033      6.684
REMARK INTER + INTRA:         -11.770
REMARK INTER:                 -10.465
REMARK INTRA:                  -1.305
REMARK UNBOUND:                -0.791
REMARK SMILES COc1ccccc1-c1cc2c(N[C@@H]3CC[C@](C)(N)C3(C)C)c(C(N)=O)cnn2c1
REMARK SMILES IDX 9 1 10 2 11 3 12 4 23 5 27 6 28 7 29 8 30 9 8 10 3 11 4 12
REMARK SMILES IDX 5 13 7 14 6 15 2 16 1 17 13 18 14 20 15 21 20 22 16 23 17 24
REMARK SMILES IDX 21 25 22 26 18 27 19 28 24 31 25 32 26 33
REMARK H PARENT 13 19 19 29 19 30 25 34 25 35
ROOT
ATOM      1  C   UNL     1      -2.981  24.744 -28.461  1.00  0.00     0.006 A 
ATOM      2  C   UNL     1      -1.980  25.255 -27.595  1.00  0.00     0.041 A 
ATOM      3  C   UNL     1      -1.655  24.260 -26.686  1.00  0.00     0.089 A 
ATOM      4  C   UNL     1      -0.731  24.180 -25.590  1.00  0.00     0.075 A 
ATOM      5  C   UNL     1      -0.612  22.975 -24.983  1.00  0.00     0.085 A 
ATOM      6  C   UNL     1      -1.559  21.906 -25.406  1.00  0.00     0.150 A 
ATOM      7  N   UNL     1      -2.438  21.964 -26.354  1.00  0.00    -0.176 NA
ATOM      8  N   UNL     1      -2.441  23.161 -26.984  1.00  0.00    -0.238 N 
ATOM      9  C   UNL     1      -3.255  23.458 -28.046  1.00  0.00     0.122 A 
ENDROOT
BRANCH   1  10
ATOM     10  C   UNL     1      -3.641  25.379 -29.586  1.00  0.00     0.025 A 
ATOM     11  C   UNL     1      -4.329  26.599 -29.440  1.00  0.00     0.126 A 
ATOM     12  C   UNL     1      -4.961  27.160 -30.556  1.00  0.00     0.047 A 
ATOM     13  C   UNL     1      -4.899  26.527 -31.802  1.00  0.00     0.004 A 
ATOM     14  C   UNL     1      -3.583  24.750 -30.838  1.00  0.00     0.012 A 
ATOM     15  C   UNL     1      -4.209  25.324 -31.943  1.00  0.00     0.001 A 
BRANCH  11  16
ATOM     16  O   UNL     1      -4.351  27.155 -28.186  1.00  0.00    -0.496 OA
ATOM     17  C   UNL     1      -3.690  28.401 -28.021  1.00  0.00     0.278 C 
ENDBRANCH  11  16
ENDBRANCH   1  10
BRANCH   4  18
ATOM     18  N   UNL     1      -0.020  25.336 -25.261  1.00  0.00    -0.379 N 
ATOM     19  H   UNL     1      -0.041  25.560 -24.256  1.00  0.00     0.160 HD
BRANCH  18  20
ATOM     20  C   UNL     1       1.277  25.722 -25.836  1.00  0.00     0.086 C 
ATOM     21  C   UNL     1       2.399  25.436 -24.815  1.00  0.00     0.027 C 
ATOM     22  C   UNL     1       1.361  27.262 -26.072  1.00  0.00     0.003 C 
ATOM     23  C   UNL     1       2.734  26.768 -24.129  1.00  0.00     0.024 C 
ATOM     24  C   UNL     1       1.705  27.799 -24.640  1.00  0.00     0.020 C 
ATOM     25  C   UNL     1       2.496  27.543 -27.093  1.00  0.00     0.015 C 
ATOM     26  C   UNL     1       0.078  27.868 -26.675  1.00  0.00     0.015 C 
ATOM     27  C   UNL     1       2.266  29.223 -24.591  1.00  0.00     0.028 C 
BRANCH  24  28
ATOM     28  N   UNL     1       0.528  27.745 -23.743  1.00  0.00    -0.325 NA
ATOM     29  H   UNL     1      -0.178  28.406 -24.074  1.00  0.00     0.119 HD
ATOM     30  H   UNL     1       0.792  28.081 -22.814  1.00  0.00     0.119 HD
ENDBRANCH  24  28
ENDBRANCH  18  20
ENDBRANCH   4  18
BRANCH   5  31
ATOM     31  C   UNL     1       0.382  22.635 -23.931  1.00  0.00     0.252 C 
ATOM     32  N   UNL     1       1.195  21.577 -24.192  1.00  0.00    -0.365 N 
ATOM     33  O   UNL     1       0.420  23.218 -22.853  1.00  0.00    -0.269 OA
ATOM     34  H   UNL     1       1.868  21.284 -23.497  1.00  0.00     0.159 HD
ATOM     35  H   UNL     1       1.184  21.139 -25.109  1.00  0.00     0.159 HD
ENDBRANCH   5  31
TORSDOF 6
ENDMDL
MODEL 4
REMARK VINA RESULT:    -8.231      2.257      3.217
REMARK INTER + INTRA:         -11.668
REMARK INTER:                 -11.572
REMARK INTRA:                  -0.096
REMARK UNBOUND:                -0.791
REMARK SMILES COc1ccccc1-c1cc2c(N[C@@H]3CC[C@](C)(N)C3(C)C)c(C(N)=O)cnn2c1
REMARK SMILES IDX 9 1 10 2 11 3 12 4 23 5 27 6 28 7 29 8 30 9 8 10 3 11 4 12
REMARK SMILES IDX 5 13 7 14 6 15 2 16 1 17 13 18 14 20 15 21 20 22 16 23 17 24
REMARK SMILES IDX 21 25 22 26 18 27 19 28 24 31 25 32 26 33
REMARK H PARENT 13 19 19 29 19 30 25 34 25 35
ROOT
ATOM      1  C   UNL     1      -4.304  26.660 -30.348  1.00  0.00     0.006 A 
ATOM      2  C   UNL     1      -3.381  26.100 -29.427  1.00  0.00     0.041 A 
ATOM      3  C   UNL     1      -3.456  24.720 -29.535  1.00  0.00     0.089 A 
ATOM      4  C   UNL     1      -2.782  23.635 -28.880  1.00  0.00     0.075 A 
ATOM      5  C   UNL     1      -3.049  22.389 -29.339  1.00  0.00     0.085 A 
ATOM      6  C   UNL     1      -4.124  22.258 -30.361  1.00  0.00     0.150 A 
ATOM      7  N   UNL     1      -4.787  23.212 -30.932  1.00  0.00    -0.176 NA
ATOM      8  N   UNL     1      -4.406  24.436 -30.499  1.00  0.00    -0.238 N 
ATOM      9  C   UNL     1      -4.933  25.608 -30.980  1.00  0.00     0.122 A 
ENDROOT
BRANCH   1  10
ATOM     10  C   UNL     1      -4.594  28.052 -30.633  1.00  0.00     0.025 A 
ATOM     11  C   UNL     1      -4.153  29.084 -29.783  1.00  0.00     0.126 A 
ATOM     12  C   UNL     1      -4.474  30.409 -30.098  1.00  0.00     0.047 A 
ATOM     13  C   UNL     1      -5.211  30.708 -31.248  1.00  0.00     0.004 A 
ATOM     14  C   UNL     1      -5.334  28.360 -31.785  1.00  0.00     0.012 A 
ATOM     15  C   UNL     1      -5.640  29.684 -32.091  1.00  0.00     0.001 A 
BRANCH  11  16
ATOM     16  O   UNL     1      -3.440  28.711 -28.671  1.00  0.00    -0.496 OA
ATOM     17  C   UNL     1      -3.226  29.703 -27.678  1.00  0.00     0.278 C 
ENDBRANCH  11  16
ENDBRANCH   1  10
BRANCH   4  18
ATOM     18  N   UNL     1      -1.896  23.955 -27.850  1.00  0.00    -0.379 N 
ATOM     19  H   UNL     1      -0.943  24.171 -28.177  1.00  0.00     0.160 HD
BRANCH  18  20
ATOM     20  C   UNL     1      -2.225  24.780 -26.678  1.00  0.00     0.086 C 
ATOM     21  C   UNL     1      -1.648  26.200 -26.870  1.00  0.00     0.027 C 
ATOM     22  C   UNL     1      -1.517  24.254 -25.391  1.00  0.00     0.003 C 
ATOM     23  C   UNL     1      -0.337  26.265 -26.076  1.00  0.00     0.024 C 
ATOM     24  C   UNL     1      -0.071  24.841 -25.545  1.00  0.00     0.020 C 
ATOM     25  C   UNL     1      -2.255  24.827 -24.153  1.00  0.00     0.015 C 
ATOM     26  C   UNL     1      -1.555  22.720 -25.245  1.00  0.00     0.015 C 
ATOM     27  C   UNL     1       0.765  24.867 -24.261  1.00  0.00     0.028 C 
BRANCH  24  28
ATOM     28  N   UNL     1       0.704  24.112 -26.574  1.00  0.00    -0.325 NA
ATOM     29  H   UNL     1       1.042  23.231 -26.182  1.00  0.00     0.119 HD
ATOM     30  H   UNL     1       1.548  24.642 -26.803  1.00  0.00     0.119 HD
ENDBRANCH  24  28
ENDBRANCH  18  20
ENDBRANCH   4  18
BRANCH   5  31
ATOM     31  C   UNL     1      -2.358  21.145 -28.905  1.00  0.00     0.252 C 
ATOM     32  N   UNL     1      -2.029  20.267 -29.889  1.00  0.00    -0.365 N 
ATOM     33  O   UNL     1      -2.165  20.882 -27.724  1.00  0.00    -0.269 OA
ATOM     34  H   UNL     1      -1.586  19.391 -29.646  1.00  0.00     0.159 HD
ATOM     35  H   UNL     1      -2.151  20.523 -30.865  1.00  0.00     0.159 HD
ENDBRANCH   5  31
TORSDOF 6
ENDMDL
MODEL 5
REMARK VINA RESULT:    -8.042      3.792      6.467
REMARK INTER + INTRA:         -11.419
REMARK INTER:                 -10.596
REMARK INTRA:                  -0.823
REMARK UNBOUND:                -0.791
REMARK SMILES COc1ccccc1-c1cc2c(N[C@@H]3CC[C@](C)(N)C3(C)C)c(C(N)=O)cnn2c1
REMARK SMILES IDX 9 1 10 2 11 3 12 4 23 5 27 6 28 7 29 8 30 9 8 10 3 11 4 12
REMARK SMILES IDX 5 13 7 14 6 15 2 16 1 17 13 18 14 20 15 21 20 22 16 23 17 24
REMARK SMILES IDX 21 25 22 26 18 27 19 28 24 31 25 32 26 33
REMARK H PARENT 13 19 19 29 19 30 25 34 25 35
ROOT
ATOM      1  C   UNL     1      -3.438  24.899 -29.075  1.00  0.00     0.006 A 
ATOM      2  C   UNL     1      -2.455  25.470 -28.228  1.00  0.00     0.041 A 
ATOM      3  C   UNL     1      -2.084  24.509 -27.299  1.00  0.00     0.089 A 
ATOM      4  C   UNL     1      -1.152  24.492 -26.208  1.00  0.00     0.075 A 
ATOM      5  C   UNL     1      -0.979  23.307 -25.575  1.00  0.00     0.085 A 
ATOM      6  C   UNL     1      -1.882  22.190 -25.969  1.00  0.00     0.150 A 
ATOM      7  N   UNL     1      -2.769  22.191 -26.912  1.00  0.00    -0.176 NA
ATOM      8  N   UNL     1      -2.825  23.373 -27.568  1.00  0.00    -0.238 N 
ATOM      9  C   UNL     1      -3.657  23.612 -28.631  1.00  0.00     0.122 A 
ENDROOT
BRANCH   1  10
ATOM     10  C   UNL     1      -4.130  25.481 -30.209  1.00  0.00     0.025 A 
ATOM     11  C   UNL     1      -4.492  24.706 -31.327  1.00  0.00     0.126 A 
ATOM     12  C   UNL     1      -5.145  25.323 -32.401  1.00  0.00     0.047 A 
ATOM     13  C   UNL     1      -5.448  26.687 -32.359  1.00  0.00     0.004 A 
ATOM     14  C   UNL     1      -4.437  26.850 -30.175  1.00  0.00     0.012 A 
ATOM     15  C   UNL     1      -5.096  27.450 -31.247  1.00  0.00     0.001 A 
BRANCH  11  16
ATOM     16  O   UNL     1      -4.155  23.376 -31.297  1.00  0.00    -0.496 OA
ATOM     17  C   UNL     1      -4.941  22.493 -32.083  1.00  0.00     0.278 C 
ENDBRANCH  11  16
ENDBRANCH   1  10
BRANCH   4  18
ATOM     18  N   UNL     1      -0.487  25.683 -25.908  1.00  0.00    -0.379 N 
ATOM     19  H   UNL     1      -0.445  25.889 -24.900  1.00  0.00     0.160 HD
BRANCH  18  20
ATOM     20  C   UNL     1       0.737  26.157 -26.571  1.00  0.00     0.086 C 
ATOM     21  C   UNL     1       1.972  25.599 -25.830  1.00  0.00     0.027 C 
ATOM     22  C   UNL     1       0.889  27.705 -26.450  1.00  0.00     0.003 C 
ATOM     23  C   UNL     1       2.489  26.715 -24.912  1.00  0.00     0.024 C 
ATOM     24  C   UNL     1       1.469  27.870 -25.003  1.00  0.00     0.020 C 
ATOM     25  C   UNL     1       1.883  28.189 -27.539  1.00  0.00     0.015 C 
ATOM     26  C   UNL     1      -0.423  28.478 -26.688  1.00  0.00     0.015 C 
ATOM     27  C   UNL     1       2.124  29.223 -24.709  1.00  0.00     0.028 C 
BRANCH  24  28
ATOM     28  N   UNL     1       0.431  27.638 -23.973  1.00  0.00    -0.325 NA
ATOM     29  H   UNL     1      -0.485  27.581 -24.423  1.00  0.00     0.119 HD
ATOM     30  H   UNL     1       0.374  28.452 -23.357  1.00  0.00     0.119 HD
ENDBRANCH  24  28
ENDBRANCH  18  20
ENDBRANCH   4  18
BRANCH   5  31
ATOM     31  C   UNL     1       0.035  23.031 -24.522  1.00  0.00     0.252 C 
ATOM     32  N   UNL     1       0.713  21.858 -24.634  1.00  0.00    -0.365 N 
ATOM     33  O   UNL     1       0.199  23.775 -23.562  1.00  0.00    -0.269 OA
ATOM     34  H   UNL     1       1.391  21.608 -23.928  1.00  0.00     0.159 HD
ATOM     35  H   UNL     1       0.600  21.279 -25.462  1.00  0.00     0.159 HD
ENDBRANCH   5  31
TORSDOF 6
ENDMDL
MODEL 6
REMARK VINA RESULT:    -7.894      3.793      7.736
REMARK INTER + INTRA:         -11.224
REMARK INTER:                 -11.068
REMARK INTRA:                  -0.156
REMARK UNBOUND:                -0.791
REMARK SMILES COc1ccccc1-c1cc2c(N[C@@H]3CC[C@](C)(N)C3(C)C)c(C(N)=O)cnn2c1
REMARK SMILES IDX 9 1 10 2 11 3 12 4 23 5 27 6 28 7 29 8 30 9 8 10 3 11 4 12
REMARK SMILES IDX 5 13 7 14 6 15 2 16 1 17 13 18 14 20 15 21 20 22 16 23 17 24
REMARK SMILES IDX 21 25 22 26 18 27 19 28 24 31 25 32 26 33
REMARK H PARENT 13 19 19 29 19 30 25 34 25 35
ROOT
ATOM      1  C   UNL     1      -4.434  26.653 -30.779  1.00  0.00     0.006 A 
ATOM      2  C   UNL     1      -3.754  27.578 -29.946  1.00  0.00     0.041 A 
ATOM      3  C   UNL     1      -4.219  28.848 -30.253  1.00  0.00     0.089 A 
ATOM      4  C   UNL     1      -3.918  30.162 -29.758  1.00  0.00     0.075 A 
ATOM      5  C   UNL     1      -4.673  31.179 -30.237  1.00  0.00     0.085 A 
ATOM      6  C   UNL     1      -5.625  30.858 -31.337  1.00  0.00     0.150 A 
ATOM      7  N   UNL     1      -5.880  29.693 -31.841  1.00  0.00    -0.176 NA
ATOM      8  N   UNL     1      -5.163  28.707 -31.254  1.00  0.00    -0.238 N 
ATOM      9  C   UNL     1      -5.282  27.382 -31.585  1.00  0.00     0.122 A 
ENDROOT
BRANCH   1  10
ATOM     10  C   UNL     1      -4.322  25.208 -30.837  1.00  0.00     0.025 A 
ATOM     11  C   UNL     1      -3.618  24.485 -29.855  1.00  0.00     0.126 A 
ATOM     12  C   UNL     1      -3.528  23.093 -29.968  1.00  0.00     0.047 A 
ATOM     13  C   UNL     1      -4.139  22.426 -31.035  1.00  0.00     0.004 A 
ATOM     14  C   UNL     1      -4.931  24.531 -31.904  1.00  0.00     0.012 A 
ATOM     15  C   UNL     1      -4.841  23.144 -32.001  1.00  0.00     0.001 A 
BRANCH  11  16
ATOM     16  O   UNL     1      -3.041  25.211 -28.843  1.00  0.00    -0.496 OA
ATOM     17  C   UNL     1      -3.271  24.764 -27.515  1.00  0.00     0.278 C 
ENDBRANCH  11  16
ENDBRANCH   1  10
BRANCH   4  18
ATOM     18  N   UNL     1      -2.897  30.276 -28.813  1.00  0.00    -0.379 N 
ATOM     19  H   UNL     1      -2.349  29.413 -28.690  1.00  0.00     0.160 HD
BRANCH  18  20
ATOM     20  C   UNL     1      -2.028  31.451 -28.647  1.00  0.00     0.086 C 
ATOM     21  C   UNL     1      -0.650  31.165 -29.283  1.00  0.00     0.027 C 
ATOM     22  C   UNL     1      -1.704  31.715 -27.144  1.00  0.00     0.003 C 
ATOM     23  C   UNL     1       0.300  30.773 -28.144  1.00  0.00     0.024 C 
ATOM     24  C   UNL     1      -0.559  30.682 -26.864  1.00  0.00     0.020 C 
ATOM     25  C   UNL     1      -1.222  33.182 -26.993  1.00  0.00     0.015 C 
ATOM     26  C   UNL     1      -2.923  31.563 -26.211  1.00  0.00     0.015 C 
ATOM     27  C   UNL     1       0.275  30.952 -25.608  1.00  0.00     0.028 C 
BRANCH  24  28
ATOM     28  N   UNL     1      -1.084  29.301 -26.771  1.00  0.00    -0.325 NA
ATOM     29  H   UNL     1      -0.325  28.668 -26.509  1.00  0.00     0.119 HD
ATOM     30  H   UNL     1      -1.384  28.987 -27.696  1.00  0.00     0.119 HD
ENDBRANCH  24  28
ENDBRANCH  18  20
ENDBRANCH   4  18
BRANCH   5  31
ATOM     31  C   UNL     1      -4.629  32.586 -29.757  1.00  0.00     0.252 C 
ATOM     32  N   UNL     1      -5.468  32.898 -28.734  1.00  0.00    -0.365 N 
ATOM     33  O   UNL     1      -3.936  33.440 -30.299  1.00  0.00    -0.269 OA
ATOM     34  H   UNL     1      -5.499  33.848 -28.390  1.00  0.00     0.159 HD
ATOM     35  H   UNL     1      -5.996  32.168 -28.265  1.00  0.00     0.159 HD
ENDBRANCH   5  31
TORSDOF 6
ENDMDL
MODEL 7
REMARK VINA RESULT:    -7.823      4.044      9.124
REMARK INTER + INTRA:         -11.129
REMARK INTER:                 -10.579
REMARK INTRA:                  -0.551
REMARK UNBOUND:                -0.791
REMARK SMILES COc1ccccc1-c1cc2c(N[C@@H]3CC[C@](C)(N)C3(C)C)c(C(N)=O)cnn2c1
REMARK SMILES IDX 9 1 10 2 11 3 12 4 23 5 27 6 28 7 29 8 30 9 8 10 3 11 4 12
REMARK SMILES IDX 5 13 7 14 6 15 2 16 1 17 13 18 14 20 15 21 20 22 16 23 17 24
REMARK SMILES IDX 21 25 22 26 18 27 19 28 24 31 25 32 26 33
REMARK H PARENT 13 19 19 29 19 30 25 34 25 35
ROOT
ATOM      1  C   UNL     1       0.031  21.568 -24.411  1.00  0.00     0.006 A 
ATOM      2  C   UNL     1      -0.985  21.712 -25.391  1.00  0.00     0.041 A 
ATOM      3  C   UNL     1      -1.315  23.057 -25.467  1.00  0.00     0.089 A 
ATOM      4  C   UNL     1      -2.251  23.805 -26.256  1.00  0.00     0.075 A 
ATOM      5  C   UNL     1      -2.213  25.153 -26.127  1.00  0.00     0.085 A 
ATOM      6  C   UNL     1      -1.321  25.709 -25.072  1.00  0.00     0.150 A 
ATOM      7  N   UNL     1      -0.505  25.055 -24.308  1.00  0.00    -0.176 NA
ATOM      8  N   UNL     1      -0.521  23.725 -24.553  1.00  0.00    -0.238 N 
ATOM      9  C   UNL     1       0.282  22.824 -23.901  1.00  0.00     0.122 A 
ENDROOT
BRANCH   1  10
ATOM     10  C   UNL     1       0.725  20.373 -23.971  1.00  0.00     0.025 A 
ATOM     11  C   UNL     1       1.440  20.343 -22.758  1.00  0.00     0.126 A 
ATOM     12  C   UNL     1       2.104  19.168 -22.388  1.00  0.00     0.047 A 
ATOM     13  C   UNL     1       2.049  18.034 -23.204  1.00  0.00     0.004 A 
ATOM     14  C   UNL     1       0.676  19.231 -24.784  1.00  0.00     0.012 A 
ATOM     15  C   UNL     1       1.334  18.064 -24.400  1.00  0.00     0.001 A 
BRANCH  11  16
ATOM     16  O   UNL     1       1.452  21.497 -22.015  1.00  0.00    -0.496 OA
ATOM     17  C   UNL     1       2.645  21.795 -21.305  1.00  0.00     0.278 C 
ENDBRANCH  11  16
ENDBRANCH   1  10
BRANCH   4  18
ATOM     18  N   UNL     1      -3.100  23.089 -27.103  1.00  0.00    -0.379 N 
ATOM     19  H   UNL     1      -3.899  23.639 -27.447  1.00  0.00     0.160 HD
BRANCH  18  20
ATOM     20  C   UNL     1      -2.657  22.141 -28.136  1.00  0.00     0.086 C 
ATOM     21  C   UNL     1      -1.616  22.825 -29.050  1.00  0.00     0.027 C 
ATOM     22  C   UNL     1      -3.823  21.766 -29.104  1.00  0.00     0.003 C 
ATOM     23  C   UNL     1      -2.356  23.277 -30.316  1.00  0.00     0.024 C 
ATOM     24  C   UNL     1      -3.854  22.994 -30.078  1.00  0.00     0.020 C 
ATOM     25  C   UNL     1      -3.453  20.447 -29.833  1.00  0.00     0.015 C 
ATOM     26  C   UNL     1      -5.162  21.503 -28.388  1.00  0.00     0.015 C 
ATOM     27  C   UNL     1      -4.600  22.766 -31.396  1.00  0.00     0.028 C 
BRANCH  24  28
ATOM     28  N   UNL     1      -4.441  24.188 -29.427  1.00  0.00    -0.325 NA
ATOM     29  H   UNL     1      -4.809  23.926 -28.510  1.00  0.00     0.119 HD
ATOM     30  H   UNL     1      -5.255  24.500 -29.960  1.00  0.00     0.119 HD
ENDBRANCH  24  28
ENDBRANCH  18  20
ENDBRANCH   4  18
BRANCH   5  31
ATOM     31  C   UNL     1      -2.988  26.120 -26.949  1.00  0.00     0.252 C 
ATOM     32  N   UNL     1      -2.341  27.262 -27.303  1.00  0.00    -0.365 N 
ATOM     33  O   UNL     1      -4.169  25.942 -27.229  1.00  0.00    -0.269 OA
ATOM     34  H   UNL     1      -2.832  27.967 -27.836  1.00  0.00     0.159 HD
ATOM     35  H   UNL     1      -1.349  27.369 -27.107  1.00  0.00     0.159 HD
ENDBRANCH   5  31
TORSDOF 6
ENDMDL
MODEL 8
REMARK VINA RESULT:    -7.684      2.666      6.259
REMARK INTER + INTRA:         -10.946
REMARK INTER:                 -10.364
REMARK INTRA:                  -0.582
REMARK UNBOUND:                -0.791
REMARK SMILES COc1ccccc1-c1cc2c(N[C@@H]3CC[C@](C)(N)C3(C)C)c(C(N)=O)cnn2c1
REMARK SMILES IDX 9 1 10 2 11 3 12 4 23 5 27 6 28 7 29 8 30 9 8 10 3 11 4 12
REMARK SMILES IDX 5 13 7 14 6 15 2 16 1 17 13 18 14 20 15 21 20 22 16 23 17 24
REMARK SMILES IDX 21 25 22 26 18 27 19 28 24 31 25 32 26 33
REMARK H PARENT 13 19 19 29 19 30 25 34 25 35
ROOT
ATOM      1  C   UNL     1      -4.127  24.186 -30.232  1.00  0.00     0.006 A 
ATOM      2  C   UNL     1      -3.767  24.556 -28.911  1.00  0.00     0.041 A 
ATOM      3  C   UNL     1      -3.742  25.941 -28.849  1.00  0.00     0.089 A 
ATOM      4  C   UNL     1      -3.455  26.883 -27.805  1.00  0.00     0.075 A 
ATOM      5  C   UNL     1      -3.643  28.192 -28.098  1.00  0.00     0.085 A 
ATOM      6  C   UNL     1      -3.973  28.529 -29.511  1.00  0.00     0.150 A 
ATOM      7  N   UNL     1      -4.186  27.706 -30.487  1.00  0.00    -0.176 NA
ATOM      8  N   UNL     1      -4.077  26.413 -30.105  1.00  0.00    -0.238 N 
ATOM      9  C   UNL     1      -4.293  25.353 -30.948  1.00  0.00     0.122 A 
ENDROOT
BRANCH   1  10
ATOM     10  C   UNL     1      -4.307  22.865 -30.804  1.00  0.00     0.025 A 
ATOM     11  C   UNL     1      -3.800  21.715 -30.170  1.00  0.00     0.126 A 
ATOM     12  C   UNL     1      -3.989  20.466 -30.774  1.00  0.00     0.047 A 
ATOM     13  C   UNL     1      -4.685  20.359 -31.983  1.00  0.00     0.004 A 
ATOM     14  C   UNL     1      -5.003  22.749 -32.017  1.00  0.00     0.012 A 
ATOM     15  C   UNL     1      -5.192  21.499 -32.603  1.00  0.00     0.001 A 
BRANCH  11  16
ATOM     16  O   UNL     1      -3.124  21.901 -28.990  1.00  0.00    -0.496 OA
ATOM     17  C   UNL     1      -2.275  20.848 -28.559  1.00  0.00     0.278 C 
ENDBRANCH  11  16
ENDBRANCH   1  10
BRANCH   4  18
ATOM     18  N   UNL     1      -3.033  26.373 -26.575  1.00  0.00    -0.379 N 
ATOM     19  H   UNL     1      -3.615  25.598 -26.228  1.00  0.00     0.160 HD
BRANCH  18  20
ATOM     20  C   UNL     1      -1.632  26.165 -26.183  1.00  0.00     0.086 C 
ATOM     21  C   UNL     1      -0.857  25.533 -27.361  1.00  0.00     0.027 C 
ATOM     22  C   UNL     1      -1.508  25.110 -25.040  1.00  0.00     0.003 C 
ATOM     23  C   UNL     1      -0.764  24.027 -27.083  1.00  0.00     0.024 C 
ATOM     24  C   UNL     1      -1.613  23.757 -25.823  1.00  0.00     0.020 C 
ATOM     25  C   UNL     1      -0.128  25.287 -24.353  1.00  0.00     0.015 C 
ATOM     26  C   UNL     1      -2.566  25.273 -23.930  1.00  0.00     0.015 C 
ATOM     27  C   UNL     1      -1.117  22.521 -25.065  1.00  0.00     0.028 C 
BRANCH  24  28
ATOM     28  N   UNL     1      -3.002  23.490 -26.263  1.00  0.00    -0.325 NA
ATOM     29  H   UNL     1      -3.601  24.266 -25.975  1.00  0.00     0.119 HD
ATOM     30  H   UNL     1      -3.366  22.675 -25.765  1.00  0.00     0.119 HD
ENDBRANCH  24  28
ENDBRANCH  18  20
ENDBRANCH   4  18
BRANCH   5  31
ATOM     31  C   UNL     1      -3.546  29.315 -27.129  1.00  0.00     0.252 C 
ATOM     32  N   UNL     1      -2.301  29.820 -26.917  1.00  0.00    -0.365 N 
ATOM     33  O   UNL     1      -4.514  29.716 -26.493  1.00  0.00    -0.269 OA
ATOM     34  H   UNL     1      -2.175  30.564 -26.245  1.00  0.00     0.159 HD
ATOM     35  H   UNL     1      -1.520  29.511 -27.489  1.00  0.00     0.159 HD
ENDBRANCH   5  31
TORSDOF 6
ENDMDL
MODEL 9
REMARK VINA RESULT:    -7.462      5.038      8.539
REMARK INTER + INTRA:         -10.653
REMARK INTER:                  -9.885
REMARK INTRA:                  -0.768
REMARK UNBOUND:                -0.791
REMARK SMILES COc1ccccc1-c1cc2c(N[C@@H]3CC[C@](C)(N)C3(C)C)c(C(N)=O)cnn2c1
REMARK SMILES IDX 9 1 10 2 11 3 12 4 23 5 27 6 28 7 29 8 30 9 8 10 3 11 4 12
REMARK SMILES IDX 5 13 7 14 6 15 2 16 1 17 13 18 14 20 15 21 20 22 16 23 17 24
REMARK SMILES IDX 21 25 22 26 18 27 19 28 24 31 25 32 26 33
REMARK H PARENT 13 19 19 29 19 30 25 34 25 35
ROOT
ATOM      1  C   UNL     1      -4.499  29.471 -30.545  1.00  0.00     0.006 A 
ATOM      2  C   UNL     1      -3.532  29.773 -29.553  1.00  0.00     0.041 A 
ATOM      3  C   UNL     1      -3.550  31.143 -29.343  1.00  0.00     0.089 A 
ATOM      4  C   UNL     1      -2.817  32.025 -28.481  1.00  0.00     0.075 A 
ATOM      5  C   UNL     1      -3.196  33.326 -28.477  1.00  0.00     0.085 A 
ATOM      6  C   UNL     1      -4.222  33.736 -29.477  1.00  0.00     0.150 A 
ATOM      7  N   UNL     1      -4.863  32.974 -30.304  1.00  0.00    -0.176 NA
ATOM      8  N   UNL     1      -4.506  31.673 -30.191  1.00  0.00    -0.238 N 
ATOM      9  C   UNL     1      -5.069  30.666 -30.930  1.00  0.00     0.122 A 
ENDROOT
BRANCH   1  10
ATOM     10  C   UNL     1      -4.879  28.187 -31.104  1.00  0.00     0.025 A 
ATOM     11  C   UNL     1      -4.501  26.978 -30.490  1.00  0.00     0.126 A 
ATOM     12  C   UNL     1      -4.881  25.767 -31.081  1.00  0.00     0.047 A 
ATOM     13  C   UNL     1      -5.639  25.757 -32.256  1.00  0.00     0.004 A 
ATOM     14  C   UNL     1      -5.638  28.168 -32.284  1.00  0.00     0.012 A 
ATOM     15  C   UNL     1      -6.018  26.956 -32.856  1.00  0.00     0.001 A 
BRANCH  11  16
ATOM     16  O   UNL     1      -3.753  27.070 -29.343  1.00  0.00    -0.496 OA
ATOM     17  C   UNL     1      -3.736  25.934 -28.491  1.00  0.00     0.278 C 
ENDBRANCH  11  16
ENDBRANCH   1  10
BRANCH   4  18
ATOM     18  N   UNL     1      -1.797  31.469 -27.706  1.00  0.00    -0.379 N 
ATOM     19  H   UNL     1      -1.841  30.442 -27.643  1.00  0.00     0.160 HD
BRANCH  18  20
ATOM     20  C   UNL     1      -0.396  31.915 -27.707  1.00  0.00     0.086 C 
ATOM     21  C   UNL     1       0.349  31.266 -28.894  1.00  0.00     0.027 C 
ATOM     22  C   UNL     1       0.369  31.397 -26.449  1.00  0.00     0.003 C 
ATOM     23  C   UNL     1       1.127  30.066 -28.336  1.00  0.00     0.024 C 
ATOM     24  C   UNL     1       0.716  29.923 -26.856  1.00  0.00     0.020 C 
ATOM     25  C   UNL     1       1.640  32.267 -26.253  1.00  0.00     0.015 C 
ATOM     26  C   UNL     1      -0.439  31.511 -25.141  1.00  0.00     0.015 C 
ATOM     27  C   UNL     1       1.820  29.258 -26.028  1.00  0.00     0.028 C 
BRANCH  24  28
ATOM     28  N   UNL     1      -0.479  29.050 -26.801  1.00  0.00    -0.325 NA
ATOM     29  H   UNL     1      -0.185  28.073 -26.858  1.00  0.00     0.119 HD
ATOM     30  H   UNL     1      -1.052  29.205 -27.633  1.00  0.00     0.119 HD
ENDBRANCH  24  28
ENDBRANCH  18  20
ENDBRANCH   4  18
BRANCH   5  31
ATOM     31  C   UNL     1      -2.673  34.374 -27.561  1.00  0.00     0.252 C 
ATOM     32  N   UNL     1      -2.112  35.462 -28.152  1.00  0.00    -0.365 N 
ATOM     33  O   UNL     1      -2.671  34.236 -26.343  1.00  0.00    -0.269 OA
ATOM     34  H   UNL     1      -1.713  36.190 -27.574  1.00  0.00     0.159 HD
ATOM     35  H   UNL     1      -2.168  35.583 -29.159  1.00  0.00     0.159 HD
ENDBRANCH   5  31
TORSDOF 6
ENDMDL
