MODEL 4
REMARK VINA RESULT:    -9.377      3.294      9.029
REMARK INTER + INTRA:         -12.629
REMARK INTER:                 -11.995
REMARK INTRA:                  -0.635
REMARK UNBOUND:                -0.511
REMARK SMILES CC(=N)N1CCC(Oc2ccc3c(c2)nc(C)n3Cc2ccc3ccc(C(=N)N)cc3c2)CC1
REMARK SMILES IDX 9 1 10 2 11 3 12 4 13 5 14 6 15 7 16 8 17 9 18 10 8 11 7 12
REMARK SMILES IDX 2 13 3 14 4 15 5 16 34 17 6 18 33 19 1 20 19 22 20 23 21 24
REMARK SMILES IDX 32 25 22 26 31 27 23 28 30 29 24 30 26 31 25 32 27 33 28 34
REMARK SMILES IDX 29 35
REMARK H PARENT 3 21 28 36 29 37 29 38
ROOT
ATOM      1  C   UNL     1     127.301 -19.230 162.446  1.00  0.00     0.122 A 
ATOM      2  C   UNL     1     127.192 -18.922 163.807  1.00  0.00     0.049 A 
ATOM      3  C   UNL     1     128.188 -19.272 164.729  1.00  0.00     0.032 A 
ATOM      4  C   UNL     1     129.308 -19.943 164.226  1.00  0.00     0.069 A 
ATOM      5  C   UNL     1     129.447 -20.245 162.876  1.00  0.00     0.092 A 
ATOM      6  C   UNL     1     128.439 -19.885 161.967  1.00  0.00     0.077 A 
ATOM      7  N   UNL     1     130.635 -20.884 162.633  1.00  0.00    -0.233 NA
ATOM      8  C   UNL     1     131.232 -20.996 163.802  1.00  0.00     0.107 A 
ATOM      9  C   UNL     1     132.555 -21.636 164.020  1.00  0.00     0.088 C 
ATOM     10  N   UNL     1     130.456 -20.445 164.804  1.00  0.00    -0.324 N 
ENDROOT
BRANCH   1  11
ATOM     11  O   UNL     1     126.240 -18.814 161.684  1.00  0.00    -0.490 OA
BRANCH  11  12
ATOM     12  C   UNL     1     126.206 -17.448 161.249  1.00  0.00     0.176 C 
ATOM     13  C   UNL     1     128.453 -13.963 162.569  1.00  0.00     0.093 C 
ATOM     14  N   UNL     1     127.925 -12.799 162.767  1.00  0.00    -0.289 NA
ATOM     15  N   UNL     1     127.743 -15.076 162.144  1.00  0.00    -0.361 N 
ATOM     16  C   UNL     1     128.424 -16.289 161.670  1.00  0.00     0.121 C 
ATOM     17  C   UNL     1     126.287 -15.165 162.303  1.00  0.00     0.121 C 
ATOM     18  C   UNL     1     127.560 -17.037 160.660  1.00  0.00     0.066 C 
ATOM     19  C   UNL     1     125.839 -16.607 162.474  1.00  0.00     0.066 C 
ATOM     20  C   UNL     1     129.948 -14.054 162.803  1.00  0.00     0.086 C 
ATOM     21  H   UNL     1     126.934 -12.821 162.537  1.00  0.00     0.189 HD
ENDBRANCH  11  12
ENDBRANCH   1  11
BRANCH  10  22
ATOM     22  C   UNL     1     130.810 -20.350 166.213  1.00  0.00     0.159 C 
BRANCH  22  23
ATOM     23  C   UNL     1     131.484 -19.041 166.548  1.00  0.00    -0.028 A 
ATOM     24  C   UNL     1     130.782 -18.016 167.195  1.00  0.00     0.006 A 
ATOM     25  C   UNL     1     132.828 -18.824 166.205  1.00  0.00     0.014 A 
ATOM     26  C   UNL     1     131.410 -16.808 167.503  1.00  0.00     0.009 A 
ATOM     27  C   UNL     1     133.476 -17.614 166.514  1.00  0.00    -0.017 A 
ATOM     28  C   UNL     1     132.755 -16.592 167.171  1.00  0.00    -0.018 A 
ATOM     29  C   UNL     1     134.825 -17.403 166.184  1.00  0.00     0.020 A 
ATOM     30  C   UNL     1     133.397 -15.381 167.479  1.00  0.00     0.009 A 
ATOM     31  C   UNL     1     135.454 -16.194 166.505  1.00  0.00     0.017 A 
ATOM     32  C   UNL     1     134.738 -15.181 167.145  1.00  0.00     0.012 A 
BRANCH  31  33
ATOM     33  C   UNL     1     136.879 -15.972 166.148  1.00  0.00     0.122 C 
ATOM     34  N   UNL     1     137.443 -14.808 166.204  1.00  0.00    -0.284 NA
ATOM     35  N   UNL     1     137.658 -17.018 165.750  1.00  0.00    -0.384 N 
ATOM     36  H   UNL     1     136.769 -14.080 166.458  1.00  0.00     0.189 HD
ATOM     37  H   UNL     1     138.638 -16.755 165.754  1.00  0.00     0.158 HD
ATOM     38  H   UNL     1     137.494 -17.896 166.229  1.00  0.00     0.158 HD
ENDBRANCH  31  33
ENDBRANCH  22  23
ENDBRANCH  10  22
TORSDOF 5
ENDMDL
