REMARK SMILES CCc1ccc(CCOc2ccc(C[C@H]3SC(=O)NC3=O)cc2)nc1
REMARK SMILES IDX 8 1 7 2 6 3 3 4 4 5 25 6 5 7 24 8 2 9 1 10 9 11 10 12 11 13
REMARK SMILES IDX 23 14 12 15 22 16 13 17 14 18 15 19 16 20 20 21 17 22 19 23
REMARK SMILES IDX 21 24 18 25
REMARK H PARENT 19 26
REMARK INDEX MAP 8 1 7 2 6 3 3 4 4 5 25 6 5 7 24 8 2 9 1 10 9 11 10 12 11 13
REMARK INDEX MAP 23 14 12 15 22 16 13 17 14 18 15 19 16 20 20 21 17 22 19 23
REMARK INDEX MAP 21 24 18 25 42 26
ROOT
ATOM      1  C   UNL     1       8.511   5.126  -6.876  1.00  0.00     0.236 C 
ENDROOT
BRANCH   1   2
ATOM      2  C   UNL     1       9.982   5.201  -7.278  1.00  0.00     0.097 C 
BRANCH   2   3
ATOM      3  C   UNL     1      10.143   5.617  -8.718  1.00  0.00     0.044 A 
ATOM      4  C   UNL     1      10.417   6.459 -11.330  1.00  0.00    -0.030 A 
ATOM      5  C   UNL     1      10.234   5.103 -11.058  1.00  0.00     0.007 A 
ATOM      6  C   UNL     1      10.440   7.328 -10.245  1.00  0.00     0.115 A 
ATOM      7  C   UNL     1      10.092   4.675  -9.741  1.00  0.00     0.024 A 
ATOM      8  N   UNL     1      10.310   6.941  -8.956  1.00  0.00    -0.261 NA
BRANCH   4   9
ATOM      9  C   UNL     1      10.549   6.965 -12.738  1.00  0.00     0.034 C 
ATOM     10  C   UNL     1      10.265   8.457 -12.832  1.00  0.00     0.009 C 
ENDBRANCH   4   9
ENDBRANCH   2   3
ENDBRANCH   1   2
BRANCH   1  11
ATOM     11  O   UNL     1       7.920   6.419  -7.050  1.00  0.00    -0.493 OA
BRANCH  11  12
ATOM     12  C   UNL     1       6.746   6.662  -6.391  1.00  0.00     0.119 A 
ATOM     13  C   UNL     1       6.071   5.519  -5.963  1.00  0.00     0.047 A 
ATOM     14  C   UNL     1       6.201   7.914  -6.117  1.00  0.00     0.047 A 
ATOM     15  C   UNL     1       4.859   5.619  -5.276  1.00  0.00     0.007 A 
ATOM     16  C   UNL     1       4.988   8.019  -5.425  1.00  0.00     0.007 A 
ATOM     17  C   UNL     1       4.302   6.874  -5.004  1.00  0.00    -0.046 A 
BRANCH  17  18
ATOM     18  C   UNL     1       2.981   6.985  -4.274  1.00  0.00     0.060 C 
BRANCH  18  19
ATOM     19  C   UNL     1       2.994   6.594  -2.792  1.00  0.00     0.150 C 
ATOM     20  S   UNL     1       3.069   4.797  -2.485  1.00  0.00    -0.051 SA
ATOM     21  C   UNL     1       4.178   7.174  -2.051  1.00  0.00     0.241 C 
ATOM     22  C   UNL     1       4.550   4.917  -1.572  1.00  0.00     0.286 C 
ATOM     23  N   UNL     1       4.935   6.209  -1.459  1.00  0.00    -0.286 N 
ATOM     24  O   UNL     1       4.433   8.370  -1.972  1.00  0.00    -0.273 OA
ATOM     25  O   UNL     1       5.131   3.960  -1.091  1.00  0.00    -0.261 OA
ATOM     26  H   UNL     1       5.786   6.458  -0.934  1.00  0.00     0.173 HD
ENDBRANCH  18  19
ENDBRANCH  17  18
ENDBRANCH  11  12
ENDBRANCH   1  11
TORSDOF 7
