MODEL 5
REMARK VINA RESULT:    -8.187      2.297      4.693
REMARK INTER + INTRA:         -18.525
REMARK INTER:                 -14.045
REMARK INTRA:                  -4.480
REMARK UNBOUND:                -4.116
REMARK SMILES CCc1ccc(CCNC(=O)c2c(O)c(O)cc3c2C(=O)C(C)=C(C2=C(C)C(=O)c4c(cc(O)c(O)c4C(=O)NCCc4ccc(CC)cc4)C2=O)C3=O)cc1
REMARK SMILES IDX 12 1 13 2 15 3 17 4 18 5 19 6 20 7 21 8 22 9 23 10 24 11
REMARK SMILES IDX 53 12 54 13 10 14 9 15 11 16 8 18 7 19 6 20 3 21 4 22 56 23
REMARK SMILES IDX 5 24 55 25 2 26 1 27 14 28 16 30 25 32 26 33 51 34 28 35
REMARK SMILES IDX 31 36 52 37 29 38 30 39 32 40 37 41 33 42 35 43 27 44 38 45
REMARK SMILES IDX 39 46 40 47 41 49 42 50 43 51 44 52 50 53 45 54 49 55 46 56
REMARK SMILES IDX 47 57 48 58 34 59 36 61
REMARK H PARENT 9 17 14 29 16 31 40 48 34 60 36 62
ROOT
ATOM      1  C   UNL     1     -16.093   3.466  23.131  1.00  0.00     0.097 A 
ATOM      2  C   UNL     1     -17.220   3.183  22.322  1.00  0.00     0.171 A 
ATOM      3  C   UNL     1     -18.294   4.064  22.244  1.00  0.00     0.159 A 
ATOM      4  C   UNL     1     -18.284   5.250  22.944  1.00  0.00     0.063 A 
ATOM      5  C   UNL     1     -17.157   5.579  23.711  1.00  0.00     0.038 A 
ATOM      6  C   UNL     1     -16.048   4.715  23.803  1.00  0.00     0.050 A 
ATOM      7  C   UNL     1     -14.881   5.208  24.576  1.00  0.00     0.191 C 
ATOM      8  O   UNL     1     -13.930   4.481  24.829  1.00  0.00    -0.289 OA
ATOM      9  C   UNL     1     -14.851   6.622  25.067  1.00  0.00     0.009 C 
ATOM     10  C   UNL     1     -13.529   7.044  25.651  1.00  0.00     0.049 C 
ATOM     11  C   UNL     1     -15.944   7.398  25.012  1.00  0.00     0.041 C 
ATOM     12  C   UNL     1     -17.202   6.865  24.426  1.00  0.00     0.195 C 
ATOM     13  O   UNL     1     -18.251   7.495  24.515  1.00  0.00    -0.289 OA
ENDROOT
BRANCH   1  14
ATOM     14  C   UNL     1     -15.095   2.352  23.202  1.00  0.00     0.255 C 
ATOM     15  N   UNL     1     -13.880   2.518  22.590  1.00  0.00    -0.352 N 
ATOM     16  O   UNL     1     -15.345   1.409  23.949  1.00  0.00    -0.269 OA
ATOM     17  H   UNL     1     -13.823   3.173  21.813  1.00  0.00     0.163 HD
BRANCH  15  18
ATOM     18  C   UNL     1     -12.795   1.562  22.715  1.00  0.00     0.121 C 
BRANCH  18  19
ATOM     19  C   UNL     1     -12.560   0.747  21.438  1.00  0.00     0.057 C 
BRANCH  19  20
ATOM     20  C   UNL     1     -13.177  -0.629  21.444  1.00  0.00    -0.046 A 
ATOM     21  C   UNL     1     -14.221  -3.248  21.451  1.00  0.00    -0.048 A 
ATOM     22  C   UNL     1     -13.915  -2.600  22.653  1.00  0.00     0.004 A 
ATOM     23  C   UNL     1     -14.004  -2.573  20.243  1.00  0.00     0.004 A 
ATOM     24  C   UNL     1     -13.401  -1.302  22.651  1.00  0.00     0.004 A 
ATOM     25  C   UNL     1     -13.486  -1.274  20.241  1.00  0.00     0.004 A 
BRANCH  21  26
ATOM     26  C   UNL     1     -14.740  -4.662  21.457  1.00  0.00     0.032 C 
ATOM     27  C   UNL     1     -15.652  -4.918  22.649  1.00  0.00     0.009 C 
ENDBRANCH  21  26
ENDBRANCH  19  20
ENDBRANCH  18  19
ENDBRANCH  15  18
ENDBRANCH   1  14
BRANCH   2  28
ATOM     28  O   UNL     1     -17.361   2.044  21.561  1.00  0.00    -0.504 OA
ATOM     29  H   UNL     1     -18.036   1.470  21.997  1.00  0.00     0.293 HD
ENDBRANCH   2  28
BRANCH   3  30
ATOM     30  O   UNL     1     -19.376   3.761  21.471  1.00  0.00    -0.504 OA
ATOM     31  H   UNL     1     -19.101   3.971  20.552  1.00  0.00     0.293 HD
ENDBRANCH   3  30
BRANCH  11  32
ATOM     32  C   UNL     1     -16.034   8.748  25.572  1.00  0.00     0.041 C 
ATOM     33  C   UNL     1     -15.723   9.859  24.879  1.00  0.00     0.009 C 
ATOM     34  C   UNL     1     -16.620   8.846  26.937  1.00  0.00     0.195 C 
ATOM     35  C   UNL     1     -16.003  11.218  25.430  1.00  0.00     0.191 C 
ATOM     36  C   UNL     1     -16.910  10.178  27.492  1.00  0.00     0.038 A 
ATOM     37  O   UNL     1     -16.851   7.841  27.604  1.00  0.00    -0.289 OA
ATOM     38  O   UNL     1     -15.793  12.197  24.729  1.00  0.00    -0.289 OA
ATOM     39  C   UNL     1     -16.591  11.342  26.784  1.00  0.00     0.050 A 
ATOM     40  C   UNL     1     -17.531  10.238  28.753  1.00  0.00     0.063 A 
ATOM     41  C   UNL     1     -16.896  12.586  27.364  1.00  0.00     0.097 A 
ATOM     42  C   UNL     1     -17.838  11.470  29.300  1.00  0.00     0.159 A 
ATOM     43  C   UNL     1     -17.529  12.640  28.613  1.00  0.00     0.171 A 
ATOM     44  C   UNL     1     -15.149   9.873  23.487  1.00  0.00     0.049 C 
BRANCH  41  45
ATOM     45  C   UNL     1     -16.544  13.864  26.721  1.00  0.00     0.255 C 
ATOM     46  O   UNL     1     -17.410  14.512  26.151  1.00  0.00    -0.269 OA
ATOM     47  N   UNL     1     -15.210  14.187  26.798  1.00  0.00    -0.352 N 
ATOM     48  H   UNL     1     -14.562  13.502  27.169  1.00  0.00     0.163 HD
BRANCH  47  49
ATOM     49  C   UNL     1     -14.656  15.333  26.108  1.00  0.00     0.121 C 
BRANCH  49  50
ATOM     50  C   UNL     1     -13.138  15.233  25.965  1.00  0.00     0.057 C 
BRANCH  50  51
ATOM     51  C   UNL     1     -12.707  13.856  25.526  1.00  0.00    -0.046 A 
ATOM     52  C   UNL     1     -12.295  12.900  26.462  1.00  0.00     0.004 A 
ATOM     53  C   UNL     1     -12.752  13.505  24.171  1.00  0.00     0.004 A 
ATOM     54  C   UNL     1     -11.917  11.619  26.044  1.00  0.00     0.004 A 
ATOM     55  C   UNL     1     -12.375  12.224  23.756  1.00  0.00     0.004 A 
ATOM     56  C   UNL     1     -11.955  11.267  24.689  1.00  0.00    -0.048 A 
BRANCH  56  57
ATOM     57  C   UNL     1     -11.536   9.888  24.240  1.00  0.00     0.032 C 
ATOM     58  C   UNL     1     -11.380   9.798  22.728  1.00  0.00     0.009 C 
ENDBRANCH  56  57
ENDBRANCH  50  51
ENDBRANCH  49  50
ENDBRANCH  47  49
ENDBRANCH  41  45
BRANCH  42  59
ATOM     59  O   UNL     1     -18.457  11.588  30.511  1.00  0.00    -0.504 OA
ATOM     60  H   UNL     1     -19.326  11.151  30.471  1.00  0.00     0.293 HD
ENDBRANCH  42  59
BRANCH  43  61
ATOM     61  O   UNL     1     -17.878  13.831  29.191  1.00  0.00    -0.504 OA
ATOM     62  H   UNL     1     -17.419  14.523  28.674  1.00  0.00     0.293 HD
ENDBRANCH  43  61
ENDBRANCH  11  32
TORSDOF 15
ENDMDL
