MODEL 1
REMARK VINA RESULT:    -8.383      0.000      0.000
REMARK INTER + INTRA:         -14.374
REMARK INTER:                 -13.038
REMARK INTRA:                  -1.336
REMARK UNBOUND:                -1.336
REMARK SMILES CC[C@@H](Cc1ccc(OC)c(CNC(=O)c2ccc([C@]34C[C@H]5C[C@H](C[C@H](C5)C3)C4)cc2F)c1)C(=O)O
REMARK SMILES IDX 5 1 6 2 7 3 8 4 11 5 33 6 4 7 3 8 2 9 1 10 34 11 35 12 36 13
REMARK SMILES IDX 12 15 13 16 14 17 15 18 16 20 17 21 31 22 18 23 30 24 19 25
REMARK SMILES IDX 32 26 20 27 28 28 29 29 21 30 26 31 24 32 22 33 27 34 25 35
REMARK SMILES IDX 23 36 9 37 10 38
REMARK H PARENT 36 14 13 19
ROOT
ATOM      1  C   UNL     1       9.860   2.444  -3.630  1.00  0.00    -0.047 A 
ATOM      2  C   UNL     1       8.999   3.425  -3.130  1.00  0.00     0.007 A 
ATOM      3  C   UNL     1       8.174   4.157  -3.991  1.00  0.00     0.047 A 
ATOM      4  C   UNL     1       8.199   3.926  -5.369  1.00  0.00     0.123 A 
ATOM      5  C   UNL     1       9.076   2.959  -5.889  1.00  0.00     0.014 A 
ATOM      6  C   UNL     1       9.891   2.221  -5.011  1.00  0.00     0.013 A 
ENDROOT
BRANCH   1   7
ATOM      7  C   UNL     1      10.738   1.641  -2.701  1.00  0.00     0.050 C 
BRANCH   7   8
ATOM      8  C   UNL     1      12.039   1.139  -3.354  1.00  0.00     0.103 C 
BRANCH   8   9
ATOM      9  C   UNL     1      12.078  -0.392  -3.489  1.00  0.00     0.012 C 
ATOM     10  C   UNL     1      10.907  -0.942  -4.294  1.00  0.00     0.005 C 
ENDBRANCH   8   9
BRANCH   8  11
ATOM     11  C   UNL     1      13.186   1.605  -2.487  1.00  0.00     0.306 C 
ATOM     12  O   UNL     1      13.719   0.978  -1.585  1.00  0.00    -0.252 OA
BRANCH  11  13
ATOM     13  O   UNL     1      13.615   2.839  -2.808  1.00  0.00    -0.481 OA
ATOM     14  H   UNL     1      14.563   2.717  -3.026  1.00  0.00     0.296 HD
ENDBRANCH  11  13
ENDBRANCH   8  11
ENDBRANCH   7   8
ENDBRANCH   1   7
BRANCH   5  15
ATOM     15  C   UNL     1       9.141   2.655  -7.365  1.00  0.00     0.156 C 
BRANCH  15  16
ATOM     16  N   UNL     1       9.355   3.862  -8.130  1.00  0.00    -0.348 N 
ATOM     17  C   UNL     1       9.949   3.861  -9.368  1.00  0.00     0.254 C 
ATOM     18  O   UNL     1      10.368   2.839  -9.906  1.00  0.00    -0.269 OA
ATOM     19  H   UNL     1       8.984   4.721  -7.741  1.00  0.00     0.164 HD
BRANCH  17  20
ATOM     20  C   UNL     1      10.081   5.170 -10.068  1.00  0.00     0.075 A 
ATOM     21  C   UNL     1       9.966   5.195 -11.463  1.00  0.00     0.017 A 
ATOM     22  C   UNL     1      10.326   6.369  -9.407  1.00  0.00     0.136 A 
ATOM     23  C   UNL     1      10.103   6.396 -12.174  1.00  0.00     0.005 A 
ATOM     24  C   UNL     1      10.462   7.568 -10.114  1.00  0.00     0.044 A 
ATOM     25  C   UNL     1      10.358   7.610 -11.517  1.00  0.00    -0.039 A 
ATOM     26  F   UNL     1      10.453   6.417  -8.070  1.00  0.00    -0.206 F 
BRANCH  25  27
ATOM     27  C   UNL     1      10.532   8.943 -12.265  1.00  0.00    -0.004 C 
ATOM     28  C   UNL     1      11.076  10.035 -11.298  1.00  0.00     0.015 C 
ATOM     29  C   UNL     1       9.211   9.494 -12.885  1.00  0.00     0.015 C 
ATOM     30  C   UNL     1      11.547   8.768 -13.434  1.00  0.00     0.015 C 
ATOM     31  C   UNL     1      11.318  11.364 -12.039  1.00  0.00    -0.010 C 
ATOM     32  C   UNL     1       9.443  10.824 -13.624  1.00  0.00    -0.010 C 
ATOM     33  C   UNL     1      11.787  10.099 -14.168  1.00  0.00    -0.010 C 
ATOM     34  C   UNL     1      12.331  11.136 -13.172  1.00  0.00     0.007 C 
ATOM     35  C   UNL     1       9.994  11.861 -12.635  1.00  0.00     0.007 C 
ATOM     36  C   UNL     1      10.461  10.603 -14.753  1.00  0.00     0.007 C 
ENDBRANCH  25  27
ENDBRANCH  17  20
ENDBRANCH  15  16
ENDBRANCH   5  15
BRANCH   4  37
ATOM     37  O   UNL     1       7.412   4.577  -6.283  1.00  0.00    -0.496 OA
ATOM     38  C   UNL     1       6.216   5.178  -5.805  1.00  0.00     0.278 C 
ENDBRANCH   4  37
TORSDOF 10
ENDMDL
MODEL 2
REMARK VINA RESULT:    -8.277      2.018      5.069
REMARK INTER + INTRA:         -14.209
REMARK INTER:                 -12.743
REMARK INTRA:                  -1.466
REMARK UNBOUND:                -1.336
REMARK SMILES CC[C@@H](Cc1ccc(OC)c(CNC(=O)c2ccc([C@]34C[C@H]5C[C@H](C[C@H](C5)C3)C4)cc2F)c1)C(=O)O
REMARK SMILES IDX 5 1 6 2 7 3 8 4 11 5 33 6 4 7 3 8 2 9 1 10 34 11 35 12 36 13
REMARK SMILES IDX 12 15 13 16 14 17 15 18 16 20 17 21 31 22 18 23 30 24 19 25
REMARK SMILES IDX 32 26 20 27 28 28 29 29 21 30 26 31 24 32 22 33 27 34 25 35
REMARK SMILES IDX 23 36 9 37 10 38
REMARK H PARENT 36 14 13 19
ROOT
ATOM      1  C   UNL     1       6.425   4.988  -4.970  1.00  0.00    -0.047 A 
ATOM      2  C   UNL     1       6.429   4.720  -3.599  1.00  0.00     0.007 A 
ATOM      3  C   UNL     1       7.506   4.052  -3.005  1.00  0.00     0.047 A 
ATOM      4  C   UNL     1       8.596   3.633  -3.773  1.00  0.00     0.123 A 
ATOM      5  C   UNL     1       8.596   3.875  -5.158  1.00  0.00     0.014 A 
ATOM      6  C   UNL     1       7.513   4.559  -5.740  1.00  0.00     0.013 A 
ENDROOT
BRANCH   1   7
ATOM      7  C   UNL     1       5.273   5.723  -5.610  1.00  0.00     0.050 C 
BRANCH   7   8
ATOM      8  C   UNL     1       4.891   7.030  -4.889  1.00  0.00     0.103 C 
BRANCH   8   9
ATOM      9  C   UNL     1       3.394   7.095  -4.543  1.00  0.00     0.012 C 
ATOM     10  C   UNL     1       3.031   6.240  -3.336  1.00  0.00     0.005 C 
ENDBRANCH   8   9
BRANCH   8  11
ATOM     11  C   UNL     1       5.254   8.173  -5.809  1.00  0.00     0.306 C 
ATOM     12  O   UNL     1       6.369   8.452  -6.219  1.00  0.00    -0.252 OA
BRANCH  11  13
ATOM     13  O   UNL     1       4.186   8.903  -6.180  1.00  0.00    -0.481 OA
ATOM     14  H   UNL     1       3.927   8.530  -7.049  1.00  0.00     0.296 HD
ENDBRANCH  11  13
ENDBRANCH   8  11
ENDBRANCH   7   8
ENDBRANCH   1   7
BRANCH   5  15
ATOM     15  C   UNL     1       9.747   3.458  -6.038  1.00  0.00     0.156 C 
BRANCH  15  16
ATOM     16  N   UNL     1       9.997   4.447  -7.061  1.00  0.00    -0.348 N 
ATOM     17  C   UNL     1       9.758   4.213  -8.394  1.00  0.00     0.254 C 
ATOM     18  O   UNL     1       9.343   3.138  -8.818  1.00  0.00    -0.269 OA
ATOM     19  H   UNL     1      10.298   5.362  -6.749  1.00  0.00     0.164 HD
BRANCH  17  20
ATOM     20  C   UNL     1      10.026   5.328  -9.345  1.00  0.00     0.075 A 
ATOM     21  C   UNL     1      10.109   6.631  -8.839  1.00  0.00     0.017 A 
ATOM     22  C   UNL     1      10.183   5.144 -10.715  1.00  0.00     0.136 A 
ATOM     23  C   UNL     1      10.338   7.720  -9.692  1.00  0.00     0.005 A 
ATOM     24  C   UNL     1      10.412   6.229 -11.567  1.00  0.00     0.044 A 
ATOM     25  C   UNL     1      10.490   7.546 -11.076  1.00  0.00    -0.039 A 
ATOM     26  F   UNL     1      10.109   3.922 -11.269  1.00  0.00    -0.206 F 
BRANCH  25  27
ATOM     27  C   UNL     1      10.723   8.719 -12.044  1.00  0.00    -0.004 C 
ATOM     28  C   UNL     1      10.866  10.051 -11.251  1.00  0.00     0.015 C 
ATOM     29  C   UNL     1       9.572   8.920 -13.078  1.00  0.00     0.015 C 
ATOM     30  C   UNL     1      12.031   8.486 -12.857  1.00  0.00     0.015 C 
ATOM     31  C   UNL     1      11.161  11.231 -12.195  1.00  0.00    -0.010 C 
ATOM     32  C   UNL     1       9.858  10.100 -14.023  1.00  0.00    -0.010 C 
ATOM     33  C   UNL     1      12.323   9.670 -13.796  1.00  0.00    -0.010 C 
ATOM     34  C   UNL     1      12.463  10.955 -12.963  1.00  0.00     0.007 C 
ATOM     35  C   UNL     1      10.006  11.384 -13.195  1.00  0.00     0.007 C 
ATOM     36  C   UNL     1      11.162   9.830 -14.787  1.00  0.00     0.007 C 
ENDBRANCH  25  27
ENDBRANCH  17  20
ENDBRANCH  15  16
ENDBRANCH   5  15
BRANCH   4  37
ATOM     37  O   UNL     1       9.701   2.995  -3.275  1.00  0.00    -0.496 OA
ATOM     38  C   UNL     1       9.550   1.638  -2.879  1.00  0.00     0.278 C 
ENDBRANCH   4  37
TORSDOF 10
ENDMDL
MODEL 3
REMARK VINA RESULT:    -8.152      3.712     10.213
REMARK INTER + INTRA:         -14.015
REMARK INTER:                 -12.599
REMARK INTRA:                  -1.416
REMARK UNBOUND:                -1.336
REMARK SMILES CC[C@@H](Cc1ccc(OC)c(CNC(=O)c2ccc([C@]34C[C@H]5C[C@H](C[C@H](C5)C3)C4)cc2F)c1)C(=O)O
REMARK SMILES IDX 5 1 6 2 7 3 8 4 11 5 33 6 4 7 3 8 2 9 1 10 34 11 35 12 36 13
REMARK SMILES IDX 12 15 13 16 14 17 15 18 16 20 17 21 31 22 18 23 30 24 19 25
REMARK SMILES IDX 32 26 20 27 28 28 29 29 21 30 26 31 24 32 22 33 27 34 25 35
REMARK SMILES IDX 23 36 9 37 10 38
REMARK H PARENT 36 14 13 19
ROOT
ATOM      1  C   UNL     1      10.485   9.804  -9.910  1.00  0.00    -0.047 A 
ATOM      2  C   UNL     1      10.396   9.703 -11.300  1.00  0.00     0.007 A 
ATOM      3  C   UNL     1      10.385   8.451 -11.925  1.00  0.00     0.047 A 
ATOM      4  C   UNL     1      10.470   7.277 -11.172  1.00  0.00     0.123 A 
ATOM      5  C   UNL     1      10.582   7.364  -9.773  1.00  0.00     0.014 A 
ATOM      6  C   UNL     1      10.578   8.628  -9.156  1.00  0.00     0.013 A 
ENDROOT
BRANCH   1   7
ATOM      7  C   UNL     1      10.479  11.152  -9.231  1.00  0.00     0.050 C 
BRANCH   7   8
ATOM      8  C   UNL     1      10.105  11.097  -7.738  1.00  0.00     0.103 C 
BRANCH   8   9
ATOM      9  C   UNL     1       9.328  12.342  -7.279  1.00  0.00     0.012 C 
ATOM     10  C   UNL     1       9.745  13.604  -8.024  1.00  0.00     0.005 C 
ENDBRANCH   8   9
BRANCH   8  11
ATOM     11  C   UNL     1      11.394  10.982  -6.957  1.00  0.00     0.306 C 
ATOM     12  O   UNL     1      12.496  11.369  -7.309  1.00  0.00    -0.252 OA
BRANCH  11  13
ATOM     13  O   UNL     1      11.226  10.395  -5.758  1.00  0.00    -0.481 OA
ATOM     14  H   UNL     1      11.595  11.040  -5.118  1.00  0.00     0.296 HD
ENDBRANCH  11  13
ENDBRANCH   8  11
ENDBRANCH   7   8
ENDBRANCH   1   7
BRANCH   5  15
ATOM     15  C   UNL     1      10.664   6.133  -8.904  1.00  0.00     0.156 C 
BRANCH  15  16
ATOM     16  N   UNL     1       9.612   6.132  -7.913  1.00  0.00    -0.348 N 
ATOM     17  C   UNL     1       8.894   5.005  -7.595  1.00  0.00     0.254 C 
ATOM     18  O   UNL     1       9.073   3.923  -8.146  1.00  0.00    -0.269 OA
ATOM     19  H   UNL     1       9.463   6.994  -7.404  1.00  0.00     0.164 HD
BRANCH  17  20
ATOM     20  C   UNL     1       7.859   5.129  -6.531  1.00  0.00     0.075 A 
ATOM     21  C   UNL     1       6.842   6.077  -6.697  1.00  0.00     0.017 A 
ATOM     22  C   UNL     1       7.857   4.360  -5.371  1.00  0.00     0.136 A 
ATOM     23  C   UNL     1       5.853   6.252  -5.718  1.00  0.00     0.005 A 
ATOM     24  C   UNL     1       6.872   4.532  -4.393  1.00  0.00     0.044 A 
ATOM     25  C   UNL     1       5.847   5.486  -4.541  1.00  0.00    -0.039 A 
ATOM     26  F   UNL     1       8.805   3.436  -5.144  1.00  0.00    -0.206 F 
BRANCH  25  27
ATOM     27  C   UNL     1       4.791   5.663  -3.437  1.00  0.00    -0.004 C 
ATOM     28  C   UNL     1       5.392   5.282  -2.051  1.00  0.00     0.015 C 
ATOM     29  C   UNL     1       3.515   4.788  -3.641  1.00  0.00     0.015 C 
ATOM     30  C   UNL     1       4.324   7.147  -3.380  1.00  0.00     0.015 C 
ATOM     31  C   UNL     1       4.372   5.509  -0.921  1.00  0.00    -0.010 C 
ATOM     32  C   UNL     1       2.492   5.007  -2.513  1.00  0.00    -0.010 C 
ATOM     33  C   UNL     1       3.307   7.369  -2.246  1.00  0.00    -0.010 C 
ATOM     34  C   UNL     1       3.953   6.988  -0.904  1.00  0.00     0.007 C 
ATOM     35  C   UNL     1       3.135   4.635  -1.169  1.00  0.00     0.007 C 
ATOM     36  C   UNL     1       2.076   6.485  -2.488  1.00  0.00     0.007 C 
ENDBRANCH  25  27
ENDBRANCH  17  20
ENDBRANCH  15  16
ENDBRANCH   5  15
BRANCH   4  37
ATOM     37  O   UNL     1      10.443   6.011 -11.695  1.00  0.00    -0.496 OA
ATOM     38  C   UNL     1      11.595   5.571 -12.401  1.00  0.00     0.278 C 
ENDBRANCH   4  37
TORSDOF 10
ENDMDL
MODEL 4
REMARK VINA RESULT:    -7.963      5.177      6.496
REMARK INTER + INTRA:         -13.721
REMARK INTER:                 -12.257
REMARK INTRA:                  -1.464
REMARK UNBOUND:                -1.336
REMARK SMILES CC[C@@H](Cc1ccc(OC)c(CNC(=O)c2ccc([C@]34C[C@H]5C[C@H](C[C@H](C5)C3)C4)cc2F)c1)C(=O)O
REMARK SMILES IDX 5 1 6 2 7 3 8 4 11 5 33 6 4 7 3 8 2 9 1 10 34 11 35 12 36 13
REMARK SMILES IDX 12 15 13 16 14 17 15 18 16 20 17 21 31 22 18 23 30 24 19 25
REMARK SMILES IDX 32 26 20 27 28 28 29 29 21 30 26 31 24 32 22 33 27 34 25 35
REMARK SMILES IDX 23 36 9 37 10 38
REMARK H PARENT 36 14 13 19
ROOT
ATOM      1  C   UNL     1       4.529   7.517  -2.464  1.00  0.00    -0.047 A 
ATOM      2  C   UNL     1       3.653   7.002  -3.421  1.00  0.00     0.007 A 
ATOM      3  C   UNL     1       3.632   7.519  -4.722  1.00  0.00     0.047 A 
ATOM      4  C   UNL     1       4.483   8.565  -5.086  1.00  0.00     0.123 A 
ATOM      5  C   UNL     1       5.355   9.109  -4.127  1.00  0.00     0.014 A 
ATOM      6  C   UNL     1       5.375   8.572  -2.827  1.00  0.00     0.013 A 
ENDROOT
BRANCH   1   7
ATOM      7  C   UNL     1       4.566   6.950  -1.065  1.00  0.00     0.050 C 
BRANCH   7   8
ATOM      8  C   UNL     1       3.885   5.576  -0.932  1.00  0.00     0.103 C 
BRANCH   8   9
ATOM      9  C   UNL     1       2.972   5.488   0.302  1.00  0.00     0.012 C 
ATOM     10  C   UNL     1       2.334   6.825   0.659  1.00  0.00     0.005 C 
ENDBRANCH   8   9
BRANCH   8  11
ATOM     11  C   UNL     1       4.980   4.539  -0.833  1.00  0.00     0.306 C 
ATOM     12  O   UNL     1       6.182   4.750  -0.793  1.00  0.00    -0.252 OA
BRANCH  11  13
ATOM     13  O   UNL     1       4.505   3.282  -0.774  1.00  0.00    -0.481 OA
ATOM     14  H   UNL     1       5.289   2.736  -0.552  1.00  0.00     0.296 HD
ENDBRANCH  11  13
ENDBRANCH   8  11
ENDBRANCH   7   8
ENDBRANCH   1   7
BRANCH   5  15
ATOM     15  C   UNL     1       6.306  10.231  -4.462  1.00  0.00     0.156 C 
BRANCH  15  16
ATOM     16  N   UNL     1       6.993   9.969  -5.706  1.00  0.00    -0.348 N 
ATOM     17  C   UNL     1       8.331  10.225  -5.883  1.00  0.00     0.254 C 
ATOM     18  O   UNL     1       9.036  10.720  -5.009  1.00  0.00    -0.269 OA
ATOM     19  H   UNL     1       6.457   9.520  -6.438  1.00  0.00     0.164 HD
BRANCH  17  20
ATOM     20  C   UNL     1       8.927   9.878  -7.204  1.00  0.00     0.075 A 
ATOM     21  C   UNL     1       9.680  10.852  -7.872  1.00  0.00     0.017 A 
ATOM     22  C   UNL     1       8.763   8.640  -7.816  1.00  0.00     0.136 A 
ATOM     23  C   UNL     1      10.246  10.587  -9.127  1.00  0.00     0.005 A 
ATOM     24  C   UNL     1       9.326   8.373  -9.068  1.00  0.00     0.044 A 
ATOM     25  C   UNL     1      10.079   9.343  -9.757  1.00  0.00    -0.039 A 
ATOM     26  F   UNL     1       8.047   7.663  -7.234  1.00  0.00    -0.206 F 
BRANCH  25  27
ATOM     27  C   UNL     1      10.668   9.022 -11.141  1.00  0.00    -0.004 C 
ATOM     28  C   UNL     1      11.318   7.607 -11.135  1.00  0.00     0.015 C 
ATOM     29  C   UNL     1      11.766  10.029 -11.606  1.00  0.00     0.015 C 
ATOM     30  C   UNL     1       9.542   9.044 -12.217  1.00  0.00     0.015 C 
ATOM     31  C   UNL     1      11.861   7.239 -12.528  1.00  0.00    -0.010 C 
ATOM     32  C   UNL     1      12.316   9.666 -12.997  1.00  0.00    -0.010 C 
ATOM     33  C   UNL     1      10.090   8.671 -13.606  1.00  0.00    -0.010 C 
ATOM     34  C   UNL     1      10.709   7.266 -13.546  1.00  0.00     0.007 C 
ATOM     35  C   UNL     1      12.929   8.259 -12.944  1.00  0.00     0.007 C 
ATOM     36  C   UNL     1      11.167   9.685 -14.015  1.00  0.00     0.007 C 
ENDBRANCH  25  27
ENDBRANCH  17  20
ENDBRANCH  15  16
ENDBRANCH   5  15
BRANCH   4  37
ATOM     37  O   UNL     1       4.548   9.117  -6.339  1.00  0.00    -0.496 OA
ATOM     38  C   UNL     1       3.399   8.998  -7.166  1.00  0.00     0.278 C 
ENDBRANCH   4  37
TORSDOF 10
ENDMDL
MODEL 5
REMARK VINA RESULT:    -7.832      1.915      5.164
REMARK INTER + INTRA:         -13.517
REMARK INTER:                 -12.194
REMARK INTRA:                  -1.323
REMARK UNBOUND:                -1.336
REMARK SMILES CC[C@@H](Cc1ccc(OC)c(CNC(=O)c2ccc([C@]34C[C@H]5C[C@H](C[C@H](C5)C3)C4)cc2F)c1)C(=O)O
REMARK SMILES IDX 5 1 6 2 7 3 8 4 11 5 33 6 4 7 3 8 2 9 1 10 34 11 35 12 36 13
REMARK SMILES IDX 12 15 13 16 14 17 15 18 16 20 17 21 31 22 18 23 30 24 19 25
REMARK SMILES IDX 32 26 20 27 28 28 29 29 21 30 26 31 24 32 22 33 27 34 25 35
REMARK SMILES IDX 23 36 9 37 10 38
REMARK H PARENT 36 14 13 19
ROOT
ATOM      1  C   UNL     1       6.371   4.960  -4.697  1.00  0.00    -0.047 A 
ATOM      2  C   UNL     1       6.550   4.705  -3.336  1.00  0.00     0.007 A 
ATOM      3  C   UNL     1       7.680   4.017  -2.881  1.00  0.00     0.047 A 
ATOM      4  C   UNL     1       8.649   3.565  -3.780  1.00  0.00     0.123 A 
ATOM      5  C   UNL     1       8.472   3.795  -5.156  1.00  0.00     0.014 A 
ATOM      6  C   UNL     1       7.338   4.499  -5.599  1.00  0.00     0.013 A 
ENDROOT
BRANCH   1   7
ATOM      7  C   UNL     1       5.161   5.717  -5.189  1.00  0.00     0.050 C 
BRANCH   7   8
ATOM      8  C   UNL     1       5.047   7.145  -4.623  1.00  0.00     0.103 C 
BRANCH   8   9
ATOM      9  C   UNL     1       3.876   7.296  -3.638  1.00  0.00     0.012 C 
ATOM     10  C   UNL     1       3.064   6.016  -3.488  1.00  0.00     0.005 C 
ENDBRANCH   8   9
BRANCH   8  11
ATOM     11  C   UNL     1       4.853   8.079  -5.796  1.00  0.00     0.306 C 
ATOM     12  O   UNL     1       5.590   8.993  -6.129  1.00  0.00    -0.252 OA
BRANCH  11  13
ATOM     13  O   UNL     1       3.741   7.804  -6.502  1.00  0.00    -0.481 OA
ATOM     14  H   UNL     1       3.023   8.253  -6.008  1.00  0.00     0.296 HD
ENDBRANCH  11  13
ENDBRANCH   8  11
ENDBRANCH   7   8
ENDBRANCH   1   7
BRANCH   5  15
ATOM     15  C   UNL     1       9.488   3.343  -6.175  1.00  0.00     0.156 C 
BRANCH  15  16
ATOM     16  N   UNL     1       9.744   4.385  -7.143  1.00  0.00    -0.348 N 
ATOM     17  C   UNL     1       9.741   4.156  -8.498  1.00  0.00     0.254 C 
ATOM     18  O   UNL     1       9.548   3.046  -8.986  1.00  0.00    -0.269 OA
ATOM     19  H   UNL     1       9.864   5.324  -6.784  1.00  0.00     0.164 HD
BRANCH  17  20
ATOM     20  C   UNL     1       9.986   5.323  -9.391  1.00  0.00     0.075 A 
ATOM     21  C   UNL     1      10.105   5.095 -10.768  1.00  0.00     0.017 A 
ATOM     22  C   UNL     1      10.116   6.628  -8.928  1.00  0.00     0.136 A 
ATOM     23  C   UNL     1      10.356   6.154 -11.653  1.00  0.00     0.005 A 
ATOM     24  C   UNL     1      10.367   7.685  -9.808  1.00  0.00     0.044 A 
ATOM     25  C   UNL     1      10.498   7.473 -11.193  1.00  0.00    -0.039 A 
ATOM     26  F   UNL     1      10.019   6.917  -7.619  1.00  0.00    -0.206 F 
BRANCH  25  27
ATOM     27  C   UNL     1      10.793   8.656 -12.131  1.00  0.00    -0.004 C 
ATOM     28  C   UNL     1       9.649   8.813 -13.176  1.00  0.00     0.015 C 
ATOM     29  C   UNL     1      12.127   8.510 -12.927  1.00  0.00     0.015 C 
ATOM     30  C   UNL     1      10.893   9.975 -11.308  1.00  0.00     0.015 C 
ATOM     31  C   UNL     1       9.892  10.029 -14.089  1.00  0.00    -0.010 C 
ATOM     32  C   UNL     1      12.375   9.721 -13.844  1.00  0.00    -0.010 C 
ATOM     33  C   UNL     1      11.132  11.188 -12.225  1.00  0.00    -0.010 C 
ATOM     34  C   UNL     1       9.973  11.301 -13.228  1.00  0.00     0.007 C 
ATOM     35  C   UNL     1      11.216   9.843 -14.843  1.00  0.00     0.007 C 
ATOM     36  C   UNL     1      12.449  10.995 -12.989  1.00  0.00     0.007 C 
ENDBRANCH  25  27
ENDBRANCH  17  20
ENDBRANCH  15  16
ENDBRANCH   5  15
BRANCH   4  37
ATOM     37  O   UNL     1       9.797   2.905  -3.424  1.00  0.00    -0.496 OA
ATOM     38  C   UNL     1       9.655   1.624  -2.826  1.00  0.00     0.278 C 
ENDBRANCH   4  37
TORSDOF 10
ENDMDL
MODEL 6
REMARK VINA RESULT:    -7.706      3.584     10.657
REMARK INTER + INTRA:         -13.321
REMARK INTER:                 -11.781
REMARK INTRA:                  -1.541
REMARK UNBOUND:                -1.336
REMARK SMILES CC[C@@H](Cc1ccc(OC)c(CNC(=O)c2ccc([C@]34C[C@H]5C[C@H](C[C@H](C5)C3)C4)cc2F)c1)C(=O)O
REMARK SMILES IDX 5 1 6 2 7 3 8 4 11 5 33 6 4 7 3 8 2 9 1 10 34 11 35 12 36 13
REMARK SMILES IDX 12 15 13 16 14 17 15 18 16 20 17 21 31 22 18 23 30 24 19 25
REMARK SMILES IDX 32 26 20 27 28 28 29 29 21 30 26 31 24 32 22 33 27 34 25 35
REMARK SMILES IDX 23 36 9 37 10 38
REMARK H PARENT 36 14 13 19
ROOT
ATOM      1  C   UNL     1      10.200   7.870 -11.565  1.00  0.00    -0.047 A 
ATOM      2  C   UNL     1       9.755   6.922 -12.489  1.00  0.00     0.007 A 
ATOM      3  C   UNL     1       9.692   5.566 -12.146  1.00  0.00     0.047 A 
ATOM      4  C   UNL     1      10.082   5.133 -10.876  1.00  0.00     0.123 A 
ATOM      5  C   UNL     1      10.554   6.073  -9.943  1.00  0.00     0.014 A 
ATOM      6  C   UNL     1      10.599   7.435 -10.296  1.00  0.00     0.013 A 
ENDROOT
BRANCH   1   7
ATOM      7  C   UNL     1      10.252   9.335 -11.926  1.00  0.00     0.050 C 
BRANCH   7   8
ATOM      8  C   UNL     1      10.843   9.613 -13.321  1.00  0.00     0.103 C 
BRANCH   8   9
ATOM      9  C   UNL     1      12.340   9.959 -13.267  1.00  0.00     0.012 C 
ATOM     10  C   UNL     1      13.234   8.735 -13.426  1.00  0.00     0.005 C 
ENDBRANCH   8   9
BRANCH   8  11
ATOM     11  C   UNL     1      10.071  10.769 -13.913  1.00  0.00     0.306 C 
ATOM     12  O   UNL     1       8.857  10.881 -13.971  1.00  0.00    -0.252 OA
BRANCH  11  13
ATOM     13  O   UNL     1      10.871  11.738 -14.395  1.00  0.00    -0.481 OA
ATOM     14  H   UNL     1      11.601  11.797 -13.742  1.00  0.00     0.296 HD
ENDBRANCH  11  13
ENDBRANCH   8  11
ENDBRANCH   7   8
ENDBRANCH   1   7
BRANCH   5  15
ATOM     15  C   UNL     1      10.977   5.670  -8.553  1.00  0.00     0.156 C 
BRANCH  15  16
ATOM     16  N   UNL     1       9.866   5.752  -7.633  1.00  0.00    -0.348 N 
ATOM     17  C   UNL     1       9.139   4.651  -7.248  1.00  0.00     0.254 C 
ATOM     18  O   UNL     1       9.362   3.522  -7.676  1.00  0.00    -0.269 OA
ATOM     19  H   UNL     1       9.678   6.658  -7.222  1.00  0.00     0.164 HD
BRANCH  17  20
ATOM     20  C   UNL     1       8.039   4.865  -6.267  1.00  0.00     0.075 A 
ATOM     21  C   UNL     1       7.000   5.740  -6.610  1.00  0.00     0.017 A 
ATOM     22  C   UNL     1       7.995   4.250  -5.019  1.00  0.00     0.136 A 
ATOM     23  C   UNL     1       5.950   5.995  -5.716  1.00  0.00     0.005 A 
ATOM     24  C   UNL     1       6.948   4.503  -4.127  1.00  0.00     0.044 A 
ATOM     25  C   UNL     1       5.901   5.385  -4.452  1.00  0.00    -0.039 A 
ATOM     26  F   UNL     1       8.960   3.404  -4.623  1.00  0.00    -0.206 F 
BRANCH  25  27
ATOM     27  C   UNL     1       4.775   5.655  -3.439  1.00  0.00    -0.004 C 
ATOM     28  C   UNL     1       5.228   6.727  -2.404  1.00  0.00     0.015 C 
ATOM     29  C   UNL     1       4.339   4.393  -2.633  1.00  0.00     0.015 C 
ATOM     30  C   UNL     1       3.511   6.186  -4.178  1.00  0.00     0.015 C 
ATOM     31  C   UNL     1       4.095   7.059  -1.415  1.00  0.00    -0.010 C 
ATOM     32  C   UNL     1       3.209   4.718  -1.640  1.00  0.00    -0.010 C 
ATOM     33  C   UNL     1       2.384   6.520  -3.184  1.00  0.00    -0.010 C 
ATOM     34  C   UNL     1       2.879   7.586  -2.194  1.00  0.00     0.007 C 
ATOM     35  C   UNL     1       3.697   5.788  -0.653  1.00  0.00     0.007 C 
ATOM     36  C   UNL     1       1.995   5.251  -2.413  1.00  0.00     0.007 C 
ENDBRANCH  25  27
ENDBRANCH  17  20
ENDBRANCH  15  16
ENDBRANCH   5  15
BRANCH   4  37
ATOM     37  O   UNL     1      10.033   3.833 -10.447  1.00  0.00    -0.496 OA
ATOM     38  C   UNL     1      10.977   2.925 -11.000  1.00  0.00     0.278 C 
ENDBRANCH   4  37
TORSDOF 10
ENDMDL
MODEL 7
REMARK VINA RESULT:    -7.656      2.356      4.480
REMARK INTER + INTRA:         -13.244
REMARK INTER:                 -11.511
REMARK INTRA:                  -1.732
REMARK UNBOUND:                -1.336
REMARK SMILES CC[C@@H](Cc1ccc(OC)c(CNC(=O)c2ccc([C@]34C[C@H]5C[C@H](C[C@H](C5)C3)C4)cc2F)c1)C(=O)O
REMARK SMILES IDX 5 1 6 2 7 3 8 4 11 5 33 6 4 7 3 8 2 9 1 10 34 11 35 12 36 13
REMARK SMILES IDX 12 15 13 16 14 17 15 18 16 20 17 21 31 22 18 23 30 24 19 25
REMARK SMILES IDX 32 26 20 27 28 28 29 29 21 30 26 31 24 32 22 33 27 34 25 35
REMARK SMILES IDX 23 36 9 37 10 38
REMARK H PARENT 36 14 13 19
ROOT
ATOM      1  C   UNL     1       7.800   4.325  -2.578  1.00  0.00    -0.047 A 
ATOM      2  C   UNL     1       9.085   4.173  -2.052  1.00  0.00     0.007 A 
ATOM      3  C   UNL     1      10.119   3.646  -2.834  1.00  0.00     0.047 A 
ATOM      4  C   UNL     1       9.885   3.254  -4.154  1.00  0.00     0.123 A 
ATOM      5  C   UNL     1       8.592   3.379  -4.690  1.00  0.00     0.014 A 
ATOM      6  C   UNL     1       7.564   3.923  -3.898  1.00  0.00     0.013 A 
ENDROOT
BRANCH   1   7
ATOM      7  C   UNL     1       6.687   4.909  -1.742  1.00  0.00     0.050 C 
BRANCH   7   8
ATOM      8  C   UNL     1       5.296   4.802  -2.395  1.00  0.00     0.103 C 
BRANCH   8   9
ATOM      9  C   UNL     1       4.805   6.147  -2.957  1.00  0.00     0.012 C 
ATOM     10  C   UNL     1       4.568   6.104  -4.462  1.00  0.00     0.005 C 
ENDBRANCH   8   9
BRANCH   8  11
ATOM     11  C   UNL     1       4.339   4.311  -1.334  1.00  0.00     0.306 C 
ATOM     12  O   UNL     1       4.594   4.117  -0.156  1.00  0.00    -0.252 OA
BRANCH  11  13
ATOM     13  O   UNL     1       3.097   4.100  -1.808  1.00  0.00    -0.481 OA
ATOM     14  H   UNL     1       2.779   3.316  -1.314  1.00  0.00     0.296 HD
ENDBRANCH  11  13
ENDBRANCH   8  11
ENDBRANCH   7   8
ENDBRANCH   1   7
BRANCH   5  15
ATOM     15  C   UNL     1       8.278   2.985  -6.112  1.00  0.00     0.156 C 
BRANCH  15  16
ATOM     16  N   UNL     1       8.652   4.035  -7.032  1.00  0.00    -0.348 N 
ATOM     17  C   UNL     1       9.563   3.846  -8.043  1.00  0.00     0.254 C 
ATOM     18  O   UNL     1      10.146   2.781  -8.225  1.00  0.00    -0.269 OA
ATOM     19  H   UNL     1       8.161   4.916  -6.944  1.00  0.00     0.164 HD
BRANCH  17  20
ATOM     20  C   UNL     1       9.836   5.000  -8.944  1.00  0.00     0.075 A 
ATOM     21  C   UNL     1       9.859   6.287  -8.392  1.00  0.00     0.017 A 
ATOM     22  C   UNL     1      10.056   4.869 -10.312  1.00  0.00     0.136 A 
ATOM     23  C   UNL     1      10.091   7.412  -9.197  1.00  0.00     0.005 A 
ATOM     24  C   UNL     1      10.288   5.989 -11.116  1.00  0.00     0.044 A 
ATOM     25  C   UNL     1      10.306   7.290 -10.579  1.00  0.00    -0.039 A 
ATOM     26  F   UNL     1      10.042   3.665 -10.909  1.00  0.00    -0.206 F 
BRANCH  25  27
ATOM     27  C   UNL     1      10.544   8.501 -11.496  1.00  0.00    -0.004 C 
ATOM     28  C   UNL     1      10.753   9.788 -10.644  1.00  0.00     0.015 C 
ATOM     29  C   UNL     1       9.367   8.787 -12.479  1.00  0.00     0.015 C 
ATOM     30  C   UNL     1      11.818   8.270 -12.362  1.00  0.00     0.015 C 
ATOM     31  C   UNL     1      11.054  11.005 -11.540  1.00  0.00    -0.010 C 
ATOM     32  C   UNL     1       9.660  10.003 -13.375  1.00  0.00    -0.010 C 
ATOM     33  C   UNL     1      12.116   9.491 -13.251  1.00  0.00    -0.010 C 
ATOM     34  C   UNL     1      12.323  10.728 -12.363  1.00  0.00     0.007 C 
ATOM     35  C   UNL     1       9.874  11.241 -12.491  1.00  0.00     0.007 C 
ATOM     36  C   UNL     1      10.930   9.734 -14.194  1.00  0.00     0.007 C 
ENDBRANCH  25  27
ENDBRANCH  17  20
ENDBRANCH  15  16
ENDBRANCH   5  15
BRANCH   4  37
ATOM     37  O   UNL     1      10.840   2.751  -4.999  1.00  0.00    -0.496 OA
ATOM     38  C   UNL     1      11.392   1.481  -4.679  1.00  0.00     0.278 C 
ENDBRANCH   4  37
TORSDOF 10
ENDMDL
MODEL 8
REMARK VINA RESULT:    -7.317      3.104     10.047
REMARK INTER + INTRA:         -12.717
REMARK INTER:                 -11.286
REMARK INTRA:                  -1.431
REMARK UNBOUND:                -1.336
REMARK SMILES CC[C@@H](Cc1ccc(OC)c(CNC(=O)c2ccc([C@]34C[C@H]5C[C@H](C[C@H](C5)C3)C4)cc2F)c1)C(=O)O
REMARK SMILES IDX 5 1 6 2 7 3 8 4 11 5 33 6 4 7 3 8 2 9 1 10 34 11 35 12 36 13
REMARK SMILES IDX 12 15 13 16 14 17 15 18 16 20 17 21 31 22 18 23 30 24 19 25
REMARK SMILES IDX 32 26 20 27 28 28 29 29 21 30 26 31 24 32 22 33 27 34 25 35
REMARK SMILES IDX 23 36 9 37 10 38
REMARK H PARENT 36 14 13 19
ROOT
ATOM      1  C   UNL     1      10.808  11.066  -9.836  1.00  0.00    -0.047 A 
ATOM      2  C   UNL     1      10.711  12.063 -10.810  1.00  0.00     0.007 A 
ATOM      3  C   UNL     1      10.459  11.732 -12.147  1.00  0.00     0.047 A 
ATOM      4  C   UNL     1      10.307  10.399 -12.535  1.00  0.00     0.123 A 
ATOM      5  C   UNL     1      10.425   9.383 -11.570  1.00  0.00     0.014 A 
ATOM      6  C   UNL     1      10.665   9.730 -10.227  1.00  0.00     0.013 A 
ENDROOT
BRANCH   1   7
ATOM      7  C   UNL     1      11.062  11.421  -8.391  1.00  0.00     0.050 C 
BRANCH   7   8
ATOM      8  C   UNL     1       9.810  11.913  -7.641  1.00  0.00     0.103 C 
BRANCH   8   9
ATOM      9  C   UNL     1      10.003  13.310  -7.027  1.00  0.00     0.012 C 
ATOM     10  C   UNL     1       9.725  14.433  -8.019  1.00  0.00     0.005 C 
ENDBRANCH   8   9
BRANCH   8  11
ATOM     11  C   UNL     1       9.517  10.911  -6.550  1.00  0.00     0.306 C 
ATOM     12  O   UNL     1       8.430  10.424  -6.280  1.00  0.00    -0.252 OA
BRANCH  11  13
ATOM     13  O   UNL     1      10.615  10.559  -5.856  1.00  0.00    -0.481 OA
ATOM     14  H   UNL     1      10.462   9.619  -5.621  1.00  0.00     0.296 HD
ENDBRANCH  11  13
ENDBRANCH   8  11
ENDBRANCH   7   8
ENDBRANCH   1   7
BRANCH   5  15
ATOM     15  C   UNL     1      10.259   7.926 -11.924  1.00  0.00     0.156 C 
BRANCH  15  16
ATOM     16  N   UNL     1      10.148   7.117 -10.732  1.00  0.00    -0.348 N 
ATOM     17  C   UNL     1      10.089   5.745 -10.770  1.00  0.00     0.254 C 
ATOM     18  O   UNL     1      10.098   5.106 -11.818  1.00  0.00    -0.269 OA
ATOM     19  H   UNL     1      10.182   7.603  -9.844  1.00  0.00     0.164 HD
BRANCH  17  20
ATOM     20  C   UNL     1      10.009   5.025  -9.468  1.00  0.00     0.075 A 
ATOM     21  C   UNL     1      10.260   5.744  -8.293  1.00  0.00     0.017 A 
ATOM     22  C   UNL     1       9.712   3.671  -9.358  1.00  0.00     0.136 A 
ATOM     23  C   UNL     1      10.220   5.113  -7.041  1.00  0.00     0.005 A 
ATOM     24  C   UNL     1       9.671   3.039  -8.111  1.00  0.00     0.044 A 
ATOM     25  C   UNL     1       9.928   3.745  -6.921  1.00  0.00    -0.039 A 
ATOM     26  F   UNL     1       9.466   2.920 -10.445  1.00  0.00    -0.206 F 
BRANCH  25  27
ATOM     27  C   UNL     1       9.894   3.015  -5.567  1.00  0.00    -0.004 C 
ATOM     28  C   UNL     1      11.045   1.968  -5.491  1.00  0.00     0.015 C 
ATOM     29  C   UNL     1       8.560   2.252  -5.298  1.00  0.00     0.015 C 
ATOM     30  C   UNL     1      10.080   4.037  -4.407  1.00  0.00     0.015 C 
ATOM     31  C   UNL     1      11.069   1.266  -4.121  1.00  0.00    -0.010 C 
ATOM     32  C   UNL     1       8.578   1.545  -3.931  1.00  0.00    -0.010 C 
ATOM     33  C   UNL     1      10.107   3.330  -3.040  1.00  0.00    -0.010 C 
ATOM     34  C   UNL     1      11.263   2.317  -3.016  1.00  0.00     0.007 C 
ATOM     35  C   UNL     1       9.736   0.538  -3.899  1.00  0.00     0.007 C 
ATOM     36  C   UNL     1       8.779   2.591  -2.824  1.00  0.00     0.007 C 
ENDBRANCH  25  27
ENDBRANCH  17  20
ENDBRANCH  15  16
ENDBRANCH   5  15
BRANCH   4  37
ATOM     37  O   UNL     1      10.037   9.984 -13.813  1.00  0.00    -0.496 OA
ATOM     38  C   UNL     1      11.086  10.078 -14.767  1.00  0.00     0.278 C 
ENDBRANCH   4  37
TORSDOF 10
ENDMDL
MODEL 9
REMARK VINA RESULT:    -7.019      8.243     10.075
REMARK INTER + INTRA:         -12.253
REMARK INTER:                 -10.669
REMARK INTRA:                  -1.584
REMARK UNBOUND:                -1.336
REMARK SMILES CC[C@@H](Cc1ccc(OC)c(CNC(=O)c2ccc([C@]34C[C@H]5C[C@H](C[C@H](C5)C3)C4)cc2F)c1)C(=O)O
REMARK SMILES IDX 5 1 6 2 7 3 8 4 11 5 33 6 4 7 3 8 2 9 1 10 34 11 35 12 36 13
REMARK SMILES IDX 12 15 13 16 14 17 15 18 16 20 17 21 31 22 18 23 30 24 19 25
REMARK SMILES IDX 32 26 20 27 28 28 29 29 21 30 26 31 24 32 22 33 27 34 25 35
REMARK SMILES IDX 23 36 9 37 10 38
REMARK H PARENT 36 14 13 19
ROOT
ATOM      1  C   UNL     1      14.760  14.314  -2.050  1.00  0.00    -0.047 A 
ATOM      2  C   UNL     1      15.488  15.131  -2.918  1.00  0.00     0.007 A 
ATOM      3  C   UNL     1      14.914  15.603  -4.103  1.00  0.00     0.047 A 
ATOM      4  C   UNL     1      13.604  15.261  -4.446  1.00  0.00     0.123 A 
ATOM      5  C   UNL     1      12.866  14.421  -3.594  1.00  0.00     0.014 A 
ATOM      6  C   UNL     1      13.450  13.964  -2.399  1.00  0.00     0.013 A 
ENDROOT
BRANCH   1   7
ATOM      7  C   UNL     1      15.370  13.817  -0.762  1.00  0.00     0.050 C 
BRANCH   7   8
ATOM      8  C   UNL     1      15.761  14.941   0.216  1.00  0.00     0.103 C 
BRANCH   8   9
ATOM      9  C   UNL     1      17.230  14.848   0.662  1.00  0.00     0.012 C 
ATOM     10  C   UNL     1      18.208  15.013  -0.494  1.00  0.00     0.005 C 
ENDBRANCH   8   9
BRANCH   8  11
ATOM     11  C   UNL     1      14.853  14.825   1.419  1.00  0.00     0.306 C 
ATOM     12  O   UNL     1      13.633  14.839   1.414  1.00  0.00    -0.252 OA
BRANCH  11  13
ATOM     13  O   UNL     1      15.531  14.685   2.573  1.00  0.00    -0.481 OA
ATOM     14  H   UNL     1      14.833  14.594   3.255  1.00  0.00     0.296 HD
ENDBRANCH  11  13
ENDBRANCH   8  11
ENDBRANCH   7   8
ENDBRANCH   1   7
BRANCH   5  15
ATOM     15  C   UNL     1      11.443  14.026  -3.903  1.00  0.00     0.156 C 
BRANCH  15  16
ATOM     16  N   UNL     1      11.333  13.509  -5.247  1.00  0.00    -0.348 N 
ATOM     17  C   UNL     1      10.786  12.279  -5.526  1.00  0.00     0.254 C 
ATOM     18  O   UNL     1      10.376  11.519  -4.654  1.00  0.00    -0.269 OA
ATOM     19  H   UNL     1      11.619  14.124  -5.999  1.00  0.00     0.164 HD
BRANCH  17  20
ATOM     20  C   UNL     1      10.700  11.876  -6.958  1.00  0.00     0.075 A 
ATOM     21  C   UNL     1      11.205  10.625  -7.330  1.00  0.00     0.017 A 
ATOM     22  C   UNL     1      10.155  12.686  -7.949  1.00  0.00     0.136 A 
ATOM     23  C   UNL     1      11.170  10.203  -8.667  1.00  0.00     0.005 A 
ATOM     24  C   UNL     1      10.118  12.267  -9.283  1.00  0.00     0.044 A 
ATOM     25  C   UNL     1      10.629  11.016  -9.676  1.00  0.00    -0.039 A 
ATOM     26  F   UNL     1       9.657  13.901  -7.664  1.00  0.00    -0.206 F 
BRANCH  25  27
ATOM     27  C   UNL     1      10.590  10.595 -11.155  1.00  0.00    -0.004 C 
ATOM     28  C   UNL     1       9.714   9.320 -11.329  1.00  0.00     0.015 C 
ATOM     29  C   UNL     1      11.994  10.274 -11.755  1.00  0.00     0.015 C 
ATOM     30  C   UNL     1       9.975  11.738 -12.016  1.00  0.00     0.015 C 
ATOM     31  C   UNL     1       9.609   8.915 -12.811  1.00  0.00    -0.010 C 
ATOM     32  C   UNL     1      11.897   9.865 -13.235  1.00  0.00    -0.010 C 
ATOM     33  C   UNL     1       9.869  11.326 -13.496  1.00  0.00    -0.010 C 
ATOM     34  C   UNL     1       8.989  10.071 -13.611  1.00  0.00     0.007 C 
ATOM     35  C   UNL     1      11.013   8.616 -13.356  1.00  0.00     0.007 C 
ATOM     36  C   UNL     1      11.272  11.015 -14.037  1.00  0.00     0.007 C 
ENDBRANCH  25  27
ENDBRANCH  17  20
ENDBRANCH  15  16
ENDBRANCH   5  15
BRANCH   4  37
ATOM     37  O   UNL     1      12.954  15.695  -5.573  1.00  0.00    -0.496 OA
ATOM     38  C   UNL     1      13.685  15.694  -6.791  1.00  0.00     0.278 C 
ENDBRANCH   4  37
TORSDOF 10
ENDMDL
