MODEL 8
REMARK minimizedAffinity -6.77593231
REMARK CNNscore 0.283401817
REMARK CNNaffinity 6.07792425
REMARK SMILES CCC(CC)n1cnc2c(-c3cnc(N)cn3)nc(N3C[C@H]4CC[C@@H](C3)O4)nc21
REMARK SMILES IDX 6 1 7 2 8 3 9 4 10 5 18 6 19 7 28 8 29 9 3 10 2 11 1 12 4 13
REMARK SMILES IDX 5 14 20 15 26 16 21 17 25 18 22 19 24 20 27 21 23 22 11 23
REMARK SMILES IDX 12 24 17 25 13 26 16 27 14 28 15 29
REMARK H PARENT 15 30 15 31
ROOT
ATOM      1  N   UNL     1      35.581  47.929  41.800  1.00  0.00    -0.312 N 
ATOM      2  C   UNL     1      36.582  48.828  42.049  1.00  0.00     0.202 A 
ATOM      3  N   UNL     1      36.432  49.418  43.214  1.00  0.00    -0.233 NA
ATOM      4  C   UNL     1      35.289  48.870  43.761  1.00  0.00     0.136 A 
ATOM      5  C   UNL     1      34.586  49.056  44.954  1.00  0.00     0.124 A 
ATOM      6  N   UNL     1      33.432  48.337  45.144  1.00  0.00    -0.209 NA
ATOM      7  C   UNL     1      33.003  47.453  44.219  1.00  0.00     0.228 A 
ATOM      8  N   UNL     1      33.629  47.220  43.056  1.00  0.00    -0.193 NA
ATOM      9  C   UNL     1      34.743  47.947  42.886  1.00  0.00     0.166 A 
ENDROOT
BRANCH   1  10
ATOM     10  C   UNL     1      35.408  47.097  40.616  1.00  0.00     0.090 C 
BRANCH  10  11
ATOM     11  C   UNL     1      33.917  46.889  40.277  1.00  0.00     0.022 C 
ATOM     12  C   UNL     1      33.552  45.519  39.721  1.00  0.00     0.006 C 
ENDBRANCH  10  11
BRANCH  10  13
ATOM     13  C   UNL     1      36.202  45.775  40.656  1.00  0.00     0.022 C 
ATOM     14  C   UNL     1      37.423  45.790  39.745  1.00  0.00     0.006 C 
ENDBRANCH  10  13
ENDBRANCH   1  10
BRANCH   7  15
ATOM     15  N   UNL     1      31.815  46.771  44.476  1.00  0.00    -0.336 N 
ATOM     16  C   UNL     1      30.881  47.469  45.381  1.00  0.00     0.151 C 
ATOM     17  C   UNL     1      31.190  46.143  43.294  1.00  0.00     0.151 C 
ATOM     18  C   UNL     1      29.589  46.638  45.577  1.00  0.00     0.138 C 
ATOM     19  C   UNL     1      29.868  45.440  43.685  1.00  0.00     0.138 C 
ATOM     20  C   UNL     1      29.872  45.224  46.077  1.00  0.00     0.037 C 
ATOM     21  O   UNL     1      28.985  46.417  44.281  1.00  0.00    -0.371 OA
ATOM     22  C   UNL     1      30.059  44.414  44.799  1.00  0.00     0.037 C 
ENDBRANCH   7  15
BRANCH   5  23
ATOM     23  C   UNL     1      34.995  49.984  46.007  1.00  0.00     0.110 A 
ATOM     24  C   UNL     1      34.955  49.627  47.356  1.00  0.00     0.144 A 
ATOM     25  N   UNL     1      35.448  51.215  45.657  1.00  0.00    -0.249 NA
ATOM     26  N   UNL     1      35.329  50.447  48.377  1.00  0.00    -0.236 NA
ATOM     27  C   UNL     1      35.827  52.029  46.673  1.00  0.00     0.158 A 
ATOM     28  C   UNL     1      35.761  51.665  48.014  1.00  0.00     0.141 A 
BRANCH  28  29
ATOM     29  N   UNL     1      36.163  52.517  49.039  1.00  0.00    -0.382 N 
ATOM     30  H   UNL     1      35.687  53.411  48.993  1.00  0.00     0.158 HD
ATOM     31  H   UNL     1      35.978  52.036  49.915  1.00  0.00     0.158 HD
ENDBRANCH  28  29
ENDBRANCH   5  23
TORSDOF 6
ENDMDL
