MODEL 1
REMARK minimizedAffinity -9.14169598
REMARK CNNscore 0.984501183
REMARK CNNaffinity 8.00694942
REMARK SMILES COc1ncc(Nc2ncc(C(C)(C)O)cc2-c2nc(C)nc(N)n2)cc1F
REMARK SMILES IDX 8 1 9 2 10 3 11 4 16 5 17 6 7 7 6 9 3 10 4 11 27 12 5 13
REMARK SMILES IDX 26 14 28 15 2 16 1 17 18 18 19 19 25 20 20 21 23 22 22 23
REMARK SMILES IDX 21 24 24 25 12 28 13 29 14 30 15 31
REMARK H PARENT 7 8 24 26 24 27 15 32
ROOT
ATOM      1  C   UNL     1      32.369  46.699  42.418  1.00  0.00     0.141 A 
ATOM      2  N   UNL     1      33.229  46.967  41.406  1.00  0.00    -0.238 NA
ATOM      3  C   UNL     1      34.359  47.660  41.670  1.00  0.00     0.120 A 
ATOM      4  C   UNL     1      34.715  48.139  42.921  1.00  0.00     0.002 A 
ATOM      5  C   UNL     1      33.815  47.858  43.955  1.00  0.00     0.024 A 
ATOM      6  C   UNL     1      32.622  47.130  43.738  1.00  0.00     0.063 A 
ENDROOT
BRANCH   1   7
ATOM      7  N   UNL     1      31.160  46.025  42.118  1.00  0.00    -0.338 N 
ATOM      8  H   UNL     1      30.656  45.834  42.984  1.00  0.00     0.168 HD
BRANCH   7   9
ATOM      9  C   UNL     1      30.840  45.138  41.076  1.00  0.00     0.061 A 
ATOM     10  C   UNL     1      30.357  43.377  38.993  1.00  0.00     0.250 A 
ATOM     11  N   UNL     1      30.097  42.954  40.250  1.00  0.00    -0.217 NA
ATOM     12  C   UNL     1      30.869  44.635  38.710  1.00  0.00     0.187 A 
ATOM     13  C   UNL     1      30.353  43.840  41.251  1.00  0.00     0.141 A 
ATOM     14  C   UNL     1      31.121  45.515  39.757  1.00  0.00     0.072 A 
ATOM     15  F   UNL     1      31.131  45.017  37.451  1.00  0.00    -0.201 F 
BRANCH  10  16
ATOM     16  O   UNL     1      30.120  42.535  37.924  1.00  0.00    -0.479 OA
ATOM     17  C   UNL     1      30.172  43.202  36.667  1.00  0.00     0.280 C 
ENDBRANCH  10  16
ENDBRANCH   7   9
ENDBRANCH   1   7
BRANCH   6  18
ATOM     18  C   UNL     1      31.720  46.846  44.872  1.00  0.00     0.168 A 
ATOM     19  N   UNL     1      30.960  45.743  44.811  1.00  0.00    -0.213 NA
ATOM     20  N   UNL     1      31.735  47.694  45.903  1.00  0.00    -0.193 NA
ATOM     21  C   UNL     1      30.189  45.533  45.879  1.00  0.00     0.131 A 
ATOM     22  C   UNL     1      30.932  47.385  46.906  1.00  0.00     0.223 A 
ATOM     23  N   UNL     1      30.125  46.335  46.940  1.00  0.00    -0.198 NA
ATOM     24  C   UNL     1      29.290  44.336  45.862  1.00  0.00     0.090 C 
BRANCH  22  25
ATOM     25  N   UNL     1      30.907  48.241  47.987  1.00  0.00    -0.368 N 
ATOM     26  H   UNL     1      30.026  48.169  48.477  1.00  0.00     0.159 HD
ATOM     27  H   UNL     1      31.216  49.164  47.716  1.00  0.00     0.159 HD
ENDBRANCH  22  25
ENDBRANCH   6  18
BRANCH   4  28
ATOM     28  C   UNL     1      36.001  48.917  43.138  1.00  0.00     0.086 C 
ATOM     29  C   UNL     1      35.873  50.352  42.612  1.00  0.00     0.047 C 
ATOM     30  C   UNL     1      37.194  48.206  42.486  1.00  0.00     0.047 C 
BRANCH  28  31
ATOM     31  O   UNL     1      36.280  49.006  44.540  1.00  0.00    -0.386 OA
ATOM     32  H   UNL     1      37.109  49.502  44.651  1.00  0.00     0.211 HD
ENDBRANCH  28  31
ENDBRANCH   4  28
TORSDOF 7
ENDMDL
