MODEL 1
REMARK VINA RESULT:    -8.389      0.000      0.000
REMARK INTER + INTRA:         -17.705
REMARK INTER:                 -14.519
REMARK INTRA:                  -3.186
REMARK UNBOUND:                -3.186
REMARK SMILES CN(CCOc1ccc(C[C@H](Nc2ccccc2C(=O)c2ccccc2)C(=O)O)cc1)c1nc2ccccc2o1
REMARK SMILES IDX 6 1 7 2 8 3 9 4 30 5 31 6 5 7 4 8 3 9 2 10 1 11 32 12 33 13
REMARK SMILES IDX 40 14 34 15 39 16 35 17 38 18 36 19 37 20 10 21 11 22 12 23
REMARK SMILES IDX 13 25 14 26 18 27 15 28 17 29 16 30 19 31 20 32 21 33 22 34
REMARK SMILES IDX 26 35 23 36 25 37 24 38 27 39 28 40 29 41
REMARK H PARENT 12 24 29 42
ROOT
ATOM      1  C   UNL     1      -9.720  -8.271 -30.357  1.00  0.00     0.119 A 
ATOM      2  C   UNL     1      -8.394  -7.859 -30.500  1.00  0.00     0.047 A 
ATOM      3  C   UNL     1      -7.499  -7.949 -29.432  1.00  0.00     0.007 A 
ATOM      4  C   UNL     1      -7.922  -8.454 -28.199  1.00  0.00    -0.045 A 
ATOM      5  C   UNL     1      -9.252  -8.869 -28.058  1.00  0.00     0.007 A 
ATOM      6  C   UNL     1     -10.145  -8.780 -29.132  1.00  0.00     0.047 A 
ENDROOT
BRANCH   1   7
ATOM      7  O   UNL     1     -10.488  -8.124 -31.479  1.00  0.00    -0.492 OA
BRANCH   7   8
ATOM      8  C   UNL     1     -10.436  -6.857 -32.145  1.00  0.00     0.251 C 
BRANCH   8   9
ATOM      9  C   UNL     1     -11.612  -5.991 -31.669  1.00  0.00     0.162 C 
BRANCH   9  10
ATOM     10  N   UNL     1     -11.202  -5.001 -30.673  1.00  0.00    -0.326 N 
ATOM     11  C   UNL     1     -10.421  -3.860 -31.104  1.00  0.00     0.148 C 
BRANCH  10  12
ATOM     12  C   UNL     1     -11.798  -5.009 -29.461  1.00  0.00     0.298 A 
ATOM     13  N   UNL     1     -12.304  -3.989 -28.794  1.00  0.00    -0.193 NA
ATOM     14  O   UNL     1     -11.897  -6.213 -28.813  1.00  0.00    -0.423 OA
ATOM     15  C   UNL     1     -12.767  -4.552 -27.632  1.00  0.00     0.111 A 
ATOM     16  C   UNL     1     -12.522  -5.913 -27.641  1.00  0.00     0.156 A 
ATOM     17  C   UNL     1     -13.400  -3.985 -26.519  1.00  0.00     0.032 A 
ATOM     18  C   UNL     1     -12.862  -6.788 -26.617  1.00  0.00     0.049 A 
ATOM     19  C   UNL     1     -13.760  -4.833 -25.460  1.00  0.00     0.003 A 
ATOM     20  C   UNL     1     -13.493  -6.208 -25.511  1.00  0.00     0.004 A 
ENDBRANCH  10  12
ENDBRANCH   9  10
ENDBRANCH   8   9
ENDBRANCH   7   8
ENDBRANCH   1   7
BRANCH   4  21
ATOM     21  C   UNL     1      -6.953  -8.571 -27.044  1.00  0.00     0.072 C 
BRANCH  21  22
ATOM     22  C   UNL     1      -7.503  -9.407 -25.872  1.00  0.00     0.194 C 
BRANCH  22  23
ATOM     23  N   UNL     1      -7.982  -8.497 -24.823  1.00  0.00    -0.371 N 
ATOM     24  H   UNL     1      -7.266  -7.885 -24.412  1.00  0.00     0.161 HD
BRANCH  23  25
ATOM     25  C   UNL     1      -9.080  -8.699 -23.997  1.00  0.00     0.046 A 
ATOM     26  C   UNL     1     -10.397  -8.690 -24.479  1.00  0.00     0.026 A 
ATOM     27  C   UNL     1      -8.908  -8.833 -22.597  1.00  0.00     0.046 A 
ATOM     28  C   UNL     1     -11.493  -8.866 -23.626  1.00  0.00     0.002 A 
ATOM     29  C   UNL     1     -10.007  -9.033 -21.745  1.00  0.00     0.014 A 
ATOM     30  C   UNL     1     -11.300  -9.045 -22.262  1.00  0.00     0.001 A 
BRANCH  27  31
ATOM     31  C   UNL     1      -7.537  -8.811 -22.010  1.00  0.00     0.195 C 
ATOM     32  O   UNL     1      -6.835  -9.820 -22.061  1.00  0.00    -0.289 OA
BRANCH  31  33
ATOM     33  C   UNL     1      -6.987  -7.584 -21.372  1.00  0.00     0.023 A 
ATOM     34  C   UNL     1      -7.745  -6.413 -21.252  1.00  0.00     0.012 A 
ATOM     35  C   UNL     1      -5.658  -7.604 -20.928  1.00  0.00     0.012 A 
ATOM     36  C   UNL     1      -7.182  -5.278 -20.662  1.00  0.00     0.001 A 
ATOM     37  C   UNL     1      -5.101  -6.466 -20.341  1.00  0.00     0.001 A 
ATOM     38  C   UNL     1      -5.863  -5.306 -20.206  1.00  0.00     0.000 A 
ENDBRANCH  31  33
ENDBRANCH  27  31
ENDBRANCH  23  25
ENDBRANCH  22  23
BRANCH  22  39
ATOM     39  C   UNL     1      -6.397 -10.313 -25.324  1.00  0.00     0.326 C 
ATOM     40  O   UNL     1      -5.191 -10.177 -25.471  1.00  0.00    -0.250 OA
BRANCH  39  41
ATOM     41  O   UNL     1      -6.869 -11.343 -24.586  1.00  0.00    -0.480 OA
ATOM     42  H   UNL     1      -6.323 -11.308 -23.774  1.00  0.00     0.296 HD
ENDBRANCH  39  41
ENDBRANCH  22  39
ENDBRANCH  21  22
ENDBRANCH   4  21
TORSDOF 13
ENDMDL
MODEL 2
REMARK VINA RESULT:    -8.384      1.877      8.777
REMARK INTER + INTRA:         -17.697
REMARK INTER:                 -14.410
REMARK INTRA:                  -3.287
REMARK UNBOUND:                -3.186
REMARK SMILES CN(CCOc1ccc(C[C@H](Nc2ccccc2C(=O)c2ccccc2)C(=O)O)cc1)c1nc2ccccc2o1
REMARK SMILES IDX 6 1 7 2 8 3 9 4 30 5 31 6 5 7 4 8 3 9 2 10 1 11 32 12 33 13
REMARK SMILES IDX 40 14 34 15 39 16 35 17 38 18 36 19 37 20 10 21 11 22 12 23
REMARK SMILES IDX 13 25 14 26 18 27 15 28 17 29 16 30 19 31 20 32 21 33 22 34
REMARK SMILES IDX 26 35 23 36 25 37 24 38 27 39 28 40 29 41
REMARK H PARENT 12 24 29 42
ROOT
ATOM      1  C   UNL     1      -9.982  -8.016 -25.347  1.00  0.00     0.119 A 
ATOM      2  C   UNL     1     -11.250  -8.126 -25.921  1.00  0.00     0.047 A 
ATOM      3  C   UNL     1     -11.402  -8.214 -27.307  1.00  0.00     0.007 A 
ATOM      4  C   UNL     1     -10.280  -8.191 -28.142  1.00  0.00    -0.045 A 
ATOM      5  C   UNL     1      -9.009  -8.082 -27.563  1.00  0.00     0.007 A 
ATOM      6  C   UNL     1      -8.860  -7.998 -26.174  1.00  0.00     0.047 A 
ENDROOT
BRANCH   1   7
ATOM      7  O   UNL     1      -9.978  -7.934 -23.983  1.00  0.00    -0.492 OA
BRANCH   7   8
ATOM      8  C   UNL     1     -10.411  -9.090 -23.257  1.00  0.00     0.251 C 
BRANCH   8   9
ATOM      9  C   UNL     1      -9.712  -9.115 -21.890  1.00  0.00     0.162 C 
BRANCH   9  10
ATOM     10  N   UNL     1      -8.256  -9.152 -22.013  1.00  0.00    -0.326 N 
ATOM     11  C   UNL     1      -7.653 -10.147 -22.877  1.00  0.00     0.148 C 
BRANCH  10  12
ATOM     12  C   UNL     1      -7.536  -8.098 -21.572  1.00  0.00     0.298 A 
ATOM     13  N   UNL     1      -7.952  -6.870 -21.326  1.00  0.00    -0.193 NA
ATOM     14  O   UNL     1      -6.197  -8.297 -21.347  1.00  0.00    -0.423 OA
ATOM     15  C   UNL     1      -6.820  -6.214 -20.915  1.00  0.00     0.111 A 
ATOM     16  C   UNL     1      -5.745  -7.083 -20.924  1.00  0.00     0.156 A 
ATOM     17  C   UNL     1      -6.614  -4.886 -20.522  1.00  0.00     0.032 A 
ATOM     18  C   UNL     1      -4.447  -6.745 -20.564  1.00  0.00     0.049 A 
ATOM     19  C   UNL     1      -5.316  -4.500 -20.151  1.00  0.00     0.003 A 
ATOM     20  C   UNL     1      -4.255  -5.415 -20.173  1.00  0.00     0.004 A 
ENDBRANCH  10  12
ENDBRANCH   9  10
ENDBRANCH   8   9
ENDBRANCH   7   8
ENDBRANCH   1   7
BRANCH   4  21
ATOM     21  C   UNL     1     -10.436  -8.304 -29.641  1.00  0.00     0.072 C 
BRANCH  21  22
ATOM     22  C   UNL     1      -9.502  -7.359 -30.422  1.00  0.00     0.194 C 
BRANCH  22  23
ATOM     23  N   UNL     1     -10.319  -6.451 -31.238  1.00  0.00    -0.371 N 
ATOM     24  H   UNL     1     -10.643  -6.836 -32.135  1.00  0.00     0.161 HD
BRANCH  23  25
ATOM     25  C   UNL     1     -10.282  -5.063 -31.212  1.00  0.00     0.046 A 
ATOM     26  C   UNL     1      -9.142  -4.332 -31.573  1.00  0.00     0.026 A 
ATOM     27  C   UNL     1     -11.390  -4.327 -30.722  1.00  0.00     0.046 A 
ATOM     28  C   UNL     1      -9.114  -2.934 -31.511  1.00  0.00     0.002 A 
ATOM     29  C   UNL     1     -11.370  -2.922 -30.683  1.00  0.00     0.014 A 
ATOM     30  C   UNL     1     -10.229  -2.228 -31.075  1.00  0.00     0.001 A 
BRANCH  27  31
ATOM     31  C   UNL     1     -12.623  -5.042 -30.282  1.00  0.00     0.195 C 
ATOM     32  O   UNL     1     -13.360  -5.560 -31.120  1.00  0.00    -0.289 OA
BRANCH  31  33
ATOM     33  C   UNL     1     -12.980  -5.157 -28.843  1.00  0.00     0.023 A 
ATOM     34  C   UNL     1     -12.196  -4.573 -27.840  1.00  0.00     0.012 A 
ATOM     35  C   UNL     1     -14.108  -5.911 -28.495  1.00  0.00     0.012 A 
ATOM     36  C   UNL     1     -12.558  -4.722 -26.498  1.00  0.00     0.001 A 
ATOM     37  C   UNL     1     -14.465  -6.057 -27.153  1.00  0.00     0.001 A 
ATOM     38  C   UNL     1     -13.692  -5.461 -26.157  1.00  0.00     0.000 A 
ENDBRANCH  31  33
ENDBRANCH  27  31
ENDBRANCH  23  25
ENDBRANCH  22  23
BRANCH  22  39
ATOM     39  C   UNL     1      -8.570  -8.182 -31.316  1.00  0.00     0.326 C 
ATOM     40  O   UNL     1      -8.855  -9.185 -31.955  1.00  0.00    -0.250 OA
BRANCH  39  41
ATOM     41  O   UNL     1      -7.317  -7.678 -31.384  1.00  0.00    -0.480 OA
ATOM     42  H   UNL     1      -7.176  -7.304 -30.490  1.00  0.00     0.296 HD
ENDBRANCH  39  41
ENDBRANCH  22  39
ENDBRANCH  21  22
ENDBRANCH   4  21
TORSDOF 13
ENDMDL
MODEL 3
REMARK VINA RESULT:    -8.353      2.276      9.403
REMARK INTER + INTRA:         -17.643
REMARK INTER:                 -15.056
REMARK INTRA:                  -2.587
REMARK UNBOUND:                -3.186
REMARK SMILES CN(CCOc1ccc(C[C@H](Nc2ccccc2C(=O)c2ccccc2)C(=O)O)cc1)c1nc2ccccc2o1
REMARK SMILES IDX 6 1 7 2 8 3 9 4 30 5 31 6 5 7 4 8 3 9 2 10 1 11 32 12 33 13
REMARK SMILES IDX 40 14 34 15 39 16 35 17 38 18 36 19 37 20 10 21 11 22 12 23
REMARK SMILES IDX 13 25 14 26 18 27 15 28 17 29 16 30 19 31 20 32 21 33 22 34
REMARK SMILES IDX 26 35 23 36 25 37 24 38 27 39 28 40 29 41
REMARK H PARENT 12 24 29 42
ROOT
ATOM      1  C   UNL     1      -9.082  -8.454 -24.395  1.00  0.00     0.119 A 
ATOM      2  C   UNL     1      -8.350  -8.497 -25.583  1.00  0.00     0.047 A 
ATOM      3  C   UNL     1      -8.993  -8.432 -26.821  1.00  0.00     0.007 A 
ATOM      4  C   UNL     1     -10.386  -8.324 -26.887  1.00  0.00    -0.045 A 
ATOM      5  C   UNL     1     -11.118  -8.279 -25.694  1.00  0.00     0.007 A 
ATOM      6  C   UNL     1     -10.470  -8.341 -24.455  1.00  0.00     0.047 A 
ENDROOT
BRANCH   1   7
ATOM      7  O   UNL     1      -8.328  -8.531 -23.257  1.00  0.00    -0.492 OA
BRANCH   7   8
ATOM      8  C   UNL     1      -8.246  -7.353 -22.446  1.00  0.00     0.251 C 
BRANCH   8   9
ATOM      9  C   UNL     1      -8.702  -7.692 -21.020  1.00  0.00     0.162 C 
BRANCH   9  10
ATOM     10  N   UNL     1      -8.392  -6.624 -20.070  1.00  0.00    -0.326 N 
ATOM     11  C   UNL     1      -9.240  -6.455 -18.908  1.00  0.00     0.148 C 
BRANCH  10  12
ATOM     12  C   UNL     1      -7.183  -6.026 -20.131  1.00  0.00     0.298 A 
ATOM     13  N   UNL     1      -6.910  -4.758 -20.373  1.00  0.00    -0.193 NA
ATOM     14  O   UNL     1      -6.078  -6.813 -19.927  1.00  0.00    -0.423 OA
ATOM     15  C   UNL     1      -5.541  -4.701 -20.328  1.00  0.00     0.111 A 
ATOM     16  C   UNL     1      -5.028  -5.955 -20.053  1.00  0.00     0.156 A 
ATOM     17  C   UNL     1      -4.655  -3.632 -20.512  1.00  0.00     0.032 A 
ATOM     18  C   UNL     1      -3.676  -6.252 -19.936  1.00  0.00     0.049 A 
ATOM     19  C   UNL     1      -3.279  -3.887 -20.405  1.00  0.00     0.003 A 
ATOM     20  C   UNL     1      -2.802  -5.175 -20.123  1.00  0.00     0.004 A 
ENDBRANCH  10  12
ENDBRANCH   9  10
ENDBRANCH   8   9
ENDBRANCH   7   8
ENDBRANCH   1   7
BRANCH   4  21
ATOM     21  C   UNL     1     -11.086  -8.235 -28.224  1.00  0.00     0.072 C 
BRANCH  21  22
ATOM     22  C   UNL     1     -11.154  -6.799 -28.779  1.00  0.00     0.194 C 
BRANCH  22  23
ATOM     23  N   UNL     1     -12.542  -6.326 -28.706  1.00  0.00    -0.371 N 
ATOM     24  H   UNL     1     -13.115  -6.512 -29.540  1.00  0.00     0.161 HD
BRANCH  23  25
ATOM     25  C   UNL     1     -13.013  -5.272 -27.934  1.00  0.00     0.046 A 
ATOM     26  C   UNL     1     -13.281  -5.401 -26.564  1.00  0.00     0.026 A 
ATOM     27  C   UNL     1     -13.330  -4.029 -28.538  1.00  0.00     0.046 A 
ATOM     28  C   UNL     1     -13.783  -4.335 -25.809  1.00  0.00     0.002 A 
ATOM     29  C   UNL     1     -13.812  -2.952 -27.774  1.00  0.00     0.014 A 
ATOM     30  C   UNL     1     -14.041  -3.109 -26.410  1.00  0.00     0.001 A 
BRANCH  27  31
ATOM     31  C   UNL     1     -13.108  -3.833 -29.999  1.00  0.00     0.195 C 
ATOM     32  O   UNL     1     -13.791  -4.459 -30.809  1.00  0.00    -0.289 OA
BRANCH  31  33
ATOM     33  C   UNL     1     -12.085  -2.881 -30.508  1.00  0.00     0.023 A 
ATOM     34  C   UNL     1     -10.714  -3.115 -30.343  1.00  0.00     0.012 A 
ATOM     35  C   UNL     1     -12.521  -1.700 -31.123  1.00  0.00     0.012 A 
ATOM     36  C   UNL     1      -9.786  -2.185 -30.820  1.00  0.00     0.001 A 
ATOM     37  C   UNL     1     -11.590  -0.774 -31.596  1.00  0.00     0.001 A 
ATOM     38  C   UNL     1     -10.225  -1.018 -31.447  1.00  0.00     0.000 A 
ENDBRANCH  31  33
ENDBRANCH  27  31
ENDBRANCH  23  25
ENDBRANCH  22  23
BRANCH  22  39
ATOM     39  C   UNL     1     -10.665  -6.786 -30.230  1.00  0.00     0.326 C 
ATOM     40  O   UNL     1      -9.508  -6.849 -30.620  1.00  0.00    -0.250 OA
BRANCH  39  41
ATOM     41  O   UNL     1     -11.672  -6.721 -31.131  1.00  0.00    -0.480 OA
ATOM     42  H   UNL     1     -12.008  -5.807 -31.027  1.00  0.00     0.296 HD
ENDBRANCH  39  41
ENDBRANCH  22  39
ENDBRANCH  21  22
ENDBRANCH   4  21
TORSDOF 13
ENDMDL
MODEL 4
REMARK VINA RESULT:    -8.337      2.212      4.420
REMARK INTER + INTRA:         -17.615
REMARK INTER:                 -14.515
REMARK INTRA:                  -3.101
REMARK UNBOUND:                -3.186
REMARK SMILES CN(CCOc1ccc(C[C@H](Nc2ccccc2C(=O)c2ccccc2)C(=O)O)cc1)c1nc2ccccc2o1
REMARK SMILES IDX 6 1 7 2 8 3 9 4 30 5 31 6 5 7 4 8 3 9 2 10 1 11 32 12 33 13
REMARK SMILES IDX 40 14 34 15 39 16 35 17 38 18 36 19 37 20 10 21 11 22 12 23
REMARK SMILES IDX 13 25 14 26 18 27 15 28 17 29 16 30 19 31 20 32 21 33 22 34
REMARK SMILES IDX 26 35 23 36 25 37 24 38 27 39 28 40 29 41
REMARK H PARENT 12 24 29 42
ROOT
ATOM      1  C   UNL     1     -12.198  -6.834 -30.482  1.00  0.00     0.119 A 
ATOM      2  C   UNL     1     -11.796  -5.982 -29.451  1.00  0.00     0.047 A 
ATOM      3  C   UNL     1     -11.197  -6.491 -28.297  1.00  0.00     0.007 A 
ATOM      4  C   UNL     1     -10.992  -7.867 -28.156  1.00  0.00    -0.045 A 
ATOM      5  C   UNL     1     -11.394  -8.719 -29.193  1.00  0.00     0.007 A 
ATOM      6  C   UNL     1     -11.991  -8.206 -30.349  1.00  0.00     0.047 A 
ENDROOT
BRANCH   1   7
ATOM      7  O   UNL     1     -12.774  -6.205 -31.551  1.00  0.00    -0.492 OA
BRANCH   7   8
ATOM      8  C   UNL     1     -12.208  -4.952 -31.955  1.00  0.00     0.251 C 
BRANCH   8   9
ATOM      9  C   UNL     1     -11.552  -5.120 -33.333  1.00  0.00     0.162 C 
BRANCH   9  10
ATOM     10  N   UNL     1     -10.092  -5.157 -33.250  1.00  0.00    -0.326 N 
ATOM     11  C   UNL     1      -9.337  -4.008 -33.708  1.00  0.00     0.148 C 
BRANCH  10  12
ATOM     12  C   UNL     1      -9.504  -6.108 -32.492  1.00  0.00     0.298 A 
ATOM     13  N   UNL     1      -8.829  -5.955 -31.369  1.00  0.00    -0.193 NA
ATOM     14  O   UNL     1      -9.598  -7.406 -32.923  1.00  0.00    -0.423 OA
ATOM     15  C   UNL     1      -8.451  -7.229 -31.035  1.00  0.00     0.111 A 
ATOM     16  C   UNL     1      -8.922  -8.121 -31.981  1.00  0.00     0.156 A 
ATOM     17  C   UNL     1      -7.707  -7.719 -29.954  1.00  0.00     0.032 A 
ATOM     18  C   UNL     1      -8.718  -9.495 -31.949  1.00  0.00     0.049 A 
ATOM     19  C   UNL     1      -7.475  -9.102 -29.883  1.00  0.00     0.003 A 
ATOM     20  C   UNL     1      -7.973  -9.970 -30.864  1.00  0.00     0.004 A 
ENDBRANCH  10  12
ENDBRANCH   9  10
ENDBRANCH   8   9
ENDBRANCH   7   8
ENDBRANCH   1   7
BRANCH   4  21
ATOM     21  C   UNL     1     -10.327  -8.422 -26.917  1.00  0.00     0.072 C 
BRANCH  21  22
ATOM     22  C   UNL     1     -10.507  -7.523 -25.678  1.00  0.00     0.194 C 
BRANCH  22  23
ATOM     23  N   UNL     1      -9.316  -7.644 -24.826  1.00  0.00    -0.371 N 
ATOM     24  H   UNL     1      -8.992  -6.768 -24.397  1.00  0.00     0.161 HD
BRANCH  23  25
ATOM     25  C   UNL     1      -8.325  -8.611 -24.930  1.00  0.00     0.046 A 
ATOM     26  C   UNL     1      -7.804  -9.027 -26.164  1.00  0.00     0.026 A 
ATOM     27  C   UNL     1      -7.861  -9.287 -23.774  1.00  0.00     0.046 A 
ATOM     28  C   UNL     1      -6.827 -10.025 -26.250  1.00  0.00     0.002 A 
ATOM     29  C   UNL     1      -6.862 -10.272 -23.860  1.00  0.00     0.014 A 
ATOM     30  C   UNL     1      -6.349 -10.642 -25.100  1.00  0.00     0.001 A 
BRANCH  27  31
ATOM     31  C   UNL     1      -8.400  -8.924 -22.432  1.00  0.00     0.195 C 
ATOM     32  O   UNL     1      -9.461  -9.414 -22.048  1.00  0.00    -0.289 OA
BRANCH  31  33
ATOM     33  C   UNL     1      -7.675  -7.986 -21.533  1.00  0.00     0.023 A 
ATOM     34  C   UNL     1      -6.285  -8.046 -21.372  1.00  0.00     0.012 A 
ATOM     35  C   UNL     1      -8.422  -7.055 -20.800  1.00  0.00     0.012 A 
ATOM     36  C   UNL     1      -5.646  -7.158 -20.503  1.00  0.00     0.001 A 
ATOM     37  C   UNL     1      -7.779  -6.171 -19.932  1.00  0.00     0.001 A 
ATOM     38  C   UNL     1      -6.393  -6.221 -19.787  1.00  0.00     0.000 A 
ENDBRANCH  31  33
ENDBRANCH  27  31
ENDBRANCH  23  25
ENDBRANCH  22  23
BRANCH  22  39
ATOM     39  C   UNL     1     -11.757  -7.955 -24.907  1.00  0.00     0.326 C 
ATOM     40  O   UNL     1     -12.916  -7.650 -25.149  1.00  0.00    -0.250 OA
BRANCH  39  41
ATOM     41  O   UNL     1     -11.484  -8.782 -23.871  1.00  0.00    -0.480 OA
ATOM     42  H   UNL     1     -11.799  -8.278 -23.092  1.00  0.00     0.296 HD
ENDBRANCH  39  41
ENDBRANCH  22  39
ENDBRANCH  21  22
ENDBRANCH   4  21
TORSDOF 13
ENDMDL
MODEL 5
REMARK VINA RESULT:    -7.990      3.057      4.246
REMARK INTER + INTRA:         -17.015
REMARK INTER:                 -14.638
REMARK INTRA:                  -2.377
REMARK UNBOUND:                -3.186
REMARK SMILES CN(CCOc1ccc(C[C@H](Nc2ccccc2C(=O)c2ccccc2)C(=O)O)cc1)c1nc2ccccc2o1
REMARK SMILES IDX 6 1 7 2 8 3 9 4 30 5 31 6 5 7 4 8 3 9 2 10 1 11 32 12 33 13
REMARK SMILES IDX 40 14 34 15 39 16 35 17 38 18 36 19 37 20 10 21 11 22 12 23
REMARK SMILES IDX 13 25 14 26 18 27 15 28 17 29 16 30 19 31 20 32 21 33 22 34
REMARK SMILES IDX 26 35 23 36 25 37 24 38 27 39 28 40 29 41
REMARK H PARENT 12 24 29 42
ROOT
ATOM      1  C   UNL     1      -9.858  -8.367 -30.483  1.00  0.00     0.119 A 
ATOM      2  C   UNL     1     -10.339  -8.726 -29.223  1.00  0.00     0.047 A 
ATOM      3  C   UNL     1      -9.502  -8.701 -28.105  1.00  0.00     0.007 A 
ATOM      4  C   UNL     1      -8.163  -8.317 -28.234  1.00  0.00    -0.045 A 
ATOM      5  C   UNL     1      -7.684  -7.955 -29.499  1.00  0.00     0.007 A 
ATOM      6  C   UNL     1      -8.526  -7.977 -30.617  1.00  0.00     0.047 A 
ENDROOT
BRANCH   1   7
ATOM      7  O   UNL     1     -10.781  -8.440 -31.489  1.00  0.00    -0.492 OA
BRANCH   7   8
ATOM      8  C   UNL     1     -11.596  -7.283 -31.713  1.00  0.00     0.251 C 
BRANCH   8   9
ATOM      9  C   UNL     1     -12.962  -7.730 -32.254  1.00  0.00     0.162 C 
BRANCH   9  10
ATOM     10  N   UNL     1     -13.806  -8.314 -31.212  1.00  0.00    -0.326 N 
ATOM     11  C   UNL     1     -14.698  -7.448 -30.468  1.00  0.00     0.148 C 
BRANCH  10  12
ATOM     12  C   UNL     1     -13.956  -9.656 -31.169  1.00  0.00     0.298 A 
ATOM     13  N   UNL     1     -13.294 -10.529 -30.434  1.00  0.00    -0.193 NA
ATOM     14  O   UNL     1     -14.905 -10.211 -31.988  1.00  0.00    -0.423 OA
ATOM     15  C   UNL     1     -13.836 -11.737 -30.788  1.00  0.00     0.111 A 
ATOM     16  C   UNL     1     -14.824 -11.548 -31.737  1.00  0.00     0.156 A 
ATOM     17  C   UNL     1     -13.549 -13.040 -30.360  1.00  0.00     0.032 A 
ATOM     18  C   UNL     1     -15.578 -12.563 -32.313  1.00  0.00     0.049 A 
ATOM     19  C   UNL     1     -14.285 -14.096 -30.918  1.00  0.00     0.003 A 
ATOM     20  C   UNL     1     -15.280 -13.859 -31.877  1.00  0.00     0.004 A 
ENDBRANCH  10  12
ENDBRANCH   9  10
ENDBRANCH   8   9
ENDBRANCH   7   8
ENDBRANCH   1   7
BRANCH   4  21
ATOM     21  C   UNL     1      -7.258  -8.271 -27.025  1.00  0.00     0.072 C 
BRANCH  21  22
ATOM     22  C   UNL     1      -7.722  -9.197 -25.883  1.00  0.00     0.194 C 
BRANCH  22  23
ATOM     23  N   UNL     1      -8.130  -8.372 -24.738  1.00  0.00    -0.371 N 
ATOM     24  H   UNL     1      -7.401  -7.754 -24.360  1.00  0.00     0.161 HD
BRANCH  23  25
ATOM     25  C   UNL     1      -9.134  -8.669 -23.826  1.00  0.00     0.046 A 
ATOM     26  C   UNL     1     -10.485  -8.748 -24.191  1.00  0.00     0.026 A 
ATOM     27  C   UNL     1      -8.829  -8.817 -22.450  1.00  0.00     0.046 A 
ATOM     28  C   UNL     1     -11.486  -9.020 -23.251  1.00  0.00     0.002 A 
ATOM     29  C   UNL     1      -9.832  -9.113 -21.510  1.00  0.00     0.014 A 
ATOM     30  C   UNL     1     -11.161  -9.210 -21.913  1.00  0.00     0.001 A 
BRANCH  27  31
ATOM     31  C   UNL     1      -7.416  -8.705 -21.984  1.00  0.00     0.195 C 
ATOM     32  O   UNL     1      -6.622  -9.613 -22.223  1.00  0.00    -0.289 OA
BRANCH  31  33
ATOM     33  C   UNL     1      -6.937  -7.507 -21.243  1.00  0.00     0.023 A 
ATOM     34  C   UNL     1      -5.692  -7.486 -20.603  1.00  0.00     0.012 A 
ATOM     35  C   UNL     1      -7.786  -6.396 -21.154  1.00  0.00     0.012 A 
ATOM     36  C   UNL     1      -5.288  -6.346 -19.903  1.00  0.00     0.001 A 
ATOM     37  C   UNL     1      -7.378  -5.261 -20.452  1.00  0.00     0.001 A 
ATOM     38  C   UNL     1      -6.130  -5.235 -19.830  1.00  0.00     0.000 A 
ENDBRANCH  31  33
ENDBRANCH  27  31
ENDBRANCH  23  25
ENDBRANCH  22  23
BRANCH  22  39
ATOM     39  C   UNL     1      -6.577 -10.132 -25.483  1.00  0.00     0.326 C 
ATOM     40  O   UNL     1      -5.418 -10.085 -25.866  1.00  0.00    -0.250 OA
BRANCH  39  41
ATOM     41  O   UNL     1      -6.949 -11.074 -24.586  1.00  0.00    -0.480 OA
ATOM     42  H   UNL     1      -7.384 -11.753 -25.142  1.00  0.00     0.296 HD
ENDBRANCH  39  41
ENDBRANCH  22  39
ENDBRANCH  21  22
ENDBRANCH   4  21
TORSDOF 13
ENDMDL
MODEL 6
REMARK VINA RESULT:    -7.979      1.608      8.873
REMARK INTER + INTRA:         -16.996
REMARK INTER:                 -14.070
REMARK INTRA:                  -2.926
REMARK UNBOUND:                -3.186
REMARK SMILES CN(CCOc1ccc(C[C@H](Nc2ccccc2C(=O)c2ccccc2)C(=O)O)cc1)c1nc2ccccc2o1
REMARK SMILES IDX 6 1 7 2 8 3 9 4 30 5 31 6 5 7 4 8 3 9 2 10 1 11 32 12 33 13
REMARK SMILES IDX 40 14 34 15 39 16 35 17 38 18 36 19 37 20 10 21 11 22 12 23
REMARK SMILES IDX 13 25 14 26 18 27 15 28 17 29 16 30 19 31 20 32 21 33 22 34
REMARK SMILES IDX 26 35 23 36 25 37 24 38 27 39 28 40 29 41
REMARK H PARENT 12 24 29 42
ROOT
ATOM      1  C   UNL     1      -8.543  -8.612 -25.985  1.00  0.00     0.119 A 
ATOM      2  C   UNL     1      -9.352  -7.781 -25.210  1.00  0.00     0.047 A 
ATOM      3  C   UNL     1     -10.634  -7.428 -25.639  1.00  0.00     0.007 A 
ATOM      4  C   UNL     1     -11.125  -7.905 -26.858  1.00  0.00    -0.045 A 
ATOM      5  C   UNL     1     -10.312  -8.741 -27.634  1.00  0.00     0.007 A 
ATOM      6  C   UNL     1      -9.030  -9.095 -27.199  1.00  0.00     0.047 A 
ENDROOT
BRANCH   1   7
ATOM      7  O   UNL     1      -7.312  -8.873 -25.450  1.00  0.00    -0.492 OA
BRANCH   7   8
ATOM      8  C   UNL     1      -7.036 -10.229 -25.077  1.00  0.00     0.251 C 
BRANCH   8   9
ATOM      9  C   UNL     1      -6.691 -10.277 -23.582  1.00  0.00     0.162 C 
BRANCH   9  10
ATOM     10  N   UNL     1      -7.699  -9.610 -22.759  1.00  0.00    -0.326 N 
ATOM     11  C   UNL     1      -8.940 -10.303 -22.477  1.00  0.00     0.148 C 
BRANCH  10  12
ATOM     12  C   UNL     1      -7.344  -8.519 -22.047  1.00  0.00     0.298 A 
ATOM     13  N   UNL     1      -8.088  -7.481 -21.718  1.00  0.00    -0.193 NA
ATOM     14  O   UNL     1      -6.049  -8.450 -21.601  1.00  0.00    -0.423 OA
ATOM     15  C   UNL     1      -7.235  -6.673 -21.012  1.00  0.00     0.111 A 
ATOM     16  C   UNL     1      -5.987  -7.263 -20.935  1.00  0.00     0.156 A 
ATOM     17  C   UNL     1      -7.432  -5.426 -20.406  1.00  0.00     0.032 A 
ATOM     18  C   UNL     1      -4.886  -6.713 -20.290  1.00  0.00     0.049 A 
ATOM     19  C   UNL     1      -6.346  -4.832 -19.745  1.00  0.00     0.003 A 
ATOM     20  C   UNL     1      -5.097  -5.467 -19.691  1.00  0.00     0.004 A 
ENDBRANCH  10  12
ENDBRANCH   9  10
ENDBRANCH   8   9
ENDBRANCH   7   8
ENDBRANCH   1   7
BRANCH   4  21
ATOM     21  C   UNL     1     -12.518  -7.541 -27.319  1.00  0.00     0.072 C 
BRANCH  21  22
ATOM     22  C   UNL     1     -12.636  -6.083 -27.804  1.00  0.00     0.194 C 
BRANCH  22  23
ATOM     23  N   UNL     1     -11.421  -5.731 -28.551  1.00  0.00    -0.371 N 
ATOM     24  H   UNL     1     -10.577  -5.598 -27.979  1.00  0.00     0.161 HD
BRANCH  23  25
ATOM     25  C   UNL     1     -11.368  -5.083 -29.778  1.00  0.00     0.046 A 
ATOM     26  C   UNL     1     -11.450  -3.688 -29.898  1.00  0.00     0.026 A 
ATOM     27  C   UNL     1     -11.318  -5.831 -30.981  1.00  0.00     0.046 A 
ATOM     28  C   UNL     1     -11.425  -3.055 -31.146  1.00  0.00     0.002 A 
ATOM     29  C   UNL     1     -11.269  -5.193 -32.232  1.00  0.00     0.014 A 
ATOM     30  C   UNL     1     -11.326  -3.805 -32.312  1.00  0.00     0.001 A 
BRANCH  27  31
ATOM     31  C   UNL     1     -11.270  -7.321 -30.929  1.00  0.00     0.195 C 
ATOM     32  O   UNL     1     -12.317  -7.963 -30.871  1.00  0.00    -0.289 OA
BRANCH  31  33
ATOM     33  C   UNL     1      -9.977  -8.056 -30.962  1.00  0.00     0.023 A 
ATOM     34  C   UNL     1      -8.750  -7.397 -30.811  1.00  0.00     0.012 A 
ATOM     35  C   UNL     1     -10.001  -9.436 -31.198  1.00  0.00     0.012 A 
ATOM     36  C   UNL     1      -7.558  -8.123 -30.867  1.00  0.00     0.001 A 
ATOM     37  C   UNL     1      -8.807 -10.157 -31.254  1.00  0.00     0.001 A 
ATOM     38  C   UNL     1      -7.588  -9.502 -31.085  1.00  0.00     0.000 A 
ENDBRANCH  31  33
ENDBRANCH  27  31
ENDBRANCH  23  25
ENDBRANCH  22  23
BRANCH  22  39
ATOM     39  C   UNL     1     -12.806  -5.153 -26.600  1.00  0.00     0.326 C 
ATOM     40  O   UNL     1     -13.674  -5.211 -25.740  1.00  0.00    -0.250 OA
BRANCH  39  41
ATOM     41  O   UNL     1     -11.848  -4.202 -26.522  1.00  0.00    -0.480 OA
ATOM     42  H   UNL     1     -12.032  -3.633 -27.298  1.00  0.00     0.296 HD
ENDBRANCH  39  41
ENDBRANCH  22  39
ENDBRANCH  21  22
ENDBRANCH   4  21
TORSDOF 13
ENDMDL
MODEL 7
REMARK VINA RESULT:    -7.935      2.244      9.492
REMARK INTER + INTRA:         -16.919
REMARK INTER:                 -15.271
REMARK INTRA:                  -1.648
REMARK UNBOUND:                -3.186
REMARK SMILES CN(CCOc1ccc(C[C@H](Nc2ccccc2C(=O)c2ccccc2)C(=O)O)cc1)c1nc2ccccc2o1
REMARK SMILES IDX 6 1 7 2 8 3 9 4 30 5 31 6 5 7 4 8 3 9 2 10 1 11 32 12 33 13
REMARK SMILES IDX 40 14 34 15 39 16 35 17 38 18 36 19 37 20 10 21 11 22 12 23
REMARK SMILES IDX 13 25 14 26 18 27 15 28 17 29 16 30 19 31 20 32 21 33 22 34
REMARK SMILES IDX 26 35 23 36 25 37 24 38 27 39 28 40 29 41
REMARK H PARENT 12 24 29 42
ROOT
ATOM      1  C   UNL     1      -8.881  -8.418 -25.002  1.00  0.00     0.119 A 
ATOM      2  C   UNL     1      -8.190  -8.828 -26.142  1.00  0.00     0.047 A 
ATOM      3  C   UNL     1      -8.852  -8.988 -27.361  1.00  0.00     0.007 A 
ATOM      4  C   UNL     1     -10.226  -8.740 -27.455  1.00  0.00    -0.045 A 
ATOM      5  C   UNL     1     -10.917  -8.326 -26.309  1.00  0.00     0.007 A 
ATOM      6  C   UNL     1     -10.249  -8.164 -25.090  1.00  0.00     0.047 A 
ENDROOT
BRANCH   1   7
ATOM      7  O   UNL     1      -8.113  -8.307 -23.876  1.00  0.00    -0.492 OA
BRANCH   7   8
ATOM      8  C   UNL     1      -8.459  -7.272 -22.948  1.00  0.00     0.251 C 
BRANCH   8   9
ATOM      9  C   UNL     1      -8.519  -7.867 -21.534  1.00  0.00     0.162 C 
BRANCH   9  10
ATOM     10  N   UNL     1      -8.314  -6.854 -20.498  1.00  0.00    -0.326 N 
ATOM     11  C   UNL     1      -9.237  -6.800 -19.383  1.00  0.00     0.148 C 
BRANCH  10  12
ATOM     12  C   UNL     1      -7.131  -6.205 -20.444  1.00  0.00     0.298 A 
ATOM     13  N   UNL     1      -6.903  -4.912 -20.568  1.00  0.00    -0.193 NA
ATOM     14  O   UNL     1      -6.005  -6.961 -20.242  1.00  0.00    -0.423 OA
ATOM     15  C   UNL     1      -5.542  -4.803 -20.442  1.00  0.00     0.111 A 
ATOM     16  C   UNL     1      -4.988  -6.054 -20.240  1.00  0.00     0.156 A 
ATOM     17  C   UNL     1      -4.696  -3.688 -20.490  1.00  0.00     0.032 A 
ATOM     18  C   UNL     1      -3.633  -6.305 -20.072  1.00  0.00     0.049 A 
ATOM     19  C   UNL     1      -3.317  -3.896 -20.328  1.00  0.00     0.003 A 
ATOM     20  C   UNL     1      -2.799  -5.182 -20.124  1.00  0.00     0.004 A 
ENDBRANCH  10  12
ENDBRANCH   9  10
ENDBRANCH   8   9
ENDBRANCH   7   8
ENDBRANCH   1   7
BRANCH   4  21
ATOM     21  C   UNL     1     -10.945  -8.893 -28.775  1.00  0.00     0.072 C 
BRANCH  21  22
ATOM     22  C   UNL     1     -11.031  -7.579 -29.576  1.00  0.00     0.194 C 
BRANCH  22  23
ATOM     23  N   UNL     1      -9.670  -7.079 -29.817  1.00  0.00    -0.371 N 
ATOM     24  H   UNL     1      -9.477  -6.137 -29.455  1.00  0.00     0.161 HD
BRANCH  23  25
ATOM     25  C   UNL     1      -8.825  -7.460 -30.852  1.00  0.00     0.046 A 
ATOM     26  C   UNL     1      -7.827  -8.431 -30.691  1.00  0.00     0.026 A 
ATOM     27  C   UNL     1      -8.886  -6.801 -32.105  1.00  0.00     0.046 A 
ATOM     28  C   UNL     1      -6.965  -8.780 -31.738  1.00  0.00     0.002 A 
ATOM     29  C   UNL     1      -8.036  -7.168 -33.162  1.00  0.00     0.014 A 
ATOM     30  C   UNL     1      -7.074  -8.156 -32.975  1.00  0.00     0.001 A 
BRANCH  27  31
ATOM     31  C   UNL     1      -9.898  -5.728 -32.333  1.00  0.00     0.195 C 
ATOM     32  O   UNL     1     -10.997  -6.017 -32.804  1.00  0.00    -0.289 OA
BRANCH  31  33
ATOM     33  C   UNL     1      -9.614  -4.309 -31.990  1.00  0.00     0.023 A 
ATOM     34  C   UNL     1     -10.312  -3.642 -30.975  1.00  0.00     0.012 A 
ATOM     35  C   UNL     1      -8.652  -3.622 -32.743  1.00  0.00     0.012 A 
ATOM     36  C   UNL     1     -10.026  -2.303 -30.698  1.00  0.00     0.001 A 
ATOM     37  C   UNL     1      -8.372  -2.283 -32.462  1.00  0.00     0.001 A 
ATOM     38  C   UNL     1      -9.055  -1.626 -31.439  1.00  0.00     0.000 A 
ENDBRANCH  31  33
ENDBRANCH  27  31
ENDBRANCH  23  25
ENDBRANCH  22  23
BRANCH  22  39
ATOM     39  C   UNL     1     -11.842  -6.548 -28.787  1.00  0.00     0.326 C 
ATOM     40  O   UNL     1     -11.429  -5.514 -28.282  1.00  0.00    -0.250 OA
BRANCH  39  41
ATOM     41  O   UNL     1     -13.154  -6.862 -28.693  1.00  0.00    -0.480 OA
ATOM     42  H   UNL     1     -13.506  -6.624 -29.576  1.00  0.00     0.296 HD
ENDBRANCH  39  41
ENDBRANCH  22  39
ENDBRANCH  21  22
ENDBRANCH   4  21
TORSDOF 13
ENDMDL
MODEL 8
REMARK VINA RESULT:    -7.920      1.955      9.356
REMARK INTER + INTRA:         -16.894
REMARK INTER:                 -14.182
REMARK INTRA:                  -2.711
REMARK UNBOUND:                -3.186
REMARK SMILES CN(CCOc1ccc(C[C@H](Nc2ccccc2C(=O)c2ccccc2)C(=O)O)cc1)c1nc2ccccc2o1
REMARK SMILES IDX 6 1 7 2 8 3 9 4 30 5 31 6 5 7 4 8 3 9 2 10 1 11 32 12 33 13
REMARK SMILES IDX 40 14 34 15 39 16 35 17 38 18 36 19 37 20 10 21 11 22 12 23
REMARK SMILES IDX 13 25 14 26 18 27 15 28 17 29 16 30 19 31 20 32 21 33 22 34
REMARK SMILES IDX 26 35 23 36 25 37 24 38 27 39 28 40 29 41
REMARK H PARENT 12 24 29 42
ROOT
ATOM      1  C   UNL     1     -10.495  -7.951 -25.685  1.00  0.00     0.119 A 
ATOM      2  C   UNL     1     -10.076  -8.136 -27.003  1.00  0.00     0.047 A 
ATOM      3  C   UNL     1     -10.828  -7.635 -28.069  1.00  0.00     0.007 A 
ATOM      4  C   UNL     1     -12.017  -6.940 -27.827  1.00  0.00    -0.045 A 
ATOM      5  C   UNL     1     -12.433  -6.754 -26.503  1.00  0.00     0.007 A 
ATOM      6  C   UNL     1     -11.676  -7.254 -25.438  1.00  0.00     0.047 A 
ENDROOT
BRANCH   1   7
ATOM      7  O   UNL     1      -9.668  -8.496 -24.741  1.00  0.00    -0.492 OA
BRANCH   7   8
ATOM      8  C   UNL     1      -8.297  -8.688 -25.106  1.00  0.00     0.251 C 
BRANCH   8   9
ATOM      9  C   UNL     1      -7.600  -9.518 -24.018  1.00  0.00     0.162 C 
BRANCH   9  10
ATOM     10  N   UNL     1      -8.133  -9.242 -22.685  1.00  0.00    -0.326 N 
ATOM     11  C   UNL     1      -9.011 -10.216 -22.069  1.00  0.00     0.148 C 
BRANCH  10  12
ATOM     12  C   UNL     1      -7.574  -8.258 -21.948  1.00  0.00     0.298 A 
ATOM     13  N   UNL     1      -8.157  -7.192 -21.433  1.00  0.00    -0.193 NA
ATOM     14  O   UNL     1      -6.230  -8.345 -21.693  1.00  0.00    -0.423 OA
ATOM     15  C   UNL     1      -7.137  -6.532 -20.798  1.00  0.00     0.111 A 
ATOM     16  C   UNL     1      -5.957  -7.235 -20.952  1.00  0.00     0.156 A 
ATOM     17  C   UNL     1      -7.122  -5.334 -20.073  1.00  0.00     0.032 A 
ATOM     18  C   UNL     1      -4.728  -6.847 -20.433  1.00  0.00     0.049 A 
ATOM     19  C   UNL     1      -5.900  -4.903 -19.533  1.00  0.00     0.003 A 
ATOM     20  C   UNL     1      -4.727  -5.648 -19.713  1.00  0.00     0.004 A 
ENDBRANCH  10  12
ENDBRANCH   9  10
ENDBRANCH   8   9
ENDBRANCH   7   8
ENDBRANCH   1   7
BRANCH   4  21
ATOM     21  C   UNL     1     -12.825  -6.380 -28.975  1.00  0.00     0.072 C 
BRANCH  21  22
ATOM     22  C   UNL     1     -12.191  -6.651 -30.353  1.00  0.00     0.194 C 
BRANCH  22  23
ATOM     23  N   UNL     1     -12.195  -5.405 -31.131  1.00  0.00    -0.371 N 
ATOM     24  H   UNL     1     -12.768  -5.422 -31.985  1.00  0.00     0.161 HD
BRANCH  23  25
ATOM     25  C   UNL     1     -11.189  -4.448 -31.157  1.00  0.00     0.046 A 
ATOM     26  C   UNL     1     -11.290  -3.230 -30.468  1.00  0.00     0.026 A 
ATOM     27  C   UNL     1     -10.043  -4.635 -31.969  1.00  0.00     0.046 A 
ATOM     28  C   UNL     1     -10.278  -2.265 -30.530  1.00  0.00     0.002 A 
ATOM     29  C   UNL     1      -9.017  -3.675 -32.012  1.00  0.00     0.014 A 
ATOM     30  C   UNL     1      -9.139  -2.489 -31.294  1.00  0.00     0.001 A 
BRANCH  27  31
ATOM     31  C   UNL     1      -9.889  -5.889 -32.761  1.00  0.00     0.195 C 
ATOM     32  O   UNL     1     -10.648  -6.113 -33.703  1.00  0.00    -0.289 OA
BRANCH  31  33
ATOM     33  C   UNL     1      -8.823  -6.878 -32.447  1.00  0.00     0.023 A 
ATOM     34  C   UNL     1      -8.036  -7.457 -33.451  1.00  0.00     0.012 A 
ATOM     35  C   UNL     1      -8.645  -7.265 -31.113  1.00  0.00     0.012 A 
ATOM     36  C   UNL     1      -7.057  -8.396 -33.114  1.00  0.00     0.001 A 
ATOM     37  C   UNL     1      -7.667  -8.204 -30.782  1.00  0.00     0.001 A 
ATOM     38  C   UNL     1      -6.872  -8.766 -31.781  1.00  0.00     0.000 A 
ENDBRANCH  31  33
ENDBRANCH  27  31
ENDBRANCH  23  25
ENDBRANCH  22  23
BRANCH  22  39
ATOM     39  C   UNL     1     -12.991  -7.734 -31.082  1.00  0.00     0.326 C 
ATOM     40  O   UNL     1     -14.074  -8.197 -30.756  1.00  0.00    -0.250 OA
BRANCH  39  41
ATOM     41  O   UNL     1     -12.391  -8.168 -32.214  1.00  0.00    -0.480 OA
ATOM     42  H   UNL     1     -11.688  -8.764 -31.883  1.00  0.00     0.296 HD
ENDBRANCH  39  41
ENDBRANCH  22  39
ENDBRANCH  21  22
ENDBRANCH   4  21
TORSDOF 13
ENDMDL
MODEL 9
REMARK VINA RESULT:    -7.917      1.711      3.411
REMARK INTER + INTRA:         -16.888
REMARK INTER:                 -14.586
REMARK INTRA:                  -2.302
REMARK UNBOUND:                -3.186
REMARK SMILES CN(CCOc1ccc(C[C@H](Nc2ccccc2C(=O)c2ccccc2)C(=O)O)cc1)c1nc2ccccc2o1
REMARK SMILES IDX 6 1 7 2 8 3 9 4 30 5 31 6 5 7 4 8 3 9 2 10 1 11 32 12 33 13
REMARK SMILES IDX 40 14 34 15 39 16 35 17 38 18 36 19 37 20 10 21 11 22 12 23
REMARK SMILES IDX 13 25 14 26 18 27 15 28 17 29 16 30 19 31 20 32 21 33 22 34
REMARK SMILES IDX 26 35 23 36 25 37 24 38 27 39 28 40 29 41
REMARK H PARENT 12 24 29 42
ROOT
ATOM      1  C   UNL     1     -11.822  -7.514 -28.977  1.00  0.00     0.119 A 
ATOM      2  C   UNL     1     -10.721  -8.019 -29.671  1.00  0.00     0.047 A 
ATOM      3  C   UNL     1      -9.502  -8.229 -29.022  1.00  0.00     0.007 A 
ATOM      4  C   UNL     1      -9.368  -7.934 -27.662  1.00  0.00    -0.045 A 
ATOM      5  C   UNL     1     -10.474  -7.429 -26.967  1.00  0.00     0.007 A 
ATOM      6  C   UNL     1     -11.695  -7.223 -27.620  1.00  0.00     0.047 A 
ENDROOT
BRANCH   1   7
ATOM      7  O   UNL     1     -12.949  -7.353 -29.733  1.00  0.00    -0.492 OA
BRANCH   7   8
ATOM      8  C   UNL     1     -13.940  -6.441 -29.243  1.00  0.00     0.251 C 
BRANCH   8   9
ATOM      9  C   UNL     1     -13.874  -5.143 -30.060  1.00  0.00     0.162 C 
BRANCH   9  10
ATOM     10  N   UNL     1     -13.247  -4.052 -29.315  1.00  0.00    -0.326 N 
ATOM     11  C   UNL     1     -13.400  -4.011 -27.874  1.00  0.00     0.148 C 
BRANCH  10  12
ATOM     12  C   UNL     1     -12.311  -3.295 -29.928  1.00  0.00     0.298 A 
ATOM     13  N   UNL     1     -11.007  -3.488 -29.976  1.00  0.00    -0.193 NA
ATOM     14  O   UNL     1     -12.741  -2.172 -30.588  1.00  0.00    -0.423 OA
ATOM     15  C   UNL     1     -10.543  -2.428 -30.711  1.00  0.00     0.111 A 
ATOM     16  C   UNL     1     -11.600  -1.621 -31.090  1.00  0.00     0.156 A 
ATOM     17  C   UNL     1      -9.246  -2.070 -31.099  1.00  0.00     0.032 A 
ATOM     18  C   UNL     1     -11.484  -0.461 -31.844  1.00  0.00     0.049 A 
ATOM     19  C   UNL     1      -9.081  -0.903 -31.861  1.00  0.00     0.003 A 
ATOM     20  C   UNL     1     -10.182  -0.115 -32.225  1.00  0.00     0.004 A 
ENDBRANCH  10  12
ENDBRANCH   9  10
ENDBRANCH   8   9
ENDBRANCH   7   8
ENDBRANCH   1   7
BRANCH   4  21
ATOM     21  C   UNL     1      -8.056  -8.176 -26.950  1.00  0.00     0.072 C 
BRANCH  21  22
ATOM     22  C   UNL     1      -8.182  -9.150 -25.762  1.00  0.00     0.194 C 
BRANCH  22  23
ATOM     23  N   UNL     1      -8.444  -8.378 -24.540  1.00  0.00    -0.371 N 
ATOM     24  H   UNL     1      -7.653  -7.819 -24.195  1.00  0.00     0.161 HD
BRANCH  23  25
ATOM     25  C   UNL     1      -9.378  -8.683 -23.558  1.00  0.00     0.046 A 
ATOM     26  C   UNL     1     -10.746  -8.816 -23.835  1.00  0.00     0.026 A 
ATOM     27  C   UNL     1      -8.983  -8.782 -22.201  1.00  0.00     0.046 A 
ATOM     28  C   UNL     1     -11.676  -9.094 -22.827  1.00  0.00     0.002 A 
ATOM     29  C   UNL     1      -9.914  -9.085 -21.192  1.00  0.00     0.014 A 
ATOM     30  C   UNL     1     -11.261  -9.237 -21.508  1.00  0.00     0.001 A 
BRANCH  27  31
ATOM     31  C   UNL     1      -7.549  -8.611 -21.828  1.00  0.00     0.195 C 
ATOM     32  O   UNL     1      -6.728  -9.468 -22.153  1.00  0.00    -0.289 OA
BRANCH  31  33
ATOM     33  C   UNL     1      -7.079  -7.414 -21.080  1.00  0.00     0.023 A 
ATOM     34  C   UNL     1      -7.970  -6.434 -20.623  1.00  0.00     0.012 A 
ATOM     35  C   UNL     1      -5.703  -7.253 -20.877  1.00  0.00     0.012 A 
ATOM     36  C   UNL     1      -7.485  -5.316 -19.941  1.00  0.00     0.001 A 
ATOM     37  C   UNL     1      -5.223  -6.134 -20.195  1.00  0.00     0.001 A 
ATOM     38  C   UNL     1      -6.113  -5.168 -19.725  1.00  0.00     0.000 A 
ENDBRANCH  31  33
ENDBRANCH  27  31
ENDBRANCH  23  25
ENDBRANCH  22  23
BRANCH  22  39
ATOM     39  C   UNL     1      -6.885  -9.951 -25.615  1.00  0.00     0.326 C 
ATOM     40  O   UNL     1      -5.864  -9.830 -26.276  1.00  0.00    -0.250 OA
BRANCH  39  41
ATOM     41  O   UNL     1      -6.931 -10.859 -24.613  1.00  0.00    -0.480 OA
ATOM     42  H   UNL     1      -7.429 -10.393 -23.910  1.00  0.00     0.296 HD
ENDBRANCH  39  41
ENDBRANCH  22  39
ENDBRANCH  21  22
ENDBRANCH   4  21
TORSDOF 13
ENDMDL
