REMARK SMILES C[C@H](C(=O)Nc1cccc2c(-c3nc(Nc4cccc(S(C)(=O)=O)c4F)ncc3F)c[nH]c12)N1CCCN(C)CC1
REMARK SMILES IDX 6 1 7 2 8 3 9 4 10 5 11 6 31 7 32 8 33 9 5 11 3 12 4 13 2 15
REMARK SMILES IDX 1 16 34 17 35 18 41 19 36 20 40 21 37 22 38 23 39 24 12 25
REMARK SMILES IDX 13 26 29 27 14 28 28 29 27 30 30 31 15 32 16 34 17 35 25 36
REMARK SMILES IDX 18 37 20 38 19 39 26 40 21 41 23 42 24 43 22 44
REMARK H PARENT 32 10 5 14 15 33
REMARK INDEX MAP 6 1 7 2 8 3 9 4 10 5 11 6 31 7 32 8 33 9 59 10 5 11 3 12 4 13
REMARK INDEX MAP 46 14 2 15 1 16 34 17 35 18 41 19 36 20 40 21 37 22 38 23
REMARK INDEX MAP 39 24 12 25 13 26 29 27 14 28 28 29 27 30 30 31 15 32 50 33
REMARK INDEX MAP 16 34 17 35 25 36 18 37 20 38 19 39 26 40 21 41 23 42 24 43
REMARK INDEX MAP 22 44
ROOT
ATOM      1  C   UNL     1       7.125 -21.456  21.219  1.00  0.00     0.065 A 
ATOM      2  C   UNL     1       8.506 -21.347  20.980  1.00  0.00     0.028 A 
ATOM      3  C   UNL     1       9.406 -22.325  21.395  1.00  0.00     0.003 A 
ATOM      4  C   UNL     1       8.952 -23.453  22.078  1.00  0.00     0.011 A 
ATOM      5  C   UNL     1       7.573 -23.606  22.341  1.00  0.00     0.011 A 
ATOM      6  C   UNL     1       6.797 -24.621  23.003  1.00  0.00     0.029 A 
ATOM      7  C   UNL     1       5.479 -24.218  22.929  1.00  0.00     0.094 A 
ATOM      8  N   UNL     1       5.431 -23.029  22.257  1.00  0.00    -0.359 N 
ATOM      9  C   UNL     1       6.693 -22.611  21.895  1.00  0.00     0.070 A 
ATOM     10  H   UNL     1       4.564 -22.513  22.048  1.00  0.00     0.166 HD
ENDROOT
BRANCH   1  11
ATOM     11  N   UNL     1       6.324 -20.389  20.780  1.00  0.00    -0.323 N 
ATOM     12  C   UNL     1       5.588 -19.472  21.505  1.00  0.00     0.241 C 
ATOM     13  O   UNL     1       5.426 -19.456  22.724  1.00  0.00    -0.273 OA
ATOM     14  H   UNL     1       6.278 -20.272  19.758  1.00  0.00     0.170 HD
BRANCH  12  15
ATOM     15  C   UNL     1       5.013 -18.345  20.606  1.00  0.00     0.143 C 
ATOM     16  C   UNL     1       6.196 -17.865  19.751  1.00  0.00     0.035 C 
BRANCH  15  17
ATOM     17  N   UNL     1       3.879 -18.867  19.801  1.00  0.00    -0.291 NA
ATOM     18  C   UNL     1       3.683 -18.248  18.486  1.00  0.00     0.086 C 
ATOM     19  C   UNL     1       2.595 -18.925  20.536  1.00  0.00     0.101 C 
ATOM     20  C   UNL     1       3.450 -16.740  18.389  1.00  0.00     0.031 C 
ATOM     21  C   UNL     1       1.740 -17.645  20.676  1.00  0.00     0.099 C 
ATOM     22  C   UNL     1       2.075 -16.181  18.777  1.00  0.00     0.085 C 
ATOM     23  N   UNL     1       1.159 -17.135  19.414  1.00  0.00    -0.305 NA
ATOM     24  C   UNL     1      -0.116 -16.468  19.708  1.00  0.00     0.105 C 
ENDBRANCH  15  17
ENDBRANCH  12  15
ENDBRANCH   1  11
BRANCH   6  25
ATOM     25  C   UNL     1       7.245 -25.837  23.673  1.00  0.00     0.114 A 
ATOM     26  N   UNL     1       8.317 -25.685  24.489  1.00  0.00    -0.210 NA
ATOM     27  C   UNL     1       6.626 -27.054  23.499  1.00  0.00     0.167 A 
ATOM     28  C   UNL     1       8.775 -26.764  25.141  1.00  0.00     0.228 A 
ATOM     29  C   UNL     1       7.168 -28.102  24.196  1.00  0.00     0.156 A 
ATOM     30  N   UNL     1       8.234 -27.985  25.015  1.00  0.00    -0.218 NA
ATOM     31  F   UNL     1       5.573 -27.245  22.695  1.00  0.00    -0.203 F 
BRANCH  28  32
ATOM     32  N   UNL     1       9.855 -26.521  25.979  1.00  0.00    -0.322 N 
ATOM     33  H   UNL     1       9.682 -25.748  26.638  1.00  0.00     0.170 HD
BRANCH  32  34
ATOM     34  C   UNL     1      11.126 -27.088  26.132  1.00  0.00     0.078 A 
ATOM     35  C   UNL     1      12.170 -26.931  25.213  1.00  0.00     0.029 A 
ATOM     36  C   UNL     1      11.379 -27.863  27.277  1.00  0.00     0.165 A 
ATOM     37  C   UNL     1      13.422 -27.521  25.431  1.00  0.00     0.004 A 
ATOM     38  C   UNL     1      12.621 -28.448  27.499  1.00  0.00     0.104 A 
ATOM     39  C   UNL     1      13.651 -28.284  26.574  1.00  0.00     0.023 A 
ATOM     40  F   UNL     1      10.385 -28.021  28.167  1.00  0.00    -0.203 F 
BRANCH  38  41
ATOM     41  S   UNL     1      12.884 -29.407  28.954  1.00  0.00     0.178 S 
ATOM     42  O   UNL     1      14.284 -29.793  28.957  1.00  0.00    -0.224 OA
ATOM     43  O   UNL     1      11.843 -30.415  28.994  1.00  0.00    -0.224 OA
ATOM     44  C   UNL     1      12.668 -28.299  30.321  1.00  0.00     0.164 C 
ENDBRANCH  38  41
ENDBRANCH  32  34
ENDBRANCH  28  32
ENDBRANCH   6  25
TORSDOF 7
