MODEL 1
REMARK VINA RESULT:   -11.818      0.000      0.000
REMARK INTER + INTRA:         -22.744
REMARK INTER:                 -22.180
REMARK INTRA:                  -0.564
REMARK UNBOUND:                -0.564
REMARK SMILES COc1cc(C(=O)NCCCCCCCCC(=O)NNc2c3c(cc4ccccc24)CCCC3)cc(OC)c1OC
REMARK SMILES IDX 12 1 11 2 10 3 9 4 8 5 6 6 7 7 5 9 3 10 4 11 39 12 36 13
REMARK SMILES IDX 35 14 2 15 1 16 40 17 41 18 37 19 38 20 13 21 14 22 15 23
REMARK SMILES IDX 16 24 17 25 18 26 19 27 20 29 21 31 22 32 30 33 23 34 34 35
REMARK SMILES IDX 29 36 25 37 24 38 31 39 33 40 28 41 26 42 32 43 27 44
REMARK H PARENT 8 8 19 28 20 30
ROOT
ATOM      1  C   UNL     1     -13.853 -44.704  26.641  1.00  0.00     0.000 C 
ENDROOT
BRANCH   1   2
ATOM      2  C   UNL     1     -13.149 -45.240  27.891  1.00  0.00     0.002 C 
BRANCH   2   3
ATOM      3  C   UNL     1     -12.346 -46.529  27.696  1.00  0.00     0.021 C 
BRANCH   3   4
ATOM      4  C   UNL     1     -10.977 -46.493  28.375  1.00  0.00     0.116 C 
BRANCH   4   5
ATOM      5  N   UNL     1     -10.905 -45.445  29.374  1.00  0.00    -0.352 N 
ATOM      6  C   UNL     1     -11.040 -45.718  30.719  1.00  0.00     0.251 C 
ATOM      7  O   UNL     1     -11.281 -46.833  31.164  1.00  0.00    -0.269 OA
ATOM      8  H   UNL     1     -10.820 -44.490  29.053  1.00  0.00     0.163 HD
BRANCH   6   9
ATOM      9  C   UNL     1     -10.910 -44.561  31.647  1.00  0.00     0.047 A 
ATOM     10  C   UNL     1     -11.868 -42.770  32.965  1.00  0.00     0.165 A 
ATOM     11  C   UNL     1     -12.032 -43.852  32.098  1.00  0.00     0.064 A 
ATOM     12  C   UNL     1     -10.572 -42.420  33.386  1.00  0.00     0.203 A 
ATOM     13  C   UNL     1      -9.439 -43.098  32.903  1.00  0.00     0.165 A 
ATOM     14  C   UNL     1      -9.619 -44.174  32.035  1.00  0.00     0.064 A 
BRANCH  10  15
ATOM     15  O   UNL     1     -12.899 -42.023  33.474  1.00  0.00    -0.493 OA
ATOM     16  C   UNL     1     -14.204 -42.318  32.992  1.00  0.00     0.278 C 
ENDBRANCH  10  15
BRANCH  12  17
ATOM     17  O   UNL     1     -10.406 -41.329  34.209  1.00  0.00    -0.490 OA
ATOM     18  C   UNL     1      -9.934 -41.754  35.486  1.00  0.00     0.278 C 
ENDBRANCH  12  17
BRANCH  13  19
ATOM     19  O   UNL     1      -8.223 -42.648  33.348  1.00  0.00    -0.493 OA
ATOM     20  C   UNL     1      -7.064 -43.285  32.826  1.00  0.00     0.278 C 
ENDBRANCH  13  19
ENDBRANCH   6   9
ENDBRANCH   4   5
ENDBRANCH   3   4
ENDBRANCH   2   3
ENDBRANCH   1   2
BRANCH   1  21
ATOM     21  C   UNL     1     -14.917 -43.631  26.891  1.00  0.00     0.000 C 
BRANCH  21  22
ATOM     22  C   UNL     1     -14.808 -42.439  25.938  1.00  0.00     0.001 C 
BRANCH  22  23
ATOM     23  C   UNL     1     -14.975 -42.882  24.480  1.00  0.00     0.010 C 
BRANCH  23  24
ATOM     24  C   UNL     1     -14.956 -41.707  23.503  1.00  0.00     0.102 C 
BRANCH  24  25
ATOM     25  C   UNL     1     -16.204 -41.613  22.646  1.00  0.00     0.238 C 
ATOM     26  O   UNL     1     -16.387 -40.762  21.778  1.00  0.00    -0.273 OA
ATOM     27  N   UNL     1     -17.135 -42.588  22.953  1.00  0.00    -0.270 N 
ATOM     28  H   UNL     1     -17.024 -43.273  23.694  1.00  0.00     0.191 HD
BRANCH  27  29
ATOM     29  N   UNL     1     -18.348 -42.574  22.257  1.00  0.00    -0.298 N 
ATOM     30  H   UNL     1     -18.225 -42.522  21.243  1.00  0.00     0.188 HD
BRANCH  29  31
ATOM     31  C   UNL     1     -19.308 -41.695  22.824  1.00  0.00     0.065 A 
ATOM     32  C   UNL     1     -19.595 -41.767  24.213  1.00  0.00    -0.019 A 
ATOM     33  C   UNL     1     -20.058 -40.826  21.974  1.00  0.00     0.007 A 
ATOM     34  C   UNL     1     -20.651 -40.997  24.741  1.00  0.00    -0.042 A 
ATOM     35  C   UNL     1     -18.832 -42.721  25.111  1.00  0.00     0.038 C 
ATOM     36  C   UNL     1     -19.797 -40.678  20.591  1.00  0.00     0.011 A 
ATOM     37  C   UNL     1     -21.101 -40.051  22.529  1.00  0.00    -0.016 A 
ATOM     38  C   UNL     1     -21.379 -40.145  23.898  1.00  0.00     0.012 A 
ATOM     39  C   UNL     1     -21.003 -41.019  26.210  1.00  0.00     0.036 C 
ATOM     40  C   UNL     1     -19.012 -42.462  26.605  1.00  0.00     0.005 C 
ATOM     41  C   UNL     1     -20.549 -39.817  19.787  1.00  0.00     0.001 A 
ATOM     42  C   UNL     1     -21.853 -39.192  21.709  1.00  0.00     0.009 A 
ATOM     43  C   UNL     1     -20.481 -42.254  26.935  1.00  0.00     0.005 C 
ATOM     44  C   UNL     1     -21.582 -39.078  20.346  1.00  0.00     0.001 A 
ENDBRANCH  29  31
ENDBRANCH  27  29
ENDBRANCH  24  25
ENDBRANCH  23  24
ENDBRANCH  22  23
ENDBRANCH  21  22
ENDBRANCH   1  21
TORSDOF 15
ENDMDL
MODEL 2
REMARK VINA RESULT:   -11.769      0.252      2.062
REMARK INTER + INTRA:         -22.652
REMARK INTER:                 -22.334
REMARK INTRA:                  -0.319
REMARK UNBOUND:                -0.564
REMARK SMILES COc1cc(C(=O)NCCCCCCCCC(=O)NNc2c3c(cc4ccccc24)CCCC3)cc(OC)c1OC
REMARK SMILES IDX 12 1 11 2 10 3 9 4 8 5 6 6 7 7 5 9 3 10 4 11 39 12 36 13
REMARK SMILES IDX 35 14 2 15 1 16 40 17 41 18 37 19 38 20 13 21 14 22 15 23
REMARK SMILES IDX 16 24 17 25 18 26 19 27 20 29 21 31 22 32 30 33 23 34 34 35
REMARK SMILES IDX 29 36 25 37 24 38 31 39 33 40 28 41 26 42 32 43 27 44
REMARK H PARENT 8 8 19 28 20 30
ROOT
ATOM      1  C   UNL     1     -14.038 -44.732  26.503  1.00  0.00     0.000 C 
ENDROOT
BRANCH   1   2
ATOM      2  C   UNL     1     -13.060 -45.039  27.641  1.00  0.00     0.002 C 
BRANCH   2   3
ATOM      3  C   UNL     1     -12.461 -46.448  27.636  1.00  0.00     0.021 C 
BRANCH   3   4
ATOM      4  C   UNL     1     -11.084 -46.519  28.293  1.00  0.00     0.116 C 
BRANCH   4   5
ATOM      5  N   UNL     1     -10.918 -45.483  29.295  1.00  0.00    -0.352 N 
ATOM      6  C   UNL     1     -11.412 -45.628  30.573  1.00  0.00     0.251 C 
ATOM      7  O   UNL     1     -12.065 -46.597  30.943  1.00  0.00    -0.269 OA
ATOM      8  H   UNL     1     -10.484 -44.615  29.010  1.00  0.00     0.163 HD
BRANCH   6   9
ATOM      9  C   UNL     1     -11.144 -44.511  31.519  1.00  0.00     0.047 A 
ATOM     10  C   UNL     1      -9.629 -43.114  32.793  1.00  0.00     0.165 A 
ATOM     11  C   UNL     1      -9.839 -44.167  31.899  1.00  0.00     0.064 A 
ATOM     12  C   UNL     1     -10.738 -42.402  33.284  1.00  0.00     0.203 A 
ATOM     13  C   UNL     1     -12.052 -42.769  32.942  1.00  0.00     0.165 A 
ATOM     14  C   UNL     1     -12.245 -43.825  32.052  1.00  0.00     0.064 A 
BRANCH  10  15
ATOM     15  O   UNL     1      -8.395 -42.692  33.214  1.00  0.00    -0.493 OA
ATOM     16  C   UNL     1      -7.277 -43.469  32.806  1.00  0.00     0.278 C 
ENDBRANCH  10  15
BRANCH  12  17
ATOM     17  O   UNL     1     -10.536 -41.390  34.195  1.00  0.00    -0.490 OA
ATOM     18  C   UNL     1      -9.974 -41.922  35.393  1.00  0.00     0.278 C 
ENDBRANCH  12  17
BRANCH  13  19
ATOM     19  O   UNL     1     -13.058 -42.031  33.511  1.00  0.00    -0.493 OA
ATOM     20  C   UNL     1     -14.381 -42.542  33.398  1.00  0.00     0.278 C 
ENDBRANCH  13  19
ENDBRANCH   6   9
ENDBRANCH   4   5
ENDBRANCH   3   4
ENDBRANCH   2   3
ENDBRANCH   1   2
BRANCH   1  21
ATOM     21  C   UNL     1     -14.972 -43.541  26.738  1.00  0.00     0.000 C 
BRANCH  21  22
ATOM     22  C   UNL     1     -14.729 -42.383  25.767  1.00  0.00     0.001 C 
BRANCH  22  23
ATOM     23  C   UNL     1     -15.072 -42.789  24.329  1.00  0.00     0.010 C 
BRANCH  23  24
ATOM     24  C   UNL     1     -15.073 -41.600  23.368  1.00  0.00     0.102 C 
BRANCH  24  25
ATOM     25  C   UNL     1     -16.329 -41.508  22.521  1.00  0.00     0.238 C 
ATOM     26  O   UNL     1     -16.518 -40.662  21.650  1.00  0.00    -0.273 OA
ATOM     27  N   UNL     1     -17.259 -42.479  22.844  1.00  0.00    -0.270 N 
ATOM     28  H   UNL     1     -17.144 -43.159  23.588  1.00  0.00     0.191 HD
BRANCH  27  29
ATOM     29  N   UNL     1     -18.478 -42.466  22.158  1.00  0.00    -0.298 N 
ATOM     30  H   UNL     1     -18.366 -42.393  21.144  1.00  0.00     0.188 HD
BRANCH  29  31
ATOM     31  C   UNL     1     -19.444 -41.609  22.750  1.00  0.00     0.065 A 
ATOM     32  C   UNL     1     -19.709 -41.702  24.142  1.00  0.00    -0.019 A 
ATOM     33  C   UNL     1     -20.219 -40.740  21.922  1.00  0.00     0.007 A 
ATOM     34  C   UNL     1     -20.769 -40.955  24.695  1.00  0.00    -0.042 A 
ATOM     35  C   UNL     1     -18.919 -42.656  25.017  1.00  0.00     0.038 C 
ATOM     36  C   UNL     1     -19.980 -40.571  20.537  1.00  0.00     0.011 A 
ATOM     37  C   UNL     1     -21.265 -39.989  22.501  1.00  0.00    -0.016 A 
ATOM     38  C   UNL     1     -21.522 -40.104  23.873  1.00  0.00     0.012 A 
ATOM     39  C   UNL     1     -21.100 -41.001  26.168  1.00  0.00     0.036 C 
ATOM     40  C   UNL     1     -19.082 -42.418  26.517  1.00  0.00     0.005 C 
ATOM     41  C   UNL     1     -20.756 -39.712  19.755  1.00  0.00     0.001 A 
ATOM     42  C   UNL     1     -22.042 -39.131  21.703  1.00  0.00     0.009 A 
ATOM     43  C   UNL     1     -20.549 -42.237  26.870  1.00  0.00     0.005 C 
ATOM     44  C   UNL     1     -21.792 -38.995  20.338  1.00  0.00     0.001 A 
ENDBRANCH  29  31
ENDBRANCH  27  29
ENDBRANCH  24  25
ENDBRANCH  23  24
ENDBRANCH  22  23
ENDBRANCH  21  22
ENDBRANCH   1  21
TORSDOF 15
ENDMDL
MODEL 3
REMARK VINA RESULT:   -11.678      0.594      3.565
REMARK INTER + INTRA:         -22.483
REMARK INTER:                 -21.886
REMARK INTRA:                  -0.597
REMARK UNBOUND:                -0.564
REMARK SMILES COc1cc(C(=O)NCCCCCCCCC(=O)NNc2c3c(cc4ccccc24)CCCC3)cc(OC)c1OC
REMARK SMILES IDX 12 1 11 2 10 3 9 4 8 5 6 6 7 7 5 9 3 10 4 11 39 12 36 13
REMARK SMILES IDX 35 14 2 15 1 16 40 17 41 18 37 19 38 20 13 21 14 22 15 23
REMARK SMILES IDX 16 24 17 25 18 26 19 27 20 29 21 31 22 32 30 33 23 34 34 35
REMARK SMILES IDX 29 36 25 37 24 38 31 39 33 40 28 41 26 42 32 43 27 44
REMARK H PARENT 8 8 19 28 20 30
ROOT
ATOM      1  C   UNL     1     -14.075 -44.414  26.312  1.00  0.00     0.000 C 
ENDROOT
BRANCH   1   2
ATOM      2  C   UNL     1     -13.262 -44.879  27.524  1.00  0.00     0.002 C 
BRANCH   2   3
ATOM      3  C   UNL     1     -12.747 -46.319  27.462  1.00  0.00     0.021 C 
BRANCH   3   4
ATOM      4  C   UNL     1     -11.394 -46.505  28.146  1.00  0.00     0.116 C 
BRANCH   4   5
ATOM      5  N   UNL     1     -11.166 -45.492  29.159  1.00  0.00    -0.352 N 
ATOM      6  C   UNL     1     -11.641 -45.636  30.445  1.00  0.00     0.251 C 
ATOM      7  O   UNL     1     -12.327 -46.582  30.813  1.00  0.00    -0.269 OA
ATOM      8  H   UNL     1     -10.702 -44.638  28.878  1.00  0.00     0.163 HD
BRANCH   6   9
ATOM      9  C   UNL     1     -11.309 -44.544  31.401  1.00  0.00     0.047 A 
ATOM     10  C   UNL     1      -9.711 -43.172  32.596  1.00  0.00     0.165 A 
ATOM     11  C   UNL     1      -9.981 -44.200  31.690  1.00  0.00     0.064 A 
ATOM     12  C   UNL     1     -10.783 -42.486  33.192  1.00  0.00     0.203 A 
ATOM     13  C   UNL     1     -12.117 -42.854  32.942  1.00  0.00     0.165 A 
ATOM     14  C   UNL     1     -12.371 -43.885  32.038  1.00  0.00     0.064 A 
BRANCH  10  15
ATOM     15  O   UNL     1      -8.451 -42.750  32.934  1.00  0.00    -0.493 OA
ATOM     16  C   UNL     1      -7.374 -43.618  32.605  1.00  0.00     0.278 C 
ENDBRANCH  10  15
BRANCH  12  17
ATOM     17  O   UNL     1     -10.518 -41.499  34.116  1.00  0.00    -0.490 OA
ATOM     18  C   UNL     1     -10.037 -42.084  35.324  1.00  0.00     0.278 C 
ENDBRANCH  12  17
BRANCH  13  19
ATOM     19  O   UNL     1     -13.082 -42.144  33.608  1.00  0.00    -0.493 OA
ATOM     20  C   UNL     1     -14.400 -42.678  33.606  1.00  0.00     0.278 C 
ENDBRANCH  13  19
ENDBRANCH   6   9
ENDBRANCH   4   5
ENDBRANCH   3   4
ENDBRANCH   2   3
ENDBRANCH   1   2
BRANCH   1  21
ATOM     21  C   UNL     1     -15.086 -43.296  26.584  1.00  0.00     0.000 C 
BRANCH  21  22
ATOM     22  C   UNL     1     -14.947 -42.111  25.625  1.00  0.00     0.001 C 
BRANCH  22  23
ATOM     23  C   UNL     1     -15.061 -42.567  24.166  1.00  0.00     0.010 C 
BRANCH  23  24
ATOM     24  C   UNL     1     -15.266 -41.399  23.201  1.00  0.00     0.102 C 
BRANCH  24  25
ATOM     25  C   UNL     1     -16.582 -41.460  22.449  1.00  0.00     0.238 C 
ATOM     26  O   UNL     1     -16.945 -40.632  21.617  1.00  0.00    -0.273 OA
ATOM     27  N   UNL     1     -17.349 -42.553  22.809  1.00  0.00    -0.270 N 
ATOM     28  H   UNL     1     -17.090 -43.225  23.524  1.00  0.00     0.191 HD
BRANCH  27  29
ATOM     29  N   UNL     1     -18.607 -42.691  22.213  1.00  0.00    -0.298 N 
ATOM     30  H   UNL     1     -18.582 -42.573  21.197  1.00  0.00     0.188 HD
BRANCH  29  31
ATOM     31  C   UNL     1     -19.633 -41.995  22.904  1.00  0.00     0.065 A 
ATOM     32  C   UNL     1     -20.594 -41.248  22.173  1.00  0.00    -0.019 A 
ATOM     33  C   UNL     1     -19.624 -41.960  24.333  1.00  0.00     0.007 A 
ATOM     34  C   UNL     1     -21.518 -40.442  22.868  1.00  0.00    -0.042 A 
ATOM     35  C   UNL     1     -20.580 -41.245  20.656  1.00  0.00     0.038 C 
ATOM     36  C   UNL     1     -18.720 -42.712  25.121  1.00  0.00     0.011 A 
ATOM     37  C   UNL     1     -20.570 -41.159  25.008  1.00  0.00    -0.016 A 
ATOM     38  C   UNL     1     -21.501 -40.417  24.270  1.00  0.00     0.012 A 
ATOM     39  C   UNL     1     -22.571 -39.628  22.153  1.00  0.00     0.036 C 
ATOM     40  C   UNL     1     -21.844 -40.677  20.014  1.00  0.00     0.005 C 
ATOM     41  C   UNL     1     -18.738 -42.656  26.517  1.00  0.00     0.001 A 
ATOM     42  C   UNL     1     -20.575 -41.108  26.413  1.00  0.00     0.009 A 
ATOM     43  C   UNL     1     -22.241 -39.373  20.687  1.00  0.00     0.005 C 
ATOM     44  C   UNL     1     -19.663 -41.848  27.163  1.00  0.00     0.001 A 
ENDBRANCH  29  31
ENDBRANCH  27  29
ENDBRANCH  24  25
ENDBRANCH  23  24
ENDBRANCH  22  23
ENDBRANCH  21  22
ENDBRANCH   1  21
TORSDOF 15
ENDMDL
MODEL 4
REMARK VINA RESULT:   -11.627      0.387      2.925
REMARK INTER + INTRA:         -22.387
REMARK INTER:                 -21.812
REMARK INTRA:                  -0.575
REMARK UNBOUND:                -0.564
REMARK SMILES COc1cc(C(=O)NCCCCCCCCC(=O)NNc2c3c(cc4ccccc24)CCCC3)cc(OC)c1OC
REMARK SMILES IDX 12 1 11 2 10 3 9 4 8 5 6 6 7 7 5 9 3 10 4 11 39 12 36 13
REMARK SMILES IDX 35 14 2 15 1 16 40 17 41 18 37 19 38 20 13 21 14 22 15 23
REMARK SMILES IDX 16 24 17 25 18 26 19 27 20 29 21 31 22 32 30 33 23 34 34 35
REMARK SMILES IDX 29 36 25 37 24 38 31 39 33 40 28 41 26 42 32 43 27 44
REMARK H PARENT 8 8 19 28 20 30
ROOT
ATOM      1  C   UNL     1     -13.879 -44.662  26.479  1.00  0.00     0.000 C 
ENDROOT
BRANCH   1   2
ATOM      2  C   UNL     1     -13.247 -45.296  27.722  1.00  0.00     0.002 C 
BRANCH   2   3
ATOM      3  C   UNL     1     -12.394 -46.542  27.468  1.00  0.00     0.021 C 
BRANCH   3   4
ATOM      4  C   UNL     1     -11.077 -46.538  28.242  1.00  0.00     0.116 C 
BRANCH   4   5
ATOM      5  N   UNL     1     -11.054 -45.495  29.249  1.00  0.00    -0.352 N 
ATOM      6  C   UNL     1     -10.821 -45.778  30.578  1.00  0.00     0.251 C 
ATOM      7  O   UNL     1     -10.673 -46.913  31.014  1.00  0.00    -0.269 OA
ATOM      8  H   UNL     1     -11.282 -44.553  28.961  1.00  0.00     0.163 HD
BRANCH   6   9
ATOM      9  C   UNL     1     -10.786 -44.616  31.508  1.00  0.00     0.047 A 
ATOM     10  C   UNL     1     -11.868 -42.799  32.688  1.00  0.00     0.165 A 
ATOM     11  C   UNL     1     -11.943 -43.886  31.814  1.00  0.00     0.064 A 
ATOM     12  C   UNL     1     -10.628 -42.467  33.263  1.00  0.00     0.203 A 
ATOM     13  C   UNL     1      -9.456 -43.167  32.927  1.00  0.00     0.165 A 
ATOM     14  C   UNL     1      -9.546 -44.247  32.049  1.00  0.00     0.064 A 
BRANCH  10  15
ATOM     15  O   UNL     1     -12.941 -42.032  33.062  1.00  0.00    -0.493 OA
ATOM     16  C   UNL     1     -14.039 -42.711  33.659  1.00  0.00     0.278 C 
ENDBRANCH  10  15
BRANCH  12  17
ATOM     17  O   UNL     1     -10.545 -41.372  34.094  1.00  0.00    -0.490 OA
ATOM     18  C   UNL     1     -10.311 -41.798  35.434  1.00  0.00     0.278 C 
ENDBRANCH  12  17
BRANCH  13  19
ATOM     19  O   UNL     1      -8.296 -42.732  33.515  1.00  0.00    -0.493 OA
ATOM     20  C   UNL     1      -7.072 -43.172  32.939  1.00  0.00     0.278 C 
ENDBRANCH  13  19
ENDBRANCH   6   9
ENDBRANCH   4   5
ENDBRANCH   3   4
ENDBRANCH   2   3
ENDBRANCH   1   2
BRANCH   1  21
ATOM     21  C   UNL     1     -14.217 -43.173  26.597  1.00  0.00     0.000 C 
BRANCH  21  22
ATOM     22  C   UNL     1     -15.457 -42.771  25.795  1.00  0.00     0.001 C 
BRANCH  22  23
ATOM     23  C   UNL     1     -15.243 -43.002  24.295  1.00  0.00     0.010 C 
BRANCH  23  24
ATOM     24  C   UNL     1     -15.287 -41.705  23.488  1.00  0.00     0.102 C 
BRANCH  24  25
ATOM     25  C   UNL     1     -16.489 -41.607  22.567  1.00  0.00     0.238 C 
ATOM     26  O   UNL     1     -16.606 -40.780  21.666  1.00  0.00    -0.273 OA
ATOM     27  N   UNL     1     -17.459 -42.548  22.857  1.00  0.00    -0.270 N 
ATOM     28  H   UNL     1     -17.403 -43.212  23.623  1.00  0.00     0.191 HD
BRANCH  27  29
ATOM     29  N   UNL     1     -18.635 -42.526  22.100  1.00  0.00    -0.298 N 
ATOM     30  H   UNL     1     -18.465 -42.371  21.103  1.00  0.00     0.188 HD
BRANCH  29  31
ATOM     31  C   UNL     1     -19.667 -41.752  22.693  1.00  0.00     0.065 A 
ATOM     32  C   UNL     1     -20.429 -40.861  21.891  1.00  0.00    -0.019 A 
ATOM     33  C   UNL     1     -19.854 -41.791  24.109  1.00  0.00     0.007 A 
ATOM     34  C   UNL     1     -21.349 -39.990  22.508  1.00  0.00    -0.042 A 
ATOM     35  C   UNL     1     -20.201 -40.784  20.393  1.00  0.00     0.038 C 
ATOM     36  C   UNL     1     -19.157 -42.681  24.960  1.00  0.00     0.011 A 
ATOM     37  C   UNL     1     -20.794 -40.920  24.704  1.00  0.00    -0.016 A 
ATOM     38  C   UNL     1     -21.526 -40.039  23.898  1.00  0.00     0.012 A 
ATOM     39  C   UNL     1     -22.196 -39.024  21.714  1.00  0.00     0.036 C 
ATOM     40  C   UNL     1     -21.294 -40.040  19.627  1.00  0.00     0.005 C 
ATOM     41  C   UNL     1     -19.365 -42.695  26.341  1.00  0.00     0.001 A 
ATOM     42  C   UNL     1     -20.991 -40.940  26.095  1.00  0.00     0.009 A 
ATOM     43  C   UNL     1     -21.638 -38.735  20.325  1.00  0.00     0.005 C 
ATOM     44  C   UNL     1     -20.279 -41.819  26.910  1.00  0.00     0.001 A 
ENDBRANCH  29  31
ENDBRANCH  27  29
ENDBRANCH  24  25
ENDBRANCH  23  24
ENDBRANCH  22  23
ENDBRANCH  21  22
ENDBRANCH   1  21
TORSDOF 15
ENDMDL
MODEL 5
REMARK VINA RESULT:   -11.591      2.416     13.045
REMARK INTER + INTRA:         -22.318
REMARK INTER:                 -21.440
REMARK INTRA:                  -0.878
REMARK UNBOUND:                -0.564
REMARK SMILES COc1cc(C(=O)NCCCCCCCCC(=O)NNc2c3c(cc4ccccc24)CCCC3)cc(OC)c1OC
REMARK SMILES IDX 12 1 11 2 10 3 9 4 8 5 6 6 7 7 5 9 3 10 4 11 39 12 36 13
REMARK SMILES IDX 35 14 2 15 1 16 40 17 41 18 37 19 38 20 13 21 14 22 15 23
REMARK SMILES IDX 16 24 17 25 18 26 19 27 20 29 21 31 22 32 30 33 23 34 34 35
REMARK SMILES IDX 29 36 25 37 24 38 31 39 33 40 28 41 26 42 32 43 27 44
REMARK H PARENT 8 8 19 28 20 30
ROOT
ATOM      1  C   UNL     1     -15.017 -42.581  26.688  1.00  0.00     0.000 C 
ENDROOT
BRANCH   1   2
ATOM      2  C   UNL     1     -16.220 -42.910  25.799  1.00  0.00     0.002 C 
BRANCH   2   3
ATOM      3  C   UNL     1     -15.888 -43.317  24.361  1.00  0.00     0.021 C 
BRANCH   3   4
ATOM      4  C   UNL     1     -15.882 -42.139  23.388  1.00  0.00     0.116 C 
BRANCH   4   5
ATOM      5  N   UNL     1     -17.227 -41.687  23.090  1.00  0.00    -0.352 N 
ATOM      6  C   UNL     1     -17.490 -40.847  22.030  1.00  0.00     0.251 C 
ATOM      7  O   UNL     1     -16.621 -40.379  21.303  1.00  0.00    -0.269 OA
ATOM      8  H   UNL     1     -17.967 -41.952  23.726  1.00  0.00     0.163 HD
BRANCH   6   9
ATOM      9  C   UNL     1     -18.916 -40.484  21.807  1.00  0.00     0.047 A 
ATOM     10  C   UNL     1     -20.721 -39.709  20.390  1.00  0.00     0.165 A 
ATOM     11  C   UNL     1     -19.375 -40.044  20.558  1.00  0.00     0.064 A 
ATOM     12  C   UNL     1     -21.599 -39.839  21.481  1.00  0.00     0.203 A 
ATOM     13  C   UNL     1     -21.138 -40.237  22.747  1.00  0.00     0.165 A 
ATOM     14  C   UNL     1     -19.791 -40.564  22.900  1.00  0.00     0.064 A 
BRANCH  10  15
ATOM     15  O   UNL     1     -21.270 -39.283  19.209  1.00  0.00    -0.493 OA
ATOM     16  C   UNL     1     -21.367 -37.878  19.015  1.00  0.00     0.278 C 
ENDBRANCH  10  15
BRANCH  12  17
ATOM     17  O   UNL     1     -22.918 -39.472  21.327  1.00  0.00    -0.490 OA
ATOM     18  C   UNL     1     -23.689 -40.598  20.915  1.00  0.00     0.278 C 
ENDBRANCH  12  17
BRANCH  13  19
ATOM     19  O   UNL     1     -22.074 -40.291  23.748  1.00  0.00    -0.493 OA
ATOM     20  C   UNL     1     -22.339 -41.565  24.321  1.00  0.00     0.278 C 
ENDBRANCH  13  19
ENDBRANCH   6   9
ENDBRANCH   4   5
ENDBRANCH   3   4
ENDBRANCH   2   3
ENDBRANCH   1   2
BRANCH   1  21
ATOM     21  C   UNL     1     -13.678 -43.165  26.229  1.00  0.00     0.000 C 
BRANCH  21  22
ATOM     22  C   UNL     1     -12.912 -43.874  27.349  1.00  0.00     0.001 C 
BRANCH  22  23
ATOM     23  C   UNL     1     -13.414 -45.310  27.536  1.00  0.00     0.010 C 
BRANCH  23  24
ATOM     24  C   UNL     1     -12.309 -46.348  27.344  1.00  0.00     0.102 C 
BRANCH  24  25
ATOM     25  C   UNL     1     -11.385 -46.476  28.541  1.00  0.00     0.238 C 
ATOM     26  O   UNL     1     -10.176 -46.676  28.465  1.00  0.00    -0.273 OA
ATOM     27  N   UNL     1     -12.056 -46.354  29.744  1.00  0.00    -0.270 N 
ATOM     28  H   UNL     1     -13.059 -46.231  29.832  1.00  0.00     0.191 HD
BRANCH  27  29
ATOM     29  N   UNL     1     -11.313 -46.499  30.921  1.00  0.00    -0.298 N 
ATOM     30  H   UNL     1     -11.694 -47.211  31.548  1.00  0.00     0.188 HD
BRANCH  29  31
ATOM     31  C   UNL     1     -10.957 -45.259  31.514  1.00  0.00     0.065 A 
ATOM     32  C   UNL     1      -9.589 -44.953  31.740  1.00  0.00    -0.019 A 
ATOM     33  C   UNL     1     -11.982 -44.380  31.982  1.00  0.00     0.007 A 
ATOM     34  C   UNL     1      -9.250 -43.791  32.461  1.00  0.00    -0.042 A 
ATOM     35  C   UNL     1      -8.499 -45.905  31.286  1.00  0.00     0.038 C 
ATOM     36  C   UNL     1     -13.361 -44.606  31.755  1.00  0.00     0.011 A 
ATOM     37  C   UNL     1     -11.618 -43.212  32.688  1.00  0.00    -0.016 A 
ATOM     38  C   UNL     1     -10.265 -42.934  32.913  1.00  0.00     0.012 A 
ATOM     39  C   UNL     1      -7.816 -43.402  32.729  1.00  0.00     0.036 C 
ATOM     40  C   UNL     1      -7.094 -45.308  31.298  1.00  0.00     0.005 C 
ATOM     41  C   UNL     1     -14.338 -43.725  32.225  1.00  0.00     0.001 A 
ATOM     42  C   UNL     1     -12.612 -42.336  33.159  1.00  0.00     0.009 A 
ATOM     43  C   UNL     1      -6.842 -44.568  32.602  1.00  0.00     0.005 C 
ATOM     44  C   UNL     1     -13.963 -42.592  32.933  1.00  0.00     0.001 A 
ENDBRANCH  29  31
ENDBRANCH  27  29
ENDBRANCH  24  25
ENDBRANCH  23  24
ENDBRANCH  22  23
ENDBRANCH  21  22
ENDBRANCH   1  21
TORSDOF 15
ENDMDL
MODEL 6
REMARK VINA RESULT:   -11.514      2.579     12.444
REMARK INTER + INTRA:         -22.174
REMARK INTER:                 -21.029
REMARK INTRA:                  -1.145
REMARK UNBOUND:                -0.564
REMARK SMILES COc1cc(C(=O)NCCCCCCCCC(=O)NNc2c3c(cc4ccccc24)CCCC3)cc(OC)c1OC
REMARK SMILES IDX 12 1 11 2 10 3 9 4 8 5 6 6 7 7 5 9 3 10 4 11 39 12 36 13
REMARK SMILES IDX 35 14 2 15 1 16 40 17 41 18 37 19 38 20 13 21 14 22 15 23
REMARK SMILES IDX 16 24 17 25 18 26 19 27 20 29 21 31 22 32 30 33 23 34 34 35
REMARK SMILES IDX 29 36 25 37 24 38 31 39 33 40 28 41 26 42 32 43 27 44
REMARK H PARENT 8 8 19 28 20 30
ROOT
ATOM      1  C   UNL     1     -14.706 -43.621  25.653  1.00  0.00     0.000 C 
ENDROOT
BRANCH   1   2
ATOM      2  C   UNL     1     -16.020 -42.897  25.960  1.00  0.00     0.002 C 
BRANCH   2   3
ATOM      3  C   UNL     1     -16.370 -42.763  27.444  1.00  0.00     0.021 C 
BRANCH   3   4
ATOM      4  C   UNL     1     -17.839 -42.423  27.688  1.00  0.00     0.116 C 
BRANCH   4   5
ATOM      5  N   UNL     1     -18.505 -42.027  26.462  1.00  0.00    -0.352 N 
ATOM      6  C   UNL     1     -19.829 -41.643  26.450  1.00  0.00     0.251 C 
ATOM      7  O   UNL     1     -20.549 -41.658  27.441  1.00  0.00    -0.269 OA
ATOM      8  H   UNL     1     -17.988 -42.105  25.597  1.00  0.00     0.163 HD
BRANCH   6   9
ATOM      9  C   UNL     1     -20.386 -41.224  25.135  1.00  0.00     0.047 A 
ATOM     10  C   UNL     1     -22.215 -40.463  23.741  1.00  0.00     0.165 A 
ATOM     11  C   UNL     1     -21.728 -40.846  24.993  1.00  0.00     0.064 A 
ATOM     12  C   UNL     1     -21.338 -40.448  22.642  1.00  0.00     0.203 A 
ATOM     13  C   UNL     1     -20.002 -40.868  22.767  1.00  0.00     0.165 A 
ATOM     14  C   UNL     1     -19.532 -41.251  24.023  1.00  0.00     0.064 A 
BRANCH  10  15
ATOM     15  O   UNL     1     -23.503 -40.063  23.501  1.00  0.00    -0.493 OA
ATOM     16  C   UNL     1     -24.140 -39.303  24.521  1.00  0.00     0.278 C 
ENDBRANCH  10  15
BRANCH  12  17
ATOM     17  O   UNL     1     -21.825 -40.109  21.399  1.00  0.00    -0.490 OA
ATOM     18  C   UNL     1     -22.315 -41.273  20.737  1.00  0.00     0.278 C 
ENDBRANCH  12  17
BRANCH  13  19
ATOM     19  O   UNL     1     -19.247 -40.851  21.622  1.00  0.00    -0.493 OA
ATOM     20  C   UNL     1     -17.873 -40.510  21.756  1.00  0.00     0.278 C 
ENDBRANCH  13  19
ENDBRANCH   6   9
ENDBRANCH   4   5
ENDBRANCH   3   4
ENDBRANCH   2   3
ENDBRANCH   1   2
BRANCH   1  21
ATOM     21  C   UNL     1     -13.439 -42.946  26.186  1.00  0.00     0.000 C 
BRANCH  21  22
ATOM     22  C   UNL     1     -12.729 -43.763  27.268  1.00  0.00     0.001 C 
BRANCH  22  23
ATOM     23  C   UNL     1     -13.493 -45.057  27.571  1.00  0.00     0.010 C 
BRANCH  23  24
ATOM     24  C   UNL     1     -12.609 -46.300  27.464  1.00  0.00     0.102 C 
BRANCH  24  25
ATOM     25  C   UNL     1     -11.572 -46.401  28.567  1.00  0.00     0.238 C 
ATOM     26  O   UNL     1     -10.364 -46.508  28.375  1.00  0.00    -0.273 OA
ATOM     27  N   UNL     1     -12.136 -46.374  29.830  1.00  0.00    -0.270 N 
ATOM     28  H   UNL     1     -13.133 -46.330  30.012  1.00  0.00     0.191 HD
BRANCH  27  29
ATOM     29  N   UNL     1     -11.279 -46.505  30.927  1.00  0.00    -0.298 N 
ATOM     30  H   UNL     1     -11.554 -47.260  31.560  1.00  0.00     0.188 HD
BRANCH  29  31
ATOM     31  C   UNL     1     -10.950 -45.263  31.532  1.00  0.00     0.065 A 
ATOM     32  C   UNL     1      -9.588 -44.932  31.764  1.00  0.00    -0.019 A 
ATOM     33  C   UNL     1     -11.993 -44.408  32.003  1.00  0.00     0.007 A 
ATOM     34  C   UNL     1      -9.275 -43.769  32.495  1.00  0.00    -0.042 A 
ATOM     35  C   UNL     1      -8.479 -45.859  31.305  1.00  0.00     0.038 C 
ATOM     36  C   UNL     1     -13.366 -44.659  31.771  1.00  0.00     0.011 A 
ATOM     37  C   UNL     1     -11.654 -43.239  32.719  1.00  0.00    -0.016 A 
ATOM     38  C   UNL     1     -10.307 -42.936  32.951  1.00  0.00     0.012 A 
ATOM     39  C   UNL     1      -7.848 -43.354  32.771  1.00  0.00     0.036 C 
ATOM     40  C   UNL     1      -7.085 -45.234  31.327  1.00  0.00     0.005 C 
ATOM     41  C   UNL     1     -14.362 -43.802  32.245  1.00  0.00     0.001 A 
ATOM     42  C   UNL     1     -12.666 -42.386  33.194  1.00  0.00     0.009 A 
ATOM     43  C   UNL     1      -6.852 -44.500  32.637  1.00  0.00     0.005 C 
ATOM     44  C   UNL     1     -14.011 -42.667  32.962  1.00  0.00     0.001 A 
ENDBRANCH  29  31
ENDBRANCH  27  29
ENDBRANCH  24  25
ENDBRANCH  23  24
ENDBRANCH  22  23
ENDBRANCH  21  22
ENDBRANCH   1  21
TORSDOF 15
ENDMDL
MODEL 7
REMARK VINA RESULT:   -11.417      2.388     13.083
REMARK INTER + INTRA:         -21.992
REMARK INTER:                 -21.083
REMARK INTRA:                  -0.909
REMARK UNBOUND:                -0.564
REMARK SMILES COc1cc(C(=O)NCCCCCCCCC(=O)NNc2c3c(cc4ccccc24)CCCC3)cc(OC)c1OC
REMARK SMILES IDX 12 1 11 2 10 3 9 4 8 5 6 6 7 7 5 9 3 10 4 11 39 12 36 13
REMARK SMILES IDX 35 14 2 15 1 16 40 17 41 18 37 19 38 20 13 21 14 22 15 23
REMARK SMILES IDX 16 24 17 25 18 26 19 27 20 29 21 31 22 32 30 33 23 34 34 35
REMARK SMILES IDX 29 36 25 37 24 38 31 39 33 40 28 41 26 42 32 43 27 44
REMARK H PARENT 8 8 19 28 20 30
ROOT
ATOM      1  C   UNL     1     -16.436 -42.761  26.696  1.00  0.00     0.000 C 
ENDROOT
BRANCH   1   2
ATOM      2  C   UNL     1     -17.109 -42.787  25.320  1.00  0.00     0.002 C 
BRANCH   2   3
ATOM      3  C   UNL     1     -16.160 -42.766  24.119  1.00  0.00     0.021 C 
BRANCH   3   4
ATOM      4  C   UNL     1     -16.873 -42.975  22.784  1.00  0.00     0.116 C 
BRANCH   4   5
ATOM      5  N   UNL     1     -18.121 -42.239  22.727  1.00  0.00    -0.352 N 
ATOM      6  C   UNL     1     -18.194 -40.983  22.166  1.00  0.00     0.251 C 
ATOM      7  O   UNL     1     -17.223 -40.376  21.730  1.00  0.00    -0.269 OA
ATOM      8  H   UNL     1     -18.932 -42.647  23.173  1.00  0.00     0.163 HD
BRANCH   6   9
ATOM      9  C   UNL     1     -19.540 -40.347  22.134  1.00  0.00     0.047 A 
ATOM     10  C   UNL     1     -21.202 -38.930  21.087  1.00  0.00     0.165 A 
ATOM     11  C   UNL     1     -19.932 -39.512  21.079  1.00  0.00     0.064 A 
ATOM     12  C   UNL     1     -22.076 -39.211  22.153  1.00  0.00     0.203 A 
ATOM     13  C   UNL     1     -21.673 -40.011  23.237  1.00  0.00     0.165 A 
ATOM     14  C   UNL     1     -20.401 -40.581  23.216  1.00  0.00     0.064 A 
BRANCH  10  15
ATOM     15  O   UNL     1     -21.686 -38.113  20.099  1.00  0.00    -0.493 OA
ATOM     16  C   UNL     1     -21.740 -38.657  18.786  1.00  0.00     0.278 C 
ENDBRANCH  10  15
BRANCH  12  17
ATOM     17  O   UNL     1     -23.313 -38.607  22.183  1.00  0.00    -0.490 OA
ATOM     18  C   UNL     1     -24.291 -39.479  21.620  1.00  0.00     0.278 C 
ENDBRANCH  12  17
BRANCH  13  19
ATOM     19  O   UNL     1     -22.591 -40.185  24.240  1.00  0.00    -0.493 OA
ATOM     20  C   UNL     1     -22.092 -40.556  25.519  1.00  0.00     0.278 C 
ENDBRANCH  13  19
ENDBRANCH   6   9
ENDBRANCH   4   5
ENDBRANCH   3   4
ENDBRANCH   2   3
ENDBRANCH   1   2
BRANCH   1  21
ATOM     21  C   UNL     1     -14.922 -42.994  26.695  1.00  0.00     0.000 C 
BRANCH  21  22
ATOM     22  C   UNL     1     -14.507 -44.270  27.431  1.00  0.00     0.001 C 
BRANCH  22  23
ATOM     23  C   UNL     1     -13.002 -44.525  27.285  1.00  0.00     0.010 C 
BRANCH  23  24
ATOM     24  C   UNL     1     -12.648 -46.010  27.369  1.00  0.00     0.102 C 
BRANCH  24  25
ATOM     25  C   UNL     1     -11.716 -46.345  28.518  1.00  0.00     0.238 C 
ATOM     26  O   UNL     1     -10.550 -46.706  28.383  1.00  0.00    -0.273 OA
ATOM     27  N   UNL     1     -12.326 -46.212  29.752  1.00  0.00    -0.270 N 
ATOM     28  H   UNL     1     -13.299 -45.958  29.887  1.00  0.00     0.191 HD
BRANCH  27  29
ATOM     29  N   UNL     1     -11.576 -46.538  30.887  1.00  0.00    -0.298 N 
ATOM     30  H   UNL     1     -11.988 -47.299  31.433  1.00  0.00     0.188 HD
BRANCH  29  31
ATOM     31  C   UNL     1     -11.143 -45.400  31.617  1.00  0.00     0.065 A 
ATOM     32  C   UNL     1     -12.101 -44.482  32.125  1.00  0.00    -0.019 A 
ATOM     33  C   UNL     1      -9.746 -45.127  31.736  1.00  0.00     0.007 A 
ATOM     34  C   UNL     1     -11.661 -43.281  32.718  1.00  0.00    -0.042 A 
ATOM     35  C   UNL     1     -13.585 -44.745  31.961  1.00  0.00     0.038 C 
ATOM     36  C   UNL     1      -8.740 -46.016  31.288  1.00  0.00     0.011 A 
ATOM     37  C   UNL     1      -9.328 -43.925  32.350  1.00  0.00    -0.016 A 
ATOM     38  C   UNL     1     -10.287 -43.026  32.832  1.00  0.00     0.012 A 
ATOM     39  C   UNL     1     -12.626 -42.267  33.286  1.00  0.00     0.036 C 
ATOM     40  C   UNL     1     -14.482 -43.861  32.825  1.00  0.00     0.005 C 
ATOM     41  C   UNL     1      -7.382 -45.721  31.421  1.00  0.00     0.001 A 
ATOM     42  C   UNL     1      -7.958 -43.637  32.474  1.00  0.00     0.009 A 
ATOM     43  C   UNL     1     -14.041 -42.409  32.738  1.00  0.00     0.005 C 
ATOM     44  C   UNL     1      -6.991 -44.526  32.010  1.00  0.00     0.001 A 
ENDBRANCH  29  31
ENDBRANCH  27  29
ENDBRANCH  24  25
ENDBRANCH  23  24
ENDBRANCH  22  23
ENDBRANCH  21  22
ENDBRANCH   1  21
TORSDOF 15
ENDMDL
MODEL 8
REMARK VINA RESULT:   -11.389      2.496     13.204
REMARK INTER + INTRA:         -21.939
REMARK INTER:                 -21.198
REMARK INTRA:                  -0.741
REMARK UNBOUND:                -0.564
REMARK SMILES COc1cc(C(=O)NCCCCCCCCC(=O)NNc2c3c(cc4ccccc24)CCCC3)cc(OC)c1OC
REMARK SMILES IDX 12 1 11 2 10 3 9 4 8 5 6 6 7 7 5 9 3 10 4 11 39 12 36 13
REMARK SMILES IDX 35 14 2 15 1 16 40 17 41 18 37 19 38 20 13 21 14 22 15 23
REMARK SMILES IDX 16 24 17 25 18 26 19 27 20 29 21 31 22 32 30 33 23 34 34 35
REMARK SMILES IDX 29 36 25 37 24 38 31 39 33 40 28 41 26 42 32 43 27 44
REMARK H PARENT 8 8 19 28 20 30
ROOT
ATOM      1  C   UNL     1     -14.420 -43.866  25.490  1.00  0.00     0.000 C 
ENDROOT
BRANCH   1   2
ATOM      2  C   UNL     1     -14.929 -43.053  24.296  1.00  0.00     0.002 C 
BRANCH   2   3
ATOM      3  C   UNL     1     -16.443 -42.833  24.243  1.00  0.00     0.021 C 
BRANCH   3   4
ATOM      4  C   UNL     1     -17.000 -42.821  22.820  1.00  0.00     0.116 C 
BRANCH   4   5
ATOM      5  N   UNL     1     -18.235 -42.065  22.738  1.00  0.00    -0.352 N 
ATOM      6  C   UNL     1     -18.307 -40.869  22.058  1.00  0.00     0.251 C 
ATOM      7  O   UNL     1     -17.344 -40.332  21.525  1.00  0.00    -0.269 OA
ATOM      8  H   UNL     1     -19.034 -42.407  23.255  1.00  0.00     0.163 HD
BRANCH   6   9
ATOM      9  C   UNL     1     -19.641 -40.209  22.015  1.00  0.00     0.047 A 
ATOM     10  C   UNL     1     -21.842 -39.792  22.936  1.00  0.00     0.165 A 
ATOM     11  C   UNL     1     -20.600 -40.427  23.013  1.00  0.00     0.064 A 
ATOM     12  C   UNL     1     -22.101 -38.925  21.859  1.00  0.00     0.203 A 
ATOM     13  C   UNL     1     -21.161 -38.736  20.832  1.00  0.00     0.165 A 
ATOM     14  C   UNL     1     -19.927 -39.380  20.921  1.00  0.00     0.064 A 
BRANCH  10  15
ATOM     15  O   UNL     1     -22.840 -39.928  23.866  1.00  0.00    -0.493 OA
ATOM     16  C   UNL     1     -23.330 -41.243  24.095  1.00  0.00     0.278 C 
ENDBRANCH  10  15
BRANCH  12  17
ATOM     17  O   UNL     1     -23.338 -38.329  21.760  1.00  0.00    -0.490 OA
ATOM     18  C   UNL     1     -24.253 -39.216  21.119  1.00  0.00     0.278 C 
ENDBRANCH  12  17
BRANCH  13  19
ATOM     19  O   UNL     1     -21.534 -37.900  19.810  1.00  0.00    -0.493 OA
ATOM     20  C   UNL     1     -21.951 -38.508  18.594  1.00  0.00     0.278 C 
ENDBRANCH  13  19
ENDBRANCH   6   9
ENDBRANCH   4   5
ENDBRANCH   3   4
ENDBRANCH   2   3
ENDBRANCH   1   2
BRANCH   1  21
ATOM     21  C   UNL     1     -13.642 -43.074  26.545  1.00  0.00     0.000 C 
BRANCH  21  22
ATOM     22  C   UNL     1     -12.766 -43.956  27.438  1.00  0.00     0.001 C 
BRANCH  22  23
ATOM     23  C   UNL     1     -13.366 -45.359  27.585  1.00  0.00     0.010 C 
BRANCH  23  24
ATOM     24  C   UNL     1     -12.315 -46.463  27.468  1.00  0.00     0.102 C 
BRANCH  24  25
ATOM     25  C   UNL     1     -11.362 -46.516  28.648  1.00  0.00     0.238 C 
ATOM     26  O   UNL     1     -10.143 -46.636  28.550  1.00  0.00    -0.273 OA
ATOM     27  N   UNL     1     -12.016 -46.428  29.863  1.00  0.00    -0.270 N 
ATOM     28  H   UNL     1     -13.023 -46.373  29.970  1.00  0.00     0.191 HD
BRANCH  27  29
ATOM     29  N   UNL     1     -11.242 -46.511  31.026  1.00  0.00    -0.298 N 
ATOM     30  H   UNL     1     -11.571 -47.232  31.673  1.00  0.00     0.188 HD
BRANCH  29  31
ATOM     31  C   UNL     1     -10.944 -45.244  31.591  1.00  0.00     0.065 A 
ATOM     32  C   UNL     1      -9.593 -44.886  31.845  1.00  0.00    -0.019 A 
ATOM     33  C   UNL     1     -12.010 -44.386  32.004  1.00  0.00     0.007 A 
ATOM     34  C   UNL     1      -9.314 -43.692  32.540  1.00  0.00    -0.042 A 
ATOM     35  C   UNL     1      -8.461 -45.814  31.450  1.00  0.00     0.038 C 
ATOM     36  C   UNL     1     -13.373 -44.664  31.746  1.00  0.00     0.011 A 
ATOM     37  C   UNL     1     -11.704 -43.186  32.684  1.00  0.00    -0.016 A 
ATOM     38  C   UNL     1     -10.368 -42.856  32.938  1.00  0.00     0.012 A 
ATOM     39  C   UNL     1      -7.900 -43.248  32.836  1.00  0.00     0.036 C 
ATOM     40  C   UNL     1      -7.076 -45.170  31.483  1.00  0.00     0.005 C 
ATOM     41  C   UNL     1     -14.392 -43.803  32.162  1.00  0.00     0.001 A 
ATOM     42  C   UNL     1     -12.739 -42.330  33.101  1.00  0.00     0.009 A 
ATOM     43  C   UNL     1      -6.886 -44.384  32.771  1.00  0.00     0.005 C 
ATOM     44  C   UNL     1     -14.074 -42.638  32.846  1.00  0.00     0.001 A 
ENDBRANCH  29  31
ENDBRANCH  27  29
ENDBRANCH  24  25
ENDBRANCH  23  24
ENDBRANCH  22  23
ENDBRANCH  21  22
ENDBRANCH   1  21
TORSDOF 15
ENDMDL
MODEL 9
REMARK VINA RESULT:   -11.385      2.581     12.872
REMARK INTER + INTRA:         -21.933
REMARK INTER:                 -21.065
REMARK INTRA:                  -0.868
REMARK UNBOUND:                -0.564
REMARK SMILES COc1cc(C(=O)NCCCCCCCCC(=O)NNc2c3c(cc4ccccc24)CCCC3)cc(OC)c1OC
REMARK SMILES IDX 12 1 11 2 10 3 9 4 8 5 6 6 7 7 5 9 3 10 4 11 39 12 36 13
REMARK SMILES IDX 35 14 2 15 1 16 40 17 41 18 37 19 38 20 13 21 14 22 15 23
REMARK SMILES IDX 16 24 17 25 18 26 19 27 20 29 21 31 22 32 30 33 23 34 34 35
REMARK SMILES IDX 29 36 25 37 24 38 31 39 33 40 28 41 26 42 32 43 27 44
REMARK H PARENT 8 8 19 28 20 30
ROOT
ATOM      1  C   UNL     1     -15.101 -42.416  25.107  1.00  0.00     0.000 C 
ENDROOT
BRANCH   1   2
ATOM      2  C   UNL     1     -16.510 -42.801  25.568  1.00  0.00     0.002 C 
BRANCH   2   3
ATOM      3  C   UNL     1     -16.785 -42.633  27.065  1.00  0.00     0.021 C 
BRANCH   3   4
ATOM      4  C   UNL     1     -18.261 -42.402  27.383  1.00  0.00     0.116 C 
BRANCH   4   5
ATOM      5  N   UNL     1     -19.019 -42.077  26.191  1.00  0.00    -0.352 N 
ATOM      6  C   UNL     1     -20.165 -41.314  26.248  1.00  0.00     0.251 C 
ATOM      7  O   UNL     1     -20.656 -40.904  27.293  1.00  0.00    -0.269 OA
ATOM      8  H   UNL     1     -18.720 -42.485  25.315  1.00  0.00     0.163 HD
BRANCH   6   9
ATOM      9  C   UNL     1     -20.832 -41.020  24.950  1.00  0.00     0.047 A 
ATOM     10  C   UNL     1     -20.840 -40.938  22.529  1.00  0.00     0.165 A 
ATOM     11  C   UNL     1     -20.182 -41.231  23.726  1.00  0.00     0.064 A 
ATOM     12  C   UNL     1     -22.159 -40.451  22.575  1.00  0.00     0.203 A 
ATOM     13  C   UNL     1     -22.801 -40.194  23.799  1.00  0.00     0.165 A 
ATOM     14  C   UNL     1     -22.129 -40.488  24.986  1.00  0.00     0.064 A 
BRANCH  10  15
ATOM     15  O   UNL     1     -20.299 -41.123  21.284  1.00  0.00    -0.493 OA
ATOM     16  C   UNL     1     -19.414 -40.115  20.812  1.00  0.00     0.278 C 
ENDBRANCH  10  15
BRANCH  12  17
ATOM     17  O   UNL     1     -22.795 -40.124  21.398  1.00  0.00    -0.490 OA
ATOM     18  C   UNL     1     -23.574 -41.230  20.946  1.00  0.00     0.278 C 
ENDBRANCH  12  17
BRANCH  13  19
ATOM     19  O   UNL     1     -24.071 -39.682  23.726  1.00  0.00    -0.493 OA
ATOM     20  C   UNL     1     -24.718 -39.375  24.955  1.00  0.00     0.278 C 
ENDBRANCH  13  19
ENDBRANCH   6   9
ENDBRANCH   4   5
ENDBRANCH   3   4
ENDBRANCH   2   3
ENDBRANCH   1   2
BRANCH   1  21
ATOM     21  C   UNL     1     -13.954 -42.946  25.973  1.00  0.00     0.000 C 
BRANCH  21  22
ATOM     22  C   UNL     1     -13.964 -44.469  26.120  1.00  0.00     0.001 C 
BRANCH  22  23
ATOM     23  C   UNL     1     -13.432 -44.893  27.494  1.00  0.00     0.010 C 
BRANCH  23  24
ATOM     24  C   UNL     1     -12.710 -46.240  27.454  1.00  0.00     0.102 C 
BRANCH  24  25
ATOM     25  C   UNL     1     -11.706 -46.421  28.576  1.00  0.00     0.238 C 
ATOM     26  O   UNL     1     -10.515 -46.674  28.407  1.00  0.00    -0.273 OA
ATOM     27  N   UNL     1     -12.277 -46.284  29.828  1.00  0.00    -0.270 N 
ATOM     28  H   UNL     1     -13.265 -46.118  29.992  1.00  0.00     0.191 HD
BRANCH  27  29
ATOM     29  N   UNL     1     -11.455 -46.474  30.943  1.00  0.00    -0.298 N 
ATOM     30  H   UNL     1     -11.803 -47.198  31.577  1.00  0.00     0.188 HD
BRANCH  29  31
ATOM     31  C   UNL     1     -11.037 -45.257  31.544  1.00  0.00     0.065 A 
ATOM     32  C   UNL     1      -9.651 -44.993  31.708  1.00  0.00    -0.019 A 
ATOM     33  C   UNL     1     -12.013 -44.362  32.080  1.00  0.00     0.007 A 
ATOM     34  C   UNL     1      -9.246 -43.856  32.436  1.00  0.00    -0.042 A 
ATOM     35  C   UNL     1      -8.612 -45.964  31.181  1.00  0.00     0.038 C 
ATOM     36  C   UNL     1     -13.407 -44.546  31.917  1.00  0.00     0.011 A 
ATOM     37  C   UNL     1     -11.583 -43.220  32.791  1.00  0.00    -0.016 A 
ATOM     38  C   UNL     1     -10.213 -42.983  32.955  1.00  0.00     0.012 A 
ATOM     39  C   UNL     1      -7.789 -43.512  32.641  1.00  0.00     0.036 C 
ATOM     40  C   UNL     1      -7.191 -45.404  31.137  1.00  0.00     0.005 C 
ATOM     41  C   UNL     1     -14.335 -43.650  32.452  1.00  0.00     0.001 A 
ATOM     42  C   UNL     1     -12.527 -42.328  33.328  1.00  0.00     0.009 A 
ATOM     43  C   UNL     1      -6.856 -44.700  32.441  1.00  0.00     0.005 C 
ATOM     44  C   UNL     1     -13.895 -42.543  33.164  1.00  0.00     0.001 A 
ENDBRANCH  29  31
ENDBRANCH  27  29
ENDBRANCH  24  25
ENDBRANCH  23  24
ENDBRANCH  22  23
ENDBRANCH  21  22
ENDBRANCH   1  21
TORSDOF 15
ENDMDL
