REMARK SMILES CCCc1oc(-c2ccccc2)nc1CCOc1ccc2c(c1)CC[C@H]2CC(=O)O
REMARK SMILES IDX 16 1 15 2 14 3 4 4 5 5 6 6 13 7 3 8 2 9 1 10 7 11 8 12 12 13
REMARK SMILES IDX 9 14 11 15 10 16 17 17 18 18 19 19 23 20 20 21 22 22 21 23
REMARK SMILES IDX 24 24 26 25 25 26 27 27 28 28 29 29 30 30
REMARK H PARENT 30 31
REMARK INDEX MAP 16 1 15 2 14 3 4 4 5 5 6 6 13 7 3 8 2 9 1 10 7 11 8 12 12 13
REMARK INDEX MAP 9 14 11 15 10 16 17 17 18 18 19 19 23 20 20 21 22 22 21 23
REMARK INDEX MAP 24 24 26 25 25 26 27 27 28 28 29 29 30 30 57 31
ROOT
ATOM      1  C   UNL     1       9.606   4.192  -8.929  1.00  0.00     0.236 C 
ENDROOT
BRANCH   1   2
ATOM      2  C   UNL     1       9.838   4.868  -7.579  1.00  0.00     0.101 C 
BRANCH   2   3
ATOM      3  C   UNL     1       8.600   4.931  -6.758  1.00  0.00     0.086 A 
ATOM      4  C   UNL     1       8.123   4.053  -5.806  1.00  0.00     0.128 A 
ATOM      5  O   UNL     1       6.943   4.553  -5.332  1.00  0.00    -0.441 OA
ATOM      6  C   UNL     1       6.758   5.719  -6.028  1.00  0.00     0.226 A 
ATOM      7  N   UNL     1       7.722   5.984  -6.891  1.00  0.00    -0.214 NA
BRANCH   4   8
ATOM      8  C   UNL     1       8.592   2.772  -5.229  1.00  0.00     0.077 C 
BRANCH   8   9
ATOM      9  C   UNL     1       8.956   2.890  -3.748  1.00  0.00     0.005 C 
ATOM     10  C   UNL     1       9.557   1.613  -3.175  1.00  0.00     0.004 C 
ENDBRANCH   8   9
ENDBRANCH   4   8
BRANCH   6  11
ATOM     11  C   UNL     1       5.552   6.484  -5.726  1.00  0.00     0.037 A 
ATOM     12  C   UNL     1       4.526   5.893  -4.973  1.00  0.00     0.014 A 
ATOM     13  C   UNL     1       5.381   7.806  -6.165  1.00  0.00     0.014 A 
ATOM     14  C   UNL     1       3.360   6.600  -4.669  1.00  0.00     0.001 A 
ATOM     15  C   UNL     1       4.215   8.515  -5.861  1.00  0.00     0.001 A 
ATOM     16  C   UNL     1       3.207   7.912  -5.113  1.00  0.00     0.000 A 
ENDBRANCH   6  11
ENDBRANCH   2   3
ENDBRANCH   1   2
BRANCH   1  17
ATOM     17  O   UNL     1      10.681   4.537  -9.808  1.00  0.00    -0.493 OA
BRANCH  17  18
ATOM     18  C   UNL     1      10.531   5.664 -10.570  1.00  0.00     0.119 A 
ATOM     19  C   UNL     1      10.407   5.698 -11.968  1.00  0.00     0.047 A 
ATOM     20  C   UNL     1      10.511   6.857  -9.839  1.00  0.00     0.050 A 
ATOM     21  C   UNL     1      10.266   6.916 -12.646  1.00  0.00     0.008 A 
ATOM     22  C   UNL     1      10.358   8.057 -10.515  1.00  0.00    -0.041 A 
ATOM     23  C   UNL     1      10.244   8.087 -11.907  1.00  0.00    -0.041 A 
ATOM     24  C   UNL     1      10.337   9.437  -9.943  1.00  0.00     0.036 C 
ATOM     25  C   UNL     1      10.126   9.499 -12.413  1.00  0.00     0.031 C 
ATOM     26  C   UNL     1       9.724  10.229 -11.108  1.00  0.00     0.014 C 
BRANCH  25  27
ATOM     27  C   UNL     1      11.447   9.991 -12.998  1.00  0.00     0.131 C 
BRANCH  27  28
ATOM     28  C   UNL     1      11.244  10.559 -14.370  1.00  0.00     0.303 C 
ATOM     29  O   UNL     1      11.417   9.975 -15.426  1.00  0.00    -0.252 OA
BRANCH  28  30
ATOM     30  O   UNL     1      10.846  11.845 -14.352  1.00  0.00    -0.481 OA
ATOM     31  H   UNL     1      10.681  12.324 -15.203  1.00  0.00     0.296 HD
ENDBRANCH  28  30
ENDBRANCH  27  28
ENDBRANCH  25  27
ENDBRANCH  17  18
ENDBRANCH   1  17
TORSDOF 10
