MODEL 5
REMARK VINA RESULT:    -9.080      1.553      2.500
REMARK INTER + INTRA:         -15.370
REMARK INTER:                 -14.132
REMARK INTRA:                  -1.238
REMARK UNBOUND:                -1.248
REMARK SMILES CNC(=O)c1n[nH]c2cc(-c3cc(F)c(O)cc3CC(F)(F)F)nc(NCc3cnccc3N(C)S(C)(=O)=O)c12
REMARK SMILES IDX 26 1 25 3 5 4 6 5 40 6 7 7 8 8 24 9 9 10 10 11 3 13 2 14
REMARK SMILES IDX 4 15 1 16 11 18 12 19 18 20 13 21 17 22 15 23 14 24 19 25
REMARK SMILES IDX 20 26 21 27 22 28 23 29 16 30 27 32 28 33 29 34 33 35 30 36
REMARK SMILES IDX 32 37 31 38 34 39 35 40 36 41 38 42 39 43 37 44
REMARK H PARENT 26 2 7 12 2 17 16 31
ROOT
ATOM      1  N   UNL     1      -2.771  27.066 -27.776  1.00  0.00    -0.365 N 
ATOM      2  H   UNL     1      -2.564  28.041 -27.586  1.00  0.00     0.162 HD
ENDROOT
BRANCH   1   3
ATOM      3  C   UNL     1      -3.435  26.816 -28.962  1.00  0.00     0.138 A 
ATOM      4  C   UNL     1      -4.174  29.262 -29.648  1.00  0.00     0.161 A 
ATOM      5  N   UNL     1      -4.759  29.752 -30.752  1.00  0.00    -0.169 NA
ATOM      6  C   UNL     1      -4.033  27.837 -29.735  1.00  0.00     0.075 A 
ATOM      7  N   UNL     1      -5.048  28.675 -31.487  1.00  0.00    -0.277 N 
ATOM      8  C   UNL     1      -4.655  27.495 -30.930  1.00  0.00     0.072 A 
ATOM      9  N   UNL     1      -3.564  25.530 -29.386  1.00  0.00    -0.230 NA
ATOM     10  C   UNL     1      -4.782  26.182 -31.369  1.00  0.00     0.057 A 
ATOM     11  C   UNL     1      -4.228  25.231 -30.525  1.00  0.00     0.075 A 
ATOM     12  H   UNL     1      -5.515  28.818 -32.374  1.00  0.00     0.190 HD
BRANCH   4  13
ATOM     13  C   UNL     1      -3.732  30.171 -28.573  1.00  0.00     0.272 C 
ATOM     14  N   UNL     1      -3.281  31.414 -28.994  1.00  0.00    -0.354 N 
ATOM     15  O   UNL     1      -3.747  29.855 -27.385  1.00  0.00    -0.267 OA
ATOM     16  C   UNL     1      -2.655  32.311 -28.053  1.00  0.00     0.143 C 
ATOM     17  H   UNL     1      -3.016  31.533 -29.969  1.00  0.00     0.163 HD
ENDBRANCH   4  13
BRANCH  11  18
ATOM     18  C   UNL     1      -4.380  23.795 -30.791  1.00  0.00     0.007 A 
ATOM     19  C   UNL     1      -4.046  22.886 -29.771  1.00  0.00     0.054 A 
ATOM     20  C   UNL     1      -4.862  23.303 -32.037  1.00  0.00    -0.026 A 
ATOM     21  C   UNL     1      -4.149  21.521 -29.990  1.00  0.00     0.165 A 
ATOM     22  C   UNL     1      -4.932  21.910 -32.238  1.00  0.00     0.054 A 
ATOM     23  C   UNL     1      -4.577  21.036 -31.219  1.00  0.00     0.151 A 
ATOM     24  F   UNL     1      -3.816  20.661 -29.016  1.00  0.00    -0.203 F 
BRANCH  20  25
ATOM     25  C   UNL     1      -5.248  24.265 -33.153  1.00  0.00     0.151 C 
BRANCH  25  26
ATOM     26  C   UNL     1      -6.658  24.163 -33.713  1.00  0.00     0.393 C 
ATOM     27  F   UNL     1      -6.760  23.208 -34.661  1.00  0.00    -0.171 F 
ATOM     28  F   UNL     1      -7.081  25.331 -34.237  1.00  0.00    -0.171 F 
ATOM     29  F   UNL     1      -7.525  23.833 -32.725  1.00  0.00    -0.171 F 
ENDBRANCH  25  26
ENDBRANCH  20  25
BRANCH  23  30
ATOM     30  O   UNL     1      -4.660  19.694 -31.457  1.00  0.00    -0.505 OA
ATOM     31  H   UNL     1      -4.556  19.562 -32.420  1.00  0.00     0.293 HD
ENDBRANCH  23  30
ENDBRANCH  11  18
ENDBRANCH   1   3
BRANCH   1  32
ATOM     32  C   UNL     1      -1.734  26.149 -27.358  1.00  0.00     0.154 C 
BRANCH  32  33
ATOM     33  C   UNL     1      -0.700  26.925 -26.589  1.00  0.00     0.014 A 
ATOM     34  C   UNL     1      -0.588  28.300 -26.749  1.00  0.00     0.118 A 
ATOM     35  C   UNL     1       0.139  26.331 -25.641  1.00  0.00     0.059 A 
ATOM     36  N   UNL     1       0.276  29.077 -26.063  1.00  0.00    -0.264 NA
ATOM     37  C   UNL     1       1.029  27.110 -24.906  1.00  0.00     0.047 A 
ATOM     38  C   UNL     1       1.059  28.466 -25.152  1.00  0.00     0.113 A 
BRANCH  35  39
ATOM     39  N   UNL     1       0.063  24.915 -25.417  1.00  0.00    -0.273 N 
ATOM     40  C   UNL     1       1.346  24.188 -25.500  1.00  0.00     0.163 C 
BRANCH  39  41
ATOM     41  S   UNL     1      -0.982  24.444 -24.148  1.00  0.00     0.232 S 
ATOM     42  O   UNL     1      -0.199  24.378 -22.933  1.00  0.00    -0.207 OA
ATOM     43  O   UNL     1      -2.209  25.215 -24.196  1.00  0.00    -0.207 OA
ATOM     44  C   UNL     1      -1.399  22.783 -24.647  1.00  0.00     0.183 C 
ENDBRANCH  39  41
ENDBRANCH  35  39
ENDBRANCH  32  33
ENDBRANCH   1  32
TORSDOF 10
ENDMDL
