MODEL 9
REMARK VINA RESULT:    -7.785      4.528     10.692
REMARK INTER + INTRA:         -12.883
REMARK INTER:                 -11.619
REMARK INTRA:                  -1.264
REMARK UNBOUND:                -0.775
REMARK SMILES CCC(CC)n1cc(-c2nc(-c3cnn(C[C@@H](O)CN(C)C)c3)cn3nccc23)cn1
REMARK SMILES IDX 12 1 13 2 14 3 15 4 23 5 11 6 9 7 10 8 29 9 28 10 25 11
REMARK SMILES IDX 24 12 27 13 26 14 8 15 6 16 7 17 31 18 30 19 3 20 2 21 1 22
REMARK SMILES IDX 4 23 5 24 16 25 17 26 18 27 19 29 20 30 21 31 22 32
REMARK H PARENT 18 28
ROOT
ATOM      1  C   UNL     1     -10.525  15.942  19.780  1.00  0.00     0.040 A 
ATOM      2  C   UNL     1     -10.393  17.312  19.457  1.00  0.00     0.145 A 
ATOM      3  N   UNL     1      -9.141  17.758  19.602  1.00  0.00    -0.181 NA
ATOM      4  N   UNL     1      -8.466  16.673  20.024  1.00  0.00    -0.269 N 
ATOM      5  C   UNL     1      -9.250  15.559  20.144  1.00  0.00     0.119 A 
ENDROOT
BRANCH   1   6
ATOM      6  C   UNL     1     -11.710  15.139  19.747  1.00  0.00     0.092 A 
ATOM      7  C   UNL     1     -14.020  15.235  19.598  1.00  0.00     0.100 A 
ATOM      8  N   UNL     1     -12.882  15.869  19.638  1.00  0.00    -0.244 NA
ATOM      9  C   UNL     1     -14.101  13.801  19.695  1.00  0.00     0.093 A 
ATOM     10  C   UNL     1     -15.107  12.863  19.777  1.00  0.00     0.052 A 
ATOM     11  N   UNL     1     -12.909  13.110  19.787  1.00  0.00    -0.237 N 
ATOM     12  C   UNL     1     -11.708  13.794  19.812  1.00  0.00     0.142 A 
ATOM     13  C   UNL     1     -14.435  11.633  19.867  1.00  0.00     0.136 A 
ATOM     14  N   UNL     1     -13.109  11.773  19.860  1.00  0.00    -0.176 NA
BRANCH   7  15
ATOM     15  C   UNL     1     -15.223  16.031  19.460  1.00  0.00     0.040 A 
ATOM     16  N   UNL     1     -17.028  17.212  19.949  1.00  0.00    -0.269 N 
ATOM     17  C   UNL     1     -16.003  16.499  20.504  1.00  0.00     0.119 A 
ATOM     18  N   UNL     1     -16.973  17.244  18.604  1.00  0.00    -0.181 NA
ATOM     19  C   UNL     1     -15.864  16.559  18.316  1.00  0.00     0.145 A 
BRANCH  16  20
ATOM     20  C   UNL     1     -18.113  17.876  20.677  1.00  0.00     0.107 C 
BRANCH  20  21
ATOM     21  C   UNL     1     -17.792  18.009  22.181  1.00  0.00     0.024 C 
ATOM     22  C   UNL     1     -18.772  17.332  23.133  1.00  0.00     0.006 C 
ENDBRANCH  20  21
BRANCH  20  23
ATOM     23  C   UNL     1     -18.547  19.175  19.965  1.00  0.00     0.024 C 
ATOM     24  C   UNL     1     -20.035  19.469  20.109  1.00  0.00     0.006 C 
ENDBRANCH  20  23
ENDBRANCH  16  20
ENDBRANCH   7  15
ENDBRANCH   1   6
BRANCH   4  25
ATOM     25  C   UNL     1      -7.051  16.777  20.320  1.00  0.00     0.177 C 
BRANCH  25  26
ATOM     26  C   UNL     1      -6.305  17.793  19.444  1.00  0.00     0.150 C 
BRANCH  26  27
ATOM     27  O   UNL     1      -6.343  19.084  20.075  1.00  0.00    -0.390 OA
ATOM     28  H   UNL     1      -6.276  19.755  19.372  1.00  0.00     0.211 HD
ENDBRANCH  26  27
BRANCH  26  29
ATOM     29  C   UNL     1      -4.853  17.357  19.109  1.00  0.00     0.117 C 
BRANCH  29  30
ATOM     30  N   UNL     1      -4.398  17.503  17.710  1.00  0.00    -0.307 NA
ATOM     31  C   UNL     1      -5.401  18.084  16.822  1.00  0.00     0.105 C 
ATOM     32  C   UNL     1      -3.869  16.259  17.155  1.00  0.00     0.105 C 
ENDBRANCH  29  30
ENDBRANCH  26  29
ENDBRANCH  25  26
ENDBRANCH   4  25
TORSDOF 10
ENDMDL
