MODEL 7
REMARK VINA RESULT:    -7.916      2.132      2.705
REMARK INTER + INTRA:         -12.890
REMARK INTER:                 -11.736
REMARK INTRA:                  -1.154
REMARK UNBOUND:                -1.040
REMARK SMILES N=C(N)c1cccc(C2=NO[C@@](Cn3cnnn3)(C(=O)Nc3ncc(-c4ccccc4S(N)(=O)=O)cn3)C2)c1
REMARK SMILES IDX 22 1 23 2 24 3 25 4 36 5 37 6 21 7 19 8 20 9 12 11 9 12
REMARK SMILES IDX 10 13 38 14 11 15 8 16 4 17 5 18 39 19 6 20 7 21 2 22 1 23
REMARK SMILES IDX 3 24 13 28 14 29 15 30 18 31 16 32 17 33 26 34 27 35 31 36
REMARK SMILES IDX 28 37 30 38 29 39 32 40 34 41 35 42 33 43
REMARK H PARENT 21 10 1 25 3 26 3 27 33 44 33 45
ROOT
ATOM      1  C   UNL     1      -6.446  11.785  20.033  1.00  0.00     0.229 A 
ATOM      2  N   UNL     1      -7.012  10.575  20.153  1.00  0.00    -0.221 NA
ATOM      3  C   UNL     1      -7.990  10.278  19.271  1.00  0.00     0.125 A 
ATOM      4  C   UNL     1      -8.466  11.147  18.308  1.00  0.00     0.020 A 
ATOM      5  C   UNL     1      -7.812  12.363  18.287  1.00  0.00     0.125 A 
ATOM      6  N   UNL     1      -6.806  12.692  19.124  1.00  0.00    -0.221 NA
ENDROOT
BRANCH   1   7
ATOM      7  N   UNL     1      -5.432  12.022  20.945  1.00  0.00    -0.291 N 
ATOM      8  C   UNL     1      -5.588  12.444  22.245  1.00  0.00     0.276 C 
ATOM      9  O   UNL     1      -6.650  12.702  22.807  1.00  0.00    -0.270 OA
ATOM     10  H   UNL     1      -4.520  11.777  20.591  1.00  0.00     0.173 HD
BRANCH   8  11
ATOM     11  C   UNL     1      -4.256  12.641  22.984  1.00  0.00     0.240 C 
ATOM     12  C   UNL     1      -2.635  11.293  23.885  1.00  0.00     0.092 C 
ATOM     13  N   UNL     1      -2.147  11.712  22.763  1.00  0.00    -0.089 NA
ATOM     14  C   UNL     1      -4.073  11.620  24.097  1.00  0.00     0.124 C 
ATOM     15  O   UNL     1      -3.198  12.332  22.051  1.00  0.00    -0.376 OA
BRANCH  12  16
ATOM     16  C   UNL     1      -1.842  10.544  24.887  1.00  0.00     0.000 A 
ATOM     17  C   UNL     1      -1.781   9.215  26.916  1.00  0.00     0.017 A 
ATOM     18  C   UNL     1      -0.390   9.121  26.815  1.00  0.00     0.012 A 
ATOM     19  C   UNL     1      -2.508   9.926  25.954  1.00  0.00     0.022 A 
ATOM     20  C   UNL     1       0.275   9.741  25.756  1.00  0.00     0.001 A 
ATOM     21  C   UNL     1      -0.448  10.454  24.794  1.00  0.00     0.010 A 
BRANCH  17  22
ATOM     22  C   UNL     1      -2.496   8.562  28.043  1.00  0.00     0.122 C 
ATOM     23  N   UNL     1      -2.297   7.321  28.359  1.00  0.00    -0.284 NA
ATOM     24  N   UNL     1      -3.394   9.253  28.795  1.00  0.00    -0.384 N 
ATOM     25  H   UNL     1      -1.594   6.887  27.753  1.00  0.00     0.189 HD
ATOM     26  H   UNL     1      -3.327  10.259  28.870  1.00  0.00     0.158 HD
ATOM     27  H   UNL     1      -3.638   8.774  29.656  1.00  0.00     0.158 HD
ENDBRANCH  17  22
ENDBRANCH  12  16
BRANCH  11  28
ATOM     28  C   UNL     1      -4.046  14.098  23.409  1.00  0.00     0.210 C 
BRANCH  28  29
ATOM     29  N   UNL     1      -4.450  14.408  24.754  1.00  0.00    -0.228 N 
ATOM     30  C   UNL     1      -3.688  14.830  25.795  1.00  0.00     0.246 A 
ATOM     31  N   UNL     1      -5.744  14.428  25.097  1.00  0.00    -0.045 NA
ATOM     32  N   UNL     1      -4.479  15.071  26.815  1.00  0.00    -0.117 NA
ATOM     33  N   UNL     1      -5.754  14.812  26.368  1.00  0.00    -0.024 NA
ENDBRANCH  28  29
ENDBRANCH  11  28
ENDBRANCH   8  11
ENDBRANCH   1   7
BRANCH   4  34
ATOM     34  C   UNL     1      -9.515  10.778  17.359  1.00  0.00     0.005 A 
ATOM     35  C   UNL     1     -10.823  11.234  17.621  1.00  0.00     0.010 A 
ATOM     36  C   UNL     1      -9.311  10.018  16.187  1.00  0.00     0.090 A 
ATOM     37  C   UNL     1     -11.884  10.949  16.758  1.00  0.00     0.001 A 
ATOM     38  C   UNL     1     -10.381   9.734  15.322  1.00  0.00     0.022 A 
ATOM     39  C   UNL     1     -11.662  10.201  15.607  1.00  0.00     0.001 A 
BRANCH  36  40
ATOM     40  S   UNL     1      -7.714   9.351  15.755  1.00  0.00     0.238 S 
ATOM     41  O   UNL     1      -7.385   8.308  16.700  1.00  0.00    -0.207 OA
ATOM     42  O   UNL     1      -6.817  10.449  15.484  1.00  0.00    -0.207 OA
BRANCH  40  43
ATOM     43  N   UNL     1      -8.014   8.586  14.288  1.00  0.00    -0.225 NA
ATOM     44  H   UNL     1      -7.651   7.631  14.311  1.00  0.00     0.137 HD
ATOM     45  H   UNL     1      -7.733   9.120  13.468  1.00  0.00     0.137 HD
ENDBRANCH  40  43
ENDBRANCH  36  40
ENDBRANCH   4  34
TORSDOF 9
ENDMDL
