REMARK SMILES Cc1c(N2CCC[C@@H]2CO)cccc1S(=O)(=O)N[C@@H](CNC(=O)c1ccc(Cl)s1)C(=O)OCC[S@+](C)[O-]
REMARK SMILES IDX 18 1 15 3 16 4 17 5 14 6 2 7 3 8 11 9 13 10 12 11 1 12 4 13
REMARK SMILES IDX 5 14 8 15 6 16 7 17 9 18 10 19 19 21 20 22 21 23 22 24 23 25
REMARK SMILES IDX 24 27 25 28 29 29 26 30 27 31 28 32 30 33 31 34 32 35 33 36
REMARK SMILES IDX 34 37 35 38 36 39 37 40
REMARK H PARENT 18 2 10 20 21 26
REMARK INDEX MAP 18 1 54 2 15 3 16 4 17 5 14 6 2 7 3 8 11 9 13 10 12 11 1 12
REMARK INDEX MAP 4 13 5 14 8 15 6 16 7 17 9 18 10 19 50 20 19 21 20 22 21 23
REMARK INDEX MAP 22 24 23 25 58 26 24 27 25 28 29 29 26 30 27 31 28 32 30 33
REMARK INDEX MAP 31 34 32 35 33 36 34 37 35 38 36 39 37 40
ROOT
ATOM      1  N   UNL     1     128.171 -18.164 164.452  1.00  0.00    -0.195 NA
ATOM      2  H   UNL     1     127.340 -18.410 165.008  1.00  0.00     0.142 HD
ENDROOT
BRANCH   1   3
ATOM      3  S   UNL     1     129.090 -19.567 164.234  1.00  0.00     0.241 S 
ATOM      4  O   UNL     1     128.216 -20.699 164.454  1.00  0.00    -0.207 OA
ATOM      5  O   UNL     1     129.790 -19.403 162.983  1.00  0.00    -0.207 OA
BRANCH   3   6
ATOM      6  C   UNL     1     130.247 -19.437 165.592  1.00  0.00     0.087 A 
ATOM      7  C   UNL     1     131.236 -18.422 165.670  1.00  0.00    -0.008 A 
ATOM      8  C   UNL     1     132.036 -18.331 166.839  1.00  0.00     0.041 A 
ATOM      9  C   UNL     1     131.869 -19.304 167.841  1.00  0.00     0.026 A 
ATOM     10  C   UNL     1     130.107 -20.385 166.617  1.00  0.00     0.022 A 
ATOM     11  C   UNL     1     130.927 -20.323 167.733  1.00  0.00     0.004 A 
ATOM     12  C   UNL     1     131.450 -17.451 164.535  1.00  0.00     0.048 C 
BRANCH   8  13
ATOM     13  N   UNL     1     132.942 -17.296 167.021  1.00  0.00    -0.366 N 
ATOM     14  C   UNL     1     132.407 -15.995 167.438  1.00  0.00     0.117 C 
ATOM     15  C   UNL     1     134.336 -17.468 167.489  1.00  0.00     0.108 C 
ATOM     16  C   UNL     1     133.454 -15.454 168.408  1.00  0.00     0.024 C 
ATOM     17  C   UNL     1     134.747 -16.037 167.866  1.00  0.00     0.029 C 
BRANCH  15  18
ATOM     18  C   UNL     1     135.258 -18.035 166.404  1.00  0.00     0.181 C 
BRANCH  18  19
ATOM     19  O   UNL     1     136.553 -18.334 166.921  1.00  0.00    -0.394 OA
ATOM     20  H   UNL     1     136.523 -18.327 167.911  1.00  0.00     0.210 HD
ENDBRANCH  18  19
ENDBRANCH  15  18
ENDBRANCH   8  13
ENDBRANCH   3   6
ENDBRANCH   1   3
BRANCH   1  21
ATOM     21  C   UNL     1     127.706 -17.508 163.186  1.00  0.00     0.198 C 
BRANCH  21  22
ATOM     22  C   UNL     1     126.191 -17.271 163.260  1.00  0.00     0.148 C 
BRANCH  22  23
ATOM     23  N   UNL     1     125.818 -16.180 164.147  1.00  0.00    -0.349 N 
ATOM     24  C   UNL     1     125.354 -14.977 163.648  1.00  0.00     0.261 C 
ATOM     25  O   UNL     1     125.204 -14.821 162.437  1.00  0.00    -0.268 OA
ATOM     26  H   UNL     1     125.901 -16.306 165.166  1.00  0.00     0.163 HD
BRANCH  24  27
ATOM     27  C   UNL     1     125.068 -13.962 164.649  1.00  0.00     0.093 A 
ATOM     28  C   UNL     1     124.217 -14.003 165.742  1.00  0.00     0.027 A 
ATOM     29  S   UNL     1     125.883 -12.452 164.560  1.00  0.00    -0.118 S 
ATOM     30  C   UNL     1     124.221 -12.781 166.483  1.00  0.00     0.033 A 
ATOM     31  C   UNL     1     125.071 -11.867 165.918  1.00  0.00     0.094 A 
ATOM     32  Cl  UNL     1     125.361 -10.265 166.466  1.00  0.00    -0.072 Cl
ENDBRANCH  24  27
ENDBRANCH  22  23
ENDBRANCH  21  22
BRANCH  21  33
ATOM     33  C   UNL     1     128.400 -16.161 163.055  1.00  0.00     0.326 C 
ATOM     34  O   UNL     1     128.646 -15.426 164.006  1.00  0.00    -0.250 OA
BRANCH  33  35
ATOM     35  O   UNL     1     128.648 -15.858 161.752  1.00  0.00    -0.459 OA
BRANCH  35  36
ATOM     36  C   UNL     1     128.600 -14.457 161.418  1.00  0.00     0.287 C 
BRANCH  36  37
ATOM     37  C   UNL     1     129.559 -14.125 160.280  1.00  0.00     0.316 C 
BRANCH  37  38
ATOM     38  S   UNL     1     128.677 -14.117 158.693  1.00  0.00    -0.053 S 
ATOM     39  C   UNL     1     129.932 -13.176 157.789  1.00  0.00     0.339 C 
ATOM     40  O   UNL     1     127.351 -13.137 158.869  1.00  0.00    -0.616 OA
ENDBRANCH  37  38
ENDBRANCH  36  37
ENDBRANCH  35  36
ENDBRANCH  33  35
ENDBRANCH  21  33
ENDBRANCH   1  21
TORSDOF 14
