REMARK SMILES CC(=N)N1CCC(Oc2ccc3c(c2)nc(C)n3Cc2ccc3ccc(C(=N)N)cc3c2)CC1
REMARK SMILES IDX 9 1 10 2 11 3 12 4 13 5 14 6 15 7 16 8 17 9 18 10 8 11 7 12
REMARK SMILES IDX 2 13 3 14 4 15 5 16 34 17 6 18 33 19 1 20 19 22 20 23 21 24
REMARK SMILES IDX 32 25 22 26 31 27 23 28 30 29 24 30 26 31 25 32 27 33 28 34
REMARK SMILES IDX 29 35
REMARK H PARENT 3 21 28 36 29 37 29 38
REMARK INDEX MAP 9 1 10 2 11 3 12 4 13 5 14 6 15 7 16 8 17 9 18 10 8 11 7 12
REMARK INDEX MAP 2 13 3 14 4 15 5 16 34 17 6 18 33 19 1 20 38 21 19 22 20 23
REMARK INDEX MAP 21 24 32 25 22 26 31 27 23 28 30 29 24 30 26 31 25 32 27 33
REMARK INDEX MAP 28 34 29 35 56 36 57 37 58 38
ROOT
ATOM      1  C   UNL     1      -5.532  11.365  19.520  1.00  0.00     0.122 A 
ATOM      2  C   UNL     1      -4.173  11.613  19.731  1.00  0.00     0.049 A 
ATOM      3  C   UNL     1      -3.700  12.213  20.906  1.00  0.00     0.032 A 
ATOM      4  C   UNL     1      -4.655  12.546  21.871  1.00  0.00     0.069 A 
ATOM      5  C   UNL     1      -6.009  12.290  21.696  1.00  0.00     0.092 A 
ATOM      6  C   UNL     1      -6.462  11.690  20.508  1.00  0.00     0.077 A 
ATOM      7  N   UNL     1      -6.732  12.689  22.789  1.00  0.00    -0.233 NA
ATOM      8  C   UNL     1      -5.860  13.198  23.635  1.00  0.00     0.107 A 
ATOM      9  C   UNL     1      -6.202  13.768  24.963  1.00  0.00     0.088 C 
ATOM     10  N   UNL     1      -4.584  13.146  23.112  1.00  0.00    -0.324 N 
ENDROOT
BRANCH   1  11
ATOM     11  O   UNL     1      -5.818  10.778  18.316  1.00  0.00    -0.490 OA
BRANCH  11  12
ATOM     12  C   UNL     1      -6.157  11.618  17.202  1.00  0.00     0.176 C 
ATOM     13  C   UNL     1      -6.321   9.807  13.565  1.00  0.00     0.093 C 
ATOM     14  N   UNL     1      -5.323  10.058  12.774  1.00  0.00    -0.289 NA
ATOM     15  N   UNL     1      -6.177   9.842  14.938  1.00  0.00    -0.361 N 
ATOM     16  C   UNL     1      -7.275   9.761  15.897  1.00  0.00     0.121 C 
ATOM     17  C   UNL     1      -4.889  10.167  15.561  1.00  0.00     0.121 C 
ATOM     18  C   UNL     1      -7.460  11.129  16.553  1.00  0.00     0.066 C 
ATOM     19  C   UNL     1      -4.989  11.548  16.207  1.00  0.00     0.066 C 
ATOM     20  C   UNL     1      -7.668   9.479  12.949  1.00  0.00     0.086 C 
ATOM     21  H   UNL     1      -4.398  10.283  13.167  1.00  0.00     0.189 HD
ENDBRANCH  11  12
ENDBRANCH   1  11
BRANCH  10  22
ATOM     22  C   UNL     1      -3.366  13.602  23.766  1.00  0.00     0.159 C 
BRANCH  22  23
ATOM     23  C   UNL     1      -2.509  12.456  24.247  1.00  0.00    -0.028 A 
ATOM     24  C   UNL     1      -1.257  12.215  23.667  1.00  0.00     0.006 A 
ATOM     25  C   UNL     1      -2.940  11.621  25.290  1.00  0.00     0.014 A 
ATOM     26  C   UNL     1      -0.465  11.150  24.102  1.00  0.00     0.009 A 
ATOM     27  C   UNL     1      -2.151  10.549  25.744  1.00  0.00    -0.017 A 
ATOM     28  C   UNL     1      -0.898  10.306  25.136  1.00  0.00    -0.018 A 
ATOM     29  C   UNL     1      -2.583   9.713  26.785  1.00  0.00     0.020 A 
ATOM     30  C   UNL     1      -0.113   9.229  25.577  1.00  0.00     0.009 A 
ATOM     31  C   UNL     1      -1.788   8.647  27.215  1.00  0.00     0.017 A 
ATOM     32  C   UNL     1      -0.554   8.401  26.610  1.00  0.00     0.012 A 
BRANCH  31  33
ATOM     33  C   UNL     1      -2.249   7.790  28.338  1.00  0.00     0.122 C 
ATOM     34  N   UNL     1      -1.432   7.055  29.023  1.00  0.00    -0.284 NA
ATOM     35  N   UNL     1      -3.559   7.767  28.681  1.00  0.00    -0.384 N 
ATOM     36  H   UNL     1      -1.787   6.473  29.795  1.00  0.00     0.189 HD
ATOM     37  H   UNL     1      -3.877   7.173  29.460  1.00  0.00     0.158 HD
ATOM     38  H   UNL     1      -4.237   8.344  28.163  1.00  0.00     0.158 HD
ENDBRANCH  31  33
ENDBRANCH  22  23
ENDBRANCH  10  22
TORSDOF 5
