MODEL 7
REMARK VINA RESULT:    -8.103      3.368      5.712
REMARK INTER + INTRA:         -14.062
REMARK INTER:                 -12.847
REMARK INTRA:                  -1.216
REMARK UNBOUND:                -1.459
REMARK SMILES Cc1oc(-c2ccccc2)nc1CCCc1ccc(C[C@@H](C(=O)O)n2nccn2)cc1
REMARK SMILES IDX 16 1 17 2 18 3 19 4 30 5 31 6 15 7 14 8 13 9 12 10 2 11 3 12
REMARK SMILES IDX 4 13 11 14 1 15 5 16 6 17 10 18 7 19 9 20 8 21 20 22 21 23
REMARK SMILES IDX 22 24 23 25 24 26 25 28 26 29 29 30 27 31 28 32
REMARK H PARENT 24 27
ROOT
ATOM      1  C   UNL     1      -9.690  -8.696 -23.947  1.00  0.00    -0.048 A 
ATOM      2  C   UNL     1     -11.073  -8.506 -24.042  1.00  0.00     0.004 A 
ATOM      3  C   UNL     1     -11.649  -8.044 -25.228  1.00  0.00     0.004 A 
ATOM      4  C   UNL     1     -10.851  -7.770 -26.344  1.00  0.00    -0.045 A 
ATOM      5  C   UNL     1      -9.467  -7.969 -26.253  1.00  0.00     0.004 A 
ATOM      6  C   UNL     1      -8.894  -8.432 -25.067  1.00  0.00     0.004 A 
ENDROOT
BRANCH   1   7
ATOM      7  C   UNL     1      -9.077  -9.185 -22.657  1.00  0.00     0.036 C 
BRANCH   7   8
ATOM      8  C   UNL     1      -7.696  -8.591 -22.345  1.00  0.00     0.011 C 
BRANCH   8   9
ATOM      9  C   UNL     1      -7.707  -7.112 -21.943  1.00  0.00     0.060 C 
BRANCH   9  10
ATOM     10  C   UNL     1      -8.110  -6.872 -20.532  1.00  0.00     0.083 A 
ATOM     11  C   UNL     1      -7.365  -6.397 -19.474  1.00  0.00     0.125 A 
ATOM     12  O   UNL     1      -8.179  -6.349 -18.377  1.00  0.00    -0.441 OA
ATOM     13  C   UNL     1      -9.389  -6.812 -18.827  1.00  0.00     0.226 A 
ATOM     14  N   UNL     1      -9.393  -7.139 -20.107  1.00  0.00    -0.214 NA
ATOM     15  C   UNL     1      -5.973  -5.955 -19.285  1.00  0.00     0.090 C 
BRANCH  13  16
ATOM     16  C   UNL     1     -10.475  -6.880 -17.854  1.00  0.00     0.037 A 
ATOM     17  C   UNL     1     -10.799  -5.798 -17.021  1.00  0.00     0.014 A 
ATOM     18  C   UNL     1     -11.229  -8.060 -17.739  1.00  0.00     0.014 A 
ATOM     19  C   UNL     1     -11.846  -5.893 -16.100  1.00  0.00     0.001 A 
ATOM     20  C   UNL     1     -12.274  -8.156 -16.818  1.00  0.00     0.001 A 
ATOM     21  C   UNL     1     -12.583  -7.071 -15.999  1.00  0.00     0.000 A 
ENDBRANCH  13  16
ENDBRANCH   9  10
ENDBRANCH   8   9
ENDBRANCH   7   8
ENDBRANCH   1   7
BRANCH   4  22
ATOM     22  C   UNL     1     -11.470  -7.282 -27.636  1.00  0.00     0.076 C 
BRANCH  22  23
ATOM     23  C   UNL     1     -12.677  -6.362 -27.411  1.00  0.00     0.242 C 
BRANCH  23  24
ATOM     24  C   UNL     1     -12.356  -4.915 -27.133  1.00  0.00     0.330 C 
ATOM     25  O   UNL     1     -12.749  -4.274 -26.166  1.00  0.00    -0.250 OA
BRANCH  24  26
ATOM     26  O   UNL     1     -11.579  -4.297 -28.046  1.00  0.00    -0.480 OA
ATOM     27  H   UNL     1     -10.667  -4.552 -27.788  1.00  0.00     0.296 HD
ENDBRANCH  24  26
ENDBRANCH  23  24
BRANCH  23  28
ATOM     28  N   UNL     1     -13.582  -6.428 -28.548  1.00  0.00    -0.170 N 
ATOM     29  N   UNL     1     -14.919  -6.558 -28.366  1.00  0.00    -0.161 NA
ATOM     30  N   UNL     1     -13.123  -6.538 -29.818  1.00  0.00    -0.161 NA
ATOM     31  C   UNL     1     -15.351  -6.675 -29.625  1.00  0.00     0.157 A 
ATOM     32  C   UNL     1     -14.263  -6.664 -30.505  1.00  0.00     0.157 A 
ENDBRANCH  23  28
ENDBRANCH  22  23
ENDBRANCH   4  22
TORSDOF 10
ENDMDL
