MODEL 1
REMARK VINA RESULT:    -9.305      0.000      0.000
REMARK INTER + INTRA:         -16.576
REMARK INTER:                 -16.105
REMARK INTRA:                  -0.471
REMARK UNBOUND:                -0.471
REMARK SMILES COC(=O)C(Cc1ccc(OCCN2CCC(C)(C)c3cc(/C(=N\O)c4ccccc4)ccc32)cc1)C(=O)OC
REMARK SMILES IDX 11 1 10 2 7 3 8 4 36 5 9 6 35 7 6 8 5 9 3 10 4 11 2 12 1 13
REMARK SMILES IDX 37 14 38 15 39 16 40 17 12 18 13 19 14 20 15 21 34 22 16 23
REMARK SMILES IDX 33 24 20 25 17 26 32 27 21 28 22 29 18 30 19 31 23 32 24 33
REMARK SMILES IDX 26 34 27 35 31 36 28 37 30 38 29 39 25 40
REMARK H PARENT 25 41
ROOT
ATOM      1  O   UNL     1       7.227   5.818  -7.185  1.00  0.00    -0.492 OA
ENDROOT
BRANCH   1   2
ATOM      2  C   UNL     1       6.303   6.250  -6.277  1.00  0.00     0.119 A 
ATOM      3  C   UNL     1       4.342   6.841  -4.343  1.00  0.00    -0.046 A 
ATOM      4  C   UNL     1       4.862   7.848  -5.166  1.00  0.00     0.007 A 
ATOM      5  C   UNL     1       4.830   5.538  -4.482  1.00  0.00     0.007 A 
ATOM      6  C   UNL     1       5.840   7.556  -6.123  1.00  0.00     0.047 A 
ATOM      7  C   UNL     1       5.802   5.250  -5.441  1.00  0.00     0.047 A 
BRANCH   3   8
ATOM      8  C   UNL     1       3.257   7.156  -3.339  1.00  0.00     0.062 C 
BRANCH   8   9
ATOM      9  C   UNL     1       3.718   6.961  -1.890  1.00  0.00     0.213 C 
BRANCH   9  10
ATOM     10  C   UNL     1       2.983   5.786  -1.307  1.00  0.00     0.320 C 
ATOM     11  O   UNL     1       1.930   5.360  -1.769  1.00  0.00    -0.251 OA
BRANCH  10  12
ATOM     12  O   UNL     1       3.572   5.318  -0.174  1.00  0.00    -0.468 OA
ATOM     13  C   UNL     1       4.470   4.226  -0.385  1.00  0.00     0.282 C 
ENDBRANCH  10  12
ENDBRANCH   9  10
BRANCH   9  14
ATOM     14  C   UNL     1       3.612   8.184  -1.015  1.00  0.00     0.320 C 
ATOM     15  O   UNL     1       2.538   8.689  -0.700  1.00  0.00    -0.251 OA
BRANCH  14  16
ATOM     16  O   UNL     1       4.826   8.689  -0.664  1.00  0.00    -0.468 OA
ATOM     17  C   UNL     1       5.675   8.994  -1.770  1.00  0.00     0.282 C 
ENDBRANCH  14  16
ENDBRANCH   9  14
ENDBRANCH   8   9
ENDBRANCH   3   8
ENDBRANCH   1   2
BRANCH   1  18
ATOM     18  C   UNL     1       8.016   4.667  -6.870  1.00  0.00     0.251 C 
BRANCH  18  19
ATOM     19  C   UNL     1       9.517   4.996  -6.850  1.00  0.00     0.158 C 
BRANCH  19  20
ATOM     20  N   UNL     1      10.062   5.247  -8.193  1.00  0.00    -0.368 N 
ATOM     21  C   UNL     1      10.031   4.118  -9.120  1.00  0.00     0.117 C 
ATOM     22  C   UNL     1      10.128   6.533  -8.738  1.00  0.00     0.041 A 
ATOM     23  C   UNL     1      11.096   4.291 -10.182  1.00  0.00     0.032 C 
ATOM     24  C   UNL     1       9.865   7.678  -7.953  1.00  0.00     0.027 A 
ATOM     25  C   UNL     1      10.503   6.742 -10.093  1.00  0.00    -0.018 A 
ATOM     26  C   UNL     1      10.845   5.564 -11.014  1.00  0.00    -0.007 C 
ATOM     27  C   UNL     1       9.929   8.973  -8.472  1.00  0.00     0.012 A 
ATOM     28  C   UNL     1      10.539   8.055 -10.615  1.00  0.00     0.017 A 
ATOM     29  C   UNL     1      10.265   9.153  -9.805  1.00  0.00     0.005 A 
ATOM     30  C   UNL     1       9.679   5.338 -12.000  1.00  0.00     0.016 C 
ATOM     31  C   UNL     1      12.131   5.823 -11.832  1.00  0.00     0.016 C 
BRANCH  29  32
ATOM     32  C   UNL     1      10.373  10.529 -10.354  1.00  0.00     0.117 C 
ATOM     33  N   UNL     1      10.465  11.597  -9.609  1.00  0.00    -0.088 NA
BRANCH  32  34
ATOM     34  C   UNL     1      10.392  10.688 -11.847  1.00  0.00     0.004 A 
ATOM     35  C   UNL     1      11.593  10.828 -12.557  1.00  0.00     0.010 A 
ATOM     36  C   UNL     1       9.180  10.678 -12.549  1.00  0.00     0.010 A 
ATOM     37  C   UNL     1      11.576  10.969 -13.947  1.00  0.00     0.001 A 
ATOM     38  C   UNL     1       9.167  10.820 -13.939  1.00  0.00     0.001 A 
ATOM     39  C   UNL     1      10.364  10.965 -14.635  1.00  0.00     0.000 A 
ENDBRANCH  32  34
BRANCH  33  40
ATOM     40  O   UNL     1      10.456  11.292  -8.242  1.00  0.00    -0.410 OA
ATOM     41  H   UNL     1       9.828  11.948  -7.885  1.00  0.00     0.330 HD
ENDBRANCH  33  40
ENDBRANCH  29  32
ENDBRANCH  19  20
ENDBRANCH  18  19
ENDBRANCH   1  18
TORSDOF 13
ENDMDL
