MODEL 5
REMARK VINA RESULT:    -8.498      1.943      3.286
REMARK INTER + INTRA:         -15.179
REMARK INTER:                 -15.364
REMARK INTRA:                   0.184
REMARK UNBOUND:                -0.471
REMARK SMILES COC(=O)C(Cc1ccc(OCCN2CCC(C)(C)c3cc(/C(=N\O)c4ccccc4)ccc32)cc1)C(=O)OC
REMARK SMILES IDX 11 1 10 2 7 3 8 4 36 5 9 6 35 7 6 8 5 9 3 10 4 11 2 12 1 13
REMARK SMILES IDX 37 14 38 15 39 16 40 17 12 18 13 19 14 20 15 21 34 22 16 23
REMARK SMILES IDX 33 24 20 25 17 26 32 27 21 28 22 29 18 30 19 31 23 32 24 33
REMARK SMILES IDX 26 34 27 35 31 36 28 37 30 38 29 39 25 40
REMARK H PARENT 25 41
ROOT
ATOM      1  O   UNL     1       7.877   4.724  -6.530  1.00  0.00    -0.492 OA
ENDROOT
BRANCH   1   2
ATOM      2  C   UNL     1       6.872   5.573  -6.160  1.00  0.00     0.119 A 
ATOM      3  C   UNL     1       4.653   7.073  -5.287  1.00  0.00    -0.046 A 
ATOM      4  C   UNL     1       5.641   7.657  -6.090  1.00  0.00     0.007 A 
ATOM      5  C   UNL     1       4.799   5.735  -4.906  1.00  0.00     0.007 A 
ATOM      6  C   UNL     1       6.747   6.914  -6.519  1.00  0.00     0.047 A 
ATOM      7  C   UNL     1       5.901   4.996  -5.340  1.00  0.00     0.047 A 
BRANCH   3   8
ATOM      8  C   UNL     1       3.442   7.870  -4.860  1.00  0.00     0.062 C 
BRANCH   8   9
ATOM      9  C   UNL     1       3.484   8.261  -3.378  1.00  0.00     0.213 C 
BRANCH   9  10
ATOM     10  C   UNL     1       4.879   8.703  -3.038  1.00  0.00     0.320 C 
ATOM     11  O   UNL     1       5.636   8.047  -2.331  1.00  0.00    -0.251 OA
BRANCH  10  12
ATOM     12  O   UNL     1       5.164   9.940  -3.529  1.00  0.00    -0.468 OA
ATOM     13  C   UNL     1       6.560  10.235  -3.609  1.00  0.00     0.282 C 
ENDBRANCH  10  12
ENDBRANCH   9  10
BRANCH   9  14
ATOM     14  C   UNL     1       2.978   7.208  -2.425  1.00  0.00     0.320 C 
ATOM     15  O   UNL     1       2.563   6.114  -2.798  1.00  0.00    -0.251 OA
BRANCH  14  16
ATOM     16  O   UNL     1       2.982   7.622  -1.129  1.00  0.00    -0.468 OA
ATOM     17  C   UNL     1       3.274   6.590  -0.186  1.00  0.00     0.282 C 
ENDBRANCH  14  16
ENDBRANCH   9  14
ENDBRANCH   8   9
ENDBRANCH   3   8
ENDBRANCH   1   2
BRANCH   1  18
ATOM     18  C   UNL     1       8.313   4.727  -7.893  1.00  0.00     0.251 C 
BRANCH  18  19
ATOM     19  C   UNL     1       9.846   4.743  -7.997  1.00  0.00     0.158 C 
BRANCH  19  20
ATOM     20  N   UNL     1      10.324   5.332  -9.259  1.00  0.00    -0.368 N 
ATOM     21  C   UNL     1      10.257   4.469 -10.435  1.00  0.00     0.117 C 
ATOM     22  C   UNL     1      10.353   6.714  -9.468  1.00  0.00     0.041 A 
ATOM     23  C   UNL     1      11.268   4.922 -11.467  1.00  0.00     0.032 C 
ATOM     24  C   UNL     1      10.119   7.622  -8.411  1.00  0.00     0.027 A 
ATOM     25  C   UNL     1      10.661   7.260 -10.743  1.00  0.00    -0.018 A 
ATOM     26  C   UNL     1      10.967   6.356 -11.943  1.00  0.00    -0.007 C 
ATOM     27  C   UNL     1      10.148   9.006  -8.592  1.00  0.00     0.012 A 
ATOM     28  C   UNL     1      10.661   8.663 -10.922  1.00  0.00     0.017 A 
ATOM     29  C   UNL     1      10.418   9.519  -9.851  1.00  0.00     0.005 A 
ATOM     30  C   UNL     1       9.757   6.360 -12.901  1.00  0.00     0.016 C 
ATOM     31  C   UNL     1      12.210   6.836 -12.728  1.00  0.00     0.016 C 
BRANCH  29  32
ATOM     32  C   UNL     1      10.489  10.991 -10.044  1.00  0.00     0.117 C 
ATOM     33  N   UNL     1      10.300  11.576 -11.195  1.00  0.00    -0.088 NA
BRANCH  32  34
ATOM     34  C   UNL     1      10.779  11.842  -8.842  1.00  0.00     0.004 A 
ATOM     35  C   UNL     1      11.951  11.677  -8.091  1.00  0.00     0.010 A 
ATOM     36  C   UNL     1       9.865  12.837  -8.474  1.00  0.00     0.010 A 
ATOM     37  C   UNL     1      12.194  12.489  -6.979  1.00  0.00     0.001 A 
ATOM     38  C   UNL     1      10.110  13.646  -7.362  1.00  0.00     0.001 A 
ATOM     39  C   UNL     1      11.274  13.472  -6.618  1.00  0.00     0.000 A 
ENDBRANCH  32  34
BRANCH  33  40
ATOM     40  O   UNL     1      10.018  10.659 -12.217  1.00  0.00    -0.410 OA
ATOM     41  H   UNL     1      10.672  10.899 -12.900  1.00  0.00     0.330 HD
ENDBRANCH  33  40
ENDBRANCH  29  32
ENDBRANCH  19  20
ENDBRANCH  18  19
ENDBRANCH   1  18
TORSDOF 13
ENDMDL
