MODEL 1
REMARK VINA RESULT:    -8.233      0.000      0.000
REMARK INTER + INTRA:         -12.385
REMARK INTER:                 -11.602
REMARK INTRA:                  -0.783
REMARK UNBOUND:                -0.783
REMARK SMILES O=C(NCCF)Nc1ccc(-c2nc(C3=CCOCC3)c3cnn(CC(F)(F)F)c3n2)cc1
REMARK SMILES IDX 8 1 9 2 10 3 11 4 32 5 33 6 7 7 1 8 2 9 3 10 4 13 5 14 6 15
REMARK SMILES IDX 12 16 31 17 13 18 30 19 14 20 21 21 24 22 22 23 23 24 15 25
REMARK SMILES IDX 20 26 16 27 19 28 17 29 18 30 25 31 26 32 27 33 28 34 29 35
REMARK H PARENT 3 11 7 12
ROOT
ATOM      1  C   UNL     1      36.646  48.839  42.332  1.00  0.00     0.042 A 
ATOM      2  C   UNL     1      35.886  48.860  43.500  1.00  0.00     0.027 A 
ATOM      3  C   UNL     1      34.701  48.135  43.582  1.00  0.00     0.014 A 
ATOM      4  C   UNL     1      34.235  47.377  42.496  1.00  0.00     0.019 A 
ATOM      5  C   UNL     1      35.003  47.379  41.320  1.00  0.00     0.014 A 
ATOM      6  C   UNL     1      36.192  48.098  41.233  1.00  0.00     0.027 A 
ENDROOT
BRANCH   1   7
ATOM      7  N   UNL     1      37.826  49.607  42.347  1.00  0.00    -0.308 N 
ATOM      8  O   UNL     1      39.479  48.037  42.635  1.00  0.00    -0.249 OA
ATOM      9  C   UNL     1      39.106  49.198  42.466  1.00  0.00     0.319 C 
ATOM     10  N   UNL     1      39.947  50.245  42.412  1.00  0.00    -0.335 N 
ATOM     11  H   UNL     1      39.579  51.147  42.148  1.00  0.00     0.165 HD
ATOM     12  H   UNL     1      37.675  50.604  42.321  1.00  0.00     0.171 HD
BRANCH  10  13
ATOM     13  C   UNL     1      41.380  50.192  42.704  1.00  0.00     0.152 C 
BRANCH  13  14
ATOM     14  C   UNL     1      41.703  50.289  44.205  1.00  0.00     0.235 C 
ATOM     15  F   UNL     1      42.093  49.127  44.726  1.00  0.00    -0.249 F 
ENDBRANCH  13  14
ENDBRANCH  10  13
ENDBRANCH   1   7
BRANCH   4  16
ATOM     16  C   UNL     1      32.956  46.591  42.588  1.00  0.00     0.162 A 
ATOM     17  N   UNL     1      32.356  46.525  43.813  1.00  0.00    -0.208 NA
ATOM     18  N   UNL     1      32.498  46.010  41.441  1.00  0.00    -0.227 NA
ATOM     19  C   UNL     1      31.224  45.811  43.829  1.00  0.00     0.162 A 
ATOM     20  C   UNL     1      31.343  45.291  41.492  1.00  0.00     0.081 A 
ATOM     21  C   UNL     1      30.648  45.167  42.713  1.00  0.00     0.065 A 
ATOM     22  N   UNL     1      30.386  45.545  44.897  1.00  0.00    -0.238 N 
ATOM     23  C   UNL     1      29.466  44.554  43.233  1.00  0.00     0.148 A 
ATOM     24  N   UNL     1      29.324  44.803  44.512  1.00  0.00    -0.178 NA
BRANCH  20  25
ATOM     25  C   UNL     1      30.887  44.736  40.194  1.00  0.00    -0.021 C 
ATOM     26  C   UNL     1      31.504  45.265  38.898  1.00  0.00     0.066 C 
ATOM     27  C   UNL     1      30.147  43.607  40.152  1.00  0.00     0.007 C 
ATOM     28  C   UNL     1      30.642  44.836  37.695  1.00  0.00     0.165 C 
ATOM     29  C   UNL     1      29.752  42.904  38.856  1.00  0.00     0.188 C 
ATOM     30  O   UNL     1      30.467  43.420  37.727  1.00  0.00    -0.377 OA
ENDBRANCH  20  25
BRANCH  22  31
ATOM     31  C   UNL     1      30.478  46.015  46.277  1.00  0.00     0.261 C 
BRANCH  31  32
ATOM     32  C   UNL     1      30.543  47.553  46.351  1.00  0.00     0.408 C 
ATOM     33  F   UNL     1      30.091  47.978  47.530  1.00  0.00    -0.169 F 
ATOM     34  F   UNL     1      31.790  48.005  46.216  1.00  0.00    -0.169 F 
ATOM     35  F   UNL     1      29.797  48.129  45.408  1.00  0.00    -0.169 F 
ENDBRANCH  31  32
ENDBRANCH  22  31
ENDBRANCH   4  16
TORSDOF 7
ENDMDL
