MODEL 1
REMARK minimizedAffinity -8.47963619
REMARK CNNscore 0.363973618
REMARK CNNaffinity 6.47128534
REMARK SMILES N=C(N)c1cccc(C2=NO[C@](Cn3cnnn3)(C(=O)Nc3ncc(-c4ccccc4S(N)(=O)=O)cn3)C2)c1
REMARK SMILES IDX 22 1 23 2 24 3 25 4 36 5 37 6 21 7 19 8 20 9 12 11 9 12
REMARK SMILES IDX 10 13 38 14 11 15 8 16 4 17 5 18 39 19 6 20 7 21 2 22 1 23
REMARK SMILES IDX 3 24 13 28 14 29 15 30 18 31 16 32 17 33 26 34 27 35 31 36
REMARK SMILES IDX 28 37 30 38 29 39 32 40 34 41 35 42 33 43
REMARK H PARENT 21 10 1 25 3 26 3 27 33 44 33 45
ROOT
ATOM      1  C   UNL     1      -7.743  12.236  22.388  1.00  0.00     0.229 A 
ATOM      2  N   UNL     1      -8.760  13.109  22.415  1.00  0.00    -0.221 NA
ATOM      3  C   UNL     1      -9.830  12.819  21.641  1.00  0.00     0.125 A 
ATOM      4  C   UNL     1      -9.934  11.690  20.851  1.00  0.00     0.020 A 
ATOM      5  C   UNL     1      -8.831  10.861  20.919  1.00  0.00     0.125 A 
ATOM      6  N   UNL     1      -7.736  11.114  21.667  1.00  0.00    -0.221 NA
ENDROOT
BRANCH   1   7
ATOM      7  N   UNL     1      -6.683  12.580  23.208  1.00  0.00    -0.291 N 
ATOM      8  C   UNL     1      -5.711  13.517  22.946  1.00  0.00     0.276 C 
ATOM      9  O   UNL     1      -5.656  14.253  21.965  1.00  0.00    -0.270 OA
ATOM     10  H   UNL     1      -6.689  12.096  24.097  1.00  0.00     0.173 HD
BRANCH   8  11
ATOM     11  C   UNL     1      -4.597  13.537  24.002  1.00  0.00     0.240 C 
ATOM     12  C   UNL     1      -3.458  11.876  25.089  1.00  0.00     0.092 C 
ATOM     13  N   UNL     1      -4.372  12.267  25.922  1.00  0.00    -0.089 NA
ATOM     14  C   UNL     1      -3.587  12.439  23.716  1.00  0.00     0.124 C 
ATOM     15  O   UNL     1      -5.212  13.181  25.253  1.00  0.00    -0.376 OA
BRANCH  12  16
ATOM     16  C   UNL     1      -2.382  10.928  25.453  1.00  0.00     0.000 A 
ATOM     17  C   UNL     1      -1.545   9.039  26.714  1.00  0.00     0.017 A 
ATOM     18  C   UNL     1      -0.289   9.185  26.115  1.00  0.00     0.012 A 
ATOM     19  C   UNL     1      -2.593   9.908  26.388  1.00  0.00     0.022 A 
ATOM     20  C   UNL     1      -0.081  10.198  25.181  1.00  0.00     0.001 A 
ATOM     21  C   UNL     1      -1.123  11.067  24.852  1.00  0.00     0.010 A 
BRANCH  17  22
ATOM     22  C   UNL     1      -1.764   7.972  27.722  1.00  0.00     0.122 C 
ATOM     23  N   UNL     1      -1.160   6.829  27.656  1.00  0.00    -0.284 NA
ATOM     24  N   UNL     1      -2.625   8.168  28.748  1.00  0.00    -0.384 N 
ATOM     25  H   UNL     1      -0.495   6.801  26.877  1.00  0.00     0.189 HD
ATOM     26  H   UNL     1      -3.203   8.991  28.848  1.00  0.00     0.158 HD
ATOM     27  H   UNL     1      -2.743   7.407  29.405  1.00  0.00     0.158 HD
ENDBRANCH  17  22
ENDBRANCH  12  16
BRANCH  11  28
ATOM     28  C   UNL     1      -4.021  14.954  24.108  1.00  0.00     0.210 C 
BRANCH  28  29
ATOM     29  N   UNL     1      -4.886  15.887  24.789  1.00  0.00    -0.228 N 
ATOM     30  C   UNL     1      -5.549  15.742  25.965  1.00  0.00     0.246 A 
ATOM     31  N   UNL     1      -5.131  17.103  24.274  1.00  0.00    -0.045 NA
ATOM     32  N   UNL     1      -6.213  16.849  26.202  1.00  0.00    -0.117 NA
ATOM     33  N   UNL     1      -5.943  17.686  25.145  1.00  0.00    -0.024 NA
ENDBRANCH  28  29
ENDBRANCH  11  28
ENDBRANCH   8  11
ENDBRANCH   1   7
BRANCH   4  34
ATOM     34  C   UNL     1     -11.114  11.371  20.048  1.00  0.00     0.005 A 
ATOM     35  C   UNL     1     -11.061  11.636  18.664  1.00  0.00     0.010 A 
ATOM     36  C   UNL     1     -12.311  10.828  20.562  1.00  0.00     0.090 A 
ATOM     37  C   UNL     1     -12.146  11.365  17.826  1.00  0.00     0.001 A 
ATOM     38  C   UNL     1     -13.398  10.553  19.716  1.00  0.00     0.022 A 
ATOM     39  C   UNL     1     -13.314  10.823  18.351  1.00  0.00     0.001 A 
BRANCH  36  40
ATOM     40  S   UNL     1     -12.511  10.468  22.290  1.00  0.00     0.238 S 
ATOM     41  O   UNL     1     -11.314   9.825  22.782  1.00  0.00    -0.207 OA
ATOM     42  O   UNL     1     -13.084  11.622  22.940  1.00  0.00    -0.207 OA
BRANCH  40  43
ATOM     43  N   UNL     1     -13.677   9.261  22.296  1.00  0.00    -0.225 NA
ATOM     44  H   UNL     1     -14.513   9.578  22.793  1.00  0.00     0.137 HD
ATOM     45  H   UNL     1     -13.282   8.399  22.674  1.00  0.00     0.137 HD
ENDBRANCH  40  43
ENDBRANCH  36  40
ENDBRANCH   4  34
TORSDOF 9
ENDMDL
MODEL 2
REMARK minimizedAffinity -9.67380619
REMARK CNNscore 0.316123813
REMARK CNNaffinity 6.88156509
REMARK SMILES N=C(N)c1cccc(C2=NO[C@](Cn3cnnn3)(C(=O)Nc3ncc(-c4ccccc4S(N)(=O)=O)cn3)C2)c1
REMARK SMILES IDX 22 1 23 2 24 3 25 4 36 5 37 6 21 7 19 8 20 9 12 11 9 12
REMARK SMILES IDX 10 13 38 14 11 15 8 16 4 17 5 18 39 19 6 20 7 21 2 22 1 23
REMARK SMILES IDX 3 24 13 28 14 29 15 30 18 31 16 32 17 33 26 34 27 35 31 36
REMARK SMILES IDX 28 37 30 38 29 39 32 40 34 41 35 42 33 43
REMARK H PARENT 21 10 1 25 3 26 3 27 33 44 33 45
ROOT
ATOM      1  C   UNL     1      -5.571  15.528  24.433  1.00  0.00     0.229 A 
ATOM      2  N   UNL     1      -5.914  16.450  23.522  1.00  0.00    -0.221 NA
ATOM      3  C   UNL     1      -6.768  17.416  23.927  1.00  0.00     0.125 A 
ATOM      4  C   UNL     1      -7.286  17.509  25.205  1.00  0.00     0.020 A 
ATOM      5  C   UNL     1      -6.848  16.513  26.056  1.00  0.00     0.125 A 
ATOM      6  N   UNL     1      -6.005  15.522  25.695  1.00  0.00    -0.221 NA
ENDROOT
BRANCH   1   7
ATOM      7  N   UNL     1      -4.685  14.574  23.965  1.00  0.00    -0.291 N 
ATOM      8  C   UNL     1      -4.979  13.518  23.134  1.00  0.00     0.276 C 
ATOM      9  O   UNL     1      -6.066  13.281  22.616  1.00  0.00    -0.270 OA
ATOM     10  H   UNL     1      -3.730  14.735  24.256  1.00  0.00     0.173 HD
BRANCH   8  11
ATOM     11  C   UNL     1      -3.792  12.565  22.935  1.00  0.00     0.240 C 
ATOM     12  C   UNL     1      -2.330  11.581  24.394  1.00  0.00     0.092 C 
ATOM     13  N   UNL     1      -1.697  12.604  23.912  1.00  0.00    -0.089 NA
ATOM     14  C   UNL     1      -3.775  11.518  24.036  1.00  0.00     0.124 C 
ATOM     15  O   UNL     1      -2.601  13.347  23.125  1.00  0.00    -0.376 OA
BRANCH  12  16
ATOM     16  C   UNL     1      -1.687  10.561  25.253  1.00  0.00     0.000 A 
ATOM     17  C   UNL     1      -1.732   9.000  27.101  1.00  0.00     0.017 A 
ATOM     18  C   UNL     1      -0.397   8.659  26.857  1.00  0.00     0.012 A 
ATOM     19  C   UNL     1      -2.380   9.950  26.304  1.00  0.00     0.022 A 
ATOM     20  C   UNL     1       0.291   9.265  25.808  1.00  0.00     0.001 A 
ATOM     21  C   UNL     1      -0.351  10.213  25.009  1.00  0.00     0.010 A 
BRANCH  17  22
ATOM     22  C   UNL     1      -2.461   8.368  28.230  1.00  0.00     0.122 C 
ATOM     23  N   UNL     1      -2.000   7.333  28.854  1.00  0.00    -0.284 NA
ATOM     24  N   UNL     1      -3.655   8.864  28.633  1.00  0.00    -0.384 N 
ATOM     25  H   UNL     1      -1.072   7.070  28.508  1.00  0.00     0.189 HD
ATOM     26  H   UNL     1      -4.139   9.617  28.165  1.00  0.00     0.158 HD
ATOM     27  H   UNL     1      -4.115   8.393  29.403  1.00  0.00     0.158 HD
ENDBRANCH  17  22
ENDBRANCH  12  16
BRANCH  11  28
ATOM     28  C   UNL     1      -3.813  12.017  21.503  1.00  0.00     0.210 C 
BRANCH  28  29
ATOM     29  N   UNL     1      -2.520  12.004  20.863  1.00  0.00    -0.228 N 
ATOM     30  C   UNL     1      -1.953  12.936  20.055  1.00  0.00     0.246 A 
ATOM     31  N   UNL     1      -1.677  10.971  21.029  1.00  0.00    -0.045 NA
ATOM     32  N   UNL     1      -0.761  12.507  19.706  1.00  0.00    -0.117 NA
ATOM     33  N   UNL     1      -0.604  11.287  20.320  1.00  0.00    -0.024 NA
ENDBRANCH  28  29
ENDBRANCH  11  28
ENDBRANCH   8  11
ENDBRANCH   1   7
BRANCH   4  34
ATOM     34  C   UNL     1      -8.182  18.581  25.639  1.00  0.00     0.005 A 
ATOM     35  C   UNL     1      -7.607  19.819  25.991  1.00  0.00     0.010 A 
ATOM     36  C   UNL     1      -9.584  18.462  25.742  1.00  0.00     0.090 A 
ATOM     37  C   UNL     1      -8.390  20.894  26.419  1.00  0.00     0.001 A 
ATOM     38  C   UNL     1     -10.369  19.545  26.169  1.00  0.00     0.022 A 
ATOM     39  C   UNL     1      -9.771  20.758  26.507  1.00  0.00     0.001 A 
BRANCH  36  40
ATOM     40  S   UNL     1     -10.428  16.949  25.346  1.00  0.00     0.238 S 
ATOM     41  O   UNL     1     -11.430  17.215  24.338  1.00  0.00    -0.207 OA
ATOM     42  O   UNL     1      -9.451  15.898  25.198  1.00  0.00    -0.207 OA
BRANCH  40  43
ATOM     43  N   UNL     1     -11.303  16.623  26.741  1.00  0.00    -0.225 NA
ATOM     44  H   UNL     1     -10.995  15.741  27.155  1.00  0.00     0.137 HD
ATOM     45  H   UNL     1     -12.303  16.650  26.538  1.00  0.00     0.137 HD
ENDBRANCH  40  43
ENDBRANCH  36  40
ENDBRANCH   4  34
TORSDOF 9
ENDMDL
MODEL 3
REMARK minimizedAffinity -9.67286015
REMARK CNNscore 0.304194003
REMARK CNNaffinity 6.82971239
REMARK SMILES N=C(N)c1cccc(C2=NO[C@](Cn3cnnn3)(C(=O)Nc3ncc(-c4ccccc4S(N)(=O)=O)cn3)C2)c1
REMARK SMILES IDX 22 1 23 2 24 3 25 4 36 5 37 6 21 7 19 8 20 9 12 11 9 12
REMARK SMILES IDX 10 13 38 14 11 15 8 16 4 17 5 18 39 19 6 20 7 21 2 22 1 23
REMARK SMILES IDX 3 24 13 28 14 29 15 30 18 31 16 32 17 33 26 34 27 35 31 36
REMARK SMILES IDX 28 37 30 38 29 39 32 40 34 41 35 42 33 43
REMARK H PARENT 21 10 1 25 3 26 3 27 33 44 33 45
ROOT
ATOM      1  C   UNL     1      -5.840  14.988  24.032  1.00  0.00     0.229 A 
ATOM      2  N   UNL     1      -6.121  14.944  25.341  1.00  0.00    -0.221 NA
ATOM      3  C   UNL     1      -7.106  15.760  25.780  1.00  0.00     0.125 A 
ATOM      4  C   UNL     1      -7.829  16.611  24.966  1.00  0.00     0.020 A 
ATOM      5  C   UNL     1      -7.459  16.557  23.637  1.00  0.00     0.125 A 
ATOM      6  N   UNL     1      -6.476  15.767  23.154  1.00  0.00    -0.221 NA
ENDROOT
BRANCH   1   7
ATOM      7  N   UNL     1      -4.835  14.123  23.640  1.00  0.00    -0.291 N 
ATOM      8  C   UNL     1      -4.903  13.184  22.638  1.00  0.00     0.276 C 
ATOM      9  O   UNL     1      -5.849  12.998  21.878  1.00  0.00    -0.270 OA
ATOM     10  H   UNL     1      -3.967  14.261  24.142  1.00  0.00     0.173 HD
BRANCH   8  11
ATOM     11  C   UNL     1      -3.658  12.288  22.571  1.00  0.00     0.240 C 
ATOM     12  C   UNL     1      -2.249  11.464  24.176  1.00  0.00     0.092 C 
ATOM     13  N   UNL     1      -1.639  12.495  23.680  1.00  0.00    -0.089 NA
ATOM     14  C   UNL     1      -3.661  11.303  23.728  1.00  0.00     0.124 C 
ATOM     15  O   UNL     1      -2.524  13.144  22.795  1.00  0.00    -0.376 OA
BRANCH  12  16
ATOM     16  C   UNL     1      -1.615  10.529  25.131  1.00  0.00     0.000 A 
ATOM     17  C   UNL     1      -1.703   9.073  27.062  1.00  0.00     0.017 A 
ATOM     18  C   UNL     1      -0.341   8.787  26.920  1.00  0.00     0.012 A 
ATOM     19  C   UNL     1      -2.343   9.944  26.172  1.00  0.00     0.022 A 
ATOM     20  C   UNL     1       0.382   9.367  25.879  1.00  0.00     0.001 A 
ATOM     21  C   UNL     1      -0.251  10.235  24.988  1.00  0.00     0.010 A 
BRANCH  17  22
ATOM     22  C   UNL     1      -2.472   8.471  28.180  1.00  0.00     0.122 C 
ATOM     23  N   UNL     1      -3.613   8.944  28.565  1.00  0.00    -0.284 NA
ATOM     24  N   UNL     1      -1.981   7.397  28.844  1.00  0.00    -0.384 N 
ATOM     25  H   UNL     1      -3.917   9.719  27.968  1.00  0.00     0.189 HD
ATOM     26  H   UNL     1      -1.068   7.001  28.675  1.00  0.00     0.158 HD
ATOM     27  H   UNL     1      -2.540   7.028  29.603  1.00  0.00     0.158 HD
ENDBRANCH  17  22
ENDBRANCH  12  16
BRANCH  11  28
ATOM     28  C   UNL     1      -3.552  11.665  21.174  1.00  0.00     0.210 C 
BRANCH  28  29
ATOM     29  N   UNL     1      -2.312  11.956  20.496  1.00  0.00    -0.228 N 
ATOM     30  C   UNL     1      -2.003  12.997  19.680  1.00  0.00     0.246 A 
ATOM     31  N   UNL     1      -1.247  11.148  20.628  1.00  0.00    -0.045 NA
ATOM     32  N   UNL     1      -0.756  12.859  19.293  1.00  0.00    -0.117 NA
ATOM     33  N   UNL     1      -0.299  11.708  19.890  1.00  0.00    -0.024 NA
ENDBRANCH  28  29
ENDBRANCH  11  28
ENDBRANCH   8  11
ENDBRANCH   1   7
BRANCH   4  34
ATOM     34  C   UNL     1      -8.916  17.462  25.450  1.00  0.00     0.005 A 
ATOM     35  C   UNL     1     -10.232  16.967  25.357  1.00  0.00     0.010 A 
ATOM     36  C   UNL     1      -8.743  18.752  25.993  1.00  0.00     0.090 A 
ATOM     37  C   UNL     1     -11.328  17.717  25.793  1.00  0.00     0.001 A 
ATOM     38  C   UNL     1      -9.846  19.503  26.434  1.00  0.00     0.022 A 
ATOM     39  C   UNL     1     -11.135  18.984  26.332  1.00  0.00     0.001 A 
BRANCH  36  40
ATOM     40  S   UNL     1      -7.137  19.498  26.147  1.00  0.00     0.238 S 
ATOM     41  O   UNL     1      -6.427  19.357  24.895  1.00  0.00    -0.207 OA
ATOM     42  O   UNL     1      -7.279  20.773  26.808  1.00  0.00    -0.207 OA
BRANCH  40  43
ATOM     43  N   UNL     1      -6.339  18.471  27.208  1.00  0.00    -0.225 NA
ATOM     44  H   UNL     1      -6.085  18.972  28.062  1.00  0.00     0.137 HD
ATOM     45  H   UNL     1      -5.542  18.039  26.739  1.00  0.00     0.137 HD
ENDBRANCH  40  43
ENDBRANCH  36  40
ENDBRANCH   4  34
TORSDOF 9
ENDMDL
MODEL 4
REMARK minimizedAffinity -10.06847
REMARK CNNscore 0.301658392
REMARK CNNaffinity 7.0035224
REMARK SMILES N=C(N)c1cccc(C2=NO[C@](Cn3cnnn3)(C(=O)Nc3ncc(-c4ccccc4S(N)(=O)=O)cn3)C2)c1
REMARK SMILES IDX 22 1 23 2 24 3 25 4 36 5 37 6 21 7 19 8 20 9 12 11 9 12
REMARK SMILES IDX 10 13 38 14 11 15 8 16 4 17 5 18 39 19 6 20 7 21 2 22 1 23
REMARK SMILES IDX 3 24 13 28 14 29 15 30 18 31 16 32 17 33 26 34 27 35 31 36
REMARK SMILES IDX 28 37 30 38 29 39 32 40 34 41 35 42 33 43
REMARK H PARENT 21 10 1 25 3 26 3 27 33 44 33 45
ROOT
ATOM      1  C   UNL     1      -6.649  11.449  21.787  1.00  0.00     0.229 A 
ATOM      2  N   UNL     1      -7.279  12.527  22.274  1.00  0.00    -0.221 NA
ATOM      3  C   UNL     1      -8.603  12.624  22.018  1.00  0.00     0.125 A 
ATOM      4  C   UNL     1      -9.327  11.687  21.306  1.00  0.00     0.020 A 
ATOM      5  C   UNL     1      -8.572  10.616  20.870  1.00  0.00     0.125 A 
ATOM      6  N   UNL     1      -7.248  10.480  21.090  1.00  0.00    -0.221 NA
ENDROOT
BRANCH   1   7
ATOM      7  N   UNL     1      -5.301  11.398  22.091  1.00  0.00    -0.291 N 
ATOM      8  C   UNL     1      -4.320  12.243  21.625  1.00  0.00     0.276 C 
ATOM      9  O   UNL     1      -4.488  13.225  20.908  1.00  0.00    -0.270 OA
ATOM     10  H   UNL     1      -5.066  10.676  22.760  1.00  0.00     0.173 HD
BRANCH   8  11
ATOM     11  C   UNL     1      -2.908  11.809  22.041  1.00  0.00     0.240 C 
ATOM     12  C   UNL     1      -2.004  11.182  24.048  1.00  0.00     0.092 C 
ATOM     13  N   UNL     1      -1.669  12.425  23.894  1.00  0.00    -0.089 NA
ATOM     14  C   UNL     1      -2.987  10.675  23.050  1.00  0.00     0.124 C 
ATOM     15  O   UNL     1      -2.330  12.918  22.751  1.00  0.00    -0.376 OA
BRANCH  12  16
ATOM     16  C   UNL     1      -1.480  10.330  25.139  1.00  0.00     0.000 A 
ATOM     17  C   UNL     1      -1.786   9.015  27.147  1.00  0.00     0.017 A 
ATOM     18  C   UNL     1      -0.414   8.748  27.192  1.00  0.00     0.012 A 
ATOM     19  C   UNL     1      -2.323   9.806  26.125  1.00  0.00     0.022 A 
ATOM     20  C   UNL     1       0.425   9.267  26.207  1.00  0.00     0.001 A 
ATOM     21  C   UNL     1      -0.106  10.056  25.185  1.00  0.00     0.010 A 
BRANCH  17  22
ATOM     22  C   UNL     1      -2.678   8.477  28.205  1.00  0.00     0.122 C 
ATOM     23  N   UNL     1      -3.750   9.097  28.582  1.00  0.00    -0.284 NA
ATOM     24  N   UNL     1      -2.378   7.309  28.821  1.00  0.00    -0.384 N 
ATOM     25  H   UNL     1      -3.912   9.939  28.022  1.00  0.00     0.189 HD
ATOM     26  H   UNL     1      -1.529   6.789  28.657  1.00  0.00     0.158 HD
ATOM     27  H   UNL     1      -3.015   6.989  29.540  1.00  0.00     0.158 HD
ENDBRANCH  17  22
ENDBRANCH  12  16
BRANCH  11  28
ATOM     28  C   UNL     1      -2.073  11.521  20.788  1.00  0.00     0.210 C 
BRANCH  28  29
ATOM     29  N   UNL     1      -0.810  12.219  20.753  1.00  0.00    -0.228 N 
ATOM     30  C   UNL     1      -0.494  13.391  20.145  1.00  0.00     0.246 A 
ATOM     31  N   UNL     1       0.268  11.728  21.385  1.00  0.00    -0.045 NA
ATOM     32  N   UNL     1       0.771  13.649  20.382  1.00  0.00    -0.117 NA
ATOM     33  N   UNL     1       1.231  12.609  21.154  1.00  0.00    -0.024 NA
ENDBRANCH  28  29
ENDBRANCH  11  28
ENDBRANCH   8  11
ENDBRANCH   1   7
BRANCH   4  34
ATOM     34  C   UNL     1     -10.767  11.788  21.069  1.00  0.00     0.005 A 
ATOM     35  C   UNL     1     -11.278  11.247  19.872  1.00  0.00     0.010 A 
ATOM     36  C   UNL     1     -11.683  12.402  21.949  1.00  0.00     0.090 A 
ATOM     37  C   UNL     1     -12.640  11.305  19.566  1.00  0.00     0.001 A 
ATOM     38  C   UNL     1     -13.053  12.456  21.641  1.00  0.00     0.022 A 
ATOM     39  C   UNL     1     -13.528  11.908  20.451  1.00  0.00     0.001 A 
BRANCH  36  40
ATOM     40  S   UNL     1     -11.164  13.138  23.481  1.00  0.00     0.238 S 
ATOM     41  O   UNL     1     -10.219  14.196  23.201  1.00  0.00    -0.207 OA
ATOM     42  O   UNL     1     -12.325  13.347  24.312  1.00  0.00    -0.207 OA
BRANCH  40  43
ATOM     43  N   UNL     1     -10.249  11.927  24.196  1.00  0.00    -0.225 NA
ATOM     44  H   UNL     1     -10.676  11.634  25.077  1.00  0.00     0.137 HD
ATOM     45  H   UNL     1      -9.281  12.236  24.297  1.00  0.00     0.137 HD
ENDBRANCH  40  43
ENDBRANCH  36  40
ENDBRANCH   4  34
TORSDOF 9
ENDMDL
MODEL 5
REMARK minimizedAffinity -9.03984451
REMARK CNNscore 0.257624537
REMARK CNNaffinity 7.08562088
REMARK SMILES N=C(N)c1cccc(C2=NO[C@](Cn3cnnn3)(C(=O)Nc3ncc(-c4ccccc4S(N)(=O)=O)cn3)C2)c1
REMARK SMILES IDX 22 1 23 2 24 3 25 4 36 5 37 6 21 7 19 8 20 9 12 11 9 12
REMARK SMILES IDX 10 13 38 14 11 15 8 16 4 17 5 18 39 19 6 20 7 21 2 22 1 23
REMARK SMILES IDX 3 24 13 28 14 29 15 30 18 31 16 32 17 33 26 34 27 35 31 36
REMARK SMILES IDX 28 37 30 38 29 39 32 40 34 41 35 42 33 43
REMARK H PARENT 21 10 1 25 3 26 3 27 33 44 33 45
ROOT
ATOM      1  C   UNL     1      -6.021  10.892  21.140  1.00  0.00     0.229 A 
ATOM      2  N   UNL     1      -5.257  10.755  20.047  1.00  0.00    -0.221 NA
ATOM      3  C   UNL     1      -5.877  10.333  18.922  1.00  0.00     0.125 A 
ATOM      4  C   UNL     1      -7.228  10.054  18.838  1.00  0.00     0.020 A 
ATOM      5  C   UNL     1      -7.910  10.247  20.023  1.00  0.00     0.125 A 
ATOM      6  N   UNL     1      -7.333  10.655  21.173  1.00  0.00    -0.221 NA
ENDROOT
BRANCH   1   7
ATOM      7  N   UNL     1      -5.334  11.338  22.255  1.00  0.00    -0.291 N 
ATOM      8  C   UNL     1      -5.018  12.642  22.559  1.00  0.00     0.276 C 
ATOM      9  O   UNL     1      -5.348  13.638  21.922  1.00  0.00    -0.270 OA
ATOM     10  H   UNL     1      -5.099  10.599  22.904  1.00  0.00     0.173 HD
BRANCH   8  11
ATOM     11  C   UNL     1      -4.117  12.767  23.796  1.00  0.00     0.240 C 
ATOM     12  C   UNL     1      -3.044  11.221  25.098  1.00  0.00     0.092 C 
ATOM     13  N   UNL     1      -4.123  11.528  25.749  1.00  0.00    -0.089 NA
ATOM     14  C   UNL     1      -2.977  11.766  23.713  1.00  0.00     0.124 C 
ATOM     15  O   UNL     1      -4.910  12.358  24.924  1.00  0.00    -0.376 OA
BRANCH  12  16
ATOM     16  C   UNL     1      -1.969  10.377  25.665  1.00  0.00     0.000 A 
ATOM     17  C   UNL     1      -1.198   8.605  27.121  1.00  0.00     0.017 A 
ATOM     18  C   UNL     1       0.122   8.835  26.717  1.00  0.00     0.012 A 
ATOM     19  C   UNL     1      -2.245   9.373  26.600  1.00  0.00     0.022 A 
ATOM     20  C   UNL     1       0.395   9.833  25.782  1.00  0.00     0.001 A 
ATOM     21  C   UNL     1      -0.646  10.601  25.259  1.00  0.00     0.010 A 
BRANCH  17  22
ATOM     22  C   UNL     1      -1.489   7.555  28.130  1.00  0.00     0.122 C 
ATOM     23  N   UNL     1      -2.477   7.653  28.960  1.00  0.00    -0.284 NA
ATOM     24  N   UNL     1      -0.704   6.454  28.214  1.00  0.00    -0.384 N 
ATOM     25  H   UNL     1      -3.035   8.493  28.779  1.00  0.00     0.189 HD
ATOM     26  H   UNL     1       0.134   6.318  27.668  1.00  0.00     0.158 HD
ATOM     27  H   UNL     1      -0.941   5.771  28.922  1.00  0.00     0.158 HD
ENDBRANCH  17  22
ENDBRANCH  12  16
BRANCH  11  28
ATOM     28  C   UNL     1      -3.700  14.231  23.976  1.00  0.00     0.210 C 
BRANCH  28  29
ATOM     29  N   UNL     1      -4.659  15.027  24.704  1.00  0.00    -0.228 N 
ATOM     30  C   UNL     1      -5.703  14.623  25.473  1.00  0.00     0.246 A 
ATOM     31  N   UNL     1      -4.596  16.369  24.688  1.00  0.00    -0.045 NA
ATOM     32  N   UNL     1      -6.303  15.692  25.944  1.00  0.00    -0.117 NA
ATOM     33  N   UNL     1      -5.605  16.768  25.450  1.00  0.00    -0.024 NA
ENDBRANCH  28  29
ENDBRANCH  11  28
ENDBRANCH   8  11
ENDBRANCH   1   7
BRANCH   4  34
ATOM     34  C   UNL     1      -7.891   9.633  17.604  1.00  0.00     0.005 A 
ATOM     35  C   UNL     1      -8.704  10.573  16.938  1.00  0.00     0.010 A 
ATOM     36  C   UNL     1      -7.785   8.346  17.035  1.00  0.00     0.090 A 
ATOM     37  C   UNL     1      -9.376  10.252  15.756  1.00  0.00     0.001 A 
ATOM     38  C   UNL     1      -8.459   8.027  15.845  1.00  0.00     0.022 A 
ATOM     39  C   UNL     1      -9.253   8.980  15.208  1.00  0.00     0.001 A 
BRANCH  36  40
ATOM     40  S   UNL     1      -6.809   7.066  17.787  1.00  0.00     0.238 S 
ATOM     41  O   UNL     1      -5.442   7.183  17.330  1.00  0.00    -0.207 OA
ATOM     42  O   UNL     1      -7.144   6.990  19.189  1.00  0.00    -0.207 OA
BRANCH  40  43
ATOM     43  N   UNL     1      -7.385   5.668  17.059  1.00  0.00    -0.225 NA
ATOM     44  H   UNL     1      -7.801   5.050  17.759  1.00  0.00     0.137 HD
ATOM     45  H   UNL     1      -6.641   5.227  16.518  1.00  0.00     0.137 HD
ENDBRANCH  40  43
ENDBRANCH  36  40
ENDBRANCH   4  34
TORSDOF 9
ENDMDL
MODEL 6
REMARK minimizedAffinity -9.17496109
REMARK CNNscore 0.23707971
REMARK CNNaffinity 6.79922628
REMARK SMILES N=C(N)c1cccc(C2=NO[C@](Cn3cnnn3)(C(=O)Nc3ncc(-c4ccccc4S(N)(=O)=O)cn3)C2)c1
REMARK SMILES IDX 22 1 23 2 24 3 25 4 36 5 37 6 21 7 19 8 20 9 12 11 9 12
REMARK SMILES IDX 10 13 38 14 11 15 8 16 4 17 5 18 39 19 6 20 7 21 2 22 1 23
REMARK SMILES IDX 3 24 13 28 14 29 15 30 18 31 16 32 17 33 26 34 27 35 31 36
REMARK SMILES IDX 28 37 30 38 29 39 32 40 34 41 35 42 33 43
REMARK H PARENT 21 10 1 25 3 26 3 27 33 44 33 45
ROOT
ATOM      1  C   UNL     1      -6.265  11.139  19.957  1.00  0.00     0.229 A 
ATOM      2  N   UNL     1      -6.485  12.129  19.081  1.00  0.00    -0.221 NA
ATOM      3  C   UNL     1      -7.542  11.983  18.251  1.00  0.00     0.125 A 
ATOM      4  C   UNL     1      -8.395  10.895  18.265  1.00  0.00     0.020 A 
ATOM      5  C   UNL     1      -8.075   9.950  19.219  1.00  0.00     0.125 A 
ATOM      6  N   UNL     1      -7.025  10.047  20.062  1.00  0.00    -0.221 NA
ENDROOT
BRANCH   1   7
ATOM      7  N   UNL     1      -5.180  11.351  20.788  1.00  0.00    -0.291 N 
ATOM      8  C   UNL     1      -5.093  12.269  21.809  1.00  0.00     0.276 C 
ATOM      9  O   UNL     1      -5.990  13.012  22.198  1.00  0.00    -0.270 OA
ATOM     10  H   UNL     1      -4.412  10.716  20.616  1.00  0.00     0.173 HD
BRANCH   8  11
ATOM     11  C   UNL     1      -3.691  12.345  22.429  1.00  0.00     0.240 C 
ATOM     12  C   UNL     1      -2.785  11.455  24.334  1.00  0.00     0.092 C 
ATOM     13  N   UNL     1      -3.076  12.683  24.633  1.00  0.00    -0.089 NA
ATOM     14  C   UNL     1      -3.306  10.996  23.016  1.00  0.00     0.124 C 
ATOM     15  O   UNL     1      -3.785  13.241  23.550  1.00  0.00    -0.376 OA
BRANCH  12  16
ATOM     16  C   UNL     1      -2.018  10.562  25.231  1.00  0.00     0.000 A 
ATOM     17  C   UNL     1      -1.866   9.080  27.137  1.00  0.00     0.017 A 
ATOM     18  C   UNL     1      -0.497   8.907  26.905  1.00  0.00     0.012 A 
ATOM     19  C   UNL     1      -2.629   9.906  26.304  1.00  0.00     0.022 A 
ATOM     20  C   UNL     1       0.110   9.558  25.833  1.00  0.00     0.001 A 
ATOM     21  C   UNL     1      -0.647  10.383  24.999  1.00  0.00     0.010 A 
BRANCH  17  22
ATOM     22  C   UNL     1      -2.511   8.401  28.289  1.00  0.00     0.122 C 
ATOM     23  N   UNL     1      -3.645   8.795  28.773  1.00  0.00    -0.284 NA
ATOM     24  N   UNL     1      -1.910   7.341  28.880  1.00  0.00    -0.384 N 
ATOM     25  H   UNL     1      -4.038   9.566  28.225  1.00  0.00     0.189 HD
ATOM     26  H   UNL     1      -0.991   7.005  28.631  1.00  0.00     0.158 HD
ATOM     27  H   UNL     1      -2.388   6.918  29.666  1.00  0.00     0.158 HD
ENDBRANCH  17  22
ENDBRANCH  12  16
BRANCH  11  28
ATOM     28  C   UNL     1      -2.710  12.922  21.402  1.00  0.00     0.210 C 
BRANCH  28  29
ATOM     29  N   UNL     1      -1.432  12.251  21.373  1.00  0.00    -0.228 N 
ATOM     30  C   UNL     1      -1.156  10.939  21.158  1.00  0.00     0.246 A 
ATOM     31  N   UNL     1      -0.291  12.931  21.569  1.00  0.00    -0.045 NA
ATOM     32  N   UNL     1       0.146  10.778  21.216  1.00  0.00    -0.117 NA
ATOM     33  N   UNL     1       0.670  12.023  21.471  1.00  0.00    -0.024 NA
ENDBRANCH  28  29
ENDBRANCH  11  28
ENDBRANCH   8  11
ENDBRANCH   1   7
BRANCH   4  34
ATOM     34  C   UNL     1      -9.556  10.768  17.384  1.00  0.00     0.005 A 
ATOM     35  C   UNL     1     -10.786  11.286  17.835  1.00  0.00     0.010 A 
ATOM     36  C   UNL     1      -9.536  10.150  16.115  1.00  0.00     0.090 A 
ATOM     37  C   UNL     1     -11.945  11.202  17.058  1.00  0.00     0.001 A 
ATOM     38  C   UNL     1     -10.701  10.071  15.334  1.00  0.00     0.022 A 
ATOM     39  C   UNL     1     -11.902  10.596  15.807  1.00  0.00     0.001 A 
BRANCH  36  40
ATOM     40  S   UNL     1      -8.053   9.441  15.441  1.00  0.00     0.238 S 
ATOM     41  O   UNL     1      -8.333   8.921  14.122  1.00  0.00    -0.207 OA
ATOM     42  O   UNL     1      -6.953  10.342  15.692  1.00  0.00    -0.207 OA
BRANCH  40  43
ATOM     43  N   UNL     1      -7.811   8.081  16.394  1.00  0.00    -0.225 NA
ATOM     44  H   UNL     1      -6.929   8.157  16.904  1.00  0.00     0.137 HD
ATOM     45  H   UNL     1      -7.878   7.240  15.820  1.00  0.00     0.137 HD
ENDBRANCH  40  43
ENDBRANCH  36  40
ENDBRANCH   4  34
TORSDOF 9
ENDMDL
MODEL 7
REMARK minimizedAffinity -7.97917175
REMARK CNNscore 0.235950619
REMARK CNNaffinity 6.17871618
REMARK SMILES N=C(N)c1cccc(C2=NO[C@](Cn3cnnn3)(C(=O)Nc3ncc(-c4ccccc4S(N)(=O)=O)cn3)C2)c1
REMARK SMILES IDX 22 1 23 2 24 3 25 4 36 5 37 6 21 7 19 8 20 9 12 11 9 12
REMARK SMILES IDX 10 13 38 14 11 15 8 16 4 17 5 18 39 19 6 20 7 21 2 22 1 23
REMARK SMILES IDX 3 24 13 28 14 29 15 30 18 31 16 32 17 33 26 34 27 35 31 36
REMARK SMILES IDX 28 37 30 38 29 39 32 40 34 41 35 42 33 43
REMARK H PARENT 21 10 1 25 3 26 3 27 33 44 33 45
ROOT
ATOM      1  C   UNL     1      -8.447  16.017  25.219  1.00  0.00     0.229 A 
ATOM      2  N   UNL     1      -9.687  15.776  24.771  1.00  0.00    -0.221 NA
ATOM      3  C   UNL     1     -10.651  16.643  25.154  1.00  0.00     0.125 A 
ATOM      4  C   UNL     1     -10.429  17.746  25.957  1.00  0.00     0.020 A 
ATOM      5  C   UNL     1      -9.112  17.896  26.342  1.00  0.00     0.125 A 
ATOM      6  N   UNL     1      -8.118  17.051  25.995  1.00  0.00    -0.221 NA
ENDROOT
BRANCH   1   7
ATOM      7  N   UNL     1      -7.503  15.105  24.784  1.00  0.00    -0.291 N 
ATOM      8  C   UNL     1      -6.216  14.967  25.251  1.00  0.00     0.276 C 
ATOM      9  O   UNL     1      -5.709  15.591  26.179  1.00  0.00    -0.270 OA
ATOM     10  H   UNL     1      -7.853  14.468  24.080  1.00  0.00     0.173 HD
BRANCH   8  11
ATOM     11  C   UNL     1      -5.389  13.959  24.442  1.00  0.00     0.240 C 
ATOM     12  C   UNL     1      -3.493  12.769  24.918  1.00  0.00     0.092 C 
ATOM     13  N   UNL     1      -3.093  13.786  24.220  1.00  0.00    -0.089 NA
ATOM     14  C   UNL     1      -4.920  12.828  25.342  1.00  0.00     0.124 C 
ATOM     15  O   UNL     1      -4.195  14.646  24.029  1.00  0.00    -0.376 OA
BRANCH  12  16
ATOM     16  C   UNL     1      -2.607  11.644  25.293  1.00  0.00     0.000 A 
ATOM     17  C   UNL     1      -2.094   9.691  26.626  1.00  0.00     0.017 A 
ATOM     18  C   UNL     1      -0.866   9.555  25.970  1.00  0.00     0.012 A 
ATOM     19  C   UNL     1      -2.966  10.734  26.293  1.00  0.00     0.022 A 
ATOM     20  C   UNL     1      -0.511  10.460  24.971  1.00  0.00     0.001 A 
ATOM     21  C   UNL     1      -1.377  11.501  24.634  1.00  0.00     0.010 A 
BRANCH  17  22
ATOM     22  C   UNL     1      -2.466   8.739  27.703  1.00  0.00     0.122 C 
ATOM     23  N   UNL     1      -3.259   9.069  28.670  1.00  0.00    -0.284 NA
ATOM     24  N   UNL     1      -1.964   7.481  27.704  1.00  0.00    -0.384 N 
ATOM     25  H   UNL     1      -3.622  10.020  28.549  1.00  0.00     0.189 HD
ATOM     26  H   UNL     1      -1.278   7.149  27.041  1.00  0.00     0.158 HD
ATOM     27  H   UNL     1      -2.243   6.873  28.463  1.00  0.00     0.158 HD
ENDBRANCH  17  22
ENDBRANCH  12  16
BRANCH  11  28
ATOM     28  C   UNL     1      -6.180  13.531  23.200  1.00  0.00     0.210 C 
BRANCH  28  29
ATOM     29  N   UNL     1      -5.368  12.931  22.168  1.00  0.00    -0.228 N 
ATOM     30  C   UNL     1      -5.045  11.626  21.980  1.00  0.00     0.246 A 
ATOM     31  N   UNL     1      -4.810  13.683  21.205  1.00  0.00    -0.045 NA
ATOM     32  N   UNL     1      -4.288  11.540  20.911  1.00  0.00    -0.117 NA
ATOM     33  N   UNL     1      -4.152  12.824  20.439  1.00  0.00    -0.024 NA
ENDBRANCH  28  29
ENDBRANCH  11  28
ENDBRANCH   8  11
ENDBRANCH   1   7
BRANCH   4  34
ATOM     34  C   UNL     1     -11.476  18.695  26.333  1.00  0.00     0.005 A 
ATOM     35  C   UNL     1     -11.626  19.857  25.550  1.00  0.00     0.010 A 
ATOM     36  C   UNL     1     -12.343  18.537  27.436  1.00  0.00     0.090 A 
ATOM     37  C   UNL     1     -12.599  20.817  25.843  1.00  0.00     0.001 A 
ATOM     38  C   UNL     1     -13.323  19.501  27.726  1.00  0.00     0.022 A 
ATOM     39  C   UNL     1     -13.448  20.638  26.930  1.00  0.00     0.001 A 
BRANCH  36  40
ATOM     40  S   UNL     1     -12.244  17.126  28.512  1.00  0.00     0.238 S 
ATOM     41  O   UNL     1     -13.282  17.221  29.514  1.00  0.00    -0.207 OA
ATOM     42  O   UNL     1     -12.061  15.942  27.708  1.00  0.00    -0.207 OA
BRANCH  40  43
ATOM     43  N   UNL     1     -10.814  17.386  29.351  1.00  0.00    -0.225 NA
ATOM     44  H   UNL     1     -10.147  16.637  29.155  1.00  0.00     0.137 HD
ATOM     45  H   UNL     1     -11.013  17.503  30.346  1.00  0.00     0.137 HD
ENDBRANCH  40  43
ENDBRANCH  36  40
ENDBRANCH   4  34
TORSDOF 9
ENDMDL
MODEL 8
REMARK minimizedAffinity -8.49943066
REMARK CNNscore 0.233555436
REMARK CNNaffinity 6.6423316
REMARK SMILES N=C(N)c1cccc(C2=NO[C@](Cn3cnnn3)(C(=O)Nc3ncc(-c4ccccc4S(N)(=O)=O)cn3)C2)c1
REMARK SMILES IDX 22 1 23 2 24 3 25 4 36 5 37 6 21 7 19 8 20 9 12 11 9 12
REMARK SMILES IDX 10 13 38 14 11 15 8 16 4 17 5 18 39 19 6 20 7 21 2 22 1 23
REMARK SMILES IDX 3 24 13 28 14 29 15 30 18 31 16 32 17 33 26 34 27 35 31 36
REMARK SMILES IDX 28 37 30 38 29 39 32 40 34 41 35 42 33 43
REMARK H PARENT 21 10 1 25 3 26 3 27 33 44 33 45
ROOT
ATOM      1  C   UNL     1      -5.894  15.755  24.296  1.00  0.00     0.229 A 
ATOM      2  N   UNL     1      -6.081  16.794  23.470  1.00  0.00    -0.221 NA
ATOM      3  C   UNL     1      -6.961  17.739  23.872  1.00  0.00     0.125 A 
ATOM      4  C   UNL     1      -7.655  17.696  25.067  1.00  0.00     0.020 A 
ATOM      5  C   UNL     1      -7.367  16.586  25.837  1.00  0.00     0.125 A 
ATOM      6  N   UNL     1      -6.505  15.613  25.473  1.00  0.00    -0.221 NA
ENDROOT
BRANCH   1   7
ATOM      7  N   UNL     1      -4.973  14.830  23.838  1.00  0.00    -0.291 N 
ATOM      8  C   UNL     1      -5.250  13.615  23.254  1.00  0.00     0.276 C 
ATOM      9  O   UNL     1      -6.364  13.176  22.983  1.00  0.00    -0.270 OA
ATOM     10  H   UNL     1      -4.014  15.140  23.925  1.00  0.00     0.173 HD
BRANCH   8  11
ATOM     11  C   UNL     1      -3.993  12.770  23.004  1.00  0.00     0.240 C 
ATOM     12  C   UNL     1      -2.559  11.668  24.407  1.00  0.00     0.092 C 
ATOM     13  N   UNL     1      -1.968  12.786  24.121  1.00  0.00    -0.089 NA
ATOM     14  C   UNL     1      -3.972  11.576  23.944  1.00  0.00     0.124 C 
ATOM     15  O   UNL     1      -2.870  13.583  23.387  1.00  0.00    -0.376 OA
BRANCH  12  16
ATOM     16  C   UNL     1      -1.903  10.572  25.155  1.00  0.00     0.000 A 
ATOM     17  C   UNL     1      -1.836   8.980  26.976  1.00  0.00     0.017 A 
ATOM     18  C   UNL     1      -0.591   8.518  26.537  1.00  0.00     0.012 A 
ATOM     19  C   UNL     1      -2.495  10.007  26.290  1.00  0.00     0.022 A 
ATOM     20  C   UNL     1      -0.004   9.078  25.404  1.00  0.00     0.001 A 
ATOM     21  C   UNL     1      -0.658  10.102  24.715  1.00  0.00     0.010 A 
BRANCH  17  22
ATOM     22  C   UNL     1      -2.454   8.397  28.194  1.00  0.00     0.122 C 
ATOM     23  N   UNL     1      -3.570   8.837  28.677  1.00  0.00    -0.284 NA
ATOM     24  N   UNL     1      -1.844   7.378  28.846  1.00  0.00    -0.384 N 
ATOM     25  H   UNL     1      -3.973   9.569  28.084  1.00  0.00     0.189 HD
ATOM     26  H   UNL     1      -0.935   7.015  28.598  1.00  0.00     0.158 HD
ATOM     27  H   UNL     1      -2.303   7.020  29.674  1.00  0.00     0.158 HD
ENDBRANCH  17  22
ENDBRANCH  12  16
BRANCH  11  28
ATOM     28  C   UNL     1      -3.890  12.438  21.511  1.00  0.00     0.210 C 
BRANCH  28  29
ATOM     29  N   UNL     1      -4.789  11.394  21.082  1.00  0.00    -0.228 N 
ATOM     30  C   UNL     1      -5.885  11.478  20.284  1.00  0.00     0.246 A 
ATOM     31  N   UNL     1      -4.602  10.120  21.466  1.00  0.00    -0.045 NA
ATOM     32  N   UNL     1      -6.395  10.275  20.158  1.00  0.00    -0.117 NA
ATOM     33  N   UNL     1      -5.587   9.442  20.895  1.00  0.00    -0.024 NA
ENDBRANCH  28  29
ENDBRANCH  11  28
ENDBRANCH   8  11
ENDBRANCH   1   7
BRANCH   4  34
ATOM     34  C   UNL     1      -8.577  18.744  25.503  1.00  0.00     0.005 A 
ATOM     35  C   UNL     1      -8.040  19.851  26.189  1.00  0.00     0.010 A 
ATOM     36  C   UNL     1      -9.973  18.719  25.298  1.00  0.00     0.090 A 
ATOM     37  C   UNL     1      -8.852  20.894  26.644  1.00  0.00     0.001 A 
ATOM     38  C   UNL     1     -10.786  19.771  25.753  1.00  0.00     0.022 A 
ATOM     39  C   UNL     1     -10.224  20.854  26.425  1.00  0.00     0.001 A 
BRANCH  36  40
ATOM     40  S   UNL     1     -10.775  17.371  24.465  1.00  0.00     0.238 S 
ATOM     41  O   UNL     1     -12.199  17.619  24.421  1.00  0.00    -0.207 OA
ATOM     42  O   UNL     1     -10.018  17.041  23.281  1.00  0.00    -0.207 OA
BRANCH  40  43
ATOM     43  N   UNL     1     -10.597  16.096  25.542  1.00  0.00    -0.225 NA
ATOM     44  H   UNL     1     -10.041  15.350  25.119  1.00  0.00     0.137 HD
ATOM     45  H   UNL     1     -11.514  15.785  25.865  1.00  0.00     0.137 HD
ENDBRANCH  40  43
ENDBRANCH  36  40
ENDBRANCH   4  34
TORSDOF 9
ENDMDL
MODEL 9
REMARK minimizedAffinity -8.19400311
REMARK CNNscore 0.230673313
REMARK CNNaffinity 6.71810389
REMARK SMILES N=C(N)c1cccc(C2=NO[C@](Cn3cnnn3)(C(=O)Nc3ncc(-c4ccccc4S(N)(=O)=O)cn3)C2)c1
REMARK SMILES IDX 22 1 23 2 24 3 25 4 36 5 37 6 21 7 19 8 20 9 12 11 9 12
REMARK SMILES IDX 10 13 38 14 11 15 8 16 4 17 5 18 39 19 6 20 7 21 2 22 1 23
REMARK SMILES IDX 3 24 13 28 14 29 15 30 18 31 16 32 17 33 26 34 27 35 31 36
REMARK SMILES IDX 28 37 30 38 29 39 32 40 34 41 35 42 33 43
REMARK H PARENT 21 10 1 25 3 26 3 27 33 44 33 45
ROOT
ATOM      1  C   UNL     1      -6.757  15.076  23.601  1.00  0.00     0.229 A 
ATOM      2  N   UNL     1      -7.286  14.821  24.806  1.00  0.00    -0.221 NA
ATOM      3  C   UNL     1      -8.483  15.386  25.076  1.00  0.00     0.125 A 
ATOM      4  C   UNL     1      -9.181  16.188  24.192  1.00  0.00     0.020 A 
ATOM      5  C   UNL     1      -8.542  16.366  22.981  1.00  0.00     0.125 A 
ATOM      6  N   UNL     1      -7.342  15.831  22.669  1.00  0.00    -0.221 NA
ENDROOT
BRANCH   1   7
ATOM      7  N   UNL     1      -5.539  14.460  23.377  1.00  0.00    -0.291 N 
ATOM      8  C   UNL     1      -5.330  13.259  22.742  1.00  0.00     0.276 C 
ATOM      9  O   UNL     1      -6.187  12.559  22.209  1.00  0.00    -0.270 OA
ATOM     10  H   UNL     1      -4.748  15.007  23.693  1.00  0.00     0.173 HD
BRANCH   8  11
ATOM     11  C   UNL     1      -3.867  12.795  22.801  1.00  0.00     0.240 C 
ATOM     12  C   UNL     1      -2.620  11.799  24.441  1.00  0.00     0.092 C 
ATOM     13  N   UNL     1      -2.312  13.057  24.493  1.00  0.00    -0.089 NA
ATOM     14  C   UNL     1      -3.769  11.476  23.549  1.00  0.00     0.124 C 
ATOM     15  O   UNL     1      -3.167  13.753  23.613  1.00  0.00    -0.376 OA
BRANCH  12  16
ATOM     16  C   UNL     1      -1.912  10.758  25.220  1.00  0.00     0.000 A 
ATOM     17  C   UNL     1      -1.820   9.134  27.010  1.00  0.00     0.017 A 
ATOM     18  C   UNL     1      -0.501   8.818  26.668  1.00  0.00     0.012 A 
ATOM     19  C   UNL     1      -2.528  10.103  26.292  1.00  0.00     0.022 A 
ATOM     20  C   UNL     1       0.111   9.468  25.598  1.00  0.00     0.001 A 
ATOM     21  C   UNL     1      -0.592  10.435  24.877  1.00  0.00     0.010 A 
BRANCH  17  22
ATOM     22  C   UNL     1      -2.467   8.454  28.162  1.00  0.00     0.122 C 
ATOM     23  N   UNL     1      -3.596   8.855  28.651  1.00  0.00    -0.284 NA
ATOM     24  N   UNL     1      -1.873   7.386  28.745  1.00  0.00    -0.384 N 
ATOM     25  H   UNL     1      -3.984   9.633  28.109  1.00  0.00     0.189 HD
ATOM     26  H   UNL     1      -0.958   7.044  28.491  1.00  0.00     0.158 HD
ATOM     27  H   UNL     1      -2.352   6.963  29.530  1.00  0.00     0.158 HD
ENDBRANCH  17  22
ENDBRANCH  12  16
BRANCH  11  28
ATOM     28  C   UNL     1      -3.273  12.800  21.388  1.00  0.00     0.210 C 
BRANCH  28  29
ATOM     29  N   UNL     1      -3.657  11.662  20.589  1.00  0.00    -0.228 N 
ATOM     30  C   UNL     1      -3.339  10.352  20.752  1.00  0.00     0.246 A 
ATOM     31  N   UNL     1      -4.444  11.809  19.510  1.00  0.00    -0.045 NA
ATOM     32  N   UNL     1      -3.914   9.667  19.790  1.00  0.00    -0.117 NA
ATOM     33  N   UNL     1      -4.597  10.584  19.028  1.00  0.00    -0.024 NA
ENDBRANCH  28  29
ENDBRANCH  11  28
ENDBRANCH   8  11
ENDBRANCH   1   7
BRANCH   4  34
ATOM     34  C   UNL     1     -10.493  16.763  24.486  1.00  0.00     0.005 A 
ATOM     35  C   UNL     1     -11.632  16.090  24.002  1.00  0.00     0.010 A 
ATOM     36  C   UNL     1     -10.701  17.956  25.212  1.00  0.00     0.090 A 
ATOM     37  C   UNL     1     -12.923  16.574  24.234  1.00  0.00     0.001 A 
ATOM     38  C   UNL     1     -11.999  18.438  25.448  1.00  0.00     0.022 A 
ATOM     39  C   UNL     1     -13.106  17.748  24.958  1.00  0.00     0.001 A 
BRANCH  36  40
ATOM     40  S   UNL     1      -9.347  18.908  25.859  1.00  0.00     0.238 S 
ATOM     41  O   UNL     1      -8.312  19.003  24.855  1.00  0.00    -0.207 OA
ATOM     42  O   UNL     1      -9.878  20.073  26.526  1.00  0.00    -0.207 OA
BRANCH  40  43
ATOM     43  N   UNL     1      -8.705  17.905  27.042  1.00  0.00    -0.225 NA
ATOM     44  H   UNL     1      -8.782  18.346  27.960  1.00  0.00     0.137 HD
ATOM     45  H   UNL     1      -7.750  17.645  26.794  1.00  0.00     0.137 HD
ENDBRANCH  40  43
ENDBRANCH  36  40
ENDBRANCH   4  34
TORSDOF 9
ENDMDL
