MODEL 1
REMARK minimizedAffinity -11.1711769
REMARK CNNscore 0.97099787
REMARK CNNaffinity 8.8703928
REMARK SMILES C[C@H](C(=O)Nc1cccc2c(-c3nc(Nc4cccc(S(C)(=O)=O)c4F)ncc3F)c[nH]c12)N1CCN(C)CC1
REMARK SMILES IDX 6 1 7 2 8 3 9 4 10 5 11 6 31 7 32 8 33 9 5 11 3 12 4 13 2 15
REMARK SMILES IDX 1 16 34 17 35 18 40 19 36 20 39 21 37 22 38 23 12 24 13 25
REMARK SMILES IDX 29 26 14 27 28 28 27 29 30 30 15 31 16 33 17 34 25 35 18 36
REMARK SMILES IDX 20 37 19 38 26 39 21 40 23 41 24 42 22 43
REMARK H PARENT 32 10 5 14 15 32
ROOT
ATOM      1  C   UNL     1     -16.238  16.555  20.990  1.00  0.00     0.065 A 
ATOM      2  C   UNL     1     -15.200  17.375  21.470  1.00  0.00     0.028 A 
ATOM      3  C   UNL     1     -13.870  16.966  21.448  1.00  0.00     0.003 A 
ATOM      4  C   UNL     1     -13.526  15.715  20.936  1.00  0.00     0.011 A 
ATOM      5  C   UNL     1     -14.534  14.855  20.450  1.00  0.00     0.011 A 
ATOM      6  C   UNL     1     -14.520  13.543  19.862  1.00  0.00     0.029 A 
ATOM      7  C   UNL     1     -15.835  13.213  19.602  1.00  0.00     0.094 A 
ATOM      8  N   UNL     1     -16.622  14.266  19.979  1.00  0.00    -0.359 N 
ATOM      9  C   UNL     1     -15.864  15.294  20.495  1.00  0.00     0.070 A 
ATOM     10  H   UNL     1     -17.634  14.309  19.901  1.00  0.00     0.166 HD
ENDROOT
BRANCH   1  11
ATOM     11  N   UNL     1     -17.536  17.092  21.036  1.00  0.00    -0.323 N 
ATOM     12  C   UNL     1     -18.215  17.692  22.080  1.00  0.00     0.241 C 
ATOM     13  O   UNL     1     -17.762  17.928  23.199  1.00  0.00    -0.273 OA
ATOM     14  H   UNL     1     -18.084  17.071  20.177  1.00  0.00     0.170 HD
BRANCH  12  15
ATOM     15  C   UNL     1     -19.704  17.956  21.720  1.00  0.00     0.143 C 
ATOM     16  C   UNL     1     -20.519  18.260  22.981  1.00  0.00     0.035 C 
BRANCH  15  17
ATOM     17  N   UNL     1     -19.788  18.958  20.617  1.00  0.00    -0.290 NA
ATOM     18  C   UNL     1     -18.714  19.975  20.660  1.00  0.00     0.101 C 
ATOM     19  C   UNL     1     -21.098  19.644  20.608  1.00  0.00     0.101 C 
ATOM     20  C   UNL     1     -18.826  20.985  19.491  1.00  0.00     0.099 C 
ATOM     21  C   UNL     1     -21.217  20.665  19.451  1.00  0.00     0.099 C 
ATOM     22  N   UNL     1     -20.134  21.665  19.479  1.00  0.00    -0.304 NA
ATOM     23  C   UNL     1     -20.237  22.578  18.343  1.00  0.00     0.105 C 
ENDBRANCH  15  17
ENDBRANCH  12  15
ENDBRANCH   1  11
BRANCH   6  24
ATOM     24  C   UNL     1     -13.392  12.661  19.588  1.00  0.00     0.114 A 
ATOM     25  N   UNL     1     -12.182  13.268  19.517  1.00  0.00    -0.210 NA
ATOM     26  C   UNL     1     -13.544  11.306  19.397  1.00  0.00     0.167 A 
ATOM     27  C   UNL     1     -11.109  12.510  19.255  1.00  0.00     0.228 A 
ATOM     28  C   UNL     1     -12.395  10.609  19.130  1.00  0.00     0.156 A 
ATOM     29  N   UNL     1     -11.176  11.182  19.054  1.00  0.00    -0.218 NA
ATOM     30  F   UNL     1     -14.724  10.674  19.437  1.00  0.00    -0.203 F 
BRANCH  27  31
ATOM     31  N   UNL     1      -9.838  13.057  19.147  1.00  0.00    -0.322 N 
ATOM     32  H   UNL     1      -9.282  12.512  18.501  1.00  0.00     0.170 HD
BRANCH  31  33
ATOM     33  C   UNL     1      -9.208  14.178  19.705  1.00  0.00     0.078 A 
ATOM     34  C   UNL     1      -9.896  15.265  20.258  1.00  0.00     0.029 A 
ATOM     35  C   UNL     1      -7.804  14.235  19.693  1.00  0.00     0.165 A 
ATOM     36  C   UNL     1      -9.210  16.371  20.776  1.00  0.00     0.004 A 
ATOM     37  C   UNL     1      -7.119  15.330  20.208  1.00  0.00     0.104 A 
ATOM     38  C   UNL     1      -7.818  16.409  20.750  1.00  0.00     0.023 A 
ATOM     39  F   UNL     1      -7.130  13.200  19.164  1.00  0.00    -0.203 F 
BRANCH  37  40
ATOM     40  S   UNL     1      -5.358  15.348  20.161  1.00  0.00     0.178 S 
ATOM     41  O   UNL     1      -4.920  13.966  20.057  1.00  0.00    -0.224 OA
ATOM     42  O   UNL     1      -4.908  16.180  21.260  1.00  0.00    -0.224 OA
ATOM     43  C   UNL     1      -4.924  16.130  18.630  1.00  0.00     0.164 C 
ENDBRANCH  37  40
ENDBRANCH  31  33
ENDBRANCH  27  31
ENDBRANCH   6  24
TORSDOF 7
ENDMDL
MODEL 2
REMARK minimizedAffinity -10.1397228
REMARK CNNscore 0.920753777
REMARK CNNaffinity 8.71673203
REMARK SMILES C[C@H](C(=O)Nc1cccc2c(-c3nc(Nc4cccc(S(C)(=O)=O)c4F)ncc3F)c[nH]c12)N1CCN(C)CC1
REMARK SMILES IDX 6 1 7 2 8 3 9 4 10 5 11 6 31 7 32 8 33 9 5 11 3 12 4 13 2 15
REMARK SMILES IDX 1 16 34 17 35 18 40 19 36 20 39 21 37 22 38 23 12 24 13 25
REMARK SMILES IDX 29 26 14 27 28 28 27 29 30 30 15 31 16 33 17 34 25 35 18 36
REMARK SMILES IDX 20 37 19 38 26 39 21 40 23 41 24 42 22 43
REMARK H PARENT 32 10 5 14 15 32
ROOT
ATOM      1  C   UNL     1     -16.302  16.940  20.832  1.00  0.00     0.065 A 
ATOM      2  C   UNL     1     -15.422  17.543  21.749  1.00  0.00     0.028 A 
ATOM      3  C   UNL     1     -14.177  16.994  22.042  1.00  0.00     0.003 A 
ATOM      4  C   UNL     1     -13.762  15.817  21.421  1.00  0.00     0.011 A 
ATOM      5  C   UNL     1     -14.615  15.172  20.499  1.00  0.00     0.011 A 
ATOM      6  C   UNL     1     -14.492  13.985  19.697  1.00  0.00     0.029 A 
ATOM      7  C   UNL     1     -15.677  13.856  18.999  1.00  0.00     0.094 A 
ATOM      8  N   UNL     1     -16.481  14.913  19.325  1.00  0.00    -0.359 N 
ATOM      9  C   UNL     1     -15.865  15.746  20.233  1.00  0.00     0.070 A 
ATOM     10  H   UNL     1     -17.414  15.085  18.961  1.00  0.00     0.166 HD
ENDROOT
BRANCH   1  11
ATOM     11  N   UNL     1     -17.518  17.607  20.595  1.00  0.00    -0.323 N 
ATOM     12  C   UNL     1     -18.425  18.146  21.488  1.00  0.00     0.241 C 
ATOM     13  O   UNL     1     -18.299  18.195  22.710  1.00  0.00    -0.273 OA
ATOM     14  H   UNL     1     -17.793  17.749  19.625  1.00  0.00     0.170 HD
BRANCH  12  15
ATOM     15  C   UNL     1     -19.724  18.614  20.773  1.00  0.00     0.143 C 
ATOM     16  C   UNL     1     -20.932  18.479  21.704  1.00  0.00     0.035 C 
BRANCH  15  17
ATOM     17  N   UNL     1     -19.507  19.955  20.154  1.00  0.00    -0.290 NA
ATOM     18  C   UNL     1     -18.163  20.514  20.415  1.00  0.00     0.101 C 
ATOM     19  C   UNL     1     -20.526  20.928  20.602  1.00  0.00     0.101 C 
ATOM     20  C   UNL     1     -17.970  21.897  19.743  1.00  0.00     0.099 C 
ATOM     21  C   UNL     1     -20.337  22.318  19.948  1.00  0.00     0.099 C 
ATOM     22  N   UNL     1     -18.990  22.866  20.186  1.00  0.00    -0.304 NA
ATOM     23  C   UNL     1     -18.820  24.149  19.507  1.00  0.00     0.105 C 
ENDBRANCH  15  17
ENDBRANCH  12  15
ENDBRANCH   1  11
BRANCH   6  24
ATOM     24  C   UNL     1     -13.387  13.039  19.602  1.00  0.00     0.114 A 
ATOM     25  N   UNL     1     -12.158  13.593  19.461  1.00  0.00    -0.210 NA
ATOM     26  C   UNL     1     -13.577  11.676  19.635  1.00  0.00     0.167 A 
ATOM     27  C   UNL     1     -11.103  12.772  19.356  1.00  0.00     0.228 A 
ATOM     28  C   UNL     1     -12.445  10.913  19.517  1.00  0.00     0.156 A 
ATOM     29  N   UNL     1     -11.208  11.431  19.378  1.00  0.00    -0.218 NA
ATOM     30  F   UNL     1     -14.778  11.093  19.751  1.00  0.00    -0.203 F 
BRANCH  27  31
ATOM     31  N   UNL     1      -9.814  13.258  19.191  1.00  0.00    -0.322 N 
ATOM     32  H   UNL     1      -9.284  12.633  18.597  1.00  0.00     0.170 HD
BRANCH  31  33
ATOM     33  C   UNL     1      -9.139  14.403  19.636  1.00  0.00     0.078 A 
ATOM     34  C   UNL     1      -7.922  14.373  20.327  1.00  0.00     0.029 A 
ATOM     35  C   UNL     1      -9.721  15.660  19.398  1.00  0.00     0.165 A 
ATOM     36  C   UNL     1      -7.309  15.552  20.771  1.00  0.00     0.004 A 
ATOM     37  C   UNL     1      -9.115  16.833  19.834  1.00  0.00     0.104 A 
ATOM     38  C   UNL     1      -7.906  16.788  20.529  1.00  0.00     0.023 A 
ATOM     39  F   UNL     1     -10.890  15.705  18.737  1.00  0.00    -0.203 F 
BRANCH  37  40
ATOM     40  S   UNL     1      -9.895  18.380  19.513  1.00  0.00     0.178 S 
ATOM     41  O   UNL     1      -9.875  18.576  18.074  1.00  0.00    -0.224 OA
ATOM     42  O   UNL     1      -9.288  19.358  20.396  1.00  0.00    -0.224 OA
ATOM     43  C   UNL     1     -11.595  18.168  19.969  1.00  0.00     0.164 C 
ENDBRANCH  37  40
ENDBRANCH  31  33
ENDBRANCH  27  31
ENDBRANCH   6  24
TORSDOF 7
ENDMDL
MODEL 3
REMARK minimizedAffinity -11.1330271
REMARK CNNscore 0.911402404
REMARK CNNaffinity 8.66199017
REMARK SMILES C[C@H](C(=O)Nc1cccc2c(-c3nc(Nc4cccc(S(C)(=O)=O)c4F)ncc3F)c[nH]c12)N1CCN(C)CC1
REMARK SMILES IDX 6 1 7 2 8 3 9 4 10 5 11 6 31 7 32 8 33 9 5 11 3 12 4 13 2 15
REMARK SMILES IDX 1 16 34 17 35 18 40 19 36 20 39 21 37 22 38 23 12 24 13 25
REMARK SMILES IDX 29 26 14 27 28 28 27 29 30 30 15 31 16 33 17 34 25 35 18 36
REMARK SMILES IDX 20 37 19 38 26 39 21 40 23 41 24 42 22 43
REMARK H PARENT 32 10 5 14 15 32
ROOT
ATOM      1  C   UNL     1     -16.100  17.338  21.022  1.00  0.00     0.065 A 
ATOM      2  C   UNL     1     -15.086  17.901  21.818  1.00  0.00     0.028 A 
ATOM      3  C   UNL     1     -13.862  17.266  22.007  1.00  0.00     0.003 A 
ATOM      4  C   UNL     1     -13.605  16.038  21.398  1.00  0.00     0.011 A 
ATOM      5  C   UNL     1     -14.595  15.430  20.597  1.00  0.00     0.011 A 
ATOM      6  C   UNL     1     -14.647  14.210  19.839  1.00  0.00     0.029 A 
ATOM      7  C   UNL     1     -15.905  14.151  19.271  1.00  0.00     0.094 A 
ATOM      8  N   UNL     1     -16.588  15.279  19.631  1.00  0.00    -0.359 N 
ATOM      9  C   UNL     1     -15.820  16.093  20.435  1.00  0.00     0.070 A 
ATOM     10  H   UNL     1     -17.538  15.512  19.356  1.00  0.00     0.166 HD
ENDROOT
BRANCH   1  11
ATOM     11  N   UNL     1     -17.280  18.090  20.881  1.00  0.00    -0.323 N 
ATOM     12  C   UNL     1     -18.332  18.268  21.760  1.00  0.00     0.241 C 
ATOM     13  O   UNL     1     -18.403  17.825  22.905  1.00  0.00    -0.273 OA
ATOM     14  H   UNL     1     -17.402  18.615  20.017  1.00  0.00     0.170 HD
BRANCH  12  15
ATOM     15  C   UNL     1     -19.513  19.030  21.095  1.00  0.00     0.143 C 
ATOM     16  C   UNL     1     -19.308  19.128  19.581  1.00  0.00     0.035 C 
BRANCH  15  17
ATOM     17  N   UNL     1     -20.811  18.452  21.554  1.00  0.00    -0.290 NA
ATOM     18  C   UNL     1     -21.970  18.890  20.747  1.00  0.00     0.101 C 
ATOM     19  C   UNL     1     -21.069  18.768  22.976  1.00  0.00     0.101 C 
ATOM     20  C   UNL     1     -23.294  18.257  21.244  1.00  0.00     0.099 C 
ATOM     21  C   UNL     1     -22.396  18.152  23.481  1.00  0.00     0.099 C 
ATOM     22  N   UNL     1     -23.550  18.568  22.663  1.00  0.00    -0.304 NA
ATOM     23  C   UNL     1     -24.777  17.924  23.125  1.00  0.00     0.105 C 
ENDBRANCH  15  17
ENDBRANCH  12  15
ENDBRANCH   1  11
BRANCH   6  24
ATOM     24  C   UNL     1     -13.633  13.176  19.674  1.00  0.00     0.114 A 
ATOM     25  N   UNL     1     -12.357  13.624  19.573  1.00  0.00    -0.210 NA
ATOM     26  C   UNL     1     -13.947  11.838  19.606  1.00  0.00     0.167 A 
ATOM     27  C   UNL     1     -11.381  12.720  19.407  1.00  0.00     0.228 A 
ATOM     28  C   UNL     1     -12.889  10.985  19.431  1.00  0.00     0.156 A 
ATOM     29  N   UNL     1     -11.608  11.397  19.330  1.00  0.00    -0.218 NA
ATOM     30  F   UNL     1     -15.196  11.360  19.679  1.00  0.00    -0.203 F 
BRANCH  27  31
ATOM     31  N   UNL     1     -10.052  13.097  19.278  1.00  0.00    -0.322 N 
ATOM     32  H   UNL     1      -9.557  12.423  18.707  1.00  0.00     0.170 HD
BRANCH  31  33
ATOM     33  C   UNL     1      -9.299  14.189  19.732  1.00  0.00     0.078 A 
ATOM     34  C   UNL     1      -9.856  15.331  20.320  1.00  0.00     0.029 A 
ATOM     35  C   UNL     1      -7.903  14.155  19.572  1.00  0.00     0.165 A 
ATOM     36  C   UNL     1      -9.053  16.402  20.729  1.00  0.00     0.004 A 
ATOM     37  C   UNL     1      -7.101  15.215  19.979  1.00  0.00     0.104 A 
ATOM     38  C   UNL     1      -7.671  16.350  20.557  1.00  0.00     0.023 A 
ATOM     39  F   UNL     1      -7.354  13.065  19.008  1.00  0.00    -0.203 F 
BRANCH  37  40
ATOM     40  S   UNL     1      -5.357  15.118  19.748  1.00  0.00     0.178 S 
ATOM     41  O   UNL     1      -5.097  15.410  18.348  1.00  0.00    -0.224 OA
ATOM     42  O   UNL     1      -4.916  13.866  20.331  1.00  0.00    -0.224 OA
ATOM     43  C   UNL     1      -4.671  16.462  20.678  1.00  0.00     0.164 C 
ENDBRANCH  37  40
ENDBRANCH  31  33
ENDBRANCH  27  31
ENDBRANCH   6  24
TORSDOF 7
ENDMDL
MODEL 4
REMARK minimizedAffinity -9.59452438
REMARK CNNscore 0.251190543
REMARK CNNaffinity 7.42973566
REMARK SMILES C[C@H](C(=O)Nc1cccc2c(-c3nc(Nc4cccc(S(C)(=O)=O)c4F)ncc3F)c[nH]c12)N1CCN(C)CC1
REMARK SMILES IDX 6 1 7 2 8 3 9 4 10 5 11 6 31 7 32 8 33 9 5 11 3 12 4 13 2 15
REMARK SMILES IDX 1 16 34 17 35 18 40 19 36 20 39 21 37 22 38 23 12 24 13 25
REMARK SMILES IDX 29 26 14 27 28 28 27 29 30 30 15 31 16 33 17 34 25 35 18 36
REMARK SMILES IDX 20 37 19 38 26 39 21 40 23 41 24 42 22 43
REMARK H PARENT 32 10 5 14 15 32
ROOT
ATOM      1  C   UNL     1      -8.148  16.614  19.898  1.00  0.00     0.065 A 
ATOM      2  C   UNL     1      -8.947  17.771  19.859  1.00  0.00     0.028 A 
ATOM      3  C   UNL     1     -10.335  17.703  19.784  1.00  0.00     0.003 A 
ATOM      4  C   UNL     1     -10.979  16.466  19.748  1.00  0.00     0.011 A 
ATOM      5  C   UNL     1     -10.218  15.278  19.776  1.00  0.00     0.011 A 
ATOM      6  C   UNL     1     -10.559  13.882  19.766  1.00  0.00     0.029 A 
ATOM      7  C   UNL     1      -9.367  13.184  19.792  1.00  0.00     0.094 A 
ATOM      8  N   UNL     1      -8.344  14.090  19.843  1.00  0.00    -0.359 N 
ATOM      9  C   UNL     1      -8.822  15.382  19.844  1.00  0.00     0.070 A 
ATOM     10  H   UNL     1      -7.354  13.867  19.876  1.00  0.00     0.166 HD
ENDROOT
BRANCH   1  11
ATOM     11  N   UNL     1      -6.760  16.812  20.007  1.00  0.00    -0.323 N 
ATOM     12  C   UNL     1      -5.723  16.259  19.279  1.00  0.00     0.241 C 
ATOM     13  O   UNL     1      -5.835  15.502  18.317  1.00  0.00    -0.273 OA
ATOM     14  H   UNL     1      -6.434  17.474  20.709  1.00  0.00     0.170 HD
BRANCH  12  15
ATOM     15  C   UNL     1      -4.338  16.624  19.886  1.00  0.00     0.143 C 
ATOM     16  C   UNL     1      -3.533  17.490  18.913  1.00  0.00     0.035 C 
BRANCH  15  17
ATOM     17  N   UNL     1      -4.517  17.164  21.266  1.00  0.00    -0.290 NA
ATOM     18  C   UNL     1      -5.338  16.297  22.137  1.00  0.00     0.101 C 
ATOM     19  C   UNL     1      -5.107  18.520  21.243  1.00  0.00     0.101 C 
ATOM     20  C   UNL     1      -5.486  16.882  23.564  1.00  0.00     0.099 C 
ATOM     21  C   UNL     1      -5.272  19.110  22.664  1.00  0.00     0.099 C 
ATOM     22  N   UNL     1      -6.071  18.236  23.541  1.00  0.00    -0.304 NA
ATOM     23  C   UNL     1      -6.158  18.789  24.891  1.00  0.00     0.105 C 
ENDBRANCH  15  17
ENDBRANCH  12  15
ENDBRANCH   1  11
BRANCH   6  24
ATOM     24  C   UNL     1     -11.870  13.247  19.711  1.00  0.00     0.114 A 
ATOM     25  N   UNL     1     -12.922  14.059  19.976  1.00  0.00    -0.210 NA
ATOM     26  C   UNL     1     -12.031  11.909  19.427  1.00  0.00     0.167 A 
ATOM     27  C   UNL     1     -14.152  13.529  19.952  1.00  0.00     0.228 A 
ATOM     28  C   UNL     1     -13.322  11.451  19.428  1.00  0.00     0.156 A 
ATOM     29  N   UNL     1     -14.391  12.233  19.685  1.00  0.00    -0.218 NA
ATOM     30  F   UNL     1     -11.016  11.071  19.181  1.00  0.00    -0.203 F 
BRANCH  27  31
ATOM     31  N   UNL     1     -15.280  14.289  20.231  1.00  0.00    -0.322 N 
ATOM     32  H   UNL     1     -15.850  13.819  20.922  1.00  0.00     0.170 HD
BRANCH  31  33
ATOM     33  C   UNL     1     -15.751  15.533  19.789  1.00  0.00     0.078 A 
ATOM     34  C   UNL     1     -16.425  15.728  18.578  1.00  0.00     0.029 A 
ATOM     35  C   UNL     1     -15.518  16.662  20.593  1.00  0.00     0.165 A 
ATOM     36  C   UNL     1     -16.848  17.002  18.179  1.00  0.00     0.004 A 
ATOM     37  C   UNL     1     -15.937  17.929  20.202  1.00  0.00     0.104 A 
ATOM     38  C   UNL     1     -16.602  18.109  18.988  1.00  0.00     0.023 A 
ATOM     39  F   UNL     1     -14.870  16.491  21.758  1.00  0.00    -0.203 F 
BRANCH  37  40
ATOM     40  S   UNL     1     -15.611  19.309  21.247  1.00  0.00     0.178 S 
ATOM     41  O   UNL     1     -15.966  18.912  22.599  1.00  0.00    -0.224 OA
ATOM     42  O   UNL     1     -16.233  20.467  20.635  1.00  0.00    -0.224 OA
ATOM     43  C   UNL     1     -13.851  19.522  21.230  1.00  0.00     0.164 C 
ENDBRANCH  37  40
ENDBRANCH  31  33
ENDBRANCH  27  31
ENDBRANCH   6  24
TORSDOF 7
ENDMDL
MODEL 5
REMARK minimizedAffinity -9.95941734
REMARK CNNscore 0.250835508
REMARK CNNaffinity 7.37817812
REMARK SMILES C[C@H](C(=O)Nc1cccc2c(-c3nc(Nc4cccc(S(C)(=O)=O)c4F)ncc3F)c[nH]c12)N1CCN(C)CC1
REMARK SMILES IDX 6 1 7 2 8 3 9 4 10 5 11 6 31 7 32 8 33 9 5 11 3 12 4 13 2 15
REMARK SMILES IDX 1 16 34 17 35 18 40 19 36 20 39 21 37 22 38 23 12 24 13 25
REMARK SMILES IDX 29 26 14 27 28 28 27 29 30 30 15 31 16 33 17 34 25 35 18 36
REMARK SMILES IDX 20 37 19 38 26 39 21 40 23 41 24 42 22 43
REMARK H PARENT 32 10 5 14 15 32
ROOT
ATOM      1  C   UNL     1      -8.138  16.723  19.818  1.00  0.00     0.065 A 
ATOM      2  C   UNL     1      -8.944  17.872  19.730  1.00  0.00     0.028 A 
ATOM      3  C   UNL     1     -10.331  17.791  19.639  1.00  0.00     0.003 A 
ATOM      4  C   UNL     1     -10.966  16.549  19.637  1.00  0.00     0.011 A 
ATOM      5  C   UNL     1     -10.197  15.368  19.715  1.00  0.00     0.011 A 
ATOM      6  C   UNL     1     -10.528  13.970  19.748  1.00  0.00     0.029 A 
ATOM      7  C   UNL     1      -9.332  13.282  19.813  1.00  0.00     0.094 A 
ATOM      8  N   UNL     1      -8.316  14.197  19.847  1.00  0.00    -0.359 N 
ATOM      9  C   UNL     1      -8.803  15.485  19.797  1.00  0.00     0.070 A 
ATOM     10  H   UNL     1      -7.325  13.982  19.900  1.00  0.00     0.166 HD
ENDROOT
BRANCH   1  11
ATOM     11  N   UNL     1      -6.752  16.934  19.939  1.00  0.00    -0.323 N 
ATOM     12  C   UNL     1      -5.703  16.378  19.230  1.00  0.00     0.241 C 
ATOM     13  O   UNL     1      -5.799  15.604  18.280  1.00  0.00    -0.273 OA
ATOM     14  H   UNL     1      -6.440  17.610  20.633  1.00  0.00     0.170 HD
BRANCH  12  15
ATOM     15  C   UNL     1      -4.328  16.765  19.845  1.00  0.00     0.143 C 
ATOM     16  C   UNL     1      -4.476  17.958  20.793  1.00  0.00     0.035 C 
BRANCH  15  17
ATOM     17  N   UNL     1      -3.664  15.550  20.403  1.00  0.00    -0.290 NA
ATOM     18  C   UNL     1      -3.130  14.641  19.366  1.00  0.00     0.101 C 
ATOM     19  C   UNL     1      -4.578  14.791  21.283  1.00  0.00     0.101 C 
ATOM     20  C   UNL     1      -2.435  13.402  19.984  1.00  0.00     0.099 C 
ATOM     21  C   UNL     1      -3.898  13.543  21.897  1.00  0.00     0.099 C 
ATOM     22  N   UNL     1      -3.345  12.647  20.866  1.00  0.00    -0.304 NA
ATOM     23  C   UNL     1      -2.657  11.511  21.475  1.00  0.00     0.105 C 
ENDBRANCH  15  17
ENDBRANCH  12  15
ENDBRANCH   1  11
BRANCH   6  24
ATOM     24  C   UNL     1     -11.834  13.324  19.698  1.00  0.00     0.114 A 
ATOM     25  N   UNL     1     -12.892  14.129  19.962  1.00  0.00    -0.210 NA
ATOM     26  C   UNL     1     -11.985  11.984  19.419  1.00  0.00     0.167 A 
ATOM     27  C   UNL     1     -14.118  13.588  19.942  1.00  0.00     0.228 A 
ATOM     28  C   UNL     1     -13.272  11.515  19.425  1.00  0.00     0.156 A 
ATOM     29  N   UNL     1     -14.347  12.289  19.681  1.00  0.00    -0.218 NA
ATOM     30  F   UNL     1     -10.963  11.153  19.176  1.00  0.00    -0.203 F 
BRANCH  27  31
ATOM     31  N   UNL     1     -15.252  14.340  20.220  1.00  0.00    -0.322 N 
ATOM     32  H   UNL     1     -15.821  13.863  20.907  1.00  0.00     0.170 HD
BRANCH  31  33
ATOM     33  C   UNL     1     -15.729  15.583  19.781  1.00  0.00     0.078 A 
ATOM     34  C   UNL     1     -16.338  15.791  18.539  1.00  0.00     0.029 A 
ATOM     35  C   UNL     1     -15.571  16.697  20.623  1.00  0.00     0.165 A 
ATOM     36  C   UNL     1     -16.770  17.064  18.146  1.00  0.00     0.004 A 
ATOM     37  C   UNL     1     -16.001  17.962  20.239  1.00  0.00     0.104 A 
ATOM     38  C   UNL     1     -16.600  18.156  18.994  1.00  0.00     0.023 A 
ATOM     39  F   UNL     1     -14.987  16.513  21.820  1.00  0.00    -0.203 F 
BRANCH  37  40
ATOM     40  S   UNL     1     -15.771  19.323  21.334  1.00  0.00     0.178 S 
ATOM     41  O   UNL     1     -16.082  18.850  22.672  1.00  0.00    -0.224 OA
ATOM     42  O   UNL     1     -16.485  20.452  20.770  1.00  0.00    -0.224 OA
ATOM     43  C   UNL     1     -14.033  19.671  21.314  1.00  0.00     0.164 C 
ENDBRANCH  37  40
ENDBRANCH  31  33
ENDBRANCH  27  31
ENDBRANCH   6  24
TORSDOF 7
ENDMDL
MODEL 6
REMARK minimizedAffinity -9.78165531
REMARK CNNscore 0.229585558
REMARK CNNaffinity 7.42752409
REMARK SMILES C[C@H](C(=O)Nc1cccc2c(-c3nc(Nc4cccc(S(C)(=O)=O)c4F)ncc3F)c[nH]c12)N1CCN(C)CC1
REMARK SMILES IDX 6 1 7 2 8 3 9 4 10 5 11 6 31 7 32 8 33 9 5 11 3 12 4 13 2 15
REMARK SMILES IDX 1 16 34 17 35 18 40 19 36 20 39 21 37 22 38 23 12 24 13 25
REMARK SMILES IDX 29 26 14 27 28 28 27 29 30 30 15 31 16 33 17 34 25 35 18 36
REMARK SMILES IDX 20 37 19 38 26 39 21 40 23 41 24 42 22 43
REMARK H PARENT 32 10 5 14 15 32
ROOT
ATOM      1  C   UNL     1      -8.290  16.877  19.794  1.00  0.00     0.065 A 
ATOM      2  C   UNL     1      -9.130  18.001  19.693  1.00  0.00     0.028 A 
ATOM      3  C   UNL     1     -10.514  17.878  19.602  1.00  0.00     0.003 A 
ATOM      4  C   UNL     1     -11.112  16.618  19.613  1.00  0.00     0.011 A 
ATOM      5  C   UNL     1     -10.309  15.461  19.705  1.00  0.00     0.011 A 
ATOM      6  C   UNL     1     -10.598  14.054  19.752  1.00  0.00     0.029 A 
ATOM      7  C   UNL     1      -9.383  13.403  19.826  1.00  0.00     0.094 A 
ATOM      8  N   UNL     1      -8.394  14.347  19.851  1.00  0.00    -0.359 N 
ATOM      9  C   UNL     1      -8.918  15.620  19.787  1.00  0.00     0.070 A 
ATOM     10  H   UNL     1      -7.397  14.162  19.907  1.00  0.00     0.166 HD
ENDROOT
BRANCH   1  11
ATOM     11  N   UNL     1      -6.912  17.130  19.914  1.00  0.00    -0.323 N 
ATOM     12  C   UNL     1      -5.836  16.481  19.339  1.00  0.00     0.241 C 
ATOM     13  O   UNL     1      -5.894  15.554  18.533  1.00  0.00    -0.273 OA
ATOM     14  H   UNL     1      -6.628  17.921  20.490  1.00  0.00     0.170 HD
BRANCH  12  15
ATOM     15  C   UNL     1      -4.484  16.991  19.914  1.00  0.00     0.143 C 
ATOM     16  C   UNL     1      -4.432  16.788  21.431  1.00  0.00     0.035 C 
BRANCH  15  17
ATOM     17  N   UNL     1      -3.351  16.420  19.127  1.00  0.00    -0.290 NA
ATOM     18  C   UNL     1      -3.511  16.576  17.666  1.00  0.00     0.101 C 
ATOM     19  C   UNL     1      -3.145  14.989  19.438  1.00  0.00     0.101 C 
ATOM     20  C   UNL     1      -2.308  15.987  16.886  1.00  0.00     0.099 C 
ATOM     21  C   UNL     1      -1.954  14.386  18.655  1.00  0.00     0.099 C 
ATOM     22  N   UNL     1      -2.099  14.561  17.199  1.00  0.00    -0.304 NA
ATOM     23  C   UNL     1      -0.934  14.037  16.490  1.00  0.00     0.105 C 
ENDBRANCH  15  17
ENDBRANCH  12  15
ENDBRANCH   1  11
BRANCH   6  24
ATOM     24  C   UNL     1     -11.884  13.369  19.708  1.00  0.00     0.114 A 
ATOM     25  N   UNL     1     -12.967  14.149  19.949  1.00  0.00    -0.210 NA
ATOM     26  C   UNL     1     -11.994  12.020  19.458  1.00  0.00     0.167 A 
ATOM     27  C   UNL     1     -14.177  13.572  19.934  1.00  0.00     0.228 A 
ATOM     28  C   UNL     1     -13.268  11.514  19.466  1.00  0.00     0.156 A 
ATOM     29  N   UNL     1     -14.366  12.262  19.699  1.00  0.00    -0.218 NA
ATOM     30  F   UNL     1     -10.947  11.214  19.238  1.00  0.00    -0.203 F 
BRANCH  27  31
ATOM     31  N   UNL     1     -15.334  14.296  20.188  1.00  0.00    -0.322 N 
ATOM     32  H   UNL     1     -15.925  13.785  20.831  1.00  0.00     0.170 HD
BRANCH  31  33
ATOM     33  C   UNL     1     -15.811  15.548  19.776  1.00  0.00     0.078 A 
ATOM     34  C   UNL     1     -16.465  15.773  18.559  1.00  0.00     0.029 A 
ATOM     35  C   UNL     1     -15.606  16.654  20.619  1.00  0.00     0.165 A 
ATOM     36  C   UNL     1     -16.894  17.054  18.191  1.00  0.00     0.004 A 
ATOM     37  C   UNL     1     -16.034  17.928  20.259  1.00  0.00     0.104 A 
ATOM     38  C   UNL     1     -16.677  18.138  19.039  1.00  0.00     0.023 A 
ATOM     39  F   UNL     1     -14.979  16.454  21.790  1.00  0.00    -0.203 F 
BRANCH  37  40
ATOM     40  S   UNL     1     -15.744  19.278  21.353  1.00  0.00     0.178 S 
ATOM     41  O   UNL     1     -16.054  18.813  22.694  1.00  0.00    -0.224 OA
ATOM     42  O   UNL     1     -16.427  20.432  20.799  1.00  0.00    -0.224 OA
ATOM     43  C   UNL     1     -13.995  19.567  21.311  1.00  0.00     0.164 C 
ENDBRANCH  37  40
ENDBRANCH  31  33
ENDBRANCH  27  31
ENDBRANCH   6  24
TORSDOF 7
ENDMDL
MODEL 7
REMARK minimizedAffinity -11.1829062
REMARK CNNscore 0.216047272
REMARK CNNaffinity 6.92459106
REMARK SMILES C[C@H](C(=O)Nc1cccc2c(-c3nc(Nc4cccc(S(C)(=O)=O)c4F)ncc3F)c[nH]c12)N1CCN(C)CC1
REMARK SMILES IDX 6 1 7 2 8 3 9 4 10 5 11 6 31 7 32 8 33 9 5 11 3 12 4 13 2 15
REMARK SMILES IDX 1 16 34 17 35 18 40 19 36 20 39 21 37 22 38 23 12 24 13 25
REMARK SMILES IDX 29 26 14 27 28 28 27 29 30 30 15 31 16 33 17 34 25 35 18 36
REMARK SMILES IDX 20 37 19 38 26 39 21 40 23 41 24 42 22 43
REMARK H PARENT 32 10 5 14 15 32
ROOT
ATOM      1  C   UNL     1      -9.912  14.566  20.001  1.00  0.00     0.065 A 
ATOM      2  C   UNL     1     -10.023  13.195  19.707  1.00  0.00     0.028 A 
ATOM      3  C   UNL     1     -11.260  12.563  19.607  1.00  0.00     0.003 A 
ATOM      4  C   UNL     1     -12.438  13.285  19.795  1.00  0.00     0.011 A 
ATOM      5  C   UNL     1     -12.376  14.662  20.100  1.00  0.00     0.011 A 
ATOM      6  C   UNL     1     -13.371  15.672  20.334  1.00  0.00     0.029 A 
ATOM      7  C   UNL     1     -12.690  16.843  20.604  1.00  0.00     0.094 A 
ATOM      8  N   UNL     1     -11.350  16.586  20.516  1.00  0.00    -0.359 N 
ATOM      9  C   UNL     1     -11.115  15.266  20.201  1.00  0.00     0.070 A 
ATOM     10  H   UNL     1     -10.605  17.262  20.661  1.00  0.00     0.166 HD
ENDROOT
BRANCH   1  11
ATOM     11  N   UNL     1      -8.611  15.097  20.043  1.00  0.00    -0.323 N 
ATOM     12  C   UNL     1      -7.407  14.533  19.666  1.00  0.00     0.241 C 
ATOM     13  O   UNL     1      -7.256  13.429  19.145  1.00  0.00    -0.273 OA
ATOM     14  H   UNL     1      -8.505  16.053  20.380  1.00  0.00     0.170 HD
BRANCH  12  15
ATOM     15  C   UNL     1      -6.202  15.424  20.076  1.00  0.00     0.143 C 
ATOM     16  C   UNL     1      -5.314  15.724  18.865  1.00  0.00     0.035 C 
BRANCH  15  17
ATOM     17  N   UNL     1      -6.685  16.603  20.855  1.00  0.00    -0.290 NA
ATOM     18  C   UNL     1      -6.266  17.900  20.283  1.00  0.00     0.101 C 
ATOM     19  C   UNL     1      -6.246  16.535  22.265  1.00  0.00     0.101 C 
ATOM     20  C   UNL     1      -6.800  19.098  21.108  1.00  0.00     0.099 C 
ATOM     21  C   UNL     1      -6.764  17.733  23.097  1.00  0.00     0.099 C 
ATOM     22  N   UNL     1      -6.367  19.028  22.516  1.00  0.00    -0.304 NA
ATOM     23  C   UNL     1      -6.919  20.139  23.287  1.00  0.00     0.105 C 
ENDBRANCH  15  17
ENDBRANCH  12  15
ENDBRANCH   1  11
BRANCH   6  24
ATOM     24  C   UNL     1     -14.825  15.560  20.335  1.00  0.00     0.114 A 
ATOM     25  N   UNL     1     -15.490  16.623  20.849  1.00  0.00    -0.210 NA
ATOM     26  C   UNL     1     -15.480  14.445  19.863  1.00  0.00     0.167 A 
ATOM     27  C   UNL     1     -16.829  16.573  20.887  1.00  0.00     0.228 A 
ATOM     28  C   UNL     1     -16.847  14.477  19.944  1.00  0.00     0.156 A 
ATOM     29  N   UNL     1     -17.540  15.520  20.447  1.00  0.00    -0.218 NA
ATOM     30  F   UNL     1     -14.856  13.367  19.369  1.00  0.00    -0.203 F 
BRANCH  27  31
ATOM     31  N   UNL     1     -17.584  17.612  21.414  1.00  0.00    -0.322 N 
ATOM     32  H   UNL     1     -17.141  17.968  22.251  1.00  0.00     0.170 HD
BRANCH  31  33
ATOM     33  C   UNL     1     -18.765  18.257  21.020  1.00  0.00     0.078 A 
ATOM     34  C   UNL     1     -18.911  18.949  19.813  1.00  0.00     0.029 A 
ATOM     35  C   UNL     1     -19.867  18.230  21.892  1.00  0.00     0.165 A 
ATOM     36  C   UNL     1     -20.109  19.597  19.487  1.00  0.00     0.004 A 
ATOM     37  C   UNL     1     -21.059  18.870  21.573  1.00  0.00     0.104 A 
ATOM     38  C   UNL     1     -21.188  19.563  20.369  1.00  0.00     0.023 A 
ATOM     39  F   UNL     1     -19.741  17.570  23.056  1.00  0.00    -0.203 F 
BRANCH  37  40
ATOM     40  S   UNL     1     -22.404  18.808  22.708  1.00  0.00     0.178 S 
ATOM     41  O   UNL     1     -22.682  20.175  23.114  1.00  0.00    -0.224 OA
ATOM     42  O   UNL     1     -22.083  17.798  23.699  1.00  0.00    -0.224 OA
ATOM     43  C   UNL     1     -23.806  18.268  21.767  1.00  0.00     0.164 C 
ENDBRANCH  37  40
ENDBRANCH  31  33
ENDBRANCH  27  31
ENDBRANCH   6  24
TORSDOF 7
ENDMDL
MODEL 8
REMARK minimizedAffinity -10.689599
REMARK CNNscore 0.206461862
REMARK CNNaffinity 7.66480017
REMARK SMILES C[C@H](C(=O)Nc1cccc2c(-c3nc(Nc4cccc(S(C)(=O)=O)c4F)ncc3F)c[nH]c12)N1CCN(C)CC1
REMARK SMILES IDX 6 1 7 2 8 3 9 4 10 5 11 6 31 7 32 8 33 9 5 11 3 12 4 13 2 15
REMARK SMILES IDX 1 16 34 17 35 18 40 19 36 20 39 21 37 22 38 23 12 24 13 25
REMARK SMILES IDX 29 26 14 27 28 28 27 29 30 30 15 31 16 33 17 34 25 35 18 36
REMARK SMILES IDX 20 37 19 38 26 39 21 40 23 41 24 42 22 43
REMARK H PARENT 32 10 5 14 15 32
ROOT
ATOM      1  C   UNL     1     -16.460  18.482  21.078  1.00  0.00     0.065 A 
ATOM      2  C   UNL     1     -15.273  19.087  21.528  1.00  0.00     0.028 A 
ATOM      3  C   UNL     1     -14.069  18.389  21.585  1.00  0.00     0.003 A 
ATOM      4  C   UNL     1     -14.008  17.054  21.187  1.00  0.00     0.011 A 
ATOM      5  C   UNL     1     -15.176  16.403  20.735  1.00  0.00     0.011 A 
ATOM      6  C   UNL     1     -15.449  15.076  20.254  1.00  0.00     0.029 A 
ATOM      7  C   UNL     1     -16.801  15.028  19.975  1.00  0.00     0.094 A 
ATOM      8  N   UNL     1     -17.335  16.258  20.239  1.00  0.00    -0.359 N 
ATOM      9  C   UNL     1     -16.373  17.131  20.698  1.00  0.00     0.070 A 
ATOM     10  H   UNL     1     -18.310  16.521  20.122  1.00  0.00     0.166 HD
ENDROOT
BRANCH   1  11
ATOM     11  N   UNL     1     -17.605  19.298  21.035  1.00  0.00    -0.323 N 
ATOM     12  C   UNL     1     -18.691  19.262  20.181  1.00  0.00     0.241 C 
ATOM     13  O   UNL     1     -18.890  18.433  19.296  1.00  0.00    -0.273 OA
ATOM     14  H   UNL     1     -17.689  20.026  21.743  1.00  0.00     0.170 HD
BRANCH  12  15
ATOM     15  C   UNL     1     -19.625  20.487  20.390  1.00  0.00     0.143 C 
ATOM     16  C   UNL     1     -19.822  21.247  19.076  1.00  0.00     0.035 C 
BRANCH  15  17
ATOM     17  N   UNL     1     -20.865  20.062  21.105  1.00  0.00    -0.290 NA
ATOM     18  C   UNL     1     -20.645  18.953  22.059  1.00  0.00     0.101 C 
ATOM     19  C   UNL     1     -21.930  19.674  20.155  1.00  0.00     0.101 C 
ATOM     20  C   UNL     1     -21.950  18.552  22.791  1.00  0.00     0.099 C 
ATOM     21  C   UNL     1     -23.235  19.259  20.876  1.00  0.00     0.099 C 
ATOM     22  N   UNL     1     -23.014  18.170  21.844  1.00  0.00    -0.304 NA
ATOM     23  C   UNL     1     -24.249  17.841  22.552  1.00  0.00     0.105 C 
ENDBRANCH  15  17
ENDBRANCH  12  15
ENDBRANCH   1  11
BRANCH   6  24
ATOM     24  C   UNL     1     -14.545  13.944  20.091  1.00  0.00     0.114 A 
ATOM     25  N   UNL     1     -13.239  14.263  19.914  1.00  0.00    -0.210 NA
ATOM     26  C   UNL     1     -14.987  12.640  20.096  1.00  0.00     0.167 A 
ATOM     27  C   UNL     1     -12.362  13.264  19.746  1.00  0.00     0.228 A 
ATOM     28  C   UNL     1     -14.023  11.684  19.913  1.00  0.00     0.156 A 
ATOM     29  N   UNL     1     -12.716  11.966  19.738  1.00  0.00    -0.218 NA
ATOM     30  F   UNL     1     -16.270  12.288  20.246  1.00  0.00    -0.203 F 
BRANCH  27  31
ATOM     31  N   UNL     1     -11.011  13.505  19.542  1.00  0.00    -0.322 N 
ATOM     32  H   UNL     1     -10.583  12.708  19.088  1.00  0.00     0.170 HD
BRANCH  31  33
ATOM     33  C   UNL     1     -10.166  14.594  19.797  1.00  0.00     0.078 A 
ATOM     34  C   UNL     1     -10.621  15.889  20.073  1.00  0.00     0.029 A 
ATOM     35  C   UNL     1      -8.776  14.389  19.755  1.00  0.00     0.165 A 
ATOM     36  C   UNL     1      -9.726  16.943  20.293  1.00  0.00     0.004 A 
ATOM     37  C   UNL     1      -7.883  15.432  19.976  1.00  0.00     0.104 A 
ATOM     38  C   UNL     1      -8.352  16.719  20.242  1.00  0.00     0.023 A 
ATOM     39  F   UNL     1      -8.323  13.152  19.490  1.00  0.00    -0.203 F 
BRANCH  37  40
ATOM     40  S   UNL     1      -6.151  15.117  19.903  1.00  0.00     0.178 S 
ATOM     41  O   UNL     1      -5.784  15.075  18.498  1.00  0.00    -0.224 OA
ATOM     42  O   UNL     1      -5.886  13.981  20.766  1.00  0.00    -0.224 OA
ATOM     43  C   UNL     1      -5.369  16.554  20.585  1.00  0.00     0.164 C 
ENDBRANCH  37  40
ENDBRANCH  31  33
ENDBRANCH  27  31
ENDBRANCH   6  24
TORSDOF 7
ENDMDL
MODEL 9
REMARK minimizedAffinity -10.4845991
REMARK CNNscore 0.198451459
REMARK CNNaffinity 7.3264389
REMARK SMILES C[C@H](C(=O)Nc1cccc2c(-c3nc(Nc4cccc(S(C)(=O)=O)c4F)ncc3F)c[nH]c12)N1CCN(C)CC1
REMARK SMILES IDX 6 1 7 2 8 3 9 4 10 5 11 6 31 7 32 8 33 9 5 11 3 12 4 13 2 15
REMARK SMILES IDX 1 16 34 17 35 18 40 19 36 20 39 21 37 22 38 23 12 24 13 25
REMARK SMILES IDX 29 26 14 27 28 28 27 29 30 30 15 31 16 33 17 34 25 35 18 36
REMARK SMILES IDX 20 37 19 38 26 39 21 40 23 41 24 42 22 43
REMARK H PARENT 32 10 5 14 15 32
ROOT
ATOM      1  C   UNL     1     -17.352  17.490  21.220  1.00  0.00     0.065 A 
ATOM      2  C   UNL     1     -16.460  18.399  21.817  1.00  0.00     0.028 A 
ATOM      3  C   UNL     1     -15.096  18.135  21.911  1.00  0.00     0.003 A 
ATOM      4  C   UNL     1     -14.572  16.946  21.405  1.00  0.00     0.011 A 
ATOM      5  C   UNL     1     -15.430  16.000  20.804  1.00  0.00     0.011 A 
ATOM      6  C   UNL     1     -15.218  14.719  20.189  1.00  0.00     0.029 A 
ATOM      7  C   UNL     1     -16.460  14.259  19.796  1.00  0.00     0.094 A 
ATOM      8  N   UNL     1     -17.388  15.208  20.122  1.00  0.00    -0.359 N 
ATOM      9  C   UNL     1     -16.799  16.293  20.732  1.00  0.00     0.070 A 
ATOM     10  H   UNL     1     -18.387  15.146  19.948  1.00  0.00     0.166 HD
ENDROOT
BRANCH   1  11
ATOM     11  N   UNL     1     -18.701  17.883  21.154  1.00  0.00    -0.323 N 
ATOM     12  C   UNL     1     -19.606  18.128  22.170  1.00  0.00     0.241 C 
ATOM     13  O   UNL     1     -19.368  18.101  23.376  1.00  0.00    -0.273 OA
ATOM     14  H   UNL     1     -19.099  18.041  20.230  1.00  0.00     0.170 HD
BRANCH  12  15
ATOM     15  C   UNL     1     -21.042  18.349  21.616  1.00  0.00     0.143 C 
ATOM     16  C   UNL     1     -22.057  18.425  22.761  1.00  0.00     0.035 C 
BRANCH  15  17
ATOM     17  N   UNL     1     -21.043  19.488  20.651  1.00  0.00    -0.290 NA
ATOM     18  C   UNL     1     -20.027  20.519  20.954  1.00  0.00     0.101 C 
ATOM     19  C   UNL     1     -22.372  20.131  20.575  1.00  0.00     0.101 C 
ATOM     20  C   UNL     1     -20.047  21.674  19.921  1.00  0.00     0.099 C 
ATOM     21  C   UNL     1     -22.402  21.295  19.556  1.00  0.00     0.099 C 
ATOM     22  N   UNL     1     -21.374  22.312  19.842  1.00  0.00    -0.304 NA
ATOM     23  C   UNL     1     -21.386  23.366  18.830  1.00  0.00     0.105 C 
ENDBRANCH  15  17
ENDBRANCH  12  15
ENDBRANCH   1  11
BRANCH   6  24
ATOM     24  C   UNL     1     -13.980  13.972  20.002  1.00  0.00     0.114 A 
ATOM     25  N   UNL     1     -12.867  14.726  19.823  1.00  0.00    -0.210 NA
ATOM     26  C   UNL     1     -13.942  12.596  19.990  1.00  0.00     0.167 A 
ATOM     27  C   UNL     1     -11.700  14.095  19.634  1.00  0.00     0.228 A 
ATOM     28  C   UNL     1     -12.708  12.035  19.786  1.00  0.00     0.156 A 
ATOM     29  N   UNL     1     -11.582  12.755  19.608  1.00  0.00    -0.218 NA
ATOM     30  F   UNL     1     -15.022  11.819  20.141  1.00  0.00    -0.203 F 
BRANCH  27  31
ATOM     31  N   UNL     1     -10.519  14.793  19.425  1.00  0.00    -0.322 N 
ATOM     32  H   UNL     1      -9.831  14.186  18.996  1.00  0.00     0.170 HD
BRANCH  31  33
ATOM     33  C   UNL     1     -10.115  16.116  19.650  1.00  0.00     0.078 A 
ATOM     34  C   UNL     1      -8.846  16.477  20.119  1.00  0.00     0.029 A 
ATOM     35  C   UNL     1     -11.039  17.149  19.415  1.00  0.00     0.165 A 
ATOM     36  C   UNL     1      -8.511  17.816  20.351  1.00  0.00     0.004 A 
ATOM     37  C   UNL     1     -10.710  18.481  19.641  1.00  0.00     0.104 A 
ATOM     38  C   UNL     1      -9.444  18.824  20.115  1.00  0.00     0.023 A 
ATOM     39  F   UNL     1     -12.261  16.818  18.965  1.00  0.00    -0.203 F 
BRANCH  37  40
ATOM     40  S   UNL     1     -11.911  19.732  19.334  1.00  0.00     0.178 S 
ATOM     41  O   UNL     1     -11.355  20.617  18.324  1.00  0.00    -0.224 OA
ATOM     42  O   UNL     1     -12.324  20.255  20.622  1.00  0.00    -0.224 OA
ATOM     43  C   UNL     1     -13.286  18.907  18.578  1.00  0.00     0.164 C 
ENDBRANCH  37  40
ENDBRANCH  31  33
ENDBRANCH  27  31
ENDBRANCH   6  24
TORSDOF 7
ENDMDL
