REMARK VINA RESULT:    -8.652      4.150      6.941
REMARK INTER + INTRA:         -16.420
REMARK INTER:                 -15.422
REMARK INTRA:                  -0.998
REMARK UNBOUND:                -1.445
REMARK SMILES CC[C@H](Oc1cccc(CN(CCCOc2ccc(C)cc2C)c2nc3ccccc3o2)c1)C(=O)O
REMARK SMILES IDX 10 1 9 2 5 3 6 4 33 5 7 6 8 7 4 8 3 9 2 10 1 11 34 12 35 13
REMARK SMILES IDX 36 14 11 16 12 17 13 18 14 19 15 20 16 21 17 22 22 23 18 24
REMARK SMILES IDX 21 25 19 26 23 27 20 28 24 29 25 30 32 31 26 32 31 33 27 34
REMARK SMILES IDX 30 35 28 36 29 37
REMARK H PARENT 36 15
ROOT
ATOM      1  C   UNL     1      10.160   5.791  -7.778  1.00  0.00     0.157 C 
ENDROOT
BRANCH   1   2
ATOM      2  C   UNL     1       8.767   5.754  -7.190  1.00  0.00    -0.025 A 
ATOM      3  C   UNL     1       6.735   6.911  -6.503  1.00  0.00     0.120 A 
ATOM      4  C   UNL     1       6.183   5.703  -6.088  1.00  0.00     0.046 A 
ATOM      5  C   UNL     1       8.011   6.930  -7.074  1.00  0.00     0.052 A 
ATOM      6  C   UNL     1       6.923   4.524  -6.196  1.00  0.00     0.004 A 
ATOM      7  C   UNL     1       8.210   4.551  -6.734  1.00  0.00     0.006 A 
BRANCH   3   8
ATOM      8  O   UNL     1       6.103   8.122  -6.442  1.00  0.00    -0.479 OA
BRANCH   8   9
ATOM      9  C   UNL     1       5.005   8.222  -5.533  1.00  0.00     0.282 C 
BRANCH   9  10
ATOM     10  C   UNL     1       5.221   9.481  -4.679  1.00  0.00     0.054 C 
ATOM     11  C   UNL     1       6.604  10.100  -4.833  1.00  0.00     0.008 C 
ENDBRANCH   9  10
BRANCH   9  12
ATOM     12  C   UNL     1       3.657   8.282  -6.253  1.00  0.00     0.344 C 
ATOM     13  O   UNL     1       3.176   9.222  -6.864  1.00  0.00    -0.248 OA
BRANCH  12  14
ATOM     14  O   UNL     1       2.983   7.111  -6.200  1.00  0.00    -0.479 OA
ATOM     15  H   UNL     1       2.141   7.308  -6.661  1.00  0.00     0.296 HD
ENDBRANCH  12  14
ENDBRANCH   9  12
ENDBRANCH   8   9
ENDBRANCH   3   8
ENDBRANCH   1   2
BRANCH   1  16
ATOM     16  N   UNL     1      10.202   6.566  -9.010  1.00  0.00    -0.322 N 
BRANCH  16  17
ATOM     17  C   UNL     1      10.024   5.877 -10.284  1.00  0.00     0.125 C 
BRANCH  17  18
ATOM     18  C   UNL     1      11.289   5.132 -10.722  1.00  0.00     0.063 C 
BRANCH  18  19
ATOM     19  C   UNL     1      12.329   6.036 -11.378  1.00  0.00     0.231 C 
BRANCH  19  20
ATOM     20  O   UNL     1      11.917   6.322 -12.714  1.00  0.00    -0.493 OA
BRANCH  20  21
ATOM     21  C   UNL     1      11.559   7.614 -13.000  1.00  0.00     0.122 A 
ATOM     22  C   UNL     1      10.244   8.083 -13.061  1.00  0.00     0.047 A 
ATOM     23  C   UNL     1      12.620   8.499 -13.258  1.00  0.00    -0.009 A 
ATOM     24  C   UNL     1       9.980   9.423 -13.361  1.00  0.00     0.007 A 
ATOM     25  C   UNL     1      12.344   9.844 -13.557  1.00  0.00     0.010 A 
ATOM     26  C   UNL     1      11.027  10.317 -13.596  1.00  0.00    -0.051 A 
ATOM     27  C   UNL     1      14.046   8.024 -13.214  1.00  0.00     0.048 C 
ATOM     28  C   UNL     1      10.743  11.748 -13.945  1.00  0.00     0.044 C 
ENDBRANCH  20  21
ENDBRANCH  19  20
ENDBRANCH  18  19
ENDBRANCH  17  18
ENDBRANCH  16  17
BRANCH  16  29
ATOM     29  C   UNL     1      10.269   7.915  -8.997  1.00  0.00     0.298 A 
ATOM     30  N   UNL     1      10.320   8.739 -10.026  1.00  0.00    -0.193 NA
ATOM     31  O   UNL     1      10.313   8.542  -7.776  1.00  0.00    -0.423 OA
ATOM     32  C   UNL     1      10.367   9.984  -9.457  1.00  0.00     0.111 A 
ATOM     33  C   UNL     1      10.369   9.868  -8.080  1.00  0.00     0.156 A 
ATOM     34  C   UNL     1      10.407  11.261 -10.031  1.00  0.00     0.032 A 
ATOM     35  C   UNL     1      10.416  10.936  -7.193  1.00  0.00     0.049 A 
ATOM     36  C   UNL     1      10.448  12.369  -9.171  1.00  0.00     0.003 A 
ATOM     37  C   UNL     1      10.453  12.207  -7.780  1.00  0.00     0.004 A 
ENDBRANCH  16  29
ENDBRANCH   1  16
TORSDOF 13
