MODEL 8
REMARK VINA RESULT:    -8.727      4.908      8.705
REMARK INTER + INTRA:         -14.010
REMARK INTER:                 -12.473
REMARK INTRA:                  -1.537
REMARK UNBOUND:                -1.202
REMARK SMILES Cc1cc(Nc2cc3nc(CN4CCOCC4)ccc3c(N[C@@H]3C[C@H]4CCC[C@@H](C3)N4CC(F)(F)F)n2)n[nH]1
REMARK SMILES IDX 22 1 21 3 6 4 7 5 37 6 8 7 9 8 20 9 10 10 19 11 18 12 5 13
REMARK SMILES IDX 4 15 2 16 3 17 39 18 38 19 1 20 11 22 12 23 13 24 17 25
REMARK SMILES IDX 14 26 16 27 15 28 23 29 24 30 30 31 25 32 29 33 26 34 31 35
REMARK SMILES IDX 28 36 27 37 32 38 33 39 34 40 35 41 36 42
REMARK H PARENT 22 2 5 14 39 21
ROOT
ATOM      1  N   UNL     1       7.672 -20.461  19.457  1.00  0.00    -0.367 N 
ATOM      2  H   UNL     1       7.552 -20.030  18.545  1.00  0.00     0.162 HD
ENDROOT
BRANCH   1   3
ATOM      3  C   UNL     1       6.405 -20.846  19.928  1.00  0.00     0.138 A 
ATOM      4  C   UNL     1       4.117 -20.428  20.090  1.00  0.00     0.136 A 
ATOM      5  C   UNL     1       3.928 -21.574  20.838  1.00  0.00     0.076 A 
ATOM      6  N   UNL     1       5.341 -20.075  19.650  1.00  0.00    -0.213 NA
ATOM      7  C   UNL     1       5.002 -22.379  21.160  1.00  0.00     0.078 A 
ATOM      8  N   UNL     1       4.784 -23.478  21.910  1.00  0.00    -0.251 NA
ATOM      9  C   UNL     1       6.278 -22.019  20.701  1.00  0.00     0.043 A 
ATOM     10  C   UNL     1       5.834 -24.266  22.251  1.00  0.00     0.055 A 
ATOM     11  C   UNL     1       7.353 -22.859  21.064  1.00  0.00     0.016 A 
ATOM     12  C   UNL     1       7.130 -23.991  21.839  1.00  0.00     0.026 A 
BRANCH   4  13
ATOM     13  N   UNL     1       3.108 -19.541  19.726  1.00  0.00    -0.323 N 
ATOM     14  H   UNL     1       2.232 -20.048  19.789  1.00  0.00     0.170 HD
BRANCH  13  15
ATOM     15  C   UNL     1       3.109 -18.247  19.351  1.00  0.00     0.153 A 
ATOM     16  C   UNL     1       3.216 -16.031  19.587  1.00  0.00     0.034 A 
ATOM     17  C   UNL     1       3.264 -17.207  20.303  1.00  0.00     0.071 A 
ATOM     18  N   UNL     1       3.047 -16.417  18.286  1.00  0.00    -0.281 N 
ATOM     19  N   UNL     1       2.980 -17.743  18.122  1.00  0.00    -0.158 NA
ATOM     20  C   UNL     1       3.315 -14.615  19.993  1.00  0.00     0.066 C 
ATOM     21  H   UNL     1       2.967 -15.828  17.463  1.00  0.00     0.190 HD
ENDBRANCH  13  15
ENDBRANCH   4  13
BRANCH  10  22
ATOM     22  C   UNL     1       5.538 -25.485  23.111  1.00  0.00     0.140 C 
BRANCH  22  23
ATOM     23  N   UNL     1       5.327 -26.727  22.343  1.00  0.00    -0.293 NA
ATOM     24  C   UNL     1       3.905 -27.117  22.377  1.00  0.00     0.113 C 
ATOM     25  C   UNL     1       6.189 -27.837  22.802  1.00  0.00     0.113 C 
ATOM     26  C   UNL     1       3.719 -28.588  21.978  1.00  0.00     0.175 C 
ATOM     27  C   UNL     1       5.445 -28.921  23.602  1.00  0.00     0.175 C 
ATOM     28  O   UNL     1       4.340 -29.497  22.896  1.00  0.00    -0.379 OA
ENDBRANCH  22  23
ENDBRANCH  10  22
ENDBRANCH   1   3
BRANCH   1  29
ATOM     29  C   UNL     1       8.600 -19.684  20.301  1.00  0.00     0.083 C 
ATOM     30  C   UNL     1       9.987 -20.333  20.425  1.00  0.00     0.044 C 
ATOM     31  C   UNL     1       7.981 -19.229  21.632  1.00  0.00     0.044 C 
ATOM     32  C   UNL     1      10.884 -19.668  21.488  1.00  0.00     0.059 C 
ATOM     33  C   UNL     1       9.007 -18.659  22.637  1.00  0.00     0.059 C 
ATOM     34  C   UNL     1      11.421 -18.293  21.037  1.00  0.00     0.019 C 
ATOM     35  N   UNL     1      10.110 -19.613  22.729  1.00  0.00    -0.289 NA
ATOM     36  C   UNL     1       9.481 -17.239  22.299  1.00  0.00     0.019 C 
ATOM     37  C   UNL     1      10.407 -17.152  21.090  1.00  0.00     0.003 C 
BRANCH  35  38
ATOM     38  C   UNL     1      10.859 -19.642  24.002  1.00  0.00     0.201 C 
BRANCH  38  39
ATOM     39  C   UNL     1      11.004 -20.892  24.887  1.00  0.00     0.401 C 
ATOM     40  F   UNL     1      12.311 -21.096  25.188  1.00  0.00    -0.170 F 
ATOM     41  F   UNL     1      10.344 -20.758  26.060  1.00  0.00    -0.170 F 
ATOM     42  F   UNL     1      10.559 -22.011  24.282  1.00  0.00    -0.170 F 
ENDBRANCH  38  39
ENDBRANCH  35  38
ENDBRANCH   1  29
TORSDOF 8
ENDMDL
