MODEL 2
REMARK VINA RESULT:    -9.023      0.845      1.251
REMARK INTER + INTRA:         -11.442
REMARK INTER:                 -10.341
REMARK INTRA:                  -1.102
REMARK UNBOUND:                -0.837
REMARK SMILES N#C[C@@H]1CCC[C@H]1n1nc(Nc2ccnc(F)c2)c2c(=O)[nH]ccc21
REMARK SMILES IDX 11 1 10 3 8 4 9 5 25 6 24 7 19 8 23 9 20 10 22 11 21 12 7 14
REMARK SMILES IDX 1 15 2 16 3 17 4 18 5 19 6 20 12 21 13 22 18 23 14 24 16 25
REMARK SMILES IDX 15 26 17 27
REMARK H PARENT 11 2 22 13
ROOT
ATOM      1  N   UNL     1       6.312 -24.235  23.723  1.00  0.00    -0.338 N 
ATOM      2  H   UNL     1       6.967 -24.311  24.497  1.00  0.00     0.168 HD
ENDROOT
BRANCH   1   3
ATOM      3  C   UNL     1       6.481 -23.102  23.005  1.00  0.00     0.166 A 
ATOM      4  N   UNL     1       6.022 -21.200  22.148  1.00  0.00    -0.258 N 
ATOM      5  N   UNL     1       5.498 -22.198  22.895  1.00  0.00    -0.153 NA
ATOM      6  C   UNL     1       7.269 -21.502  21.694  1.00  0.00     0.078 A 
ATOM      7  C   UNL     1       8.086 -20.740  20.829  1.00  0.00     0.046 A 
ATOM      8  C   UNL     1       7.596 -22.736  22.221  1.00  0.00     0.109 A 
ATOM      9  C   UNL     1       9.268 -21.309  20.520  1.00  0.00     0.088 A 
ATOM     10  C   UNL     1       8.864 -23.341  21.861  1.00  0.00     0.261 A 
ATOM     11  N   UNL     1       9.641 -22.548  21.016  1.00  0.00    -0.328 N 
ATOM     12  O   UNL     1       9.256 -24.441  22.230  1.00  0.00    -0.269 OA
ATOM     13  H   UNL     1      10.531 -22.952  20.750  1.00  0.00     0.169 HD
BRANCH   4  14
ATOM     14  C   UNL     1       5.208 -20.029  21.876  1.00  0.00     0.125 C 
ATOM     15  N   UNL     1       5.435 -18.546  18.766  1.00  0.00    -0.198 NA
ATOM     16  C   UNL     1       4.967 -19.266  19.545  1.00  0.00     0.068 C 
ATOM     17  C   UNL     1       4.399 -20.162  20.567  1.00  0.00     0.117 C 
ATOM     18  C   UNL     1       2.962 -19.757  20.929  1.00  0.00     0.021 C 
ATOM     19  C   UNL     1       3.084 -18.974  22.230  1.00  0.00     0.004 C 
ATOM     20  C   UNL     1       4.178 -19.721  22.974  1.00  0.00     0.029 C 
ENDBRANCH   4  14
ENDBRANCH   1   3
BRANCH   1  21
ATOM     21  C   UNL     1       5.928 -25.528  23.294  1.00  0.00     0.046 A 
ATOM     22  C   UNL     1       6.727 -26.617  23.658  1.00  0.00     0.046 A 
ATOM     23  C   UNL     1       4.771 -25.786  22.565  1.00  0.00     0.086 A 
ATOM     24  C   UNL     1       6.349 -27.892  23.263  1.00  0.00     0.116 A 
ATOM     25  C   UNL     1       4.479 -27.094  22.218  1.00  0.00     0.214 A 
ATOM     26  N   UNL     1       5.245 -28.156  22.539  1.00  0.00    -0.228 NA
ATOM     27  F   UNL     1       3.371 -27.328  21.500  1.00  0.00    -0.185 F 
ENDBRANCH   1  21
TORSDOF 3
ENDMDL
