MODEL 6
REMARK VINA RESULT:    -9.773      3.963      7.204
REMARK INTER + INTRA:         -16.394
REMARK INTER:                 -15.544
REMARK INTRA:                  -0.850
REMARK UNBOUND:                -1.764
REMARK SMILES CC[C@H](Cc1ccc(CCc2ccc(N3C(=O)c4ccccc4C3=O)cc2)cc1)C(=O)O
REMARK SMILES IDX 5 1 6 2 7 3 8 4 28 5 29 6 4 7 3 8 2 9 1 10 30 11 31 12 32 13
REMARK SMILES IDX 9 15 10 16 11 17 12 18 27 19 13 20 26 21 14 22 15 23 16 24
REMARK SMILES IDX 24 25 17 26 18 27 23 28 25 29 19 30 22 31 20 32 21 33
REMARK H PARENT 32 14
ROOT
ATOM      1  C   UNL     1      34.595   0.896 127.817  1.00  0.00    -0.047 A 
ATOM      2  C   UNL     1      34.892   1.964 128.673  1.00  0.00     0.004 A 
ATOM      3  C   UNL     1      35.928   1.866 129.605  1.00  0.00     0.004 A 
ATOM      4  C   UNL     1      36.691   0.697 129.698  1.00  0.00    -0.048 A 
ATOM      5  C   UNL     1      36.389  -0.376 128.852  1.00  0.00     0.004 A 
ATOM      6  C   UNL     1      35.348  -0.278 127.924  1.00  0.00     0.004 A 
ENDROOT
BRANCH   1   7
ATOM      7  C   UNL     1      33.475   1.012 126.807  1.00  0.00     0.050 C 
BRANCH   7   8
ATOM      8  C   UNL     1      32.106   0.455 127.243  1.00  0.00     0.103 C 
BRANCH   8   9
ATOM      9  C   UNL     1      30.899   1.343 126.893  1.00  0.00     0.012 C 
ATOM     10  C   UNL     1      31.215   2.404 125.849  1.00  0.00     0.005 C 
ENDBRANCH   8   9
BRANCH   8  11
ATOM     11  C   UNL     1      31.895  -0.952 126.726  1.00  0.00     0.306 C 
ATOM     12  O   UNL     1      31.486  -1.289 125.628  1.00  0.00    -0.252 OA
BRANCH  11  13
ATOM     13  O   UNL     1      32.174  -1.890 127.655  1.00  0.00    -0.481 OA
ATOM     14  H   UNL     1      31.940  -1.453 128.502  1.00  0.00     0.296 HD
ENDBRANCH  11  13
ENDBRANCH   8  11
ENDBRANCH   7   8
ENDBRANCH   1   7
BRANCH   4  15
ATOM     15  C   UNL     1      37.807   0.587 130.707  1.00  0.00     0.040 C 
BRANCH  15  16
ATOM     16  C   UNL     1      38.305   1.962 131.164  1.00  0.00     0.040 C 
BRANCH  16  17
ATOM     17  C   UNL     1      37.962   2.226 132.608  1.00  0.00    -0.048 A 
ATOM     18  C   UNL     1      37.431   1.217 133.412  1.00  0.00     0.006 A 
ATOM     19  C   UNL     1      38.191   3.477 133.179  1.00  0.00     0.006 A 
ATOM     20  C   UNL     1      37.141   1.457 134.763  1.00  0.00     0.027 A 
ATOM     21  C   UNL     1      37.895   3.712 134.530  1.00  0.00     0.027 A 
ATOM     22  C   UNL     1      37.366   2.708 135.358  1.00  0.00     0.052 A 
BRANCH  22  23
ATOM     23  N   UNL     1      37.079   2.947 136.741  1.00  0.00    -0.242 N 
ATOM     24  C   UNL     1      37.746   3.854 137.544  1.00  0.00     0.266 C 
ATOM     25  C   UNL     1      36.086   2.316 137.466  1.00  0.00     0.266 C 
ATOM     26  O   UNL     1      38.667   4.621 137.327  1.00  0.00    -0.268 OA
ATOM     27  C   UNL     1      37.134   3.793 138.867  1.00  0.00     0.053 A 
ATOM     28  C   UNL     1      36.125   2.860 138.819  1.00  0.00     0.053 A 
ATOM     29  O   UNL     1      35.270   1.462 137.171  1.00  0.00    -0.268 OA
ATOM     30  C   UNL     1      37.424   4.500 140.019  1.00  0.00     0.015 A 
ATOM     31  C   UNL     1      35.347   2.571 139.924  1.00  0.00     0.015 A 
ATOM     32  C   UNL     1      36.650   4.230 141.151  1.00  0.00     0.001 A 
ATOM     33  C   UNL     1      35.618   3.271 141.103  1.00  0.00     0.001 A 
ENDBRANCH  22  23
ENDBRANCH  16  17
ENDBRANCH  15  16
ENDBRANCH   4  15
TORSDOF 9
ENDMDL
