REMARK VINA RESULT:    -8.719      6.688      9.668
REMARK INTER + INTRA:         -15.597
REMARK INTER:                 -13.948
REMARK INTRA:                  -1.649
REMARK UNBOUND:                -1.526
REMARK SMILES CC[C@H](Cc1ccc(OC)c(CNC(=O)c2cccc(Oc3ccccc3)c2)c1)C(=O)O
REMARK SMILES IDX 5 1 6 2 7 3 8 4 11 5 29 6 4 7 3 8 2 9 1 10 30 11 31 12 32 13
REMARK SMILES IDX 12 15 13 16 14 17 15 18 16 20 17 21 28 22 18 23 20 24 19 25
REMARK SMILES IDX 21 26 22 27 23 28 27 29 24 30 26 31 25 32 9 33 10 34
REMARK H PARENT 32 14 13 19
ROOT
ATOM      1  C   UNL     1      10.636   7.700 -11.525  1.00  0.00    -0.047 A 
ATOM      2  C   UNL     1      11.121   6.403 -11.332  1.00  0.00     0.007 A 
ATOM      3  C   UNL     1      11.103   5.817 -10.062  1.00  0.00     0.047 A 
ATOM      4  C   UNL     1      10.599   6.517  -8.962  1.00  0.00     0.123 A 
ATOM      5  C   UNL     1      10.120   7.826  -9.139  1.00  0.00     0.014 A 
ATOM      6  C   UNL     1      10.140   8.402 -10.423  1.00  0.00     0.013 A 
ENDROOT
BRANCH   1   7
ATOM      7  C   UNL     1      10.615   8.319 -12.902  1.00  0.00     0.050 C 
BRANCH   7   8
ATOM      8  C   UNL     1      11.239   9.725 -12.944  1.00  0.00     0.103 C 
BRANCH   8   9
ATOM      9  C   UNL     1      12.601   9.749 -13.658  1.00  0.00     0.012 C 
ATOM     10  C   UNL     1      13.486   8.567 -13.284  1.00  0.00     0.005 C 
ENDBRANCH   8   9
BRANCH   8  11
ATOM     11  C   UNL     1      10.267  10.629 -13.664  1.00  0.00     0.306 C 
ATOM     12  O   UNL     1       9.049  10.563 -13.638  1.00  0.00    -0.252 OA
BRANCH  11  13
ATOM     13  O   UNL     1      10.882  11.577 -14.397  1.00  0.00    -0.481 OA
ATOM     14  H   UNL     1      11.051  12.299 -13.757  1.00  0.00     0.296 HD
ENDBRANCH  11  13
ENDBRANCH   8  11
ENDBRANCH   7   8
ENDBRANCH   1   7
BRANCH   5  15
ATOM     15  C   UNL     1       9.524   8.618  -8.002  1.00  0.00     0.156 C 
BRANCH  15  16
ATOM     16  N   UNL     1      10.016   9.977  -8.014  1.00  0.00    -0.348 N 
ATOM     17  C   UNL     1       9.594  10.916  -7.100  1.00  0.00     0.251 C 
ATOM     18  O   UNL     1       8.769  10.692  -6.221  1.00  0.00    -0.269 OA
ATOM     19  H   UNL     1      10.793  10.170  -8.629  1.00  0.00     0.164 HD
BRANCH  17  20
ATOM     20  C   UNL     1      10.228  12.259  -7.195  1.00  0.00     0.043 A 
ATOM     21  C   UNL     1       9.537  13.273  -7.873  1.00  0.00     0.014 A 
ATOM     22  C   UNL     1      11.491  12.519  -6.652  1.00  0.00     0.061 A 
ATOM     23  C   UNL     1      10.092  14.550  -7.982  1.00  0.00     0.005 A 
ATOM     24  C   UNL     1      12.051  13.793  -6.791  1.00  0.00     0.128 A 
ATOM     25  C   UNL     1      11.346  14.812  -7.431  1.00  0.00     0.047 A 
BRANCH  24  26
ATOM     26  O   UNL     1      13.281  14.121  -6.264  1.00  0.00    -0.457 OA
BRANCH  26  27
ATOM     27  C   UNL     1      14.322  14.291  -7.149  1.00  0.00     0.127 A 
ATOM     28  C   UNL     1      14.981  15.511  -7.320  1.00  0.00     0.047 A 
ATOM     29  C   UNL     1      14.753  13.159  -7.842  1.00  0.00     0.047 A 
ATOM     30  C   UNL     1      16.045  15.606  -8.217  1.00  0.00     0.004 A 
ATOM     31  C   UNL     1      15.818  13.255  -8.738  1.00  0.00     0.004 A 
ATOM     32  C   UNL     1      16.459  14.480  -8.929  1.00  0.00     0.000 A 
ENDBRANCH  26  27
ENDBRANCH  24  26
ENDBRANCH  17  20
ENDBRANCH  15  16
ENDBRANCH   5  15
BRANCH   4  33
ATOM     33  O   UNL     1      10.513   6.013  -7.689  1.00  0.00    -0.496 OA
ATOM     34  C   UNL     1       9.728   4.842  -7.505  1.00  0.00     0.278 C 
ENDBRANCH   4  33
TORSDOF 11
