REMARK SMILES CN1CCN(CCC#CC(=O)Nc2cc3c(Nc4ccc(F)c(Br)c4)ncnc3cn2)CC1
REMARK SMILES IDX 9 1 10 2 11 3 12 4 8 6 7 7 6 8 5 9 2 10 3 11 33 12 4 13
REMARK SMILES IDX 32 14 1 15 13 16 14 17 31 18 15 19 30 20 16 21 29 22 26 23
REMARK SMILES IDX 28 24 27 25 17 26 18 28 19 29 25 30 20 31 23 32 21 33 24 34
REMARK SMILES IDX 22 35
REMARK H PARENT 12 5 17 27
REMARK INDEX MAP 9 1 10 2 11 3 12 4 45 5 8 6 7 7 6 8 5 9 2 10 3 11 33 12 4 13
REMARK INDEX MAP 32 14 1 15 13 16 14 17 31 18 15 19 30 20 16 21 29 22 26 23
REMARK INDEX MAP 28 24 27 25 17 26 47 27 18 28 19 29 25 30 20 31 23 32 21 33
REMARK INDEX MAP 24 34 22 35
ROOT
ATOM      1  C   UNL     1      23.624  33.675  16.447  1.00  0.00    -0.005 C 
ATOM      2  C   UNL     1      22.197  33.563  16.665  1.00  0.00     0.301 C 
ATOM      3  O   UNL     1      21.789  32.708  17.439  1.00  0.00    -0.259 OA
ATOM      4  N   UNL     1      21.452  34.453  15.941  1.00  0.00    -0.300 N 
ATOM      5  H   UNL     1      21.981  35.089  15.327  1.00  0.00     0.172 HD
ENDROOT
BRANCH   1   6
ATOM      6  C   UNL     1      24.809  33.770  16.265  1.00  0.00    -0.092 C 
ATOM      7  C   UNL     1      26.264  33.876  16.059  1.00  0.00     0.105 C 
BRANCH   7   8
ATOM      8  C   UNL     1      26.593  34.191  14.591  1.00  0.00     0.097 C 
BRANCH   8   9
ATOM      9  N   UNL     1      25.490  34.850  13.866  1.00  0.00    -0.300 NA
ATOM     10  N   UNL     1      24.453  36.308  11.498  1.00  0.00    -0.304 NA
ATOM     11  C   UNL     1      24.752  36.994  12.769  1.00  0.00     0.099 C 
ATOM     12  C   UNL     1      24.083  34.909  11.779  1.00  0.00     0.099 C 
ATOM     13  C   UNL     1      25.845  36.258  13.577  1.00  0.00     0.100 C 
ATOM     14  C   UNL     1      25.171  34.169  12.593  1.00  0.00     0.100 C 
ATOM     15  C   UNL     1      23.380  36.994  10.781  1.00  0.00     0.105 C 
ENDBRANCH   8   9
ENDBRANCH   7   8
ENDBRANCH   1   6
BRANCH   4  16
ATOM     16  C   UNL     1      20.069  34.608  15.929  1.00  0.00     0.134 A 
ATOM     17  C   UNL     1      19.235  34.111  14.942  1.00  0.00     0.061 A 
ATOM     18  N   UNL     1      19.595  35.295  16.980  1.00  0.00    -0.237 NA
ATOM     19  C   UNL     1      17.836  34.342  15.020  1.00  0.00     0.048 A 
ATOM     20  C   UNL     1      18.249  35.490  17.036  1.00  0.00     0.142 A 
ATOM     21  C   UNL     1      16.881  33.903  14.080  1.00  0.00     0.141 A 
ATOM     22  C   UNL     1      17.323  35.050  16.107  1.00  0.00     0.094 A 
ATOM     23  N   UNL     1      15.566  34.133  14.249  1.00  0.00    -0.219 NA
ATOM     24  N   UNL     1      16.016  35.301  16.272  1.00  0.00    -0.235 NA
ATOM     25  C   UNL     1      15.198  34.822  15.331  1.00  0.00     0.224 A 
BRANCH  21  26
ATOM     26  N   UNL     1      17.307  33.186  12.939  1.00  0.00    -0.340 N 
ATOM     27  H   UNL     1      17.905  32.372  13.142  1.00  0.00     0.168 HD
BRANCH  26  28
ATOM     28  C   UNL     1      17.051  33.398  11.572  1.00  0.00     0.041 A 
ATOM     29  C   UNL     1      16.432  34.599  11.179  1.00  0.00     0.029 A 
ATOM     30  C   UNL     1      17.425  32.491  10.572  1.00  0.00     0.044 A 
ATOM     31  C   UNL     1      16.172  34.871   9.834  1.00  0.00     0.042 A 
ATOM     32  C   UNL     1      17.164  32.762   9.224  1.00  0.00     0.055 A 
ATOM     33  C   UNL     1      16.537  33.949   8.863  1.00  0.00     0.137 A 
ATOM     34  Br  UNL     1      17.679  31.506   7.907  1.00  0.00    -0.048 Br
ATOM     35  F   UNL     1      16.279  34.229   7.578  1.00  0.00    -0.206 F 
ENDBRANCH  26  28
ENDBRANCH  21  26
ENDBRANCH   4  16
TORSDOF 6
