REMARK SMILES Oc1c(Cl)cccc1CN(Cc1ccc(F)cc1)C(=S)Nc1ccccc1
REMARK SMILES IDX 9 1 8 2 2 3 3 4 5 5 7 6 6 7 4 8 1 9 10 11 11 12 12 13 13 14
REMARK SMILES IDX 18 15 14 16 17 17 15 18 16 19 19 20 20 21 21 22 22 24 23 25
REMARK SMILES IDX 27 26 24 27 26 28 25 29
REMARK H PARENT 1 10 21 23
REMARK INDEX MAP 9 1 8 2 2 3 3 4 5 5 7 6 6 7 4 8 1 9 28 10 10 11 11 12 12 13
REMARK INDEX MAP 13 14 18 15 14 16 17 17 15 18 16 19 19 20 20 21 21 22 40 23
REMARK INDEX MAP 22 24 23 25 27 26 24 27 26 28 25 29
ROOT
ATOM      1  C   UNL     1      17.831  35.014  14.035  1.00  0.00     0.158 C 
ENDROOT
BRANCH   1   2
ATOM      2  C   UNL     1      16.859  35.007  15.194  1.00  0.00     0.015 A 
ATOM      3  C   UNL     1      17.158  35.595  16.428  1.00  0.00     0.139 A 
ATOM      4  C   UNL     1      16.237  35.550  17.484  1.00  0.00     0.083 A 
ATOM      5  C   UNL     1      15.004  34.924  17.319  1.00  0.00     0.024 A 
ATOM      6  C   UNL     1      15.606  34.386  15.040  1.00  0.00     0.009 A 
ATOM      7  C   UNL     1      14.687  34.343  16.092  1.00  0.00     0.002 A 
ATOM      8  Cl  UNL     1      16.618  36.276  19.002  1.00  0.00    -0.080 Cl
BRANCH   3   9
ATOM      9  O   UNL     1      18.364  36.231  16.589  1.00  0.00    -0.506 OA
ATOM     10  H   UNL     1      19.012  36.261  15.841  1.00  0.00     0.293 HD
ENDBRANCH   3   9
ENDBRANCH   1   2
BRANCH   1  11
ATOM     11  N   UNL     1      18.695  33.815  13.974  1.00  0.00    -0.340 N 
BRANCH  11  12
ATOM     12  C   UNL     1      18.031  32.570  13.533  1.00  0.00     0.154 C 
BRANCH  12  13
ATOM     13  C   UNL     1      17.690  32.541  12.056  1.00  0.00    -0.028 A 
ATOM     14  C   UNL     1      16.398  32.851  11.600  1.00  0.00     0.008 A 
ATOM     15  C   UNL     1      18.689  32.244  11.113  1.00  0.00     0.008 A 
ATOM     16  C   UNL     1      16.105  32.836  10.236  1.00  0.00     0.039 A 
ATOM     17  C   UNL     1      18.394  32.230   9.749  1.00  0.00     0.039 A 
ATOM     18  C   UNL     1      17.104  32.524   9.324  1.00  0.00     0.123 A 
ATOM     19  F   UNL     1      16.823  32.509   8.014  1.00  0.00    -0.207 F 
ENDBRANCH  12  13
ENDBRANCH  11  12
BRANCH  11  20
ATOM     20  C   UNL     1      20.083  33.870  14.252  1.00  0.00     0.174 C 
ATOM     21  S   UNL     1      20.752  33.577  15.771  1.00  0.00    -0.041 S 
ATOM     22  N   UNL     1      20.834  34.261  13.155  1.00  0.00    -0.333 N 
ATOM     23  H   UNL     1      20.326  34.857  12.486  1.00  0.00     0.169 HD
BRANCH  22  24
ATOM     24  C   UNL     1      22.170  33.989  12.789  1.00  0.00     0.040 A 
ATOM     25  C   UNL     1      22.976  35.086  12.456  1.00  0.00     0.026 A 
ATOM     26  C   UNL     1      22.703  32.704  12.668  1.00  0.00     0.026 A 
ATOM     27  C   UNL     1      24.302  34.904  12.054  1.00  0.00     0.002 A 
ATOM     28  C   UNL     1      24.031  32.520  12.266  1.00  0.00     0.002 A 
ATOM     29  C   UNL     1      24.831  33.620  11.964  1.00  0.00     0.000 A 
ENDBRANCH  22  24
ENDBRANCH  11  20
ENDBRANCH   1  11
TORSDOF 7
