MODEL 5
REMARK VINA RESULT:    -9.130      2.160      2.472
REMARK INTER + INTRA:         -15.238
REMARK INTER:                 -13.627
REMARK INTRA:                  -1.611
REMARK UNBOUND:                -1.038
REMARK SMILES COC(=O)C[C@]1(C(=O)Nc2ccc(-c3ccccc3S(N)(=O)=O)cc2F)CC(c2cccc(C(=N)N)c2)=NO1
REMARK SMILES IDX 7 1 8 2 9 3 6 5 27 6 39 7 28 8 38 9 5 10 3 11 4 12 2 13 1 14
REMARK SMILES IDX 29 15 30 16 37 17 31 18 33 19 32 20 34 21 35 22 36 23 10 27
REMARK SMILES IDX 11 28 25 29 12 30 24 31 13 32 26 33 14 34 15 35 19 36 16 37
REMARK SMILES IDX 18 38 17 39 20 40 22 41 23 42 21 43
REMARK H PARENT 9 4 35 24 36 25 36 26 21 44 21 45
ROOT
ATOM      1  C   UNL     1      -5.680  12.803  23.455  1.00  0.00     0.272 C 
ATOM      2  O   UNL     1      -6.732  12.221  23.720  1.00  0.00    -0.270 OA
ATOM      3  N   UNL     1      -5.133  12.919  22.194  1.00  0.00    -0.320 N 
ATOM      4  H   UNL     1      -4.335  13.554  22.096  1.00  0.00     0.170 HD
ENDROOT
BRANCH   1   5
ATOM      5  C   UNL     1      -4.888  13.548  24.563  1.00  0.00     0.231 C 
ATOM      6  C   UNL     1      -4.408  12.546  25.612  1.00  0.00     0.123 C 
ATOM      7  O   UNL     1      -3.678  14.139  24.089  1.00  0.00    -0.378 OA
ATOM      8  C   UNL     1      -3.049  12.290  25.057  1.00  0.00     0.092 C 
ATOM      9  N   UNL     1      -2.634  13.196  24.229  1.00  0.00    -0.089 NA
BRANCH   5  10
ATOM     10  C   UNL     1      -5.772  14.609  25.224  1.00  0.00     0.185 C 
BRANCH  10  11
ATOM     11  C   UNL     1      -4.996  15.722  25.883  1.00  0.00     0.310 C 
ATOM     12  O   UNL     1      -4.262  15.606  26.853  1.00  0.00    -0.252 OA
BRANCH  11  13
ATOM     13  O   UNL     1      -5.237  16.891  25.219  1.00  0.00    -0.469 OA
ATOM     14  C   UNL     1      -6.590  17.344  25.313  1.00  0.00     0.282 C 
ENDBRANCH  11  13
ENDBRANCH  10  11
ENDBRANCH   5  10
BRANCH   8  15
ATOM     15  C   UNL     1      -2.240  11.112  25.445  1.00  0.00     0.000 A 
ATOM     16  C   UNL     1      -1.072  10.829  24.725  1.00  0.00     0.010 A 
ATOM     17  C   UNL     1      -2.621  10.281  26.505  1.00  0.00     0.022 A 
ATOM     18  C   UNL     1      -0.284   9.727  25.064  1.00  0.00     0.001 A 
ATOM     19  C   UNL     1      -1.839   9.165  26.833  1.00  0.00     0.017 A 
ATOM     20  C   UNL     1      -0.667   8.898  26.117  1.00  0.00     0.012 A 
BRANCH  19  21
ATOM     21  C   UNL     1      -2.243   8.255  27.945  1.00  0.00     0.122 C 
ATOM     22  N   UNL     1      -1.559   7.182  28.167  1.00  0.00    -0.284 NA
ATOM     23  N   UNL     1      -3.335   8.542  28.715  1.00  0.00    -0.384 N 
ATOM     24  H   UNL     1      -1.939   6.683  28.975  1.00  0.00     0.189 HD
ATOM     25  H   UNL     1      -3.719   7.756  29.227  1.00  0.00     0.158 HD
ATOM     26  H   UNL     1      -4.072   9.065  28.252  1.00  0.00     0.158 HD
ENDBRANCH  19  21
ENDBRANCH   8  15
ENDBRANCH   1   5
BRANCH   3  27
ATOM     27  C   UNL     1      -5.570  12.314  20.997  1.00  0.00     0.077 A 
ATOM     28  C   UNL     1      -6.432  12.916  20.082  1.00  0.00     0.030 A 
ATOM     29  C   UNL     1      -5.113  11.020  20.724  1.00  0.00     0.147 A 
ATOM     30  C   UNL     1      -6.815  12.237  18.917  1.00  0.00     0.011 A 
ATOM     31  C   UNL     1      -5.486  10.338  19.567  1.00  0.00     0.050 A 
ATOM     32  C   UNL     1      -6.347  10.941  18.643  1.00  0.00    -0.014 A 
ATOM     33  F   UNL     1      -4.285  10.411  21.588  1.00  0.00    -0.205 F 
BRANCH  32  34
ATOM     34  C   UNL     1      -6.732  10.252  17.406  1.00  0.00     0.002 A 
ATOM     35  C   UNL     1      -7.783   9.316  17.462  1.00  0.00     0.010 A 
ATOM     36  C   UNL     1      -6.113  10.471  16.158  1.00  0.00     0.090 A 
ATOM     37  C   UNL     1      -8.209   8.630  16.322  1.00  0.00     0.001 A 
ATOM     38  C   UNL     1      -6.547   9.788  15.011  1.00  0.00     0.022 A 
ATOM     39  C   UNL     1      -7.595   8.870  15.098  1.00  0.00     0.001 A 
BRANCH  36  40
ATOM     40  S   UNL     1      -4.752  11.601  16.039  1.00  0.00     0.238 S 
ATOM     41  O   UNL     1      -5.271  12.943  15.909  1.00  0.00    -0.207 OA
ATOM     42  O   UNL     1      -3.741  11.227  16.999  1.00  0.00    -0.207 OA
BRANCH  40  43
ATOM     43  N   UNL     1      -4.044  11.275  14.545  1.00  0.00    -0.225 NA
ATOM     44  H   UNL     1      -4.077  10.265  14.382  1.00  0.00     0.137 HD
ATOM     45  H   UNL     1      -4.535  11.812  13.827  1.00  0.00     0.137 HD
ENDBRANCH  40  43
ENDBRANCH  36  40
ENDBRANCH  32  34
ENDBRANCH   3  27
TORSDOF 10
ENDMDL
