MODEL 5
REMARK VINA RESULT:    -7.157     13.341     15.420
REMARK INTER + INTRA:         -10.847
REMARK INTER:                  -9.419
REMARK INTRA:                  -1.428
REMARK UNBOUND:                -0.970
REMARK SMILES CCCCNC1=C2C(=NC1=O)c1cccc3c(Sc4ccc(N)cc4)ccc2c13
REMARK SMILES IDX 6 1 7 2 8 3 9 4 10 5 11 6 12 7 13 8 14 9 15 10 16 11 17 12
REMARK SMILES IDX 26 13 27 14 28 15 29 16 5 17 4 19 3 20 2 21 1 22 18 23 19 24
REMARK SMILES IDX 20 25 25 26 21 27 24 28 22 29 23 30
REMARK H PARENT 5 18 23 31 23 32
ROOT
ATOM      1  C   UNL     1      38.889  13.017 -47.745  1.00  0.00     0.112 C 
ATOM      2  C   UNL     1      40.131  13.453 -47.554  1.00  0.00     0.038 C 
ATOM      3  C   UNL     1      40.261  14.588 -48.460  1.00  0.00     0.085 C 
ATOM      4  N   UNL     1      39.245  14.896 -49.179  1.00  0.00    -0.207 NA
ATOM      5  C   UNL     1      38.295  13.957 -48.805  1.00  0.00     0.294 C 
ATOM      6  O   UNL     1      37.154  13.883 -49.232  1.00  0.00    -0.265 OA
ATOM      7  C   UNL     1      41.607  15.096 -48.282  1.00  0.00     0.010 A 
ATOM      8  C   UNL     1      42.257  16.154 -48.879  1.00  0.00     0.011 A 
ATOM      9  C   UNL     1      43.576  16.392 -48.478  1.00  0.00     0.001 A 
ATOM     10  C   UNL     1      44.205  15.576 -47.508  1.00  0.00     0.010 A 
ATOM     11  C   UNL     1      43.532  14.479 -46.898  1.00  0.00    -0.003 A 
ATOM     12  C   UNL     1      43.999  13.551 -45.921  1.00  0.00     0.020 A 
ATOM     13  C   UNL     1      43.138  12.533 -45.432  1.00  0.00     0.017 A 
ATOM     14  C   UNL     1      41.823  12.389 -45.898  1.00  0.00     0.011 A 
ATOM     15  C   UNL     1      41.379  13.279 -46.849  1.00  0.00    -0.005 A 
ATOM     16  C   UNL     1      42.218  14.288 -47.327  1.00  0.00     0.000 A 
ENDROOT
BRANCH   1  17
ATOM     17  N   UNL     1      38.226  11.965 -47.144  1.00  0.00    -0.380 N 
ATOM     18  H   UNL     1      37.387  12.239 -46.640  1.00  0.00     0.160 HD
BRANCH  17  19
ATOM     19  C   UNL     1      38.265  10.589 -47.611  1.00  0.00     0.113 C 
BRANCH  19  20
ATOM     20  C   UNL     1      39.583   9.912 -47.223  1.00  0.00     0.021 C 
BRANCH  20  21
ATOM     21  C   UNL     1      40.607   9.808 -48.359  1.00  0.00    -0.002 C 
ATOM     22  C   UNL     1      41.994   9.372 -47.919  1.00  0.00     0.004 C 
ENDBRANCH  20  21
ENDBRANCH  19  20
ENDBRANCH  17  19
ENDBRANCH   1  17
BRANCH  12  23
ATOM     23  S   UNL     1      45.656  13.614 -45.239  1.00  0.00    -0.089 SA
BRANCH  23  24
ATOM     24  C   UNL     1      45.390  14.430 -43.674  1.00  0.00     0.012 A 
ATOM     25  C   UNL     1      45.623  15.805 -43.583  1.00  0.00     0.017 A 
ATOM     26  C   UNL     1      44.949  13.744 -42.539  1.00  0.00     0.017 A 
ATOM     27  C   UNL     1      45.424  16.480 -42.373  1.00  0.00     0.026 A 
ATOM     28  C   UNL     1      44.752  14.425 -41.333  1.00  0.00     0.026 A 
ATOM     29  C   UNL     1      44.941  15.805 -41.251  1.00  0.00     0.031 A 
BRANCH  29  30
ATOM     30  N   UNL     1      44.860  16.457 -40.017  1.00  0.00    -0.399 N 
ATOM     31  H   UNL     1      44.089  16.145 -39.434  1.00  0.00     0.156 HD
ATOM     32  H   UNL     1      45.738  16.489 -39.507  1.00  0.00     0.156 HD
ENDBRANCH  29  30
ENDBRANCH  23  24
ENDBRANCH  12  23
TORSDOF 7
ENDMDL
