MODEL 1
REMARK VINA RESULT:    -8.240      0.000      0.000
REMARK INTER + INTRA:          -9.566
REMARK INTER:                  -9.203
REMARK INTRA:                  -0.363
REMARK UNBOUND:                -0.363
REMARK SMILES c1ccc(Nc2ncnc3ccccc23)cc1
REMARK SMILES IDX 5 1 4 3 1 4 2 5 17 6 3 7 16 8 6 9 7 10 15 11 8 12 14 13
REMARK SMILES IDX 10 14 9 15 13 16 11 17 12 18
REMARK H PARENT 5 2
ROOT
ATOM      1  N   UNL     1      17.781  31.185   7.751  1.00  0.00    -0.340 N 
ATOM      2  H   UNL     1      18.253  31.732   7.038  1.00  0.00     0.168 HD
ENDROOT
BRANCH   1   3
ATOM      3  C   UNL     1      16.865  30.269   7.208  1.00  0.00     0.040 A 
ATOM      4  C   UNL     1      15.115  28.371   6.088  1.00  0.00     0.000 A 
ATOM      5  C   UNL     1      14.609  29.525   6.682  1.00  0.00     0.002 A 
ATOM      6  C   UNL     1      16.491  28.162   6.044  1.00  0.00     0.002 A 
ATOM      7  C   UNL     1      15.480  30.468   7.237  1.00  0.00     0.026 A 
ATOM      8  C   UNL     1      17.358  29.107   6.597  1.00  0.00     0.026 A 
ENDBRANCH   1   3
BRANCH   1   9
ATOM      9  C   UNL     1      17.783  31.910   8.949  1.00  0.00     0.141 A 
ATOM     10  N   UNL     1      18.496  31.319   9.929  1.00  0.00    -0.219 NA
ATOM     11  C   UNL     1      17.104  33.129   9.143  1.00  0.00     0.043 A 
ATOM     12  C   UNL     1      18.602  31.990  11.078  1.00  0.00     0.224 A 
ATOM     13  C   UNL     1      16.225  33.758   8.220  1.00  0.00     0.014 A 
ATOM     14  C   UNL     1      17.304  33.727  10.395  1.00  0.00     0.076 A 
ATOM     15  N   UNL     1      18.056  33.178  11.353  1.00  0.00    -0.236 NA
ATOM     16  C   UNL     1      15.610  34.972   8.517  1.00  0.00     0.001 A 
ATOM     17  C   UNL     1      16.684  34.941  10.668  1.00  0.00     0.029 A 
ATOM     18  C   UNL     1      15.848  35.572   9.743  1.00  0.00     0.002 A 
ENDBRANCH   1   9
TORSDOF 2
ENDMDL
MODEL 2
REMARK VINA RESULT:    -8.220      1.512      5.533
REMARK INTER + INTRA:          -9.544
REMARK INTER:                  -9.078
REMARK INTRA:                  -0.466
REMARK UNBOUND:                -0.363
REMARK SMILES c1ccc(Nc2ncnc3ccccc23)cc1
REMARK SMILES IDX 5 1 4 3 1 4 2 5 17 6 3 7 16 8 6 9 7 10 15 11 8 12 14 13
REMARK SMILES IDX 10 14 9 15 13 16 11 17 12 18
REMARK H PARENT 5 2
ROOT
ATOM      1  N   UNL     1      17.480  32.783   7.918  1.00  0.00    -0.340 N 
ATOM      2  H   UNL     1      17.984  33.433   7.323  1.00  0.00     0.168 HD
ENDROOT
BRANCH   1   3
ATOM      3  C   UNL     1      17.458  33.190   9.262  1.00  0.00     0.040 A 
ATOM      4  C   UNL     1      17.496  33.935  11.976  1.00  0.00     0.000 A 
ATOM      5  C   UNL     1      16.582  34.520  11.103  1.00  0.00     0.002 A 
ATOM      6  C   UNL     1      18.388  32.976  11.503  1.00  0.00     0.002 A 
ATOM      7  C   UNL     1      16.563  34.147   9.755  1.00  0.00     0.026 A 
ATOM      8  C   UNL     1      18.366  32.605  10.156  1.00  0.00     0.026 A 
ENDBRANCH   1   3
BRANCH   1   9
ATOM      9  C   UNL     1      17.505  31.516   7.322  1.00  0.00     0.141 A 
ATOM     10  N   UNL     1      18.674  31.236   6.714  1.00  0.00    -0.219 NA
ATOM     11  C   UNL     1      16.424  30.612   7.328  1.00  0.00     0.043 A 
ATOM     12  C   UNL     1      18.796  30.016   6.186  1.00  0.00     0.224 A 
ATOM     13  C   UNL     1      15.117  30.868   7.824  1.00  0.00     0.014 A 
ATOM     14  C   UNL     1      16.689  29.366   6.742  1.00  0.00     0.076 A 
ATOM     15  N   UNL     1      17.865  29.057   6.187  1.00  0.00    -0.236 NA
ATOM     16  C   UNL     1      14.123  29.892   7.785  1.00  0.00     0.001 A 
ATOM     17  C   UNL     1      15.684  28.406   6.719  1.00  0.00     0.029 A 
ATOM     18  C   UNL     1      14.411  28.652   7.238  1.00  0.00     0.002 A 
ENDBRANCH   1   9
TORSDOF 2
ENDMDL
MODEL 3
REMARK VINA RESULT:    -8.158      1.472      2.900
REMARK INTER + INTRA:          -9.475
REMARK INTER:                  -9.010
REMARK INTRA:                  -0.465
REMARK UNBOUND:                -0.363
REMARK SMILES c1ccc(Nc2ncnc3ccccc23)cc1
REMARK SMILES IDX 5 1 4 3 1 4 2 5 17 6 3 7 16 8 6 9 7 10 15 11 8 12 14 13
REMARK SMILES IDX 10 14 9 15 13 16 11 17 12 18
REMARK H PARENT 5 2
ROOT
ATOM      1  N   UNL     1      16.656  32.307   7.328  1.00  0.00    -0.340 N 
ATOM      2  H   UNL     1      16.708  32.785   6.434  1.00  0.00     0.168 HD
ENDROOT
BRANCH   1   3
ATOM      3  C   UNL     1      16.110  31.017   7.217  1.00  0.00     0.040 A 
ATOM      4  C   UNL     1      14.923  28.472   7.041  1.00  0.00     0.000 A 
ATOM      5  C   UNL     1      16.226  28.669   6.590  1.00  0.00     0.002 A 
ATOM      6  C   UNL     1      14.211  29.538   7.585  1.00  0.00     0.002 A 
ATOM      7  C   UNL     1      16.815  29.934   6.680  1.00  0.00     0.026 A 
ATOM      8  C   UNL     1      14.803  30.800   7.674  1.00  0.00     0.026 A 
ENDBRANCH   1   3
BRANCH   1   9
ATOM      9  C   UNL     1      16.600  33.265   8.347  1.00  0.00     0.141 A 
ATOM     10  N   UNL     1      15.794  34.304   8.058  1.00  0.00    -0.219 NA
ATOM     11  C   UNL     1      17.318  33.181   9.557  1.00  0.00     0.043 A 
ATOM     12  C   UNL     1      15.635  35.222   9.015  1.00  0.00     0.224 A 
ATOM     13  C   UNL     1      18.288  32.199   9.894  1.00  0.00     0.014 A 
ATOM     14  C   UNL     1      17.055  34.209  10.475  1.00  0.00     0.076 A 
ATOM     15  N   UNL     1      16.213  35.215  10.220  1.00  0.00    -0.236 NA
ATOM     16  C   UNL     1      18.933  32.211  11.129  1.00  0.00     0.001 A 
ATOM     17  C   UNL     1      17.707  34.199  11.702  1.00  0.00     0.029 A 
ATOM     18  C   UNL     1      18.634  33.211  12.041  1.00  0.00     0.002 A 
ENDBRANCH   1   9
TORSDOF 2
ENDMDL
MODEL 4
REMARK VINA RESULT:    -7.728      2.958      6.353
REMARK INTER + INTRA:          -8.995
REMARK INTER:                  -8.560
REMARK INTRA:                  -0.435
REMARK UNBOUND:                -0.363
REMARK SMILES c1ccc(Nc2ncnc3ccccc23)cc1
REMARK SMILES IDX 5 1 4 3 1 4 2 5 17 6 3 7 16 8 6 9 7 10 15 11 8 12 14 13
REMARK SMILES IDX 10 14 9 15 13 16 11 17 12 18
REMARK H PARENT 5 2
ROOT
ATOM      1  N   UNL     1      17.479  34.464  13.069  1.00  0.00    -0.340 N 
ATOM      2  H   UNL     1      18.371  34.768  13.449  1.00  0.00     0.168 HD
ENDROOT
BRANCH   1   3
ATOM      3  C   UNL     1      16.466  34.425  14.041  1.00  0.00     0.040 A 
ATOM      4  C   UNL     1      14.508  34.380  16.062  1.00  0.00     0.000 A 
ATOM      5  C   UNL     1      14.180  34.002  14.762  1.00  0.00     0.002 A 
ATOM      6  C   UNL     1      15.809  34.775  16.360  1.00  0.00     0.002 A 
ATOM      7  C   UNL     1      15.155  34.023  13.759  1.00  0.00     0.026 A 
ATOM      8  C   UNL     1      16.781  34.794  15.356  1.00  0.00     0.026 A 
ENDBRANCH   1   3
BRANCH   1   9
ATOM      9  C   UNL     1      17.718  33.684  11.931  1.00  0.00     0.141 A 
ATOM     10  N   UNL     1      18.608  32.695  12.140  1.00  0.00    -0.219 NA
ATOM     11  C   UNL     1      17.113  33.902  10.676  1.00  0.00     0.043 A 
ATOM     12  C   UNL     1      18.831  31.865  11.117  1.00  0.00     0.224 A 
ATOM     13  C   UNL     1      16.271  34.991  10.326  1.00  0.00     0.014 A 
ATOM     14  C   UNL     1      17.432  32.955   9.692  1.00  0.00     0.076 A 
ATOM     15  N   UNL     1      18.270  31.935   9.906  1.00  0.00    -0.236 NA
ATOM     16  C   UNL     1      15.720  35.101   9.051  1.00  0.00     0.001 A 
ATOM     17  C   UNL     1      16.868  33.081   8.429  1.00  0.00     0.029 A 
ATOM     18  C   UNL     1      16.013  34.136   8.100  1.00  0.00     0.002 A 
ENDBRANCH   1   9
TORSDOF 2
ENDMDL
MODEL 5
REMARK VINA RESULT:    -7.579      4.791      7.074
REMARK INTER + INTRA:          -8.828
REMARK INTER:                  -8.682
REMARK INTRA:                  -0.147
REMARK UNBOUND:                -0.363
REMARK SMILES c1ccc(Nc2ncnc3ccccc23)cc1
REMARK SMILES IDX 5 1 4 3 1 4 2 5 17 6 3 7 16 8 6 9 7 10 15 11 8 12 14 13
REMARK SMILES IDX 10 14 9 15 13 16 11 17 12 18
REMARK H PARENT 5 2
ROOT
ATOM      1  N   UNL     1      17.312  34.423  13.805  1.00  0.00    -0.340 N 
ATOM      2  H   UNL     1      17.931  35.201  14.010  1.00  0.00     0.168 HD
ENDROOT
BRANCH   1   3
ATOM      3  C   UNL     1      17.504  33.907  12.513  1.00  0.00     0.040 A 
ATOM      4  C   UNL     1      17.952  32.797   9.966  1.00  0.00     0.000 A 
ATOM      5  C   UNL     1      17.145  33.923  10.106  1.00  0.00     0.002 A 
ATOM      6  C   UNL     1      18.542  32.225  11.090  1.00  0.00     0.002 A 
ATOM      7  C   UNL     1      16.924  34.475  11.372  1.00  0.00     0.026 A 
ATOM      8  C   UNL     1      18.321  32.779  12.353  1.00  0.00     0.026 A 
ENDBRANCH   1   3
BRANCH   1   9
ATOM      9  C   UNL     1      16.172  34.532  14.612  1.00  0.00     0.141 A 
ATOM     10  N   UNL     1      15.056  34.058  14.025  1.00  0.00    -0.219 NA
ATOM     11  C   UNL     1      16.164  35.092  15.905  1.00  0.00     0.043 A 
ATOM     12  C   UNL     1      13.944  34.064  14.764  1.00  0.00     0.224 A 
ATOM     13  C   UNL     1      17.255  35.733  16.551  1.00  0.00     0.014 A 
ATOM     14  C   UNL     1      14.931  35.030  16.570  1.00  0.00     0.076 A 
ATOM     15  N   UNL     1      13.830  34.510  16.018  1.00  0.00    -0.236 NA
ATOM     16  C   UNL     1      17.134  36.246  17.841  1.00  0.00     0.001 A 
ATOM     17  C   UNL     1      14.834  35.544  17.858  1.00  0.00     0.029 A 
ATOM     18  C   UNL     1      15.919  36.143  18.501  1.00  0.00     0.002 A 
ENDBRANCH   1   9
TORSDOF 2
ENDMDL
MODEL 6
REMARK VINA RESULT:    -7.516      2.681      4.312
REMARK INTER + INTRA:          -8.757
REMARK INTER:                  -8.317
REMARK INTRA:                  -0.440
REMARK UNBOUND:                -0.363
REMARK SMILES c1ccc(Nc2ncnc3ccccc23)cc1
REMARK SMILES IDX 5 1 4 3 1 4 2 5 17 6 3 7 16 8 6 9 7 10 15 11 8 12 14 13
REMARK SMILES IDX 10 14 9 15 13 16 11 17 12 18
REMARK H PARENT 5 2
ROOT
ATOM      1  N   UNL     1      18.103  32.235  11.006  1.00  0.00    -0.340 N 
ATOM      2  H   UNL     1      18.468  31.288  10.984  1.00  0.00     0.168 HD
ENDROOT
BRANCH   1   3
ATOM      3  C   UNL     1      17.494  32.605   9.795  1.00  0.00     0.040 A 
ATOM      4  C   UNL     1      16.316  33.256   7.323  1.00  0.00     0.000 A 
ATOM      5  C   UNL     1      16.151  34.099   8.420  1.00  0.00     0.002 A 
ATOM      6  C   UNL     1      17.070  32.093   7.452  1.00  0.00     0.002 A 
ATOM      7  C   UNL     1      16.739  33.775   9.647  1.00  0.00     0.026 A 
ATOM      8  C   UNL     1      17.657  31.773   8.679  1.00  0.00     0.026 A 
ENDBRANCH   1   3
BRANCH   1   9
ATOM      9  C   UNL     1      18.818  32.971  11.959  1.00  0.00     0.141 A 
ATOM     10  N   UNL     1      20.152  32.923  11.778  1.00  0.00    -0.219 NA
ATOM     11  C   UNL     1      18.226  33.685  13.020  1.00  0.00     0.043 A 
ATOM     12  C   UNL     1      20.894  33.661  12.607  1.00  0.00     0.224 A 
ATOM     13  C   UNL     1      16.849  33.686  13.369  1.00  0.00     0.014 A 
ATOM     14  C   UNL     1      19.121  34.419  13.812  1.00  0.00     0.076 A 
ATOM     15  N   UNL     1      20.442  34.424  13.606  1.00  0.00    -0.236 NA
ATOM     16  C   UNL     1      16.373  34.439  14.441  1.00  0.00     0.001 A 
ATOM     17  C   UNL     1      18.624  35.166  14.873  1.00  0.00     0.029 A 
ATOM     18  C   UNL     1      17.264  35.190  15.191  1.00  0.00     0.002 A 
ENDBRANCH   1   9
TORSDOF 2
ENDMDL
MODEL 7
REMARK VINA RESULT:    -7.271      3.599      7.104
REMARK INTER + INTRA:          -8.484
REMARK INTER:                  -8.073
REMARK INTRA:                  -0.410
REMARK UNBOUND:                -0.363
REMARK SMILES c1ccc(Nc2ncnc3ccccc23)cc1
REMARK SMILES IDX 5 1 4 3 1 4 2 5 17 6 3 7 16 8 6 9 7 10 15 11 8 12 14 13
REMARK SMILES IDX 10 14 9 15 13 16 11 17 12 18
REMARK H PARENT 5 2
ROOT
ATOM      1  N   UNL     1      18.015  34.820  14.098  1.00  0.00    -0.340 N 
ATOM      2  H   UNL     1      18.772  35.410  14.429  1.00  0.00     0.168 HD
ENDROOT
BRANCH   1   3
ATOM      3  C   UNL     1      16.926  34.793  14.985  1.00  0.00     0.040 A 
ATOM      4  C   UNL     1      14.681  34.706  16.679  1.00  0.00     0.000 A 
ATOM      5  C   UNL     1      15.916  35.115  17.175  1.00  0.00     0.002 A 
ATOM      6  C   UNL     1      14.559  34.346  15.339  1.00  0.00     0.002 A 
ATOM      7  C   UNL     1      17.031  35.159  16.332  1.00  0.00     0.026 A 
ATOM      8  C   UNL     1      15.674  34.393  14.499  1.00  0.00     0.026 A 
ENDBRANCH   1   3
BRANCH   1   9
ATOM      9  C   UNL     1      18.544  33.854  13.233  1.00  0.00     0.141 A 
ATOM     10  N   UNL     1      19.536  33.128  13.786  1.00  0.00    -0.219 NA
ATOM     11  C   UNL     1      18.112  33.651  11.907  1.00  0.00     0.043 A 
ATOM     12  C   UNL     1      20.039  32.139  13.044  1.00  0.00     0.224 A 
ATOM     13  C   UNL     1      17.173  34.446  11.198  1.00  0.00     0.014 A 
ATOM     14  C   UNL     1      18.722  32.577  11.242  1.00  0.00     0.076 A 
ATOM     15  N   UNL     1      19.666  31.815  11.802  1.00  0.00    -0.236 NA
ATOM     16  C   UNL     1      16.813  34.146   9.885  1.00  0.00     0.001 A 
ATOM     17  C   UNL     1      18.345  32.293   9.935  1.00  0.00     0.029 A 
ATOM     18  C   UNL     1      17.396  33.059   9.254  1.00  0.00     0.002 A 
ENDBRANCH   1   9
TORSDOF 2
ENDMDL
MODEL 8
REMARK VINA RESULT:    -7.265      4.488      6.676
REMARK INTER + INTRA:          -8.477
REMARK INTER:                  -8.040
REMARK INTRA:                  -0.437
REMARK UNBOUND:                -0.363
REMARK SMILES c1ccc(Nc2ncnc3ccccc23)cc1
REMARK SMILES IDX 5 1 4 3 1 4 2 5 17 6 3 7 16 8 6 9 7 10 15 11 8 12 14 13
REMARK SMILES IDX 10 14 9 15 13 16 11 17 12 18
REMARK H PARENT 5 2
ROOT
ATOM      1  N   UNL     1      18.615  34.614  13.820  1.00  0.00    -0.340 N 
ATOM      2  H   UNL     1      18.611  35.615  13.646  1.00  0.00     0.168 HD
ENDROOT
BRANCH   1   3
ATOM      3  C   UNL     1      18.518  33.862  12.637  1.00  0.00     0.040 A 
ATOM      4  C   UNL     1      18.397  32.285  10.310  1.00  0.00     0.000 A 
ATOM      5  C   UNL     1      17.631  33.445  10.410  1.00  0.00     0.002 A 
ATOM      6  C   UNL     1      19.227  31.912  11.363  1.00  0.00     0.002 A 
ATOM      7  C   UNL     1      17.694  34.228  11.567  1.00  0.00     0.026 A 
ATOM      8  C   UNL     1      19.289  32.698  12.516  1.00  0.00     0.026 A 
ENDBRANCH   1   3
BRANCH   1   9
ATOM      9  C   UNL     1      18.150  34.382  15.120  1.00  0.00     0.141 A 
ATOM     10  N   UNL     1      19.134  34.105  15.997  1.00  0.00    -0.219 NA
ATOM     11  C   UNL     1      16.792  34.414  15.496  1.00  0.00     0.043 A 
ATOM     12  C   UNL     1      18.770  33.943  17.272  1.00  0.00     0.224 A 
ATOM     13  C   UNL     1      15.681  34.565  14.623  1.00  0.00     0.014 A 
ATOM     14  C   UNL     1      16.551  34.232  16.866  1.00  0.00     0.076 A 
ATOM     15  N   UNL     1      17.526  34.013  17.754  1.00  0.00    -0.236 NA
ATOM     16  C   UNL     1      14.375  34.589  15.110  1.00  0.00     0.001 A 
ATOM     17  C   UNL     1      15.242  34.264  17.329  1.00  0.00     0.029 A 
ATOM     18  C   UNL     1      14.155  34.447  16.471  1.00  0.00     0.002 A 
ENDBRANCH   1   9
TORSDOF 2
ENDMDL
MODEL 9
REMARK VINA RESULT:    -7.099      4.637      6.844
REMARK INTER + INTRA:          -8.293
REMARK INTER:                  -7.945
REMARK INTRA:                  -0.348
REMARK UNBOUND:                -0.363
REMARK SMILES c1ccc(Nc2ncnc3ccccc23)cc1
REMARK SMILES IDX 5 1 4 3 1 4 2 5 17 6 3 7 16 8 6 9 7 10 15 11 8 12 14 13
REMARK SMILES IDX 10 14 9 15 13 16 11 17 12 18
REMARK H PARENT 5 2
ROOT
ATOM      1  N   UNL     1      16.980  33.585  13.745  1.00  0.00    -0.340 N 
ATOM      2  H   UNL     1      16.843  32.670  14.163  1.00  0.00     0.168 HD
ENDROOT
BRANCH   1   3
ATOM      3  C   UNL     1      17.116  33.524  12.348  1.00  0.00     0.040 A 
ATOM      4  C   UNL     1      17.321  33.486   9.542  1.00  0.00     0.000 A 
ATOM      5  C   UNL     1      18.016  32.552  10.307  1.00  0.00     0.002 A 
ATOM      6  C   UNL     1      16.519  34.436  10.170  1.00  0.00     0.002 A 
ATOM      7  C   UNL     1      17.912  32.571  11.701  1.00  0.00     0.026 A 
ATOM      8  C   UNL     1      16.416  34.451  11.563  1.00  0.00     0.026 A 
ENDBRANCH   1   3
BRANCH   1   9
ATOM      9  C   UNL     1      17.537  34.439  14.705  1.00  0.00     0.141 A 
ATOM     10  N   UNL     1      18.816  34.772  14.444  1.00  0.00    -0.219 NA
ATOM     11  C   UNL     1      16.855  34.905  15.847  1.00  0.00     0.043 A 
ATOM     12  C   UNL     1      19.389  35.642  15.280  1.00  0.00     0.224 A 
ATOM     13  C   UNL     1      15.559  34.506  16.274  1.00  0.00     0.014 A 
ATOM     14  C   UNL     1      17.573  35.814  16.637  1.00  0.00     0.076 A 
ATOM     15  N   UNL     1      18.822  36.196  16.355  1.00  0.00    -0.236 NA
ATOM     16  C   UNL     1      14.978  35.040  17.423  1.00  0.00     0.001 A 
ATOM     17  C   UNL     1      16.972  36.338  17.775  1.00  0.00     0.029 A 
ATOM     18  C   UNL     1      15.684  35.968  18.172  1.00  0.00     0.002 A 
ENDBRANCH   1   9
TORSDOF 2
ENDMDL
