MODEL 1
REMARK VINA RESULT:    -9.431      0.000      0.000
REMARK INTER + INTRA:         -13.362
REMARK INTER:                 -12.739
REMARK INTRA:                  -0.623
REMARK UNBOUND:                -0.623
REMARK SMILES COC(=O)N1CCC(n2ncc3c(N4[C@@H]5CC[C@H]4COC5)nc(-c4ccc(NC(=O)Nc5cccnc5)cc4)nc32)CC1
REMARK SMILES IDX 9 1 10 2 11 3 12 4 13 5 22 6 23 7 40 8 41 9 8 10 3 11 4 12
REMARK SMILES IDX 5 13 6 14 43 15 7 16 42 17 2 18 1 19 24 20 25 21 39 22 26 23
REMARK SMILES IDX 38 24 27 25 28 26 29 27 30 28 31 29 32 32 33 33 37 34 34 35
REMARK SMILES IDX 36 36 35 37 14 38 15 39 18 40 16 41 21 42 17 43 19 44 20 45
REMARK H PARENT 28 30 31 31
ROOT
ATOM      1  N   UNL     1      -2.254  -5.036  20.593  1.00  0.00    -0.244 N 
ATOM      2  N   UNL     1      -2.801  -5.076  21.830  1.00  0.00    -0.178 NA
ATOM      3  C   UNL     1      -3.083  -6.371  22.002  1.00  0.00     0.149 A 
ATOM      4  C   UNL     1      -2.689  -7.173  20.910  1.00  0.00     0.082 A 
ATOM      5  C   UNL     1      -2.716  -8.528  20.542  1.00  0.00     0.144 A 
ATOM      6  N   UNL     1      -2.285  -8.825  19.285  1.00  0.00    -0.210 NA
ATOM      7  C   UNL     1      -1.831  -7.850  18.462  1.00  0.00     0.163 A 
ATOM      8  N   UNL     1      -1.748  -6.539  18.755  1.00  0.00    -0.208 NA
ATOM      9  C   UNL     1      -2.193  -6.266  19.991  1.00  0.00     0.164 A 
ENDROOT
BRANCH   1  10
ATOM     10  C   UNL     1      -1.844  -3.752  20.044  1.00  0.00     0.113 C 
ATOM     11  C   UNL     1      -0.961   0.137  18.994  1.00  0.00     0.409 C 
ATOM     12  O   UNL     1      -0.426   0.932  19.758  1.00  0.00    -0.224 OA
ATOM     13  N   UNL     1      -1.577  -1.036  19.399  1.00  0.00    -0.308 N 
ATOM     14  C   UNL     1      -1.715  -1.325  20.818  1.00  0.00     0.125 C 
ATOM     15  C   UNL     1      -2.297  -1.884  18.455  1.00  0.00     0.125 C 
ATOM     16  C   UNL     1      -1.377  -2.780  21.138  1.00  0.00     0.049 C 
ATOM     17  C   UNL     1      -2.887  -3.128  19.110  1.00  0.00     0.049 C 
BRANCH  11  18
ATOM     18  O   UNL     1      -1.018   0.307  17.644  1.00  0.00    -0.453 OA
ATOM     19  C   UNL     1       0.256   0.473  17.018  1.00  0.00     0.284 C 
ENDBRANCH  11  18
ENDBRANCH   1  10
BRANCH   7  20
ATOM     20  C   UNL     1      -1.373  -8.272  17.121  1.00  0.00     0.019 A 
ATOM     21  C   UNL     1      -1.757  -9.507  16.570  1.00  0.00     0.014 A 
ATOM     22  C   UNL     1      -0.531  -7.463  16.339  1.00  0.00     0.014 A 
ATOM     23  C   UNL     1      -1.322  -9.909  15.299  1.00  0.00     0.027 A 
ATOM     24  C   UNL     1      -0.099  -7.859  15.063  1.00  0.00     0.027 A 
ATOM     25  C   UNL     1      -0.496  -9.083  14.530  1.00  0.00     0.042 A 
BRANCH  25  26
ATOM     26  N   UNL     1      -0.106  -9.563  13.263  1.00  0.00    -0.308 N 
ATOM     27  C   UNL     1       0.793  -8.983  12.379  1.00  0.00     0.323 C 
ATOM     28  O   UNL     1       1.334  -7.897  12.537  1.00  0.00    -0.248 OA
ATOM     29  N   UNL     1       0.987  -9.814  11.284  1.00  0.00    -0.306 N 
ATOM     30  H   UNL     1      -0.628 -10.350  12.913  1.00  0.00     0.171 HD
ATOM     31  H   UNL     1       0.678 -10.766  11.386  1.00  0.00     0.171 HD
BRANCH  29  32
ATOM     32  C   UNL     1       1.711  -9.520  10.106  1.00  0.00     0.061 A 
ATOM     33  C   UNL     1       2.781 -10.272   9.628  1.00  0.00     0.029 A 
ATOM     34  C   UNL     1       1.369  -8.380   9.377  1.00  0.00     0.137 A 
ATOM     35  C   UNL     1       3.452  -9.868   8.473  1.00  0.00     0.022 A 
ATOM     36  N   UNL     1       2.002  -7.958   8.258  1.00  0.00    -0.263 NA
ATOM     37  C   UNL     1       3.035  -8.716   7.834  1.00  0.00     0.111 A 
ENDBRANCH  29  32
ENDBRANCH  25  26
ENDBRANCH   7  20
BRANCH   5  38
ATOM     38  N   UNL     1      -3.207  -9.539  21.346  1.00  0.00    -0.345 N 
ATOM     39  C   UNL     1      -3.034 -10.948  20.935  1.00  0.00     0.110 C 
ATOM     40  C   UNL     1      -2.919  -9.568  22.793  1.00  0.00     0.110 C 
ATOM     41  C   UNL     1      -3.908 -11.650  21.998  1.00  0.00     0.030 C 
ATOM     42  C   UNL     1      -1.551 -11.377  21.120  1.00  0.00     0.185 C 
ATOM     43  C   UNL     1      -3.828 -10.733  23.233  1.00  0.00     0.030 C 
ATOM     44  C   UNL     1      -1.426  -9.938  23.014  1.00  0.00     0.185 C 
ATOM     45  O   UNL     1      -1.118 -11.247  22.491  1.00  0.00    -0.377 OA
ENDBRANCH   5  38
TORSDOF 6
ENDMDL
MODEL 2
REMARK VINA RESULT:    -9.321      2.241      2.637
REMARK INTER + INTRA:         -13.214
REMARK INTER:                 -12.277
REMARK INTRA:                  -0.937
REMARK UNBOUND:                -0.623
REMARK SMILES COC(=O)N1CCC(n2ncc3c(N4[C@@H]5CC[C@H]4COC5)nc(-c4ccc(NC(=O)Nc5cccnc5)cc4)nc32)CC1
REMARK SMILES IDX 9 1 10 2 11 3 12 4 13 5 22 6 23 7 40 8 41 9 8 10 3 11 4 12
REMARK SMILES IDX 5 13 6 14 43 15 7 16 42 17 2 18 1 19 24 20 25 21 39 22 26 23
REMARK SMILES IDX 38 24 27 25 28 26 29 27 30 28 31 29 32 32 33 33 37 34 34 35
REMARK SMILES IDX 36 36 35 37 14 38 15 39 18 40 16 41 21 42 17 43 19 44 20 45
REMARK H PARENT 28 30 31 31
ROOT
ATOM      1  N   UNL     1      -0.301  -5.220  19.931  1.00  0.00    -0.244 N 
ATOM      2  N   UNL     1      -0.867  -5.192  21.159  1.00  0.00    -0.178 NA
ATOM      3  C   UNL     1      -1.655  -6.272  21.162  1.00  0.00     0.149 A 
ATOM      4  C   UNL     1      -1.574  -7.018  19.967  1.00  0.00     0.082 A 
ATOM      5  C   UNL     1      -2.131  -8.187  19.423  1.00  0.00     0.144 A 
ATOM      6  N   UNL     1      -1.805  -8.471  18.132  1.00  0.00    -0.210 NA
ATOM      7  C   UNL     1      -0.963  -7.668  17.439  1.00  0.00     0.163 A 
ATOM      8  N   UNL     1      -0.371  -6.552  17.902  1.00  0.00    -0.208 NA
ATOM      9  C   UNL     1      -0.717  -6.281  19.170  1.00  0.00     0.164 A 
ENDROOT
BRANCH   1  10
ATOM     10  C   UNL     1       0.615  -4.154  19.551  1.00  0.00     0.113 C 
ATOM     11  C   UNL     1       3.568  -1.339  18.952  1.00  0.00     0.409 C 
ATOM     12  O   UNL     1       4.756  -1.625  18.855  1.00  0.00    -0.224 OA
ATOM     13  N   UNL     1       2.607  -2.182  19.486  1.00  0.00    -0.308 N 
ATOM     14  C   UNL     1       3.008  -3.448  20.079  1.00  0.00     0.125 C 
ATOM     15  C   UNL     1       1.230  -1.741  19.681  1.00  0.00     0.125 C 
ATOM     16  C   UNL     1       2.084  -4.591  19.662  1.00  0.00     0.049 C 
ATOM     17  C   UNL     1       0.340  -2.829  20.271  1.00  0.00     0.049 C 
BRANCH  11  18
ATOM     18  O   UNL     1       3.040  -0.152  18.545  1.00  0.00    -0.453 OA
ATOM     19  C   UNL     1       3.337   0.189  17.188  1.00  0.00     0.284 C 
ENDBRANCH  11  18
ENDBRANCH   1  10
BRANCH   7  20
ATOM     20  C   UNL     1      -0.660  -8.065  16.047  1.00  0.00     0.019 A 
ATOM     21  C   UNL     1      -0.071  -7.167  15.141  1.00  0.00     0.014 A 
ATOM     22  C   UNL     1      -0.950  -9.353  15.566  1.00  0.00     0.014 A 
ATOM     23  C   UNL     1       0.216  -7.541  13.820  1.00  0.00     0.027 A 
ATOM     24  C   UNL     1      -0.657  -9.735  14.246  1.00  0.00     0.027 A 
ATOM     25  C   UNL     1      -0.067  -8.833  13.364  1.00  0.00     0.042 A 
BRANCH  25  26
ATOM     26  N   UNL     1       0.255  -9.126  12.023  1.00  0.00    -0.308 N 
ATOM     27  C   UNL     1       1.446  -8.862  11.362  1.00  0.00     0.323 C 
ATOM     28  O   UNL     1       2.392  -8.246  11.834  1.00  0.00    -0.248 OA
ATOM     29  N   UNL     1       1.408  -9.397  10.081  1.00  0.00    -0.306 N 
ATOM     30  H   UNL     1      -0.507  -9.453  11.451  1.00  0.00     0.171 HD
ATOM     31  H   UNL     1       0.686 -10.074   9.901  1.00  0.00     0.171 HD
BRANCH  29  32
ATOM     32  C   UNL     1       2.362  -9.219   9.053  1.00  0.00     0.061 A 
ATOM     33  C   UNL     1       2.453  -8.088   8.247  1.00  0.00     0.029 A 
ATOM     34  C   UNL     1       3.259 -10.254   8.787  1.00  0.00     0.137 A 
ATOM     35  C   UNL     1       3.410  -8.033   7.233  1.00  0.00     0.022 A 
ATOM     36  N   UNL     1       4.194 -10.236   7.808  1.00  0.00    -0.263 NA
ATOM     37  C   UNL     1       4.243  -9.120   7.050  1.00  0.00     0.111 A 
ENDBRANCH  29  32
ENDBRANCH  25  26
ENDBRANCH   7  20
BRANCH   5  38
ATOM     38  N   UNL     1      -3.020  -9.006  20.092  1.00  0.00    -0.345 N 
ATOM     39  C   UNL     1      -3.490 -10.252  19.452  1.00  0.00     0.110 C 
ATOM     40  C   UNL     1      -2.777  -9.412  21.490  1.00  0.00     0.110 C 
ATOM     41  C   UNL     1      -4.586 -10.676  20.455  1.00  0.00     0.030 C 
ATOM     42  C   UNL     1      -2.352 -11.312  19.452  1.00  0.00     0.185 C 
ATOM     43  C   UNL     1      -4.109 -10.120  21.810  1.00  0.00     0.030 C 
ATOM     44  C   UNL     1      -1.604 -10.430  21.534  1.00  0.00     0.185 C 
ATOM     45  O   UNL     1      -1.908 -11.627  20.788  1.00  0.00    -0.377 OA
ENDBRANCH   5  38
TORSDOF 6
ENDMDL
MODEL 3
REMARK VINA RESULT:    -9.057      1.658      6.956
REMARK INTER + INTRA:         -12.858
REMARK INTER:                 -12.493
REMARK INTRA:                  -0.365
REMARK UNBOUND:                -0.623
REMARK SMILES COC(=O)N1CCC(n2ncc3c(N4[C@@H]5CC[C@H]4COC5)nc(-c4ccc(NC(=O)Nc5cccnc5)cc4)nc32)CC1
REMARK SMILES IDX 9 1 10 2 11 3 12 4 13 5 22 6 23 7 40 8 41 9 8 10 3 11 4 12
REMARK SMILES IDX 5 13 6 14 43 15 7 16 42 17 2 18 1 19 24 20 25 21 39 22 26 23
REMARK SMILES IDX 38 24 27 25 28 26 29 27 30 28 31 29 32 32 33 33 37 34 34 35
REMARK SMILES IDX 36 36 35 37 14 38 15 39 18 40 16 41 21 42 17 43 19 44 20 45
REMARK H PARENT 28 30 31 31
ROOT
ATOM      1  N   UNL     1      -2.276  -7.250  21.794  1.00  0.00    -0.244 N 
ATOM      2  N   UNL     1      -2.264  -6.407  22.853  1.00  0.00    -0.178 NA
ATOM      3  C   UNL     1      -1.696  -5.302  22.361  1.00  0.00     0.149 A 
ATOM      4  C   UNL     1      -1.378  -5.405  20.991  1.00  0.00     0.082 A 
ATOM      5  C   UNL     1      -0.806  -4.609  19.984  1.00  0.00     0.144 A 
ATOM      6  N   UNL     1      -0.609  -5.204  18.776  1.00  0.00    -0.210 NA
ATOM      7  C   UNL     1      -0.980  -6.491  18.572  1.00  0.00     0.163 A 
ATOM      8  N   UNL     1      -1.558  -7.304  19.476  1.00  0.00    -0.208 NA
ATOM      9  C   UNL     1      -1.728  -6.703  20.663  1.00  0.00     0.164 A 
ENDROOT
BRANCH   1  10
ATOM     10  C   UNL     1      -2.807  -8.594  21.968  1.00  0.00     0.113 C 
ATOM     11  C   UNL     1      -4.782 -12.212  22.084  1.00  0.00     0.409 C 
ATOM     12  O   UNL     1      -5.151 -12.807  21.077  1.00  0.00    -0.224 OA
ATOM     13  N   UNL     1      -4.438 -10.871  22.112  1.00  0.00    -0.308 N 
ATOM     14  C   UNL     1      -4.616 -10.056  20.921  1.00  0.00     0.125 C 
ATOM     15  C   UNL     1      -4.118 -10.192  23.363  1.00  0.00     0.125 C 
ATOM     16  C   UNL     1      -3.416  -9.144  20.669  1.00  0.00     0.049 C 
ATOM     17  C   UNL     1      -3.758  -8.724  23.163  1.00  0.00     0.049 C 
BRANCH  11  18
ATOM     18  O   UNL     1      -4.663 -12.798  23.307  1.00  0.00    -0.453 OA
ATOM     19  C   UNL     1      -5.571 -13.880  23.532  1.00  0.00     0.284 C 
ENDBRANCH  11  18
ENDBRANCH   1  10
BRANCH   7  20
ATOM     20  C   UNL     1      -0.737  -7.047  17.223  1.00  0.00     0.019 A 
ATOM     21  C   UNL     1      -0.922  -8.413  16.949  1.00  0.00     0.014 A 
ATOM     22  C   UNL     1      -0.306  -6.239  16.157  1.00  0.00     0.014 A 
ATOM     23  C   UNL     1      -0.689  -8.942  15.672  1.00  0.00     0.027 A 
ATOM     24  C   UNL     1      -0.080  -6.763  14.874  1.00  0.00     0.027 A 
ATOM     25  C   UNL     1      -0.275  -8.119  14.620  1.00  0.00     0.042 A 
BRANCH  25  26
ATOM     26  N   UNL     1      -0.066  -8.732  13.367  1.00  0.00    -0.308 N 
ATOM     27  C   UNL     1       0.970  -8.496  12.474  1.00  0.00     0.323 C 
ATOM     28  O   UNL     1       1.835  -7.640  12.607  1.00  0.00    -0.248 OA
ATOM     29  N   UNL     1       0.881  -9.373  11.401  1.00  0.00    -0.306 N 
ATOM     30  H   UNL     1      -0.816  -9.315  13.034  1.00  0.00     0.171 HD
ATOM     31  H   UNL     1       0.281 -10.171  11.525  1.00  0.00     0.171 HD
BRANCH  29  32
ATOM     32  C   UNL     1       1.658  -9.359  10.220  1.00  0.00     0.061 A 
ATOM     33  C   UNL     1       2.634 -10.301   9.906  1.00  0.00     0.029 A 
ATOM     34  C   UNL     1       1.476  -8.316   9.311  1.00  0.00     0.137 A 
ATOM     35  C   UNL     1       3.371 -10.170   8.728  1.00  0.00     0.022 A 
ATOM     36  N   UNL     1       2.177  -8.156   8.165  1.00  0.00    -0.263 NA
ATOM     37  C   UNL     1       3.115  -9.092   7.903  1.00  0.00     0.111 A 
ENDBRANCH  29  32
ENDBRANCH  25  26
ENDBRANCH   7  20
BRANCH   5  38
ATOM     38  N   UNL     1      -0.385  -3.306  20.174  1.00  0.00    -0.345 N 
ATOM     39  C   UNL     1      -0.163  -2.433  19.002  1.00  0.00     0.110 C 
ATOM     40  C   UNL     1      -1.067  -2.419  21.135  1.00  0.00     0.110 C 
ATOM     41  C   UNL     1       0.485  -1.213  19.694  1.00  0.00     0.030 C 
ATOM     42  C   UNL     1      -1.526  -2.014  18.385  1.00  0.00     0.185 C 
ATOM     43  C   UNL     1      -0.119  -1.202  21.110  1.00  0.00     0.030 C 
ATOM     44  C   UNL     1      -2.461  -2.025  20.576  1.00  0.00     0.185 C 
ATOM     45  O   UNL     1      -2.352  -1.303  19.332  1.00  0.00    -0.377 OA
ENDBRANCH   5  38
TORSDOF 6
ENDMDL
MODEL 4
REMARK VINA RESULT:    -8.987      2.365      6.820
REMARK INTER + INTRA:         -12.762
REMARK INTER:                 -12.082
REMARK INTRA:                  -0.681
REMARK UNBOUND:                -0.623
REMARK SMILES COC(=O)N1CCC(n2ncc3c(N4[C@@H]5CC[C@H]4COC5)nc(-c4ccc(NC(=O)Nc5cccnc5)cc4)nc32)CC1
REMARK SMILES IDX 9 1 10 2 11 3 12 4 13 5 22 6 23 7 40 8 41 9 8 10 3 11 4 12
REMARK SMILES IDX 5 13 6 14 43 15 7 16 42 17 2 18 1 19 24 20 25 21 39 22 26 23
REMARK SMILES IDX 38 24 27 25 28 26 29 27 30 28 31 29 32 32 33 33 37 34 34 35
REMARK SMILES IDX 36 36 35 37 14 38 15 39 18 40 16 41 21 42 17 43 19 44 20 45
REMARK H PARENT 28 30 31 31
ROOT
ATOM      1  N   UNL     1      -2.149  -7.203  21.421  1.00  0.00    -0.244 N 
ATOM      2  N   UNL     1      -1.985  -6.405  22.501  1.00  0.00    -0.178 NA
ATOM      3  C   UNL     1      -1.182  -5.436  22.051  1.00  0.00     0.149 A 
ATOM      4  C   UNL     1      -0.858  -5.576  20.685  1.00  0.00     0.082 A 
ATOM      5  C   UNL     1      -0.104  -4.899  19.712  1.00  0.00     0.144 A 
ATOM      6  N   UNL     1      -0.007  -5.497  18.493  1.00  0.00    -0.210 NA
ATOM      7  C   UNL     1      -0.638  -6.670  18.247  1.00  0.00     0.163 A 
ATOM      8  N   UNL     1      -1.398  -7.360  19.117  1.00  0.00    -0.208 NA
ATOM      9  C   UNL     1      -1.468  -6.761  20.316  1.00  0.00     0.164 A 
ENDROOT
BRANCH   1  10
ATOM     10  C   UNL     1      -2.957  -8.407  21.548  1.00  0.00     0.113 C 
ATOM     11  C   UNL     1      -5.100 -11.793  22.523  1.00  0.00     0.409 C 
ATOM     12  O   UNL     1      -5.915 -11.830  23.437  1.00  0.00    -0.224 OA
ATOM     13  N   UNL     1      -4.131 -10.813  22.384  1.00  0.00    -0.308 N 
ATOM     14  C   UNL     1      -3.967  -9.810  23.425  1.00  0.00     0.125 C 
ATOM     15  C   UNL     1      -3.115 -10.886  21.339  1.00  0.00     0.125 C 
ATOM     16  C   UNL     1      -3.786  -8.408  22.842  1.00  0.00     0.049 C 
ATOM     17  C   UNL     1      -2.157  -9.701  21.362  1.00  0.00     0.049 C 
BRANCH  11  18
ATOM     18  O   UNL     1      -5.043 -12.715  21.523  1.00  0.00    -0.453 OA
ATOM     19  C   UNL     1      -5.649 -13.970  21.844  1.00  0.00     0.284 C 
ENDBRANCH  11  18
ENDBRANCH   1  10
BRANCH   7  20
ATOM     20  C   UNL     1      -0.483  -7.236  16.890  1.00  0.00     0.019 A 
ATOM     21  C   UNL     1      -0.038  -6.449  15.813  1.00  0.00     0.014 A 
ATOM     22  C   UNL     1      -0.777  -8.582  16.612  1.00  0.00     0.014 A 
ATOM     23  C   UNL     1       0.107  -6.984  14.526  1.00  0.00     0.027 A 
ATOM     24  C   UNL     1      -0.625  -9.124  15.326  1.00  0.00     0.027 A 
ATOM     25  C   UNL     1      -0.176  -8.330  14.273  1.00  0.00     0.042 A 
BRANCH  25  26
ATOM     26  N   UNL     1      -0.002  -8.787  12.950  1.00  0.00    -0.308 N 
ATOM     27  C   UNL     1       1.078  -8.553  12.110  1.00  0.00     0.323 C 
ATOM     28  O   UNL     1       2.029  -7.828  12.372  1.00  0.00    -0.248 OA
ATOM     29  N   UNL     1       0.921  -9.259  10.926  1.00  0.00    -0.306 N 
ATOM     30  H   UNL     1      -0.803  -9.229  12.530  1.00  0.00     0.171 HD
ATOM     31  H   UNL     1       0.232  -9.992  10.931  1.00  0.00     0.171 HD
BRANCH  29  32
ATOM     32  C   UNL     1       1.727  -9.174   9.768  1.00  0.00     0.061 A 
ATOM     33  C   UNL     1       2.680 -10.118   9.398  1.00  0.00     0.029 A 
ATOM     34  C   UNL     1       1.600  -8.054   8.944  1.00  0.00     0.137 A 
ATOM     35  C   UNL     1       3.450  -9.915   8.251  1.00  0.00     0.022 A 
ATOM     36  N   UNL     1       2.334  -7.824   7.831  1.00  0.00    -0.263 NA
ATOM     37  C   UNL     1       3.248  -8.765   7.513  1.00  0.00     0.111 A 
ENDBRANCH  29  32
ENDBRANCH  25  26
ENDBRANCH   7  20
BRANCH   5  38
ATOM     38  N   UNL     1       0.580  -3.720  19.944  1.00  0.00    -0.345 N 
ATOM     39  C   UNL     1       1.272  -3.520  21.235  1.00  0.00     0.110 C 
ATOM     40  C   UNL     1       1.540  -3.190  18.957  1.00  0.00     0.110 C 
ATOM     41  C   UNL     1       1.673  -2.034  21.099  1.00  0.00     0.030 C 
ATOM     42  C   UNL     1       2.553  -4.398  21.293  1.00  0.00     0.185 C 
ATOM     43  C   UNL     1       1.854  -1.817  19.586  1.00  0.00     0.030 C 
ATOM     44  C   UNL     1       2.812  -4.080  18.947  1.00  0.00     0.185 C 
ATOM     45  O   UNL     1       3.474  -4.080  20.228  1.00  0.00    -0.377 OA
ENDBRANCH   5  38
TORSDOF 6
ENDMDL
MODEL 5
REMARK VINA RESULT:    -8.722      3.739     10.762
REMARK INTER + INTRA:         -12.405
REMARK INTER:                 -11.520
REMARK INTRA:                  -0.885
REMARK UNBOUND:                -0.623
REMARK SMILES COC(=O)N1CCC(n2ncc3c(N4[C@@H]5CC[C@H]4COC5)nc(-c4ccc(NC(=O)Nc5cccnc5)cc4)nc32)CC1
REMARK SMILES IDX 9 1 10 2 11 3 12 4 13 5 22 6 23 7 40 8 41 9 8 10 3 11 4 12
REMARK SMILES IDX 5 13 6 14 43 15 7 16 42 17 2 18 1 19 24 20 25 21 39 22 26 23
REMARK SMILES IDX 38 24 27 25 28 26 29 27 30 28 31 29 32 32 33 33 37 34 34 35
REMARK SMILES IDX 36 36 35 37 14 38 15 39 18 40 16 41 21 42 17 43 19 44 20 45
REMARK H PARENT 28 30 31 31
ROOT
ATOM      1  N   UNL     1       3.465  -5.648  13.387  1.00  0.00    -0.244 N 
ATOM      2  N   UNL     1       4.357  -4.641  13.246  1.00  0.00    -0.178 NA
ATOM      3  C   UNL     1       4.246  -3.966  14.395  1.00  0.00     0.149 A 
ATOM      4  C   UNL     1       3.325  -4.548  15.291  1.00  0.00     0.082 A 
ATOM      5  C   UNL     1       2.822  -4.306  16.581  1.00  0.00     0.144 A 
ATOM      6  N   UNL     1       1.826  -5.129  17.009  1.00  0.00    -0.210 NA
ATOM      7  C   UNL     1       1.380  -6.140  16.225  1.00  0.00     0.163 A 
ATOM      8  N   UNL     1       1.831  -6.449  14.995  1.00  0.00    -0.208 NA
ATOM      9  C   UNL     1       2.801  -5.616  14.586  1.00  0.00     0.164 A 
ENDROOT
BRANCH   1  10
ATOM     10  C   UNL     1       3.285  -6.590  12.292  1.00  0.00     0.113 C 
ATOM     11  C   UNL     1       3.403  -9.316   9.201  1.00  0.00     0.409 C 
ATOM     12  O   UNL     1       4.002 -10.384   9.271  1.00  0.00    -0.224 OA
ATOM     13  N   UNL     1       3.618  -8.247  10.054  1.00  0.00    -0.308 N 
ATOM     14  C   UNL     1       4.686  -8.314  11.039  1.00  0.00     0.125 C 
ATOM     15  C   UNL     1       2.958  -6.962   9.848  1.00  0.00     0.125 C 
ATOM     16  C   UNL     1       4.238  -7.790  12.402  1.00  0.00     0.049 C 
ATOM     17  C   UNL     1       3.328  -5.931  10.909  1.00  0.00     0.049 C 
BRANCH  11  18
ATOM     18  O   UNL     1       2.447  -9.046   8.269  1.00  0.00    -0.453 OA
ATOM     19  C   UNL     1       2.954  -8.841   6.948  1.00  0.00     0.284 C 
ENDBRANCH  11  18
ENDBRANCH   1  10
BRANCH   7  20
ATOM     20  C   UNL     1       0.303  -6.988  16.781  1.00  0.00     0.019 A 
ATOM     21  C   UNL     1      -0.519  -6.536  17.827  1.00  0.00     0.014 A 
ATOM     22  C   UNL     1       0.056  -8.283  16.294  1.00  0.00     0.014 A 
ATOM     23  C   UNL     1      -1.539  -7.339  18.357  1.00  0.00     0.027 A 
ATOM     24  C   UNL     1      -0.969  -9.087  16.816  1.00  0.00     0.027 A 
ATOM     25  C   UNL     1      -1.779  -8.620  17.849  1.00  0.00     0.042 A 
BRANCH  25  26
ATOM     26  N   UNL     1      -2.824  -9.360  18.438  1.00  0.00    -0.308 N 
ATOM     27  C   UNL     1      -2.882  -9.857  19.732  1.00  0.00     0.323 C 
ATOM     28  O   UNL     1      -1.976  -9.795  20.552  1.00  0.00    -0.248 OA
ATOM     29  N   UNL     1      -4.121 -10.441  19.962  1.00  0.00    -0.306 N 
ATOM     30  H   UNL     1      -3.553  -9.663  17.813  1.00  0.00     0.171 HD
ATOM     31  H   UNL     1      -4.849 -10.218  19.304  1.00  0.00     0.171 HD
BRANCH  29  32
ATOM     32  C   UNL     1      -4.518 -11.180  21.099  1.00  0.00     0.061 A 
ATOM     33  C   UNL     1      -4.960 -12.501  21.068  1.00  0.00     0.029 A 
ATOM     34  C   UNL     1      -4.511 -10.551  22.345  1.00  0.00     0.137 A 
ATOM     35  C   UNL     1      -5.366 -13.125  22.248  1.00  0.00     0.022 A 
ATOM     36  N   UNL     1      -4.904 -11.125  23.505  1.00  0.00    -0.263 NA
ATOM     37  C   UNL     1      -5.327 -12.404  23.426  1.00  0.00     0.111 A 
ENDBRANCH  29  32
ENDBRANCH  25  26
ENDBRANCH   7  20
BRANCH   5  38
ATOM     38  N   UNL     1       3.231  -3.262  17.388  1.00  0.00    -0.345 N 
ATOM     39  C   UNL     1       2.599  -3.070  18.710  1.00  0.00     0.110 C 
ATOM     40  C   UNL     1       4.662  -3.025  17.657  1.00  0.00     0.110 C 
ATOM     41  C   UNL     1       3.211  -1.708  19.107  1.00  0.00     0.030 C 
ATOM     42  C   UNL     1       3.089  -4.165  19.698  1.00  0.00     0.185 C 
ATOM     43  C   UNL     1       4.584  -1.681  18.410  1.00  0.00     0.030 C 
ATOM     44  C   UNL     1       5.201  -4.137  18.598  1.00  0.00     0.185 C 
ATOM     45  O   UNL     1       4.522  -4.135  19.870  1.00  0.00    -0.377 OA
ENDBRANCH   5  38
TORSDOF 6
ENDMDL
MODEL 6
REMARK VINA RESULT:    -8.657      4.646      7.480
REMARK INTER + INTRA:         -12.317
REMARK INTER:                 -11.275
REMARK INTRA:                  -1.042
REMARK UNBOUND:                -0.623
REMARK SMILES COC(=O)N1CCC(n2ncc3c(N4[C@@H]5CC[C@H]4COC5)nc(-c4ccc(NC(=O)Nc5cccnc5)cc4)nc32)CC1
REMARK SMILES IDX 9 1 10 2 11 3 12 4 13 5 22 6 23 7 40 8 41 9 8 10 3 11 4 12
REMARK SMILES IDX 5 13 6 14 43 15 7 16 42 17 2 18 1 19 24 20 25 21 39 22 26 23
REMARK SMILES IDX 38 24 27 25 28 26 29 27 30 28 31 29 32 32 33 33 37 34 34 35
REMARK SMILES IDX 36 36 35 37 14 38 15 39 18 40 16 41 21 42 17 43 19 44 20 45
REMARK H PARENT 28 30 31 31
ROOT
ATOM      1  N   UNL     1      -3.140  -9.429  21.337  1.00  0.00    -0.244 N 
ATOM      2  N   UNL     1      -4.069 -10.412  21.290  1.00  0.00    -0.178 NA
ATOM      3  C   UNL     1      -4.133 -10.715  19.990  1.00  0.00     0.149 A 
ATOM      4  C   UNL     1      -3.230  -9.970  19.203  1.00  0.00     0.082 A 
ATOM      5  C   UNL     1      -2.858  -9.863  17.852  1.00  0.00     0.144 A 
ATOM      6  N   UNL     1      -1.962  -8.886  17.544  1.00  0.00    -0.210 NA
ATOM      7  C   UNL     1      -1.448  -8.091  18.512  1.00  0.00     0.163 A 
ATOM      8  N   UNL     1      -1.733  -8.153  19.826  1.00  0.00    -0.208 NA
ATOM      9  C   UNL     1      -2.630  -9.110  20.105  1.00  0.00     0.164 A 
ENDROOT
BRANCH   1  10
ATOM     10  C   UNL     1      -2.823  -8.818  22.620  1.00  0.00     0.113 C 
ATOM     11  C   UNL     1      -1.901  -6.541  25.932  1.00  0.00     0.409 C 
ATOM     12  O   UNL     1      -2.518  -5.527  26.241  1.00  0.00    -0.224 OA
ATOM     13  N   UNL     1      -1.946  -7.126  24.677  1.00  0.00    -0.308 N 
ATOM     14  C   UNL     1      -2.670  -6.468  23.601  1.00  0.00     0.125 C 
ATOM     15  C   UNL     1      -1.100  -8.265  24.336  1.00  0.00     0.125 C 
ATOM     16  C   UNL     1      -3.512  -7.456  22.793  1.00  0.00     0.049 C 
ATOM     17  C   UNL     1      -1.319  -8.757  22.910  1.00  0.00     0.049 C 
BRANCH  11  18
ATOM     18  O   UNL     1      -1.091  -7.223  26.787  1.00  0.00    -0.453 OA
ATOM     19  C   UNL     1      -0.774  -6.514  27.988  1.00  0.00     0.284 C 
ENDBRANCH  11  18
ENDBRANCH   1  10
BRANCH   7  20
ATOM     20  C   UNL     1      -0.472  -7.066  18.081  1.00  0.00     0.019 A 
ATOM     21  C   UNL     1      -0.224  -5.919  18.855  1.00  0.00     0.014 A 
ATOM     22  C   UNL     1       0.247  -7.188  16.880  1.00  0.00     0.014 A 
ATOM     23  C   UNL     1       0.699  -4.946  18.448  1.00  0.00     0.027 A 
ATOM     24  C   UNL     1       1.178  -6.219  16.472  1.00  0.00     0.027 A 
ATOM     25  C   UNL     1       1.416  -5.093  17.256  1.00  0.00     0.042 A 
BRANCH  25  26
ATOM     26  N   UNL     1       2.325  -4.068  16.921  1.00  0.00    -0.308 N 
ATOM     27  C   UNL     1       3.675  -3.999  17.239  1.00  0.00     0.323 C 
ATOM     28  O   UNL     1       4.274  -4.799  17.945  1.00  0.00    -0.248 OA
ATOM     29  N   UNL     1       4.247  -2.885  16.641  1.00  0.00    -0.306 N 
ATOM     30  H   UNL     1       1.923  -3.241  16.512  1.00  0.00     0.171 HD
ATOM     31  H   UNL     1       3.716  -2.450  15.905  1.00  0.00     0.171 HD
BRANCH  29  32
ATOM     32  C   UNL     1       5.556  -2.388  16.837  1.00  0.00     0.061 A 
ATOM     33  C   UNL     1       6.620  -2.600  15.963  1.00  0.00     0.029 A 
ATOM     34  C   UNL     1       5.832  -1.665  17.998  1.00  0.00     0.137 A 
ATOM     35  C   UNL     1       7.884  -2.096  16.274  1.00  0.00     0.022 A 
ATOM     36  N   UNL     1       7.045  -1.168  18.331  1.00  0.00    -0.263 NA
ATOM     37  C   UNL     1       8.047  -1.401  17.457  1.00  0.00     0.111 A 
ENDBRANCH  29  32
ENDBRANCH  25  26
ENDBRANCH   7  20
BRANCH   5  38
ATOM     38  N   UNL     1      -3.393 -10.636  16.839  1.00  0.00    -0.345 N 
ATOM     39  C   UNL     1      -2.827 -10.547  15.477  1.00  0.00     0.110 C 
ATOM     40  C   UNL     1      -3.613 -12.084  17.022  1.00  0.00     0.110 C 
ATOM     41  C   UNL     1      -3.861 -11.390  14.698  1.00  0.00     0.030 C 
ATOM     42  C   UNL     1      -1.443 -11.252  15.428  1.00  0.00     0.185 C 
ATOM     43  C   UNL     1      -4.380 -12.414  15.725  1.00  0.00     0.030 C 
ATOM     44  C   UNL     1      -2.243 -12.816  17.036  1.00  0.00     0.185 C 
ATOM     45  O   UNL     1      -1.534 -12.646  15.792  1.00  0.00    -0.377 OA
ENDBRANCH   5  38
TORSDOF 6
ENDMDL
MODEL 7
REMARK VINA RESULT:    -8.493      2.185      7.048
REMARK INTER + INTRA:         -12.096
REMARK INTER:                 -11.919
REMARK INTRA:                  -0.177
REMARK UNBOUND:                -0.623
REMARK SMILES COC(=O)N1CCC(n2ncc3c(N4[C@@H]5CC[C@H]4COC5)nc(-c4ccc(NC(=O)Nc5cccnc5)cc4)nc32)CC1
REMARK SMILES IDX 9 1 10 2 11 3 12 4 13 5 22 6 23 7 40 8 41 9 8 10 3 11 4 12
REMARK SMILES IDX 5 13 6 14 43 15 7 16 42 17 2 18 1 19 24 20 25 21 39 22 26 23
REMARK SMILES IDX 38 24 27 25 28 26 29 27 30 28 31 29 32 32 33 33 37 34 34 35
REMARK SMILES IDX 36 36 35 37 14 38 15 39 18 40 16 41 21 42 17 43 19 44 20 45
REMARK H PARENT 28 30 31 31
ROOT
ATOM      1  N   UNL     1      -1.367  -6.873  20.968  1.00  0.00    -0.244 N 
ATOM      2  N   UNL     1      -1.195  -6.055  22.032  1.00  0.00    -0.178 NA
ATOM      3  C   UNL     1      -0.493  -5.035  21.529  1.00  0.00     0.149 A 
ATOM      4  C   UNL     1      -0.242  -5.165  20.147  1.00  0.00     0.082 A 
ATOM      5  C   UNL     1       0.402  -4.445  19.126  1.00  0.00     0.144 A 
ATOM      6  N   UNL     1       0.468  -5.046  17.907  1.00  0.00    -0.210 NA
ATOM      7  C   UNL     1      -0.091  -6.263  17.706  1.00  0.00     0.163 A 
ATOM      8  N   UNL     1      -0.747  -6.997  18.623  1.00  0.00    -0.208 NA
ATOM      9  C   UNL     1      -0.786  -6.394  19.821  1.00  0.00     0.164 A 
ENDROOT
BRANCH   1  10
ATOM     10  C   UNL     1      -2.078  -8.129  21.150  1.00  0.00     0.113 C 
ATOM     11  C   UNL     1      -4.325 -11.587  21.085  1.00  0.00     0.409 C 
ATOM     12  O   UNL     1      -4.280 -12.398  20.167  1.00  0.00    -0.224 OA
ATOM     13  N   UNL     1      -3.868 -10.282  20.993  1.00  0.00    -0.308 N 
ATOM     14  C   UNL     1      -3.402  -9.771  19.714  1.00  0.00     0.125 C 
ATOM     15  C   UNL     1      -4.054  -9.331  22.083  1.00  0.00     0.125 C 
ATOM     16  C   UNL     1      -2.113  -8.963  19.859  1.00  0.00     0.049 C 
ATOM     17  C   UNL     1      -3.467  -7.958  21.775  1.00  0.00     0.049 C 
BRANCH  11  18
ATOM     18  O   UNL     1      -4.831 -11.868  22.318  1.00  0.00    -0.453 OA
ATOM     19  C   UNL     1      -5.751 -12.961  22.340  1.00  0.00     0.284 C 
ENDBRANCH  11  18
ENDBRANCH   1  10
BRANCH   7  20
ATOM     20  C   UNL     1       0.022  -6.829  16.344  1.00  0.00     0.019 A 
ATOM     21  C   UNL     1       0.506  -6.064  15.269  1.00  0.00     0.014 A 
ATOM     22  C   UNL     1      -0.353  -8.154  16.061  1.00  0.00     0.014 A 
ATOM     23  C   UNL     1       0.612  -6.598  13.978  1.00  0.00     0.027 A 
ATOM     24  C   UNL     1      -0.241  -8.696  14.771  1.00  0.00     0.027 A 
ATOM     25  C   UNL     1       0.248  -7.924  13.719  1.00  0.00     0.042 A 
BRANCH  25  26
ATOM     26  N   UNL     1       0.387  -8.382  12.393  1.00  0.00    -0.308 N 
ATOM     27  C   UNL     1       1.549  -8.440  11.636  1.00  0.00     0.323 C 
ATOM     28  O   UNL     1       2.641  -8.016  11.989  1.00  0.00    -0.248 OA
ATOM     29  N   UNL     1       1.292  -9.049  10.415  1.00  0.00    -0.306 N 
ATOM     30  H   UNL     1      -0.472  -8.574  11.903  1.00  0.00     0.171 HD
ATOM     31  H   UNL     1       0.428  -9.561  10.345  1.00  0.00     0.171 HD
BRANCH  29  32
ATOM     32  C   UNL     1       2.173  -9.167   9.317  1.00  0.00     0.061 A 
ATOM     33  C   UNL     1       2.313  -8.214   8.311  1.00  0.00     0.029 A 
ATOM     34  C   UNL     1       2.939 -10.327   9.194  1.00  0.00     0.137 A 
ATOM     35  C   UNL     1       3.187  -8.450   7.249  1.00  0.00     0.022 A 
ATOM     36  N   UNL     1       3.789 -10.589   8.175  1.00  0.00    -0.263 NA
ATOM     37  C   UNL     1       3.890  -9.639   7.221  1.00  0.00     0.111 A 
ENDBRANCH  29  32
ENDBRANCH  25  26
ENDBRANCH   7  20
BRANCH   5  38
ATOM     38  N   UNL     1       1.012  -3.219  19.311  1.00  0.00    -0.345 N 
ATOM     39  C   UNL     1       2.321  -2.952  18.679  1.00  0.00     0.110 C 
ATOM     40  C   UNL     1       0.270  -1.960  19.102  1.00  0.00     0.110 C 
ATOM     41  C   UNL     1       2.669  -1.599  19.338  1.00  0.00     0.030 C 
ATOM     42  C   UNL     1       2.140  -2.750  17.148  1.00  0.00     0.185 C 
ATOM     43  C   UNL     1       1.306  -0.939  19.616  1.00  0.00     0.030 C 
ATOM     44  C   UNL     1       0.021  -1.755  17.583  1.00  0.00     0.185 C 
ATOM     45  O   UNL     1       1.258  -1.648  16.849  1.00  0.00    -0.377 OA
ENDBRANCH   5  38
TORSDOF 6
ENDMDL
MODEL 8
REMARK VINA RESULT:    -8.469      3.488     11.109
REMARK INTER + INTRA:         -12.063
REMARK INTER:                 -11.646
REMARK INTRA:                  -0.416
REMARK UNBOUND:                -0.623
REMARK SMILES COC(=O)N1CCC(n2ncc3c(N4[C@@H]5CC[C@H]4COC5)nc(-c4ccc(NC(=O)Nc5cccnc5)cc4)nc32)CC1
REMARK SMILES IDX 9 1 10 2 11 3 12 4 13 5 22 6 23 7 40 8 41 9 8 10 3 11 4 12
REMARK SMILES IDX 5 13 6 14 43 15 7 16 42 17 2 18 1 19 24 20 25 21 39 22 26 23
REMARK SMILES IDX 38 24 27 25 28 26 29 27 30 28 31 29 32 32 33 33 37 34 34 35
REMARK SMILES IDX 36 36 35 37 14 38 15 39 18 40 16 41 21 42 17 43 19 44 20 45
REMARK H PARENT 28 30 31 31
ROOT
ATOM      1  N   UNL     1      -1.717  -9.511  16.646  1.00  0.00    -0.244 N 
ATOM      2  N   UNL     1      -1.683 -10.314  15.557  1.00  0.00    -0.178 NA
ATOM      3  C   UNL     1      -0.792  -9.717  14.759  1.00  0.00     0.149 A 
ATOM      4  C   UNL     1      -0.221  -8.562  15.334  1.00  0.00     0.082 A 
ATOM      5  C   UNL     1       0.725  -7.580  14.994  1.00  0.00     0.144 A 
ATOM      6  N   UNL     1       0.882  -6.556  15.877  1.00  0.00    -0.210 NA
ATOM      7  C   UNL     1       0.173  -6.523  17.030  1.00  0.00     0.163 A 
ATOM      8  N   UNL     1      -0.726  -7.439  17.436  1.00  0.00    -0.208 NA
ATOM      9  C   UNL     1      -0.878  -8.431  16.544  1.00  0.00     0.164 A 
ENDROOT
BRANCH   1  10
ATOM     10  C   UNL     1      -2.621  -9.838  17.737  1.00  0.00     0.113 C 
ATOM     11  C   UNL     1      -4.667 -10.773  21.194  1.00  0.00     0.409 C 
ATOM     12  O   UNL     1      -4.541 -10.143  22.238  1.00  0.00    -0.224 OA
ATOM     13  N   UNL     1      -3.770 -10.718  20.140  1.00  0.00    -0.308 N 
ATOM     14  C   UNL     1      -2.535  -9.964  20.284  1.00  0.00     0.125 C 
ATOM     15  C   UNL     1      -3.914 -11.578  18.970  1.00  0.00     0.125 C 
ATOM     16  C   UNL     1      -2.229  -9.127  19.042  1.00  0.00     0.049 C 
ATOM     17  C   UNL     1      -2.825 -11.345  17.928  1.00  0.00     0.049 C 
BRANCH  11  18
ATOM     18  O   UNL     1      -5.710 -11.610  20.937  1.00  0.00    -0.453 OA
ATOM     19  C   UNL     1      -5.870 -12.661  21.893  1.00  0.00     0.284 C 
ENDBRANCH  11  18
ENDBRANCH   1  10
BRANCH   7  20
ATOM     20  C   UNL     1       0.421  -5.377  17.931  1.00  0.00     0.019 A 
ATOM     21  C   UNL     1      -0.554  -4.937  18.843  1.00  0.00     0.014 A 
ATOM     22  C   UNL     1       1.638  -4.674  17.915  1.00  0.00     0.014 A 
ATOM     23  C   UNL     1      -0.321  -3.850  19.696  1.00  0.00     0.027 A 
ATOM     24  C   UNL     1       1.878  -3.589  18.773  1.00  0.00     0.027 A 
ATOM     25  C   UNL     1       0.903  -3.172  19.676  1.00  0.00     0.042 A 
BRANCH  25  26
ATOM     26  N   UNL     1       1.054  -2.090  20.567  1.00  0.00    -0.308 N 
ATOM     27  C   UNL     1       1.552  -2.126  21.863  1.00  0.00     0.323 C 
ATOM     28  O   UNL     1       1.866  -3.142  22.468  1.00  0.00    -0.248 OA
ATOM     29  N   UNL     1       1.638  -0.839  22.375  1.00  0.00    -0.306 N 
ATOM     30  H   UNL     1       0.644  -1.219  20.274  1.00  0.00     0.171 HD
ATOM     31  H   UNL     1       1.579  -0.088  21.708  1.00  0.00     0.171 HD
BRANCH  29  32
ATOM     32  C   UNL     1       1.958  -0.467  23.700  1.00  0.00     0.061 A 
ATOM     33  C   UNL     1       1.284  -0.918  24.832  1.00  0.00     0.029 A 
ATOM     34  C   UNL     1       2.996   0.443  23.908  1.00  0.00     0.137 A 
ATOM     35  C   UNL     1       1.659  -0.455  26.094  1.00  0.00     0.022 A 
ATOM     36  N   UNL     1       3.380   0.916  25.116  1.00  0.00    -0.263 NA
ATOM     37  C   UNL     1       2.696   0.455  26.184  1.00  0.00     0.111 A 
ENDBRANCH  29  32
ENDBRANCH  25  26
ENDBRANCH   7  20
BRANCH   5  38
ATOM     38  N   UNL     1       1.436  -7.569  13.809  1.00  0.00    -0.345 N 
ATOM     39  C   UNL     1       0.743  -7.244  12.545  1.00  0.00     0.110 C 
ATOM     40  C   UNL     1       2.712  -6.837  13.695  1.00  0.00     0.110 C 
ATOM     41  C   UNL     1       1.863  -7.570  11.531  1.00  0.00     0.030 C 
ATOM     42  C   UNL     1       0.422  -5.724  12.489  1.00  0.00     0.185 C 
ATOM     43  C   UNL     1       3.171  -7.295  12.296  1.00  0.00     0.030 C 
ATOM     44  C   UNL     1       2.433  -5.309  13.695  1.00  0.00     0.185 C 
ATOM     45  O   UNL     1       1.614  -4.917  12.574  1.00  0.00    -0.377 OA
ENDBRANCH   5  38
TORSDOF 6
ENDMDL
MODEL 9
REMARK VINA RESULT:    -8.395      3.082      9.630
REMARK INTER + INTRA:         -11.963
REMARK INTER:                 -11.399
REMARK INTRA:                  -0.564
REMARK UNBOUND:                -0.623
REMARK SMILES COC(=O)N1CCC(n2ncc3c(N4[C@@H]5CC[C@H]4COC5)nc(-c4ccc(NC(=O)Nc5cccnc5)cc4)nc32)CC1
REMARK SMILES IDX 9 1 10 2 11 3 12 4 13 5 22 6 23 7 40 8 41 9 8 10 3 11 4 12
REMARK SMILES IDX 5 13 6 14 43 15 7 16 42 17 2 18 1 19 24 20 25 21 39 22 26 23
REMARK SMILES IDX 38 24 27 25 28 26 29 27 30 28 31 29 32 32 33 33 37 34 34 35
REMARK SMILES IDX 36 36 35 37 14 38 15 39 18 40 16 41 21 42 17 43 19 44 20 45
REMARK H PARENT 28 30 31 31
ROOT
ATOM      1  N   UNL     1      -0.902  -9.254  15.871  1.00  0.00    -0.244 N 
ATOM      2  N   UNL     1      -1.408 -10.494  15.683  1.00  0.00    -0.178 NA
ATOM      3  C   UNL     1      -2.085 -10.727  16.812  1.00  0.00     0.149 A 
ATOM      4  C   UNL     1      -2.055  -9.638  17.709  1.00  0.00     0.082 A 
ATOM      5  C   UNL     1      -2.562  -9.312  18.978  1.00  0.00     0.144 A 
ATOM      6  N   UNL     1      -2.169  -8.118  19.501  1.00  0.00    -0.210 NA
ATOM      7  C   UNL     1      -1.353  -7.293  18.802  1.00  0.00     0.163 A 
ATOM      8  N   UNL     1      -0.853  -7.524  17.575  1.00  0.00    -0.208 NA
ATOM      9  C   UNL     1      -1.239  -8.712  17.085  1.00  0.00     0.164 A 
ENDROOT
BRANCH   1  10
ATOM     10  C   UNL     1      -0.063  -8.669  14.835  1.00  0.00     0.113 C 
ATOM     11  C   UNL     1       1.878  -6.554  11.875  1.00  0.00     0.409 C 
ATOM     12  O   UNL     1       2.125  -5.356  11.959  1.00  0.00    -0.224 OA
ATOM     13  N   UNL     1       0.949  -7.214  12.662  1.00  0.00    -0.308 N 
ATOM     14  C   UNL     1       0.115  -6.455  13.581  1.00  0.00     0.125 C 
ATOM     15  C   UNL     1       0.617  -8.617  12.437  1.00  0.00     0.125 C 
ATOM     16  C   UNL     1       0.000  -7.138  14.943  1.00  0.00     0.049 C 
ATOM     17  C   UNL     1      -0.420  -9.144  13.422  1.00  0.00     0.049 C 
BRANCH  11  18
ATOM     18  O   UNL     1       2.490  -7.392  10.993  1.00  0.00    -0.453 OA
ATOM     19  C   UNL     1       3.522  -6.777  10.218  1.00  0.00     0.284 C 
ENDBRANCH  11  18
ENDBRANCH   1  10
BRANCH   7  20
ATOM     20  C   UNL     1      -0.990  -6.013  19.449  1.00  0.00     0.019 A 
ATOM     21  C   UNL     1      -1.441  -5.690  20.740  1.00  0.00     0.014 A 
ATOM     22  C   UNL     1      -0.184  -5.061  18.802  1.00  0.00     0.014 A 
ATOM     23  C   UNL     1      -1.099  -4.477  21.354  1.00  0.00     0.027 A 
ATOM     24  C   UNL     1       0.167  -3.848  19.416  1.00  0.00     0.027 A 
ATOM     25  C   UNL     1      -0.283  -3.548  20.699  1.00  0.00     0.042 A 
BRANCH  25  26
ATOM     26  N   UNL     1       0.013  -2.354  21.388  1.00  0.00    -0.308 N 
ATOM     27  C   UNL     1       1.045  -2.131  22.289  1.00  0.00     0.323 C 
ATOM     28  O   UNL     1       1.825  -2.984  22.691  1.00  0.00    -0.248 OA
ATOM     29  N   UNL     1       1.063  -0.797  22.670  1.00  0.00    -0.306 N 
ATOM     30  H   UNL     1      -0.673  -1.621  21.308  1.00  0.00     0.171 HD
ATOM     31  H   UNL     1       0.535  -0.161  22.097  1.00  0.00     0.171 HD
BRANCH  29  32
ATOM     32  C   UNL     1       1.865  -0.207  23.674  1.00  0.00     0.061 A 
ATOM     33  C   UNL     1       3.024   0.525  23.430  1.00  0.00     0.029 A 
ATOM     34  C   UNL     1       1.507  -0.389  25.010  1.00  0.00     0.137 A 
ATOM     35  C   UNL     1       3.763   1.032  24.500  1.00  0.00     0.022 A 
ATOM     36  N   UNL     1       2.204   0.083  26.070  1.00  0.00    -0.263 NA
ATOM     37  C   UNL     1       3.323   0.783  25.785  1.00  0.00     0.111 A 
ENDBRANCH  29  32
ENDBRANCH  25  26
ENDBRANCH   7  20
BRANCH   5  38
ATOM     38  N   UNL     1      -3.366 -10.148  19.729  1.00  0.00    -0.345 N 
ATOM     39  C   UNL     1      -2.854 -11.468  20.150  1.00  0.00     0.110 C 
ATOM     40  C   UNL     1      -4.065  -9.655  20.931  1.00  0.00     0.110 C 
ATOM     41  C   UNL     1      -4.143 -12.083  20.741  1.00  0.00     0.030 C 
ATOM     42  C   UNL     1      -1.800 -11.294  21.280  1.00  0.00     0.185 C 
ATOM     43  C   UNL     1      -4.945 -10.877  21.262  1.00  0.00     0.030 C 
ATOM     44  C   UNL     1      -3.032  -9.413  22.065  1.00  0.00     0.185 C 
ATOM     45  O   UNL     1      -2.353 -10.631  22.436  1.00  0.00    -0.377 OA
ENDBRANCH   5  38
TORSDOF 6
ENDMDL
