REMARK SMILES CCCc1cc(Oc2ccc(O)cc2)ccc1OCCCOc1cccc([C@@H]2SC(=O)NC2=O)c1
REMARK SMILES IDX 19 1 18 2 17 3 4 4 5 5 6 6 16 7 15 8 3 9 2 10 1 11 7 12 8 13
REMARK SMILES IDX 9 14 14 15 10 16 13 17 11 18 12 19 20 21 21 22 22 23 23 24
REMARK SMILES IDX 24 25 35 26 25 27 27 28 26 29 28 30 29 31 33 32 30 33 32 34
REMARK SMILES IDX 34 35 31 36
REMARK H PARENT 12 20 32 37
REMARK INDEX MAP 19 1 18 2 17 3 4 4 5 5 6 6 16 7 15 8 3 9 2 10 1 11 7 12 8 13
REMARK INDEX MAP 9 14 14 15 10 16 13 17 11 18 12 19 46 20 20 21 21 22 22 23
REMARK INDEX MAP 23 24 24 25 35 26 25 27 27 28 26 29 28 30 29 31 33 32 30 33
REMARK INDEX MAP 32 34 34 35 31 36 61 37
ROOT
ATOM      1  C   UNL     1      43.435 -38.166 109.352  1.00  0.00     0.233 C 
ENDROOT
BRANCH   1   2
ATOM      2  O   UNL     1      44.302 -38.863 108.461  1.00  0.00    -0.493 OA
BRANCH   2   3
ATOM      3  C   UNL     1      43.860 -39.102 107.188  1.00  0.00     0.122 A 
ATOM      4  C   UNL     1      43.954 -40.437 106.747  1.00  0.00    -0.002 A 
ATOM      5  C   UNL     1      43.539 -40.762 105.443  1.00  0.00     0.054 A 
ATOM      6  C   UNL     1      43.051 -39.774 104.590  1.00  0.00     0.127 A 
ATOM      7  C   UNL     1      43.346 -38.124 106.329  1.00  0.00     0.050 A 
ATOM      8  C   UNL     1      42.936 -38.460 105.036  1.00  0.00     0.051 A 
BRANCH   4   9
ATOM      9  C   UNL     1      44.500 -41.538 107.631  1.00  0.00     0.039 C 
BRANCH   9  10
ATOM     10  C   UNL     1      44.646 -42.885 106.915  1.00  0.00     0.001 C 
ATOM     11  C   UNL     1      44.214 -44.072 107.765  1.00  0.00     0.004 C 
ENDBRANCH   9  10
ENDBRANCH   4   9
BRANCH   6  12
ATOM     12  O   UNL     1      42.635 -40.170 103.340  1.00  0.00    -0.457 OA
BRANCH  12  13
ATOM     13  C   UNL     1      41.624 -39.438 102.759  1.00  0.00     0.127 A 
ATOM     14  C   UNL     1      40.389 -39.434 103.408  1.00  0.00     0.051 A 
ATOM     15  C   UNL     1      41.779 -38.780 101.534  1.00  0.00     0.051 A 
ATOM     16  C   UNL     1      39.316 -38.736 102.852  1.00  0.00     0.050 A 
ATOM     17  C   UNL     1      40.705 -38.084 100.977  1.00  0.00     0.050 A 
ATOM     18  C   UNL     1      39.483 -38.066 101.644  1.00  0.00     0.115 A 
BRANCH  18  19
ATOM     19  O   UNL     1      38.407 -37.399 101.137  1.00  0.00    -0.508 OA
ATOM     20  H   UNL     1      38.486 -36.910 100.280  1.00  0.00     0.293 HD
ENDBRANCH  18  19
ENDBRANCH  12  13
ENDBRANCH   6  12
ENDBRANCH   2   3
ENDBRANCH   1   2
BRANCH   1  21
ATOM     21  C   UNL     1      42.077 -38.856 109.350  1.00  0.00     0.083 C 
BRANCH  21  22
ATOM     22  C   UNL     1      40.930 -37.873 109.126  1.00  0.00     0.233 C 
BRANCH  22  23
ATOM     23  O   UNL     1      40.087 -38.413 108.106  1.00  0.00    -0.493 OA
BRANCH  23  24
ATOM     24  C   UNL     1      38.791 -38.682 108.448  1.00  0.00     0.119 A 
ATOM     25  C   UNL     1      38.356 -39.228 109.653  1.00  0.00     0.046 A 
ATOM     26  C   UNL     1      37.851 -38.358 107.464  1.00  0.00     0.051 A 
ATOM     27  C   UNL     1      36.992 -39.440 109.872  1.00  0.00     0.004 A 
ATOM     28  C   UNL     1      36.475 -38.575 107.662  1.00  0.00    -0.021 A 
ATOM     29  C   UNL     1      36.057 -39.112 108.888  1.00  0.00     0.006 A 
BRANCH  28  30
ATOM     30  C   UNL     1      35.502 -38.180 106.573  1.00  0.00     0.176 C 
ATOM     31  S   UNL     1      35.649 -39.270 105.119  1.00  0.00    -0.046 SA
ATOM     32  C   UNL     1      35.676 -36.770 106.035  1.00  0.00     0.245 C 
ATOM     33  C   UNL     1      35.878 -37.938 104.021  1.00  0.00     0.286 C 
ATOM     34  N   UNL     1      35.863 -36.761 104.684  1.00  0.00    -0.286 N 
ATOM     35  O   UNL     1      35.650 -35.742 106.700  1.00  0.00    -0.273 OA
ATOM     36  O   UNL     1      36.028 -38.066 102.817  1.00  0.00    -0.261 OA
ATOM     37  H   UNL     1      35.990 -35.873 104.178  1.00  0.00     0.173 HD
ENDBRANCH  28  30
ENDBRANCH  23  24
ENDBRANCH  22  23
ENDBRANCH  21  22
ENDBRANCH   1  21
TORSDOF 12
