MODEL 1
REMARK VINA RESULT:    -9.137      0.000      0.000
REMARK INTER + INTRA:         -16.063
REMARK INTER:                 -14.745
REMARK INTRA:                  -1.317
REMARK UNBOUND:                -1.317
REMARK SMILES CCc1cc(OCCc2nc(-c3ccc(C(C)(C)C)cc3)oc2C)ccc1CCC(=O)O
REMARK SMILES IDX 6 1 5 2 3 3 4 4 27 5 26 6 25 7 2 8 1 9 28 10 29 11 30 12
REMARK SMILES IDX 31 13 32 14 7 16 8 17 9 18 10 19 23 20 11 21 22 22 24 23
REMARK SMILES IDX 12 24 13 25 21 26 14 27 20 28 15 29 16 30 17 31 18 32 19 33
REMARK H PARENT 32 15
ROOT
ATOM      1  O   UNL     1       5.452   9.952  -4.098  1.00  0.00    -0.493 OA
ENDROOT
BRANCH   1   2
ATOM      2  C   UNL     1       4.883   8.778  -3.689  1.00  0.00     0.119 A 
ATOM      3  C   UNL     1       3.997   7.578  -1.745  1.00  0.00    -0.041 A 
ATOM      4  C   UNL     1       4.587   8.717  -2.326  1.00  0.00     0.050 A 
ATOM      5  C   UNL     1       3.687   6.479  -2.568  1.00  0.00    -0.044 A 
ATOM      6  C   UNL     1       4.001   6.546  -3.938  1.00  0.00     0.008 A 
ATOM      7  C   UNL     1       4.593   7.683  -4.494  1.00  0.00     0.047 A 
BRANCH   3   8
ATOM      8  C   UNL     1       3.693   7.615  -0.265  1.00  0.00     0.032 C 
ATOM      9  C   UNL     1       2.266   8.065   0.012  1.00  0.00     0.009 C 
ENDBRANCH   3   8
BRANCH   5  10
ATOM     10  C   UNL     1       3.059   5.207  -2.043  1.00  0.00     0.047 C 
BRANCH  10  11
ATOM     11  C   UNL     1       4.063   4.058  -2.003  1.00  0.00     0.127 C 
BRANCH  11  12
ATOM     12  C   UNL     1       5.010   4.212  -0.849  1.00  0.00     0.303 C 
ATOM     13  O   UNL     1       6.153   4.635  -0.876  1.00  0.00    -0.252 OA
BRANCH  12  14
ATOM     14  O   UNL     1       4.456   3.816   0.313  1.00  0.00    -0.481 OA
ATOM     15  H   UNL     1       4.349   4.647   0.824  1.00  0.00     0.296 HD
ENDBRANCH  12  14
ENDBRANCH  11  12
ENDBRANCH  10  11
ENDBRANCH   5  10
ENDBRANCH   1   2
BRANCH   1  16
ATOM     16  C   UNL     1       6.427   9.875  -5.144  1.00  0.00     0.236 C 
BRANCH  16  17
ATOM     17  C   UNL     1       7.698  10.588  -4.683  1.00  0.00     0.101 C 
BRANCH  17  18
ATOM     18  C   UNL     1       8.746  10.610  -5.740  1.00  0.00     0.086 A 
ATOM     19  N   UNL     1       8.604   9.860  -6.888  1.00  0.00    -0.214 NA
ATOM     20  C   UNL     1       9.931  11.310  -5.793  1.00  0.00     0.125 A 
ATOM     21  C   UNL     1       9.689  10.132  -7.590  1.00  0.00     0.226 A 
ATOM     22  O   UNL     1      10.544  11.011  -6.976  1.00  0.00    -0.441 OA
ATOM     23  C   UNL     1      10.617  12.265  -4.906  1.00  0.00     0.090 C 
BRANCH  21  24
ATOM     24  C   UNL     1      10.086   9.635  -8.905  1.00  0.00     0.037 A 
ATOM     25  C   UNL     1      10.488  10.538  -9.896  1.00  0.00     0.014 A 
ATOM     26  C   UNL     1      10.085   8.273  -9.218  1.00  0.00     0.014 A 
ATOM     27  C   UNL     1      10.881  10.092 -11.165  1.00  0.00     0.005 A 
ATOM     28  C   UNL     1      10.476   7.828 -10.487  1.00  0.00     0.005 A 
ATOM     29  C   UNL     1      10.885   8.728 -11.490  1.00  0.00    -0.043 A 
BRANCH  29  30
ATOM     30  C   UNL     1      11.313   8.202 -12.871  1.00  0.00    -0.013 C 
ATOM     31  C   UNL     1      10.285   7.166 -13.374  1.00  0.00     0.016 C 
ATOM     32  C   UNL     1      11.384   9.374 -13.875  1.00  0.00     0.016 C 
ATOM     33  C   UNL     1      12.696   7.512 -12.876  1.00  0.00     0.016 C 
ENDBRANCH  29  30
ENDBRANCH  21  24
ENDBRANCH  17  18
ENDBRANCH  16  17
ENDBRANCH   1  16
TORSDOF 11
ENDMDL
MODEL 2
REMARK VINA RESULT:    -9.036      1.944      3.227
REMARK INTER + INTRA:         -15.900
REMARK INTER:                 -14.844
REMARK INTRA:                  -1.056
REMARK UNBOUND:                -1.317
REMARK SMILES CCc1cc(OCCc2nc(-c3ccc(C(C)(C)C)cc3)oc2C)ccc1CCC(=O)O
REMARK SMILES IDX 6 1 5 2 3 3 4 4 27 5 26 6 25 7 2 8 1 9 28 10 29 11 30 12
REMARK SMILES IDX 31 13 32 14 7 16 8 17 9 18 10 19 23 20 11 21 22 22 24 23
REMARK SMILES IDX 12 24 13 25 21 26 14 27 20 28 15 29 16 30 17 31 18 32 19 33
REMARK H PARENT 32 15
ROOT
ATOM      1  O   UNL     1       8.161  10.632  -4.838  1.00  0.00    -0.493 OA
ENDROOT
BRANCH   1   2
ATOM      2  C   UNL     1       7.092  10.059  -4.207  1.00  0.00     0.119 A 
ATOM      3  C   UNL     1       5.123   8.638  -4.541  1.00  0.00    -0.041 A 
ATOM      4  C   UNL     1       6.265   9.296  -5.035  1.00  0.00     0.050 A 
ATOM      5  C   UNL     1       4.818   8.744  -3.171  1.00  0.00    -0.044 A 
ATOM      6  C   UNL     1       5.650   9.525  -2.347  1.00  0.00     0.008 A 
ATOM      7  C   UNL     1       6.776  10.176  -2.859  1.00  0.00     0.047 A 
BRANCH   3   8
ATOM      8  C   UNL     1       4.303   7.818  -5.510  1.00  0.00     0.032 C 
ATOM      9  C   UNL     1       3.528   8.694  -6.483  1.00  0.00     0.009 C 
ENDBRANCH   3   8
BRANCH   5  10
ATOM     10  C   UNL     1       3.611   8.083  -2.541  1.00  0.00     0.047 C 
BRANCH  10  11
ATOM     11  C   UNL     1       3.881   7.682  -1.094  1.00  0.00     0.127 C 
BRANCH  11  12
ATOM     12  C   UNL     1       2.632   7.784  -0.267  1.00  0.00     0.303 C 
ATOM     13  O   UNL     1       1.991   6.872   0.227  1.00  0.00    -0.252 OA
BRANCH  12  14
ATOM     14  O   UNL     1       2.243   9.062  -0.097  1.00  0.00    -0.481 OA
ATOM     15  H   UNL     1       3.046   9.516   0.236  1.00  0.00     0.296 HD
ENDBRANCH  12  14
ENDBRANCH  11  12
ENDBRANCH  10  11
ENDBRANCH   5  10
ENDBRANCH   1   2
BRANCH   1  16
ATOM     16  C   UNL     1       9.275  11.009  -4.022  1.00  0.00     0.236 C 
BRANCH  16  17
ATOM     17  C   UNL     1      10.118  12.030  -4.785  1.00  0.00     0.101 C 
BRANCH  17  18
ATOM     18  C   UNL     1      10.146  11.755  -6.248  1.00  0.00     0.086 A 
ATOM     19  N   UNL     1      10.286  10.469  -6.721  1.00  0.00    -0.214 NA
ATOM     20  C   UNL     1      10.037  12.625  -7.312  1.00  0.00     0.125 A 
ATOM     21  C   UNL     1      10.252  10.598  -8.034  1.00  0.00     0.226 A 
ATOM     22  O   UNL     1      10.104  11.893  -8.462  1.00  0.00    -0.441 OA
ATOM     23  C   UNL     1       9.855  14.080  -7.452  1.00  0.00     0.090 C 
BRANCH  21  24
ATOM     24  C   UNL     1      10.344   9.569  -9.066  1.00  0.00     0.037 A 
ATOM     25  C   UNL     1      10.335   8.217  -8.703  1.00  0.00     0.014 A 
ATOM     26  C   UNL     1      10.438   9.883 -10.425  1.00  0.00     0.014 A 
ATOM     27  C   UNL     1      10.416   7.206  -9.670  1.00  0.00     0.005 A 
ATOM     28  C   UNL     1      10.520   8.872 -11.391  1.00  0.00     0.005 A 
ATOM     29  C   UNL     1      10.509   7.510 -11.036  1.00  0.00    -0.043 A 
BRANCH  29  30
ATOM     30  C   UNL     1      10.595   6.427 -12.125  1.00  0.00    -0.013 C 
ATOM     31  C   UNL     1      10.111   5.076 -11.554  1.00  0.00     0.016 C 
ATOM     32  C   UNL     1       9.702   6.820 -13.322  1.00  0.00     0.016 C 
ATOM     33  C   UNL     1      12.022   6.205 -12.674  1.00  0.00     0.016 C 
ENDBRANCH  29  30
ENDBRANCH  21  24
ENDBRANCH  17  18
ENDBRANCH  16  17
ENDBRANCH   1  16
TORSDOF 11
ENDMDL
MODEL 3
REMARK VINA RESULT:    -8.764      1.221      2.261
REMARK INTER + INTRA:         -15.460
REMARK INTER:                 -14.113
REMARK INTRA:                  -1.347
REMARK UNBOUND:                -1.317
REMARK SMILES CCc1cc(OCCc2nc(-c3ccc(C(C)(C)C)cc3)oc2C)ccc1CCC(=O)O
REMARK SMILES IDX 6 1 5 2 3 3 4 4 27 5 26 6 25 7 2 8 1 9 28 10 29 11 30 12
REMARK SMILES IDX 31 13 32 14 7 16 8 17 9 18 10 19 23 20 11 21 22 22 24 23
REMARK SMILES IDX 12 24 13 25 21 26 14 27 20 28 15 29 16 30 17 31 18 32 19 33
REMARK H PARENT 32 15
ROOT
ATOM      1  O   UNL     1       5.812   9.746  -5.811  1.00  0.00    -0.493 OA
ENDROOT
BRANCH   1   2
ATOM      2  C   UNL     1       5.159   8.721  -5.184  1.00  0.00     0.119 A 
ATOM      3  C   UNL     1       4.893   6.286  -5.121  1.00  0.00    -0.041 A 
ATOM      4  C   UNL     1       5.478   7.448  -5.661  1.00  0.00     0.050 A 
ATOM      5  C   UNL     1       3.973   6.416  -4.064  1.00  0.00    -0.044 A 
ATOM      6  C   UNL     1       3.650   7.704  -3.599  1.00  0.00     0.008 A 
ATOM      7  C   UNL     1       4.235   8.846  -4.153  1.00  0.00     0.047 A 
BRANCH   3   8
ATOM      8  C   UNL     1       5.319   4.951  -5.688  1.00  0.00     0.032 C 
ATOM      9  C   UNL     1       6.701   5.016  -6.321  1.00  0.00     0.009 C 
ENDBRANCH   3   8
BRANCH   5  10
ATOM     10  C   UNL     1       3.285   5.233  -3.419  1.00  0.00     0.047 C 
BRANCH  10  11
ATOM     11  C   UNL     1       3.271   5.349  -1.898  1.00  0.00     0.127 C 
BRANCH  11  12
ATOM     12  C   UNL     1       4.534   4.795  -1.305  1.00  0.00     0.303 C 
ATOM     13  O   UNL     1       5.619   5.343  -1.221  1.00  0.00    -0.252 OA
BRANCH  12  14
ATOM     14  O   UNL     1       4.363   3.544  -0.835  1.00  0.00    -0.481 OA
ATOM     15  H   UNL     1       4.378   2.980  -1.637  1.00  0.00     0.296 HD
ENDBRANCH  12  14
ENDBRANCH  11  12
ENDBRANCH  10  11
ENDBRANCH   5  10
ENDBRANCH   1   2
BRANCH   1  16
ATOM     16  C   UNL     1       6.417  10.741  -4.978  1.00  0.00     0.236 C 
BRANCH  16  17
ATOM     17  C   UNL     1       7.821  10.274  -4.599  1.00  0.00     0.101 C 
BRANCH  17  18
ATOM     18  C   UNL     1       8.810  10.528  -5.682  1.00  0.00     0.086 A 
ATOM     19  N   UNL     1       8.694   9.900  -6.903  1.00  0.00    -0.214 NA
ATOM     20  C   UNL     1       9.911  11.357  -5.696  1.00  0.00     0.125 A 
ATOM     21  C   UNL     1       9.709  10.365  -7.607  1.00  0.00     0.226 A 
ATOM     22  O   UNL     1      10.495  11.260  -6.926  1.00  0.00    -0.441 OA
ATOM     23  C   UNL     1      10.533  12.278  -4.729  1.00  0.00     0.090 C 
BRANCH  21  24
ATOM     24  C   UNL     1      10.094  10.064  -8.984  1.00  0.00     0.037 A 
ATOM     25  C   UNL     1      10.557  11.090  -9.816  1.00  0.00     0.014 A 
ATOM     26  C   UNL     1      10.021   8.772  -9.511  1.00  0.00     0.014 A 
ATOM     27  C   UNL     1      10.939  10.832 -11.139  1.00  0.00     0.005 A 
ATOM     28  C   UNL     1      10.402   8.515 -10.834  1.00  0.00     0.005 A 
ATOM     29  C   UNL     1      10.872   9.539 -11.679  1.00  0.00    -0.043 A 
BRANCH  29  30
ATOM     30  C   UNL     1      11.286   9.219 -13.125  1.00  0.00    -0.013 C 
ATOM     31  C   UNL     1      10.701   7.852 -13.542  1.00  0.00     0.016 C 
ATOM     32  C   UNL     1      10.749  10.311 -14.075  1.00  0.00     0.016 C 
ATOM     33  C   UNL     1      12.816   9.144 -13.335  1.00  0.00     0.016 C 
ENDBRANCH  29  30
ENDBRANCH  21  24
ENDBRANCH  17  18
ENDBRANCH  16  17
ENDBRANCH   1  16
TORSDOF 11
ENDMDL
MODEL 4
REMARK VINA RESULT:    -8.663      2.853      9.238
REMARK INTER + INTRA:         -15.297
REMARK INTER:                 -13.743
REMARK INTRA:                  -1.554
REMARK UNBOUND:                -1.317
REMARK SMILES CCc1cc(OCCc2nc(-c3ccc(C(C)(C)C)cc3)oc2C)ccc1CCC(=O)O
REMARK SMILES IDX 6 1 5 2 3 3 4 4 27 5 26 6 25 7 2 8 1 9 28 10 29 11 30 12
REMARK SMILES IDX 31 13 32 14 7 16 8 17 9 18 10 19 23 20 11 21 22 22 24 23
REMARK SMILES IDX 12 24 13 25 21 26 14 27 20 28 15 29 16 30 17 31 18 32 19 33
REMARK H PARENT 32 15
ROOT
ATOM      1  O   UNL     1      10.632  11.150  -9.653  1.00  0.00    -0.493 OA
ENDROOT
BRANCH   1   2
ATOM      2  C   UNL     1      10.514   9.838 -10.021  1.00  0.00     0.119 A 
ATOM      3  C   UNL     1      10.692   8.287 -11.910  1.00  0.00    -0.041 A 
ATOM      4  C   UNL     1      10.770   9.586 -11.371  1.00  0.00     0.050 A 
ATOM      5  C   UNL     1      10.359   7.217 -11.058  1.00  0.00    -0.044 A 
ATOM      6  C   UNL     1      10.091   7.484  -9.704  1.00  0.00     0.008 A 
ATOM      7  C   UNL     1      10.167   8.781  -9.189  1.00  0.00     0.047 A 
BRANCH   3   8
ATOM      8  C   UNL     1      11.009   8.110 -13.377  1.00  0.00     0.032 C 
ATOM      9  C   UNL     1      11.487   9.405 -14.016  1.00  0.00     0.009 C 
ENDBRANCH   3   8
BRANCH   5  10
ATOM     10  C   UNL     1      10.243   5.787 -11.539  1.00  0.00     0.047 C 
BRANCH  10  11
ATOM     11  C   UNL     1      10.989   4.822 -10.622  1.00  0.00     0.127 C 
BRANCH  11  12
ATOM     12  C   UNL     1      10.064   3.767 -10.086  1.00  0.00     0.303 C 
ATOM     13  O   UNL     1       9.673   2.763 -10.656  1.00  0.00    -0.252 OA
BRANCH  12  14
ATOM     14  O   UNL     1       9.671   4.035  -8.827  1.00  0.00    -0.481 OA
ATOM     15  H   UNL     1      10.493   4.314  -8.371  1.00  0.00     0.296 HD
ENDBRANCH  12  14
ENDBRANCH  11  12
ENDBRANCH  10  11
ENDBRANCH   5  10
ENDBRANCH   1   2
BRANCH   1  16
ATOM     16  C   UNL     1      11.406  11.432  -8.482  1.00  0.00     0.236 C 
BRANCH  16  17
ATOM     17  C   UNL     1      10.659  12.462  -7.637  1.00  0.00     0.101 C 
BRANCH  17  18
ATOM     18  C   UNL     1       9.861  11.828  -6.552  1.00  0.00     0.086 A 
ATOM     19  N   UNL     1       8.739  11.085  -6.844  1.00  0.00    -0.214 NA
ATOM     20  C   UNL     1      10.062  11.838  -5.188  1.00  0.00     0.125 A 
ATOM     21  C   UNL     1       8.305  10.670  -5.668  1.00  0.00     0.226 A 
ATOM     22  O   UNL     1       9.069  11.098  -4.612  1.00  0.00    -0.441 OA
ATOM     23  C   UNL     1      11.069  12.425  -4.289  1.00  0.00     0.090 C 
BRANCH  21  24
ATOM     24  C   UNL     1       7.152   9.833  -5.351  1.00  0.00     0.037 A 
ATOM     25  C   UNL     1       6.347  10.147  -4.250  1.00  0.00     0.014 A 
ATOM     26  C   UNL     1       6.810   8.716  -6.117  1.00  0.00     0.014 A 
ATOM     27  C   UNL     1       5.229   9.367  -3.924  1.00  0.00     0.005 A 
ATOM     28  C   UNL     1       5.694   7.935  -5.790  1.00  0.00     0.005 A 
ATOM     29  C   UNL     1       4.876   8.244  -4.686  1.00  0.00    -0.043 A 
BRANCH  29  30
ATOM     30  C   UNL     1       3.655   7.367  -4.360  1.00  0.00    -0.013 C 
ATOM     31  C   UNL     1       3.189   7.643  -2.914  1.00  0.00     0.016 C 
ATOM     32  C   UNL     1       2.503   7.696  -5.335  1.00  0.00     0.016 C 
ATOM     33  C   UNL     1       3.928   5.850  -4.470  1.00  0.00     0.016 C 
ENDBRANCH  29  30
ENDBRANCH  21  24
ENDBRANCH  17  18
ENDBRANCH  16  17
ENDBRANCH   1  16
TORSDOF 11
ENDMDL
MODEL 5
REMARK VINA RESULT:    -8.359      2.958      5.002
REMARK INTER + INTRA:         -14.808
REMARK INTER:                 -13.322
REMARK INTRA:                  -1.486
REMARK UNBOUND:                -1.317
REMARK SMILES CCc1cc(OCCc2nc(-c3ccc(C(C)(C)C)cc3)oc2C)ccc1CCC(=O)O
REMARK SMILES IDX 6 1 5 2 3 3 4 4 27 5 26 6 25 7 2 8 1 9 28 10 29 11 30 12
REMARK SMILES IDX 31 13 32 14 7 16 8 17 9 18 10 19 23 20 11 21 22 22 24 23
REMARK SMILES IDX 12 24 13 25 21 26 14 27 20 28 15 29 16 30 17 31 18 32 19 33
REMARK H PARENT 32 15
ROOT
ATOM      1  O   UNL     1       7.415   4.857  -6.859  1.00  0.00    -0.493 OA
ENDROOT
BRANCH   1   2
ATOM      2  C   UNL     1       6.703   5.921  -6.381  1.00  0.00     0.119 A 
ATOM      3  C   UNL     1       4.811   6.561  -4.959  1.00  0.00    -0.041 A 
ATOM      4  C   UNL     1       5.642   5.582  -5.537  1.00  0.00     0.050 A 
ATOM      5  C   UNL     1       5.069   7.918  -5.232  1.00  0.00    -0.044 A 
ATOM      6  C   UNL     1       6.132   8.248  -6.092  1.00  0.00     0.008 A 
ATOM      7  C   UNL     1       6.941   7.261  -6.662  1.00  0.00     0.047 A 
BRANCH   3   8
ATOM      8  C   UNL     1       3.704   6.097  -4.042  1.00  0.00     0.032 C 
ATOM      9  C   UNL     1       4.180   5.946  -2.605  1.00  0.00     0.009 C 
ENDBRANCH   3   8
BRANCH   5  10
ATOM     10  C   UNL     1       4.233   9.045  -4.667  1.00  0.00     0.047 C 
BRANCH  10  11
ATOM     11  C   UNL     1       5.098  10.226  -4.235  1.00  0.00     0.127 C 
BRANCH  11  12
ATOM     12  C   UNL     1       5.947   9.865  -3.050  1.00  0.00     0.303 C 
ATOM     13  O   UNL     1       5.600   9.282  -2.038  1.00  0.00    -0.252 OA
BRANCH  12  14
ATOM     14  O   UNL     1       7.223  10.266  -3.205  1.00  0.00    -0.481 OA
ATOM     15  H   UNL     1       7.155  11.231  -3.364  1.00  0.00     0.296 HD
ENDBRANCH  12  14
ENDBRANCH  11  12
ENDBRANCH  10  11
ENDBRANCH   5  10
ENDBRANCH   1   2
BRANCH   1  16
ATOM     16  C   UNL     1       8.300   4.199  -5.945  1.00  0.00     0.236 C 
BRANCH  16  17
ATOM     17  C   UNL     1       9.740   4.509  -6.350  1.00  0.00     0.101 C 
BRANCH  17  18
ATOM     18  C   UNL     1       9.842   4.956  -7.766  1.00  0.00     0.086 A 
ATOM     19  N   UNL     1       9.964   6.293  -8.076  1.00  0.00    -0.214 NA
ATOM     20  C   UNL     1       9.849   4.214  -8.927  1.00  0.00     0.125 A 
ATOM     21  C   UNL     1      10.046   6.317  -9.394  1.00  0.00     0.226 A 
ATOM     22  O   UNL     1       9.980   5.077  -9.977  1.00  0.00    -0.441 OA
ATOM     23  C   UNL     1       9.771   2.778  -9.246  1.00  0.00     0.090 C 
BRANCH  21  24
ATOM     24  C   UNL     1      10.199   7.460 -10.289  1.00  0.00     0.037 A 
ATOM     25  C   UNL     1      10.438   7.248 -11.651  1.00  0.00     0.014 A 
ATOM     26  C   UNL     1      10.109   8.778  -9.834  1.00  0.00     0.014 A 
ATOM     27  C   UNL     1      10.583   8.324 -12.537  1.00  0.00     0.005 A 
ATOM     28  C   UNL     1      10.255   9.854 -10.720  1.00  0.00     0.005 A 
ATOM     29  C   UNL     1      10.494   9.652 -12.093  1.00  0.00    -0.043 A 
BRANCH  29  30
ATOM     30  C   UNL     1      10.644  10.858 -13.036  1.00  0.00    -0.013 C 
ATOM     31  C   UNL     1      10.408  12.165 -12.250  1.00  0.00     0.016 C 
ATOM     32  C   UNL     1      12.067  10.876 -13.635  1.00  0.00     0.016 C 
ATOM     33  C   UNL     1       9.650  10.852 -14.220  1.00  0.00     0.016 C 
ENDBRANCH  29  30
ENDBRANCH  21  24
ENDBRANCH  17  18
ENDBRANCH  16  17
ENDBRANCH   1  16
TORSDOF 11
ENDMDL
MODEL 6
REMARK VINA RESULT:    -8.349      2.972      4.761
REMARK INTER + INTRA:         -14.791
REMARK INTER:                 -13.474
REMARK INTRA:                  -1.317
REMARK UNBOUND:                -1.317
REMARK SMILES CCc1cc(OCCc2nc(-c3ccc(C(C)(C)C)cc3)oc2C)ccc1CCC(=O)O
REMARK SMILES IDX 6 1 5 2 3 3 4 4 27 5 26 6 25 7 2 8 1 9 28 10 29 11 30 12
REMARK SMILES IDX 31 13 32 14 7 16 8 17 9 18 10 19 23 20 11 21 22 22 24 23
REMARK SMILES IDX 12 24 13 25 21 26 14 27 20 28 15 29 16 30 17 31 18 32 19 33
REMARK H PARENT 32 15
ROOT
ATOM      1  O   UNL     1       7.538   5.624  -6.901  1.00  0.00    -0.493 OA
ENDROOT
BRANCH   1   2
ATOM      2  C   UNL     1       6.481   6.016  -6.127  1.00  0.00     0.119 A 
ATOM      3  C   UNL     1       5.247   7.965  -5.299  1.00  0.00    -0.041 A 
ATOM      4  C   UNL     1       6.292   7.398  -6.054  1.00  0.00     0.050 A 
ATOM      5  C   UNL     1       4.364   7.110  -4.612  1.00  0.00    -0.044 A 
ATOM      6  C   UNL     1       4.571   5.720  -4.682  1.00  0.00     0.008 A 
ATOM      7  C   UNL     1       5.618   5.177  -5.431  1.00  0.00     0.047 A 
BRANCH   3   8
ATOM      8  C   UNL     1       5.110   9.470  -5.300  1.00  0.00     0.032 C 
ATOM      9  C   UNL     1       5.960  10.119  -4.217  1.00  0.00     0.009 C 
ENDBRANCH   3   8
BRANCH   5  10
ATOM     10  C   UNL     1       3.215   7.618  -3.769  1.00  0.00     0.047 C 
BRANCH  10  11
ATOM     11  C   UNL     1       3.258   7.044  -2.355  1.00  0.00     0.127 C 
BRANCH  11  12
ATOM     12  C   UNL     1       3.433   8.134  -1.338  1.00  0.00     0.303 C 
ATOM     13  O   UNL     1       2.565   8.689  -0.687  1.00  0.00    -0.252 OA
BRANCH  12  14
ATOM     14  O   UNL     1       4.726   8.478  -1.187  1.00  0.00    -0.481 OA
ATOM     15  H   UNL     1       4.819   9.302  -1.710  1.00  0.00     0.296 HD
ENDBRANCH  12  14
ENDBRANCH  11  12
ENDBRANCH  10  11
ENDBRANCH   5  10
ENDBRANCH   1   2
BRANCH   1  16
ATOM     16  C   UNL     1       8.281   4.482  -6.460  1.00  0.00     0.236 C 
BRANCH  16  17
ATOM     17  C   UNL     1       9.746   4.669  -6.854  1.00  0.00     0.101 C 
BRANCH  17  18
ATOM     18  C   UNL     1       9.899   5.036  -8.289  1.00  0.00     0.086 A 
ATOM     19  N   UNL     1       9.968   6.357  -8.674  1.00  0.00    -0.214 NA
ATOM     20  C   UNL     1      10.006   4.229  -9.400  1.00  0.00     0.125 A 
ATOM     21  C   UNL     1      10.118   6.308  -9.985  1.00  0.00     0.226 A 
ATOM     22  O   UNL     1      10.147   5.034 -10.493  1.00  0.00    -0.441 OA
ATOM     23  C   UNL     1      10.019   2.774  -9.632  1.00  0.00     0.090 C 
BRANCH  21  24
ATOM     24  C   UNL     1      10.258   7.403 -10.941  1.00  0.00     0.037 A 
ATOM     25  C   UNL     1      10.477   7.120 -12.294  1.00  0.00     0.014 A 
ATOM     26  C   UNL     1      10.177   8.743 -10.554  1.00  0.00     0.014 A 
ATOM     27  C   UNL     1      10.609   8.149 -13.237  1.00  0.00     0.005 A 
ATOM     28  C   UNL     1      10.310   9.771 -11.496  1.00  0.00     0.005 A 
ATOM     29  C   UNL     1      10.528   9.498 -12.860  1.00  0.00    -0.043 A 
BRANCH  29  30
ATOM     30  C   UNL     1      10.665  10.652 -13.868  1.00  0.00    -0.013 C 
ATOM     31  C   UNL     1      11.608  10.231 -15.016  1.00  0.00     0.016 C 
ATOM     32  C   UNL     1       9.279  11.000 -14.452  1.00  0.00     0.016 C 
ATOM     33  C   UNL     1      11.242  11.949 -13.257  1.00  0.00     0.016 C 
ENDBRANCH  29  30
ENDBRANCH  21  24
ENDBRANCH  17  18
ENDBRANCH  16  17
ENDBRANCH   1  16
TORSDOF 11
ENDMDL
MODEL 7
REMARK VINA RESULT:    -8.154      5.803      7.558
REMARK INTER + INTRA:         -14.476
REMARK INTER:                 -13.717
REMARK INTRA:                  -0.759
REMARK UNBOUND:                -1.317
REMARK SMILES CCc1cc(OCCc2nc(-c3ccc(C(C)(C)C)cc3)oc2C)ccc1CCC(=O)O
REMARK SMILES IDX 6 1 5 2 3 3 4 4 27 5 26 6 25 7 2 8 1 9 28 10 29 11 30 12
REMARK SMILES IDX 31 13 32 14 7 16 8 17 9 18 10 19 23 20 11 21 22 22 24 23
REMARK SMILES IDX 12 24 13 25 21 26 14 27 20 28 15 29 16 30 17 31 18 32 19 33
REMARK H PARENT 32 15
ROOT
ATOM      1  O   UNL     1       8.287   3.425  -5.388  1.00  0.00    -0.493 OA
ENDROOT
BRANCH   1   2
ATOM      2  C   UNL     1       9.270   2.956  -4.562  1.00  0.00     0.119 A 
ATOM      3  C   UNL     1      10.919   1.168  -4.262  1.00  0.00    -0.041 A 
ATOM      4  C   UNL     1       9.886   1.781  -4.998  1.00  0.00     0.050 A 
ATOM      5  C   UNL     1      11.347   1.767  -3.062  1.00  0.00    -0.044 A 
ATOM      6  C   UNL     1      10.711   2.944  -2.626  1.00  0.00     0.008 A 
ATOM      7  C   UNL     1       9.683   3.534  -3.367  1.00  0.00     0.047 A 
BRANCH   3   8
ATOM      8  C   UNL     1      11.540  -0.089  -4.826  1.00  0.00     0.032 C 
ATOM      9  C   UNL     1      10.860  -1.345  -4.300  1.00  0.00     0.009 C 
ENDBRANCH   3   8
BRANCH   5  10
ATOM     10  C   UNL     1      12.442   1.186  -2.196  1.00  0.00     0.047 C 
BRANCH  10  11
ATOM     11  C   UNL     1      13.828   1.566  -2.709  1.00  0.00     0.127 C 
BRANCH  11  12
ATOM     12  C   UNL     1      14.712   2.022  -1.584  1.00  0.00     0.303 C 
ATOM     13  O   UNL     1      14.908   3.164  -1.209  1.00  0.00    -0.252 OA
BRANCH  12  14
ATOM     14  O   UNL     1      15.319   0.987  -0.971  1.00  0.00    -0.481 OA
ATOM     15  H   UNL     1      14.974   1.016  -0.053  1.00  0.00     0.296 HD
ENDBRANCH  12  14
ENDBRANCH  11  12
ENDBRANCH  10  11
ENDBRANCH   5  10
ENDBRANCH   1   2
BRANCH   1  16
ATOM     16  C   UNL     1       8.669   4.392  -6.373  1.00  0.00     0.236 C 
BRANCH  16  17
ATOM     17  C   UNL     1       9.882   3.860  -7.136  1.00  0.00     0.101 C 
BRANCH  17  18
ATOM     18  C   UNL     1       9.987   4.443  -8.502  1.00  0.00     0.086 A 
ATOM     19  N   UNL     1       9.992   5.808  -8.687  1.00  0.00    -0.214 NA
ATOM     20  C   UNL     1      10.102   3.814  -9.723  1.00  0.00     0.125 A 
ATOM     21  C   UNL     1      10.114   5.960  -9.993  1.00  0.00     0.226 A 
ATOM     22  O   UNL     1      10.184   4.778 -10.686  1.00  0.00    -0.441 OA
ATOM     23  C   UNL     1      10.170   2.413 -10.170  1.00  0.00     0.090 C 
BRANCH  21  24
ATOM     24  C   UNL     1      10.186   7.190 -10.776  1.00  0.00     0.037 A 
ATOM     25  C   UNL     1      10.372   7.121 -12.162  1.00  0.00     0.014 A 
ATOM     26  C   UNL     1      10.072   8.454 -10.191  1.00  0.00     0.014 A 
ATOM     27  C   UNL     1      10.440   8.283 -12.943  1.00  0.00     0.005 A 
ATOM     28  C   UNL     1      10.140   9.615 -10.971  1.00  0.00     0.005 A 
ATOM     29  C   UNL     1      10.324   9.556 -12.366  1.00  0.00    -0.043 A 
BRANCH  29  30
ATOM     30  C   UNL     1      10.390  10.853 -13.192  1.00  0.00    -0.013 C 
ATOM     31  C   UNL     1       9.159  10.939 -14.120  1.00  0.00     0.016 C 
ATOM     32  C   UNL     1      10.398  12.073 -12.245  1.00  0.00     0.016 C 
ATOM     33  C   UNL     1      11.645  10.961 -14.087  1.00  0.00     0.016 C 
ENDBRANCH  29  30
ENDBRANCH  21  24
ENDBRANCH  17  18
ENDBRANCH  16  17
ENDBRANCH   1  16
TORSDOF 11
ENDMDL
MODEL 8
REMARK VINA RESULT:    -8.109      2.518      5.464
REMARK INTER + INTRA:         -14.404
REMARK INTER:                 -13.400
REMARK INTRA:                  -1.004
REMARK UNBOUND:                -1.317
REMARK SMILES CCc1cc(OCCc2nc(-c3ccc(C(C)(C)C)cc3)oc2C)ccc1CCC(=O)O
REMARK SMILES IDX 6 1 5 2 3 3 4 4 27 5 26 6 25 7 2 8 1 9 28 10 29 11 30 12
REMARK SMILES IDX 31 13 32 14 7 16 8 17 9 18 10 19 23 20 11 21 22 22 24 23
REMARK SMILES IDX 12 24 13 25 21 26 14 27 20 28 15 29 16 30 17 31 18 32 19 33
REMARK H PARENT 32 15
ROOT
ATOM      1  O   UNL     1       8.050   6.847  -7.263  1.00  0.00    -0.493 OA
ENDROOT
BRANCH   1   2
ATOM      2  C   UNL     1       6.901   6.746  -6.529  1.00  0.00     0.119 A 
ATOM      3  C   UNL     1       5.154   8.040  -5.397  1.00  0.00    -0.041 A 
ATOM      4  C   UNL     1       6.339   7.969  -6.155  1.00  0.00     0.050 A 
ATOM      5  C   UNL     1       4.516   6.843  -5.021  1.00  0.00    -0.044 A 
ATOM      6  C   UNL     1       5.096   5.617  -5.393  1.00  0.00     0.008 A 
ATOM      7  C   UNL     1       6.277   5.567  -6.139  1.00  0.00     0.047 A 
BRANCH   3   8
ATOM      8  C   UNL     1       4.610   9.409  -5.060  1.00  0.00     0.032 C 
ATOM      9  C   UNL     1       5.615  10.244  -4.281  1.00  0.00     0.009 C 
ENDBRANCH   3   8
BRANCH   5  10
ATOM     10  C   UNL     1       3.243   6.809  -4.202  1.00  0.00     0.047 C 
BRANCH  10  11
ATOM     11  C   UNL     1       3.514   6.394  -2.759  1.00  0.00     0.127 C 
BRANCH  11  12
ATOM     12  C   UNL     1       4.130   7.521  -1.982  1.00  0.00     0.303 C 
ATOM     13  O   UNL     1       5.309   7.688  -1.722  1.00  0.00    -0.252 OA
BRANCH  12  14
ATOM     14  O   UNL     1       3.206   8.407  -1.562  1.00  0.00    -0.481 OA
ATOM     15  H   UNL     1       2.886   8.036  -0.712  1.00  0.00     0.296 HD
ENDBRANCH  12  14
ENDBRANCH  11  12
ENDBRANCH  10  11
ENDBRANCH   5  10
ENDBRANCH   1   2
BRANCH   1  16
ATOM     16  C   UNL     1       8.916   5.706  -7.280  1.00  0.00     0.236 C 
BRANCH  16  17
ATOM     17  C   UNL     1       9.869   5.833  -8.466  1.00  0.00     0.101 C 
BRANCH  17  18
ATOM     18  C   UNL     1      10.075   7.250  -8.874  1.00  0.00     0.086 A 
ATOM     19  N   UNL     1      10.081   8.259  -7.936  1.00  0.00    -0.214 NA
ATOM     20  C   UNL     1      10.291   7.785 -10.125  1.00  0.00     0.125 A 
ATOM     21  C   UNL     1      10.302   9.355  -8.638  1.00  0.00     0.226 A 
ATOM     22  O   UNL     1      10.438   9.135  -9.985  1.00  0.00    -0.441 OA
ATOM     23  C   UNL     1      10.408   7.236 -11.487  1.00  0.00     0.090 C 
BRANCH  21  24
ATOM     24  C   UNL     1      10.423  10.736  -8.179  1.00  0.00     0.037 A 
ATOM     25  C   UNL     1      10.907  11.002  -6.893  1.00  0.00     0.014 A 
ATOM     26  C   UNL     1      10.075  11.822  -8.987  1.00  0.00     0.014 A 
ATOM     27  C   UNL     1      11.041  12.316  -6.426  1.00  0.00     0.005 A 
ATOM     28  C   UNL     1      10.209  13.136  -8.520  1.00  0.00     0.005 A 
ATOM     29  C   UNL     1      10.696  13.414  -7.228  1.00  0.00    -0.043 A 
BRANCH  29  30
ATOM     30  C   UNL     1      10.834  14.870  -6.751  1.00  0.00    -0.013 C 
ATOM     31  C   UNL     1      12.136  15.479  -7.313  1.00  0.00     0.016 C 
ATOM     32  C   UNL     1       9.630  15.697  -7.251  1.00  0.00     0.016 C 
ATOM     33  C   UNL     1      10.885  15.021  -5.214  1.00  0.00     0.016 C 
ENDBRANCH  29  30
ENDBRANCH  21  24
ENDBRANCH  17  18
ENDBRANCH  16  17
ENDBRANCH   1  16
TORSDOF 11
ENDMDL
MODEL 9
REMARK VINA RESULT:    -7.850      4.928      7.085
REMARK INTER + INTRA:         -13.986
REMARK INTER:                 -12.834
REMARK INTRA:                  -1.152
REMARK UNBOUND:                -1.317
REMARK SMILES CCc1cc(OCCc2nc(-c3ccc(C(C)(C)C)cc3)oc2C)ccc1CCC(=O)O
REMARK SMILES IDX 6 1 5 2 3 3 4 4 27 5 26 6 25 7 2 8 1 9 28 10 29 11 30 12
REMARK SMILES IDX 31 13 32 14 7 16 8 17 9 18 10 19 23 20 11 21 22 22 24 23
REMARK SMILES IDX 12 24 13 25 21 26 14 27 20 28 15 29 16 30 17 31 18 32 19 33
REMARK H PARENT 32 15
ROOT
ATOM      1  O   UNL     1       8.811   3.815  -6.807  1.00  0.00    -0.493 OA
ENDROOT
BRANCH   1   2
ATOM      2  C   UNL     1       9.405   3.231  -5.722  1.00  0.00     0.119 A 
ATOM      3  C   UNL     1       9.544   3.280  -3.276  1.00  0.00    -0.041 A 
ATOM      4  C   UNL     1       9.025   3.768  -4.490  1.00  0.00     0.050 A 
ATOM      5  C   UNL     1      10.461   2.212  -3.310  1.00  0.00    -0.044 A 
ATOM      6  C   UNL     1      10.846   1.687  -4.557  1.00  0.00     0.008 A 
ATOM      7  C   UNL     1      10.325   2.190  -5.752  1.00  0.00     0.047 A 
BRANCH   3   8
ATOM      8  C   UNL     1       9.055   3.910  -1.992  1.00  0.00     0.032 C 
ATOM      9  C   UNL     1       7.555   4.165  -2.018  1.00  0.00     0.009 C 
ENDBRANCH   3   8
BRANCH   5  10
ATOM     10  C   UNL     1      11.082   1.619  -2.064  1.00  0.00     0.047 C 
BRANCH  10  11
ATOM     11  C   UNL     1      12.306   0.770  -2.395  1.00  0.00     0.127 C 
BRANCH  11  12
ATOM     12  C   UNL     1      13.574   1.507  -2.073  1.00  0.00     0.303 C 
ATOM     13  O   UNL     1      14.465   1.158  -1.318  1.00  0.00    -0.252 OA
BRANCH  12  14
ATOM     14  O   UNL     1      13.659   2.676  -2.737  1.00  0.00    -0.481 OA
ATOM     15  H   UNL     1      13.300   2.474  -3.627  1.00  0.00     0.296 HD
ENDBRANCH  12  14
ENDBRANCH  11  12
ENDBRANCH  10  11
ENDBRANCH   5  10
ENDBRANCH   1   2
BRANCH   1  16
ATOM     16  C   UNL     1       9.132   5.186  -7.068  1.00  0.00     0.236 C 
BRANCH  16  17
ATOM     17  C   UNL     1      10.024   5.251  -8.307  1.00  0.00     0.101 C 
BRANCH  17  18
ATOM     18  C   UNL     1      10.123   6.632  -8.856  1.00  0.00     0.086 A 
ATOM     19  N   UNL     1      10.023   7.728  -8.028  1.00  0.00    -0.214 NA
ATOM     20  C   UNL     1      10.324   7.053 -10.153  1.00  0.00     0.125 A 
ATOM     21  C   UNL     1      10.171   8.762  -8.836  1.00  0.00     0.226 A 
ATOM     22  O   UNL     1      10.356   8.418 -10.150  1.00  0.00    -0.441 OA
ATOM     23  C   UNL     1      10.518   6.380 -11.448  1.00  0.00     0.090 C 
BRANCH  21  24
ATOM     24  C   UNL     1      10.167  10.188  -8.521  1.00  0.00     0.037 A 
ATOM     25  C   UNL     1       9.798  10.616  -7.241  1.00  0.00     0.014 A 
ATOM     26  C   UNL     1      10.528  11.158  -9.459  1.00  0.00     0.014 A 
ATOM     27  C   UNL     1       9.791  11.977  -6.905  1.00  0.00     0.005 A 
ATOM     28  C   UNL     1      10.520  12.519  -9.125  1.00  0.00     0.005 A 
ATOM     29  C   UNL     1      10.153  12.960  -7.839  1.00  0.00    -0.043 A 
BRANCH  29  30
ATOM     30  C   UNL     1      10.161  14.461  -7.506  1.00  0.00    -0.013 C 
ATOM     31  C   UNL     1      11.409  15.124  -8.127  1.00  0.00     0.016 C 
ATOM     32  C   UNL     1       8.893  15.129  -8.081  1.00  0.00     0.016 C 
ATOM     33  C   UNL     1      10.189  14.765  -5.991  1.00  0.00     0.016 C 
ENDBRANCH  29  30
ENDBRANCH  21  24
ENDBRANCH  17  18
ENDBRANCH  16  17
ENDBRANCH   1  16
TORSDOF 11
ENDMDL
