MODEL 1
REMARK VINA RESULT:   -10.042      0.000      0.000
REMARK INTER + INTRA:         -13.141
REMARK INTER:                 -12.977
REMARK INTRA:                  -0.164
REMARK UNBOUND:                -0.164
REMARK SMILES C[C@H]1CN(c2cccc(C(=N)N)c2)C(=O)N(C2CCN(Cc3ccccc3)CC2)C1
REMARK SMILES IDX 1 1 2 2 3 3 4 4 14 5 15 6 16 7 30 8 5 9 6 10 13 11 7 12 9 13
REMARK SMILES IDX 8 14 10 15 11 16 12 17 17 21 18 22 29 23 19 24 28 25 20 26
REMARK SMILES IDX 21 27 22 28 23 29 27 30 24 31 26 32 25 33
REMARK H PARENT 11 18 12 19 12 20
ROOT
ATOM      1  C   UNL     1      -3.999  15.249  25.122  1.00  0.00     0.011 C 
ATOM      2  C   UNL     1      -3.535  13.985  24.406  1.00  0.00     0.025 C 
ATOM      3  C   UNL     1      -3.260  12.858  25.382  1.00  0.00     0.132 C 
ATOM      4  N   UNL     1      -2.814  11.642  24.700  1.00  0.00    -0.294 N 
ATOM      5  C   UNL     1      -3.282  11.327  23.412  1.00  0.00     0.324 C 
ATOM      6  O   UNL     1      -2.907  10.339  22.777  1.00  0.00    -0.248 OA
ATOM      7  N   UNL     1      -4.191  12.218  22.835  1.00  0.00    -0.321 N 
ATOM      8  C   UNL     1      -4.591  13.471  23.455  1.00  0.00     0.126 C 
ENDROOT
BRANCH   4   9
ATOM      9  C   UNL     1      -2.013  10.701  25.455  1.00  0.00     0.046 A 
ATOM     10  C   UNL     1      -0.639  10.546  25.207  1.00  0.00     0.026 A 
ATOM     11  C   UNL     1      -2.573   9.921  26.481  1.00  0.00     0.038 A 
ATOM     12  C   UNL     1       0.146   9.656  25.950  1.00  0.00     0.003 A 
ATOM     13  C   UNL     1      -1.791   9.025  27.226  1.00  0.00     0.018 A 
ATOM     14  C   UNL     1      -0.428   8.896  26.963  1.00  0.00     0.012 A 
BRANCH  13  15
ATOM     15  C   UNL     1      -2.409   8.229  28.322  1.00  0.00     0.122 C 
ATOM     16  N   UNL     1      -1.749   7.324  28.975  1.00  0.00    -0.284 NA
ATOM     17  N   UNL     1      -3.698   8.435  28.681  1.00  0.00    -0.384 N 
ATOM     18  H   UNL     1      -0.805   7.211  28.594  1.00  0.00     0.189 HD
ATOM     19  H   UNL     1      -4.295   9.132  28.260  1.00  0.00     0.158 HD
ATOM     20  H   UNL     1      -4.070   7.852  29.418  1.00  0.00     0.158 HD
ENDBRANCH  13  15
ENDBRANCH   4   9
BRANCH   7  21
ATOM     21  C   UNL     1      -4.762  11.875  21.513  1.00  0.00     0.089 C 
ATOM     22  C   UNL     1      -3.714  11.753  20.397  1.00  0.00     0.041 C 
ATOM     23  C   UNL     1      -5.614  10.604  21.588  1.00  0.00     0.041 C 
ATOM     24  C   UNL     1      -4.385  11.391  19.071  1.00  0.00     0.087 C 
ATOM     25  C   UNL     1      -6.210  10.272  20.220  1.00  0.00     0.087 C 
ATOM     26  N   UNL     1      -5.156  10.151  19.207  1.00  0.00    -0.299 NA
BRANCH  26  27
ATOM     27  C   UNL     1      -5.645   9.627  17.922  1.00  0.00     0.120 C 
BRANCH  27  28
ATOM     28  C   UNL     1      -6.004   8.157  17.869  1.00  0.00    -0.034 A 
ATOM     29  C   UNL     1      -5.112   7.185  18.346  1.00  0.00     0.005 A 
ATOM     30  C   UNL     1      -7.232   7.739  17.335  1.00  0.00     0.005 A 
ATOM     31  C   UNL     1      -5.446   5.830  18.299  1.00  0.00     0.000 A 
ATOM     32  C   UNL     1      -7.565   6.384  17.289  1.00  0.00     0.000 A 
ATOM     33  C   UNL     1      -6.672   5.430  17.772  1.00  0.00     0.000 A 
ENDBRANCH  27  28
ENDBRANCH  26  27
ENDBRANCH   7  21
TORSDOF 5
ENDMDL
MODEL 2
REMARK VINA RESULT:    -8.997      3.113     10.186
REMARK INTER + INTRA:         -11.790
REMARK INTER:                 -10.998
REMARK INTRA:                  -0.792
REMARK UNBOUND:                -0.164
REMARK SMILES C[C@H]1CN(c2cccc(C(=N)N)c2)C(=O)N(C2CCN(Cc3ccccc3)CC2)C1
REMARK SMILES IDX 1 1 2 2 3 3 4 4 14 5 15 6 16 7 30 8 5 9 6 10 13 11 7 12 9 13
REMARK SMILES IDX 8 14 10 15 11 16 12 17 17 21 18 22 29 23 19 24 28 25 20 26
REMARK SMILES IDX 21 27 22 28 23 29 27 30 24 31 26 32 25 33
REMARK H PARENT 11 18 12 19 12 20
ROOT
ATOM      1  C   UNL     1      -5.356   6.280  18.426  1.00  0.00     0.011 C 
ATOM      2  C   UNL     1      -4.789   7.677  18.198  1.00  0.00     0.025 C 
ATOM      3  C   UNL     1      -5.578   8.437  17.151  1.00  0.00     0.132 C 
ATOM      4  N   UNL     1      -5.037   9.779  16.928  1.00  0.00    -0.294 N 
ATOM      5  C   UNL     1      -4.435  10.495  17.977  1.00  0.00     0.324 C 
ATOM      6  O   UNL     1      -3.927  11.610  17.834  1.00  0.00    -0.248 OA
ATOM      7  N   UNL     1      -4.393   9.870  19.226  1.00  0.00    -0.321 N 
ATOM      8  C   UNL     1      -4.850   8.509  19.459  1.00  0.00     0.126 C 
ENDROOT
BRANCH   4   9
ATOM      9  C   UNL     1      -5.292  10.403  15.647  1.00  0.00     0.046 A 
ATOM     10  C   UNL     1      -4.241  10.750  14.781  1.00  0.00     0.026 A 
ATOM     11  C   UNL     1      -6.600  10.668  15.207  1.00  0.00     0.038 A 
ATOM     12  C   UNL     1      -4.480  11.331  13.529  1.00  0.00     0.003 A 
ATOM     13  C   UNL     1      -6.845  11.253  13.955  1.00  0.00     0.018 A 
ATOM     14  C   UNL     1      -5.783  11.581  13.113  1.00  0.00     0.012 A 
BRANCH  13  15
ATOM     15  C   UNL     1      -8.243  11.501  13.508  1.00  0.00     0.122 C 
ATOM     16  N   UNL     1      -8.558  11.619  12.257  1.00  0.00    -0.284 NA
ATOM     17  N   UNL     1      -9.248  11.602  14.412  1.00  0.00    -0.384 N 
ATOM     18  H   UNL     1      -7.724  11.579  11.663  1.00  0.00     0.189 HD
ATOM     19  H   UNL     1      -9.121  11.498  15.408  1.00  0.00     0.158 HD
ATOM     20  H   UNL     1     -10.173  11.790  14.052  1.00  0.00     0.158 HD
ENDBRANCH  13  15
ENDBRANCH   4   9
BRANCH   7  21
ATOM     21  C   UNL     1      -3.835  10.628  20.369  1.00  0.00     0.089 C 
ATOM     22  C   UNL     1      -4.789  10.738  21.566  1.00  0.00     0.041 C 
ATOM     23  C   UNL     1      -2.486  10.052  20.812  1.00  0.00     0.041 C 
ATOM     24  C   UNL     1      -4.135  11.527  22.701  1.00  0.00     0.087 C 
ATOM     25  C   UNL     1      -1.914  10.855  21.980  1.00  0.00     0.087 C 
ATOM     26  N   UNL     1      -2.866  10.904  23.094  1.00  0.00    -0.299 NA
BRANCH  26  27
ATOM     27  C   UNL     1      -2.293  11.480  24.321  1.00  0.00     0.120 C 
BRANCH  27  28
ATOM     28  C   UNL     1      -1.825  10.509  25.384  1.00  0.00    -0.034 A 
ATOM     29  C   UNL     1      -2.650  10.183  26.471  1.00  0.00     0.005 A 
ATOM     30  C   UNL     1      -0.552   9.921  25.307  1.00  0.00     0.005 A 
ATOM     31  C   UNL     1      -2.219   9.285  27.448  1.00  0.00     0.000 A 
ATOM     32  C   UNL     1      -0.122   9.023  26.285  1.00  0.00     0.000 A 
ATOM     33  C   UNL     1      -0.956   8.704  27.355  1.00  0.00     0.000 A 
ENDBRANCH  27  28
ENDBRANCH  26  27
ENDBRANCH   7  21
TORSDOF 5
ENDMDL
MODEL 3
REMARK VINA RESULT:    -8.975      1.804      2.307
REMARK INTER + INTRA:         -11.762
REMARK INTER:                 -11.100
REMARK INTRA:                  -0.663
REMARK UNBOUND:                -0.164
REMARK SMILES C[C@H]1CN(c2cccc(C(=N)N)c2)C(=O)N(C2CCN(Cc3ccccc3)CC2)C1
REMARK SMILES IDX 1 1 2 2 3 3 4 4 14 5 15 6 16 7 30 8 5 9 6 10 13 11 7 12 9 13
REMARK SMILES IDX 8 14 10 15 11 16 12 17 17 21 18 22 29 23 19 24 28 25 20 26
REMARK SMILES IDX 21 27 22 28 23 29 27 30 24 31 26 32 25 33
REMARK H PARENT 11 18 12 19 12 20
ROOT
ATOM      1  C   UNL     1      -4.628  14.403  24.070  1.00  0.00     0.011 C 
ATOM      2  C   UNL     1      -3.698  13.316  23.543  1.00  0.00     0.025 C 
ATOM      3  C   UNL     1      -3.460  12.234  24.577  1.00  0.00     0.132 C 
ATOM      4  N   UNL     1      -2.567  11.187  24.077  1.00  0.00    -0.294 N 
ATOM      5  C   UNL     1      -2.559  10.839  22.715  1.00  0.00     0.324 C 
ATOM      6  O   UNL     1      -1.799   9.995  22.235  1.00  0.00    -0.248 OA
ATOM      7  N   UNL     1      -3.446  11.527  21.883  1.00  0.00    -0.321 N 
ATOM      8  C   UNL     1      -4.287  12.623  22.336  1.00  0.00     0.126 C 
ENDROOT
BRANCH   4   9
ATOM      9  C   UNL     1      -1.821  10.417  25.050  1.00  0.00     0.046 A 
ATOM     10  C   UNL     1      -0.423  10.300  24.974  1.00  0.00     0.026 A 
ATOM     11  C   UNL     1      -2.462   9.773  26.122  1.00  0.00     0.038 A 
ATOM     12  C   UNL     1       0.308   9.577  25.925  1.00  0.00     0.003 A 
ATOM     13  C   UNL     1      -1.735   9.044  27.076  1.00  0.00     0.018 A 
ATOM     14  C   UNL     1      -0.346   8.950  26.980  1.00  0.00     0.012 A 
BRANCH  13  15
ATOM     15  C   UNL     1      -2.440   8.391  28.212  1.00  0.00     0.122 C 
ATOM     16  N   UNL     1      -1.939   7.378  28.846  1.00  0.00    -0.284 NA
ATOM     17  N   UNL     1      -3.644   8.850  28.632  1.00  0.00    -0.384 N 
ATOM     18  H   UNL     1      -1.056   7.078  28.421  1.00  0.00     0.189 HD
ATOM     19  H   UNL     1      -4.112   9.648  28.229  1.00  0.00     0.158 HD
ATOM     20  H   UNL     1      -4.084   8.355  29.395  1.00  0.00     0.158 HD
ENDBRANCH  13  15
ENDBRANCH   4   9
BRANCH   7  21
ATOM     21  C   UNL     1      -3.518  11.130  20.458  1.00  0.00     0.089 C 
ATOM     22  C   UNL     1      -4.374   9.882  20.204  1.00  0.00     0.041 C 
ATOM     23  C   UNL     1      -3.993  12.292  19.580  1.00  0.00     0.041 C 
ATOM     24  C   UNL     1      -4.401   9.546  18.712  1.00  0.00     0.087 C 
ATOM     25  C   UNL     1      -4.046  11.873  18.111  1.00  0.00     0.087 C 
ATOM     26  N   UNL     1      -4.894  10.689  17.937  1.00  0.00    -0.299 NA
BRANCH  26  27
ATOM     27  C   UNL     1      -5.153  10.365  16.525  1.00  0.00     0.120 C 
BRANCH  27  28
ATOM     28  C   UNL     1      -6.583  10.045  16.143  1.00  0.00    -0.034 A 
ATOM     29  C   UNL     1      -7.631  10.255  17.052  1.00  0.00     0.005 A 
ATOM     30  C   UNL     1      -6.886   9.525  14.876  1.00  0.00     0.005 A 
ATOM     31  C   UNL     1      -8.949   9.963  16.697  1.00  0.00     0.000 A 
ATOM     32  C   UNL     1      -8.205   9.233  14.523  1.00  0.00     0.000 A 
ATOM     33  C   UNL     1      -9.236   9.453  15.433  1.00  0.00     0.000 A 
ENDBRANCH  27  28
ENDBRANCH  26  27
ENDBRANCH   7  21
TORSDOF 5
ENDMDL
MODEL 4
REMARK VINA RESULT:    -8.827      2.097      8.398
REMARK INTER + INTRA:         -11.572
REMARK INTER:                 -11.456
REMARK INTRA:                  -0.116
REMARK UNBOUND:                -0.164
REMARK SMILES C[C@H]1CN(c2cccc(C(=N)N)c2)C(=O)N(C2CCN(Cc3ccccc3)CC2)C1
REMARK SMILES IDX 1 1 2 2 3 3 4 4 14 5 15 6 16 7 30 8 5 9 6 10 13 11 7 12 9 13
REMARK SMILES IDX 8 14 10 15 11 16 12 17 17 21 18 22 29 23 19 24 28 25 20 26
REMARK SMILES IDX 21 27 22 28 23 29 27 30 24 31 26 32 25 33
REMARK H PARENT 11 18 12 19 12 20
ROOT
ATOM      1  C   UNL     1      -3.127  14.183  17.730  1.00  0.00     0.011 C 
ATOM      2  C   UNL     1      -3.552  13.204  18.819  1.00  0.00     0.025 C 
ATOM      3  C   UNL     1      -4.105  11.921  18.233  1.00  0.00     0.132 C 
ATOM      4  N   UNL     1      -4.515  10.977  19.274  1.00  0.00    -0.294 N 
ATOM      5  C   UNL     1      -3.838  10.926  20.506  1.00  0.00     0.324 C 
ATOM      6  O   UNL     1      -4.169  10.181  21.430  1.00  0.00    -0.248 OA
ATOM      7  N   UNL     1      -2.762  11.802  20.671  1.00  0.00    -0.321 N 
ATOM      8  C   UNL     1      -2.382  12.802  19.687  1.00  0.00     0.126 C 
ENDROOT
BRANCH   4   9
ATOM      9  C   UNL     1      -5.523   9.995  18.934  1.00  0.00     0.046 A 
ATOM     10  C   UNL     1      -6.872  10.357  18.774  1.00  0.00     0.026 A 
ATOM     11  C   UNL     1      -5.192   8.645  18.730  1.00  0.00     0.038 A 
ATOM     12  C   UNL     1      -7.848   9.417  18.420  1.00  0.00     0.003 A 
ATOM     13  C   UNL     1      -6.167   7.698  18.379  1.00  0.00     0.018 A 
ATOM     14  C   UNL     1      -7.497   8.087  18.220  1.00  0.00     0.012 A 
BRANCH  13  15
ATOM     15  C   UNL     1      -5.781   6.280  18.147  1.00  0.00     0.122 C 
ATOM     16  N   UNL     1      -6.635   5.385  17.761  1.00  0.00    -0.284 NA
ATOM     17  N   UNL     1      -4.500   5.876  18.328  1.00  0.00    -0.384 N 
ATOM     18  H   UNL     1      -7.579   5.779  17.704  1.00  0.00     0.189 HD
ATOM     19  H   UNL     1      -3.749   6.493  18.600  1.00  0.00     0.158 HD
ATOM     20  H   UNL     1      -4.300   4.897  18.174  1.00  0.00     0.158 HD
ENDBRANCH  13  15
ENDBRANCH   4   9
BRANCH   7  21
ATOM     21  C   UNL     1      -1.980  11.719  21.926  1.00  0.00     0.089 C 
ATOM     22  C   UNL     1      -2.801  12.013  23.189  1.00  0.00     0.041 C 
ATOM     23  C   UNL     1      -1.273  10.365  22.051  1.00  0.00     0.041 C 
ATOM     24  C   UNL     1      -1.924  11.898  24.436  1.00  0.00     0.087 C 
ATOM     25  C   UNL     1      -0.457  10.300  23.342  1.00  0.00     0.087 C 
ATOM     26  N   UNL     1      -1.304  10.571  24.508  1.00  0.00    -0.299 NA
BRANCH  26  27
ATOM     27  C   UNL     1      -0.625  10.316  25.789  1.00  0.00     0.120 C 
BRANCH  27  28
ATOM     28  C   UNL     1      -1.191   9.216  26.661  1.00  0.00    -0.034 A 
ATOM     29  C   UNL     1      -2.339   9.435  27.437  1.00  0.00     0.005 A 
ATOM     30  C   UNL     1      -0.573   7.957  26.716  1.00  0.00     0.005 A 
ATOM     31  C   UNL     1      -2.861   8.419  28.238  1.00  0.00     0.000 A 
ATOM     32  C   UNL     1      -1.097   6.941  27.518  1.00  0.00     0.000 A 
ATOM     33  C   UNL     1      -2.241   7.172  28.278  1.00  0.00     0.000 A 
ENDBRANCH  27  28
ENDBRANCH  26  27
ENDBRANCH   7  21
TORSDOF 5
ENDMDL
MODEL 5
REMARK VINA RESULT:    -8.772      3.419      7.573
REMARK INTER + INTRA:         -11.500
REMARK INTER:                 -11.164
REMARK INTRA:                  -0.337
REMARK UNBOUND:                -0.164
REMARK SMILES C[C@H]1CN(c2cccc(C(=N)N)c2)C(=O)N(C2CCN(Cc3ccccc3)CC2)C1
REMARK SMILES IDX 1 1 2 2 3 3 4 4 14 5 15 6 16 7 30 8 5 9 6 10 13 11 7 12 9 13
REMARK SMILES IDX 8 14 10 15 11 16 12 17 17 21 18 22 29 23 19 24 28 25 20 26
REMARK SMILES IDX 21 27 22 28 23 29 27 30 24 31 26 32 25 33
REMARK H PARENT 11 18 12 19 12 20
ROOT
ATOM      1  C   UNL     1      -3.640  11.760  20.662  1.00  0.00     0.011 C 
ATOM      2  C   UNL     1      -3.684  11.979  22.170  1.00  0.00     0.025 C 
ATOM      3  C   UNL     1      -2.472  11.382  22.857  1.00  0.00     0.132 C 
ATOM      4  N   UNL     1      -2.509  11.589  24.306  1.00  0.00    -0.294 N 
ATOM      5  C   UNL     1      -3.101  12.741  24.853  1.00  0.00     0.324 C 
ATOM      6  O   UNL     1      -3.195  12.945  26.065  1.00  0.00    -0.248 OA
ATOM      7  N   UNL     1      -3.632  13.667  23.950  1.00  0.00    -0.321 N 
ATOM      8  C   UNL     1      -3.680  13.451  22.513  1.00  0.00     0.126 C 
ENDROOT
BRANCH   4   9
ATOM      9  C   UNL     1      -1.774  10.660  25.138  1.00  0.00     0.046 A 
ATOM     10  C   UNL     1      -0.406  10.417  24.932  1.00  0.00     0.026 A 
ATOM     11  C   UNL     1      -2.395   9.978  26.199  1.00  0.00     0.038 A 
ATOM     12  C   UNL     1       0.317   9.538  25.748  1.00  0.00     0.003 A 
ATOM     13  C   UNL     1      -1.676   9.093  27.018  1.00  0.00     0.018 A 
ATOM     14  C   UNL     1      -0.317   8.877  26.795  1.00  0.00     0.012 A 
BRANCH  13  15
ATOM     15  C   UNL     1      -2.356   8.403  28.148  1.00  0.00     0.122 C 
ATOM     16  N   UNL     1      -3.498   8.802  28.614  1.00  0.00    -0.284 NA
ATOM     17  N   UNL     1      -1.797   7.313  28.727  1.00  0.00    -0.384 N 
ATOM     18  H   UNL     1      -3.808   9.658  28.145  1.00  0.00     0.189 HD
ATOM     19  H   UNL     1      -0.926   6.901  28.426  1.00  0.00     0.158 HD
ATOM     20  H   UNL     1      -2.295   6.898  29.503  1.00  0.00     0.158 HD
ENDBRANCH  13  15
ENDBRANCH   4   9
BRANCH   7  21
ATOM     21  C   UNL     1      -4.193  14.926  24.491  1.00  0.00     0.089 C 
ATOM     22  C   UNL     1      -4.460  15.996  23.422  1.00  0.00     0.041 C 
ATOM     23  C   UNL     1      -5.459  14.663  25.312  1.00  0.00     0.041 C 
ATOM     24  C   UNL     1      -5.043  17.256  24.062  1.00  0.00     0.087 C 
ATOM     25  C   UNL     1      -6.017  15.969  25.878  1.00  0.00     0.087 C 
ATOM     26  N   UNL     1      -6.267  16.937  24.804  1.00  0.00    -0.299 NA
BRANCH  26  27
ATOM     27  C   UNL     1      -6.998  18.131  25.259  1.00  0.00     0.120 C 
BRANCH  27  28
ATOM     28  C   UNL     1      -8.439  17.936  25.680  1.00  0.00    -0.034 A 
ATOM     29  C   UNL     1      -9.289  17.086  24.955  1.00  0.00     0.005 A 
ATOM     30  C   UNL     1      -8.956  18.608  26.798  1.00  0.00     0.005 A 
ATOM     31  C   UNL     1     -10.617  16.905  25.346  1.00  0.00     0.000 A 
ATOM     32  C   UNL     1     -10.284  18.426  27.188  1.00  0.00     0.000 A 
ATOM     33  C   UNL     1     -11.114  17.573  26.462  1.00  0.00     0.000 A 
ENDBRANCH  27  28
ENDBRANCH  26  27
ENDBRANCH   7  21
TORSDOF 5
ENDMDL
MODEL 6
REMARK VINA RESULT:    -8.513      3.214      9.738
REMARK INTER + INTRA:         -11.165
REMARK INTER:                 -10.540
REMARK INTRA:                  -0.625
REMARK UNBOUND:                -0.164
REMARK SMILES C[C@H]1CN(c2cccc(C(=N)N)c2)C(=O)N(C2CCN(Cc3ccccc3)CC2)C1
REMARK SMILES IDX 1 1 2 2 3 3 4 4 14 5 15 6 16 7 30 8 5 9 6 10 13 11 7 12 9 13
REMARK SMILES IDX 8 14 10 15 11 16 12 17 17 21 18 22 29 23 19 24 28 25 20 26
REMARK SMILES IDX 21 27 22 28 23 29 27 30 24 31 26 32 25 33
REMARK H PARENT 11 18 12 19 12 20
ROOT
ATOM      1  C   UNL     1      -5.203   7.684  18.465  1.00  0.00     0.011 C 
ATOM      2  C   UNL     1      -4.409   8.983  18.561  1.00  0.00     0.025 C 
ATOM      3  C   UNL     1      -5.086  10.109  17.805  1.00  0.00     0.132 C 
ATOM      4  N   UNL     1      -4.328  11.358  17.894  1.00  0.00    -0.294 N 
ATOM      5  C   UNL     1      -3.579  11.665  19.043  1.00  0.00     0.324 C 
ATOM      6  O   UNL     1      -2.891  12.682  19.153  1.00  0.00    -0.248 OA
ATOM      7  N   UNL     1      -3.609  10.732  20.083  1.00  0.00    -0.321 N 
ATOM      8  C   UNL     1      -4.287   9.450  19.993  1.00  0.00     0.126 C 
ENDROOT
BRANCH   4   9
ATOM      9  C   UNL     1      -4.509  12.332  16.838  1.00  0.00     0.046 A 
ATOM     10  C   UNL     1      -5.791  12.728  16.419  1.00  0.00     0.026 A 
ATOM     11  C   UNL     1      -3.411  12.936  16.202  1.00  0.00     0.038 A 
ATOM     12  C   UNL     1      -5.973  13.687  15.416  1.00  0.00     0.003 A 
ATOM     13  C   UNL     1      -3.588  13.896  15.193  1.00  0.00     0.018 A 
ATOM     14  C   UNL     1      -4.873  14.275  14.803  1.00  0.00     0.012 A 
BRANCH  13  15
ATOM     15  C   UNL     1      -2.406  14.535  14.555  1.00  0.00     0.122 C 
ATOM     16  N   UNL     1      -2.441  15.005  13.347  1.00  0.00    -0.284 NA
ATOM     17  N   UNL     1      -1.238  14.655  15.232  1.00  0.00    -0.384 N 
ATOM     18  H   UNL     1      -3.348  14.819  12.908  1.00  0.00     0.189 HD
ATOM     19  H   UNL     1      -1.107  14.350  16.185  1.00  0.00     0.158 HD
ATOM     20  H   UNL     1      -0.463  15.079  14.741  1.00  0.00     0.158 HD
ENDBRANCH  13  15
ENDBRANCH   4   9
BRANCH   7  21
ATOM     21  C   UNL     1      -2.894  11.062  21.338  1.00  0.00     0.089 C 
ATOM     22  C   UNL     1      -3.759  10.929  22.599  1.00  0.00     0.041 C 
ATOM     23  C   UNL     1      -1.612  10.235  21.479  1.00  0.00     0.041 C 
ATOM     24  C   UNL     1      -2.945  11.278  23.845  1.00  0.00     0.087 C 
ATOM     25  C   UNL     1      -0.876  10.598  22.769  1.00  0.00     0.087 C 
ATOM     26  N   UNL     1      -1.751  10.431  23.934  1.00  0.00    -0.299 NA
BRANCH  26  27
ATOM     27  C   UNL     1      -1.041  10.561  25.216  1.00  0.00     0.120 C 
BRANCH  27  28
ATOM     28  C   UNL     1      -1.332   9.516  26.273  1.00  0.00    -0.034 A 
ATOM     29  C   UNL     1      -0.516   8.383  26.404  1.00  0.00     0.005 A 
ATOM     30  C   UNL     1      -2.429   9.658  27.137  1.00  0.00     0.005 A 
ATOM     31  C   UNL     1      -0.783   7.422  27.381  1.00  0.00     0.000 A 
ATOM     32  C   UNL     1      -2.696   8.697  28.113  1.00  0.00     0.000 A 
ATOM     33  C   UNL     1      -1.872   7.580  28.236  1.00  0.00     0.000 A 
ENDBRANCH  27  28
ENDBRANCH  26  27
ENDBRANCH   7  21
TORSDOF 5
ENDMDL
MODEL 7
REMARK VINA RESULT:    -8.315      2.957      6.116
REMARK INTER + INTRA:         -10.910
REMARK INTER:                 -10.056
REMARK INTRA:                  -0.853
REMARK UNBOUND:                -0.164
REMARK SMILES C[C@H]1CN(c2cccc(C(=N)N)c2)C(=O)N(C2CCN(Cc3ccccc3)CC2)C1
REMARK SMILES IDX 1 1 2 2 3 3 4 4 14 5 15 6 16 7 30 8 5 9 6 10 13 11 7 12 9 13
REMARK SMILES IDX 8 14 10 15 11 16 12 17 17 21 18 22 29 23 19 24 28 25 20 26
REMARK SMILES IDX 21 27 22 28 23 29 27 30 24 31 26 32 25 33
REMARK H PARENT 11 18 12 19 12 20
ROOT
ATOM      1  C   UNL     1      -2.892  11.837  25.772  1.00  0.00     0.011 C 
ATOM      2  C   UNL     1      -3.967  12.480  24.902  1.00  0.00     0.025 C 
ATOM      3  C   UNL     1      -4.040  13.978  25.119  1.00  0.00     0.132 C 
ATOM      4  N   UNL     1      -5.071  14.600  24.286  1.00  0.00    -0.294 N 
ATOM      5  C   UNL     1      -5.380  14.082  23.017  1.00  0.00     0.324 C 
ATOM      6  O   UNL     1      -6.267  14.541  22.294  1.00  0.00    -0.248 OA
ATOM      7  N   UNL     1      -4.652  12.965  22.597  1.00  0.00    -0.321 N 
ATOM      8  C   UNL     1      -3.679  12.280  23.432  1.00  0.00     0.126 C 
ENDROOT
BRANCH   4   9
ATOM      9  C   UNL     1      -5.637  15.854  24.740  1.00  0.00     0.046 A 
ATOM     10  C   UNL     1      -6.544  15.901  25.812  1.00  0.00     0.026 A 
ATOM     11  C   UNL     1      -5.286  17.075  24.141  1.00  0.00     0.038 A 
ATOM     12  C   UNL     1      -7.077  17.112  26.271  1.00  0.00     0.003 A 
ATOM     13  C   UNL     1      -5.819  18.292  24.595  1.00  0.00     0.018 A 
ATOM     14  C   UNL     1      -6.713  18.310  25.666  1.00  0.00     0.012 A 
BRANCH  13  15
ATOM     15  C   UNL     1      -5.411  19.571  23.955  1.00  0.00     0.122 C 
ATOM     16  N   UNL     1      -4.681  20.449  24.569  1.00  0.00    -0.284 NA
ATOM     17  N   UNL     1      -5.788  19.858  22.685  1.00  0.00    -0.384 N 
ATOM     18  H   UNL     1      -4.494  20.162  25.534  1.00  0.00     0.189 HD
ATOM     19  H   UNL     1      -6.332  19.236  22.106  1.00  0.00     0.158 HD
ATOM     20  H   UNL     1      -5.498  20.750  22.309  1.00  0.00     0.158 HD
ENDBRANCH  13  15
ENDBRANCH   4   9
BRANCH   7  21
ATOM     21  C   UNL     1      -4.899  12.442  21.234  1.00  0.00     0.089 C 
ATOM     22  C   UNL     1      -3.623  12.043  20.480  1.00  0.00     0.041 C 
ATOM     23  C   UNL     1      -5.893  11.276  21.258  1.00  0.00     0.041 C 
ATOM     24  C   UNL     1      -3.968  11.508  19.090  1.00  0.00     0.087 C 
ATOM     25  C   UNL     1      -6.152  10.758  19.844  1.00  0.00     0.087 C 
ATOM     26  N   UNL     1      -4.895  10.377  19.190  1.00  0.00    -0.299 NA
BRANCH  26  27
ATOM     27  C   UNL     1      -5.097   9.676  17.911  1.00  0.00     0.120 C 
BRANCH  27  28
ATOM     28  C   UNL     1      -5.578   8.242  17.980  1.00  0.00    -0.034 A 
ATOM     29  C   UNL     1      -4.725   7.221  18.426  1.00  0.00     0.005 A 
ATOM     30  C   UNL     1      -6.884   7.906  17.592  1.00  0.00     0.005 A 
ATOM     31  C   UNL     1      -5.170   5.900  18.492  1.00  0.00     0.000 A 
ATOM     32  C   UNL     1      -7.328   6.584  17.659  1.00  0.00     0.000 A 
ATOM     33  C   UNL     1      -6.471   5.582  18.110  1.00  0.00     0.000 A 
ENDBRANCH  27  28
ENDBRANCH  26  27
ENDBRANCH   7  21
TORSDOF 5
ENDMDL
MODEL 8
REMARK VINA RESULT:    -8.269      2.694      3.539
REMARK INTER + INTRA:         -10.850
REMARK INTER:                 -10.142
REMARK INTRA:                  -0.709
REMARK UNBOUND:                -0.164
REMARK SMILES C[C@H]1CN(c2cccc(C(=N)N)c2)C(=O)N(C2CCN(Cc3ccccc3)CC2)C1
REMARK SMILES IDX 1 1 2 2 3 3 4 4 14 5 15 6 16 7 30 8 5 9 6 10 13 11 7 12 9 13
REMARK SMILES IDX 8 14 10 15 11 16 12 17 17 21 18 22 29 23 19 24 28 25 20 26
REMARK SMILES IDX 21 27 22 28 23 29 27 30 24 31 26 32 25 33
REMARK H PARENT 11 18 12 19 12 20
ROOT
ATOM      1  C   UNL     1      -4.570  15.247  25.664  1.00  0.00     0.011 C 
ATOM      2  C   UNL     1      -4.084  14.095  24.790  1.00  0.00     0.025 C 
ATOM      3  C   UNL     1      -3.654  12.904  25.623  1.00  0.00     0.132 C 
ATOM      4  N   UNL     1      -3.186  11.796  24.790  1.00  0.00    -0.294 N 
ATOM      5  C   UNL     1      -3.737  11.570  23.517  1.00  0.00     0.324 C 
ATOM      6  O   UNL     1      -3.351  10.678  22.758  1.00  0.00    -0.248 OA
ATOM      7  N   UNL     1      -4.749  12.442  23.104  1.00  0.00    -0.321 N 
ATOM      8  C   UNL     1      -5.178  13.597  23.875  1.00  0.00     0.126 C 
ENDROOT
BRANCH   4   9
ATOM      9  C   UNL     1      -2.265  10.849  25.383  1.00  0.00     0.046 A 
ATOM     10  C   UNL     1      -0.927  10.768  24.961  1.00  0.00     0.026 A 
ATOM     11  C   UNL     1      -2.664   9.989  26.421  1.00  0.00     0.038 A 
ATOM     12  C   UNL     1      -0.024   9.872  25.547  1.00  0.00     0.003 A 
ATOM     13  C   UNL     1      -1.764   9.087  27.009  1.00  0.00     0.018 A 
ATOM     14  C   UNL     1      -0.440   9.032  26.574  1.00  0.00     0.012 A 
BRANCH  13  15
ATOM     15  C   UNL     1      -2.211   8.205  28.121  1.00  0.00     0.122 C 
ATOM     16  N   UNL     1      -1.574   7.123  28.444  1.00  0.00    -0.284 NA
ATOM     17  N   UNL     1      -3.312   8.515  28.847  1.00  0.00    -0.384 N 
ATOM     18  H   UNL     1      -0.792   6.953  27.805  1.00  0.00     0.189 HD
ATOM     19  H   UNL     1      -3.866   9.346  28.701  1.00  0.00     0.158 HD
ATOM     20  H   UNL     1      -3.579   7.870  29.577  1.00  0.00     0.158 HD
ENDBRANCH  13  15
ENDBRANCH   4   9
BRANCH   7  21
ATOM     21  C   UNL     1      -5.404  12.185  21.801  1.00  0.00     0.089 C 
ATOM     22  C   UNL     1      -6.377  10.998  21.818  1.00  0.00     0.041 C 
ATOM     23  C   UNL     1      -6.103  13.442  21.273  1.00  0.00     0.041 C 
ATOM     24  C   UNL     1      -7.012  10.807  20.441  1.00  0.00     0.087 C 
ATOM     25  C   UNL     1      -6.759  13.166  19.920  1.00  0.00     0.087 C 
ATOM     26  N   UNL     1      -7.689  12.035  20.012  1.00  0.00    -0.299 NA
BRANCH  26  27
ATOM     27  C   UNL     1      -8.505  11.856  18.801  1.00  0.00     0.120 C 
BRANCH  27  28
ATOM     28  C   UNL     1      -9.980  11.578  19.000  1.00  0.00    -0.034 A 
ATOM     29  C   UNL     1     -10.835  11.424  17.898  1.00  0.00     0.005 A 
ATOM     30  C   UNL     1     -10.522  11.477  20.290  1.00  0.00     0.005 A 
ATOM     31  C   UNL     1     -12.194  11.164  18.083  1.00  0.00     0.000 A 
ATOM     32  C   UNL     1     -11.881  11.217  20.474  1.00  0.00     0.000 A 
ATOM     33  C   UNL     1     -12.717  11.059  19.370  1.00  0.00     0.000 A 
ENDBRANCH  27  28
ENDBRANCH  26  27
ENDBRANCH   7  21
TORSDOF 5
ENDMDL
MODEL 9
REMARK VINA RESULT:    -8.197      3.421      9.102
REMARK INTER + INTRA:         -10.757
REMARK INTER:                 -10.365
REMARK INTRA:                  -0.392
REMARK UNBOUND:                -0.164
REMARK SMILES C[C@H]1CN(c2cccc(C(=N)N)c2)C(=O)N(C2CCN(Cc3ccccc3)CC2)C1
REMARK SMILES IDX 1 1 2 2 3 3 4 4 14 5 15 6 16 7 30 8 5 9 6 10 13 11 7 12 9 13
REMARK SMILES IDX 8 14 10 15 11 16 12 17 17 21 18 22 29 23 19 24 28 25 20 26
REMARK SMILES IDX 21 27 22 28 23 29 27 30 24 31 26 32 25 33
REMARK H PARENT 11 18 12 19 12 20
ROOT
ATOM      1  C   UNL     1      -0.395  11.872  21.633  1.00  0.00     0.011 C 
ATOM      2  C   UNL     1      -1.892  11.955  21.354  1.00  0.00     0.025 C 
ATOM      3  C   UNL     1      -2.396  10.722  20.631  1.00  0.00     0.132 C 
ATOM      4  N   UNL     1      -3.833  10.797  20.361  1.00  0.00    -0.294 N 
ATOM      5  C   UNL     1      -4.697  11.467  21.244  1.00  0.00     0.324 C 
ATOM      6  O   UNL     1      -5.906  11.595  21.043  1.00  0.00    -0.248 OA
ATOM      7  N   UNL     1      -4.118  12.037  22.382  1.00  0.00    -0.321 N 
ATOM      8  C   UNL     1      -2.687  12.047  22.636  1.00  0.00     0.126 C 
ENDROOT
BRANCH   4   9
ATOM      9  C   UNL     1      -4.351  10.023  19.252  1.00  0.00     0.046 A 
ATOM     10  C   UNL     1      -4.457  10.572  17.963  1.00  0.00     0.026 A 
ATOM     11  C   UNL     1      -4.747   8.684  19.415  1.00  0.00     0.038 A 
ATOM     12  C   UNL     1      -4.934   9.821  16.881  1.00  0.00     0.003 A 
ATOM     13  C   UNL     1      -5.230   7.929  18.335  1.00  0.00     0.018 A 
ATOM     14  C   UNL     1      -5.318   8.497  17.065  1.00  0.00     0.012 A 
BRANCH  13  15
ATOM     15  C   UNL     1      -5.621   6.507  18.535  1.00  0.00     0.122 C 
ATOM     16  N   UNL     1      -4.784   5.531  18.373  1.00  0.00    -0.284 NA
ATOM     17  N   UNL     1      -6.883   6.185  18.907  1.00  0.00    -0.384 N 
ATOM     18  H   UNL     1      -3.877   5.874  18.044  1.00  0.00     0.189 HD
ATOM     19  H   UNL     1      -7.607   6.866  19.088  1.00  0.00     0.158 HD
ATOM     20  H   UNL     1      -7.097   5.203  19.009  1.00  0.00     0.158 HD
ENDBRANCH  13  15
ENDBRANCH   4   9
BRANCH   7  21
ATOM     21  C   UNL     1      -5.012  12.683  23.371  1.00  0.00     0.089 C 
ATOM     22  C   UNL     1      -4.312  13.068  24.681  1.00  0.00     0.041 C 
ATOM     23  C   UNL     1      -5.722  13.899  22.767  1.00  0.00     0.041 C 
ATOM     24  C   UNL     1      -5.300  13.733  25.640  1.00  0.00     0.087 C 
ATOM     25  C   UNL     1      -6.653  14.544  23.793  1.00  0.00     0.087 C 
ATOM     26  N   UNL     1      -5.918  14.904  25.010  1.00  0.00    -0.299 NA
BRANCH  26  27
ATOM     27  C   UNL     1      -6.711  15.716  25.947  1.00  0.00     0.120 C 
BRANCH  27  28
ATOM     28  C   UNL     1      -6.618  17.221  25.803  1.00  0.00    -0.034 A 
ATOM     29  C   UNL     1      -6.138  17.798  24.618  1.00  0.00     0.005 A 
ATOM     30  C   UNL     1      -7.001  18.066  26.855  1.00  0.00     0.005 A 
ATOM     31  C   UNL     1      -6.055  19.185  24.485  1.00  0.00     0.000 A 
ATOM     32  C   UNL     1      -6.918  19.453  26.721  1.00  0.00     0.000 A 
ATOM     33  C   UNL     1      -6.446  20.012  25.535  1.00  0.00     0.000 A 
ENDBRANCH  27  28
ENDBRANCH  26  27
ENDBRANCH   7  21
TORSDOF 5
ENDMDL
