REMARK SMILES COc1ccc(-c2cc3c(C)nc(N)nc3n([C@H]3CC[C@H](OCCO)CC3)c2=O)cn1
REMARK SMILES IDX 18 1 19 2 20 3 21 4 26 5 27 6 17 7 7 8 8 9 28 10 9 11 29 12
REMARK SMILES IDX 10 13 16 14 12 15 15 16 13 17 11 18 6 19 3 20 4 21 31 22
REMARK SMILES IDX 5 23 30 24 2 25 1 26 14 27 22 30 23 31 24 32 25 33
REMARK H PARENT 14 28 14 29 25 34
REMARK INDEX MAP 18 1 19 2 20 3 21 4 26 5 27 6 17 7 7 8 8 9 28 10 9 11 29 12
REMARK INDEX MAP 10 13 16 14 12 15 15 16 13 17 11 18 6 19 3 20 4 21 31 22 5 23
REMARK INDEX MAP 30 24 2 25 1 26 14 27 41 28 42 29 22 30 23 31 24 32 25 33
REMARK INDEX MAP 53 34
ROOT
ATOM      1  C   UNL     1      50.002  -1.876 -43.526  1.00  0.00     0.092 C 
ATOM      2  C   UNL     1      49.797  -3.373 -43.826  1.00  0.00     0.028 C 
ATOM      3  C   UNL     1      48.928  -4.036 -42.762  1.00  0.00     0.034 C 
ATOM      4  C   UNL     1      47.582  -3.324 -42.592  1.00  0.00     0.118 C 
ATOM      5  C   UNL     1      47.794  -1.839 -42.280  1.00  0.00     0.034 C 
ATOM      6  C   UNL     1      48.658  -1.150 -43.335  1.00  0.00     0.028 C 
ENDROOT
BRANCH   1   7
ATOM      7  N   UNL     1      50.864  -1.212 -44.530  1.00  0.00    -0.289 N 
ATOM      8  C   UNL     1      51.359  -0.433 -46.833  1.00  0.00     0.050 A 
ATOM      9  C   UNL     1      52.538   0.053 -46.417  1.00  0.00     0.028 A 
ATOM     10  C   UNL     1      50.435  -1.095 -45.849  1.00  0.00     0.260 A 
ATOM     11  C   UNL     1      52.952  -0.073 -45.025  1.00  0.00     0.040 A 
ATOM     12  O   UNL     1      49.345  -1.505 -46.244  1.00  0.00    -0.269 OA
ATOM     13  C   UNL     1      54.160   0.402 -44.527  1.00  0.00     0.052 A 
ATOM     14  C   UNL     1      52.126  -0.698 -44.103  1.00  0.00     0.148 A 
ATOM     15  N   UNL     1      54.510   0.265 -43.231  1.00  0.00    -0.218 NA
ATOM     16  N   UNL     1      52.473  -0.837 -42.807  1.00  0.00    -0.195 NA
ATOM     17  C   UNL     1      53.650  -0.351 -42.423  1.00  0.00     0.222 A 
ATOM     18  C   UNL     1      55.169   1.104 -45.390  1.00  0.00     0.067 C 
BRANCH   8  19
ATOM     19  C   UNL     1      50.973  -0.278 -48.250  1.00  0.00     0.006 A 
ATOM     20  C   UNL     1      50.343   0.018 -50.914  1.00  0.00     0.212 A 
ATOM     21  C   UNL     1      49.359  -0.425 -50.046  1.00  0.00     0.069 A 
ATOM     22  N   UNL     1      51.600   0.317 -50.527  1.00  0.00    -0.221 NA
ATOM     23  C   UNL     1      49.680  -0.574 -48.698  1.00  0.00     0.016 A 
ATOM     24  C   UNL     1      51.880   0.174 -49.208  1.00  0.00     0.124 A 
BRANCH  20  25
ATOM     25  O   UNL     1      49.978   0.144 -52.240  1.00  0.00    -0.481 OA
ATOM     26  C   UNL     1      49.856  -1.109 -52.903  1.00  0.00     0.280 C 
ENDBRANCH  20  25
ENDBRANCH   8  19
BRANCH  17  27
ATOM     27  N   UNL     1      54.001  -0.492 -41.116  1.00  0.00    -0.368 N 
ATOM     28  H   UNL     1      53.362  -0.963 -40.459  1.00  0.00     0.159 HD
ATOM     29  H   UNL     1      54.905  -0.128 -40.783  1.00  0.00     0.159 HD
ENDBRANCH  17  27
ENDBRANCH   1   7
BRANCH   4  30
ATOM     30  O   UNL     1      46.900  -3.981 -41.518  1.00  0.00    -0.376 OA
BRANCH  30  31
ATOM     31  C   UNL     1      47.741  -4.253 -40.389  1.00  0.00     0.188 C 
BRANCH  31  32
ATOM     32  C   UNL     1      46.889  -4.954 -39.334  1.00  0.00     0.184 C 
BRANCH  32  33
ATOM     33  O   UNL     1      46.997  -4.261 -38.091  1.00  0.00    -0.394 OA
ATOM     34  H   UNL     1      46.897  -4.904 -37.345  1.00  0.00     0.210 HD
ENDBRANCH  32  33
ENDBRANCH  31  32
ENDBRANCH  30  31
ENDBRANCH   4  30
TORSDOF 8
