MODEL 6
REMARK VINA RESULT:    -6.730      2.895      6.076
REMARK INTER + INTRA:         -10.684
REMARK INTER:                  -8.698
REMARK INTRA:                  -1.986
REMARK UNBOUND:                -1.594
REMARK SMILES C[C@@H](Nc1ncnc2sc(-c3ccccc3)c(-c3cccc(O)c3)c12)C(=O)O
REMARK SMILES IDX 3 1 2 3 1 4 26 5 27 6 28 7 4 9 5 10 25 11 6 12 17 13 8 14
REMARK SMILES IDX 7 15 10 16 9 17 18 18 19 19 24 20 20 21 22 22 21 23 23 24
REMARK SMILES IDX 11 26 12 27 16 28 13 29 15 30 14 31
REMARK H PARENT 3 2 28 8 23 25
ROOT
ATOM      1  N   UNL     1     -14.385   2.392  23.261  1.00  0.00    -0.357 N 
ATOM      2  H   UNL     1     -15.313   2.778  23.098  1.00  0.00     0.163 HD
ENDROOT
BRANCH   1   3
ATOM      3  C   UNL     1     -13.661   2.183  21.990  1.00  0.00     0.187 C 
ATOM      4  C   UNL     1     -14.595   2.265  20.786  1.00  0.00     0.043 C 
BRANCH   3   5
ATOM      5  C   UNL     1     -12.757   0.943  22.022  1.00  0.00     0.325 C 
ATOM      6  O   UNL     1     -13.109  -0.211  21.813  1.00  0.00    -0.250 OA
BRANCH   5   7
ATOM      7  O   UNL     1     -11.489   1.188  22.414  1.00  0.00    -0.480 OA
ATOM      8  H   UNL     1     -11.230   1.964  21.876  1.00  0.00     0.296 HD
ENDBRANCH   5   7
ENDBRANCH   3   5
ENDBRANCH   1   3
BRANCH   1   9
ATOM      9  C   UNL     1     -13.752   3.112  24.280  1.00  0.00     0.139 A 
ATOM     10  N   UNL     1     -12.778   2.516  25.004  1.00  0.00    -0.219 NA
ATOM     11  C   UNL     1     -14.097   4.451  24.594  1.00  0.00     0.062 A 
ATOM     12  C   UNL     1     -12.163   3.207  25.975  1.00  0.00     0.225 A 
ATOM     13  C   UNL     1     -15.073   5.391  24.073  1.00  0.00     0.014 A 
ATOM     14  C   UNL     1     -13.367   5.037  25.616  1.00  0.00     0.130 A 
ATOM     15  N   UNL     1     -12.391   4.465  26.342  1.00  0.00    -0.225 NA
ATOM     16  C   UNL     1     -15.011   6.628  24.703  1.00  0.00     0.045 A 
ATOM     17  S   UNL     1     -13.810   6.646  25.926  1.00  0.00    -0.115 S 
BRANCH  13  18
ATOM     18  C   UNL     1     -16.039   5.136  23.007  1.00  0.00    -0.012 A 
ATOM     19  C   UNL     1     -17.138   4.296  23.235  1.00  0.00     0.009 A 
ATOM     20  C   UNL     1     -15.880   5.753  21.760  1.00  0.00     0.055 A 
ATOM     21  C   UNL     1     -18.068   4.070  22.218  1.00  0.00     0.004 A 
ATOM     22  C   UNL     1     -16.817   5.521  20.758  1.00  0.00     0.116 A 
ATOM     23  C   UNL     1     -17.905   4.684  20.977  1.00  0.00     0.046 A 
BRANCH  22  24
ATOM     24  O   UNL     1     -16.706   6.110  19.533  1.00  0.00    -0.508 OA
ATOM     25  H   UNL     1     -15.764   6.218  19.323  1.00  0.00     0.293 HD
ENDBRANCH  22  24
ENDBRANCH  13  18
BRANCH  16  26
ATOM     26  C   UNL     1     -15.809   7.842  24.495  1.00  0.00    -0.008 A 
ATOM     27  C   UNL     1     -15.297   8.918  23.755  1.00  0.00     0.009 A 
ATOM     28  C   UNL     1     -17.105   7.938  25.020  1.00  0.00     0.009 A 
ATOM     29  C   UNL     1     -16.065  10.065  23.546  1.00  0.00     0.001 A 
ATOM     30  C   UNL     1     -17.874   9.085  24.810  1.00  0.00     0.001 A 
ATOM     31  C   UNL     1     -17.353  10.148  24.073  1.00  0.00     0.000 A 
ENDBRANCH  16  26
ENDBRANCH   1   9
TORSDOF 7
ENDMDL
