MODEL 1
REMARK VINA RESULT:    -7.873      0.000      0.000
REMARK INTER + INTRA:         -11.221
REMARK INTER:                 -11.095
REMARK INTRA:                  -0.126
REMARK UNBOUND:                -0.126
REMARK SMILES COc1ccc(-c2cc3c(C)nc(N)nc3n([C@H]3CC[C@H](OCCO)CC3)c2=O)cn1
REMARK SMILES IDX 18 1 27 2 26 3 21 4 20 5 19 6 17 7 7 8 8 9 28 10 9 11 29 12
REMARK SMILES IDX 10 13 16 14 12 15 15 16 13 17 11 18 6 19 3 20 4 21 31 22
REMARK SMILES IDX 5 23 30 24 2 25 1 26 14 27 22 30 23 31 24 32 25 33
REMARK H PARENT 14 28 14 29 25 34
ROOT
ATOM      1  C   UNL     1      31.611  46.148  40.614  1.00  0.00     0.092 C 
ATOM      2  C   UNL     1      31.637  47.110  39.412  1.00  0.00     0.028 C 
ATOM      3  C   UNL     1      30.864  46.543  38.223  1.00  0.00     0.034 C 
ATOM      4  C   UNL     1      31.360  45.148  37.828  1.00  0.00     0.118 C 
ATOM      5  C   UNL     1      31.312  44.198  39.029  1.00  0.00     0.034 C 
ATOM      6  C   UNL     1      32.096  44.740  40.220  1.00  0.00     0.028 C 
ENDROOT
BRANCH   1   7
ATOM      7  N   UNL     1      32.338  46.688  41.786  1.00  0.00    -0.289 N 
ATOM      8  C   UNL     1      34.353  47.638  42.876  1.00  0.00     0.050 A 
ATOM      9  C   UNL     1      33.693  47.706  44.042  1.00  0.00     0.028 A 
ATOM     10  C   UNL     1      33.654  47.120  41.651  1.00  0.00     0.260 A 
ATOM     11  C   UNL     1      32.309  47.259  44.147  1.00  0.00     0.040 A 
ATOM     12  O   UNL     1      34.268  47.095  40.585  1.00  0.00    -0.269 OA
ATOM     13  C   UNL     1      31.566  47.296  45.321  1.00  0.00     0.052 A 
ATOM     14  C   UNL     1      31.649  46.757  43.034  1.00  0.00     0.148 A 
ATOM     15  N   UNL     1      30.287  46.871  45.381  1.00  0.00    -0.218 NA
ATOM     16  N   UNL     1      30.371  46.332  43.090  1.00  0.00    -0.195 NA
ATOM     17  C   UNL     1      29.741  46.405  44.260  1.00  0.00     0.222 A 
ATOM     18  C   UNL     1      32.129  47.809  46.616  1.00  0.00     0.067 C 
BRANCH   8  19
ATOM     19  C   UNL     1      35.752  48.107  42.810  1.00  0.00     0.006 A 
ATOM     20  C   UNL     1      38.339  49.047  42.751  1.00  0.00     0.212 A 
ATOM     21  C   UNL     1      38.063  47.829  42.153  1.00  0.00     0.069 A 
ATOM     22  N   UNL     1      37.408  49.806  43.363  1.00  0.00    -0.221 NA
ATOM     23  C   UNL     1      36.753  47.355  42.184  1.00  0.00     0.016 A 
ATOM     24  C   UNL     1      36.139  49.326  43.367  1.00  0.00     0.124 A 
BRANCH  20  25
ATOM     25  O   UNL     1      39.653  49.470  42.698  1.00  0.00    -0.481 OA
ATOM     26  C   UNL     1      40.511  48.725  43.554  1.00  0.00     0.280 C 
ENDBRANCH  20  25
ENDBRANCH   8  19
BRANCH  17  27
ATOM     27  N   UNL     1      28.452  45.975  44.316  1.00  0.00    -0.368 N 
ATOM     28  H   UNL     1      27.748  46.531  43.861  1.00  0.00     0.159 HD
ATOM     29  H   UNL     1      28.252  45.124  44.812  1.00  0.00     0.159 HD
ENDBRANCH  17  27
ENDBRANCH   1   7
BRANCH   4  30
ATOM     30  O   UNL     1      30.527  44.575  36.815  1.00  0.00    -0.376 OA
BRANCH  30  31
ATOM     31  C   UNL     1      30.347  43.160  36.957  1.00  0.00     0.188 C 
BRANCH  31  32
ATOM     32  C   UNL     1      30.358  42.548  35.559  1.00  0.00     0.184 C 
BRANCH  32  33
ATOM     33  O   UNL     1      30.669  41.158  35.644  1.00  0.00    -0.394 OA
ATOM     34  H   UNL     1      30.043  40.799  36.304  1.00  0.00     0.210 HD
ENDBRANCH  32  33
ENDBRANCH  31  32
ENDBRANCH  30  31
ENDBRANCH   4  30
TORSDOF 8
ENDMDL
MODEL 2
REMARK VINA RESULT:    -7.500      1.673      7.749
REMARK INTER + INTRA:         -10.695
REMARK INTER:                 -10.514
REMARK INTRA:                  -0.181
REMARK UNBOUND:                -0.126
REMARK SMILES COc1ccc(-c2cc3c(C)nc(N)nc3n([C@H]3CC[C@H](OCCO)CC3)c2=O)cn1
REMARK SMILES IDX 18 1 27 2 26 3 21 4 20 5 19 6 17 7 7 8 8 9 28 10 9 11 29 12
REMARK SMILES IDX 10 13 16 14 12 15 15 16 13 17 11 18 6 19 3 20 4 21 31 22
REMARK SMILES IDX 5 23 30 24 2 25 1 26 14 27 22 30 23 31 24 32 25 33
REMARK H PARENT 14 28 14 29 25 34
ROOT
ATOM      1  C   UNL     1      34.004  47.948  43.671  1.00  0.00     0.092 C 
ATOM      2  C   UNL     1      35.316  47.288  43.212  1.00  0.00     0.028 C 
ATOM      3  C   UNL     1      36.534  48.102  43.643  1.00  0.00     0.034 C 
ATOM      4  C   UNL     1      36.449  49.557  43.167  1.00  0.00     0.118 C 
ATOM      5  C   UNL     1      35.146  50.205  43.646  1.00  0.00     0.034 C 
ATOM      6  C   UNL     1      33.918  49.415  43.208  1.00  0.00     0.028 C 
ENDROOT
BRANCH   1   7
ATOM      7  N   UNL     1      32.810  47.162  43.282  1.00  0.00    -0.289 N 
ATOM      8  C   UNL     1      31.434  45.927  41.628  1.00  0.00     0.050 A 
ATOM      9  C   UNL     1      30.518  45.675  42.575  1.00  0.00     0.028 A 
ATOM     10  C   UNL     1      32.675  46.700  41.977  1.00  0.00     0.260 A 
ATOM     11  C   UNL     1      30.696  46.161  43.938  1.00  0.00     0.040 A 
ATOM     12  O   UNL     1      33.518  46.893  41.101  1.00  0.00    -0.269 OA
ATOM     13  C   UNL     1      29.788  45.941  44.968  1.00  0.00     0.052 A 
ATOM     14  C   UNL     1      31.824  46.894  44.279  1.00  0.00     0.148 A 
ATOM     15  N   UNL     1      29.985  46.410  46.217  1.00  0.00    -0.218 NA
ATOM     16  N   UNL     1      32.024  47.364  45.527  1.00  0.00    -0.195 NA
ATOM     17  C   UNL     1      31.097  47.104  46.445  1.00  0.00     0.222 A 
ATOM     18  C   UNL     1      28.516  45.167  44.769  1.00  0.00     0.067 C 
BRANCH   8  19
ATOM     19  C   UNL     1      31.221  45.410  40.261  1.00  0.00     0.006 A 
ATOM     20  C   UNL     1      30.859  44.526  37.679  1.00  0.00     0.212 A 
ATOM     21  C   UNL     1      30.743  43.613  38.714  1.00  0.00     0.069 A 
ATOM     22  N   UNL     1      31.139  45.833  37.864  1.00  0.00    -0.221 NA
ATOM     23  C   UNL     1      30.926  44.063  40.021  1.00  0.00     0.016 A 
ATOM     24  C   UNL     1      31.299  46.244  39.146  1.00  0.00     0.124 A 
BRANCH  20  25
ATOM     25  O   UNL     1      30.674  44.031  36.404  1.00  0.00    -0.481 OA
ATOM     26  C   UNL     1      30.270  42.666  36.391  1.00  0.00     0.280 C 
ENDBRANCH  20  25
ENDBRANCH   8  19
BRANCH  17  27
ATOM     27  N   UNL     1      31.299  47.579  47.705  1.00  0.00    -0.368 N 
ATOM     28  H   UNL     1      30.940  47.042  48.475  1.00  0.00     0.159 HD
ATOM     29  H   UNL     1      31.794  48.446  47.816  1.00  0.00     0.159 HD
ENDBRANCH  17  27
ENDBRANCH   1   7
BRANCH   4  30
ATOM     30  O   UNL     1      37.522  50.336  43.707  1.00  0.00    -0.376 OA
BRANCH  30  31
ATOM     31  C   UNL     1      38.417  50.845  42.709  1.00  0.00     0.188 C 
BRANCH  31  32
ATOM     32  C   UNL     1      39.836  50.469  43.125  1.00  0.00     0.184 C 
BRANCH  32  33
ATOM     33  O   UNL     1      39.806  49.296  43.937  1.00  0.00    -0.394 OA
ATOM     34  H   UNL     1      38.897  49.260  44.296  1.00  0.00     0.210 HD
ENDBRANCH  32  33
ENDBRANCH  31  32
ENDBRANCH  30  31
ENDBRANCH   4  30
TORSDOF 8
ENDMDL
MODEL 3
REMARK VINA RESULT:    -7.343      2.941      8.365
REMARK INTER + INTRA:         -10.474
REMARK INTER:                 -10.515
REMARK INTRA:                   0.041
REMARK UNBOUND:                -0.126
REMARK SMILES COc1ccc(-c2cc3c(C)nc(N)nc3n([C@H]3CC[C@H](OCCO)CC3)c2=O)cn1
REMARK SMILES IDX 18 1 27 2 26 3 21 4 20 5 19 6 17 7 7 8 8 9 28 10 9 11 29 12
REMARK SMILES IDX 10 13 16 14 12 15 15 16 13 17 11 18 6 19 3 20 4 21 31 22
REMARK SMILES IDX 5 23 30 24 2 25 1 26 14 27 22 30 23 31 24 32 25 33
REMARK H PARENT 14 28 14 29 25 34
ROOT
ATOM      1  C   UNL     1      35.846  47.579  40.032  1.00  0.00     0.092 C 
ATOM      2  C   UNL     1      35.867  49.038  40.523  1.00  0.00     0.028 C 
ATOM      3  C   UNL     1      37.282  49.612  40.510  1.00  0.00     0.034 C 
ATOM      4  C   UNL     1      38.262  48.744  41.307  1.00  0.00     0.118 C 
ATOM      5  C   UNL     1      38.241  47.300  40.796  1.00  0.00     0.034 C 
ATOM      6  C   UNL     1      36.838  46.703  40.820  1.00  0.00     0.028 C 
ENDROOT
BRANCH   1   7
ATOM      7  N   UNL     1      34.479  47.009  40.017  1.00  0.00    -0.289 N 
ATOM      8  C   UNL     1      32.400  46.250  41.139  1.00  0.00     0.050 A 
ATOM      9  C   UNL     1      31.879  45.912  39.950  1.00  0.00     0.028 A 
ATOM     10  C   UNL     1      33.774  46.855  41.207  1.00  0.00     0.260 A 
ATOM     11  C   UNL     1      32.637  46.099  38.718  1.00  0.00     0.040 A 
ATOM     12  O   UNL     1      34.220  47.187  42.305  1.00  0.00    -0.269 OA
ATOM     13  C   UNL     1      32.163  45.768  37.454  1.00  0.00     0.052 A 
ATOM     14  C   UNL     1      33.916  46.636  38.759  1.00  0.00     0.148 A 
ATOM     15  N   UNL     1      32.896  45.953  36.337  1.00  0.00    -0.218 NA
ATOM     16  N   UNL     1      34.651  46.823  37.644  1.00  0.00    -0.195 NA
ATOM     17  C   UNL     1      34.113  46.474  36.478  1.00  0.00     0.222 A 
ATOM     18  C   UNL     1      30.801  45.176  37.234  1.00  0.00     0.067 C 
BRANCH   8  19
ATOM     19  C   UNL     1      31.596  46.051  42.362  1.00  0.00     0.006 A 
ATOM     20  C   UNL     1      30.127  45.765  44.672  1.00  0.00     0.212 A 
ATOM     21  C   UNL     1      29.891  44.891  43.624  1.00  0.00     0.069 A 
ATOM     22  N   UNL     1      31.043  46.754  44.628  1.00  0.00    -0.221 NA
ATOM     23  C   UNL     1      30.636  45.038  42.456  1.00  0.00     0.016 A 
ATOM     24  C   UNL     1      31.761  46.865  43.483  1.00  0.00     0.124 A 
BRANCH  20  25
ATOM     25  O   UNL     1      29.360  45.582  45.806  1.00  0.00    -0.481 OA
ATOM     26  C   UNL     1      29.159  44.209  46.124  1.00  0.00     0.280 C 
ENDBRANCH  20  25
ENDBRANCH   8  19
BRANCH  17  27
ATOM     27  N   UNL     1      34.855  46.662  35.353  1.00  0.00    -0.368 N 
ATOM     28  H   UNL     1      35.062  47.606  35.076  1.00  0.00     0.159 HD
ATOM     29  H   UNL     1      35.162  45.853  34.842  1.00  0.00     0.159 HD
ENDBRANCH  17  27
ENDBRANCH   1   7
BRANCH   4  30
ATOM     30  O   UNL     1      39.605  49.217  41.157  1.00  0.00    -0.376 OA
BRANCH  30  31
ATOM     31  C   UNL     1      40.558  48.484  41.938  1.00  0.00     0.188 C 
BRANCH  31  32
ATOM     32  C   UNL     1      40.906  49.331  43.159  1.00  0.00     0.184 C 
BRANCH  32  33
ATOM     33  O   UNL     1      40.557  48.626  44.350  1.00  0.00    -0.394 OA
ATOM     34  H   UNL     1      40.186  49.305  44.947  1.00  0.00     0.210 HD
ENDBRANCH  32  33
ENDBRANCH  31  32
ENDBRANCH  30  31
ENDBRANCH   4  30
TORSDOF 8
ENDMDL
MODEL 4
REMARK VINA RESULT:    -7.083      2.956      8.181
REMARK INTER + INTRA:         -10.108
REMARK INTER:                 -10.019
REMARK INTRA:                  -0.089
REMARK UNBOUND:                -0.126
REMARK SMILES COc1ccc(-c2cc3c(C)nc(N)nc3n([C@H]3CC[C@H](OCCO)CC3)c2=O)cn1
REMARK SMILES IDX 18 1 27 2 26 3 21 4 20 5 19 6 17 7 7 8 8 9 28 10 9 11 29 12
REMARK SMILES IDX 10 13 16 14 12 15 15 16 13 17 11 18 6 19 3 20 4 21 31 22
REMARK SMILES IDX 5 23 30 24 2 25 1 26 14 27 22 30 23 31 24 32 25 33
REMARK H PARENT 14 28 14 29 25 34
ROOT
ATOM      1  C   UNL     1      35.759  47.585  40.190  1.00  0.00     0.092 C 
ATOM      2  C   UNL     1      35.774  48.986  40.826  1.00  0.00     0.028 C 
ATOM      3  C   UNL     1      37.182  49.580  40.842  1.00  0.00     0.034 C 
ATOM      4  C   UNL     1      38.189  48.649  41.526  1.00  0.00     0.118 C 
ATOM      5  C   UNL     1      38.174  47.265  40.870  1.00  0.00     0.034 C 
ATOM      6  C   UNL     1      36.780  46.648  40.863  1.00  0.00     0.028 C 
ENDROOT
BRANCH   1   7
ATOM      7  N   UNL     1      34.399  47.000  40.145  1.00  0.00    -0.289 N 
ATOM      8  C   UNL     1      32.310  46.206  41.223  1.00  0.00     0.050 A 
ATOM      9  C   UNL     1      31.814  45.874  40.021  1.00  0.00     0.028 A 
ATOM     10  C   UNL     1      33.676  46.826  41.321  1.00  0.00     0.260 A 
ATOM     11  C   UNL     1      32.591  46.082  38.805  1.00  0.00     0.040 A 
ATOM     12  O   UNL     1      34.100  47.152  42.429  1.00  0.00    -0.269 OA
ATOM     13  C   UNL     1      32.143  45.759  37.530  1.00  0.00     0.052 A 
ATOM     14  C   UNL     1      33.863  46.634  38.873  1.00  0.00     0.148 A 
ATOM     15  N   UNL     1      32.893  45.964  36.427  1.00  0.00    -0.218 NA
ATOM     16  N   UNL     1      34.615  46.840  37.773  1.00  0.00    -0.195 NA
ATOM     17  C   UNL     1      34.101  46.497  36.595  1.00  0.00     0.222 A 
ATOM     18  C   UNL     1      30.791  45.154  37.280  1.00  0.00     0.067 C 
BRANCH   8  19
ATOM     19  C   UNL     1      31.488  45.986  42.429  1.00  0.00     0.006 A 
ATOM     20  C   UNL     1      29.980  45.661  44.710  1.00  0.00     0.212 A 
ATOM     21  C   UNL     1      29.798  44.773  43.663  1.00  0.00     0.069 A 
ATOM     22  N   UNL     1      30.861  46.682  44.678  1.00  0.00    -0.221 NA
ATOM     23  C   UNL     1      30.562  44.940  42.509  1.00  0.00     0.016 A 
ATOM     24  C   UNL     1      31.600  46.811  43.548  1.00  0.00     0.124 A 
BRANCH  20  25
ATOM     25  O   UNL     1      29.196  45.457  45.828  1.00  0.00    -0.481 OA
ATOM     26  C   UNL     1      29.007  44.080  46.130  1.00  0.00     0.280 C 
ENDBRANCH  20  25
ENDBRANCH   8  19
BRANCH  17  27
ATOM     27  N   UNL     1      34.860  46.704  35.485  1.00  0.00    -0.368 N 
ATOM     28  H   UNL     1      35.658  46.110  35.340  1.00  0.00     0.159 HD
ATOM     29  H   UNL     1      34.597  47.443  34.857  1.00  0.00     0.159 HD
ENDBRANCH  17  27
ENDBRANCH   1   7
BRANCH   4  30
ATOM     30  O   UNL     1      39.522  49.154  41.397  1.00  0.00    -0.376 OA
BRANCH  30  31
ATOM     31  C   UNL     1      40.352  48.362  40.536  1.00  0.00     0.188 C 
BRANCH  31  32
ATOM     32  C   UNL     1      41.061  49.310  39.574  1.00  0.00     0.184 C 
BRANCH  32  33
ATOM     33  O   UNL     1      40.125  50.248  39.045  1.00  0.00    -0.394 OA
ATOM     34  H   UNL     1      40.618  50.739  38.358  1.00  0.00     0.210 HD
ENDBRANCH  32  33
ENDBRANCH  31  32
ENDBRANCH  30  31
ENDBRANCH   4  30
TORSDOF 8
ENDMDL
MODEL 5
REMARK VINA RESULT:    -7.036      2.294      7.855
REMARK INTER + INTRA:         -10.041
REMARK INTER:                  -9.786
REMARK INTRA:                  -0.255
REMARK UNBOUND:                -0.126
REMARK SMILES COc1ccc(-c2cc3c(C)nc(N)nc3n([C@H]3CC[C@H](OCCO)CC3)c2=O)cn1
REMARK SMILES IDX 18 1 27 2 26 3 21 4 20 5 19 6 17 7 7 8 8 9 28 10 9 11 29 12
REMARK SMILES IDX 10 13 16 14 12 15 15 16 13 17 11 18 6 19 3 20 4 21 31 22
REMARK SMILES IDX 5 23 30 24 2 25 1 26 14 27 22 30 23 31 24 32 25 33
REMARK H PARENT 14 28 14 29 25 34
ROOT
ATOM      1  C   UNL     1      35.745  47.487  40.731  1.00  0.00     0.092 C 
ATOM      2  C   UNL     1      36.788  46.360  40.624  1.00  0.00     0.028 C 
ATOM      3  C   UNL     1      38.192  46.917  40.392  1.00  0.00     0.034 C 
ATOM      4  C   UNL     1      38.248  47.842  39.172  1.00  0.00     0.118 C 
ATOM      5  C   UNL     1      37.216  48.967  39.301  1.00  0.00     0.034 C 
ATOM      6  C   UNL     1      35.805  48.430  39.514  1.00  0.00     0.028 C 
ENDROOT
BRANCH   1   7
ATOM      7  N   UNL     1      34.379  46.969  40.978  1.00  0.00    -0.289 N 
ATOM      8  C   UNL     1      32.349  45.712  40.305  1.00  0.00     0.050 A 
ATOM      9  C   UNL     1      31.774  46.008  41.480  1.00  0.00     0.028 A 
ATOM     10  C   UNL     1      33.744  46.192  40.014  1.00  0.00     0.260 A 
ATOM     11  C   UNL     1      32.472  46.813  42.475  1.00  0.00     0.040 A 
ATOM     12  O   UNL     1      34.265  45.883  38.943  1.00  0.00    -0.269 OA
ATOM     13  C   UNL     1      31.936  47.161  43.709  1.00  0.00     0.052 A 
ATOM     14  C   UNL     1      33.752  47.285  42.221  1.00  0.00     0.148 A 
ATOM     15  N   UNL     1      32.612  47.911  44.604  1.00  0.00    -0.218 NA
ATOM     16  N   UNL     1      34.431  48.034  43.113  1.00  0.00    -0.195 NA
ATOM     17  C   UNL     1      33.834  48.318  44.268  1.00  0.00     0.222 A 
ATOM     18  C   UNL     1      30.563  46.732  44.142  1.00  0.00     0.067 C 
BRANCH   8  19
ATOM     19  C   UNL     1      31.612  44.887  39.326  1.00  0.00     0.006 A 
ATOM     20  C   UNL     1      30.282  43.393  37.434  1.00  0.00     0.212 A 
ATOM     21  C   UNL     1      30.210  42.999  38.759  1.00  0.00     0.069 A 
ATOM     22  N   UNL     1      30.968  44.476  37.013  1.00  0.00    -0.221 NA
ATOM     23  C   UNL     1      30.884  43.757  39.716  1.00  0.00     0.016 A 
ATOM     24  C   UNL     1      31.603  45.201  37.968  1.00  0.00     0.124 A 
BRANCH  20  25
ATOM     25  O   UNL     1      29.602  42.608  36.524  1.00  0.00    -0.481 OA
ATOM     26  C   UNL     1      30.399  42.241  35.403  1.00  0.00     0.280 C 
ENDBRANCH  20  25
ENDBRANCH   8  19
BRANCH  17  27
ATOM     27  N   UNL     1      34.518  49.074  45.169  1.00  0.00    -0.368 N 
ATOM     28  H   UNL     1      35.346  49.549  44.854  1.00  0.00     0.159 HD
ATOM     29  H   UNL     1      34.173  49.126  46.111  1.00  0.00     0.159 HD
ENDBRANCH  17  27
ENDBRANCH   1   7
BRANCH   4  30
ATOM     30  O   UNL     1      39.530  48.468  39.062  1.00  0.00    -0.376 OA
BRANCH  30  31
ATOM     31  C   UNL     1      39.779  49.444  40.083  1.00  0.00     0.188 C 
BRANCH  31  32
ATOM     32  C   UNL     1      41.238  49.309  40.508  1.00  0.00     0.184 C 
BRANCH  32  33
ATOM     33  O   UNL     1      41.458  48.015  41.069  1.00  0.00    -0.394 OA
ATOM     34  H   UNL     1      42.161  47.616  40.518  1.00  0.00     0.210 HD
ENDBRANCH  32  33
ENDBRANCH  31  32
ENDBRANCH  30  31
ENDBRANCH   4  30
TORSDOF 8
ENDMDL
MODEL 6
REMARK VINA RESULT:    -6.640      3.624      6.052
REMARK INTER + INTRA:          -9.483
REMARK INTER:                 -10.166
REMARK INTRA:                   0.683
REMARK UNBOUND:                -0.126
REMARK SMILES COc1ccc(-c2cc3c(C)nc(N)nc3n([C@H]3CC[C@H](OCCO)CC3)c2=O)cn1
REMARK SMILES IDX 18 1 27 2 26 3 21 4 20 5 19 6 17 7 7 8 8 9 28 10 9 11 29 12
REMARK SMILES IDX 10 13 16 14 12 15 15 16 13 17 11 18 6 19 3 20 4 21 31 22
REMARK SMILES IDX 5 23 30 24 2 25 1 26 14 27 22 30 23 31 24 32 25 33
REMARK H PARENT 14 28 14 29 25 34
ROOT
ATOM      1  C   UNL     1      32.908  47.208  42.146  1.00  0.00     0.092 C 
ATOM      2  C   UNL     1      32.306  45.794  42.054  1.00  0.00     0.028 C 
ATOM      3  C   UNL     1      30.954  45.714  42.762  1.00  0.00     0.034 C 
ATOM      4  C   UNL     1      31.039  46.187  44.217  1.00  0.00     0.118 C 
ATOM      5  C   UNL     1      31.624  47.601  44.290  1.00  0.00     0.034 C 
ATOM      6  C   UNL     1      32.983  47.696  43.605  1.00  0.00     0.028 C 
ENDROOT
BRANCH   1   7
ATOM      7  N   UNL     1      34.209  47.313  41.447  1.00  0.00    -0.289 N 
ATOM      8  C   UNL     1      36.655  47.729  41.405  1.00  0.00     0.050 A 
ATOM      9  C   UNL     1      36.670  47.514  40.081  1.00  0.00     0.028 A 
ATOM     10  C   UNL     1      35.364  47.610  42.166  1.00  0.00     0.260 A 
ATOM     11  C   UNL     1      35.446  47.190  39.359  1.00  0.00     0.040 A 
ATOM     12  O   UNL     1      35.377  47.781  43.384  1.00  0.00    -0.269 OA
ATOM     13  C   UNL     1      35.387  46.960  37.990  1.00  0.00     0.052 A 
ATOM     14  C   UNL     1      34.238  47.096  40.037  1.00  0.00     0.148 A 
ATOM     15  N   UNL     1      34.233  46.665  37.356  1.00  0.00    -0.218 NA
ATOM     16  N   UNL     1      33.083  46.801  39.406  1.00  0.00    -0.195 NA
ATOM     17  C   UNL     1      33.126  46.598  38.092  1.00  0.00     0.222 A 
ATOM     18  C   UNL     1      36.602  47.023  37.109  1.00  0.00     0.067 C 
BRANCH   8  19
ATOM     19  C   UNL     1      37.918  48.047  42.100  1.00  0.00     0.006 A 
ATOM     20  C   UNL     1      40.310  48.561  43.363  1.00  0.00     0.212 A 
ATOM     21  C   UNL     1      39.386  49.586  43.253  1.00  0.00     0.069 A 
ATOM     22  N   UNL     1      40.105  47.316  42.886  1.00  0.00    -0.221 NA
ATOM     23  C   UNL     1      38.175  49.324  42.614  1.00  0.00     0.016 A 
ATOM     24  C   UNL     1      38.913  47.087  42.280  1.00  0.00     0.124 A 
BRANCH  20  25
ATOM     25  O   UNL     1      41.495  48.872  44.000  1.00  0.00    -0.481 OA
ATOM     26  C   UNL     1      41.698  50.273  44.141  1.00  0.00     0.280 C 
ENDBRANCH  20  25
ENDBRANCH   8  19
BRANCH  17  27
ATOM     27  N   UNL     1      31.961  46.301  37.456  1.00  0.00    -0.368 N 
ATOM     28  H   UNL     1      31.971  46.250  36.452  1.00  0.00     0.159 HD
ATOM     29  H   UNL     1      31.137  46.150  38.011  1.00  0.00     0.159 HD
ENDBRANCH  17  27
ENDBRANCH   1   7
BRANCH   4  30
ATOM     30  O   UNL     1      29.739  46.246  44.813  1.00  0.00    -0.376 OA
BRANCH  30  31
ATOM     31  C   UNL     1      29.443  45.120  45.650  1.00  0.00     0.188 C 
BRANCH  31  32
ATOM     32  C   UNL     1      30.338  45.208  46.882  1.00  0.00     0.184 C 
BRANCH  32  33
ATOM     33  O   UNL     1      30.232  46.508  47.461  1.00  0.00    -0.394 OA
ATOM     34  H   UNL     1      29.772  47.048  46.789  1.00  0.00     0.210 HD
ENDBRANCH  32  33
ENDBRANCH  31  32
ENDBRANCH  30  31
ENDBRANCH   4  30
TORSDOF 8
ENDMDL
MODEL 7
REMARK VINA RESULT:    -6.598      3.514      6.663
REMARK INTER + INTRA:          -9.424
REMARK INTER:                  -9.667
REMARK INTRA:                   0.243
REMARK UNBOUND:                -0.126
REMARK SMILES COc1ccc(-c2cc3c(C)nc(N)nc3n([C@H]3CC[C@H](OCCO)CC3)c2=O)cn1
REMARK SMILES IDX 18 1 27 2 26 3 21 4 20 5 19 6 17 7 7 8 8 9 28 10 9 11 29 12
REMARK SMILES IDX 10 13 16 14 12 15 15 16 13 17 11 18 6 19 3 20 4 21 31 22
REMARK SMILES IDX 5 23 30 24 2 25 1 26 14 27 22 30 23 31 24 32 25 33
REMARK H PARENT 14 28 14 29 25 34
ROOT
ATOM      1  C   UNL     1      35.888  47.447  40.409  1.00  0.00     0.092 C 
ATOM      2  C   UNL     1      36.651  46.125  40.606  1.00  0.00     0.028 C 
ATOM      3  C   UNL     1      37.310  45.660  39.309  1.00  0.00     0.034 C 
ATOM      4  C   UNL     1      36.302  45.553  38.159  1.00  0.00     0.118 C 
ATOM      5  C   UNL     1      35.564  46.881  37.965  1.00  0.00     0.034 C 
ATOM      6  C   UNL     1      34.883  47.352  39.246  1.00  0.00     0.028 C 
ENDROOT
BRANCH   1   7
ATOM      7  N   UNL     1      35.259  47.928  41.661  1.00  0.00    -0.289 N 
ATOM      8  C   UNL     1      33.539  47.806  43.445  1.00  0.00     0.050 A 
ATOM      9  C   UNL     1      34.082  48.876  44.044  1.00  0.00     0.028 A 
ATOM     10  C   UNL     1      34.154  47.263  42.185  1.00  0.00     0.260 A 
ATOM     11  C   UNL     1      35.249  49.541  43.478  1.00  0.00     0.040 A 
ATOM     12  O   UNL     1      33.659  46.262  41.669  1.00  0.00    -0.269 OA
ATOM     13  C   UNL     1      35.861  50.655  44.042  1.00  0.00     0.052 A 
ATOM     14  C   UNL     1      35.822  49.071  42.304  1.00  0.00     0.148 A 
ATOM     15  N   UNL     1      36.939  51.246  43.486  1.00  0.00    -0.218 NA
ATOM     16  N   UNL     1      36.900  49.659  41.747  1.00  0.00    -0.195 NA
ATOM     17  C   UNL     1      37.415  50.722  42.359  1.00  0.00     0.222 A 
ATOM     18  C   UNL     1      35.368  51.289  45.311  1.00  0.00     0.067 C 
BRANCH   8  19
ATOM     19  C   UNL     1      32.361  47.156  44.055  1.00  0.00     0.006 A 
ATOM     20  C   UNL     1      30.160  46.016  45.253  1.00  0.00     0.212 A 
ATOM     21  C   UNL     1      30.574  45.527  44.026  1.00  0.00     0.069 A 
ATOM     22  N   UNL     1      30.778  47.025  45.902  1.00  0.00    -0.221 NA
ATOM     23  C   UNL     1      31.689  46.105  43.421  1.00  0.00     0.016 A 
ATOM     24  C   UNL     1      31.867  47.560  45.295  1.00  0.00     0.124 A 
BRANCH  20  25
ATOM     25  O   UNL     1      29.049  45.414  45.808  1.00  0.00    -0.481 OA
ATOM     26  C   UNL     1      29.078  43.994  45.707  1.00  0.00     0.280 C 
ENDBRANCH  20  25
ENDBRANCH   8  19
BRANCH  17  27
ATOM     27  N   UNL     1      38.502  51.316  41.796  1.00  0.00    -0.368 N 
ATOM     28  H   UNL     1      38.761  52.231  42.120  1.00  0.00     0.159 HD
ATOM     29  H   UNL     1      39.000  50.820  41.078  1.00  0.00     0.159 HD
ENDBRANCH  17  27
ENDBRANCH   1   7
BRANCH   4  30
ATOM     30  O   UNL     1      36.963  45.263  36.923  1.00  0.00    -0.376 OA
BRANCH  30  31
ATOM     31  C   UNL     1      38.017  44.299  37.051  1.00  0.00     0.188 C 
BRANCH  31  32
ATOM     32  C   UNL     1      37.595  43.046  36.290  1.00  0.00     0.184 C 
BRANCH  32  33
ATOM     33  O   UNL     1      37.202  42.032  37.214  1.00  0.00    -0.394 OA
ATOM     34  H   UNL     1      37.793  42.148  37.984  1.00  0.00     0.210 HD
ENDBRANCH  32  33
ENDBRANCH  31  32
ENDBRANCH  30  31
ENDBRANCH   4  30
TORSDOF 8
ENDMDL
MODEL 8
REMARK VINA RESULT:    -6.517      3.294      4.411
REMARK INTER + INTRA:          -9.310
REMARK INTER:                  -9.174
REMARK INTRA:                  -0.137
REMARK UNBOUND:                -0.126
REMARK SMILES COc1ccc(-c2cc3c(C)nc(N)nc3n([C@H]3CC[C@H](OCCO)CC3)c2=O)cn1
REMARK SMILES IDX 18 1 27 2 26 3 21 4 20 5 19 6 17 7 7 8 8 9 28 10 9 11 29 12
REMARK SMILES IDX 10 13 16 14 12 15 15 16 13 17 11 18 6 19 3 20 4 21 31 22
REMARK SMILES IDX 5 23 30 24 2 25 1 26 14 27 22 30 23 31 24 32 25 33
REMARK H PARENT 14 28 14 29 25 34
ROOT
ATOM      1  C   UNL     1      34.157  46.231  40.119  1.00  0.00     0.092 C 
ATOM      2  C   UNL     1      33.975  47.243  38.974  1.00  0.00     0.028 C 
ATOM      3  C   UNL     1      34.488  46.688  37.647  1.00  0.00     0.034 C 
ATOM      4  C   UNL     1      35.943  46.219  37.746  1.00  0.00     0.118 C 
ATOM      5  C   UNL     1      36.105  45.199  38.878  1.00  0.00     0.034 C 
ATOM      6  C   UNL     1      35.615  45.744  40.215  1.00  0.00     0.028 C 
ENDROOT
BRANCH   1   7
ATOM      7  N   UNL     1      33.646  46.742  41.412  1.00  0.00    -0.289 N 
ATOM      8  C   UNL     1      33.785  48.212  43.405  1.00  0.00     0.050 A 
ATOM      9  C   UNL     1      32.645  47.685  43.876  1.00  0.00     0.028 A 
ATOM     10  C   UNL     1      34.334  47.746  42.086  1.00  0.00     0.260 A 
ATOM     11  C   UNL     1      31.939  46.644  43.139  1.00  0.00     0.040 A 
ATOM     12  O   UNL     1      35.364  48.264  41.657  1.00  0.00    -0.269 OA
ATOM     13  C   UNL     1      30.757  46.051  43.568  1.00  0.00     0.052 A 
ATOM     14  C   UNL     1      32.438  46.183  41.928  1.00  0.00     0.148 A 
ATOM     15  N   UNL     1      30.134  45.088  42.859  1.00  0.00    -0.218 NA
ATOM     16  N   UNL     1      31.817  45.220  41.217  1.00  0.00    -0.195 NA
ATOM     17  C   UNL     1      30.691  44.711  41.710  1.00  0.00     0.222 A 
ATOM     18  C   UNL     1      30.084  46.434  44.855  1.00  0.00     0.067 C 
BRANCH   8  19
ATOM     19  C   UNL     1      34.466  49.270  44.179  1.00  0.00     0.006 A 
ATOM     20  C   UNL     1      35.742  51.182  45.693  1.00  0.00     0.212 A 
ATOM     21  C   UNL     1      35.609  51.396  44.332  1.00  0.00     0.069 A 
ATOM     22  N   UNL     1      35.277  50.085  46.326  1.00  0.00    -0.221 NA
ATOM     23  C   UNL     1      34.962  50.427  43.567  1.00  0.00     0.016 A 
ATOM     24  C   UNL     1      34.642  49.165  45.558  1.00  0.00     0.124 A 
BRANCH  20  25
ATOM     25  O   UNL     1      36.394  52.169  46.406  1.00  0.00    -0.481 OA
ATOM     26  C   UNL     1      36.016  52.204  47.778  1.00  0.00     0.280 C 
ENDBRANCH  20  25
ENDBRANCH   8  19
BRANCH  17  27
ATOM     27  N   UNL     1      30.064  43.739  40.992  1.00  0.00    -0.368 N 
ATOM     28  H   UNL     1      29.059  43.723  40.996  1.00  0.00     0.159 HD
ATOM     29  H   UNL     1      30.628  43.075  40.492  1.00  0.00     0.159 HD
ENDBRANCH  17  27
ENDBRANCH   1   7
BRANCH   4  30
ATOM     30  O   UNL     1      36.355  45.567  36.540  1.00  0.00    -0.376 OA
BRANCH  30  31
ATOM     31  C   UNL     1      37.033  46.436  35.623  1.00  0.00     0.188 C 
BRANCH  31  32
ATOM     32  C   UNL     1      37.907  47.382  36.441  1.00  0.00     0.184 C 
BRANCH  32  33
ATOM     33  O   UNL     1      37.728  48.721  35.981  1.00  0.00    -0.394 OA
ATOM     34  H   UNL     1      37.733  48.657  35.006  1.00  0.00     0.210 HD
ENDBRANCH  32  33
ENDBRANCH  31  32
ENDBRANCH  30  31
ENDBRANCH   4  30
TORSDOF 8
ENDMDL
MODEL 9
REMARK VINA RESULT:    -6.274      4.079      4.912
REMARK INTER + INTRA:          -8.967
REMARK INTER:                  -8.838
REMARK INTRA:                  -0.129
REMARK UNBOUND:                -0.126
REMARK SMILES COc1ccc(-c2cc3c(C)nc(N)nc3n([C@H]3CC[C@H](OCCO)CC3)c2=O)cn1
REMARK SMILES IDX 18 1 27 2 26 3 21 4 20 5 19 6 17 7 7 8 8 9 28 10 9 11 29 12
REMARK SMILES IDX 10 13 16 14 12 15 15 16 13 17 11 18 6 19 3 20 4 21 31 22
REMARK SMILES IDX 5 23 30 24 2 25 1 26 14 27 22 30 23 31 24 32 25 33
REMARK H PARENT 14 28 14 29 25 34
ROOT
ATOM      1  C   UNL     1      36.381  45.163  38.522  1.00  0.00     0.092 C 
ATOM      2  C   UNL     1      36.960  45.973  37.349  1.00  0.00     0.028 C 
ATOM      3  C   UNL     1      37.167  45.100  36.113  1.00  0.00     0.034 C 
ATOM      4  C   UNL     1      38.029  43.870  36.416  1.00  0.00     0.118 C 
ATOM      5  C   UNL     1      37.430  43.066  37.574  1.00  0.00     0.034 C 
ATOM      6  C   UNL     1      37.235  43.917  38.824  1.00  0.00     0.028 C 
ENDROOT
BRANCH   1   7
ATOM      7  N   UNL     1      36.152  45.996  39.725  1.00  0.00    -0.289 N 
ATOM      8  C   UNL     1      36.932  47.491  41.545  1.00  0.00     0.050 A 
ATOM      9  C   UNL     1      35.680  47.568  42.021  1.00  0.00     0.028 A 
ATOM     10  C   UNL     1      37.214  46.679  40.312  1.00  0.00     0.260 A 
ATOM     11  C   UNL     1      34.587  46.852  41.375  1.00  0.00     0.040 A 
ATOM     12  O   UNL     1      38.363  46.647  39.874  1.00  0.00    -0.269 OA
ATOM     13  C   UNL     1      33.269  46.882  41.816  1.00  0.00     0.052 A 
ATOM     14  C   UNL     1      34.826  46.078  40.248  1.00  0.00     0.148 A 
ATOM     15  N   UNL     1      32.283  46.203  41.192  1.00  0.00    -0.218 NA
ATOM     16  N   UNL     1      33.843  45.399  39.622  1.00  0.00    -0.195 NA
ATOM     17  C   UNL     1      32.613  45.488  40.119  1.00  0.00     0.222 A 
ATOM     18  C   UNL     1      32.839  47.669  43.020  1.00  0.00     0.067 C 
BRANCH   8  19
ATOM     19  C   UNL     1      38.010  48.238  42.224  1.00  0.00     0.006 A 
ATOM     20  C   UNL     1      39.958  49.694  43.516  1.00  0.00     0.212 A 
ATOM     21  C   UNL     1      40.245  48.393  43.136  1.00  0.00     0.069 A 
ATOM     22  N   UNL     1      38.772  50.293  43.286  1.00  0.00    -0.221 NA
ATOM     23  C   UNL     1      39.258  47.658  42.482  1.00  0.00     0.016 A 
ATOM     24  C   UNL     1      37.835  49.558  42.637  1.00  0.00     0.124 A 
BRANCH  20  25
ATOM     25  O   UNL     1      40.966  50.378  44.164  1.00  0.00    -0.481 OA
ATOM     26  C   UNL     1      41.987  49.521  44.664  1.00  0.00     0.280 C 
ENDBRANCH  20  25
ENDBRANCH   8  19
BRANCH  17  27
ATOM     27  N   UNL     1      31.621  44.802  39.488  1.00  0.00    -0.368 N 
ATOM     28  H   UNL     1      31.819  44.411  38.584  1.00  0.00     0.159 HD
ATOM     29  H   UNL     1      30.732  44.716  39.948  1.00  0.00     0.159 HD
ENDBRANCH  17  27
ENDBRANCH   1   7
BRANCH   4  30
ATOM     30  O   UNL     1      38.085  42.992  35.288  1.00  0.00    -0.376 OA
BRANCH  30  31
ATOM     31  C   UNL     1      37.436  41.733  35.511  1.00  0.00     0.188 C 
BRANCH  31  32
ATOM     32  C   UNL     1      38.466  40.632  35.276  1.00  0.00     0.184 C 
BRANCH  32  33
ATOM     33  O   UNL     1      38.524  39.776  36.417  1.00  0.00    -0.394 OA
ATOM     34  H   UNL     1      38.841  38.918  36.073  1.00  0.00     0.210 HD
ENDBRANCH  32  33
ENDBRANCH  31  32
ENDBRANCH  30  31
ENDBRANCH   4  30
TORSDOF 8
ENDMDL
