MODEL 1
REMARK VINA RESULT:    -8.693      0.000      0.000
REMARK INTER + INTRA:         -15.279
REMARK INTER:                 -14.030
REMARK INTRA:                  -1.249
REMARK UNBOUND:                -1.249
REMARK SMILES Cc1cc(SCc2ccc(OCc3ccc(C(F)(F)F)cc3)cc2)c(Cl)cc1OCC(=O)O
REMARK SMILES IDX 5 1 4 2 2 3 3 4 28 5 27 6 25 7 1 8 26 9 29 10 30 11 31 12
REMARK SMILES IDX 32 13 33 14 6 16 7 17 8 18 24 19 9 20 23 21 10 22 11 23
REMARK SMILES IDX 12 24 13 25 14 26 22 27 15 28 21 29 16 30 17 31 18 32 19 33
REMARK SMILES IDX 20 34
REMARK H PARENT 33 15
ROOT
ATOM      1  S   UNL     1      -8.259 -10.072 -22.465  1.00  0.00    -0.120 SA
ENDROOT
BRANCH   1   2
ATOM      2  C   UNL     1      -8.201  -9.554 -24.179  1.00  0.00     0.027 A 
ATOM      3  C   UNL     1      -9.308  -8.332 -25.983  1.00  0.00    -0.008 A 
ATOM      4  C   UNL     1      -9.261  -8.767 -24.648  1.00  0.00     0.023 A 
ATOM      5  C   UNL     1      -8.268  -8.676 -26.862  1.00  0.00     0.124 A 
ATOM      6  C   UNL     1      -7.201  -9.447 -26.396  1.00  0.00     0.068 A 
ATOM      7  C   UNL     1      -7.165  -9.883 -25.065  1.00  0.00     0.058 A 
ATOM      8  C   UNL     1     -10.474  -7.505 -26.453  1.00  0.00     0.048 C 
ATOM      9  Cl  UNL     1      -5.800 -10.834 -24.584  1.00  0.00    -0.083 Cl
BRANCH   5  10
ATOM     10  O   UNL     1      -8.402  -8.212 -28.143  1.00  0.00    -0.482 OA
BRANCH  10  11
ATOM     11  C   UNL     1      -7.274  -8.305 -29.004  1.00  0.00     0.351 C 
BRANCH  11  12
ATOM     12  C   UNL     1      -7.670  -8.973 -30.307  1.00  0.00     0.341 C 
ATOM     13  O   UNL     1      -7.188  -8.809 -31.416  1.00  0.00    -0.248 OA
BRANCH  12  14
ATOM     14  O   UNL     1      -8.694  -9.840 -30.140  1.00  0.00    -0.479 OA
ATOM     15  H   UNL     1      -8.672 -10.384 -30.956  1.00  0.00     0.296 HD
ENDBRANCH  12  14
ENDBRANCH  11  12
ENDBRANCH  10  11
ENDBRANCH   5  10
ENDBRANCH   1   2
BRANCH   1  16
ATOM     16  C   UNL     1      -9.334  -8.762 -21.781  1.00  0.00     0.110 C 
BRANCH  16  17
ATOM     17  C   UNL     1      -8.561  -7.643 -21.127  1.00  0.00    -0.037 A 
ATOM     18  C   UNL     1      -7.291  -7.283 -21.596  1.00  0.00     0.008 A 
ATOM     19  C   UNL     1      -9.110  -6.927 -20.055  1.00  0.00     0.008 A 
ATOM     20  C   UNL     1      -6.594  -6.227 -21.004  1.00  0.00     0.047 A 
ATOM     21  C   UNL     1      -8.410  -5.867 -19.466  1.00  0.00     0.047 A 
ATOM     22  C   UNL     1      -7.148  -5.512 -19.941  1.00  0.00     0.119 A 
BRANCH  22  23
ATOM     23  O   UNL     1      -6.362  -4.500 -19.463  1.00  0.00    -0.489 OA
BRANCH  23  24
ATOM     24  C   UNL     1      -4.952  -4.671 -19.565  1.00  0.00     0.265 C 
BRANCH  24  25
ATOM     25  C   UNL     1      -4.379  -3.435 -20.215  1.00  0.00    -0.011 A 
ATOM     26  C   UNL     1      -3.944  -3.470 -21.546  1.00  0.00     0.008 A 
ATOM     27  C   UNL     1      -4.235  -2.248 -19.484  1.00  0.00     0.008 A 
ATOM     28  C   UNL     1      -3.398  -2.332 -22.143  1.00  0.00     0.013 A 
ATOM     29  C   UNL     1      -3.690  -1.110 -20.082  1.00  0.00     0.013 A 
ATOM     30  C   UNL     1      -3.274  -1.136 -21.422  1.00  0.00     0.056 A 
BRANCH  30  31
ATOM     31  C   UNL     1      -2.666   0.089 -22.055  1.00  0.00     0.416 C 
ATOM     32  F   UNL     1      -1.354   0.268 -21.736  1.00  0.00    -0.166 F 
ATOM     33  F   UNL     1      -2.713   0.063 -23.417  1.00  0.00    -0.166 F 
ATOM     34  F   UNL     1      -3.300   1.236 -21.683  1.00  0.00    -0.166 F 
ENDBRANCH  30  31
ENDBRANCH  24  25
ENDBRANCH  23  24
ENDBRANCH  22  23
ENDBRANCH  16  17
ENDBRANCH   1  16
TORSDOF 11
ENDMDL
MODEL 2
REMARK VINA RESULT:    -8.606      1.577      2.093
REMARK INTER + INTRA:         -15.137
REMARK INTER:                 -13.820
REMARK INTRA:                  -1.317
REMARK UNBOUND:                -1.249
REMARK SMILES Cc1cc(SCc2ccc(OCc3ccc(C(F)(F)F)cc3)cc2)c(Cl)cc1OCC(=O)O
REMARK SMILES IDX 5 1 4 2 2 3 3 4 28 5 27 6 25 7 1 8 26 9 29 10 30 11 31 12
REMARK SMILES IDX 32 13 33 14 6 16 7 17 8 18 24 19 9 20 23 21 10 22 11 23
REMARK SMILES IDX 12 24 13 25 14 26 22 27 15 28 21 29 16 30 17 31 18 32 19 33
REMARK SMILES IDX 20 34
REMARK H PARENT 33 15
ROOT
ATOM      1  S   UNL     1      -9.717  -9.087 -23.131  1.00  0.00    -0.120 SA
ENDROOT
BRANCH   1   2
ATOM      2  C   UNL     1      -9.480  -8.709 -24.865  1.00  0.00     0.027 A 
ATOM      3  C   UNL     1      -7.964  -8.774 -26.782  1.00  0.00    -0.008 A 
ATOM      4  C   UNL     1      -8.246  -9.050 -25.434  1.00  0.00     0.023 A 
ATOM      5  C   UNL     1      -8.941  -8.159 -27.582  1.00  0.00     0.124 A 
ATOM      6  C   UNL     1     -10.180  -7.831 -27.026  1.00  0.00     0.068 A 
ATOM      7  C   UNL     1     -10.449  -8.105 -25.679  1.00  0.00     0.058 A 
ATOM      8  C   UNL     1      -6.619  -9.138 -27.349  1.00  0.00     0.048 C 
ATOM      9  Cl  UNL     1     -12.013  -7.659 -25.082  1.00  0.00    -0.083 Cl
BRANCH   5  10
ATOM     10  O   UNL     1      -8.577  -7.926 -28.881  1.00  0.00    -0.482 OA
BRANCH  10  11
ATOM     11  C   UNL     1      -9.327  -8.563 -29.907  1.00  0.00     0.351 C 
BRANCH  11  12
ATOM     12  C   UNL     1      -8.491  -9.644 -30.567  1.00  0.00     0.341 C 
ATOM     13  O   UNL     1      -7.300  -9.622 -30.827  1.00  0.00    -0.248 OA
BRANCH  12  14
ATOM     14  O   UNL     1      -9.229 -10.732 -30.882  1.00  0.00    -0.479 OA
ATOM     15  H   UNL     1     -10.091 -10.355 -31.159  1.00  0.00     0.296 HD
ENDBRANCH  12  14
ENDBRANCH  11  12
ENDBRANCH  10  11
ENDBRANCH   5  10
ENDBRANCH   1   2
BRANCH   1  16
ATOM     16  C   UNL     1      -7.974  -9.241 -22.604  1.00  0.00     0.110 C 
BRANCH  16  17
ATOM     17  C   UNL     1      -7.463  -8.019 -21.883  1.00  0.00    -0.037 A 
ATOM     18  C   UNL     1      -8.231  -6.848 -21.826  1.00  0.00     0.008 A 
ATOM     19  C   UNL     1      -6.221  -8.040 -21.234  1.00  0.00     0.008 A 
ATOM     20  C   UNL     1      -7.764  -5.730 -21.132  1.00  0.00     0.047 A 
ATOM     21  C   UNL     1      -5.756  -6.918 -20.537  1.00  0.00     0.047 A 
ATOM     22  C   UNL     1      -6.528  -5.758 -20.481  1.00  0.00     0.119 A 
BRANCH  22  23
ATOM     23  O   UNL     1      -6.198  -4.600 -19.835  1.00  0.00    -0.489 OA
BRANCH  23  24
ATOM     24  C   UNL     1      -4.841  -4.446 -19.430  1.00  0.00     0.265 C 
BRANCH  24  25
ATOM     25  C   UNL     1      -4.275  -3.245 -20.147  1.00  0.00    -0.011 A 
ATOM     26  C   UNL     1      -3.588  -3.401 -21.358  1.00  0.00     0.008 A 
ATOM     27  C   UNL     1      -4.390  -1.964 -19.592  1.00  0.00     0.008 A 
ATOM     28  C   UNL     1      -3.049  -2.293 -22.015  1.00  0.00     0.013 A 
ATOM     29  C   UNL     1      -3.851  -0.856 -20.249  1.00  0.00     0.013 A 
ATOM     30  C   UNL     1      -3.183  -1.007 -21.473  1.00  0.00     0.056 A 
BRANCH  30  31
ATOM     31  C   UNL     1      -2.584   0.191 -22.166  1.00  0.00     0.416 C 
ATOM     32  F   UNL     1      -1.245   0.325 -21.952  1.00  0.00    -0.166 F 
ATOM     33  F   UNL     1      -2.738   0.153 -23.520  1.00  0.00    -0.166 F 
ATOM     34  F   UNL     1      -3.146   1.363 -21.759  1.00  0.00    -0.166 F 
ENDBRANCH  30  31
ENDBRANCH  24  25
ENDBRANCH  23  24
ENDBRANCH  22  23
ENDBRANCH  16  17
ENDBRANCH   1  16
TORSDOF 11
ENDMDL
MODEL 3
REMARK VINA RESULT:    -8.586      1.890      2.871
REMARK INTER + INTRA:         -15.106
REMARK INTER:                 -13.698
REMARK INTRA:                  -1.408
REMARK UNBOUND:                -1.249
REMARK SMILES Cc1cc(SCc2ccc(OCc3ccc(C(F)(F)F)cc3)cc2)c(Cl)cc1OCC(=O)O
REMARK SMILES IDX 5 1 4 2 2 3 3 4 28 5 27 6 25 7 1 8 26 9 29 10 30 11 31 12
REMARK SMILES IDX 32 13 33 14 6 16 7 17 8 18 24 19 9 20 23 21 10 22 11 23
REMARK SMILES IDX 12 24 13 25 14 26 22 27 15 28 21 29 16 30 17 31 18 32 19 33
REMARK SMILES IDX 20 34
REMARK H PARENT 33 15
ROOT
ATOM      1  S   UNL     1      -7.126  -9.654 -23.926  1.00  0.00    -0.120 SA
ENDROOT
BRANCH   1   2
ATOM      2  C   UNL     1      -8.377  -9.037 -25.049  1.00  0.00     0.027 A 
ATOM      3  C   UNL     1     -10.669  -8.231 -25.312  1.00  0.00    -0.008 A 
ATOM      4  C   UNL     1      -9.623  -8.704 -24.503  1.00  0.00     0.023 A 
ATOM      5  C   UNL     1     -10.461  -8.072 -26.692  1.00  0.00     0.124 A 
ATOM      6  C   UNL     1      -9.216  -8.386 -27.240  1.00  0.00     0.068 A 
ATOM      7  C   UNL     1      -8.180  -8.864 -26.427  1.00  0.00     0.058 A 
ATOM      8  C   UNL     1     -12.000  -7.904 -24.689  1.00  0.00     0.048 C 
ATOM      9  Cl  UNL     1      -6.674  -9.226 -27.201  1.00  0.00    -0.083 Cl
BRANCH   5  10
ATOM     10  O   UNL     1     -11.538  -7.610 -27.400  1.00  0.00    -0.482 OA
BRANCH  10  11
ATOM     11  C   UNL     1     -11.379  -6.407 -28.141  1.00  0.00     0.351 C 
BRANCH  11  12
ATOM     12  C   UNL     1     -12.275  -5.323 -27.571  1.00  0.00     0.341 C 
ATOM     13  O   UNL     1     -13.329  -4.904 -28.019  1.00  0.00    -0.248 OA
BRANCH  12  14
ATOM     14  O   UNL     1     -11.773  -4.801 -26.429  1.00  0.00    -0.479 OA
ATOM     15  H   UNL     1     -11.250  -5.539 -26.048  1.00  0.00     0.296 HD
ENDBRANCH  12  14
ENDBRANCH  11  12
ENDBRANCH  10  11
ENDBRANCH   5  10
ENDBRANCH   1   2
BRANCH   1  16
ATOM     16  C   UNL     1      -7.997  -9.426 -22.335  1.00  0.00     0.110 C 
BRANCH  16  17
ATOM     17  C   UNL     1      -7.592  -8.164 -21.614  1.00  0.00    -0.037 A 
ATOM     18  C   UNL     1      -6.242  -7.877 -21.378  1.00  0.00     0.008 A 
ATOM     19  C   UNL     1      -8.560  -7.243 -21.190  1.00  0.00     0.008 A 
ATOM     20  C   UNL     1      -5.874  -6.693 -20.735  1.00  0.00     0.047 A 
ATOM     21  C   UNL     1      -8.188  -6.055 -20.549  1.00  0.00     0.047 A 
ATOM     22  C   UNL     1      -6.841  -5.775 -20.320  1.00  0.00     0.119 A 
BRANCH  22  23
ATOM     23  O   UNL     1      -6.342  -4.657 -19.713  1.00  0.00    -0.489 OA
BRANCH  23  24
ATOM     24  C   UNL     1      -4.948  -4.644 -19.421  1.00  0.00     0.265 C 
BRANCH  24  25
ATOM     25  C   UNL     1      -4.341  -3.440 -20.099  1.00  0.00    -0.011 A 
ATOM     26  C   UNL     1      -4.321  -2.197 -19.453  1.00  0.00     0.008 A 
ATOM     27  C   UNL     1      -3.827  -3.537 -21.399  1.00  0.00     0.008 A 
ATOM     28  C   UNL     1      -3.775  -1.078 -20.085  1.00  0.00     0.013 A 
ATOM     29  C   UNL     1      -3.281  -2.418 -22.031  1.00  0.00     0.013 A 
ATOM     30  C   UNL     1      -3.239  -1.178 -21.377  1.00  0.00     0.056 A 
BRANCH  30  31
ATOM     31  C   UNL     1      -2.668   0.031 -22.072  1.00  0.00     0.416 C 
ATOM     32  F   UNL     1      -3.270   1.198 -21.709  1.00  0.00    -0.166 F 
ATOM     33  F   UNL     1      -1.340   0.210 -21.823  1.00  0.00    -0.166 F 
ATOM     34  F   UNL     1      -2.786  -0.044 -23.427  1.00  0.00    -0.166 F 
ENDBRANCH  30  31
ENDBRANCH  24  25
ENDBRANCH  23  24
ENDBRANCH  22  23
ENDBRANCH  16  17
ENDBRANCH   1  16
TORSDOF 11
ENDMDL
MODEL 4
REMARK VINA RESULT:    -8.546      3.727      5.758
REMARK INTER + INTRA:         -15.041
REMARK INTER:                 -13.612
REMARK INTRA:                  -1.428
REMARK UNBOUND:                -1.249
REMARK SMILES Cc1cc(SCc2ccc(OCc3ccc(C(F)(F)F)cc3)cc2)c(Cl)cc1OCC(=O)O
REMARK SMILES IDX 5 1 4 2 2 3 3 4 28 5 27 6 25 7 1 8 26 9 29 10 30 11 31 12
REMARK SMILES IDX 32 13 33 14 6 16 7 17 8 18 24 19 9 20 23 21 10 22 11 23
REMARK SMILES IDX 12 24 13 25 14 26 22 27 15 28 21 29 16 30 17 31 18 32 19 33
REMARK SMILES IDX 20 34
REMARK H PARENT 33 15
ROOT
ATOM      1  S   UNL     1      -7.711  -8.021 -28.574  1.00  0.00    -0.120 SA
ENDROOT
BRANCH   1   2
ATOM      2  C   UNL     1      -9.138  -8.739 -29.382  1.00  0.00     0.027 A 
ATOM      3  C   UNL     1      -9.958 -10.343 -31.035  1.00  0.00    -0.008 A 
ATOM      4  C   UNL     1      -8.900  -9.737 -30.337  1.00  0.00     0.023 A 
ATOM      5  C   UNL     1     -11.281  -9.956 -30.763  1.00  0.00     0.124 A 
ATOM      6  C   UNL     1     -11.525  -8.973 -29.801  1.00  0.00     0.068 A 
ATOM      7  C   UNL     1     -10.464  -8.370 -29.114  1.00  0.00     0.058 A 
ATOM      8  C   UNL     1      -9.659 -11.397 -32.067  1.00  0.00     0.048 C 
ATOM      9  Cl  UNL     1     -10.870  -7.162 -27.941  1.00  0.00    -0.083 Cl
BRANCH   5  10
ATOM     10  O   UNL     1     -12.244 -10.597 -31.494  1.00  0.00    -0.482 OA
BRANCH  10  11
ATOM     11  C   UNL     1     -13.494 -10.854 -30.865  1.00  0.00     0.351 C 
BRANCH  11  12
ATOM     12  C   UNL     1     -13.578 -12.312 -30.454  1.00  0.00     0.341 C 
ATOM     13  O   UNL     1     -14.262 -12.809 -29.574  1.00  0.00    -0.248 OA
BRANCH  12  14
ATOM     14  O   UNL     1     -12.761 -13.094 -31.195  1.00  0.00    -0.479 OA
ATOM     15  H   UNL     1     -12.555 -12.538 -31.976  1.00  0.00     0.296 HD
ENDBRANCH  12  14
ENDBRANCH  11  12
ENDBRANCH  10  11
ENDBRANCH   5  10
ENDBRANCH   1   2
BRANCH   1  16
ATOM     16  C   UNL     1      -7.100  -9.483 -27.663  1.00  0.00     0.110 C 
BRANCH  16  17
ATOM     17  C   UNL     1      -7.388  -9.421 -26.184  1.00  0.00    -0.037 A 
ATOM     18  C   UNL     1      -6.684 -10.232 -25.284  1.00  0.00     0.008 A 
ATOM     19  C   UNL     1      -8.348  -8.533 -25.679  1.00  0.00     0.008 A 
ATOM     20  C   UNL     1      -6.936 -10.149 -23.913  1.00  0.00     0.047 A 
ATOM     21  C   UNL     1      -8.596  -8.450 -24.304  1.00  0.00     0.047 A 
ATOM     22  C   UNL     1      -7.889  -9.257 -23.414  1.00  0.00     0.119 A 
BRANCH  22  23
ATOM     23  O   UNL     1      -8.028  -9.274 -22.054  1.00  0.00    -0.489 OA
BRANCH  23  24
ATOM     24  C   UNL     1      -8.540  -8.095 -21.440  1.00  0.00     0.265 C 
BRANCH  24  25
ATOM     25  C   UNL     1      -7.374  -7.191 -21.123  1.00  0.00    -0.011 A 
ATOM     26  C   UNL     1      -7.559  -5.806 -21.018  1.00  0.00     0.008 A 
ATOM     27  C   UNL     1      -6.085  -7.718 -20.970  1.00  0.00     0.008 A 
ATOM     28  C   UNL     1      -6.478  -4.966 -20.740  1.00  0.00     0.013 A 
ATOM     29  C   UNL     1      -5.005  -6.878 -20.692  1.00  0.00     0.013 A 
ATOM     30  C   UNL     1      -5.191  -5.493 -20.564  1.00  0.00     0.056 A 
BRANCH  30  31
ATOM     31  C   UNL     1      -4.017  -4.589 -20.286  1.00  0.00     0.416 C 
ATOM     32  F   UNL     1      -3.618  -3.872 -21.373  1.00  0.00    -0.166 F 
ATOM     33  F   UNL     1      -4.273  -3.670 -19.313  1.00  0.00    -0.166 F 
ATOM     34  F   UNL     1      -2.918  -5.277 -19.869  1.00  0.00    -0.166 F 
ENDBRANCH  30  31
ENDBRANCH  24  25
ENDBRANCH  23  24
ENDBRANCH  22  23
ENDBRANCH  16  17
ENDBRANCH   1  16
TORSDOF 11
ENDMDL
MODEL 5
REMARK VINA RESULT:    -8.308      3.785      5.552
REMARK INTER + INTRA:         -14.657
REMARK INTER:                 -13.388
REMARK INTRA:                  -1.269
REMARK UNBOUND:                -1.249
REMARK SMILES Cc1cc(SCc2ccc(OCc3ccc(C(F)(F)F)cc3)cc2)c(Cl)cc1OCC(=O)O
REMARK SMILES IDX 5 1 4 2 2 3 3 4 28 5 27 6 25 7 1 8 26 9 29 10 30 11 31 12
REMARK SMILES IDX 32 13 33 14 6 16 7 17 8 18 24 19 9 20 23 21 10 22 11 23
REMARK SMILES IDX 12 24 13 25 14 26 22 27 15 28 21 29 16 30 17 31 18 32 19 33
REMARK SMILES IDX 20 34
REMARK H PARENT 33 15
ROOT
ATOM      1  S   UNL     1      -7.694  -7.998 -28.593  1.00  0.00    -0.120 SA
ENDROOT
BRANCH   1   2
ATOM      2  C   UNL     1      -9.331  -8.250 -29.274  1.00  0.00     0.027 A 
ATOM      3  C   UNL     1     -11.689  -7.606 -29.218  1.00  0.00    -0.008 A 
ATOM      4  C   UNL     1     -10.369  -7.463 -28.758  1.00  0.00     0.023 A 
ATOM      5  C   UNL     1     -11.974  -8.542 -30.226  1.00  0.00     0.124 A 
ATOM      6  C   UNL     1     -10.941  -9.319 -30.756  1.00  0.00     0.068 A 
ATOM      7  C   UNL     1      -9.629  -9.174 -30.286  1.00  0.00     0.058 A 
ATOM      8  C   UNL     1     -12.778  -6.756 -28.623  1.00  0.00     0.048 C 
ATOM      9  Cl  UNL     1      -8.419 -10.182 -31.006  1.00  0.00    -0.083 Cl
BRANCH   5  10
ATOM     10  O   UNL     1     -13.287  -8.615 -30.608  1.00  0.00    -0.482 OA
BRANCH  10  11
ATOM     11  C   UNL     1     -13.581  -9.213 -31.863  1.00  0.00     0.351 C 
BRANCH  11  12
ATOM     12  C   UNL     1     -14.292 -10.537 -31.654  1.00  0.00     0.341 C 
ATOM     13  O   UNL     1     -14.409 -11.175 -30.621  1.00  0.00    -0.248 OA
BRANCH  12  14
ATOM     14  O   UNL     1     -14.832 -11.008 -32.800  1.00  0.00    -0.479 OA
ATOM     15  H   UNL     1     -14.785 -10.241 -33.409  1.00  0.00     0.296 HD
ENDBRANCH  12  14
ENDBRANCH  11  12
ENDBRANCH  10  11
ENDBRANCH   5  10
ENDBRANCH   1   2
BRANCH   1  16
ATOM     16  C   UNL     1      -7.462  -9.596 -27.738  1.00  0.00     0.110 C 
BRANCH  16  17
ATOM     17  C   UNL     1      -7.616  -9.493 -26.240  1.00  0.00    -0.037 A 
ATOM     18  C   UNL     1      -6.838 -10.284 -25.385  1.00  0.00     0.008 A 
ATOM     19  C   UNL     1      -8.524  -8.586 -25.676  1.00  0.00     0.008 A 
ATOM     20  C   UNL     1      -6.966 -10.162 -24.000  1.00  0.00     0.047 A 
ATOM     21  C   UNL     1      -8.648  -8.465 -24.287  1.00  0.00     0.047 A 
ATOM     22  C   UNL     1      -7.867  -9.252 -23.443  1.00  0.00     0.119 A 
BRANCH  22  23
ATOM     23  O   UNL     1      -7.884  -9.231 -22.076  1.00  0.00    -0.489 OA
BRANCH  23  24
ATOM     24  C   UNL     1      -8.444  -8.080 -21.451  1.00  0.00     0.265 C 
BRANCH  24  25
ATOM     25  C   UNL     1      -7.317  -7.133 -21.122  1.00  0.00    -0.011 A 
ATOM     26  C   UNL     1      -7.559  -5.760 -20.989  1.00  0.00     0.008 A 
ATOM     27  C   UNL     1      -6.005  -7.608 -20.985  1.00  0.00     0.008 A 
ATOM     28  C   UNL     1      -6.514  -4.880 -20.700  1.00  0.00     0.013 A 
ATOM     29  C   UNL     1      -4.960  -6.728 -20.696  1.00  0.00     0.013 A 
ATOM     30  C   UNL     1      -5.205  -5.355 -20.540  1.00  0.00     0.056 A 
BRANCH  30  31
ATOM     31  C   UNL     1      -4.068  -4.407 -20.250  1.00  0.00     0.416 C 
ATOM     32  F   UNL     1      -2.930  -5.037 -19.847  1.00  0.00    -0.166 F 
ATOM     33  F   UNL     1      -3.712  -3.657 -21.330  1.00  0.00    -0.166 F 
ATOM     34  F   UNL     1      -4.372  -3.519 -19.263  1.00  0.00    -0.166 F 
ENDBRANCH  30  31
ENDBRANCH  24  25
ENDBRANCH  23  24
ENDBRANCH  22  23
ENDBRANCH  16  17
ENDBRANCH   1  16
TORSDOF 11
ENDMDL
MODEL 6
REMARK VINA RESULT:    -8.229      4.438      6.214
REMARK INTER + INTRA:         -14.530
REMARK INTER:                 -13.050
REMARK INTRA:                  -1.480
REMARK UNBOUND:                -1.249
REMARK SMILES Cc1cc(SCc2ccc(OCc3ccc(C(F)(F)F)cc3)cc2)c(Cl)cc1OCC(=O)O
REMARK SMILES IDX 5 1 4 2 2 3 3 4 28 5 27 6 25 7 1 8 26 9 29 10 30 11 31 12
REMARK SMILES IDX 32 13 33 14 6 16 7 17 8 18 24 19 9 20 23 21 10 22 11 23
REMARK SMILES IDX 12 24 13 25 14 26 22 27 15 28 21 29 16 30 17 31 18 32 19 33
REMARK SMILES IDX 20 34
REMARK H PARENT 33 15
ROOT
ATOM      1  S   UNL     1     -12.646  -5.848 -26.335  1.00  0.00    -0.120 SA
ENDROOT
BRANCH   1   2
ATOM      2  C   UNL     1     -12.299  -5.258 -27.990  1.00  0.00     0.027 A 
ATOM      3  C   UNL     1     -11.109  -5.646 -30.090  1.00  0.00    -0.008 A 
ATOM      4  C   UNL     1     -11.452  -6.040 -28.786  1.00  0.00     0.023 A 
ATOM      5  C   UNL     1     -11.637  -4.454 -30.615  1.00  0.00     0.124 A 
ATOM      6  C   UNL     1     -12.495  -3.678 -29.832  1.00  0.00     0.068 A 
ATOM      7  C   UNL     1     -12.825  -4.076 -28.530  1.00  0.00     0.058 A 
ATOM      8  C   UNL     1     -10.180  -6.503 -30.905  1.00  0.00     0.048 C 
ATOM      9  Cl  UNL     1     -13.896  -3.046 -27.640  1.00  0.00    -0.083 Cl
BRANCH   5  10
ATOM     10  O   UNL     1     -11.244  -4.148 -31.890  1.00  0.00    -0.482 OA
BRANCH  10  11
ATOM     11  C   UNL     1     -10.623  -2.888 -32.110  1.00  0.00     0.351 C 
BRANCH  11  12
ATOM     12  C   UNL     1      -9.244  -2.872 -31.477  1.00  0.00     0.341 C 
ATOM     13  O   UNL     1      -8.259  -3.514 -31.798  1.00  0.00    -0.248 OA
BRANCH  12  14
ATOM     14  O   UNL     1      -9.180  -2.020 -30.428  1.00  0.00    -0.479 OA
ATOM     15  H   UNL     1      -8.583  -2.475 -29.797  1.00  0.00     0.296 HD
ENDBRANCH  12  14
ENDBRANCH  11  12
ENDBRANCH  10  11
ENDBRANCH   5  10
ENDBRANCH   1   2
BRANCH   1  16
ATOM     16  C   UNL     1     -12.056  -7.571 -26.489  1.00  0.00     0.110 C 
BRANCH  16  17
ATOM     17  C   UNL     1     -10.908  -7.888 -25.562  1.00  0.00    -0.037 A 
ATOM     18  C   UNL     1     -11.146  -8.378 -24.271  1.00  0.00     0.008 A 
ATOM     19  C   UNL     1      -9.582  -7.723 -25.985  1.00  0.00     0.008 A 
ATOM     20  C   UNL     1     -10.078  -8.696 -23.429  1.00  0.00     0.047 A 
ATOM     21  C   UNL     1      -8.514  -8.046 -25.139  1.00  0.00     0.047 A 
ATOM     22  C   UNL     1      -8.758  -8.536 -23.857  1.00  0.00     0.119 A 
BRANCH  22  23
ATOM     23  O   UNL     1      -7.813  -8.894 -22.937  1.00  0.00    -0.489 OA
BRANCH  23  24
ATOM     24  C   UNL     1      -8.082  -8.577 -21.574  1.00  0.00     0.265 C 
BRANCH  24  25
ATOM     25  C   UNL     1      -7.186  -7.429 -21.178  1.00  0.00    -0.011 A 
ATOM     26  C   UNL     1      -7.714  -6.142 -21.011  1.00  0.00     0.008 A 
ATOM     27  C   UNL     1      -5.809  -7.625 -21.011  1.00  0.00     0.008 A 
ATOM     28  C   UNL     1      -6.884  -5.075 -20.660  1.00  0.00     0.013 A 
ATOM     29  C   UNL     1      -4.979  -6.558 -20.660  1.00  0.00     0.013 A 
ATOM     30  C   UNL     1      -5.509  -5.273 -20.471  1.00  0.00     0.056 A 
BRANCH  30  31
ATOM     31  C   UNL     1      -4.604  -4.121 -20.112  1.00  0.00     0.416 C 
ATOM     32  F   UNL     1      -4.605  -3.125 -21.042  1.00  0.00    -0.166 F 
ATOM     33  F   UNL     1      -4.943  -3.525 -18.934  1.00  0.00    -0.166 F 
ATOM     34  F   UNL     1      -3.304  -4.503 -19.976  1.00  0.00    -0.166 F 
ENDBRANCH  30  31
ENDBRANCH  24  25
ENDBRANCH  23  24
ENDBRANCH  22  23
ENDBRANCH  16  17
ENDBRANCH   1  16
TORSDOF 11
ENDMDL
MODEL 7
REMARK VINA RESULT:    -8.170      4.216      5.952
REMARK INTER + INTRA:         -14.434
REMARK INTER:                 -13.068
REMARK INTRA:                  -1.366
REMARK UNBOUND:                -1.249
REMARK SMILES Cc1cc(SCc2ccc(OCc3ccc(C(F)(F)F)cc3)cc2)c(Cl)cc1OCC(=O)O
REMARK SMILES IDX 5 1 4 2 2 3 3 4 28 5 27 6 25 7 1 8 26 9 29 10 30 11 31 12
REMARK SMILES IDX 32 13 33 14 6 16 7 17 8 18 24 19 9 20 23 21 10 22 11 23
REMARK SMILES IDX 12 24 13 25 14 26 22 27 15 28 21 29 16 30 17 31 18 32 19 33
REMARK SMILES IDX 20 34
REMARK H PARENT 33 15
ROOT
ATOM      1  S   UNL     1     -10.718  -8.595 -28.632  1.00  0.00    -0.120 SA
ENDROOT
BRANCH   1   2
ATOM      2  C   UNL     1     -10.762  -7.220 -29.779  1.00  0.00     0.027 A 
ATOM      3  C   UNL     1     -11.397  -4.889 -30.152  1.00  0.00    -0.008 A 
ATOM      4  C   UNL     1     -11.305  -6.015 -29.316  1.00  0.00     0.023 A 
ATOM      5  C   UNL     1     -10.924  -4.966 -31.472  1.00  0.00     0.124 A 
ATOM      6  C   UNL     1     -10.367  -6.160 -31.935  1.00  0.00     0.068 A 
ATOM      7  C   UNL     1     -10.285  -7.279 -31.096  1.00  0.00     0.058 A 
ATOM      8  C   UNL     1     -12.005  -3.619 -29.622  1.00  0.00     0.048 C 
ATOM      9  Cl  UNL     1      -9.579  -8.713 -31.764  1.00  0.00    -0.083 Cl
BRANCH   5  10
ATOM     10  O   UNL     1     -11.059  -3.822 -32.213  1.00  0.00    -0.482 OA
BRANCH  10  11
ATOM     11  C   UNL     1      -9.902  -3.311 -32.862  1.00  0.00     0.351 C 
BRANCH  11  12
ATOM     12  C   UNL     1      -8.920  -2.784 -31.833  1.00  0.00     0.341 C 
ATOM     13  O   UNL     1      -9.059  -1.843 -31.069  1.00  0.00    -0.248 OA
BRANCH  12  14
ATOM     14  O   UNL     1      -7.768  -3.493 -31.825  1.00  0.00    -0.479 OA
ATOM     15  H   UNL     1      -7.956  -4.244 -32.427  1.00  0.00     0.296 HD
ENDBRANCH  12  14
ENDBRANCH  11  12
ENDBRANCH  10  11
ENDBRANCH   5  10
ENDBRANCH   1   2
BRANCH   1  16
ATOM     16  C   UNL     1     -11.350  -7.768 -27.130  1.00  0.00     0.110 C 
BRANCH  16  17
ATOM     17  C   UNL     1     -10.507  -8.036 -25.908  1.00  0.00    -0.037 A 
ATOM     18  C   UNL     1     -11.106  -8.351 -24.682  1.00  0.00     0.008 A 
ATOM     19  C   UNL     1      -9.108  -8.000 -25.984  1.00  0.00     0.008 A 
ATOM     20  C   UNL     1     -10.318  -8.626 -23.562  1.00  0.00     0.047 A 
ATOM     21  C   UNL     1      -8.321  -8.279 -24.860  1.00  0.00     0.047 A 
ATOM     22  C   UNL     1      -8.924  -8.596 -23.644  1.00  0.00     0.119 A 
BRANCH  22  23
ATOM     23  O   UNL     1      -8.278  -8.893 -22.476  1.00  0.00    -0.489 OA
BRANCH  23  24
ATOM     24  C   UNL     1      -8.603  -8.104 -21.335  1.00  0.00     0.265 C 
BRANCH  24  25
ATOM     25  C   UNL     1      -7.436  -7.191 -21.052  1.00  0.00    -0.011 A 
ATOM     26  C   UNL     1      -7.638  -5.816 -20.874  1.00  0.00     0.008 A 
ATOM     27  C   UNL     1      -6.131  -7.697 -21.004  1.00  0.00     0.008 A 
ATOM     28  C   UNL     1      -6.558  -4.966 -20.628  1.00  0.00     0.013 A 
ATOM     29  C   UNL     1      -5.050  -6.847 -20.758  1.00  0.00     0.013 A 
ATOM     30  C   UNL     1      -5.253  -5.474 -20.558  1.00  0.00     0.056 A 
BRANCH  30  31
ATOM     31  C   UNL     1      -4.080  -4.558 -20.314  1.00  0.00     0.416 C 
ATOM     32  F   UNL     1      -2.979  -5.205 -19.839  1.00  0.00    -0.166 F 
ATOM     33  F   UNL     1      -3.669  -3.909 -21.439  1.00  0.00    -0.166 F 
ATOM     34  F   UNL     1      -4.361  -3.584 -19.404  1.00  0.00    -0.166 F 
ENDBRANCH  30  31
ENDBRANCH  24  25
ENDBRANCH  23  24
ENDBRANCH  22  23
ENDBRANCH  16  17
ENDBRANCH   1  16
TORSDOF 11
ENDMDL
MODEL 8
REMARK VINA RESULT:    -8.112      5.116      7.119
REMARK INTER + INTRA:         -14.340
REMARK INTER:                 -13.115
REMARK INTRA:                  -1.225
REMARK UNBOUND:                -1.249
REMARK SMILES Cc1cc(SCc2ccc(OCc3ccc(C(F)(F)F)cc3)cc2)c(Cl)cc1OCC(=O)O
REMARK SMILES IDX 5 1 4 2 2 3 3 4 28 5 27 6 25 7 1 8 26 9 29 10 30 11 31 12
REMARK SMILES IDX 32 13 33 14 6 16 7 17 8 18 24 19 9 20 23 21 10 22 11 23
REMARK SMILES IDX 12 24 13 25 14 26 22 27 15 28 21 29 16 30 17 31 18 32 19 33
REMARK SMILES IDX 20 34
REMARK H PARENT 33 15
ROOT
ATOM      1  S   UNL     1     -10.829  -6.819 -28.436  1.00  0.00    -0.120 SA
ENDROOT
BRANCH   1   2
ATOM      2  C   UNL     1     -11.980  -5.508 -28.031  1.00  0.00     0.027 A 
ATOM      3  C   UNL     1     -13.586  -4.627 -26.413  1.00  0.00    -0.008 A 
ATOM      4  C   UNL     1     -12.652  -5.599 -26.805  1.00  0.00     0.023 A 
ATOM      5  C   UNL     1     -13.843  -3.532 -27.256  1.00  0.00     0.124 A 
ATOM      6  C   UNL     1     -13.164  -3.427 -28.472  1.00  0.00     0.068 A 
ATOM      7  C   UNL     1     -12.238  -4.405 -28.857  1.00  0.00     0.058 A 
ATOM      8  C   UNL     1     -14.302  -4.772 -25.098  1.00  0.00     0.048 C 
ATOM      9  Cl  UNL     1     -11.450  -4.185 -30.384  1.00  0.00    -0.083 Cl
BRANCH   5  10
ATOM     10  O   UNL     1     -14.771  -2.638 -26.794  1.00  0.00    -0.482 OA
BRANCH  10  11
ATOM     11  C   UNL     1     -14.821  -1.356 -27.407  1.00  0.00     0.351 C 
BRANCH  11  12
ATOM     12  C   UNL     1     -14.750  -0.271 -26.350  1.00  0.00     0.341 C 
ATOM     13  O   UNL     1     -14.554   0.923 -26.506  1.00  0.00    -0.248 OA
BRANCH  12  14
ATOM     14  O   UNL     1     -14.930  -0.766 -25.104  1.00  0.00    -0.479 OA
ATOM     15  H   UNL     1     -14.029  -1.043 -24.833  1.00  0.00     0.296 HD
ENDBRANCH  12  14
ENDBRANCH  11  12
ENDBRANCH  10  11
ENDBRANCH   5  10
ENDBRANCH   1   2
BRANCH   1  16
ATOM     16  C   UNL     1     -11.441  -8.128 -27.318  1.00  0.00     0.110 C 
BRANCH  16  17
ATOM     17  C   UNL     1     -10.550  -8.349 -26.121  1.00  0.00    -0.037 A 
ATOM     18  C   UNL     1      -9.170  -8.529 -26.281  1.00  0.00     0.008 A 
ATOM     19  C   UNL     1     -11.083  -8.352 -24.824  1.00  0.00     0.008 A 
ATOM     20  C   UNL     1      -8.347  -8.704 -25.166  1.00  0.00     0.047 A 
ATOM     21  C   UNL     1     -10.255  -8.526 -23.709  1.00  0.00     0.047 A 
ATOM     22  C   UNL     1      -8.882  -8.700 -23.876  1.00  0.00     0.119 A 
BRANCH  22  23
ATOM     23  O   UNL     1      -7.964  -8.874 -22.878  1.00  0.00    -0.489 OA
BRANCH  23  24
ATOM     24  C   UNL     1      -8.285  -8.336 -21.599  1.00  0.00     0.265 C 
BRANCH  24  25
ATOM     25  C   UNL     1      -7.237  -7.309 -21.248  1.00  0.00    -0.011 A 
ATOM     26  C   UNL     1      -5.902  -7.693 -21.062  1.00  0.00     0.008 A 
ATOM     27  C   UNL     1      -7.589  -5.966 -21.063  1.00  0.00     0.008 A 
ATOM     28  C   UNL     1      -4.933  -6.747 -20.721  1.00  0.00     0.013 A 
ATOM     29  C   UNL     1      -6.620  -5.020 -20.722  1.00  0.00     0.013 A 
ATOM     30  C   UNL     1      -5.279  -5.398 -20.557  1.00  0.00     0.056 A 
BRANCH  30  31
ATOM     31  C   UNL     1      -4.241  -4.376 -20.168  1.00  0.00     0.416 C 
ATOM     32  F   UNL     1      -3.956  -3.491 -21.163  1.00  0.00    -0.166 F 
ATOM     33  F   UNL     1      -4.615  -3.619 -19.098  1.00  0.00    -0.166 F 
ATOM     34  F   UNL     1      -3.053  -4.947 -19.824  1.00  0.00    -0.166 F 
ENDBRANCH  30  31
ENDBRANCH  24  25
ENDBRANCH  23  24
ENDBRANCH  22  23
ENDBRANCH  16  17
ENDBRANCH   1  16
TORSDOF 11
ENDMDL
MODEL 9
REMARK VINA RESULT:    -8.083      3.748      5.827
REMARK INTER + INTRA:         -14.294
REMARK INTER:                 -13.330
REMARK INTRA:                  -0.964
REMARK UNBOUND:                -1.249
REMARK SMILES Cc1cc(SCc2ccc(OCc3ccc(C(F)(F)F)cc3)cc2)c(Cl)cc1OCC(=O)O
REMARK SMILES IDX 5 1 4 2 2 3 3 4 28 5 27 6 25 7 1 8 26 9 29 10 30 11 31 12
REMARK SMILES IDX 32 13 33 14 6 16 7 17 8 18 24 19 9 20 23 21 10 22 11 23
REMARK SMILES IDX 12 24 13 25 14 26 22 27 15 28 21 29 16 30 17 31 18 32 19 33
REMARK SMILES IDX 20 34
REMARK H PARENT 33 15
ROOT
ATOM      1  S   UNL     1     -10.091  -8.717 -28.406  1.00  0.00    -0.120 SA
ENDROOT
BRANCH   1   2
ATOM      2  C   UNL     1      -9.662  -7.767 -29.862  1.00  0.00     0.027 A 
ATOM      3  C   UNL     1      -8.166  -7.534 -31.781  1.00  0.00    -0.008 A 
ATOM      4  C   UNL     1      -8.585  -8.226 -30.633  1.00  0.00     0.023 A 
ATOM      5  C   UNL     1      -8.846  -6.369 -32.176  1.00  0.00     0.124 A 
ATOM      6  C   UNL     1      -9.929  -5.916 -31.421  1.00  0.00     0.068 A 
ATOM      7  C   UNL     1     -10.336  -6.609 -30.273  1.00  0.00     0.058 A 
ATOM      8  C   UNL     1      -6.993  -8.048 -32.571  1.00  0.00     0.048 C 
ATOM      9  Cl  UNL     1     -11.690  -5.967 -29.405  1.00  0.00    -0.083 Cl
BRANCH   5  10
ATOM     10  O   UNL     1      -8.364  -5.760 -33.304  1.00  0.00    -0.482 OA
BRANCH  10  11
ATOM     11  C   UNL     1      -8.787  -4.430 -33.572  1.00  0.00     0.351 C 
BRANCH  11  12
ATOM     12  C   UNL     1      -8.014  -3.454 -32.705  1.00  0.00     0.341 C 
ATOM     13  O   UNL     1      -8.339  -2.980 -31.629  1.00  0.00    -0.248 OA
BRANCH  12  14
ATOM     14  O   UNL     1      -6.832  -3.109 -33.263  1.00  0.00    -0.479 OA
ATOM     15  H   UNL     1      -6.204  -3.135 -32.510  1.00  0.00     0.296 HD
ENDBRANCH  12  14
ENDBRANCH  11  12
ENDBRANCH  10  11
ENDBRANCH   5  10
ENDBRANCH   1   2
BRANCH   1  16
ATOM     16  C   UNL     1      -8.418  -9.115 -27.789  1.00  0.00     0.110 C 
BRANCH  16  17
ATOM     17  C   UNL     1      -8.328  -9.118 -26.283  1.00  0.00    -0.037 A 
ATOM     18  C   UNL     1      -7.351  -9.877 -25.626  1.00  0.00     0.008 A 
ATOM     19  C   UNL     1      -9.204  -8.338 -25.513  1.00  0.00     0.008 A 
ATOM     20  C   UNL     1      -7.256  -9.852 -24.233  1.00  0.00     0.047 A 
ATOM     21  C   UNL     1      -9.104  -8.313 -24.117  1.00  0.00     0.047 A 
ATOM     22  C   UNL     1      -8.127  -9.069 -23.471  1.00  0.00     0.119 A 
BRANCH  22  23
ATOM     23  O   UNL     1      -7.916  -9.131 -22.121  1.00  0.00    -0.489 OA
BRANCH  23  24
ATOM     24  C   UNL     1      -8.405  -8.047 -21.338  1.00  0.00     0.265 C 
BRANCH  24  25
ATOM     25  C   UNL     1      -7.253  -7.107 -21.074  1.00  0.00    -0.011 A 
ATOM     26  C   UNL     1      -5.953  -7.605 -20.920  1.00  0.00     0.008 A 
ATOM     27  C   UNL     1      -7.475  -5.731 -20.936  1.00  0.00     0.008 A 
ATOM     28  C   UNL     1      -4.889  -6.739 -20.659  1.00  0.00     0.013 A 
ATOM     29  C   UNL     1      -6.410  -4.865 -20.675  1.00  0.00     0.013 A 
ATOM     30  C   UNL     1      -5.104  -5.358 -20.544  1.00  0.00     0.056 A 
BRANCH  30  31
ATOM     31  C   UNL     1      -3.962  -4.421 -20.241  1.00  0.00     0.416 C 
ATOM     32  F   UNL     1      -4.269  -3.483 -19.301  1.00  0.00    -0.166 F 
ATOM     33  F   UNL     1      -2.856  -5.064 -19.771  1.00  0.00    -0.166 F 
ATOM     34  F   UNL     1      -3.553  -3.728 -21.340  1.00  0.00    -0.166 F 
ENDBRANCH  30  31
ENDBRANCH  24  25
ENDBRANCH  23  24
ENDBRANCH  22  23
ENDBRANCH  16  17
ENDBRANCH   1  16
TORSDOF 11
ENDMDL
