MODEL 1
REMARK VINA RESULT:    -9.442      0.000      0.000
REMARK INTER + INTRA:         -11.831
REMARK INTER:                 -11.650
REMARK INTRA:                  -0.181
REMARK UNBOUND:                -0.181
REMARK SMILES O=c1[nH]c2ncc(-c3ccc(-c4nc[nH]n4)cc3)nc2n1CC1CCOCC1
REMARK SMILES IDX 1 1 2 2 3 3 4 4 5 5 6 6 7 7 19 8 20 9 21 10 22 12 23 13
REMARK SMILES IDX 24 14 28 15 25 16 27 17 26 18 8 19 9 20 18 21 10 22 17 23
REMARK SMILES IDX 11 24 12 25 13 26 16 27 14 28 15 29
REMARK H PARENT 3 11 15 30
ROOT
ATOM      1  O   UNL     1      48.005  -1.624 -52.129  1.00  0.00    -0.248 OA
ATOM      2  C   UNL     1      48.952  -1.186 -51.499  1.00  0.00     0.328 A 
ATOM      3  N   UNL     1      50.004  -0.431 -52.028  1.00  0.00    -0.289 N 
ATOM      4  C   UNL     1      50.879  -0.113 -51.004  1.00  0.00     0.178 A 
ATOM      5  N   UNL     1      52.003   0.599 -51.095  1.00  0.00    -0.233 NA
ATOM      6  C   UNL     1      52.624   0.733 -49.886  1.00  0.00     0.142 A 
ATOM      7  C   UNL     1      52.143   0.195 -48.669  1.00  0.00     0.091 A 
ATOM      8  N   UNL     1      50.989  -0.536 -48.631  1.00  0.00    -0.225 NA
ATOM      9  C   UNL     1      50.388  -0.662 -49.821  1.00  0.00     0.181 A 
ATOM     10  N   UNL     1      49.200  -1.326 -50.125  1.00  0.00    -0.275 N 
ATOM     11  H   UNL     1      50.109  -0.163 -52.991  1.00  0.00     0.173 HD
ENDROOT
BRANCH  10  12
ATOM     12  C   UNL     1      48.379  -2.025 -49.172  1.00  0.00     0.133 C 
BRANCH  12  13
ATOM     13  C   UNL     1      48.834  -1.813 -47.719  1.00  0.00     0.014 C 
ATOM     14  C   UNL     1      47.794  -0.981 -46.954  1.00  0.00     0.034 C 
ATOM     15  C   UNL     1      49.073  -3.140 -46.981  1.00  0.00     0.034 C 
ATOM     16  C   UNL     1      48.172  -0.857 -45.484  1.00  0.00     0.160 C 
ATOM     17  C   UNL     1      49.367  -2.897 -45.506  1.00  0.00     0.160 C 
ATOM     18  O   UNL     1      48.319  -2.146 -44.895  1.00  0.00    -0.381 OA
ENDBRANCH  12  13
ENDBRANCH  10  12
BRANCH   7  19
ATOM     19  C   UNL     1      52.840   0.371 -47.379  1.00  0.00     0.002 A 
ATOM     20  C   UNL     1      54.137   0.914 -47.333  1.00  0.00     0.011 A 
ATOM     21  C   UNL     1      52.258   0.001 -46.153  1.00  0.00     0.011 A 
ATOM     22  C   UNL     1      54.817   1.095 -46.121  1.00  0.00     0.013 A 
ATOM     23  C   UNL     1      52.935   0.181 -44.938  1.00  0.00     0.013 A 
ATOM     24  C   UNL     1      54.221   0.732 -44.909  1.00  0.00     0.021 A 
BRANCH  24  25
ATOM     25  C   UNL     1      54.931   0.922 -43.648  1.00  0.00     0.180 A 
ATOM     26  N   UNL     1      55.973   1.819 -43.515  1.00  0.00    -0.216 NA
ATOM     27  N   UNL     1      54.648   0.258 -42.514  1.00  0.00    -0.154 NA
ATOM     28  C   UNL     1      56.335   1.691 -42.262  1.00  0.00     0.217 A 
ATOM     29  N   UNL     1      55.550   0.764 -41.661  1.00  0.00    -0.265 N 
ATOM     30  H   UNL     1      55.570   0.433 -40.703  1.00  0.00     0.191 HD
ENDBRANCH  24  25
ENDBRANCH   7  19
TORSDOF 4
ENDMDL
MODEL 2
REMARK VINA RESULT:    -9.124      1.863      2.594
REMARK INTER + INTRA:         -11.439
REMARK INTER:                 -11.516
REMARK INTRA:                   0.077
REMARK UNBOUND:                -0.181
REMARK SMILES O=c1[nH]c2ncc(-c3ccc(-c4nc[nH]n4)cc3)nc2n1CC1CCOCC1
REMARK SMILES IDX 1 1 2 2 3 3 4 4 5 5 6 6 7 7 19 8 20 9 21 10 22 12 23 13
REMARK SMILES IDX 24 14 28 15 25 16 27 17 26 18 8 19 9 20 18 21 10 22 17 23
REMARK SMILES IDX 11 24 12 25 13 26 16 27 14 28 15 29
REMARK H PARENT 3 11 15 30
ROOT
ATOM      1  O   UNL     1      47.697  -1.941 -52.268  1.00  0.00    -0.248 OA
ATOM      2  C   UNL     1      48.632  -1.454 -51.656  1.00  0.00     0.328 A 
ATOM      3  N   UNL     1      49.606  -0.608 -52.196  1.00  0.00    -0.289 N 
ATOM      4  C   UNL     1      50.493  -0.257 -51.193  1.00  0.00     0.178 A 
ATOM      5  N   UNL     1      51.558   0.538 -51.298  1.00  0.00    -0.233 NA
ATOM      6  C   UNL     1      52.212   0.681 -50.108  1.00  0.00     0.142 A 
ATOM      7  C   UNL     1      51.816   0.073 -48.894  1.00  0.00     0.091 A 
ATOM      8  N   UNL     1      50.720  -0.742 -48.840  1.00  0.00    -0.225 NA
ATOM      9  C   UNL     1      50.087  -0.877 -50.012  1.00  0.00     0.181 A 
ATOM     10  N   UNL     1      48.939  -1.617 -50.297  1.00  0.00    -0.275 N 
ATOM     11  H   UNL     1      49.657  -0.304 -53.153  1.00  0.00     0.173 HD
ENDROOT
BRANCH  10  12
ATOM     12  C   UNL     1      48.207  -2.403 -49.339  1.00  0.00     0.133 C 
BRANCH  12  13
ATOM     13  C   UNL     1      46.959  -3.070 -49.938  1.00  0.00     0.014 C 
ATOM     14  C   UNL     1      47.221  -4.564 -50.179  1.00  0.00     0.034 C 
ATOM     15  C   UNL     1      45.721  -2.904 -49.044  1.00  0.00     0.034 C 
ATOM     16  C   UNL     1      45.959  -5.265 -50.665  1.00  0.00     0.160 C 
ATOM     17  C   UNL     1      44.545  -3.707 -49.586  1.00  0.00     0.160 C 
ATOM     18  O   UNL     1      44.895  -5.082 -49.735  1.00  0.00    -0.381 OA
ENDBRANCH  12  13
ENDBRANCH  10  12
BRANCH   7  19
ATOM     19  C   UNL     1      52.545   0.261 -47.623  1.00  0.00     0.002 A 
ATOM     20  C   UNL     1      53.861   0.757 -47.619  1.00  0.00     0.011 A 
ATOM     21  C   UNL     1      51.975  -0.052 -46.376  1.00  0.00     0.011 A 
ATOM     22  C   UNL     1      54.571   0.949 -46.426  1.00  0.00     0.013 A 
ATOM     23  C   UNL     1      52.683   0.139 -45.180  1.00  0.00     0.013 A 
ATOM     24  C   UNL     1      53.987   0.643 -45.192  1.00  0.00     0.021 A 
BRANCH  24  25
ATOM     25  C   UNL     1      54.730   0.844 -43.951  1.00  0.00     0.180 A 
ATOM     26  N   UNL     1      55.785   1.730 -43.857  1.00  0.00    -0.216 NA
ATOM     27  N   UNL     1      54.466   0.200 -42.800  1.00  0.00    -0.154 NA
ATOM     28  C   UNL     1      56.175   1.617 -42.611  1.00  0.00     0.217 A 
ATOM     29  N   UNL     1      55.394   0.708 -41.977  1.00  0.00    -0.265 N 
ATOM     30  H   UNL     1      55.433   0.391 -41.015  1.00  0.00     0.191 HD
ENDBRANCH  24  25
ENDBRANCH   7  19
TORSDOF 4
ENDMDL
MODEL 3
REMARK VINA RESULT:    -8.955      3.158      8.476
REMARK INTER + INTRA:         -11.230
REMARK INTER:                 -10.673
REMARK INTRA:                  -0.556
REMARK UNBOUND:                -0.181
REMARK SMILES O=c1[nH]c2ncc(-c3ccc(-c4nc[nH]n4)cc3)nc2n1CC1CCOCC1
REMARK SMILES IDX 1 1 2 2 3 3 4 4 5 5 6 6 7 7 19 8 20 9 21 10 22 12 23 13
REMARK SMILES IDX 24 14 28 15 25 16 27 17 26 18 8 19 9 20 18 21 10 22 17 23
REMARK SMILES IDX 11 24 12 25 13 26 16 27 14 28 15 29
REMARK H PARENT 3 11 15 30
ROOT
ATOM      1  O   UNL     1      51.957  -0.912 -39.811  1.00  0.00    -0.248 OA
ATOM      2  C   UNL     1      51.323  -0.915 -40.853  1.00  0.00     0.328 A 
ATOM      3  N   UNL     1      49.932  -0.817 -40.960  1.00  0.00    -0.289 N 
ATOM      4  C   UNL     1      49.589  -0.848 -42.300  1.00  0.00     0.178 A 
ATOM      5  N   UNL     1      48.364  -0.774 -42.822  1.00  0.00    -0.233 NA
ATOM      6  C   UNL     1      48.382  -0.824 -44.186  1.00  0.00     0.142 A 
ATOM      7  C   UNL     1      49.554  -0.931 -44.972  1.00  0.00     0.091 A 
ATOM      8  N   UNL     1      50.788  -1.013 -44.389  1.00  0.00    -0.225 NA
ATOM      9  C   UNL     1      50.758  -0.964 -43.051  1.00  0.00     0.181 A 
ATOM     10  N   UNL     1      51.829  -1.008 -42.158  1.00  0.00    -0.275 N 
ATOM     11  H   UNL     1      49.287  -0.738 -40.193  1.00  0.00     0.173 HD
ENDROOT
BRANCH  10  12
ATOM     12  C   UNL     1      53.212  -1.122 -42.537  1.00  0.00     0.133 C 
BRANCH  12  13
ATOM     13  C   UNL     1      53.718   0.088 -43.338  1.00  0.00     0.014 C 
ATOM     14  C   UNL     1      55.044   0.595 -42.751  1.00  0.00     0.034 C 
ATOM     15  C   UNL     1      53.906  -0.232 -44.829  1.00  0.00     0.034 C 
ATOM     16  C   UNL     1      55.618   1.722 -43.600  1.00  0.00     0.160 C 
ATOM     17  C   UNL     1      54.555   0.936 -45.560  1.00  0.00     0.160 C 
ATOM     18  O   UNL     1      55.792   1.294 -44.948  1.00  0.00    -0.381 OA
ENDBRANCH  12  13
ENDBRANCH  10  12
BRANCH   7  19
ATOM     19  C   UNL     1      49.534  -0.972 -46.448  1.00  0.00     0.002 A 
ATOM     20  C   UNL     1      48.411  -1.469 -47.136  1.00  0.00     0.011 A 
ATOM     21  C   UNL     1      50.619  -0.534 -47.228  1.00  0.00     0.011 A 
ATOM     22  C   UNL     1      48.366  -1.513 -48.536  1.00  0.00     0.013 A 
ATOM     23  C   UNL     1      50.577  -0.577 -48.629  1.00  0.00     0.013 A 
ATOM     24  C   UNL     1      49.449  -1.064 -49.298  1.00  0.00     0.021 A 
BRANCH  24  25
ATOM     25  C   UNL     1      49.399  -1.112 -50.756  1.00  0.00     0.180 A 
ATOM     26  N   UNL     1      48.480  -1.884 -51.439  1.00  0.00    -0.216 NA
ATOM     27  N   UNL     1      50.224  -0.422 -51.563  1.00  0.00    -0.154 NA
ATOM     28  C   UNL     1      48.760  -1.658 -52.700  1.00  0.00     0.217 A 
ATOM     29  N   UNL     1      49.797  -0.789 -52.780  1.00  0.00    -0.265 N 
ATOM     30  H   UNL     1      50.254  -0.412 -53.603  1.00  0.00     0.191 HD
ENDBRANCH  24  25
ENDBRANCH   7  19
TORSDOF 4
ENDMDL
MODEL 4
REMARK VINA RESULT:    -8.879      2.334      3.345
REMARK INTER + INTRA:         -11.136
REMARK INTER:                 -10.321
REMARK INTRA:                  -0.815
REMARK UNBOUND:                -0.181
REMARK SMILES O=c1[nH]c2ncc(-c3ccc(-c4nc[nH]n4)cc3)nc2n1CC1CCOCC1
REMARK SMILES IDX 1 1 2 2 3 3 4 4 5 5 6 6 7 7 19 8 20 9 21 10 22 12 23 13
REMARK SMILES IDX 24 14 28 15 25 16 27 17 26 18 8 19 9 20 18 21 10 22 17 23
REMARK SMILES IDX 11 24 12 25 13 26 16 27 14 28 15 29
REMARK H PARENT 3 11 15 30
ROOT
ATOM      1  O   UNL     1      45.793  -4.585 -48.562  1.00  0.00    -0.248 OA
ATOM      2  C   UNL     1      46.720  -3.793 -48.530  1.00  0.00     0.328 A 
ATOM      3  N   UNL     1      47.045  -2.880 -49.537  1.00  0.00    -0.289 N 
ATOM      4  C   UNL     1      48.151  -2.152 -49.133  1.00  0.00     0.178 A 
ATOM      5  N   UNL     1      48.768  -1.181 -49.807  1.00  0.00    -0.233 NA
ATOM      6  C   UNL     1      49.825  -0.665 -49.112  1.00  0.00     0.142 A 
ATOM      7  C   UNL     1      50.227  -1.091 -47.824  1.00  0.00     0.091 A 
ATOM      8  N   UNL     1      49.566  -2.100 -47.179  1.00  0.00    -0.225 NA
ATOM      9  C   UNL     1      48.533  -2.599 -47.869  1.00  0.00     0.181 A 
ATOM     10  N   UNL     1      47.651  -3.613 -47.496  1.00  0.00    -0.275 N 
ATOM     11  H   UNL     1      46.559  -2.768 -50.410  1.00  0.00     0.173 HD
ENDROOT
BRANCH  10  12
ATOM     12  C   UNL     1      47.704  -4.334 -46.252  1.00  0.00     0.133 C 
BRANCH  12  13
ATOM     13  C   UNL     1      46.953  -3.625 -45.115  1.00  0.00     0.014 C 
ATOM     14  C   UNL     1      46.085  -4.631 -44.345  1.00  0.00     0.034 C 
ATOM     15  C   UNL     1      47.903  -2.915 -44.138  1.00  0.00     0.034 C 
ATOM     16  C   UNL     1      45.421  -3.970 -43.144  1.00  0.00     0.160 C 
ATOM     17  C   UNL     1      47.141  -2.360 -42.942  1.00  0.00     0.160 C 
ATOM     18  O   UNL     1      46.402  -3.389 -42.288  1.00  0.00    -0.381 OA
ENDBRANCH  12  13
ENDBRANCH  10  12
BRANCH   7  19
ATOM     19  C   UNL     1      51.371  -0.501 -47.100  1.00  0.00     0.002 A 
ATOM     20  C   UNL     1      51.409  -0.510 -45.693  1.00  0.00     0.011 A 
ATOM     21  C   UNL     1      52.454   0.098 -47.765  1.00  0.00     0.011 A 
ATOM     22  C   UNL     1      52.485   0.038 -44.983  1.00  0.00     0.013 A 
ATOM     23  C   UNL     1      53.533   0.649 -47.058  1.00  0.00     0.013 A 
ATOM     24  C   UNL     1      53.561   0.623 -45.659  1.00  0.00     0.021 A 
BRANCH  24  25
ATOM     25  C   UNL     1      54.681   1.193 -44.917  1.00  0.00     0.180 A 
ATOM     26  N   UNL     1      54.713   1.222 -43.537  1.00  0.00    -0.216 NA
ATOM     27  N   UNL     1      55.770   1.736 -45.490  1.00  0.00    -0.154 NA
ATOM     28  C   UNL     1      55.856   1.804 -43.265  1.00  0.00     0.217 A 
ATOM     29  N   UNL     1      56.489   2.112 -44.423  1.00  0.00    -0.265 N 
ATOM     30  H   UNL     1      57.385   2.565 -44.562  1.00  0.00     0.191 HD
ENDBRANCH  24  25
ENDBRANCH   7  19
TORSDOF 4
ENDMDL
MODEL 5
REMARK VINA RESULT:    -8.850      2.304      3.265
REMARK INTER + INTRA:         -11.100
REMARK INTER:                 -10.295
REMARK INTRA:                  -0.805
REMARK UNBOUND:                -0.181
REMARK SMILES O=c1[nH]c2ncc(-c3ccc(-c4nc[nH]n4)cc3)nc2n1CC1CCOCC1
REMARK SMILES IDX 1 1 2 2 3 3 4 4 5 5 6 6 7 7 19 8 20 9 21 10 22 12 23 13
REMARK SMILES IDX 24 14 28 15 25 16 27 17 26 18 8 19 9 20 18 21 10 22 17 23
REMARK SMILES IDX 11 24 12 25 13 26 16 27 14 28 15 29
REMARK H PARENT 3 11 15 30
ROOT
ATOM      1  O   UNL     1      45.285  -3.625 -49.049  1.00  0.00    -0.248 OA
ATOM      2  C   UNL     1      46.356  -3.045 -48.997  1.00  0.00     0.328 A 
ATOM      3  N   UNL     1      47.049  -2.515 -50.090  1.00  0.00    -0.289 N 
ATOM      4  C   UNL     1      48.217  -1.930 -49.631  1.00  0.00     0.178 A 
ATOM      5  N   UNL     1      49.148  -1.310 -50.357  1.00  0.00    -0.233 NA
ATOM      6  C   UNL     1      50.171  -0.838 -49.584  1.00  0.00     0.142 A 
ATOM      7  C   UNL     1      50.246  -0.972 -48.178  1.00  0.00     0.091 A 
ATOM      8  N   UNL     1      49.268  -1.625 -47.480  1.00  0.00    -0.225 NA
ATOM      9  C   UNL     1      48.271  -2.085 -48.247  1.00  0.00     0.181 A 
ATOM     10  N   UNL     1      47.124  -2.775 -47.855  1.00  0.00    -0.275 N 
ATOM     11  H   UNL     1      46.751  -2.551 -51.049  1.00  0.00     0.173 HD
ENDROOT
BRANCH  10  12
ATOM     12  C   UNL     1      46.802  -3.132 -46.498  1.00  0.00     0.133 C 
BRANCH  12  13
ATOM     13  C   UNL     1      47.424  -4.468 -46.065  1.00  0.00     0.014 C 
ATOM     14  C   UNL     1      48.101  -4.318 -44.695  1.00  0.00     0.034 C 
ATOM     15  C   UNL     1      46.389  -5.603 -46.004  1.00  0.00     0.034 C 
ATOM     16  C   UNL     1      48.624  -5.659 -44.198  1.00  0.00     0.160 C 
ATOM     17  C   UNL     1      47.004  -6.870 -45.422  1.00  0.00     0.160 C 
ATOM     18  O   UNL     1      47.570  -6.616 -44.138  1.00  0.00    -0.381 OA
ENDBRANCH  12  13
ENDBRANCH  10  12
BRANCH   7  19
ATOM     19  C   UNL     1      51.365  -0.438 -47.376  1.00  0.00     0.002 A 
ATOM     20  C   UNL     1      51.331  -0.498 -45.970  1.00  0.00     0.011 A 
ATOM     21  C   UNL     1      52.496   0.156 -47.963  1.00  0.00     0.011 A 
ATOM     22  C   UNL     1      52.382  -0.003 -45.187  1.00  0.00     0.013 A 
ATOM     23  C   UNL     1      53.550   0.653 -47.183  1.00  0.00     0.013 A 
ATOM     24  C   UNL     1      53.506   0.576 -45.787  1.00  0.00     0.021 A 
BRANCH  24  25
ATOM     25  C   UNL     1      54.599   1.091 -44.968  1.00  0.00     0.180 A 
ATOM     26  N   UNL     1      54.488   1.247 -43.601  1.00  0.00    -0.216 NA
ATOM     27  N   UNL     1      55.799   1.455 -45.453  1.00  0.00    -0.154 NA
ATOM     28  C   UNL     1      55.656   1.726 -43.246  1.00  0.00     0.217 A 
ATOM     29  N   UNL     1      56.441   1.852 -44.344  1.00  0.00    -0.265 N 
ATOM     30  H   UNL     1      57.394   2.190 -44.414  1.00  0.00     0.191 HD
ENDBRANCH  24  25
ENDBRANCH   7  19
TORSDOF 4
ENDMDL
MODEL 6
REMARK VINA RESULT:    -8.825      3.736      7.388
REMARK INTER + INTRA:         -11.069
REMARK INTER:                 -10.292
REMARK INTRA:                  -0.777
REMARK UNBOUND:                -0.181
REMARK SMILES O=c1[nH]c2ncc(-c3ccc(-c4nc[nH]n4)cc3)nc2n1CC1CCOCC1
REMARK SMILES IDX 1 1 2 2 3 3 4 4 5 5 6 6 7 7 19 8 20 9 21 10 22 12 23 13
REMARK SMILES IDX 24 14 28 15 25 16 27 17 26 18 8 19 9 20 18 21 10 22 17 23
REMARK SMILES IDX 11 24 12 25 13 26 16 27 14 28 15 29
REMARK H PARENT 3 11 15 30
ROOT
ATOM      1  O   UNL     1      48.476  -4.123 -39.867  1.00  0.00    -0.248 OA
ATOM      2  C   UNL     1      48.807  -3.329 -40.731  1.00  0.00     0.328 A 
ATOM      3  N   UNL     1      48.818  -1.937 -40.596  1.00  0.00    -0.289 N 
ATOM      4  C   UNL     1      49.258  -1.382 -41.785  1.00  0.00     0.178 A 
ATOM      5  N   UNL     1      49.416  -0.087 -42.062  1.00  0.00    -0.233 NA
ATOM      6  C   UNL     1      49.878   0.115 -43.331  1.00  0.00     0.142 A 
ATOM      7  C   UNL     1      50.170  -0.916 -44.255  1.00  0.00     0.091 A 
ATOM      8  N   UNL     1      49.983  -2.230 -43.926  1.00  0.00    -0.225 NA
ATOM      9  C   UNL     1      49.528  -2.416 -42.680  1.00  0.00     0.181 A 
ATOM     10  N   UNL     1      49.248  -3.619 -42.031  1.00  0.00    -0.275 N 
ATOM     11  H   UNL     1      48.553  -1.423 -39.775  1.00  0.00     0.173 HD
ENDROOT
BRANCH  10  12
ATOM     12  C   UNL     1      49.401  -4.925 -42.615  1.00  0.00     0.133 C 
BRANCH  12  13
ATOM     13  C   UNL     1      48.117  -5.435 -43.288  1.00  0.00     0.014 C 
ATOM     14  C   UNL     1      48.378  -5.728 -44.773  1.00  0.00     0.034 C 
ATOM     15  C   UNL     1      47.560  -6.694 -42.607  1.00  0.00     0.034 C 
ATOM     16  C   UNL     1      47.150  -6.342 -45.430  1.00  0.00     0.160 C 
ATOM     17  C   UNL     1      46.384  -7.262 -43.392  1.00  0.00     0.160 C 
ATOM     18  O   UNL     1      46.754  -7.527 -44.743  1.00  0.00    -0.381 OA
ENDBRANCH  12  13
ENDBRANCH  10  12
BRANCH   7  19
ATOM     19  C   UNL     1      50.678  -0.658 -45.618  1.00  0.00     0.002 A 
ATOM     20  C   UNL     1      49.938  -1.058 -46.746  1.00  0.00     0.011 A 
ATOM     21  C   UNL     1      51.909  -0.021 -45.853  1.00  0.00     0.011 A 
ATOM     22  C   UNL     1      50.397  -0.820 -48.048  1.00  0.00     0.013 A 
ATOM     23  C   UNL     1      52.371   0.219 -47.155  1.00  0.00     0.013 A 
ATOM     24  C   UNL     1      51.619  -0.176 -48.267  1.00  0.00     0.021 A 
BRANCH  24  25
ATOM     25  C   UNL     1      52.094   0.071 -49.625  1.00  0.00     0.180 A 
ATOM     26  N   UNL     1      51.481  -0.480 -50.733  1.00  0.00    -0.216 NA
ATOM     27  N   UNL     1      53.152   0.843 -49.927  1.00  0.00    -0.154 NA
ATOM     28  C   UNL     1      52.193  -0.030 -51.738  1.00  0.00     0.217 A 
ATOM     29  N   UNL     1      53.189   0.757 -51.264  1.00  0.00    -0.265 N 
ATOM     30  H   UNL     1      53.910   1.254 -51.775  1.00  0.00     0.191 HD
ENDBRANCH  24  25
ENDBRANCH   7  19
TORSDOF 4
ENDMDL
MODEL 7
REMARK VINA RESULT:    -8.593      3.087      7.853
REMARK INTER + INTRA:         -10.783
REMARK INTER:                 -10.002
REMARK INTRA:                  -0.781
REMARK UNBOUND:                -0.181
REMARK SMILES O=c1[nH]c2ncc(-c3ccc(-c4nc[nH]n4)cc3)nc2n1CC1CCOCC1
REMARK SMILES IDX 1 1 2 2 3 3 4 4 5 5 6 6 7 7 19 8 20 9 21 10 22 12 23 13
REMARK SMILES IDX 24 14 28 15 25 16 27 17 26 18 8 19 9 20 18 21 10 22 17 23
REMARK SMILES IDX 11 24 12 25 13 26 16 27 14 28 15 29
REMARK H PARENT 3 11 15 30
ROOT
ATOM      1  O   UNL     1      55.169   1.510 -42.871  1.00  0.00    -0.248 OA
ATOM      2  C   UNL     1      54.583   1.215 -43.899  1.00  0.00     0.328 A 
ATOM      3  N   UNL     1      55.063   1.419 -45.196  1.00  0.00    -0.289 N 
ATOM      4  C   UNL     1      54.120   0.950 -46.095  1.00  0.00     0.178 A 
ATOM      5  N   UNL     1      54.199   0.956 -47.426  1.00  0.00    -0.233 NA
ATOM      6  C   UNL     1      53.094   0.406 -48.009  1.00  0.00     0.142 A 
ATOM      7  C   UNL     1      51.989  -0.122 -47.302  1.00  0.00     0.091 A 
ATOM      8  N   UNL     1      51.950  -0.096 -45.935  1.00  0.00    -0.225 NA
ATOM      9  C   UNL     1      53.039   0.446 -45.373  1.00  0.00     0.181 A 
ATOM     10  N   UNL     1      53.323   0.611 -44.018  1.00  0.00    -0.275 N 
ATOM     11  H   UNL     1      55.944   1.836 -45.439  1.00  0.00     0.173 HD
ENDROOT
BRANCH  10  12
ATOM     12  C   UNL     1      52.455   0.214 -42.940  1.00  0.00     0.133 C 
BRANCH  12  13
ATOM     13  C   UNL     1      52.598  -1.271 -42.571  1.00  0.00     0.014 C 
ATOM     14  C   UNL     1      52.610  -1.438 -41.044  1.00  0.00     0.034 C 
ATOM     15  C   UNL     1      51.479  -2.134 -43.172  1.00  0.00     0.034 C 
ATOM     16  C   UNL     1      52.636  -2.911 -40.658  1.00  0.00     0.160 C 
ATOM     17  C   UNL     1      51.560  -3.567 -42.659  1.00  0.00     0.160 C 
ATOM     18  O   UNL     1      51.527  -3.598 -41.234  1.00  0.00    -0.381 OA
ENDBRANCH  12  13
ENDBRANCH  10  12
BRANCH   7  19
ATOM     19  C   UNL     1      50.814  -0.718 -47.969  1.00  0.00     0.002 A 
ATOM     20  C   UNL     1      49.943  -1.568 -47.261  1.00  0.00     0.011 A 
ATOM     21  C   UNL     1      50.517  -0.482 -49.323  1.00  0.00     0.011 A 
ATOM     22  C   UNL     1      48.819  -2.141 -47.871  1.00  0.00     0.013 A 
ATOM     23  C   UNL     1      49.393  -1.055 -49.936  1.00  0.00     0.013 A 
ATOM     24  C   UNL     1      48.531  -1.889 -49.217  1.00  0.00     0.021 A 
BRANCH  24  25
ATOM     25  C   UNL     1      47.360  -2.488 -49.848  1.00  0.00     0.180 A 
ATOM     26  N   UNL     1      46.247  -2.872 -49.127  1.00  0.00    -0.216 NA
ATOM     27  N   UNL     1      47.249  -2.720 -51.168  1.00  0.00    -0.154 NA
ATOM     28  C   UNL     1      45.438  -3.356 -50.038  1.00  0.00     0.217 A 
ATOM     29  N   UNL     1      46.029  -3.269 -51.255  1.00  0.00    -0.265 N 
ATOM     30  H   UNL     1      45.674  -3.553 -52.161  1.00  0.00     0.191 HD
ENDBRANCH  24  25
ENDBRANCH   7  19
TORSDOF 4
ENDMDL
MODEL 8
REMARK VINA RESULT:    -8.528      3.222      7.291
REMARK INTER + INTRA:         -10.703
REMARK INTER:                  -9.885
REMARK INTRA:                  -0.818
REMARK UNBOUND:                -0.181
REMARK SMILES O=c1[nH]c2ncc(-c3ccc(-c4nc[nH]n4)cc3)nc2n1CC1CCOCC1
REMARK SMILES IDX 1 1 2 2 3 3 4 4 5 5 6 6 7 7 19 8 20 9 21 10 22 12 23 13
REMARK SMILES IDX 24 14 28 15 25 16 27 17 26 18 8 19 9 20 18 21 10 22 17 23
REMARK SMILES IDX 11 24 12 25 13 26 16 27 14 28 15 29
REMARK H PARENT 3 11 15 30
ROOT
ATOM      1  O   UNL     1      49.016  -2.359 -39.342  1.00  0.00    -0.248 OA
ATOM      2  C   UNL     1      49.646  -1.914 -40.286  1.00  0.00     0.328 A 
ATOM      3  N   UNL     1      50.871  -1.245 -40.205  1.00  0.00    -0.289 N 
ATOM      4  C   UNL     1      51.273  -0.902 -41.484  1.00  0.00     0.178 A 
ATOM      5  N   UNL     1      52.388  -0.259 -41.835  1.00  0.00    -0.233 NA
ATOM      6  C   UNL     1      52.479  -0.089 -43.187  1.00  0.00     0.142 A 
ATOM      7  C   UNL     1      51.520  -0.544 -44.122  1.00  0.00     0.091 A 
ATOM      8  N   UNL     1      50.388  -1.191 -43.710  1.00  0.00    -0.225 NA
ATOM      9  C   UNL     1      50.308  -1.351 -42.383  1.00  0.00     0.181 A 
ATOM     10  N   UNL     1      49.302  -1.974 -41.645  1.00  0.00    -0.275 N 
ATOM     11  H   UNL     1      51.378  -1.046 -39.360  1.00  0.00     0.173 HD
ENDROOT
BRANCH  10  12
ATOM     12  C   UNL     1      48.121  -2.577 -42.206  1.00  0.00     0.133 C 
BRANCH  12  13
ATOM     13  C   UNL     1      48.369  -3.993 -42.748  1.00  0.00     0.014 C 
ATOM     14  C   UNL     1      47.417  -4.992 -42.074  1.00  0.00     0.034 C 
ATOM     15  C   UNL     1      48.203  -4.074 -44.273  1.00  0.00     0.034 C 
ATOM     16  C   UNL     1      47.569  -6.381 -42.679  1.00  0.00     0.160 C 
ATOM     17  C   UNL     1      48.299  -5.516 -44.755  1.00  0.00     0.160 C 
ATOM     18  O   UNL     1      47.346  -6.341 -44.086  1.00  0.00    -0.381 OA
ENDBRANCH  12  13
ENDBRANCH  10  12
BRANCH   7  19
ATOM     19  C   UNL     1      51.659  -0.350 -45.579  1.00  0.00     0.002 A 
ATOM     20  C   UNL     1      52.764   0.343 -46.107  1.00  0.00     0.011 A 
ATOM     21  C   UNL     1      50.708  -0.831 -46.496  1.00  0.00     0.011 A 
ATOM     22  C   UNL     1      52.922   0.535 -47.486  1.00  0.00     0.013 A 
ATOM     23  C   UNL     1      50.863  -0.640 -47.877  1.00  0.00     0.013 A 
ATOM     24  C   UNL     1      51.972   0.043 -48.387  1.00  0.00     0.021 A 
BRANCH  24  25
ATOM     25  C   UNL     1      52.139   0.244 -49.823  1.00  0.00     0.180 A 
ATOM     26  N   UNL     1      51.200  -0.179 -50.743  1.00  0.00    -0.216 NA
ATOM     27  N   UNL     1      53.201   0.851 -50.382  1.00  0.00    -0.154 NA
ATOM     28  C   UNL     1      51.711   0.178 -51.896  1.00  0.00     0.217 A 
ATOM     29  N   UNL     1      52.901   0.792 -51.688  1.00  0.00    -0.265 N 
ATOM     30  H   UNL     1      53.546   1.184 -52.365  1.00  0.00     0.191 HD
ENDBRANCH  24  25
ENDBRANCH   7  19
TORSDOF 4
ENDMDL
MODEL 9
REMARK VINA RESULT:    -8.432      1.649      2.106
REMARK INTER + INTRA:         -10.585
REMARK INTER:                  -9.818
REMARK INTRA:                  -0.767
REMARK UNBOUND:                -0.181
REMARK SMILES O=c1[nH]c2ncc(-c3ccc(-c4nc[nH]n4)cc3)nc2n1CC1CCOCC1
REMARK SMILES IDX 1 1 2 2 3 3 4 4 5 5 6 6 7 7 19 8 20 9 21 10 22 12 23 13
REMARK SMILES IDX 24 14 28 15 25 16 27 17 26 18 8 19 9 20 18 21 10 22 17 23
REMARK SMILES IDX 11 24 12 25 13 26 16 27 14 28 15 29
REMARK H PARENT 3 11 15 30
ROOT
ATOM      1  O   UNL     1      46.969  -2.995 -50.954  1.00  0.00    -0.248 OA
ATOM      2  C   UNL     1      47.897  -2.318 -50.546  1.00  0.00     0.328 A 
ATOM      3  N   UNL     1      48.504  -1.266 -51.239  1.00  0.00    -0.289 N 
ATOM      4  C   UNL     1      49.512  -0.740 -50.450  1.00  0.00     0.178 A 
ATOM      5  N   UNL     1      50.322   0.277 -50.746  1.00  0.00    -0.233 NA
ATOM      6  C   UNL     1      51.200   0.546 -49.736  1.00  0.00     0.142 A 
ATOM      7  C   UNL     1      51.254  -0.155 -48.508  1.00  0.00     0.091 A 
ATOM      8  N   UNL     1      50.406  -1.199 -48.256  1.00  0.00    -0.225 NA
ATOM      9  C   UNL     1      49.550  -1.454 -49.254  1.00  0.00     0.181 A 
ATOM     10  N   UNL     1      48.555  -2.430 -49.313  1.00  0.00    -0.275 N 
ATOM     11  H   UNL     1      48.252  -0.943 -52.157  1.00  0.00     0.173 HD
ENDROOT
BRANCH  10  12
ATOM     12  C   UNL     1      48.267  -3.376 -48.268  1.00  0.00     0.133 C 
BRANCH  12  13
ATOM     13  C   UNL     1      47.218  -2.866 -47.268  1.00  0.00     0.014 C 
ATOM     14  C   UNL     1      45.831  -3.419 -47.626  1.00  0.00     0.034 C 
ATOM     15  C   UNL     1      47.560  -3.241 -45.817  1.00  0.00     0.034 C 
ATOM     16  C   UNL     1      44.798  -3.017 -46.582  1.00  0.00     0.160 C 
ATOM     17  C   UNL     1      46.426  -2.860 -44.874  1.00  0.00     0.160 C 
ATOM     18  O   UNL     1      45.199  -3.458 -45.287  1.00  0.00    -0.381 OA
ENDBRANCH  12  13
ENDBRANCH  10  12
BRANCH   7  19
ATOM     19  C   UNL     1      52.213   0.171 -47.434  1.00  0.00     0.002 A 
ATOM     20  C   UNL     1      51.881  -0.053 -46.085  1.00  0.00     0.011 A 
ATOM     21  C   UNL     1      53.479   0.723 -47.698  1.00  0.00     0.011 A 
ATOM     22  C   UNL     1      52.776   0.244 -45.048  1.00  0.00     0.013 A 
ATOM     23  C   UNL     1      54.377   1.022 -46.663  1.00  0.00     0.013 A 
ATOM     24  C   UNL     1      54.037   0.783 -45.327  1.00  0.00     0.021 A 
BRANCH  24  25
ATOM     25  C   UNL     1      54.966   1.092 -44.245  1.00  0.00     0.180 A 
ATOM     26  N   UNL     1      54.789   0.615 -42.961  1.00  0.00    -0.216 NA
ATOM     27  N   UNL     1      56.066   1.853 -44.387  1.00  0.00    -0.154 NA
ATOM     28  C   UNL     1      55.811   1.107 -42.303  1.00  0.00     0.217 A 
ATOM     29  N   UNL     1      56.574   1.844 -43.147  1.00  0.00    -0.265 N 
ATOM     30  H   UNL     1      57.428   2.355 -42.955  1.00  0.00     0.191 HD
ENDBRANCH  24  25
ENDBRANCH   7  19
TORSDOF 4
ENDMDL
