REMARK SMILES CC[C@H](Cc1ccc(OC)c(CNC(=O)c2ccc(C(F)(F)F)cc2F)c1)C(=O)O
REMARK SMILES IDX 5 1 6 2 7 3 8 4 11 5 27 6 4 7 3 8 2 9 1 10 28 11 29 12 30 13
REMARK SMILES IDX 12 15 13 16 14 17 15 18 16 20 17 21 25 22 18 23 24 24 19 25
REMARK SMILES IDX 26 26 20 27 21 28 22 29 23 30 9 31 10 32
REMARK H PARENT 30 14 13 19
REMARK INDEX MAP 5 1 6 2 7 3 8 4 11 5 27 6 4 7 3 8 2 9 1 10 28 11 29 12 30 13
REMARK INDEX MAP 51 14 12 15 13 16 14 17 15 18 46 19 16 20 17 21 25 22 18 23
REMARK INDEX MAP 24 24 19 25 26 26 20 27 21 28 22 29 23 30 9 31 10 32
ROOT
ATOM      1  C   UNL     1      10.561  10.996 -10.698  1.00  0.00    -0.047 A 
ATOM      2  C   UNL     1      10.457  11.880 -11.773  1.00  0.00     0.007 A 
ATOM      3  C   UNL     1      10.493  11.406 -13.091  1.00  0.00     0.047 A 
ATOM      4  C   UNL     1      10.606  10.037 -13.354  1.00  0.00     0.123 A 
ATOM      5  C   UNL     1      10.723   9.139 -12.281  1.00  0.00     0.014 A 
ATOM      6  C   UNL     1      10.734   9.635 -10.968  1.00  0.00     0.013 A 
ENDROOT
BRANCH   1   7
ATOM      7  C   UNL     1      10.424  11.474  -9.269  1.00  0.00     0.050 C 
BRANCH   7   8
ATOM      8  C   UNL     1      10.859  10.451  -8.193  1.00  0.00     0.103 C 
BRANCH   8   9
ATOM      9  C   UNL     1      11.934  11.018  -7.247  1.00  0.00     0.012 C 
ATOM     10  C   UNL     1      12.013  12.539  -7.293  1.00  0.00     0.005 C 
ENDBRANCH   8   9
BRANCH   8  11
ATOM     11  C   UNL     1       9.626   9.907  -7.498  1.00  0.00     0.306 C 
ATOM     12  O   UNL     1       8.958   8.970  -7.910  1.00  0.00    -0.252 OA
BRANCH  11  13
ATOM     13  O   UNL     1       9.230  10.625  -6.432  1.00  0.00    -0.481 OA
ATOM     14  H   UNL     1       8.433  10.345  -5.915  1.00  0.00     0.296 HD
ENDBRANCH  11  13
ENDBRANCH   8  11
ENDBRANCH   7   8
ENDBRANCH   1   7
BRANCH   5  15
ATOM     15  C   UNL     1      10.738   7.644 -12.483  1.00  0.00     0.156 C 
BRANCH  15  16
ATOM     16  N   UNL     1      10.296   6.953 -11.290  1.00  0.00    -0.348 N 
ATOM     17  C   UNL     1      10.900   5.818 -10.805  1.00  0.00     0.254 C 
ATOM     18  O   UNL     1      11.857   5.271 -11.353  1.00  0.00    -0.269 OA
ATOM     19  H   UNL     1       9.486   7.332 -10.778  1.00  0.00     0.164 HD
BRANCH  17  20
ATOM     20  C   UNL     1      10.364   5.245  -9.538  1.00  0.00     0.075 A 
ATOM     21  C   UNL     1      10.435   6.025  -8.373  1.00  0.00     0.017 A 
ATOM     22  C   UNL     1       9.789   3.976  -9.456  1.00  0.00     0.136 A 
ATOM     23  C   UNL     1       9.942   5.539  -7.157  1.00  0.00     0.014 A 
ATOM     24  C   UNL     1       9.291   3.487  -8.247  1.00  0.00     0.053 A 
ATOM     25  C   UNL     1       9.362   4.264  -7.082  1.00  0.00     0.058 A 
ATOM     26  F   UNL     1       9.693   3.185 -10.535  1.00  0.00    -0.206 F 
BRANCH  25  27
ATOM     27  C   UNL     1       8.822   3.720  -5.781  1.00  0.00     0.416 C 
ATOM     28  F   UNL     1       7.603   4.225  -5.443  1.00  0.00    -0.166 F 
ATOM     29  F   UNL     1       8.674   2.368  -5.808  1.00  0.00    -0.166 F 
ATOM     30  F   UNL     1       9.643   3.988  -4.728  1.00  0.00    -0.166 F 
ENDBRANCH  25  27
ENDBRANCH  17  20
ENDBRANCH  15  16
ENDBRANCH   5  15
BRANCH   4  31
ATOM     31  O   UNL     1      10.606   9.477 -14.606  1.00  0.00    -0.496 OA
ATOM     32  C   UNL     1      11.664   9.842 -15.481  1.00  0.00     0.278 C 
ENDBRANCH   4  31
TORSDOF 10
