MODEL 1
REMARK VINA RESULT:   -10.270      0.000      0.000
REMARK INTER + INTRA:         -18.077
REMARK INTER:                 -16.574
REMARK INTRA:                  -1.503
REMARK UNBOUND:                -1.503
REMARK SMILES CCc1ccc(-c2ncc(C)c(N(C)CCCOc3ccc4c(c3)CC[C@H]4CC(=O)O)n2)cc1
REMARK SMILES IDX 16 1 15 2 13 3 14 4 12 5 7 6 8 7 32 8 9 9 10 10 11 11 6 12
REMARK SMILES IDX 3 13 4 14 34 15 5 16 33 17 2 18 1 19 17 20 18 21 19 22 20 23
REMARK SMILES IDX 24 24 21 25 23 26 22 27 25 28 27 29 26 30 28 31 29 32 30 33
REMARK SMILES IDX 31 34
REMARK H PARENT 31 35
ROOT
ATOM      1  C   UNL     1      44.724 -41.937 107.736  1.00  0.00     0.063 C 
ENDROOT
BRANCH   1   2
ATOM      2  C   UNL     1      44.295 -41.526 106.324  1.00  0.00     0.121 C 
BRANCH   2   3
ATOM      3  N   UNL     1      43.689 -40.188 106.343  1.00  0.00    -0.359 N 
ATOM      4  C   UNL     1      44.553 -39.078 106.736  1.00  0.00     0.145 C 
BRANCH   3   5
ATOM      5  C   UNL     1      42.827 -39.902 105.276  1.00  0.00     0.135 A 
ATOM      6  C   UNL     1      42.423 -39.962 102.995  1.00  0.00     0.161 A 
ATOM      7  N   UNL     1      41.182 -39.465 103.116  1.00  0.00    -0.236 NA
ATOM      8  N   UNL     1      43.256 -40.186 104.030  1.00  0.00    -0.211 NA
ATOM      9  C   UNL     1      40.793 -39.158 104.365  1.00  0.00     0.120 A 
ATOM     10  C   UNL     1      41.576 -39.332 105.490  1.00  0.00     0.010 A 
ATOM     11  C   UNL     1      41.053 -38.918 106.830  1.00  0.00     0.050 C 
BRANCH   6  12
ATOM     12  C   UNL     1      42.913 -40.282 101.638  1.00  0.00     0.019 A 
ATOM     13  C   UNL     1      43.846 -40.910  99.021  1.00  0.00    -0.048 A 
ATOM     14  C   UNL     1      42.863 -39.935  99.211  1.00  0.00     0.004 A 
ATOM     15  C   UNL     1      44.362 -41.573 100.138  1.00  0.00     0.004 A 
ATOM     16  C   UNL     1      42.409 -39.627 100.499  1.00  0.00     0.012 A 
ATOM     17  C   UNL     1      43.902 -41.260 101.424  1.00  0.00     0.012 A 
BRANCH  13  18
ATOM     18  C   UNL     1      44.312 -41.266  97.633  1.00  0.00     0.032 C 
ATOM     19  C   UNL     1      44.960 -42.643  97.595  1.00  0.00     0.009 C 
ENDBRANCH  13  18
ENDBRANCH   6  12
ENDBRANCH   3   5
ENDBRANCH   2   3
ENDBRANCH   1   2
BRANCH   1  20
ATOM     20  C   UNL     1      46.133 -42.522 107.749  1.00  0.00     0.231 C 
BRANCH  20  21
ATOM     21  O   UNL     1      46.884 -41.875 108.775  1.00  0.00    -0.494 OA
BRANCH  21  22
ATOM     22  C   UNL     1      47.394 -40.638 108.488  1.00  0.00     0.119 A 
ATOM     23  C   UNL     1      47.047 -39.639 109.415  1.00  0.00     0.047 A 
ATOM     24  C   UNL     1      48.206 -40.322 107.398  1.00  0.00     0.050 A 
ATOM     25  C   UNL     1      47.491 -38.322 109.265  1.00  0.00     0.008 A 
ATOM     26  C   UNL     1      48.633 -39.009 107.249  1.00  0.00    -0.041 A 
ATOM     27  C   UNL     1      48.277 -38.013 108.167  1.00  0.00    -0.041 A 
ATOM     28  C   UNL     1      49.538 -38.462 106.188  1.00  0.00     0.036 C 
ATOM     29  C   UNL     1      48.913 -36.696 107.797  1.00  0.00     0.031 C 
ATOM     30  C   UNL     1      49.259 -36.959 106.312  1.00  0.00     0.014 C 
BRANCH  29  31
ATOM     31  C   UNL     1      48.009 -35.479 107.990  1.00  0.00     0.131 C 
BRANCH  31  32
ATOM     32  C   UNL     1      48.391 -34.684 109.208  1.00  0.00     0.303 C 
ATOM     33  O   UNL     1      49.305 -33.887 109.321  1.00  0.00    -0.252 OA
BRANCH  32  34
ATOM     34  O   UNL     1      47.589 -34.958 110.256  1.00  0.00    -0.481 OA
ATOM     35  H   UNL     1      47.826 -34.281 110.924  1.00  0.00     0.296 HD
ENDBRANCH  32  34
ENDBRANCH  31  32
ENDBRANCH  29  31
ENDBRANCH  21  22
ENDBRANCH  20  21
ENDBRANCH   1  20
TORSDOF 11
ENDMDL
MODEL 2
REMARK VINA RESULT:    -9.699      3.687      9.288
REMARK INTER + INTRA:         -17.156
REMARK INTER:                 -16.499
REMARK INTRA:                  -0.657
REMARK UNBOUND:                -1.503
REMARK SMILES CCc1ccc(-c2ncc(C)c(N(C)CCCOc3ccc4c(c3)CC[C@H]4CC(=O)O)n2)cc1
REMARK SMILES IDX 16 1 15 2 13 3 14 4 12 5 7 6 8 7 32 8 9 9 10 10 11 11 6 12
REMARK SMILES IDX 3 13 4 14 34 15 5 16 33 17 2 18 1 19 17 20 18 21 19 22 20 23
REMARK SMILES IDX 24 24 21 25 23 26 22 27 25 28 27 29 26 30 28 31 29 32 30 33
REMARK SMILES IDX 31 34
REMARK H PARENT 31 35
ROOT
ATOM      1  C   UNL     1      41.599 -39.614 107.006  1.00  0.00     0.063 C 
ENDROOT
BRANCH   1   2
ATOM      2  C   UNL     1      43.072 -39.986 107.204  1.00  0.00     0.121 C 
BRANCH   2   3
ATOM      3  N   UNL     1      43.671 -39.159 108.259  1.00  0.00    -0.359 N 
ATOM      4  C   UNL     1      43.035 -39.205 109.574  1.00  0.00     0.145 C 
BRANCH   3   5
ATOM      5  C   UNL     1      45.071 -39.145 108.293  1.00  0.00     0.135 A 
ATOM      6  C   UNL     1      47.036 -37.922 108.164  1.00  0.00     0.161 A 
ATOM      7  N   UNL     1      47.813 -38.984 108.429  1.00  0.00    -0.236 NA
ATOM      8  N   UNL     1      45.691 -37.966 108.088  1.00  0.00    -0.211 NA
ATOM      9  C   UNL     1      47.172 -40.153 108.594  1.00  0.00     0.120 A 
ATOM     10  C   UNL     1      45.801 -40.307 108.517  1.00  0.00     0.010 A 
ATOM     11  C   UNL     1      45.197 -41.667 108.681  1.00  0.00     0.050 C 
BRANCH   6  12
ATOM     12  C   UNL     1      47.694 -36.619 107.937  1.00  0.00     0.019 A 
ATOM     13  C   UNL     1      48.978 -34.114 107.504  1.00  0.00    -0.048 A 
ATOM     14  C   UNL     1      48.842 -35.033 106.461  1.00  0.00     0.004 A 
ATOM     15  C   UNL     1      48.475 -34.446 108.765  1.00  0.00     0.004 A 
ATOM     16  C   UNL     1      48.208 -36.262 106.677  1.00  0.00     0.012 A 
ATOM     17  C   UNL     1      47.842 -35.678 108.974  1.00  0.00     0.012 A 
BRANCH  13  18
ATOM     18  C   UNL     1      49.690 -32.804 107.282  1.00  0.00     0.032 C 
ATOM     19  C   UNL     1      50.259 -32.247 108.580  1.00  0.00     0.009 C 
ENDBRANCH  13  18
ENDBRANCH   6  12
ENDBRANCH   3   5
ENDBRANCH   2   3
ENDBRANCH   1   2
BRANCH   1  20
ATOM     20  C   UNL     1      41.126 -39.922 105.588  1.00  0.00     0.231 C 
BRANCH  20  21
ATOM     21  O   UNL     1      41.689 -38.956 104.702  1.00  0.00    -0.494 OA
BRANCH  21  22
ATOM     22  C   UNL     1      42.234 -39.421 103.536  1.00  0.00     0.119 A 
ATOM     23  C   UNL     1      41.905 -38.663 102.399  1.00  0.00     0.047 A 
ATOM     24  C   UNL     1      43.066 -40.535 103.412  1.00  0.00     0.050 A 
ATOM     25  C   UNL     1      42.386 -39.007 101.132  1.00  0.00     0.008 A 
ATOM     26  C   UNL     1      43.530 -40.878 102.148  1.00  0.00    -0.041 A 
ATOM     27  C   UNL     1      43.191 -40.128 101.015  1.00  0.00    -0.041 A 
ATOM     28  C   UNL     1      44.460 -41.996 101.793  1.00  0.00     0.036 C 
ATOM     29  C   UNL     1      43.865 -40.686  99.786  1.00  0.00     0.031 C 
ATOM     30  C   UNL     1      44.220 -42.109 100.282  1.00  0.00     0.014 C 
BRANCH  29  31
ATOM     31  C   UNL     1      42.992 -40.695  98.532  1.00  0.00     0.131 C 
BRANCH  31  32
ATOM     32  C   UNL     1      43.646 -39.972  97.388  1.00  0.00     0.303 C 
ATOM     33  O   UNL     1      43.109 -39.493  96.405  1.00  0.00    -0.252 OA
BRANCH  32  34
ATOM     34  O   UNL     1      44.984 -39.904  97.537  1.00  0.00    -0.481 OA
ATOM     35  H   UNL     1      45.117 -39.881  98.509  1.00  0.00     0.296 HD
ENDBRANCH  32  34
ENDBRANCH  31  32
ENDBRANCH  29  31
ENDBRANCH  21  22
ENDBRANCH  20  21
ENDBRANCH   1  20
TORSDOF 11
ENDMDL
MODEL 3
REMARK VINA RESULT:    -9.666      1.445      2.602
REMARK INTER + INTRA:         -17.103
REMARK INTER:                 -16.004
REMARK INTRA:                  -1.098
REMARK UNBOUND:                -1.503
REMARK SMILES CCc1ccc(-c2ncc(C)c(N(C)CCCOc3ccc4c(c3)CC[C@H]4CC(=O)O)n2)cc1
REMARK SMILES IDX 16 1 15 2 13 3 14 4 12 5 7 6 8 7 32 8 9 9 10 10 11 11 6 12
REMARK SMILES IDX 3 13 4 14 34 15 5 16 33 17 2 18 1 19 17 20 18 21 19 22 20 23
REMARK SMILES IDX 24 24 21 25 23 26 22 27 25 28 27 29 26 30 28 31 29 32 30 33
REMARK SMILES IDX 31 34
REMARK H PARENT 31 35
ROOT
ATOM      1  C   UNL     1      42.625 -39.267 108.598  1.00  0.00     0.063 C 
ENDROOT
BRANCH   1   2
ATOM      2  C   UNL     1      43.229 -39.309 107.190  1.00  0.00     0.121 C 
BRANCH   2   3
ATOM      3  N   UNL     1      42.500 -40.267 106.350  1.00  0.00    -0.359 N 
ATOM      4  C   UNL     1      41.221 -39.822 105.801  1.00  0.00     0.145 C 
BRANCH   3   5
ATOM      5  C   UNL     1      43.286 -41.008 105.458  1.00  0.00     0.135 A 
ATOM      6  C   UNL     1      43.942 -41.412 103.272  1.00  0.00     0.161 A 
ATOM      7  N   UNL     1      44.847 -42.338 103.626  1.00  0.00    -0.236 NA
ATOM      8  N   UNL     1      43.160 -40.744 104.142  1.00  0.00    -0.211 NA
ATOM      9  C   UNL     1      44.927 -42.608 104.939  1.00  0.00     0.120 A 
ATOM     10  C   UNL     1      44.158 -41.993 105.909  1.00  0.00     0.010 A 
ATOM     11  C   UNL     1      44.306 -42.400 107.342  1.00  0.00     0.050 C 
BRANCH   6  12
ATOM     12  C   UNL     1      43.788 -41.106 101.835  1.00  0.00     0.019 A 
ATOM     13  C   UNL     1      43.503 -40.504  99.065  1.00  0.00    -0.048 A 
ATOM     14  C   UNL     1      44.352 -41.531  99.487  1.00  0.00     0.004 A 
ATOM     15  C   UNL     1      42.798 -39.776 100.027  1.00  0.00     0.004 A 
ATOM     16  C   UNL     1      44.487 -41.826 100.849  1.00  0.00     0.012 A 
ATOM     17  C   UNL     1      42.939 -40.076 101.388  1.00  0.00     0.012 A 
BRANCH  13  18
ATOM     18  C   UNL     1      43.382 -40.164  97.602  1.00  0.00     0.032 C 
ATOM     19  C   UNL     1      44.734 -39.829  96.989  1.00  0.00     0.009 C 
ENDBRANCH  13  18
ENDBRANCH   6  12
ENDBRANCH   3   5
ENDBRANCH   2   3
ENDBRANCH   1   2
BRANCH   1  20
ATOM     20  C   UNL     1      43.696 -39.050 109.664  1.00  0.00     0.231 C 
BRANCH  20  21
ATOM     21  O   UNL     1      44.857 -39.794 109.299  1.00  0.00    -0.494 OA
BRANCH  21  22
ATOM     22  C   UNL     1      45.936 -39.085 108.849  1.00  0.00     0.119 A 
ATOM     23  C   UNL     1      45.988 -37.757 109.305  1.00  0.00     0.047 A 
ATOM     24  C   UNL     1      46.946 -39.574 108.019  1.00  0.00     0.050 A 
ATOM     25  C   UNL     1      47.030 -36.901 108.936  1.00  0.00     0.008 A 
ATOM     26  C   UNL     1      47.972 -38.715 107.647  1.00  0.00    -0.041 A 
ATOM     27  C   UNL     1      48.016 -37.388 108.093  1.00  0.00    -0.041 A 
ATOM     28  C   UNL     1      49.169 -39.038 106.807  1.00  0.00     0.036 C 
ATOM     29  C   UNL     1      49.255 -36.695 107.583  1.00  0.00     0.031 C 
ATOM     30  C   UNL     1      49.638 -37.632 106.412  1.00  0.00     0.014 C 
BRANCH  29  31
ATOM     31  C   UNL     1      49.036 -35.249 107.139  1.00  0.00     0.131 C 
BRANCH  31  32
ATOM     32  C   UNL     1      49.551 -34.267 108.154  1.00  0.00     0.303 C 
ATOM     33  O   UNL     1      49.594 -34.400 109.364  1.00  0.00    -0.252 OA
BRANCH  32  34
ATOM     34  O   UNL     1      49.978 -33.127 107.575  1.00  0.00    -0.481 OA
ATOM     35  H   UNL     1      50.956 -33.193 107.607  1.00  0.00     0.296 HD
ENDBRANCH  32  34
ENDBRANCH  31  32
ENDBRANCH  29  31
ENDBRANCH  21  22
ENDBRANCH  20  21
ENDBRANCH   1  20
TORSDOF 11
ENDMDL
MODEL 4
REMARK VINA RESULT:    -9.148      4.483      9.681
REMARK INTER + INTRA:         -16.267
REMARK INTER:                 -15.332
REMARK INTRA:                  -0.935
REMARK UNBOUND:                -1.503
REMARK SMILES CCc1ccc(-c2ncc(C)c(N(C)CCCOc3ccc4c(c3)CC[C@H]4CC(=O)O)n2)cc1
REMARK SMILES IDX 16 1 15 2 13 3 14 4 12 5 7 6 8 7 32 8 9 9 10 10 11 11 6 12
REMARK SMILES IDX 3 13 4 14 34 15 5 16 33 17 2 18 1 19 17 20 18 21 19 22 20 23
REMARK SMILES IDX 24 24 21 25 23 26 22 27 25 28 27 29 26 30 28 31 29 32 30 33
REMARK SMILES IDX 31 34
REMARK H PARENT 31 35
ROOT
ATOM      1  C   UNL     1      42.914 -39.995 108.169  1.00  0.00     0.063 C 
ENDROOT
BRANCH   1   2
ATOM      2  C   UNL     1      43.141 -40.122 106.659  1.00  0.00     0.121 C 
BRANCH   2   3
ATOM      3  N   UNL     1      44.116 -41.184 106.377  1.00  0.00    -0.359 N 
ATOM      4  C   UNL     1      44.281 -41.573 104.979  1.00  0.00     0.145 C 
BRANCH   3   5
ATOM      5  C   UNL     1      45.312 -41.113 107.104  1.00  0.00     0.135 A 
ATOM      6  C   UNL     1      47.095 -39.834 107.850  1.00  0.00     0.161 A 
ATOM      7  N   UNL     1      47.620 -40.836 108.573  1.00  0.00    -0.236 NA
ATOM      8  N   UNL     1      45.969 -39.936 107.118  1.00  0.00    -0.211 NA
ATOM      9  C   UNL     1      46.965 -42.007 108.514  1.00  0.00     0.120 A 
ATOM     10  C   UNL     1      45.814 -42.220 107.779  1.00  0.00     0.010 A 
ATOM     11  C   UNL     1      45.189 -43.580 107.756  1.00  0.00     0.050 C 
BRANCH   6  12
ATOM     12  C   UNL     1      47.798 -38.534 107.851  1.00  0.00     0.019 A 
ATOM     13  C   UNL     1      49.148 -36.026 107.839  1.00  0.00    -0.048 A 
ATOM     14  C   UNL     1      47.818 -36.117 108.259  1.00  0.00     0.004 A 
ATOM     15  C   UNL     1      49.803 -37.189 107.423  1.00  0.00     0.004 A 
ATOM     16  C   UNL     1      47.159 -37.352 108.267  1.00  0.00     0.012 A 
ATOM     17  C   UNL     1      49.136 -38.421 107.432  1.00  0.00     0.012 A 
BRANCH  13  18
ATOM     18  C   UNL     1      49.849 -34.693 107.800  1.00  0.00     0.032 C 
ATOM     19  C   UNL     1      48.894 -33.567 107.431  1.00  0.00     0.009 C 
ENDBRANCH  13  18
ENDBRANCH   6  12
ENDBRANCH   3   5
ENDBRANCH   2   3
ENDBRANCH   1   2
BRANCH   1  20
ATOM     20  C   UNL     1      42.254 -38.667 108.529  1.00  0.00     0.231 C 
BRANCH  20  21
ATOM     21  O   UNL     1      41.353 -38.887 109.613  1.00  0.00    -0.494 OA
BRANCH  21  22
ATOM     22  C   UNL     1      40.026 -38.648 109.380  1.00  0.00     0.119 A 
ATOM     23  C   UNL     1      39.693 -38.507 108.022  1.00  0.00     0.047 A 
ATOM     24  C   UNL     1      39.030 -38.553 110.353  1.00  0.00     0.050 A 
ATOM     25  C   UNL     1      38.377 -38.260 107.618  1.00  0.00     0.008 A 
ATOM     26  C   UNL     1      37.728 -38.297 109.945  1.00  0.00    -0.041 A 
ATOM     27  C   UNL     1      37.399 -38.144 108.592  1.00  0.00    -0.041 A 
ATOM     28  C   UNL     1      36.507 -38.200 110.807  1.00  0.00     0.036 C 
ATOM     29  C   UNL     1      35.916 -37.925 108.425  1.00  0.00     0.031 C 
ATOM     30  C   UNL     1      35.534 -37.486 109.860  1.00  0.00     0.014 C 
BRANCH  29  31
ATOM     31  C   UNL     1      35.544 -36.887 107.368  1.00  0.00     0.131 C 
BRANCH  31  32
ATOM     32  C   UNL     1      35.383 -37.504 106.007  1.00  0.00     0.303 C 
ATOM     33  O   UNL     1      35.348 -38.689 105.726  1.00  0.00    -0.252 OA
BRANCH  32  34
ATOM     34  O   UNL     1      35.292 -36.569 105.041  1.00  0.00    -0.481 OA
ATOM     35  H   UNL     1      34.360 -36.268 105.084  1.00  0.00     0.296 HD
ENDBRANCH  32  34
ENDBRANCH  31  32
ENDBRANCH  29  31
ENDBRANCH  21  22
ENDBRANCH  20  21
ENDBRANCH   1  20
TORSDOF 11
ENDMDL
MODEL 5
REMARK VINA RESULT:    -9.006      3.579      8.629
REMARK INTER + INTRA:         -16.036
REMARK INTER:                 -15.369
REMARK INTRA:                  -0.668
REMARK UNBOUND:                -1.503
REMARK SMILES CCc1ccc(-c2ncc(C)c(N(C)CCCOc3ccc4c(c3)CC[C@H]4CC(=O)O)n2)cc1
REMARK SMILES IDX 16 1 15 2 13 3 14 4 12 5 7 6 8 7 32 8 9 9 10 10 11 11 6 12
REMARK SMILES IDX 3 13 4 14 34 15 5 16 33 17 2 18 1 19 17 20 18 21 19 22 20 23
REMARK SMILES IDX 24 24 21 25 23 26 22 27 25 28 27 29 26 30 28 31 29 32 30 33
REMARK SMILES IDX 31 34
REMARK H PARENT 31 35
ROOT
ATOM      1  C   UNL     1      45.595 -43.313 107.054  1.00  0.00     0.063 C 
ENDROOT
BRANCH   1   2
ATOM      2  C   UNL     1      45.074 -42.365 108.138  1.00  0.00     0.121 C 
BRANCH   2   3
ATOM      3  N   UNL     1      45.950 -41.191 108.255  1.00  0.00    -0.359 N 
ATOM      4  C   UNL     1      47.010 -41.058 107.258  1.00  0.00     0.145 C 
BRANCH   3   5
ATOM      5  C   UNL     1      45.308 -39.990 108.582  1.00  0.00     0.135 A 
ATOM      6  C   UNL     1      43.323 -38.835 108.893  1.00  0.00     0.161 A 
ATOM      7  N   UNL     1      43.940 -37.712 109.292  1.00  0.00    -0.236 NA
ATOM      8  N   UNL     1      43.961 -39.966 108.536  1.00  0.00    -0.211 NA
ATOM      9  C   UNL     1      45.283 -37.751 109.295  1.00  0.00     0.120 A 
ATOM     10  C   UNL     1      46.032 -38.854 108.929  1.00  0.00     0.010 A 
ATOM     11  C   UNL     1      47.526 -38.772 108.934  1.00  0.00     0.050 C 
BRANCH   6  12
ATOM     12  C   UNL     1      41.846 -38.832 108.837  1.00  0.00     0.019 A 
ATOM     13  C   UNL     1      39.000 -38.810 108.728  1.00  0.00    -0.048 A 
ATOM     14  C   UNL     1      39.757 -38.794 107.554  1.00  0.00     0.004 A 
ATOM     15  C   UNL     1      39.665 -38.835 109.957  1.00  0.00     0.004 A 
ATOM     16  C   UNL     1      41.156 -38.808 107.611  1.00  0.00     0.012 A 
ATOM     17  C   UNL     1      41.065 -38.847 110.007  1.00  0.00     0.012 A 
BRANCH  13  18
ATOM     18  C   UNL     1      37.495 -38.762 108.670  1.00  0.00     0.032 C 
ATOM     19  C   UNL     1      36.998 -38.400 107.278  1.00  0.00     0.009 C 
ENDBRANCH  13  18
ENDBRANCH   6  12
ENDBRANCH   3   5
ENDBRANCH   2   3
ENDBRANCH   1   2
BRANCH   1  20
ATOM     20  C   UNL     1      44.683 -43.325 105.830  1.00  0.00     0.231 C 
BRANCH  20  21
ATOM     21  O   UNL     1      44.203 -42.000 105.609  1.00  0.00    -0.494 OA
BRANCH  21  22
ATOM     22  C   UNL     1      43.944 -41.638 104.315  1.00  0.00     0.119 A 
ATOM     23  C   UNL     1      44.575 -42.443 103.351  1.00  0.00     0.047 A 
ATOM     24  C   UNL     1      43.123 -40.584 103.910  1.00  0.00     0.050 A 
ATOM     25  C   UNL     1      44.408 -42.205 101.983  1.00  0.00     0.008 A 
ATOM     26  C   UNL     1      42.972 -40.346 102.551  1.00  0.00    -0.041 A 
ATOM     27  C   UNL     1      43.612 -41.142 101.592  1.00  0.00    -0.041 A 
ATOM     28  C   UNL     1      42.114 -39.307 101.899  1.00  0.00     0.036 C 
ATOM     29  C   UNL     1      43.239 -40.700 100.198  1.00  0.00     0.031 C 
ATOM     30  C   UNL     1      42.715 -39.273 100.488  1.00  0.00     0.014 C 
BRANCH  29  31
ATOM     31  C   UNL     1      44.394 -40.717  99.198  1.00  0.00     0.131 C 
BRANCH  31  32
ATOM     32  C   UNL     1      44.094 -41.587  98.009  1.00  0.00     0.303 C 
ATOM     33  O   UNL     1      44.739 -42.537  97.600  1.00  0.00    -0.252 OA
BRANCH  32  34
ATOM     34  O   UNL     1      42.976 -41.193  97.369  1.00  0.00    -0.481 OA
ATOM     35  H   UNL     1      43.132 -41.445  96.435  1.00  0.00     0.296 HD
ENDBRANCH  32  34
ENDBRANCH  31  32
ENDBRANCH  29  31
ENDBRANCH  21  22
ENDBRANCH  20  21
ENDBRANCH   1  20
TORSDOF 11
ENDMDL
MODEL 6
REMARK VINA RESULT:    -8.920      4.340      9.180
REMARK INTER + INTRA:         -15.898
REMARK INTER:                 -14.583
REMARK INTRA:                  -1.316
REMARK UNBOUND:                -1.503
REMARK SMILES CCc1ccc(-c2ncc(C)c(N(C)CCCOc3ccc4c(c3)CC[C@H]4CC(=O)O)n2)cc1
REMARK SMILES IDX 16 1 15 2 13 3 14 4 12 5 7 6 8 7 32 8 9 9 10 10 11 11 6 12
REMARK SMILES IDX 3 13 4 14 34 15 5 16 33 17 2 18 1 19 17 20 18 21 19 22 20 23
REMARK SMILES IDX 24 24 21 25 23 26 22 27 25 28 27 29 26 30 28 31 29 32 30 33
REMARK SMILES IDX 31 34
REMARK H PARENT 31 35
ROOT
ATOM      1  C   UNL     1      45.040 -42.260 104.537  1.00  0.00     0.063 C 
ENDROOT
BRANCH   1   2
ATOM      2  C   UNL     1      45.337 -41.474 105.818  1.00  0.00     0.121 C 
BRANCH   2   3
ATOM      3  N   UNL     1      44.400 -41.858 106.882  1.00  0.00    -0.359 N 
ATOM      4  C   UNL     1      44.599 -43.170 107.493  1.00  0.00     0.145 C 
BRANCH   3   5
ATOM      5  C   UNL     1      44.065 -40.843 107.786  1.00  0.00     0.135 A 
ATOM      6  C   UNL     1      42.432 -39.477 108.702  1.00  0.00     0.161 A 
ATOM      7  N   UNL     1      43.275 -38.918 109.585  1.00  0.00    -0.236 NA
ATOM      8  N   UNL     1      42.785 -40.419 107.807  1.00  0.00    -0.211 NA
ATOM      9  C   UNL     1      44.551 -39.332 109.519  1.00  0.00     0.120 A 
ATOM     10  C   UNL     1      45.018 -40.278 108.626  1.00  0.00     0.010 A 
ATOM     11  C   UNL     1      46.472 -40.636 108.617  1.00  0.00     0.050 C 
BRANCH   6  12
ATOM     12  C   UNL     1      41.023 -39.029 108.708  1.00  0.00     0.019 A 
ATOM     13  C   UNL     1      38.314 -38.150 108.718  1.00  0.00    -0.048 A 
ATOM     14  C   UNL     1      38.940 -38.516 107.523  1.00  0.00     0.004 A 
ATOM     15  C   UNL     1      39.043 -38.221 109.908  1.00  0.00     0.004 A 
ATOM     16  C   UNL     1      40.270 -38.950 107.523  1.00  0.00     0.012 A 
ATOM     17  C   UNL     1      40.375 -38.656 109.900  1.00  0.00     0.012 A 
BRANCH  13  18
ATOM     18  C   UNL     1      36.892 -37.651 108.717  1.00  0.00     0.032 C 
ATOM     19  C   UNL     1      36.390 -37.384 110.128  1.00  0.00     0.009 C 
ENDBRANCH  13  18
ENDBRANCH   6  12
ENDBRANCH   3   5
ENDBRANCH   2   3
ENDBRANCH   1   2
BRANCH   1  20
ATOM     20  C   UNL     1      43.699 -41.860 103.928  1.00  0.00     0.231 C 
BRANCH  20  21
ATOM     21  O   UNL     1      43.538 -40.449 104.071  1.00  0.00    -0.494 OA
BRANCH  21  22
ATOM     22  C   UNL     1      42.411 -39.892 103.532  1.00  0.00     0.119 A 
ATOM     23  C   UNL     1      42.611 -39.273 102.285  1.00  0.00     0.047 A 
ATOM     24  C   UNL     1      41.137 -39.909 104.103  1.00  0.00     0.050 A 
ATOM     25  C   UNL     1      41.557 -38.659 101.602  1.00  0.00     0.008 A 
ATOM     26  C   UNL     1      40.099 -39.287 103.423  1.00  0.00    -0.041 A 
ATOM     27  C   UNL     1      40.302 -38.660 102.187  1.00  0.00    -0.041 A 
ATOM     28  C   UNL     1      38.658 -39.224 103.826  1.00  0.00     0.036 C 
ATOM     29  C   UNL     1      39.004 -38.112 101.649  1.00  0.00     0.031 C 
ATOM     30  C   UNL     1      38.157 -38.074 102.943  1.00  0.00     0.014 C 
BRANCH  29  31
ATOM     31  C   UNL     1      39.124 -36.744 100.977  1.00  0.00     0.131 C 
BRANCH  31  32
ATOM     32  C   UNL     1      37.849 -35.954 101.082  1.00  0.00     0.303 C 
ATOM     33  O   UNL     1      36.782 -36.186 100.542  1.00  0.00    -0.252 OA
BRANCH  32  34
ATOM     34  O   UNL     1      37.996 -34.870 101.869  1.00  0.00    -0.481 OA
ATOM     35  H   UNL     1      38.662 -34.322 101.402  1.00  0.00     0.296 HD
ENDBRANCH  32  34
ENDBRANCH  31  32
ENDBRANCH  29  31
ENDBRANCH  21  22
ENDBRANCH  20  21
ENDBRANCH   1  20
TORSDOF 11
ENDMDL
MODEL 7
REMARK VINA RESULT:    -8.918      1.676      2.526
REMARK INTER + INTRA:         -15.894
REMARK INTER:                 -14.794
REMARK INTRA:                  -1.100
REMARK UNBOUND:                -1.503
REMARK SMILES CCc1ccc(-c2ncc(C)c(N(C)CCCOc3ccc4c(c3)CC[C@H]4CC(=O)O)n2)cc1
REMARK SMILES IDX 16 1 15 2 13 3 14 4 12 5 7 6 8 7 32 8 9 9 10 10 11 11 6 12
REMARK SMILES IDX 3 13 4 14 34 15 5 16 33 17 2 18 1 19 17 20 18 21 19 22 20 23
REMARK SMILES IDX 24 24 21 25 23 26 22 27 25 28 27 29 26 30 28 31 29 32 30 33
REMARK SMILES IDX 31 34
REMARK H PARENT 31 35
ROOT
ATOM      1  C   UNL     1      43.180 -39.167 109.491  1.00  0.00     0.063 C 
ENDROOT
BRANCH   1   2
ATOM      2  C   UNL     1      41.695 -39.180 109.113  1.00  0.00     0.121 C 
BRANCH   2   3
ATOM      3  N   UNL     1      41.422 -38.171 108.082  1.00  0.00    -0.359 N 
ATOM      4  C   UNL     1      42.452 -37.160 107.859  1.00  0.00     0.145 C 
BRANCH   3   5
ATOM      5  C   UNL     1      40.820 -38.653 106.912  1.00  0.00     0.135 A 
ATOM      6  C   UNL     1      41.070 -39.475 104.759  1.00  0.00     0.161 A 
ATOM      7  N   UNL     1      39.755 -39.692 104.599  1.00  0.00    -0.236 NA
ATOM      8  N   UNL     1      41.624 -38.965 105.876  1.00  0.00    -0.211 NA
ATOM      9  C   UNL     1      38.972 -39.340 105.633  1.00  0.00     0.120 A 
ATOM     10  C   UNL     1      39.440 -38.793 106.813  1.00  0.00     0.010 A 
ATOM     11  C   UNL     1      38.471 -38.401 107.885  1.00  0.00     0.050 C 
BRANCH   6  12
ATOM     12  C   UNL     1      41.970 -39.811 103.637  1.00  0.00     0.019 A 
ATOM     13  C   UNL     1      43.718 -40.455 101.482  1.00  0.00    -0.048 A 
ATOM     14  C   UNL     1      43.507 -41.364 102.523  1.00  0.00     0.004 A 
ATOM     15  C   UNL     1      43.058 -39.223 101.519  1.00  0.00     0.004 A 
ATOM     16  C   UNL     1      42.644 -41.045 103.578  1.00  0.00     0.012 A 
ATOM     17  C   UNL     1      42.197 -38.911 102.579  1.00  0.00     0.012 A 
BRANCH  13  18
ATOM     18  C   UNL     1      44.671 -40.782 100.362  1.00  0.00     0.032 C 
ATOM     19  C   UNL     1      43.932 -41.063  99.060  1.00  0.00     0.009 C 
ENDBRANCH  13  18
ENDBRANCH   6  12
ENDBRANCH   3   5
ENDBRANCH   2   3
ENDBRANCH   1   2
BRANCH   1  20
ATOM     20  C   UNL     1      43.960 -40.246 108.744  1.00  0.00     0.231 C 
BRANCH  20  21
ATOM     21  O   UNL     1      45.270 -40.327 109.302  1.00  0.00    -0.494 OA
BRANCH  21  22
ATOM     22  C   UNL     1      46.237 -39.538 108.740  1.00  0.00     0.119 A 
ATOM     23  C   UNL     1      46.229 -38.205 109.186  1.00  0.00     0.047 A 
ATOM     24  C   UNL     1      47.192 -39.954 107.811  1.00  0.00     0.050 A 
ATOM     25  C   UNL     1      47.156 -37.273 108.709  1.00  0.00     0.008 A 
ATOM     26  C   UNL     1      48.102 -39.020 107.333  1.00  0.00    -0.041 A 
ATOM     27  C   UNL     1      48.084 -37.689 107.769  1.00  0.00    -0.041 A 
ATOM     28  C   UNL     1      49.228 -39.255 106.375  1.00  0.00     0.036 C 
ATOM     29  C   UNL     1      49.205 -36.905 107.133  1.00  0.00     0.031 C 
ATOM     30  C   UNL     1      49.540 -37.820 105.930  1.00  0.00     0.014 C 
BRANCH  29  31
ATOM     31  C   UNL     1      48.826 -35.486 106.711  1.00  0.00     0.131 C 
BRANCH  31  32
ATOM     32  C   UNL     1      49.271 -34.463 107.720  1.00  0.00     0.303 C 
ATOM     33  O   UNL     1      49.601 -34.653 108.877  1.00  0.00    -0.252 OA
BRANCH  32  34
ATOM     34  O   UNL     1      49.257 -33.217 107.208  1.00  0.00    -0.481 OA
ATOM     35  H   UNL     1      49.877 -32.715 107.779  1.00  0.00     0.296 HD
ENDBRANCH  32  34
ENDBRANCH  31  32
ENDBRANCH  29  31
ENDBRANCH  21  22
ENDBRANCH  20  21
ENDBRANCH   1  20
TORSDOF 11
ENDMDL
MODEL 8
REMARK VINA RESULT:    -8.907      4.199      7.789
REMARK INTER + INTRA:         -15.877
REMARK INTER:                 -14.308
REMARK INTRA:                  -1.569
REMARK UNBOUND:                -1.503
REMARK SMILES CCc1ccc(-c2ncc(C)c(N(C)CCCOc3ccc4c(c3)CC[C@H]4CC(=O)O)n2)cc1
REMARK SMILES IDX 16 1 15 2 13 3 14 4 12 5 7 6 8 7 32 8 9 9 10 10 11 11 6 12
REMARK SMILES IDX 3 13 4 14 34 15 5 16 33 17 2 18 1 19 17 20 18 21 19 22 20 23
REMARK SMILES IDX 24 24 21 25 23 26 22 27 25 28 27 29 26 30 28 31 29 32 30 33
REMARK SMILES IDX 31 34
REMARK H PARENT 31 35
ROOT
ATOM      1  C   UNL     1      44.595 -39.046 108.491  1.00  0.00     0.063 C 
ENDROOT
BRANCH   1   2
ATOM      2  C   UNL     1      44.633 -39.230 106.970  1.00  0.00     0.121 C 
BRANCH   2   3
ATOM      3  N   UNL     1      44.455 -40.646 106.623  1.00  0.00    -0.359 N 
ATOM      4  C   UNL     1      43.975 -41.530 107.682  1.00  0.00     0.145 C 
BRANCH   3   5
ATOM      5  C   UNL     1      43.892 -40.891 105.363  1.00  0.00     0.135 A 
ATOM      6  C   UNL     1      42.218 -40.432 103.827  1.00  0.00     0.161 A 
ATOM      7  N   UNL     1      42.748 -41.227 102.885  1.00  0.00    -0.236 NA
ATOM      8  N   UNL     1      42.750 -40.246 105.051  1.00  0.00    -0.211 NA
ATOM      9  C   UNL     1      43.867 -41.885 103.234  1.00  0.00     0.120 A 
ATOM     10  C   UNL     1      44.480 -41.778 104.468  1.00  0.00     0.010 A 
ATOM     11  C   UNL     1      45.704 -42.589 104.761  1.00  0.00     0.050 C 
BRANCH   6  12
ATOM     12  C   UNL     1      40.967 -39.714 103.506  1.00  0.00     0.019 A 
ATOM     13  C   UNL     1      38.560 -38.318 102.896  1.00  0.00    -0.048 A 
ATOM     14  C   UNL     1      39.704 -38.141 102.112  1.00  0.00     0.004 A 
ATOM     15  C   UNL     1      38.620 -39.191 103.986  1.00  0.00     0.004 A 
ATOM     16  C   UNL     1      40.884 -38.832 102.414  1.00  0.00     0.012 A 
ATOM     17  C   UNL     1      39.804 -39.878 104.282  1.00  0.00     0.012 A 
BRANCH  13  18
ATOM     18  C   UNL     1      37.299 -37.552 102.594  1.00  0.00     0.032 C 
ATOM     19  C   UNL     1      37.523 -36.505 101.511  1.00  0.00     0.009 C 
ENDBRANCH  13  18
ENDBRANCH   6  12
ENDBRANCH   3   5
ENDBRANCH   2   3
ENDBRANCH   1   2
BRANCH   1  20
ATOM     20  C   UNL     1      43.399 -38.203 108.926  1.00  0.00     0.231 C 
BRANCH  20  21
ATOM     21  O   UNL     1      42.381 -38.313 107.933  1.00  0.00    -0.494 OA
BRANCH  21  22
ATOM     22  C   UNL     1      41.089 -38.412 108.373  1.00  0.00     0.119 A 
ATOM     23  C   UNL     1      40.172 -38.824 107.390  1.00  0.00     0.047 A 
ATOM     24  C   UNL     1      40.646 -38.156 109.672  1.00  0.00     0.050 A 
ATOM     25  C   UNL     1      38.813 -38.975 107.681  1.00  0.00     0.008 A 
ATOM     26  C   UNL     1      39.294 -38.297 109.950  1.00  0.00    -0.041 A 
ATOM     27  C   UNL     1      38.380 -38.696 108.967  1.00  0.00    -0.041 A 
ATOM     28  C   UNL     1      38.614 -38.119 111.273  1.00  0.00     0.036 C 
ATOM     29  C   UNL     1      36.992 -38.818 109.547  1.00  0.00     0.031 C 
ATOM     30  C   UNL     1      37.152 -37.973 110.834  1.00  0.00     0.014 C 
BRANCH  29  31
ATOM     31  C   UNL     1      35.877 -38.307 108.635  1.00  0.00     0.131 C 
BRANCH  31  32
ATOM     32  C   UNL     1      36.072 -36.863 108.265  1.00  0.00     0.303 C 
ATOM     33  O   UNL     1      36.033 -35.893 109.002  1.00  0.00    -0.252 OA
BRANCH  32  34
ATOM     34  O   UNL     1      36.294 -36.710 106.945  1.00  0.00    -0.481 OA
ATOM     35  H   UNL     1      36.763 -37.530 106.683  1.00  0.00     0.296 HD
ENDBRANCH  32  34
ENDBRANCH  31  32
ENDBRANCH  29  31
ENDBRANCH  21  22
ENDBRANCH  20  21
ENDBRANCH   1  20
TORSDOF 11
ENDMDL
MODEL 9
REMARK VINA RESULT:    -8.905      3.830      8.548
REMARK INTER + INTRA:         -15.873
REMARK INTER:                 -15.013
REMARK INTRA:                  -0.860
REMARK UNBOUND:                -1.503
REMARK SMILES CCc1ccc(-c2ncc(C)c(N(C)CCCOc3ccc4c(c3)CC[C@H]4CC(=O)O)n2)cc1
REMARK SMILES IDX 16 1 15 2 13 3 14 4 12 5 7 6 8 7 32 8 9 9 10 10 11 11 6 12
REMARK SMILES IDX 3 13 4 14 34 15 5 16 33 17 2 18 1 19 17 20 18 21 19 22 20 23
REMARK SMILES IDX 24 24 21 25 23 26 22 27 25 28 27 29 26 30 28 31 29 32 30 33
REMARK SMILES IDX 31 34
REMARK H PARENT 31 35
ROOT
ATOM      1  C   UNL     1      46.095 -42.180 105.708  1.00  0.00     0.063 C 
ENDROOT
BRANCH   1   2
ATOM      2  C   UNL     1      46.243 -40.937 106.591  1.00  0.00     0.121 C 
BRANCH   2   3
ATOM      3  N   UNL     1      45.438 -41.079 107.812  1.00  0.00    -0.359 N 
ATOM      4  C   UNL     1      45.992 -41.917 108.873  1.00  0.00     0.145 C 
BRANCH   3   5
ATOM      5  C   UNL     1      44.815 -39.908 108.263  1.00  0.00     0.135 A 
ATOM      6  C   UNL     1      42.850 -38.785 108.760  1.00  0.00     0.161 A 
ATOM      7  N   UNL     1      43.488 -37.696 109.216  1.00  0.00    -0.236 NA
ATOM      8  N   UNL     1      43.467 -39.884 108.285  1.00  0.00    -0.211 NA
ATOM      9  C   UNL     1      44.830 -37.733 109.151  1.00  0.00     0.120 A 
ATOM     10  C   UNL     1      45.557 -38.803 108.663  1.00  0.00     0.010 A 
ATOM     11  C   UNL     1      47.050 -38.718 108.602  1.00  0.00     0.050 C 
BRANCH   6  12
ATOM     12  C   UNL     1      41.372 -38.781 108.776  1.00  0.00     0.019 A 
ATOM     13  C   UNL     1      38.524 -38.788 108.806  1.00  0.00    -0.048 A 
ATOM     14  C   UNL     1      39.248 -38.879 109.998  1.00  0.00     0.004 A 
ATOM     15  C   UNL     1      39.223 -38.696 107.599  1.00  0.00     0.004 A 
ATOM     16  C   UNL     1      40.648 -38.872 109.979  1.00  0.00     0.012 A 
ATOM     17  C   UNL     1      40.623 -38.690 107.588  1.00  0.00     0.012 A 
BRANCH  13  18
ATOM     18  C   UNL     1      37.018 -38.828 108.820  1.00  0.00     0.032 C 
ATOM     19  C   UNL     1      36.486 -39.516 110.070  1.00  0.00     0.009 C 
ENDBRANCH  13  18
ENDBRANCH   6  12
ENDBRANCH   3   5
ENDBRANCH   2   3
ENDBRANCH   1   2
BRANCH   1  20
ATOM     20  C   UNL     1      44.642 -42.415 105.303  1.00  0.00     0.231 C 
BRANCH  20  21
ATOM     21  O   UNL     1      44.599 -42.689 103.904  1.00  0.00    -0.494 OA
BRANCH  21  22
ATOM     22  C   UNL     1      43.970 -41.772 103.108  1.00  0.00     0.119 A 
ATOM     23  C   UNL     1      43.184 -40.840 103.807  1.00  0.00     0.047 A 
ATOM     24  C   UNL     1      44.064 -41.697 101.717  1.00  0.00     0.050 A 
ATOM     25  C   UNL     1      42.478 -39.836 103.137  1.00  0.00     0.008 A 
ATOM     26  C   UNL     1      43.351 -40.705 101.057  1.00  0.00    -0.041 A 
ATOM     27  C   UNL     1      42.559 -39.784 101.755  1.00  0.00    -0.041 A 
ATOM     28  C   UNL     1      43.342 -40.415  99.588  1.00  0.00     0.036 C 
ATOM     29  C   UNL     1      41.938 -38.789 100.806  1.00  0.00     0.031 C 
ATOM     30  C   UNL     1      42.079 -39.553  99.467  1.00  0.00     0.014 C 
BRANCH  29  31
ATOM     31  C   UNL     1      40.491 -38.422 101.130  1.00  0.00     0.131 C 
BRANCH  31  32
ATOM     32  C   UNL     1      40.176 -36.999 100.760  1.00  0.00     0.303 C 
ATOM     33  O   UNL     1      40.925 -36.175 100.265  1.00  0.00    -0.252 OA
BRANCH  32  34
ATOM     34  O   UNL     1      38.904 -36.673 101.061  1.00  0.00    -0.481 OA
ATOM     35  H   UNL     1      38.776 -35.794 100.646  1.00  0.00     0.296 HD
ENDBRANCH  32  34
ENDBRANCH  31  32
ENDBRANCH  29  31
ENDBRANCH  21  22
ENDBRANCH  20  21
ENDBRANCH   1  20
TORSDOF 11
ENDMDL
