REMARK VINA RESULT:    -8.078      2.586      5.077
REMARK INTER + INTRA:         -15.638
REMARK INTER:                 -15.033
REMARK INTRA:                  -0.605
REMARK UNBOUND:                -1.656
REMARK SMILES CCCc1c(OCCCn2ccc3cc(OC(C)(C)C(=O)O)ccc32)ccc2c(C(=O)c3ccccc3)cccc12
REMARK SMILES IDX 8 1 7 2 6 3 5 4 4 5 41 6 26 7 40 8 28 9 27 10 39 11 29 12
REMARK SMILES IDX 38 13 3 14 2 15 1 16 30 17 31 18 32 19 33 20 37 21 34 22
REMARK SMILES IDX 36 23 35 24 9 25 10 26 11 27 25 28 12 29 24 30 13 31 23 32
REMARK SMILES IDX 14 33 15 34 16 35 17 36 18 37 19 38 20 39 21 40 22 41
REMARK H PARENT 22 42
ROOT
ATOM      1  C   UNL     1       9.817   3.910  -9.107  1.00  0.00     0.063 C 
ENDROOT
BRANCH   1   2
ATOM      2  C   UNL     1      10.787   4.226 -10.243  1.00  0.00     0.231 C 
BRANCH   2   3
ATOM      3  O   UNL     1      10.203   5.238 -11.061  1.00  0.00    -0.493 OA
BRANCH   3   4
ATOM      4  C   UNL     1      10.228   6.532 -10.611  1.00  0.00     0.123 A 
ATOM      5  C   UNL     1      10.443   7.529 -11.589  1.00  0.00     0.002 A 
ATOM      6  C   UNL     1      10.456   8.913 -11.215  1.00  0.00    -0.011 A 
ATOM      7  C   UNL     1      10.057   6.893  -9.280  1.00  0.00     0.047 A 
ATOM      8  C   UNL     1      10.645   9.969 -12.143  1.00  0.00     0.009 A 
ATOM      9  C   UNL     1      10.270   9.265  -9.853  1.00  0.00    -0.007 A 
ATOM     10  C   UNL     1      10.076   8.237  -8.909  1.00  0.00     0.013 A 
ATOM     11  C   UNL     1      10.647  11.315 -11.765  1.00  0.00     0.001 A 
ATOM     12  C   UNL     1      10.291  10.636  -9.491  1.00  0.00     0.030 A 
ATOM     13  C   UNL     1      10.467  11.653 -10.434  1.00  0.00     0.013 A 
BRANCH   5  14
ATOM     14  C   UNL     1      10.641   7.102 -13.039  1.00  0.00     0.040 C 
BRANCH  14  15
ATOM     15  C   UNL     1      12.040   6.553 -13.342  1.00  0.00     0.001 C 
ATOM     16  C   UNL     1      13.165   7.488 -12.924  1.00  0.00     0.004 C 
ENDBRANCH  14  15
ENDBRANCH   5  14
BRANCH  12  17
ATOM     17  C   UNL     1      10.122  11.060  -8.086  1.00  0.00     0.193 C 
ATOM     18  O   UNL     1       9.389  10.397  -7.360  1.00  0.00    -0.289 OA
BRANCH  17  19
ATOM     19  C   UNL     1      10.822  12.272  -7.574  1.00  0.00     0.023 A 
ATOM     20  C   UNL     1      12.188  12.273  -7.263  1.00  0.00     0.012 A 
ATOM     21  C   UNL     1      10.073  13.442  -7.387  1.00  0.00     0.012 A 
ATOM     22  C   UNL     1      12.795  13.436  -6.780  1.00  0.00     0.001 A 
ATOM     23  C   UNL     1      10.683  14.601  -6.906  1.00  0.00     0.001 A 
ATOM     24  C   UNL     1      12.044  14.597  -6.603  1.00  0.00     0.000 A 
ENDBRANCH  17  19
ENDBRANCH  12  17
ENDBRANCH   3   4
ENDBRANCH   2   3
ENDBRANCH   1   2
BRANCH   1  25
ATOM     25  C   UNL     1      10.341   4.309  -7.726  1.00  0.00     0.125 C 
BRANCH  25  26
ATOM     26  N   UNL     1       9.408   4.021  -6.651  1.00  0.00    -0.347 N 
ATOM     27  C   UNL     1       9.558   2.993  -5.754  1.00  0.00     0.087 A 
ATOM     28  C   UNL     1       8.239   4.708  -6.393  1.00  0.00     0.048 A 
ATOM     29  C   UNL     1       8.485   3.021  -4.895  1.00  0.00     0.028 A 
ATOM     30  C   UNL     1       7.647   5.808  -7.032  1.00  0.00     0.031 A 
ATOM     31  C   UNL     1       7.644   4.097  -5.288  1.00  0.00     0.003 A 
ATOM     32  C   UNL     1       6.427   6.290  -6.534  1.00  0.00     0.048 A 
ATOM     33  C   UNL     1       6.420   4.606  -4.810  1.00  0.00     0.056 A 
ATOM     34  C   UNL     1       5.814   5.706  -5.432  1.00  0.00     0.121 A 
BRANCH  34  35
ATOM     35  O   UNL     1       4.635   6.077  -4.853  1.00  0.00    -0.476 OA
BRANCH  35  36
ATOM     36  C   UNL     1       4.245   7.445  -4.687  1.00  0.00     0.199 C 
ATOM     37  C   UNL     1       5.311   8.219  -3.895  1.00  0.00     0.069 C 
ATOM     38  C   UNL     1       2.980   7.364  -3.811  1.00  0.00     0.069 C 
BRANCH  36  39
ATOM     39  C   UNL     1       3.793   8.171  -5.971  1.00  0.00     0.347 C 
ATOM     40  O   UNL     1       4.316   9.143  -6.494  1.00  0.00    -0.248 OA
BRANCH  39  41
ATOM     41  O   UNL     1       2.721   7.605  -6.567  1.00  0.00    -0.478 OA
ATOM     42  H   UNL     1       2.538   6.820  -6.009  1.00  0.00     0.296 HD
ENDBRANCH  39  41
ENDBRANCH  36  39
ENDBRANCH  35  36
ENDBRANCH  34  35
ENDBRANCH  25  26
ENDBRANCH   1  25
TORSDOF 13
