REMARK SMILES CN(C)CCN(C)c1ccc2cc1COCC=CCOCc1cccc(c1)-c1ccnc(n1)N2
REMARK SMILES IDX 5 1 4 2 2 3 1 4 3 5 6 6 7 7 8 8 9 9 13 10 10 11 12 12 14 13
REMARK SMILES IDX 11 14 15 15 34 16 16 17 32 18 17 19 31 20 33 21 18 22 30 23
REMARK SMILES IDX 28 24 19 25 29 26 26 27 20 28 25 29 27 30 21 31 24 32 22 33
REMARK SMILES IDX 23 34
REMARK H PARENT 34 35
REMARK INDEX MAP 5 1 4 2 2 3 1 4 3 5 6 6 7 7 8 8 9 9 13 10 10 11 12 12 14 13
REMARK INDEX MAP 11 14 15 15 34 16 16 17 32 18 17 19 31 20 33 21 18 22 30 23
REMARK INDEX MAP 28 24 19 25 29 26 26 27 20 28 25 29 27 30 21 31 24 32 22 33
REMARK INDEX MAP 23 34 67 35
ROOT
ATOM      1  C   UNL     1       6.974 -17.983  19.567  1.00  0.00     0.131 C 
ENDROOT
BRANCH   1   2
ATOM      2  C   UNL     1       5.935 -16.841  19.454  1.00  0.00     0.105 C 
BRANCH   2   3
ATOM      3  N   UNL     1       4.529 -17.303  19.476  1.00  0.00    -0.308 NA
ATOM      4  C   UNL     1       3.875 -17.090  18.183  1.00  0.00     0.105 C 
ATOM      5  C   UNL     1       3.785 -16.604  20.528  1.00  0.00     0.105 C 
ENDBRANCH   2   3
ENDBRANCH   1   2
BRANCH   1   6
ATOM      6  N   UNL     1       7.478 -18.124  20.951  1.00  0.00    -0.373 N 
ATOM      7  C   UNL     1       8.214 -16.996  21.510  1.00  0.00     0.143 C 
BRANCH   6   8
ATOM      8  C   UNL     1       7.925 -19.413  21.270  1.00  0.00     0.042 A 
ATOM      9  C   UNL     1       9.252 -19.802  21.036  1.00  0.00     0.028 A 
ATOM     10  C   UNL     1       7.049 -20.375  21.806  1.00  0.00     0.003 A 
ATOM     11  C   UNL     1       9.699 -21.099  21.320  1.00  0.00     0.028 A 
ATOM     12  C   UNL     1       7.509 -21.688  22.057  1.00  0.00     0.034 A 
ATOM     13  C   UNL     1       5.619 -20.058  22.164  1.00  0.00     0.198 C 
ATOM     14  C   UNL     1       8.836 -22.067  21.839  1.00  0.00     0.041 A 
ATOM     15  O   UNL     1       4.772 -20.324  21.048  1.00  0.00    -0.373 OA
ATOM     16  N   UNL     1       9.323 -23.356  22.074  1.00  0.00    -0.324 N 
ATOM     17  C   UNL     1       4.069 -21.546  21.222  1.00  0.00     0.188 C 
ATOM     18  C   UNL     1       8.953 -24.368  22.956  1.00  0.00     0.227 A 
ATOM     19  C   UNL     1       4.533 -22.525  20.190  1.00  0.00    -0.001 C 
ATOM     20  N   UNL     1       9.777 -24.556  23.997  1.00  0.00    -0.221 NA
ATOM     21  N   UNL     1       7.860 -25.111  22.746  1.00  0.00    -0.213 NA
ATOM     22  C   UNL     1       3.938 -23.667  19.802  1.00  0.00    -0.001 C 
ATOM     23  C   UNL     1       9.452 -25.530  24.865  1.00  0.00     0.117 A 
ATOM     24  C   UNL     1       7.559 -26.093  23.624  1.00  0.00     0.076 A 
ATOM     25  C   UNL     1       2.694 -24.277  20.373  1.00  0.00     0.188 C 
ATOM     26  C   UNL     1       8.349 -26.334  24.727  1.00  0.00     0.049 A 
ATOM     27  C   UNL     1       6.364 -26.894  23.292  1.00  0.00     0.001 A 
ATOM     28  O   UNL     1       3.018 -24.993  21.565  1.00  0.00    -0.373 OA
ATOM     29  C   UNL     1       6.236 -28.242  23.670  1.00  0.00     0.010 A 
ATOM     30  C   UNL     1       5.301 -26.319  22.567  1.00  0.00     0.016 A 
ATOM     31  C   UNL     1       3.077 -26.411  21.377  1.00  0.00     0.196 C 
ATOM     32  C   UNL     1       5.106 -28.988  23.321  1.00  0.00     0.001 A 
ATOM     33  C   UNL     1       4.159 -27.056  22.211  1.00  0.00    -0.022 A 
ATOM     34  C   UNL     1       4.079 -28.400  22.588  1.00  0.00     0.006 A 
ATOM     35  H   UNL     1      10.119 -23.609  21.471  1.00  0.00     0.170 HD
ENDBRANCH   6   8
ENDBRANCH   1   6
TORSDOF 4
