MODEL 1
REMARK VINA RESULT:    -9.325      0.000      0.000
REMARK INTER + INTRA:         -17.949
REMARK INTER:                 -15.866
REMARK INTRA:                  -2.083
REMARK UNBOUND:                -2.083
REMARK SMILES CN(Cc1ccccc1)Cc1ccc(/C=C2\CCc3cc(OCCCCCN4CCCCC4)ccc3C2=O)cc1
REMARK SMILES IDX 22 1 21 2 15 3 16 4 17 5 37 6 18 7 36 8 38 9 19 10 35 11
REMARK SMILES IDX 20 12 34 13 14 14 11 15 12 16 40 17 13 18 39 19 10 20 2 21
REMARK SMILES IDX 1 22 3 23 4 24 5 25 9 26 6 27 8 28 7 29 23 30 24 31 25 32
REMARK SMILES IDX 26 33 27 34 28 35 29 36 33 37 30 38 32 39 31 40
REMARK H PARENT
ROOT
ATOM      1  O   UNL     1     -11.043 -42.786  34.190  1.00  0.00    -0.494 OA
ENDROOT
BRANCH   1   2
ATOM      2  C   UNL     1     -12.257 -42.674  33.572  1.00  0.00     0.119 A 
ATOM      3  C   UNL     1     -17.520 -42.004  29.963  1.00  0.00     0.015 C 
ATOM      4  C   UNL     1     -16.504 -42.575  30.633  1.00  0.00     0.001 C 
ATOM      5  C   UNL     1     -15.636 -43.710  30.176  1.00  0.00     0.044 C 
ATOM      6  C   UNL     1     -16.203 -42.034  31.998  1.00  0.00     0.189 C 
ATOM      7  C   UNL     1     -14.161 -43.361  30.343  1.00  0.00     0.041 C 
ATOM      8  C   UNL     1     -14.838 -42.293  32.537  1.00  0.00     0.026 A 
ATOM      9  O   UNL     1     -17.030 -41.405  32.649  1.00  0.00    -0.289 OA
ATOM     10  C   UNL     1     -13.857 -42.924  31.754  1.00  0.00    -0.033 A 
ATOM     11  C   UNL     1     -14.532 -41.870  33.833  1.00  0.00     0.016 A 
ATOM     12  C   UNL     1     -12.564 -43.102  32.278  1.00  0.00     0.051 A 
ATOM     13  C   UNL     1     -13.248 -42.066  34.345  1.00  0.00     0.047 A 
BRANCH   3  14
ATOM     14  C   UNL     1     -17.955 -42.377  28.616  1.00  0.00    -0.025 A 
ATOM     15  C   UNL     1     -18.818 -43.045  26.018  1.00  0.00    -0.034 A 
ATOM     16  C   UNL     1     -17.454 -43.049  26.341  1.00  0.00     0.005 A 
ATOM     17  C   UNL     1     -19.745 -42.710  27.016  1.00  0.00     0.005 A 
ATOM     18  C   UNL     1     -17.024 -42.710  27.628  1.00  0.00     0.008 A 
ATOM     19  C   UNL     1     -19.317 -42.376  28.304  1.00  0.00     0.008 A 
BRANCH  15  20
ATOM     20  C   UNL     1     -19.282 -43.390  24.617  1.00  0.00     0.120 C 
BRANCH  20  21
ATOM     21  N   UNL     1     -19.077 -42.371  23.576  1.00  0.00    -0.298 NA
ATOM     22  C   UNL     1     -20.330 -41.882  23.006  1.00  0.00     0.106 C 
BRANCH  21  23
ATOM     23  C   UNL     1     -18.130 -42.805  22.539  1.00  0.00     0.120 C 
BRANCH  23  24
ATOM     24  C   UNL     1     -16.700 -42.916  23.032  1.00  0.00    -0.034 A 
ATOM     25  C   UNL     1     -15.989 -41.771  23.416  1.00  0.00     0.005 A 
ATOM     26  C   UNL     1     -16.058 -44.162  23.089  1.00  0.00     0.005 A 
ATOM     27  C   UNL     1     -14.668 -41.871  23.857  1.00  0.00     0.000 A 
ATOM     28  C   UNL     1     -14.738 -44.261  23.532  1.00  0.00     0.000 A 
ATOM     29  C   UNL     1     -14.044 -43.115  23.915  1.00  0.00     0.000 A 
ENDBRANCH  23  24
ENDBRANCH  21  23
ENDBRANCH  20  21
ENDBRANCH  15  20
ENDBRANCH   3  14
ENDBRANCH   1   2
BRANCH   1  30
ATOM     30  C   UNL     1      -9.899 -42.315  33.477  1.00  0.00     0.229 C 
BRANCH  30  31
ATOM     31  C   UNL     1      -9.175 -43.515  32.867  1.00  0.00     0.042 C 
BRANCH  31  32
ATOM     32  C   UNL     1      -7.733 -43.182  32.472  1.00  0.00     0.005 C 
BRANCH  32  33
ATOM     33  C   UNL     1      -7.505 -43.199  30.955  1.00  0.00     0.016 C 
BRANCH  33  34
ATOM     34  C   UNL     1      -8.235 -44.353  30.255  1.00  0.00     0.084 C 
BRANCH  34  35
ATOM     35  N   UNL     1      -9.081 -43.895  29.137  1.00  0.00    -0.303 NA
ATOM     36  C   UNL     1     -10.514 -43.962  29.467  1.00  0.00     0.084 C 
ATOM     37  C   UNL     1      -8.700 -42.522  28.757  1.00  0.00     0.084 C 
ATOM     38  C   UNL     1     -11.383 -43.505  28.293  1.00  0.00     0.016 C 
ATOM     39  C   UNL     1      -9.510 -42.025  27.559  1.00  0.00     0.016 C 
ATOM     40  C   UNL     1     -11.005 -42.103  27.833  1.00  0.00     0.003 C 
ENDBRANCH  34  35
ENDBRANCH  33  34
ENDBRANCH  32  33
ENDBRANCH  31  32
ENDBRANCH  30  31
ENDBRANCH   1  30
TORSDOF 12
ENDMDL
MODEL 2
REMARK VINA RESULT:    -8.644      2.395      5.117
REMARK INTER + INTRA:         -16.791
REMARK INTER:                 -16.196
REMARK INTRA:                  -0.595
REMARK UNBOUND:                -2.083
REMARK SMILES CN(Cc1ccccc1)Cc1ccc(/C=C2\CCc3cc(OCCCCCN4CCCCC4)ccc3C2=O)cc1
REMARK SMILES IDX 22 1 21 2 15 3 16 4 17 5 37 6 18 7 36 8 38 9 19 10 35 11
REMARK SMILES IDX 20 12 34 13 14 14 11 15 12 16 40 17 13 18 39 19 10 20 2 21
REMARK SMILES IDX 1 22 3 23 4 24 5 25 9 26 6 27 8 28 7 29 23 30 24 31 25 32
REMARK SMILES IDX 26 33 27 34 28 35 29 36 33 37 30 38 32 39 31 40
REMARK H PARENT
ROOT
ATOM      1  O   UNL     1      -7.601 -44.499  32.021  1.00  0.00    -0.494 OA
ENDROOT
BRANCH   1   2
ATOM      2  C   UNL     1      -8.424 -44.056  31.023  1.00  0.00     0.119 A 
ATOM      3  C   UNL     1     -12.711 -42.704  26.444  1.00  0.00     0.015 C 
ATOM      4  C   UNL     1     -12.095 -42.732  27.639  1.00  0.00     0.001 C 
ATOM      5  C   UNL     1     -12.731 -42.905  28.987  1.00  0.00     0.044 C 
ATOM      6  C   UNL     1     -10.607 -42.560  27.639  1.00  0.00     0.189 C 
ATOM      7  C   UNL     1     -12.025 -44.001  29.778  1.00  0.00     0.041 C 
ATOM      8  C   UNL     1      -9.872 -43.059  28.835  1.00  0.00     0.026 A 
ATOM      9  O   UNL     1     -10.009 -42.036  26.704  1.00  0.00    -0.289 OA
ATOM     10  C   UNL     1     -10.541 -43.749  29.860  1.00  0.00    -0.033 A 
ATOM     11  C   UNL     1      -8.492 -42.858  28.914  1.00  0.00     0.016 A 
ATOM     12  C   UNL     1      -9.805 -44.254  30.947  1.00  0.00     0.051 A 
ATOM     13  C   UNL     1      -7.776 -43.352  30.006  1.00  0.00     0.047 A 
BRANCH   3  14
ATOM     14  C   UNL     1     -14.150 -42.872  26.234  1.00  0.00    -0.025 A 
ATOM     15  C   UNL     1     -16.929 -43.154  25.867  1.00  0.00    -0.034 A 
ATOM     16  C   UNL     1     -16.087 -42.891  24.778  1.00  0.00     0.005 A 
ATOM     17  C   UNL     1     -16.359 -43.283  27.142  1.00  0.00     0.005 A 
ATOM     18  C   UNL     1     -14.709 -42.743  24.960  1.00  0.00     0.008 A 
ATOM     19  C   UNL     1     -14.981 -43.140  27.325  1.00  0.00     0.008 A 
BRANCH  15  20
ATOM     20  C   UNL     1     -18.426 -43.292  25.674  1.00  0.00     0.120 C 
BRANCH  20  21
ATOM     21  N   UNL     1     -19.090 -42.264  24.857  1.00  0.00    -0.298 NA
ATOM     22  C   UNL     1     -20.255 -41.680  25.519  1.00  0.00     0.106 C 
BRANCH  21  23
ATOM     23  C   UNL     1     -19.403 -42.735  23.500  1.00  0.00     0.120 C 
BRANCH  23  24
ATOM     24  C   UNL     1     -19.423 -41.629  22.464  1.00  0.00    -0.034 A 
ATOM     25  C   UNL     1     -20.591 -41.352  21.740  1.00  0.00     0.005 A 
ATOM     26  C   UNL     1     -18.267 -40.880  22.194  1.00  0.00     0.005 A 
ATOM     27  C   UNL     1     -20.607 -40.342  20.776  1.00  0.00     0.000 A 
ATOM     28  C   UNL     1     -18.285 -39.870  21.231  1.00  0.00     0.000 A 
ATOM     29  C   UNL     1     -19.454 -39.602  20.523  1.00  0.00     0.000 A 
ENDBRANCH  23  24
ENDBRANCH  21  23
ENDBRANCH  20  21
ENDBRANCH  15  20
ENDBRANCH   3  14
ENDBRANCH   1   2
BRANCH   1  30
ATOM     30  C   UNL     1      -7.472 -43.673  33.178  1.00  0.00     0.229 C 
BRANCH  30  31
ATOM     31  C   UNL     1      -8.629 -42.674  33.198  1.00  0.00     0.042 C 
BRANCH  31  32
ATOM     32  C   UNL     1      -9.071 -42.330  34.624  1.00  0.00     0.005 C 
BRANCH  32  33
ATOM     33  C   UNL     1     -10.581 -42.088  34.744  1.00  0.00     0.016 C 
BRANCH  33  34
ATOM     34  C   UNL     1     -11.310 -42.182  33.397  1.00  0.00     0.084 C 
BRANCH  34  35
ATOM     35  N   UNL     1     -12.760 -42.407  33.549  1.00  0.00    -0.303 NA
ATOM     36  C   UNL     1     -13.328 -41.609  34.647  1.00  0.00     0.084 C 
ATOM     37  C   UNL     1     -13.445 -42.105  32.279  1.00  0.00     0.084 C 
ATOM     38  C   UNL     1     -14.829 -41.866  34.811  1.00  0.00     0.016 C 
ATOM     39  C   UNL     1     -14.946 -42.385  32.370  1.00  0.00     0.016 C 
ATOM     40  C   UNL     1     -15.583 -41.608  33.514  1.00  0.00     0.003 C 
ENDBRANCH  34  35
ENDBRANCH  33  34
ENDBRANCH  32  33
ENDBRANCH  31  32
ENDBRANCH  30  31
ENDBRANCH   1  30
TORSDOF 12
ENDMDL
MODEL 3
REMARK VINA RESULT:    -7.657      1.755      8.981
REMARK INTER + INTRA:         -15.112
REMARK INTER:                 -11.743
REMARK INTRA:                  -3.369
REMARK UNBOUND:                -2.083
REMARK SMILES CN(Cc1ccccc1)Cc1ccc(/C=C2\CCc3cc(OCCCCCN4CCCCC4)ccc3C2=O)cc1
REMARK SMILES IDX 22 1 21 2 15 3 16 4 17 5 37 6 18 7 36 8 38 9 19 10 35 11
REMARK SMILES IDX 20 12 34 13 14 14 11 15 12 16 40 17 13 18 39 19 10 20 2 21
REMARK SMILES IDX 1 22 3 23 4 24 5 25 9 26 6 27 8 28 7 29 23 30 24 31 25 32
REMARK SMILES IDX 26 33 27 34 28 35 29 36 33 37 30 38 32 39 31 40
REMARK H PARENT
ROOT
ATOM      1  O   UNL     1     -19.414 -43.328  26.360  1.00  0.00    -0.494 OA
ENDROOT
BRANCH   1   2
ATOM      2  C   UNL     1     -18.546 -43.184  27.406  1.00  0.00     0.119 A 
ATOM      3  C   UNL     1     -14.112 -43.225  32.044  1.00  0.00     0.015 C 
ATOM      4  C   UNL     1     -14.741 -42.938  30.891  1.00  0.00     0.001 C 
ATOM      5  C   UNL     1     -14.136 -42.858  29.519  1.00  0.00     0.044 C 
ATOM      6  C   UNL     1     -16.210 -42.653  30.972  1.00  0.00     0.189 C 
ATOM      7  C   UNL     1     -14.940 -43.692  28.527  1.00  0.00     0.041 C 
ATOM      8  C   UNL     1     -16.996 -42.815  29.717  1.00  0.00     0.026 A 
ATOM      9  O   UNL     1     -16.752 -42.304  32.015  1.00  0.00    -0.289 OA
ATOM     10  C   UNL     1     -16.399 -43.311  28.546  1.00  0.00    -0.033 A 
ATOM     11  C   UNL     1     -18.356 -42.493  29.724  1.00  0.00     0.016 A 
ATOM     12  C   UNL     1     -17.186 -43.502  27.396  1.00  0.00     0.051 A 
ATOM     13  C   UNL     1     -19.122 -42.674  28.571  1.00  0.00     0.047 A 
BRANCH   3  14
ATOM     14  C   UNL     1     -12.690 -43.549  32.169  1.00  0.00    -0.025 A 
ATOM     15  C   UNL     1      -9.953 -44.189  32.356  1.00  0.00    -0.034 A 
ATOM     16  C   UNL     1     -10.407 -42.897  32.653  1.00  0.00     0.005 A 
ATOM     17  C   UNL     1     -10.890 -45.159  31.973  1.00  0.00     0.005 A 
ATOM     18  C   UNL     1     -11.763 -42.576  32.553  1.00  0.00     0.008 A 
ATOM     19  C   UNL     1     -12.247 -44.842  31.877  1.00  0.00     0.008 A 
BRANCH  15  20
ATOM     20  C   UNL     1      -8.478 -44.530  32.443  1.00  0.00     0.120 C 
BRANCH  20  21
ATOM     21  N   UNL     1      -7.854 -45.098  31.238  1.00  0.00    -0.298 NA
ATOM     22  C   UNL     1      -6.691 -45.930  31.540  1.00  0.00     0.106 C 
BRANCH  21  23
ATOM     23  C   UNL     1      -7.555 -44.078  30.222  1.00  0.00     0.120 C 
BRANCH  23  24
ATOM     24  C   UNL     1      -8.765 -43.656  29.413  1.00  0.00    -0.034 A 
ATOM     25  C   UNL     1      -8.936 -42.316  29.035  1.00  0.00     0.005 A 
ATOM     26  C   UNL     1      -9.746 -44.591  29.050  1.00  0.00     0.005 A 
ATOM     27  C   UNL     1     -10.057 -41.924  28.302  1.00  0.00     0.000 A 
ATOM     28  C   UNL     1     -10.865 -44.197  28.315  1.00  0.00     0.000 A 
ATOM     29  C   UNL     1     -11.020 -42.864  27.942  1.00  0.00     0.000 A 
ENDBRANCH  23  24
ENDBRANCH  21  23
ENDBRANCH  20  21
ENDBRANCH  15  20
ENDBRANCH   3  14
ENDBRANCH   1   2
BRANCH   1  30
ATOM     30  C   UNL     1     -18.906 -43.080  25.049  1.00  0.00     0.229 C 
BRANCH  30  31
ATOM     31  C   UNL     1     -19.487 -41.761  24.540  1.00  0.00     0.042 C 
BRANCH  31  32
ATOM     32  C   UNL     1     -18.882 -41.342  23.196  1.00  0.00     0.005 C 
BRANCH  32  33
ATOM     33  C   UNL     1     -17.755 -42.270  22.728  1.00  0.00     0.016 C 
BRANCH  33  34
ATOM     34  C   UNL     1     -16.378 -41.594  22.746  1.00  0.00     0.084 C 
BRANCH  34  35
ATOM     35  N   UNL     1     -15.319 -42.475  23.274  1.00  0.00    -0.303 NA
ATOM     36  C   UNL     1     -15.060 -42.229  24.702  1.00  0.00     0.084 C 
ATOM     37  C   UNL     1     -15.688 -43.884  23.048  1.00  0.00     0.084 C 
ATOM     38  C   UNL     1     -13.945 -43.134  25.234  1.00  0.00     0.016 C 
ATOM     39  C   UNL     1     -14.590 -44.836  23.524  1.00  0.00     0.016 C 
ATOM     40  C   UNL     1     -14.257 -44.604  24.991  1.00  0.00     0.003 C 
ENDBRANCH  34  35
ENDBRANCH  33  34
ENDBRANCH  32  33
ENDBRANCH  31  32
ENDBRANCH  30  31
ENDBRANCH   1  30
TORSDOF 12
ENDMDL
MODEL 4
REMARK VINA RESULT:    -7.561      2.848     10.572
REMARK INTER + INTRA:         -14.947
REMARK INTER:                 -12.734
REMARK INTRA:                  -2.213
REMARK UNBOUND:                -2.083
REMARK SMILES CN(Cc1ccccc1)Cc1ccc(/C=C2\CCc3cc(OCCCCCN4CCCCC4)ccc3C2=O)cc1
REMARK SMILES IDX 22 1 21 2 15 3 16 4 17 5 37 6 18 7 36 8 38 9 19 10 35 11
REMARK SMILES IDX 20 12 34 13 14 14 11 15 12 16 40 17 13 18 39 19 10 20 2 21
REMARK SMILES IDX 1 22 3 23 4 24 5 25 9 26 6 27 8 28 7 29 23 30 24 31 25 32
REMARK SMILES IDX 26 33 27 34 28 35 29 36 33 37 30 38 32 39 31 40
REMARK H PARENT
ROOT
ATOM      1  O   UNL     1     -17.305 -41.710  21.677  1.00  0.00    -0.494 OA
ENDROOT
BRANCH   1   2
ATOM      2  C   UNL     1     -16.585 -42.280  22.689  1.00  0.00     0.119 A 
ATOM      3  C   UNL     1     -12.809 -44.212  27.504  1.00  0.00     0.015 C 
ATOM      4  C   UNL     1     -13.879 -43.744  26.839  1.00  0.00     0.001 C 
ATOM      5  C   UNL     1     -14.759 -42.591  27.227  1.00  0.00     0.044 C 
ATOM      6  C   UNL     1     -14.254 -44.451  25.572  1.00  0.00     0.189 C 
ATOM      7  C   UNL     1     -14.929 -41.626  26.058  1.00  0.00     0.041 C 
ATOM      8  C   UNL     1     -15.087 -43.690  24.599  1.00  0.00     0.026 A 
ATOM      9  O   UNL     1     -13.897 -45.600  25.334  1.00  0.00    -0.289 OA
ATOM     10  C   UNL     1     -15.413 -42.342  24.822  1.00  0.00    -0.033 A 
ATOM     11  C   UNL     1     -15.521 -44.330  23.435  1.00  0.00     0.016 A 
ATOM     12  C   UNL     1     -16.155 -41.641  23.854  1.00  0.00     0.051 A 
ATOM     13  C   UNL     1     -16.270 -43.625  22.490  1.00  0.00     0.047 A 
BRANCH   3  14
ATOM     14  C   UNL     1     -12.276 -43.649  28.745  1.00  0.00    -0.025 A 
ATOM     15  C   UNL     1     -11.245 -42.513  31.108  1.00  0.00    -0.034 A 
ATOM     16  C   UNL     1     -12.497 -43.143  31.105  1.00  0.00     0.005 A 
ATOM     17  C   UNL     1     -10.512 -42.467  29.914  1.00  0.00     0.005 A 
ATOM     18  C   UNL     1     -13.012 -43.700  29.931  1.00  0.00     0.008 A 
ATOM     19  C   UNL     1     -11.024 -43.027  28.741  1.00  0.00     0.008 A 
BRANCH  15  20
ATOM     20  C   UNL     1     -10.696 -41.889  32.376  1.00  0.00     0.120 C 
BRANCH  20  21
ATOM     21  N   UNL     1     -10.199 -42.809  33.411  1.00  0.00    -0.298 NA
ATOM     22  C   UNL     1     -10.295 -42.253  34.759  1.00  0.00     0.106 C 
BRANCH  21  23
ATOM     23  C   UNL     1      -8.851 -43.316  33.117  1.00  0.00     0.120 C 
BRANCH  23  24
ATOM     24  C   UNL     1      -8.845 -44.553  32.241  1.00  0.00    -0.034 A 
ATOM     25  C   UNL     1     -10.030 -45.265  32.008  1.00  0.00     0.005 A 
ATOM     26  C   UNL     1      -7.652 -45.021  31.670  1.00  0.00     0.005 A 
ATOM     27  C   UNL     1     -10.024 -46.413  31.213  1.00  0.00     0.000 A 
ATOM     28  C   UNL     1      -7.648 -46.167  30.874  1.00  0.00     0.000 A 
ATOM     29  C   UNL     1      -8.834 -46.862  30.646  1.00  0.00     0.000 A 
ENDBRANCH  23  24
ENDBRANCH  21  23
ENDBRANCH  20  21
ENDBRANCH  15  20
ENDBRANCH   3  14
ENDBRANCH   1   2
BRANCH   1  30
ATOM     30  C   UNL     1     -18.365 -40.827  22.044  1.00  0.00     0.229 C 
BRANCH  30  31
ATOM     31  C   UNL     1     -19.633 -41.650  22.266  1.00  0.00     0.042 C 
BRANCH  31  32
ATOM     32  C   UNL     1     -20.455 -41.139  23.454  1.00  0.00     0.005 C 
BRANCH  32  33
ATOM     33  C   UNL     1     -20.616 -42.181  24.567  1.00  0.00     0.016 C 
BRANCH  33  34
ATOM     34  C   UNL     1     -19.321 -42.955  24.853  1.00  0.00     0.084 C 
BRANCH  34  35
ATOM     35  N   UNL     1     -19.258 -43.466  26.235  1.00  0.00    -0.303 NA
ATOM     36  C   UNL     1     -18.618 -42.506  27.148  1.00  0.00     0.084 C 
ATOM     37  C   UNL     1     -20.616 -43.801  26.703  1.00  0.00     0.084 C 
ATOM     38  C   UNL     1     -18.538 -43.056  28.575  1.00  0.00     0.016 C 
ATOM     39  C   UNL     1     -20.594 -44.396  28.111  1.00  0.00     0.016 C 
ATOM     40  C   UNL     1     -19.912 -43.456  29.095  1.00  0.00     0.003 C 
ENDBRANCH  34  35
ENDBRANCH  33  34
ENDBRANCH  32  33
ENDBRANCH  31  32
ENDBRANCH  30  31
ENDBRANCH   1  30
TORSDOF 12
ENDMDL
MODEL 5
REMARK VINA RESULT:    -7.520      2.296      5.162
REMARK INTER + INTRA:         -14.879
REMARK INTER:                 -14.984
REMARK INTRA:                   0.105
REMARK UNBOUND:                -2.083
REMARK SMILES CN(Cc1ccccc1)Cc1ccc(/C=C2\CCc3cc(OCCCCCN4CCCCC4)ccc3C2=O)cc1
REMARK SMILES IDX 22 1 21 2 15 3 16 4 17 5 37 6 18 7 36 8 38 9 19 10 35 11
REMARK SMILES IDX 20 12 34 13 14 14 11 15 12 16 40 17 13 18 39 19 10 20 2 21
REMARK SMILES IDX 1 22 3 23 4 24 5 25 9 26 6 27 8 28 7 29 23 30 24 31 25 32
REMARK SMILES IDX 26 33 27 34 28 35 29 36 33 37 30 38 32 39 31 40
REMARK H PARENT
ROOT
ATOM      1  O   UNL     1      -8.087 -43.918  32.651  1.00  0.00    -0.494 OA
ENDROOT
BRANCH   1   2
ATOM      2  C   UNL     1      -8.799 -43.587  31.532  1.00  0.00     0.119 A 
ATOM      3  C   UNL     1     -12.599 -42.727  26.433  1.00  0.00     0.015 C 
ATOM      4  C   UNL     1     -12.096 -42.617  27.675  1.00  0.00     0.001 C 
ATOM      5  C   UNL     1     -12.858 -42.602  28.968  1.00  0.00     0.044 C 
ATOM      6  C   UNL     1     -10.609 -42.482  27.796  1.00  0.00     0.189 C 
ATOM      7  C   UNL     1     -12.267 -43.605  29.953  1.00  0.00     0.041 C 
ATOM      8  C   UNL     1     -10.005 -42.842  29.109  1.00  0.00     0.026 A 
ATOM      9  O   UNL     1      -9.910 -42.095  26.864  1.00  0.00    -0.289 OA
ATOM     10  C   UNL     1     -10.788 -43.380  30.144  1.00  0.00    -0.033 A 
ATOM     11  C   UNL     1      -8.631 -42.666  29.293  1.00  0.00     0.016 A 
ATOM     12  C   UNL     1     -10.173 -43.759  31.351  1.00  0.00     0.051 A 
ATOM     13  C   UNL     1      -8.036 -43.033  30.502  1.00  0.00     0.047 A 
BRANCH   3  14
ATOM     14  C   UNL     1     -14.017 -42.887  26.110  1.00  0.00    -0.025 A 
ATOM     15  C   UNL     1     -16.760 -43.150  25.524  1.00  0.00    -0.034 A 
ATOM     16  C   UNL     1     -15.831 -42.913  24.503  1.00  0.00     0.005 A 
ATOM     17  C   UNL     1     -16.297 -43.262  26.843  1.00  0.00     0.005 A 
ATOM     18  C   UNL     1     -14.471 -42.774  24.793  1.00  0.00     0.008 A 
ATOM     19  C   UNL     1     -14.937 -43.129  27.134  1.00  0.00     0.008 A 
BRANCH  15  20
ATOM     20  C   UNL     1     -18.239 -43.279  25.212  1.00  0.00     0.120 C 
BRANCH  20  21
ATOM     21  N   UNL     1     -19.141 -42.305  25.846  1.00  0.00    -0.298 NA
ATOM     22  C   UNL     1     -19.282 -42.517  27.285  1.00  0.00     0.106 C 
BRANCH  21  23
ATOM     23  C   UNL     1     -20.443 -42.217  25.170  1.00  0.00     0.120 C 
BRANCH  23  24
ATOM     24  C   UNL     1     -20.338 -41.891  23.693  1.00  0.00    -0.034 A 
ATOM     25  C   UNL     1     -20.001 -40.597  23.272  1.00  0.00     0.005 A 
ATOM     26  C   UNL     1     -20.600 -42.871  22.724  1.00  0.00     0.005 A 
ATOM     27  C   UNL     1     -19.918 -40.292  21.912  1.00  0.00     0.000 A 
ATOM     28  C   UNL     1     -20.514 -42.565  21.364  1.00  0.00     0.000 A 
ATOM     29  C   UNL     1     -20.174 -41.276  20.960  1.00  0.00     0.000 A 
ENDBRANCH  23  24
ENDBRANCH  21  23
ENDBRANCH  20  21
ENDBRANCH  15  20
ENDBRANCH   3  14
ENDBRANCH   1   2
BRANCH   1  30
ATOM     30  C   UNL     1      -8.136 -43.009  33.751  1.00  0.00     0.229 C 
BRANCH  30  31
ATOM     31  C   UNL     1      -9.357 -42.105  33.585  1.00  0.00     0.042 C 
BRANCH  31  32
ATOM     32  C   UNL     1     -10.501 -42.499  34.525  1.00  0.00     0.005 C 
BRANCH  32  33
ATOM     33  C   UNL     1     -11.674 -41.512  34.493  1.00  0.00     0.016 C 
BRANCH  33  34
ATOM     34  C   UNL     1     -13.039 -42.202  34.623  1.00  0.00     0.084 C 
BRANCH  34  35
ATOM     35  N   UNL     1     -13.870 -42.050  33.414  1.00  0.00    -0.303 NA
ATOM     36  C   UNL     1     -14.233 -43.351  32.828  1.00  0.00     0.084 C 
ATOM     37  C   UNL     1     -15.079 -41.271  33.738  1.00  0.00     0.084 C 
ATOM     38  C   UNL     1     -15.077 -43.181  31.562  1.00  0.00     0.016 C 
ATOM     39  C   UNL     1     -15.943 -41.033  32.499  1.00  0.00     0.016 C 
ATOM     40  C   UNL     1     -16.323 -42.347  31.831  1.00  0.00     0.003 C 
ENDBRANCH  34  35
ENDBRANCH  33  34
ENDBRANCH  32  33
ENDBRANCH  31  32
ENDBRANCH  30  31
ENDBRANCH   1  30
TORSDOF 12
ENDMDL
MODEL 6
REMARK VINA RESULT:    -7.469      2.323      5.326
REMARK INTER + INTRA:         -14.791
REMARK INTER:                 -14.518
REMARK INTRA:                  -0.273
REMARK UNBOUND:                -2.083
REMARK SMILES CN(Cc1ccccc1)Cc1ccc(/C=C2\CCc3cc(OCCCCCN4CCCCC4)ccc3C2=O)cc1
REMARK SMILES IDX 22 1 21 2 15 3 16 4 17 5 37 6 18 7 36 8 38 9 19 10 35 11
REMARK SMILES IDX 20 12 34 13 14 14 11 15 12 16 40 17 13 18 39 19 10 20 2 21
REMARK SMILES IDX 1 22 3 23 4 24 5 25 9 26 6 27 8 28 7 29 23 30 24 31 25 32
REMARK SMILES IDX 26 33 27 34 28 35 29 36 33 37 30 38 32 39 31 40
REMARK H PARENT
ROOT
ATOM      1  O   UNL     1      -7.127 -45.217  31.611  1.00  0.00    -0.494 OA
ENDROOT
BRANCH   1   2
ATOM      2  C   UNL     1      -7.979 -44.583  30.750  1.00  0.00     0.119 A 
ATOM      3  C   UNL     1     -12.220 -42.377  26.470  1.00  0.00     0.015 C 
ATOM      4  C   UNL     1     -11.678 -42.761  27.640  1.00  0.00     0.001 C 
ATOM      5  C   UNL     1     -12.324 -43.584  28.715  1.00  0.00     0.044 C 
ATOM      6  C   UNL     1     -10.276 -42.313  27.917  1.00  0.00     0.189 C 
ATOM      7  C   UNL     1     -11.420 -44.743  29.122  1.00  0.00     0.041 C 
ATOM      8  C   UNL     1      -9.507 -43.096  28.924  1.00  0.00     0.026 A 
ATOM      9  O   UNL     1      -9.772 -41.351  27.347  1.00  0.00    -0.289 OA
ATOM     10  C   UNL     1     -10.044 -44.258  29.504  1.00  0.00    -0.033 A 
ATOM     11  C   UNL     1      -8.219 -42.676  29.269  1.00  0.00     0.016 A 
ATOM     12  C   UNL     1      -9.267 -45.001  30.410  1.00  0.00     0.051 A 
ATOM     13  C   UNL     1      -7.465 -43.416  30.181  1.00  0.00     0.047 A 
BRANCH   3  14
ATOM     14  C   UNL     1     -13.565 -42.727  26.010  1.00  0.00    -0.025 A 
ATOM     15  C   UNL     1     -16.172 -43.352  25.147  1.00  0.00    -0.034 A 
ATOM     16  C   UNL     1     -15.116 -43.273  24.230  1.00  0.00     0.005 A 
ATOM     17  C   UNL     1     -15.904 -43.123  26.504  1.00  0.00     0.005 A 
ATOM     18  C   UNL     1     -13.823 -42.955  24.656  1.00  0.00     0.008 A 
ATOM     19  C   UNL     1     -14.612 -42.810  26.932  1.00  0.00     0.008 A 
BRANCH  15  20
ATOM     20  C   UNL     1     -17.579 -43.675  24.682  1.00  0.00     0.120 C 
BRANCH  20  21
ATOM     21  N   UNL     1     -18.338 -42.586  24.049  1.00  0.00    -0.298 NA
ATOM     22  C   UNL     1     -17.484 -41.635  23.341  1.00  0.00     0.106 C 
BRANCH  21  23
ATOM     23  C   UNL     1     -19.254 -41.917  24.985  1.00  0.00     0.120 C 
BRANCH  23  24
ATOM     24  C   UNL     1     -19.623 -42.767  26.184  1.00  0.00    -0.034 A 
ATOM     25  C   UNL     1     -20.264 -44.002  26.010  1.00  0.00     0.005 A 
ATOM     26  C   UNL     1     -19.354 -42.323  27.487  1.00  0.00     0.005 A 
ATOM     27  C   UNL     1     -20.617 -44.780  27.115  1.00  0.00     0.000 A 
ATOM     28  C   UNL     1     -19.706 -43.103  28.590  1.00  0.00     0.000 A 
ATOM     29  C   UNL     1     -20.337 -44.330  28.403  1.00  0.00     0.000 A 
ENDBRANCH  23  24
ENDBRANCH  21  23
ENDBRANCH  20  21
ENDBRANCH  15  20
ENDBRANCH   3  14
ENDBRANCH   1   2
BRANCH   1  30
ATOM     30  C   UNL     1      -6.965 -44.649  32.910  1.00  0.00     0.229 C 
BRANCH  30  31
ATOM     31  C   UNL     1      -7.293 -43.158  32.837  1.00  0.00     0.042 C 
BRANCH  31  32
ATOM     32  C   UNL     1      -8.468 -42.777  33.743  1.00  0.00     0.005 C 
BRANCH  32  33
ATOM     33  C   UNL     1      -9.788 -42.613  32.979  1.00  0.00     0.016 C 
BRANCH  33  34
ATOM     34  C   UNL     1     -10.868 -41.898  33.803  1.00  0.00     0.084 C 
BRANCH  34  35
ATOM     35  N   UNL     1     -12.228 -42.134  33.282  1.00  0.00    -0.303 NA
ATOM     36  C   UNL     1     -12.314 -43.386  32.514  1.00  0.00     0.084 C 
ATOM     37  C   UNL     1     -13.193 -42.141  34.397  1.00  0.00     0.084 C 
ATOM     38  C   UNL     1     -13.724 -43.610  31.961  1.00  0.00     0.016 C 
ATOM     39  C   UNL     1     -14.627 -42.320  33.899  1.00  0.00     0.016 C 
ATOM     40  C   UNL     1     -14.768 -43.588  33.069  1.00  0.00     0.003 C 
ENDBRANCH  34  35
ENDBRANCH  33  34
ENDBRANCH  32  33
ENDBRANCH  31  32
ENDBRANCH  30  31
ENDBRANCH   1  30
TORSDOF 12
ENDMDL
MODEL 7
REMARK VINA RESULT:    -7.440      2.633      9.410
REMARK INTER + INTRA:         -14.742
REMARK INTER:                 -14.650
REMARK INTRA:                  -0.092
REMARK UNBOUND:                -2.083
REMARK SMILES CN(Cc1ccccc1)Cc1ccc(/C=C2\CCc3cc(OCCCCCN4CCCCC4)ccc3C2=O)cc1
REMARK SMILES IDX 22 1 21 2 15 3 16 4 17 5 37 6 18 7 36 8 38 9 19 10 35 11
REMARK SMILES IDX 20 12 34 13 14 14 11 15 12 16 40 17 13 18 39 19 10 20 2 21
REMARK SMILES IDX 1 22 3 23 4 24 5 25 9 26 6 27 8 28 7 29 23 30 24 31 25 32
REMARK SMILES IDX 26 33 27 34 28 35 29 36 33 37 30 38 32 39 31 40
REMARK H PARENT
ROOT
ATOM      1  O   UNL     1     -19.677 -42.962  22.417  1.00  0.00    -0.494 OA
ENDROOT
BRANCH   1   2
ATOM      2  C   UNL     1     -19.457 -42.888  23.764  1.00  0.00     0.119 A 
ATOM      3  C   UNL     1     -17.752 -43.029  29.949  1.00  0.00     0.015 C 
ATOM      4  C   UNL     1     -17.885 -42.613  28.677  1.00  0.00     0.001 C 
ATOM      5  C   UNL     1     -16.827 -42.003  27.804  1.00  0.00     0.044 C 
ATOM      6  C   UNL     1     -19.239 -42.759  28.053  1.00  0.00     0.189 C 
ATOM      7  C   UNL     1     -16.766 -42.714  26.456  1.00  0.00     0.041 C 
ATOM      8  C   UNL     1     -19.295 -42.772  26.564  1.00  0.00     0.026 A 
ATOM      9  O   UNL     1     -20.260 -42.865  28.724  1.00  0.00    -0.289 OA
ATOM     10  C   UNL     1     -18.120 -42.752  25.794  1.00  0.00    -0.033 A 
ATOM     11  C   UNL     1     -20.541 -42.834  25.935  1.00  0.00     0.016 A 
ATOM     12  C   UNL     1     -18.212 -42.820  24.392  1.00  0.00     0.051 A 
ATOM     13  C   UNL     1     -20.617 -42.887  24.542  1.00  0.00     0.047 A 
BRANCH   3  14
ATOM     14  C   UNL     1     -16.511 -42.988  30.723  1.00  0.00    -0.025 A 
ATOM     15  C   UNL     1     -14.152 -42.910  32.261  1.00  0.00    -0.034 A 
ATOM     16  C   UNL     1     -14.369 -43.942  31.338  1.00  0.00     0.005 A 
ATOM     17  C   UNL     1     -15.128 -41.913  32.398  1.00  0.00     0.005 A 
ATOM     18  C   UNL     1     -15.543 -43.986  30.580  1.00  0.00     0.008 A 
ATOM     19  C   UNL     1     -16.300 -41.953  31.637  1.00  0.00     0.008 A 
BRANCH  15  20
ATOM     20  C   UNL     1     -12.889 -42.875  33.100  1.00  0.00     0.120 C 
BRANCH  20  21
ATOM     21  N   UNL     1     -11.616 -43.096  32.397  1.00  0.00    -0.298 NA
ATOM     22  C   UNL     1     -11.517 -42.340  31.150  1.00  0.00     0.106 C 
BRANCH  21  23
ATOM     23  C   UNL     1     -11.318 -44.523  32.204  1.00  0.00     0.120 C 
BRANCH  23  24
ATOM     24  C   UNL     1      -9.849 -44.808  31.962  1.00  0.00    -0.034 A 
ATOM     25  C   UNL     1      -8.864 -43.957  32.482  1.00  0.00     0.005 A 
ATOM     26  C   UNL     1      -9.451 -45.912  31.193  1.00  0.00     0.005 A 
ATOM     27  C   UNL     1      -7.510 -44.211  32.248  1.00  0.00     0.000 A 
ATOM     28  C   UNL     1      -8.098 -46.166  30.961  1.00  0.00     0.000 A 
ATOM     29  C   UNL     1      -7.129 -45.315  31.489  1.00  0.00     0.000 A 
ENDBRANCH  23  24
ENDBRANCH  21  23
ENDBRANCH  20  21
ENDBRANCH  15  20
ENDBRANCH   3  14
ENDBRANCH   1   2
BRANCH   1  30
ATOM     30  C   UNL     1     -19.428 -41.786  21.647  1.00  0.00     0.229 C 
BRANCH  30  31
ATOM     31  C   UNL     1     -18.616 -40.808  22.496  1.00  0.00     0.042 C 
BRANCH  31  32
ATOM     32  C   UNL     1     -17.360 -40.316  21.770  1.00  0.00     0.005 C 
BRANCH  32  33
ATOM     33  C   UNL     1     -16.181 -41.292  21.878  1.00  0.00     0.016 C 
BRANCH  33  34
ATOM     34  C   UNL     1     -15.384 -41.123  23.178  1.00  0.00     0.084 C 
BRANCH  34  35
ATOM     35  N   UNL     1     -14.640 -42.341  23.550  1.00  0.00    -0.303 NA
ATOM     36  C   UNL     1     -14.306 -42.367  24.984  1.00  0.00     0.084 C 
ATOM     37  C   UNL     1     -15.423 -43.534  23.179  1.00  0.00     0.084 C 
ATOM     38  C   UNL     1     -13.516 -43.625  25.354  1.00  0.00     0.016 C 
ATOM     39  C   UNL     1     -14.664 -44.825  23.489  1.00  0.00     0.016 C 
ATOM     40  C   UNL     1     -14.264 -44.890  24.956  1.00  0.00     0.003 C 
ENDBRANCH  34  35
ENDBRANCH  33  34
ENDBRANCH  32  33
ENDBRANCH  31  32
ENDBRANCH  30  31
ENDBRANCH   1  30
TORSDOF 12
ENDMDL
MODEL 8
REMARK VINA RESULT:    -7.059      2.325     10.215
REMARK INTER + INTRA:         -14.094
REMARK INTER:                 -13.355
REMARK INTRA:                  -0.739
REMARK UNBOUND:                -2.083
REMARK SMILES CN(Cc1ccccc1)Cc1ccc(/C=C2\CCc3cc(OCCCCCN4CCCCC4)ccc3C2=O)cc1
REMARK SMILES IDX 22 1 21 2 15 3 16 4 17 5 37 6 18 7 36 8 38 9 19 10 35 11
REMARK SMILES IDX 20 12 34 13 14 14 11 15 12 16 40 17 13 18 39 19 10 20 2 21
REMARK SMILES IDX 1 22 3 23 4 24 5 25 9 26 6 27 8 28 7 29 23 30 24 31 25 32
REMARK SMILES IDX 26 33 27 34 28 35 29 36 33 37 30 38 32 39 31 40
REMARK H PARENT
ROOT
ATOM      1  O   UNL     1     -15.304 -43.328  23.058  1.00  0.00    -0.494 OA
ENDROOT
BRANCH   1   2
ATOM      2  C   UNL     1     -15.089 -43.318  24.408  1.00  0.00     0.119 A 
ATOM      3  C   UNL     1     -13.349 -43.664  30.575  1.00  0.00     0.015 C 
ATOM      4  C   UNL     1     -13.538 -43.183  29.333  1.00  0.00     0.001 C 
ATOM      5  C   UNL     1     -12.567 -42.391  28.507  1.00  0.00     0.044 C 
ATOM      6  C   UNL     1     -14.867 -43.451  28.696  1.00  0.00     0.189 C 
ATOM      7  C   UNL     1     -12.426 -42.996  27.114  1.00  0.00     0.041 C 
ATOM      8  C   UNL     1     -14.928 -43.371  27.210  1.00  0.00     0.026 A 
ATOM      9  O   UNL     1     -15.864 -43.727  29.355  1.00  0.00    -0.289 OA
ATOM     10  C   UNL     1     -13.769 -43.155  26.447  1.00  0.00    -0.033 A 
ATOM     11  C   UNL     1     -16.160 -43.544  26.573  1.00  0.00     0.016 A 
ATOM     12  C   UNL     1     -13.857 -43.140  25.043  1.00  0.00     0.051 A 
ATOM     13  C   UNL     1     -16.236 -43.511  25.180  1.00  0.00     0.047 A 
BRANCH   3  14
ATOM     14  C   UNL     1     -12.119 -43.524  31.354  1.00  0.00    -0.025 A 
ATOM     15  C   UNL     1      -9.721 -43.281  32.814  1.00  0.00    -0.034 A 
ATOM     16  C   UNL     1     -10.440 -42.143  32.427  1.00  0.00     0.005 A 
ATOM     17  C   UNL     1     -10.224 -44.544  32.469  1.00  0.00     0.005 A 
ATOM     18  C   UNL     1     -11.625 -42.261  31.696  1.00  0.00     0.008 A 
ATOM     19  C   UNL     1     -11.411 -44.665  31.742  1.00  0.00     0.008 A 
BRANCH  15  20
ATOM     20  C   UNL     1      -8.424 -43.152  33.588  1.00  0.00     0.120 C 
BRANCH  20  21
ATOM     21  N   UNL     1      -7.197 -43.605  32.914  1.00  0.00    -0.298 NA
ATOM     22  C   UNL     1      -5.986 -43.294  33.670  1.00  0.00     0.106 C 
BRANCH  21  23
ATOM     23  C   UNL     1      -7.114 -43.140  31.521  1.00  0.00     0.120 C 
BRANCH  23  24
ATOM     24  C   UNL     1      -7.928 -43.976  30.554  1.00  0.00    -0.034 A 
ATOM     25  C   UNL     1      -7.918 -45.375  30.640  1.00  0.00     0.005 A 
ATOM     26  C   UNL     1      -8.685 -43.366  29.542  1.00  0.00     0.005 A 
ATOM     27  C   UNL     1      -8.657 -46.147  29.740  1.00  0.00     0.000 A 
ATOM     28  C   UNL     1      -9.424 -44.138  28.645  1.00  0.00     0.000 A 
ATOM     29  C   UNL     1      -9.410 -45.528  28.744  1.00  0.00     0.000 A 
ENDBRANCH  23  24
ENDBRANCH  21  23
ENDBRANCH  20  21
ENDBRANCH  15  20
ENDBRANCH   3  14
ENDBRANCH   1   2
BRANCH   1  30
ATOM     30  C   UNL     1     -16.651 -43.188  22.609  1.00  0.00     0.229 C 
BRANCH  30  31
ATOM     31  C   UNL     1     -17.328 -42.086  23.424  1.00  0.00     0.042 C 
BRANCH  31  32
ATOM     32  C   UNL     1     -18.562 -41.517  22.717  1.00  0.00     0.005 C 
BRANCH  32  33
ATOM     33  C   UNL     1     -19.858 -41.718  23.514  1.00  0.00     0.016 C 
BRANCH  33  34
ATOM     34  C   UNL     1     -19.994 -43.136  24.084  1.00  0.00     0.084 C 
BRANCH  34  35
ATOM     35  N   UNL     1     -20.342 -43.141  25.518  1.00  0.00    -0.303 NA
ATOM     36  C   UNL     1     -20.233 -44.485  26.107  1.00  0.00     0.084 C 
ATOM     37  C   UNL     1     -19.481 -42.186  26.240  1.00  0.00     0.084 C 
ATOM     38  C   UNL     1     -20.617 -44.482  27.589  1.00  0.00     0.016 C 
ATOM     39  C   UNL     1     -19.847 -42.110  27.723  1.00  0.00     0.016 C 
ATOM     40  C   UNL     1     -19.783 -43.482  28.378  1.00  0.00     0.003 C 
ENDBRANCH  34  35
ENDBRANCH  33  34
ENDBRANCH  32  33
ENDBRANCH  31  32
ENDBRANCH  30  31
ENDBRANCH   1  30
TORSDOF 12
ENDMDL
