REMARK VINA RESULT:    -8.621      4.688      7.432
REMARK INTER + INTRA:         -14.605
REMARK INTER:                 -13.997
REMARK INTRA:                  -0.608
REMARK UNBOUND:                 0.568
REMARK SMILES C[C@H](C(=O)Nc1cccc2c(-c3nc(Nc4cccc(S(C)(=O)=O)c4F)ncc3F)c[nH]c12)N1CCCN(C)CC1
REMARK SMILES IDX 3 1 4 2 5 3 2 5 1 6 34 7 35 8 36 9 41 11 40 12 38 13 39 14
REMARK SMILES IDX 37 15 6 17 7 18 33 19 8 20 32 21 10 22 9 23 31 24 11 25
REMARK SMILES IDX 12 27 13 28 29 29 14 30 28 31 27 32 30 33 15 34 16 36 17 37
REMARK SMILES IDX 25 38 18 39 20 40 19 41 26 42 21 43 23 44 24 45 22 46
REMARK H PARENT 5 4 32 26 15 35
REMARK Flexibility Score:  157.900
ROOT
ATOM      1  C   UNL     1       2.105 -17.069  19.378  1.00  0.00     0.241 C 
ATOM      2  O   UNL     1       1.563 -18.131  19.079  1.00  0.00    -0.273 OA
ATOM      3  N   UNL     1       3.117 -16.888  20.303  1.00  0.00    -0.323 N 
ATOM      4  H   UNL     1       3.485 -15.938  20.304  1.00  0.00     0.170 HD
ENDROOT
BRANCH   1   5
ATOM      5  C   UNL     1       1.625 -15.725  18.771  1.00  0.00     0.143 C 
ATOM      6  C   UNL     1       2.292 -15.641  17.389  1.00  0.00     0.035 C 
BRANCH   5   7
ATOM      7  N   UNL     1       0.140 -15.699  18.709  1.00  0.00    -0.291 NA
BRANCH   7   8
ATOM      8  C   UNL     1      -0.463 -14.452  18.226  1.00  0.00     0.086 C 
BRANCH   8   9
ATOM      9  C   UNL     1      -1.776 -14.502  17.445  1.00  0.00     0.031 CG0
ATOM     10  G   UNL     1      -2.971 -15.211  18.081  1.00  0.00     0.000 G0
ENDBRANCH   8   9
ENDBRANCH   7   8
BRANCH   7  11
ATOM     11  C   UNL     1      -0.522 -16.137  19.959  1.00  0.00     0.101 C 
BRANCH  11  12
ATOM     12  C   UNL     1      -2.027 -16.487  19.941  1.00  0.00     0.099 C 
BRANCH  12  13
ATOM     13  N   UNL     1      -2.641 -16.561  18.597  1.00  0.00    -0.305 NA
ATOM     14  C   UNL     1      -3.873 -17.358  18.675  1.00  0.00     0.105 C 
BRANCH  13  15
ATOM     15  C   UNL     1      -2.959 -15.216  18.103  1.00  0.00     0.085 CG0
ATOM     16  G   UNL     1      -1.790 -14.489  17.441  1.00  0.00     0.000 G0
ENDBRANCH  13  15
ENDBRANCH  12  13
ENDBRANCH  11  12
ENDBRANCH   7  11
ENDBRANCH   5   7
ENDBRANCH   1   5
BRANCH   3  17
ATOM     17  C   UNL     1       3.717 -17.808  21.179  1.00  0.00     0.065 A 
ATOM     18  C   UNL     1       2.854 -18.530  22.022  1.00  0.00     0.028 A 
ATOM     19  C   UNL     1       5.089 -18.099  21.284  1.00  0.00     0.070 A 
ATOM     20  C   UNL     1       3.327 -19.492  22.911  1.00  0.00     0.003 A 
ATOM     21  N   UNL     1       6.179 -17.566  20.632  1.00  0.00    -0.359 N 
ATOM     22  C   UNL     1       5.595 -19.072  22.156  1.00  0.00     0.011 A 
ATOM     23  C   UNL     1       4.690 -19.772  22.983  1.00  0.00     0.011 A 
ATOM     24  C   UNL     1       7.337 -18.171  21.032  1.00  0.00     0.094 A 
ATOM     25  C   UNL     1       7.024 -19.118  21.987  1.00  0.00     0.029 A 
ATOM     26  H   UNL     1       6.100 -16.828  19.939  1.00  0.00     0.166 HD
BRANCH  25  27
ATOM     27  C   UNL     1       8.003 -19.987  22.630  1.00  0.00     0.114 A 
ATOM     28  N   UNL     1       7.900 -21.303  22.318  1.00  0.00    -0.210 NA
ATOM     29  C   UNL     1       8.969 -19.513  23.489  1.00  0.00     0.167 A 
ATOM     30  C   UNL     1       8.776 -22.156  22.871  1.00  0.00     0.228 A 
ATOM     31  C   UNL     1       9.812 -20.456  24.013  1.00  0.00     0.156 A 
ATOM     32  N   UNL     1       9.737 -21.772  23.724  1.00  0.00    -0.218 NA
ATOM     33  F   UNL     1       9.095 -18.225  23.828  1.00  0.00    -0.203 F 
BRANCH  30  34
ATOM     34  N   UNL     1       8.624 -23.478  22.479  1.00  0.00    -0.322 N 
ATOM     35  H   UNL     1       9.447 -23.776  21.970  1.00  0.00     0.170 HD
BRANCH  34  36
ATOM     36  C   UNL     1       7.631 -24.448  22.662  1.00  0.00     0.078 A 
ATOM     37  C   UNL     1       7.716 -25.492  23.590  1.00  0.00     0.029 A 
ATOM     38  C   UNL     1       6.472 -24.377  21.870  1.00  0.00     0.165 A 
ATOM     39  C   UNL     1       6.682 -26.427  23.727  1.00  0.00     0.004 A 
ATOM     40  C   UNL     1       5.442 -25.300  22.003  1.00  0.00     0.104 A 
ATOM     41  C   UNL     1       5.541 -26.336  22.932  1.00  0.00     0.023 A 
ATOM     42  F   UNL     1       6.378 -23.379  20.974  1.00  0.00    -0.203 F 
BRANCH  40  43
ATOM     43  S   UNL     1       4.010 -25.161  20.986  1.00  0.00     0.178 S 
ATOM     44  O   UNL     1       4.411 -25.536  19.641  1.00  0.00    -0.224 OA
ATOM     45  O   UNL     1       3.429 -23.859  21.244  1.00  0.00    -0.224 OA
ATOM     46  C   UNL     1       2.886 -26.415  21.540  1.00  0.00     0.164 C 
ENDBRANCH  40  43
ENDBRANCH  34  36
ENDBRANCH  30  34
ENDBRANCH  25  27
ENDBRANCH   3  17
TORSDOF 7
