MODEL 2
REMARK minimizedAffinity -9.44189072
REMARK CNNscore 0.821288347
REMARK CNNaffinity 7.38063049
REMARK SMILES CCC(=O)Nc1cc2c(Nc3ccc4c(ccn4Cc4ccccc4)c3)ncnc2cc1OC
REMARK SMILES IDX 6 1 7 2 8 3 9 4 27 5 28 6 29 7 30 8 31 9 32 10 5 11 3 12
REMARK SMILES IDX 4 13 2 15 1 16 33 17 34 18 10 19 11 21 26 22 12 23 15 24
REMARK SMILES IDX 13 25 14 26 16 27 18 28 17 29 19 30 20 31 25 32 21 33 24 34
REMARK SMILES IDX 22 35 23 36
REMARK H PARENT 5 14 10 20
ROOT
ATOM      1  C   UNL     1      19.044  34.691  15.560  1.00  0.00     0.084 A 
ATOM      2  C   UNL     1      17.906  34.800  14.750  1.00  0.00     0.044 A 
ATOM      3  C   UNL     1      16.606  34.673  15.306  1.00  0.00     0.045 A 
ATOM      4  C   UNL     1      15.383  34.762  14.568  1.00  0.00     0.141 A 
ATOM      5  N   UNL     1      14.175  34.638  15.174  1.00  0.00    -0.219 NA
ATOM      6  C   UNL     1      14.177  34.419  16.508  1.00  0.00     0.224 A 
ATOM      7  N   UNL     1      15.264  34.315  17.310  1.00  0.00    -0.236 NA
ATOM      8  C   UNL     1      16.481  34.444  16.709  1.00  0.00     0.080 A 
ATOM      9  C   UNL     1      17.643  34.354  17.507  1.00  0.00     0.077 A 
ATOM     10  C   UNL     1      18.921  34.482  16.942  1.00  0.00     0.144 A 
ENDROOT
BRANCH   1  11
ATOM     11  N   UNL     1      20.342  34.840  15.030  1.00  0.00    -0.323 N 
ATOM     12  C   UNL     1      21.012  35.989  14.798  1.00  0.00     0.224 C 
ATOM     13  O   UNL     1      20.559  37.116  15.008  1.00  0.00    -0.275 OA
ATOM     14  H   UNL     1      20.770  33.986  14.703  1.00  0.00     0.170 HD
BRANCH  12  15
ATOM     15  C   UNL     1      22.420  35.808  14.207  1.00  0.00     0.097 C 
ATOM     16  C   UNL     1      22.991  37.055  13.507  1.00  0.00     0.014 C 
ENDBRANCH  12  15
ENDBRANCH   1  11
BRANCH  10  17
ATOM     17  O   UNL     1      20.087  34.410  17.689  1.00  0.00    -0.494 OA
ATOM     18  C   UNL     1      20.446  35.489  18.545  1.00  0.00     0.278 C 
ENDBRANCH  10  17
BRANCH   4  19
ATOM     19  N   UNL     1      15.424  35.008  13.181  1.00  0.00    -0.340 N 
ATOM     20  H   UNL     1      15.000  35.888  12.932  1.00  0.00     0.168 HD
BRANCH  19  21
ATOM     21  C   UNL     1      15.909  34.307  12.059  1.00  0.00     0.040 A 
ATOM     22  C   UNL     1      16.043  35.046  10.881  1.00  0.00     0.036 A 
ATOM     23  C   UNL     1      16.268  32.954  12.074  1.00  0.00     0.028 A 
ATOM     24  C   UNL     1      16.512  34.423   9.716  1.00  0.00     0.002 A 
ATOM     25  C   UNL     1      16.747  32.294  10.943  1.00  0.00     0.029 A 
ATOM     26  C   UNL     1      16.863  33.041   9.765  1.00  0.00     0.048 A 
ATOM     27  C   UNL     1      16.744  34.866   8.375  1.00  0.00     0.028 A 
ATOM     28  N   UNL     1      17.294  32.681   8.496  1.00  0.00    -0.343 N 
ATOM     29  C   UNL     1      17.203  33.777   7.667  1.00  0.00     0.087 A 
BRANCH  28  30
ATOM     30  C   UNL     1      17.716  31.346   8.075  1.00  0.00     0.157 C 
BRANCH  30  31
ATOM     31  C   UNL     1      16.622  30.469   7.461  1.00  0.00    -0.028 A 
ATOM     32  C   UNL     1      15.293  30.696   7.830  1.00  0.00     0.005 A 
ATOM     33  C   UNL     1      16.927  29.437   6.564  1.00  0.00     0.005 A 
ATOM     34  C   UNL     1      14.274  29.912   7.296  1.00  0.00     0.000 A 
ATOM     35  C   UNL     1      15.908  28.655   6.027  1.00  0.00     0.000 A 
ATOM     36  C   UNL     1      14.587  28.896   6.394  1.00  0.00     0.000 A 
ENDBRANCH  30  31
ENDBRANCH  28  30
ENDBRANCH  19  21
ENDBRANCH   4  19
TORSDOF 7
ENDMDL
