REMARK VINA RESULT:    -9.096      4.710      6.805
REMARK INTER + INTRA:         -16.140
REMARK INTER:                 -14.803
REMARK INTRA:                  -1.337
REMARK UNBOUND:                -1.195
REMARK SMILES CCCc1cc(Oc2ccc(F)c(C)c2)ccc1OCCCOc1cccc([C@H]2SC(=O)NC2=O)c1
REMARK SMILES IDX 20 1 19 2 18 3 4 4 5 5 6 6 17 7 16 8 3 9 2 10 1 11 7 12 8 13
REMARK SMILES IDX 9 14 15 15 10 16 13 17 11 18 14 19 12 20 21 21 22 22 23 23
REMARK SMILES IDX 24 24 25 25 36 26 26 27 28 28 27 29 29 30 30 31 34 32 31 33
REMARK SMILES IDX 33 34 35 35 32 36
REMARK H PARENT 33 37
ROOT
ATOM      1  C   UNL     1       9.054   3.863  -7.436  1.00  0.00     0.233 C 
ENDROOT
BRANCH   1   2
ATOM      2  O   UNL     1      10.028   4.894  -7.606  1.00  0.00    -0.493 OA
BRANCH   2   3
ATOM      3  C   UNL     1      10.346   5.258  -8.888  1.00  0.00     0.122 A 
ATOM      4  C   UNL     1      10.299   6.638  -9.163  1.00  0.00    -0.002 A 
ATOM      5  C   UNL     1      10.632   7.097 -10.448  1.00  0.00     0.054 A 
ATOM      6  C   UNL     1      10.966   6.193 -11.458  1.00  0.00     0.127 A 
ATOM      7  C   UNL     1      10.694   4.362  -9.903  1.00  0.00     0.050 A 
ATOM      8  C   UNL     1      11.009   4.829 -11.181  1.00  0.00     0.051 A 
BRANCH   4   9
ATOM      9  C   UNL     1       9.939   7.647  -8.094  1.00  0.00     0.039 C 
BRANCH   9  10
ATOM     10  C   UNL     1       9.711   9.041  -8.680  1.00  0.00     0.001 C 
ATOM     11  C   UNL     1      10.644  10.064  -8.054  1.00  0.00     0.004 C 
ENDBRANCH   9  10
ENDBRANCH   4   9
BRANCH   6  12
ATOM     12  O   UNL     1      11.334   6.575 -12.730  1.00  0.00    -0.457 OA
BRANCH  12  13
ATOM     13  C   UNL     1      11.257   7.912 -13.042  1.00  0.00     0.127 A 
ATOM     14  C   UNL     1      12.456   8.575 -13.306  1.00  0.00     0.050 A 
ATOM     15  C   UNL     1      10.032   8.580 -13.161  1.00  0.00     0.053 A 
ATOM     16  C   UNL     1      12.435   9.927 -13.646  1.00  0.00     0.043 A 
ATOM     17  C   UNL     1      10.005   9.936 -13.514  1.00  0.00    -0.012 A 
ATOM     18  C   UNL     1      11.217  10.595 -13.738  1.00  0.00     0.126 A 
ATOM     19  C   UNL     1       8.709  10.683 -13.603  1.00  0.00     0.047 C 
ATOM     20  F   UNL     1      11.219  11.897 -14.054  1.00  0.00    -0.207 F 
ENDBRANCH  12  13
ENDBRANCH   6  12
ENDBRANCH   2   3
ENDBRANCH   1   2
BRANCH   1  21
ATOM     21  C   UNL     1       8.163   4.265  -6.262  1.00  0.00     0.083 C 
BRANCH  21  22
ATOM     22  C   UNL     1       8.727   3.809  -4.922  1.00  0.00     0.233 C 
BRANCH  22  23
ATOM     23  O   UNL     1       9.553   2.666  -5.135  1.00  0.00    -0.493 OA
BRANCH  23  24
ATOM     24  C   UNL     1      10.268   2.206  -4.064  1.00  0.00     0.119 A 
ATOM     25  C   UNL     1       9.743   1.602  -2.924  1.00  0.00     0.046 A 
ATOM     26  C   UNL     1      11.652   2.388  -4.166  1.00  0.00     0.051 A 
ATOM     27  C   UNL     1      10.593   1.187  -1.898  1.00  0.00     0.004 A 
ATOM     28  C   UNL     1      12.525   1.964  -3.150  1.00  0.00    -0.021 A 
ATOM     29  C   UNL     1      11.974   1.368  -2.006  1.00  0.00     0.006 A 
BRANCH  28  30
ATOM     30  C   UNL     1      14.012   2.194  -3.306  1.00  0.00     0.176 C 
ATOM     31  S   UNL     1      14.784   2.709  -1.737  1.00  0.00    -0.046 SA
ATOM     32  C   UNL     1      14.800   0.977  -3.759  1.00  0.00     0.245 C 
ATOM     33  C   UNL     1      15.990   1.455  -1.806  1.00  0.00     0.286 C 
ATOM     34  N   UNL     1      15.822   0.686  -2.905  1.00  0.00    -0.286 N 
ATOM     35  O   UNL     1      14.573   0.312  -4.762  1.00  0.00    -0.273 OA
ATOM     36  O   UNL     1      16.861   1.301  -0.966  1.00  0.00    -0.261 OA
ATOM     37  H   UNL     1      16.438  -0.092  -3.080  1.00  0.00     0.173 HD
ENDBRANCH  28  30
ENDBRANCH  23  24
ENDBRANCH  22  23
ENDBRANCH  21  22
ENDBRANCH   1  21
TORSDOF 11
