MODEL 3
REMARK VINA RESULT:   -10.563      2.380      3.298
REMARK INTER + INTRA:         -15.916
REMARK INTER:                 -15.043
REMARK INTRA:                  -0.873
REMARK UNBOUND:                -1.030
REMARK SMILES N#CC(C#N)=CNc1ccc2ncnc(Nc3ccc(OCc4cccc(F)c4)c(Cl)c3)c2c1
REMARK SMILES IDX 17 1 18 2 19 3 20 4 30 5 31 6 32 7 16 8 15 10 8 11 34 12
REMARK SMILES IDX 9 13 33 14 10 15 11 16 12 17 14 18 13 19 7 20 6 22 1 23 2 24
REMARK SMILES IDX 3 25 4 26 5 27 21 28 22 29 23 30 29 31 24 32 27 33 25 34
REMARK SMILES IDX 26 35 28 36
REMARK H PARENT 16 9 7 21
ROOT
ATOM      1  C   UNL     1      12.666   1.913  29.037  1.00  0.00     0.041 A 
ATOM      2  C   UNL     1      11.374   2.230  28.599  1.00  0.00     0.030 A 
ATOM      3  C   UNL     1      10.295   2.181  29.481  1.00  0.00     0.050 A 
ATOM      4  C   UNL     1      10.483   1.822  30.827  1.00  0.00     0.138 A 
ATOM      5  C   UNL     1      11.779   1.516  31.262  1.00  0.00     0.085 A 
ATOM      6  Cl  UNL     1      12.072   1.072  32.907  1.00  0.00    -0.080 Cl
ATOM      7  C   UNL     1      12.855   1.566  30.376  1.00  0.00     0.050 A 
ENDROOT
BRANCH   1   8
ATOM      8  N   UNL     1      13.803   1.959  28.210  1.00  0.00    -0.340 N 
ATOM      9  H   UNL     1      13.951   2.863  27.788  1.00  0.00     0.168 HD
BRANCH   8  10
ATOM     10  C   UNL     1      14.773   1.006  27.842  1.00  0.00     0.141 A 
ATOM     11  C   UNL     1      16.926   2.861  25.330  1.00  0.00     0.039 A 
ATOM     12  C   UNL     1      15.902   2.616  26.247  1.00  0.00     0.040 A 
ATOM     13  C   UNL     1      17.854   1.852  25.047  1.00  0.00     0.028 A 
ATOM     14  C   UNL     1      15.786   1.354  26.894  1.00  0.00     0.045 A 
ATOM     15  C   UNL     1      17.771   0.606  25.662  1.00  0.00     0.031 A 
ATOM     16  C   UNL     1      16.742   0.336  26.591  1.00  0.00     0.076 A 
ATOM     17  N   UNL     1      16.691  -0.894  27.177  1.00  0.00    -0.236 NA
ATOM     18  N   UNL     1      14.732  -0.218  28.428  1.00  0.00    -0.219 NA
ATOM     19  C   UNL     1      15.689  -1.102  28.064  1.00  0.00     0.224 A 
BRANCH  11  20
ATOM     20  N   UNL     1      16.969   4.137  24.740  1.00  0.00    -0.360 N 
ATOM     21  H   UNL     1      16.067   4.454  24.416  1.00  0.00     0.166 HD
BRANCH  20  22
ATOM     22  C   UNL     1      18.052   4.973  24.564  1.00  0.00     0.114 C 
ATOM     23  N   UNL     1      18.617   3.417  21.499  1.00  0.00    -0.192 NA
ATOM     24  C   UNL     1      18.752   4.133  22.398  1.00  0.00     0.112 C 
ATOM     25  C   UNL     1      18.894   5.008  23.517  1.00  0.00     0.145 C 
ATOM     26  C   UNL     1      19.979   5.931  23.479  1.00  0.00     0.112 C 
ATOM     27  N   UNL     1      20.855   6.686  23.467  1.00  0.00    -0.192 NA
ENDBRANCH  20  22
ENDBRANCH  11  20
ENDBRANCH   8  10
ENDBRANCH   1   8
BRANCH   4  28
ATOM     28  O   UNL     1       9.464   1.757  31.760  1.00  0.00    -0.487 OA
BRANCH  28  29
ATOM     29  C   UNL     1       8.105   1.809  31.330  1.00  0.00     0.265 C 
BRANCH  29  30
ATOM     30  C   UNL     1       7.602   3.247  31.303  1.00  0.00    -0.008 A 
ATOM     31  C   UNL     1       6.932   3.720  30.169  1.00  0.00     0.046 A 
ATOM     32  C   UNL     1       7.781   4.105  32.397  1.00  0.00     0.007 A 
ATOM     33  C   UNL     1       6.458   5.032  30.123  1.00  0.00     0.123 A 
ATOM     34  C   UNL     1       7.307   5.417  32.351  1.00  0.00     0.003 A 
ATOM     35  C   UNL     1       6.646   5.881  31.214  1.00  0.00     0.039 A 
ATOM     36  F   UNL     1       5.814   5.480  29.021  1.00  0.00    -0.207 F 
ENDBRANCH  29  30
ENDBRANCH  28  29
ENDBRANCH   4  28
TORSDOF 7
ENDMDL
