REMARK SMILES Cc1cc2c(CC(=O)O)csc2cc1OCc1ccccc1COc1ccc(C(F)(F)F)cc1
REMARK SMILES IDX 16 1 15 2 14 3 2 4 3 5 4 6 13 7 5 8 12 9 10 10 11 11 1 12
REMARK SMILES IDX 6 13 7 14 8 15 9 16 17 18 18 19 22 20 19 21 21 22 20 23
REMARK SMILES IDX 23 24 24 25 25 26 26 27 34 28 27 29 33 30 28 31 29 32 30 33
REMARK SMILES IDX 31 34 32 35
REMARK H PARENT 9 17
REMARK INDEX MAP 16 1 15 2 14 3 2 4 3 5 4 6 13 7 5 8 12 9 10 10 11 11 1 12
REMARK INDEX MAP 6 13 7 14 8 15 9 16 41 17 17 18 18 19 22 20 19 21 21 22 20 23
REMARK INDEX MAP 23 24 24 25 25 26 26 27 34 28 27 29 33 30 28 31 29 32 30 33
REMARK INDEX MAP 31 34 32 35
ROOT
ATOM      1  C   UNL     1       9.577  12.283  -7.730  1.00  0.00     0.265 C 
ENDROOT
BRANCH   1   2
ATOM      2  O   UNL     1      10.503  11.887  -8.744  1.00  0.00    -0.489 OA
BRANCH   2   3
ATOM      3  C   UNL     1      10.425  10.593  -9.194  1.00  0.00     0.124 A 
ATOM      4  C   UNL     1      10.485  10.428 -10.583  1.00  0.00    -0.008 A 
ATOM      5  C   UNL     1      10.457   9.132 -11.133  1.00  0.00     0.017 A 
ATOM      6  C   UNL     1      10.349   7.984 -10.307  1.00  0.00    -0.003 A 
ATOM      7  C   UNL     1      10.282   9.480  -8.360  1.00  0.00     0.066 A 
ATOM      8  C   UNL     1      10.293   6.576 -10.651  1.00  0.00    -0.018 A 
ATOM      9  C   UNL     1      10.256   8.188  -8.929  1.00  0.00     0.038 A 
ATOM     10  C   UNL     1      10.165   5.790  -9.521  1.00  0.00     0.070 A 
ATOM     11  S   UNL     1      10.111   6.698  -8.082  1.00  0.00    -0.143 S 
ATOM     12  C   UNL     1      10.592  11.617 -11.497  1.00  0.00     0.048 C 
BRANCH   8  13
ATOM     13  C   UNL     1      10.349   6.032 -12.054  1.00  0.00     0.159 C 
BRANCH  13  14
ATOM     14  C   UNL     1      11.550   6.546 -12.822  1.00  0.00     0.307 C 
ATOM     15  O   UNL     1      12.726   6.484 -12.512  1.00  0.00    -0.252 OA
BRANCH  14  16
ATOM     16  O   UNL     1      11.197   7.151 -13.984  1.00  0.00    -0.481 OA
ATOM     17  H   UNL     1      11.894   7.529 -14.577  1.00  0.00     0.296 HD
ENDBRANCH  14  16
ENDBRANCH  13  14
ENDBRANCH   8  13
ENDBRANCH   2   3
ENDBRANCH   1   2
BRANCH   1  18
ATOM     18  C   UNL     1      10.326  13.030  -6.647  1.00  0.00    -0.004 A 
ATOM     19  C   UNL     1      10.825  14.317  -6.929  1.00  0.00     0.007 A 
ATOM     20  C   UNL     1      10.525  12.478  -5.357  1.00  0.00    -0.004 A 
ATOM     21  C   UNL     1      11.501  15.051  -5.955  1.00  0.00     0.000 A 
ATOM     22  C   UNL     1      11.205  13.235  -4.388  1.00  0.00     0.007 A 
ATOM     23  C   UNL     1      11.688  14.513  -4.684  1.00  0.00     0.000 A 
BRANCH  20  24
ATOM     24  C   UNL     1      10.056  11.079  -5.000  1.00  0.00     0.265 C 
BRANCH  24  25
ATOM     25  O   UNL     1       9.147  11.155  -3.914  1.00  0.00    -0.489 OA
BRANCH  25  26
ATOM     26  C   UNL     1       7.915  10.578  -4.086  1.00  0.00     0.119 A 
ATOM     27  C   UNL     1       7.219  10.309  -2.898  1.00  0.00     0.047 A 
ATOM     28  C   UNL     1       7.325  10.254  -5.304  1.00  0.00     0.047 A 
ATOM     29  C   UNL     1       5.947   9.713  -2.920  1.00  0.00     0.017 A 
ATOM     30  C   UNL     1       6.050   9.659  -5.330  1.00  0.00     0.017 A 
ATOM     31  C   UNL     1       5.351   9.376  -4.140  1.00  0.00     0.056 A 
BRANCH  31  32
ATOM     32  C   UNL     1       3.978   8.741  -4.181  1.00  0.00     0.416 C 
ATOM     33  F   UNL     1       3.385   8.685  -2.953  1.00  0.00    -0.166 F 
ATOM     34  F   UNL     1       4.008   7.456  -4.639  1.00  0.00    -0.166 F 
ATOM     35  F   UNL     1       3.095   9.406  -4.977  1.00  0.00    -0.166 F 
ENDBRANCH  31  32
ENDBRANCH  25  26
ENDBRANCH  24  25
ENDBRANCH  20  24
ENDBRANCH   1  18
TORSDOF 10
