REMARK VINA RESULT:    -9.554      1.363      1.659
REMARK INTER + INTRA:         -17.512
REMARK INTER:                 -16.248
REMARK INTRA:                  -1.264
REMARK UNBOUND:                -1.534
REMARK SMILES C[C@@H](COc1cccc2ncnc(Nc3ccc(OCc4ccccn4)c(Cl)c3)c12)N(C)C(=O)CO
REMARK SMILES IDX 3 1 2 2 1 3 31 4 32 5 33 6 34 7 35 8 36 9 4 11 5 12 6 13
REMARK SMILES IDX 30 14 7 15 13 16 9 17 8 18 12 19 10 20 11 21 14 22 15 24
REMARK SMILES IDX 16 25 29 26 17 27 27 28 18 29 28 30 19 31 20 32 21 33 22 34
REMARK SMILES IDX 26 35 23 36 25 37 24 38
REMARK H PARENT 36 10 14 23
ROOT
ATOM      1  C   UNL     1      20.916  35.891  15.344  1.00  0.00     0.254 C 
ENDROOT
BRANCH   1   2
ATOM      2  C   UNL     1      21.939  35.044  14.545  1.00  0.00     0.119 C 
ATOM      3  C   UNL     1      22.277  33.756  15.299  1.00  0.00     0.035 C 
BRANCH   2   4
ATOM      4  N   UNL     1      23.168  35.765  14.140  1.00  0.00    -0.338 N 
ATOM      5  C   UNL     1      23.837  36.536  15.183  1.00  0.00     0.147 C 
BRANCH   4   6
ATOM      6  C   UNL     1      23.565  35.785  12.807  1.00  0.00     0.248 C 
ATOM      7  O   UNL     1      22.963  35.166  11.923  1.00  0.00    -0.272 OA
BRANCH   6   8
ATOM      8  C   UNL     1      24.797  36.624  12.433  1.00  0.00     0.256 C 
BRANCH   8   9
ATOM      9  O   UNL     1      24.816  36.975  11.057  1.00  0.00    -0.387 OA
ATOM     10  H   UNL     1      25.275  36.241  10.597  1.00  0.00     0.211 HD
ENDBRANCH   8   9
ENDBRANCH   6   8
ENDBRANCH   4   6
ENDBRANCH   2   4
ENDBRANCH   1   2
BRANCH   1  11
ATOM     11  O   UNL     1      19.550  35.659  14.964  1.00  0.00    -0.491 OA
BRANCH  11  12
ATOM     12  C   UNL     1      18.591  35.799  15.939  1.00  0.00     0.132 A 
ATOM     13  C   UNL     1      18.854  36.461  17.139  1.00  0.00     0.047 A 
ATOM     14  C   UNL     1      17.290  35.273  15.654  1.00  0.00     0.085 A 
ATOM     15  C   UNL     1      17.855  36.557  18.098  1.00  0.00     0.006 A 
ATOM     16  C   UNL     1      16.868  34.630  14.459  1.00  0.00     0.145 A 
ATOM     17  C   UNL     1      16.302  35.373  16.646  1.00  0.00     0.080 A 
ATOM     18  C   UNL     1      16.601  36.006  17.844  1.00  0.00     0.029 A 
ATOM     19  N   UNL     1      15.627  34.126  14.326  1.00  0.00    -0.218 NA
ATOM     20  N   UNL     1      15.069  34.885  16.508  1.00  0.00    -0.236 NA
ATOM     21  C   UNL     1      14.790  34.281  15.351  1.00  0.00     0.224 A 
BRANCH  16  22
ATOM     22  N   UNL     1      17.781  34.491  13.389  1.00  0.00    -0.339 N 
ATOM     23  H   UNL     1      18.647  34.997  13.570  1.00  0.00     0.168 HD
BRANCH  22  24
ATOM     24  C   UNL     1      17.710  33.909  12.115  1.00  0.00     0.041 A 
ATOM     25  C   UNL     1      18.467  32.809  11.707  1.00  0.00     0.030 A 
ATOM     26  C   UNL     1      16.863  34.500  11.165  1.00  0.00     0.050 A 
ATOM     27  C   UNL     1      18.382  32.304  10.401  1.00  0.00     0.050 A 
ATOM     28  C   UNL     1      16.787  34.012   9.856  1.00  0.00     0.085 A 
ATOM     29  C   UNL     1      17.543  32.905   9.459  1.00  0.00     0.138 A 
ATOM     30  Cl  UNL     1      15.736  34.831   8.750  1.00  0.00    -0.080 Cl
BRANCH  29  31
ATOM     31  O   UNL     1      17.416  32.497   8.159  1.00  0.00    -0.486 OA
BRANCH  31  32
ATOM     32  C   UNL     1      17.837  31.169   7.845  1.00  0.00     0.285 C 
BRANCH  32  33
ATOM     33  C   UNL     1      16.647  30.321   7.454  1.00  0.00     0.078 A 
ATOM     34  C   UNL     1      16.803  29.221   6.609  1.00  0.00     0.027 A 
ATOM     35  N   UNL     1      15.449  30.642   8.010  1.00  0.00    -0.258 NA
ATOM     36  C   UNL     1      15.692  28.437   6.309  1.00  0.00     0.004 A 
ATOM     37  C   UNL     1      14.390  29.864   7.696  1.00  0.00     0.111 A 
ATOM     38  C   UNL     1      14.460  28.764   6.861  1.00  0.00     0.020 A 
ENDBRANCH  32  33
ENDBRANCH  31  32
ENDBRANCH  29  31
ENDBRANCH  22  24
ENDBRANCH  16  22
ENDBRANCH  11  12
ENDBRANCH   1  11
TORSDOF 12
