MODEL 2
REMARK VINA RESULT:    -7.271      4.318      6.576
REMARK INTER + INTRA:         -10.859
REMARK INTER:                 -10.142
REMARK INTRA:                  -0.717
REMARK UNBOUND:                -0.612
REMARK SMILES O=C(O)[C@H](Cc1ccccc1)Oc1ccc(/C=N/O)cc1
REMARK SMILES IDX 12 1 4 2 2 3 1 4 3 5 5 7 6 8 7 9 11 10 8 11 10 12 9 13 13 14
REMARK SMILES IDX 14 15 21 16 15 17 20 18 16 19 17 20 18 21 19 22
REMARK H PARENT 3 6 19 23
ROOT
ATOM      1  O   UNL     1      -8.913  -5.791 -19.128  1.00  0.00    -0.478 OA
ENDROOT
BRANCH   1   2
ATOM      2  C   UNL     1      -7.790  -6.403 -19.763  1.00  0.00     0.286 C 
BRANCH   2   3
ATOM      3  C   UNL     1      -6.495  -5.645 -19.468  1.00  0.00     0.345 C 
ATOM      4  O   UNL     1      -6.392  -4.432 -19.344  1.00  0.00    -0.248 OA
BRANCH   3   5
ATOM      5  O   UNL     1      -5.391  -6.417 -19.399  1.00  0.00    -0.478 OA
ATOM      6  H   UNL     1      -5.346  -6.860 -20.270  1.00  0.00     0.296 HD
ENDBRANCH   3   5
ENDBRANCH   2   3
BRANCH   2   7
ATOM      7  C   UNL     1      -7.999  -6.508 -21.285  1.00  0.00     0.093 C 
BRANCH   7   8
ATOM      8  C   UNL     1      -8.050  -7.922 -21.826  1.00  0.00    -0.044 A 
ATOM      9  C   UNL     1      -9.236  -8.435 -22.369  1.00  0.00     0.004 A 
ATOM     10  C   UNL     1      -6.909  -8.738 -21.798  1.00  0.00     0.004 A 
ATOM     11  C   UNL     1      -9.280  -9.735 -22.873  1.00  0.00     0.000 A 
ATOM     12  C   UNL     1      -6.956 -10.038 -22.303  1.00  0.00     0.000 A 
ATOM     13  C   UNL     1      -8.141 -10.536 -22.841  1.00  0.00     0.000 A 
ENDBRANCH   7   8
ENDBRANCH   2   7
ENDBRANCH   1   2
BRANCH   1  14
ATOM     14  C   UNL     1      -9.896  -6.569 -18.589  1.00  0.00     0.120 A 
ATOM     15  C   UNL     1     -10.467  -7.705 -19.163  1.00  0.00     0.047 A 
ATOM     16  C   UNL     1     -10.352  -6.130 -17.342  1.00  0.00     0.047 A 
ATOM     17  C   UNL     1     -11.481  -8.398 -18.490  1.00  0.00     0.013 A 
ATOM     18  C   UNL     1     -11.362  -6.818 -16.664  1.00  0.00     0.013 A 
ATOM     19  C   UNL     1     -11.926  -7.955 -17.242  1.00  0.00    -0.004 A 
BRANCH  19  20
ATOM     20  C   UNL     1     -12.992  -8.670 -16.517  1.00  0.00     0.162 C 
ATOM     21  N   UNL     1     -14.089  -8.086 -16.149  1.00  0.00    -0.097 NA
BRANCH  21  22
ATOM     22  O   UNL     1     -14.896  -9.018 -15.488  1.00  0.00    -0.411 OA
ATOM     23  H   UNL     1     -15.683  -8.488 -15.260  1.00  0.00     0.330 HD
ENDBRANCH  21  22
ENDBRANCH  19  20
ENDBRANCH   1  14
TORSDOF 8
ENDMDL
