MODEL 7
REMARK VINA RESULT:    -8.895      7.565     12.588
REMARK INTER + INTRA:         -15.939
REMARK INTER:                 -14.701
REMARK INTRA:                  -1.238
REMARK UNBOUND:                -1.324
REMARK SMILES O=C(Nc1ccc(C(=O)NS(=O)(=O)c2ccc(NCCSc3ccccc3)c([N+](=O)[O-])c2)cc1)c1cccc(F)c1
REMARK SMILES IDX 14 1 15 2 16 3 17 4 28 5 32 6 11 7 12 8 13 9 10 10 8 11 9 12
REMARK SMILES IDX 7 14 4 15 5 16 34 17 6 18 33 19 3 20 1 21 2 22 35 24 36 25
REMARK SMILES IDX 41 26 37 27 39 28 38 29 40 30 29 31 30 32 31 33 18 34 19 36
REMARK SMILES IDX 20 37 21 38 22 39 23 40 27 41 24 42 26 43 25 44
REMARK H PARENT 10 13 3 23 18 35
ROOT
ATOM      1  C   UNL     1      30.554   9.744 -45.102  1.00  0.00     0.094 A 
ATOM      2  C   UNL     1      31.533  10.341 -44.312  1.00  0.00     0.025 A 
ATOM      3  C   UNL     1      32.873  10.323 -44.722  1.00  0.00     0.034 A 
ATOM      4  C   UNL     1      33.284   9.675 -45.904  1.00  0.00     0.113 A 
ATOM      5  C   UNL     1      32.256   9.084 -46.679  1.00  0.00     0.293 A 
ATOM      6  C   UNL     1      30.905   9.100 -46.286  1.00  0.00     0.110 A 
ENDROOT
BRANCH   1   7
ATOM      7  S   UNL     1      28.863   9.751 -44.569  1.00  0.00     0.264 S 
ATOM      8  O   UNL     1      28.558   8.484 -43.944  1.00  0.00    -0.201 OA
ATOM      9  O   UNL     1      28.069  10.240 -45.676  1.00  0.00    -0.201 OA
BRANCH   7  10
ATOM     10  N   UNL     1      28.800  10.944 -43.416  1.00  0.00    -0.245 N 
ATOM     11  C   UNL     1      27.633  11.427 -42.819  1.00  0.00     0.264 C 
ATOM     12  O   UNL     1      26.530  10.932 -42.965  1.00  0.00    -0.268 OA
ATOM     13  H   UNL     1      29.718  11.246 -43.103  1.00  0.00     0.183 HD
BRANCH  11  14
ATOM     14  C   UNL     1      27.830  12.623 -41.970  1.00  0.00     0.040 A 
ATOM     15  C   UNL     1      28.297  14.884 -40.375  1.00  0.00     0.041 A 
ATOM     16  C   UNL     1      28.487  14.943 -41.760  1.00  0.00     0.027 A 
ATOM     17  C   UNL     1      27.866  13.683 -39.795  1.00  0.00     0.027 A 
ATOM     18  C   UNL     1      28.270  13.811 -42.556  1.00  0.00     0.016 A 
ATOM     19  C   UNL     1      27.621  12.559 -40.586  1.00  0.00     0.016 A 
BRANCH  15  20
ATOM     20  N   UNL     1      28.571  15.956 -39.505  1.00  0.00    -0.322 N 
ATOM     21  O   UNL     1      26.510  16.304 -38.474  1.00  0.00    -0.269 OA
ATOM     22  C   UNL     1      27.667  16.634 -38.709  1.00  0.00     0.255 C 
ATOM     23  H   UNL     1      29.546  16.232 -39.427  1.00  0.00     0.170 HD
BRANCH  22  24
ATOM     24  C   UNL     1      28.222  17.838 -38.037  1.00  0.00     0.043 A 
ATOM     25  C   UNL     1      29.596  17.949 -37.768  1.00  0.00     0.014 A 
ATOM     26  C   UNL     1      27.351  18.876 -37.694  1.00  0.00     0.053 A 
ATOM     27  C   UNL     1      30.094  19.086 -37.132  1.00  0.00     0.004 A 
ATOM     28  C   UNL     1      27.862  19.998 -37.055  1.00  0.00     0.124 A 
ATOM     29  C   UNL     1      29.222  20.112 -36.770  1.00  0.00     0.039 A 
ATOM     30  F   UNL     1      27.035  20.990 -36.703  1.00  0.00    -0.207 F 
ENDBRANCH  22  24
ENDBRANCH  15  20
ENDBRANCH  11  14
ENDBRANCH   7  10
ENDBRANCH   1   7
BRANCH   5  31
ATOM     31  N   UNL     1      32.565   8.402 -47.933  1.00  0.00     0.065 N 
ATOM     32  O   UNL     1      33.495   7.583 -47.932  1.00  0.00    -0.258 OA
ATOM     33  O   UNL     1      31.847   8.661 -48.910  1.00  0.00    -0.258 OA
ENDBRANCH   5  31
BRANCH   4  34
ATOM     34  N   UNL     1      34.610   9.755 -46.351  1.00  0.00    -0.379 N 
ATOM     35  H   UNL     1      35.213   9.041 -45.911  1.00  0.00     0.160 HD
BRANCH  34  36
ATOM     36  C   UNL     1      35.291  11.053 -46.399  1.00  0.00     0.124 C 
BRANCH  36  37
ATOM     37  C   UNL     1      36.195  11.166 -47.634  1.00  0.00     0.096 C 
BRANCH  37  38
ATOM     38  S   UNL     1      37.322  12.613 -47.607  1.00  0.00    -0.124 SA
BRANCH  38  39
ATOM     39  C   UNL     1      38.801  11.866 -46.951  1.00  0.00     0.007 A 
ATOM     40  C   UNL     1      39.138  10.568 -47.351  1.00  0.00     0.015 A 
ATOM     41  C   UNL     1      39.629  12.546 -46.052  1.00  0.00     0.015 A 
ATOM     42  C   UNL     1      40.280   9.945 -46.840  1.00  0.00     0.001 A 
ATOM     43  C   UNL     1      40.769  11.923 -45.540  1.00  0.00     0.001 A 
ATOM     44  C   UNL     1      41.092  10.623 -45.932  1.00  0.00     0.000 A 
ENDBRANCH  38  39
ENDBRANCH  37  38
ENDBRANCH  36  37
ENDBRANCH  34  36
ENDBRANCH   4  34
TORSDOF 11
ENDMDL
