REMARK VINA RESULT:    -8.576      1.896      4.169
REMARK INTER + INTRA:         -12.580
REMARK INTER:                 -12.171
REMARK INTRA:                  -0.409
REMARK UNBOUND:                -1.246
REMARK SMILES COc1ccccc1-c1cc2c(N[C@@H]3CC[C@](C)(N)C3(C)C)c(C(N)=O)cnn2c1
REMARK SMILES IDX 9 1 10 2 11 3 12 4 23 5 27 6 28 7 29 8 30 9 8 10 3 11 4 12
REMARK SMILES IDX 5 13 7 14 6 15 2 16 1 17 13 18 14 20 15 21 20 22 16 23 17 24
REMARK SMILES IDX 21 25 22 26 18 27 19 28 24 31 25 32 26 33
REMARK H PARENT 13 19 19 29 19 30 25 34 25 35
ROOT
ATOM      1  C   UNL     1       5.181 -24.875  22.171  1.00  0.00     0.006 A 
ATOM      2  C   UNL     1       5.988 -23.762  22.524  1.00  0.00     0.041 A 
ATOM      3  C   UNL     1       5.485 -22.648  21.869  1.00  0.00     0.089 A 
ATOM      4  C   UNL     1       5.866 -21.265  21.829  1.00  0.00     0.075 A 
ATOM      5  C   UNL     1       5.049 -20.429  21.144  1.00  0.00     0.085 A 
ATOM      6  C   UNL     1       3.935 -21.050  20.374  1.00  0.00     0.150 A 
ATOM      7  N   UNL     1       3.599 -22.300  20.347  1.00  0.00    -0.176 NA
ATOM      8  N   UNL     1       4.395 -23.066  21.128  1.00  0.00    -0.238 N 
ATOM      9  C   UNL     1       4.220 -24.416  21.296  1.00  0.00     0.122 A 
ENDROOT
BRANCH   1  10
ATOM     10  C   UNL     1       5.277 -26.257  22.600  1.00  0.00     0.025 A 
ATOM     11  C   UNL     1       4.257 -27.186  22.319  1.00  0.00     0.126 A 
ATOM     12  C   UNL     1       4.395 -28.504  22.771  1.00  0.00     0.047 A 
ATOM     13  C   UNL     1       5.535 -28.898  23.478  1.00  0.00     0.004 A 
ATOM     14  C   UNL     1       6.417 -26.660  23.312  1.00  0.00     0.012 A 
ATOM     15  C   UNL     1       6.546 -27.977  23.748  1.00  0.00     0.001 A 
BRANCH  11  16
ATOM     16  O   UNL     1       3.168 -26.723  21.626  1.00  0.00    -0.496 OA
ATOM     17  C   UNL     1       2.267 -27.694  21.115  1.00  0.00     0.278 C 
ENDBRANCH  11  16
ENDBRANCH   1  10
BRANCH   4  18
ATOM     18  N   UNL     1       7.024 -20.894  22.517  1.00  0.00    -0.379 N 
ATOM     19  H   UNL     1       6.907 -20.872  23.540  1.00  0.00     0.160 HD
BRANCH  18  20
ATOM     20  C   UNL     1       8.385 -21.331  22.175  1.00  0.00     0.086 C 
ATOM     21  C   UNL     1       9.071 -21.909  23.432  1.00  0.00     0.027 C 
ATOM     22  C   UNL     1       9.288 -20.125  21.770  1.00  0.00     0.003 C 
ATOM     23  C   UNL     1       9.974 -20.806  23.999  1.00  0.00     0.024 C 
ATOM     24  C   UNL     1       9.701 -19.538  23.164  1.00  0.00     0.020 C 
ATOM     25  C   UNL     1      10.507 -20.666  20.976  1.00  0.00     0.015 C 
ATOM     26  C   UNL     1       8.587 -19.108  20.847  1.00  0.00     0.015 C 
ATOM     27  C   UNL     1      10.915 -18.603  23.147  1.00  0.00     0.028 C 
BRANCH  24  28
ATOM     28  N   UNL     1       8.579 -18.810  23.800  1.00  0.00    -0.325 NA
ATOM     29  H   UNL     1       7.706 -19.306  23.612  1.00  0.00     0.119 HD
ATOM     30  H   UNL     1       8.468 -17.898  23.353  1.00  0.00     0.119 HD
ENDBRANCH  24  28
ENDBRANCH  18  20
ENDBRANCH   4  18
BRANCH   5  31
ATOM     31  C   UNL     1       5.174 -18.948  21.096  1.00  0.00     0.252 C 
ATOM     32  N   UNL     1       5.137 -18.382  19.861  1.00  0.00    -0.365 N 
ATOM     33  O   UNL     1       5.379 -18.276  22.101  1.00  0.00    -0.269 OA
ATOM     34  H   UNL     1       5.249 -17.381  19.770  1.00  0.00     0.159 HD
ATOM     35  H   UNL     1       4.917 -18.947  19.045  1.00  0.00     0.159 HD
ENDBRANCH   5  31
TORSDOF 6
