MODEL 1
REMARK VINA RESULT:    -9.432      0.000      0.000
REMARK INTER + INTRA:         -13.311
REMARK INTER:                 -12.189
REMARK INTRA:                  -1.122
REMARK UNBOUND:                -1.122
REMARK SMILES Cc1cc2c(cc1C)[n+](Cc1ccccc1C)cn2C(c1ccccc1)c1ccccc1
REMARK SMILES IDX 1 1 2 2 3 3 4 4 5 5 6 6 7 7 8 8 9 9 18 10 19 11 20 12 21 13
REMARK SMILES IDX 22 14 26 15 23 16 25 17 24 18 27 19 28 20 32 21 29 22 31 23
REMARK SMILES IDX 30 24 10 25 11 26 12 27 16 28 13 29 15 30 14 31 17 32
REMARK H PARENT
ROOT
ATOM      1  C   UNL     1     -16.807 -42.405  28.524  1.00  0.00     0.045 C 
ATOM      2  C   UNL     1     -17.595 -42.418  27.235  1.00  0.00    -0.044 A 
ATOM      3  C   UNL     1     -18.992 -42.247  27.306  1.00  0.00     0.060 A 
ATOM      4  C   UNL     1     -19.685 -42.262  26.100  1.00  0.00     0.175 A 
ATOM      5  C   UNL     1     -19.039 -42.425  24.870  1.00  0.00     0.174 A 
ATOM      6  C   UNL     1     -17.662 -42.600  24.774  1.00  0.00     0.060 A 
ATOM      7  C   UNL     1     -16.938 -42.596  25.983  1.00  0.00    -0.044 A 
ATOM      8  C   UNL     1     -15.440 -42.778  25.921  1.00  0.00     0.045 C 
ATOM      9  N   UNL     1     -20.029 -42.355  23.896  1.00  0.00    -0.226 N 
ATOM     10  C   UNL     1     -21.225 -42.203  24.488  1.00  0.00     0.406 A 
ATOM     11  N   UNL     1     -21.044 -42.128  25.815  1.00  0.00    -0.218 N 
ENDROOT
BRANCH  11  12
ATOM     12  C   UNL     1     -22.120 -41.931  26.808  1.00  0.00     0.242 C 
BRANCH  12  13
ATOM     13  C   UNL     1     -22.952 -43.202  26.918  1.00  0.00     0.001 A 
ATOM     14  C   UNL     1     -22.414 -44.307  27.607  1.00  0.00     0.008 A 
ATOM     15  C   UNL     1     -24.216 -43.343  26.319  1.00  0.00     0.008 A 
ATOM     16  C   UNL     1     -23.120 -45.506  27.700  1.00  0.00     0.000 A 
ATOM     17  C   UNL     1     -24.919 -44.546  26.414  1.00  0.00     0.000 A 
ATOM     18  C   UNL     1     -24.373 -45.625  27.102  1.00  0.00     0.000 A 
ENDBRANCH  12  13
BRANCH  12  19
ATOM     19  C   UNL     1     -22.880 -40.645  26.516  1.00  0.00     0.001 A 
ATOM     20  C   UNL     1     -23.270 -39.827  27.593  1.00  0.00     0.008 A 
ATOM     21  C   UNL     1     -23.240 -40.248  25.215  1.00  0.00     0.008 A 
ATOM     22  C   UNL     1     -23.981 -38.646  27.375  1.00  0.00     0.000 A 
ATOM     23  C   UNL     1     -23.950 -39.065  25.001  1.00  0.00     0.000 A 
ATOM     24  C   UNL     1     -24.318 -38.264  26.079  1.00  0.00     0.000 A 
ENDBRANCH  12  19
ENDBRANCH  11  12
BRANCH   9  25
ATOM     25  C   UNL     1     -19.843 -42.443  22.446  1.00  0.00     0.279 C 
BRANCH  25  26
ATOM     26  C   UNL     1     -20.367 -41.186  21.790  1.00  0.00    -0.004 A 
ATOM     27  C   UNL     1     -20.139 -39.950  22.424  1.00  0.00     0.008 A 
ATOM     28  C   UNL     1     -21.049 -41.208  20.552  1.00  0.00    -0.044 A 
ATOM     29  C   UNL     1     -20.559 -38.756  21.838  1.00  0.00     0.000 A 
ATOM     30  C   UNL     1     -21.455 -39.995  19.973  1.00  0.00     0.004 A 
ATOM     31  C   UNL     1     -21.212 -38.780  20.611  1.00  0.00     0.000 A 
ATOM     32  C   UNL     1     -21.331 -42.487  19.809  1.00  0.00     0.045 C 
ENDBRANCH  25  26
ENDBRANCH   9  25
TORSDOF 5
ENDMDL
MODEL 2
REMARK VINA RESULT:    -9.373      1.724      5.690
REMARK INTER + INTRA:         -13.235
REMARK INTER:                 -13.135
REMARK INTRA:                  -0.100
REMARK UNBOUND:                -1.122
REMARK SMILES Cc1cc2c(cc1C)[n+](Cc1ccccc1C)cn2C(c1ccccc1)c1ccccc1
REMARK SMILES IDX 1 1 2 2 3 3 4 4 5 5 6 6 7 7 8 8 9 9 18 10 19 11 20 12 21 13
REMARK SMILES IDX 22 14 26 15 23 16 25 17 24 18 27 19 28 20 32 21 29 22 31 23
REMARK SMILES IDX 30 24 10 25 11 26 12 27 16 28 13 29 15 30 14 31 17 32
REMARK H PARENT
ROOT
ATOM      1  C   UNL     1     -23.999 -40.048  26.107  1.00  0.00     0.045 C 
ATOM      2  C   UNL     1     -22.907 -40.170  25.071  1.00  0.00    -0.044 A 
ATOM      3  C   UNL     1     -21.716 -40.831  25.432  1.00  0.00     0.060 A 
ATOM      4  C   UNL     1     -20.733 -40.927  24.452  1.00  0.00     0.175 A 
ATOM      5  C   UNL     1     -20.909 -40.408  23.165  1.00  0.00     0.174 A 
ATOM      6  C   UNL     1     -22.074 -39.749  22.785  1.00  0.00     0.060 A 
ATOM      7  C   UNL     1     -23.082 -39.632  23.763  1.00  0.00    -0.044 A 
ATOM      8  C   UNL     1     -24.364 -38.926  23.389  1.00  0.00     0.045 C 
ATOM      9  N   UNL     1     -19.751 -40.714  22.459  1.00  0.00    -0.226 N 
ATOM     10  C   UNL     1     -18.888 -41.345  23.271  1.00  0.00     0.406 A 
ATOM     11  N   UNL     1     -19.461 -41.499  24.474  1.00  0.00    -0.218 N 
ENDROOT
BRANCH  11  12
ATOM     12  C   UNL     1     -18.837 -42.174  25.631  1.00  0.00     0.242 C 
BRANCH  12  13
ATOM     13  C   UNL     1     -17.422 -42.605  25.268  1.00  0.00     0.001 A 
ATOM     14  C   UNL     1     -16.424 -42.561  26.262  1.00  0.00     0.008 A 
ATOM     15  C   UNL     1     -17.051 -43.000  23.971  1.00  0.00     0.008 A 
ATOM     16  C   UNL     1     -15.105 -42.906  25.969  1.00  0.00     0.000 A 
ATOM     17  C   UNL     1     -15.729 -43.344  23.682  1.00  0.00     0.000 A 
ATOM     18  C   UNL     1     -14.758 -43.297  24.678  1.00  0.00     0.000 A 
ENDBRANCH  12  13
BRANCH  12  19
ATOM     19  C   UNL     1     -19.759 -43.259  26.171  1.00  0.00     0.001 A 
ATOM     20  C   UNL     1     -20.014 -43.306  27.554  1.00  0.00     0.008 A 
ATOM     21  C   UNL     1     -20.348 -44.239  25.353  1.00  0.00     0.008 A 
ATOM     22  C   UNL     1     -20.842 -44.290  28.097  1.00  0.00     0.000 A 
ATOM     23  C   UNL     1     -21.177 -45.222  25.899  1.00  0.00     0.000 A 
ATOM     24  C   UNL     1     -21.424 -45.245  27.269  1.00  0.00     0.000 A 
ENDBRANCH  12  19
ENDBRANCH  11  12
BRANCH   9  25
ATOM     25  C   UNL     1     -19.471 -40.404  21.055  1.00  0.00     0.279 C 
BRANCH  25  26
ATOM     26  C   UNL     1     -20.679 -40.738  20.210  1.00  0.00    -0.004 A 
ATOM     27  C   UNL     1     -21.122 -42.074  20.167  1.00  0.00     0.008 A 
ATOM     28  C   UNL     1     -21.393 -39.753  19.492  1.00  0.00    -0.044 A 
ATOM     29  C   UNL     1     -22.260 -42.427  19.442  1.00  0.00     0.000 A 
ATOM     30  C   UNL     1     -22.543 -40.127  18.777  1.00  0.00     0.004 A 
ATOM     31  C   UNL     1     -22.972 -41.453  18.752  1.00  0.00     0.000 A 
ATOM     32  C   UNL     1     -20.987 -38.303  19.487  1.00  0.00     0.045 C 
ENDBRANCH  25  26
ENDBRANCH   9  25
TORSDOF 5
ENDMDL
MODEL 3
REMARK VINA RESULT:    -9.361      2.287      6.146
REMARK INTER + INTRA:         -13.220
REMARK INTER:                 -12.457
REMARK INTRA:                  -0.763
REMARK UNBOUND:                -1.122
REMARK SMILES Cc1cc2c(cc1C)[n+](Cc1ccccc1C)cn2C(c1ccccc1)c1ccccc1
REMARK SMILES IDX 1 1 2 2 3 3 4 4 5 5 6 6 7 7 8 8 9 9 18 10 19 11 20 12 21 13
REMARK SMILES IDX 22 14 26 15 23 16 25 17 24 18 27 19 28 20 32 21 29 22 31 23
REMARK SMILES IDX 30 24 10 25 11 26 12 27 16 28 13 29 15 30 14 31 17 32
REMARK H PARENT
ROOT
ATOM      1  C   UNL     1     -23.340 -39.569  21.660  1.00  0.00     0.045 C 
ATOM      2  C   UNL     1     -22.181 -40.343  22.243  1.00  0.00    -0.044 A 
ATOM      3  C   UNL     1     -22.461 -41.522  22.960  1.00  0.00     0.060 A 
ATOM      4  C   UNL     1     -21.370 -42.211  23.481  1.00  0.00     0.175 A 
ATOM      5  C   UNL     1     -20.054 -41.772  23.299  1.00  0.00     0.174 A 
ATOM      6  C   UNL     1     -19.752 -40.609  22.597  1.00  0.00     0.060 A 
ATOM      7  C   UNL     1     -20.841 -39.889  22.066  1.00  0.00    -0.044 A 
ATOM      8  C   UNL     1     -20.555 -38.623  21.294  1.00  0.00     0.045 C 
ATOM      9  N   UNL     1     -19.239 -42.712  23.919  1.00  0.00    -0.226 N 
ATOM     10  C   UNL     1     -20.004 -43.656  24.492  1.00  0.00     0.406 A 
ATOM     11  N   UNL     1     -21.291 -43.385  24.230  1.00  0.00    -0.218 N 
ENDROOT
BRANCH  11  12
ATOM     12  C   UNL     1     -22.437 -44.210  24.666  1.00  0.00     0.242 C 
BRANCH  12  13
ATOM     13  C   UNL     1     -22.394 -44.384  26.179  1.00  0.00     0.001 A 
ATOM     14  C   UNL     1     -23.588 -44.237  26.912  1.00  0.00     0.008 A 
ATOM     15  C   UNL     1     -21.206 -44.635  26.886  1.00  0.00     0.008 A 
ATOM     16  C   UNL     1     -23.593 -44.346  28.302  1.00  0.00     0.000 A 
ATOM     17  C   UNL     1     -21.216 -44.744  28.279  1.00  0.00     0.000 A 
ATOM     18  C   UNL     1     -22.406 -44.599  28.985  1.00  0.00     0.000 A 
ENDBRANCH  12  13
BRANCH  12  19
ATOM     19  C   UNL     1     -22.516 -45.485  23.838  1.00  0.00     0.001 A 
ATOM     20  C   UNL     1     -22.909 -45.396  22.490  1.00  0.00     0.008 A 
ATOM     21  C   UNL     1     -22.244 -46.759  24.369  1.00  0.00     0.008 A 
ATOM     22  C   UNL     1     -23.009 -46.540  21.696  1.00  0.00     0.000 A 
ATOM     23  C   UNL     1     -22.344 -47.901  23.571  1.00  0.00     0.000 A 
ATOM     24  C   UNL     1     -22.724 -47.790  22.236  1.00  0.00     0.000 A 
ENDBRANCH  12  19
ENDBRANCH  11  12
BRANCH   9  25
ATOM     25  C   UNL     1     -17.775 -42.706  23.974  1.00  0.00     0.279 C 
BRANCH  25  26
ATOM     26  C   UNL     1     -17.322 -42.655  25.414  1.00  0.00    -0.004 A 
ATOM     27  C   UNL     1     -18.263 -42.320  26.406  1.00  0.00     0.008 A 
ATOM     28  C   UNL     1     -15.997 -42.963  25.800  1.00  0.00    -0.044 A 
ATOM     29  C   UNL     1     -17.909 -42.306  27.755  1.00  0.00     0.000 A 
ATOM     30  C   UNL     1     -15.663 -42.955  27.164  1.00  0.00     0.004 A 
ATOM     31  C   UNL     1     -16.611 -42.628  28.132  1.00  0.00     0.000 A 
ATOM     32  C   UNL     1     -14.931 -43.333  24.803  1.00  0.00     0.045 C 
ENDBRANCH  25  26
ENDBRANCH   9  25
TORSDOF 5
ENDMDL
MODEL 4
REMARK VINA RESULT:    -9.290      1.628      6.562
REMARK INTER + INTRA:         -13.128
REMARK INTER:                 -11.955
REMARK INTRA:                  -1.172
REMARK UNBOUND:                -1.122
REMARK SMILES Cc1cc2c(cc1C)[n+](Cc1ccccc1C)cn2C(c1ccccc1)c1ccccc1
REMARK SMILES IDX 1 1 2 2 3 3 4 4 5 5 6 6 7 7 8 8 9 9 18 10 19 11 20 12 21 13
REMARK SMILES IDX 22 14 26 15 23 16 25 17 24 18 27 19 28 20 32 21 29 22 31 23
REMARK SMILES IDX 30 24 10 25 11 26 12 27 16 28 13 29 15 30 14 31 17 32
REMARK H PARENT
ROOT
ATOM      1  C   UNL     1     -15.165 -43.439  23.633  1.00  0.00     0.045 C 
ATOM      2  C   UNL     1     -16.504 -42.968  24.149  1.00  0.00    -0.044 A 
ATOM      3  C   UNL     1     -17.549 -42.783  23.222  1.00  0.00     0.060 A 
ATOM      4  C   UNL     1     -18.769 -42.351  23.733  1.00  0.00     0.175 A 
ATOM      5  C   UNL     1     -18.966 -42.120  25.098  1.00  0.00     0.174 A 
ATOM      6  C   UNL     1     -17.950 -42.292  26.033  1.00  0.00     0.060 A 
ATOM      7  C   UNL     1     -16.702 -42.721  25.539  1.00  0.00    -0.044 A 
ATOM      8  C   UNL     1     -15.574 -42.924  26.523  1.00  0.00     0.045 C 
ATOM      9  N   UNL     1     -20.295 -41.738  25.242  1.00  0.00    -0.226 N 
ATOM     10  C   UNL     1     -20.878 -41.690  24.032  1.00  0.00     0.406 A 
ATOM     11  N   UNL     1     -19.983 -42.071  23.108  1.00  0.00    -0.218 N 
ENDROOT
BRANCH  11  12
ATOM     12  C   UNL     1     -20.254 -42.176  21.659  1.00  0.00     0.242 C 
BRANCH  12  13
ATOM     13  C   UNL     1     -20.585 -40.798  21.100  1.00  0.00     0.001 A 
ATOM     14  C   UNL     1     -21.880 -40.280  21.296  1.00  0.00     0.008 A 
ATOM     15  C   UNL     1     -19.670 -40.036  20.353  1.00  0.00     0.008 A 
ATOM     16  C   UNL     1     -22.243 -39.041  20.768  1.00  0.00     0.000 A 
ATOM     17  C   UNL     1     -20.038 -38.796  19.826  1.00  0.00     0.000 A 
ATOM     18  C   UNL     1     -21.322 -38.300  20.033  1.00  0.00     0.000 A 
ENDBRANCH  12  13
BRANCH  12  19
ATOM     19  C   UNL     1     -21.269 -43.278  21.389  1.00  0.00     0.001 A 
ATOM     20  C   UNL     1     -21.455 -43.721  20.066  1.00  0.00     0.008 A 
ATOM     21  C   UNL     1     -22.055 -43.858  22.401  1.00  0.00     0.008 A 
ATOM     22  C   UNL     1     -22.383 -44.720  19.769  1.00  0.00     0.000 A 
ATOM     23  C   UNL     1     -22.982 -44.858  22.099  1.00  0.00     0.000 A 
ATOM     24  C   UNL     1     -23.144 -45.289  20.785  1.00  0.00     0.000 A 
ENDBRANCH  12  19
ENDBRANCH  11  12
BRANCH   9  25
ATOM     25  C   UNL     1     -20.987 -41.417  26.492  1.00  0.00     0.279 C 
BRANCH  25  26
ATOM     26  C   UNL     1     -21.676 -42.653  27.023  1.00  0.00    -0.004 A 
ATOM     27  C   UNL     1     -20.885 -43.694  27.546  1.00  0.00     0.008 A 
ATOM     28  C   UNL     1     -23.083 -42.784  27.042  1.00  0.00    -0.044 A 
ATOM     29  C   UNL     1     -21.471 -44.834  28.092  1.00  0.00     0.000 A 
ATOM     30  C   UNL     1     -23.655 -43.935  27.607  1.00  0.00     0.004 A 
ATOM     31  C   UNL     1     -22.856 -44.951  28.126  1.00  0.00     0.000 A 
ATOM     32  C   UNL     1     -24.000 -41.717  26.505  1.00  0.00     0.045 C 
ENDBRANCH  25  26
ENDBRANCH   9  25
TORSDOF 5
ENDMDL
MODEL 5
REMARK VINA RESULT:    -9.195      7.612     12.698
REMARK INTER + INTRA:         -13.004
REMARK INTER:                 -11.869
REMARK INTRA:                  -1.135
REMARK UNBOUND:                -1.122
REMARK SMILES Cc1cc2c(cc1C)[n+](Cc1ccccc1C)cn2C(c1ccccc1)c1ccccc1
REMARK SMILES IDX 1 1 2 2 3 3 4 4 5 5 6 6 7 7 8 8 9 9 18 10 19 11 20 12 21 13
REMARK SMILES IDX 22 14 26 15 23 16 25 17 24 18 27 19 28 20 32 21 29 22 31 23
REMARK SMILES IDX 30 24 10 25 11 26 12 27 16 28 13 29 15 30 14 31 17 32
REMARK H PARENT
ROOT
ATOM      1  C   UNL     1     -12.348 -41.427  34.899  1.00  0.00     0.045 C 
ATOM      2  C   UNL     1     -12.558 -42.266  33.661  1.00  0.00    -0.044 A 
ATOM      3  C   UNL     1     -11.491 -42.386  32.748  1.00  0.00     0.060 A 
ATOM      4  C   UNL     1     -11.719 -43.168  31.620  1.00  0.00     0.175 A 
ATOM      5  C   UNL     1     -12.936 -43.819  31.398  1.00  0.00     0.174 A 
ATOM      6  C   UNL     1     -14.006 -43.715  32.282  1.00  0.00     0.060 A 
ATOM      7  C   UNL     1     -13.803 -42.921  33.429  1.00  0.00    -0.044 A 
ATOM      8  C   UNL     1     -14.937 -42.785  34.416  1.00  0.00     0.045 C 
ATOM      9  N   UNL     1     -12.791 -44.524  30.208  1.00  0.00    -0.226 N 
ATOM     10  C   UNL     1     -11.571 -44.289  29.698  1.00  0.00     0.406 A 
ATOM     11  N   UNL     1     -10.899 -43.487  30.538  1.00  0.00    -0.218 N 
ENDROOT
BRANCH  11  12
ATOM     12  C   UNL     1      -9.510 -43.024  30.340  1.00  0.00     0.242 C 
BRANCH  12  13
ATOM     13  C   UNL     1      -9.285 -42.701  28.868  1.00  0.00     0.001 A 
ATOM     14  C   UNL     1      -7.995 -42.318  28.449  1.00  0.00     0.008 A 
ATOM     15  C   UNL     1     -10.316 -42.718  27.915  1.00  0.00     0.008 A 
ATOM     16  C   UNL     1      -7.748 -41.973  27.121  1.00  0.00     0.000 A 
ATOM     17  C   UNL     1     -10.064 -42.371  26.585  1.00  0.00     0.000 A 
ATOM     18  C   UNL     1      -8.783 -41.999  26.189  1.00  0.00     0.000 A 
ENDBRANCH  12  13
BRANCH  12  19
ATOM     19  C   UNL     1      -8.531 -44.000  30.978  1.00  0.00     0.001 A 
ATOM     20  C   UNL     1      -7.623 -43.520  31.940  1.00  0.00     0.008 A 
ATOM     21  C   UNL     1      -8.471 -45.361  30.628  1.00  0.00     0.008 A 
ATOM     22  C   UNL     1      -6.698 -44.375  32.542  1.00  0.00     0.000 A 
ATOM     23  C   UNL     1      -7.545 -46.214  31.233  1.00  0.00     0.000 A 
ATOM     24  C   UNL     1      -6.662 -45.721  32.190  1.00  0.00     0.000 A 
ENDBRANCH  12  19
ENDBRANCH  11  12
BRANCH   9  25
ATOM     25  C   UNL     1     -13.788 -45.387  29.570  1.00  0.00     0.279 C 
BRANCH  25  26
ATOM     26  C   UNL     1     -14.139 -44.836  28.208  1.00  0.00    -0.004 A 
ATOM     27  C   UNL     1     -15.016 -43.737  28.131  1.00  0.00     0.008 A 
ATOM     28  C   UNL     1     -13.594 -45.364  27.015  1.00  0.00    -0.044 A 
ATOM     29  C   UNL     1     -15.335 -43.159  26.903  1.00  0.00     0.000 A 
ATOM     30  C   UNL     1     -13.918 -44.761  25.789  1.00  0.00     0.004 A 
ATOM     31  C   UNL     1     -14.782 -43.669  25.734  1.00  0.00     0.000 A 
ATOM     32  C   UNL     1     -12.648 -46.535  27.010  1.00  0.00     0.045 C 
ENDBRANCH  25  26
ENDBRANCH   9  25
TORSDOF 5
ENDMDL
MODEL 6
REMARK VINA RESULT:    -8.767      1.622      6.090
REMARK INTER + INTRA:         -12.452
REMARK INTER:                 -11.974
REMARK INTRA:                  -0.478
REMARK UNBOUND:                -1.122
REMARK SMILES Cc1cc2c(cc1C)[n+](Cc1ccccc1C)cn2C(c1ccccc1)c1ccccc1
REMARK SMILES IDX 1 1 2 2 3 3 4 4 5 5 6 6 7 7 8 8 9 9 18 10 19 11 20 12 21 13
REMARK SMILES IDX 22 14 26 15 23 16 25 17 24 18 27 19 28 20 32 21 29 22 31 23
REMARK SMILES IDX 30 24 10 25 11 26 12 27 16 28 13 29 15 30 14 31 17 32
REMARK H PARENT
ROOT
ATOM      1  C   UNL     1     -22.373 -47.624  24.016  1.00  0.00     0.045 C 
ATOM      2  C   UNL     1     -22.546 -46.343  24.797  1.00  0.00    -0.044 A 
ATOM      3  C   UNL     1     -21.572 -45.335  24.649  1.00  0.00     0.060 A 
ATOM      4  C   UNL     1     -21.765 -44.168  25.381  1.00  0.00     0.175 A 
ATOM      5  C   UNL     1     -22.871 -43.985  26.217  1.00  0.00     0.174 A 
ATOM      6  C   UNL     1     -23.844 -44.966  26.383  1.00  0.00     0.060 A 
ATOM      7  C   UNL     1     -23.668 -46.161  25.657  1.00  0.00    -0.044 A 
ATOM      8  C   UNL     1     -24.704 -47.250  25.806  1.00  0.00     0.045 C 
ATOM      9  N   UNL     1     -22.751 -42.707  26.752  1.00  0.00    -0.226 N 
ATOM     10  C   UNL     1     -21.614 -42.146  26.310  1.00  0.00     0.406 A 
ATOM     11  N   UNL     1     -21.009 -42.999  25.471  1.00  0.00    -0.218 N 
ENDROOT
BRANCH  11  12
ATOM     12  C   UNL     1     -19.743 -42.732  24.756  1.00  0.00     0.242 C 
BRANCH  12  13
ATOM     13  C   UNL     1     -18.602 -42.626  25.759  1.00  0.00     0.001 A 
ATOM     14  C   UNL     1     -17.280 -42.791  25.301  1.00  0.00     0.008 A 
ATOM     15  C   UNL     1     -18.809 -42.421  27.134  1.00  0.00     0.008 A 
ATOM     16  C   UNL     1     -16.204 -42.744  26.187  1.00  0.00     0.000 A 
ATOM     17  C   UNL     1     -17.729 -42.376  28.018  1.00  0.00     0.000 A 
ATOM     18  C   UNL     1     -16.430 -42.537  27.546  1.00  0.00     0.000 A 
ENDBRANCH  12  13
BRANCH  12  19
ATOM     19  C   UNL     1     -19.915 -41.561  23.798  1.00  0.00     0.001 A 
ATOM     20  C   UNL     1     -21.080 -40.776  23.885  1.00  0.00     0.008 A 
ATOM     21  C   UNL     1     -18.973 -41.242  22.803  1.00  0.00     0.008 A 
ATOM     22  C   UNL     1     -21.287 -39.701  23.020  1.00  0.00     0.000 A 
ATOM     23  C   UNL     1     -19.182 -40.165  21.939  1.00  0.00     0.000 A 
ATOM     24  C   UNL     1     -20.337 -39.395  22.049  1.00  0.00     0.000 A 
ENDBRANCH  12  19
ENDBRANCH  11  12
BRANCH   9  25
ATOM     25  C   UNL     1     -23.685 -42.045  27.665  1.00  0.00     0.279 C 
BRANCH  25  26
ATOM     26  C   UNL     1     -23.945 -40.634  27.190  1.00  0.00    -0.004 A 
ATOM     27  C   UNL     1     -23.528 -39.562  28.003  1.00  0.00     0.008 A 
ATOM     28  C   UNL     1     -24.561 -40.356  25.949  1.00  0.00    -0.044 A 
ATOM     29  C   UNL     1     -23.700 -38.242  27.590  1.00  0.00     0.000 A 
ATOM     30  C   UNL     1     -24.715 -39.020  25.546  1.00  0.00     0.004 A 
ATOM     31  C   UNL     1     -24.288 -37.972  26.360  1.00  0.00     0.000 A 
ATOM     32  C   UNL     1     -25.033 -41.443  25.021  1.00  0.00     0.045 C 
ENDBRANCH  25  26
ENDBRANCH   9  25
TORSDOF 5
ENDMDL
MODEL 7
REMARK VINA RESULT:    -8.736      1.610      2.324
REMARK INTER + INTRA:         -12.412
REMARK INTER:                 -11.702
REMARK INTRA:                  -0.710
REMARK UNBOUND:                -1.122
REMARK SMILES Cc1cc2c(cc1C)[n+](Cc1ccccc1C)cn2C(c1ccccc1)c1ccccc1
REMARK SMILES IDX 1 1 2 2 3 3 4 4 5 5 6 6 7 7 8 8 9 9 18 10 19 11 20 12 21 13
REMARK SMILES IDX 22 14 26 15 23 16 25 17 24 18 27 19 28 20 32 21 29 22 31 23
REMARK SMILES IDX 30 24 10 25 11 26 12 27 16 28 13 29 15 30 14 31 17 32
REMARK H PARENT
ROOT
ATOM      1  C   UNL     1     -15.730 -43.172  26.408  1.00  0.00     0.045 C 
ATOM      2  C   UNL     1     -16.612 -42.636  25.305  1.00  0.00    -0.044 A 
ATOM      3  C   UNL     1     -18.003 -42.598  25.523  1.00  0.00     0.060 A 
ATOM      4  C   UNL     1     -18.785 -42.096  24.488  1.00  0.00     0.175 A 
ATOM      5  C   UNL     1     -18.229 -41.637  23.289  1.00  0.00     0.174 A 
ATOM      6  C   UNL     1     -16.859 -41.667  23.048  1.00  0.00     0.060 A 
ATOM      7  C   UNL     1     -16.046 -42.179  24.079  1.00  0.00    -0.044 A 
ATOM      8  C   UNL     1     -14.553 -42.225  23.859  1.00  0.00     0.045 C 
ATOM      9  N   UNL     1     -19.291 -41.184  22.514  1.00  0.00    -0.226 N 
ATOM     10  C   UNL     1     -20.443 -41.391  23.173  1.00  0.00     0.406 A 
ATOM     11  N   UNL     1     -20.164 -41.925  24.372  1.00  0.00    -0.218 N 
ENDROOT
BRANCH  11  12
ATOM     12  C   UNL     1     -21.167 -42.270  25.400  1.00  0.00     0.242 C 
BRANCH  12  13
ATOM     13  C   UNL     1     -21.777 -43.629  25.082  1.00  0.00     0.001 A 
ATOM     14  C   UNL     1     -21.122 -44.790  25.540  1.00  0.00     0.008 A 
ATOM     15  C   UNL     1     -22.940 -43.784  24.310  1.00  0.00     0.008 A 
ATOM     16  C   UNL     1     -21.618 -46.058  25.241  1.00  0.00     0.000 A 
ATOM     17  C   UNL     1     -23.434 -45.056  24.011  1.00  0.00     0.000 A 
ATOM     18  C   UNL     1     -22.775 -46.190  24.475  1.00  0.00     0.000 A 
ENDBRANCH  12  13
BRANCH  12  19
ATOM     19  C   UNL     1     -22.143 -41.117  25.595  1.00  0.00     0.001 A 
ATOM     20  C   UNL     1     -22.407 -40.665  26.902  1.00  0.00     0.008 A 
ATOM     21  C   UNL     1     -22.820 -40.500  24.529  1.00  0.00     0.008 A 
ATOM     22  C   UNL     1     -23.303 -39.620  27.131  1.00  0.00     0.000 A 
ATOM     23  C   UNL     1     -23.716 -39.454  24.761  1.00  0.00     0.000 A 
ATOM     24  C   UNL     1     -23.955 -39.014  26.061  1.00  0.00     0.000 A 
ENDBRANCH  12  19
ENDBRANCH  11  12
BRANCH   9  25
ATOM     25  C   UNL     1     -19.212 -40.583  21.181  1.00  0.00     0.279 C 
BRANCH  25  26
ATOM     26  C   UNL     1     -20.491 -40.856  20.424  1.00  0.00    -0.004 A 
ATOM     27  C   UNL     1     -20.882 -42.194  20.223  1.00  0.00     0.008 A 
ATOM     28  C   UNL     1     -21.321 -39.818  19.942  1.00  0.00    -0.044 A 
ATOM     29  C   UNL     1     -22.078 -42.501  19.573  1.00  0.00     0.000 A 
ATOM     30  C   UNL     1     -22.526 -40.147  19.301  1.00  0.00     0.004 A 
ATOM     31  C   UNL     1     -22.900 -41.477  19.118  1.00  0.00     0.000 A 
ATOM     32  C   UNL     1     -20.976 -38.363  20.118  1.00  0.00     0.045 C 
ENDBRANCH  25  26
ENDBRANCH   9  25
TORSDOF 5
ENDMDL
MODEL 8
REMARK VINA RESULT:    -8.644      1.792      5.576
REMARK INTER + INTRA:         -12.293
REMARK INTER:                 -11.639
REMARK INTRA:                  -0.654
REMARK UNBOUND:                -1.122
REMARK SMILES Cc1cc2c(cc1C)[n+](Cc1ccccc1C)cn2C(c1ccccc1)c1ccccc1
REMARK SMILES IDX 1 1 2 2 3 3 4 4 5 5 6 6 7 7 8 8 9 9 18 10 19 11 20 12 21 13
REMARK SMILES IDX 22 14 26 15 23 16 25 17 24 18 27 19 28 20 32 21 29 22 31 23
REMARK SMILES IDX 30 24 10 25 11 26 12 27 16 28 13 29 15 30 14 31 17 32
REMARK H PARENT
ROOT
ATOM      1  C   UNL     1     -24.197 -45.945  23.860  1.00  0.00     0.045 C 
ATOM      2  C   UNL     1     -23.118 -45.048  24.419  1.00  0.00    -0.044 A 
ATOM      3  C   UNL     1     -23.348 -43.658  24.432  1.00  0.00     0.060 A 
ATOM      4  C   UNL     1     -22.334 -42.862  24.956  1.00  0.00     0.175 A 
ATOM      5  C   UNL     1     -21.146 -43.402  25.459  1.00  0.00     0.174 A 
ATOM      6  C   UNL     1     -20.894 -44.770  25.454  1.00  0.00     0.060 A 
ATOM      7  C   UNL     1     -21.903 -45.598  24.921  1.00  0.00    -0.044 A 
ATOM      8  C   UNL     1     -21.670 -47.090  24.901  1.00  0.00     0.045 C 
ATOM      9  N   UNL     1     -20.393 -42.329  25.922  1.00  0.00    -0.226 N 
ATOM     10  C   UNL     1     -21.054 -41.185  25.680  1.00  0.00     0.406 A 
ATOM     11  N   UNL     1     -22.234 -41.479  25.113  1.00  0.00    -0.218 N 
ENDROOT
BRANCH  11  12
ATOM     12  C   UNL     1     -23.258 -40.489  24.723  1.00  0.00     0.242 C 
BRANCH  12  13
ATOM     13  C   UNL     1     -22.834 -39.796  23.434  1.00  0.00     0.001 A 
ATOM     14  C   UNL     1     -23.830 -39.263  22.592  1.00  0.00     0.008 A 
ATOM     15  C   UNL     1     -21.495 -39.707  23.018  1.00  0.00     0.008 A 
ATOM     16  C   UNL     1     -23.496 -38.656  21.382  1.00  0.00     0.000 A 
ATOM     17  C   UNL     1     -21.164 -39.099  21.805  1.00  0.00     0.000 A 
ATOM     18  C   UNL     1     -22.162 -38.574  20.989  1.00  0.00     0.000 A 
ENDBRANCH  12  13
BRANCH  12  19
ATOM     19  C   UNL     1     -23.595 -39.584  25.900  1.00  0.00     0.001 A 
ATOM     20  C   UNL     1     -23.576 -40.126  27.199  1.00  0.00     0.008 A 
ATOM     21  C   UNL     1     -23.954 -38.233  25.748  1.00  0.00     0.008 A 
ATOM     22  C   UNL     1     -23.891 -39.339  28.308  1.00  0.00     0.000 A 
ATOM     23  C   UNL     1     -24.267 -37.448  26.860  1.00  0.00     0.000 A 
ATOM     24  C   UNL     1     -24.233 -38.000  28.138  1.00  0.00     0.000 A 
ENDBRANCH  12  19
ENDBRANCH  11  12
BRANCH   9  25
ATOM     25  C   UNL     1     -19.079 -42.390  26.565  1.00  0.00     0.279 C 
BRANCH  25  26
ATOM     26  C   UNL     1     -18.002 -42.489  25.510  1.00  0.00    -0.004 A 
ATOM     27  C   UNL     1     -18.370 -42.369  24.157  1.00  0.00     0.008 A 
ATOM     28  C   UNL     1     -16.638 -42.666  25.838  1.00  0.00    -0.044 A 
ATOM     29  C   UNL     1     -17.410 -42.405  23.147  1.00  0.00     0.000 A 
ATOM     30  C   UNL     1     -15.684 -42.689  24.807  1.00  0.00     0.004 A 
ATOM     31  C   UNL     1     -16.068 -42.560  23.473  1.00  0.00     0.000 A 
ATOM     32  C   UNL     1     -16.160 -42.801  27.259  1.00  0.00     0.045 C 
ENDBRANCH  25  26
ENDBRANCH   9  25
TORSDOF 5
ENDMDL
MODEL 9
REMARK VINA RESULT:    -8.629      1.713      6.446
REMARK INTER + INTRA:         -12.274
REMARK INTER:                 -10.705
REMARK INTRA:                  -1.568
REMARK UNBOUND:                -1.122
REMARK SMILES Cc1cc2c(cc1C)[n+](Cc1ccccc1C)cn2C(c1ccccc1)c1ccccc1
REMARK SMILES IDX 1 1 2 2 3 3 4 4 5 5 6 6 7 7 8 8 9 9 18 10 19 11 20 12 21 13
REMARK SMILES IDX 22 14 26 15 23 16 25 17 24 18 27 19 28 20 32 21 29 22 31 23
REMARK SMILES IDX 30 24 10 25 11 26 12 27 16 28 13 29 15 30 14 31 17 32
REMARK H PARENT
ROOT
ATOM      1  C   UNL     1     -16.061 -42.725  24.983  1.00  0.00     0.045 C 
ATOM      2  C   UNL     1     -17.519 -42.603  25.358  1.00  0.00    -0.044 A 
ATOM      3  C   UNL     1     -18.478 -42.630  24.327  1.00  0.00     0.060 A 
ATOM      4  C   UNL     1     -19.811 -42.517  24.709  1.00  0.00     0.175 A 
ATOM      5  C   UNL     1     -20.195 -42.395  26.048  1.00  0.00     0.174 A 
ATOM      6  C   UNL     1     -19.267 -42.362  27.085  1.00  0.00     0.060 A 
ATOM      7  C   UNL     1     -17.909 -42.467  26.723  1.00  0.00    -0.044 A 
ATOM      8  C   UNL     1     -16.871 -42.440  27.819  1.00  0.00     0.045 C 
ATOM      9  N   UNL     1     -21.584 -42.341  26.054  1.00  0.00    -0.226 N 
ATOM     10  C   UNL     1     -22.035 -42.382  24.789  1.00  0.00     0.406 A 
ATOM     11  N   UNL     1     -20.988 -42.504  23.961  1.00  0.00    -0.218 N 
ENDROOT
BRANCH  11  12
ATOM     12  C   UNL     1     -21.078 -42.610  22.490  1.00  0.00     0.242 C 
BRANCH  12  13
ATOM     13  C   UNL     1     -20.872 -41.236  21.865  1.00  0.00     0.001 A 
ATOM     14  C   UNL     1     -20.359 -41.157  20.555  1.00  0.00     0.008 A 
ATOM     15  C   UNL     1     -21.124 -40.037  22.554  1.00  0.00     0.008 A 
ATOM     16  C   UNL     1     -20.114 -39.922  19.955  1.00  0.00     0.000 A 
ATOM     17  C   UNL     1     -20.877 -38.802  21.949  1.00  0.00     0.000 A 
ATOM     18  C   UNL     1     -20.373 -38.745  20.654  1.00  0.00     0.000 A 
ENDBRANCH  12  13
BRANCH  12  19
ATOM     19  C   UNL     1     -22.344 -43.354  22.090  1.00  0.00     0.001 A 
ATOM     20  C   UNL     1     -22.350 -44.761  22.143  1.00  0.00     0.008 A 
ATOM     21  C   UNL     1     -23.504 -42.701  21.637  1.00  0.00     0.008 A 
ATOM     22  C   UNL     1     -23.483 -45.487  21.774  1.00  0.00     0.000 A 
ATOM     23  C   UNL     1     -24.637 -43.431  21.269  1.00  0.00     0.000 A 
ATOM     24  C   UNL     1     -24.626 -44.821  21.339  1.00  0.00     0.000 A 
ENDBRANCH  12  19
ENDBRANCH  11  12
BRANCH   9  25
ATOM     25  C   UNL     1     -22.455 -42.243  27.227  1.00  0.00     0.279 C 
BRANCH  25  26
ATOM     26  C   UNL     1     -23.316 -43.481  27.326  1.00  0.00    -0.004 A 
ATOM     27  C   UNL     1     -24.634 -43.427  26.834  1.00  0.00     0.008 A 
ATOM     28  C   UNL     1     -22.833 -44.695  27.864  1.00  0.00    -0.044 A 
ATOM     29  C   UNL     1     -25.454 -44.555  26.857  1.00  0.00     0.000 A 
ATOM     30  C   UNL     1     -23.670 -45.823  27.868  1.00  0.00     0.004 A 
ATOM     31  C   UNL     1     -24.969 -45.752  27.369  1.00  0.00     0.000 A 
ATOM     32  C   UNL     1     -21.436 -44.838  28.409  1.00  0.00     0.045 C 
ENDBRANCH  25  26
ENDBRANCH   9  25
TORSDOF 5
ENDMDL
