REMARK VINA RESULT:    -8.080      3.486      8.652
REMARK INTER + INTRA:         -10.305
REMARK INTER:                  -9.778
REMARK INTRA:                  -0.527
REMARK UNBOUND:                -0.336
REMARK SMILES N#C/C(=C\c1ccc(O)c(O)c1)C(=O)Nc1ccccc1
REMARK SMILES IDX 5 1 6 2 7 3 8 4 10 5 12 6 4 7 1 8 2 9 3 10 13 11 14 12 15 13
REMARK SMILES IDX 16 15 17 16 21 17 18 18 20 19 19 20 11 21 9 23
REMARK H PARENT 15 14 11 22 9 24
ROOT
ATOM      1  C   UNL     1      13.286   1.698  29.303  1.00  0.00    -0.020 A 
ATOM      2  C   UNL     1      13.801   2.218  30.501  1.00  0.00     0.012 A 
ATOM      3  C   UNL     1      13.192   1.925  31.724  1.00  0.00     0.051 A 
ATOM      4  C   UNL     1      12.075   1.104  31.741  1.00  0.00     0.157 A 
ATOM      5  C   UNL     1      11.562   0.573  30.562  1.00  0.00     0.157 A 
ATOM      6  C   UNL     1      12.164   0.857  29.339  1.00  0.00     0.058 A 
ENDROOT
BRANCH   1   7
ATOM      7  C   UNL     1      13.974   2.019  28.044  1.00  0.00     0.033 C 
ATOM      8  N   UNL     1      11.594   4.548  27.472  1.00  0.00    -0.192 NA
ATOM      9  C   UNL     1      12.506   3.836  27.375  1.00  0.00     0.105 C 
ATOM     10  C   UNL     1      13.626   2.987  27.172  1.00  0.00     0.118 C 
BRANCH  10  11
ATOM     11  C   UNL     1      14.487   3.154  25.944  1.00  0.00     0.266 C 
ATOM     12  O   UNL     1      13.982   3.048  24.829  1.00  0.00    -0.268 OA
ATOM     13  N   UNL     1      15.823   3.424  26.194  1.00  0.00    -0.321 N 
ATOM     14  H   UNL     1      16.138   3.481  27.157  1.00  0.00     0.170 HD
BRANCH  13  15
ATOM     15  C   UNL     1      16.849   3.633  25.245  1.00  0.00     0.041 A 
ATOM     16  C   UNL     1      17.178   4.963  24.947  1.00  0.00     0.026 A 
ATOM     17  C   UNL     1      17.543   2.610  24.596  1.00  0.00     0.026 A 
ATOM     18  C   UNL     1      18.180   5.263  24.020  1.00  0.00     0.002 A 
ATOM     19  C   UNL     1      18.546   2.910  23.667  1.00  0.00     0.002 A 
ATOM     20  C   UNL     1      18.865   4.235  23.379  1.00  0.00     0.000 A 
ENDBRANCH  13  15
ENDBRANCH  10  11
ENDBRANCH   1   7
BRANCH   5  21
ATOM     21  O   UNL     1      10.459  -0.231  30.657  1.00  0.00    -0.504 OA
ATOM     22  H   UNL     1      10.752  -1.124  30.910  1.00  0.00     0.293 HD
ENDBRANCH   5  21
BRANCH   4  23
ATOM     23  O   UNL     1      11.479   0.817  32.936  1.00  0.00    -0.504 OA
ATOM     24  H   UNL     1      11.719  -0.115  33.111  1.00  0.00     0.293 HD
ENDBRANCH   4  23
TORSDOF 5
