MODEL 3
REMARK VINA RESULT:    -8.397      3.433      6.949
REMARK INTER + INTRA:         -12.938
REMARK INTER:                 -14.016
REMARK INTRA:                   1.078
REMARK UNBOUND:                -0.859
REMARK SMILES CCc1cc(O)cc(C)c1-c1cc2[nH]ncc2c(NCc2ccccc2N(C)S(C)(=O)=O)n1
REMARK SMILES IDX 19 1 18 3 11 4 12 5 33 6 13 7 14 8 17 9 15 10 16 11 10 13
REMARK SMILES IDX 3 14 4 15 5 16 8 17 7 18 9 19 2 20 1 21 6 22 20 24 21 25
REMARK SMILES IDX 22 26 26 27 23 28 25 29 24 30 27 31 28 32 29 33 31 34 32 35
REMARK SMILES IDX 30 36
REMARK H PARENT 19 2 14 12 6 23
ROOT
ATOM      1  N   UNL     1      -1.884  23.221 -28.273  1.00  0.00    -0.365 N 
ATOM      2  H   UNL     1      -1.134  23.891 -28.388  1.00  0.00     0.162 HD
ENDROOT
BRANCH   1   3
ATOM      3  C   UNL     1      -2.794  23.250 -29.329  1.00  0.00     0.138 A 
ATOM      4  C   UNL     1      -4.192  24.502 -30.771  1.00  0.00     0.075 A 
ATOM      5  C   UNL     1      -4.700  23.383 -31.425  1.00  0.00     0.057 A 
ATOM      6  N   UNL     1      -3.282  24.439 -29.767  1.00  0.00    -0.230 NA
ATOM      7  C   UNL     1      -4.198  22.167 -30.977  1.00  0.00     0.071 A 
ATOM      8  N   UNL     1      -4.452  20.878 -31.360  1.00  0.00    -0.278 N 
ATOM      9  C   UNL     1      -3.267  22.077 -29.949  1.00  0.00     0.062 A 
ATOM     10  N   UNL     1      -3.764  19.955 -30.665  1.00  0.00    -0.183 NA
ATOM     11  C   UNL     1      -3.055  20.687 -29.802  1.00  0.00     0.147 A 
ATOM     12  H   UNL     1      -5.084  20.558 -32.085  1.00  0.00     0.190 HD
BRANCH   4  13
ATOM     13  C   UNL     1      -4.646  25.861 -31.114  1.00  0.00     0.007 A 
ATOM     14  C   UNL     1      -5.288  26.132 -32.351  1.00  0.00    -0.035 A 
ATOM     15  C   UNL     1      -5.711  27.441 -32.641  1.00  0.00     0.050 A 
ATOM     16  C   UNL     1      -5.502  28.468 -31.732  1.00  0.00     0.116 A 
ATOM     17  C   UNL     1      -4.435  26.930 -30.200  1.00  0.00    -0.038 A 
ATOM     18  C   UNL     1      -4.867  28.227 -30.522  1.00  0.00     0.050 A 
ATOM     19  C   UNL     1      -3.716  26.712 -28.891  1.00  0.00     0.045 C 
BRANCH  14  20
ATOM     20  C   UNL     1      -5.487  25.075 -33.418  1.00  0.00     0.033 C 
ATOM     21  C   UNL     1      -6.952  24.915 -33.795  1.00  0.00     0.009 C 
ENDBRANCH  14  20
BRANCH  16  22
ATOM     22  O   UNL     1      -5.932  29.716 -32.074  1.00  0.00    -0.508 OA
ATOM     23  H   UNL     1      -5.274  30.363 -31.772  1.00  0.00     0.293 HD
ENDBRANCH  16  22
ENDBRANCH   4  13
ENDBRANCH   1   3
BRANCH   1  24
ATOM     24  C   UNL     1      -2.479  23.199 -26.943  1.00  0.00     0.152 C 
BRANCH  24  25
ATOM     25  C   UNL     1      -1.583  22.407 -26.019  1.00  0.00    -0.004 A 
ATOM     26  C   UNL     1      -1.480  21.013 -26.201  1.00  0.00     0.008 A 
ATOM     27  C   UNL     1      -0.869  23.008 -24.965  1.00  0.00     0.056 A 
ATOM     28  C   UNL     1      -0.679  20.238 -25.362  1.00  0.00     0.001 A 
ATOM     29  C   UNL     1      -0.056  22.222 -24.138  1.00  0.00     0.027 A 
ATOM     30  C   UNL     1       0.033  20.842 -24.331  1.00  0.00     0.002 A 
BRANCH  27  31
ATOM     31  N   UNL     1      -0.914  24.441 -24.799  1.00  0.00    -0.273 N 
ATOM     32  C   UNL     1      -2.259  24.983 -24.491  1.00  0.00     0.163 C 
BRANCH  31  33
ATOM     33  S   UNL     1      -0.042  25.377 -25.933  1.00  0.00     0.232 S 
ATOM     34  O   UNL     1      -1.007  26.041 -26.790  1.00  0.00    -0.207 OA
ATOM     35  O   UNL     1       1.009  24.570 -26.520  1.00  0.00    -0.207 OA
ATOM     36  C   UNL     1       0.696  26.629 -24.907  1.00  0.00     0.183 C 
ENDBRANCH  31  33
ENDBRANCH  27  31
ENDBRANCH  24  25
ENDBRANCH   1  24
TORSDOF 8
ENDMDL
