REMARK SMILES Cc1ccc(NC(=O)c2ccc(CN3CCN(C)CC3)cc2)cc1Nc1nccc(-c2cccnc2)n1
REMARK SMILES IDX 6 1 7 2 8 3 5 5 2 6 3 7 24 8 4 9 23 10 1 11 25 12 26 14
REMARK SMILES IDX 27 15 37 16 28 17 30 18 29 19 31 20 32 21 36 22 33 23 35 24
REMARK SMILES IDX 34 25 9 26 10 27 22 28 11 29 21 30 12 31 13 32 14 33 15 34
REMARK SMILES IDX 20 35 16 36 19 37 17 38 18 39
REMARK H PARENT 6 4 25 13
REMARK INDEX MAP 6 1 7 2 8 3 43 4 5 5 2 6 3 7 24 8 4 9 23 10 1 11 25 12 62 13
REMARK INDEX MAP 26 14 27 15 37 16 28 17 30 18 29 19 31 20 32 21 36 22 33 23
REMARK INDEX MAP 35 24 34 25 9 26 10 27 22 28 11 29 21 30 12 31 13 32 14 33
REMARK INDEX MAP 15 34 20 35 16 36 19 37 17 38 18 39
ROOT
ATOM      1  N   UNL     1      13.152   4.629  25.556  1.00  0.00    -0.322 N 
ATOM      2  C   UNL     1      12.045   5.199  26.158  1.00  0.00     0.255 C 
ATOM      3  O   UNL     1      11.574   4.921  27.254  1.00  0.00    -0.269 OA
ATOM      4  H   UNL     1      13.446   5.043  24.660  1.00  0.00     0.170 HD
ENDROOT
BRANCH   1   5
ATOM      5  C   UNL     1      13.925   3.547  26.025  1.00  0.00     0.043 A 
ATOM      6  C   UNL     1      15.320   1.343  27.086  1.00  0.00    -0.027 A 
ATOM      7  C   UNL     1      15.920   2.196  26.145  1.00  0.00     0.008 A 
ATOM      8  C   UNL     1      13.998   1.592  27.520  1.00  0.00     0.046 A 
ATOM      9  C   UNL     1      15.229   3.288  25.619  1.00  0.00     0.026 A 
ATOM     10  C   UNL     1      13.327   2.697  26.970  1.00  0.00     0.052 A 
ATOM     11  C   UNL     1      16.121   0.178  27.606  1.00  0.00     0.046 C 
BRANCH   8  12
ATOM     12  N   UNL     1      13.391   0.731  28.446  1.00  0.00    -0.324 N 
ATOM     13  H   UNL     1      13.276  -0.226  28.083  1.00  0.00     0.170 HD
BRANCH  12  14
ATOM     14  C   UNL     1      12.908   0.874  29.745  1.00  0.00     0.227 A 
ATOM     15  N   UNL     1      13.513   1.651  30.653  1.00  0.00    -0.221 NA
ATOM     16  N   UNL     1      11.784   0.187  30.003  1.00  0.00    -0.213 NA
ATOM     17  C   UNL     1      12.950   1.729  31.870  1.00  0.00     0.117 A 
ATOM     18  C   UNL     1      11.239   0.273  31.240  1.00  0.00     0.077 A 
ATOM     19  C   UNL     1      11.808   1.058  32.222  1.00  0.00     0.049 A 
BRANCH  18  20
ATOM     20  C   UNL     1      10.003  -0.503  31.443  1.00  0.00     0.019 A 
ATOM     21  C   UNL     1       9.999  -1.906  31.401  1.00  0.00     0.013 A 
ATOM     22  C   UNL     1       8.765   0.094  31.692  1.00  0.00     0.121 A 
ATOM     23  C   UNL     1       8.817  -2.624  31.582  1.00  0.00     0.021 A 
ATOM     24  N   UNL     1       7.595  -0.571  31.867  1.00  0.00    -0.264 NA
ATOM     25  C   UNL     1       7.650  -1.917  31.808  1.00  0.00     0.111 A 
ENDBRANCH  18  20
ENDBRANCH  12  14
ENDBRANCH   8  12
ENDBRANCH   1   5
BRANCH   2  26
ATOM     26  C   UNL     1      11.406   6.290  25.370  1.00  0.00     0.040 A 
ATOM     27  C   UNL     1      10.420   5.953  24.437  1.00  0.00     0.014 A 
ATOM     28  C   UNL     1      11.792   7.627  25.522  1.00  0.00     0.014 A 
ATOM     29  C   UNL     1       9.799   6.949  23.679  1.00  0.00     0.006 A 
ATOM     30  C   UNL     1      11.173   8.620  24.760  1.00  0.00     0.006 A 
ATOM     31  C   UNL     1      10.164   8.294  23.840  1.00  0.00    -0.034 A 
BRANCH  31  32
ATOM     32  C   UNL     1       9.513   9.375  22.998  1.00  0.00     0.120 C 
BRANCH  32  33
ATOM     33  N   UNL     1       8.630  10.260  23.774  1.00  0.00    -0.297 NA
ATOM     34  C   UNL     1       7.904  11.197  22.889  1.00  0.00     0.100 C 
ATOM     35  C   UNL     1       7.635   9.512  24.575  1.00  0.00     0.100 C 
ATOM     36  C   UNL     1       6.766  10.562  22.057  1.00  0.00     0.099 C 
ATOM     37  C   UNL     1       6.487   8.866  23.760  1.00  0.00     0.099 C 
ATOM     38  N   UNL     1       5.796   9.843  22.903  1.00  0.00    -0.304 NA
ATOM     39  C   UNL     1       4.764   9.202  22.096  1.00  0.00     0.105 C 
ENDBRANCH  32  33
ENDBRANCH  31  32
ENDBRANCH   2  26
TORSDOF 7
