MODEL 5
REMARK VINA RESULT:    -8.064      2.104      2.776
REMARK INTER + INTRA:         -11.431
REMARK INTER:                 -11.085
REMARK INTRA:                  -0.346
REMARK UNBOUND:                -1.010
REMARK SMILES CC[C@@H](C)n1cc(-c2nc(-c3cnn(C4CCS(=O)(=O)CC4)c3)cn3nccc23)cn1
REMARK SMILES IDX 5 1 6 2 7 3 30 4 31 5 3 6 4 7 2 8 1 9 8 10 9 11 29 12 10 13
REMARK SMILES IDX 28 14 25 15 24 16 27 17 26 18 11 19 12 20 23 21 13 22 14 23
REMARK SMILES IDX 15 24 16 25 22 26 17 27 21 28 18 29 19 30 20 31
REMARK H PARENT
ROOT
ATOM      1  N   UNL     1     -16.249  15.941  20.222  1.00  0.00    -0.269 N 
ATOM      2  C   UNL     1     -14.895  16.049  20.070  1.00  0.00     0.119 A 
ATOM      3  C   UNL     1     -14.393  14.762  20.028  1.00  0.00     0.040 A 
ATOM      4  C   UNL     1     -15.552  13.955  20.136  1.00  0.00     0.145 A 
ATOM      5  N   UNL     1     -16.672  14.665  20.280  1.00  0.00    -0.181 NA
ENDROOT
BRANCH   1   6
ATOM      6  C   UNL     1     -17.210  17.043  20.309  1.00  0.00     0.104 C 
ATOM      7  C   UNL     1     -16.860  18.141  19.301  1.00  0.00     0.033 C 
BRANCH   6   8
ATOM      8  C   UNL     1     -17.321  17.557  21.758  1.00  0.00     0.023 C 
ATOM      9  C   UNL     1     -18.586  17.092  22.466  1.00  0.00     0.006 C 
ENDBRANCH   6   8
ENDBRANCH   1   6
BRANCH   3  10
ATOM     10  C   UNL     1     -13.031  14.303  19.850  1.00  0.00     0.100 A 
ATOM     11  N   UNL     1     -12.088  15.198  19.939  1.00  0.00    -0.244 NA
ATOM     12  C   UNL     1     -12.749  12.917  19.581  1.00  0.00     0.093 A 
ATOM     13  C   UNL     1     -10.769  14.798  19.799  1.00  0.00     0.092 A 
ATOM     14  C   UNL     1     -13.487  11.780  19.344  1.00  0.00     0.052 A 
ATOM     15  N   UNL     1     -11.421  12.557  19.470  1.00  0.00    -0.237 N 
ATOM     16  C   UNL     1     -10.430  13.514  19.581  1.00  0.00     0.142 A 
ATOM     17  C   UNL     1     -12.527  10.773  19.149  1.00  0.00     0.136 A 
ATOM     18  N   UNL     1     -11.279  11.231  19.236  1.00  0.00    -0.176 NA
BRANCH  13  19
ATOM     19  C   UNL     1      -9.821  15.865  19.913  1.00  0.00     0.040 A 
ATOM     20  C   UNL     1      -9.903  17.167  19.372  1.00  0.00     0.145 A 
ATOM     21  C   UNL     1      -8.606  15.848  20.568  1.00  0.00     0.119 A 
ATOM     22  N   UNL     1      -8.839  17.918  19.675  1.00  0.00    -0.181 NA
ATOM     23  N   UNL     1      -8.052  17.084  20.374  1.00  0.00    -0.269 N 
BRANCH  23  24
ATOM     24  C   UNL     1      -6.743  17.535  20.843  1.00  0.00     0.109 C 
ATOM     25  C   UNL     1      -5.749  17.732  19.682  1.00  0.00     0.043 C 
ATOM     26  C   UNL     1      -6.199  16.671  21.999  1.00  0.00     0.043 C 
ATOM     27  C   UNL     1      -5.163  16.445  19.109  1.00  0.00     0.139 C 
ATOM     28  C   UNL     1      -5.632  15.314  21.592  1.00  0.00     0.139 C 
ATOM     29  S   UNL     1      -4.355  15.481  20.367  1.00  0.00     0.150 S 
ATOM     30  O   UNL     1      -4.063  14.169  19.823  1.00  0.00    -0.229 OA
ATOM     31  O   UNL     1      -3.298  16.296  20.938  1.00  0.00    -0.229 OA
ENDBRANCH  23  24
ENDBRANCH  13  19
ENDBRANCH   3  10
TORSDOF 5
ENDMDL
