MODEL 1
REMARK VINA RESULT:    -8.404      0.000      0.000
REMARK INTER + INTRA:         -17.469
REMARK INTER:                 -15.036
REMARK INTRA:                  -2.433
REMARK UNBOUND:                -2.433
REMARK SMILES CCc1c(N2CC[C@@H](O)C2=O)cccc1S(=O)(=O)N[C@@H](CNC(=O)c1ccc(Cl)s1)C(=O)OCCc1nccn1C
REMARK SMILES IDX 20 1 19 2 16 4 17 5 18 6 15 7 3 8 4 9 12 10 14 11 13 12 2 13
REMARK SMILES IDX 1 14 5 15 6 16 10 17 7 18 8 19 11 20 9 21 21 23 22 24 23 25
REMARK SMILES IDX 24 26 25 28 26 29 30 30 27 31 28 32 29 33 31 34 32 35 33 36
REMARK SMILES IDX 34 37 35 38 36 39 37 40 40 41 38 42 39 43 41 44
REMARK H PARENT 19 3 9 22 22 27
ROOT
ATOM      1  C   UNL     1     127.370 -16.187 161.713  1.00  0.00     0.198 C 
ENDROOT
BRANCH   1   2
ATOM      2  N   UNL     1     128.781 -15.953 162.125  1.00  0.00    -0.195 NA
ATOM      3  H   UNL     1     129.242 -15.129 161.721  1.00  0.00     0.142 HD
BRANCH   2   4
ATOM      4  S   UNL     1     129.202 -16.233 163.722  1.00  0.00     0.241 S 
ATOM      5  O   UNL     1     129.038 -17.654 163.954  1.00  0.00    -0.207 OA
ATOM      6  O   UNL     1     128.507 -15.239 164.507  1.00  0.00    -0.207 OA
BRANCH   4   7
ATOM      7  C   UNL     1     130.946 -15.855 163.828  1.00  0.00     0.087 A 
ATOM      8  C   UNL     1     131.666 -16.027 165.049  1.00  0.00    -0.004 A 
ATOM      9  C   UNL     1     133.074 -15.814 165.029  1.00  0.00     0.048 A 
ATOM     10  C   UNL     1     133.672 -15.349 163.840  1.00  0.00     0.027 A 
ATOM     11  C   UNL     1     131.582 -15.399 162.664  1.00  0.00     0.022 A 
ATOM     12  C   UNL     1     132.939 -15.133 162.677  1.00  0.00     0.004 A 
BRANCH   8  13
ATOM     13  C   UNL     1     130.912 -16.260 166.351  1.00  0.00     0.036 C 
ATOM     14  C   UNL     1     130.953 -17.720 166.794  1.00  0.00     0.009 C 
ENDBRANCH   8  13
BRANCH   9  15
ATOM     15  N   UNL     1     133.934 -16.075 166.137  1.00  0.00    -0.310 N 
ATOM     16  C   UNL     1     134.076 -15.178 167.263  1.00  0.00     0.129 C 
ATOM     17  C   UNL     1     134.544 -17.311 166.424  1.00  0.00     0.255 C 
ATOM     18  C   UNL     1     134.356 -16.091 168.439  1.00  0.00     0.064 C 
ATOM     19  C   UNL     1     135.180 -17.199 167.811  1.00  0.00     0.205 C 
ATOM     20  O   UNL     1     134.610 -18.324 165.742  1.00  0.00    -0.271 OA
BRANCH  19  21
ATOM     21  O   UNL     1     135.119 -18.372 168.592  1.00  0.00    -0.383 OA
ATOM     22  H   UNL     1     135.690 -18.208 169.369  1.00  0.00     0.211 HD
ENDBRANCH  19  21
ENDBRANCH   9  15
ENDBRANCH   4   7
ENDBRANCH   2   4
ENDBRANCH   1   2
BRANCH   1  23
ATOM     23  C   UNL     1     126.636 -14.854 161.457  1.00  0.00     0.148 C 
BRANCH  23  24
ATOM     24  N   UNL     1     126.384 -14.057 162.647  1.00  0.00    -0.349 N 
ATOM     25  C   UNL     1     125.375 -14.380 163.534  1.00  0.00     0.261 C 
ATOM     26  O   UNL     1     124.710 -15.403 163.373  1.00  0.00    -0.268 OA
ATOM     27  H   UNL     1     126.744 -13.108 162.688  1.00  0.00     0.163 HD
BRANCH  25  28
ATOM     28  C   UNL     1     125.124 -13.429 164.605  1.00  0.00     0.093 A 
ATOM     29  C   UNL     1     124.304 -13.620 165.706  1.00  0.00     0.027 A 
ATOM     30  S   UNL     1     125.837 -11.867 164.634  1.00  0.00    -0.118 S 
ATOM     31  C   UNL     1     124.267 -12.484 166.569  1.00  0.00     0.033 A 
ATOM     32  C   UNL     1     125.058 -11.477 166.083  1.00  0.00     0.094 A 
ATOM     33  Cl  UNL     1     125.304  -9.934 166.794  1.00  0.00    -0.072 Cl
ENDBRANCH  25  28
ENDBRANCH  23  24
ENDBRANCH   1  23
BRANCH   1  34
ATOM     34  C   UNL     1     127.328 -17.016 160.435  1.00  0.00     0.326 C 
ATOM     35  O   UNL     1     127.862 -16.718 159.372  1.00  0.00    -0.250 OA
BRANCH  34  36
ATOM     36  O   UNL     1     126.627 -18.170 160.644  1.00  0.00    -0.464 OA
BRANCH  36  37
ATOM     37  C   UNL     1     126.167 -18.379 161.993  1.00  0.00     0.241 C 
BRANCH  37  38
ATOM     38  C   UNL     1     125.888 -19.856 162.260  1.00  0.00     0.117 C 
BRANCH  38  39
ATOM     39  C   UNL     1     126.804 -20.386 163.306  1.00  0.00     0.111 A 
ATOM     40  N   UNL     1     126.495 -20.544 164.578  1.00  0.00    -0.242 NA
ATOM     41  N   UNL     1     128.093 -20.810 163.068  1.00  0.00    -0.338 N 
ATOM     42  C   UNL     1     127.609 -21.076 165.173  1.00  0.00     0.131 A 
ATOM     43  C   UNL     1     128.612 -21.253 164.251  1.00  0.00     0.107 A 
ATOM     44  C   UNL     1     128.783 -20.801 161.801  1.00  0.00     0.151 C 
ENDBRANCH  38  39
ENDBRANCH  37  38
ENDBRANCH  36  37
ENDBRANCH  34  36
ENDBRANCH   1  34
TORSDOF 14
ENDMDL
