MODEL 1
REMARK VINA RESULT:    -8.244      0.000      0.000
REMARK INTER + INTRA:         -14.972
REMARK INTER:                 -14.991
REMARK INTRA:                   0.019
REMARK UNBOUND:                 0.019
REMARK SMILES CC[C@H](C(=O)Nc1cccc2c(-c3nc(Nc4cccc(S(C)(=O)=O)c4F)ncc3F)c[nH]c12)N1CCCN(C)CC1
REMARK SMILES IDX 4 1 5 2 6 3 3 5 2 6 1 7 35 8 36 9 42 11 41 12 39 13 40 14
REMARK SMILES IDX 38 15 37 16 7 18 8 19 34 20 9 21 33 22 11 23 10 24 32 25
REMARK SMILES IDX 12 26 13 28 14 29 30 30 15 31 29 32 28 33 31 34 16 35 17 37
REMARK SMILES IDX 18 38 26 39 19 40 21 41 20 42 27 43 22 44 24 45 25 46 23 47
REMARK H PARENT 6 4 33 27 16 36
REMARK Flexibility Score:  157.900
ROOT
ATOM      1  C   UNL     1       1.840 -16.633  18.947  1.00  0.00     0.241 C 
ATOM      2  O   UNL     1       1.336 -17.653  18.486  1.00  0.00    -0.273 OA
ATOM      3  N   UNL     1       2.814 -16.563  19.927  1.00  0.00    -0.323 N 
ATOM      4  H   UNL     1       3.177 -15.621  20.066  1.00  0.00     0.170 HD
ENDROOT
BRANCH   1   5
ATOM      5  C   UNL     1       1.389 -15.232  18.453  1.00  0.00     0.146 C 
BRANCH   5   6
ATOM      6  C   UNL     1       1.747 -15.127  16.951  1.00  0.00     0.026 C 
ATOM      7  C   UNL     1       3.225 -15.391  16.677  1.00  0.00     0.006 C 
ENDBRANCH   5   6
BRANCH   5   8
ATOM      8  N   UNL     1      -0.071 -15.054  18.710  1.00  0.00    -0.291 NA
BRANCH   8   9
ATOM      9  C   UNL     1      -0.614 -15.847  19.821  1.00  0.00     0.086 CG0
ATOM     10  G   UNL     1      -2.019 -15.541  20.343  1.00  0.00     0.000 G0
ENDBRANCH   8   9
BRANCH   8  11
ATOM     11  C   UNL     1      -0.924 -15.245  17.511  1.00  0.00     0.101 C 
BRANCH  11  12
ATOM     12  C   UNL     1      -2.190 -14.380  17.334  1.00  0.00     0.099 C 
BRANCH  12  13
ATOM     13  N   UNL     1      -3.262 -14.620  18.326  1.00  0.00    -0.305 NA
ATOM     14  C   UNL     1      -3.709 -16.015  18.211  1.00  0.00     0.105 C 
BRANCH  13  15
ATOM     15  C   UNL     1      -2.773 -14.375  19.687  1.00  0.00     0.085 C 
BRANCH  15  16
ATOM     16  C   UNL     1      -2.018 -15.541  20.324  1.00  0.00     0.031 CG0
ATOM     17  G   UNL     1      -0.604 -15.849  19.827  1.00  0.00     0.000 G0
ENDBRANCH  15  16
ENDBRANCH  13  15
ENDBRANCH  12  13
ENDBRANCH  11  12
ENDBRANCH   8  11
ENDBRANCH   5   8
ENDBRANCH   1   5
BRANCH   3  18
ATOM     18  C   UNL     1       3.432 -17.597  20.655  1.00  0.00     0.065 A 
ATOM     19  C   UNL     1       2.793 -18.004  21.840  1.00  0.00     0.028 A 
ATOM     20  C   UNL     1       4.625 -18.264  20.323  1.00  0.00     0.070 A 
ATOM     21  C   UNL     1       3.322 -19.001  22.654  1.00  0.00     0.003 A 
ATOM     22  N   UNL     1       5.474 -18.112  19.250  1.00  0.00    -0.359 N 
ATOM     23  C   UNL     1       5.182 -19.278  21.115  1.00  0.00     0.011 A 
ATOM     24  C   UNL     1       4.512 -19.639  22.305  1.00  0.00     0.011 A 
ATOM     25  C   UNL     1       6.533 -18.973  19.331  1.00  0.00     0.094 A 
ATOM     26  C   UNL     1       6.401 -19.715  20.488  1.00  0.00     0.029 A 
ATOM     27  H   UNL     1       5.324 -17.420  18.520  1.00  0.00     0.166 HD
BRANCH  26  28
ATOM     28  C   UNL     1       7.366 -20.723  20.926  1.00  0.00     0.114 A 
ATOM     29  N   UNL     1       6.836 -21.811  21.541  1.00  0.00    -0.210 NA
ATOM     30  C   UNL     1       8.725 -20.571  20.756  1.00  0.00     0.167 A 
ATOM     31  C   UNL     1       7.677 -22.747  22.008  1.00  0.00     0.228 A 
ATOM     32  C   UNL     1       9.505 -21.580  21.255  1.00  0.00     0.156 A 
ATOM     33  N   UNL     1       9.011 -22.665  21.883  1.00  0.00    -0.218 NA
ATOM     34  F   UNL     1       9.295 -19.508  20.173  1.00  0.00    -0.203 F 
BRANCH  31  35
ATOM     35  N   UNL     1       7.071 -23.827  22.639  1.00  0.00    -0.322 N 
ATOM     36  H   UNL     1       7.561 -24.037  23.499  1.00  0.00     0.170 HD
BRANCH  35  37
ATOM     37  C   UNL     1       5.987 -24.657  22.320  1.00  0.00     0.078 A 
ATOM     38  C   UNL     1       4.804 -24.199  21.729  1.00  0.00     0.029 A 
ATOM     39  C   UNL     1       6.081 -26.030  22.614  1.00  0.00     0.165 A 
ATOM     40  C   UNL     1       3.756 -25.075  21.430  1.00  0.00     0.004 A 
ATOM     41  C   UNL     1       5.044 -26.907  22.318  1.00  0.00     0.104 A 
ATOM     42  C   UNL     1       3.875 -26.431  21.719  1.00  0.00     0.023 A 
ATOM     43  F   UNL     1       7.208 -26.471  23.195  1.00  0.00    -0.203 F 
BRANCH  41  44
ATOM     44  S   UNL     1       5.160 -28.632  22.657  1.00  0.00     0.178 S 
ATOM     45  O   UNL     1       6.265 -29.136  21.864  1.00  0.00    -0.224 OA
ATOM     46  O   UNL     1       5.171 -28.755  24.105  1.00  0.00    -0.224 OA
ATOM     47  C   UNL     1       3.675 -29.421  22.103  1.00  0.00     0.164 C 
ENDBRANCH  41  44
ENDBRANCH  35  37
ENDBRANCH  31  35
ENDBRANCH  26  28
ENDBRANCH   3  18
TORSDOF 8
ENDMDL
MODEL 2
REMARK VINA RESULT:    -8.205      6.963     10.411
REMARK INTER + INTRA:         -14.901
REMARK INTER:                 -13.770
REMARK INTRA:                  -1.131
REMARK UNBOUND:                 0.019
REMARK SMILES CC[C@H](C(=O)Nc1cccc2c(-c3nc(Nc4cccc(S(C)(=O)=O)c4F)ncc3F)c[nH]c12)N1CCCN(C)CC1
REMARK SMILES IDX 4 1 5 2 6 3 3 5 2 6 1 7 35 8 36 9 42 11 41 12 39 13 40 14
REMARK SMILES IDX 38 15 37 16 7 18 8 19 34 20 9 21 33 22 11 23 10 24 32 25
REMARK SMILES IDX 12 26 13 28 14 29 30 30 15 31 29 32 28 33 31 34 16 35 17 37
REMARK SMILES IDX 18 38 26 39 19 40 21 41 20 42 27 43 22 44 24 45 25 46 23 47
REMARK H PARENT 6 4 33 27 16 36
REMARK Flexibility Score:  157.900
ROOT
ATOM      1  C   UNL     1       6.384 -24.297  22.885  1.00  0.00     0.241 C 
ATOM      2  O   UNL     1       5.931 -23.863  23.940  1.00  0.00    -0.273 OA
ATOM      3  N   UNL     1       7.302 -25.321  22.739  1.00  0.00    -0.323 N 
ATOM      4  H   UNL     1       7.441 -25.602  21.769  1.00  0.00     0.170 HD
ENDROOT
BRANCH   1   5
ATOM      5  C   UNL     1       5.952 -23.685  21.524  1.00  0.00     0.146 C 
BRANCH   5   6
ATOM      6  C   UNL     1       4.469 -24.062  21.290  1.00  0.00     0.026 C 
ATOM      7  C   UNL     1       4.261 -25.566  21.127  1.00  0.00     0.006 C 
ENDBRANCH   5   6
BRANCH   5   8
ATOM      8  N   UNL     1       6.174 -22.209  21.544  1.00  0.00    -0.291 NA
BRANCH   8   9
ATOM      9  C   UNL     1       5.001 -21.403  21.913  1.00  0.00     0.086 CG0
ATOM     10  G   UNL     1       5.208 -20.058  22.611  1.00  0.00     0.000 G0
ENDBRANCH   8   9
BRANCH   8  11
ATOM     11  C   UNL     1       6.763 -21.670  20.294  1.00  0.00     0.101 C 
BRANCH  11  12
ATOM     12  C   UNL     1       7.413 -20.269  20.304  1.00  0.00     0.099 C 
BRANCH  12  13
ATOM     13  N   UNL     1       7.506 -19.625  21.633  1.00  0.00    -0.305 NA
ATOM     14  C   UNL     1       8.520 -18.563  21.573  1.00  0.00     0.105 C 
BRANCH  13  15
ATOM     15  C   UNL     1       6.215 -19.045  22.019  1.00  0.00     0.085 C 
BRANCH  15  16
ATOM     16  C   UNL     1       5.214 -20.032  22.618  1.00  0.00     0.031 CG0
ATOM     17  G   UNL     1       5.015 -21.380  21.921  1.00  0.00     0.000 G0
ENDBRANCH  15  16
ENDBRANCH  13  15
ENDBRANCH  12  13
ENDBRANCH  11  12
ENDBRANCH   8  11
ENDBRANCH   5   8
ENDBRANCH   1   5
BRANCH   3  18
ATOM     18  C   UNL     1       7.966 -26.079  23.722  1.00  0.00     0.065 A 
ATOM     19  C   UNL     1       7.412 -27.334  24.033  1.00  0.00     0.028 A 
ATOM     20  C   UNL     1       9.126 -25.712  24.427  1.00  0.00     0.070 A 
ATOM     21  C   UNL     1       7.967 -28.162  25.003  1.00  0.00     0.003 A 
ATOM     22  N   UNL     1       9.903 -24.578  24.359  1.00  0.00    -0.359 N 
ATOM     23  C   UNL     1       9.717 -26.526  25.406  1.00  0.00     0.011 A 
ATOM     24  C   UNL     1       9.112 -27.768  25.695  1.00  0.00     0.011 A 
ATOM     25  C   UNL     1      10.944 -24.636  25.242  1.00  0.00     0.094 A 
ATOM     26  C   UNL     1      10.864 -25.831  25.930  1.00  0.00     0.029 A 
ATOM     27  H   UNL     1       9.690 -23.799  23.740  1.00  0.00     0.166 HD
BRANCH  26  28
ATOM     28  C   UNL     1      11.796 -26.232  26.982  1.00  0.00     0.114 A 
ATOM     29  N   UNL     1      12.970 -26.760  26.552  1.00  0.00    -0.210 NA
ATOM     30  C   UNL     1      11.497 -26.111  28.322  1.00  0.00     0.167 A 
ATOM     31  C   UNL     1      13.846 -27.190  27.475  1.00  0.00     0.228 A 
ATOM     32  C   UNL     1      12.454 -26.567  29.190  1.00  0.00     0.156 A 
ATOM     33  N   UNL     1      13.622 -27.110  28.795  1.00  0.00    -0.218 NA
ATOM     34  F   UNL     1      10.346 -25.614  28.793  1.00  0.00    -0.203 F 
BRANCH  31  35
ATOM     35  N   UNL     1      15.021 -27.733  26.968  1.00  0.00    -0.322 N 
ATOM     36  H   UNL     1      15.817 -27.310  27.428  1.00  0.00     0.170 HD
BRANCH  35  37
ATOM     37  C   UNL     1      15.306 -28.682  25.977  1.00  0.00     0.078 A 
ATOM     38  C   UNL     1      15.762 -28.356  24.695  1.00  0.00     0.029 A 
ATOM     39  C   UNL     1      15.122 -30.045  26.278  1.00  0.00     0.165 A 
ATOM     40  C   UNL     1      16.034 -29.348  23.747  1.00  0.00     0.004 A 
ATOM     41  C   UNL     1      15.392 -31.036  25.341  1.00  0.00     0.104 A 
ATOM     42  C   UNL     1      15.854 -30.690  24.069  1.00  0.00     0.023 A 
ATOM     43  F   UNL     1      14.671 -30.362  27.502  1.00  0.00    -0.203 F 
BRANCH  41  44
ATOM     44  S   UNL     1      15.190 -32.746  25.713  1.00  0.00     0.178 S 
ATOM     45  O   UNL     1      15.905 -32.987  26.952  1.00  0.00    -0.224 OA
ATOM     46  O   UNL     1      13.763 -33.011  25.618  1.00  0.00    -0.224 OA
ATOM     47  C   UNL     1      15.958 -33.701  24.436  1.00  0.00     0.164 C 
ENDBRANCH  41  44
ENDBRANCH  35  37
ENDBRANCH  31  35
ENDBRANCH  26  28
ENDBRANCH   3  18
TORSDOF 8
ENDMDL
MODEL 3
REMARK VINA RESULT:    -8.192      1.936      2.173
REMARK INTER + INTRA:         -14.878
REMARK INTER:                 -14.407
REMARK INTRA:                  -0.471
REMARK UNBOUND:                 0.019
REMARK SMILES CC[C@H](C(=O)Nc1cccc2c(-c3nc(Nc4cccc(S(C)(=O)=O)c4F)ncc3F)c[nH]c12)N1CCCN(C)CC1
REMARK SMILES IDX 4 1 5 2 6 3 3 5 2 6 1 7 35 8 36 9 42 11 41 12 39 13 40 14
REMARK SMILES IDX 38 15 37 16 7 18 8 19 34 20 9 21 33 22 11 23 10 24 32 25
REMARK SMILES IDX 12 26 13 28 14 29 30 30 15 31 29 32 28 33 31 34 16 35 17 37
REMARK SMILES IDX 18 38 26 39 19 40 21 41 20 42 27 43 22 44 24 45 25 46 23 47
REMARK H PARENT 6 4 33 27 16 36
REMARK Flexibility Score:  157.900
ROOT
ATOM      1  C   UNL     1       1.896 -15.108  19.970  1.00  0.00     0.241 C 
ATOM      2  O   UNL     1       2.111 -14.613  21.073  1.00  0.00    -0.273 OA
ATOM      3  N   UNL     1       2.107 -16.423  19.600  1.00  0.00    -0.323 N 
ATOM      4  H   UNL     1       1.740 -16.645  18.676  1.00  0.00     0.170 HD
ENDROOT
BRANCH   1   5
ATOM      5  C   UNL     1       1.346 -14.241  18.805  1.00  0.00     0.146 C 
BRANCH   5   6
ATOM      6  C   UNL     1       2.129 -14.623  17.526  1.00  0.00     0.026 C 
ATOM      7  C   UNL     1       3.585 -14.164  17.566  1.00  0.00     0.006 C 
ENDBRANCH   5   6
BRANCH   5   8
ATOM      8  N   UNL     1      -0.125 -14.460  18.666  1.00  0.00    -0.291 NA
BRANCH   8   9
ATOM      9  C   UNL     1      -0.870 -14.531  19.930  1.00  0.00     0.086 CG0
ATOM     10  G   UNL     1      -2.396 -14.417  19.906  1.00  0.00     0.000 G0
ENDBRANCH   8   9
BRANCH   8  11
ATOM     11  C   UNL     1      -0.485 -15.624  17.820  1.00  0.00     0.101 C 
BRANCH  11  12
ATOM     12  C   UNL     1      -1.542 -16.630  18.323  1.00  0.00     0.099 C 
BRANCH  12  13
ATOM     13  N   UNL     1      -2.948 -16.192  18.184  1.00  0.00    -0.305 NA
ATOM     14  C   UNL     1      -3.792 -17.031  19.045  1.00  0.00     0.105 C 
BRANCH  13  15
ATOM     15  C   UNL     1      -3.095 -14.786  18.578  1.00  0.00     0.085 C 
BRANCH  15  16
ATOM     16  C   UNL     1      -2.398 -14.404  19.883  1.00  0.00     0.031 CG0
ATOM     17  G   UNL     1      -0.874 -14.526  19.957  1.00  0.00     0.000 G0
ENDBRANCH  15  16
ENDBRANCH  13  15
ENDBRANCH  12  13
ENDBRANCH  11  12
ENDBRANCH   8  11
ENDBRANCH   5   8
ENDBRANCH   1   5
BRANCH   3  18
ATOM     18  C   UNL     1       2.640 -17.492  20.345  1.00  0.00     0.065 A 
ATOM     19  C   UNL     1       1.754 -18.167  21.204  1.00  0.00     0.028 A 
ATOM     20  C   UNL     1       3.968 -17.954  20.322  1.00  0.00     0.070 A 
ATOM     21  C   UNL     1       2.172 -19.224  22.007  1.00  0.00     0.003 A 
ATOM     22  N   UNL     1       5.060 -17.525  19.603  1.00  0.00    -0.359 N 
ATOM     23  C   UNL     1       4.422 -19.021  21.112  1.00  0.00     0.011 A 
ATOM     24  C   UNL     1       3.498 -19.655  21.971  1.00  0.00     0.011 A 
ATOM     25  C   UNL     1       6.171 -18.263  19.901  1.00  0.00     0.094 A 
ATOM     26  C   UNL     1       5.825 -19.204  20.850  1.00  0.00     0.029 A 
ATOM     27  H   UNL     1       5.023 -16.739  18.959  1.00  0.00     0.166 HD
BRANCH  26  28
ATOM     28  C   UNL     1       6.766 -20.158  21.435  1.00  0.00     0.114 A 
ATOM     29  N   UNL     1       6.560 -21.459  21.106  1.00  0.00    -0.210 NA
ATOM     30  C   UNL     1       7.779 -19.772  22.287  1.00  0.00     0.167 A 
ATOM     31  C   UNL     1       7.364 -22.385  21.653  1.00  0.00     0.228 A 
ATOM     32  C   UNL     1       8.554 -20.784  22.788  1.00  0.00     0.156 A 
ATOM     33  N   UNL     1       8.366 -22.085  22.493  1.00  0.00    -0.218 NA
ATOM     34  F   UNL     1       8.009 -18.506  22.655  1.00  0.00    -0.203 F 
BRANCH  31  35
ATOM     35  N   UNL     1       7.091 -23.698  21.286  1.00  0.00    -0.322 N 
ATOM     36  H   UNL     1       7.538 -23.904  20.403  1.00  0.00     0.170 HD
BRANCH  35  37
ATOM     37  C   UNL     1       6.333 -24.730  21.858  1.00  0.00     0.078 A 
ATOM     38  C   UNL     1       6.823 -25.606  22.832  1.00  0.00     0.029 A 
ATOM     39  C   UNL     1       5.004 -24.906  21.428  1.00  0.00     0.165 A 
ATOM     40  C   UNL     1       6.018 -26.616  23.369  1.00  0.00     0.004 A 
ATOM     41  C   UNL     1       4.199 -25.907  21.959  1.00  0.00     0.104 A 
ATOM     42  C   UNL     1       4.704 -26.766  22.938  1.00  0.00     0.023 A 
ATOM     43  F   UNL     1       4.535 -24.077  20.482  1.00  0.00    -0.203 F 
BRANCH  41  44
ATOM     44  S   UNL     1       2.526 -26.123  21.449  1.00  0.00     0.178 S 
ATOM     45  O   UNL     1       1.786 -26.541  22.625  1.00  0.00    -0.224 OA
ATOM     46  O   UNL     1       2.164 -24.906  20.741  1.00  0.00    -0.224 OA
ATOM     47  C   UNL     1       2.459 -27.430  20.258  1.00  0.00     0.164 C 
ENDBRANCH  41  44
ENDBRANCH  35  37
ENDBRANCH  31  35
ENDBRANCH  26  28
ENDBRANCH   3  18
TORSDOF 8
ENDMDL
MODEL 4
REMARK VINA RESULT:    -8.157      2.146      2.713
REMARK INTER + INTRA:         -14.814
REMARK INTER:                 -14.376
REMARK INTRA:                  -0.438
REMARK UNBOUND:                 0.019
REMARK SMILES CC[C@H](C(=O)Nc1cccc2c(-c3nc(Nc4cccc(S(C)(=O)=O)c4F)ncc3F)c[nH]c12)N1CCCN(C)CC1
REMARK SMILES IDX 4 1 5 2 6 3 3 5 2 6 1 7 35 8 36 9 42 11 41 12 39 13 40 14
REMARK SMILES IDX 38 15 37 16 7 18 8 19 34 20 9 21 33 22 11 23 10 24 32 25
REMARK SMILES IDX 12 26 13 28 14 29 30 30 15 31 29 32 28 33 31 34 16 35 17 37
REMARK SMILES IDX 18 38 26 39 19 40 21 41 20 42 27 43 22 44 24 45 25 46 23 47
REMARK H PARENT 6 4 33 27 16 36
REMARK Flexibility Score:  157.900
ROOT
ATOM      1  C   UNL     1       1.883 -16.702  19.245  1.00  0.00     0.241 C 
ATOM      2  O   UNL     1       1.415 -17.792  18.929  1.00  0.00    -0.273 OA
ATOM      3  N   UNL     1       2.919 -16.474  20.133  1.00  0.00    -0.323 N 
ATOM      4  H   UNL     1       3.229 -15.504  20.149  1.00  0.00     0.170 HD
ENDROOT
BRANCH   1   5
ATOM      5  C   UNL     1       1.307 -15.388  18.651  1.00  0.00     0.146 C 
BRANCH   5   6
ATOM      6  C   UNL     1       1.908 -15.210  17.235  1.00  0.00     0.026 C 
ATOM      7  C   UNL     1       1.434 -16.280  16.255  1.00  0.00     0.006 C 
ENDBRANCH   5   6
BRANCH   5   8
ATOM      8  N   UNL     1      -0.184 -15.452  18.638  1.00  0.00    -0.291 NA
BRANCH   8   9
ATOM      9  C   UNL     1      -0.857 -14.307  18.010  1.00  0.00     0.086 CG0
ATOM     10  G   UNL     1      -2.220 -14.512  17.345  1.00  0.00     0.000 G0
ENDBRANCH   8   9
BRANCH   8  11
ATOM     11  C   UNL     1      -0.789 -15.704  19.969  1.00  0.00     0.101 C 
BRANCH  11  12
ATOM     12  C   UNL     1      -2.235 -16.236  20.057  1.00  0.00     0.099 C 
BRANCH  12  13
ATOM     13  N   UNL     1      -2.886 -16.516  18.758  1.00  0.00    -0.305 NA
ATOM     14  C   UNL     1      -4.052 -17.379  18.990  1.00  0.00     0.105 C 
BRANCH  13  15
ATOM     15  C   UNL     1      -3.322 -15.270  18.117  1.00  0.00     0.085 C 
BRANCH  15  16
ATOM     16  C   UNL     1      -2.239 -14.534  17.330  1.00  0.00     0.031 CG0
ATOM     17  G   UNL     1      -0.888 -14.289  18.004  1.00  0.00     0.000 G0
ENDBRANCH  15  16
ENDBRANCH  13  15
ENDBRANCH  12  13
ENDBRANCH  11  12
ENDBRANCH   8  11
ENDBRANCH   5   8
ENDBRANCH   1   5
BRANCH   3  18
ATOM     18  C   UNL     1       3.654 -17.390  20.910  1.00  0.00     0.065 A 
ATOM     19  C   UNL     1       2.923 -18.182  21.813  1.00  0.00     0.028 A 
ATOM     20  C   UNL     1       5.045 -17.593  20.878  1.00  0.00     0.070 A 
ATOM     21  C   UNL     1       3.543 -19.105  22.648  1.00  0.00     0.003 A 
ATOM     22  N   UNL     1       6.027 -16.997  20.120  1.00  0.00    -0.359 N 
ATOM     23  C   UNL     1       5.703 -18.520  21.700  1.00  0.00     0.011 A 
ATOM     24  C   UNL     1       4.926 -19.279  22.603  1.00  0.00     0.011 A 
ATOM     25  C   UNL     1       7.262 -17.498  20.425  1.00  0.00     0.094 A 
ATOM     26  C   UNL     1       7.112 -18.446  21.418  1.00  0.00     0.029 A 
ATOM     27  H   UNL     1       5.834 -16.260  19.446  1.00  0.00     0.166 HD
BRANCH  26  28
ATOM     28  C   UNL     1       8.224 -19.179  22.022  1.00  0.00     0.114 A 
ATOM     29  N   UNL     1       8.197 -20.526  21.852  1.00  0.00    -0.210 NA
ATOM     30  C   UNL     1       9.220 -18.554  22.741  1.00  0.00     0.167 A 
ATOM     31  C   UNL     1       9.167 -21.256  22.426  1.00  0.00     0.228 A 
ATOM     32  C   UNL     1      10.172 -19.377  23.281  1.00  0.00     0.156 A 
ATOM     33  N   UNL     1      10.164 -20.717  23.144  1.00  0.00    -0.218 NA
ATOM     34  F   UNL     1       9.279 -17.233  22.950  1.00  0.00    -0.203 F 
BRANCH  31  35
ATOM     35  N   UNL     1       9.072 -22.628  22.226  1.00  0.00    -0.322 N 
ATOM     36  H   UNL     1       9.935 -22.973  21.825  1.00  0.00     0.170 HD
BRANCH  35  37
ATOM     37  C   UNL     1       8.059 -23.574  22.435  1.00  0.00     0.078 A 
ATOM     38  C   UNL     1       8.076 -24.517  23.469  1.00  0.00     0.029 A 
ATOM     39  C   UNL     1       6.960 -23.589  21.555  1.00  0.00     0.165 A 
ATOM     40  C   UNL     1       7.034 -25.435  23.630  1.00  0.00     0.004 A 
ATOM     41  C   UNL     1       5.920 -24.498  21.711  1.00  0.00     0.104 A 
ATOM     42  C   UNL     1       5.952 -25.425  22.755  1.00  0.00     0.023 A 
ATOM     43  F   UNL     1       6.947 -22.696  20.553  1.00  0.00    -0.203 F 
BRANCH  41  44
ATOM     44  S   UNL     1       4.527 -24.510  20.633  1.00  0.00     0.178 S 
ATOM     45  O   UNL     1       3.842 -23.246  20.828  1.00  0.00    -0.224 OA
ATOM     46  O   UNL     1       5.038 -24.880  19.323  1.00  0.00    -0.224 OA
ATOM     47  C   UNL     1       3.436 -25.813  21.127  1.00  0.00     0.164 C 
ENDBRANCH  41  44
ENDBRANCH  35  37
ENDBRANCH  31  35
ENDBRANCH  26  28
ENDBRANCH   3  18
TORSDOF 8
ENDMDL
MODEL 5
REMARK VINA RESULT:    -8.137      2.481      2.905
REMARK INTER + INTRA:         -14.778
REMARK INTER:                 -14.805
REMARK INTRA:                   0.027
REMARK UNBOUND:                 0.019
REMARK SMILES CC[C@H](C(=O)Nc1cccc2c(-c3nc(Nc4cccc(S(C)(=O)=O)c4F)ncc3F)c[nH]c12)N1CCCN(C)CC1
REMARK SMILES IDX 4 1 5 2 6 3 3 5 2 6 1 7 35 8 36 9 42 11 41 12 39 13 40 14
REMARK SMILES IDX 38 15 37 16 7 18 8 19 34 20 9 21 33 22 11 23 10 24 32 25
REMARK SMILES IDX 12 26 13 28 14 29 30 30 15 31 29 32 28 33 31 34 16 35 17 37
REMARK SMILES IDX 18 38 26 39 19 40 21 41 20 42 27 43 22 44 24 45 25 46 23 47
REMARK H PARENT 6 4 33 27 16 36
REMARK Flexibility Score:  157.900
ROOT
ATOM      1  C   UNL     1       2.186 -17.141  19.252  1.00  0.00     0.241 C 
ATOM      2  O   UNL     1       1.568 -18.173  19.007  1.00  0.00    -0.273 OA
ATOM      3  N   UNL     1       3.225 -16.994  20.152  1.00  0.00    -0.323 N 
ATOM      4  H   UNL     1       3.676 -16.082  20.102  1.00  0.00     0.170 HD
ENDROOT
BRANCH   1   5
ATOM      5  C   UNL     1       1.823 -15.811  18.538  1.00  0.00     0.146 C 
BRANCH   5   6
ATOM      6  C   UNL     1       2.132 -15.987  17.032  1.00  0.00     0.026 C 
ATOM      7  C   UNL     1       3.075 -14.914  16.493  1.00  0.00     0.006 C 
ENDBRANCH   5   6
BRANCH   5   8
ATOM      8  N   UNL     1       0.391 -15.476  18.796  1.00  0.00    -0.291 NA
BRANCH   8   9
ATOM      9  C   UNL     1      -0.208 -16.139  19.963  1.00  0.00     0.086 CG0
ATOM     10  G   UNL     1      -1.678 -15.877  20.299  1.00  0.00     0.000 G0
ENDBRANCH   8   9
BRANCH   8  11
ATOM     11  C   UNL     1      -0.494 -15.663  17.620  1.00  0.00     0.101 C 
BRANCH  11  12
ATOM     12  C   UNL     1      -1.650 -14.669  17.375  1.00  0.00     0.099 C 
BRANCH  12  13
ATOM     13  N   UNL     1      -2.790 -14.782  18.312  1.00  0.00    -0.305 NA
ATOM     14  C   UNL     1      -3.420 -16.098  18.133  1.00  0.00     0.105 C 
BRANCH  13  15
ATOM     15  C   UNL     1      -2.336 -14.644  19.700  1.00  0.00     0.085 C 
BRANCH  15  16
ATOM     16  C   UNL     1      -1.677 -15.889  20.293  1.00  0.00     0.031 CG0
ATOM     17  G   UNL     1      -0.200 -16.146  19.985  1.00  0.00     0.000 G0
ENDBRANCH  15  16
ENDBRANCH  13  15
ENDBRANCH  12  13
ENDBRANCH  11  12
ENDBRANCH   8  11
ENDBRANCH   5   8
ENDBRANCH   1   5
BRANCH   3  18
ATOM     18  C   UNL     1       3.801 -17.940  21.022  1.00  0.00     0.065 A 
ATOM     19  C   UNL     1       2.939 -18.556  21.947  1.00  0.00     0.028 A 
ATOM     20  C   UNL     1       5.151 -18.333  21.063  1.00  0.00     0.070 A 
ATOM     21  C   UNL     1       3.398 -19.489  22.870  1.00  0.00     0.003 A 
ATOM     22  N   UNL     1       6.230 -17.935  20.307  1.00  0.00    -0.359 N 
ATOM     23  C   UNL     1       5.647 -19.277  21.976  1.00  0.00     0.011 A 
ATOM     24  C   UNL     1       4.744 -19.853  22.896  1.00  0.00     0.011 A 
ATOM     25  C   UNL     1       7.372 -18.575  20.698  1.00  0.00     0.094 A 
ATOM     26  C   UNL     1       7.061 -19.417  21.748  1.00  0.00     0.029 A 
ATOM     27  H   UNL     1       6.163 -17.232  19.575  1.00  0.00     0.166 HD
BRANCH  26  28
ATOM     28  C   UNL     1       8.040 -20.246  22.448  1.00  0.00     0.114 A 
ATOM     29  N   UNL     1       7.998 -21.572  22.156  1.00  0.00    -0.210 NA
ATOM     30  C   UNL     1       8.929 -19.729  23.365  1.00  0.00     0.167 A 
ATOM     31  C   UNL     1       8.842 -22.390  22.806  1.00  0.00     0.228 A 
ATOM     32  C   UNL     1       9.758 -20.636  23.970  1.00  0.00     0.156 A 
ATOM     33  N   UNL     1       9.731 -21.958  23.714  1.00  0.00    -0.218 NA
ATOM     34  F   UNL     1       8.995 -18.433  23.699  1.00  0.00    -0.203 F 
BRANCH  31  35
ATOM     35  N   UNL     1       8.738 -23.735  22.471  1.00  0.00    -0.322 N 
ATOM     36  H   UNL     1       8.934 -23.856  21.486  1.00  0.00     0.170 HD
BRANCH  35  37
ATOM     37  C   UNL     1       8.406 -24.892  23.188  1.00  0.00     0.078 A 
ATOM     38  C   UNL     1       7.227 -25.620  22.989  1.00  0.00     0.029 A 
ATOM     39  C   UNL     1       9.301 -25.355  24.172  1.00  0.00     0.165 A 
ATOM     40  C   UNL     1       6.951 -26.771  23.733  1.00  0.00     0.004 A 
ATOM     41  C   UNL     1       9.033 -26.500  24.914  1.00  0.00     0.104 A 
ATOM     42  C   UNL     1       7.855 -27.217  24.693  1.00  0.00     0.023 A 
ATOM     43  F   UNL     1      10.426 -24.652  24.376  1.00  0.00    -0.203 F 
BRANCH  41  44
ATOM     44  S   UNL     1      10.156 -27.103  26.129  1.00  0.00     0.178 S 
ATOM     45  O   UNL     1       9.647 -28.393  26.559  1.00  0.00    -0.224 OA
ATOM     46  O   UNL     1      11.481 -26.989  25.542  1.00  0.00    -0.224 OA
ATOM     47  C   UNL     1      10.133 -26.007  27.519  1.00  0.00     0.164 C 
ENDBRANCH  41  44
ENDBRANCH  35  37
ENDBRANCH  31  35
ENDBRANCH  26  28
ENDBRANCH   3  18
TORSDOF 8
ENDMDL
MODEL 6
REMARK VINA RESULT:    -8.077      4.009      6.136
REMARK INTER + INTRA:         -14.669
REMARK INTER:                 -14.338
REMARK INTRA:                  -0.331
REMARK UNBOUND:                 0.019
REMARK SMILES CC[C@H](C(=O)Nc1cccc2c(-c3nc(Nc4cccc(S(C)(=O)=O)c4F)ncc3F)c[nH]c12)N1CCCN(C)CC1
REMARK SMILES IDX 4 1 5 2 6 3 3 5 2 6 1 7 35 8 36 9 42 11 41 12 39 13 40 14
REMARK SMILES IDX 38 15 37 16 7 18 8 19 34 20 9 21 33 22 11 23 10 24 32 25
REMARK SMILES IDX 12 26 13 28 14 29 30 30 15 31 29 32 28 33 31 34 16 35 17 37
REMARK SMILES IDX 18 38 26 39 19 40 21 41 20 42 27 43 22 44 24 45 25 46 23 47
REMARK H PARENT 6 4 33 27 16 36
REMARK Flexibility Score:  157.900
ROOT
ATOM      1  C   UNL     1       5.791 -19.019  19.903  1.00  0.00     0.241 C 
ATOM      2  O   UNL     1       6.690 -19.211  19.089  1.00  0.00    -0.273 OA
ATOM      3  N   UNL     1       5.068 -19.986  20.578  1.00  0.00    -0.323 N 
ATOM      4  H   UNL     1       4.459 -19.604  21.299  1.00  0.00     0.170 HD
ENDROOT
BRANCH   1   5
ATOM      5  C   UNL     1       5.340 -17.578  20.263  1.00  0.00     0.146 C 
BRANCH   5   6
ATOM      6  C   UNL     1       6.360 -16.597  19.636  1.00  0.00     0.026 C 
ATOM      7  C   UNL     1       6.662 -15.403  20.538  1.00  0.00     0.006 C 
ENDBRANCH   5   6
BRANCH   5   8
ATOM      8  N   UNL     1       3.947 -17.350  19.776  1.00  0.00    -0.291 NA
BRANCH   8   9
ATOM      9  C   UNL     1       3.835 -16.541  18.554  1.00  0.00     0.086 CG0
ATOM     10  G   UNL     1       2.692 -16.820  17.575  1.00  0.00     0.000 G0
ENDBRANCH   8   9
BRANCH   8  11
ATOM     11  C   UNL     1       3.027 -16.809  20.806  1.00  0.00     0.101 C 
BRANCH  11  12
ATOM     12  C   UNL     1       1.717 -16.121  20.367  1.00  0.00     0.099 C 
BRANCH  12  13
ATOM     13  N   UNL     1       0.910 -16.870  19.379  1.00  0.00    -0.305 NA
ATOM     14  C   UNL     1      -0.513 -16.597  19.627  1.00  0.00     0.105 C 
BRANCH  13  15
ATOM     15  C   UNL     1       1.253 -16.463  18.012  1.00  0.00     0.085 C 
BRANCH  15  16
ATOM     16  C   UNL     1       2.671 -16.820  17.567  1.00  0.00     0.031 CG0
ATOM     17  G   UNL     1       3.825 -16.561  18.538  1.00  0.00     0.000 G0
ENDBRANCH  15  16
ENDBRANCH  13  15
ENDBRANCH  12  13
ENDBRANCH  11  12
ENDBRANCH   8  11
ENDBRANCH   5   8
ENDBRANCH   1   5
BRANCH   3  18
ATOM     18  C   UNL     1       5.138 -21.390  20.485  1.00  0.00     0.065 A 
ATOM     19  C   UNL     1       4.983 -21.946  19.202  1.00  0.00     0.028 A 
ATOM     20  C   UNL     1       5.346 -22.294  21.541  1.00  0.00     0.070 A 
ATOM     21  C   UNL     1       5.011 -23.321  18.990  1.00  0.00     0.003 A 
ATOM     22  N   UNL     1       5.536 -22.080  22.888  1.00  0.00    -0.359 N 
ATOM     23  C   UNL     1       5.388 -23.685  21.362  1.00  0.00     0.011 A 
ATOM     24  C   UNL     1       5.209 -24.195  20.058  1.00  0.00     0.011 A 
ATOM     25  C   UNL     1       5.691 -23.259  23.560  1.00  0.00     0.094 A 
ATOM     26  C   UNL     1       5.594 -24.294  22.650  1.00  0.00     0.029 A 
ATOM     27  H   UNL     1       5.529 -21.153  23.306  1.00  0.00     0.166 HD
BRANCH  26  28
ATOM     28  C   UNL     1       5.681 -25.708  23.009  1.00  0.00     0.114 A 
ATOM     29  N   UNL     1       6.776 -26.061  23.732  1.00  0.00    -0.210 NA
ATOM     30  C   UNL     1       4.735 -26.632  22.620  1.00  0.00     0.167 A 
ATOM     31  C   UNL     1       6.934 -27.356  24.049  1.00  0.00     0.228 A 
ATOM     32  C   UNL     1       4.975 -27.926  22.997  1.00  0.00     0.156 A 
ATOM     33  N   UNL     1       6.058 -28.311  23.700  1.00  0.00    -0.218 NA
ATOM     34  F   UNL     1       3.651 -26.334  21.893  1.00  0.00    -0.203 F 
BRANCH  31  35
ATOM     35  N   UNL     1       8.081 -27.652  24.776  1.00  0.00    -0.322 N 
ATOM     36  H   UNL     1       8.040 -28.609  25.102  1.00  0.00     0.170 HD
BRANCH  35  37
ATOM     37  C   UNL     1       9.213 -26.915  25.150  1.00  0.00     0.078 A 
ATOM     38  C   UNL     1       9.551 -25.674  24.597  1.00  0.00     0.029 A 
ATOM     39  C   UNL     1      10.070 -27.447  26.132  1.00  0.00     0.165 A 
ATOM     40  C   UNL     1      10.693 -24.982  25.013  1.00  0.00     0.004 A 
ATOM     41  C   UNL     1      11.205 -26.764  26.550  1.00  0.00     0.104 A 
ATOM     42  C   UNL     1      11.520 -25.522  25.993  1.00  0.00     0.023 A 
ATOM     43  F   UNL     1       9.757 -28.644  26.653  1.00  0.00    -0.203 F 
BRANCH  41  44
ATOM     44  S   UNL     1      12.271 -27.408  27.797  1.00  0.00     0.178 S 
ATOM     45  O   UNL     1      11.536 -27.338  29.046  1.00  0.00    -0.224 OA
ATOM     46  O   UNL     1      12.753 -28.683  27.292  1.00  0.00    -0.224 OA
ATOM     47  C   UNL     1      13.690 -26.358  27.930  1.00  0.00     0.164 C 
ENDBRANCH  41  44
ENDBRANCH  35  37
ENDBRANCH  31  35
ENDBRANCH  26  28
ENDBRANCH   3  18
TORSDOF 8
ENDMDL
MODEL 7
REMARK VINA RESULT:    -8.067      7.290     14.114
REMARK INTER + INTRA:         -14.651
REMARK INTER:                 -14.451
REMARK INTRA:                  -0.200
REMARK UNBOUND:                 0.019
REMARK SMILES CC[C@H](C(=O)Nc1cccc2c(-c3nc(Nc4cccc(S(C)(=O)=O)c4F)ncc3F)c[nH]c12)N1CCCN(C)CC1
REMARK SMILES IDX 4 1 5 2 6 3 3 5 2 6 1 7 35 8 36 9 42 11 41 12 39 13 40 14
REMARK SMILES IDX 38 15 37 16 7 18 8 19 34 20 9 21 33 22 11 23 10 24 32 25
REMARK SMILES IDX 12 26 13 28 14 29 30 30 15 31 29 32 28 33 31 34 16 35 17 37
REMARK SMILES IDX 18 38 26 39 19 40 21 41 20 42 27 43 22 44 24 45 25 46 23 47
REMARK H PARENT 6 4 33 27 16 36
REMARK Flexibility Score:  157.900
ROOT
ATOM      1  C   UNL     1      10.955 -26.188  27.611  1.00  0.00     0.241 C 
ATOM      2  O   UNL     1      10.064 -25.912  28.410  1.00  0.00    -0.273 OA
ATOM      3  N   UNL     1      10.794 -26.533  26.281  1.00  0.00    -0.323 N 
ATOM      4  H   UNL     1      11.674 -26.596  25.772  1.00  0.00     0.170 HD
ENDROOT
BRANCH   1   5
ATOM      5  C   UNL     1      12.444 -26.192  28.051  1.00  0.00     0.146 C 
BRANCH   5   6
ATOM      6  C   UNL     1      12.479 -26.419  29.582  1.00  0.00     0.026 C 
ATOM      7  C   UNL     1      13.042 -25.222  30.344  1.00  0.00     0.006 C 
ENDBRANCH   5   6
BRANCH   5   8
ATOM      8  N   UNL     1      13.189 -27.242  27.296  1.00  0.00    -0.291 NA
BRANCH   8   9
ATOM      9  C   UNL     1      13.885 -28.236  28.126  1.00  0.00     0.086 CG0
ATOM     10  G   UNL     1      14.470 -29.485  27.463  1.00  0.00     0.000 G0
ENDBRANCH   8   9
BRANCH   8  11
ATOM     11  C   UNL     1      14.131 -26.705  26.284  1.00  0.00     0.101 C 
BRANCH  11  12
ATOM     12  C   UNL     1      15.278 -27.598  25.765  1.00  0.00     0.099 C 
BRANCH  12  13
ATOM     13  N   UNL     1      14.851 -28.826  25.056  1.00  0.00    -0.305 NA
ATOM     14  C   UNL     1      16.035 -29.468  24.468  1.00  0.00     0.105 C 
BRANCH  13  15
ATOM     15  C   UNL     1      14.199 -29.759  25.981  1.00  0.00     0.085 C 
BRANCH  15  16
ATOM     16  C   UNL     1      14.484 -29.508  27.462  1.00  0.00     0.031 CG0
ATOM     17  G   UNL     1      13.883 -28.264  28.118  1.00  0.00     0.000 G0
ENDBRANCH  15  16
ENDBRANCH  13  15
ENDBRANCH  12  13
ENDBRANCH  11  12
ENDBRANCH   8  11
ENDBRANCH   5   8
ENDBRANCH   1   5
BRANCH   3  18
ATOM     18  C   UNL     1       9.613 -26.693  25.531  1.00  0.00     0.065 A 
ATOM     19  C   UNL     1       8.974 -27.943  25.618  1.00  0.00     0.028 A 
ATOM     20  C   UNL     1       9.006 -25.734  24.701  1.00  0.00     0.070 A 
ATOM     21  C   UNL     1       7.813 -28.226  24.905  1.00  0.00     0.003 A 
ATOM     22  N   UNL     1       9.366 -24.438  24.407  1.00  0.00    -0.359 N 
ATOM     23  C   UNL     1       7.832 -25.982  23.974  1.00  0.00     0.011 A 
ATOM     24  C   UNL     1       7.238 -27.259  24.081  1.00  0.00     0.011 A 
ATOM     25  C   UNL     1       8.484 -23.865  23.535  1.00  0.00     0.094 A 
ATOM     26  C   UNL     1       7.513 -24.796  23.224  1.00  0.00     0.029 A 
ATOM     27  H   UNL     1      10.202 -23.998  24.783  1.00  0.00     0.166 HD
BRANCH  26  28
ATOM     28  C   UNL     1       6.413 -24.549  22.294  1.00  0.00     0.114 A 
ATOM     29  N   UNL     1       6.638 -23.583  21.366  1.00  0.00    -0.210 NA
ATOM     30  C   UNL     1       5.215 -25.227  22.365  1.00  0.00     0.167 A 
ATOM     31  C   UNL     1       5.645 -23.279  20.515  1.00  0.00     0.228 A 
ATOM     32  C   UNL     1       4.265 -24.857  21.450  1.00  0.00     0.156 A 
ATOM     33  N   UNL     1       4.452 -23.893  20.528  1.00  0.00    -0.218 NA
ATOM     34  F   UNL     1       4.941 -26.173  23.272  1.00  0.00    -0.203 F 
BRANCH  31  35
ATOM     35  N   UNL     1       5.935 -22.272  19.602  1.00  0.00    -0.322 N 
ATOM     36  H   UNL     1       6.093 -22.678  18.688  1.00  0.00     0.170 HD
BRANCH  35  37
ATOM     37  C   UNL     1       6.070 -20.880  19.698  1.00  0.00     0.078 A 
ATOM     38  C   UNL     1       7.282 -20.203  19.526  1.00  0.00     0.029 A 
ATOM     39  C   UNL     1       4.927 -20.112  19.990  1.00  0.00     0.165 A 
ATOM     40  C   UNL     1       7.355 -18.810  19.631  1.00  0.00     0.004 A 
ATOM     41  C   UNL     1       4.993 -18.727  20.094  1.00  0.00     0.104 A 
ATOM     42  C   UNL     1       6.211 -18.068  19.910  1.00  0.00     0.023 A 
ATOM     43  F   UNL     1       3.765 -20.759  20.170  1.00  0.00    -0.203 F 
BRANCH  41  44
ATOM     44  S   UNL     1       3.566 -17.752  20.433  1.00  0.00     0.178 S 
ATOM     45  O   UNL     1       3.010 -18.251  21.677  1.00  0.00    -0.224 OA
ATOM     46  O   UNL     1       3.990 -16.366  20.317  1.00  0.00    -0.224 OA
ATOM     47  C   UNL     1       2.377 -18.017  19.149  1.00  0.00     0.164 C 
ENDBRANCH  41  44
ENDBRANCH  35  37
ENDBRANCH  31  35
ENDBRANCH  26  28
ENDBRANCH   3  18
TORSDOF 8
ENDMDL
MODEL 8
REMARK VINA RESULT:    -8.009      5.639     12.621
REMARK INTER + INTRA:         -14.544
REMARK INTER:                 -14.209
REMARK INTRA:                  -0.335
REMARK UNBOUND:                 0.019
REMARK SMILES CC[C@H](C(=O)Nc1cccc2c(-c3nc(Nc4cccc(S(C)(=O)=O)c4F)ncc3F)c[nH]c12)N1CCCN(C)CC1
REMARK SMILES IDX 4 1 5 2 6 3 3 5 2 6 1 7 35 8 36 9 42 11 41 12 39 13 40 14
REMARK SMILES IDX 38 15 37 16 7 18 8 19 34 20 9 21 33 22 11 23 10 24 32 25
REMARK SMILES IDX 12 26 13 28 14 29 30 30 15 31 29 32 28 33 31 34 16 35 17 37
REMARK SMILES IDX 18 38 26 39 19 40 21 41 20 42 27 43 22 44 24 45 25 46 23 47
REMARK H PARENT 6 4 33 27 16 36
REMARK Flexibility Score:  157.900
ROOT
ATOM      1  C   UNL     1       8.707 -24.930  23.543  1.00  0.00     0.241 C 
ATOM      2  O   UNL     1       9.250 -25.355  22.527  1.00  0.00    -0.273 OA
ATOM      3  N   UNL     1       8.188 -23.662  23.733  1.00  0.00    -0.323 N 
ATOM      4  H   UNL     1       7.670 -23.565  24.605  1.00  0.00     0.170 HD
ENDROOT
BRANCH   1   5
ATOM      5  C   UNL     1       8.556 -25.831  24.799  1.00  0.00     0.146 C 
BRANCH   5   6
ATOM      6  C   UNL     1       7.698 -27.055  24.397  1.00  0.00     0.026 C 
ATOM      7  C   UNL     1       6.518 -26.682  23.504  1.00  0.00     0.006 C 
ENDBRANCH   5   6
BRANCH   5   8
ATOM      8  N   UNL     1       9.906 -26.215  25.307  1.00  0.00    -0.291 NA
BRANCH   8   9
ATOM      9  C   UNL     1       9.912 -26.930  26.591  1.00  0.00     0.086 CG0
ATOM     10  G   UNL     1      11.182 -27.657  27.037  1.00  0.00     0.000 G0
ENDBRANCH   8   9
BRANCH   8  11
ATOM     11  C   UNL     1      10.871 -25.091  25.370  1.00  0.00     0.101 C 
BRANCH  11  12
ATOM     12  C   UNL     1      12.068 -25.171  26.341  1.00  0.00     0.099 C 
BRANCH  12  13
ATOM     13  N   UNL     1      13.051 -26.237  26.047  1.00  0.00    -0.305 NA
ATOM     14  C   UNL     1      14.124 -26.180  27.048  1.00  0.00     0.105 C 
BRANCH  13  15
ATOM     15  C   UNL     1      12.413 -27.557  26.091  1.00  0.00     0.085 C 
BRANCH  15  16
ATOM     16  C   UNL     1      11.201 -27.660  27.017  1.00  0.00     0.031 CG0
ATOM     17  G   UNL     1       9.910 -26.949  26.608  1.00  0.00     0.000 G0
ENDBRANCH  15  16
ENDBRANCH  13  15
ENDBRANCH  12  13
ENDBRANCH  11  12
ENDBRANCH   8  11
ENDBRANCH   5   8
ENDBRANCH   1   5
BRANCH   3  18
ATOM     18  C   UNL     1       8.182 -22.554  22.864  1.00  0.00     0.065 A 
ATOM     19  C   UNL     1       9.377 -22.287  22.173  1.00  0.00     0.028 A 
ATOM     20  C   UNL     1       7.105 -21.684  22.617  1.00  0.00     0.070 A 
ATOM     21  C   UNL     1       9.498 -21.206  21.305  1.00  0.00     0.003 A 
ATOM     22  N   UNL     1       5.822 -21.672  23.117  1.00  0.00    -0.359 N 
ATOM     23  C   UNL     1       7.188 -20.591  21.742  1.00  0.00     0.011 A 
ATOM     24  C   UNL     1       8.416 -20.354  21.085  1.00  0.00     0.011 A 
ATOM     25  C   UNL     1       5.102 -20.629  22.606  1.00  0.00     0.094 A 
ATOM     26  C   UNL     1       5.917 -19.916  21.749  1.00  0.00     0.029 A 
ATOM     27  H   UNL     1       5.489 -22.348  23.800  1.00  0.00     0.166 HD
BRANCH  26  28
ATOM     28  C   UNL     1       5.497 -18.710  21.037  1.00  0.00     0.114 A 
ATOM     29  N   UNL     1       4.394 -18.847  20.257  1.00  0.00    -0.210 NA
ATOM     30  C   UNL     1       6.187 -17.520  21.123  1.00  0.00     0.167 A 
ATOM     31  C   UNL     1       3.990 -17.786  19.541  1.00  0.00     0.228 A 
ATOM     32  C   UNL     1       5.696 -16.490  20.366  1.00  0.00     0.156 A 
ATOM     33  N   UNL     1       4.614 -16.598  19.571  1.00  0.00    -0.218 NA
ATOM     34  F   UNL     1       7.289 -17.343  21.863  1.00  0.00    -0.203 F 
BRANCH  31  35
ATOM     35  N   UNL     1       2.864 -17.996  18.753  1.00  0.00    -0.322 N 
ATOM     36  H   UNL     1       2.791 -18.978  18.521  1.00  0.00     0.170 HD
BRANCH  35  37
ATOM     37  C   UNL     1       1.876 -17.155  18.223  1.00  0.00     0.078 A 
ATOM     38  C   UNL     1       1.970 -16.538  16.971  1.00  0.00     0.029 A 
ATOM     39  C   UNL     1       0.722 -16.905  18.991  1.00  0.00     0.165 A 
ATOM     40  C   UNL     1       0.949 -15.711  16.492  1.00  0.00     0.004 A 
ATOM     41  C   UNL     1      -0.296 -16.084  18.520  1.00  0.00     0.104 A 
ATOM     42  C   UNL     1      -0.188 -15.485  17.263  1.00  0.00     0.023 A 
ATOM     43  F   UNL     1       0.636 -17.483  20.199  1.00  0.00    -0.203 F 
BRANCH  41  44
ATOM     44  S   UNL     1      -1.756 -15.784  19.459  1.00  0.00     0.178 S 
ATOM     45  O   UNL     1      -2.555 -16.993  19.379  1.00  0.00    -0.224 OA
ATOM     46  O   UNL     1      -1.308 -15.277  20.745  1.00  0.00    -0.224 OA
ATOM     47  C   UNL     1      -2.663 -14.469  18.696  1.00  0.00     0.164 C 
ENDBRANCH  41  44
ENDBRANCH  35  37
ENDBRANCH  31  35
ENDBRANCH  26  28
ENDBRANCH   3  18
TORSDOF 8
ENDMDL
MODEL 9
REMARK VINA RESULT:    -7.757      6.203     12.796
REMARK INTER + INTRA:         -14.088
REMARK INTER:                 -14.188
REMARK INTRA:                   0.100
REMARK UNBOUND:                 0.019
REMARK SMILES CC[C@H](C(=O)Nc1cccc2c(-c3nc(Nc4cccc(S(C)(=O)=O)c4F)ncc3F)c[nH]c12)N1CCCN(C)CC1
REMARK SMILES IDX 4 1 5 2 6 3 3 5 2 6 1 7 35 8 36 9 42 11 41 12 39 13 40 14
REMARK SMILES IDX 38 15 37 16 7 18 8 19 34 20 9 21 33 22 11 23 10 24 32 25
REMARK SMILES IDX 12 26 13 28 14 29 30 30 15 31 29 32 28 33 31 34 16 35 17 37
REMARK SMILES IDX 18 38 26 39 19 40 21 41 20 42 27 43 22 44 24 45 25 46 23 47
REMARK H PARENT 6 4 33 27 16 36
REMARK Flexibility Score:  157.900
ROOT
ATOM      1  C   UNL     1      11.009 -26.319  25.545  1.00  0.00     0.241 C 
ATOM      2  O   UNL     1      11.464 -25.810  24.524  1.00  0.00    -0.273 OA
ATOM      3  N   UNL     1       9.708 -26.744  25.747  1.00  0.00    -0.323 N 
ATOM      4  H   UNL     1       9.582 -27.253  26.621  1.00  0.00     0.170 HD
ENDROOT
BRANCH   1   5
ATOM      5  C   UNL     1      11.908 -26.534  26.793  1.00  0.00     0.146 C 
BRANCH   5   6
ATOM      6  C   UNL     1      13.340 -26.838  26.293  1.00  0.00     0.026 C 
ATOM      7  C   UNL     1      13.431 -28.156  25.528  1.00  0.00     0.006 C 
ENDBRANCH   5   6
BRANCH   5   8
ATOM      8  N   UNL     1      11.848 -25.326  27.669  1.00  0.00    -0.291 NA
BRANCH   8   9
ATOM      9  C   UNL     1      12.753 -24.232  27.290  1.00  0.00     0.086 CG0
ATOM     10  G   UNL     1      12.327 -22.785  27.553  1.00  0.00     0.000 G0
ENDBRANCH   8   9
BRANCH   8  11
ATOM     11  C   UNL     1      12.014 -25.619  29.114  1.00  0.00     0.101 C 
BRANCH  11  12
ATOM     12  C   UNL     1      11.720 -24.514  30.151  1.00  0.00     0.099 C 
BRANCH  12  13
ATOM     13  N   UNL     1      10.982 -23.341  29.632  1.00  0.00    -0.305 NA
ATOM     14  C   UNL     1      10.317 -22.667  30.756  1.00  0.00     0.105 C 
BRANCH  13  15
ATOM     15  C   UNL     1      11.897 -22.403  28.973  1.00  0.00     0.085 C 
BRANCH  15  16
ATOM     16  C   UNL     1      12.313 -22.792  27.555  1.00  0.00     0.031 CG0
ATOM     17  G   UNL     1      12.756 -24.233  27.296  1.00  0.00     0.000 G0
ENDBRANCH  15  16
ENDBRANCH  13  15
ENDBRANCH  12  13
ENDBRANCH  11  12
ENDBRANCH   8  11
ENDBRANCH   5   8
ENDBRANCH   1   5
BRANCH   3  18
ATOM     18  C   UNL     1       8.595 -26.671  24.888  1.00  0.00     0.065 A 
ATOM     19  C   UNL     1       7.793 -27.822  24.795  1.00  0.00     0.028 A 
ATOM     20  C   UNL     1       8.203 -25.567  24.111  1.00  0.00     0.070 A 
ATOM     21  C   UNL     1       6.680 -27.876  23.961  1.00  0.00     0.003 A 
ATOM     22  N   UNL     1       8.756 -24.313  23.981  1.00  0.00    -0.359 N 
ATOM     23  C   UNL     1       7.083 -25.583  23.267  1.00  0.00     0.011 A 
ATOM     24  C   UNL     1       6.319 -26.769  23.194  1.00  0.00     0.011 A 
ATOM     25  C   UNL     1       8.046 -23.547  23.100  1.00  0.00     0.094 A 
ATOM     26  C   UNL     1       6.996 -24.302  22.616  1.00  0.00     0.029 A 
ATOM     27  H   UNL     1       9.602 -24.029  24.469  1.00  0.00     0.166 HD
BRANCH  26  28
ATOM     28  C   UNL     1       6.033 -23.823  21.626  1.00  0.00     0.114 A 
ATOM     29  N   UNL     1       6.444 -22.769  20.874  1.00  0.00    -0.210 NA
ATOM     30  C   UNL     1       4.781 -24.379  21.479  1.00  0.00     0.167 A 
ATOM     31  C   UNL     1       5.583 -22.255  19.980  1.00  0.00     0.228 A 
ATOM     32  C   UNL     1       3.975 -23.796  20.538  1.00  0.00     0.156 A 
ATOM     33  N   UNL     1       4.348 -22.741  19.787  1.00  0.00    -0.218 NA
ATOM     34  F   UNL     1       4.325 -25.405  22.209  1.00  0.00    -0.203 F 
BRANCH  31  35
ATOM     35  N   UNL     1       6.061 -21.171  19.254  1.00  0.00    -0.322 N 
ATOM     36  H   UNL     1       6.500 -21.498  18.404  1.00  0.00     0.170 HD
BRANCH  35  37
ATOM     37  C   UNL     1       6.076 -19.786  19.471  1.00  0.00     0.078 A 
ATOM     38  C   UNL     1       7.247 -19.029  19.588  1.00  0.00     0.029 A 
ATOM     39  C   UNL     1       4.846 -19.109  19.585  1.00  0.00     0.165 A 
ATOM     40  C   UNL     1       7.200 -17.647  19.800  1.00  0.00     0.004 A 
ATOM     41  C   UNL     1       4.793 -17.736  19.794  1.00  0.00     0.104 A 
ATOM     42  C   UNL     1       5.974 -16.997  19.899  1.00  0.00     0.023 A 
ATOM     43  F   UNL     1       3.721 -19.833  19.488  1.00  0.00    -0.203 F 
BRANCH  41  44
ATOM     44  S   UNL     1       3.261 -16.873  19.912  1.00  0.00     0.178 S 
ATOM     45  O   UNL     1       2.610 -17.350  21.118  1.00  0.00    -0.224 OA
ATOM     46  O   UNL     1       3.581 -15.464  19.752  1.00  0.00    -0.224 OA
ATOM     47  C   UNL     1       2.252 -17.314  18.527  1.00  0.00     0.164 C 
ENDBRANCH  41  44
ENDBRANCH  35  37
ENDBRANCH  31  35
ENDBRANCH  26  28
ENDBRANCH   3  18
TORSDOF 8
ENDMDL
