MODEL 7
REMARK VINA RESULT:    -7.909      4.010     10.407
REMARK INTER + INTRA:         -15.344
REMARK INTER:                 -13.604
REMARK INTRA:                  -1.739
REMARK UNBOUND:                -1.193
REMARK SMILES CCCc1c(OCCCCOc2ccc(C(C)(C)CC(=O)O)cc2)ccc2c(-c3ccccc3)noc12
REMARK SMILES IDX 9 1 8 2 7 3 6 4 5 5 4 6 37 7 25 8 36 9 27 10 26 11 35 12
REMARK SMILES IDX 28 13 3 14 2 15 1 16 29 17 30 18 34 19 31 20 33 21 32 22
REMARK SMILES IDX 10 23 11 24 12 25 13 26 24 27 14 28 23 29 15 30 16 31 17 32
REMARK SMILES IDX 18 33 19 34 20 35 21 36 22 37
REMARK H PARENT 22 38
ROOT
ATOM      1  C   UNL     1      -5.836 -10.581 -23.880  1.00  0.00     0.045 C 
ENDROOT
BRANCH   1   2
ATOM      2  C   UNL     1      -6.623 -10.041 -22.689  1.00  0.00     0.045 C 
BRANCH   2   3
ATOM      3  C   UNL     1      -8.135 -10.050 -22.904  1.00  0.00     0.229 C 
BRANCH   3   4
ATOM      4  O   UNL     1      -8.649  -8.723 -22.759  1.00  0.00    -0.493 OA
BRANCH   4   5
ATOM      5  C   UNL     1      -9.353  -8.432 -21.615  1.00  0.00     0.126 A 
ATOM      6  C   UNL     1      -8.806  -7.413 -20.804  1.00  0.00     0.040 A 
ATOM      7  C   UNL     1      -9.533  -7.128 -19.639  1.00  0.00     0.174 A 
ATOM      8  C   UNL     1     -10.516  -9.116 -21.233  1.00  0.00     0.048 A 
ATOM      9  O   UNL     1      -9.221  -6.169 -18.725  1.00  0.00    -0.355 OA
ATOM     10  C   UNL     1     -10.687  -7.774 -19.235  1.00  0.00     0.050 A 
ATOM     11  C   UNL     1     -11.199  -8.795 -20.052  1.00  0.00     0.018 A 
ATOM     12  N   UNL     1     -10.162  -6.160 -17.715  1.00  0.00    -0.079 NA
ATOM     13  C   UNL     1     -11.037  -7.137 -18.007  1.00  0.00     0.121 A 
BRANCH   6  14
ATOM     14  C   UNL     1      -7.551  -6.664 -21.169  1.00  0.00     0.043 C 
BRANCH  14  15
ATOM     15  C   UNL     1      -6.355  -7.000 -20.274  1.00  0.00     0.002 C 
ATOM     16  C   UNL     1      -5.750  -5.785 -19.586  1.00  0.00     0.004 C 
ENDBRANCH  14  15
ENDBRANCH   6  14
BRANCH  13  17
ATOM     17  C   UNL     1     -12.171  -7.419 -17.129  1.00  0.00     0.004 A 
ATOM     18  C   UNL     1     -12.793  -6.392 -16.405  1.00  0.00     0.010 A 
ATOM     19  C   UNL     1     -12.657  -8.728 -17.003  1.00  0.00     0.010 A 
ATOM     20  C   UNL     1     -13.869  -6.674 -15.558  1.00  0.00     0.001 A 
ATOM     21  C   UNL     1     -13.731  -9.008 -16.156  1.00  0.00     0.001 A 
ATOM     22  C   UNL     1     -14.334  -7.981 -15.432  1.00  0.00     0.000 A 
ENDBRANCH  13  17
ENDBRANCH   4   5
ENDBRANCH   3   4
ENDBRANCH   2   3
ENDBRANCH   1   2
BRANCH   1  23
ATOM     23  C   UNL     1      -6.662 -10.708 -25.159  1.00  0.00     0.229 C 
BRANCH  23  24
ATOM     24  O   UNL     1      -6.293  -9.699 -26.103  1.00  0.00    -0.494 OA
BRANCH  24  25
ATOM     25  C   UNL     1      -7.264  -9.148 -26.891  1.00  0.00     0.119 A 
ATOM     26  C   UNL     1      -7.253  -9.063 -28.279  1.00  0.00     0.047 A 
ATOM     27  C   UNL     1      -8.356  -8.635 -26.196  1.00  0.00     0.047 A 
ATOM     28  C   UNL     1      -8.333  -8.479 -28.957  1.00  0.00     0.008 A 
ATOM     29  C   UNL     1      -9.438  -8.058 -26.874  1.00  0.00     0.008 A 
ATOM     30  C   UNL     1      -9.450  -7.963 -28.272  1.00  0.00    -0.042 A 
BRANCH  30  31
ATOM     31  C   UNL     1     -10.630  -7.348 -29.060  1.00  0.00     0.000 C 
ATOM     32  C   UNL     1     -11.535  -8.486 -29.590  1.00  0.00     0.017 C 
ATOM     33  C   UNL     1     -10.168  -6.535 -30.294  1.00  0.00     0.017 C 
BRANCH  31  34
ATOM     34  C   UNL     1     -11.408  -6.422 -28.091  1.00  0.00     0.133 C 
BRANCH  34  35
ATOM     35  C   UNL     1     -12.818  -6.857 -27.807  1.00  0.00     0.304 C 
ATOM     36  O   UNL     1     -13.800  -6.624 -28.493  1.00  0.00    -0.252 OA
BRANCH  35  37
ATOM     37  O   UNL     1     -12.930  -7.572 -26.671  1.00  0.00    -0.481 OA
ATOM     38  H   UNL     1     -13.897  -7.630 -26.522  1.00  0.00     0.296 HD
ENDBRANCH  35  37
ENDBRANCH  34  35
ENDBRANCH  31  34
ENDBRANCH  30  31
ENDBRANCH  24  25
ENDBRANCH  23  24
ENDBRANCH   1  23
TORSDOF 14
ENDMDL
