MODEL 1
REMARK minimizedAffinity -6.07369661
REMARK CNNscore 0.738481462
REMARK CNNaffinity 4.62657118
REMARK SMILES CC(C)(O)C1=C[C@@H](O)[C@@](C)(O)CC1
REMARK SMILES IDX 5 1 6 2 7 3 9 4 10 5 12 6 13 7 2 8 1 9 3 10 4 11 8 13 11 15
REMARK H PARENT 4 12 8 14 11 16
ROOT
ATOM      1  C   UNL     1      39.529 -38.315 109.001  1.00  0.00    -0.041 C 
ATOM      2  C   UNL     1      38.420 -38.104 108.260  1.00  0.00     0.009 C 
ATOM      3  C   UNL     1      37.017 -38.087 108.796  1.00  0.00     0.169 C 
ATOM      4  C   UNL     1      36.889 -38.681 110.222  1.00  0.00     0.092 C 
ATOM      5  C   UNL     1      35.541 -38.313 110.846  1.00  0.00     0.045 C 
ATOM      6  C   UNL     1      38.045 -38.194 111.101  1.00  0.00     0.042 C 
ATOM      7  C   UNL     1      39.415 -38.539 110.503  1.00  0.00     0.037 C 
ENDROOT
BRANCH   1   8
ATOM      8  C   UNL     1      40.950 -38.340 108.426  1.00  0.00     0.080 C 
ATOM      9  C   UNL     1      41.617 -36.968 108.250  1.00  0.00     0.047 C 
ATOM     10  C   UNL     1      40.995 -39.080 107.083  1.00  0.00     0.047 C 
BRANCH   8  11
ATOM     11  O   UNL     1      41.763 -39.075 109.346  1.00  0.00    -0.386 OA
ATOM     12  H   UNL     1      41.706 -38.616 110.201  1.00  0.00     0.211 HD
ENDBRANCH   8  11
ENDBRANCH   1   8
BRANCH   3  13
ATOM     13  O   UNL     1      36.214 -38.834 107.881  1.00  0.00    -0.386 OA
ATOM     14  H   UNL     1      35.994 -39.670 108.337  1.00  0.00     0.211 HD
ENDBRANCH   3  13
BRANCH   4  15
ATOM     15  O   UNL     1      36.908 -40.121 110.135  1.00  0.00    -0.387 OA
ATOM     16  H   UNL     1      37.732 -40.377 109.683  1.00  0.00     0.211 HD
ENDBRANCH   4  15
TORSDOF 4
ENDMDL
MODEL 2
REMARK minimizedAffinity -6.10571432
REMARK CNNscore 0.631177723
REMARK CNNaffinity 4.60666323
REMARK SMILES CC(C)(O)C1=C[C@@H](O)[C@@](C)(O)CC1
REMARK SMILES IDX 5 1 6 2 7 3 9 4 10 5 12 6 13 7 2 8 1 9 3 10 4 11 8 13 11 15
REMARK H PARENT 4 12 8 14 11 16
ROOT
ATOM      1  C   UNL     1      48.049 -37.920 108.175  1.00  0.00    -0.041 C 
ATOM      2  C   UNL     1      47.412 -37.049 108.987  1.00  0.00     0.009 C 
ATOM      3  C   UNL     1      47.496 -35.553 108.881  1.00  0.00     0.169 C 
ATOM      4  C   UNL     1      48.657 -35.059 107.980  1.00  0.00     0.092 C 
ATOM      5  C   UNL     1      48.476 -33.581 107.622  1.00  0.00     0.045 C 
ATOM      6  C   UNL     1      48.744 -35.917 106.715  1.00  0.00     0.042 C 
ATOM      7  C   UNL     1      48.918 -37.408 107.034  1.00  0.00     0.037 C 
ENDROOT
BRANCH   1   8
ATOM      8  C   UNL     1      47.956 -39.443 108.313  1.00  0.00     0.080 C 
ATOM      9  C   UNL     1      47.769 -40.217 106.999  1.00  0.00     0.047 C 
ATOM     10  C   UNL     1      46.836 -39.849 109.280  1.00  0.00     0.047 C 
BRANCH   8  11
ATOM     11  O   UNL     1      49.191 -39.892 108.879  1.00  0.00    -0.386 OA
ATOM     12  H   UNL     1      49.897 -39.607 108.274  1.00  0.00     0.211 HD
ENDBRANCH   8  11
ENDBRANCH   1   8
BRANCH   3  13
ATOM     13  O   UNL     1      47.660 -35.052 110.208  1.00  0.00    -0.386 OA
ATOM     14  H   UNL     1      48.584 -34.740 110.266  1.00  0.00     0.211 HD
ENDBRANCH   3  13
BRANCH   4  15
ATOM     15  O   UNL     1      49.894 -35.141 108.718  1.00  0.00    -0.387 OA
ATOM     16  H   UNL     1      49.999 -36.065 109.012  1.00  0.00     0.211 HD
ENDBRANCH   4  15
TORSDOF 4
ENDMDL
MODEL 3
REMARK minimizedAffinity -5.57451534
REMARK CNNscore 0.623462021
REMARK CNNaffinity 4.5019989
REMARK SMILES CC(C)(O)C1=C[C@@H](O)[C@@](C)(O)CC1
REMARK SMILES IDX 5 1 6 2 7 3 9 4 10 5 12 6 13 7 2 8 1 9 3 10 4 11 8 13 11 15
REMARK H PARENT 4 12 8 14 11 16
ROOT
ATOM      1  C   UNL     1      45.723 -40.627 108.047  1.00  0.00    -0.041 C 
ATOM      2  C   UNL     1      47.005 -40.306 108.320  1.00  0.00     0.009 C 
ATOM      3  C   UNL     1      47.458 -39.008 108.924  1.00  0.00     0.169 C 
ATOM      4  C   UNL     1      46.375 -37.899 108.897  1.00  0.00     0.092 C 
ATOM      5  C   UNL     1      46.754 -36.746 109.830  1.00  0.00     0.045 C 
ATOM      6  C   UNL     1      45.013 -38.483 109.282  1.00  0.00     0.042 C 
ATOM      7  C   UNL     1      44.602 -39.648 108.372  1.00  0.00     0.037 C 
ENDROOT
BRANCH   1   8
ATOM      8  C   UNL     1      45.288 -41.955 107.417  1.00  0.00     0.080 C 
ATOM      9  C   UNL     1      45.726 -43.220 108.172  1.00  0.00     0.047 C 
ATOM     10  C   UNL     1      45.767 -42.066 105.963  1.00  0.00     0.047 C 
BRANCH   8  11
ATOM     11  O   UNL     1      43.858 -41.965 107.397  1.00  0.00    -0.386 OA
ATOM     12  H   UNL     1      43.563 -41.866 108.319  1.00  0.00     0.211 HD
ENDBRANCH   8  11
ENDBRANCH   1   8
BRANCH   3  13
ATOM     13  O   UNL     1      48.608 -38.587 108.189  1.00  0.00    -0.386 OA
ATOM     14  H   UNL     1      48.320 -37.822 107.654  1.00  0.00     0.211 HD
ENDBRANCH   3  13
BRANCH   4  15
ATOM     15  O   UNL     1      46.313 -37.335 107.571  1.00  0.00    -0.387 OA
ATOM     16  H   UNL     1      46.134 -38.064 106.949  1.00  0.00     0.211 HD
ENDBRANCH   4  15
TORSDOF 4
ENDMDL
MODEL 4
REMARK minimizedAffinity -5.90772152
REMARK CNNscore 0.55098629
REMARK CNNaffinity 4.55491066
REMARK SMILES CC(C)(O)C1=C[C@@H](O)[C@@](C)(O)CC1
REMARK SMILES IDX 5 1 6 2 7 3 9 4 10 5 12 6 13 7 2 8 1 9 3 10 4 11 8 13 11 15
REMARK H PARENT 4 12 8 14 11 16
ROOT
ATOM      1  C   UNL     1      47.040 -38.875 108.298  1.00  0.00    -0.041 C 
ATOM      2  C   UNL     1      48.201 -38.653 107.646  1.00  0.00     0.009 C 
ATOM      3  C   UNL     1      48.932 -37.340 107.609  1.00  0.00     0.169 C 
ATOM      4  C   UNL     1      48.076 -36.140 108.089  1.00  0.00     0.092 C 
ATOM      5  C   UNL     1      48.958 -34.921 108.371  1.00  0.00     0.045 C 
ATOM      6  C   UNL     1      47.274 -36.529 109.334  1.00  0.00     0.042 C 
ATOM      7  C   UNL     1      46.381 -37.754 109.091  1.00  0.00     0.037 C 
ENDROOT
BRANCH   1   8
ATOM      8  C   UNL     1      46.309 -40.221 108.309  1.00  0.00     0.080 C 
ATOM      9  C   UNL     1      45.187 -40.357 109.351  1.00  0.00     0.047 C 
ATOM     10  C   UNL     1      47.289 -41.387 108.496  1.00  0.00     0.047 C 
BRANCH   8  11
ATOM     11  O   UNL     1      45.697 -40.380 107.026  1.00  0.00    -0.386 OA
ATOM     12  H   UNL     1      45.099 -39.623 106.904  1.00  0.00     0.211 HD
ENDBRANCH   8  11
ENDBRANCH   1   8
BRANCH   3  13
ATOM     13  O   UNL     1      49.347 -37.135 106.258  1.00  0.00    -0.386 OA
ATOM     14  H   UNL     1      48.781 -36.420 105.908  1.00  0.00     0.211 HD
ENDBRANCH   3  13
BRANCH   4  15
ATOM     15  O   UNL     1      47.180 -35.746 107.029  1.00  0.00    -0.387 OA
ATOM     16  H   UNL     1      46.649 -36.527 106.788  1.00  0.00     0.211 HD
ENDBRANCH   4  15
TORSDOF 4
ENDMDL
MODEL 5
REMARK minimizedAffinity -5.42046928
REMARK CNNscore 0.548111081
REMARK CNNaffinity 4.36632681
REMARK SMILES CC(C)(O)C1=C[C@@H](O)[C@@](C)(O)CC1
REMARK SMILES IDX 5 1 6 2 7 3 9 4 10 5 12 6 13 7 2 8 1 9 3 10 4 11 8 13 11 15
REMARK H PARENT 4 12 8 14 11 16
ROOT
ATOM      1  C   UNL     1      48.561 -35.845 108.127  1.00  0.00    -0.041 C 
ATOM      2  C   UNL     1      49.076 -36.423 107.021  1.00  0.00     0.009 C 
ATOM      3  C   UNL     1      48.790 -37.827 106.570  1.00  0.00     0.169 C 
ATOM      4  C   UNL     1      48.124 -38.706 107.660  1.00  0.00     0.092 C 
ATOM      5  C   UNL     1      47.536 -39.979 107.047  1.00  0.00     0.045 C 
ATOM      6  C   UNL     1      47.043 -37.907 108.393  1.00  0.00     0.042 C 
ATOM      7  C   UNL     1      47.594 -36.617 109.015  1.00  0.00     0.037 C 
ENDROOT
BRANCH   1   8
ATOM      8  C   UNL     1      48.880 -34.414 108.572  1.00  0.00     0.080 C 
ATOM      9  C   UNL     1      47.877 -33.786 109.553  1.00  0.00     0.047 C 
ATOM     10  C   UNL     1      49.035 -33.476 107.368  1.00  0.00     0.047 C 
BRANCH   8  11
ATOM     11  O   UNL     1      50.142 -34.453 109.247  1.00  0.00    -0.386 OA
ATOM     12  H   UNL     1      50.043 -35.070 109.992  1.00  0.00     0.211 HD
ENDBRANCH   8  11
ENDBRANCH   1   8
BRANCH   3  13
ATOM     13  O   UNL     1      50.038 -38.398 106.175  1.00  0.00    -0.386 OA
ATOM     14  H   UNL     1      50.265 -39.051 106.866  1.00  0.00     0.211 HD
ENDBRANCH   3  13
BRANCH   4  15
ATOM     15  O   UNL     1      49.133 -39.142 108.593  1.00  0.00    -0.387 OA
ATOM     16  H   UNL     1      49.567 -38.346 108.951  1.00  0.00     0.211 HD
ENDBRANCH   4  15
TORSDOF 4
ENDMDL
MODEL 6
REMARK minimizedAffinity -6.16514206
REMARK CNNscore 0.530313492
REMARK CNNaffinity 4.13121891
REMARK SMILES CC(C)(O)C1=C[C@@H](O)[C@@](C)(O)CC1
REMARK SMILES IDX 5 1 6 2 7 3 9 4 10 5 12 6 13 7 2 8 1 9 3 10 4 11 8 13 11 15
REMARK H PARENT 4 12 8 14 11 16
ROOT
ATOM      1  C   UNL     1      40.748 -38.311 109.073  1.00  0.00    -0.041 C 
ATOM      2  C   UNL     1      41.209 -37.847 107.892  1.00  0.00     0.009 C 
ATOM      3  C   UNL     1      42.637 -37.927 107.432  1.00  0.00     0.169 C 
ATOM      4  C   UNL     1      43.636 -38.272 108.567  1.00  0.00     0.092 C 
ATOM      5  C   UNL     1      44.990 -38.691 107.990  1.00  0.00     0.045 C 
ATOM      6  C   UNL     1      43.060 -39.376 109.457  1.00  0.00     0.042 C 
ATOM      7  C   UNL     1      41.697 -38.995 110.049  1.00  0.00     0.037 C 
ENDROOT
BRANCH   1   8
ATOM      8  C   UNL     1      39.287 -38.205 109.523  1.00  0.00     0.080 C 
ATOM      9  C   UNL     1      39.074 -37.774 110.983  1.00  0.00     0.047 C 
ATOM     10  C   UNL     1      38.535 -39.522 109.290  1.00  0.00     0.047 C 
BRANCH   8  11
ATOM     11  O   UNL     1      38.665 -37.208 108.708  1.00  0.00    -0.386 OA
ATOM     12  H   UNL     1      39.165 -36.385 108.840  1.00  0.00     0.211 HD
ENDBRANCH   8  11
ENDBRANCH   1   8
BRANCH   3  13
ATOM     13  O   UNL     1      42.961 -36.658 106.864  1.00  0.00    -0.386 OA
ATOM     14  H   UNL     1      43.567 -36.226 107.498  1.00  0.00     0.211 HD
ENDBRANCH   3  13
BRANCH   4  15
ATOM     15  O   UNL     1      43.885 -37.087 109.350  1.00  0.00    -0.387 OA
ATOM     16  H   UNL     1      43.026 -36.764 109.677  1.00  0.00     0.211 HD
ENDBRANCH   4  15
TORSDOF 4
ENDMDL
MODEL 7
REMARK minimizedAffinity -5.58749819
REMARK CNNscore 0.520556331
REMARK CNNaffinity 3.99137425
REMARK SMILES CC(C)(O)C1=C[C@@H](O)[C@@](C)(O)CC1
REMARK SMILES IDX 5 1 6 2 7 3 9 4 10 5 12 6 13 7 2 8 1 9 3 10 4 11 8 13 11 15
REMARK H PARENT 4 12 8 14 11 16
ROOT
ATOM      1  C   UNL     1      46.034 -41.099 107.428  1.00  0.00    -0.041 C 
ATOM      2  C   UNL     1      45.707 -39.829 107.109  1.00  0.00     0.009 C 
ATOM      3  C   UNL     1      46.604 -38.637 107.289  1.00  0.00     0.169 C 
ATOM      4  C   UNL     1      47.826 -38.913 108.204  1.00  0.00     0.092 C 
ATOM      5  C   UNL     1      48.873 -37.805 108.061  1.00  0.00     0.045 C 
ATOM      6  C   UNL     1      48.433 -40.279 107.875  1.00  0.00     0.042 C 
ATOM      7  C   UNL     1      47.409 -41.416 108.000  1.00  0.00     0.037 C 
ENDROOT
BRANCH   1   8
ATOM      8  C   UNL     1      45.094 -42.296 107.246  1.00  0.00     0.080 C 
ATOM      9  C   UNL     1      45.372 -43.501 108.157  1.00  0.00     0.047 C 
ATOM     10  C   UNL     1      45.081 -42.778 105.790  1.00  0.00     0.047 C 
BRANCH   8  11
ATOM     11  O   UNL     1      43.772 -41.845 107.558  1.00  0.00    -0.386 OA
ATOM     12  H   UNL     1      43.795 -41.515 108.472  1.00  0.00     0.211 HD
ENDBRANCH   8  11
ENDBRANCH   1   8
BRANCH   3  13
ATOM     13  O   UNL     1      45.803 -37.594 107.845  1.00  0.00    -0.386 OA
ATOM     14  H   UNL     1      46.091 -37.499 108.774  1.00  0.00     0.211 HD
ENDBRANCH   3  13
BRANCH   4  15
ATOM     15  O   UNL     1      47.399 -38.881 109.581  1.00  0.00    -0.387 OA
ATOM     16  H   UNL     1      46.685 -39.538 109.682  1.00  0.00     0.211 HD
ENDBRANCH   4  15
TORSDOF 4
ENDMDL
MODEL 8
REMARK minimizedAffinity -5.69520617
REMARK CNNscore 0.50746119
REMARK CNNaffinity 3.98488259
REMARK SMILES CC(C)(O)C1=C[C@@H](O)[C@@](C)(O)CC1
REMARK SMILES IDX 5 1 6 2 7 3 9 4 10 5 12 6 13 7 2 8 1 9 3 10 4 11 8 13 11 15
REMARK H PARENT 4 12 8 14 11 16
ROOT
ATOM      1  C   UNL     1      41.600 -38.670 108.294  1.00  0.00    -0.041 C 
ATOM      2  C   UNL     1      41.849 -39.139 107.053  1.00  0.00     0.009 C 
ATOM      3  C   UNL     1      43.198 -39.569 106.549  1.00  0.00     0.169 C 
ATOM      4  C   UNL     1      44.373 -39.108 107.450  1.00  0.00     0.092 C 
ATOM      5  C   UNL     1      45.656 -39.865 107.099  1.00  0.00     0.045 C 
ATOM      6  C   UNL     1      44.014 -39.303 108.925  1.00  0.00     0.042 C 
ATOM      7  C   UNL     1      42.726 -38.564 109.313  1.00  0.00     0.037 C 
ENDROOT
BRANCH   1   8
ATOM      8  C   UNL     1      40.215 -38.226 108.778  1.00  0.00     0.080 C 
ATOM      9  C   UNL     1      39.810 -38.726 110.173  1.00  0.00     0.047 C 
ATOM     10  C   UNL     1      39.120 -38.625 107.780  1.00  0.00     0.047 C 
BRANCH   8  11
ATOM     11  O   UNL     1      40.231 -36.796 108.845  1.00  0.00    -0.386 OA
ATOM     12  H   UNL     1      40.945 -36.551 109.457  1.00  0.00     0.211 HD
ENDBRANCH   8  11
ENDBRANCH   1   8
BRANCH   3  13
ATOM     13  O   UNL     1      43.344 -39.025 105.237  1.00  0.00    -0.386 OA
ATOM     14  H   UNL     1      44.002 -38.306 105.316  1.00  0.00     0.211 HD
ENDBRANCH   3  13
BRANCH   4  15
ATOM     15  O   UNL     1      44.647 -37.716 107.189  1.00  0.00    -0.387 OA
ATOM     16  H   UNL     1      43.822 -37.220 107.345  1.00  0.00     0.211 HD
ENDBRANCH   4  15
TORSDOF 4
ENDMDL
MODEL 9
REMARK minimizedAffinity -6.135777
REMARK CNNscore 0.498674214
REMARK CNNaffinity 3.82712293
REMARK SMILES CC(C)(O)C1=C[C@@H](O)[C@@](C)(O)CC1
REMARK SMILES IDX 5 1 6 2 7 3 9 4 10 5 12 6 13 7 2 8 1 9 3 10 4 11 8 13 11 15
REMARK H PARENT 4 12 8 14 11 16
ROOT
ATOM      1  C   UNL     1      43.973 -40.945 100.248  1.00  0.00    -0.041 C 
ATOM      2  C   UNL     1      43.631 -39.807 100.888  1.00  0.00     0.009 C 
ATOM      3  C   UNL     1      43.442 -39.678 102.373  1.00  0.00     0.169 C 
ATOM      4  C   UNL     1      43.326 -41.040 103.105  1.00  0.00     0.092 C 
ATOM      5  C   UNL     1      43.500 -40.862 104.616  1.00  0.00     0.045 C 
ATOM      6  C   UNL     1      44.359 -42.025 102.552  1.00  0.00     0.042 C 
ATOM      7  C   UNL     1      44.221 -42.224 101.037  1.00  0.00     0.037 C 
ENDROOT
BRANCH   1   8
ATOM      8  C   UNL     1      44.146 -41.053  98.729  1.00  0.00     0.080 C 
ATOM      9  C   UNL     1      42.848 -40.987  97.908  1.00  0.00     0.047 C 
ATOM     10  C   UNL     1      44.901 -42.332  98.343  1.00  0.00     0.047 C 
BRANCH   8  11
ATOM     11  O   UNL     1      44.947 -39.942  98.315  1.00  0.00    -0.386 OA
ATOM     12  H   UNL     1      44.475 -39.138  98.588  1.00  0.00     0.211 HD
ENDBRANCH   8  11
ENDBRANCH   1   8
BRANCH   3  13
ATOM     13  O   UNL     1      42.255 -38.910 102.575  1.00  0.00    -0.386 OA
ATOM     14  H   UNL     1      41.583 -39.537 102.908  1.00  0.00     0.211 HD
ENDBRANCH   3  13
BRANCH   4  15
ATOM     15  O   UNL     1      41.995 -41.563 102.917  1.00  0.00    -0.387 OA
ATOM     16  H   UNL     1      41.838 -41.626 101.957  1.00  0.00     0.211 HD
ENDBRANCH   4  15
TORSDOF 4
ENDMDL
