MODEL 1
REMARK VINA RESULT:    -7.038      0.000      0.000
REMARK INTER + INTRA:         -10.211
REMARK INTER:                  -9.918
REMARK INTRA:                  -0.293
REMARK UNBOUND:                -0.293
REMARK SMILES C/C=C\CC/C=C/C=C/C(=O)NCC(C)C
REMARK SMILES IDX 6 1 7 2 5 3 4 4 3 5 2 6 1 7 8 8 9 9 10 10 11 11 12 12 13 14
REMARK SMILES IDX 14 15 15 16 16 17
REMARK H PARENT 12 13
ROOT
ATOM      1  C   UNL     1      -8.332  -6.070 -19.528  1.00  0.00    -0.027 C 
ATOM      2  C   UNL     1      -7.051  -6.437 -19.374  1.00  0.00    -0.004 C 
ENDROOT
BRANCH   1   3
ATOM      3  C   UNL     1      -9.488  -6.766 -18.858  1.00  0.00     0.031 C 
BRANCH   3   4
ATOM      4  C   UNL     1     -10.553  -5.803 -18.319  1.00  0.00     0.031 C 
BRANCH   4   5
ATOM      5  C   UNL     1     -10.930  -6.068 -16.886  1.00  0.00    -0.031 C 
ATOM      6  C   UNL     1     -11.570  -7.143 -16.398  1.00  0.00    -0.035 C 
ATOM      7  C   UNL     1     -12.100  -8.311 -17.165  1.00  0.00     0.035 C 
ENDBRANCH   4   5
ENDBRANCH   3   4
ENDBRANCH   1   3
BRANCH   2   8
ATOM      8  C   UNL     1      -5.959  -5.757 -20.033  1.00  0.00     0.005 C 
ATOM      9  C   UNL     1      -5.472  -4.584 -19.602  1.00  0.00     0.071 C 
BRANCH   9  10
ATOM     10  C   UNL     1      -4.375  -3.847 -20.277  1.00  0.00     0.243 C 
ATOM     11  O   UNL     1      -3.209  -4.108 -20.011  1.00  0.00    -0.270 OA
ATOM     12  N   UNL     1      -4.775  -2.947 -21.232  1.00  0.00    -0.352 N 
ATOM     13  H   UNL     1      -5.728  -3.007 -21.564  1.00  0.00     0.163 HD
BRANCH  12  14
ATOM     14  C   UNL     1      -3.803  -2.291 -22.084  1.00  0.00     0.119 C 
BRANCH  14  15
ATOM     15  C   UNL     1      -3.841  -0.765 -21.935  1.00  0.00     0.002 C 
ATOM     16  C   UNL     1      -2.437  -0.185 -22.095  1.00  0.00     0.009 C 
ATOM     17  C   UNL     1      -4.429  -0.349 -20.585  1.00  0.00     0.009 C 
ENDBRANCH  14  15
ENDBRANCH  12  14
ENDBRANCH   9  10
ENDBRANCH   2   8
TORSDOF 7
ENDMDL
