MODEL 1
REMARK VINA RESULT:    -7.872      0.000      0.000
REMARK INTER + INTRA:         -15.447
REMARK INTER:                 -14.085
REMARK INTRA:                  -1.362
REMARK UNBOUND:                -1.362
REMARK SMILES Cc1cc(OCCCc2c3n(c4c(-c5c(C)nn(C)c5C)c(Cl)ccc24)CCCN(c2cccc(C(=O)O)c2)C3=O)cc(C)c1Cl
REMARK SMILES IDX 9 1 10 2 11 3 12 4 13 5 22 6 23 7 24 8 25 9 26 10 8 11 7 12
REMARK SMILES IDX 6 13 5 14 4 15 2 16 3 17 45 18 43 19 42 20 1 21 46 22 44 23
REMARK SMILES IDX 40 24 41 25 30 26 29 27 28 28 31 30 32 31 39 32 33 33 35 34
REMARK SMILES IDX 34 35 36 36 37 37 38 38 27 40 14 42 15 43 20 44 17 45 18 46
REMARK SMILES IDX 16 47 21 48 19 49
REMARK H PARENT 38 39
REMARK Flexibility Score:  124.900
ROOT
ATOM      1  C   UNL     1     -14.895   5.044  24.024  1.00  0.00    -0.009 A 
ATOM      2  C   UNL     1     -14.563   6.399  24.107  1.00  0.00     0.111 A 
ATOM      3  N   UNL     1     -15.322   7.051  23.143  1.00  0.00    -0.336 N 
ATOM      4  C   UNL     1     -16.177   6.149  22.489  1.00  0.00     0.059 A 
ATOM      5  C   UNL     1     -17.187   6.292  21.489  1.00  0.00     0.028 A 
ATOM      6  C   UNL     1     -17.833   5.129  21.012  1.00  0.00     0.051 A 
ATOM      7  Cl  UNL     1     -19.070   5.197  19.797  1.00  0.00    -0.084 Cl
ATOM      8  C   UNL     1     -17.507   3.874  21.505  1.00  0.00     0.022 A 
ATOM      9  C   UNL     1     -16.541   3.744  22.498  1.00  0.00     0.012 A 
ATOM     10  C   UNL     1     -15.875   4.884  23.004  1.00  0.00     0.004 A 
ENDROOT
BRANCH   1  11
ATOM     11  C   UNL     1     -14.328   3.918  24.854  1.00  0.00     0.042 C 
BRANCH  11  12
ATOM     12  C   UNL     1     -13.170   3.206  24.152  1.00  0.00     0.046 C 
BRANCH  12  13
ATOM     13  C   UNL     1     -13.503   1.748  23.846  1.00  0.00     0.230 C 
BRANCH  13  14
ATOM     14  O   UNL     1     -13.382   1.538  22.439  1.00  0.00    -0.494 OA
BRANCH  14  15
ATOM     15  C   UNL     1     -13.504   0.255  21.983  1.00  0.00     0.119 A 
ATOM     16  C   UNL     1     -13.782  -2.068  22.681  1.00  0.00    -0.029 A 
ATOM     17  C   UNL     1     -13.643  -0.706  22.988  1.00  0.00     0.051 A 
ATOM     18  C   UNL     1     -13.781  -2.462  21.331  1.00  0.00     0.047 A 
ATOM     19  C   UNL     1     -13.642  -1.506  20.306  1.00  0.00    -0.029 A 
ATOM     20  C   UNL     1     -13.505  -0.148  20.648  1.00  0.00     0.051 A 
ATOM     21  C   UNL     1     -13.923  -3.059  23.804  1.00  0.00     0.046 C 
ATOM     22  Cl  UNL     1     -13.953  -4.141  20.924  1.00  0.00    -0.084 Cl
ATOM     23  C   UNL     1     -13.640  -1.894  18.852  1.00  0.00     0.046 C 
ENDBRANCH  14  15
ENDBRANCH  13  14
ENDBRANCH  12  13
ENDBRANCH  11  12
ENDBRANCH   1  11
BRANCH   2  24
ATOM     24  C   UNL     1     -13.609   6.944  25.085  1.00  0.00     0.275 C 
ATOM     25  O   UNL     1     -12.656   6.252  25.447  1.00  0.00    -0.267 OA
BRANCH  24  26
ATOM     26  N   UNL     1     -13.736   8.284  25.502  1.00  0.00    -0.307 N 
BRANCH  26  27
ATOM     27  C   UNL     1     -13.683   9.379  24.540  1.00  0.00     0.128 C 
BRANCH  27  28
ATOM     28  C   UNL     1     -15.048   9.506  23.890  1.00  0.00     0.044 CG0
ATOM     29  G   UNL     1     -15.263   8.459  22.814  1.00  0.00     0.000 G0
ENDBRANCH  27  28
ENDBRANCH  26  27
BRANCH  26  30
ATOM     30  C   UNL     1     -14.078   8.612  26.860  1.00  0.00     0.045 A 
ATOM     31  C   UNL     1     -15.004   7.829  27.568  1.00  0.00     0.026 A 
ATOM     32  C   UNL     1     -13.495   9.703  27.522  1.00  0.00     0.042 A 
ATOM     33  C   UNL     1     -15.337   8.122  28.895  1.00  0.00     0.003 A 
ATOM     34  C   UNL     1     -13.821   9.999  28.854  1.00  0.00     0.061 A 
ATOM     35  C   UNL     1     -14.745   9.204  29.539  1.00  0.00     0.016 A 
BRANCH  34  36
ATOM     36  C   UNL     1     -13.145  11.148  29.506  1.00  0.00     0.335 C 
ATOM     37  O   UNL     1     -12.106  11.105  30.137  1.00  0.00    -0.246 OA
BRANCH  36  38
ATOM     38  O   UNL     1     -13.810  12.305  29.340  1.00  0.00    -0.478 OA
ATOM     39  H   UNL     1     -14.381  12.356  30.136  1.00  0.00     0.297 HD
ENDBRANCH  36  38
ENDBRANCH  34  36
ENDBRANCH  26  30
ENDBRANCH  24  26
ENDBRANCH   2  24
BRANCH   3  40
ATOM     40  C   UNL     1     -15.269   8.458  22.788  1.00  0.00     0.125 CG0
ATOM     41  G   UNL     1     -15.067   9.503  23.869  1.00  0.00     0.000 G0
ENDBRANCH   3  40
BRANCH   5  42
ATOM     42  C   UNL     1     -17.560   7.598  20.986  1.00  0.00     0.029 A 
ATOM     43  C   UNL     1     -17.247   8.227  19.753  1.00  0.00     0.068 A 
ATOM     44  C   UNL     1     -18.417   8.471  21.633  1.00  0.00     0.043 A 
ATOM     45  N   UNL     1     -17.788   9.449  19.678  1.00  0.00    -0.178 NA
ATOM     46  N   UNL     1     -18.520   9.557  20.802  1.00  0.00    -0.272 N 
ATOM     47  C   UNL     1     -16.406   7.716  18.643  1.00  0.00     0.069 C 
ATOM     48  C   UNL     1     -19.140   8.372  22.927  1.00  0.00     0.067 C 
ATOM     49  C   UNL     1     -19.308  10.748  21.017  1.00  0.00     0.174 C 
ENDBRANCH   5  42
TORSDOF 9
ENDMDL
