MODEL 1
REMARK VINA RESULT:    -7.935      0.000      0.000
REMARK INTER + INTRA:         -17.487
REMARK INTER:                 -15.820
REMARK INTRA:                  -1.667
REMARK UNBOUND:                -1.667
REMARK SMILES CCOC(=O)[C@@H](Cc1ccc(OCCn2c(=O)sc3cc(C(=O)/C=C/c4cc(OC)cc(OC)c4)ccc32)cc1)OCC(F)(F)F
REMARK SMILES IDX 12 1 11 2 8 3 9 4 40 5 10 6 39 7 7 8 6 9 4 10 5 11 3 12 2 13
REMARK SMILES IDX 1 14 41 15 42 16 43 17 44 18 45 19 46 20 13 21 14 22 15 23
REMARK SMILES IDX 16 24 38 25 17 26 18 27 37 28 19 29 36 30 20 31 21 32 22 33
REMARK SMILES IDX 23 34 24 35 25 36 26 37 27 38 35 39 28 40 32 41 31 42 29 43
REMARK SMILES IDX 30 44 33 45 34 46
REMARK H PARENT
ROOT
ATOM      1  O   UNL     1      -7.586  -9.907 -26.224  1.00  0.00    -0.492 OA
ENDROOT
BRANCH   1   2
ATOM      2  C   UNL     1      -7.718  -9.310 -25.001  1.00  0.00     0.119 A 
ATOM      3  C   UNL     1      -7.836  -8.260 -22.398  1.00  0.00    -0.045 A 
ATOM      4  C   UNL     1      -7.077  -9.404 -22.667  1.00  0.00     0.007 A 
ATOM      5  C   UNL     1      -8.517  -7.635 -23.451  1.00  0.00     0.007 A 
ATOM      6  C   UNL     1      -7.015  -9.920 -23.962  1.00  0.00     0.047 A 
ATOM      7  C   UNL     1      -8.458  -8.156 -24.748  1.00  0.00     0.047 A 
BRANCH   3   8
ATOM      8  C   UNL     1      -7.892  -7.688 -21.000  1.00  0.00     0.079 C 
BRANCH   8   9
ATOM      9  C   UNL     1      -7.744  -6.158 -20.997  1.00  0.00     0.232 C 
BRANCH   9  10
ATOM     10  C   UNL     1      -6.267  -5.836 -20.709  1.00  0.00     0.335 C 
ATOM     11  O   UNL     1      -5.364  -6.664 -20.768  1.00  0.00    -0.249 OA
BRANCH  10  12
ATOM     12  O   UNL     1      -6.086  -4.522 -20.395  1.00  0.00    -0.464 OA
BRANCH  12  13
ATOM     13  C   UNL     1      -4.716  -4.128 -20.255  1.00  0.00     0.229 C 
ATOM     14  C   UNL     1      -4.406  -3.106 -21.331  1.00  0.00     0.049 C 
ENDBRANCH  12  13
ENDBRANCH  10  12
ENDBRANCH   9  10
BRANCH   9  15
ATOM     15  O   UNL     1      -8.665  -5.627 -20.034  1.00  0.00    -0.357 OA
BRANCH  15  16
ATOM     16  C   UNL     1      -8.699  -6.354 -18.796  1.00  0.00     0.276 C 
BRANCH  16  17
ATOM     17  C   UNL     1     -10.104  -6.633 -18.261  1.00  0.00     0.411 C 
ATOM     18  F   UNL     1     -10.771  -5.468 -18.074  1.00  0.00    -0.168 F 
ATOM     19  F   UNL     1     -10.074  -7.275 -17.073  1.00  0.00    -0.168 F 
ATOM     20  F   UNL     1     -10.832  -7.374 -19.126  1.00  0.00    -0.168 F 
ENDBRANCH  16  17
ENDBRANCH  15  16
ENDBRANCH   9  15
ENDBRANCH   8   9
ENDBRANCH   3   8
ENDBRANCH   1   2
BRANCH   1  21
ATOM     21  C   UNL     1      -7.622  -9.031 -27.356  1.00  0.00     0.251 C 
BRANCH  21  22
ATOM     22  C   UNL     1      -8.607  -9.600 -28.383  1.00  0.00     0.168 C 
BRANCH  22  23
ATOM     23  N   UNL     1      -8.906  -8.653 -29.446  1.00  0.00    -0.295 N 
ATOM     24  C   UNL     1      -8.179  -8.655 -30.629  1.00  0.00     0.308 A 
ATOM     25  C   UNL     1      -9.864  -7.622 -29.335  1.00  0.00     0.062 A 
ATOM     26  O   UNL     1      -7.278  -9.421 -30.935  1.00  0.00    -0.257 OA
ATOM     27  S   UNL     1      -8.737  -7.345 -31.682  1.00  0.00    -0.074 S 
ATOM     28  C   UNL     1     -10.696  -7.362 -28.256  1.00  0.00     0.028 A 
ATOM     29  C   UNL     1      -9.912  -6.810 -30.471  1.00  0.00     0.057 A 
ATOM     30  C   UNL     1     -11.583  -6.283 -28.336  1.00  0.00     0.014 A 
ATOM     31  C   UNL     1     -10.782  -5.732 -30.565  1.00  0.00     0.033 A 
ATOM     32  C   UNL     1     -11.643  -5.481 -29.491  1.00  0.00     0.023 A 
BRANCH  32  33
ATOM     33  C   UNL     1     -12.590  -4.339 -29.495  1.00  0.00     0.185 C 
ATOM     34  O   UNL     1     -13.582  -4.371 -28.773  1.00  0.00    -0.289 OA
BRANCH  33  35
ATOM     35  C   UNL     1     -12.364  -3.153 -30.361  1.00  0.00     0.053 C 
ATOM     36  C   UNL     1     -11.246  -2.412 -30.373  1.00  0.00     0.012 C 
BRANCH  36  37
ATOM     37  C   UNL     1     -11.052  -1.273 -31.281  1.00  0.00    -0.018 A 
ATOM     38  C   UNL     1     -12.156  -0.479 -31.612  1.00  0.00     0.054 A 
ATOM     39  C   UNL     1      -9.788  -0.928 -31.779  1.00  0.00     0.054 A 
ATOM     40  C   UNL     1     -12.017   0.631 -32.450  1.00  0.00     0.123 A 
ATOM     41  C   UNL     1      -9.637   0.181 -32.614  1.00  0.00     0.123 A 
ATOM     42  C   UNL     1     -10.756   0.954 -32.948  1.00  0.00     0.092 A 
BRANCH  40  43
ATOM     43  O   UNL     1     -13.179   1.309 -32.698  1.00  0.00    -0.497 OA
ATOM     44  C   UNL     1     -14.139   1.341 -31.650  1.00  0.00     0.278 C 
ENDBRANCH  40  43
BRANCH  41  45
ATOM     45  O   UNL     1      -8.461   0.620 -33.159  1.00  0.00    -0.497 OA
ATOM     46  C   UNL     1      -8.128   1.988 -32.968  1.00  0.00     0.278 C 
ENDBRANCH  41  45
ENDBRANCH  36  37
ENDBRANCH  33  35
ENDBRANCH  32  33
ENDBRANCH  22  23
ENDBRANCH  21  22
ENDBRANCH   1  21
TORSDOF 17
ENDMDL
MODEL 2
REMARK VINA RESULT:    -7.754      5.077      7.928
REMARK INTER + INTRA:         -17.127
REMARK INTER:                 -14.282
REMARK INTRA:                  -2.845
REMARK UNBOUND:                -1.667
REMARK SMILES CCOC(=O)[C@@H](Cc1ccc(OCCn2c(=O)sc3cc(C(=O)/C=C/c4cc(OC)cc(OC)c4)ccc32)cc1)OCC(F)(F)F
REMARK SMILES IDX 12 1 11 2 8 3 9 4 40 5 10 6 39 7 7 8 6 9 4 10 5 11 3 12 2 13
REMARK SMILES IDX 1 14 41 15 42 16 43 17 44 18 45 19 46 20 13 21 14 22 15 23
REMARK SMILES IDX 16 24 38 25 17 26 18 27 37 28 19 29 36 30 20 31 21 32 22 33
REMARK SMILES IDX 23 34 24 35 25 36 26 37 27 38 35 39 28 40 32 41 31 42 29 43
REMARK SMILES IDX 30 44 33 45 34 46
REMARK H PARENT
ROOT
ATOM      1  O   UNL     1      -9.493  -6.967 -17.953  1.00  0.00    -0.492 OA
ENDROOT
BRANCH   1   2
ATOM      2  C   UNL     1      -8.591  -6.273 -18.710  1.00  0.00     0.119 A 
ATOM      3  C   UNL     1      -6.555  -4.960 -20.133  1.00  0.00    -0.045 A 
ATOM      4  C   UNL     1      -6.238  -5.840 -19.092  1.00  0.00     0.007 A 
ATOM      5  C   UNL     1      -7.901  -4.763 -20.468  1.00  0.00     0.007 A 
ATOM      6  C   UNL     1      -7.251  -6.495 -18.391  1.00  0.00     0.047 A 
ATOM      7  C   UNL     1      -8.915  -5.418 -19.761  1.00  0.00     0.047 A 
BRANCH   3   8
ATOM      8  C   UNL     1      -5.460  -4.260 -20.906  1.00  0.00     0.079 C 
BRANCH   8   9
ATOM      9  C   UNL     1      -4.302  -3.820 -19.996  1.00  0.00     0.232 C 
BRANCH   9  10
ATOM     10  C   UNL     1      -4.254  -2.282 -20.020  1.00  0.00     0.335 C 
ATOM     11  O   UNL     1      -3.613  -1.607 -19.221  1.00  0.00    -0.249 OA
BRANCH  10  12
ATOM     12  O   UNL     1      -4.996  -1.768 -21.041  1.00  0.00    -0.464 OA
BRANCH  12  13
ATOM     13  C   UNL     1      -4.280  -0.878 -21.905  1.00  0.00     0.229 C 
ATOM     14  C   UNL     1      -3.207  -1.675 -22.620  1.00  0.00     0.049 C 
ENDBRANCH  12  13
ENDBRANCH  10  12
ENDBRANCH   9  10
BRANCH   9  15
ATOM     15  O   UNL     1      -3.106  -4.459 -20.464  1.00  0.00    -0.357 OA
BRANCH  15  16
ATOM     16  C   UNL     1      -2.546  -5.400 -19.535  1.00  0.00     0.276 C 
BRANCH  16  17
ATOM     17  C   UNL     1      -2.864  -6.863 -19.843  1.00  0.00     0.411 C 
ATOM     18  F   UNL     1      -1.726  -7.533 -20.151  1.00  0.00    -0.168 F 
ATOM     19  F   UNL     1      -3.702  -6.988 -20.894  1.00  0.00    -0.168 F 
ATOM     20  F   UNL     1      -3.417  -7.490 -18.781  1.00  0.00    -0.168 F 
ENDBRANCH  16  17
ENDBRANCH  15  16
ENDBRANCH   9  15
ENDBRANCH   8   9
ENDBRANCH   3   8
ENDBRANCH   1   2
BRANCH   1  21
ATOM     21  C   UNL     1     -10.826  -7.034 -18.472  1.00  0.00     0.251 C 
BRANCH  21  22
ATOM     22  C   UNL     1     -11.146  -8.494 -18.808  1.00  0.00     0.168 C 
BRANCH  22  23
ATOM     23  N   UNL     1     -11.415  -8.689 -20.225  1.00  0.00    -0.295 N 
ATOM     24  C   UNL     1     -12.715  -8.829 -20.691  1.00  0.00     0.308 A 
ATOM     25  C   UNL     1     -10.409  -8.844 -21.203  1.00  0.00     0.062 A 
ATOM     26  O   UNL     1     -13.741  -8.774 -20.031  1.00  0.00    -0.257 OA
ATOM     27  S   UNL     1     -12.701  -9.121 -22.438  1.00  0.00    -0.074 S 
ATOM     28  C   UNL     1      -9.036  -8.793 -21.011  1.00  0.00     0.028 A 
ATOM     29  C   UNL     1     -10.931  -9.083 -22.476  1.00  0.00     0.057 A 
ATOM     30  C   UNL     1      -8.195  -8.975 -22.114  1.00  0.00     0.014 A 
ATOM     31  C   UNL     1     -10.112  -9.271 -23.582  1.00  0.00     0.033 A 
ATOM     32  C   UNL     1      -8.727  -9.194 -23.399  1.00  0.00     0.023 A 
BRANCH  32  33
ATOM     33  C   UNL     1      -7.775  -9.404 -24.517  1.00  0.00     0.185 C 
ATOM     34  O   UNL     1      -6.751 -10.054 -24.328  1.00  0.00    -0.289 OA
BRANCH  33  35
ATOM     35  C   UNL     1      -8.034  -8.837 -25.866  1.00  0.00     0.053 C 
ATOM     36  C   UNL     1      -7.962  -9.525 -27.015  1.00  0.00     0.012 C 
BRANCH  36  37
ATOM     37  C   UNL     1      -8.270  -8.930 -28.323  1.00  0.00    -0.018 A 
ATOM     38  C   UNL     1      -9.415  -8.135 -28.449  1.00  0.00     0.054 A 
ATOM     39  C   UNL     1      -7.423  -9.090 -29.429  1.00  0.00     0.054 A 
ATOM     40  C   UNL     1      -9.735  -7.525 -29.666  1.00  0.00     0.123 A 
ATOM     41  C   UNL     1      -7.732  -8.483 -30.647  1.00  0.00     0.123 A 
ATOM     42  C   UNL     1      -8.891  -7.705 -30.760  1.00  0.00     0.092 A 
BRANCH  40  43
ATOM     43  O   UNL     1     -10.886  -6.787 -29.649  1.00  0.00    -0.497 OA
ATOM     44  C   UNL     1     -11.806  -7.056 -28.599  1.00  0.00     0.278 C 
ENDBRANCH  40  43
BRANCH  41  45
ATOM     45  O   UNL     1      -6.988  -8.561 -31.793  1.00  0.00    -0.497 OA
ATOM     46  C   UNL     1      -7.495  -7.895 -32.943  1.00  0.00     0.278 C 
ENDBRANCH  41  45
ENDBRANCH  36  37
ENDBRANCH  33  35
ENDBRANCH  32  33
ENDBRANCH  22  23
ENDBRANCH  21  22
ENDBRANCH   1  21
TORSDOF 17
ENDMDL
MODEL 3
REMARK VINA RESULT:    -7.735      3.015      4.594
REMARK INTER + INTRA:         -17.090
REMARK INTER:                 -16.038
REMARK INTRA:                  -1.052
REMARK UNBOUND:                -1.667
REMARK SMILES CCOC(=O)[C@@H](Cc1ccc(OCCn2c(=O)sc3cc(C(=O)/C=C/c4cc(OC)cc(OC)c4)ccc32)cc1)OCC(F)(F)F
REMARK SMILES IDX 12 1 11 2 8 3 9 4 40 5 10 6 39 7 7 8 6 9 4 10 5 11 3 12 2 13
REMARK SMILES IDX 1 14 41 15 42 16 43 17 44 18 45 19 46 20 13 21 14 22 15 23
REMARK SMILES IDX 16 24 38 25 17 26 18 27 37 28 19 29 36 30 20 31 21 32 22 33
REMARK SMILES IDX 23 34 24 35 25 36 26 37 27 38 35 39 28 40 32 41 31 42 29 43
REMARK SMILES IDX 30 44 33 45 34 46
REMARK H PARENT
ROOT
ATOM      1  O   UNL     1      -7.993  -8.454 -22.256  1.00  0.00    -0.492 OA
ENDROOT
BRANCH   1   2
ATOM      2  C   UNL     1      -7.429  -7.461 -21.504  1.00  0.00     0.119 A 
ATOM      3  C   UNL     1      -6.073  -5.572 -19.928  1.00  0.00    -0.045 A 
ATOM      4  C   UNL     1      -5.494  -6.817 -20.196  1.00  0.00     0.007 A 
ATOM      5  C   UNL     1      -7.327  -5.275 -20.477  1.00  0.00     0.007 A 
ATOM      6  C   UNL     1      -6.167  -7.752 -20.984  1.00  0.00     0.047 A 
ATOM      7  C   UNL     1      -8.003  -6.214 -21.262  1.00  0.00     0.047 A 
BRANCH   3   8
ATOM      8  C   UNL     1      -5.339  -4.550 -19.089  1.00  0.00     0.079 C 
BRANCH   8   9
ATOM      9  C   UNL     1      -4.746  -3.420 -19.945  1.00  0.00     0.232 C 
BRANCH   9  10
ATOM     10  C   UNL     1      -3.338  -3.860 -20.383  1.00  0.00     0.335 C 
ATOM     11  O   UNL     1      -2.701  -4.753 -19.835  1.00  0.00    -0.249 OA
BRANCH  10  12
ATOM     12  O   UNL     1      -2.896  -3.147 -21.457  1.00  0.00    -0.464 OA
BRANCH  12  13
ATOM     13  C   UNL     1      -3.808  -3.110 -22.561  1.00  0.00     0.229 C 
ATOM     14  C   UNL     1      -3.379  -1.991 -23.490  1.00  0.00     0.049 C 
ENDBRANCH  12  13
ENDBRANCH  10  12
ENDBRANCH   9  10
BRANCH   9  15
ATOM     15  O   UNL     1      -4.776  -2.215 -19.168  1.00  0.00    -0.357 OA
BRANCH  15  16
ATOM     16  C   UNL     1      -3.824  -1.225 -19.589  1.00  0.00     0.276 C 
BRANCH  16  17
ATOM     17  C   UNL     1      -4.394  -0.146 -20.509  1.00  0.00     0.411 C 
ATOM     18  F   UNL     1      -3.421   0.337 -21.320  1.00  0.00    -0.168 F 
ATOM     19  F   UNL     1      -4.893   0.899 -19.813  1.00  0.00    -0.168 F 
ATOM     20  F   UNL     1      -5.371  -0.630 -21.307  1.00  0.00    -0.168 F 
ENDBRANCH  16  17
ENDBRANCH  15  16
ENDBRANCH   9  15
ENDBRANCH   8   9
ENDBRANCH   3   8
ENDBRANCH   1   2
BRANCH   1  21
ATOM     21  C   UNL     1      -8.451  -8.071 -23.558  1.00  0.00     0.251 C 
BRANCH  21  22
ATOM     22  C   UNL     1      -8.334  -9.279 -24.492  1.00  0.00     0.168 C 
BRANCH  22  23
ATOM     23  N   UNL     1      -8.447  -8.907 -25.894  1.00  0.00    -0.295 N 
ATOM     24  C   UNL     1      -7.376  -9.064 -26.763  1.00  0.00     0.308 A 
ATOM     25  C   UNL     1      -9.584  -8.285 -26.455  1.00  0.00     0.062 A 
ATOM     26  O   UNL     1      -6.281  -9.538 -26.499  1.00  0.00    -0.257 OA
ATOM     27  S   UNL     1      -7.807  -8.457 -28.369  1.00  0.00    -0.074 S 
ATOM     28  C   UNL     1     -10.772  -7.972 -25.810  1.00  0.00     0.028 A 
ATOM     29  C   UNL     1      -9.414  -7.972 -27.805  1.00  0.00     0.057 A 
ATOM     30  C   UNL     1     -11.790  -7.349 -26.542  1.00  0.00     0.014 A 
ATOM     31  C   UNL     1     -10.409  -7.349 -28.545  1.00  0.00     0.033 A 
ATOM     32  C   UNL     1     -11.620  -7.055 -27.908  1.00  0.00     0.023 A 
BRANCH  32  33
ATOM     33  C   UNL     1     -12.732  -6.371 -28.613  1.00  0.00     0.185 C 
ATOM     34  O   UNL     1     -13.878  -6.796 -28.496  1.00  0.00    -0.289 OA
BRANCH  33  35
ATOM     35  C   UNL     1     -12.486  -5.179 -29.466  1.00  0.00     0.053 C 
ATOM     36  C   UNL     1     -11.886  -4.051 -29.056  1.00  0.00     0.012 C 
BRANCH  36  37
ATOM     37  C   UNL     1     -11.626  -2.915 -29.949  1.00  0.00    -0.018 A 
ATOM     38  C   UNL     1     -10.327  -2.721 -30.434  1.00  0.00     0.054 A 
ATOM     39  C   UNL     1     -12.649  -2.055 -30.373  1.00  0.00     0.054 A 
ATOM     40  C   UNL     1     -10.037  -1.670 -31.308  1.00  0.00     0.123 A 
ATOM     41  C   UNL     1     -12.370  -1.004 -31.249  1.00  0.00     0.123 A 
ATOM     42  C   UNL     1     -11.062  -0.815 -31.710  1.00  0.00     0.092 A 
BRANCH  40  43
ATOM     43  O   UNL     1      -8.726  -1.593 -31.692  1.00  0.00    -0.497 OA
ATOM     44  C   UNL     1      -8.358  -2.302 -32.868  1.00  0.00     0.278 C 
ENDBRANCH  40  43
BRANCH  41  45
ATOM     45  O   UNL     1     -13.278  -0.103 -31.735  1.00  0.00    -0.497 OA
ATOM     46  C   UNL     1     -12.768   1.128 -32.232  1.00  0.00     0.278 C 
ENDBRANCH  41  45
ENDBRANCH  36  37
ENDBRANCH  33  35
ENDBRANCH  32  33
ENDBRANCH  22  23
ENDBRANCH  21  22
ENDBRANCH   1  21
TORSDOF 17
ENDMDL
MODEL 4
REMARK VINA RESULT:    -7.665      2.283      3.330
REMARK INTER + INTRA:         -16.949
REMARK INTER:                 -15.980
REMARK INTRA:                  -0.969
REMARK UNBOUND:                -1.667
REMARK SMILES CCOC(=O)[C@@H](Cc1ccc(OCCn2c(=O)sc3cc(C(=O)/C=C/c4cc(OC)cc(OC)c4)ccc32)cc1)OCC(F)(F)F
REMARK SMILES IDX 12 1 11 2 8 3 9 4 40 5 10 6 39 7 7 8 6 9 4 10 5 11 3 12 2 13
REMARK SMILES IDX 1 14 41 15 42 16 43 17 44 18 45 19 46 20 13 21 14 22 15 23
REMARK SMILES IDX 16 24 38 25 17 26 18 27 37 28 19 29 36 30 20 31 21 32 22 33
REMARK SMILES IDX 23 34 24 35 25 36 26 37 27 38 35 39 28 40 32 41 31 42 29 43
REMARK SMILES IDX 30 44 33 45 34 46
REMARK H PARENT
ROOT
ATOM      1  O   UNL     1      -7.135 -10.147 -26.059  1.00  0.00    -0.492 OA
ENDROOT
BRANCH   1   2
ATOM      2  C   UNL     1      -7.417  -9.526 -24.875  1.00  0.00     0.119 A 
ATOM      3  C   UNL     1      -7.841  -8.412 -22.331  1.00  0.00    -0.045 A 
ATOM      4  C   UNL     1      -6.984  -9.506 -22.491  1.00  0.00     0.007 A 
ATOM      5  C   UNL     1      -8.464  -7.867 -23.461  1.00  0.00     0.007 A 
ATOM      6  C   UNL     1      -6.771 -10.054 -23.757  1.00  0.00     0.047 A 
ATOM      7  C   UNL     1      -8.253  -8.420 -24.728  1.00  0.00     0.047 A 
BRANCH   3   8
ATOM      8  C   UNL     1      -8.062  -7.804 -20.963  1.00  0.00     0.079 C 
BRANCH   8   9
ATOM      9  C   UNL     1      -7.712  -6.308 -20.935  1.00  0.00     0.232 C 
BRANCH   9  10
ATOM     10  C   UNL     1      -6.191  -6.191 -20.730  1.00  0.00     0.335 C 
ATOM     11  O   UNL     1      -5.469  -7.135 -20.426  1.00  0.00    -0.249 OA
BRANCH  10  12
ATOM     12  O   UNL     1      -5.748  -4.920 -20.941  1.00  0.00    -0.464 OA
BRANCH  12  13
ATOM     13  C   UNL     1      -4.403  -4.681 -20.511  1.00  0.00     0.229 C 
ATOM     14  C   UNL     1      -4.340  -3.293 -19.904  1.00  0.00     0.049 C 
ENDBRANCH  12  13
ENDBRANCH  10  12
ENDBRANCH   9  10
BRANCH   9  15
ATOM     15  O   UNL     1      -8.498  -5.691 -19.905  1.00  0.00    -0.357 OA
BRANCH  15  16
ATOM     16  C   UNL     1      -8.672  -6.506 -18.736  1.00  0.00     0.276 C 
BRANCH  16  17
ATOM     17  C   UNL     1     -10.119  -6.633 -18.259  1.00  0.00     0.411 C 
ATOM     18  F   UNL     1     -10.160  -7.252 -17.054  1.00  0.00    -0.168 F 
ATOM     19  F   UNL     1     -10.870  -7.363 -19.112  1.00  0.00    -0.168 F 
ATOM     20  F   UNL     1     -10.705  -5.425 -18.105  1.00  0.00    -0.168 F 
ENDBRANCH  16  17
ENDBRANCH  15  16
ENDBRANCH   9  15
ENDBRANCH   8   9
ENDBRANCH   3   8
ENDBRANCH   1   2
BRANCH   1  21
ATOM     21  C   UNL     1      -8.043  -9.886 -27.135  1.00  0.00     0.251 C 
BRANCH  21  22
ATOM     22  C   UNL     1      -7.590  -8.614 -27.859  1.00  0.00     0.168 C 
BRANCH  22  23
ATOM     23  N   UNL     1      -8.643  -8.042 -28.683  1.00  0.00    -0.295 N 
ATOM     24  C   UNL     1      -8.434  -7.787 -30.032  1.00  0.00     0.308 A 
ATOM     25  C   UNL     1      -9.895  -7.622 -28.183  1.00  0.00     0.062 A 
ATOM     26  O   UNL     1      -7.423  -8.025 -30.675  1.00  0.00    -0.257 OA
ATOM     27  S   UNL     1      -9.874  -7.031 -30.733  1.00  0.00    -0.074 S 
ATOM     28  C   UNL     1     -10.351  -7.717 -26.876  1.00  0.00     0.028 A 
ATOM     29  C   UNL     1     -10.701  -7.048 -29.169  1.00  0.00     0.057 A 
ATOM     30  C   UNL     1     -11.630  -7.237 -26.574  1.00  0.00     0.014 A 
ATOM     31  C   UNL     1     -11.971  -6.562 -28.886  1.00  0.00     0.033 A 
ATOM     32  C   UNL     1     -12.447  -6.679 -27.576  1.00  0.00     0.023 A 
BRANCH  32  33
ATOM     33  C   UNL     1     -13.782  -6.169 -27.177  1.00  0.00     0.185 C 
ATOM     34  O   UNL     1     -14.530  -6.880 -26.512  1.00  0.00    -0.289 OA
BRANCH  33  35
ATOM     35  C   UNL     1     -14.236  -4.810 -27.571  1.00  0.00     0.053 C 
ATOM     36  C   UNL     1     -13.998  -3.688 -26.875  1.00  0.00     0.012 C 
BRANCH  36  37
ATOM     37  C   UNL     1     -14.431  -2.359 -27.330  1.00  0.00    -0.018 A 
ATOM     38  C   UNL     1     -14.724  -1.381 -26.372  1.00  0.00     0.054 A 
ATOM     39  C   UNL     1     -14.506  -2.028 -28.690  1.00  0.00     0.054 A 
ATOM     40  C   UNL     1     -15.114  -0.095 -26.756  1.00  0.00     0.123 A 
ATOM     41  C   UNL     1     -14.890  -0.746 -29.084  1.00  0.00     0.123 A 
ATOM     42  C   UNL     1     -15.196   0.215 -28.113  1.00  0.00     0.092 A 
BRANCH  40  43
ATOM     43  O   UNL     1     -15.380   0.754 -25.718  1.00  0.00    -0.497 OA
ATOM     44  C   UNL     1     -15.069   2.127 -25.915  1.00  0.00     0.278 C 
ENDBRANCH  40  43
BRANCH  41  45
ATOM     45  O   UNL     1     -14.997  -0.301 -30.374  1.00  0.00    -0.497 OA
ATOM     46  C   UNL     1     -13.800  -0.229 -31.138  1.00  0.00     0.278 C 
ENDBRANCH  41  45
ENDBRANCH  36  37
ENDBRANCH  33  35
ENDBRANCH  32  33
ENDBRANCH  22  23
ENDBRANCH  21  22
ENDBRANCH   1  21
TORSDOF 17
ENDMDL
MODEL 5
REMARK VINA RESULT:    -7.657      0.895      2.191
REMARK INTER + INTRA:         -16.933
REMARK INTER:                 -15.155
REMARK INTRA:                  -1.778
REMARK UNBOUND:                -1.667
REMARK SMILES CCOC(=O)[C@@H](Cc1ccc(OCCn2c(=O)sc3cc(C(=O)/C=C/c4cc(OC)cc(OC)c4)ccc32)cc1)OCC(F)(F)F
REMARK SMILES IDX 12 1 11 2 8 3 9 4 40 5 10 6 39 7 7 8 6 9 4 10 5 11 3 12 2 13
REMARK SMILES IDX 1 14 41 15 42 16 43 17 44 18 45 19 46 20 13 21 14 22 15 23
REMARK SMILES IDX 16 24 38 25 17 26 18 27 37 28 19 29 36 30 20 31 21 32 22 33
REMARK SMILES IDX 23 34 24 35 25 36 26 37 27 38 35 39 28 40 32 41 31 42 29 43
REMARK SMILES IDX 30 44 33 45 34 46
REMARK H PARENT
ROOT
ATOM      1  O   UNL     1      -7.490  -9.869 -26.899  1.00  0.00    -0.492 OA
ENDROOT
BRANCH   1   2
ATOM      2  C   UNL     1      -7.598  -9.485 -25.591  1.00  0.00     0.119 A 
ATOM      3  C   UNL     1      -7.974  -8.513 -22.983  1.00  0.00    -0.045 A 
ATOM      4  C   UNL     1      -8.607  -7.896 -24.067  1.00  0.00     0.007 A 
ATOM      5  C   UNL     1      -7.170  -9.636 -23.217  1.00  0.00     0.007 A 
ATOM      6  C   UNL     1      -8.423  -8.384 -25.361  1.00  0.00     0.047 A 
ATOM      7  C   UNL     1      -6.982 -10.121 -24.515  1.00  0.00     0.047 A 
BRANCH   3   8
ATOM      8  C   UNL     1      -8.185  -7.998 -21.577  1.00  0.00     0.079 C 
BRANCH   8   9
ATOM      9  C   UNL     1      -7.708  -6.545 -21.418  1.00  0.00     0.232 C 
BRANCH   9  10
ATOM     10  C   UNL     1      -6.230  -6.587 -20.989  1.00  0.00     0.335 C 
ATOM     11  O   UNL     1      -5.634  -7.618 -20.696  1.00  0.00    -0.249 OA
BRANCH  10  12
ATOM     12  O   UNL     1      -5.668  -5.346 -20.990  1.00  0.00    -0.464 OA
BRANCH  12  13
ATOM     13  C   UNL     1      -4.900  -5.042 -19.819  1.00  0.00     0.229 C 
ATOM     14  C   UNL     1      -3.529  -4.572 -20.262  1.00  0.00     0.049 C 
ENDBRANCH  12  13
ENDBRANCH  10  12
ENDBRANCH   9  10
BRANCH   9  15
ATOM     15  O   UNL     1      -8.578  -5.894 -20.482  1.00  0.00    -0.357 OA
BRANCH  15  16
ATOM     16  C   UNL     1      -8.566  -6.478 -19.170  1.00  0.00     0.276 C 
BRANCH  16  17
ATOM     17  C   UNL     1      -9.927  -6.510 -18.475  1.00  0.00     0.411 C 
ATOM     18  F   UNL     1     -10.738  -7.412 -19.080  1.00  0.00    -0.168 F 
ATOM     19  F   UNL     1     -10.548  -5.312 -18.525  1.00  0.00    -0.168 F 
ATOM     20  F   UNL     1      -9.821  -6.879 -17.179  1.00  0.00    -0.168 F 
ENDBRANCH  16  17
ENDBRANCH  15  16
ENDBRANCH   9  15
ENDBRANCH   8   9
ENDBRANCH   3   8
ENDBRANCH   1   2
BRANCH   1  21
ATOM     21  C   UNL     1      -7.627  -8.827 -27.872  1.00  0.00     0.251 C 
BRANCH  21  22
ATOM     22  C   UNL     1      -8.436  -9.368 -29.056  1.00  0.00     0.168 C 
BRANCH  22  23
ATOM     23  N   UNL     1      -8.837  -8.316 -29.977  1.00  0.00    -0.295 N 
ATOM     24  C   UNL     1      -8.060  -8.002 -31.084  1.00  0.00     0.308 A 
ATOM     25  C   UNL     1      -9.962  -7.485 -29.782  1.00  0.00     0.062 A 
ATOM     26  O   UNL     1      -7.027  -8.550 -31.434  1.00  0.00    -0.257 OA
ATOM     27  S   UNL     1      -8.779  -6.640 -31.958  1.00  0.00    -0.074 S 
ATOM     28  C   UNL     1     -10.882  -7.548 -28.744  1.00  0.00     0.028 A 
ATOM     29  C   UNL     1     -10.090  -6.512 -30.776  1.00  0.00     0.057 A 
ATOM     30  C   UNL     1     -11.935  -6.628 -28.723  1.00  0.00     0.014 A 
ATOM     31  C   UNL     1     -11.126  -5.588 -30.768  1.00  0.00     0.033 A 
ATOM     32  C   UNL     1     -12.071  -5.663 -29.740  1.00  0.00     0.023 A 
BRANCH  32  33
ATOM     33  C   UNL     1     -13.199  -4.704 -29.638  1.00  0.00     0.185 C 
ATOM     34  O   UNL     1     -14.151  -4.961 -28.907  1.00  0.00    -0.289 OA
BRANCH  33  35
ATOM     35  C   UNL     1     -13.202  -3.435 -30.411  1.00  0.00     0.053 C 
ATOM     36  C   UNL     1     -12.432  -2.369 -30.143  1.00  0.00     0.012 C 
BRANCH  36  37
ATOM     37  C   UNL     1     -12.440  -1.151 -30.964  1.00  0.00    -0.018 A 
ATOM     38  C   UNL     1     -11.285  -0.811 -31.678  1.00  0.00     0.054 A 
ATOM     39  C   UNL     1     -13.584  -0.352 -31.094  1.00  0.00     0.054 A 
ATOM     40  C   UNL     1     -11.253   0.323 -32.494  1.00  0.00     0.123 A 
ATOM     41  C   UNL     1     -13.564   0.781 -31.910  1.00  0.00     0.123 A 
ATOM     42  C   UNL     1     -12.395   1.115 -32.603  1.00  0.00     0.092 A 
BRANCH  40  43
ATOM     43  O   UNL     1     -10.058   0.540 -33.123  1.00  0.00    -0.497 OA
ATOM     44  C   UNL     1      -8.889   0.084 -32.456  1.00  0.00     0.278 C 
ENDBRANCH  40  43
BRANCH  41  45
ATOM     45  O   UNL     1     -14.612   1.636 -32.121  1.00  0.00    -0.497 OA
ATOM     46  C   UNL     1     -14.451   2.980 -31.687  1.00  0.00     0.278 C 
ENDBRANCH  41  45
ENDBRANCH  36  37
ENDBRANCH  33  35
ENDBRANCH  32  33
ENDBRANCH  22  23
ENDBRANCH  21  22
ENDBRANCH   1  21
TORSDOF 17
ENDMDL
MODEL 6
REMARK VINA RESULT:    -7.547      4.527     12.184
REMARK INTER + INTRA:         -16.713
REMARK INTER:                 -15.562
REMARK INTRA:                  -1.151
REMARK UNBOUND:                -1.667
REMARK SMILES CCOC(=O)[C@@H](Cc1ccc(OCCn2c(=O)sc3cc(C(=O)/C=C/c4cc(OC)cc(OC)c4)ccc32)cc1)OCC(F)(F)F
REMARK SMILES IDX 12 1 11 2 8 3 9 4 40 5 10 6 39 7 7 8 6 9 4 10 5 11 3 12 2 13
REMARK SMILES IDX 1 14 41 15 42 16 43 17 44 18 45 19 46 20 13 21 14 22 15 23
REMARK SMILES IDX 16 24 38 25 17 26 18 27 37 28 19 29 36 30 20 31 21 32 22 33
REMARK SMILES IDX 23 34 24 35 25 36 26 37 27 38 35 39 28 40 32 41 31 42 29 43
REMARK SMILES IDX 30 44 33 45 34 46
REMARK H PARENT
ROOT
ATOM      1  O   UNL     1     -11.002  -8.756 -26.384  1.00  0.00    -0.492 OA
ENDROOT
BRANCH   1   2
ATOM      2  C   UNL     1     -10.876  -8.159 -27.607  1.00  0.00     0.119 A 
ATOM      3  C   UNL     1     -10.569  -7.161 -30.215  1.00  0.00    -0.045 A 
ATOM      4  C   UNL     1     -10.402  -8.525 -29.955  1.00  0.00     0.007 A 
ATOM      5  C   UNL     1     -10.913  -6.306 -29.160  1.00  0.00     0.007 A 
ATOM      6  C   UNL     1     -10.561  -9.020 -28.659  1.00  0.00     0.047 A 
ATOM      7  C   UNL     1     -11.068  -6.802 -27.861  1.00  0.00     0.047 A 
BRANCH   3   8
ATOM      8  C   UNL     1     -10.415  -6.624 -31.620  1.00  0.00     0.079 C 
BRANCH   8   9
ATOM      9  C   UNL     1      -9.200  -5.691 -31.751  1.00  0.00     0.232 C 
BRANCH   9  10
ATOM     10  C   UNL     1      -9.720  -4.315 -32.206  1.00  0.00     0.335 C 
ATOM     11  O   UNL     1      -9.776  -3.960 -33.378  1.00  0.00    -0.249 OA
BRANCH  10  12
ATOM     12  O   UNL     1     -10.121  -3.551 -31.151  1.00  0.00    -0.464 OA
BRANCH  12  13
ATOM     13  C   UNL     1      -9.565  -2.231 -31.129  1.00  0.00     0.229 C 
ATOM     14  C   UNL     1     -10.683  -1.244 -31.399  1.00  0.00     0.049 C 
ENDBRANCH  12  13
ENDBRANCH  10  12
ENDBRANCH   9  10
BRANCH   9  15
ATOM     15  O   UNL     1      -8.269  -6.301 -32.655  1.00  0.00    -0.357 OA
BRANCH  15  16
ATOM     16  C   UNL     1      -8.429  -7.722 -32.786  1.00  0.00     0.276 C 
BRANCH  16  17
ATOM     17  C   UNL     1      -7.365  -8.551 -32.066  1.00  0.00     0.411 C 
ATOM     18  F   UNL     1      -6.269  -8.686 -32.851  1.00  0.00    -0.168 F 
ATOM     19  F   UNL     1      -7.806  -9.794 -31.773  1.00  0.00    -0.168 F 
ATOM     20  F   UNL     1      -6.961  -7.962 -30.919  1.00  0.00    -0.168 F 
ENDBRANCH  16  17
ENDBRANCH  15  16
ENDBRANCH   9  15
ENDBRANCH   8   9
ENDBRANCH   3   8
ENDBRANCH   1   2
BRANCH   1  21
ATOM     21  C   UNL     1     -10.075  -8.327 -25.379  1.00  0.00     0.251 C 
BRANCH  21  22
ATOM     22  C   UNL     1      -8.661  -8.723 -25.819  1.00  0.00     0.168 C 
BRANCH  22  23
ATOM     23  N   UNL     1      -7.811  -9.077 -24.692  1.00  0.00    -0.295 N 
ATOM     24  C   UNL     1      -7.053 -10.240 -24.709  1.00  0.00     0.308 A 
ATOM     25  C   UNL     1      -7.756  -8.345 -23.487  1.00  0.00     0.062 A 
ATOM     26  O   UNL     1      -6.971 -11.049 -25.619  1.00  0.00    -0.257 OA
ATOM     27  S   UNL     1      -6.189 -10.418 -23.173  1.00  0.00    -0.074 S 
ATOM     28  C   UNL     1      -8.438  -7.175 -23.183  1.00  0.00     0.028 A 
ATOM     29  C   UNL     1      -6.912  -8.931 -22.541  1.00  0.00     0.057 A 
ATOM     30  C   UNL     1      -8.254  -6.597 -21.923  1.00  0.00     0.014 A 
ATOM     31  C   UNL     1      -6.721  -8.374 -21.283  1.00  0.00     0.033 A 
ATOM     32  C   UNL     1      -7.385  -7.180 -20.981  1.00  0.00     0.023 A 
BRANCH  32  33
ATOM     33  C   UNL     1      -7.259  -6.525 -19.656  1.00  0.00     0.185 C 
ATOM     34  O   UNL     1      -6.207  -5.970 -19.351  1.00  0.00    -0.289 OA
BRANCH  33  35
ATOM     35  C   UNL     1      -8.382  -6.532 -18.683  1.00  0.00     0.053 C 
ATOM     36  C   UNL     1      -9.564  -7.136 -18.878  1.00  0.00     0.012 C 
BRANCH  36  37
ATOM     37  C   UNL     1     -10.630  -7.151 -17.867  1.00  0.00    -0.018 A 
ATOM     38  C   UNL     1     -10.783  -6.039 -17.031  1.00  0.00     0.054 A 
ATOM     39  C   UNL     1     -11.528  -8.222 -17.752  1.00  0.00     0.054 A 
ATOM     40  C   UNL     1     -11.799  -5.996 -16.072  1.00  0.00     0.123 A 
ATOM     41  C   UNL     1     -12.549  -8.187 -16.801  1.00  0.00     0.123 A 
ATOM     42  C   UNL     1     -12.676  -7.073 -15.961  1.00  0.00     0.092 A 
BRANCH  40  43
ATOM     43  O   UNL     1     -11.824  -4.855 -15.318  1.00  0.00    -0.497 OA
ATOM     44  C   UNL     1     -13.099  -4.397 -14.889  1.00  0.00     0.278 C 
ENDBRANCH  40  43
BRANCH  41  45
ATOM     45  O   UNL     1     -13.485  -9.163 -16.594  1.00  0.00    -0.497 OA
ATOM     46  C   UNL     1     -14.851  -8.790 -16.727  1.00  0.00     0.278 C 
ENDBRANCH  41  45
ENDBRANCH  36  37
ENDBRANCH  33  35
ENDBRANCH  32  33
ENDBRANCH  22  23
ENDBRANCH  21  22
ENDBRANCH   1  21
TORSDOF 17
ENDMDL
MODEL 7
REMARK VINA RESULT:    -7.537      3.146      4.508
REMARK INTER + INTRA:         -16.695
REMARK INTER:                 -15.943
REMARK INTRA:                  -0.752
REMARK UNBOUND:                -1.667
REMARK SMILES CCOC(=O)[C@@H](Cc1ccc(OCCn2c(=O)sc3cc(C(=O)/C=C/c4cc(OC)cc(OC)c4)ccc32)cc1)OCC(F)(F)F
REMARK SMILES IDX 12 1 11 2 8 3 9 4 40 5 10 6 39 7 7 8 6 9 4 10 5 11 3 12 2 13
REMARK SMILES IDX 1 14 41 15 42 16 43 17 44 18 45 19 46 20 13 21 14 22 15 23
REMARK SMILES IDX 16 24 38 25 17 26 18 27 37 28 19 29 36 30 20 31 21 32 22 33
REMARK SMILES IDX 23 34 24 35 25 36 26 37 27 38 35 39 28 40 32 41 31 42 29 43
REMARK SMILES IDX 30 44 33 45 34 46
REMARK H PARENT
ROOT
ATOM      1  O   UNL     1      -9.451  -8.662 -21.704  1.00  0.00    -0.492 OA
ENDROOT
BRANCH   1   2
ATOM      2  C   UNL     1      -8.520  -7.776 -21.239  1.00  0.00     0.119 A 
ATOM      3  C   UNL     1      -6.788  -5.854 -20.144  1.00  0.00    -0.045 A 
ATOM      4  C   UNL     1      -8.138  -5.880 -19.780  1.00  0.00     0.007 A 
ATOM      5  C   UNL     1      -6.310  -6.815 -21.044  1.00  0.00     0.007 A 
ATOM      6  C   UNL     1      -8.995  -6.840 -20.321  1.00  0.00     0.047 A 
ATOM      7  C   UNL     1      -7.171  -7.773 -21.589  1.00  0.00     0.047 A 
BRANCH   3   8
ATOM      8  C   UNL     1      -5.852  -4.827 -19.547  1.00  0.00     0.079 C 
BRANCH   8   9
ATOM      9  C   UNL     1      -4.958  -4.174 -20.612  1.00  0.00     0.232 C 
BRANCH   9  10
ATOM     10  C   UNL     1      -3.512  -4.627 -20.344  1.00  0.00     0.335 C 
ATOM     11  O   UNL     1      -2.642  -3.896 -19.881  1.00  0.00    -0.249 OA
BRANCH  10  12
ATOM     12  O   UNL     1      -3.323  -5.936 -20.671  1.00  0.00    -0.464 OA
BRANCH  12  13
ATOM     13  C   UNL     1      -2.590  -6.691 -19.699  1.00  0.00     0.229 C 
ATOM     14  C   UNL     1      -3.575  -7.546 -18.926  1.00  0.00     0.049 C 
ENDBRANCH  12  13
ENDBRANCH  10  12
ENDBRANCH   9  10
BRANCH   9  15
ATOM     15  O   UNL     1      -5.157  -2.755 -20.546  1.00  0.00    -0.357 OA
BRANCH  15  16
ATOM     16  C   UNL     1      -4.704  -2.047 -21.711  1.00  0.00     0.276 C 
BRANCH  16  17
ATOM     17  C   UNL     1      -3.841  -0.820 -21.414  1.00  0.00     0.411 C 
ATOM     18  F   UNL     1      -4.380  -0.107 -20.395  1.00  0.00    -0.168 F 
ATOM     19  F   UNL     1      -3.753   0.005 -22.480  1.00  0.00    -0.168 F 
ATOM     20  F   UNL     1      -2.590  -1.165 -21.039  1.00  0.00    -0.168 F 
ENDBRANCH  16  17
ENDBRANCH  15  16
ENDBRANCH   9  15
ENDBRANCH   8   9
ENDBRANCH   3   8
ENDBRANCH   1   2
BRANCH   1  21
ATOM     21  C   UNL     1      -9.148  -9.291 -22.954  1.00  0.00     0.251 C 
BRANCH  21  22
ATOM     22  C   UNL     1      -8.511  -8.252 -23.882  1.00  0.00     0.168 C 
BRANCH  22  23
ATOM     23  N   UNL     1      -8.825  -8.494 -25.282  1.00  0.00    -0.295 N 
ATOM     24  C   UNL     1      -7.998  -9.281 -26.072  1.00  0.00     0.308 A 
ATOM     25  C   UNL     1      -9.907  -7.894 -25.962  1.00  0.00     0.062 A 
ATOM     26  O   UNL     1      -6.987  -9.867 -25.719  1.00  0.00    -0.257 OA
ATOM     27  S   UNL     1      -8.613  -9.322 -27.733  1.00  0.00    -0.074 S 
ATOM     28  C   UNL     1     -10.860  -7.036 -25.430  1.00  0.00     0.028 A 
ATOM     29  C   UNL     1      -9.950  -8.241 -27.314  1.00  0.00     0.057 A 
ATOM     30  C   UNL     1     -11.861  -6.539 -26.272  1.00  0.00     0.014 A 
ATOM     31  C   UNL     1     -10.933  -7.753 -28.165  1.00  0.00     0.033 A 
ATOM     32  C   UNL     1     -11.912  -6.909 -27.630  1.00  0.00     0.023 A 
BRANCH  32  33
ATOM     33  C   UNL     1     -12.987  -6.323 -28.468  1.00  0.00     0.185 C 
ATOM     34  O   UNL     1     -14.084  -6.872 -28.520  1.00  0.00    -0.289 OA
BRANCH  33  35
ATOM     35  C   UNL     1     -12.761  -5.082 -29.254  1.00  0.00     0.053 C 
ATOM     36  C   UNL     1     -11.651  -4.331 -29.201  1.00  0.00     0.012 C 
BRANCH  36  37
ATOM     37  C   UNL     1     -11.456  -3.134 -30.032  1.00  0.00    -0.018 A 
ATOM     38  C   UNL     1     -12.563  -2.331 -30.328  1.00  0.00     0.054 A 
ATOM     39  C   UNL     1     -10.188  -2.747 -30.488  1.00  0.00     0.054 A 
ATOM     40  C   UNL     1     -12.423  -1.169 -31.091  1.00  0.00     0.123 A 
ATOM     41  C   UNL     1     -10.036  -1.585 -31.248  1.00  0.00     0.123 A 
ATOM     42  C   UNL     1     -11.158  -0.803 -31.549  1.00  0.00     0.092 A 
BRANCH  40  43
ATOM     43  O   UNL     1     -13.588  -0.488 -31.313  1.00  0.00    -0.497 OA
ATOM     44  C   UNL     1     -14.568  -0.539 -30.284  1.00  0.00     0.278 C 
ENDBRANCH  40  43
BRANCH  41  45
ATOM     45  O   UNL     1      -8.858  -1.102 -31.747  1.00  0.00    -0.497 OA
ATOM     46  C   UNL     1      -8.936  -0.239 -32.874  1.00  0.00     0.278 C 
ENDBRANCH  41  45
ENDBRANCH  36  37
ENDBRANCH  33  35
ENDBRANCH  32  33
ENDBRANCH  22  23
ENDBRANCH  21  22
ENDBRANCH   1  21
TORSDOF 17
ENDMDL
MODEL 8
REMARK VINA RESULT:    -7.520      3.798      5.555
REMARK INTER + INTRA:         -16.660
REMARK INTER:                 -15.166
REMARK INTRA:                  -1.494
REMARK UNBOUND:                -1.667
REMARK SMILES CCOC(=O)[C@@H](Cc1ccc(OCCn2c(=O)sc3cc(C(=O)/C=C/c4cc(OC)cc(OC)c4)ccc32)cc1)OCC(F)(F)F
REMARK SMILES IDX 12 1 11 2 8 3 9 4 40 5 10 6 39 7 7 8 6 9 4 10 5 11 3 12 2 13
REMARK SMILES IDX 1 14 41 15 42 16 43 17 44 18 45 19 46 20 13 21 14 22 15 23
REMARK SMILES IDX 16 24 38 25 17 26 18 27 37 28 19 29 36 30 20 31 21 32 22 33
REMARK SMILES IDX 23 34 24 35 25 36 26 37 27 38 35 39 28 40 32 41 31 42 29 43
REMARK SMILES IDX 30 44 33 45 34 46
REMARK H PARENT
ROOT
ATOM      1  O   UNL     1      -7.314  -9.293 -21.855  1.00  0.00    -0.492 OA
ENDROOT
BRANCH   1   2
ATOM      2  C   UNL     1      -6.987  -8.021 -21.474  1.00  0.00     0.119 A 
ATOM      3  C   UNL     1      -6.547  -5.340 -20.760  1.00  0.00    -0.045 A 
ATOM      4  C   UNL     1      -7.778  -5.738 -21.292  1.00  0.00     0.007 A 
ATOM      5  C   UNL     1      -5.547  -6.303 -20.569  1.00  0.00     0.007 A 
ATOM      6  C   UNL     1      -7.996  -7.072 -21.640  1.00  0.00     0.047 A 
ATOM      7  C   UNL     1      -5.765  -7.638 -20.923  1.00  0.00     0.047 A 
BRANCH   3   8
ATOM      8  C   UNL     1      -6.312  -3.899 -20.365  1.00  0.00     0.079 C 
BRANCH   8   9
ATOM      9  C   UNL     1      -4.963  -3.373 -20.879  1.00  0.00     0.232 C 
BRANCH   9  10
ATOM     10  C   UNL     1      -4.064  -3.129 -19.654  1.00  0.00     0.335 C 
ATOM     11  O   UNL     1      -4.407  -2.474 -18.676  1.00  0.00    -0.249 OA
BRANCH  10  12
ATOM     12  O   UNL     1      -2.852  -3.739 -19.785  1.00  0.00    -0.464 OA
BRANCH  12  13
ATOM     13  C   UNL     1      -2.894  -5.002 -20.460  1.00  0.00     0.229 C 
ATOM     14  C   UNL     1      -2.322  -6.054 -19.531  1.00  0.00     0.049 C 
ENDBRANCH  12  13
ENDBRANCH  10  12
ENDBRANCH   9  10
BRANCH   9  15
ATOM     15  O   UNL     1      -5.216  -2.204 -21.670  1.00  0.00    -0.357 OA
BRANCH  15  16
ATOM     16  C   UNL     1      -4.073  -1.734 -22.401  1.00  0.00     0.276 C 
BRANCH  16  17
ATOM     17  C   UNL     1      -3.413  -0.486 -21.815  1.00  0.00     0.411 C 
ATOM     18  F   UNL     1      -2.198  -0.798 -21.302  1.00  0.00    -0.168 F 
ATOM     19  F   UNL     1      -4.145   0.052 -20.815  1.00  0.00    -0.168 F 
ATOM     20  F   UNL     1      -3.214   0.465 -22.754  1.00  0.00    -0.168 F 
ENDBRANCH  16  17
ENDBRANCH  15  16
ENDBRANCH   9  15
ENDBRANCH   8   9
ENDBRANCH   3   8
ENDBRANCH   1   2
BRANCH   1  21
ATOM     21  C   UNL     1      -6.456  -9.895 -22.831  1.00  0.00     0.251 C 
BRANCH  21  22
ATOM     22  C   UNL     1      -7.325 -10.631 -23.856  1.00  0.00     0.168 C 
BRANCH  22  23
ATOM     23  N   UNL     1      -7.703  -9.778 -24.973  1.00  0.00    -0.295 N 
ATOM     24  C   UNL     1      -6.818  -9.533 -26.015  1.00  0.00     0.308 A 
ATOM     25  C   UNL     1      -8.923  -9.071 -25.047  1.00  0.00     0.062 A 
ATOM     26  O   UNL     1      -5.696  -9.996 -26.148  1.00  0.00    -0.257 OA
ATOM     27  S   UNL     1      -7.547  -8.408 -27.173  1.00  0.00    -0.074 S 
ATOM     28  C   UNL     1      -9.964  -9.096 -24.131  1.00  0.00     0.028 A 
ATOM     29  C   UNL     1      -9.013  -8.274 -26.190  1.00  0.00     0.057 A 
ATOM     30  C   UNL     1     -11.099  -8.318 -24.381  1.00  0.00     0.014 A 
ATOM     31  C   UNL     1     -10.129  -7.490 -26.452  1.00  0.00     0.033 A 
ATOM     32  C   UNL     1     -11.193  -7.532 -25.545  1.00  0.00     0.023 A 
BRANCH  32  33
ATOM     33  C   UNL     1     -12.416  -6.713 -25.732  1.00  0.00     0.185 C 
ATOM     34  O   UNL     1     -13.462  -7.050 -25.184  1.00  0.00    -0.289 OA
BRANCH  33  35
ATOM     35  C   UNL     1     -12.403  -5.491 -26.577  1.00  0.00     0.053 C 
ATOM     36  C   UNL     1     -12.466  -5.483 -27.917  1.00  0.00     0.012 C 
BRANCH  36  37
ATOM     37  C   UNL     1     -12.494  -4.244 -28.708  1.00  0.00    -0.018 A 
ATOM     38  C   UNL     1     -11.456  -3.999 -29.614  1.00  0.00     0.054 A 
ATOM     39  C   UNL     1     -13.555  -3.332 -28.619  1.00  0.00     0.054 A 
ATOM     40  C   UNL     1     -11.454  -2.848 -30.408  1.00  0.00     0.123 A 
ATOM     41  C   UNL     1     -13.564  -2.182 -29.410  1.00  0.00     0.123 A 
ATOM     42  C   UNL     1     -12.509  -1.944 -30.300  1.00  0.00     0.092 A 
BRANCH  40  43
ATOM     43  O   UNL     1     -10.374  -2.731 -31.240  1.00  0.00    -0.497 OA
ATOM     44  C   UNL     1      -9.603  -3.905 -31.461  1.00  0.00     0.278 C 
ENDBRANCH  40  43
BRANCH  41  45
ATOM     45  O   UNL     1     -14.539  -1.222 -29.418  1.00  0.00    -0.497 OA
ATOM     46  C   UNL     1     -15.179  -0.937 -28.181  1.00  0.00     0.278 C 
ENDBRANCH  41  45
ENDBRANCH  36  37
ENDBRANCH  33  35
ENDBRANCH  32  33
ENDBRANCH  22  23
ENDBRANCH  21  22
ENDBRANCH   1  21
TORSDOF 17
ENDMDL
MODEL 9
REMARK VINA RESULT:    -7.425      2.335      4.125
REMARK INTER + INTRA:         -16.471
REMARK INTER:                 -14.395
REMARK INTRA:                  -2.075
REMARK UNBOUND:                -1.667
REMARK SMILES CCOC(=O)[C@@H](Cc1ccc(OCCn2c(=O)sc3cc(C(=O)/C=C/c4cc(OC)cc(OC)c4)ccc32)cc1)OCC(F)(F)F
REMARK SMILES IDX 12 1 11 2 8 3 9 4 40 5 10 6 39 7 7 8 6 9 4 10 5 11 3 12 2 13
REMARK SMILES IDX 1 14 41 15 42 16 43 17 44 18 45 19 46 20 13 21 14 22 15 23
REMARK SMILES IDX 16 24 38 25 17 26 18 27 37 28 19 29 36 30 20 31 21 32 22 33
REMARK SMILES IDX 23 34 24 35 25 36 26 37 27 38 35 39 28 40 32 41 31 42 29 43
REMARK SMILES IDX 30 44 33 45 34 46
REMARK H PARENT
ROOT
ATOM      1  O   UNL     1     -10.099  -8.081 -28.527  1.00  0.00    -0.492 OA
ENDROOT
BRANCH   1   2
ATOM      2  C   UNL     1      -9.954  -8.069 -27.167  1.00  0.00     0.119 A 
ATOM      3  C   UNL     1      -9.407  -8.036 -24.412  1.00  0.00    -0.045 A 
ATOM      4  C   UNL     1      -8.362  -8.020 -25.342  1.00  0.00     0.007 A 
ATOM      5  C   UNL     1     -10.728  -8.046 -24.877  1.00  0.00     0.007 A 
ATOM      6  C   UNL     1      -8.636  -8.030 -26.710  1.00  0.00     0.047 A 
ATOM      7  C   UNL     1     -11.002  -8.061 -26.249  1.00  0.00     0.047 A 
BRANCH   3   8
ATOM      8  C   UNL     1      -9.114  -8.008 -22.929  1.00  0.00     0.079 C 
BRANCH   8   9
ATOM      9  C   UNL     1      -7.733  -8.596 -22.603  1.00  0.00     0.232 C 
BRANCH   9  10
ATOM     10  C   UNL     1      -7.915 -10.107 -22.374  1.00  0.00     0.335 C 
ATOM     11  O   UNL     1      -8.970 -10.621 -22.018  1.00  0.00    -0.249 OA
BRANCH  10  12
ATOM     12  O   UNL     1      -6.769 -10.800 -22.626  1.00  0.00    -0.464 OA
BRANCH  12  13
ATOM     13  C   UNL     1      -5.986 -10.278 -23.707  1.00  0.00     0.229 C 
ATOM     14  C   UNL     1      -6.264 -11.117 -24.939  1.00  0.00     0.049 C 
ENDBRANCH  12  13
ENDBRANCH  10  12
ENDBRANCH   9  10
BRANCH   9  15
ATOM     15  O   UNL     1      -7.205  -7.885 -21.474  1.00  0.00    -0.357 OA
BRANCH  15  16
ATOM     16  C   UNL     1      -7.603  -6.507 -21.415  1.00  0.00     0.276 C 
BRANCH  16  17
ATOM     17  C   UNL     1      -8.028  -6.027 -20.027  1.00  0.00     0.411 C 
ATOM     18  F   UNL     1      -8.486  -4.753 -20.094  1.00  0.00    -0.168 F 
ATOM     19  F   UNL     1      -6.999  -6.039 -19.151  1.00  0.00    -0.168 F 
ATOM     20  F   UNL     1      -9.027  -6.781 -19.519  1.00  0.00    -0.168 F 
ENDBRANCH  16  17
ENDBRANCH  15  16
ENDBRANCH   9  15
ENDBRANCH   8   9
ENDBRANCH   3   8
ENDBRANCH   1   2
BRANCH   1  21
ATOM     21  C   UNL     1     -11.102  -8.964 -29.042  1.00  0.00     0.251 C 
BRANCH  21  22
ATOM     22  C   UNL     1     -11.904  -8.219 -30.115  1.00  0.00     0.168 C 
BRANCH  22  23
ATOM     23  N   UNL     1     -11.823  -6.774 -29.961  1.00  0.00    -0.295 N 
ATOM     24  C   UNL     1     -12.702  -6.096 -29.126  1.00  0.00     0.308 A 
ATOM     25  C   UNL     1     -10.940  -5.952 -30.693  1.00  0.00     0.062 A 
ATOM     26  O   UNL     1     -13.575  -6.586 -28.427  1.00  0.00    -0.257 OA
ATOM     27  S   UNL     1     -12.392  -4.354 -29.212  1.00  0.00    -0.074 S 
ATOM     28  C   UNL     1      -9.991  -6.357 -31.621  1.00  0.00     0.028 A 
ATOM     29  C   UNL     1     -11.107  -4.595 -30.406  1.00  0.00     0.057 A 
ATOM     30  C   UNL     1      -9.207  -5.383 -32.249  1.00  0.00     0.014 A 
ATOM     31  C   UNL     1     -10.342  -3.615 -31.024  1.00  0.00     0.033 A 
ATOM     32  C   UNL     1      -9.365  -4.019 -31.940  1.00  0.00     0.023 A 
BRANCH  32  33
ATOM     33  C   UNL     1      -8.516  -3.041 -32.665  1.00  0.00     0.185 C 
ATOM     34  O   UNL     1      -7.389  -3.368 -33.027  1.00  0.00    -0.289 OA
BRANCH  33  35
ATOM     35  C   UNL     1      -9.001  -1.668 -32.957  1.00  0.00     0.053 C 
ATOM     36  C   UNL     1      -8.669  -0.571 -32.258  1.00  0.00     0.012 C 
BRANCH  36  37
ATOM     37  C   UNL     1      -9.140   0.775 -32.613  1.00  0.00    -0.018 A 
ATOM     38  C   UNL     1     -10.507   0.973 -32.837  1.00  0.00     0.054 A 
ATOM     39  C   UNL     1      -8.270   1.872 -32.680  1.00  0.00     0.054 A 
ATOM     40  C   UNL     1     -11.007   2.241 -33.151  1.00  0.00     0.123 A 
ATOM     41  C   UNL     1      -8.759   3.143 -32.988  1.00  0.00     0.123 A 
ATOM     42  C   UNL     1     -10.128   3.320 -33.226  1.00  0.00     0.092 A 
BRANCH  40  43
ATOM     43  O   UNL     1     -12.358   2.287 -33.355  1.00  0.00    -0.497 OA
ATOM     44  C   UNL     1     -13.179   1.682 -32.364  1.00  0.00     0.278 C 
ENDBRANCH  40  43
BRANCH  41  45
ATOM     45  O   UNL     1      -8.015   4.287 -33.080  1.00  0.00    -0.497 OA
ATOM     46  C   UNL     1      -6.751   4.295 -32.429  1.00  0.00     0.278 C 
ENDBRANCH  41  45
ENDBRANCH  36  37
ENDBRANCH  33  35
ENDBRANCH  32  33
ENDBRANCH  22  23
ENDBRANCH  21  22
ENDBRANCH   1  21
TORSDOF 17
ENDMDL
