MODEL 1
REMARK VINA RESULT:    -9.684      0.000      0.000
REMARK INTER + INTRA:         -14.513
REMARK INTER:                 -13.646
REMARK INTRA:                  -0.867
REMARK UNBOUND:                -0.867
REMARK SMILES CCC(CC)n1cc(-c2nc(-c3cnn(CC4CCS(=O)(=O)CC4)c3)cn3nccc23)cn1
REMARK SMILES IDX 9 1 10 2 11 3 26 4 27 5 28 6 29 7 30 8 31 9 8 10 6 11 7 12
REMARK SMILES IDX 33 13 32 14 3 15 2 16 1 17 4 18 5 19 12 20 13 21 25 22 14 23
REMARK SMILES IDX 15 24 16 25 17 26 18 27 24 28 19 29 23 30 20 31 21 32 22 33
REMARK H PARENT
ROOT
ATOM      1  C   UNL     1      -3.957  24.956 -30.492  1.00  0.00     0.100 A 
ATOM      2  N   UNL     1      -4.047  26.256 -30.449  1.00  0.00    -0.244 NA
ATOM      3  C   UNL     1      -4.883  26.903 -31.346  1.00  0.00     0.092 A 
ATOM      4  C   UNL     1      -5.600  26.232 -32.264  1.00  0.00     0.142 A 
ATOM      5  N   UNL     1      -5.501  24.855 -32.332  1.00  0.00    -0.237 N 
ATOM      6  N   UNL     1      -6.126  24.017 -33.193  1.00  0.00    -0.176 NA
ATOM      7  C   UNL     1      -5.650  22.811 -32.888  1.00  0.00     0.136 A 
ATOM      8  C   UNL     1      -4.733  22.845 -31.825  1.00  0.00     0.052 A 
ATOM      9  C   UNL     1      -4.673  24.173 -31.463  1.00  0.00     0.093 A 
ENDROOT
BRANCH   1  10
ATOM     10  C   UNL     1      -3.083  24.331 -29.519  1.00  0.00     0.040 A 
ATOM     11  N   UNL     1      -1.898  23.776 -27.739  1.00  0.00    -0.269 N 
ATOM     12  C   UNL     1      -2.810  24.682 -28.211  1.00  0.00     0.119 A 
ATOM     13  N   UNL     1      -1.551  22.855 -28.653  1.00  0.00    -0.181 NA
ATOM     14  C   UNL     1      -2.248  23.206 -29.734  1.00  0.00     0.145 A 
BRANCH  11  15
ATOM     15  C   UNL     1      -1.323  23.738 -26.393  1.00  0.00     0.107 C 
BRANCH  15  16
ATOM     16  C   UNL     1      -1.522  25.104 -25.710  1.00  0.00     0.024 C 
ATOM     17  C   UNL     1      -2.220  25.014 -24.360  1.00  0.00     0.006 C 
ENDBRANCH  15  16
BRANCH  15  18
ATOM     18  C   UNL     1      -1.874  22.564 -25.557  1.00  0.00     0.024 C 
ATOM     19  C   UNL     1      -0.776  21.697 -24.950  1.00  0.00     0.006 C 
ENDBRANCH  15  18
ENDBRANCH  11  15
ENDBRANCH   1  10
BRANCH   3  20
ATOM     20  C   UNL     1      -4.911  28.329 -31.202  1.00  0.00     0.040 A 
ATOM     21  C   UNL     1      -5.616  29.300 -31.948  1.00  0.00     0.145 A 
ATOM     22  C   UNL     1      -4.224  29.066 -30.260  1.00  0.00     0.119 A 
ATOM     23  N   UNL     1      -5.389  30.545 -31.518  1.00  0.00    -0.181 NA
ATOM     24  N   UNL     1      -4.535  30.373 -30.492  1.00  0.00    -0.272 N 
BRANCH  24  25
ATOM     25  C   UNL     1      -4.043  31.519 -29.749  1.00  0.00     0.147 C 
BRANCH  25  26
ATOM     26  C   UNL     1      -4.940  31.898 -28.553  1.00  0.00     0.013 C 
ATOM     27  C   UNL     1      -4.387  31.318 -27.233  1.00  0.00     0.021 C 
ATOM     28  C   UNL     1      -5.070  33.433 -28.484  1.00  0.00     0.021 C 
ATOM     29  C   UNL     1      -5.269  31.619 -26.031  1.00  0.00     0.137 C 
ATOM     30  C   UNL     1      -6.019  33.895 -27.389  1.00  0.00     0.137 C 
ATOM     31  S   UNL     1      -5.473  33.366 -25.781  1.00  0.00     0.150 S 
ATOM     32  O   UNL     1      -4.171  33.951 -25.531  1.00  0.00    -0.229 OA
ATOM     33  O   UNL     1      -6.569  33.562 -24.854  1.00  0.00    -0.229 OA
ENDBRANCH  25  26
ENDBRANCH  24  25
ENDBRANCH   3  20
TORSDOF 7
ENDMDL
MODEL 2
REMARK VINA RESULT:    -9.668      1.687      2.601
REMARK INTER + INTRA:         -14.491
REMARK INTER:                 -13.564
REMARK INTRA:                  -0.927
REMARK UNBOUND:                -0.867
REMARK SMILES CCC(CC)n1cc(-c2nc(-c3cnn(CC4CCS(=O)(=O)CC4)c3)cn3nccc23)cn1
REMARK SMILES IDX 9 1 10 2 11 3 26 4 27 5 28 6 29 7 30 8 31 9 8 10 6 11 7 12
REMARK SMILES IDX 33 13 32 14 3 15 2 16 1 17 4 18 5 19 12 20 13 21 25 22 14 23
REMARK SMILES IDX 15 24 16 25 17 26 18 27 24 28 19 29 23 30 20 31 21 32 22 33
REMARK H PARENT
ROOT
ATOM      1  C   UNL     1      -4.470  26.425 -30.934  1.00  0.00     0.100 A 
ATOM      2  N   UNL     1      -4.167  27.618 -30.504  1.00  0.00    -0.244 NA
ATOM      3  C   UNL     1      -4.727  28.722 -31.130  1.00  0.00     0.092 A 
ATOM      4  C   UNL     1      -5.568  28.600 -32.172  1.00  0.00     0.142 A 
ATOM      5  N   UNL     1      -5.884  27.342 -32.648  1.00  0.00    -0.237 N 
ATOM      6  N   UNL     1      -6.691  27.024 -33.689  1.00  0.00    -0.176 NA
ATOM      7  C   UNL     1      -6.614  25.697 -33.777  1.00  0.00     0.136 A 
ATOM      8  C   UNL     1      -5.781  25.139 -32.795  1.00  0.00     0.052 A 
ATOM      9  C   UNL     1      -5.342  26.217 -32.059  1.00  0.00     0.093 A 
ENDROOT
BRANCH   1  10
ATOM     10  C   UNL     1      -3.870  25.308 -30.231  1.00  0.00     0.040 A 
ATOM     11  N   UNL     1      -3.222  23.796 -28.757  1.00  0.00    -0.269 N 
ATOM     12  C   UNL     1      -4.031  24.888 -28.924  1.00  0.00     0.119 A 
ATOM     13  N   UNL     1      -2.537  23.473 -29.867  1.00  0.00    -0.181 NA
ATOM     14  C   UNL     1      -2.912  24.402 -30.748  1.00  0.00     0.145 A 
BRANCH  11  15
ATOM     15  C   UNL     1      -3.071  23.001 -27.536  1.00  0.00     0.107 C 
BRANCH  15  16
ATOM     16  C   UNL     1      -3.459  21.538 -27.824  1.00  0.00     0.024 C 
ATOM     17  C   UNL     1      -4.942  21.346 -28.106  1.00  0.00     0.006 C 
ENDBRANCH  15  16
BRANCH  15  18
ATOM     18  C   UNL     1      -1.662  23.137 -26.923  1.00  0.00     0.024 C 
ATOM     19  C   UNL     1      -1.523  22.420 -25.584  1.00  0.00     0.006 C 
ENDBRANCH  15  18
ENDBRANCH  11  15
ENDBRANCH   1  10
BRANCH   3  20
ATOM     20  C   UNL     1      -4.332  29.980 -30.571  1.00  0.00     0.040 A 
ATOM     21  C   UNL     1      -3.120  30.353 -29.947  1.00  0.00     0.145 A 
ATOM     22  C   UNL     1      -5.094  31.129 -30.532  1.00  0.00     0.119 A 
ATOM     23  N   UNL     1      -3.118  31.628 -29.544  1.00  0.00    -0.181 NA
ATOM     24  N   UNL     1      -4.335  32.075 -29.909  1.00  0.00    -0.272 N 
BRANCH  24  25
ATOM     25  C   UNL     1      -4.722  33.447 -29.636  1.00  0.00     0.147 C 
BRANCH  25  26
ATOM     26  C   UNL     1      -4.728  33.788 -28.131  1.00  0.00     0.013 C 
ATOM     27  C   UNL     1      -5.482  35.107 -27.859  1.00  0.00     0.021 C 
ATOM     28  C   UNL     1      -5.347  32.612 -27.349  1.00  0.00     0.021 C 
ATOM     29  C   UNL     1      -5.468  35.513 -26.393  1.00  0.00     0.137 C 
ATOM     30  C   UNL     1      -5.305  32.819 -25.843  1.00  0.00     0.137 C 
ATOM     31  S   UNL     1      -6.205  34.274 -25.355  1.00  0.00     0.150 S 
ATOM     32  O   UNL     1      -7.588  34.103 -25.753  1.00  0.00    -0.229 OA
ATOM     33  O   UNL     1      -5.855  34.572 -23.982  1.00  0.00    -0.229 OA
ENDBRANCH  25  26
ENDBRANCH  24  25
ENDBRANCH   3  20
TORSDOF 7
ENDMDL
MODEL 3
REMARK VINA RESULT:    -9.341      1.521      2.226
REMARK INTER + INTRA:         -14.031
REMARK INTER:                 -13.547
REMARK INTRA:                  -0.484
REMARK UNBOUND:                -0.867
REMARK SMILES CCC(CC)n1cc(-c2nc(-c3cnn(CC4CCS(=O)(=O)CC4)c3)cn3nccc23)cn1
REMARK SMILES IDX 9 1 10 2 11 3 26 4 27 5 28 6 29 7 30 8 31 9 8 10 6 11 7 12
REMARK SMILES IDX 33 13 32 14 3 15 2 16 1 17 4 18 5 19 12 20 13 21 25 22 14 23
REMARK SMILES IDX 15 24 16 25 17 26 18 27 24 28 19 29 23 30 20 31 21 32 22 33
REMARK H PARENT
ROOT
ATOM      1  C   UNL     1      -4.481  25.758 -30.929  1.00  0.00     0.100 A 
ATOM      2  N   UNL     1      -4.386  27.030 -30.660  1.00  0.00    -0.244 NA
ATOM      3  C   UNL     1      -5.068  27.939 -31.455  1.00  0.00     0.092 A 
ATOM      4  C   UNL     1      -5.821  27.551 -32.499  1.00  0.00     0.142 A 
ATOM      5  N   UNL     1      -5.917  26.207 -32.806  1.00  0.00    -0.237 N 
ATOM      6  N   UNL     1      -6.605  25.632 -33.821  1.00  0.00    -0.176 NA
ATOM      7  C   UNL     1      -6.325  24.333 -33.719  1.00  0.00     0.136 A 
ATOM      8  C   UNL     1      -5.475  24.047 -32.639  1.00  0.00     0.052 A 
ATOM      9  C   UNL     1      -5.246  25.269 -32.046  1.00  0.00     0.093 A 
ENDROOT
BRANCH   1  10
ATOM     10  C   UNL     1      -3.763  24.851 -30.056  1.00  0.00     0.040 A 
ATOM     11  N   UNL     1      -2.702  23.149 -29.132  1.00  0.00    -0.269 N 
ATOM     12  C   UNL     1      -3.285  23.576 -30.294  1.00  0.00     0.119 A 
ATOM     13  N   UNL     1      -2.768  24.057 -28.145  1.00  0.00    -0.181 NA
ATOM     14  C   UNL     1      -3.431  25.074 -28.697  1.00  0.00     0.145 A 
BRANCH  11  15
ATOM     15  C   UNL     1      -2.044  21.859 -28.910  1.00  0.00     0.107 C 
BRANCH  15  16
ATOM     16  C   UNL     1      -2.612  21.206 -27.636  1.00  0.00     0.024 C 
ATOM     17  C   UNL     1      -1.683  21.305 -26.435  1.00  0.00     0.006 C 
ENDBRANCH  15  16
BRANCH  15  18
ATOM     18  C   UNL     1      -2.132  20.939 -30.145  1.00  0.00     0.024 C 
ATOM     19  C   UNL     1      -3.536  20.394 -30.382  1.00  0.00     0.006 C 
ENDBRANCH  15  18
ENDBRANCH  11  15
ENDBRANCH   1  10
BRANCH   3  20
ATOM     20  C   UNL     1      -4.899  29.307 -31.062  1.00  0.00     0.040 A 
ATOM     21  C   UNL     1      -5.434  30.485 -31.632  1.00  0.00     0.145 A 
ATOM     22  C   UNL     1      -4.148  29.762 -29.999  1.00  0.00     0.119 A 
ATOM     23  N   UNL     1      -5.048  31.591 -30.987  1.00  0.00    -0.181 NA
ATOM     24  N   UNL     1      -4.263  31.121 -29.999  1.00  0.00    -0.272 N 
BRANCH  24  25
ATOM     25  C   UNL     1      -3.639  32.038 -29.062  1.00  0.00     0.147 C 
BRANCH  25  26
ATOM     26  C   UNL     1      -4.612  32.561 -27.986  1.00  0.00     0.013 C 
ATOM     27  C   UNL     1      -4.725  31.572 -26.806  1.00  0.00     0.021 C 
ATOM     28  C   UNL     1      -4.145  33.953 -27.514  1.00  0.00     0.021 C 
ATOM     29  C   UNL     1      -5.718  32.019 -25.742  1.00  0.00     0.137 C 
ATOM     30  C   UNL     1      -5.103  34.590 -26.520  1.00  0.00     0.137 C 
ATOM     31  S   UNL     1      -5.283  33.598 -25.054  1.00  0.00     0.150 S 
ATOM     32  O   UNL     1      -3.983  33.485 -24.424  1.00  0.00    -0.229 OA
ATOM     33  O   UNL     1      -6.426  34.098 -24.318  1.00  0.00    -0.229 OA
ENDBRANCH  25  26
ENDBRANCH  24  25
ENDBRANCH   3  20
TORSDOF 7
ENDMDL
MODEL 4
REMARK VINA RESULT:    -8.926      3.122      7.362
REMARK INTER + INTRA:         -13.445
REMARK INTER:                 -13.370
REMARK INTRA:                  -0.075
REMARK UNBOUND:                -0.867
REMARK SMILES CCC(CC)n1cc(-c2nc(-c3cnn(CC4CCS(=O)(=O)CC4)c3)cn3nccc23)cn1
REMARK SMILES IDX 9 1 10 2 11 3 26 4 27 5 28 6 29 7 30 8 31 9 8 10 6 11 7 12
REMARK SMILES IDX 33 13 32 14 3 15 2 16 1 17 4 18 5 19 12 20 13 21 25 22 14 23
REMARK SMILES IDX 15 24 16 25 17 26 18 27 24 28 19 29 23 30 20 31 21 32 22 33
REMARK H PARENT
ROOT
ATOM      1  C   UNL     1      -5.039  25.330 -31.648  1.00  0.00     0.100 A 
ATOM      2  N   UNL     1      -4.402  24.528 -30.843  1.00  0.00    -0.244 NA
ATOM      3  C   UNL     1      -4.473  23.160 -31.058  1.00  0.00     0.092 A 
ATOM      4  C   UNL     1      -5.185  22.633 -32.070  1.00  0.00     0.142 A 
ATOM      5  N   UNL     1      -5.880  23.472 -32.921  1.00  0.00    -0.237 N 
ATOM      6  N   UNL     1      -6.659  23.128 -33.975  1.00  0.00    -0.176 NA
ATOM      7  C   UNL     1      -7.145  24.286 -34.421  1.00  0.00     0.136 A 
ATOM      8  C   UNL     1      -6.681  25.386 -33.683  1.00  0.00     0.052 A 
ATOM      9  C   UNL     1      -5.842  24.840 -32.736  1.00  0.00     0.093 A 
ENDROOT
BRANCH   1  10
ATOM     10  C   UNL     1      -4.915  26.750 -31.387  1.00  0.00     0.040 A 
ATOM     11  N   UNL     1      -4.422  28.755 -30.600  1.00  0.00    -0.269 N 
ATOM     12  C   UNL     1      -4.166  27.419 -30.437  1.00  0.00     0.119 A 
ATOM     13  N   UNL     1      -5.291  29.007 -31.592  1.00  0.00    -0.181 NA
ATOM     14  C   UNL     1      -5.607  27.794 -32.050  1.00  0.00     0.145 A 
BRANCH  11  15
ATOM     15  C   UNL     1      -3.841  29.854 -29.827  1.00  0.00     0.107 C 
BRANCH  15  16
ATOM     16  C   UNL     1      -4.559  31.169 -30.185  1.00  0.00     0.024 C 
ATOM     17  C   UNL     1      -5.027  31.958 -28.971  1.00  0.00     0.006 C 
ENDBRANCH  15  16
BRANCH  15  18
ATOM     18  C   UNL     1      -3.843  29.566 -28.311  1.00  0.00     0.024 C 
ATOM     19  C   UNL     1      -2.494  29.836 -27.652  1.00  0.00     0.006 C 
ENDBRANCH  15  18
ENDBRANCH  11  15
ENDBRANCH   1  10
BRANCH   3  20
ATOM     20  C   UNL     1      -3.728  22.375 -30.119  1.00  0.00     0.040 A 
ATOM     21  C   UNL     1      -3.040  21.154 -30.303  1.00  0.00     0.145 A 
ATOM     22  C   UNL     1      -3.524  22.675 -28.788  1.00  0.00     0.119 A 
ATOM     23  N   UNL     1      -2.457  20.717 -29.182  1.00  0.00    -0.181 NA
ATOM     24  N   UNL     1      -2.772  21.661 -28.275  1.00  0.00    -0.272 N 
BRANCH  24  25
ATOM     25  C   UNL     1      -2.310  21.539 -26.904  1.00  0.00     0.147 C 
BRANCH  25  26
ATOM     26  C   UNL     1      -1.516  22.770 -26.419  1.00  0.00     0.013 C 
ATOM     27  C   UNL     1      -2.308  24.075 -26.655  1.00  0.00     0.021 C 
ATOM     28  C   UNL     1      -1.158  22.588 -24.931  1.00  0.00     0.021 C 
ATOM     29  C   UNL     1      -1.542  25.323 -26.243  1.00  0.00     0.137 C 
ATOM     30  C   UNL     1      -0.288  23.713 -24.392  1.00  0.00     0.137 C 
ATOM     31  S   UNL     1      -1.099  25.290 -24.522  1.00  0.00     0.150 S 
ATOM     32  O   UNL     1      -2.315  25.239 -23.735  1.00  0.00    -0.229 OA
ATOM     33  O   UNL     1      -0.107  26.320 -24.294  1.00  0.00    -0.229 OA
ENDBRANCH  25  26
ENDBRANCH  24  25
ENDBRANCH   3  20
TORSDOF 7
ENDMDL
MODEL 5
REMARK VINA RESULT:    -8.700      3.459      4.640
REMARK INTER + INTRA:         -13.127
REMARK INTER:                 -12.161
REMARK INTRA:                  -0.966
REMARK UNBOUND:                -0.867
REMARK SMILES CCC(CC)n1cc(-c2nc(-c3cnn(CC4CCS(=O)(=O)CC4)c3)cn3nccc23)cn1
REMARK SMILES IDX 9 1 10 2 11 3 26 4 27 5 28 6 29 7 30 8 31 9 8 10 6 11 7 12
REMARK SMILES IDX 33 13 32 14 3 15 2 16 1 17 4 18 5 19 12 20 13 21 25 22 14 23
REMARK SMILES IDX 15 24 16 25 17 26 18 27 24 28 19 29 23 30 20 31 21 32 22 33
REMARK H PARENT
ROOT
ATOM      1  C   UNL     1      -4.475  26.046 -31.201  1.00  0.00     0.100 A 
ATOM      2  N   UNL     1      -4.082  27.071 -30.499  1.00  0.00    -0.244 NA
ATOM      3  C   UNL     1      -4.551  28.334 -30.828  1.00  0.00     0.092 A 
ATOM      4  C   UNL     1      -5.397  28.536 -31.854  1.00  0.00     0.142 A 
ATOM      5  N   UNL     1      -5.809  27.460 -32.618  1.00  0.00    -0.237 N 
ATOM      6  N   UNL     1      -6.634  27.469 -33.691  1.00  0.00    -0.176 NA
ATOM      7  C   UNL     1      -6.662  26.201 -34.101  1.00  0.00     0.136 A 
ATOM      8  C   UNL     1      -5.877  25.357 -33.298  1.00  0.00     0.052 A 
ATOM      9  C   UNL     1      -5.357  26.187 -32.329  1.00  0.00     0.093 A 
ENDROOT
BRANCH   1  10
ATOM     10  C   UNL     1      -3.967  24.749 -30.802  1.00  0.00     0.040 A 
ATOM     11  N   UNL     1      -3.670  22.612 -30.325  1.00  0.00    -0.269 N 
ATOM     12  C   UNL     1      -4.572  23.506 -30.838  1.00  0.00     0.119 A 
ATOM     13  N   UNL     1      -2.514  23.186 -29.951  1.00  0.00    -0.181 NA
ATOM     14  C   UNL     1      -2.705  24.480 -30.217  1.00  0.00     0.145 A 
BRANCH  11  15
ATOM     15  C   UNL     1      -3.862  21.168 -30.177  1.00  0.00     0.107 C 
BRANCH  15  16
ATOM     16  C   UNL     1      -5.068  20.902 -29.257  1.00  0.00     0.024 C 
ATOM     17  C   UNL     1      -4.886  21.435 -27.844  1.00  0.00     0.006 C 
ENDBRANCH  15  16
BRANCH  15  18
ATOM     18  C   UNL     1      -3.978  20.453 -31.540  1.00  0.00     0.024 C 
ATOM     19  C   UNL     1      -5.422  20.185 -31.950  1.00  0.00     0.006 C 
ENDBRANCH  15  18
ENDBRANCH  11  15
ENDBRANCH   1  10
BRANCH   3  20
ATOM     20  C   UNL     1      -4.061  29.384 -29.985  1.00  0.00     0.040 A 
ATOM     21  C   UNL     1      -3.795  30.738 -30.287  1.00  0.00     0.145 A 
ATOM     22  C   UNL     1      -3.740  29.271 -28.648  1.00  0.00     0.119 A 
ATOM     23  N   UNL     1      -3.339  31.422 -29.233  1.00  0.00    -0.181 NA
ATOM     24  N   UNL     1      -3.312  30.503 -28.250  1.00  0.00    -0.272 N 
BRANCH  24  25
ATOM     25  C   UNL     1      -2.863  30.869 -26.919  1.00  0.00     0.147 C 
BRANCH  25  26
ATOM     26  C   UNL     1      -1.349  31.161 -26.848  1.00  0.00     0.013 C 
ATOM     27  C   UNL     1      -0.984  31.915 -25.551  1.00  0.00     0.021 C 
ATOM     28  C   UNL     1      -0.572  29.834 -26.968  1.00  0.00     0.021 C 
ATOM     29  C   UNL     1       0.492  32.273 -25.462  1.00  0.00     0.137 C 
ATOM     30  C   UNL     1       0.934  30.035 -27.006  1.00  0.00     0.137 C 
ATOM     31  S   UNL     1       1.528  30.832 -25.531  1.00  0.00     0.150 S 
ATOM     32  O   UNL     1       1.211  29.982 -24.400  1.00  0.00    -0.229 OA
ATOM     33  O   UNL     1       2.887  31.267 -25.778  1.00  0.00    -0.229 OA
ENDBRANCH  25  26
ENDBRANCH  24  25
ENDBRANCH   3  20
TORSDOF 7
ENDMDL
MODEL 6
REMARK VINA RESULT:    -8.684      2.421      2.922
REMARK INTER + INTRA:         -13.104
REMARK INTER:                 -12.170
REMARK INTRA:                  -0.934
REMARK UNBOUND:                -0.867
REMARK SMILES CCC(CC)n1cc(-c2nc(-c3cnn(CC4CCS(=O)(=O)CC4)c3)cn3nccc23)cn1
REMARK SMILES IDX 9 1 10 2 11 3 26 4 27 5 28 6 29 7 30 8 31 9 8 10 6 11 7 12
REMARK SMILES IDX 33 13 32 14 3 15 2 16 1 17 4 18 5 19 12 20 13 21 25 22 14 23
REMARK SMILES IDX 15 24 16 25 17 26 18 27 24 28 19 29 23 30 20 31 21 32 22 33
REMARK H PARENT
ROOT
ATOM      1  C   UNL     1      -4.195  25.751 -30.644  1.00  0.00     0.100 A 
ATOM      2  N   UNL     1      -4.114  27.030 -30.408  1.00  0.00    -0.244 NA
ATOM      3  C   UNL     1      -4.833  27.909 -31.204  1.00  0.00     0.092 A 
ATOM      4  C   UNL     1      -5.608  27.483 -32.217  1.00  0.00     0.142 A 
ATOM      5  N   UNL     1      -5.689  26.131 -32.490  1.00  0.00    -0.237 N 
ATOM      6  N   UNL     1      -6.395  25.521 -33.471  1.00  0.00    -0.176 NA
ATOM      7  C   UNL     1      -6.091  24.229 -33.347  1.00  0.00     0.136 A 
ATOM      8  C   UNL     1      -5.207  23.983 -32.285  1.00  0.00     0.052 A 
ATOM      9  C   UNL     1      -4.982  25.222 -31.727  1.00  0.00     0.093 A 
ENDROOT
BRANCH   1  10
ATOM     10  C   UNL     1      -3.437  24.877 -29.771  1.00  0.00     0.040 A 
ATOM     11  N   UNL     1      -2.320  23.944 -28.109  1.00  0.00    -0.269 N 
ATOM     12  C   UNL     1      -3.025  25.063 -28.465  1.00  0.00     0.119 A 
ATOM     13  N   UNL     1      -2.239  23.037 -29.096  1.00  0.00    -0.181 NA
ATOM     14  C   UNL     1      -2.894  23.612 -30.107  1.00  0.00     0.145 A 
BRANCH  11  15
ATOM     15  C   UNL     1      -1.700  23.681 -26.809  1.00  0.00     0.107 C 
BRANCH  15  16
ATOM     16  C   UNL     1      -2.198  24.716 -25.783  1.00  0.00     0.024 C 
ATOM     17  C   UNL     1      -1.086  25.565 -25.185  1.00  0.00     0.006 C 
ENDBRANCH  15  16
BRANCH  15  18
ATOM     18  C   UNL     1      -1.916  22.226 -26.344  1.00  0.00     0.024 C 
ATOM     19  C   UNL     1      -1.190  21.902 -25.042  1.00  0.00     0.006 C 
ENDBRANCH  15  18
ENDBRANCH  11  15
ENDBRANCH   1  10
BRANCH   3  20
ATOM     20  C   UNL     1      -4.677  29.288 -30.849  1.00  0.00     0.040 A 
ATOM     21  C   UNL     1      -5.264  30.442 -31.416  1.00  0.00     0.145 A 
ATOM     22  C   UNL     1      -3.886  29.783 -29.832  1.00  0.00     0.119 A 
ATOM     23  N   UNL     1      -4.873  31.569 -30.813  1.00  0.00    -0.181 NA
ATOM     24  N   UNL     1      -4.032  31.138 -29.855  1.00  0.00    -0.272 N 
BRANCH  24  25
ATOM     25  C   UNL     1      -3.385  32.089 -28.968  1.00  0.00     0.147 C 
BRANCH  25  26
ATOM     26  C   UNL     1      -2.140  31.512 -28.264  1.00  0.00     0.013 C 
ATOM     27  C   UNL     1      -0.854  31.819 -29.061  1.00  0.00     0.021 C 
ATOM     28  C   UNL     1      -2.064  32.072 -26.830  1.00  0.00     0.021 C 
ATOM     29  C   UNL     1       0.397  31.222 -28.433  1.00  0.00     0.137 C 
ATOM     30  C   UNL     1      -0.917  31.480 -26.026  1.00  0.00     0.137 C 
ATOM     31  S   UNL     1       0.658  31.819 -26.781  1.00  0.00     0.150 S 
ATOM     32  O   UNL     1       0.834  33.257 -26.832  1.00  0.00    -0.229 OA
ATOM     33  O   UNL     1       1.645  30.970 -26.147  1.00  0.00    -0.229 OA
ENDBRANCH  25  26
ENDBRANCH  24  25
ENDBRANCH   3  20
TORSDOF 7
ENDMDL
MODEL 7
REMARK VINA RESULT:    -8.670      6.080     10.621
REMARK INTER + INTRA:         -13.084
REMARK INTER:                 -12.272
REMARK INTRA:                  -0.813
REMARK UNBOUND:                -0.867
REMARK SMILES CCC(CC)n1cc(-c2nc(-c3cnn(CC4CCS(=O)(=O)CC4)c3)cn3nccc23)cn1
REMARK SMILES IDX 9 1 10 2 11 3 26 4 27 5 28 6 29 7 30 8 31 9 8 10 6 11 7 12
REMARK SMILES IDX 33 13 32 14 3 15 2 16 1 17 4 18 5 19 12 20 13 21 25 22 14 23
REMARK SMILES IDX 15 24 16 25 17 26 18 27 24 28 19 29 23 30 20 31 21 32 22 33
REMARK H PARENT
ROOT
ATOM      1  C   UNL     1      -3.109  24.109 -28.096  1.00  0.00     0.100 A 
ATOM      2  N   UNL     1      -2.400  24.048 -27.004  1.00  0.00    -0.244 NA
ATOM      3  C   UNL     1      -1.970  22.811 -26.548  1.00  0.00     0.092 A 
ATOM      4  C   UNL     1      -2.265  21.670 -27.195  1.00  0.00     0.142 A 
ATOM      5  N   UNL     1      -3.030  21.719 -28.345  1.00  0.00    -0.237 N 
ATOM      6  N   UNL     1      -3.441  20.683 -29.115  1.00  0.00    -0.176 NA
ATOM      7  C   UNL     1      -4.196  21.248 -30.057  1.00  0.00     0.136 A 
ATOM      8  C   UNL     1      -4.270  22.644 -29.924  1.00  0.00     0.052 A 
ATOM      9  C   UNL     1      -3.487  22.929 -28.828  1.00  0.00     0.093 A 
ENDROOT
BRANCH   1  10
ATOM     10  C   UNL     1      -3.517  25.429 -28.536  1.00  0.00     0.040 A 
ATOM     11  N   UNL     1      -4.070  27.236 -29.680  1.00  0.00    -0.269 N 
ATOM     12  C   UNL     1      -3.710  25.922 -29.813  1.00  0.00     0.119 A 
ATOM     13  N   UNL     1      -4.123  27.640 -28.400  1.00  0.00    -0.181 NA
ATOM     14  C   UNL     1      -3.765  26.554 -27.712  1.00  0.00     0.145 A 
BRANCH  11  15
ATOM     15  C   UNL     1      -4.392  28.166 -30.764  1.00  0.00     0.107 C 
BRANCH  15  16
ATOM     16  C   UNL     1      -5.775  27.818 -31.345  1.00  0.00     0.024 C 
ATOM     17  C   UNL     1      -5.709  26.969 -32.606  1.00  0.00     0.006 C 
ENDBRANCH  15  16
BRANCH  15  18
ATOM     18  C   UNL     1      -4.283  29.639 -30.319  1.00  0.00     0.024 C 
ATOM     19  C   UNL     1      -5.214  30.566 -31.094  1.00  0.00     0.006 C 
ENDBRANCH  15  18
ENDBRANCH  11  15
ENDBRANCH   1  10
BRANCH   3  20
ATOM     20  C   UNL     1      -1.192  22.864 -25.345  1.00  0.00     0.040 A 
ATOM     21  C   UNL     1      -1.032  23.917 -24.416  1.00  0.00     0.145 A 
ATOM     22  C   UNL     1      -0.413  21.847 -24.834  1.00  0.00     0.119 A 
ATOM     23  N   UNL     1      -0.216  23.595 -23.407  1.00  0.00    -0.181 NA
ATOM     24  N   UNL     1       0.149  22.331 -23.690  1.00  0.00    -0.272 N 
BRANCH  24  25
ATOM     25  C   UNL     1       1.053  21.616 -22.807  1.00  0.00     0.147 C 
BRANCH  25  26
ATOM     26  C   UNL     1       1.505  20.254 -23.373  1.00  0.00     0.013 C 
ATOM     27  C   UNL     1       2.742  20.409 -24.283  1.00  0.00     0.021 C 
ATOM     28  C   UNL     1       1.781  19.287 -22.204  1.00  0.00     0.021 C 
ATOM     29  C   UNL     1       3.192  19.098 -24.910  1.00  0.00     0.137 C 
ATOM     30  C   UNL     1       2.139  17.885 -22.672  1.00  0.00     0.137 C 
ATOM     31  S   UNL     1       3.604  17.883 -23.681  1.00  0.00     0.150 S 
ATOM     32  O   UNL     1       4.702  18.390 -22.882  1.00  0.00    -0.229 OA
ATOM     33  O   UNL     1       3.692  16.594 -24.334  1.00  0.00    -0.229 OA
ENDBRANCH  25  26
ENDBRANCH  24  25
ENDBRANCH   3  20
TORSDOF 7
ENDMDL
MODEL 8
REMARK VINA RESULT:    -8.640      3.974      8.192
REMARK INTER + INTRA:         -13.042
REMARK INTER:                 -12.324
REMARK INTRA:                  -0.718
REMARK UNBOUND:                -0.867
REMARK SMILES CCC(CC)n1cc(-c2nc(-c3cnn(CC4CCS(=O)(=O)CC4)c3)cn3nccc23)cn1
REMARK SMILES IDX 9 1 10 2 11 3 26 4 27 5 28 6 29 7 30 8 31 9 8 10 6 11 7 12
REMARK SMILES IDX 33 13 32 14 3 15 2 16 1 17 4 18 5 19 12 20 13 21 25 22 14 23
REMARK SMILES IDX 15 24 16 25 17 26 18 27 24 28 19 29 23 30 20 31 21 32 22 33
REMARK H PARENT
ROOT
ATOM      1  C   UNL     1      -4.594  27.282 -30.946  1.00  0.00     0.100 A 
ATOM      2  N   UNL     1      -3.944  26.566 -30.072  1.00  0.00    -0.244 NA
ATOM      3  C   UNL     1      -3.880  25.191 -30.241  1.00  0.00     0.092 A 
ATOM      4  C   UNL     1      -4.474  24.572 -31.276  1.00  0.00     0.142 A 
ATOM      5  N   UNL     1      -5.180  25.317 -32.201  1.00  0.00    -0.237 N 
ATOM      6  N   UNL     1      -5.854  24.873 -33.289  1.00  0.00    -0.176 NA
ATOM      7  C   UNL     1      -6.409  25.967 -33.807  1.00  0.00     0.136 A 
ATOM      8  C   UNL     1      -6.093  27.127 -33.082  1.00  0.00     0.052 A 
ATOM      9  C   UNL     1      -5.276  26.688 -32.064  1.00  0.00     0.093 A 
ENDROOT
BRANCH   1  10
ATOM     10  C   UNL     1      -4.613  28.716 -30.730  1.00  0.00     0.040 A 
ATOM     11  N   UNL     1      -4.346  30.780 -29.991  1.00  0.00    -0.269 N 
ATOM     12  C   UNL     1      -3.982  29.480 -29.766  1.00  0.00     0.119 A 
ATOM     13  N   UNL     1      -5.178  30.921 -31.036  1.00  0.00    -0.181 NA
ATOM     14  C   UNL     1      -5.357  29.670 -31.466  1.00  0.00     0.145 A 
BRANCH  11  15
ATOM     15  C   UNL     1      -3.911  31.952 -29.228  1.00  0.00     0.107 C 
BRANCH  15  16
ATOM     16  C   UNL     1      -4.947  32.264 -28.130  1.00  0.00     0.024 C 
ATOM     17  C   UNL     1      -5.702  33.565 -28.358  1.00  0.00     0.006 C 
ENDBRANCH  15  16
BRANCH  15  18
ATOM     18  C   UNL     1      -2.481  31.788 -28.672  1.00  0.00     0.024 C 
ATOM     19  C   UNL     1      -2.445  31.645 -27.154  1.00  0.00     0.006 C 
ENDBRANCH  15  18
ENDBRANCH  11  15
ENDBRANCH   1  10
BRANCH   3  20
ATOM     20  C   UNL     1      -3.134  24.507 -29.227  1.00  0.00     0.040 A 
ATOM     21  C   UNL     1      -2.274  23.391 -29.334  1.00  0.00     0.145 A 
ATOM     22  C   UNL     1      -3.107  24.821 -27.884  1.00  0.00     0.119 A 
ATOM     23  N   UNL     1      -1.752  23.027 -28.158  1.00  0.00    -0.181 NA
ATOM     24  N   UNL     1      -2.280  23.913 -27.293  1.00  0.00    -0.272 N 
BRANCH  24  25
ATOM     25  C   UNL     1      -1.945  23.844 -25.882  1.00  0.00     0.147 C 
BRANCH  25  26
ATOM     26  C   UNL     1      -0.479  23.439 -25.624  1.00  0.00     0.013 C 
ATOM     27  C   UNL     1       0.457  24.666 -25.672  1.00  0.00     0.021 C 
ATOM     28  C   UNL     1      -0.385  22.710 -24.269  1.00  0.00     0.021 C 
ATOM     29  C   UNL     1       1.923  24.310 -25.478  1.00  0.00     0.137 C 
ATOM     30  C   UNL     1       1.012  22.187 -23.977  1.00  0.00     0.137 C 
ATOM     31  S   UNL     1       2.208  23.503 -23.921  1.00  0.00     0.150 S 
ATOM     32  O   UNL     1       1.830  24.411 -22.857  1.00  0.00    -0.229 OA
ATOM     33  O   UNL     1       3.527  22.907 -23.959  1.00  0.00    -0.229 OA
ENDBRANCH  25  26
ENDBRANCH  24  25
ENDBRANCH   3  20
TORSDOF 7
ENDMDL
MODEL 9
REMARK VINA RESULT:    -8.597      3.893      7.995
REMARK INTER + INTRA:         -12.982
REMARK INTER:                 -12.282
REMARK INTRA:                  -0.700
REMARK UNBOUND:                -0.867
REMARK SMILES CCC(CC)n1cc(-c2nc(-c3cnn(CC4CCS(=O)(=O)CC4)c3)cn3nccc23)cn1
REMARK SMILES IDX 9 1 10 2 11 3 26 4 27 5 28 6 29 7 30 8 31 9 8 10 6 11 7 12
REMARK SMILES IDX 33 13 32 14 3 15 2 16 1 17 4 18 5 19 12 20 13 21 25 22 14 23
REMARK SMILES IDX 15 24 16 25 17 26 18 27 24 28 19 29 23 30 20 31 21 32 22 33
REMARK H PARENT
ROOT
ATOM      1  C   UNL     1      -4.364  25.021 -30.686  1.00  0.00     0.100 A 
ATOM      2  N   UNL     1      -3.767  24.468 -29.668  1.00  0.00    -0.244 NA
ATOM      3  C   UNL     1      -3.667  23.086 -29.616  1.00  0.00     0.092 A 
ATOM      4  C   UNL     1      -4.173  22.297 -30.580  1.00  0.00     0.142 A 
ATOM      5  N   UNL     1      -4.823  22.870 -31.657  1.00  0.00    -0.237 N 
ATOM      6  N   UNL     1      -5.407  22.243 -32.706  1.00  0.00    -0.176 NA
ATOM      7  C   UNL     1      -5.943  23.228 -33.426  1.00  0.00     0.136 A 
ATOM      8  C   UNL     1      -5.701  24.495 -32.871  1.00  0.00     0.052 A 
ATOM      9  C   UNL     1      -4.952  24.242 -31.743  1.00  0.00     0.093 A 
ENDROOT
BRANCH   1  10
ATOM     10  C   UNL     1      -4.424  26.469 -30.699  1.00  0.00     0.040 A 
ATOM     11  N   UNL     1      -4.219  28.631 -30.294  1.00  0.00    -0.269 N 
ATOM     12  C   UNL     1      -3.819  27.393 -29.867  1.00  0.00     0.119 A 
ATOM     13  N   UNL     1      -5.049  28.582 -31.348  1.00  0.00    -0.181 NA
ATOM     14  C   UNL     1      -5.191  27.275 -31.576  1.00  0.00     0.145 A 
BRANCH  11  15
ATOM     15  C   UNL     1      -3.820  29.921 -29.725  1.00  0.00     0.107 C 
BRANCH  15  16
ATOM     16  C   UNL     1      -4.761  31.024 -30.245  1.00  0.00     0.024 C 
ATOM     17  C   UNL     1      -5.009  32.137 -29.236  1.00  0.00     0.006 C 
ENDBRANCH  15  16
BRANCH  15  18
ATOM     18  C   UNL     1      -3.741  29.878 -28.185  1.00  0.00     0.024 C 
ATOM     19  C   UNL     1      -2.338  30.151 -27.653  1.00  0.00     0.006 C 
ENDBRANCH  15  18
ENDBRANCH  11  15
ENDBRANCH   1  10
BRANCH   3  20
ATOM     20  C   UNL     1      -2.985  22.588 -28.458  1.00  0.00     0.040 A 
ATOM     21  C   UNL     1      -2.454  21.303 -28.203  1.00  0.00     0.145 A 
ATOM     22  C   UNL     1      -2.696  23.301 -27.313  1.00  0.00     0.119 A 
ATOM     23  N   UNL     1      -1.884  21.211 -26.997  1.00  0.00    -0.181 NA
ATOM     24  N   UNL     1      -2.050  22.441 -26.476  1.00  0.00    -0.272 N 
BRANCH  24  25
ATOM     25  C   UNL     1      -1.554  22.744 -25.146  1.00  0.00     0.147 C 
BRANCH  25  26
ATOM     26  C   UNL     1      -0.038  23.028 -25.114  1.00  0.00     0.013 C 
ATOM     27  C   UNL     1       0.290  24.389 -25.763  1.00  0.00     0.021 C 
ATOM     28  C   UNL     1       0.458  22.964 -23.655  1.00  0.00     0.021 C 
ATOM     29  C   UNL     1       1.781  24.690 -25.804  1.00  0.00     0.137 C 
ATOM     30  C   UNL     1       1.964  23.136 -23.537  1.00  0.00     0.137 C 
ATOM     31  S   UNL     1       2.498  24.707 -24.179  1.00  0.00     0.150 S 
ATOM     32  O   UNL     1       1.859  25.752 -23.404  1.00  0.00    -0.229 OA
ATOM     33  O   UNL     1       3.938  24.661 -24.323  1.00  0.00    -0.229 OA
ENDBRANCH  25  26
ENDBRANCH  24  25
ENDBRANCH   3  20
TORSDOF 7
ENDMDL
