REMARK SMILES CCCc1c(OCCCSc2ccc(CC(=O)O)cc2Cl)ccc2c(-c3ccccc3)coc12
REMARK SMILES IDX 8 1 7 2 6 3 5 4 4 5 34 6 22 7 33 8 24 9 23 10 32 11 25 12
REMARK SMILES IDX 3 13 2 14 1 15 26 16 27 17 31 18 28 19 30 20 29 21 9 22
REMARK SMILES IDX 10 23 11 24 12 25 20 26 13 27 19 28 14 29 21 30 15 31 16 32
REMARK SMILES IDX 17 33 18 34
REMARK H PARENT 18 35
REMARK INDEX MAP 8 1 7 2 6 3 5 4 4 5 34 6 22 7 33 8 24 9 23 10 32 11 25 12
REMARK INDEX MAP 3 13 2 14 1 15 26 16 27 17 31 18 28 19 30 20 29 21 9 22 10 23
REMARK INDEX MAP 11 24 12 25 20 26 13 27 19 28 14 29 21 30 15 31 16 32 17 33
REMARK INDEX MAP 18 34 52 35
ROOT
ATOM      1  C   UNL     1       7.901   4.883  -6.480  1.00  0.00     0.053 C 
ENDROOT
BRANCH   1   2
ATOM      2  C   UNL     1       9.056   4.260  -7.266  1.00  0.00     0.230 C 
BRANCH   2   3
ATOM      3  O   UNL     1      10.151   5.176  -7.265  1.00  0.00    -0.493 OA
BRANCH   3   4
ATOM      4  C   UNL     1      10.291   6.002  -8.354  1.00  0.00     0.126 A 
ATOM      5  C   UNL     1      10.837   5.389  -9.504  1.00  0.00     0.037 A 
ATOM      6  C   UNL     1      10.996   6.225 -10.619  1.00  0.00     0.141 A 
ATOM      7  C   UNL     1       9.913   7.351  -8.367  1.00  0.00     0.047 A 
ATOM      8  O   UNL     1      11.515   5.842 -11.821  1.00  0.00    -0.463 OA
ATOM      9  C   UNL     1      10.649   7.572 -10.660  1.00  0.00     0.029 A 
ATOM     10  C   UNL     1      10.084   8.146  -9.509  1.00  0.00     0.016 A 
ATOM     11  C   UNL     1      11.502   6.931 -12.630  1.00  0.00     0.205 A 
ATOM     12  C   UNL     1      10.982   8.026 -11.973  1.00  0.00     0.028 A 
BRANCH   5  13
ATOM     13  C   UNL     1      11.266   3.944  -9.519  1.00  0.00     0.043 C 
BRANCH  13  14
ATOM     14  C   UNL     1      10.685   3.199 -10.723  1.00  0.00     0.002 C 
ATOM     15  C   UNL     1       9.200   2.927 -10.542  1.00  0.00     0.004 C 
ENDBRANCH  13  14
ENDBRANCH   5  13
BRANCH  12  16
ATOM     16  C   UNL     1      10.866   9.341 -12.576  1.00  0.00    -0.015 A 
ATOM     17  C   UNL     1      11.169   9.522 -13.931  1.00  0.00     0.009 A 
ATOM     18  C   UNL     1      10.452  10.442 -11.816  1.00  0.00     0.009 A 
ATOM     19  C   UNL     1      11.061  10.785 -14.516  1.00  0.00     0.001 A 
ATOM     20  C   UNL     1      10.346  11.705 -12.402  1.00  0.00     0.001 A 
ATOM     21  C   UNL     1      10.650  11.875 -13.751  1.00  0.00     0.000 A 
ENDBRANCH  12  16
ENDBRANCH   3   4
ENDBRANCH   2   3
ENDBRANCH   1   2
BRANCH   1  22
ATOM     22  C   UNL     1       6.602   5.028  -7.276  1.00  0.00     0.078 C 
BRANCH  22  23
ATOM     23  S   UNL     1       5.087   4.903  -6.257  1.00  0.00    -0.124 SA
BRANCH  23  24
ATOM     24  C   UNL     1       5.202   6.439  -5.341  1.00  0.00     0.026 A 
ATOM     25  C   UNL     1       5.731   7.557  -6.001  1.00  0.00     0.017 A 
ATOM     26  C   UNL     1       4.761   6.585  -4.017  1.00  0.00     0.054 A 
ATOM     27  C   UNL     1       5.836   8.792  -5.352  1.00  0.00     0.005 A 
ATOM     28  C   UNL     1       4.865   7.822  -3.368  1.00  0.00     0.026 A 
ATOM     29  C   UNL     1       5.401   8.936  -4.030  1.00  0.00    -0.035 A 
ATOM     30  Cl  UNL     1       4.086   5.273  -3.112  1.00  0.00    -0.083 Cl
BRANCH  29  31
ATOM     31  C   UNL     1       5.528  10.262  -3.318  1.00  0.00     0.158 C 
BRANCH  31  32
ATOM     32  C   UNL     1       6.720  10.345  -2.394  1.00  0.00     0.307 C 
ATOM     33  O   UNL     1       7.871  10.633  -2.672  1.00  0.00    -0.252 OA
BRANCH  32  34
ATOM     34  O   UNL     1       6.390  10.037  -1.121  1.00  0.00    -0.481 OA
ATOM     35  H   UNL     1       7.082  10.053  -0.413  1.00  0.00     0.296 HD
ENDBRANCH  32  34
ENDBRANCH  31  32
ENDBRANCH  29  31
ENDBRANCH  23  24
ENDBRANCH  22  23
ENDBRANCH   1  22
TORSDOF 12
