MODEL 1
REMARK minimizedAffinity -10.0619316
REMARK CNNscore 0.79801327
REMARK CNNaffinity 7.50692129
REMARK SMILES CN1CCN(c2ccc3cc2COCC=CCOCc2cccc(c2)-c2ccnc(n2)N3)CC1
REMARK SMILES IDX 6 1 7 2 8 3 9 4 10 5 11 6 12 7 13 8 14 9 15 10 16 11 17 12
REMARK SMILES IDX 18 13 19 14 20 15 21 16 22 17 23 18 24 19 25 20 26 21 27 22
REMARK SMILES IDX 28 23 29 24 30 25 31 26 32 27 5 29 2 30 3 31 34 32 4 33
REMARK SMILES IDX 33 34 1 35
REMARK H PARENT 32 28
REMARK INDEX MAP 6 1 7 2 8 3 9 4 10 5 11 6 12 7 13 8 14 9 15 10 16 11 17 12
REMARK INDEX MAP 18 13 19 14 20 15 21 16 22 17 23 18 24 19 25 20 26 21 27 22
REMARK INDEX MAP 28 23 29 24 30 25 31 26 32 27 61 28 5 29 2 30 3 31 34 32 4 33
REMARK INDEX MAP 33 34 1 35
ROOT
ATOM      1  C   UNL     1       9.927 -25.627  25.164  1.00  0.00     0.042 A 
ATOM      2  C   UNL     1       9.504 -26.655  26.013  1.00  0.00     0.028 A 
ATOM      3  C   UNL     1       8.444 -27.493  25.657  1.00  0.00     0.028 A 
ATOM      4  C   UNL     1       7.761 -27.331  24.446  1.00  0.00     0.041 A 
ATOM      5  C   UNL     1       8.153 -26.278  23.619  1.00  0.00     0.034 A 
ATOM      6  C   UNL     1       9.243 -25.439  23.950  1.00  0.00     0.003 A 
ATOM      7  C   UNL     1       9.696 -24.395  22.954  1.00  0.00     0.198 C 
ATOM      8  O   UNL     1       8.596 -23.674  22.403  1.00  0.00    -0.373 OA
ATOM      9  C   UNL     1       8.207 -22.580  23.228  1.00  0.00     0.188 C 
ATOM     10  C   UNL     1       6.933 -22.069  22.650  1.00  0.00    -0.001 C 
ATOM     11  C   UNL     1       6.797 -20.926  21.954  1.00  0.00    -0.001 C 
ATOM     12  C   UNL     1       5.545 -20.468  21.262  1.00  0.00     0.188 C 
ATOM     13  O   UNL     1       4.520 -21.457  21.275  1.00  0.00    -0.373 OA
ATOM     14  C   UNL     1       4.682 -22.434  20.245  1.00  0.00     0.196 C 
ATOM     15  C   UNL     1       3.796 -23.607  20.571  1.00  0.00    -0.022 A 
ATOM     16  C   UNL     1       2.410 -23.492  20.420  1.00  0.00     0.006 A 
ATOM     17  C   UNL     1       1.578 -24.557  20.748  1.00  0.00     0.001 A 
ATOM     18  C   UNL     1       2.128 -25.746  21.231  1.00  0.00     0.010 A 
ATOM     19  C   UNL     1       3.520 -25.907  21.395  1.00  0.00     0.001 A 
ATOM     20  C   UNL     1       4.337 -24.810  21.068  1.00  0.00     0.016 A 
ATOM     21  C   UNL     1       4.090 -27.176  21.906  1.00  0.00     0.076 A 
ATOM     22  C   UNL     1       3.500 -28.397  21.632  1.00  0.00     0.049 A 
ATOM     23  C   UNL     1       4.054 -29.491  22.241  1.00  0.00     0.117 A 
ATOM     24  N   UNL     1       5.108 -29.417  23.064  1.00  0.00    -0.221 NA
ATOM     25  C   UNL     1       5.663 -28.207  23.250  1.00  0.00     0.227 A 
ATOM     26  N   UNL     1       5.196 -27.081  22.684  1.00  0.00    -0.213 NA
ATOM     27  N   UNL     1       6.725 -28.215  24.146  1.00  0.00    -0.324 N 
ATOM     28  H   UNL     1       6.767 -29.122  24.585  1.00  0.00     0.170 HD
ENDROOT
BRANCH   1  29
ATOM     29  N   UNL     1      11.013 -24.821  25.503  1.00  0.00    -0.369 N 
ATOM     30  N   UNL     1      13.053 -23.111  26.765  1.00  0.00    -0.303 NA
ATOM     31  C   UNL     1      13.260 -24.557  26.524  1.00  0.00     0.105 C 
ATOM     32  C   UNL     1      12.075 -22.597  25.777  1.00  0.00     0.105 C 
ATOM     33  C   UNL     1      11.974 -25.416  26.444  1.00  0.00     0.132 C 
ATOM     34  C   UNL     1      10.747 -23.386  25.681  1.00  0.00     0.132 C 
ATOM     35  C   UNL     1      12.618 -22.852  28.136  1.00  0.00     0.105 C 
ENDBRANCH   1  29
TORSDOF 1
ENDMDL
MODEL 2
REMARK minimizedAffinity -8.91561794
REMARK CNNscore 0.185944259
REMARK CNNaffinity 6.85944605
REMARK SMILES CN1CCN(c2ccc3cc2COCC=CCOCc2cccc(c2)-c2ccnc(n2)N3)CC1
REMARK SMILES IDX 6 1 7 2 8 3 9 4 10 5 11 6 12 7 13 8 14 9 15 10 16 11 17 12
REMARK SMILES IDX 18 13 19 14 20 15 21 16 22 17 23 18 24 19 25 20 26 21 27 22
REMARK SMILES IDX 28 23 29 24 30 25 31 26 32 27 5 29 2 30 3 31 34 32 4 33
REMARK SMILES IDX 33 34 1 35
REMARK H PARENT 32 28
REMARK INDEX MAP 6 1 7 2 8 3 9 4 10 5 11 6 12 7 13 8 14 9 15 10 16 11 17 12
REMARK INDEX MAP 18 13 19 14 20 15 21 16 22 17 23 18 24 19 25 20 26 21 27 22
REMARK INDEX MAP 28 23 29 24 30 25 31 26 32 27 61 28 5 29 2 30 3 31 34 32 4 33
REMARK INDEX MAP 33 34 1 35
ROOT
ATOM      1  C   UNL     1       5.747 -21.886  20.333  1.00  0.00     0.042 A 
ATOM      2  C   UNL     1       5.227 -22.791  19.403  1.00  0.00     0.028 A 
ATOM      3  C   UNL     1       4.949 -24.112  19.761  1.00  0.00     0.028 A 
ATOM      4  C   UNL     1       5.188 -24.582  21.058  1.00  0.00     0.041 A 
ATOM      5  C   UNL     1       5.750 -23.693  21.975  1.00  0.00     0.034 A 
ATOM      6  C   UNL     1       6.009 -22.344  21.637  1.00  0.00     0.003 A 
ATOM      7  C   UNL     1       6.502 -21.399  22.710  1.00  0.00     0.198 C 
ATOM      8  O   UNL     1       7.544 -21.979  23.492  1.00  0.00    -0.373 OA
ATOM      9  C   UNL     1       8.823 -21.808  22.888  1.00  0.00     0.188 C 
ATOM     10  C   UNL     1       9.763 -22.643  23.687  1.00  0.00    -0.001 C 
ATOM     11  C   UNL     1      10.679 -22.173  24.552  1.00  0.00    -0.001 C 
ATOM     12  C   UNL     1      11.542 -23.010  25.452  1.00  0.00     0.188 C 
ATOM     13  O   UNL     1      11.186 -24.389  25.422  1.00  0.00    -0.373 OA
ATOM     14  C   UNL     1      10.079 -24.692  26.272  1.00  0.00     0.196 C 
ATOM     15  C   UNL     1       9.557 -26.053  25.891  1.00  0.00    -0.022 A 
ATOM     16  C   UNL     1      10.291 -27.195  26.227  1.00  0.00     0.006 A 
ATOM     17  C   UNL     1       9.837 -28.455  25.852  1.00  0.00     0.001 A 
ATOM     18  C   UNL     1       8.644 -28.581  25.138  1.00  0.00     0.010 A 
ATOM     19  C   UNL     1       7.870 -27.457  24.783  1.00  0.00     0.001 A 
ATOM     20  C   UNL     1       8.360 -26.194  25.162  1.00  0.00     0.016 A 
ATOM     21  C   UNL     1       6.605 -27.605  24.027  1.00  0.00     0.076 A 
ATOM     22  C   UNL     1       5.789 -28.710  24.191  1.00  0.00     0.049 A 
ATOM     23  C   UNL     1       4.698 -28.790  23.367  1.00  0.00     0.117 A 
ATOM     24  N   UNL     1       4.411 -27.868  22.439  1.00  0.00    -0.221 NA
ATOM     25  C   UNL     1       5.217 -26.795  22.364  1.00  0.00     0.227 A 
ATOM     26  N   UNL     1       6.301 -26.625  23.140  1.00  0.00    -0.213 NA
ATOM     27  N   UNL     1       4.870 -25.908  21.352  1.00  0.00    -0.324 N 
ATOM     28  H   UNL     1       4.153 -26.335  20.784  1.00  0.00     0.170 HD
ENDROOT
BRANCH   1  29
ATOM     29  N   UNL     1       5.982 -20.556  19.984  1.00  0.00    -0.369 N 
ATOM     30  N   UNL     1       6.601 -17.680  19.835  1.00  0.00    -0.303 NA
ATOM     31  C   UNL     1       7.566 -18.728  19.429  1.00  0.00     0.105 C 
ATOM     32  C   UNL     1       5.226 -18.214  19.687  1.00  0.00     0.105 C 
ATOM     33  C   UNL     1       7.379 -20.110  20.100  1.00  0.00     0.132 C 
ATOM     34  C   UNL     1       4.962 -19.575  20.377  1.00  0.00     0.132 C 
ATOM     35  C   UNL     1       6.854 -17.216  21.198  1.00  0.00     0.105 C 
ENDBRANCH   1  29
TORSDOF 1
ENDMDL
MODEL 3
REMARK minimizedAffinity -10.2409964
REMARK CNNscore 0.0617370158
REMARK CNNaffinity 5.62844992
REMARK SMILES CN1CCN(c2ccc3cc2COCC=CCOCc2cccc(c2)-c2ccnc(n2)N3)CC1
REMARK SMILES IDX 6 1 7 2 8 3 9 4 10 5 11 6 12 7 13 8 14 9 15 10 16 11 17 12
REMARK SMILES IDX 18 13 19 14 20 15 21 16 22 17 23 18 24 19 25 20 26 21 27 22
REMARK SMILES IDX 28 23 29 24 30 25 31 26 32 27 5 29 2 30 3 31 34 32 4 33
REMARK SMILES IDX 33 34 1 35
REMARK H PARENT 32 28
REMARK INDEX MAP 6 1 7 2 8 3 9 4 10 5 11 6 12 7 13 8 14 9 15 10 16 11 17 12
REMARK INDEX MAP 18 13 19 14 20 15 21 16 22 17 23 18 24 19 25 20 26 21 27 22
REMARK INDEX MAP 28 23 29 24 30 25 31 26 32 27 61 28 5 29 2 30 3 31 34 32 4 33
REMARK INDEX MAP 33 34 1 35
ROOT
ATOM      1  C   UNL     1       6.749 -19.474  20.463  1.00  0.00     0.042 A 
ATOM      2  C   UNL     1       5.987 -19.575  19.295  1.00  0.00     0.028 A 
ATOM      3  C   UNL     1       5.004 -20.557  19.158  1.00  0.00     0.028 A 
ATOM      4  C   UNL     1       4.750 -21.481  20.178  1.00  0.00     0.041 A 
ATOM      5  C   UNL     1       5.539 -21.411  21.326  1.00  0.00     0.034 A 
ATOM      6  C   UNL     1       6.519 -20.404  21.493  1.00  0.00     0.003 A 
ATOM      7  C   UNL     1       7.256 -20.306  22.810  1.00  0.00     0.198 C 
ATOM      8  O   UNL     1       7.697 -21.582  23.269  1.00  0.00    -0.373 OA
ATOM      9  C   UNL     1       8.952 -21.948  22.704  1.00  0.00     0.188 C 
ATOM     10  C   UNL     1       9.171 -23.370  23.091  1.00  0.00    -0.001 C 
ATOM     11  C   UNL     1      10.045 -23.798  24.019  1.00  0.00    -0.001 C 
ATOM     12  C   UNL     1      10.183 -25.213  24.503  1.00  0.00     0.188 C 
ATOM     13  O   UNL     1       9.167 -26.067  23.989  1.00  0.00    -0.373 OA
ATOM     14  C   UNL     1       7.945 -25.979  24.726  1.00  0.00     0.196 C 
ATOM     15  C   UNL     1       6.856 -26.612  23.900  1.00  0.00    -0.022 A 
ATOM     16  C   UNL     1       6.815 -28.002  23.756  1.00  0.00     0.006 A 
ATOM     17  C   UNL     1       5.834 -28.597  22.970  1.00  0.00     0.001 A 
ATOM     18  C   UNL     1       4.885 -27.803  22.323  1.00  0.00     0.010 A 
ATOM     19  C   UNL     1       4.886 -26.398  22.445  1.00  0.00     0.001 A 
ATOM     20  C   UNL     1       5.897 -25.822  23.235  1.00  0.00     0.016 A 
ATOM     21  C   UNL     1       3.871 -25.568  21.755  1.00  0.00     0.076 A 
ATOM     22  C   UNL     1       2.582 -26.025  21.545  1.00  0.00     0.049 A 
ATOM     23  C   UNL     1       1.761 -25.216  20.808  1.00  0.00     0.117 A 
ATOM     24  N   UNL     1       2.153 -24.041  20.299  1.00  0.00    -0.221 NA
ATOM     25  C   UNL     1       3.403 -23.633  20.579  1.00  0.00     0.227 A 
ATOM     26  N   UNL     1       4.274 -24.354  21.306  1.00  0.00    -0.213 NA
ATOM     27  N   UNL     1       3.741 -22.424  19.983  1.00  0.00    -0.324 N 
ATOM     28  H   UNL     1       3.008 -22.170  19.336  1.00  0.00     0.170 HD
ENDROOT
BRANCH   1  29
ATOM     29  N   UNL     1       7.700 -18.465  20.614  1.00  0.00    -0.369 N 
ATOM     30  N   UNL     1       9.782 -16.571  21.482  1.00  0.00    -0.303 NA
ATOM     31  C   UNL     1      10.069 -17.724  20.598  1.00  0.00     0.105 C 
ATOM     32  C   UNL     1       8.363 -16.181  21.313  1.00  0.00     0.105 C 
ATOM     33  C   UNL     1       9.095 -18.921  20.718  1.00  0.00     0.132 C 
ATOM     34  C   UNL     1       7.333 -17.327  21.467  1.00  0.00     0.132 C 
ATOM     35  C   UNL     1      10.094 -16.874  22.878  1.00  0.00     0.105 C 
ENDBRANCH   1  29
TORSDOF 1
ENDMDL
MODEL 4
REMARK minimizedAffinity -7.75723839
REMARK CNNscore 0.048498515
REMARK CNNaffinity 4.50319481
REMARK SMILES CN1CCN(c2ccc3cc2COCC=CCOCc2cccc(c2)-c2ccnc(n2)N3)CC1
REMARK SMILES IDX 6 1 7 2 8 3 9 4 10 5 11 6 12 7 13 8 14 9 15 10 16 11 17 12
REMARK SMILES IDX 18 13 19 14 20 15 21 16 22 17 23 18 24 19 25 20 26 21 27 22
REMARK SMILES IDX 28 23 29 24 30 25 31 26 32 27 5 29 2 30 3 31 34 32 4 33
REMARK SMILES IDX 33 34 1 35
REMARK H PARENT 32 28
REMARK INDEX MAP 6 1 7 2 8 3 9 4 10 5 11 6 12 7 13 8 14 9 15 10 16 11 17 12
REMARK INDEX MAP 18 13 19 14 20 15 21 16 22 17 23 18 24 19 25 20 26 21 27 22
REMARK INDEX MAP 28 23 29 24 30 25 31 26 32 27 61 28 5 29 2 30 3 31 34 32 4 33
REMARK INDEX MAP 33 34 1 35
ROOT
ATOM      1  C   UNL     1      12.093 -20.787  27.891  1.00  0.00     0.042 A 
ATOM      2  C   UNL     1      11.960 -21.338  29.170  1.00  0.00     0.028 A 
ATOM      3  C   UNL     1      11.696 -22.699  29.344  1.00  0.00     0.028 A 
ATOM      4  C   UNL     1      11.546 -23.558  28.250  1.00  0.00     0.041 A 
ATOM      5  C   UNL     1      11.633 -23.002  26.973  1.00  0.00     0.034 A 
ATOM      6  C   UNL     1      11.930 -21.632  26.779  1.00  0.00     0.003 A 
ATOM      7  C   UNL     1      12.133 -21.116  25.372  1.00  0.00     0.198 C 
ATOM      8  O   UNL     1      11.127 -21.592  24.481  1.00  0.00    -0.373 OA
ATOM      9  C   UNL     1       9.960 -20.776  24.509  1.00  0.00     0.188 C 
ATOM     10  C   UNL     1       8.935 -21.507  23.714  1.00  0.00    -0.001 C 
ATOM     11  C   UNL     1       8.518 -21.168  22.481  1.00  0.00    -0.001 C 
ATOM     12  C   UNL     1       7.579 -21.970  21.625  1.00  0.00     0.188 C 
ATOM     13  O   UNL     1       7.278 -23.242  22.188  1.00  0.00    -0.373 OA
ATOM     14  C   UNL     1       8.288 -24.217  21.920  1.00  0.00     0.196 C 
ATOM     15  C   UNL     1       8.068 -25.383  22.848  1.00  0.00    -0.022 A 
ATOM     16  C   UNL     1       6.993 -26.251  22.628  1.00  0.00     0.006 A 
ATOM     17  C   UNL     1       6.760 -27.312  23.495  1.00  0.00     0.001 A 
ATOM     18  C   UNL     1       7.602 -27.513  24.591  1.00  0.00     0.010 A 
ATOM     19  C   UNL     1       8.700 -26.666  24.848  1.00  0.00     0.001 A 
ATOM     20  C   UNL     1       8.904 -25.593  23.962  1.00  0.00     0.016 A 
ATOM     21  C   UNL     1       9.587 -26.893  26.013  1.00  0.00     0.076 A 
ATOM     22  C   UNL     1       9.849 -28.165  26.487  1.00  0.00     0.049 A 
ATOM     23  C   UNL     1      10.599 -28.248  27.629  1.00  0.00     0.117 A 
ATOM     24  N   UNL     1      11.065 -27.174  28.280  1.00  0.00    -0.221 NA
ATOM     25  C   UNL     1      10.816 -25.969  27.740  1.00  0.00     0.227 A 
ATOM     26  N   UNL     1      10.101 -25.792  26.615  1.00  0.00    -0.213 NA
ATOM     27  N   UNL     1      11.302 -24.909  28.496  1.00  0.00    -0.324 N 
ATOM     28  H   UNL     1      11.625 -25.270  29.382  1.00  0.00     0.170 HD
ENDROOT
BRANCH   1  29
ATOM     29  N   UNL     1      12.400 -19.438  27.722  1.00  0.00    -0.369 N 
ATOM     30  N   UNL     1      12.952 -16.553  27.958  1.00  0.00    -0.303 NA
ATOM     31  C   UNL     1      14.027 -17.568  27.864  1.00  0.00     0.105 C 
ATOM     32  C   UNL     1      11.734 -17.086  27.305  1.00  0.00     0.105 C 
ATOM     33  C   UNL     1      13.653 -18.990  28.350  1.00  0.00     0.132 C 
ATOM     34  C   UNL     1      11.280 -18.488  27.780  1.00  0.00     0.132 C 
ATOM     35  C   UNL     1      12.694 -16.172  29.346  1.00  0.00     0.105 C 
ENDBRANCH   1  29
TORSDOF 1
ENDMDL
MODEL 5
REMARK minimizedAffinity -8.15319443
REMARK CNNscore 0.0448183306
REMARK CNNaffinity 6.37374926
REMARK SMILES CN1CCN(c2ccc3cc2COCC=CCOCc2cccc(c2)-c2ccnc(n2)N3)CC1
REMARK SMILES IDX 6 1 7 2 8 3 9 4 10 5 11 6 12 7 13 8 14 9 15 10 16 11 17 12
REMARK SMILES IDX 18 13 19 14 20 15 21 16 22 17 23 18 24 19 25 20 26 21 27 22
REMARK SMILES IDX 28 23 29 24 30 25 31 26 32 27 5 29 2 30 3 31 34 32 4 33
REMARK SMILES IDX 33 34 1 35
REMARK H PARENT 32 28
REMARK INDEX MAP 6 1 7 2 8 3 9 4 10 5 11 6 12 7 13 8 14 9 15 10 16 11 17 12
REMARK INDEX MAP 18 13 19 14 20 15 21 16 22 17 23 18 24 19 25 20 26 21 27 22
REMARK INDEX MAP 28 23 29 24 30 25 31 26 32 27 61 28 5 29 2 30 3 31 34 32 4 33
REMARK INDEX MAP 33 34 1 35
ROOT
ATOM      1  C   UNL     1       8.900 -26.321  24.452  1.00  0.00     0.042 A 
ATOM      2  C   UNL     1       7.829 -27.132  24.841  1.00  0.00     0.028 A 
ATOM      3  C   UNL     1       6.590 -27.047  24.201  1.00  0.00     0.028 A 
ATOM      4  C   UNL     1       6.371 -26.142  23.156  1.00  0.00     0.041 A 
ATOM      5  C   UNL     1       7.424 -25.300  22.797  1.00  0.00     0.034 A 
ATOM      6  C   UNL     1       8.693 -25.395  23.414  1.00  0.00     0.003 A 
ATOM      7  C   UNL     1       9.828 -24.540  22.896  1.00  0.00     0.198 C 
ATOM      8  O   UNL     1       9.422 -23.191  22.680  1.00  0.00    -0.373 OA
ATOM      9  C   UNL     1       9.505 -22.411  23.869  1.00  0.00     0.188 C 
ATOM     10  C   UNL     1       8.850 -21.112  23.550  1.00  0.00    -0.001 C 
ATOM     11  C   UNL     1       9.489 -19.946  23.354  1.00  0.00    -0.001 C 
ATOM     12  C   UNL     1       8.847 -18.662  22.909  1.00  0.00     0.188 C 
ATOM     13  O   UNL     1       7.480 -18.830  22.550  1.00  0.00    -0.373 OA
ATOM     14  C   UNL     1       7.315 -19.325  21.220  1.00  0.00     0.196 C 
ATOM     15  C   UNL     1       5.897 -19.813  21.077  1.00  0.00    -0.022 A 
ATOM     16  C   UNL     1       4.850 -18.888  20.999  1.00  0.00     0.006 A 
ATOM     17  C   UNL     1       3.534 -19.326  20.899  1.00  0.00     0.001 A 
ATOM     18  C   UNL     1       3.256 -20.694  20.876  1.00  0.00     0.010 A 
ATOM     19  C   UNL     1       4.280 -21.661  20.947  1.00  0.00     0.001 A 
ATOM     20  C   UNL     1       5.601 -21.191  21.061  1.00  0.00     0.016 A 
ATOM     21  C   UNL     1       3.971 -23.110  20.920  1.00  0.00     0.076 A 
ATOM     22  C   UNL     1       2.898 -23.607  20.201  1.00  0.00     0.049 A 
ATOM     23  C   UNL     1       2.647 -24.947  20.331  1.00  0.00     0.117 A 
ATOM     24  N   UNL     1       3.378 -25.759  21.106  1.00  0.00    -0.221 NA
ATOM     25  C   UNL     1       4.435 -25.221  21.739  1.00  0.00     0.227 A 
ATOM     26  N   UNL     1       4.766 -23.921  21.659  1.00  0.00    -0.213 NA
ATOM     27  N   UNL     1       5.115 -26.123  22.549  1.00  0.00    -0.324 N 
ATOM     28  H   UNL     1       4.577 -26.975  22.601  1.00  0.00     0.170 HD
ENDROOT
BRANCH   1  29
ATOM     29  N   UNL     1      10.147 -26.440  25.063  1.00  0.00    -0.369 N 
ATOM     30  N   UNL     1      12.460 -26.758  26.860  1.00  0.00    -0.303 NA
ATOM     31  C   UNL     1      11.952 -27.858  26.009  1.00  0.00     0.105 C 
ATOM     32  C   UNL     1      12.104 -25.464  26.232  1.00  0.00     0.105 C 
ATOM     33  C   UNL     1      10.457 -27.768  25.616  1.00  0.00     0.132 C 
ATOM     34  C   UNL     1      10.612 -25.293  25.855  1.00  0.00     0.132 C 
ATOM     35  C   UNL     1      11.944 -26.852  28.225  1.00  0.00     0.105 C 
ENDBRANCH   1  29
TORSDOF 1
ENDMDL
MODEL 6
REMARK minimizedAffinity -9.55979443
REMARK CNNscore 0.0321427695
REMARK CNNaffinity 4.51970053
REMARK SMILES CN1CCN(c2ccc3cc2COCC=CCOCc2cccc(c2)-c2ccnc(n2)N3)CC1
REMARK SMILES IDX 6 1 7 2 8 3 9 4 10 5 11 6 12 7 13 8 14 9 15 10 16 11 17 12
REMARK SMILES IDX 18 13 19 14 20 15 21 16 22 17 23 18 24 19 25 20 26 21 27 22
REMARK SMILES IDX 28 23 29 24 30 25 31 26 32 27 5 29 2 30 3 31 34 32 4 33
REMARK SMILES IDX 33 34 1 35
REMARK H PARENT 32 28
REMARK INDEX MAP 6 1 7 2 8 3 9 4 10 5 11 6 12 7 13 8 14 9 15 10 16 11 17 12
REMARK INDEX MAP 18 13 19 14 20 15 21 16 22 17 23 18 24 19 25 20 26 21 27 22
REMARK INDEX MAP 28 23 29 24 30 25 31 26 32 27 61 28 5 29 2 30 3 31 34 32 4 33
REMARK INDEX MAP 33 34 1 35
ROOT
ATOM      1  C   UNL     1       7.489 -21.851  21.929  1.00  0.00     0.042 A 
ATOM      2  C   UNL     1       7.563 -20.545  22.422  1.00  0.00     0.028 A 
ATOM      3  C   UNL     1       8.636 -20.133  23.216  1.00  0.00     0.028 A 
ATOM      4  C   UNL     1       9.671 -21.012  23.555  1.00  0.00     0.041 A 
ATOM      5  C   UNL     1       9.577 -22.328  23.102  1.00  0.00     0.034 A 
ATOM      6  C   UNL     1       8.512 -22.753  22.272  1.00  0.00     0.003 A 
ATOM      7  C   UNL     1       8.532 -24.158  21.713  1.00  0.00     0.198 C 
ATOM      8  O   UNL     1       8.871 -25.122  22.707  1.00  0.00    -0.373 OA
ATOM      9  C   UNL     1       7.734 -25.539  23.457  1.00  0.00     0.188 C 
ATOM     10  C   UNL     1       8.267 -26.358  24.581  1.00  0.00    -0.001 C 
ATOM     11  C   UNL     1       8.181 -27.696  24.678  1.00  0.00    -0.001 C 
ATOM     12  C   UNL     1       8.824 -28.539  25.743  1.00  0.00     0.188 C 
ATOM     13  O   UNL     1       9.693 -27.786  26.583  1.00  0.00    -0.373 OA
ATOM     14  C   UNL     1      10.988 -27.597  26.010  1.00  0.00     0.196 C 
ATOM     15  C   UNL     1      11.683 -26.504  26.780  1.00  0.00    -0.022 A 
ATOM     16  C   UNL     1      12.153 -26.758  28.073  1.00  0.00     0.006 A 
ATOM     17  C   UNL     1      12.767 -25.749  28.806  1.00  0.00     0.001 A 
ATOM     18  C   UNL     1      12.916 -24.477  28.250  1.00  0.00     0.010 A 
ATOM     19  C   UNL     1      12.461 -24.178  26.949  1.00  0.00     0.001 A 
ATOM     20  C   UNL     1      11.832 -25.213  26.235  1.00  0.00     0.016 A 
ATOM     21  C   UNL     1      12.628 -22.824  26.371  1.00  0.00     0.076 A 
ATOM     22  C   UNL     1      13.716 -22.031  26.687  1.00  0.00     0.049 A 
ATOM     23  C   UNL     1      13.714 -20.761  26.175  1.00  0.00     0.117 A 
ATOM     24  N   UNL     1      12.726 -20.281  25.410  1.00  0.00    -0.221 NA
ATOM     25  C   UNL     1      11.721 -21.119  25.101  1.00  0.00     0.227 A 
ATOM     26  N   UNL     1      11.647 -22.385  25.546  1.00  0.00    -0.213 NA
ATOM     27  N   UNL     1      10.721 -20.530  24.335  1.00  0.00    -0.324 N 
ATOM     28  H   UNL     1      10.896 -19.537  24.290  1.00  0.00     0.170 HD
ENDROOT
BRANCH   1  29
ATOM     29  N   UNL     1       6.439 -22.246  21.101  1.00  0.00    -0.369 N 
ATOM     30  N   UNL     1       4.086 -23.456  19.805  1.00  0.00    -0.303 NA
ATOM     31  C   UNL     1       4.042 -22.131  20.466  1.00  0.00     0.105 C 
ATOM     32  C   UNL     1       5.474 -23.720  19.357  1.00  0.00     0.105 C 
ATOM     33  C   UNL     1       5.091 -21.901  21.581  1.00  0.00     0.132 C 
ATOM     34  C   UNL     1       6.568 -23.552  20.439  1.00  0.00     0.132 C 
ATOM     35  C   UNL     1       3.597 -24.513  20.689  1.00  0.00     0.105 C 
ENDBRANCH   1  29
TORSDOF 1
ENDMDL
MODEL 7
REMARK minimizedAffinity -8.7826519
REMARK CNNscore 0.0263796896
REMARK CNNaffinity 4.55350542
REMARK SMILES CN1CCN(c2ccc3cc2COCC=CCOCc2cccc(c2)-c2ccnc(n2)N3)CC1
REMARK SMILES IDX 6 1 7 2 8 3 9 4 10 5 11 6 12 7 13 8 14 9 15 10 16 11 17 12
REMARK SMILES IDX 18 13 19 14 20 15 21 16 22 17 23 18 24 19 25 20 26 21 27 22
REMARK SMILES IDX 28 23 29 24 30 25 31 26 32 27 5 29 2 30 3 31 34 32 4 33
REMARK SMILES IDX 33 34 1 35
REMARK H PARENT 32 28
REMARK INDEX MAP 6 1 7 2 8 3 9 4 10 5 11 6 12 7 13 8 14 9 15 10 16 11 17 12
REMARK INDEX MAP 18 13 19 14 20 15 21 16 22 17 23 18 24 19 25 20 26 21 27 22
REMARK INDEX MAP 28 23 29 24 30 25 31 26 32 27 61 28 5 29 2 30 3 31 34 32 4 33
REMARK INDEX MAP 33 34 1 35
ROOT
ATOM      1  C   UNL     1      10.183 -20.526  22.168  1.00  0.00     0.042 A 
ATOM      2  C   UNL     1       9.835 -21.222  21.006  1.00  0.00     0.028 A 
ATOM      3  C   UNL     1       9.236 -22.482  21.072  1.00  0.00     0.028 A 
ATOM      4  C   UNL     1       8.970 -23.099  22.300  1.00  0.00     0.041 A 
ATOM      5  C   UNL     1       9.357 -22.427  23.460  1.00  0.00     0.034 A 
ATOM      6  C   UNL     1       9.938 -21.137  23.411  1.00  0.00     0.003 A 
ATOM      7  C   UNL     1      10.222 -20.410  24.706  1.00  0.00     0.198 C 
ATOM      8  O   UNL     1      10.848 -21.258  25.666  1.00  0.00    -0.373 OA
ATOM      9  C   UNL     1      12.261 -21.306  25.495  1.00  0.00     0.188 C 
ATOM     10  C   UNL     1      12.743 -22.382  26.405  1.00  0.00    -0.001 C 
ATOM     11  C   UNL     1      13.405 -22.187  27.559  1.00  0.00    -0.001 C 
ATOM     12  C   UNL     1      13.783 -23.259  28.542  1.00  0.00     0.188 C 
ATOM     13  O   UNL     1      13.225 -24.525  28.210  1.00  0.00    -0.373 OA
ATOM     14  C   UNL     1      11.870 -24.663  28.645  1.00  0.00     0.196 C 
ATOM     15  C   UNL     1      11.270 -25.848  27.936  1.00  0.00    -0.022 A 
ATOM     16  C   UNL     1      11.653 -27.142  28.304  1.00  0.00     0.006 A 
ATOM     17  C   UNL     1      11.131 -28.244  27.635  1.00  0.00     0.001 A 
ATOM     18  C   UNL     1      10.221 -28.059  26.592  1.00  0.00     0.010 A 
ATOM     19  C   UNL     1       9.805 -26.772  26.192  1.00  0.00     0.001 A 
ATOM     20  C   UNL     1      10.358 -25.675  26.876  1.00  0.00     0.016 A 
ATOM     21  C   UNL     1       8.836 -26.590  25.085  1.00  0.00     0.076 A 
ATOM     22  C   UNL     1       7.833 -27.511  24.841  1.00  0.00     0.049 A 
ATOM     23  C   UNL     1       7.062 -27.293  23.732  1.00  0.00     0.117 A 
ATOM     24  N   UNL     1       7.245 -26.256  22.904  1.00  0.00    -0.221 NA
ATOM     25  C   UNL     1       8.205 -25.372  23.224  1.00  0.00     0.227 A 
ATOM     26  N   UNL     1       9.001 -25.497  24.300  1.00  0.00    -0.213 NA
ATOM     27  N   UNL     1       8.353 -24.350  22.294  1.00  0.00    -0.324 N 
ATOM     28  H   UNL     1       7.790 -24.569  21.486  1.00  0.00     0.170 HD
ENDROOT
BRANCH   1  29
ATOM     29  N   UNL     1      10.741 -19.250  22.099  1.00  0.00    -0.369 N 
ATOM     30  N   UNL     1      11.667 -16.541  21.406  1.00  0.00    -0.303 NA
ATOM     31  C   UNL     1      10.503 -16.787  22.288  1.00  0.00     0.105 C 
ATOM     32  C   UNL     1      12.580 -17.705  21.484  1.00  0.00     0.105 C 
ATOM     33  C   UNL     1       9.777 -18.139  22.082  1.00  0.00     0.132 C 
ATOM     34  C   UNL     1      11.923 -19.086  21.242  1.00  0.00     0.132 C 
ATOM     35  C   UNL     1      11.251 -16.276  20.029  1.00  0.00     0.105 C 
ENDBRANCH   1  29
TORSDOF 1
ENDMDL
MODEL 8
REMARK minimizedAffinity -8.10034943
REMARK CNNscore 0.0261614844
REMARK CNNaffinity 4.96694994
REMARK SMILES CN1CCN(c2ccc3cc2COCC=CCOCc2cccc(c2)-c2ccnc(n2)N3)CC1
REMARK SMILES IDX 6 1 7 2 8 3 9 4 10 5 11 6 12 7 13 8 14 9 15 10 16 11 17 12
REMARK SMILES IDX 18 13 19 14 20 15 21 16 22 17 23 18 24 19 25 20 26 21 27 22
REMARK SMILES IDX 28 23 29 24 30 25 31 26 32 27 5 29 2 30 3 31 34 32 4 33
REMARK SMILES IDX 33 34 1 35
REMARK H PARENT 32 28
REMARK INDEX MAP 6 1 7 2 8 3 9 4 10 5 11 6 12 7 13 8 14 9 15 10 16 11 17 12
REMARK INDEX MAP 18 13 19 14 20 15 21 16 22 17 23 18 24 19 25 20 26 21 27 22
REMARK INDEX MAP 28 23 29 24 30 25 31 26 32 27 61 28 5 29 2 30 3 31 34 32 4 33
REMARK INDEX MAP 33 34 1 35
ROOT
ATOM      1  C   UNL     1       6.553 -26.511  23.226  1.00  0.00     0.042 A 
ATOM      2  C   UNL     1       7.166 -27.724  23.553  1.00  0.00     0.028 A 
ATOM      3  C   UNL     1       8.189 -27.782  24.502  1.00  0.00     0.028 A 
ATOM      4  C   UNL     1       8.645 -26.631  25.154  1.00  0.00     0.041 A 
ATOM      5  C   UNL     1       8.066 -25.413  24.797  1.00  0.00     0.034 A 
ATOM      6  C   UNL     1       7.008 -25.340  23.860  1.00  0.00     0.003 A 
ATOM      7  C   UNL     1       6.340 -24.008  23.607  1.00  0.00     0.198 C 
ATOM      8  O   UNL     1       7.291 -22.958  23.443  1.00  0.00    -0.373 OA
ATOM      9  C   UNL     1       7.761 -22.868  22.102  1.00  0.00     0.188 C 
ATOM     10  C   UNL     1       8.890 -21.897  22.132  1.00  0.00    -0.001 C 
ATOM     11  C   UNL     1       8.848 -20.640  21.658  1.00  0.00    -0.001 C 
ATOM     12  C   UNL     1       9.938 -19.615  21.797  1.00  0.00     0.188 C 
ATOM     13  O   UNL     1      10.997 -20.057  22.640  1.00  0.00    -0.373 OA
ATOM     14  C   UNL     1      10.710 -19.879  24.028  1.00  0.00     0.196 C 
ATOM     15  C   UNL     1      11.696 -20.699  24.818  1.00  0.00    -0.022 A 
ATOM     16  C   UNL     1      13.028 -20.281  24.910  1.00  0.00     0.006 A 
ATOM     17  C   UNL     1      13.956 -21.046  25.609  1.00  0.00     0.001 A 
ATOM     18  C   UNL     1      13.557 -22.235  26.222  1.00  0.00     0.010 A 
ATOM     19  C   UNL     1      12.224 -22.692  26.158  1.00  0.00     0.001 A 
ATOM     20  C   UNL     1      11.309 -21.906  25.434  1.00  0.00     0.016 A 
ATOM     21  C   UNL     1      11.814 -23.955  26.815  1.00  0.00     0.076 A 
ATOM     22  C   UNL     1      12.408 -24.388  27.987  1.00  0.00     0.049 A 
ATOM     23  C   UNL     1      12.022 -25.618  28.448  1.00  0.00     0.117 A 
ATOM     24  N   UNL     1      11.123 -26.387  27.820  1.00  0.00    -0.221 NA
ATOM     25  C   UNL     1      10.548 -25.887  26.713  1.00  0.00     0.227 A 
ATOM     26  N   UNL     1      10.854 -24.685  26.195  1.00  0.00    -0.213 NA
ATOM     27  N   UNL     1       9.657 -26.763  26.105  1.00  0.00    -0.324 N 
ATOM     28  H   UNL     1       9.736 -27.663  26.554  1.00  0.00     0.170 HD
ENDROOT
BRANCH   1  29
ATOM     29  N   UNL     1       5.502 -26.463  22.311  1.00  0.00    -0.369 N 
ATOM     30  N   UNL     1       3.045 -25.965  20.764  1.00  0.00    -0.303 NA
ATOM     31  C   UNL     1       4.344 -25.339  20.425  1.00  0.00     0.105 C 
ATOM     32  C   UNL     1       3.300 -27.239  21.477  1.00  0.00     0.105 C 
ATOM     33  C   UNL     1       5.343 -25.186  21.598  1.00  0.00     0.132 C 
ATOM     34  C   UNL     1       4.257 -27.144  22.690  1.00  0.00     0.132 C 
ATOM     35  C   UNL     1       2.206 -25.066  21.554  1.00  0.00     0.105 C 
ENDBRANCH   1  29
TORSDOF 1
ENDMDL
MODEL 9
REMARK minimizedAffinity -7.70676088
REMARK CNNscore 0.0252422374
REMARK CNNaffinity 4.77943182
REMARK SMILES CN1CCN(c2ccc3cc2COCC=CCOCc2cccc(c2)-c2ccnc(n2)N3)CC1
REMARK SMILES IDX 6 1 7 2 8 3 9 4 10 5 11 6 12 7 13 8 14 9 15 10 16 11 17 12
REMARK SMILES IDX 18 13 19 14 20 15 21 16 22 17 23 18 24 19 25 20 26 21 27 22
REMARK SMILES IDX 28 23 29 24 30 25 31 26 32 27 5 29 2 30 3 31 34 32 4 33
REMARK SMILES IDX 33 34 1 35
REMARK H PARENT 32 28
REMARK INDEX MAP 6 1 7 2 8 3 9 4 10 5 11 6 12 7 13 8 14 9 15 10 16 11 17 12
REMARK INDEX MAP 18 13 19 14 20 15 21 16 22 17 23 18 24 19 25 20 26 21 27 22
REMARK INDEX MAP 28 23 29 24 30 25 31 26 32 27 61 28 5 29 2 30 3 31 34 32 4 33
REMARK INDEX MAP 33 34 1 35
ROOT
ATOM      1  C   UNL     1       6.725 -25.414  22.616  1.00  0.00     0.042 A 
ATOM      2  C   UNL     1       7.047 -26.764  22.779  1.00  0.00     0.028 A 
ATOM      3  C   UNL     1       7.903 -27.184  23.800  1.00  0.00     0.028 A 
ATOM      4  C   UNL     1       8.477 -26.270  24.692  1.00  0.00     0.041 A 
ATOM      5  C   UNL     1       8.193 -24.917  24.503  1.00  0.00     0.034 A 
ATOM      6  C   UNL     1       7.305 -24.478  23.493  1.00  0.00     0.003 A 
ATOM      7  C   UNL     1       6.941 -23.013  23.419  1.00  0.00     0.198 C 
ATOM      8  O   UNL     1       8.088 -22.174  23.544  1.00  0.00    -0.373 OA
ATOM      9  C   UNL     1       8.743 -21.976  22.295  1.00  0.00     0.188 C 
ATOM     10  C   UNL     1      10.021 -21.280  22.613  1.00  0.00    -0.001 C 
ATOM     11  C   UNL     1      10.282 -19.983  22.371  1.00  0.00    -0.001 C 
ATOM     12  C   UNL     1      11.518 -19.246  22.802  1.00  0.00     0.188 C 
ATOM     13  O   UNL     1      12.351 -20.026  23.654  1.00  0.00    -0.373 OA
ATOM     14  C   UNL     1      11.918 -20.011  25.015  1.00  0.00     0.196 C 
ATOM     15  C   UNL     1      12.615 -21.133  25.739  1.00  0.00    -0.022 A 
ATOM     16  C   UNL     1      13.977 -21.023  26.039  1.00  0.00     0.006 A 
ATOM     17  C   UNL     1      14.640 -22.065  26.678  1.00  0.00     0.001 A 
ATOM     18  C   UNL     1      13.944 -23.225  27.023  1.00  0.00     0.010 A 
ATOM     19  C   UNL     1      12.569 -23.376  26.744  1.00  0.00     0.001 A 
ATOM     20  C   UNL     1      11.927 -22.313  26.085  1.00  0.00     0.016 A 
ATOM     21  C   UNL     1      11.842 -24.612  27.118  1.00  0.00     0.076 A 
ATOM     22  C   UNL     1      12.180 -25.338  28.246  1.00  0.00     0.049 A 
ATOM     23  C   UNL     1      11.509 -26.516  28.437  1.00  0.00     0.117 A 
ATOM     24  N   UNL     1      10.573 -26.971  27.593  1.00  0.00    -0.221 NA
ATOM     25  C   UNL     1      10.259 -26.195  26.542  1.00  0.00     0.227 A 
ATOM     26  N   UNL     1      10.854 -25.018  26.283  1.00  0.00    -0.213 NA
ATOM     27  N   UNL     1       9.308 -26.759  25.699  1.00  0.00    -0.324 N 
ATOM     28  H   UNL     1       9.154 -27.714  25.985  1.00  0.00     0.170 HD
ENDROOT
BRANCH   1  29
ATOM     29  N   UNL     1       5.836 -25.004  21.624  1.00  0.00    -0.369 N 
ATOM     30  N   UNL     1       4.008 -23.598  19.791  1.00  0.00    -0.303 NA
ATOM     31  C   UNL     1       5.412 -23.910  19.437  1.00  0.00     0.105 C 
ATOM     32  C   UNL     1       3.538 -24.583  20.793  1.00  0.00     0.105 C 
ATOM     33  C   UNL     1       6.386 -24.070  20.629  1.00  0.00     0.132 C 
ATOM     34  C   UNL     1       4.447 -24.756  22.035  1.00  0.00     0.132 C 
ATOM     35  C   UNL     1       3.869 -22.227  20.279  1.00  0.00     0.105 C 
ENDBRANCH   1  29
TORSDOF 1
ENDMDL
