REMARK SMILES Cn1cc(-c2cn3nccc3c(-c3cnn([C@]4(CC#N)C[C@@H](C#N)C4)c3)n2)nn1
REMARK SMILES IDX 5 1 6 2 7 3 8 4 9 5 10 6 11 7 12 8 27 9 4 10 2 11 3 12 29 13
REMARK SMILES IDX 28 14 1 15 13 16 14 17 26 18 15 19 16 20 17 21 21 22 25 23
REMARK SMILES IDX 22 24 23 25 24 26 18 27 19 28 20 29
REMARK H PARENT
REMARK INDEX MAP 5 1 6 2 7 3 8 4 9 5 10 6 11 7 12 8 27 9 4 10 2 11 3 12 29 13
REMARK INDEX MAP 28 14 1 15 13 16 14 17 26 18 15 19 16 20 17 21 21 22 25 23
REMARK INDEX MAP 22 24 23 25 24 26 18 27 19 28 20 29
ROOT
ATOM      1  C   UNL     1      -4.346  28.679 -30.362  1.00  0.00     0.111 A 
ATOM      2  C   UNL     1      -5.052  28.317 -31.449  1.00  0.00     0.144 A 
ATOM      3  N   UNL     1      -5.220  26.979 -31.739  1.00  0.00    -0.237 N 
ATOM      4  N   UNL     1      -5.875  26.421 -32.785  1.00  0.00    -0.176 NA
ATOM      5  C   UNL     1      -5.673  25.110 -32.647  1.00  0.00     0.136 A 
ATOM      6  C   UNL     1      -4.919  24.799 -31.505  1.00  0.00     0.052 A 
ATOM      7  C   UNL     1      -4.667  26.018 -30.914  1.00  0.00     0.093 A 
ATOM      8  C   UNL     1      -3.962  26.483 -29.751  1.00  0.00     0.100 A 
ATOM      9  N   UNL     1      -3.789  27.747 -29.496  1.00  0.00    -0.242 NA
ENDROOT
BRANCH   1  10
ATOM     10  C   UNL     1      -4.124  30.049 -30.009  1.00  0.00     0.133 A 
ATOM     11  N   UNL     1      -3.602  31.901 -29.049  1.00  0.00    -0.255 N 
ATOM     12  C   UNL     1      -3.573  30.555 -28.854  1.00  0.00     0.141 A 
ATOM     13  N   UNL     1      -4.136  32.219 -30.240  1.00  0.00    -0.067 NA
ATOM     14  N   UNL     1      -4.462  31.082 -30.844  1.00  0.00    -0.129 NA
ATOM     15  C   UNL     1      -3.149  32.938 -28.162  1.00  0.00     0.175 C 
ENDBRANCH   1  10
BRANCH   8  16
ATOM     16  C   UNL     1      -3.404  25.539 -28.806  1.00  0.00     0.040 A 
ATOM     17  C   UNL     1      -3.798  24.193 -28.602  1.00  0.00     0.145 A 
ATOM     18  C   UNL     1      -2.349  25.700 -27.927  1.00  0.00     0.119 A 
ATOM     19  N   UNL     1      -3.098  23.584 -27.641  1.00  0.00    -0.180 NA
ATOM     20  N   UNL     1      -2.208  24.514 -27.262  1.00  0.00    -0.265 N 
BRANCH  20  21
ATOM     21  C   UNL     1      -1.259  24.272 -26.135  1.00  0.00     0.078 C 
ATOM     22  C   UNL     1      -1.956  24.491 -24.753  1.00  0.00     0.050 C 
ATOM     23  C   UNL     1      -1.148  22.764 -25.745  1.00  0.00     0.050 C 
ATOM     24  C   UNL     1      -1.388  23.140 -24.263  1.00  0.00     0.097 C 
ATOM     25  C   UNL     1      -0.199  23.222 -23.438  1.00  0.00     0.066 C 
ATOM     26  N   UNL     1       0.768  23.309 -22.805  1.00  0.00    -0.198 NA
BRANCH  21  27
ATOM     27  C   UNL     1       0.028  25.079 -26.340  1.00  0.00     0.150 C 
ATOM     28  C   UNL     1       0.208  26.088 -25.286  1.00  0.00     0.065 C 
ATOM     29  N   UNL     1       0.296  26.863 -24.428  1.00  0.00    -0.198 NA
ENDBRANCH  21  27
ENDBRANCH  20  21
ENDBRANCH   8  16
TORSDOF 4
