MODEL 1
REMARK VINA RESULT:   -11.971      0.000      0.000
REMARK INTER + INTRA:         -16.746
REMARK INTER:                 -16.170
REMARK INTRA:                  -0.576
REMARK UNBOUND:                -0.576
REMARK SMILES COc1cc2c(cc1OC)C(=O)[C@@H](CC1CCN(Cc3cccc(Cl)c3)CC1)C2
REMARK SMILES IDX 15 1 16 2 17 3 18 4 27 5 28 6 14 7 13 8 3 9 4 10 8 11 5 12
REMARK SMILES IDX 7 13 6 14 29 15 11 16 12 17 2 18 1 19 9 20 10 21 19 22 20 23
REMARK SMILES IDX 21 24 26 25 22 26 24 27 23 28 25 29
REMARK H PARENT
ROOT
ATOM      1  C   UNL     1     -12.682 -44.197  27.298  1.00  0.00    -0.008 C 
ATOM      2  C   UNL     1     -11.507 -43.541  28.034  1.00  0.00     0.019 C 
ATOM      3  C   UNL     1     -10.721 -44.561  28.863  1.00  0.00     0.085 C 
ATOM      4  N   UNL     1     -11.590 -45.262  29.818  1.00  0.00    -0.299 NA
ATOM      5  C   UNL     1     -12.670 -45.970  29.115  1.00  0.00     0.085 C 
ATOM      6  C   UNL     1     -13.526 -44.997  28.302  1.00  0.00     0.019 C 
ENDROOT
BRANCH   1   7
ATOM      7  C   UNL     1     -13.570 -43.172  26.565  1.00  0.00     0.016 C 
BRANCH   7   8
ATOM      8  C   UNL     1     -14.976 -43.669  26.220  1.00  0.00     0.066 C 
ATOM      9  C   UNL     1     -19.135 -41.779  24.913  1.00  0.00     0.161 A 
ATOM     10  C   UNL     1     -18.367 -42.049  26.057  1.00  0.00     0.055 A 
ATOM     11  C   UNL     1     -18.621 -42.064  23.618  1.00  0.00     0.161 A 
ATOM     12  C   UNL     1     -17.105 -42.603  25.900  1.00  0.00    -0.033 A 
ATOM     13  C   UNL     1     -17.345 -42.616  23.475  1.00  0.00     0.062 A 
ATOM     14  C   UNL     1     -16.625 -42.872  24.628  1.00  0.00     0.025 A 
ATOM     15  C   UNL     1     -16.109 -42.927  26.967  1.00  0.00     0.048 C 
ATOM     16  C   UNL     1     -15.294 -43.450  24.751  1.00  0.00     0.166 C 
ATOM     17  O   UNL     1     -14.589 -43.732  23.798  1.00  0.00    -0.294 OA
BRANCH   9  18
ATOM     18  O   UNL     1     -20.398 -41.235  24.945  1.00  0.00    -0.493 OA
ATOM     19  C   UNL     1     -21.108 -41.282  26.174  1.00  0.00     0.278 C 
ENDBRANCH   9  18
BRANCH  11  20
ATOM     20  O   UNL     1     -19.451 -41.761  22.565  1.00  0.00    -0.493 OA
ATOM     21  C   UNL     1     -19.116 -40.633  21.767  1.00  0.00     0.278 C 
ENDBRANCH  11  20
ENDBRANCH   7   8
ENDBRANCH   1   7
BRANCH   4  22
ATOM     22  C   UNL     1     -10.790 -46.183  30.646  1.00  0.00     0.120 C 
BRANCH  22  23
ATOM     23  C   UNL     1      -9.576 -45.529  31.272  1.00  0.00    -0.032 A 
ATOM     24  C   UNL     1      -8.289 -46.031  31.024  1.00  0.00     0.005 A 
ATOM     25  C   UNL     1      -9.720 -44.427  32.127  1.00  0.00     0.025 A 
ATOM     26  C   UNL     1      -7.168 -45.439  31.610  1.00  0.00     0.002 A 
ATOM     27  C   UNL     1      -8.597 -43.839  32.709  1.00  0.00     0.041 A 
ATOM     28  C   UNL     1      -7.322 -44.340  32.454  1.00  0.00     0.020 A 
ATOM     29  Cl  UNL     1      -8.788 -42.483  33.752  1.00  0.00    -0.084 Cl
ENDBRANCH  22  23
ENDBRANCH   4  22
TORSDOF 6
ENDMDL
MODEL 2
REMARK VINA RESULT:   -11.274      1.042      1.528
REMARK INTER + INTRA:         -15.804
REMARK INTER:                 -15.187
REMARK INTRA:                  -0.617
REMARK UNBOUND:                -0.576
REMARK SMILES COc1cc2c(cc1OC)C(=O)[C@@H](CC1CCN(Cc3cccc(Cl)c3)CC1)C2
REMARK SMILES IDX 15 1 16 2 17 3 18 4 27 5 28 6 14 7 13 8 3 9 4 10 8 11 5 12
REMARK SMILES IDX 7 13 6 14 29 15 11 16 12 17 2 18 1 19 9 20 10 21 19 22 20 23
REMARK SMILES IDX 21 24 26 25 22 26 24 27 23 28 25 29
REMARK H PARENT
ROOT
ATOM      1  C   UNL     1     -12.947 -43.680  26.965  1.00  0.00    -0.008 C 
ATOM      2  C   UNL     1     -11.865 -42.851  27.670  1.00  0.00     0.019 C 
ATOM      3  C   UNL     1     -11.009 -43.717  28.599  1.00  0.00     0.085 C 
ATOM      4  N   UNL     1     -11.834 -44.422  29.589  1.00  0.00    -0.299 NA
ATOM      5  C   UNL     1     -12.818 -45.289  28.923  1.00  0.00     0.085 C 
ATOM      6  C   UNL     1     -13.739 -44.476  28.013  1.00  0.00     0.019 C 
ENDROOT
BRANCH   1   7
ATOM      7  C   UNL     1     -13.908 -42.811  26.129  1.00  0.00     0.016 C 
BRANCH   7   8
ATOM      8  C   UNL     1     -15.310 -43.398  25.944  1.00  0.00     0.066 C 
ATOM      9  C   UNL     1     -19.726 -41.775  25.281  1.00  0.00     0.161 A 
ATOM     10  C   UNL     1     -18.797 -42.031  26.301  1.00  0.00     0.055 A 
ATOM     11  C   UNL     1     -19.370 -41.968  23.917  1.00  0.00     0.161 A 
ATOM     12  C   UNL     1     -17.532 -42.483  25.955  1.00  0.00    -0.033 A 
ATOM     13  C   UNL     1     -18.089 -42.418  23.583  1.00  0.00     0.062 A 
ATOM     14  C   UNL     1     -17.207 -42.664  24.620  1.00  0.00     0.025 A 
ATOM     15  C   UNL     1     -16.382 -42.772  26.867  1.00  0.00     0.048 C 
ATOM     16  C   UNL     1     -15.835 -43.145  24.541  1.00  0.00     0.166 C 
ATOM     17  O   UNL     1     -15.244 -43.335  23.492  1.00  0.00    -0.294 OA
BRANCH   9  18
ATOM     18  O   UNL     1     -21.008 -41.329  25.502  1.00  0.00    -0.493 OA
ATOM     19  C   UNL     1     -21.338 -40.884  26.810  1.00  0.00     0.278 C 
ENDBRANCH   9  18
BRANCH  11  20
ATOM     20  O   UNL     1     -20.351 -41.687  22.996  1.00  0.00    -0.493 OA
ATOM     21  C   UNL     1     -19.952 -41.079  21.775  1.00  0.00     0.278 C 
ENDBRANCH  11  20
ENDBRANCH   7   8
ENDBRANCH   1   7
BRANCH   4  22
ATOM     22  C   UNL     1     -10.974 -45.188  30.509  1.00  0.00     0.120 C 
BRANCH  22  23
ATOM     23  C   UNL     1     -10.355 -44.339  31.601  1.00  0.00    -0.032 A 
ATOM     24  C   UNL     1     -11.161 -43.535  32.421  1.00  0.00     0.005 A 
ATOM     25  C   UNL     1      -8.966 -44.327  31.794  1.00  0.00     0.025 A 
ATOM     26  C   UNL     1     -10.593 -42.741  33.420  1.00  0.00     0.002 A 
ATOM     27  C   UNL     1      -8.405 -43.532  32.793  1.00  0.00     0.041 A 
ATOM     28  C   UNL     1      -9.212 -42.739  33.607  1.00  0.00     0.020 A 
ATOM     29  Cl  UNL     1      -6.698 -43.530  33.023  1.00  0.00    -0.084 Cl
ENDBRANCH  22  23
ENDBRANCH   4  22
TORSDOF 6
ENDMDL
MODEL 3
REMARK VINA RESULT:   -11.076      1.713      2.928
REMARK INTER + INTRA:         -15.537
REMARK INTER:                 -15.738
REMARK INTRA:                   0.202
REMARK UNBOUND:                -0.576
REMARK SMILES COc1cc2c(cc1OC)C(=O)[C@@H](CC1CCN(Cc3cccc(Cl)c3)CC1)C2
REMARK SMILES IDX 15 1 16 2 17 3 18 4 27 5 28 6 14 7 13 8 3 9 4 10 8 11 5 12
REMARK SMILES IDX 7 13 6 14 29 15 11 16 12 17 2 18 1 19 9 20 10 21 19 22 20 23
REMARK SMILES IDX 21 24 26 25 22 26 24 27 23 28 25 29
REMARK H PARENT
ROOT
ATOM      1  C   UNL     1     -13.102 -44.787  27.926  1.00  0.00    -0.008 C 
ATOM      2  C   UNL     1     -12.688 -46.198  28.362  1.00  0.00     0.019 C 
ATOM      3  C   UNL     1     -11.979 -46.184  29.719  1.00  0.00     0.085 C 
ATOM      4  N   UNL     1     -10.810 -45.295  29.706  1.00  0.00    -0.299 NA
ATOM      5  C   UNL     1     -11.208 -43.918  29.376  1.00  0.00     0.085 C 
ATOM      6  C   UNL     1     -11.883 -43.855  28.005  1.00  0.00     0.019 C 
ENDROOT
BRANCH   1   7
ATOM      7  C   UNL     1     -13.696 -44.755  26.504  1.00  0.00     0.016 C 
BRANCH   7   8
ATOM      8  C   UNL     1     -14.353 -43.430  26.110  1.00  0.00     0.066 C 
ATOM      9  C   UNL     1     -18.302 -42.005  23.884  1.00  0.00     0.161 A 
ATOM     10  C   UNL     1     -16.996 -42.447  23.620  1.00  0.00     0.055 A 
ATOM     11  C   UNL     1     -18.786 -41.949  25.221  1.00  0.00     0.161 A 
ATOM     12  C   UNL     1     -16.188 -42.820  24.684  1.00  0.00    -0.033 A 
ATOM     13  C   UNL     1     -17.962 -42.334  26.282  1.00  0.00     0.062 A 
ATOM     14  C   UNL     1     -16.682 -42.758  25.978  1.00  0.00     0.025 A 
ATOM     15  C   UNL     1     -14.794 -43.360  24.629  1.00  0.00     0.048 C 
ATOM     16  C   UNL     1     -15.635 -43.195  26.891  1.00  0.00     0.166 C 
ATOM     17  O   UNL     1     -15.792 -43.310  28.094  1.00  0.00    -0.294 OA
BRANCH   9  18
ATOM     18  O   UNL     1     -19.190 -41.606  22.913  1.00  0.00    -0.493 OA
ATOM     19  C   UNL     1     -18.841 -40.484  22.116  1.00  0.00     0.278 C 
ENDBRANCH   9  18
BRANCH  11  20
ATOM     20  O   UNL     1     -20.078 -41.504  25.371  1.00  0.00    -0.493 OA
ATOM     21  C   UNL     1     -20.535 -41.248  26.692  1.00  0.00     0.278 C 
ENDBRANCH  11  20
ENDBRANCH   7   8
ENDBRANCH   1   7
BRANCH   4  22
ATOM     22  C   UNL     1     -10.112 -45.359  31.002  1.00  0.00     0.120 C 
BRANCH  22  23
ATOM     23  C   UNL     1     -10.496 -44.240  31.948  1.00  0.00    -0.032 A 
ATOM     24  C   UNL     1      -9.511 -43.544  32.666  1.00  0.00     0.005 A 
ATOM     25  C   UNL     1     -11.843 -43.897  32.139  1.00  0.00     0.025 A 
ATOM     26  C   UNL     1      -9.862 -42.520  33.549  1.00  0.00     0.002 A 
ATOM     27  C   UNL     1     -12.187 -42.873  33.022  1.00  0.00     0.041 A 
ATOM     28  C   UNL     1     -11.203 -42.184  33.727  1.00  0.00     0.020 A 
ATOM     29  Cl  UNL     1     -13.844 -42.459  33.242  1.00  0.00    -0.084 Cl
ENDBRANCH  22  23
ENDBRANCH   4  22
TORSDOF 6
ENDMDL
MODEL 4
REMARK VINA RESULT:   -10.774      2.245      3.647
REMARK INTER + INTRA:         -15.129
REMARK INTER:                 -14.827
REMARK INTRA:                  -0.303
REMARK UNBOUND:                -0.576
REMARK SMILES COc1cc2c(cc1OC)C(=O)[C@@H](CC1CCN(Cc3cccc(Cl)c3)CC1)C2
REMARK SMILES IDX 15 1 16 2 17 3 18 4 27 5 28 6 14 7 13 8 3 9 4 10 8 11 5 12
REMARK SMILES IDX 7 13 6 14 29 15 11 16 12 17 2 18 1 19 9 20 10 21 19 22 20 23
REMARK SMILES IDX 21 24 26 25 22 26 24 27 23 28 25 29
REMARK H PARENT
ROOT
ATOM      1  C   UNL     1     -15.469 -43.263  25.354  1.00  0.00    -0.008 C 
ATOM      2  C   UNL     1     -14.189 -44.107  25.305  1.00  0.00     0.019 C 
ATOM      3  C   UNL     1     -14.050 -44.993  26.547  1.00  0.00     0.085 C 
ATOM      4  N   UNL     1     -14.086 -44.197  27.782  1.00  0.00    -0.299 NA
ATOM      5  C   UNL     1     -15.350 -43.451  27.882  1.00  0.00     0.085 C 
ATOM      6  C   UNL     1     -15.528 -42.509  26.691  1.00  0.00     0.019 C 
ENDROOT
BRANCH   1   7
ATOM      7  C   UNL     1     -15.566 -42.265  24.183  1.00  0.00     0.016 C 
BRANCH   7   8
ATOM      8  C   UNL     1     -16.807 -42.426  23.301  1.00  0.00     0.066 C 
ATOM      9  C   UNL     1     -20.942 -40.183  22.632  1.00  0.00     0.161 A 
ATOM     10  C   UNL     1     -20.334 -41.130  23.471  1.00  0.00     0.055 A 
ATOM     11  C   UNL     1     -20.190 -39.541  21.608  1.00  0.00     0.161 A 
ATOM     12  C   UNL     1     -18.994 -41.433  23.278  1.00  0.00    -0.033 A 
ATOM     13  C   UNL     1     -18.839 -39.852  21.430  1.00  0.00     0.062 A 
ATOM     14  C   UNL     1     -18.282 -40.795  22.275  1.00  0.00     0.025 A 
ATOM     15  C   UNL     1     -18.144 -42.368  24.078  1.00  0.00     0.048 C 
ATOM     16  C   UNL     1     -16.916 -41.298  22.289  1.00  0.00     0.166 C 
ATOM     17  O   UNL     1     -16.033 -40.878  21.562  1.00  0.00    -0.294 OA
BRANCH   9  18
ATOM     18  O   UNL     1     -22.261 -39.806  22.725  1.00  0.00    -0.493 OA
ATOM     19  C   UNL     1     -22.941 -40.073  23.943  1.00  0.00     0.278 C 
ENDBRANCH   9  18
BRANCH  11  20
ATOM     20  O   UNL     1     -20.878 -38.629  20.843  1.00  0.00    -0.493 OA
ATOM     21  C   UNL     1     -20.845 -38.797  19.433  1.00  0.00     0.278 C 
ENDBRANCH  11  20
ENDBRANCH   7   8
ENDBRANCH   1   7
BRANCH   4  22
ATOM     22  C   UNL     1     -13.880 -45.070  28.951  1.00  0.00     0.120 C 
BRANCH  22  23
ATOM     23  C   UNL     1     -12.434 -45.475  29.151  1.00  0.00    -0.032 A 
ATOM     24  C   UNL     1     -11.772 -46.252  28.187  1.00  0.00     0.005 A 
ATOM     25  C   UNL     1     -11.742 -45.101  30.312  1.00  0.00     0.025 A 
ATOM     26  C   UNL     1     -10.443 -46.638  28.374  1.00  0.00     0.002 A 
ATOM     27  C   UNL     1     -10.414 -45.490  30.492  1.00  0.00     0.041 A 
ATOM     28  C   UNL     1      -9.762 -46.257  29.529  1.00  0.00     0.020 A 
ATOM     29  Cl  UNL     1      -9.575 -45.019  31.920  1.00  0.00    -0.084 Cl
ENDBRANCH  22  23
ENDBRANCH   4  22
TORSDOF 6
ENDMDL
MODEL 5
REMARK VINA RESULT:   -10.362      1.550      2.831
REMARK INTER + INTRA:         -14.573
REMARK INTER:                 -15.099
REMARK INTRA:                   0.527
REMARK UNBOUND:                -0.576
REMARK SMILES COc1cc2c(cc1OC)C(=O)[C@@H](CC1CCN(Cc3cccc(Cl)c3)CC1)C2
REMARK SMILES IDX 15 1 16 2 17 3 18 4 27 5 28 6 14 7 13 8 3 9 4 10 8 11 5 12
REMARK SMILES IDX 7 13 6 14 29 15 11 16 12 17 2 18 1 19 9 20 10 21 19 22 20 23
REMARK SMILES IDX 21 24 26 25 22 26 24 27 23 28 25 29
REMARK H PARENT
ROOT
ATOM      1  C   UNL     1     -13.399 -44.396  27.313  1.00  0.00    -0.008 C 
ATOM      2  C   UNL     1     -12.809 -45.763  27.679  1.00  0.00     0.019 C 
ATOM      3  C   UNL     1     -11.870 -45.668  28.885  1.00  0.00     0.085 C 
ATOM      4  N   UNL     1     -10.793 -44.696  28.653  1.00  0.00    -0.299 NA
ATOM      5  C   UNL     1     -11.347 -43.359  28.389  1.00  0.00     0.085 C 
ATOM      6  C   UNL     1     -12.261 -43.376  27.163  1.00  0.00     0.019 C 
ENDROOT
BRANCH   1   7
ATOM      7  C   UNL     1     -14.241 -44.439  26.022  1.00  0.00     0.016 C 
BRANCH   7   8
ATOM      8  C   UNL     1     -14.954 -43.129  25.675  1.00  0.00     0.066 C 
ATOM      9  C   UNL     1     -19.148 -41.795  23.886  1.00  0.00     0.161 A 
ATOM     10  C   UNL     1     -17.877 -42.233  23.483  1.00  0.00     0.055 A 
ATOM     11  C   UNL     1     -19.476 -41.709  25.267  1.00  0.00     0.161 A 
ATOM     12  C   UNL     1     -16.948 -42.572  24.456  1.00  0.00    -0.033 A 
ATOM     13  C   UNL     1     -18.531 -42.060  26.236  1.00  0.00     0.062 A 
ATOM     14  C   UNL     1     -17.289 -42.481  25.796  1.00  0.00     0.025 A 
ATOM     15  C   UNL     1     -15.563 -43.101  24.253  1.00  0.00     0.048 C 
ATOM     16  C   UNL     1     -16.140 -42.885  26.592  1.00  0.00     0.166 C 
ATOM     17  O   UNL     1     -16.155 -42.970  27.808  1.00  0.00    -0.294 OA
BRANCH   9  18
ATOM     18  O   UNL     1     -20.147 -41.429  23.015  1.00  0.00    -0.493 OA
ATOM     19  C   UNL     1     -20.626 -42.410  22.106  1.00  0.00     0.278 C 
ENDBRANCH   9  18
BRANCH  11  20
ATOM     20  O   UNL     1     -20.747 -41.270  25.555  1.00  0.00    -0.493 OA
ATOM     21  C   UNL     1     -21.364 -41.773  26.732  1.00  0.00     0.278 C 
ENDBRANCH  11  20
ENDBRANCH   7   8
ENDBRANCH   1   7
BRANCH   4  22
ATOM     22  C   UNL     1      -9.870 -44.680  29.802  1.00  0.00     0.120 C 
BRANCH  22  23
ATOM     23  C   UNL     1     -10.448 -44.004  31.028  1.00  0.00    -0.032 A 
ATOM     24  C   UNL     1     -11.836 -43.850  31.168  1.00  0.00     0.005 A 
ATOM     25  C   UNL     1      -9.606 -43.502  32.030  1.00  0.00     0.025 A 
ATOM     26  C   UNL     1     -12.373 -43.216  32.291  1.00  0.00     0.002 A 
ATOM     27  C   UNL     1     -10.148 -42.870  33.150  1.00  0.00     0.041 A 
ATOM     28  C   UNL     1     -11.527 -42.725  33.284  1.00  0.00     0.020 A 
ATOM     29  Cl  UNL     1      -9.102 -42.263  34.376  1.00  0.00    -0.084 Cl
ENDBRANCH  22  23
ENDBRANCH   4  22
TORSDOF 6
ENDMDL
MODEL 6
REMARK VINA RESULT:   -10.114      4.652     11.126
REMARK INTER + INTRA:         -14.238
REMARK INTER:                 -14.002
REMARK INTRA:                  -0.236
REMARK UNBOUND:                -0.576
REMARK SMILES COc1cc2c(cc1OC)C(=O)[C@@H](CC1CCN(Cc3cccc(Cl)c3)CC1)C2
REMARK SMILES IDX 15 1 16 2 17 3 18 4 27 5 28 6 14 7 13 8 3 9 4 10 8 11 5 12
REMARK SMILES IDX 7 13 6 14 29 15 11 16 12 17 2 18 1 19 9 20 10 21 19 22 20 23
REMARK SMILES IDX 21 24 26 25 22 26 24 27 23 28 25 29
REMARK H PARENT
ROOT
ATOM      1  C   UNL     1     -15.863 -43.001  24.592  1.00  0.00    -0.008 C 
ATOM      2  C   UNL     1     -16.593 -43.240  23.264  1.00  0.00     0.019 C 
ATOM      3  C   UNL     1     -17.779 -42.287  23.093  1.00  0.00     0.085 C 
ATOM      4  N   UNL     1     -18.721 -42.393  24.216  1.00  0.00    -0.299 NA
ATOM      5  C   UNL     1     -18.052 -42.077  25.487  1.00  0.00     0.085 C 
ATOM      6  C   UNL     1     -16.881 -43.028  25.742  1.00  0.00     0.019 C 
ENDROOT
BRANCH   1   7
ATOM      7  C   UNL     1     -14.749 -44.035  24.852  1.00  0.00     0.016 C 
BRANCH   7   8
ATOM      8  C   UNL     1     -14.408 -44.255  26.328  1.00  0.00     0.066 C 
ATOM      9  C   UNL     1     -10.625 -45.557  28.891  1.00  0.00     0.161 A 
ATOM     10  C   UNL     1     -11.681 -46.103  28.145  1.00  0.00     0.055 A 
ATOM     11  C   UNL     1     -10.454 -44.147  28.972  1.00  0.00     0.161 A 
ATOM     12  C   UNL     1     -12.556 -45.243  27.497  1.00  0.00    -0.033 A 
ATOM     13  C   UNL     1     -11.341 -43.293  28.308  1.00  0.00     0.062 A 
ATOM     14  C   UNL     1     -12.370 -43.873  27.590  1.00  0.00     0.025 A 
ATOM     15  C   UNL     1     -13.712 -45.606  26.619  1.00  0.00     0.048 C 
ATOM     16  C   UNL     1     -13.423 -43.214  26.830  1.00  0.00     0.166 C 
ATOM     17  O   UNL     1     -13.488 -42.007  26.671  1.00  0.00    -0.294 OA
BRANCH   9  18
ATOM     18  O   UNL     1      -9.699 -46.307  29.577  1.00  0.00    -0.493 OA
ATOM     19  C   UNL     1      -9.966 -46.605  30.940  1.00  0.00     0.278 C 
ENDBRANCH   9  18
BRANCH  11  20
ATOM     20  O   UNL     1      -9.389 -43.715  29.725  1.00  0.00    -0.493 OA
ATOM     21  C   UNL     1      -8.466 -42.826  29.110  1.00  0.00     0.278 C 
ENDBRANCH  11  20
ENDBRANCH   7   8
ENDBRANCH   1   7
BRANCH   4  22
ATOM     22  C   UNL     1     -19.883 -41.516  23.985  1.00  0.00     0.120 C 
BRANCH  22  23
ATOM     23  C   UNL     1     -20.274 -41.408  22.525  1.00  0.00    -0.032 A 
ATOM     24  C   UNL     1     -20.788 -42.521  21.841  1.00  0.00     0.005 A 
ATOM     25  C   UNL     1     -20.107 -40.203  21.829  1.00  0.00     0.025 A 
ATOM     26  C   UNL     1     -21.138 -42.429  20.492  1.00  0.00     0.002 A 
ATOM     27  C   UNL     1     -20.458 -40.117  20.481  1.00  0.00     0.041 A 
ATOM     28  C   UNL     1     -20.972 -41.225  19.810  1.00  0.00     0.020 A 
ATOM     29  Cl  UNL     1     -20.253 -38.629  19.639  1.00  0.00    -0.084 Cl
ENDBRANCH  22  23
ENDBRANCH   4  22
TORSDOF 6
ENDMDL
MODEL 7
REMARK VINA RESULT:    -9.990      2.524      3.614
REMARK INTER + INTRA:         -14.070
REMARK INTER:                 -13.354
REMARK INTRA:                  -0.717
REMARK UNBOUND:                -0.576
REMARK SMILES COc1cc2c(cc1OC)C(=O)[C@@H](CC1CCN(Cc3cccc(Cl)c3)CC1)C2
REMARK SMILES IDX 15 1 16 2 17 3 18 4 27 5 28 6 14 7 13 8 3 9 4 10 8 11 5 12
REMARK SMILES IDX 7 13 6 14 29 15 11 16 12 17 2 18 1 19 9 20 10 21 19 22 20 23
REMARK SMILES IDX 21 24 26 25 22 26 24 27 23 28 25 29
REMARK H PARENT
ROOT
ATOM      1  C   UNL     1     -15.228 -43.402  25.599  1.00  0.00    -0.008 C 
ATOM      2  C   UNL     1     -13.881 -44.134  25.666  1.00  0.00     0.019 C 
ATOM      3  C   UNL     1     -13.772 -45.000  26.924  1.00  0.00     0.085 C 
ATOM      4  N   UNL     1     -13.979 -44.205  28.143  1.00  0.00    -0.299 NA
ATOM      5  C   UNL     1     -15.305 -43.570  28.130  1.00  0.00     0.085 C 
ATOM      6  C   UNL     1     -15.463 -42.651  26.918  1.00  0.00     0.019 C 
ENDROOT
BRANCH   1   7
ATOM      7  C   UNL     1     -15.311 -42.420  24.413  1.00  0.00     0.016 C 
BRANCH   7   8
ATOM      8  C   UNL     1     -16.518 -42.623  23.493  1.00  0.00     0.066 C 
ATOM      9  C   UNL     1     -20.707 -40.525  22.698  1.00  0.00     0.161 A 
ATOM     10  C   UNL     1     -20.092 -41.452  23.555  1.00  0.00     0.055 A 
ATOM     11  C   UNL     1     -19.947 -39.856  21.699  1.00  0.00     0.161 A 
ATOM     12  C   UNL     1     -18.737 -41.707  23.404  1.00  0.00    -0.033 A 
ATOM     13  C   UNL     1     -18.581 -40.118  21.562  1.00  0.00     0.062 A 
ATOM     14  C   UNL     1     -18.017 -41.043  22.423  1.00  0.00     0.025 A 
ATOM     15  C   UNL     1     -17.879 -42.614  24.228  1.00  0.00     0.048 C 
ATOM     16  C   UNL     1     -16.636 -41.498  22.479  1.00  0.00     0.166 C 
ATOM     17  O   UNL     1     -15.746 -41.046  21.780  1.00  0.00    -0.294 OA
BRANCH   9  18
ATOM     18  O   UNL     1     -22.040 -40.195  22.751  1.00  0.00    -0.493 OA
ATOM     19  C   UNL     1     -22.880 -40.964  23.599  1.00  0.00     0.278 C 
ENDBRANCH   9  18
BRANCH  11  20
ATOM     20  O   UNL     1     -20.642 -38.966  20.914  1.00  0.00    -0.493 OA
ATOM     21  C   UNL     1     -20.636 -39.186  19.510  1.00  0.00     0.278 C 
ENDBRANCH  11  20
ENDBRANCH   7   8
ENDBRANCH   1   7
BRANCH   4  22
ATOM     22  C   UNL     1     -13.797 -45.053  29.335  1.00  0.00     0.120 C 
BRANCH  22  23
ATOM     23  C   UNL     1     -13.144 -44.329  30.494  1.00  0.00    -0.032 A 
ATOM     24  C   UNL     1     -11.761 -44.089  30.496  1.00  0.00     0.005 A 
ATOM     25  C   UNL     1     -13.906 -43.908  31.593  1.00  0.00     0.025 A 
ATOM     26  C   UNL     1     -11.153 -43.433  31.568  1.00  0.00     0.002 A 
ATOM     27  C   UNL     1     -13.293 -43.252  32.661  1.00  0.00     0.041 A 
ATOM     28  C   UNL     1     -11.920 -43.014  32.654  1.00  0.00     0.020 A 
ATOM     29  Cl  UNL     1     -14.242 -42.736  34.002  1.00  0.00    -0.084 Cl
ENDBRANCH  22  23
ENDBRANCH   4  22
TORSDOF 6
ENDMDL
MODEL 8
REMARK VINA RESULT:    -9.816      4.558     11.107
REMARK INTER + INTRA:         -13.835
REMARK INTER:                 -13.222
REMARK INTRA:                  -0.613
REMARK UNBOUND:                -0.576
REMARK SMILES COc1cc2c(cc1OC)C(=O)[C@@H](CC1CCN(Cc3cccc(Cl)c3)CC1)C2
REMARK SMILES IDX 15 1 16 2 17 3 18 4 27 5 28 6 14 7 13 8 3 9 4 10 8 11 5 12
REMARK SMILES IDX 7 13 6 14 29 15 11 16 12 17 2 18 1 19 9 20 10 21 19 22 20 23
REMARK SMILES IDX 21 24 26 25 22 26 24 27 23 28 25 29
REMARK H PARENT
ROOT
ATOM      1  C   UNL     1     -15.526 -43.023  25.822  1.00  0.00    -0.008 C 
ATOM      2  C   UNL     1     -16.938 -42.533  26.170  1.00  0.00     0.019 C 
ATOM      3  C   UNL     1     -17.922 -42.792  25.027  1.00  0.00     0.085 C 
ATOM      4  N   UNL     1     -17.466 -42.176  23.774  1.00  0.00    -0.299 NA
ATOM      5  C   UNL     1     -16.151 -42.705  23.383  1.00  0.00     0.085 C 
ATOM      6  C   UNL     1     -15.106 -42.436  24.467  1.00  0.00     0.019 C 
ENDROOT
BRANCH   1   7
ATOM      7  C   UNL     1     -14.487 -42.652  26.900  1.00  0.00     0.016 C 
BRANCH   7   8
ATOM      8  C   UNL     1     -13.095 -43.252  26.684  1.00  0.00     0.066 C 
ATOM      9  C   UNL     1      -9.224 -44.143  29.291  1.00  0.00     0.161 A 
ATOM     10  C   UNL     1      -9.851 -43.106  28.583  1.00  0.00     0.055 A 
ATOM     11  C   UNL     1      -9.850 -45.416  29.408  1.00  0.00     0.161 A 
ATOM     12  C   UNL     1     -11.083 -43.348  27.995  1.00  0.00    -0.033 A 
ATOM     13  C   UNL     1     -11.095 -45.642  28.815  1.00  0.00     0.062 A 
ATOM     14  C   UNL     1     -11.674 -44.595  28.122  1.00  0.00     0.025 A 
ATOM     15  C   UNL     1     -11.942 -42.383  27.239  1.00  0.00     0.048 C 
ATOM     16  C   UNL     1     -12.945 -44.577  27.411  1.00  0.00     0.166 C 
ATOM     17  O   UNL     1     -13.725 -45.513  27.397  1.00  0.00    -0.294 OA
BRANCH   9  18
ATOM     18  O   UNL     1      -8.003 -44.023  29.912  1.00  0.00    -0.493 OA
ATOM     19  C   UNL     1      -7.972 -43.431  31.203  1.00  0.00     0.278 C 
ENDBRANCH   9  18
BRANCH  11  20
ATOM     20  O   UNL     1      -9.154 -46.361  30.124  1.00  0.00    -0.493 OA
ATOM     21  C   UNL     1      -9.660 -46.722  31.402  1.00  0.00     0.278 C 
ENDBRANCH  11  20
ENDBRANCH   7   8
ENDBRANCH   1   7
BRANCH   4  22
ATOM     22  C   UNL     1     -18.469 -42.384  22.714  1.00  0.00     0.120 C 
BRANCH  22  23
ATOM     23  C   UNL     1     -19.448 -41.236  22.578  1.00  0.00    -0.032 A 
ATOM     24  C   UNL     1     -19.177 -40.168  21.708  1.00  0.00     0.005 A 
ATOM     25  C   UNL     1     -20.627 -41.211  23.335  1.00  0.00     0.025 A 
ATOM     26  C   UNL     1     -20.071 -39.102  21.589  1.00  0.00     0.002 A 
ATOM     27  C   UNL     1     -21.516 -40.142  23.212  1.00  0.00     0.041 A 
ATOM     28  C   UNL     1     -21.243 -39.088  22.343  1.00  0.00     0.020 A 
ATOM     29  Cl  UNL     1     -22.964 -40.126  24.144  1.00  0.00    -0.084 Cl
ENDBRANCH  22  23
ENDBRANCH   4  22
TORSDOF 6
ENDMDL
MODEL 9
REMARK VINA RESULT:    -9.657      4.787     11.018
REMARK INTER + INTRA:         -13.620
REMARK INTER:                 -13.218
REMARK INTRA:                  -0.402
REMARK UNBOUND:                -0.576
REMARK SMILES COc1cc2c(cc1OC)C(=O)[C@@H](CC1CCN(Cc3cccc(Cl)c3)CC1)C2
REMARK SMILES IDX 15 1 16 2 17 3 18 4 27 5 28 6 14 7 13 8 3 9 4 10 8 11 5 12
REMARK SMILES IDX 7 13 6 14 29 15 11 16 12 17 2 18 1 19 9 20 10 21 19 22 20 23
REMARK SMILES IDX 21 24 26 25 22 26 24 27 23 28 25 29
REMARK H PARENT
ROOT
ATOM      1  C   UNL     1     -15.994 -42.789  26.136  1.00  0.00    -0.008 C 
ATOM      2  C   UNL     1     -15.710 -43.433  24.773  1.00  0.00     0.019 C 
ATOM      3  C   UNL     1     -16.467 -42.725  23.646  1.00  0.00     0.085 C 
ATOM      4  N   UNL     1     -17.913 -42.700  23.903  1.00  0.00    -0.299 NA
ATOM      5  C   UNL     1     -18.204 -42.004  25.166  1.00  0.00     0.085 C 
ATOM      6  C   UNL     1     -17.513 -42.692  26.344  1.00  0.00     0.019 C 
ENDROOT
BRANCH   1   7
ATOM      7  C   UNL     1     -15.353 -43.564  27.304  1.00  0.00     0.016 C 
BRANCH   7   8
ATOM      8  C   UNL     1     -13.917 -44.034  27.053  1.00  0.00     0.066 C 
ATOM      9  C   UNL     1      -9.531 -42.719  28.323  1.00  0.00     0.161 A 
ATOM     10  C   UNL     1     -10.533 -42.425  27.385  1.00  0.00     0.055 A 
ATOM     11  C   UNL     1      -9.761 -43.684  29.342  1.00  0.00     0.161 A 
ATOM     12  C   UNL     1     -11.744 -43.096  27.467  1.00  0.00    -0.033 A 
ATOM     13  C   UNL     1     -10.989 -44.348  29.416  1.00  0.00     0.062 A 
ATOM     14  C   UNL     1     -11.946 -44.032  28.469  1.00  0.00     0.025 A 
ATOM     15  C   UNL     1     -12.954 -42.908  26.608  1.00  0.00     0.048 C 
ATOM     16  C   UNL     1     -13.285 -44.583  28.321  1.00  0.00     0.166 C 
ATOM     17  O   UNL     1     -13.776 -45.385  29.096  1.00  0.00    -0.294 OA
BRANCH   9  18
ATOM     18  O   UNL     1      -8.292 -42.123  28.339  1.00  0.00    -0.493 OA
ATOM     19  C   UNL     1      -7.782 -41.623  27.111  1.00  0.00     0.278 C 
ENDBRANCH   9  18
BRANCH  11  20
ATOM     20  O   UNL     1      -8.717 -43.898  30.211  1.00  0.00    -0.493 OA
ATOM     21  C   UNL     1      -8.952 -43.656  31.592  1.00  0.00     0.278 C 
ENDBRANCH  11  20
ENDBRANCH   7   8
ENDBRANCH   1   7
BRANCH   4  22
ATOM     22  C   UNL     1     -18.617 -42.075  22.768  1.00  0.00     0.120 C 
BRANCH  22  23
ATOM     23  C   UNL     1     -20.093 -41.853  23.025  1.00  0.00    -0.032 A 
ATOM     24  C   UNL     1     -20.896 -42.896  23.512  1.00  0.00     0.005 A 
ATOM     25  C   UNL     1     -20.684 -40.610  22.758  1.00  0.00     0.025 A 
ATOM     26  C   UNL     1     -22.260 -42.698  23.738  1.00  0.00     0.002 A 
ATOM     27  C   UNL     1     -22.047 -40.419  22.986  1.00  0.00     0.041 A 
ATOM     28  C   UNL     1     -22.838 -41.457  23.475  1.00  0.00     0.020 A 
ATOM     29  Cl  UNL     1     -22.760 -38.886  22.660  1.00  0.00    -0.084 Cl
ENDBRANCH  22  23
ENDBRANCH   4  22
TORSDOF 6
ENDMDL
