REMARK VINA RESULT:    -8.106      5.369      8.226
REMARK INTER + INTRA:         -13.160
REMARK INTER:                 -11.875
REMARK INTRA:                  -1.285
REMARK UNBOUND:                -0.553
REMARK SMILES CC[C@@H](Cc1ccc(OC)c(CNC(=O)c2ccc(C(F)(F)F)c(F)c2)c1)C(=O)O
REMARK SMILES IDX 5 1 6 2 7 3 8 4 11 5 27 6 4 7 3 8 2 9 1 10 28 11 29 12 30 13
REMARK SMILES IDX 12 15 13 16 14 17 15 18 16 20 17 21 26 22 18 23 24 24 19 25
REMARK SMILES IDX 25 26 20 27 21 28 22 29 23 30 9 31 10 32
REMARK H PARENT 30 14 13 19
ROOT
ATOM      1  C   UNL     1      -9.746  -8.211 -28.060  1.00  0.00    -0.047 A 
ATOM      2  C   UNL     1     -10.442  -7.088 -28.507  1.00  0.00     0.007 A 
ATOM      3  C   UNL     1     -11.389  -6.468 -27.681  1.00  0.00     0.047 A 
ATOM      4  C   UNL     1     -11.625  -6.938 -26.382  1.00  0.00     0.123 A 
ATOM      5  C   UNL     1     -10.933  -8.071 -25.929  1.00  0.00     0.014 A 
ATOM      6  C   UNL     1     -10.039  -8.720 -26.791  1.00  0.00     0.013 A 
ENDROOT
BRANCH   1   7
ATOM      7  C   UNL     1      -8.606  -8.811 -28.849  1.00  0.00     0.050 C 
BRANCH   7   8
ATOM      8  C   UNL     1      -8.887  -8.854 -30.368  1.00  0.00     0.103 C 
BRANCH   8   9
ATOM      9  C   UNL     1      -9.109 -10.300 -30.838  1.00  0.00     0.012 C 
ATOM     10  C   UNL     1     -10.547 -10.568 -31.260  1.00  0.00     0.005 C 
ENDBRANCH   8   9
BRANCH   8  11
ATOM     11  C   UNL     1      -7.775  -8.193 -31.162  1.00  0.00     0.306 C 
ATOM     12  O   UNL     1      -6.947  -8.787 -31.838  1.00  0.00    -0.252 OA
BRANCH  11  13
ATOM     13  O   UNL     1      -7.784  -6.848 -31.083  1.00  0.00    -0.481 OA
ATOM     14  H   UNL     1      -7.014  -6.545 -31.633  1.00  0.00     0.296 HD
ENDBRANCH  11  13
ENDBRANCH   8  11
ENDBRANCH   7   8
ENDBRANCH   1   7
BRANCH   5  15
ATOM     15  C   UNL     1     -11.008  -8.549 -24.500  1.00  0.00     0.156 C 
BRANCH  15  16
ATOM     16  N   UNL     1      -9.909  -8.011 -23.723  1.00  0.00    -0.348 N 
ATOM     17  C   UNL     1      -9.226  -8.739 -22.773  1.00  0.00     0.251 C 
ATOM     18  O   UNL     1      -9.469  -9.906 -22.473  1.00  0.00    -0.269 OA
ATOM     19  H   UNL     1      -9.544  -7.123 -24.036  1.00  0.00     0.164 HD
BRANCH  17  20
ATOM     20  C   UNL     1      -8.095  -8.032 -22.113  1.00  0.00     0.042 A 
ATOM     21  C   UNL     1      -6.947  -8.759 -21.776  1.00  0.00     0.014 A 
ATOM     22  C   UNL     1      -8.168  -6.672 -21.801  1.00  0.00     0.053 A 
ATOM     23  C   UNL     1      -5.868  -8.126 -21.151  1.00  0.00     0.017 A 
ATOM     24  C   UNL     1      -7.087  -6.054 -21.177  1.00  0.00     0.136 A 
ATOM     25  C   UNL     1      -5.931  -6.759 -20.847  1.00  0.00     0.091 A 
ATOM     26  F   UNL     1      -7.177  -4.749 -20.887  1.00  0.00    -0.206 F 
BRANCH  25  27
ATOM     27  C   UNL     1      -4.798  -6.038 -20.178  1.00  0.00     0.419 C 
ATOM     28  F   UNL     1      -5.204  -5.256 -19.137  1.00  0.00    -0.166 F 
ATOM     29  F   UNL     1      -3.865  -6.883 -19.658  1.00  0.00    -0.166 F 
ATOM     30  F   UNL     1      -4.131  -5.204 -21.022  1.00  0.00    -0.166 F 
ENDBRANCH  25  27
ENDBRANCH  17  20
ENDBRANCH  15  16
ENDBRANCH   5  15
BRANCH   4  31
ATOM     31  O   UNL     1     -12.477  -6.356 -25.480  1.00  0.00    -0.496 OA
ATOM     32  C   UNL     1     -13.279  -5.277 -25.947  1.00  0.00     0.278 C 
ENDBRANCH   4  31
TORSDOF 10
