MODEL 4
REMARK VINA RESULT:    -7.902      1.739      3.115
REMARK INTER + INTRA:         -11.154
REMARK INTER:                 -10.816
REMARK INTRA:                  -0.338
REMARK UNBOUND:                -0.481
REMARK SMILES O=C(Nc1ccc(OCc2cccs2)cc1C(=O)[O-])c1ccc(Cl)cc1Cl
REMARK SMILES IDX 4 1 5 2 6 3 7 4 15 5 16 6 3 7 1 8 2 9 20 11 21 12 26 13
REMARK SMILES IDX 22 14 25 15 23 16 27 17 24 18 17 19 18 20 19 21 8 22 9 23
REMARK SMILES IDX 10 24 11 25 14 26 12 27 13 28
REMARK H PARENT 3 10
ROOT
ATOM      1  C   UNL     1       6.549   9.540  -5.139  1.00  0.00     0.050 A 
ATOM      2  C   UNL     1       5.776   8.775  -6.019  1.00  0.00     0.030 A 
ATOM      3  C   UNL     1       4.652   8.076  -5.563  1.00  0.00     0.048 A 
ATOM      4  C   UNL     1       4.286   8.145  -4.223  1.00  0.00     0.120 A 
ATOM      5  C   UNL     1       5.067   8.882  -3.334  1.00  0.00     0.058 A 
ATOM      6  C   UNL     1       6.202   9.596  -3.769  1.00  0.00     0.024 A 
ENDROOT
BRANCH   1   7
ATOM      7  N   UNL     1       7.680  10.266  -5.567  1.00  0.00    -0.321 N 
ATOM      8  O   UNL     1       8.553   9.052  -7.356  1.00  0.00    -0.269 OA
ATOM      9  C   UNL     1       8.567  10.001  -6.581  1.00  0.00     0.257 C 
ATOM     10  H   UNL     1       7.845  11.097  -4.974  1.00  0.00     0.170 HD
BRANCH   9  11
ATOM     11  C   UNL     1       9.676  10.989  -6.679  1.00  0.00     0.058 A 
ATOM     12  C   UNL     1       9.991  11.763  -5.548  1.00  0.00     0.017 A 
ATOM     13  C   UNL     1      10.428  11.144  -7.851  1.00  0.00     0.055 A 
ATOM     14  C   UNL     1      11.043  12.681  -5.588  1.00  0.00     0.021 A 
ATOM     15  C   UNL     1      11.486  12.062  -7.885  1.00  0.00     0.041 A 
ATOM     16  C   UNL     1      11.787  12.823  -6.756  1.00  0.00     0.042 A 
ATOM     17  Cl  UNL     1      10.092  10.290  -9.316  1.00  0.00    -0.083 Cl
ATOM     18  Cl  UNL     1      13.090  13.947  -6.808  1.00  0.00    -0.084 Cl
ENDBRANCH   9  11
ENDBRANCH   1   7
BRANCH   6  19
ATOM     19  C   UNL     1       7.014  10.388  -2.753  1.00  0.00     0.074 C 
ATOM     20  O   UNL     1       6.391  10.820  -1.723  1.00  0.00    -0.545 OA
ATOM     21  O   UNL     1       8.247  10.569  -2.993  1.00  0.00    -0.545 OA
ENDBRANCH   6  19
BRANCH   4  22
ATOM     22  O   UNL     1       3.219   7.485  -3.678  1.00  0.00    -0.488 OA
BRANCH  22  23
ATOM     23  C   UNL     1       3.233   6.059  -3.813  1.00  0.00     0.276 C 
BRANCH  23  24
ATOM     24  C   UNL     1       3.888   5.454  -2.604  1.00  0.00     0.042 A 
ATOM     25  C   UNL     1       5.220   5.162  -2.377  1.00  0.00     0.019 A 
ATOM     26  S   UNL     1       2.922   5.040  -1.245  1.00  0.00    -0.145 S 
ATOM     27  C   UNL     1       5.444   4.588  -1.092  1.00  0.00     0.012 A 
ATOM     28  C   UNL     1       4.276   4.465  -0.373  1.00  0.00     0.065 A 
ENDBRANCH  23  24
ENDBRANCH  22  23
ENDBRANCH   4  22
TORSDOF 6
ENDMDL
