MODEL 6
REMARK VINA RESULT:    -8.364      4.146      6.277
REMARK INTER + INTRA:         -12.953
REMARK INTER:                 -12.376
REMARK INTRA:                  -0.578
REMARK UNBOUND:                 0.544
REMARK SMILES Cc1ccc(NC(=O)CN(Cc2ccc(OC(C)(C)C(=O)O)cc2)Cc2ccco2)c(C)c1
REMARK SMILES IDX 12 1 13 2 14 3 15 4 23 5 24 6 11 7 10 8 9 9 7 10 6 11 8 12
REMARK SMILES IDX 5 14 2 15 3 16 33 17 4 18 31 19 1 20 32 21 25 22 26 23 27 24
REMARK SMILES IDX 30 25 28 26 29 27 16 28 17 29 18 30 19 31 20 32 21 33 22 34
REMARK H PARENT 6 13 22 35
ROOT
ATOM      1  C   UNL     1       8.512  10.615  -4.845  1.00  0.00    -0.034 A 
ATOM      2  C   UNL     1       7.477  10.223  -5.705  1.00  0.00     0.009 A 
ATOM      3  C   UNL     1       6.219   9.864  -5.206  1.00  0.00     0.047 A 
ATOM      4  C   UNL     1       5.972   9.902  -3.838  1.00  0.00     0.121 A 
ATOM      5  C   UNL     1       7.006  10.256  -2.971  1.00  0.00     0.047 A 
ATOM      6  C   UNL     1       8.263  10.614  -3.466  1.00  0.00     0.009 A 
ENDROOT
BRANCH   1   7
ATOM      7  C   UNL     1       9.874  11.014  -5.383  1.00  0.00     0.121 C 
BRANCH   7   8
ATOM      8  N   UNL     1      10.042  12.420  -5.805  1.00  0.00    -0.283 NA
BRANCH   8   9
ATOM      9  C   UNL     1      10.293  12.554  -7.254  1.00  0.00     0.186 C 
BRANCH   9  10
ATOM     10  C   UNL     1      10.902  11.254  -7.795  1.00  0.00     0.238 C 
ATOM     11  N   UNL     1       9.974  10.545  -8.548  1.00  0.00    -0.325 N 
ATOM     12  O   UNL     1      12.069  10.953  -7.573  1.00  0.00    -0.273 OA
ATOM     13  H   UNL     1       9.038  10.933  -8.520  1.00  0.00     0.169 HD
BRANCH  11  14
ATOM     14  C   UNL     1      10.153   9.351  -9.275  1.00  0.00     0.044 A 
ATOM     15  C   UNL     1      10.556   6.999 -10.788  1.00  0.00    -0.051 A 
ATOM     16  C   UNL     1      10.248   6.927  -9.427  1.00  0.00     0.005 A 
ATOM     17  C   UNL     1      10.665   8.256 -11.392  1.00  0.00     0.009 A 
ATOM     18  C   UNL     1      10.049   8.092  -8.680  1.00  0.00     0.026 A 
ATOM     19  C   UNL     1      10.463   9.436 -10.650  1.00  0.00    -0.027 A 
ATOM     20  C   UNL     1      10.799   5.742 -11.571  1.00  0.00     0.044 C 
ATOM     21  C   UNL     1      10.609  10.757 -11.361  1.00  0.00     0.046 C 
ENDBRANCH  11  14
ENDBRANCH   9  10
ENDBRANCH   8   9
BRANCH   8  22
ATOM     22  C   UNL     1      11.037  13.145  -5.010  1.00  0.00     0.160 C 
BRANCH  22  23
ATOM     23  C   UNL     1      11.736  14.167  -5.848  1.00  0.00     0.117 A 
ATOM     24  C   UNL     1      11.353  15.389  -6.366  1.00  0.00     0.047 A 
ATOM     25  O   UNL     1      13.015  13.882  -6.227  1.00  0.00    -0.468 OA
ATOM     26  C   UNL     1      12.454  15.867  -7.114  1.00  0.00     0.042 A 
ATOM     27  C   UNL     1      13.440  14.917  -6.993  1.00  0.00     0.195 A 
ENDBRANCH  22  23
ENDBRANCH   8  22
ENDBRANCH   7   8
ENDBRANCH   1   7
BRANCH   4  28
ATOM     28  O   UNL     1       4.806   9.574  -3.219  1.00  0.00    -0.476 OA
BRANCH  28  29
ATOM     29  C   UNL     1       4.335   8.225  -3.188  1.00  0.00     0.199 C 
ATOM     30  C   UNL     1       3.289   8.200  -2.055  1.00  0.00     0.069 C 
ATOM     31  C   UNL     1       5.488   7.307  -2.756  1.00  0.00     0.069 C 
BRANCH  29  32
ATOM     32  C   UNL     1       3.626   7.652  -4.440  1.00  0.00     0.347 C 
ATOM     33  O   UNL     1       3.787   6.533  -4.912  1.00  0.00    -0.248 OA
BRANCH  32  34
ATOM     34  O   UNL     1       2.768   8.512  -5.029  1.00  0.00    -0.478 OA
ATOM     35  H   UNL     1       1.895   8.291  -4.655  1.00  0.00     0.296 HD
ENDBRANCH  32  34
ENDBRANCH  29  32
ENDBRANCH  28  29
ENDBRANCH   4  28
TORSDOF 11
ENDMDL
