REMARK SMILES CC(C)(Oc1c(Cl)cc(CN2C(=O)CN(c3ccc(C(F)(F)F)cc3)C2=O)cc1Cl)C(=O)O
REMARK SMILES IDX 5 1 6 2 7 3 8 4 9 5 28 6 29 7 30 8 4 9 2 10 1 11 3 12 31 13
REMARK SMILES IDX 32 14 33 15 10 17 11 18 12 19 26 20 13 21 14 22 15 23 27 24
REMARK SMILES IDX 16 25 17 26 25 27 18 28 24 29 19 30 20 31 21 32 22 33 23 34
REMARK H PARENT 33 16
REMARK INDEX MAP 5 1 6 2 7 3 8 4 9 5 28 6 29 7 30 8 4 9 2 10 1 11 3 12 31 13
REMARK INDEX MAP 32 14 33 15 50 16 10 17 11 18 12 19 26 20 13 21 14 22 15 23
REMARK INDEX MAP 27 24 16 25 17 26 25 27 18 28 24 29 19 30 20 31 21 32 22 33
REMARK INDEX MAP 23 34
ROOT
ATOM      1  C   UNL     1     -10.008  -3.838 -33.199  1.00  0.00     0.158 A 
ATOM      2  C   UNL     1     -11.069  -4.748 -33.082  1.00  0.00     0.085 A 
ATOM      3  Cl  UNL     1     -12.712  -4.274 -33.319  1.00  0.00    -0.080 Cl
ATOM      4  C   UNL     1     -10.822  -6.091 -32.777  1.00  0.00     0.030 A 
ATOM      5  C   UNL     1      -9.511  -6.560 -32.623  1.00  0.00    -0.025 A 
ATOM      6  C   UNL     1      -8.450  -5.660 -32.790  1.00  0.00     0.030 A 
ATOM      7  C   UNL     1      -8.697  -4.316 -33.094  1.00  0.00     0.085 A 
ATOM      8  Cl  UNL     1      -7.330  -3.293 -33.358  1.00  0.00    -0.080 Cl
ENDROOT
BRANCH   1   9
ATOM      9  O   UNL     1     -10.228  -2.524 -33.514  1.00  0.00    -0.473 OA
BRANCH   9  10
ATOM     10  C   UNL     1     -10.423  -1.606 -32.420  1.00  0.00     0.200 C 
ATOM     11  C   UNL     1      -9.275  -0.583 -32.498  1.00  0.00     0.069 C 
ATOM     12  C   UNL     1     -11.729  -0.864 -32.760  1.00  0.00     0.069 C 
BRANCH  10  13
ATOM     13  C   UNL     1     -10.447  -2.085 -30.937  1.00  0.00     0.347 C 
ATOM     14  O   UNL     1     -11.406  -2.499 -30.304  1.00  0.00    -0.248 OA
BRANCH  13  15
ATOM     15  O   UNL     1      -9.231  -2.092 -30.346  1.00  0.00    -0.478 OA
ATOM     16  H   UNL     1      -9.140  -2.381 -29.403  1.00  0.00     0.296 HD
ENDBRANCH  13  15
ENDBRANCH  10  13
ENDBRANCH   9  10
ENDBRANCH   1   9
BRANCH   5  17
ATOM     17  C   UNL     1      -9.248  -7.994 -32.232  1.00  0.00     0.166 C 
BRANCH  17  18
ATOM     18  N   UNL     1      -9.728  -8.266 -30.898  1.00  0.00    -0.258 N 
ATOM     19  C   UNL     1     -10.948  -8.791 -30.610  1.00  0.00     0.251 C 
ATOM     20  C   UNL     1      -9.003  -8.048 -29.756  1.00  0.00     0.332 C 
ATOM     21  O   UNL     1     -11.827  -9.081 -31.411  1.00  0.00    -0.272 OA
ATOM     22  C   UNL     1     -11.058  -8.962 -29.113  1.00  0.00     0.228 C 
ATOM     23  N   UNL     1      -9.781  -8.456 -28.660  1.00  0.00    -0.285 N 
ATOM     24  O   UNL     1      -7.877  -7.570 -29.747  1.00  0.00    -0.248 OA
BRANCH  23  25
ATOM     25  C   UNL     1      -9.426  -8.412 -27.285  1.00  0.00     0.046 A 
ATOM     26  C   UNL     1      -8.326  -9.114 -26.777  1.00  0.00     0.027 A 
ATOM     27  C   UNL     1     -10.184  -7.652 -26.379  1.00  0.00     0.027 A 
ATOM     28  C   UNL     1      -7.989  -9.057 -25.418  1.00  0.00     0.015 A 
ATOM     29  C   UNL     1      -9.850  -7.591 -25.020  1.00  0.00     0.015 A 
ATOM     30  C   UNL     1      -8.742  -8.286 -24.524  1.00  0.00     0.056 A 
BRANCH  30  31
ATOM     31  C   UNL     1      -8.392  -8.237 -23.057  1.00  0.00     0.416 C 
ATOM     32  F   UNL     1      -9.455  -8.535 -22.260  1.00  0.00    -0.166 F 
ATOM     33  F   UNL     1      -7.959  -7.008 -22.657  1.00  0.00    -0.166 F 
ATOM     34  F   UNL     1      -7.405  -9.109 -22.709  1.00  0.00    -0.166 F 
ENDBRANCH  30  31
ENDBRANCH  23  25
ENDBRANCH  17  18
ENDBRANCH   5  17
TORSDOF 8
