MODEL 3
REMARK minimizedAffinity -9.38786697
REMARK CNNscore 0.430321813
REMARK CNNaffinity 7.34345007
REMARK SMILES Cc1c(C(=O)NCCN2CCOCC2)[nH]c2cnnc(Nc3ccc(OCc4cccc(F)c4)c(Cl)c3)c12
REMARK SMILES IDX 21 1 20 3 2 4 3 5 38 6 15 7 16 8 19 9 17 10 18 11 1 12 4 14
REMARK SMILES IDX 5 15 6 16 7 18 8 19 9 20 10 21 14 22 11 23 13 24 12 25 22 26
REMARK SMILES IDX 23 27 37 28 24 29 35 30 25 31 36 32 26 33 27 34 28 35 29 36
REMARK SMILES IDX 34 37 30 38 32 39 31 40 33 41
REMARK H PARENT 21 2 15 13 6 17
ROOT
ATOM      1  N   UNL     1      16.321  35.018  13.261  1.00  0.00    -0.338 N 
ATOM      2  H   UNL     1      16.518  35.999  13.138  1.00  0.00     0.168 HD
ENDROOT
BRANCH   1   3
ATOM      3  C   UNL     1      15.798  34.729  14.533  1.00  0.00     0.162 A 
ATOM      4  C   UNL     1      18.002  34.997  15.992  1.00  0.00    -0.009 A 
ATOM      5  C   UNL     1      18.214  34.771  17.351  1.00  0.00     0.108 A 
ATOM      6  C   UNL     1      16.609  34.712  15.705  1.00  0.00     0.049 A 
ATOM      7  N   UNL     1      17.007  34.387  17.881  1.00  0.00    -0.349 N 
ATOM      8  C   UNL     1      16.026  34.358  16.922  1.00  0.00     0.071 A 
ATOM      9  N   UNL     1      14.485  34.418  14.714  1.00  0.00    -0.132 NA
ATOM     10  C   UNL     1      14.687  34.034  17.046  1.00  0.00     0.162 A 
ATOM     11  N   UNL     1      13.934  34.079  15.941  1.00  0.00    -0.155 NA
ATOM     12  C   UNL     1      19.035  35.465  15.021  1.00  0.00     0.048 C 
ATOM     13  H   UNL     1      16.874  34.124  18.848  1.00  0.00     0.167 HD
BRANCH   5  14
ATOM     14  C   UNL     1      19.440  34.856  18.122  1.00  0.00     0.268 C 
ATOM     15  O   UNL     1      19.476  35.162  19.309  1.00  0.00    -0.268 OA
ATOM     16  N   UNL     1      20.576  34.542  17.402  1.00  0.00    -0.349 N 
ATOM     17  H   UNL     1      20.440  33.882  16.646  1.00  0.00     0.163 HD
BRANCH  16  18
ATOM     18  C   UNL     1      21.843  34.366  18.096  1.00  0.00     0.131 C 
BRANCH  18  19
ATOM     19  C   UNL     1      22.909  33.754  17.167  1.00  0.00     0.106 C 
BRANCH  19  20
ATOM     20  N   UNL     1      22.581  33.964  15.740  1.00  0.00    -0.297 NA
ATOM     21  C   UNL     1      23.351  35.074  15.131  1.00  0.00     0.113 C 
ATOM     22  C   UNL     1      22.792  32.711  14.978  1.00  0.00     0.113 C 
ATOM     23  C   UNL     1      24.529  34.606  14.260  1.00  0.00     0.175 C 
ATOM     24  C   UNL     1      22.959  32.979  13.474  1.00  0.00     0.175 C 
ATOM     25  O   UNL     1      24.123  33.761  13.177  1.00  0.00    -0.379 OA
ENDBRANCH  19  20
ENDBRANCH  18  19
ENDBRANCH  16  18
ENDBRANCH   5  14
ENDBRANCH   1   3
BRANCH   1  26
ATOM     26  C   UNL     1      16.790  34.197  12.223  1.00  0.00     0.041 A 
ATOM     27  C   UNL     1      16.275  34.206  10.924  1.00  0.00     0.030 A 
ATOM     28  C   UNL     1      17.861  33.331  12.487  1.00  0.00     0.050 A 
ATOM     29  C   UNL     1      16.789  33.366   9.924  1.00  0.00     0.050 A 
ATOM     30  C   UNL     1      18.378  32.491  11.493  1.00  0.00     0.085 A 
ATOM     31  C   UNL     1      17.835  32.487  10.203  1.00  0.00     0.138 A 
ATOM     32  Cl  UNL     1      19.695  31.451  11.918  1.00  0.00    -0.080 Cl
BRANCH  31  33
ATOM     33  O   UNL     1      18.405  31.648   9.285  1.00  0.00    -0.487 OA
BRANCH  33  34
ATOM     34  C   UNL     1      18.073  31.833   7.906  1.00  0.00     0.265 C 
BRANCH  34  35
ATOM     35  C   UNL     1      17.100  30.795   7.394  1.00  0.00    -0.008 A 
ATOM     36  C   UNL     1      15.718  30.986   7.563  1.00  0.00     0.007 A 
ATOM     37  C   UNL     1      17.548  29.607   6.798  1.00  0.00     0.046 A 
ATOM     38  C   UNL     1      14.805  30.023   7.122  1.00  0.00     0.003 A 
ATOM     39  C   UNL     1      16.630  28.657   6.363  1.00  0.00     0.123 A 
ATOM     40  C   UNL     1      15.264  28.855   6.517  1.00  0.00     0.039 A 
ATOM     41  F   UNL     1      17.070  27.529   5.788  1.00  0.00    -0.207 F 
ENDBRANCH  34  35
ENDBRANCH  33  34
ENDBRANCH  31  33
ENDBRANCH   1  26
TORSDOF 9
ENDMDL
