MODEL 1
REMARK VINA RESULT:   -10.902      0.000      0.000
REMARK INTER + INTRA:         -16.393
REMARK INTER:                 -15.363
REMARK INTRA:                  -1.030
REMARK UNBOUND:                -1.030
REMARK SMILES N#CC(C#N)=CNc1ccc2ncnc(Nc3ccc(OCc4cccc(F)c4)c(Cl)c3)c2c1
REMARK SMILES IDX 17 1 18 2 19 3 20 4 30 5 31 6 32 7 16 8 15 10 8 11 34 12
REMARK SMILES IDX 9 13 33 14 10 15 11 16 12 17 14 18 13 19 7 20 6 22 1 23 2 24
REMARK SMILES IDX 3 25 4 26 5 27 21 28 22 29 23 30 29 31 24 32 27 33 25 34
REMARK SMILES IDX 26 35 28 36
REMARK H PARENT 16 9 7 21
ROOT
ATOM      1  C   UNL     1      12.963   1.963  29.062  1.00  0.00     0.041 A 
ATOM      2  C   UNL     1      11.710   2.279  28.521  1.00  0.00     0.030 A 
ATOM      3  C   UNL     1      10.566   2.242  29.317  1.00  0.00     0.050 A 
ATOM      4  C   UNL     1      10.647   1.897  30.677  1.00  0.00     0.138 A 
ATOM      5  C   UNL     1      11.903   1.592  31.215  1.00  0.00     0.085 A 
ATOM      6  Cl  UNL     1      12.066   1.166  32.883  1.00  0.00    -0.080 Cl
ATOM      7  C   UNL     1      13.046   1.631  30.415  1.00  0.00     0.050 A 
ENDROOT
BRANCH   1   8
ATOM      8  N   UNL     1      14.161   1.998  28.326  1.00  0.00    -0.340 N 
ATOM      9  H   UNL     1      14.439   2.931  28.063  1.00  0.00     0.168 HD
BRANCH   8  10
ATOM     10  C   UNL     1      15.050   1.003  27.873  1.00  0.00     0.141 A 
ATOM     11  C   UNL     1      17.012   2.749  25.137  1.00  0.00     0.039 A 
ATOM     12  C   UNL     1      16.076   2.553  26.154  1.00  0.00     0.040 A 
ATOM     13  C   UNL     1      17.865   1.700  24.774  1.00  0.00     0.028 A 
ATOM     14  C   UNL     1      15.975   1.302  26.824  1.00  0.00     0.045 A 
ATOM     15  C   UNL     1      17.794   0.462  25.408  1.00  0.00     0.031 A 
ATOM     16  C   UNL     1      16.853   0.242  26.439  1.00  0.00     0.076 A 
ATOM     17  N   UNL     1      16.812  -0.980  27.041  1.00  0.00    -0.236 NA
ATOM     18  N   UNL     1      15.018  -0.214  28.474  1.00  0.00    -0.219 NA
ATOM     19  C   UNL     1      15.897  -1.140  28.027  1.00  0.00     0.224 A 
BRANCH  11  20
ATOM     20  N   UNL     1      17.048   4.017  24.531  1.00  0.00    -0.360 N 
ATOM     21  H   UNL     1      16.168   4.280  24.112  1.00  0.00     0.166 HD
BRANCH  20  22
ATOM     22  C   UNL     1      18.097   4.908  24.449  1.00  0.00     0.114 C 
ATOM     23  N   UNL     1      18.844   3.572  21.319  1.00  0.00    -0.192 NA
ATOM     24  C   UNL     1      18.913   4.236  22.264  1.00  0.00     0.112 C 
ATOM     25  C   UNL     1      18.975   5.044  23.439  1.00  0.00     0.145 C 
ATOM     26  C   UNL     1      20.017   6.014  23.501  1.00  0.00     0.112 C 
ATOM     27  N   UNL     1      20.858   6.805  23.570  1.00  0.00    -0.192 NA
ENDBRANCH  20  22
ENDBRANCH  11  20
ENDBRANCH   8  10
ENDBRANCH   1   8
BRANCH   4  28
ATOM     28  O   UNL     1       9.558   1.844  31.528  1.00  0.00    -0.487 OA
BRANCH  28  29
ATOM     29  C   UNL     1       8.333   1.272  31.076  1.00  0.00     0.265 C 
BRANCH  29  30
ATOM     30  C   UNL     1       8.203  -0.171  31.551  1.00  0.00    -0.008 A 
ATOM     31  C   UNL     1       9.273  -1.053  31.367  1.00  0.00     0.046 A 
ATOM     32  C   UNL     1       7.041  -0.630  32.186  1.00  0.00     0.007 A 
ATOM     33  C   UNL     1       9.180  -2.378  31.798  1.00  0.00     0.123 A 
ATOM     34  C   UNL     1       6.948  -1.954  32.617  1.00  0.00     0.003 A 
ATOM     35  C   UNL     1       8.016  -2.829  32.423  1.00  0.00     0.039 A 
ATOM     36  F   UNL     1      10.218  -3.224  31.612  1.00  0.00    -0.207 F 
ENDBRANCH  29  30
ENDBRANCH  28  29
ENDBRANCH   4  28
TORSDOF 7
ENDMDL
MODEL 2
REMARK VINA RESULT:   -10.833      1.479      1.979
REMARK INTER + INTRA:         -16.296
REMARK INTER:                 -15.165
REMARK INTRA:                  -1.131
REMARK UNBOUND:                -1.030
REMARK SMILES N#CC(C#N)=CNc1ccc2ncnc(Nc3ccc(OCc4cccc(F)c4)c(Cl)c3)c2c1
REMARK SMILES IDX 17 1 18 2 19 3 20 4 30 5 31 6 32 7 16 8 15 10 8 11 34 12
REMARK SMILES IDX 9 13 33 14 10 15 11 16 12 17 14 18 13 19 7 20 6 22 1 23 2 24
REMARK SMILES IDX 3 25 4 26 5 27 21 28 22 29 23 30 29 31 24 32 27 33 25 34
REMARK SMILES IDX 26 35 28 36
REMARK H PARENT 16 9 7 21
ROOT
ATOM      1  C   UNL     1      12.984   1.922  29.029  1.00  0.00     0.041 A 
ATOM      2  C   UNL     1      11.739   2.253  28.481  1.00  0.00     0.030 A 
ATOM      3  C   UNL     1      10.590   2.237  29.272  1.00  0.00     0.050 A 
ATOM      4  C   UNL     1      10.661   1.898  30.634  1.00  0.00     0.138 A 
ATOM      5  C   UNL     1      11.910   1.577  31.179  1.00  0.00     0.085 A 
ATOM      6  Cl  UNL     1      12.060   1.157  32.849  1.00  0.00    -0.080 Cl
ATOM      7  C   UNL     1      13.057   1.595  30.384  1.00  0.00     0.050 A 
ENDROOT
BRANCH   1   8
ATOM      8  N   UNL     1      14.186   1.935  28.298  1.00  0.00    -0.340 N 
ATOM      9  H   UNL     1      14.473   2.862  28.022  1.00  0.00     0.168 HD
BRANCH   8  10
ATOM     10  C   UNL     1      15.068   0.925  27.863  1.00  0.00     0.141 A 
ATOM     11  C   UNL     1      17.276   2.704  25.345  1.00  0.00     0.039 A 
ATOM     12  C   UNL     1      16.266   2.503  26.287  1.00  0.00     0.040 A 
ATOM     13  C   UNL     1      18.115   1.639  24.995  1.00  0.00     0.028 A 
ATOM     14  C   UNL     1      16.074   1.231  26.893  1.00  0.00     0.045 A 
ATOM     15  C   UNL     1      17.955   0.380  25.568  1.00  0.00     0.031 A 
ATOM     16  C   UNL     1      16.938   0.155  26.523  1.00  0.00     0.076 A 
ATOM     17  N   UNL     1      16.811  -1.089  27.067  1.00  0.00    -0.236 NA
ATOM     18  N   UNL     1      14.950  -0.313  28.407  1.00  0.00    -0.219 NA
ATOM     19  C   UNL     1      15.824  -1.253  27.980  1.00  0.00     0.224 A 
BRANCH  11  20
ATOM     20  N   UNL     1      17.400   3.994  24.799  1.00  0.00    -0.360 N 
ATOM     21  H   UNL     1      17.989   4.022  23.979  1.00  0.00     0.166 HD
BRANCH  20  22
ATOM     22  C   UNL     1      16.832   5.175  25.229  1.00  0.00     0.114 C 
ATOM     23  N   UNL     1      14.127   4.510  23.137  1.00  0.00    -0.192 NA
ATOM     24  C   UNL     1      14.803   5.053  23.904  1.00  0.00     0.112 C 
ATOM     25  C   UNL     1      15.654   5.700  24.850  1.00  0.00     0.145 C 
ATOM     26  C   UNL     1      15.199   6.940  25.382  1.00  0.00     0.112 C 
ATOM     27  N   UNL     1      14.848   7.950  25.824  1.00  0.00    -0.192 NA
ENDBRANCH  20  22
ENDBRANCH  11  20
ENDBRANCH   8  10
ENDBRANCH   1   8
BRANCH   4  28
ATOM     28  O   UNL     1       9.568   1.866  31.480  1.00  0.00    -0.487 OA
BRANCH  28  29
ATOM     29  C   UNL     1       8.346   1.277  31.038  1.00  0.00     0.265 C 
BRANCH  29  30
ATOM     30  C   UNL     1       8.224  -0.156  31.541  1.00  0.00    -0.008 A 
ATOM     31  C   UNL     1       9.304  -1.032  31.387  1.00  0.00     0.046 A 
ATOM     32  C   UNL     1       7.059  -0.614  32.170  1.00  0.00     0.007 A 
ATOM     33  C   UNL     1       9.219  -2.349  31.843  1.00  0.00     0.123 A 
ATOM     34  C   UNL     1       6.972  -1.930  32.625  1.00  0.00     0.003 A 
ATOM     35  C   UNL     1       8.052  -2.798  32.462  1.00  0.00     0.039 A 
ATOM     36  F   UNL     1      10.267  -3.189  31.687  1.00  0.00    -0.207 F 
ENDBRANCH  29  30
ENDBRANCH  28  29
ENDBRANCH   4  28
TORSDOF 7
ENDMDL
MODEL 3
REMARK VINA RESULT:   -10.652      2.321      3.245
REMARK INTER + INTRA:         -16.041
REMARK INTER:                 -15.119
REMARK INTRA:                  -0.922
REMARK UNBOUND:                -1.030
REMARK SMILES N#CC(C#N)=CNc1ccc2ncnc(Nc3ccc(OCc4cccc(F)c4)c(Cl)c3)c2c1
REMARK SMILES IDX 17 1 18 2 19 3 20 4 30 5 31 6 32 7 16 8 15 10 8 11 34 12
REMARK SMILES IDX 9 13 33 14 10 15 11 16 12 17 14 18 13 19 7 20 6 22 1 23 2 24
REMARK SMILES IDX 3 25 4 26 5 27 21 28 22 29 23 30 29 31 24 32 27 33 25 34
REMARK SMILES IDX 26 35 28 36
REMARK H PARENT 16 9 7 21
ROOT
ATOM      1  C   UNL     1      12.698   1.827  29.033  1.00  0.00     0.041 A 
ATOM      2  C   UNL     1      11.396   2.110  28.603  1.00  0.00     0.030 A 
ATOM      3  C   UNL     1      10.331   2.082  29.504  1.00  0.00     0.050 A 
ATOM      4  C   UNL     1      10.545   1.779  30.859  1.00  0.00     0.138 A 
ATOM      5  C   UNL     1      11.850   1.507  31.286  1.00  0.00     0.085 A 
ATOM      6  Cl  UNL     1      12.175   1.132  32.942  1.00  0.00    -0.080 Cl
ATOM      7  C   UNL     1      12.913   1.536  30.381  1.00  0.00     0.050 A 
ENDROOT
BRANCH   1   8
ATOM      8  N   UNL     1      13.822   1.856  28.188  1.00  0.00    -0.340 N 
ATOM      9  H   UNL     1      13.946   2.741  27.721  1.00  0.00     0.168 HD
BRANCH   8  10
ATOM     10  C   UNL     1      14.806   0.905  27.850  1.00  0.00     0.141 A 
ATOM     11  C   UNL     1      16.967   2.728  25.322  1.00  0.00     0.039 A 
ATOM     12  C   UNL     1      15.935   2.492  26.232  1.00  0.00     0.040 A 
ATOM     13  C   UNL     1      17.908   1.723  25.070  1.00  0.00     0.028 A 
ATOM     14  C   UNL     1      15.825   1.244  26.905  1.00  0.00     0.045 A 
ATOM     15  C   UNL     1      17.831   0.489  25.711  1.00  0.00     0.031 A 
ATOM     16  C   UNL     1      16.794   0.228  26.635  1.00  0.00     0.076 A 
ATOM     17  N   UNL     1      16.749  -0.989  27.246  1.00  0.00    -0.236 NA
ATOM     18  N   UNL     1      14.770  -0.306  28.461  1.00  0.00    -0.219 NA
ATOM     19  C   UNL     1      15.740  -1.188  28.127  1.00  0.00     0.224 A 
BRANCH  11  20
ATOM     20  N   UNL     1      17.004   3.991  24.706  1.00  0.00    -0.360 N 
ATOM     21  H   UNL     1      16.110   4.276  24.331  1.00  0.00     0.166 HD
BRANCH  20  22
ATOM     22  C   UNL     1      18.071   4.854  24.562  1.00  0.00     0.114 C 
ATOM     23  N   UNL     1      18.655   3.437  21.434  1.00  0.00    -0.192 NA
ATOM     24  C   UNL     1      18.780   4.118  22.361  1.00  0.00     0.112 C 
ATOM     25  C   UNL     1      18.909   4.948  23.515  1.00  0.00     0.145 C 
ATOM     26  C   UNL     1      19.976   5.891  23.514  1.00  0.00     0.112 C 
ATOM     27  N   UNL     1      20.839   6.662  23.531  1.00  0.00    -0.192 NA
ENDBRANCH  20  22
ENDBRANCH  11  20
ENDBRANCH   8  10
ENDBRANCH   1   8
BRANCH   4  28
ATOM     28  O   UNL     1       9.541   1.737  31.810  1.00  0.00    -0.487 OA
BRANCH  28  29
ATOM     29  C   UNL     1       8.175   1.746  31.399  1.00  0.00     0.265 C 
BRANCH  29  30
ATOM     30  C   UNL     1       7.639   3.171  31.338  1.00  0.00    -0.008 A 
ATOM     31  C   UNL     1       6.955   3.599  30.194  1.00  0.00     0.046 A 
ATOM     32  C   UNL     1       7.800   4.060  32.409  1.00  0.00     0.007 A 
ATOM     33  C   UNL     1       6.451   4.899  30.116  1.00  0.00     0.123 A 
ATOM     34  C   UNL     1       7.297   5.359  32.331  1.00  0.00     0.003 A 
ATOM     35  C   UNL     1       6.622   5.779  31.185  1.00  0.00     0.039 A 
ATOM     36  F   UNL     1       5.795   5.304  29.005  1.00  0.00    -0.207 F 
ENDBRANCH  29  30
ENDBRANCH  28  29
ENDBRANCH   4  28
TORSDOF 7
ENDMDL
MODEL 4
REMARK VINA RESULT:   -10.481      2.974      3.998
REMARK INTER + INTRA:         -15.800
REMARK INTER:                 -14.586
REMARK INTRA:                  -1.214
REMARK UNBOUND:                -1.030
REMARK SMILES N#CC(C#N)=CNc1ccc2ncnc(Nc3ccc(OCc4cccc(F)c4)c(Cl)c3)c2c1
REMARK SMILES IDX 17 1 18 2 19 3 20 4 30 5 31 6 32 7 16 8 15 10 8 11 34 12
REMARK SMILES IDX 9 13 33 14 10 15 11 16 12 17 14 18 13 19 7 20 6 22 1 23 2 24
REMARK SMILES IDX 3 25 4 26 5 27 21 28 22 29 23 30 29 31 24 32 27 33 25 34
REMARK SMILES IDX 26 35 28 36
REMARK H PARENT 16 9 7 21
ROOT
ATOM      1  C   UNL     1      13.112   2.364  28.704  1.00  0.00     0.041 A 
ATOM      2  C   UNL     1      11.786   2.436  28.258  1.00  0.00     0.030 A 
ATOM      3  C   UNL     1      10.730   2.206  29.139  1.00  0.00     0.050 A 
ATOM      4  C   UNL     1      10.973   1.909  30.491  1.00  0.00     0.138 A 
ATOM      5  C   UNL     1      12.300   1.848  30.933  1.00  0.00     0.085 A 
ATOM      6  Cl  UNL     1      12.661   1.491  32.586  1.00  0.00    -0.080 Cl
ATOM      7  C   UNL     1      13.355   2.079  30.048  1.00  0.00     0.050 A 
ENDROOT
BRANCH   1   8
ATOM      8  N   UNL     1      14.226   2.603  27.879  1.00  0.00    -0.340 N 
ATOM      9  H   UNL     1      14.340   3.575  27.636  1.00  0.00     0.168 HD
BRANCH   8  10
ATOM     10  C   UNL     1      15.211   1.768  27.314  1.00  0.00     0.141 A 
ATOM     11  C   UNL     1      17.134   4.095  25.019  1.00  0.00     0.039 A 
ATOM     12  C   UNL     1      16.177   3.660  25.937  1.00  0.00     0.040 A 
ATOM     13  C   UNL     1      18.085   3.190  24.532  1.00  0.00     0.028 A 
ATOM     14  C   UNL     1      16.151   2.309  26.382  1.00  0.00     0.045 A 
ATOM     15  C   UNL     1      18.089   1.860  24.946  1.00  0.00     0.031 A 
ATOM     16  C   UNL     1      17.128   1.398  25.873  1.00  0.00     0.076 A 
ATOM     17  N   UNL     1      17.162   0.091  26.259  1.00  0.00    -0.236 NA
ATOM     18  N   UNL     1      15.254   0.467  27.700  1.00  0.00    -0.219 NA
ATOM     19  C   UNL     1      16.223  -0.302  27.153  1.00  0.00     0.224 A 
BRANCH  11  20
ATOM     20  N   UNL     1      17.091   5.447  24.637  1.00  0.00    -0.360 N 
ATOM     21  H   UNL     1      17.703   5.660  23.862  1.00  0.00     0.166 HD
BRANCH  20  22
ATOM     22  C   UNL     1      16.341   6.475  25.170  1.00  0.00     0.114 C 
ATOM     23  N   UNL     1      13.915   5.807  22.761  1.00  0.00    -0.192 NA
ATOM     24  C   UNL     1      14.453   6.307  23.655  1.00  0.00     0.112 C 
ATOM     25  C   UNL     1      15.136   6.905  24.757  1.00  0.00     0.145 C 
ATOM     26  C   UNL     1      14.482   7.989  25.409  1.00  0.00     0.112 C 
ATOM     27  N   UNL     1      13.967   8.873  25.950  1.00  0.00    -0.192 NA
ENDBRANCH  20  22
ENDBRANCH  11  20
ENDBRANCH   8  10
ENDBRANCH   1   8
BRANCH   4  28
ATOM     28  O   UNL     1       9.979   1.675  31.422  1.00  0.00    -0.487 OA
BRANCH  28  29
ATOM     29  C   UNL     1       8.610   1.716  31.023  1.00  0.00     0.265 C 
BRANCH  29  30
ATOM     30  C   UNL     1       8.013   3.094  31.285  1.00  0.00    -0.008 A 
ATOM     31  C   UNL     1       7.245   3.710  30.290  1.00  0.00     0.046 A 
ATOM     32  C   UNL     1       8.202   3.753  32.507  1.00  0.00     0.007 A 
ATOM     33  C   UNL     1       6.684   4.970  30.508  1.00  0.00     0.123 A 
ATOM     34  C   UNL     1       7.642   5.012  32.725  1.00  0.00     0.003 A 
ATOM     35  C   UNL     1       6.883   5.622  31.726  1.00  0.00     0.039 A 
ATOM     36  F   UNL     1       5.946   5.558  29.540  1.00  0.00    -0.207 F 
ENDBRANCH  29  30
ENDBRANCH  28  29
ENDBRANCH   4  28
TORSDOF 7
ENDMDL
MODEL 5
REMARK VINA RESULT:   -10.372      2.394      3.167
REMARK INTER + INTRA:         -15.647
REMARK INTER:                 -14.115
REMARK INTRA:                  -1.532
REMARK UNBOUND:                -1.030
REMARK SMILES N#CC(C#N)=CNc1ccc2ncnc(Nc3ccc(OCc4cccc(F)c4)c(Cl)c3)c2c1
REMARK SMILES IDX 17 1 18 2 19 3 20 4 30 5 31 6 32 7 16 8 15 10 8 11 34 12
REMARK SMILES IDX 9 13 33 14 10 15 11 16 12 17 14 18 13 19 7 20 6 22 1 23 2 24
REMARK SMILES IDX 3 25 4 26 5 27 21 28 22 29 23 30 29 31 24 32 27 33 25 34
REMARK SMILES IDX 26 35 28 36
REMARK H PARENT 16 9 7 21
ROOT
ATOM      1  C   UNL     1      13.522   2.205  28.591  1.00  0.00     0.041 A 
ATOM      2  C   UNL     1      14.129   2.063  29.845  1.00  0.00     0.030 A 
ATOM      3  C   UNL     1      13.353   1.969  31.001  1.00  0.00     0.050 A 
ATOM      4  C   UNL     1      11.950   2.005  30.929  1.00  0.00     0.138 A 
ATOM      5  C   UNL     1      11.348   2.137  29.672  1.00  0.00     0.085 A 
ATOM      6  Cl  UNL     1       9.626   2.184  29.522  1.00  0.00    -0.080 Cl
ATOM      7  C   UNL     1      12.128   2.232  28.519  1.00  0.00     0.050 A 
ENDROOT
BRANCH   1   8
ATOM      8  N   UNL     1      14.237   2.287  27.383  1.00  0.00    -0.340 N 
ATOM      9  H   UNL     1      13.855   2.964  26.740  1.00  0.00     0.168 HD
BRANCH   8  10
ATOM     10  C   UNL     1      15.369   1.616  26.880  1.00  0.00     0.141 A 
ATOM     11  C   UNL     1      17.176   4.295  24.895  1.00  0.00     0.039 A 
ATOM     12  C   UNL     1      16.203   3.691  25.693  1.00  0.00     0.040 A 
ATOM     13  C   UNL     1      18.275   3.546  24.462  1.00  0.00     0.028 A 
ATOM     14  C   UNL     1      16.312   2.324  26.070  1.00  0.00     0.045 A 
ATOM     15  C   UNL     1      18.415   2.205  24.811  1.00  0.00     0.031 A 
ATOM     16  C   UNL     1      17.441   1.573  25.617  1.00  0.00     0.076 A 
ATOM     17  N   UNL     1      17.609   0.260  25.943  1.00  0.00    -0.236 NA
ATOM     18  N   UNL     1      15.545   0.310  27.207  1.00  0.00    -0.219 NA
ATOM     19  C   UNL     1      16.652  -0.298  26.722  1.00  0.00     0.224 A 
BRANCH  11  20
ATOM     20  N   UNL     1      16.992   5.652  24.574  1.00  0.00    -0.360 N 
ATOM     21  H   UNL     1      17.567   5.957  23.801  1.00  0.00     0.166 HD
BRANCH  20  22
ATOM     22  C   UNL     1      16.153   6.575  25.161  1.00  0.00     0.114 C 
ATOM     23  N   UNL     1      13.793   5.827  22.710  1.00  0.00    -0.192 NA
ATOM     24  C   UNL     1      14.285   6.323  23.633  1.00  0.00     0.112 C 
ATOM     25  C   UNL     1      14.913   6.917  24.769  1.00  0.00     0.145 C 
ATOM     26  C   UNL     1      14.165   7.899  25.479  1.00  0.00     0.112 C 
ATOM     27  N   UNL     1      13.573   8.701  26.067  1.00  0.00    -0.192 NA
ENDBRANCH  20  22
ENDBRANCH  11  20
ENDBRANCH   8  10
ENDBRANCH   1   8
BRANCH   4  28
ATOM     28  O   UNL     1      11.118   1.912  32.029  1.00  0.00    -0.487 OA
BRANCH  28  29
ATOM     29  C   UNL     1      11.048   0.692  32.765  1.00  0.00     0.265 C 
BRANCH  29  30
ATOM     30  C   UNL     1       9.933  -0.198  32.230  1.00  0.00    -0.008 A 
ATOM     31  C   UNL     1       8.600   0.139  32.490  1.00  0.00     0.046 A 
ATOM     32  C   UNL     1      10.212  -1.340  31.467  1.00  0.00     0.007 A 
ATOM     33  C   UNL     1       7.561  -0.658  32.007  1.00  0.00     0.123 A 
ATOM     34  C   UNL     1       9.173  -2.137  30.984  1.00  0.00     0.003 A 
ATOM     35  C   UNL     1       7.848  -1.797  31.254  1.00  0.00     0.039 A 
ATOM     36  F   UNL     1       6.276  -0.326  32.267  1.00  0.00    -0.207 F 
ENDBRANCH  29  30
ENDBRANCH  28  29
ENDBRANCH   4  28
TORSDOF 7
ENDMDL
MODEL 6
REMARK VINA RESULT:   -10.337      2.711      3.807
REMARK INTER + INTRA:         -15.598
REMARK INTER:                 -14.635
REMARK INTRA:                  -0.963
REMARK UNBOUND:                -1.030
REMARK SMILES N#CC(C#N)=CNc1ccc2ncnc(Nc3ccc(OCc4cccc(F)c4)c(Cl)c3)c2c1
REMARK SMILES IDX 17 1 18 2 19 3 20 4 30 5 31 6 32 7 16 8 15 10 8 11 34 12
REMARK SMILES IDX 9 13 33 14 10 15 11 16 12 17 14 18 13 19 7 20 6 22 1 23 2 24
REMARK SMILES IDX 3 25 4 26 5 27 21 28 22 29 23 30 29 31 24 32 27 33 25 34
REMARK SMILES IDX 26 35 28 36
REMARK H PARENT 16 9 7 21
ROOT
ATOM      1  C   UNL     1      12.953   1.915  28.989  1.00  0.00     0.041 A 
ATOM      2  C   UNL     1      11.676   2.294  28.556  1.00  0.00     0.030 A 
ATOM      3  C   UNL     1      10.605   2.324  29.450  1.00  0.00     0.050 A 
ATOM      4  C   UNL     1      10.788   1.983  30.801  1.00  0.00     0.138 A 
ATOM      5  C   UNL     1      12.069   1.615  31.230  1.00  0.00     0.085 A 
ATOM      6  Cl  UNL     1      12.355   1.190  32.882  1.00  0.00    -0.080 Cl
ATOM      7  C   UNL     1      13.137   1.586  30.333  1.00  0.00     0.050 A 
ENDROOT
BRANCH   1   8
ATOM      8  N   UNL     1      14.082   1.880  28.151  1.00  0.00    -0.340 N 
ATOM      9  H   UNL     1      14.270   2.763  27.702  1.00  0.00     0.168 HD
BRANCH   8  10
ATOM     10  C   UNL     1      14.999   0.869  27.801  1.00  0.00     0.141 A 
ATOM     11  C   UNL     1      17.329   2.597  25.357  1.00  0.00     0.039 A 
ATOM     12  C   UNL     1      16.268   2.412  26.245  1.00  0.00     0.040 A 
ATOM     13  C   UNL     1      18.199   1.533  25.091  1.00  0.00     0.028 A 
ATOM     14  C   UNL     1      16.056   1.158  26.881  1.00  0.00     0.045 A 
ATOM     15  C   UNL     1      18.021   0.291  25.695  1.00  0.00     0.031 A 
ATOM     16  C   UNL     1      16.953   0.082  26.596  1.00  0.00     0.076 A 
ATOM     17  N   UNL     1      16.810  -1.145  27.173  1.00  0.00    -0.236 NA
ATOM     18  N   UNL     1      14.865  -0.352  28.377  1.00  0.00    -0.219 NA
ATOM     19  C   UNL     1      15.774  -1.293  28.032  1.00  0.00     0.224 A 
BRANCH  11  20
ATOM     20  N   UNL     1      17.468   3.870  24.777  1.00  0.00    -0.360 N 
ATOM     21  H   UNL     1      18.253   4.389  25.145  1.00  0.00     0.166 HD
BRANCH  20  22
ATOM     22  C   UNL     1      16.696   4.467  23.803  1.00  0.00     0.114 C 
ATOM     23  N   UNL     1      16.534   7.301  25.822  1.00  0.00    -0.192 NA
ATOM     24  C   UNL     1      16.362   6.594  24.923  1.00  0.00     0.112 C 
ATOM     25  C   UNL     1      16.168   5.704  23.824  1.00  0.00     0.145 C 
ATOM     26  C   UNL     1      15.381   6.183  22.738  1.00  0.00     0.112 C 
ATOM     27  N   UNL     1      14.743   6.554  21.847  1.00  0.00    -0.192 NA
ENDBRANCH  20  22
ENDBRANCH  11  20
ENDBRANCH   8  10
ENDBRANCH   1   8
BRANCH   4  28
ATOM     28  O   UNL     1       9.777   1.994  31.744  1.00  0.00    -0.487 OA
BRANCH  28  29
ATOM     29  C   UNL     1       8.417   1.892  31.327  1.00  0.00     0.265 C 
BRANCH  29  30
ATOM     30  C   UNL     1       7.757   3.266  31.296  1.00  0.00    -0.008 A 
ATOM     31  C   UNL     1       7.071   3.673  30.147  1.00  0.00     0.046 A 
ATOM     32  C   UNL     1       7.807   4.126  32.402  1.00  0.00     0.007 A 
ATOM     33  C   UNL     1       6.455   4.924  30.096  1.00  0.00     0.123 A 
ATOM     34  C   UNL     1       7.192   5.377  32.351  1.00  0.00     0.003 A 
ATOM     35  C   UNL     1       6.515   5.777  31.198  1.00  0.00     0.039 A 
ATOM     36  F   UNL     1       5.797   5.309  28.979  1.00  0.00    -0.207 F 
ENDBRANCH  29  30
ENDBRANCH  28  29
ENDBRANCH   4  28
TORSDOF 7
ENDMDL
MODEL 7
REMARK VINA RESULT:   -10.015      3.004      4.309
REMARK INTER + INTRA:         -15.143
REMARK INTER:                 -13.449
REMARK INTRA:                  -1.694
REMARK UNBOUND:                -1.030
REMARK SMILES N#CC(C#N)=CNc1ccc2ncnc(Nc3ccc(OCc4cccc(F)c4)c(Cl)c3)c2c1
REMARK SMILES IDX 17 1 18 2 19 3 20 4 30 5 31 6 32 7 16 8 15 10 8 11 34 12
REMARK SMILES IDX 9 13 33 14 10 15 11 16 12 17 14 18 13 19 7 20 6 22 1 23 2 24
REMARK SMILES IDX 3 25 4 26 5 27 21 28 22 29 23 30 29 31 24 32 27 33 25 34
REMARK SMILES IDX 26 35 28 36
REMARK H PARENT 16 9 7 21
ROOT
ATOM      1  C   UNL     1      13.434   1.996  28.083  1.00  0.00     0.041 A 
ATOM      2  C   UNL     1      14.200   1.857  29.248  1.00  0.00     0.030 A 
ATOM      3  C   UNL     1      13.589   1.864  30.501  1.00  0.00     0.050 A 
ATOM      4  C   UNL     1      12.195   2.000  30.621  1.00  0.00     0.138 A 
ATOM      5  C   UNL     1      11.434   2.129  29.453  1.00  0.00     0.085 A 
ATOM      6  Cl  UNL     1       9.715   2.295  29.537  1.00  0.00    -0.080 Cl
ATOM      7  C   UNL     1      12.049   2.121  28.200  1.00  0.00     0.050 A 
ENDROOT
BRANCH   1   8
ATOM      8  N   UNL     1      13.978   1.978  26.786  1.00  0.00    -0.340 N 
ATOM      9  H   UNL     1      13.289   1.812  26.069  1.00  0.00     0.168 HD
BRANCH   8  10
ATOM     10  C   UNL     1      15.283   2.136  26.279  1.00  0.00     0.141 A 
ATOM     11  C   UNL     1      15.454   5.823  25.407  1.00  0.00     0.039 A 
ATOM     12  C   UNL     1      14.934   4.608  25.857  1.00  0.00     0.040 A 
ATOM     13  C   UNL     1      16.772   5.879  24.941  1.00  0.00     0.028 A 
ATOM     14  C   UNL     1      15.724   3.425  25.844  1.00  0.00     0.045 A 
ATOM     15  C   UNL     1      17.575   4.741  24.914  1.00  0.00     0.031 A 
ATOM     16  C   UNL     1      17.068   3.501  25.363  1.00  0.00     0.076 A 
ATOM     17  N   UNL     1      17.881   2.407  25.326  1.00  0.00    -0.236 NA
ATOM     18  N   UNL     1      16.099   1.052  26.247  1.00  0.00    -0.219 NA
ATOM     19  C   UNL     1      17.351   1.243  25.772  1.00  0.00     0.224 A 
BRANCH  11  20
ATOM     20  N   UNL     1      14.606   6.944  25.459  1.00  0.00    -0.360 N 
ATOM     21  H   UNL     1      14.789   7.542  26.251  1.00  0.00     0.166 HD
BRANCH  20  22
ATOM     22  C   UNL     1      13.599   7.309  24.589  1.00  0.00     0.114 C 
ATOM     23  N   UNL     1      11.366   5.561  26.613  1.00  0.00    -0.192 NA
ATOM     24  C   UNL     1      11.771   6.202  25.739  1.00  0.00     0.112 C 
ATOM     25  C   UNL     1      12.295   6.995  24.673  1.00  0.00     0.145 C 
ATOM     26  C   UNL     1      11.368   7.444  23.689  1.00  0.00     0.112 C 
ATOM     27  N   UNL     1      10.631   7.816  22.879  1.00  0.00    -0.192 NA
ENDBRANCH  20  22
ENDBRANCH  11  20
ENDBRANCH   8  10
ENDBRANCH   1   8
BRANCH   4  28
ATOM     28  O   UNL     1      11.520   2.011  31.827  1.00  0.00    -0.487 OA
BRANCH  28  29
ATOM     29  C   UNL     1      11.325   0.791  32.541  1.00  0.00     0.265 C 
BRANCH  29  30
ATOM     30  C   UNL     1      10.000   0.145  32.153  1.00  0.00    -0.008 A 
ATOM     31  C   UNL     1      10.004  -1.013  31.369  1.00  0.00     0.046 A 
ATOM     32  C   UNL     1       8.775   0.677  32.579  1.00  0.00     0.007 A 
ATOM     33  C   UNL     1       8.804  -1.626  31.004  1.00  0.00     0.123 A 
ATOM     34  C   UNL     1       7.575   0.065  32.214  1.00  0.00     0.003 A 
ATOM     35  C   UNL     1       7.588  -1.086  31.427  1.00  0.00     0.039 A 
ATOM     36  F   UNL     1       8.818  -2.744  30.244  1.00  0.00    -0.207 F 
ENDBRANCH  29  30
ENDBRANCH  28  29
ENDBRANCH   4  28
TORSDOF 7
ENDMDL
MODEL 8
REMARK VINA RESULT:    -9.960      4.853     10.868
REMARK INTER + INTRA:         -15.066
REMARK INTER:                 -13.558
REMARK INTRA:                  -1.508
REMARK UNBOUND:                -1.030
REMARK SMILES N#CC(C#N)=CNc1ccc2ncnc(Nc3ccc(OCc4cccc(F)c4)c(Cl)c3)c2c1
REMARK SMILES IDX 17 1 18 2 19 3 20 4 30 5 31 6 32 7 16 8 15 10 8 11 34 12
REMARK SMILES IDX 9 13 33 14 10 15 11 16 12 17 14 18 13 19 7 20 6 22 1 23 2 24
REMARK SMILES IDX 3 25 4 26 5 27 21 28 22 29 23 30 29 31 24 32 27 33 25 34
REMARK SMILES IDX 26 35 28 36
REMARK H PARENT 16 9 7 21
ROOT
ATOM      1  C   UNL     1      12.030   3.443  26.638  1.00  0.00     0.041 A 
ATOM      2  C   UNL     1      12.348   2.709  25.487  1.00  0.00     0.030 A 
ATOM      3  C   UNL     1      12.882   3.346  24.367  1.00  0.00     0.050 A 
ATOM      4  C   UNL     1      13.120   4.731  24.373  1.00  0.00     0.138 A 
ATOM      5  C   UNL     1      12.810   5.458  25.529  1.00  0.00     0.085 A 
ATOM      6  Cl  UNL     1      13.085   7.163  25.596  1.00  0.00    -0.080 Cl
ATOM      7  C   UNL     1      12.276   4.817  26.647  1.00  0.00     0.050 A 
ENDROOT
BRANCH   1   8
ATOM      8  N   UNL     1      11.508   2.868  27.810  1.00  0.00    -0.340 N 
ATOM      9  H   UNL     1      10.525   2.651  27.742  1.00  0.00     0.168 HD
BRANCH   8  10
ATOM     10  C   UNL     1      12.067   2.538  29.061  1.00  0.00     0.141 A 
ATOM     11  C   UNL     1       9.038   1.758  31.206  1.00  0.00     0.039 A 
ATOM     12  C   UNL     1       9.790   2.125  30.089  1.00  0.00     0.040 A 
ATOM     13  C   UNL     1       9.691   1.429  32.399  1.00  0.00     0.028 A 
ATOM     14  C   UNL     1      11.211   2.172  30.146  1.00  0.00     0.045 A 
ATOM     15  C   UNL     1      11.080   1.464  32.492  1.00  0.00     0.031 A 
ATOM     16  C   UNL     1      11.861   1.834  31.374  1.00  0.00     0.076 A 
ATOM     17  N   UNL     1      13.218   1.855  31.497  1.00  0.00    -0.236 NA
ATOM     18  N   UNL     1      13.418   2.551  29.187  1.00  0.00    -0.219 NA
ATOM     19  C   UNL     1      13.922   2.212  30.396  1.00  0.00     0.224 A 
BRANCH  11  20
ATOM     20  N   UNL     1       7.640   1.733  31.060  1.00  0.00    -0.360 N 
ATOM     21  H   UNL     1       7.330   1.125  30.316  1.00  0.00     0.166 HD
BRANCH  20  22
ATOM     22  C   UNL     1       6.681   2.410  31.785  1.00  0.00     0.114 C 
ATOM     23  N   UNL     1       6.796   4.928  29.380  1.00  0.00    -0.192 NA
ATOM     24  C   UNL     1       6.490   4.344  30.331  1.00  0.00     0.112 C 
ATOM     25  C   UNL     1       6.129   3.601  31.495  1.00  0.00     0.145 C 
ATOM     26  C   UNL     1       5.147   4.180  32.349  1.00  0.00     0.112 C 
ATOM     27  N   UNL     1       4.352   4.636  33.056  1.00  0.00    -0.192 NA
ENDBRANCH  20  22
ENDBRANCH  11  20
ENDBRANCH   8  10
ENDBRANCH   1   8
BRANCH   4  28
ATOM     28  O   UNL     1      13.651   5.428  23.303  1.00  0.00    -0.487 OA
BRANCH  28  29
ATOM     29  C   UNL     1      14.623   4.808  22.464  1.00  0.00     0.265 C 
BRANCH  29  30
ATOM     30  C   UNL     1      15.981   4.758  23.156  1.00  0.00    -0.008 A 
ATOM     31  C   UNL     1      16.622   3.526  23.323  1.00  0.00     0.046 A 
ATOM     32  C   UNL     1      16.611   5.923  23.614  1.00  0.00     0.007 A 
ATOM     33  C   UNL     1      17.867   3.455  23.949  1.00  0.00     0.123 A 
ATOM     34  C   UNL     1      17.856   5.853  24.240  1.00  0.00     0.003 A 
ATOM     35  C   UNL     1      18.485   4.620  24.409  1.00  0.00     0.039 A 
ATOM     36  F   UNL     1      18.478   2.259  24.109  1.00  0.00    -0.207 F 
ENDBRANCH  29  30
ENDBRANCH  28  29
ENDBRANCH   4  28
TORSDOF 7
ENDMDL
MODEL 9
REMARK VINA RESULT:    -9.928      1.846      2.478
REMARK INTER + INTRA:         -15.021
REMARK INTER:                 -13.626
REMARK INTRA:                  -1.396
REMARK UNBOUND:                -1.030
REMARK SMILES N#CC(C#N)=CNc1ccc2ncnc(Nc3ccc(OCc4cccc(F)c4)c(Cl)c3)c2c1
REMARK SMILES IDX 17 1 18 2 19 3 20 4 30 5 31 6 32 7 16 8 15 10 8 11 34 12
REMARK SMILES IDX 9 13 33 14 10 15 11 16 12 17 14 18 13 19 7 20 6 22 1 23 2 24
REMARK SMILES IDX 3 25 4 26 5 27 21 28 22 29 23 30 29 31 24 32 27 33 25 34
REMARK SMILES IDX 26 35 28 36
REMARK H PARENT 16 9 7 21
ROOT
ATOM      1  C   UNL     1      13.522   2.283  28.775  1.00  0.00     0.041 A 
ATOM      2  C   UNL     1      14.097   2.126  30.042  1.00  0.00     0.030 A 
ATOM      3  C   UNL     1      13.292   1.981  31.172  1.00  0.00     0.050 A 
ATOM      4  C   UNL     1      11.891   1.979  31.060  1.00  0.00     0.138 A 
ATOM      5  C   UNL     1      11.321   2.126  29.789  1.00  0.00     0.085 A 
ATOM      6  Cl  UNL     1       9.604   2.127  29.590  1.00  0.00    -0.080 Cl
ATOM      7  C   UNL     1      12.130   2.271  28.662  1.00  0.00     0.050 A 
ENDROOT
BRANCH   1   8
ATOM      8  N   UNL     1      14.269   2.415  27.590  1.00  0.00    -0.340 N 
ATOM      9  H   UNL     1      13.958   3.177  27.007  1.00  0.00     0.168 HD
BRANCH   8  10
ATOM     10  C   UNL     1      15.355   1.701  27.044  1.00  0.00     0.141 A 
ATOM     11  C   UNL     1      17.167   4.304  24.965  1.00  0.00     0.039 A 
ATOM     12  C   UNL     1      16.209   3.739  25.808  1.00  0.00     0.040 A 
ATOM     13  C   UNL     1      18.220   3.514  24.491  1.00  0.00     0.028 A 
ATOM     14  C   UNL     1      16.286   2.371  26.190  1.00  0.00     0.045 A 
ATOM     15  C   UNL     1      18.327   2.172  24.844  1.00  0.00     0.031 A 
ATOM     16  C   UNL     1      17.368   1.579  25.695  1.00  0.00     0.076 A 
ATOM     17  N   UNL     1      17.504   0.263  26.023  1.00  0.00    -0.236 NA
ATOM     18  N   UNL     1      15.498   0.392  27.373  1.00  0.00    -0.219 NA
ATOM     19  C   UNL     1      16.561  -0.257  26.846  1.00  0.00     0.224 A 
BRANCH  11  20
ATOM     20  N   UNL     1      17.017   5.665  24.642  1.00  0.00    -0.360 N 
ATOM     21  H   UNL     1      16.881   6.251  25.452  1.00  0.00     0.166 HD
BRANCH  20  22
ATOM     22  C   UNL     1      17.039   6.268  23.401  1.00  0.00     0.114 C 
ATOM     23  N   UNL     1      20.467   6.735  23.809  1.00  0.00    -0.192 NA
ATOM     24  C   UNL     1      19.413   6.765  23.332  1.00  0.00     0.112 C 
ATOM     25  C   UNL     1      18.104   6.786  22.764  1.00  0.00     0.145 C 
ATOM     26  C   UNL     1      17.968   7.385  21.479  1.00  0.00     0.112 C 
ATOM     27  N   UNL     1      17.838   7.871  20.437  1.00  0.00    -0.192 NA
ENDBRANCH  20  22
ENDBRANCH  11  20
ENDBRANCH   8  10
ENDBRANCH   1   8
BRANCH   4  28
ATOM     28  O   UNL     1      11.030   1.835  32.132  1.00  0.00    -0.487 OA
BRANCH  28  29
ATOM     29  C   UNL     1      10.959   0.588  32.822  1.00  0.00     0.265 C 
BRANCH  29  30
ATOM     30  C   UNL     1       9.866  -0.295  32.231  1.00  0.00    -0.008 A 
ATOM     31  C   UNL     1       8.524   0.037  32.446  1.00  0.00     0.046 A 
ATOM     32  C   UNL     1      10.176  -1.423  31.460  1.00  0.00     0.007 A 
ATOM     33  C   UNL     1       7.505  -0.754  31.911  1.00  0.00     0.123 A 
ATOM     34  C   UNL     1       9.158  -2.214  30.926  1.00  0.00     0.003 A 
ATOM     35  C   UNL     1       7.822  -1.880  31.151  1.00  0.00     0.039 A 
ATOM     36  F   UNL     1       6.211  -0.427  32.128  1.00  0.00    -0.207 F 
ENDBRANCH  29  30
ENDBRANCH  28  29
ENDBRANCH   4  28
TORSDOF 7
ENDMDL
