MODEL 3
REMARK VINA RESULT:    -7.476      3.242      8.629
REMARK INTER + INTRA:         -12.591
REMARK INTER:                 -12.039
REMARK INTRA:                  -0.551
REMARK UNBOUND:                -0.089
REMARK SMILES N=C(N)c1cccc(N2CCCCN(C3CCN(S(=O)(=O)c4ccc(N)cc4)CC3)C2=O)c1
REMARK SMILES IDX 14 1 31 2 32 3 9 4 8 5 4 6 5 7 33 8 6 9 7 10 2 11 1 12 3 13
REMARK SMILES IDX 10 17 13 19 12 20 11 21 15 23 16 24 30 25 17 26 29 27 18 28
REMARK SMILES IDX 19 29 20 30 21 31 22 32 23 33 28 34 24 35 27 36 25 37 26 38
REMARK H PARENT 1 14 3 15 3 16 26 39 26 40
REMARK Flexibility Score:   77.900
ROOT
ATOM      1  N   UNL     1     128.080 -17.488 163.250  1.00  0.00    -0.321 N 
ENDROOT
BRANCH   1   2
ATOM      2  C   UNL     1     127.534 -16.953 162.070  1.00  0.00     0.324 C 
ATOM      3  O   UNL     1     128.143 -16.966 161.001  1.00  0.00    -0.248 OA
BRANCH   2   4
ATOM      4  N   UNL     1     126.270 -16.370 162.232  1.00  0.00    -0.294 N 
BRANCH   4   5
ATOM      5  C   UNL     1     126.104 -15.064 162.815  1.00  0.00     0.046 A 
ATOM      6  C   UNL     1     125.157 -13.623 164.557  1.00  0.00     0.018 A 
ATOM      7  C   UNL     1     125.823 -12.515 164.032  1.00  0.00     0.012 A 
ATOM      8  C   UNL     1     125.306 -14.883 163.957  1.00  0.00     0.038 A 
ATOM      9  C   UNL     1     126.639 -12.676 162.917  1.00  0.00     0.003 A 
ATOM     10  C   UNL     1     126.782 -13.937 162.323  1.00  0.00     0.026 A 
BRANCH   6  11
ATOM     11  C   UNL     1     124.300 -13.478 165.770  1.00  0.00     0.122 C 
ATOM     12  N   UNL     1     123.446 -14.401 166.061  1.00  0.00    -0.284 NA
ATOM     13  N   UNL     1     124.409 -12.370 166.561  1.00  0.00    -0.384 N 
ATOM     14  H   UNL     1     122.962 -14.167 166.929  1.00  0.00     0.189 HD
ATOM     15  H   UNL     1     124.732 -11.533 166.087  1.00  0.00     0.158 HD
ATOM     16  H   UNL     1     123.598 -12.171 167.134  1.00  0.00     0.158 HD
ENDBRANCH   6  11
ENDBRANCH   4   5
BRANCH   4  17
ATOM     17  C   UNL     1     125.123 -17.232 161.954  1.00  0.00     0.127 CG0
ATOM     18  G   UNL     1     125.361 -18.668 162.398  1.00  0.00     0.000 G0
ENDBRANCH   4  17
ENDBRANCH   2   4
ENDBRANCH   1   2
BRANCH   1  19
ATOM     19  C   UNL     1     127.514 -18.732 163.789  1.00  0.00     0.122 C 
BRANCH  19  20
ATOM     20  C   UNL     1     125.989 -18.725 163.818  1.00  0.00     0.023 C 
BRANCH  20  21
ATOM     21  C   UNL     1     125.363 -18.681 162.426  1.00  0.00     0.024 CG0
ATOM     22  G   UNL     1     125.128 -17.254 161.952  1.00  0.00     0.000 G0
ENDBRANCH  20  21
ENDBRANCH  19  20
ENDBRANCH   1  19
BRANCH   1  23
ATOM     23  C   UNL     1     129.490 -17.203 163.578  1.00  0.00     0.089 C 
ATOM     24  C   UNL     1     129.685 -15.788 164.140  1.00  0.00     0.042 C 
ATOM     25  C   UNL     1     130.129 -18.291 164.468  1.00  0.00     0.042 C 
ATOM     26  C   UNL     1     131.153 -15.505 164.450  1.00  0.00     0.104 C 
ATOM     27  C   UNL     1     130.927 -17.695 165.621  1.00  0.00     0.104 C 
ATOM     28  N   UNL     1     131.830 -16.666 165.069  1.00  0.00    -0.198 NA
BRANCH  28  29
ATOM     29  S   UNL     1     133.292 -16.370 165.878  1.00  0.00     0.243 S 
ATOM     30  O   UNL     1     134.253 -15.874 164.915  1.00  0.00    -0.207 OA
ATOM     31  O   UNL     1     132.989 -15.617 167.077  1.00  0.00    -0.207 OA
BRANCH  29  32
ATOM     32  C   UNL     1     133.832 -17.989 166.380  1.00  0.00     0.082 A 
ATOM     33  C   UNL     1     133.675 -18.388 167.710  1.00  0.00     0.024 A 
ATOM     34  C   UNL     1     134.349 -18.876 165.434  1.00  0.00     0.024 A 
ATOM     35  C   UNL     1     134.060 -19.677 168.091  1.00  0.00     0.027 A 
ATOM     36  C   UNL     1     134.730 -20.162 165.830  1.00  0.00     0.027 A 
ATOM     37  C   UNL     1     134.543 -20.589 167.148  1.00  0.00     0.031 A 
BRANCH  37  38
ATOM     38  N   UNL     1     135.030 -21.834 167.559  1.00  0.00    -0.399 N 
ATOM     39  H   UNL     1     134.527 -22.624 167.165  1.00  0.00     0.156 HD
ATOM     40  H   UNL     1     136.036 -21.935 167.467  1.00  0.00     0.156 HD
ENDBRANCH  37  38
ENDBRANCH  29  32
ENDBRANCH  28  29
ENDBRANCH   1  23
TORSDOF 6
ENDMDL
