MODEL 1
REMARK VINA RESULT:   -10.017      0.000      0.000
REMARK INTER + INTRA:         -18.364
REMARK INTER:                 -16.752
REMARK INTRA:                  -1.612
REMARK UNBOUND:                -1.612
REMARK SMILES C[C@@H](COc1cccc2ncnc(Nc3ccc(OCc4ccccn4)c(Cl)c3)c12)N(C)C(=O)CO
REMARK SMILES IDX 3 1 2 2 1 3 31 4 32 5 33 6 34 7 35 8 36 9 4 11 5 12 6 13
REMARK SMILES IDX 30 14 7 15 13 16 9 17 8 18 12 19 10 20 11 21 14 22 15 24
REMARK SMILES IDX 16 25 29 26 17 27 27 28 18 29 28 30 19 31 20 32 21 33 22 34
REMARK SMILES IDX 26 35 23 36 25 37 24 38
REMARK H PARENT 36 10 14 23
ROOT
ATOM      1  C   UNL     1      19.844  34.687  15.472  1.00  0.00     0.254 C 
ENDROOT
BRANCH   1   2
ATOM      2  C   UNL     1      20.501  33.834  14.358  1.00  0.00     0.119 C 
ATOM      3  C   UNL     1      20.147  32.356  14.532  1.00  0.00     0.035 C 
BRANCH   2   4
ATOM      4  N   UNL     1      21.964  34.019  14.207  1.00  0.00    -0.338 N 
ATOM      5  C   UNL     1      22.701  34.348  15.423  1.00  0.00     0.147 C 
BRANCH   4   6
ATOM      6  C   UNL     1      22.549  33.997  12.946  1.00  0.00     0.248 C 
ATOM      7  O   UNL     1      22.329  34.863  12.093  1.00  0.00    -0.272 OA
BRANCH   6   8
ATOM      8  C   UNL     1      23.515  32.847  12.619  1.00  0.00     0.256 C 
BRANCH   8   9
ATOM      9  O   UNL     1      22.877  31.787  11.921  1.00  0.00    -0.387 OA
ATOM     10  H   UNL     1      22.590  32.161  11.061  1.00  0.00     0.211 HD
ENDBRANCH   8   9
ENDBRANCH   6   8
ENDBRANCH   4   6
ENDBRANCH   2   4
ENDBRANCH   1   2
BRANCH   1  11
ATOM     11  O   UNL     1      18.647  35.363  15.054  1.00  0.00    -0.491 OA
BRANCH  11  12
ATOM     12  C   UNL     1      17.601  35.402  15.945  1.00  0.00     0.132 A 
ATOM     13  C   UNL     1      17.750  35.916  17.234  1.00  0.00     0.047 A 
ATOM     14  C   UNL     1      16.331  34.929  15.480  1.00  0.00     0.085 A 
ATOM     15  C   UNL     1      16.666  35.914  18.099  1.00  0.00     0.006 A 
ATOM     16  C   UNL     1      16.023  34.435  14.184  1.00  0.00     0.145 A 
ATOM     17  C   UNL     1      15.254  34.927  16.380  1.00  0.00     0.080 A 
ATOM     18  C   UNL     1      15.440  35.413  17.667  1.00  0.00     0.029 A 
ATOM     19  N   UNL     1      14.798  33.967  13.878  1.00  0.00    -0.218 NA
ATOM     20  N   UNL     1      14.039  34.475  16.072  1.00  0.00    -0.236 NA
ATOM     21  C   UNL     1      13.869  34.013  14.831  1.00  0.00     0.224 A 
BRANCH  16  22
ATOM     22  N   UNL     1      17.032  34.409  13.195  1.00  0.00    -0.339 N 
ATOM     23  H   UNL     1      17.812  35.016  13.443  1.00  0.00     0.168 HD
BRANCH  22  24
ATOM     24  C   UNL     1      17.139  33.824  11.925  1.00  0.00     0.041 A 
ATOM     25  C   UNL     1      17.932  32.712  11.633  1.00  0.00     0.030 A 
ATOM     26  C   UNL     1      16.449  34.423  10.861  1.00  0.00     0.050 A 
ATOM     27  C   UNL     1      18.031  32.204  10.330  1.00  0.00     0.050 A 
ATOM     28  C   UNL     1      16.558  33.932   9.556  1.00  0.00     0.085 A 
ATOM     29  C   UNL     1      17.348  32.813   9.275  1.00  0.00     0.138 A 
ATOM     30  Cl  UNL     1      15.691  34.762   8.307  1.00  0.00    -0.080 Cl
BRANCH  29  31
ATOM     31  O   UNL     1      17.405  32.403   7.970  1.00  0.00    -0.486 OA
BRANCH  31  32
ATOM     32  C   UNL     1      17.847  31.068   7.722  1.00  0.00     0.285 C 
BRANCH  32  33
ATOM     33  C   UNL     1      16.682  30.200   7.302  1.00  0.00     0.078 A 
ATOM     34  C   UNL     1      16.889  29.053   6.534  1.00  0.00     0.027 A 
ATOM     35  N   UNL     1      15.451  30.553   7.758  1.00  0.00    -0.258 NA
ATOM     36  C   UNL     1      15.797  28.254   6.206  1.00  0.00     0.004 A 
ATOM     37  C   UNL     1      14.412  29.760   7.420  1.00  0.00     0.111 A 
ATOM     38  C   UNL     1      14.532  28.613   6.655  1.00  0.00     0.020 A 
ENDBRANCH  32  33
ENDBRANCH  31  32
ENDBRANCH  29  31
ENDBRANCH  22  24
ENDBRANCH  16  22
ENDBRANCH  11  12
ENDBRANCH   1  11
TORSDOF 12
ENDMDL
MODEL 2
REMARK VINA RESULT:    -9.780      1.378      1.784
REMARK INTER + INTRA:         -17.967
REMARK INTER:                 -16.561
REMARK INTRA:                  -1.406
REMARK UNBOUND:                -1.612
REMARK SMILES C[C@@H](COc1cccc2ncnc(Nc3ccc(OCc4ccccn4)c(Cl)c3)c12)N(C)C(=O)CO
REMARK SMILES IDX 3 1 2 2 1 3 31 4 32 5 33 6 34 7 35 8 36 9 4 11 5 12 6 13
REMARK SMILES IDX 30 14 7 15 13 16 9 17 8 18 12 19 10 20 11 21 14 22 15 24
REMARK SMILES IDX 16 25 29 26 17 27 27 28 18 29 28 30 19 31 20 32 21 33 22 34
REMARK SMILES IDX 26 35 23 36 25 37 24 38
REMARK H PARENT 36 10 14 23
ROOT
ATOM      1  C   UNL     1      19.464  36.441  15.561  1.00  0.00     0.254 C 
ENDROOT
BRANCH   1   2
ATOM      2  C   UNL     1      20.901  35.893  15.756  1.00  0.00     0.119 C 
ATOM      3  C   UNL     1      21.707  36.024  14.462  1.00  0.00     0.035 C 
BRANCH   2   4
ATOM      4  N   UNL     1      20.979  34.516  16.297  1.00  0.00    -0.338 N 
ATOM      5  C   UNL     1      20.696  34.367  17.721  1.00  0.00     0.147 C 
BRANCH   4   6
ATOM      6  C   UNL     1      21.420  33.469  15.496  1.00  0.00     0.248 C 
ATOM      7  O   UNL     1      22.576  33.035  15.543  1.00  0.00    -0.272 OA
BRANCH   6   8
ATOM      8  C   UNL     1      20.415  32.830  14.525  1.00  0.00     0.256 C 
BRANCH   8   9
ATOM      9  O   UNL     1      20.538  31.417  14.471  1.00  0.00    -0.387 OA
ATOM     10  H   UNL     1      19.797  31.060  15.005  1.00  0.00     0.211 HD
ENDBRANCH   8   9
ENDBRANCH   6   8
ENDBRANCH   4   6
ENDBRANCH   2   4
ENDBRANCH   1   2
BRANCH   1  11
ATOM     11  O   UNL     1      18.472  35.415  15.392  1.00  0.00    -0.491 OA
BRANCH  11  12
ATOM     12  C   UNL     1      17.361  35.473  16.199  1.00  0.00     0.132 A 
ATOM     13  C   UNL     1      17.414  36.009  17.487  1.00  0.00     0.047 A 
ATOM     14  C   UNL     1      16.128  34.998  15.647  1.00  0.00     0.085 A 
ATOM     15  C   UNL     1      16.266  36.025  18.267  1.00  0.00     0.006 A 
ATOM     16  C   UNL     1      15.917  34.483  14.339  1.00  0.00     0.145 A 
ATOM     17  C   UNL     1      14.985  35.016  16.462  1.00  0.00     0.080 A 
ATOM     18  C   UNL     1      15.075  35.522  17.750  1.00  0.00     0.029 A 
ATOM     19  N   UNL     1      14.717  34.014  13.948  1.00  0.00    -0.218 NA
ATOM     20  N   UNL     1      13.795  34.563  16.068  1.00  0.00    -0.236 NA
ATOM     21  C   UNL     1      13.718  34.081  14.827  1.00  0.00     0.224 A 
BRANCH  16  22
ATOM     22  N   UNL     1      16.999  34.435  13.431  1.00  0.00    -0.339 N 
ATOM     23  H   UNL     1      17.796  34.969  13.774  1.00  0.00     0.168 HD
BRANCH  22  24
ATOM     24  C   UNL     1      17.167  33.914  12.140  1.00  0.00     0.041 A 
ATOM     25  C   UNL     1      18.045  32.877  11.817  1.00  0.00     0.030 A 
ATOM     26  C   UNL     1      16.449  34.504  11.089  1.00  0.00     0.050 A 
ATOM     27  C   UNL     1      18.201  32.432  10.496  1.00  0.00     0.050 A 
ATOM     28  C   UNL     1      16.613  34.078   9.768  1.00  0.00     0.085 A 
ATOM     29  C   UNL     1      17.489  33.033   9.455  1.00  0.00     0.138 A 
ATOM     30  Cl  UNL     1      15.705  34.893   8.539  1.00  0.00    -0.080 Cl
BRANCH  29  31
ATOM     31  O   UNL     1      17.595  32.683   8.136  1.00  0.00    -0.486 OA
BRANCH  31  32
ATOM     32  C   UNL     1      18.010  31.348   7.844  1.00  0.00     0.285 C 
BRANCH  32  33
ATOM     33  C   UNL     1      16.820  30.505   7.446  1.00  0.00     0.078 A 
ATOM     34  C   UNL     1      15.520  30.993   7.594  1.00  0.00     0.027 A 
ATOM     35  N   UNL     1      17.078  29.294   6.885  1.00  0.00    -0.258 NA
ATOM     36  C   UNL     1      14.452  30.206   7.173  1.00  0.00     0.004 A 
ATOM     37  C   UNL     1      16.020  28.553   6.491  1.00  0.00     0.111 A 
ATOM     38  C   UNL     1      14.704  28.960   6.612  1.00  0.00     0.020 A 
ENDBRANCH  32  33
ENDBRANCH  31  32
ENDBRANCH  29  31
ENDBRANCH  22  24
ENDBRANCH  16  22
ENDBRANCH  11  12
ENDBRANCH   1  11
TORSDOF 12
ENDMDL
MODEL 3
REMARK VINA RESULT:    -9.606      1.614      1.988
REMARK INTER + INTRA:         -17.677
REMARK INTER:                 -15.779
REMARK INTRA:                  -1.897
REMARK UNBOUND:                -1.612
REMARK SMILES C[C@@H](COc1cccc2ncnc(Nc3ccc(OCc4ccccn4)c(Cl)c3)c12)N(C)C(=O)CO
REMARK SMILES IDX 3 1 2 2 1 3 31 4 32 5 33 6 34 7 35 8 36 9 4 11 5 12 6 13
REMARK SMILES IDX 30 14 7 15 13 16 9 17 8 18 12 19 10 20 11 21 14 22 15 24
REMARK SMILES IDX 16 25 29 26 17 27 27 28 18 29 28 30 19 31 20 32 21 33 22 34
REMARK SMILES IDX 26 35 23 36 25 37 24 38
REMARK H PARENT 36 10 14 23
ROOT
ATOM      1  C   UNL     1      20.265  36.268  15.365  1.00  0.00     0.254 C 
ENDROOT
BRANCH   1   2
ATOM      2  C   UNL     1      20.939  35.010  14.761  1.00  0.00     0.119 C 
ATOM      3  C   UNL     1      21.085  33.917  15.821  1.00  0.00     0.035 C 
BRANCH   2   4
ATOM      4  N   UNL     1      22.225  35.259  14.068  1.00  0.00    -0.338 N 
ATOM      5  C   UNL     1      23.061  36.319  14.623  1.00  0.00     0.147 C 
BRANCH   4   6
ATOM      6  C   UNL     1      22.530  34.589  12.889  1.00  0.00     0.248 C 
ATOM      7  O   UNL     1      21.721  34.470  11.961  1.00  0.00    -0.272 OA
BRANCH   6   8
ATOM      8  C   UNL     1      23.936  33.986  12.743  1.00  0.00     0.256 C 
BRANCH   8   9
ATOM      9  O   UNL     1      24.167  33.458  11.446  1.00  0.00    -0.387 OA
ATOM     10  H   UNL     1      24.707  34.126  10.973  1.00  0.00     0.211 HD
ENDBRANCH   8   9
ENDBRANCH   6   8
ENDBRANCH   4   6
ENDBRANCH   2   4
ENDBRANCH   1   2
BRANCH   1  11
ATOM     11  O   UNL     1      18.837  36.289  15.214  1.00  0.00    -0.491 OA
BRANCH  11  12
ATOM     12  C   UNL     1      18.080  36.172  16.355  1.00  0.00     0.132 A 
ATOM     13  C   UNL     1      18.503  36.700  17.576  1.00  0.00     0.047 A 
ATOM     14  C   UNL     1      16.811  35.518  16.233  1.00  0.00     0.085 A 
ATOM     15  C   UNL     1      17.709  36.536  18.702  1.00  0.00     0.006 A 
ATOM     16  C   UNL     1      16.232  34.986  15.049  1.00  0.00     0.145 A 
ATOM     17  C   UNL     1      16.034  35.356  17.390  1.00  0.00     0.080 A 
ATOM     18  C   UNL     1      16.495  35.861  18.597  1.00  0.00     0.029 A 
ATOM     19  N   UNL     1      15.050  34.344  15.066  1.00  0.00    -0.218 NA
ATOM     20  N   UNL     1      14.857  34.731  17.403  1.00  0.00    -0.236 NA
ATOM     21  C   UNL     1      14.421  34.251  16.237  1.00  0.00     0.224 A 
BRANCH  16  22
ATOM     22  N   UNL     1      16.925  35.111  13.823  1.00  0.00    -0.339 N 
ATOM     23  H   UNL     1      17.261  36.062  13.680  1.00  0.00     0.168 HD
BRANCH  22  24
ATOM     24  C   UNL     1      17.150  34.251  12.738  1.00  0.00     0.041 A 
ATOM     25  C   UNL     1      16.266  34.081  11.671  1.00  0.00     0.030 A 
ATOM     26  C   UNL     1      18.314  33.467  12.746  1.00  0.00     0.050 A 
ATOM     27  C   UNL     1      16.530  33.170  10.638  1.00  0.00     0.050 A 
ATOM     28  C   UNL     1      18.574  32.544  11.729  1.00  0.00     0.085 A 
ATOM     29  C   UNL     1      17.687  32.386  10.659  1.00  0.00     0.138 A 
ATOM     30  Cl  UNL     1      20.022  31.601  11.846  1.00  0.00    -0.080 Cl
BRANCH  29  31
ATOM     31  O   UNL     1      18.013  31.455   9.711  1.00  0.00    -0.486 OA
BRANCH  31  32
ATOM     32  C   UNL     1      17.642  31.737   8.361  1.00  0.00     0.285 C 
BRANCH  32  33
ATOM     33  C   UNL     1      16.577  30.769   7.898  1.00  0.00     0.078 A 
ATOM     34  C   UNL     1      15.243  31.170   7.802  1.00  0.00     0.027 A 
ATOM     35  N   UNL     1      16.988  29.529   7.524  1.00  0.00    -0.258 NA
ATOM     36  C   UNL     1      14.298  30.264   7.327  1.00  0.00     0.004 A 
ATOM     37  C   UNL     1      16.047  28.672   7.071  1.00  0.00     0.111 A 
ATOM     38  C   UNL     1      14.705  28.989   6.955  1.00  0.00     0.020 A 
ENDBRANCH  32  33
ENDBRANCH  31  32
ENDBRANCH  29  31
ENDBRANCH  22  24
ENDBRANCH  16  22
ENDBRANCH  11  12
ENDBRANCH   1  11
TORSDOF 12
ENDMDL
MODEL 4
REMARK VINA RESULT:    -9.417      1.446      1.947
REMARK INTER + INTRA:         -17.360
REMARK INTER:                 -15.979
REMARK INTRA:                  -1.381
REMARK UNBOUND:                -1.612
REMARK SMILES C[C@@H](COc1cccc2ncnc(Nc3ccc(OCc4ccccn4)c(Cl)c3)c12)N(C)C(=O)CO
REMARK SMILES IDX 3 1 2 2 1 3 31 4 32 5 33 6 34 7 35 8 36 9 4 11 5 12 6 13
REMARK SMILES IDX 30 14 7 15 13 16 9 17 8 18 12 19 10 20 11 21 14 22 15 24
REMARK SMILES IDX 16 25 29 26 17 27 27 28 18 29 28 30 19 31 20 32 21 33 22 34
REMARK SMILES IDX 26 35 23 36 25 37 24 38
REMARK H PARENT 36 10 14 23
ROOT
ATOM      1  C   UNL     1      21.246  35.945  15.084  1.00  0.00     0.254 C 
ENDROOT
BRANCH   1   2
ATOM      2  C   UNL     1      22.229  34.974  14.382  1.00  0.00     0.119 C 
ATOM      3  C   UNL     1      22.642  33.847  15.331  1.00  0.00     0.035 C 
BRANCH   2   4
ATOM      4  N   UNL     1      23.415  35.618  13.768  1.00  0.00    -0.338 N 
ATOM      5  C   UNL     1      24.332  36.286  14.687  1.00  0.00     0.147 C 
BRANCH   4   6
ATOM      6  C   UNL     1      23.550  35.670  12.386  1.00  0.00     0.248 C 
ATOM      7  O   UNL     1      23.613  34.656  11.683  1.00  0.00    -0.272 OA
BRANCH   6   8
ATOM      8  C   UNL     1      23.612  37.053  11.719  1.00  0.00     0.256 C 
BRANCH   8   9
ATOM      9  O   UNL     1      23.929  36.974  10.337  1.00  0.00    -0.387 OA
ATOM     10  H   UNL     1      24.341  37.833  10.103  1.00  0.00     0.211 HD
ENDBRANCH   8   9
ENDBRANCH   6   8
ENDBRANCH   4   6
ENDBRANCH   2   4
ENDBRANCH   1   2
BRANCH   1  11
ATOM     11  O   UNL     1      19.864  35.681  14.791  1.00  0.00    -0.491 OA
BRANCH  11  12
ATOM     12  C   UNL     1      18.958  35.866  15.808  1.00  0.00     0.132 A 
ATOM     13  C   UNL     1      19.284  36.577  16.964  1.00  0.00     0.047 A 
ATOM     14  C   UNL     1      17.643  35.332  15.615  1.00  0.00     0.085 A 
ATOM     15  C   UNL     1      18.336  36.717  17.969  1.00  0.00     0.006 A 
ATOM     16  C   UNL     1      17.158  34.640  14.472  1.00  0.00     0.145 A 
ATOM     17  C   UNL     1      16.708  35.478  16.652  1.00  0.00     0.080 A 
ATOM     18  C   UNL     1      17.070  36.160  17.804  1.00  0.00     0.029 A 
ATOM     19  N   UNL     1      15.911  34.136  14.425  1.00  0.00    -0.218 NA
ATOM     20  N   UNL     1      15.469  34.989  16.599  1.00  0.00    -0.236 NA
ATOM     21  C   UNL     1      15.129  34.337  15.486  1.00  0.00     0.224 A 
BRANCH  16  22
ATOM     22  N   UNL     1      18.014  34.452  13.362  1.00  0.00    -0.339 N 
ATOM     23  H   UNL     1      18.922  34.889  13.514  1.00  0.00     0.168 HD
BRANCH  22  24
ATOM     24  C   UNL     1      17.847  33.900  12.084  1.00  0.00     0.041 A 
ATOM     25  C   UNL     1      18.523  32.770  11.619  1.00  0.00     0.030 A 
ATOM     26  C   UNL     1      16.986  34.553  11.189  1.00  0.00     0.050 A 
ATOM     27  C   UNL     1      18.345  32.295  10.312  1.00  0.00     0.050 A 
ATOM     28  C   UNL     1      16.818  34.096   9.878  1.00  0.00     0.085 A 
ATOM     29  C   UNL     1      17.493  32.958   9.424  1.00  0.00     0.138 A 
ATOM     30  Cl  UNL     1      15.758  34.990   8.842  1.00  0.00    -0.080 Cl
BRANCH  29  31
ATOM     31  O   UNL     1      17.278  32.583   8.125  1.00  0.00    -0.486 OA
BRANCH  31  32
ATOM     32  C   UNL     1      17.949  31.410   7.663  1.00  0.00     0.285 C 
BRANCH  32  33
ATOM     33  C   UNL     1      16.944  30.378   7.205  1.00  0.00     0.078 A 
ATOM     34  C   UNL     1      15.577  30.655   7.231  1.00  0.00     0.027 A 
ATOM     35  N   UNL     1      17.436  29.210   6.714  1.00  0.00    -0.258 NA
ATOM     36  C   UNL     1      14.684  29.696   6.758  1.00  0.00     0.004 A 
ATOM     37  C   UNL     1      16.545  28.299   6.266  1.00  0.00     0.111 A 
ATOM     38  C   UNL     1      15.176  28.493   6.267  1.00  0.00     0.020 A 
ENDBRANCH  32  33
ENDBRANCH  31  32
ENDBRANCH  29  31
ENDBRANCH  22  24
ENDBRANCH  16  22
ENDBRANCH  11  12
ENDBRANCH   1  11
TORSDOF 12
ENDMDL
MODEL 5
REMARK VINA RESULT:    -9.408      1.928      5.354
REMARK INTER + INTRA:         -17.346
REMARK INTER:                 -15.621
REMARK INTRA:                  -1.725
REMARK UNBOUND:                -1.612
REMARK SMILES C[C@@H](COc1cccc2ncnc(Nc3ccc(OCc4ccccn4)c(Cl)c3)c12)N(C)C(=O)CO
REMARK SMILES IDX 3 1 2 2 1 3 31 4 32 5 33 6 34 7 35 8 36 9 4 11 5 12 6 13
REMARK SMILES IDX 30 14 7 15 13 16 9 17 8 18 12 19 10 20 11 21 14 22 15 24
REMARK SMILES IDX 16 25 29 26 17 27 27 28 18 29 28 30 19 31 20 32 21 33 22 34
REMARK SMILES IDX 26 35 23 36 25 37 24 38
REMARK H PARENT 36 10 14 23
ROOT
ATOM      1  C   UNL     1      19.011  33.855  16.550  1.00  0.00     0.254 C 
ENDROOT
BRANCH   1   2
ATOM      2  C   UNL     1      18.180  34.896  15.759  1.00  0.00     0.119 C 
ATOM      3  C   UNL     1      18.956  36.207  15.615  1.00  0.00     0.035 C 
BRANCH   2   4
ATOM      4  N   UNL     1      16.815  35.138  16.282  1.00  0.00    -0.338 N 
ATOM      5  C   UNL     1      16.730  35.840  17.559  1.00  0.00     0.147 C 
BRANCH   4   6
ATOM      6  C   UNL     1      15.707  34.605  15.632  1.00  0.00     0.248 C 
ATOM      7  O   UNL     1      15.568  34.652  14.405  1.00  0.00    -0.272 OA
BRANCH   6   8
ATOM      8  C   UNL     1      14.627  33.923  16.487  1.00  0.00     0.256 C 
BRANCH   8   9
ATOM      9  O   UNL     1      13.449  34.708  16.598  1.00  0.00    -0.387 OA
ATOM     10  H   UNL     1      13.750  35.637  16.697  1.00  0.00     0.211 HD
ENDBRANCH   8   9
ENDBRANCH   6   8
ENDBRANCH   4   6
ENDBRANCH   2   4
ENDBRANCH   1   2
BRANCH   1  11
ATOM     11  O   UNL     1      19.919  33.098  15.733  1.00  0.00    -0.491 OA
BRANCH  11  12
ATOM     12  C   UNL     1      21.250  33.440  15.787  1.00  0.00     0.132 A 
ATOM     13  C   UNL     1      21.983  33.358  16.971  1.00  0.00     0.047 A 
ATOM     14  C   UNL     1      21.869  33.845  14.561  1.00  0.00     0.085 A 
ATOM     15  C   UNL     1      23.319  33.734  16.974  1.00  0.00     0.006 A 
ATOM     16  C   UNL     1      21.262  33.919  13.278  1.00  0.00     0.145 A 
ATOM     17  C   UNL     1      23.218  34.231  14.594  1.00  0.00     0.080 A 
ATOM     18  C   UNL     1      23.914  34.173  15.793  1.00  0.00     0.029 A 
ATOM     19  N   UNL     1      21.934  34.367  12.201  1.00  0.00    -0.218 NA
ATOM     20  N   UNL     1      23.886  34.663  13.525  1.00  0.00    -0.236 NA
ATOM     21  C   UNL     1      23.209  34.712  12.376  1.00  0.00     0.224 A 
BRANCH  16  22
ATOM     22  N   UNL     1      19.909  33.537  13.129  1.00  0.00    -0.339 N 
ATOM     23  H   UNL     1      19.485  33.311  14.028  1.00  0.00     0.168 HD
BRANCH  22  24
ATOM     24  C   UNL     1      19.076  33.304  12.025  1.00  0.00     0.041 A 
ATOM     25  C   UNL     1      19.171  32.192  11.187  1.00  0.00     0.030 A 
ATOM     26  C   UNL     1      18.118  34.277  11.703  1.00  0.00     0.050 A 
ATOM     27  C   UNL     1      18.337  32.042  10.070  1.00  0.00     0.050 A 
ATOM     28  C   UNL     1      17.295  34.143  10.580  1.00  0.00     0.085 A 
ATOM     29  C   UNL     1      17.391  33.020   9.751  1.00  0.00     0.138 A 
ATOM     30  Cl  UNL     1      16.167  35.414  10.251  1.00  0.00    -0.080 Cl
BRANCH  29  31
ATOM     31  O   UNL     1      16.554  32.971   8.670  1.00  0.00    -0.486 OA
BRANCH  31  32
ATOM     32  C   UNL     1      16.950  32.147   7.573  1.00  0.00     0.285 C 
BRANCH  32  33
ATOM     33  C   UNL     1      16.178  30.847   7.590  1.00  0.00     0.078 A 
ATOM     34  C   UNL     1      14.785  30.847   7.683  1.00  0.00     0.027 A 
ATOM     35  N   UNL     1      16.892  29.700   7.447  1.00  0.00    -0.258 NA
ATOM     36  C   UNL     1      14.106  29.632   7.650  1.00  0.00     0.004 A 
ATOM     37  C   UNL     1      16.205  28.538   7.421  1.00  0.00     0.111 A 
ATOM     38  C   UNL     1      14.827  28.453   7.518  1.00  0.00     0.020 A 
ENDBRANCH  32  33
ENDBRANCH  31  32
ENDBRANCH  29  31
ENDBRANCH  22  24
ENDBRANCH  16  22
ENDBRANCH  11  12
ENDBRANCH   1  11
TORSDOF 12
ENDMDL
MODEL 6
REMARK VINA RESULT:    -9.042      2.287      4.973
REMARK INTER + INTRA:         -16.733
REMARK INTER:                 -14.777
REMARK INTRA:                  -1.956
REMARK UNBOUND:                -1.612
REMARK SMILES C[C@@H](COc1cccc2ncnc(Nc3ccc(OCc4ccccn4)c(Cl)c3)c12)N(C)C(=O)CO
REMARK SMILES IDX 3 1 2 2 1 3 31 4 32 5 33 6 34 7 35 8 36 9 4 11 5 12 6 13
REMARK SMILES IDX 30 14 7 15 13 16 9 17 8 18 12 19 10 20 11 21 14 22 15 24
REMARK SMILES IDX 16 25 29 26 17 27 27 28 18 29 28 30 19 31 20 32 21 33 22 34
REMARK SMILES IDX 26 35 23 36 25 37 24 38
REMARK H PARENT 36 10 14 23
ROOT
ATOM      1  C   UNL     1      18.909  33.721  16.906  1.00  0.00     0.254 C 
ENDROOT
BRANCH   1   2
ATOM      2  C   UNL     1      18.169  35.070  16.718  1.00  0.00     0.119 C 
ATOM      3  C   UNL     1      17.385  35.075  15.403  1.00  0.00     0.035 C 
BRANCH   2   4
ATOM      4  N   UNL     1      19.022  36.275  16.836  1.00  0.00    -0.338 N 
ATOM      5  C   UNL     1      19.633  36.756  15.600  1.00  0.00     0.147 C 
BRANCH   4   6
ATOM      6  C   UNL     1      19.304  36.819  18.084  1.00  0.00     0.248 C 
ATOM      7  O   UNL     1      18.461  37.426  18.752  1.00  0.00    -0.272 OA
BRANCH   6   8
ATOM      8  C   UNL     1      20.722  36.638  18.646  1.00  0.00     0.256 C 
BRANCH   8   9
ATOM      9  O   UNL     1      20.820  35.523  19.520  1.00  0.00    -0.387 OA
ATOM     10  H   UNL     1      21.130  35.879  20.380  1.00  0.00     0.211 HD
ENDBRANCH   8   9
ENDBRANCH   6   8
ENDBRANCH   4   6
ENDBRANCH   2   4
ENDBRANCH   1   2
BRANCH   1  11
ATOM     11  O   UNL     1      19.669  33.313  15.757  1.00  0.00    -0.491 OA
BRANCH  11  12
ATOM     12  C   UNL     1      21.039  33.391  15.847  1.00  0.00     0.132 A 
ATOM     13  C   UNL     1      21.709  33.197  17.056  1.00  0.00     0.047 A 
ATOM     14  C   UNL     1      21.759  33.640  14.634  1.00  0.00     0.085 A 
ATOM     15  C   UNL     1      23.092  33.306  17.094  1.00  0.00     0.006 A 
ATOM     16  C   UNL     1      21.214  33.800  13.332  1.00  0.00     0.145 A 
ATOM     17  C   UNL     1      23.155  33.757  14.704  1.00  0.00     0.080 A 
ATOM     18  C   UNL     1      23.793  33.593  15.925  1.00  0.00     0.029 A 
ATOM     19  N   UNL     1      21.990  34.084  12.270  1.00  0.00    -0.218 NA
ATOM     20  N   UNL     1      23.924  34.026  13.649  1.00  0.00    -0.236 NA
ATOM     21  C   UNL     1      23.303  34.179  12.479  1.00  0.00     0.224 A 
BRANCH  16  22
ATOM     22  N   UNL     1      19.817  33.684  13.147  1.00  0.00    -0.339 N 
ATOM     23  H   UNL     1      19.316  33.773  14.030  1.00  0.00     0.168 HD
BRANCH  22  24
ATOM     24  C   UNL     1      19.000  33.373  12.050  1.00  0.00     0.041 A 
ATOM     25  C   UNL     1      19.122  32.214  11.280  1.00  0.00     0.030 A 
ATOM     26  C   UNL     1      18.030  34.309  11.661  1.00  0.00     0.050 A 
ATOM     27  C   UNL     1      18.303  31.985  10.166  1.00  0.00     0.050 A 
ATOM     28  C   UNL     1      17.222  34.095  10.541  1.00  0.00     0.085 A 
ATOM     29  C   UNL     1      17.345  32.927   9.781  1.00  0.00     0.138 A 
ATOM     30  Cl  UNL     1      16.076  35.325  10.125  1.00  0.00    -0.080 Cl
BRANCH  29  31
ATOM     31  O   UNL     1      16.521  32.800   8.695  1.00  0.00    -0.486 OA
BRANCH  31  32
ATOM     32  C   UNL     1      17.019  32.063   7.578  1.00  0.00     0.285 C 
BRANCH  32  33
ATOM     33  C   UNL     1      16.191  30.817   7.362  1.00  0.00     0.078 A 
ATOM     34  C   UNL     1      16.759  29.674   6.797  1.00  0.00     0.027 A 
ATOM     35  N   UNL     1      14.904  30.845   7.797  1.00  0.00    -0.258 NA
ATOM     36  C   UNL     1      15.977  28.530   6.657  1.00  0.00     0.004 A 
ATOM     37  C   UNL     1      14.170  29.722   7.644  1.00  0.00     0.111 A 
ATOM     38  C   UNL     1      14.656  28.552   7.086  1.00  0.00     0.020 A 
ENDBRANCH  32  33
ENDBRANCH  31  32
ENDBRANCH  29  31
ENDBRANCH  22  24
ENDBRANCH  16  22
ENDBRANCH  11  12
ENDBRANCH   1  11
TORSDOF 12
ENDMDL
MODEL 7
REMARK VINA RESULT:    -9.001      3.051      7.230
REMARK INTER + INTRA:         -16.664
REMARK INTER:                 -14.841
REMARK INTRA:                  -1.823
REMARK UNBOUND:                -1.612
REMARK SMILES C[C@@H](COc1cccc2ncnc(Nc3ccc(OCc4ccccn4)c(Cl)c3)c12)N(C)C(=O)CO
REMARK SMILES IDX 3 1 2 2 1 3 31 4 32 5 33 6 34 7 35 8 36 9 4 11 5 12 6 13
REMARK SMILES IDX 30 14 7 15 13 16 9 17 8 18 12 19 10 20 11 21 14 22 15 24
REMARK SMILES IDX 16 25 29 26 17 27 27 28 18 29 28 30 19 31 20 32 21 33 22 34
REMARK SMILES IDX 26 35 23 36 25 37 24 38
REMARK H PARENT 36 10 14 23
ROOT
ATOM      1  C   UNL     1      16.191  33.894  12.317  1.00  0.00     0.254 C 
ENDROOT
BRANCH   1   2
ATOM      2  C   UNL     1      16.981  34.342  11.061  1.00  0.00     0.119 C 
ATOM      3  C   UNL     1      16.173  35.359  10.252  1.00  0.00     0.035 C 
BRANCH   2   4
ATOM      4  N   UNL     1      17.467  33.238  10.199  1.00  0.00    -0.338 N 
ATOM      5  C   UNL     1      16.801  33.088   8.909  1.00  0.00     0.147 C 
BRANCH   4   6
ATOM      6  C   UNL     1      18.417  32.341  10.674  1.00  0.00     0.248 C 
ATOM      7  O   UNL     1      18.476  31.168  10.292  1.00  0.00    -0.272 OA
BRANCH   6   8
ATOM      8  C   UNL     1      19.436  32.848  11.707  1.00  0.00     0.256 C 
BRANCH   8   9
ATOM      9  O   UNL     1      20.753  32.390  11.439  1.00  0.00    -0.387 OA
ATOM     10  H   UNL     1      21.300  33.195  11.317  1.00  0.00     0.211 HD
ENDBRANCH   8   9
ENDBRANCH   6   8
ENDBRANCH   4   6
ENDBRANCH   2   4
ENDBRANCH   1   2
BRANCH   1  11
ATOM     11  O   UNL     1      16.787  34.312  13.555  1.00  0.00    -0.491 OA
BRANCH  11  12
ATOM     12  C   UNL     1      15.945  34.525  14.620  1.00  0.00     0.132 A 
ATOM     13  C   UNL     1      14.600  34.156  14.580  1.00  0.00     0.047 A 
ATOM     14  C   UNL     1      16.517  35.107  15.798  1.00  0.00     0.085 A 
ATOM     15  C   UNL     1      13.789  34.413  15.677  1.00  0.00     0.006 A 
ATOM     16  C   UNL     1      17.874  35.478  15.998  1.00  0.00     0.145 A 
ATOM     17  C   UNL     1      15.672  35.366  16.888  1.00  0.00     0.080 A 
ATOM     18  C   UNL     1      14.330  35.020  16.807  1.00  0.00     0.029 A 
ATOM     19  N   UNL     1      18.287  36.068  17.135  1.00  0.00    -0.218 NA
ATOM     20  N   UNL     1      16.084  35.939  18.018  1.00  0.00    -0.236 NA
ATOM     21  C   UNL     1      17.376  36.266  18.087  1.00  0.00     0.224 A 
BRANCH  16  22
ATOM     22  N   UNL     1      18.814  35.245  14.968  1.00  0.00    -0.339 N 
ATOM     23  H   UNL     1      18.360  34.923  14.115  1.00  0.00     0.168 HD
BRANCH  22  24
ATOM     24  C   UNL     1      20.215  35.258  14.904  1.00  0.00     0.041 A 
ATOM     25  C   UNL     1      20.989  36.415  14.800  1.00  0.00     0.030 A 
ATOM     26  C   UNL     1      20.888  34.026  14.889  1.00  0.00     0.050 A 
ATOM     27  C   UNL     1      22.386  36.356  14.693  1.00  0.00     0.050 A 
ATOM     28  C   UNL     1      22.279  33.960  14.765  1.00  0.00     0.085 A 
ATOM     29  C   UNL     1      23.046  35.125  14.669  1.00  0.00     0.138 A 
ATOM     30  Cl  UNL     1      23.011  32.391  14.723  1.00  0.00    -0.080 Cl
BRANCH  29  31
ATOM     31  O   UNL     1      24.400  34.970  14.542  1.00  0.00    -0.486 OA
BRANCH  31  32
ATOM     32  C   UNL     1      24.977  35.269  13.270  1.00  0.00     0.285 C 
BRANCH  32  33
ATOM     33  C   UNL     1      25.504  34.008  12.625  1.00  0.00     0.078 A 
ATOM     34  C   UNL     1      24.747  33.326  11.671  1.00  0.00     0.027 A 
ATOM     35  N   UNL     1      26.759  33.614  12.969  1.00  0.00    -0.258 NA
ATOM     36  C   UNL     1      25.285  32.193  11.065  1.00  0.00     0.004 A 
ATOM     37  C   UNL     1      27.251  32.510  12.366  1.00  0.00     0.111 A 
ATOM     38  C   UNL     1      26.561  31.774  11.419  1.00  0.00     0.020 A 
ENDBRANCH  32  33
ENDBRANCH  31  32
ENDBRANCH  29  31
ENDBRANCH  22  24
ENDBRANCH  16  22
ENDBRANCH  11  12
ENDBRANCH   1  11
TORSDOF 12
ENDMDL
MODEL 8
REMARK VINA RESULT:    -8.809      3.130      7.748
REMARK INTER + INTRA:         -16.344
REMARK INTER:                 -14.853
REMARK INTRA:                  -1.491
REMARK UNBOUND:                -1.612
REMARK SMILES C[C@@H](COc1cccc2ncnc(Nc3ccc(OCc4ccccn4)c(Cl)c3)c12)N(C)C(=O)CO
REMARK SMILES IDX 3 1 2 2 1 3 31 4 32 5 33 6 34 7 35 8 36 9 4 11 5 12 6 13
REMARK SMILES IDX 30 14 7 15 13 16 9 17 8 18 12 19 10 20 11 21 14 22 15 24
REMARK SMILES IDX 16 25 29 26 17 27 27 28 18 29 28 30 19 31 20 32 21 33 22 34
REMARK SMILES IDX 26 35 23 36 25 37 24 38
REMARK H PARENT 36 10 14 23
ROOT
ATOM      1  C   UNL     1      16.337  33.894  12.019  1.00  0.00     0.254 C 
ENDROOT
BRANCH   1   2
ATOM      2  C   UNL     1      17.251  33.148  11.014  1.00  0.00     0.119 C 
ATOM      3  C   UNL     1      18.672  33.714  11.057  1.00  0.00     0.035 C 
BRANCH   2   4
ATOM      4  N   UNL     1      16.740  33.091   9.624  1.00  0.00    -0.338 N 
ATOM      5  C   UNL     1      16.121  34.311   9.116  1.00  0.00     0.147 C 
BRANCH   4   6
ATOM      6  C   UNL     1      16.753  31.894   8.918  1.00  0.00     0.248 C 
ATOM      7  O   UNL     1      17.718  31.121   8.933  1.00  0.00    -0.272 OA
BRANCH   6   8
ATOM      8  C   UNL     1      15.506  31.525   8.099  1.00  0.00     0.256 C 
BRANCH   8   9
ATOM      9  O   UNL     1      14.608  30.697   8.824  1.00  0.00    -0.387 OA
ATOM     10  H   UNL     1      14.139  30.156   8.155  1.00  0.00     0.211 HD
ENDBRANCH   8   9
ENDBRANCH   6   8
ENDBRANCH   4   6
ENDBRANCH   2   4
ENDBRANCH   1   2
BRANCH   1  11
ATOM     11  O   UNL     1      17.035  34.404  13.167  1.00  0.00    -0.491 OA
BRANCH  11  12
ATOM     12  C   UNL     1      16.404  34.304  14.384  1.00  0.00     0.132 A 
ATOM     13  C   UNL     1      15.021  34.141  14.485  1.00  0.00     0.047 A 
ATOM     14  C   UNL     1      17.232  34.332  15.552  1.00  0.00     0.085 A 
ATOM     15  C   UNL     1      14.433  34.066  15.740  1.00  0.00     0.006 A 
ATOM     16  C   UNL     1      18.649  34.435  15.596  1.00  0.00     0.145 A 
ATOM     17  C   UNL     1      16.610  34.265  16.808  1.00  0.00     0.080 A 
ATOM     18  C   UNL     1      15.230  34.138  16.880  1.00  0.00     0.029 A 
ATOM     19  N   UNL     1      19.318  34.505  16.762  1.00  0.00    -0.218 NA
ATOM     20  N   UNL     1      17.275  34.322  17.962  1.00  0.00    -0.236 NA
ATOM     21  C   UNL     1      18.601  34.441  17.884  1.00  0.00     0.224 A 
BRANCH  16  22
ATOM     22  N   UNL     1      19.376  34.492  14.385  1.00  0.00    -0.339 N 
ATOM     23  H   UNL     1      18.766  34.693  13.594  1.00  0.00     0.168 HD
BRANCH  22  24
ATOM     24  C   UNL     1      20.709  34.231  14.034  1.00  0.00     0.041 A 
ATOM     25  C   UNL     1      21.205  32.966  13.712  1.00  0.00     0.030 A 
ATOM     26  C   UNL     1      21.620  35.297  14.060  1.00  0.00     0.050 A 
ATOM     27  C   UNL     1      22.561  32.765  13.415  1.00  0.00     0.050 A 
ATOM     28  C   UNL     1      22.976  35.100  13.782  1.00  0.00     0.085 A 
ATOM     29  C   UNL     1      23.463  33.831  13.452  1.00  0.00     0.138 A 
ATOM     30  Cl  UNL     1      24.026  36.474  13.871  1.00  0.00    -0.080 Cl
BRANCH  29  31
ATOM     31  O   UNL     1      24.805  33.724  13.202  1.00  0.00    -0.486 OA
BRANCH  31  32
ATOM     32  C   UNL     1      25.195  33.211  11.927  1.00  0.00     0.285 C 
BRANCH  32  33
ATOM     33  C   UNL     1      26.465  32.401  12.055  1.00  0.00     0.078 A 
ATOM     34  C   UNL     1      26.908  31.599  11.002  1.00  0.00     0.027 A 
ATOM     35  N   UNL     1      27.177  32.543  13.205  1.00  0.00    -0.258 NA
ATOM     36  C   UNL     1      28.107  30.905  11.140  1.00  0.00     0.004 A 
ATOM     37  C   UNL     1      28.333  31.853  13.309  1.00  0.00     0.111 A 
ATOM     38  C   UNL     1      28.835  31.031  12.316  1.00  0.00     0.020 A 
ENDBRANCH  32  33
ENDBRANCH  31  32
ENDBRANCH  29  31
ENDBRANCH  22  24
ENDBRANCH  16  22
ENDBRANCH  11  12
ENDBRANCH   1  11
TORSDOF 12
ENDMDL
MODEL 9
REMARK VINA RESULT:    -8.470      2.195      3.021
REMARK INTER + INTRA:         -15.776
REMARK INTER:                 -14.289
REMARK INTRA:                  -1.487
REMARK UNBOUND:                -1.612
REMARK SMILES C[C@@H](COc1cccc2ncnc(Nc3ccc(OCc4ccccn4)c(Cl)c3)c12)N(C)C(=O)CO
REMARK SMILES IDX 3 1 2 2 1 3 31 4 32 5 33 6 34 7 35 8 36 9 4 11 5 12 6 13
REMARK SMILES IDX 30 14 7 15 13 16 9 17 8 18 12 19 10 20 11 21 14 22 15 24
REMARK SMILES IDX 16 25 29 26 17 27 27 28 18 29 28 30 19 31 20 32 21 33 22 34
REMARK SMILES IDX 26 35 23 36 25 37 24 38
REMARK H PARENT 36 10 14 23
ROOT
ATOM      1  C   UNL     1      21.434  35.845  14.793  1.00  0.00     0.254 C 
ENDROOT
BRANCH   1   2
ATOM      2  C   UNL     1      22.224  35.034  13.735  1.00  0.00     0.119 C 
ATOM      3  C   UNL     1      21.808  33.561  13.766  1.00  0.00     0.035 C 
BRANCH   2   4
ATOM      4  N   UNL     1      23.697  35.174  13.809  1.00  0.00    -0.338 N 
ATOM      5  C   UNL     1      24.282  35.137  15.145  1.00  0.00     0.147 C 
BRANCH   4   6
ATOM      6  C   UNL     1      24.436  35.450  12.663  1.00  0.00     0.248 C 
ATOM      7  O   UNL     1      25.198  34.625  12.147  1.00  0.00    -0.272 OA
BRANCH   6   8
ATOM      8  C   UNL     1      24.278  36.836  12.018  1.00  0.00     0.256 C 
BRANCH   8   9
ATOM      9  O   UNL     1      25.466  37.271  11.373  1.00  0.00    -0.387 OA
ATOM     10  H   UNL     1      25.320  38.213  11.144  1.00  0.00     0.211 HD
ENDBRANCH   8   9
ENDBRANCH   6   8
ENDBRANCH   4   6
ENDBRANCH   2   4
ENDBRANCH   1   2
BRANCH   1  11
ATOM     11  O   UNL     1      20.245  35.187  15.258  1.00  0.00    -0.491 OA
BRANCH  11  12
ATOM     12  C   UNL     1      20.004  35.201  16.611  1.00  0.00     0.132 A 
ATOM     13  C   UNL     1      21.042  35.233  17.543  1.00  0.00     0.047 A 
ATOM     14  C   UNL     1      18.634  35.225  17.030  1.00  0.00     0.085 A 
ATOM     15  C   UNL     1      20.743  35.226  18.898  1.00  0.00     0.006 A 
ATOM     16  C   UNL     1      17.484  35.252  16.196  1.00  0.00     0.145 A 
ATOM     17  C   UNL     1      18.361  35.206  18.406  1.00  0.00     0.080 A 
ATOM     18  C   UNL     1      19.413  35.203  19.311  1.00  0.00     0.029 A 
ATOM     19  N   UNL     1      16.239  35.220  16.706  1.00  0.00    -0.218 NA
ATOM     20  N   UNL     1      17.127  35.186  18.910  1.00  0.00    -0.236 NA
ATOM     21  C   UNL     1      16.122  35.192  18.033  1.00  0.00     0.224 A 
BRANCH  16  22
ATOM     22  N   UNL     1      17.647  35.290  14.792  1.00  0.00    -0.339 N 
ATOM     23  H   UNL     1      18.127  36.139  14.496  1.00  0.00     0.168 HD
BRANCH  22  24
ATOM     24  C   UNL     1      17.204  34.480  13.737  1.00  0.00     0.041 A 
ATOM     25  C   UNL     1      15.862  34.235  13.439  1.00  0.00     0.030 A 
ATOM     26  C   UNL     1      18.170  33.825  12.957  1.00  0.00     0.050 A 
ATOM     27  C   UNL     1      15.487  33.376  12.397  1.00  0.00     0.050 A 
ATOM     28  C   UNL     1      17.802  32.953  11.927  1.00  0.00     0.085 A 
ATOM     29  C   UNL     1      16.455  32.721  11.631  1.00  0.00     0.138 A 
ATOM     30  Cl  UNL     1      19.068  32.169  11.044  1.00  0.00    -0.080 Cl
BRANCH  29  31
ATOM     31  O   UNL     1      16.182  31.848  10.613  1.00  0.00    -0.486 OA
BRANCH  31  32
ATOM     32  C   UNL     1      16.066  32.391   9.298  1.00  0.00     0.285 C 
BRANCH  32  33
ATOM     33  C   UNL     1      15.609  31.325   8.329  1.00  0.00     0.078 A 
ATOM     34  C   UNL     1      16.323  31.074   7.156  1.00  0.00     0.027 A 
ATOM     35  N   UNL     1      14.521  30.591   8.684  1.00  0.00    -0.258 NA
ATOM     36  C   UNL     1      15.897  30.052   6.311  1.00  0.00     0.004 A 
ATOM     37  C   UNL     1      14.131  29.610   7.842  1.00  0.00     0.111 A 
ATOM     38  C   UNL     1      14.778  29.305   6.658  1.00  0.00     0.020 A 
ENDBRANCH  32  33
ENDBRANCH  31  32
ENDBRANCH  29  31
ENDBRANCH  22  24
ENDBRANCH  16  22
ENDBRANCH  11  12
ENDBRANCH   1  11
TORSDOF 12
ENDMDL
