MODEL 4
REMARK VINA RESULT:    -8.683      1.638      2.693
REMARK INTER + INTRA:         -16.529
REMARK INTER:                 -15.847
REMARK INTRA:                  -0.682
REMARK UNBOUND:                -1.502
REMARK SMILES CCCc1c(OCCCn2ccc3cc(OC(C)(C)C(=O)O)ccc32)ccc2c(C(=O)c3ccccc3)cccc12
REMARK SMILES IDX 8 1 7 2 6 3 5 4 4 5 41 6 26 7 40 8 28 9 27 10 39 11 29 12
REMARK SMILES IDX 38 13 3 14 2 15 1 16 30 17 31 18 32 19 33 20 37 21 34 22
REMARK SMILES IDX 36 23 35 24 9 25 10 26 11 27 25 28 12 29 24 30 13 31 23 32
REMARK SMILES IDX 14 33 15 34 16 35 17 36 18 37 19 38 20 39 21 40 22 41
REMARK H PARENT 22 42
ROOT
ATOM      1  C   UNL     1      -8.127  -8.846 -21.692  1.00  0.00     0.063 C 
ENDROOT
BRANCH   1   2
ATOM      2  C   UNL     1      -8.601  -8.090 -22.933  1.00  0.00     0.231 C 
BRANCH   2   3
ATOM      3  O   UNL     1      -7.992  -8.624 -24.108  1.00  0.00    -0.493 OA
BRANCH   3   4
ATOM      4  C   UNL     1      -8.555  -8.409 -25.339  1.00  0.00     0.123 A 
ATOM      5  C   UNL     1      -7.813  -8.875 -26.450  1.00  0.00     0.002 A 
ATOM      6  C   UNL     1      -8.327  -8.717 -27.780  1.00  0.00    -0.011 A 
ATOM      7  C   UNL     1      -9.780  -7.784 -25.543  1.00  0.00     0.047 A 
ATOM      8  C   UNL     1      -7.635  -9.146 -28.942  1.00  0.00     0.009 A 
ATOM      9  C   UNL     1      -9.588  -8.092 -27.967  1.00  0.00    -0.007 A 
ATOM     10  C   UNL     1     -10.284  -7.626 -26.834  1.00  0.00     0.013 A 
ATOM     11  C   UNL     1      -8.142  -8.969 -30.234  1.00  0.00     0.001 A 
ATOM     12  C   UNL     1     -10.097  -7.954 -29.285  1.00  0.00     0.030 A 
ATOM     13  C   UNL     1      -9.376  -8.367 -30.409  1.00  0.00     0.013 A 
BRANCH   5  14
ATOM     14  C   UNL     1      -6.470  -9.553 -26.204  1.00  0.00     0.040 C 
BRANCH  14  15
ATOM     15  C   UNL     1      -6.568 -10.840 -25.375  1.00  0.00     0.001 C 
ATOM     16  C   UNL     1      -5.527 -10.928 -24.268  1.00  0.00     0.004 C 
ENDBRANCH  14  15
ENDBRANCH   5  14
BRANCH  12  17
ATOM     17  C   UNL     1     -11.426  -7.367 -29.549  1.00  0.00     0.193 C 
ATOM     18  O   UNL     1     -12.384  -8.124 -29.670  1.00  0.00    -0.289 OA
BRANCH  17  19
ATOM     19  C   UNL     1     -11.596  -5.889 -29.650  1.00  0.00     0.023 A 
ATOM     20  C   UNL     1     -12.509  -5.181 -28.858  1.00  0.00     0.012 A 
ATOM     21  C   UNL     1     -10.808  -5.194 -30.578  1.00  0.00     0.012 A 
ATOM     22  C   UNL     1     -12.624  -3.794 -28.988  1.00  0.00     0.001 A 
ATOM     23  C   UNL     1     -10.927  -3.809 -30.707  1.00  0.00     0.001 A 
ATOM     24  C   UNL     1     -11.833  -3.110 -29.911  1.00  0.00     0.000 A 
ENDBRANCH  17  19
ENDBRANCH  12  17
ENDBRANCH   3   4
ENDBRANCH   2   3
ENDBRANCH   1   2
BRANCH   1  25
ATOM     25  C   UNL     1      -6.758  -8.388 -21.201  1.00  0.00     0.125 C 
BRANCH  25  26
ATOM     26  N   UNL     1      -6.770  -7.057 -20.619  1.00  0.00    -0.347 N 
ATOM     27  C   UNL     1      -7.865  -6.513 -19.995  1.00  0.00     0.087 A 
ATOM     28  C   UNL     1      -5.721  -6.158 -20.609  1.00  0.00     0.048 A 
ATOM     29  C   UNL     1      -7.520  -5.259 -19.549  1.00  0.00     0.028 A 
ATOM     30  C   UNL     1      -4.424  -6.231 -21.143  1.00  0.00     0.031 A 
ATOM     31  C   UNL     1      -6.171  -5.023 -19.924  1.00  0.00     0.003 A 
ATOM     32  C   UNL     1      -3.573  -5.136 -20.956  1.00  0.00     0.048 A 
ATOM     33  C   UNL     1      -5.294  -3.934 -19.750  1.00  0.00     0.056 A 
ATOM     34  C   UNL     1      -3.988  -4.022 -20.235  1.00  0.00     0.121 A 
BRANCH  34  35
ATOM     35  O   UNL     1      -3.149  -2.947 -20.112  1.00  0.00    -0.476 OA
BRANCH  35  36
ATOM     36  C   UNL     1      -3.347  -1.902 -21.084  1.00  0.00     0.199 C 
ATOM     37  C   UNL     1      -3.785  -2.648 -22.361  1.00  0.00     0.069 C 
ATOM     38  C   UNL     1      -2.022  -1.186 -21.399  1.00  0.00     0.069 C 
BRANCH  36  39
ATOM     39  C   UNL     1      -4.497  -0.914 -20.780  1.00  0.00     0.347 C 
ATOM     40  O   UNL     1      -4.608  -0.206 -19.790  1.00  0.00    -0.248 OA
BRANCH  39  41
ATOM     41  O   UNL     1      -5.485  -0.906 -21.701  1.00  0.00    -0.478 OA
ATOM     42  H   UNL     1      -6.277  -1.186 -21.194  1.00  0.00     0.296 HD
ENDBRANCH  39  41
ENDBRANCH  36  39
ENDBRANCH  35  36
ENDBRANCH  34  35
ENDBRANCH  25  26
ENDBRANCH   1  25
TORSDOF 13
ENDMDL
