MODEL 3
REMARK VINA RESULT:    -7.839      4.543      7.734
REMARK INTER + INTRA:         -11.546
REMARK INTER:                 -10.724
REMARK INTRA:                  -0.823
REMARK UNBOUND:                -0.958
REMARK SMILES Cc1nc(NC(=O)N2CCC[C@H]2C(N)=O)sc1-c1ccnc(C(C)(C)C(F)(F)F)c1
REMARK SMILES IDX 1 1 2 2 3 3 4 4 16 5 17 6 18 7 30 8 19 9 22 10 20 11 21 12
REMARK SMILES IDX 23 13 24 14 25 15 26 16 27 17 28 18 29 19 5 20 6 21 7 22
REMARK SMILES IDX 8 24 12 25 9 26 11 27 10 28 13 29 14 30 15 31
REMARK H PARENT 5 23 14 32 14 33
ROOT
ATOM      1  C   UNL     1      46.970  -2.217 -45.163  1.00  0.00     0.068 C 
ATOM      2  C   UNL     1      46.841  -2.612 -46.619  1.00  0.00     0.058 A 
ATOM      3  N   UNL     1      45.796  -3.364 -46.916  1.00  0.00    -0.225 NA
ATOM      4  C   UNL     1      45.742  -3.662 -48.193  1.00  0.00     0.191 A 
ATOM      5  S   UNL     1      47.026  -3.007 -49.147  1.00  0.00    -0.096 S 
ATOM      6  C   UNL     1      47.678  -2.285 -47.696  1.00  0.00     0.059 A 
ENDROOT
BRANCH   6   7
ATOM      7  C   UNL     1      48.947  -1.507 -47.750  1.00  0.00    -0.003 A 
ATOM      8  C   UNL     1      49.311  -0.848 -48.929  1.00  0.00     0.034 A 
ATOM      9  C   UNL     1      49.794  -1.418 -46.641  1.00  0.00     0.030 A 
ATOM     10  C   UNL     1      50.506  -0.111 -48.976  1.00  0.00     0.056 A 
ATOM     11  C   UNL     1      50.968  -0.674 -46.750  1.00  0.00     0.112 A 
ATOM     12  N   UNL     1      51.324  -0.029 -47.888  1.00  0.00    -0.260 NA
BRANCH  10  13
ATOM     13  C   UNL     1      50.925   0.640 -50.268  1.00  0.00     0.102 C 
ATOM     14  C   UNL     1      50.018   0.175 -51.439  1.00  0.00     0.027 C 
ATOM     15  C   UNL     1      50.710   2.162 -50.053  1.00  0.00     0.027 C 
BRANCH  13  16
ATOM     16  C   UNL     1      52.422   0.407 -50.685  1.00  0.00     0.399 C 
ATOM     17  F   UNL     1      53.280   0.901 -49.789  1.00  0.00    -0.170 F 
ATOM     18  F   UNL     1      52.708  -0.892 -50.801  1.00  0.00    -0.170 F 
ATOM     19  F   UNL     1      52.713   0.960 -51.866  1.00  0.00    -0.170 F 
ENDBRANCH  13  16
ENDBRANCH  10  13
ENDBRANCH   6   7
BRANCH   4  20
ATOM     20  N   UNL     1      44.806  -4.447 -48.848  1.00  0.00    -0.283 N 
ATOM     21  C   UNL     1      45.000  -5.675 -49.384  1.00  0.00     0.324 C 
ATOM     22  O   UNL     1      46.056  -6.303 -49.266  1.00  0.00    -0.248 OA
ATOM     23  H   UNL     1      43.887  -4.041 -48.943  1.00  0.00     0.174 HD
BRANCH  21  24
ATOM     24  N   UNL     1      43.951  -6.159 -50.105  1.00  0.00    -0.312 N 
ATOM     25  C   UNL     1      43.812  -6.215 -51.584  1.00  0.00     0.176 C 
ATOM     26  C   UNL     1      42.786  -6.777 -49.466  1.00  0.00     0.122 C 
ATOM     27  C   UNL     1      42.459  -6.923 -51.808  1.00  0.00     0.037 C 
ATOM     28  C   UNL     1      42.203  -7.695 -50.528  1.00  0.00     0.024 C 
BRANCH  25  29
ATOM     29  C   UNL     1      43.863  -4.835 -52.276  1.00  0.00     0.240 C 
ATOM     30  N   UNL     1      44.490  -4.778 -53.454  1.00  0.00    -0.368 N 
ATOM     31  O   UNL     1      43.362  -3.850 -51.737  1.00  0.00    -0.273 OA
ATOM     32  H   UNL     1      44.889  -5.610 -53.865  1.00  0.00     0.159 HD
ATOM     33  H   UNL     1      44.560  -3.899 -53.947  1.00  0.00     0.159 HD
ENDBRANCH  25  29
ENDBRANCH  21  24
ENDBRANCH   4  20
TORSDOF 6
ENDMDL
