REMARK VINA RESULT:    -8.768      2.065      2.436
REMARK INTER + INTRA:         -14.119
REMARK INTER:                 -12.688
REMARK INTRA:                  -1.431
REMARK UNBOUND:                -1.250
REMARK SMILES CCOC(=O)c1ccc(Nc2cc(Nc3ccccc3Cl)c(C(N)=O)cn2)nc1
REMARK SMILES IDX 6 1 7 2 8 3 9 4 28 5 29 6 4 7 5 8 3 9 2 10 1 11 10 12 11 14
REMARK SMILES IDX 12 15 27 16 13 17 26 18 22 19 14 20 15 22 16 23 20 24 17 25
REMARK SMILES IDX 19 26 18 27 21 28 23 29 24 30 25 31
REMARK H PARENT 10 13 14 21 24 32 24 33
ROOT
ATOM      1  C   UNL     1       1.870 -17.153  19.914  1.00  0.00     0.078 A 
ATOM      2  C   UNL     1       2.187 -18.457  19.544  1.00  0.00     0.021 A 
ATOM      3  C   UNL     1       3.037 -19.219  20.354  1.00  0.00     0.048 A 
ATOM      4  C   UNL     1       3.566 -18.669  21.514  1.00  0.00     0.131 A 
ATOM      5  N   UNL     1       3.242 -17.410  21.889  1.00  0.00    -0.238 NA
ATOM      6  C   UNL     1       2.418 -16.681  21.093  1.00  0.00     0.129 A 
ENDROOT
BRANCH   1   7
ATOM      7  C   UNL     1       0.974 -16.345  19.059  1.00  0.00     0.339 C 
ATOM      8  O   UNL     1       1.228 -15.200  18.719  1.00  0.00    -0.246 OA
BRANCH   7   9
ATOM      9  O   UNL     1      -0.136 -17.051  18.731  1.00  0.00    -0.462 OA
BRANCH   9  10
ATOM     10  C   UNL     1      -1.377 -16.330  18.796  1.00  0.00     0.230 C 
ATOM     11  C   UNL     1      -1.820 -16.181  20.238  1.00  0.00     0.049 C 
ENDBRANCH   9  10
ENDBRANCH   7   9
ENDBRANCH   1   7
BRANCH   4  12
ATOM     12  N   UNL     1       4.418 -19.324  22.386  1.00  0.00    -0.325 N 
ATOM     13  H   UNL     1       4.170 -19.120  23.347  1.00  0.00     0.170 HD
BRANCH  12  14
ATOM     14  C   UNL     1       5.511 -20.171  22.328  1.00  0.00     0.133 A 
ATOM     15  C   UNL     1       5.461 -21.507  21.950  1.00  0.00     0.074 A 
ATOM     16  N   UNL     1       6.686 -19.590  22.654  1.00  0.00    -0.238 NA
ATOM     17  C   UNL     1       6.622 -22.297  21.924  1.00  0.00     0.057 A 
ATOM     18  C   UNL     1       7.805 -20.353  22.644  1.00  0.00     0.129 A 
ATOM     19  C   UNL     1       7.834 -21.689  22.282  1.00  0.00     0.081 A 
BRANCH  17  20
ATOM     20  N   UNL     1       6.586 -23.645  21.504  1.00  0.00    -0.354 N 
ATOM     21  H   UNL     1       7.118 -23.813  20.639  1.00  0.00     0.167 HD
BRANCH  20  22
ATOM     22  C   UNL     1       5.988 -24.809  22.025  1.00  0.00     0.057 A 
ATOM     23  C   UNL     1       6.634 -25.621  22.968  1.00  0.00     0.027 A 
ATOM     24  C   UNL     1       4.714 -25.216  21.579  1.00  0.00     0.064 A 
ATOM     25  C   UNL     1       6.038 -26.793  23.446  1.00  0.00     0.002 A 
ATOM     26  C   UNL     1       4.117 -26.389  22.054  1.00  0.00     0.023 A 
ATOM     27  C   UNL     1       4.783 -27.178  22.987  1.00  0.00     0.002 A 
ATOM     28  Cl  UNL     1       3.840 -24.277  20.415  1.00  0.00    -0.082 Cl
ENDBRANCH  20  22
ENDBRANCH  17  20
BRANCH  19  29
ATOM     29  C   UNL     1       9.105 -22.450  22.303  1.00  0.00     0.252 C 
ATOM     30  N   UNL     1      10.035 -22.180  21.338  1.00  0.00    -0.365 N 
ATOM     31  O   UNL     1       9.311 -23.317  23.144  1.00  0.00    -0.269 OA
ATOM     32  H   UNL     1       9.895 -21.559  20.555  1.00  0.00     0.159 HD
ATOM     33  H   UNL     1      10.892 -22.719  21.365  1.00  0.00     0.159 HD
ENDBRANCH  19  29
ENDBRANCH  12  14
ENDBRANCH   4  12
TORSDOF 8
