REMARK SMILES Cc1ccccc1NC(=O)Oc1ccc2c(c1)[C@@]1(C)CO[C@H](C1)O2
REMARK SMILES IDX 8 1 9 2 10 3 7 5 2 6 3 7 4 8 6 9 5 10 1 11 11 12 12 13 13 14
REMARK SMILES IDX 17 15 14 16 16 17 15 18 18 19 24 20 20 21 23 22 22 23 21 24
REMARK SMILES IDX 19 25
REMARK H PARENT 8 4
REMARK INDEX MAP 8 1 9 2 10 3 32 4 7 5 2 6 3 7 4 8 6 9 5 10 1 11 11 12 12 13
REMARK INDEX MAP 13 14 17 15 14 16 16 17 15 18 18 19 24 20 20 21 23 22 22 23
REMARK INDEX MAP 21 24 19 25
ROOT
ATOM      1  N   UNL     1     -17.028 -42.689  23.454  1.00  0.00    -0.291 N 
ATOM      2  C   UNL     1     -15.673 -42.481  23.498  1.00  0.00     0.417 C 
ATOM      3  O   UNL     1     -15.066 -41.453  23.239  1.00  0.00    -0.224 OA
ATOM      4  H   UNL     1     -17.340 -43.636  23.712  1.00  0.00     0.173 HD
ENDROOT
BRANCH   1   5
ATOM      5  C   UNL     1     -18.053 -41.786  23.105  1.00  0.00     0.047 A 
ATOM      6  C   UNL     1     -19.155 -41.637  23.976  1.00  0.00    -0.027 A 
ATOM      7  C   UNL     1     -20.185 -40.739  23.641  1.00  0.00     0.005 A 
ATOM      8  C   UNL     1     -20.131 -39.999  22.463  1.00  0.00     0.000 A 
ATOM      9  C   UNL     1     -18.016 -41.033  21.925  1.00  0.00     0.026 A 
ATOM     10  C   UNL     1     -19.047 -40.146  21.605  1.00  0.00     0.002 A 
ATOM     11  C   UNL     1     -19.274 -42.408  25.265  1.00  0.00     0.046 C 
ENDBRANCH   1   5
BRANCH   2  12
ATOM     12  O   UNL     1     -15.075 -43.674  23.900  1.00  0.00    -0.410 OA
BRANCH  12  13
ATOM     13  C   UNL     1     -14.900 -43.860  25.279  1.00  0.00     0.133 A 
ATOM     14  C   UNL     1     -15.676 -43.079  26.133  1.00  0.00     0.051 A 
ATOM     15  C   UNL     1     -13.923 -44.730  25.772  1.00  0.00     0.055 A 
ATOM     16  C   UNL     1     -15.496 -43.189  27.509  1.00  0.00     0.051 A 
ATOM     17  C   UNL     1     -13.745 -44.857  27.154  1.00  0.00     0.006 A 
ATOM     18  C   UNL     1     -14.537 -44.069  28.012  1.00  0.00     0.126 A 
ATOM     19  C   UNL     1     -12.718 -45.784  27.797  1.00  0.00     0.026 C 
ATOM     20  O   UNL     1     -14.420 -44.132  29.380  1.00  0.00    -0.465 OA
ATOM     21  C   UNL     1     -11.583 -44.923  28.373  1.00  0.00     0.176 C 
ATOM     22  C   UNL     1     -13.343 -46.302  29.086  1.00  0.00     0.090 C 
ATOM     23  C   UNL     1     -13.365 -44.988  29.847  1.00  0.00     0.307 C 
ATOM     24  O   UNL     1     -12.070 -44.397  29.626  1.00  0.00    -0.342 OA
ATOM     25  C   UNL     1     -12.206 -46.913  26.909  1.00  0.00     0.019 C 
ENDBRANCH  12  13
ENDBRANCH   2  12
TORSDOF 3
