MODEL 4
REMARK minimizedAffinity -7.5238452
REMARK CNNscore 0.841624141
REMARK CNNaffinity 7.103302
REMARK SMILES Oc1cccc(-c2nc(N3CCOCC3)c3oc4ncccc4c3n2)c1
REMARK SMILES IDX 2 1 3 2 4 3 5 4 6 5 26 6 1 7 7 9 8 10 25 11 9 12 24 13 16 14
REMARK SMILES IDX 23 15 17 16 22 17 18 18 21 19 19 20 20 21 10 22 11 23 15 24
REMARK SMILES IDX 12 25 14 26 13 27
REMARK H PARENT 1 8
ROOT
ATOM      1  C   UNL     1      31.777  45.381  37.588  1.00  0.00     0.116 A 
ATOM      2  C   UNL     1      32.853  45.935  36.907  1.00  0.00     0.046 A 
ATOM      3  C   UNL     1      33.809  46.654  37.619  1.00  0.00     0.005 A 
ATOM      4  C   UNL     1      33.680  46.811  39.005  1.00  0.00     0.012 A 
ATOM      5  C   UNL     1      32.597  46.254  39.715  1.00  0.00     0.023 A 
ATOM      6  C   UNL     1      31.645  45.534  38.967  1.00  0.00     0.058 A 
ENDROOT
BRANCH   1   7
ATOM      7  O   UNL     1      30.817  44.668  36.935  1.00  0.00    -0.508 OA
ATOM      8  H   UNL     1      31.033  44.649  35.988  1.00  0.00     0.293 HD
ENDBRANCH   1   7
BRANCH   5   9
ATOM      9  C   UNL     1      32.463  46.420  41.180  1.00  0.00     0.162 A 
ATOM     10  N   UNL     1      33.343  47.252  41.788  1.00  0.00    -0.207 NA
ATOM     11  N   UNL     1      31.477  45.734  41.788  1.00  0.00    -0.224 NA
ATOM     12  C   UNL     1      33.300  47.468  43.133  1.00  0.00     0.176 A 
ATOM     13  C   UNL     1      31.418  45.941  43.122  1.00  0.00     0.125 A 
ATOM     14  C   UNL     1      32.290  46.775  43.801  1.00  0.00     0.198 A 
ATOM     15  C   UNL     1      30.530  45.406  44.086  1.00  0.00     0.067 A 
ATOM     16  O   UNL     1      31.983  46.790  45.130  1.00  0.00    -0.432 OA
ATOM     17  C   UNL     1      29.439  44.523  44.086  1.00  0.00     0.018 A 
ATOM     18  C   UNL     1      30.919  45.959  45.304  1.00  0.00     0.229 A 
ATOM     19  C   UNL     1      28.824  44.264  45.312  1.00  0.00     0.021 A 
ATOM     20  N   UNL     1      30.357  45.740  46.507  1.00  0.00    -0.221 NA
ATOM     21  C   UNL     1      29.314  44.883  46.456  1.00  0.00     0.115 A 
BRANCH  12  22
ATOM     22  N   UNL     1      34.226  48.312  43.710  1.00  0.00    -0.349 N 
ATOM     23  C   UNL     1      35.198  49.008  42.858  1.00  0.00     0.146 C 
ATOM     24  C   UNL     1      34.112  48.783  45.092  1.00  0.00     0.146 C 
ATOM     25  C   UNL     1      35.377  50.454  43.347  1.00  0.00     0.181 C 
ATOM     26  C   UNL     1      35.425  49.454  45.527  1.00  0.00     0.181 C 
ATOM     27  O   UNL     1      35.810  50.569  44.710  1.00  0.00    -0.378 OA
ENDBRANCH  12  22
ENDBRANCH   5   9
TORSDOF 3
ENDMDL
