MODEL 1
REMARK VINA RESULT:   -10.120      0.000      0.000
REMARK INTER + INTRA:         -15.980
REMARK INTER:                 -14.853
REMARK INTRA:                  -1.126
REMARK UNBOUND:                -1.126
REMARK SMILES CC(C)(C)OC(=O)N1CC[C@](CC#N)(n2nc(Nc3ccc4c(c3)CN(C(C)(C)C)S4(=O)=O)c3c(=O)[nH]ccc32)[C@H](F)C1
REMARK SMILES IDX 15 1 16 2 17 3 34 4 35 5 36 6 37 7 38 8 39 9 40 10 11 12
REMARK SMILES IDX 8 13 9 14 43 15 10 16 41 17 42 18 6 19 7 20 5 21 2 22 1 23
REMARK SMILES IDX 3 24 4 25 12 26 13 27 14 28 18 29 19 31 20 32 24 33 21 34
REMARK SMILES IDX 23 35 22 36 25 37 31 38 26 39 32 40 33 41 27 42 28 43 29 44
REMARK SMILES IDX 30 45
REMARK H PARENT 37 11 18 30
ROOT
ATOM      1  N   UNL     1     -13.919  15.371  20.047  1.00  0.00    -0.252 N 
ATOM      2  N   UNL     1     -12.592  15.665  20.065  1.00  0.00    -0.153 NA
ATOM      3  C   UNL     1     -11.953  14.490  20.067  1.00  0.00     0.166 A 
ATOM      4  C   UNL     1     -12.877  13.441  19.940  1.00  0.00     0.109 A 
ATOM      5  C   UNL     1     -12.737  12.007  19.859  1.00  0.00     0.261 A 
ATOM      6  O   UNL     1     -11.664  11.422  19.966  1.00  0.00    -0.269 OA
ATOM      7  N   UNL     1     -13.942  11.343  19.654  1.00  0.00    -0.328 N 
ATOM      8  C   UNL     1     -15.169  11.972  19.514  1.00  0.00     0.088 A 
ATOM      9  C   UNL     1     -15.311  13.310  19.596  1.00  0.00     0.047 A 
ATOM     10  C   UNL     1     -14.122  14.031  19.846  1.00  0.00     0.078 A 
ATOM     11  H   UNL     1     -13.879  10.335  19.583  1.00  0.00     0.169 HD
ENDROOT
BRANCH   1  12
ATOM     12  C   UNL     1     -14.838  16.534  20.130  1.00  0.00     0.111 C 
ATOM     13  N   UNL     1     -16.507  18.595  21.069  1.00  0.00    -0.305 N 
ATOM     14  C   UNL     1     -17.044  17.273  21.323  1.00  0.00     0.126 C 
ATOM     15  C   UNL     1     -15.081  18.792  21.322  1.00  0.00     0.163 C 
ATOM     16  C   UNL     1     -16.297  16.175  20.553  1.00  0.00     0.056 C 
ATOM     17  C   UNL     1     -14.289  17.489  21.232  1.00  0.00     0.215 C 
ATOM     18  F   UNL     1     -14.411  16.854  22.442  1.00  0.00    -0.243 F 
BRANCH  13  19
ATOM     19  C   UNL     1     -17.363  19.656  20.822  1.00  0.00     0.410 C 
ATOM     20  O   UNL     1     -18.544  19.523  20.546  1.00  0.00    -0.224 OA
BRANCH  19  21
ATOM     21  O   UNL     1     -16.719  20.847  20.917  1.00  0.00    -0.444 OA
BRANCH  21  22
ATOM     22  C   UNL     1     -16.604  21.736  19.777  1.00  0.00     0.106 C 
ATOM     23  C   UNL     1     -16.374  20.952  18.480  1.00  0.00     0.056 C 
ATOM     24  C   UNL     1     -15.353  22.578  20.070  1.00  0.00     0.056 C 
ATOM     25  C   UNL     1     -17.811  22.673  19.678  1.00  0.00     0.056 C 
ENDBRANCH  21  22
ENDBRANCH  19  21
ENDBRANCH  13  19
BRANCH  12  26
ATOM     26  C   UNL     1     -14.799  17.252  18.750  1.00  0.00     0.154 C 
ATOM     27  C   UNL     1     -15.564  16.542  17.713  1.00  0.00     0.065 C 
ATOM     28  N   UNL     1     -16.193  15.988  16.910  1.00  0.00    -0.198 NA
ENDBRANCH  12  26
ENDBRANCH   1  12
BRANCH   3  29
ATOM     29  N   UNL     1     -10.619  14.267  20.165  1.00  0.00    -0.338 N 
ATOM     30  H   UNL     1     -10.337  13.314  20.389  1.00  0.00     0.168 HD
BRANCH  29  31
ATOM     31  C   UNL     1      -9.513  15.117  19.940  1.00  0.00     0.040 A 
ATOM     32  C   UNL     1      -9.634  16.517  19.809  1.00  0.00     0.027 A 
ATOM     33  C   UNL     1      -8.225  14.542  19.901  1.00  0.00     0.032 A 
ATOM     34  C   UNL     1      -8.520  17.336  19.610  1.00  0.00     0.024 A 
ATOM     35  C   UNL     1      -7.111  15.353  19.722  1.00  0.00    -0.011 A 
ATOM     36  C   UNL     1      -7.286  16.722  19.557  1.00  0.00     0.087 A 
ATOM     37  C   UNL     1      -5.667  14.925  19.682  1.00  0.00     0.140 C 
ATOM     38  S   UNL     1      -5.750  17.515  19.314  1.00  0.00     0.244 S 
ATOM     39  N   UNL     1      -4.839  16.159  19.805  1.00  0.00    -0.188 NA
ATOM     40  O   UNL     1      -5.593  18.574  20.281  1.00  0.00    -0.207 OA
ATOM     41  O   UNL     1      -5.586  17.705  17.891  1.00  0.00    -0.207 OA
BRANCH  39  42
ATOM     42  C   UNL     1      -3.368  16.076  19.555  1.00  0.00     0.028 C 
ATOM     43  C   UNL     1      -2.682  15.251  20.658  1.00  0.00     0.029 C 
ATOM     44  C   UNL     1      -2.723  17.466  19.483  1.00  0.00     0.029 C 
ATOM     45  C   UNL     1      -3.135  15.340  18.221  1.00  0.00     0.029 C 
ENDBRANCH  39  42
ENDBRANCH  29  31
ENDBRANCH   3  29
TORSDOF 8
ENDMDL
MODEL 2
REMARK VINA RESULT:    -9.796      1.369      1.983
REMARK INTER + INTRA:         -15.504
REMARK INTER:                 -14.716
REMARK INTRA:                  -0.788
REMARK UNBOUND:                -1.126
REMARK SMILES CC(C)(C)OC(=O)N1CC[C@](CC#N)(n2nc(Nc3ccc4c(c3)CN(C(C)(C)C)S4(=O)=O)c3c(=O)[nH]ccc32)[C@H](F)C1
REMARK SMILES IDX 15 1 16 2 17 3 34 4 35 5 36 6 37 7 38 8 39 9 40 10 11 12
REMARK SMILES IDX 8 13 9 14 43 15 10 16 41 17 42 18 6 19 7 20 5 21 2 22 1 23
REMARK SMILES IDX 3 24 4 25 12 26 13 27 14 28 18 29 19 31 20 32 24 33 21 34
REMARK SMILES IDX 23 35 22 36 25 37 31 38 26 39 32 40 33 41 27 42 28 43 29 44
REMARK SMILES IDX 30 45
REMARK H PARENT 37 11 18 30
ROOT
ATOM      1  N   UNL     1     -14.540  15.704  20.057  1.00  0.00    -0.252 N 
ATOM      2  N   UNL     1     -13.230  16.053  20.170  1.00  0.00    -0.153 NA
ATOM      3  C   UNL     1     -12.549  14.906  20.264  1.00  0.00     0.166 A 
ATOM      4  C   UNL     1     -13.418  13.817  20.100  1.00  0.00     0.109 A 
ATOM      5  C   UNL     1     -13.216  12.387  20.081  1.00  0.00     0.261 A 
ATOM      6  O   UNL     1     -12.133  11.851  20.293  1.00  0.00    -0.269 OA
ATOM      7  N   UNL     1     -14.374  11.668  19.803  1.00  0.00    -0.328 N 
ATOM      8  C   UNL     1     -15.609  12.241  19.544  1.00  0.00     0.088 A 
ATOM      9  C   UNL     1     -15.809  13.573  19.568  1.00  0.00     0.047 A 
ATOM     10  C   UNL     1     -14.674  14.351  19.888  1.00  0.00     0.078 A 
ATOM     11  H   UNL     1     -14.266  10.662  19.773  1.00  0.00     0.169 HD
ENDROOT
BRANCH   1  12
ATOM     12  C   UNL     1     -15.506  16.829  20.027  1.00  0.00     0.111 C 
ATOM     13  N   UNL     1     -17.305  18.866  20.760  1.00  0.00    -0.305 N 
ATOM     14  C   UNL     1     -17.802  17.537  21.058  1.00  0.00     0.126 C 
ATOM     15  C   UNL     1     -15.904  19.136  21.076  1.00  0.00     0.163 C 
ATOM     16  C   UNL     1     -16.971  16.433  20.391  1.00  0.00     0.056 C 
ATOM     17  C   UNL     1     -15.057  17.864  21.101  1.00  0.00     0.215 C 
ATOM     18  F   UNL     1     -15.221  17.291  22.337  1.00  0.00    -0.243 F 
BRANCH  13  19
ATOM     19  C   UNL     1     -18.186  19.875  20.409  1.00  0.00     0.410 C 
ATOM     20  O   UNL     1     -17.973  20.680  19.516  1.00  0.00    -0.224 OA
BRANCH  19  21
ATOM     21  O   UNL     1     -19.300  19.855  21.183  1.00  0.00    -0.444 OA
BRANCH  21  22
ATOM     22  C   UNL     1     -20.627  19.858  20.598  1.00  0.00     0.106 C 
ATOM     23  C   UNL     1     -21.359  21.173  20.887  1.00  0.00     0.056 C 
ATOM     24  C   UNL     1     -21.367  18.717  21.313  1.00  0.00     0.056 C 
ATOM     25  C   UNL     1     -20.577  19.544  19.100  1.00  0.00     0.056 C 
ENDBRANCH  21  22
ENDBRANCH  19  21
ENDBRANCH  13  19
BRANCH  12  26
ATOM     26  C   UNL     1     -15.420  17.473  18.612  1.00  0.00     0.154 C 
ATOM     27  C   UNL     1     -15.947  16.600  17.552  1.00  0.00     0.065 C 
ATOM     28  N   UNL     1     -16.391  15.914  16.727  1.00  0.00    -0.198 NA
ENDBRANCH  12  26
ENDBRANCH   1  12
BRANCH   3  29
ATOM     29  N   UNL     1     -11.220  14.742  20.476  1.00  0.00    -0.338 N 
ATOM     30  H   UNL     1     -10.943  13.889  20.959  1.00  0.00     0.168 HD
BRANCH  29  31
ATOM     31  C   UNL     1     -10.109  15.520  20.078  1.00  0.00     0.040 A 
ATOM     32  C   UNL     1     -10.206  16.893  19.765  1.00  0.00     0.027 A 
ATOM     33  C   UNL     1      -8.839  14.906  20.048  1.00  0.00     0.032 A 
ATOM     34  C   UNL     1      -9.086  17.644  19.398  1.00  0.00     0.024 A 
ATOM     35  C   UNL     1      -7.719  15.652  19.701  1.00  0.00    -0.011 A 
ATOM     36  C   UNL     1      -7.872  16.992  19.362  1.00  0.00     0.087 A 
ATOM     37  C   UNL     1      -6.290  15.179  19.641  1.00  0.00     0.140 C 
ATOM     38  S   UNL     1      -6.335  17.697  18.931  1.00  0.00     0.244 S 
ATOM     39  N   UNL     1      -5.428  16.393  19.551  1.00  0.00    -0.188 NA
ATOM     40  O   UNL     1      -6.098  18.872  19.736  1.00  0.00    -0.207 OA
ATOM     41  O   UNL     1      -6.249  17.691  17.489  1.00  0.00    -0.207 OA
BRANCH  39  42
ATOM     42  C   UNL     1      -3.977  16.232  19.235  1.00  0.00     0.028 C 
ATOM     43  C   UNL     1      -3.261  17.593  19.291  1.00  0.00     0.029 C 
ATOM     44  C   UNL     1      -3.761  15.600  17.854  1.00  0.00     0.029 C 
ATOM     45  C   UNL     1      -3.334  15.332  20.310  1.00  0.00     0.029 C 
ENDBRANCH  39  42
ENDBRANCH  29  31
ENDBRANCH   3  29
TORSDOF 8
ENDMDL
MODEL 3
REMARK VINA RESULT:    -9.687      1.691      2.414
REMARK INTER + INTRA:         -15.343
REMARK INTER:                 -14.176
REMARK INTRA:                  -1.167
REMARK UNBOUND:                -1.126
REMARK SMILES CC(C)(C)OC(=O)N1CC[C@](CC#N)(n2nc(Nc3ccc4c(c3)CN(C(C)(C)C)S4(=O)=O)c3c(=O)[nH]ccc32)[C@H](F)C1
REMARK SMILES IDX 15 1 16 2 17 3 34 4 35 5 36 6 37 7 38 8 39 9 40 10 11 12
REMARK SMILES IDX 8 13 9 14 43 15 10 16 41 17 42 18 6 19 7 20 5 21 2 22 1 23
REMARK SMILES IDX 3 24 4 25 12 26 13 27 14 28 18 29 19 31 20 32 24 33 21 34
REMARK SMILES IDX 23 35 22 36 25 37 31 38 26 39 32 40 33 41 27 42 28 43 29 44
REMARK SMILES IDX 30 45
REMARK H PARENT 37 11 18 30
ROOT
ATOM      1  N   UNL     1     -13.449  15.054  19.822  1.00  0.00    -0.252 N 
ATOM      2  N   UNL     1     -12.123  15.254  19.594  1.00  0.00    -0.153 NA
ATOM      3  C   UNL     1     -11.573  14.037  19.517  1.00  0.00     0.166 A 
ATOM      4  C   UNL     1     -12.572  13.054  19.586  1.00  0.00     0.109 A 
ATOM      5  C   UNL     1     -12.544  11.612  19.524  1.00  0.00     0.261 A 
ATOM      6  O   UNL     1     -11.510  10.955  19.455  1.00  0.00    -0.269 OA
ATOM      7  N   UNL     1     -13.807  11.031  19.555  1.00  0.00    -0.328 N 
ATOM      8  C   UNL     1     -14.995  11.743  19.617  1.00  0.00     0.088 A 
ATOM      9  C   UNL     1     -15.032  13.088  19.684  1.00  0.00     0.047 A 
ATOM     10  C   UNL     1     -13.772  13.729  19.699  1.00  0.00     0.078 A 
ATOM     11  H   UNL     1     -13.825  10.021  19.503  1.00  0.00     0.169 HD
ENDROOT
BRANCH   1  12
ATOM     12  C   UNL     1     -14.259  16.279  20.033  1.00  0.00     0.111 C 
ATOM     13  N   UNL     1     -15.636  18.438  21.199  1.00  0.00    -0.305 N 
ATOM     14  C   UNL     1     -16.236  17.154  21.502  1.00  0.00     0.126 C 
ATOM     15  C   UNL     1     -14.179  18.524  21.272  1.00  0.00     0.163 C 
ATOM     16  C   UNL     1     -15.677  16.021  20.632  1.00  0.00     0.056 C 
ATOM     17  C   UNL     1     -13.506  17.168  21.068  1.00  0.00     0.215 C 
ATOM     18  F   UNL     1     -13.524  16.518  22.277  1.00  0.00    -0.243 F 
BRANCH  13  19
ATOM     19  C   UNL     1     -16.433  19.565  21.073  1.00  0.00     0.410 C 
ATOM     20  O   UNL     1     -17.647  19.525  20.951  1.00  0.00    -0.224 OA
BRANCH  19  21
ATOM     21  O   UNL     1     -15.693  20.702  21.094  1.00  0.00    -0.444 OA
BRANCH  21  22
ATOM     22  C   UNL     1     -15.673  21.610  19.963  1.00  0.00     0.106 C 
ATOM     23  C   UNL     1     -15.846  20.856  18.640  1.00  0.00     0.056 C 
ATOM     24  C   UNL     1     -14.267  22.231  19.994  1.00  0.00     0.056 C 
ATOM     25  C   UNL     1     -16.705  22.729  20.128  1.00  0.00     0.056 C 
ENDBRANCH  21  22
ENDBRANCH  19  21
ENDBRANCH  13  19
BRANCH  12  26
ATOM     26  C   UNL     1     -14.338  17.022  18.667  1.00  0.00     0.154 C 
ATOM     27  C   UNL     1     -15.344  16.447  17.760  1.00  0.00     0.065 C 
ATOM     28  N   UNL     1     -16.159  16.003  17.064  1.00  0.00    -0.198 NA
ENDBRANCH  12  26
ENDBRANCH   1  12
BRANCH   3  29
ATOM     29  N   UNL     1     -10.261  13.723  19.383  1.00  0.00    -0.338 N 
ATOM     30  H   UNL     1     -10.050  12.900  18.823  1.00  0.00     0.168 HD
BRANCH  29  31
ATOM     31  C   UNL     1      -9.095  14.384  19.830  1.00  0.00     0.040 A 
ATOM     32  C   UNL     1      -7.804  13.822  19.722  1.00  0.00     0.027 A 
ATOM     33  C   UNL     1      -9.225  15.687  20.354  1.00  0.00     0.032 A 
ATOM     34  C   UNL     1      -6.665  14.509  20.151  1.00  0.00     0.024 A 
ATOM     35  C   UNL     1      -8.094  16.383  20.765  1.00  0.00    -0.011 A 
ATOM     36  C   UNL     1      -6.848  15.770  20.677  1.00  0.00     0.087 A 
ATOM     37  C   UNL     1      -8.033  17.782  21.321  1.00  0.00     0.140 C 
ATOM     38  S   UNL     1      -5.598  16.825  21.285  1.00  0.00     0.244 S 
ATOM     39  N   UNL     1      -6.603  18.203  21.300  1.00  0.00    -0.188 NA
ATOM     40  O   UNL     1      -4.573  16.990  20.282  1.00  0.00    -0.207 OA
ATOM     41  O   UNL     1      -5.323  16.425  22.646  1.00  0.00    -0.207 OA
BRANCH  39  42
ATOM     42  C   UNL     1      -6.203  19.453  22.013  1.00  0.00     0.028 C 
ATOM     43  C   UNL     1      -6.810  20.685  21.320  1.00  0.00     0.029 C 
ATOM     44  C   UNL     1      -4.677  19.607  22.079  1.00  0.00     0.029 C 
ATOM     45  C   UNL     1      -6.769  19.407  23.446  1.00  0.00     0.029 C 
ENDBRANCH  39  42
ENDBRANCH  29  31
ENDBRANCH   3  29
TORSDOF 8
ENDMDL
MODEL 4
REMARK VINA RESULT:    -9.550      1.633      2.507
REMARK INTER + INTRA:         -15.142
REMARK INTER:                 -14.723
REMARK INTRA:                  -0.419
REMARK UNBOUND:                -1.126
REMARK SMILES CC(C)(C)OC(=O)N1CC[C@](CC#N)(n2nc(Nc3ccc4c(c3)CN(C(C)(C)C)S4(=O)=O)c3c(=O)[nH]ccc32)[C@H](F)C1
REMARK SMILES IDX 15 1 16 2 17 3 34 4 35 5 36 6 37 7 38 8 39 9 40 10 11 12
REMARK SMILES IDX 8 13 9 14 43 15 10 16 41 17 42 18 6 19 7 20 5 21 2 22 1 23
REMARK SMILES IDX 3 24 4 25 12 26 13 27 14 28 18 29 19 31 20 32 24 33 21 34
REMARK SMILES IDX 23 35 22 36 25 37 31 38 26 39 32 40 33 41 27 42 28 43 29 44
REMARK SMILES IDX 30 45
REMARK H PARENT 37 11 18 30
ROOT
ATOM      1  N   UNL     1     -14.802  16.402  20.349  1.00  0.00    -0.252 N 
ATOM      2  N   UNL     1     -13.461  16.629  20.374  1.00  0.00    -0.153 NA
ATOM      3  C   UNL     1     -12.882  15.423  20.380  1.00  0.00     0.166 A 
ATOM      4  C   UNL     1     -13.856  14.422  20.248  1.00  0.00     0.109 A 
ATOM      5  C   UNL     1     -13.787  12.982  20.168  1.00  0.00     0.261 A 
ATOM      6  O   UNL     1     -12.745  12.344  20.281  1.00  0.00    -0.269 OA
ATOM      7  N   UNL     1     -15.022  12.379  19.955  1.00  0.00    -0.328 N 
ATOM      8  C   UNL     1     -16.216  13.069  19.808  1.00  0.00     0.088 A 
ATOM      9  C   UNL     1     -16.292  14.411  19.889  1.00  0.00     0.047 A 
ATOM     10  C   UNL     1     -15.070  15.073  20.147  1.00  0.00     0.078 A 
ATOM     11  H   UNL     1     -15.009  11.369  19.885  1.00  0.00     0.169 HD
ENDROOT
BRANCH   1  12
ATOM     12  C   UNL     1     -15.661  17.608  20.426  1.00  0.00     0.111 C 
ATOM     13  N   UNL     1     -16.730  20.189  20.089  1.00  0.00    -0.305 N 
ATOM     14  C   UNL     1     -15.479  20.186  20.820  1.00  0.00     0.126 C 
ATOM     15  C   UNL     1     -16.813  19.328  18.911  1.00  0.00     0.163 C 
ATOM     16  C   UNL     1     -15.058  18.779  21.264  1.00  0.00     0.056 C 
ATOM     17  C   UNL     1     -15.835  18.156  18.978  1.00  0.00     0.215 C 
ATOM     18  F   UNL     1     -14.616  18.617  18.550  1.00  0.00    -0.243 F 
BRANCH  13  19
ATOM     19  C   UNL     1     -17.700  21.135  20.376  1.00  0.00     0.410 C 
ATOM     20  O   UNL     1     -17.460  22.320  20.552  1.00  0.00    -0.224 OA
BRANCH  19  21
ATOM     21  O   UNL     1     -18.935  20.578  20.442  1.00  0.00    -0.444 OA
BRANCH  21  22
ATOM     22  C   UNL     1     -20.012  21.024  19.579  1.00  0.00     0.106 C 
ATOM     23  C   UNL     1     -19.473  21.799  18.371  1.00  0.00     0.056 C 
ATOM     24  C   UNL     1     -20.833  21.986  20.453  1.00  0.00     0.056 C 
ATOM     25  C   UNL     1     -20.912  19.857  19.160  1.00  0.00     0.056 C 
ENDBRANCH  21  22
ENDBRANCH  19  21
ENDBRANCH  13  19
BRANCH  12  26
ATOM     26  C   UNL     1     -17.043  17.155  20.983  1.00  0.00     0.154 C 
ATOM     27  C   UNL     1     -17.253  17.549  22.385  1.00  0.00     0.065 C 
ATOM     28  N   UNL     1     -17.419  17.890  23.482  1.00  0.00    -0.198 NA
ENDBRANCH  12  26
ENDBRANCH   1  12
BRANCH   3  29
ATOM     29  N   UNL     1     -11.561  15.134  20.487  1.00  0.00    -0.338 N 
ATOM     30  H   UNL     1     -11.330  14.226  20.886  1.00  0.00     0.168 HD
BRANCH  29  31
ATOM     31  C   UNL     1     -10.415  15.848  20.071  1.00  0.00     0.040 A 
ATOM     32  C   UNL     1     -10.459  17.192  19.643  1.00  0.00     0.027 A 
ATOM     33  C   UNL     1      -9.163  15.200  20.142  1.00  0.00     0.032 A 
ATOM     34  C   UNL     1      -9.305  17.880  19.260  1.00  0.00     0.024 A 
ATOM     35  C   UNL     1      -8.009  15.885  19.780  1.00  0.00    -0.011 A 
ATOM     36  C   UNL     1      -8.110  17.196  19.326  1.00  0.00     0.087 A 
ATOM     37  C   UNL     1      -6.593  15.372  19.816  1.00  0.00     0.140 C 
ATOM     38  S   UNL     1      -6.538  17.823  18.900  1.00  0.00     0.244 S 
ATOM     39  N   UNL     1      -5.693  16.551  19.661  1.00  0.00    -0.188 NA
ATOM     40  O   UNL     1      -6.298  19.054  19.615  1.00  0.00    -0.207 OA
ATOM     41  O   UNL     1      -6.398  17.694  17.468  1.00  0.00    -0.207 OA
BRANCH  39  42
ATOM     42  C   UNL     1      -4.237  16.327  19.418  1.00  0.00     0.028 C 
ATOM     43  C   UNL     1      -3.671  15.319  20.434  1.00  0.00     0.029 C 
ATOM     44  C   UNL     1      -3.438  17.635  19.500  1.00  0.00     0.029 C 
ATOM     45  C   UNL     1      -4.058  15.713  18.015  1.00  0.00     0.029 C 
ENDBRANCH  39  42
ENDBRANCH  29  31
ENDBRANCH   3  29
TORSDOF 8
ENDMDL
MODEL 5
REMARK VINA RESULT:    -9.389      1.849      2.329
REMARK INTER + INTRA:         -14.906
REMARK INTER:                 -14.283
REMARK INTRA:                  -0.623
REMARK UNBOUND:                -1.126
REMARK SMILES CC(C)(C)OC(=O)N1CC[C@](CC#N)(n2nc(Nc3ccc4c(c3)CN(C(C)(C)C)S4(=O)=O)c3c(=O)[nH]ccc32)[C@H](F)C1
REMARK SMILES IDX 15 1 16 2 17 3 34 4 35 5 36 6 37 7 38 8 39 9 40 10 11 12
REMARK SMILES IDX 8 13 9 14 43 15 10 16 41 17 42 18 6 19 7 20 5 21 2 22 1 23
REMARK SMILES IDX 3 24 4 25 12 26 13 27 14 28 18 29 19 31 20 32 24 33 21 34
REMARK SMILES IDX 23 35 22 36 25 37 31 38 26 39 32 40 33 41 27 42 28 43 29 44
REMARK SMILES IDX 30 45
REMARK H PARENT 37 11 18 30
ROOT
ATOM      1  N   UNL     1     -15.002  16.050  19.765  1.00  0.00    -0.252 N 
ATOM      2  N   UNL     1     -13.703  16.307  19.453  1.00  0.00    -0.153 NA
ATOM      3  C   UNL     1     -13.043  15.160  19.643  1.00  0.00     0.166 A 
ATOM      4  C   UNL     1     -13.944  14.137  19.974  1.00  0.00     0.109 A 
ATOM      5  C   UNL     1     -13.782  12.728  20.248  1.00  0.00     0.261 A 
ATOM      6  O   UNL     1     -12.691  12.168  20.300  1.00  0.00    -0.269 OA
ATOM      7  N   UNL     1     -14.984  12.062  20.456  1.00  0.00    -0.328 N 
ATOM      8  C   UNL     1     -16.233  12.660  20.390  1.00  0.00     0.088 A 
ATOM      9  C   UNL     1     -16.395  13.974  20.143  1.00  0.00     0.047 A 
ATOM     10  C   UNL     1     -15.201  14.709  19.965  1.00  0.00     0.078 A 
ATOM     11  H   UNL     1     -14.907  11.070  20.642  1.00  0.00     0.169 HD
ENDROOT
BRANCH   1  12
ATOM     12  C   UNL     1     -15.920  17.214  19.711  1.00  0.00     0.111 C 
ATOM     13  N   UNL     1     -17.065  19.767  20.009  1.00  0.00    -0.305 N 
ATOM     14  C   UNL     1     -16.915  19.064  21.267  1.00  0.00     0.126 C 
ATOM     15  C   UNL     1     -15.945  19.698  19.072  1.00  0.00     0.163 C 
ATOM     16  C   UNL     1     -16.581  17.579  21.077  1.00  0.00     0.056 C 
ATOM     17  C   UNL     1     -15.081  18.457  19.290  1.00  0.00     0.215 C 
ATOM     18  F   UNL     1     -14.207  18.742  20.308  1.00  0.00    -0.243 F 
BRANCH  13  19
ATOM     19  C   UNL     1     -18.126  20.638  19.822  1.00  0.00     0.410 C 
ATOM     20  O   UNL     1     -18.184  21.448  18.909  1.00  0.00    -0.224 OA
BRANCH  19  21
ATOM     21  O   UNL     1     -19.074  20.480  20.779  1.00  0.00    -0.444 OA
BRANCH  21  22
ATOM     22  C   UNL     1     -20.378  19.926  20.465  1.00  0.00     0.106 C 
ATOM     23  C   UNL     1     -20.513  19.636  18.966  1.00  0.00     0.056 C 
ATOM     24  C   UNL     1     -21.369  21.039  20.841  1.00  0.00     0.056 C 
ATOM     25  C   UNL     1     -20.681  18.693  21.321  1.00  0.00     0.056 C 
ENDBRANCH  21  22
ENDBRANCH  19  21
ENDBRANCH  13  19
BRANCH  12  26
ATOM     26  C   UNL     1     -16.988  16.909  18.620  1.00  0.00     0.154 C 
ATOM     27  C   UNL     1     -16.401  16.400  17.370  1.00  0.00     0.065 C 
ATOM     28  N   UNL     1     -15.929  15.972  16.400  1.00  0.00    -0.198 NA
ENDBRANCH  12  26
ENDBRANCH   1  12
BRANCH   3  29
ATOM     29  N   UNL     1     -11.708  14.941  19.543  1.00  0.00    -0.338 N 
ATOM     30  H   UNL     1     -11.424  13.987  19.324  1.00  0.00     0.168 HD
BRANCH  29  31
ATOM     31  C   UNL     1     -10.610  15.827  19.617  1.00  0.00     0.040 A 
ATOM     32  C   UNL     1     -10.690  17.183  19.234  1.00  0.00     0.027 A 
ATOM     33  C   UNL     1      -9.397  15.343  20.152  1.00  0.00     0.032 A 
ATOM     34  C   UNL     1      -9.593  18.043  19.341  1.00  0.00     0.024 A 
ATOM     35  C   UNL     1      -8.308  16.198  20.278  1.00  0.00    -0.011 A 
ATOM     36  C   UNL     1      -8.424  17.515  19.848  1.00  0.00     0.087 A 
ATOM     37  C   UNL     1      -6.952  15.871  20.846  1.00  0.00     0.140 C 
ATOM     38  S   UNL     1      -6.921  18.372  20.076  1.00  0.00     0.244 S 
ATOM     39  N   UNL     1      -6.247  17.165  21.076  1.00  0.00    -0.188 NA
ATOM     40  O   UNL     1      -7.156  19.564  20.855  1.00  0.00    -0.207 OA
ATOM     41  O   UNL     1      -6.231  18.374  18.806  1.00  0.00    -0.207 OA
BRANCH  39  42
ATOM     42  C   UNL     1      -4.791  17.151  21.409  1.00  0.00     0.028 C 
ATOM     43  C   UNL     1      -4.564  16.527  22.797  1.00  0.00     0.029 C 
ATOM     44  C   UNL     1      -4.187  18.561  21.380  1.00  0.00     0.029 C 
ATOM     45  C   UNL     1      -4.058  16.266  20.382  1.00  0.00     0.029 C 
ENDBRANCH  39  42
ENDBRANCH  29  31
ENDBRANCH   3  29
TORSDOF 8
ENDMDL
MODEL 6
REMARK VINA RESULT:    -9.125      2.244      3.406
REMARK INTER + INTRA:         -14.518
REMARK INTER:                 -14.154
REMARK INTRA:                  -0.365
REMARK UNBOUND:                -1.126
REMARK SMILES CC(C)(C)OC(=O)N1CC[C@](CC#N)(n2nc(Nc3ccc4c(c3)CN(C(C)(C)C)S4(=O)=O)c3c(=O)[nH]ccc32)[C@H](F)C1
REMARK SMILES IDX 15 1 16 2 17 3 34 4 35 5 36 6 37 7 38 8 39 9 40 10 11 12
REMARK SMILES IDX 8 13 9 14 43 15 10 16 41 17 42 18 6 19 7 20 5 21 2 22 1 23
REMARK SMILES IDX 3 24 4 25 12 26 13 27 14 28 18 29 19 31 20 32 24 33 21 34
REMARK SMILES IDX 23 35 22 36 25 37 31 38 26 39 32 40 33 41 27 42 28 43 29 44
REMARK SMILES IDX 30 45
REMARK H PARENT 37 11 18 30
ROOT
ATOM      1  N   UNL     1     -14.558  16.456  20.108  1.00  0.00    -0.252 N 
ATOM      2  N   UNL     1     -13.299  16.007  19.854  1.00  0.00    -0.153 NA
ATOM      3  C   UNL     1     -13.366  14.672  19.900  1.00  0.00     0.166 A 
ATOM      4  C   UNL     1     -14.697  14.265  20.077  1.00  0.00     0.109 A 
ATOM      5  C   UNL     1     -15.330  12.970  20.165  1.00  0.00     0.261 A 
ATOM      6  O   UNL     1     -14.712  11.910  20.159  1.00  0.00    -0.269 OA
ATOM      7  N   UNL     1     -16.716  13.035  20.263  1.00  0.00    -0.328 N 
ATOM      8  C   UNL     1     -17.446  14.213  20.257  1.00  0.00     0.088 A 
ATOM      9  C   UNL     1     -16.866  15.426  20.185  1.00  0.00     0.047 A 
ATOM     10  C   UNL     1     -15.453  15.420  20.126  1.00  0.00     0.078 A 
ATOM     11  H   UNL     1     -17.192  12.144  20.317  1.00  0.00     0.169 HD
ENDROOT
BRANCH   1  12
ATOM     12  C   UNL     1     -14.711  17.929  20.195  1.00  0.00     0.111 C 
ATOM     13  N   UNL     1     -15.270  20.625  19.615  1.00  0.00    -0.305 N 
ATOM     14  C   UNL     1     -14.177  20.092  18.827  1.00  0.00     0.126 C 
ATOM     15  C   UNL     1     -16.446  19.774  19.782  1.00  0.00     0.163 C 
ATOM     16  C   UNL     1     -13.678  18.738  19.349  1.00  0.00     0.056 C 
ATOM     17  C   UNL     1     -16.116  18.290  19.625  1.00  0.00     0.215 C 
ATOM     18  F   UNL     1     -16.112  18.013  18.281  1.00  0.00    -0.243 F 
BRANCH  13  19
ATOM     19  C   UNL     1     -15.271  21.960  19.987  1.00  0.00     0.410 C 
ATOM     20  O   UNL     1     -16.271  22.561  20.350  1.00  0.00    -0.224 OA
BRANCH  19  21
ATOM     21  O   UNL     1     -14.033  22.505  19.889  1.00  0.00    -0.444 OA
BRANCH  21  22
ATOM     22  C   UNL     1     -13.179  22.652  21.052  1.00  0.00     0.106 C 
ATOM     23  C   UNL     1     -13.254  24.074  21.621  1.00  0.00     0.056 C 
ATOM     24  C   UNL     1     -11.757  22.412  20.518  1.00  0.00     0.056 C 
ATOM     25  C   UNL     1     -13.489  21.590  22.110  1.00  0.00     0.056 C 
ENDBRANCH  21  22
ENDBRANCH  19  21
ENDBRANCH  13  19
BRANCH  12  26
ATOM     26  C   UNL     1     -14.646  18.312  21.703  1.00  0.00     0.154 C 
ATOM     27  C   UNL     1     -15.926  18.118  22.400  1.00  0.00     0.065 C 
ATOM     28  N   UNL     1     -16.934  17.934  22.945  1.00  0.00    -0.198 NA
ENDBRANCH  12  26
ENDBRANCH   1  12
BRANCH   3  29
ATOM     29  N   UNL     1     -12.349  13.783  19.793  1.00  0.00    -0.338 N 
ATOM     30  H   UNL     1     -12.613  12.815  19.618  1.00  0.00     0.168 HD
BRANCH  29  31
ATOM     31  C   UNL     1     -10.947  13.964  19.808  1.00  0.00     0.040 A 
ATOM     32  C   UNL     1     -10.043  13.007  19.299  1.00  0.00     0.027 A 
ATOM     33  C   UNL     1     -10.437  15.183  20.303  1.00  0.00     0.032 A 
ATOM     34  C   UNL     1      -8.663  13.224  19.304  1.00  0.00     0.024 A 
ATOM     35  C   UNL     1      -9.066  15.412  20.295  1.00  0.00    -0.011 A 
ATOM     36  C   UNL     1      -8.213  14.421  19.821  1.00  0.00     0.087 A 
ATOM     37  C   UNL     1      -8.344  16.652  20.754  1.00  0.00     0.140 C 
ATOM     38  S   UNL     1      -6.548  14.929  19.947  1.00  0.00     0.244 S 
ATOM     39  N   UNL     1      -6.945  16.560  20.248  1.00  0.00    -0.188 NA
ATOM     40  O   UNL     1      -5.909  14.820  18.657  1.00  0.00    -0.207 OA
ATOM     41  O   UNL     1      -6.011  14.342  21.153  1.00  0.00    -0.207 OA
BRANCH  39  42
ATOM     42  C   UNL     1      -5.925  17.531  20.748  1.00  0.00     0.028 C 
ATOM     43  C   UNL     1      -5.646  17.294  22.243  1.00  0.00     0.029 C 
ATOM     44  C   UNL     1      -6.372  18.984  20.538  1.00  0.00     0.029 C 
ATOM     45  C   UNL     1      -4.604  17.294  19.991  1.00  0.00     0.029 C 
ENDBRANCH  39  42
ENDBRANCH  29  31
ENDBRANCH   3  29
TORSDOF 8
ENDMDL
MODEL 7
REMARK VINA RESULT:    -9.098      2.077      2.919
REMARK INTER + INTRA:         -14.480
REMARK INTER:                 -13.283
REMARK INTRA:                  -1.196
REMARK UNBOUND:                -1.126
REMARK SMILES CC(C)(C)OC(=O)N1CC[C@](CC#N)(n2nc(Nc3ccc4c(c3)CN(C(C)(C)C)S4(=O)=O)c3c(=O)[nH]ccc32)[C@H](F)C1
REMARK SMILES IDX 15 1 16 2 17 3 34 4 35 5 36 6 37 7 38 8 39 9 40 10 11 12
REMARK SMILES IDX 8 13 9 14 43 15 10 16 41 17 42 18 6 19 7 20 5 21 2 22 1 23
REMARK SMILES IDX 3 24 4 25 12 26 13 27 14 28 18 29 19 31 20 32 24 33 21 34
REMARK SMILES IDX 23 35 22 36 25 37 31 38 26 39 32 40 33 41 27 42 28 43 29 44
REMARK SMILES IDX 30 45
REMARK H PARENT 37 11 18 30
ROOT
ATOM      1  N   UNL     1     -11.616  16.254  20.150  1.00  0.00    -0.252 N 
ATOM      2  N   UNL     1     -10.447  16.919  20.353  1.00  0.00    -0.153 NA
ATOM      3  C   UNL     1      -9.481  15.996  20.290  1.00  0.00     0.166 A 
ATOM      4  C   UNL     1     -10.027  14.753  19.937  1.00  0.00     0.109 A 
ATOM      5  C   UNL     1      -9.448  13.451  19.706  1.00  0.00     0.261 A 
ATOM      6  O   UNL     1      -8.259  13.198  19.865  1.00  0.00    -0.269 OA
ATOM      7  N   UNL     1     -10.373  12.500  19.288  1.00  0.00    -0.328 N 
ATOM      8  C   UNL     1     -11.720  12.754  19.083  1.00  0.00     0.088 A 
ATOM      9  C   UNL     1     -12.272  13.963  19.304  1.00  0.00     0.047 A 
ATOM     10  C   UNL     1     -11.383  14.958  19.772  1.00  0.00     0.078 A 
ATOM     11  H   UNL     1      -9.999  11.576  19.108  1.00  0.00     0.169 HD
ENDROOT
BRANCH   1  12
ATOM     12  C   UNL     1     -12.850  17.070  20.263  1.00  0.00     0.111 C 
ATOM     13  N   UNL     1     -15.520  17.899  20.586  1.00  0.00    -0.305 N 
ATOM     14  C   UNL     1     -15.308  17.133  19.374  1.00  0.00     0.126 C 
ATOM     15  C   UNL     1     -14.873  17.409  21.802  1.00  0.00     0.163 C 
ATOM     16  C   UNL     1     -13.821  16.945  19.047  1.00  0.00     0.056 C 
ATOM     17  C   UNL     1     -13.641  16.557  21.503  1.00  0.00     0.215 C 
ATOM     18  F   UNL     1     -14.080  15.286  21.230  1.00  0.00    -0.243 F 
BRANCH  13  19
ATOM     19  C   UNL     1     -16.471  18.905  20.615  1.00  0.00     0.410 C 
ATOM     20  O   UNL     1     -17.627  18.754  20.254  1.00  0.00    -0.224 OA
BRANCH  19  21
ATOM     21  O   UNL     1     -15.951  20.068  21.082  1.00  0.00    -0.444 OA
BRANCH  21  22
ATOM     22  C   UNL     1     -15.843  21.241  20.236  1.00  0.00     0.106 C 
ATOM     23  C   UNL     1     -15.686  20.851  18.762  1.00  0.00     0.056 C 
ATOM     24  C   UNL     1     -14.552  21.934  20.701  1.00  0.00     0.056 C 
ATOM     25  C   UNL     1     -17.017  22.198  20.457  1.00  0.00     0.056 C 
ENDBRANCH  21  22
ENDBRANCH  19  21
ENDBRANCH  13  19
BRANCH  12  26
ATOM     26  C   UNL     1     -12.409  18.544  20.497  1.00  0.00     0.154 C 
ATOM     27  C   UNL     1     -12.299  19.315  19.249  1.00  0.00     0.065 C 
ATOM     28  N   UNL     1     -12.243  19.921  18.260  1.00  0.00    -0.198 NA
ENDBRANCH  12  26
ENDBRANCH   1  12
BRANCH   3  29
ATOM     29  N   UNL     1      -8.154  16.164  20.514  1.00  0.00    -0.338 N 
ATOM     30  H   UNL     1      -7.850  16.105  21.484  1.00  0.00     0.168 HD
BRANCH  29  31
ATOM     31  C   UNL     1      -7.073  16.338  19.621  1.00  0.00     0.040 A 
ATOM     32  C   UNL     1      -7.054  17.338  18.624  1.00  0.00     0.027 A 
ATOM     33  C   UNL     1      -5.941  15.510  19.772  1.00  0.00     0.032 A 
ATOM     34  C   UNL     1      -5.961  17.503  17.770  1.00  0.00     0.024 A 
ATOM     35  C   UNL     1      -4.843  15.681  18.937  1.00  0.00    -0.011 A 
ATOM     36  C   UNL     1      -4.889  16.653  17.944  1.00  0.00     0.087 A 
ATOM     37  C   UNL     1      -3.546  14.916  18.966  1.00  0.00     0.140 C 
ATOM     38  S   UNL     1      -3.414  16.648  17.009  1.00  0.00     0.244 S 
ATOM     39  N   UNL     1      -2.573  15.667  18.121  1.00  0.00    -0.188 NA
ATOM     40  O   UNL     1      -2.839  17.972  17.006  1.00  0.00    -0.207 OA
ATOM     41  O   UNL     1      -3.671  15.889  15.807  1.00  0.00    -0.207 OA
BRANCH  39  42
ATOM     42  C   UNL     1      -1.272  15.025  17.766  1.00  0.00     0.028 C 
ATOM     43  C   UNL     1      -1.501  13.837  16.815  1.00  0.00     0.029 C 
ATOM     44  C   UNL     1      -0.516  14.542  19.011  1.00  0.00     0.029 C 
ATOM     45  C   UNL     1      -0.403  16.052  17.014  1.00  0.00     0.029 C 
ENDBRANCH  39  42
ENDBRANCH  29  31
ENDBRANCH   3  29
TORSDOF 8
ENDMDL
MODEL 8
REMARK VINA RESULT:    -9.067      1.279      2.073
REMARK INTER + INTRA:         -14.434
REMARK INTER:                 -13.885
REMARK INTRA:                  -0.550
REMARK UNBOUND:                -1.126
REMARK SMILES CC(C)(C)OC(=O)N1CC[C@](CC#N)(n2nc(Nc3ccc4c(c3)CN(C(C)(C)C)S4(=O)=O)c3c(=O)[nH]ccc32)[C@H](F)C1
REMARK SMILES IDX 15 1 16 2 17 3 34 4 35 5 36 6 37 7 38 8 39 9 40 10 11 12
REMARK SMILES IDX 8 13 9 14 43 15 10 16 41 17 42 18 6 19 7 20 5 21 2 22 1 23
REMARK SMILES IDX 3 24 4 25 12 26 13 27 14 28 18 29 19 31 20 32 24 33 21 34
REMARK SMILES IDX 23 35 22 36 25 37 31 38 26 39 32 40 33 41 27 42 28 43 29 44
REMARK SMILES IDX 30 45
REMARK H PARENT 37 11 18 30
ROOT
ATOM      1  N   UNL     1     -14.248  16.135  20.241  1.00  0.00    -0.252 N 
ATOM      2  N   UNL     1     -12.899  16.309  20.247  1.00  0.00    -0.153 NA
ATOM      3  C   UNL     1     -12.368  15.082  20.232  1.00  0.00     0.166 A 
ATOM      4  C   UNL     1     -13.383  14.121  20.106  1.00  0.00     0.109 A 
ATOM      5  C   UNL     1     -13.373  12.680  20.012  1.00  0.00     0.261 A 
ATOM      6  O   UNL     1     -12.355  12.001  20.103  1.00  0.00    -0.269 OA
ATOM      7  N   UNL     1     -14.633  12.129  19.814  1.00  0.00    -0.328 N 
ATOM      8  C   UNL     1     -15.801  12.866  19.693  1.00  0.00     0.088 A 
ATOM      9  C   UNL     1     -15.823  14.210  19.787  1.00  0.00     0.047 A 
ATOM     10  C   UNL     1     -14.572  14.820  20.031  1.00  0.00     0.078 A 
ATOM     11  H   UNL     1     -14.661  11.120  19.734  1.00  0.00     0.169 HD
ENDROOT
BRANCH   1  12
ATOM     12  C   UNL     1     -15.058  17.374  20.343  1.00  0.00     0.111 C 
ATOM     13  N   UNL     1     -16.038  19.994  20.036  1.00  0.00    -0.305 N 
ATOM     14  C   UNL     1     -14.766  19.943  20.728  1.00  0.00     0.126 C 
ATOM     15  C   UNL     1     -16.189  19.136  18.862  1.00  0.00     0.163 C 
ATOM     16  C   UNL     1     -14.385  18.521  21.160  1.00  0.00     0.056 C 
ATOM     17  C   UNL     1     -15.256  17.927  18.900  1.00  0.00     0.215 C 
ATOM     18  F   UNL     1     -14.034  18.341  18.435  1.00  0.00    -0.243 F 
BRANCH  13  19
ATOM     19  C   UNL     1     -16.961  20.976  20.351  1.00  0.00     0.410 C 
ATOM     20  O   UNL     1     -18.139  20.926  20.033  1.00  0.00    -0.224 OA
BRANCH  19  21
ATOM     21  O   UNL     1     -16.389  21.993  21.045  1.00  0.00    -0.444 OA
BRANCH  21  22
ATOM     22  C   UNL     1     -16.136  23.280  20.426  1.00  0.00     0.106 C 
ATOM     23  C   UNL     1     -15.755  23.122  18.949  1.00  0.00     0.056 C 
ATOM     24  C   UNL     1     -14.926  23.842  21.188  1.00  0.00     0.056 C 
ATOM     25  C   UNL     1     -17.319  24.233  20.617  1.00  0.00     0.056 C 
ENDBRANCH  21  22
ENDBRANCH  19  21
ENDBRANCH  13  19
BRANCH  12  26
ATOM     26  C   UNL     1     -16.438  16.974  20.943  1.00  0.00     0.154 C 
ATOM     27  C   UNL     1     -16.644  17.494  22.304  1.00  0.00     0.065 C 
ATOM     28  N   UNL     1     -16.807  17.933  23.366  1.00  0.00    -0.198 NA
ENDBRANCH  12  26
ENDBRANCH   1  12
BRANCH   3  29
ATOM     29  N   UNL     1     -11.059  14.740  20.315  1.00  0.00    -0.338 N 
ATOM     30  H   UNL     1     -10.860  13.784  20.603  1.00  0.00     0.168 HD
BRANCH  29  31
ATOM     31  C   UNL     1      -9.886  15.462  19.998  1.00  0.00     0.040 A 
ATOM     32  C   UNL     1      -9.891  16.838  19.685  1.00  0.00     0.027 A 
ATOM     33  C   UNL     1      -8.649  14.784  20.053  1.00  0.00     0.032 A 
ATOM     34  C   UNL     1      -8.712  17.532  19.400  1.00  0.00     0.024 A 
ATOM     35  C   UNL     1      -7.471  15.472  19.788  1.00  0.00    -0.011 A 
ATOM     36  C   UNL     1      -7.532  16.818  19.445  1.00  0.00     0.087 A 
ATOM     37  C   UNL     1      -6.067  14.928  19.825  1.00  0.00     0.140 C 
ATOM     38  S   UNL     1      -5.935  17.446  19.124  1.00  0.00     0.244 S 
ATOM     39  N   UNL     1      -5.141  16.096  19.800  1.00  0.00    -0.188 NA
ATOM     40  O   UNL     1      -5.696  18.606  19.949  1.00  0.00    -0.207 OA
ATOM     41  O   UNL     1      -5.750  17.436  17.692  1.00  0.00    -0.207 OA
BRANCH  39  42
ATOM     42  C   UNL     1      -3.681  15.862  19.585  1.00  0.00     0.028 C 
ATOM     43  C   UNL     1      -2.900  17.181  19.724  1.00  0.00     0.029 C 
ATOM     44  C   UNL     1      -3.400  15.247  18.208  1.00  0.00     0.029 C 
ATOM     45  C   UNL     1      -3.167  14.907  20.680  1.00  0.00     0.029 C 
ENDBRANCH  39  42
ENDBRANCH  29  31
ENDBRANCH   3  29
TORSDOF 8
ENDMDL
MODEL 9
REMARK VINA RESULT:    -9.019      1.873      2.768
REMARK INTER + INTRA:         -14.364
REMARK INTER:                 -13.765
REMARK INTRA:                  -0.598
REMARK UNBOUND:                -1.126
REMARK SMILES CC(C)(C)OC(=O)N1CC[C@](CC#N)(n2nc(Nc3ccc4c(c3)CN(C(C)(C)C)S4(=O)=O)c3c(=O)[nH]ccc32)[C@H](F)C1
REMARK SMILES IDX 15 1 16 2 17 3 34 4 35 5 36 6 37 7 38 8 39 9 40 10 11 12
REMARK SMILES IDX 8 13 9 14 43 15 10 16 41 17 42 18 6 19 7 20 5 21 2 22 1 23
REMARK SMILES IDX 3 24 4 25 12 26 13 27 14 28 18 29 19 31 20 32 24 33 21 34
REMARK SMILES IDX 23 35 22 36 25 37 31 38 26 39 32 40 33 41 27 42 28 43 29 44
REMARK SMILES IDX 30 45
REMARK H PARENT 37 11 18 30
ROOT
ATOM      1  N   UNL     1     -14.279  16.009  19.842  1.00  0.00    -0.252 N 
ATOM      2  N   UNL     1     -13.014  16.344  19.471  1.00  0.00    -0.153 NA
ATOM      3  C   UNL     1     -12.311  15.206  19.488  1.00  0.00     0.166 A 
ATOM      4  C   UNL     1     -13.158  14.123  19.767  1.00  0.00     0.109 A 
ATOM      5  C   UNL     1     -12.938  12.700  19.874  1.00  0.00     0.261 A 
ATOM      6  O   UNL     1     -11.832  12.175  19.789  1.00  0.00    -0.269 OA
ATOM      7  N   UNL     1     -14.103  11.973  20.091  1.00  0.00    -0.328 N 
ATOM      8  C   UNL     1     -15.369  12.531  20.178  1.00  0.00     0.088 A 
ATOM      9  C   UNL     1     -15.585  13.858  20.088  1.00  0.00     0.047 A 
ATOM     10  C   UNL     1     -14.427  14.649  19.909  1.00  0.00     0.078 A 
ATOM     11  H   UNL     1     -13.986  10.970  20.162  1.00  0.00     0.169 HD
ENDROOT
BRANCH   1  12
ATOM     12  C   UNL     1     -15.230  17.139  19.980  1.00  0.00     0.111 C 
ATOM     13  N   UNL     1     -17.255  19.038  19.515  1.00  0.00    -0.305 N 
ATOM     14  C   UNL     1     -16.115  19.200  18.636  1.00  0.00     0.126 C 
ATOM     15  C   UNL     1     -17.728  17.674  19.744  1.00  0.00     0.163 C 
ATOM     16  C   UNL     1     -14.901  18.374  19.084  1.00  0.00     0.056 C 
ATOM     17  C   UNL     1     -16.632  16.633  19.523  1.00  0.00     0.215 C 
ATOM     18  F   UNL     1     -16.573  16.382  18.176  1.00  0.00    -0.243 F 
BRANCH  13  19
ATOM     19  C   UNL     1     -17.981  20.145  19.922  1.00  0.00     0.410 C 
ATOM     20  O   UNL     1     -17.576  20.958  20.738  1.00  0.00    -0.224 OA
BRANCH  19  21
ATOM     21  O   UNL     1     -19.190  20.200  19.309  1.00  0.00    -0.444 OA
BRANCH  21  22
ATOM     22  C   UNL     1     -20.418  20.325  20.071  1.00  0.00     0.106 C 
ATOM     23  C   UNL     1     -20.442  19.349  21.253  1.00  0.00     0.056 C 
ATOM     24  C   UNL     1     -21.527  19.927  19.084  1.00  0.00     0.056 C 
ATOM     25  C   UNL     1     -20.655  21.772  20.513  1.00  0.00     0.056 C 
ENDBRANCH  21  22
ENDBRANCH  19  21
ENDBRANCH  13  19
BRANCH  12  26
ATOM     26  C   UNL     1     -15.279  17.521  21.488  1.00  0.00     0.154 C 
ATOM     27  C   UNL     1     -14.756  18.870  21.756  1.00  0.00     0.065 C 
ATOM     28  N   UNL     1     -14.368  19.946  21.951  1.00  0.00    -0.198 NA
ENDBRANCH  12  26
ENDBRANCH   1  12
BRANCH   3  29
ATOM     29  N   UNL     1     -10.982  15.045  19.272  1.00  0.00    -0.338 N 
ATOM     30  H   UNL     1     -10.712  14.240  18.710  1.00  0.00     0.168 HD
BRANCH  29  31
ATOM     31  C   UNL     1      -9.876  15.848  19.630  1.00  0.00     0.040 A 
ATOM     32  C   UNL     1      -9.915  17.259  19.623  1.00  0.00     0.027 A 
ATOM     33  C   UNL     1      -8.699  15.205  20.069  1.00  0.00     0.032 A 
ATOM     34  C   UNL     1      -8.813  18.027  20.006  1.00  0.00     0.024 A 
ATOM     35  C   UNL     1      -7.605  15.963  20.469  1.00  0.00    -0.011 A 
ATOM     36  C   UNL     1      -7.679  17.351  20.404  1.00  0.00     0.087 A 
ATOM     37  C   UNL     1      -6.284  15.459  20.988  1.00  0.00     0.140 C 
ATOM     38  S   UNL     1      -6.176  18.072  20.920  1.00  0.00     0.244 S 
ATOM     39  N   UNL     1      -5.572  16.623  21.588  1.00  0.00    -0.188 NA
ATOM     40  O   UNL     1      -6.432  19.019  21.980  1.00  0.00    -0.207 OA
ATOM     41  O   UNL     1      -5.423  18.394  19.730  1.00  0.00    -0.207 OA
BRANCH  39  42
ATOM     42  C   UNL     1      -4.135  16.480  21.970  1.00  0.00     0.028 C 
ATOM     43  C   UNL     1      -3.661  17.718  22.751  1.00  0.00     0.029 C 
ATOM     44  C   UNL     1      -3.238  16.278  20.742  1.00  0.00     0.029 C 
ATOM     45  C   UNL     1      -3.992  15.264  22.907  1.00  0.00     0.029 C 
ENDBRANCH  39  42
ENDBRANCH  29  31
ENDBRANCH   3  29
TORSDOF 8
ENDMDL
