MODEL 5
REMARK VINA RESULT:    -8.135      2.212      3.020
REMARK INTER + INTRA:         -16.498
REMARK INTER:                 -14.386
REMARK INTRA:                  -2.112
REMARK UNBOUND:                -1.942
REMARK SMILES CCc1c(N2CC[C@@H](O)C2=O)cccc1S(=O)(=O)N[C@@H](CNC(=O)c1ccc(Cl)s1)C(=O)OCCc1nccn1C
REMARK SMILES IDX 20 1 19 2 16 4 17 5 18 6 15 7 3 8 4 9 12 10 14 11 13 12 2 13
REMARK SMILES IDX 1 14 5 15 6 16 10 17 7 18 8 19 11 20 9 21 21 23 22 24 23 25
REMARK SMILES IDX 24 26 25 28 26 29 30 30 27 31 28 32 29 33 31 34 32 35 33 36
REMARK SMILES IDX 34 37 35 38 36 39 37 40 40 41 38 42 39 43 41 44
REMARK H PARENT 19 3 9 22 22 27
ROOT
ATOM      1  C   UNL     1      -2.767  11.553  22.104  1.00  0.00     0.198 C 
ENDROOT
BRANCH   1   2
ATOM      2  N   UNL     1      -2.625  13.028  22.235  1.00  0.00    -0.195 NA
ATOM      3  H   UNL     1      -1.768  13.439  21.846  1.00  0.00     0.142 HD
BRANCH   2   4
ATOM      4  S   UNL     1      -3.982  13.983  22.006  1.00  0.00     0.241 S 
ATOM      5  O   UNL     1      -5.027  13.112  21.507  1.00  0.00    -0.207 OA
ATOM      6  O   UNL     1      -3.540  15.151  21.279  1.00  0.00    -0.207 OA
BRANCH   4   7
ATOM      7  C   UNL     1      -4.457  14.535  23.639  1.00  0.00     0.087 A 
ATOM      8  C   UNL     1      -5.597  15.372  23.833  1.00  0.00    -0.004 A 
ATOM      9  C   UNL     1      -5.980  15.678  25.170  1.00  0.00     0.048 A 
ATOM     10  C   UNL     1      -5.164  15.230  26.228  1.00  0.00     0.027 A 
ATOM     11  C   UNL     1      -3.676  14.103  24.721  1.00  0.00     0.022 A 
ATOM     12  C   UNL     1      -4.023  14.464  26.011  1.00  0.00     0.004 A 
BRANCH   8  13
ATOM     13  C   UNL     1      -6.262  16.043  22.639  1.00  0.00     0.036 C 
ATOM     14  C   UNL     1      -5.813  17.490  22.460  1.00  0.00     0.009 C 
ENDBRANCH   8  13
BRANCH   9  15
ATOM     15  N   UNL     1      -7.168  16.390  25.514  1.00  0.00    -0.310 N 
ATOM     16  C   UNL     1      -7.174  17.778  25.921  1.00  0.00     0.129 C 
ATOM     17  C   UNL     1      -8.483  15.954  25.264  1.00  0.00     0.255 C 
ATOM     18  C   UNL     1      -8.500  18.312  25.420  1.00  0.00     0.064 C 
ATOM     19  C   UNL     1      -9.422  17.118  25.585  1.00  0.00     0.205 C 
ATOM     20  O   UNL     1      -8.882  14.864  24.878  1.00  0.00    -0.271 OA
BRANCH  19  21
ATOM     21  O   UNL     1     -10.543  17.231  24.735  1.00  0.00    -0.383 OA
ATOM     22  H   UNL     1     -11.288  16.817  25.216  1.00  0.00     0.211 HD
ENDBRANCH  19  21
ENDBRANCH   9  15
ENDBRANCH   4   7
ENDBRANCH   2   4
ENDBRANCH   1   2
BRANCH   1  23
ATOM     23  C   UNL     1      -2.459  11.090  20.664  1.00  0.00     0.148 C 
BRANCH  23  24
ATOM     24  N   UNL     1      -3.363  10.078  20.142  1.00  0.00    -0.349 N 
ATOM     25  C   UNL     1      -4.358  10.395  19.237  1.00  0.00     0.261 C 
ATOM     26  O   UNL     1      -4.453  11.538  18.792  1.00  0.00    -0.268 OA
ATOM     27  H   UNL     1      -3.464   9.201  20.645  1.00  0.00     0.163 HD
BRANCH  25  28
ATOM     28  C   UNL     1      -5.291   9.331  18.900  1.00  0.00     0.093 A 
ATOM     29  C   UNL     1      -6.620   9.481  18.535  1.00  0.00     0.027 A 
ATOM     30  S   UNL     1      -4.844   7.673  18.926  1.00  0.00    -0.118 S 
ATOM     31  C   UNL     1      -7.264   8.234  18.278  1.00  0.00     0.033 A 
ATOM     32  C   UNL     1      -6.396   7.190  18.461  1.00  0.00     0.094 A 
ATOM     33  Cl  UNL     1      -6.747   5.520  18.268  1.00  0.00    -0.072 Cl
ENDBRANCH  25  28
ENDBRANCH  23  24
ENDBRANCH   1  23
BRANCH   1  34
ATOM     34  C   UNL     1      -1.807  10.847  23.055  1.00  0.00     0.326 C 
ATOM     35  O   UNL     1      -0.589  10.984  23.072  1.00  0.00    -0.250 OA
BRANCH  34  36
ATOM     36  O   UNL     1      -2.503  10.050  23.920  1.00  0.00    -0.464 OA
BRANCH  36  37
ATOM     37  C   UNL     1      -3.220  10.743  24.959  1.00  0.00     0.241 C 
BRANCH  37  38
ATOM     38  C   UNL     1      -2.352  10.929  26.201  1.00  0.00     0.117 C 
BRANCH  38  39
ATOM     39  C   UNL     1      -2.082   9.620  26.857  1.00  0.00     0.111 A 
ATOM     40  N   UNL     1      -2.938   8.953  27.605  1.00  0.00    -0.242 NA
ATOM     41  N   UNL     1      -0.900   8.922  26.739  1.00  0.00    -0.338 N 
ATOM     42  C   UNL     1      -2.294   7.803  27.981  1.00  0.00     0.131 A 
ATOM     43  C   UNL     1      -1.028   7.762  27.450  1.00  0.00     0.107 A 
ATOM     44  C   UNL     1       0.269   9.325  25.996  1.00  0.00     0.151 C 
ENDBRANCH  38  39
ENDBRANCH  37  38
ENDBRANCH  36  37
ENDBRANCH  34  36
ENDBRANCH   1  34
TORSDOF 14
ENDMDL
