MODEL 9
REMARK VINA RESULT:    -6.648      2.678      7.326
REMARK INTER + INTRA:         -11.449
REMARK INTER:                 -10.088
REMARK INTRA:                  -1.360
REMARK UNBOUND:                -2.858
REMARK SMILES CCC(=O)N1CCN(c2ccc(-n3c(=O)ccc4cnc5ccc(-c6cnc7ccccc7c6)cc5c43)cc2C(F)(F)F)CC1
REMARK SMILES IDX 3 1 4 2 5 3 6 4 7 5 8 6 44 7 45 8 2 9 1 10 9 11 39 12 10 13
REMARK SMILES IDX 38 14 11 15 12 16 40 17 41 18 42 19 43 20 13 21 37 22 14 23
REMARK SMILES IDX 18 24 36 25 15 26 16 27 17 28 19 29 21 30 35 31 20 32 22 33
REMARK SMILES IDX 24 34 23 35 25 36 34 37 26 38 33 39 27 40 28 41 32 42 29 43
REMARK SMILES IDX 31 44 30 45
REMARK H PARENT
ROOT
ATOM      1  C   UNL     1      34.605  43.663  33.196  1.00  0.00     0.222 C 
ATOM      2  O   UNL     1      33.414  43.570  33.509  1.00  0.00    -0.275 OA
ATOM      3  N   UNL     1      35.353  44.757  33.510  1.00  0.00    -0.339 N 
ATOM      4  C   UNL     1      36.795  44.858  33.241  1.00  0.00     0.141 C 
ATOM      5  C   UNL     1      37.542  45.077  34.577  1.00  0.00     0.138 C 
ATOM      6  N   UNL     1      37.015  46.159  35.423  1.00  0.00    -0.367 N 
ATOM      7  C   UNL     1      35.554  46.064  35.577  1.00  0.00     0.138 C 
ATOM      8  C   UNL     1      34.771  45.882  34.259  1.00  0.00     0.141 C 
ENDROOT
BRANCH   1   9
ATOM      9  C   UNL     1      35.244  42.527  32.367  1.00  0.00     0.097 C 
ATOM     10  C   UNL     1      35.444  41.202  33.130  1.00  0.00     0.014 C 
ENDBRANCH   1   9
BRANCH   6  11
ATOM     11  C   UNL     1      37.823  46.682  36.432  1.00  0.00     0.049 A 
ATOM     12  C   UNL     1      38.327  45.885  37.493  1.00  0.00     0.081 A 
ATOM     13  C   UNL     1      38.096  48.060  36.437  1.00  0.00     0.029 A 
ATOM     14  C   UNL     1      39.071  46.495  38.514  1.00  0.00     0.042 A 
ATOM     15  C   UNL     1      38.857  48.650  37.441  1.00  0.00     0.029 A 
ATOM     16  C   UNL     1      39.353  47.864  38.483  1.00  0.00     0.050 A 
BRANCH  12  17
ATOM     17  C   UNL     1      38.196  44.351  37.545  1.00  0.00     0.418 C 
ATOM     18  F   UNL     1      39.048  43.766  36.699  1.00  0.00    -0.166 F 
ATOM     19  F   UNL     1      38.496  43.933  38.775  1.00  0.00    -0.166 F 
ATOM     20  F   UNL     1      36.977  43.909  37.236  1.00  0.00    -0.166 F 
ENDBRANCH  12  17
BRANCH  16  21
ATOM     21  N   UNL     1      40.140  48.448  39.491  1.00  0.00    -0.276 N 
ATOM     22  C   UNL     1      39.584  48.705  40.817  1.00  0.00     0.067 A 
ATOM     23  C   UNL     1      41.440  48.720  39.098  1.00  0.00     0.255 A 
ATOM     24  C   UNL     1      40.474  49.256  41.767  1.00  0.00     0.018 A 
ATOM     25  C   UNL     1      38.213  48.470  41.284  1.00  0.00     0.026 A 
ATOM     26  O   UNL     1      41.918  48.521  37.976  1.00  0.00    -0.269 OA
ATOM     27  C   UNL     1      42.282  49.285  40.132  1.00  0.00     0.073 A 
ATOM     28  C   UNL     1      41.857  49.538  41.377  1.00  0.00     0.017 A 
ATOM     29  C   UNL     1      40.064  49.546  43.059  1.00  0.00     0.122 A 
ATOM     30  C   UNL     1      37.904  48.812  42.645  1.00  0.00     0.072 A 
ATOM     31  C   UNL     1      37.124  47.932  40.524  1.00  0.00     0.021 A 
ATOM     32  N   UNL     1      38.814  49.334  43.504  1.00  0.00    -0.255 NA
ATOM     33  C   UNL     1      36.602  48.622  43.164  1.00  0.00     0.029 A 
ATOM     34  C   UNL     1      35.837  47.747  41.039  1.00  0.00    -0.016 A 
ATOM     35  C   UNL     1      35.595  48.100  42.365  1.00  0.00     0.011 A 
BRANCH  34  36
ATOM     36  C   UNL     1      34.744  47.190  40.182  1.00  0.00     0.001 A 
ATOM     37  C   UNL     1      33.921  46.149  40.628  1.00  0.00     0.020 A 
ATOM     38  C   UNL     1      34.494  47.692  38.899  1.00  0.00     0.120 A 
ATOM     39  C   UNL     1      32.885  45.648  39.802  1.00  0.00     0.001 A 
ATOM     40  N   UNL     1      33.516  47.244  38.075  1.00  0.00    -0.256 NA
ATOM     41  C   UNL     1      32.715  46.237  38.513  1.00  0.00     0.070 A 
ATOM     42  C   UNL     1      32.021  44.600  40.204  1.00  0.00     0.010 A 
ATOM     43  C   UNL     1      31.686  45.761  37.664  1.00  0.00     0.029 A 
ATOM     44  C   UNL     1      31.018  44.153  39.346  1.00  0.00     0.001 A 
ATOM     45  C   UNL     1      30.853  44.729  38.089  1.00  0.00     0.002 A 
ENDBRANCH  34  36
ENDBRANCH  16  21
ENDBRANCH   6  11
TORSDOF 5
ENDMDL
