MODEL 5
REMARK VINA RESULT:    -7.720      2.987      5.886
REMARK INTER + INTRA:         -11.978
REMARK INTER:                 -10.670
REMARK INTRA:                  -1.308
REMARK UNBOUND:                -1.325
REMARK SMILES COc1ccc2ccn(S(=O)(=O)c3cccc(C(=O)Nc4ccc(C)cc4C(=O)O)c3)c2c1
REMARK SMILES IDX 13 1 14 2 15 3 16 4 17 5 31 6 10 7 11 8 12 9 9 10 3 11 4 12
REMARK SMILES IDX 33 13 5 14 32 15 6 16 7 17 8 18 2 19 1 20 18 21 19 22 20 23
REMARK SMILES IDX 21 25 22 26 27 27 23 28 26 29 24 30 25 31 28 32 29 33 30 34
REMARK H PARENT 20 24 30 35
ROOT
ATOM      1  C   UNL     1       4.848   8.235  -4.718  1.00  0.00     0.089 A 
ATOM      2  C   UNL     1       4.796   9.289  -3.801  1.00  0.00     0.022 A 
ATOM      3  C   UNL     1       5.798  10.258  -3.811  1.00  0.00     0.002 A 
ATOM      4  C   UNL     1       6.847  10.176  -4.731  1.00  0.00     0.014 A 
ATOM      5  C   UNL     1       6.903   9.114  -5.648  1.00  0.00     0.041 A 
ATOM      6  C   UNL     1       5.887   8.148  -5.649  1.00  0.00     0.036 A 
ENDROOT
BRANCH   1   7
ATOM      7  S   UNL     1       3.573   7.006  -4.715  1.00  0.00     0.268 S 
ATOM      8  O   UNL     1       2.308   7.632  -5.046  1.00  0.00    -0.201 OA
ATOM      9  O   UNL     1       4.068   5.847  -5.433  1.00  0.00    -0.201 OA
BRANCH   7  10
ATOM     10  N   UNL     1       3.444   6.544  -3.079  1.00  0.00    -0.241 N 
ATOM     11  C   UNL     1       6.337   4.499  -1.817  1.00  0.00     0.121 A 
ATOM     12  C   UNL     1       5.786   4.237  -0.565  1.00  0.00     0.047 A 
ATOM     13  C   UNL     1       5.631   5.268  -2.751  1.00  0.00     0.074 A 
ATOM     14  C   UNL     1       4.524   4.740  -0.219  1.00  0.00     0.014 A 
ATOM     15  C   UNL     1       4.365   5.771  -2.401  1.00  0.00     0.068 A 
ATOM     16  C   UNL     1       3.799   5.514  -1.145  1.00  0.00     0.001 A 
ATOM     17  C   UNL     1       2.522   6.142  -1.107  1.00  0.00     0.029 A 
ATOM     18  C   UNL     1       2.319   6.754  -2.324  1.00  0.00     0.105 A 
BRANCH  11  19
ATOM     19  O   UNL     1       7.557   4.061  -2.261  1.00  0.00    -0.497 OA
ATOM     20  C   UNL     1       8.686   4.363  -1.450  1.00  0.00     0.278 C 
ENDBRANCH  11  19
ENDBRANCH   7  10
ENDBRANCH   1   7
BRANCH   5  21
ATOM     21  C   UNL     1       7.992   8.992  -6.663  1.00  0.00     0.255 C 
ATOM     22  O   UNL     1       8.658   9.990  -6.915  1.00  0.00    -0.269 OA
ATOM     23  N   UNL     1       8.117   7.750  -7.254  1.00  0.00    -0.321 N 
ATOM     24  H   UNL     1       7.393   7.062  -7.047  1.00  0.00     0.170 HD
BRANCH  23  25
ATOM     25  C   UNL     1       9.090   7.314  -8.193  1.00  0.00     0.056 A 
ATOM     26  C   UNL     1       9.589   8.156  -9.193  1.00  0.00     0.027 A 
ATOM     27  C   UNL     1       9.597   5.996  -8.112  1.00  0.00     0.083 A 
ATOM     28  C   UNL     1      10.558   7.709 -10.099  1.00  0.00     0.005 A 
ATOM     29  C   UNL     1      10.568   5.554  -9.031  1.00  0.00     0.021 A 
ATOM     30  C   UNL     1      11.045   6.404 -10.036  1.00  0.00    -0.050 A 
ATOM     31  C   UNL     1      12.110   5.940 -10.985  1.00  0.00     0.044 C 
BRANCH  27  32
ATOM     32  C   UNL     1       9.118   5.069  -7.049  1.00  0.00     0.337 C 
ATOM     33  O   UNL     1       7.950   4.817  -6.803  1.00  0.00    -0.246 OA
BRANCH  32  34
ATOM     34  O   UNL     1      10.110   4.498  -6.343  1.00  0.00    -0.478 OA
ATOM     35  H   UNL     1       9.685   4.196  -5.513  1.00  0.00     0.297 HD
ENDBRANCH  32  34
ENDBRANCH  27  32
ENDBRANCH  23  25
ENDBRANCH   5  21
TORSDOF 7
ENDMDL
