MODEL 8
REMARK VINA RESULT:    -8.294      2.190      8.394
REMARK INTER + INTRA:         -11.661
REMARK INTER:                 -11.651
REMARK INTRA:                  -0.010
REMARK UNBOUND:                -0.942
REMARK SMILES Cn1cc(-c2cc3ncccc3c(-c3cc(C4(CC#N)CN(CC#N)C4)no3)n2)cn1
REMARK SMILES IDX 5 1 6 2 7 3 8 4 9 5 10 6 11 7 12 8 13 9 29 10 4 11 2 12 3 13
REMARK SMILES IDX 31 14 30 15 1 16 14 17 15 18 28 19 16 20 27 21 17 22 21 23
REMARK SMILES IDX 26 24 22 25 18 26 19 27 20 28 23 29 24 30 25 31
REMARK H PARENT
ROOT
ATOM      1  C   UNL     1       5.111 -24.391  21.653  1.00  0.00     0.076 A 
ATOM      2  C   UNL     1       4.106 -25.297  21.355  1.00  0.00     0.058 A 
ATOM      3  C   UNL     1       4.175 -26.588  21.843  1.00  0.00     0.075 A 
ATOM      4  N   UNL     1       3.179 -27.435  21.526  1.00  0.00    -0.256 NA
ATOM      5  C   UNL     1       3.243 -28.705  21.981  1.00  0.00     0.112 A 
ATOM      6  C   UNL     1       4.276 -29.188  22.757  1.00  0.00     0.021 A 
ATOM      7  C   UNL     1       5.301 -28.312  23.087  1.00  0.00     0.014 A 
ATOM      8  C   UNL     1       5.268 -26.969  22.638  1.00  0.00     0.030 A 
ATOM      9  C   UNL     1       6.237 -25.981  22.901  1.00  0.00     0.119 A 
ATOM     10  N   UNL     1       6.171 -24.718  22.420  1.00  0.00    -0.243 NA
ENDROOT
BRANCH   1  11
ATOM     11  C   UNL     1       5.103 -23.022  21.168  1.00  0.00     0.038 A 
ATOM     12  N   UNL     1       5.695 -20.983  20.596  1.00  0.00    -0.275 N 
ATOM     13  C   UNL     1       6.172 -22.149  21.126  1.00  0.00     0.118 A 
ATOM     14  N   UNL     1       4.389 -21.029  20.286  1.00  0.00    -0.181 NA
ATOM     15  C   UNL     1       4.030 -22.268  20.637  1.00  0.00     0.145 A 
ATOM     16  C   UNL     1       6.438 -19.770  20.354  1.00  0.00     0.173 C 
ENDBRANCH   1  11
BRANCH   9  17
ATOM     17  C   UNL     1       7.393 -26.209  23.749  1.00  0.00     0.186 A 
ATOM     18  C   UNL     1       8.548 -25.514  24.024  1.00  0.00     0.080 A 
ATOM     19  O   UNL     1       7.374 -27.354  24.488  1.00  0.00    -0.354 OA
ATOM     20  C   UNL     1       9.202 -26.307  24.987  1.00  0.00     0.094 A 
ATOM     21  N   UNL     1       8.501 -27.401  25.298  1.00  0.00    -0.084 NA
BRANCH  20  22
ATOM     22  C   UNL     1      10.534 -25.931  25.743  1.00  0.00     0.055 C 
ATOM     23  C   UNL     1      10.492 -26.297  27.261  1.00  0.00     0.101 C 
ATOM     24  C   UNL     1      11.675 -26.994  25.685  1.00  0.00     0.101 C 
ATOM     25  N   UNL     1      11.135 -27.591  26.925  1.00  0.00    -0.289 NA
BRANCH  22  26
ATOM     26  C   UNL     1      10.962 -24.492  25.452  1.00  0.00     0.136 C 
ATOM     27  C   UNL     1      12.090 -24.108  26.312  1.00  0.00     0.063 C 
ATOM     28  N   UNL     1      12.968 -23.842  27.023  1.00  0.00    -0.198 NA
ENDBRANCH  22  26
BRANCH  25  29
ATOM     29  C   UNL     1      12.215 -27.922  27.870  1.00  0.00     0.205 C 
ATOM     30  C   UNL     1      12.016 -29.226  28.540  1.00  0.00     0.078 C 
ATOM     31  N   UNL     1      11.873 -30.233  29.098  1.00  0.00    -0.197 NA
ENDBRANCH  25  29
ENDBRANCH  20  22
ENDBRANCH   9  17
TORSDOF 5
ENDMDL
