MODEL 6
REMARK VINA RESULT:    -7.987      2.379      6.237
REMARK INTER + INTRA:         -12.032
REMARK INTER:                 -10.453
REMARK INTRA:                  -1.579
REMARK UNBOUND:                -1.710
REMARK SMILES Cc1cc([C@@H](C)Nc2ccccc2C(=O)[O-])c2nc(N3CCOCC3)cc(=O)n2c1
REMARK SMILES IDX 7 1 5 3 6 4 4 5 2 6 30 7 3 8 29 9 17 10 27 11 18 12 26 13
REMARK SMILES IDX 28 14 19 15 1 16 20 17 25 18 21 19 24 20 22 21 23 22 8 23
REMARK SMILES IDX 13 24 9 25 12 26 10 27 11 28 14 29 15 30 16 31
REMARK H PARENT 7 2
ROOT
ATOM      1  N   UNL     1      49.411  -1.050 -47.096  1.00  0.00    -0.378 N 
ATOM      2  H   UNL     1      49.949  -1.745 -46.597  1.00  0.00     0.161 HD
ENDROOT
BRANCH   1   3
ATOM      3  C   UNL     1      47.958  -1.176 -46.948  1.00  0.00     0.110 C 
ATOM      4  C   UNL     1      47.474  -0.346 -45.749  1.00  0.00     0.036 C 
BRANCH   3   5
ATOM      5  C   UNL     1      47.400  -2.610 -46.902  1.00  0.00     0.018 A 
ATOM      6  C   UNL     1      45.813  -4.300 -47.755  1.00  0.00    -0.034 A 
ATOM      7  C   UNL     1      46.318  -5.160 -46.844  1.00  0.00     0.100 A 
ATOM      8  C   UNL     1      46.406  -2.971 -47.757  1.00  0.00     0.014 A 
ATOM      9  N   UNL     1      47.335  -4.884 -45.937  1.00  0.00    -0.267 N 
ATOM     10  C   UNL     1      47.908  -3.594 -45.936  1.00  0.00     0.147 A 
ATOM     11  C   UNL     1      47.733  -5.894 -45.079  1.00  0.00     0.259 A 
ATOM     12  N   UNL     1      48.855  -3.310 -45.101  1.00  0.00    -0.213 NA
ATOM     13  C   UNL     1      48.794  -5.492 -44.176  1.00  0.00     0.119 A 
ATOM     14  O   UNL     1      47.281  -7.041 -45.028  1.00  0.00    -0.269 OA
ATOM     15  C   UNL     1      49.315  -4.238 -44.208  1.00  0.00     0.136 A 
ATOM     16  C   UNL     1      44.683  -4.672 -48.696  1.00  0.00     0.046 C 
BRANCH  15  17
ATOM     17  N   UNL     1      50.331  -3.797 -43.364  1.00  0.00    -0.352 N 
ATOM     18  C   UNL     1      51.246  -4.737 -42.691  1.00  0.00     0.146 C 
ATOM     19  C   UNL     1      50.982  -2.488 -43.566  1.00  0.00     0.146 C 
ATOM     20  C   UNL     1      51.855  -4.123 -41.413  1.00  0.00     0.181 C 
ATOM     21  C   UNL     1      51.608  -1.953 -42.260  1.00  0.00     0.181 C 
ATOM     22  O   UNL     1      52.517  -2.907 -41.728  1.00  0.00    -0.378 OA
ENDBRANCH  15  17
ENDBRANCH   3   5
ENDBRANCH   1   3
BRANCH   1  23
ATOM     23  C   UNL     1      50.019  -0.594 -48.289  1.00  0.00     0.044 A 
ATOM     24  C   UNL     1      51.298   0.047 -48.294  1.00  0.00     0.020 A 
ATOM     25  C   UNL     1      49.311  -0.737 -49.496  1.00  0.00     0.026 A 
ATOM     26  C   UNL     1      51.778   0.512 -49.540  1.00  0.00     0.012 A 
ATOM     27  C   UNL     1      49.825  -0.271 -50.698  1.00  0.00     0.002 A 
ATOM     28  C   UNL     1      51.058   0.358 -50.720  1.00  0.00     0.001 A 
BRANCH  24  29
ATOM     29  C   UNL     1      52.188   0.218 -47.062  1.00  0.00     0.074 C 
ATOM     30  O   UNL     1      53.399   0.502 -47.229  1.00  0.00    -0.545 OA
ATOM     31  O   UNL     1      51.715   0.054 -45.914  1.00  0.00    -0.545 OA
ENDBRANCH  24  29
ENDBRANCH   1  23
TORSDOF 5
ENDMDL
