REMARK VINA RESULT:    -7.389      2.626      3.987
REMARK INTER + INTRA:         -11.026
REMARK INTER:                 -10.236
REMARK INTRA:                  -0.790
REMARK UNBOUND:                -1.477
REMARK SMILES Nc1ncnc2c1c(-c1ccc(F)c(O)c1)nn2Cc1ocnc1-c1ccccc1
REMARK SMILES IDX 2 1 3 2 4 3 5 4 6 5 7 6 8 7 17 8 18 9 1 10 9 13 10 14 16 15
REMARK SMILES IDX 11 16 14 17 12 18 13 19 15 20 19 22 20 23 21 24 24 25 22 26
REMARK SMILES IDX 23 27 25 28 26 29 30 30 27 31 29 32 28 33
REMARK H PARENT 1 11 1 12 15 21
ROOT
ATOM      1  C   UNL     1      32.112  45.623  37.774  1.00  0.00     0.138 A 
ATOM      2  N   UNL     1      32.559  45.753  36.506  1.00  0.00    -0.219 NA
ATOM      3  C   UNL     1      33.667  46.483  36.281  1.00  0.00     0.226 A 
ATOM      4  N   UNL     1      34.418  47.143  37.176  1.00  0.00    -0.217 NA
ATOM      5  C   UNL     1      33.942  46.979  38.423  1.00  0.00     0.164 A 
ATOM      6  C   UNL     1      32.837  46.236  38.805  1.00  0.00     0.089 A 
ATOM      7  C   UNL     1      32.791  46.362  40.226  1.00  0.00     0.106 A 
ATOM      8  N   UNL     1      33.783  47.148  40.684  1.00  0.00    -0.170 NA
ATOM      9  N   UNL     1      34.429  47.548  39.566  1.00  0.00    -0.239 N 
ENDROOT
BRANCH   1  10
ATOM     10  N   UNL     1      30.955  44.901  37.940  1.00  0.00    -0.383 N 
ATOM     11  H   UNL     1      30.407  45.110  38.760  1.00  0.00     0.158 HD
ATOM     12  H   UNL     1      30.703  44.133  37.342  1.00  0.00     0.158 HD
ENDBRANCH   1  10
BRANCH   7  13
ATOM     13  C   UNL     1      31.851  45.770  41.172  1.00  0.00     0.007 A 
ATOM     14  C   UNL     1      31.175  44.584  40.828  1.00  0.00     0.014 A 
ATOM     15  C   UNL     1      31.587  46.383  42.404  1.00  0.00     0.059 A 
ATOM     16  C   UNL     1      30.258  44.008  41.712  1.00  0.00     0.044 A 
ATOM     17  C   UNL     1      30.675  45.800  43.278  1.00  0.00     0.151 A 
ATOM     18  C   UNL     1      30.016  44.622  42.933  1.00  0.00     0.164 A 
ATOM     19  F   UNL     1      29.139  44.080  43.792  1.00  0.00    -0.203 F 
BRANCH  17  20
ATOM     20  O   UNL     1      30.439  46.408  44.479  1.00  0.00    -0.505 OA
ATOM     21  H   UNL     1      31.253  46.318  45.009  1.00  0.00     0.293 HD
ENDBRANCH  17  20
ENDBRANCH   7  13
BRANCH   9  22
ATOM     22  C   UNL     1      35.539  48.486  39.651  1.00  0.00     0.224 C 
BRANCH  22  23
ATOM     23  C   UNL     1      36.616  48.017  40.560  1.00  0.00     0.153 A 
ATOM     24  O   UNL     1      36.927  48.849  41.609  1.00  0.00    -0.446 OA
ATOM     25  C   UNL     1      37.453  46.920  40.652  1.00  0.00     0.114 A 
ATOM     26  C   UNL     1      37.953  48.214  42.243  1.00  0.00     0.309 A 
ATOM     27  N   UNL     1      38.310  47.065  41.718  1.00  0.00    -0.216 NA
BRANCH  25  28
ATOM     28  C   UNL     1      37.508  45.794  39.747  1.00  0.00     0.004 A 
ATOM     29  C   UNL     1      36.593  44.743  39.903  1.00  0.00     0.010 A 
ATOM     30  C   UNL     1      38.465  45.733  38.725  1.00  0.00     0.010 A 
ATOM     31  C   UNL     1      36.654  43.627  39.067  1.00  0.00     0.001 A 
ATOM     32  C   UNL     1      38.521  44.616  37.888  1.00  0.00     0.001 A 
ATOM     33  C   UNL     1      37.620  43.565  38.062  1.00  0.00     0.000 A 
ENDBRANCH  25  28
ENDBRANCH  22  23
ENDBRANCH   9  22
TORSDOF 6
