REMARK SMILES Cc1oc(-c2ccccc2)nc1CCOc1ccc(C[C@@H]2C(=O)N(c3ccc(C(C)(C)C)cc3)[C@@H]2C(=O)O)cc1
REMARK SMILES IDX 16 1 17 2 18 3 19 4 39 5 40 6 15 7 14 8 13 9 12 10 2 11 3 12
REMARK SMILES IDX 4 13 11 14 1 15 5 16 6 17 10 18 7 19 9 20 8 21 20 22 21 23
REMARK SMILES IDX 22 24 35 25 23 26 24 27 36 28 37 29 38 30 25 32 26 33 34 34
REMARK SMILES IDX 27 35 33 36 28 37 29 38 30 39 31 40 32 41
REMARK H PARENT 38 31
REMARK INDEX MAP 16 1 17 2 18 3 19 4 39 5 40 6 15 7 14 8 13 9 12 10 2 11 3 12
REMARK INDEX MAP 4 13 11 14 1 15 5 16 6 17 10 18 7 19 9 20 8 21 20 22 21 23
REMARK INDEX MAP 22 24 35 25 23 26 24 27 36 28 37 29 38 30 72 31 25 32 26 33
REMARK INDEX MAP 34 34 27 35 33 36 28 37 29 38 30 39 31 40 32 41
ROOT
ATOM      1  C   UNL     1      10.553   5.675 -11.238  1.00  0.00     0.119 A 
ATOM      2  C   UNL     1      10.665   6.602 -10.204  1.00  0.00     0.047 A 
ATOM      3  C   UNL     1      10.443   6.217  -8.880  1.00  0.00     0.007 A 
ATOM      4  C   UNL     1      10.133   4.889  -8.570  1.00  0.00    -0.047 A 
ATOM      5  C   UNL     1      10.025   3.961  -9.616  1.00  0.00     0.007 A 
ATOM      6  C   UNL     1      10.241   4.349 -10.942  1.00  0.00     0.047 A 
ENDROOT
BRANCH   1   7
ATOM      7  O   UNL     1      10.800   6.163 -12.491  1.00  0.00    -0.493 OA
BRANCH   7   8
ATOM      8  C   UNL     1      11.615   7.341 -12.546  1.00  0.00     0.236 C 
BRANCH   8   9
ATOM      9  C   UNL     1      10.820   8.457 -13.220  1.00  0.00     0.101 C 
BRANCH   9  10
ATOM     10  C   UNL     1      10.704   9.664 -12.359  1.00  0.00     0.086 A 
ATOM     11  C   UNL     1      10.609  10.993 -12.714  1.00  0.00     0.125 A 
ATOM     12  O   UNL     1      10.539  11.729 -11.566  1.00  0.00    -0.441 OA
ATOM     13  C   UNL     1      10.597  10.800 -10.560  1.00  0.00     0.226 A 
ATOM     14  N   UNL     1      10.693   9.553 -10.986  1.00  0.00    -0.214 NA
ATOM     15  C   UNL     1      10.584  11.735 -13.985  1.00  0.00     0.090 C 
BRANCH  13  16
ATOM     16  C   UNL     1      10.548  11.308  -9.191  1.00  0.00     0.037 A 
ATOM     17  C   UNL     1      10.165  12.626  -8.901  1.00  0.00     0.014 A 
ATOM     18  C   UNL     1      10.890  10.461  -8.124  1.00  0.00     0.014 A 
ATOM     19  C   UNL     1      10.122  13.085  -7.581  1.00  0.00     0.001 A 
ATOM     20  C   UNL     1      10.848  10.919  -6.804  1.00  0.00     0.001 A 
ATOM     21  C   UNL     1      10.465  12.231  -6.534  1.00  0.00     0.000 A 
ENDBRANCH  13  16
ENDBRANCH   9  10
ENDBRANCH   8   9
ENDBRANCH   7   8
ENDBRANCH   1   7
BRANCH   4  22
ATOM     22  C   UNL     1       9.910   4.465  -7.138  1.00  0.00     0.051 C 
BRANCH  22  23
ATOM     23  C   UNL     1       8.436   4.175  -6.896  1.00  0.00     0.118 C 
ATOM     24  C   UNL     1       7.623   5.402  -6.440  1.00  0.00     0.233 C 
ATOM     25  C   UNL     1       7.925   3.508  -5.578  1.00  0.00     0.213 C 
ATOM     26  O   UNL     1       7.453   6.517  -6.875  1.00  0.00    -0.274 OA
ATOM     27  N   UNL     1       7.135   4.728  -5.372  1.00  0.00    -0.297 N 
BRANCH  25  28
ATOM     28  C   UNL     1       8.955   3.187  -4.441  1.00  0.00     0.327 C 
ATOM     29  O   UNL     1       9.694   3.948  -3.829  1.00  0.00    -0.250 OA
BRANCH  28  30
ATOM     30  O   UNL     1       8.990   1.870  -4.116  1.00  0.00    -0.480 OA
ATOM     31  H   UNL     1       9.605   1.551  -3.409  1.00  0.00     0.296 HD
ENDBRANCH  28  30
ENDBRANCH  25  28
BRANCH  27  32
ATOM     32  C   UNL     1       6.219   5.064  -4.379  1.00  0.00     0.045 A 
ATOM     33  C   UNL     1       5.021   5.703  -4.696  1.00  0.00     0.026 A 
ATOM     34  C   UNL     1       6.478   4.763  -3.040  1.00  0.00     0.026 A 
ATOM     35  C   UNL     1       4.107   6.045  -3.691  1.00  0.00     0.006 A 
ATOM     36  C   UNL     1       5.562   5.107  -2.034  1.00  0.00     0.006 A 
ATOM     37  C   UNL     1       4.358   5.761  -2.336  1.00  0.00    -0.042 A 
BRANCH  37  38
ATOM     38  C   UNL     1       3.332   6.161  -1.261  1.00  0.00    -0.013 C 
ATOM     39  C   UNL     1       1.873   5.798  -1.625  1.00  0.00     0.016 C 
ATOM     40  C   UNL     1       3.659   5.443   0.066  1.00  0.00     0.016 C 
ATOM     41  C   UNL     1       3.384   7.687  -1.041  1.00  0.00     0.016 C 
ENDBRANCH  37  38
ENDBRANCH  27  32
ENDBRANCH  22  23
ENDBRANCH   4  22
TORSDOF 11
