REMARK VINA RESULT:    -7.263      3.703      8.123
REMARK INTER + INTRA:         -14.703
REMARK INTER:                 -13.318
REMARK INTRA:                  -1.386
REMARK UNBOUND:                -2.346
REMARK SMILES NCc1ccc(Cl)cc1CNC(=O)CNC(=O)[C@@H](CCc1cccc[n+]1[O-])NC(=O)C(=O)O
REMARK SMILES IDX 14 1 12 2 11 3 13 4 10 6 9 7 3 8 4 9 5 10 8 11 6 12 7 13
REMARK SMILES IDX 2 14 1 15 15 18 16 19 17 20 18 22 19 23 20 24 21 25 22 26
REMARK SMILES IDX 26 27 23 28 25 29 24 30 27 31 28 32 29 33 30 34 31 36 32 37
REMARK SMILES IDX 33 38
REMARK H PARENT 11 5 1 16 1 17 15 21 28 35 33 39
ROOT
ATOM      1  C   UNL     1     127.612 -18.580 164.204  1.00  0.00     0.216 C 
ENDROOT
BRANCH   1   2
ATOM      2  C   UNL     1     128.741 -19.160 165.061  1.00  0.00     0.239 C 
ATOM      3  N   UNL     1     129.623 -18.210 165.520  1.00  0.00    -0.350 N 
ATOM      4  O   UNL     1     128.857 -20.362 165.281  1.00  0.00    -0.273 OA
ATOM      5  H   UNL     1     129.469 -17.239 165.249  1.00  0.00     0.163 HD
BRANCH   3   6
ATOM      6  C   UNL     1     130.769 -18.544 166.324  1.00  0.00     0.152 C 
BRANCH   6   7
ATOM      7  C   UNL     1     131.794 -17.433 166.272  1.00  0.00    -0.023 A 
ATOM      8  C   UNL     1     132.438 -17.042 165.073  1.00  0.00    -0.029 A 
ATOM      9  C   UNL     1     133.436 -16.049 165.126  1.00  0.00     0.007 A 
ATOM     10  C   UNL     1     133.794 -15.453 166.338  1.00  0.00     0.021 A 
ATOM     11  C   UNL     1     132.173 -16.825 167.485  1.00  0.00     0.026 A 
ATOM     12  C   UNL     1     133.164 -15.846 167.512  1.00  0.00     0.041 A 
ATOM     13  Cl  UNL     1     133.620 -15.130 169.010  1.00  0.00    -0.084 Cl
BRANCH   8  14
ATOM     14  C   UNL     1     132.118 -17.669 163.735  1.00  0.00     0.113 C 
BRANCH  14  15
ATOM     15  N   UNL     1     131.003 -16.995 163.086  1.00  0.00    -0.326 NA
ATOM     16  H   UNL     1     130.790 -17.468 162.212  1.00  0.00     0.119 HD
ATOM     17  H   UNL     1     131.277 -16.046 162.844  1.00  0.00     0.119 HD
ENDBRANCH  14  15
ENDBRANCH   8  14
ENDBRANCH   6   7
ENDBRANCH   3   6
ENDBRANCH   1   2
BRANCH   1  18
ATOM     18  N   UNL     1     128.074 -17.389 163.514  1.00  0.00    -0.345 N 
ATOM     19  C   UNL     1     127.239 -16.608 162.750  1.00  0.00     0.243 C 
ATOM     20  O   UNL     1     126.077 -16.938 162.516  1.00  0.00    -0.273 OA
ATOM     21  H   UNL     1     129.046 -17.109 163.626  1.00  0.00     0.164 HD
BRANCH  19  22
ATOM     22  C   UNL     1     127.896 -15.341 162.147  1.00  0.00     0.172 C 
BRANCH  22  23
ATOM     23  C   UNL     1     128.381 -15.572 160.703  1.00  0.00     0.046 C 
BRANCH  23  24
ATOM     24  C   UNL     1     127.821 -14.567 159.680  1.00  0.00     0.112 C 
BRANCH  24  25
ATOM     25  C   UNL     1     128.405 -14.748 158.305  1.00  0.00     0.192 A 
ATOM     26  C   UNL     1     128.058 -15.837 157.489  1.00  0.00     0.076 A 
ATOM     27  N   UNL     1     129.320 -13.799 157.847  1.00  0.00    -0.176 N 
ATOM     28  C   UNL     1     128.620 -15.970 156.223  1.00  0.00     0.013 A 
ATOM     29  C   UNL     1     129.866 -13.953 156.582  1.00  0.00     0.321 A 
ATOM     30  C   UNL     1     129.528 -15.028 155.764  1.00  0.00     0.072 A 
ATOM     31  O   UNL     1     129.673 -12.808 158.570  1.00  0.00    -0.619 OA
ENDBRANCH  24  25
ENDBRANCH  23  24
ENDBRANCH  22  23
BRANCH  22  32
ATOM     32  N   UNL     1     127.016 -14.182 162.226  1.00  0.00    -0.335 N 
ATOM     33  C   UNL     1     126.528 -13.667 163.401  1.00  0.00     0.330 C 
ATOM     34  O   UNL     1     126.715 -14.163 164.504  1.00  0.00    -0.262 OA
ATOM     35  H   UNL     1     126.729 -13.709 161.355  1.00  0.00     0.164 HD
BRANCH  33  36
ATOM     36  C   UNL     1     125.661 -12.403 163.223  1.00  0.00     0.394 C 
ATOM     37  O   UNL     1     124.909 -11.947 164.063  1.00  0.00    -0.241 OA
BRANCH  36  38
ATOM     38  O   UNL     1     125.854 -11.843 162.021  1.00  0.00    -0.474 OA
ATOM     39  H   UNL     1     126.354 -11.026 162.210  1.00  0.00     0.297 HD
ENDBRANCH  36  38
ENDBRANCH  33  36
ENDBRANCH  22  32
ENDBRANCH  19  22
ENDBRANCH   1  18
TORSDOF 13
