MODEL 9
REMARK minimizedAffinity -7.88252163
REMARK CNNscore 0.224898368
REMARK CNNaffinity 5.6988368
REMARK SMILES Cc1cc([C@@H](C)Nc2ccccc2C(=O)O)c2nc(N3CCOCC3)cc(=O)n2c1
REMARK SMILES IDX 8 1 9 2 10 3 11 4 12 5 13 6 7 7 5 9 6 10 4 11 2 12 3 13
REMARK SMILES IDX 30 14 29 15 17 16 27 17 18 18 26 19 28 20 19 21 1 22 20 23
REMARK SMILES IDX 21 24 25 25 22 26 24 27 23 28 14 29 15 30 16 31
REMARK H PARENT 7 8 16 32
ROOT
ATOM      1  C   UNL     1      31.170  45.354  39.788  1.00  0.00     0.049 A 
ATOM      2  C   UNL     1      30.588  44.896  40.980  1.00  0.00     0.026 A 
ATOM      3  C   UNL     1      29.814  43.729  41.038  1.00  0.00     0.002 A 
ATOM      4  C   UNL     1      29.624  42.963  39.899  1.00  0.00     0.001 A 
ATOM      5  C   UNL     1      30.214  43.362  38.705  1.00  0.00     0.018 A 
ATOM      6  C   UNL     1      30.989  44.539  38.639  1.00  0.00     0.083 A 
ENDROOT
BRANCH   1   7
ATOM      7  N   UNL     1      32.004  46.480  39.755  1.00  0.00    -0.378 N 
ATOM      8  H   UNL     1      31.487  47.277  40.155  1.00  0.00     0.161 HD
BRANCH   7   9
ATOM      9  C   UNL     1      33.402  46.553  40.212  1.00  0.00     0.110 C 
ATOM     10  C   UNL     1      34.160  45.268  39.860  1.00  0.00     0.036 C 
BRANCH   9  11
ATOM     11  C   UNL     1      33.507  47.061  41.635  1.00  0.00     0.018 A 
ATOM     12  C   UNL     1      32.708  47.508  43.897  1.00  0.00    -0.034 A 
ATOM     13  C   UNL     1      32.551  46.950  42.575  1.00  0.00     0.014 A 
ATOM     14  C   UNL     1      33.847  48.144  44.200  1.00  0.00     0.100 A 
ATOM     15  N   UNL     1      34.894  48.252  43.297  1.00  0.00    -0.267 N 
ATOM     16  C   UNL     1      34.816  47.708  42.024  1.00  0.00     0.147 A 
ATOM     17  C   UNL     1      36.052  48.896  43.687  1.00  0.00     0.259 A 
ATOM     18  N   UNL     1      35.799  47.726  41.178  1.00  0.00    -0.213 NA
ATOM     19  C   UNL     1      37.141  48.908  42.703  1.00  0.00     0.119 A 
ATOM     20  O   UNL     1      36.240  49.437  44.778  1.00  0.00    -0.269 OA
ATOM     21  C   UNL     1      36.991  48.321  41.506  1.00  0.00     0.136 A 
ATOM     22  C   UNL     1      31.565  47.368  44.856  1.00  0.00     0.046 C 
BRANCH  21  23
ATOM     23  N   UNL     1      38.039  48.291  40.579  1.00  0.00    -0.352 N 
ATOM     24  C   UNL     1      39.395  48.740  40.957  1.00  0.00     0.146 C 
ATOM     25  C   UNL     1      37.917  47.842  39.178  1.00  0.00     0.146 C 
ATOM     26  C   UNL     1      40.141  49.288  39.732  1.00  0.00     0.181 C 
ATOM     27  C   UNL     1      39.269  47.340  38.648  1.00  0.00     0.181 C 
ATOM     28  O   UNL     1      40.309  48.327  38.681  1.00  0.00    -0.378 OA
ENDBRANCH  21  23
ENDBRANCH   9  11
ENDBRANCH   7   9
ENDBRANCH   1   7
BRANCH   6  29
ATOM     29  C   UNL     1      31.553  44.837  37.290  1.00  0.00     0.337 C 
ATOM     30  O   UNL     1      32.135  45.862  36.975  1.00  0.00    -0.246 OA
BRANCH  29  31
ATOM     31  O   UNL     1      31.415  43.842  36.395  1.00  0.00    -0.478 OA
ATOM     32  H   UNL     1      31.891  44.179  35.607  1.00  0.00     0.297 HD
ENDBRANCH  29  31
ENDBRANCH   6  29
TORSDOF 6
ENDMDL
