REMARK SMILES O=C(O)COc1ccc(CCc2ccc(N3C(=O)c4ccccc4C3=O)cc2)cc1
REMARK SMILES IDX 6 1 7 2 8 3 9 4 29 5 30 6 5 7 4 8 2 9 1 10 3 11 10 13 11 14
REMARK SMILES IDX 12 15 13 16 28 17 14 18 27 19 15 20 16 21 17 22 25 23 18 24
REMARK SMILES IDX 19 25 24 26 26 27 20 28 23 29 21 30 22 31
REMARK H PARENT 3 12
REMARK INDEX MAP 6 1 7 2 8 3 9 4 29 5 30 6 5 7 4 8 2 9 1 10 3 11 31 12 10 13
REMARK INDEX MAP 11 14 12 15 13 16 28 17 14 18 27 19 15 20 16 21 17 22 25 23
REMARK INDEX MAP 18 24 19 25 24 26 26 27 20 28 23 29 21 30 22 31
ROOT
ATOM      1  C   UNL     1      36.384 -37.589 103.450  1.00  0.00     0.120 A 
ATOM      2  C   UNL     1      35.808 -36.874 104.500  1.00  0.00     0.047 A 
ATOM      3  C   UNL     1      36.016 -37.278 105.823  1.00  0.00     0.007 A 
ATOM      4  C   UNL     1      36.798 -38.403 106.114  1.00  0.00    -0.047 A 
ATOM      5  C   UNL     1      37.374 -39.115 105.057  1.00  0.00     0.007 A 
ATOM      6  C   UNL     1      37.166 -38.710 103.736  1.00  0.00     0.047 A 
ENDROOT
BRANCH   1   7
ATOM      7  O   UNL     1      36.264 -37.305 102.118  1.00  0.00    -0.482 OA
BRANCH   7   8
ATOM      8  C   UNL     1      36.495 -35.959 101.723  1.00  0.00     0.351 C 
BRANCH   8   9
ATOM      9  C   UNL     1      37.943 -35.773 101.307  1.00  0.00     0.341 C 
ATOM     10  O   UNL     1      38.747 -36.623 100.963  1.00  0.00    -0.248 OA
BRANCH   9  11
ATOM     11  O   UNL     1      38.317 -34.473 101.349  1.00  0.00    -0.479 OA
ATOM     12  H   UNL     1      37.667 -33.780 101.628  1.00  0.00     0.296 HD
ENDBRANCH   9  11
ENDBRANCH   8   9
ENDBRANCH   7   8
ENDBRANCH   1   7
BRANCH   4  13
ATOM     13  C   UNL     1      37.039 -38.824 107.545  1.00  0.00     0.040 C 
BRANCH  13  14
ATOM     14  C   UNL     1      37.927 -37.850 108.330  1.00  0.00     0.040 C 
BRANCH  14  15
ATOM     15  C   UNL     1      39.378 -38.262 108.376  1.00  0.00    -0.048 A 
ATOM     16  C   UNL     1      40.116 -38.409 107.202  1.00  0.00     0.006 A 
ATOM     17  C   UNL     1      40.021 -38.477 109.594  1.00  0.00     0.006 A 
ATOM     18  C   UNL     1      41.471 -38.770 107.248  1.00  0.00     0.027 A 
ATOM     19  C   UNL     1      41.376 -38.838 109.635  1.00  0.00     0.027 A 
ATOM     20  C   UNL     1      42.136 -38.994 108.465  1.00  0.00     0.052 A 
BRANCH  20  21
ATOM     21  N   UNL     1      43.521 -39.358 108.510  1.00  0.00    -0.242 N 
ATOM     22  C   UNL     1      44.041 -40.559 108.068  1.00  0.00     0.266 C 
ATOM     23  C   UNL     1      44.535 -38.559 109.004  1.00  0.00     0.266 C 
ATOM     24  O   UNL     1      43.524 -41.542 107.566  1.00  0.00    -0.268 OA
ATOM     25  C   UNL     1      45.481 -40.517 108.290  1.00  0.00     0.053 A 
ATOM     26  C   UNL     1      45.782 -39.301 108.856  1.00  0.00     0.053 A 
ATOM     27  O   UNL     1      44.538 -37.446 109.500  1.00  0.00    -0.268 OA
ATOM     28  C   UNL     1      46.458 -41.458 108.019  1.00  0.00     0.015 A 
ATOM     29  C   UNL     1      47.078 -38.949 109.188  1.00  0.00     0.015 A 
ATOM     30  C   UNL     1      47.776 -41.128 108.344  1.00  0.00     0.001 A 
ATOM     31  C   UNL     1      48.084 -39.881 108.924  1.00  0.00     0.001 A 
ENDBRANCH  20  21
ENDBRANCH  14  15
ENDBRANCH  13  14
ENDBRANCH   4  13
TORSDOF 8
