REMARK VINA RESULT:   -11.281      0.175      2.826
REMARK INTER + INTRA:         -21.832
REMARK INTER:                 -18.067
REMARK INTRA:                  -3.765
REMARK UNBOUND:                -3.956
REMARK SMILES CC1=C[C@@H]2Cc3nc4cc(Cl)ccc4c(NCCCCCCCNc4c5c(nc6ccccc46)CCCC5)c3[C@H](C1)C2
REMARK SMILES IDX 19 1 18 2 17 3 16 4 15 6 2 7 3 8 41 9 4 10 40 11 5 12 42 13
REMARK SMILES IDX 39 14 6 15 7 16 14 17 8 18 13 19 9 20 12 21 10 22 1 23 11 24
REMARK SMILES IDX 20 25 21 26 22 27 23 28 24 29 25 31 26 32 34 33 27 34 38 35
REMARK SMILES IDX 33 36 29 37 28 38 35 39 37 40 32 41 30 42 36 43 31 44
REMARK H PARENT 16 5 24 30
ROOT
ATOM      1  C   UNL     1     135.020 112.181  36.508  1.00  0.00     0.002 C 
ENDROOT
BRANCH   1   2
ATOM      2  C   UNL     1     135.817 112.220  37.817  1.00  0.00     0.021 C 
BRANCH   2   3
ATOM      3  C   UNL     1     136.379 113.613  38.116  1.00  0.00     0.113 C 
BRANCH   3   4
ATOM      4  N   UNL     1     136.052 113.999  39.485  1.00  0.00    -0.384 N 
ATOM      5  H   UNL     1     136.092 113.256  40.174  1.00  0.00     0.160 HD
BRANCH   4   6
ATOM      6  C   UNL     1     136.543 115.246  39.917  1.00  0.00     0.049 A 
ATOM      7  C   UNL     1     134.160 117.974  37.608  1.00  0.00    -0.076 C 
ATOM      8  C   UNL     1     134.116 118.964  38.518  1.00  0.00    -0.024 C 
ATOM      9  C   UNL     1     134.113 116.517  38.020  1.00  0.00     0.039 C 
ATOM     10  C   UNL     1     133.983 118.711  40.004  1.00  0.00     0.018 C 
ATOM     11  C   UNL     1     134.226 116.289  39.547  1.00  0.00     0.028 C 
ATOM     12  C   UNL     1     135.350 118.788  40.696  1.00  0.00     0.064 C 
ATOM     13  C   UNL     1     133.373 117.333  40.277  1.00  0.00     0.017 C 
ATOM     14  C   UNL     1     135.679 116.355  40.007  1.00  0.00     0.001 A 
ATOM     15  C   UNL     1     136.203 117.552  40.513  1.00  0.00     0.047 A 
ATOM     16  N   UNL     1     137.484 117.680  40.934  1.00  0.00    -0.252 NA
ATOM     17  C   UNL     1     137.894 115.379  40.335  1.00  0.00     0.024 A 
ATOM     18  C   UNL     1     138.308 116.630  40.838  1.00  0.00     0.074 A 
ATOM     19  C   UNL     1     138.847 114.338  40.244  1.00  0.00     0.014 A 
ATOM     20  C   UNL     1     139.620 116.796  41.252  1.00  0.00     0.049 A 
ATOM     21  C   UNL     1     140.165 114.523  40.658  1.00  0.00     0.021 A 
ATOM     22  C   UNL     1     140.543 115.756  41.167  1.00  0.00     0.043 A 
ATOM     23  C   UNL     1     134.271 118.242  36.136  1.00  0.00     0.039 C 
ATOM     24  Cl  UNL     1     142.165 116.004  41.685  1.00  0.00    -0.084 Cl
ENDBRANCH   4   6
ENDBRANCH   3   4
ENDBRANCH   2   3
ENDBRANCH   1   2
BRANCH   1  25
ATOM     25  C   UNL     1     133.737 113.016  36.551  1.00  0.00     0.000 C 
BRANCH  25  26
ATOM     26  C   UNL     1     132.662 112.548  37.537  1.00  0.00     0.002 C 
BRANCH  26  27
ATOM     27  C   UNL     1     132.649 113.250  38.900  1.00  0.00     0.021 C 
BRANCH  27  28
ATOM     28  C   UNL     1     131.573 112.774  39.877  1.00  0.00     0.113 C 
BRANCH  28  29
ATOM     29  N   UNL     1     132.149 112.033  40.994  1.00  0.00    -0.384 N 
ATOM     30  H   UNL     1     131.516 111.467  41.546  1.00  0.00     0.160 HD
BRANCH  29  31
ATOM     31  C   UNL     1     133.302 112.506  41.638  1.00  0.00     0.049 A 
ATOM     32  C   UNL     1     133.243 113.721  42.355  1.00  0.00    -0.003 A 
ATOM     33  C   UNL     1     134.548 111.826  41.537  1.00  0.00     0.024 A 
ATOM     34  C   UNL     1     134.423 114.205  42.927  1.00  0.00     0.046 A 
ATOM     35  C   UNL     1     131.936 114.453  42.560  1.00  0.00     0.039 C 
ATOM     36  C   UNL     1     134.717 110.557  40.925  1.00  0.00     0.012 A 
ATOM     37  C   UNL     1     135.678 112.431  42.123  1.00  0.00     0.073 A 
ATOM     38  N   UNL     1     135.619 113.591  42.788  1.00  0.00    -0.252 NA
ATOM     39  C   UNL     1     134.460 115.496  43.704  1.00  0.00     0.056 C 
ATOM     40  C   UNL     1     132.075 115.870  43.113  1.00  0.00     0.005 C 
ATOM     41  C   UNL     1     135.965 109.940  40.845  1.00  0.00     0.001 A 
ATOM     42  C   UNL     1     136.913 111.804  42.028  1.00  0.00     0.029 A 
ATOM     43  C   UNL     1     133.095 115.911  44.238  1.00  0.00     0.007 C 
ATOM     44  C   UNL     1     137.071 110.571  41.392  1.00  0.00     0.002 A 
ENDBRANCH  29  31
ENDBRANCH  28  29
ENDBRANCH  27  28
ENDBRANCH  26  27
ENDBRANCH  25  26
ENDBRANCH   1  25
TORSDOF 10
