MODEL 1
REMARK VINA RESULT:    -9.338      0.000      0.000
REMARK INTER + INTRA:         -16.327
REMARK INTER:                 -15.071
REMARK INTRA:                  -1.257
REMARK UNBOUND:                -1.257
REMARK SMILES CC[C@@H](Cc1ccc(OC)c(CNC(=O)c2ccc(OC(F)(F)F)cc2)c1)C(=O)O
REMARK SMILES IDX 5 1 6 2 7 3 8 4 11 5 27 6 4 7 3 8 2 9 1 10 28 11 29 12 30 13
REMARK SMILES IDX 12 15 13 16 14 17 15 18 16 20 17 21 26 22 18 23 25 24 19 25
REMARK SMILES IDX 20 26 21 27 22 28 23 29 24 30 9 31 10 32
REMARK H PARENT 30 14 13 19
ROOT
ATOM      1  C   UNL     1      -4.121  -4.600 -20.498  1.00  0.00    -0.047 A 
ATOM      2  C   UNL     1      -3.512  -5.833 -20.253  1.00  0.00     0.007 A 
ATOM      3  C   UNL     1      -4.270  -7.011 -20.244  1.00  0.00     0.047 A 
ATOM      4  C   UNL     1      -5.643  -6.979 -20.515  1.00  0.00     0.123 A 
ATOM      5  C   UNL     1      -6.266  -5.745 -20.764  1.00  0.00     0.014 A 
ATOM      6  C   UNL     1      -5.503  -4.568 -20.713  1.00  0.00     0.013 A 
ENDROOT
BRANCH   1   7
ATOM      7  C   UNL     1      -3.308  -3.331 -20.617  1.00  0.00     0.050 C 
BRANCH   7   8
ATOM      8  C   UNL     1      -4.131  -2.140 -21.152  1.00  0.00     0.103 C 
BRANCH   8   9
ATOM      9  C   UNL     1      -3.442  -1.508 -22.372  1.00  0.00     0.012 C 
ATOM     10  C   UNL     1      -2.243  -0.651 -21.990  1.00  0.00     0.005 C 
ENDBRANCH   8   9
BRANCH   8  11
ATOM     11  C   UNL     1      -4.282  -1.114 -20.047  1.00  0.00     0.306 C 
ATOM     12  O   UNL     1      -4.905  -0.067 -20.127  1.00  0.00    -0.252 OA
BRANCH  11  13
ATOM     13  O   UNL     1      -3.562  -1.435 -18.954  1.00  0.00    -0.481 OA
ATOM     14  H   UNL     1      -2.780  -1.946 -19.291  1.00  0.00     0.296 HD
ENDBRANCH  11  13
ENDBRANCH   8  11
ENDBRANCH   7   8
ENDBRANCH   1   7
BRANCH   5  15
ATOM     15  C   UNL     1      -7.711  -5.645 -21.183  1.00  0.00     0.156 C 
BRANCH  15  16
ATOM     16  N   UNL     1      -8.585  -6.246 -20.196  1.00  0.00    -0.348 N 
ATOM     17  C   UNL     1      -9.336  -5.508 -19.311  1.00  0.00     0.251 C 
ATOM     18  O   UNL     1      -9.335  -4.284 -19.228  1.00  0.00    -0.269 OA
ATOM     19  H   UNL     1      -8.764  -7.234 -20.304  1.00  0.00     0.164 HD
BRANCH  17  20
ATOM     20  C   UNL     1     -10.249  -6.304 -18.453  1.00  0.00     0.040 A 
ATOM     21  C   UNL     1     -10.737  -5.789 -17.249  1.00  0.00     0.017 A 
ATOM     22  C   UNL     1     -10.628  -7.582 -18.871  1.00  0.00     0.017 A 
ATOM     23  C   UNL     1     -11.590  -6.566 -16.462  1.00  0.00     0.047 A 
ATOM     24  C   UNL     1     -11.472  -8.361 -18.073  1.00  0.00     0.047 A 
ATOM     25  C   UNL     1     -11.955  -7.859 -16.862  1.00  0.00     0.129 A 
BRANCH  25  26
ATOM     26  O   UNL     1     -12.787  -8.502 -15.991  1.00  0.00    -0.406 OA
BRANCH  26  27
ATOM     27  C   UNL     1     -14.184  -8.359 -16.184  1.00  0.00     0.573 C 
ATOM     28  F   UNL     1     -14.441  -8.389 -17.511  1.00  0.00    -0.132 F 
ATOM     29  F   UNL     1     -14.863  -9.369 -15.601  1.00  0.00    -0.132 F 
ATOM     30  F   UNL     1     -14.623  -7.178 -15.698  1.00  0.00    -0.132 F 
ENDBRANCH  26  27
ENDBRANCH  25  26
ENDBRANCH  17  20
ENDBRANCH  15  16
ENDBRANCH   5  15
BRANCH   4  31
ATOM     31  O   UNL     1      -6.456  -8.083 -20.574  1.00  0.00    -0.496 OA
ATOM     32  C   UNL     1      -6.557  -8.747 -21.826  1.00  0.00     0.278 C 
ENDBRANCH   4  31
TORSDOF 11
ENDMDL
MODEL 2
REMARK VINA RESULT:    -8.537      6.281      9.192
REMARK INTER + INTRA:         -15.034
REMARK INTER:                 -13.565
REMARK INTRA:                  -1.469
REMARK UNBOUND:                -1.257
REMARK SMILES CC[C@@H](Cc1ccc(OC)c(CNC(=O)c2ccc(OC(F)(F)F)cc2)c1)C(=O)O
REMARK SMILES IDX 5 1 6 2 7 3 8 4 11 5 27 6 4 7 3 8 2 9 1 10 28 11 29 12 30 13
REMARK SMILES IDX 12 15 13 16 14 17 15 18 16 20 17 21 26 22 18 23 25 24 19 25
REMARK SMILES IDX 20 26 21 27 22 28 23 29 24 30 9 31 10 32
REMARK H PARENT 30 14 13 19
ROOT
ATOM      1  C   UNL     1     -11.621  -7.382 -26.351  1.00  0.00    -0.047 A 
ATOM      2  C   UNL     1     -10.696  -7.545 -27.384  1.00  0.00     0.007 A 
ATOM      3  C   UNL     1      -9.436  -8.101 -27.128  1.00  0.00     0.047 A 
ATOM      4  C   UNL     1      -9.094  -8.535 -25.842  1.00  0.00     0.123 A 
ATOM      5  C   UNL     1     -10.017  -8.376 -24.795  1.00  0.00     0.014 A 
ATOM      6  C   UNL     1     -11.254  -7.766 -25.057  1.00  0.00     0.013 A 
ENDROOT
BRANCH   1   7
ATOM      7  C   UNL     1     -13.023  -6.883 -26.622  1.00  0.00     0.050 C 
BRANCH   7   8
ATOM      8  C   UNL     1     -13.403  -5.663 -25.756  1.00  0.00     0.103 C 
BRANCH   8   9
ATOM      9  C   UNL     1     -14.891  -5.711 -25.374  1.00  0.00     0.012 C 
ATOM     10  C   UNL     1     -15.219  -6.864 -24.436  1.00  0.00     0.005 C 
ENDBRANCH   8   9
BRANCH   8  11
ATOM     11  C   UNL     1     -13.104  -4.398 -26.534  1.00  0.00     0.306 C 
ATOM     12  O   UNL     1     -13.934  -3.635 -27.001  1.00  0.00    -0.252 OA
BRANCH  11  13
ATOM     13  O   UNL     1     -11.783  -4.234 -26.748  1.00  0.00    -0.481 OA
ATOM     14  H   UNL     1     -11.595  -4.687 -27.611  1.00  0.00     0.296 HD
ENDBRANCH  11  13
ENDBRANCH   8  11
ENDBRANCH   7   8
ENDBRANCH   1   7
BRANCH   5  15
ATOM     15  C   UNL     1      -9.769  -8.930 -23.414  1.00  0.00     0.156 C 
BRANCH  15  16
ATOM     16  N   UNL     1      -8.990  -8.008 -22.613  1.00  0.00    -0.348 N 
ATOM     17  C   UNL     1      -7.800  -8.352 -22.018  1.00  0.00     0.251 C 
ATOM     18  O   UNL     1      -7.279  -9.463 -22.062  1.00  0.00    -0.269 OA
ATOM     19  H   UNL     1      -9.266  -7.037 -22.659  1.00  0.00     0.164 HD
BRANCH  17  20
ATOM     20  C   UNL     1      -7.101  -7.239 -21.330  1.00  0.00     0.040 A 
ATOM     21  C   UNL     1      -7.732  -6.009 -21.121  1.00  0.00     0.017 A 
ATOM     22  C   UNL     1      -5.793  -7.437 -20.879  1.00  0.00     0.017 A 
ATOM     23  C   UNL     1      -7.043  -4.981 -20.475  1.00  0.00     0.047 A 
ATOM     24  C   UNL     1      -5.103  -6.399 -20.244  1.00  0.00     0.047 A 
ATOM     25  C   UNL     1      -5.722  -5.164 -20.043  1.00  0.00     0.129 A 
BRANCH  25  26
ATOM     26  O   UNL     1      -5.175  -4.071 -19.435  1.00  0.00    -0.406 OA
BRANCH  26  27
ATOM     27  C   UNL     1      -4.248  -3.297 -20.178  1.00  0.00     0.573 C 
ATOM     28  F   UNL     1      -4.003  -2.152 -19.502  1.00  0.00    -0.132 F 
ATOM     29  F   UNL     1      -3.078  -3.952 -20.330  1.00  0.00    -0.132 F 
ATOM     30  F   UNL     1      -4.746  -2.972 -21.389  1.00  0.00    -0.132 F 
ENDBRANCH  26  27
ENDBRANCH  25  26
ENDBRANCH  17  20
ENDBRANCH  15  16
ENDBRANCH   5  15
BRANCH   4  31
ATOM     31  O   UNL     1      -7.905  -9.131 -25.507  1.00  0.00    -0.496 OA
ATOM     32  C   UNL     1      -7.065  -9.549 -26.575  1.00  0.00     0.278 C 
ENDBRANCH   4  31
TORSDOF 11
ENDMDL
MODEL 3
REMARK VINA RESULT:    -8.377      6.245      9.269
REMARK INTER + INTRA:         -14.776
REMARK INTER:                 -13.161
REMARK INTRA:                  -1.615
REMARK UNBOUND:                -1.257
REMARK SMILES CC[C@@H](Cc1ccc(OC)c(CNC(=O)c2ccc(OC(F)(F)F)cc2)c1)C(=O)O
REMARK SMILES IDX 5 1 6 2 7 3 8 4 11 5 27 6 4 7 3 8 2 9 1 10 28 11 29 12 30 13
REMARK SMILES IDX 12 15 13 16 14 17 15 18 16 20 17 21 26 22 18 23 25 24 19 25
REMARK SMILES IDX 20 26 21 27 22 28 23 29 24 30 9 31 10 32
REMARK H PARENT 30 14 13 19
ROOT
ATOM      1  C   UNL     1     -11.758  -7.246 -26.377  1.00  0.00    -0.047 A 
ATOM      2  C   UNL     1     -10.840  -7.424 -27.413  1.00  0.00     0.007 A 
ATOM      3  C   UNL     1      -9.598  -8.024 -27.167  1.00  0.00     0.047 A 
ATOM      4  C   UNL     1      -9.269  -8.487 -25.888  1.00  0.00     0.123 A 
ATOM      5  C   UNL     1     -10.186  -8.314 -24.838  1.00  0.00     0.014 A 
ATOM      6  C   UNL     1     -11.403  -7.660 -25.089  1.00  0.00     0.013 A 
ENDROOT
BRANCH   1   7
ATOM      7  C   UNL     1     -13.144  -6.699 -26.639  1.00  0.00     0.050 C 
BRANCH   7   8
ATOM      8  C   UNL     1     -13.706  -5.894 -25.448  1.00  0.00     0.103 C 
BRANCH   8   9
ATOM      9  C   UNL     1     -15.172  -6.269 -25.184  1.00  0.00     0.012 C 
ATOM     10  C   UNL     1     -15.336  -7.191 -23.984  1.00  0.00     0.005 C 
ENDBRANCH   8   9
BRANCH   8  11
ATOM     11  C   UNL     1     -13.591  -4.415 -25.759  1.00  0.00     0.306 C 
ATOM     12  O   UNL     1     -12.782  -3.907 -26.518  1.00  0.00    -0.252 OA
BRANCH  11  13
ATOM     13  O   UNL     1     -14.441  -3.675 -25.021  1.00  0.00    -0.481 OA
ATOM     14  H   UNL     1     -14.111  -3.742 -24.087  1.00  0.00     0.296 HD
ENDBRANCH  11  13
ENDBRANCH   8  11
ENDBRANCH   7   8
ENDBRANCH   1   7
BRANCH   5  15
ATOM     15  C   UNL     1      -9.955  -8.895 -23.465  1.00  0.00     0.156 C 
BRANCH  15  16
ATOM     16  N   UNL     1      -9.115  -8.027 -22.665  1.00  0.00    -0.348 N 
ATOM     17  C   UNL     1      -7.926  -8.439 -22.110  1.00  0.00     0.251 C 
ATOM     18  O   UNL     1      -7.457  -9.570 -22.194  1.00  0.00    -0.269 OA
ATOM     19  H   UNL     1      -9.348  -7.045 -22.680  1.00  0.00     0.164 HD
BRANCH  17  20
ATOM     20  C   UNL     1      -7.160  -7.374 -21.416  1.00  0.00     0.040 A 
ATOM     21  C   UNL     1      -5.872  -7.614 -20.928  1.00  0.00     0.017 A 
ATOM     22  C   UNL     1      -7.740  -6.113 -21.263  1.00  0.00     0.017 A 
ATOM     23  C   UNL     1      -5.180  -6.591 -20.275  1.00  0.00     0.047 A 
ATOM     24  C   UNL     1      -7.048  -5.095 -20.597  1.00  0.00     0.047 A 
ATOM     25  C   UNL     1      -5.766  -5.331 -20.096  1.00  0.00     0.129 A 
BRANCH  25  26
ATOM     26  O   UNL     1      -4.976  -4.435 -19.435  1.00  0.00    -0.406 OA
BRANCH  26  27
ATOM     27  C   UNL     1      -4.094  -3.637 -20.206  1.00  0.00     0.573 C 
ATOM     28  F   UNL     1      -4.614  -3.493 -21.445  1.00  0.00    -0.132 F 
ATOM     29  F   UNL     1      -3.948  -2.409 -19.666  1.00  0.00    -0.132 F 
ATOM     30  F   UNL     1      -2.884  -4.226 -20.325  1.00  0.00    -0.132 F 
ENDBRANCH  26  27
ENDBRANCH  25  26
ENDBRANCH  17  20
ENDBRANCH  15  16
ENDBRANCH   5  15
BRANCH   4  31
ATOM     31  O   UNL     1      -8.100  -9.126 -25.562  1.00  0.00    -0.496 OA
ATOM     32  C   UNL     1      -7.257  -9.521 -26.636  1.00  0.00     0.278 C 
ENDBRANCH   4  31
TORSDOF 11
ENDMDL
MODEL 4
REMARK VINA RESULT:    -8.241      5.226      8.296
REMARK INTER + INTRA:         -14.556
REMARK INTER:                 -12.662
REMARK INTRA:                  -1.893
REMARK UNBOUND:                -1.257
REMARK SMILES CC[C@@H](Cc1ccc(OC)c(CNC(=O)c2ccc(OC(F)(F)F)cc2)c1)C(=O)O
REMARK SMILES IDX 5 1 6 2 7 3 8 4 11 5 27 6 4 7 3 8 2 9 1 10 28 11 29 12 30 13
REMARK SMILES IDX 12 15 13 16 14 17 15 18 16 20 17 21 26 22 18 23 25 24 19 25
REMARK SMILES IDX 20 26 21 27 22 28 23 29 24 30 9 31 10 32
REMARK H PARENT 30 14 13 19
ROOT
ATOM      1  C   UNL     1      -9.341  -6.863 -18.421  1.00  0.00    -0.047 A 
ATOM      2  C   UNL     1     -10.014  -6.679 -17.212  1.00  0.00     0.007 A 
ATOM      3  C   UNL     1     -11.281  -7.240 -17.011  1.00  0.00     0.047 A 
ATOM      4  C   UNL     1     -11.881  -8.024 -18.003  1.00  0.00     0.123 A 
ATOM      5  C   UNL     1     -11.213  -8.217 -19.224  1.00  0.00     0.014 A 
ATOM      6  C   UNL     1      -9.969  -7.601 -19.431  1.00  0.00     0.013 A 
ENDROOT
BRANCH   1   7
ATOM      7  C   UNL     1      -7.930  -6.357 -18.622  1.00  0.00     0.050 C 
BRANCH   7   8
ATOM      8  C   UNL     1      -7.484  -6.394 -20.099  1.00  0.00     0.103 C 
BRANCH   8   9
ATOM      9  C   UNL     1      -6.215  -7.246 -20.262  1.00  0.00     0.012 C 
ATOM     10  C   UNL     1      -6.353  -8.303 -21.349  1.00  0.00     0.005 C 
ENDBRANCH   8   9
BRANCH   8  11
ATOM     11  C   UNL     1      -7.226  -4.977 -20.569  1.00  0.00     0.306 C 
ATOM     12  O   UNL     1      -6.128  -4.467 -20.725  1.00  0.00    -0.252 OA
BRANCH  11  13
ATOM     13  O   UNL     1      -8.367  -4.276 -20.717  1.00  0.00    -0.481 OA
ATOM     14  H   UNL     1      -8.127  -3.332 -20.519  1.00  0.00     0.296 HD
ENDBRANCH  11  13
ENDBRANCH   8  11
ENDBRANCH   7   8
ENDBRANCH   1   7
BRANCH   5  15
ATOM     15  C   UNL     1     -11.738  -9.146 -20.289  1.00  0.00     0.156 C 
BRANCH  15  16
ATOM     16  N   UNL     1     -10.982  -9.015 -21.517  1.00  0.00    -0.348 N 
ATOM     17  C   UNL     1     -11.569  -8.986 -22.760  1.00  0.00     0.251 C 
ATOM     18  O   UNL     1     -12.771  -9.098 -22.980  1.00  0.00    -0.269 OA
ATOM     19  H   UNL     1     -10.010  -8.759 -21.415  1.00  0.00     0.164 HD
BRANCH  17  20
ATOM     20  C   UNL     1     -10.635  -8.736 -23.886  1.00  0.00     0.040 A 
ATOM     21  C   UNL     1     -11.106  -8.328 -25.137  1.00  0.00     0.017 A 
ATOM     22  C   UNL     1      -9.264  -8.906 -23.678  1.00  0.00     0.017 A 
ATOM     23  C   UNL     1     -10.200  -8.107 -26.177  1.00  0.00     0.047 A 
ATOM     24  C   UNL     1      -8.361  -8.696 -24.727  1.00  0.00     0.047 A 
ATOM     25  C   UNL     1      -8.825  -8.300 -25.983  1.00  0.00     0.129 A 
BRANCH  25  26
ATOM     26  O   UNL     1      -8.063  -8.053 -27.089  1.00  0.00    -0.406 OA
BRANCH  26  27
ATOM     27  C   UNL     1      -7.497  -9.164 -27.762  1.00  0.00     0.573 C 
ATOM     28  F   UNL     1      -6.330  -9.484 -27.160  1.00  0.00    -0.132 F 
ATOM     29  F   UNL     1      -8.310 -10.239 -27.699  1.00  0.00    -0.132 F 
ATOM     30  F   UNL     1      -7.236  -8.869 -29.054  1.00  0.00    -0.132 F 
ENDBRANCH  26  27
ENDBRANCH  25  26
ENDBRANCH  17  20
ENDBRANCH  15  16
ENDBRANCH   5  15
BRANCH   4  31
ATOM     31  O   UNL     1     -13.096  -8.650 -17.880  1.00  0.00    -0.496 OA
ATOM     32  C   UNL     1     -13.745  -8.561 -16.619  1.00  0.00     0.278 C 
ENDBRANCH   4  31
TORSDOF 11
ENDMDL
MODEL 5
REMARK VINA RESULT:    -8.230      4.174      5.687
REMARK INTER + INTRA:         -14.538
REMARK INTER:                 -13.594
REMARK INTRA:                  -0.944
REMARK UNBOUND:                -1.257
REMARK SMILES CC[C@@H](Cc1ccc(OC)c(CNC(=O)c2ccc(OC(F)(F)F)cc2)c1)C(=O)O
REMARK SMILES IDX 5 1 6 2 7 3 8 4 11 5 27 6 4 7 3 8 2 9 1 10 28 11 29 12 30 13
REMARK SMILES IDX 12 15 13 16 14 17 15 18 16 20 17 21 26 22 18 23 25 24 19 25
REMARK SMILES IDX 20 26 21 27 22 28 23 29 24 30 9 31 10 32
REMARK H PARENT 30 14 13 19
ROOT
ATOM      1  C   UNL     1      -4.643  -4.504 -20.330  1.00  0.00    -0.047 A 
ATOM      2  C   UNL     1      -5.429  -4.070 -19.261  1.00  0.00     0.007 A 
ATOM      3  C   UNL     1      -6.525  -4.829 -18.831  1.00  0.00     0.047 A 
ATOM      4  C   UNL     1      -6.831  -6.052 -19.440  1.00  0.00     0.123 A 
ATOM      5  C   UNL     1      -6.046  -6.499 -20.516  1.00  0.00     0.014 A 
ATOM      6  C   UNL     1      -4.986  -5.699 -20.972  1.00  0.00     0.013 A 
ENDROOT
BRANCH   1   7
ATOM      7  C   UNL     1      -3.394  -3.756 -20.743  1.00  0.00     0.050 C 
BRANCH   7   8
ATOM      8  C   UNL     1      -3.684  -2.310 -21.196  1.00  0.00     0.103 C 
BRANCH   8   9
ATOM      9  C   UNL     1      -2.553  -1.786 -22.095  1.00  0.00     0.012 C 
ATOM     10  C   UNL     1      -2.548  -0.268 -22.208  1.00  0.00     0.005 C 
ENDBRANCH   8   9
BRANCH   8  11
ATOM     11  C   UNL     1      -3.827  -1.432 -19.970  1.00  0.00     0.306 C 
ATOM     12  O   UNL     1      -4.654  -0.547 -19.819  1.00  0.00    -0.252 OA
BRANCH  11  13
ATOM     13  O   UNL     1      -2.860  -1.668 -19.061  1.00  0.00    -0.481 OA
ATOM     14  H   UNL     1      -3.314  -1.647 -18.178  1.00  0.00     0.296 HD
ENDBRANCH  11  13
ENDBRANCH   8  11
ENDBRANCH   7   8
ENDBRANCH   1   7
BRANCH   5  15
ATOM     15  C   UNL     1      -6.237  -7.858 -21.140  1.00  0.00     0.156 C 
BRANCH  15  16
ATOM     16  N   UNL     1      -7.305  -7.839 -22.119  1.00  0.00    -0.348 N 
ATOM     17  C   UNL     1      -7.913  -8.979 -22.589  1.00  0.00     0.251 C 
ATOM     18  O   UNL     1      -7.613 -10.126 -22.270  1.00  0.00    -0.269 OA
ATOM     19  H   UNL     1      -7.715  -6.936 -22.312  1.00  0.00     0.164 HD
BRANCH  17  20
ATOM     20  C   UNL     1      -9.057  -8.745 -23.505  1.00  0.00     0.040 A 
ATOM     21  C   UNL     1     -10.375  -8.893 -23.065  1.00  0.00     0.017 A 
ATOM     22  C   UNL     1      -8.800  -8.363 -24.823  1.00  0.00     0.017 A 
ATOM     23  C   UNL     1     -11.428  -8.670 -23.955  1.00  0.00     0.047 A 
ATOM     24  C   UNL     1      -9.858  -8.153 -25.714  1.00  0.00     0.047 A 
ATOM     25  C   UNL     1     -11.178  -8.311 -25.286  1.00  0.00     0.129 A 
BRANCH  25  26
ATOM     26  O   UNL     1     -12.303  -8.134 -26.039  1.00  0.00    -0.406 OA
BRANCH  26  27
ATOM     27  C   UNL     1     -12.904  -6.850 -26.038  1.00  0.00     0.573 C 
ATOM     28  F   UNL     1     -13.823  -6.806 -25.047  1.00  0.00    -0.132 F 
ATOM     29  F   UNL     1     -11.991  -5.884 -25.807  1.00  0.00    -0.132 F 
ATOM     30  F   UNL     1     -13.534  -6.607 -27.207  1.00  0.00    -0.132 F 
ENDBRANCH  26  27
ENDBRANCH  25  26
ENDBRANCH  17  20
ENDBRANCH  15  16
ENDBRANCH   5  15
BRANCH   4  31
ATOM     31  O   UNL     1      -7.853  -6.883 -19.059  1.00  0.00    -0.496 OA
ATOM     32  C   UNL     1      -9.167  -6.342 -19.071  1.00  0.00     0.278 C 
ENDBRANCH   4  31
TORSDOF 11
ENDMDL
MODEL 6
REMARK VINA RESULT:    -8.081      6.896      9.692
REMARK INTER + INTRA:         -14.298
REMARK INTER:                 -12.781
REMARK INTRA:                  -1.517
REMARK UNBOUND:                -1.257
REMARK SMILES CC[C@@H](Cc1ccc(OC)c(CNC(=O)c2ccc(OC(F)(F)F)cc2)c1)C(=O)O
REMARK SMILES IDX 5 1 6 2 7 3 8 4 11 5 27 6 4 7 3 8 2 9 1 10 28 11 29 12 30 13
REMARK SMILES IDX 12 15 13 16 14 17 15 18 16 20 17 21 26 22 18 23 25 24 19 25
REMARK SMILES IDX 20 26 21 27 22 28 23 29 24 30 9 31 10 32
REMARK H PARENT 30 14 13 19
ROOT
ATOM      1  C   UNL     1      -8.902  -8.372 -28.001  1.00  0.00    -0.047 A 
ATOM      2  C   UNL     1      -7.678  -9.016 -28.184  1.00  0.00     0.007 A 
ATOM      3  C   UNL     1      -6.965  -9.514 -27.086  1.00  0.00     0.047 A 
ATOM      4  C   UNL     1      -7.483  -9.406 -25.790  1.00  0.00     0.123 A 
ATOM      5  C   UNL     1      -8.715  -8.760 -25.593  1.00  0.00     0.014 A 
ATOM      6  C   UNL     1      -9.389  -8.217 -26.698  1.00  0.00     0.013 A 
ENDROOT
BRANCH   1   7
ATOM      7  C   UNL     1      -9.738  -7.921 -29.178  1.00  0.00     0.050 C 
BRANCH   7   8
ATOM      8  C   UNL     1      -9.726  -8.932 -30.344  1.00  0.00     0.103 C 
BRANCH   8   9
ATOM      9  C   UNL     1      -9.208  -8.270 -31.631  1.00  0.00     0.012 C 
ATOM     10  C   UNL     1      -7.821  -8.757 -32.024  1.00  0.00     0.005 C 
ENDBRANCH   8   9
BRANCH   8  11
ATOM     11  C   UNL     1     -11.133  -9.455 -30.554  1.00  0.00     0.306 C 
ATOM     12  O   UNL     1     -12.065  -9.324 -29.778  1.00  0.00    -0.252 OA
BRANCH  11  13
ATOM     13  O   UNL     1     -11.240 -10.185 -31.682  1.00  0.00    -0.481 OA
ATOM     14  H   UNL     1     -10.361 -10.103 -32.136  1.00  0.00     0.296 HD
ENDBRANCH  11  13
ENDBRANCH   8  11
ENDBRANCH   7   8
ENDBRANCH   1   7
BRANCH   5  15
ATOM     15  C   UNL     1      -9.393  -8.715 -24.247  1.00  0.00     0.156 C 
BRANCH  15  16
ATOM     16  N   UNL     1      -8.692  -7.831 -23.338  1.00  0.00    -0.348 N 
ATOM     17  C   UNL     1      -8.121  -8.262 -22.164  1.00  0.00     0.251 C 
ATOM     18  O   UNL     1      -8.160  -9.411 -21.736  1.00  0.00    -0.269 OA
ATOM     19  H   UNL     1      -8.479  -6.909 -23.691  1.00  0.00     0.164 HD
BRANCH  17  20
ATOM     20  C   UNL     1      -7.356  -7.227 -21.425  1.00  0.00     0.040 A 
ATOM     21  C   UNL     1      -7.911  -5.973 -21.158  1.00  0.00     0.017 A 
ATOM     22  C   UNL     1      -6.064  -7.526 -20.985  1.00  0.00     0.017 A 
ATOM     23  C   UNL     1      -7.161  -5.020 -20.465  1.00  0.00     0.047 A 
ATOM     24  C   UNL     1      -5.312  -6.564 -20.302  1.00  0.00     0.047 A 
ATOM     25  C   UNL     1      -5.856  -5.304 -20.042  1.00  0.00     0.129 A 
BRANCH  25  26
ATOM     26  O   UNL     1      -5.244  -4.276 -19.384  1.00  0.00    -0.406 OA
BRANCH  26  27
ATOM     27  C   UNL     1      -4.335  -3.471 -20.116  1.00  0.00     0.573 C 
ATOM     28  F   UNL     1      -3.140  -4.100 -20.160  1.00  0.00    -0.132 F 
ATOM     29  F   UNL     1      -4.760  -3.286 -21.383  1.00  0.00    -0.132 F 
ATOM     30  F   UNL     1      -4.158  -2.273 -19.518  1.00  0.00    -0.132 F 
ENDBRANCH  26  27
ENDBRANCH  25  26
ENDBRANCH  17  20
ENDBRANCH  15  16
ENDBRANCH   5  15
BRANCH   4  31
ATOM     31  O   UNL     1      -6.880  -9.903 -24.661  1.00  0.00    -0.496 OA
ATOM     32  C   UNL     1      -5.679 -10.640 -24.840  1.00  0.00     0.278 C 
ENDBRANCH   4  31
TORSDOF 11
ENDMDL
MODEL 7
REMARK VINA RESULT:    -8.074      6.033      9.347
REMARK INTER + INTRA:         -14.288
REMARK INTER:                 -12.955
REMARK INTRA:                  -1.333
REMARK UNBOUND:                -1.257
REMARK SMILES CC[C@@H](Cc1ccc(OC)c(CNC(=O)c2ccc(OC(F)(F)F)cc2)c1)C(=O)O
REMARK SMILES IDX 5 1 6 2 7 3 8 4 11 5 27 6 4 7 3 8 2 9 1 10 28 11 29 12 30 13
REMARK SMILES IDX 12 15 13 16 14 17 15 18 16 20 17 21 26 22 18 23 25 24 19 25
REMARK SMILES IDX 20 26 21 27 22 28 23 29 24 30 9 31 10 32
REMARK H PARENT 30 14 13 19
ROOT
ATOM      1  C   UNL     1      -9.374  -8.420 -25.076  1.00  0.00    -0.047 A 
ATOM      2  C   UNL     1     -10.693  -8.400 -24.620  1.00  0.00     0.007 A 
ATOM      3  C   UNL     1     -10.999  -8.796 -23.311  1.00  0.00     0.047 A 
ATOM      4  C   UNL     1      -9.986  -9.184 -22.426  1.00  0.00     0.123 A 
ATOM      5  C   UNL     1      -8.655  -9.207 -22.874  1.00  0.00     0.014 A 
ATOM      6  C   UNL     1      -8.372  -8.862 -24.205  1.00  0.00     0.013 A 
ENDROOT
BRANCH   1   7
ATOM      7  C   UNL     1      -9.007  -7.898 -26.447  1.00  0.00     0.050 C 
BRANCH   7   8
ATOM      8  C   UNL     1      -9.429  -8.853 -27.584  1.00  0.00     0.103 C 
BRANCH   8   9
ATOM      9  C   UNL     1      -8.238  -9.156 -28.508  1.00  0.00     0.012 C 
ATOM     10  C   UNL     1      -6.899  -9.058 -27.790  1.00  0.00     0.005 C 
ENDBRANCH   8   9
BRANCH   8  11
ATOM     11  C   UNL     1     -10.552  -8.210 -28.373  1.00  0.00     0.306 C 
ATOM     12  O   UNL     1     -10.423  -7.327 -29.205  1.00  0.00    -0.252 OA
BRANCH  11  13
ATOM     13  O   UNL     1     -11.763  -8.659 -27.989  1.00  0.00    -0.481 OA
ATOM     14  H   UNL     1     -12.416  -8.002 -28.347  1.00  0.00     0.296 HD
ENDBRANCH  11  13
ENDBRANCH   8  11
ENDBRANCH   7   8
ENDBRANCH   1   7
BRANCH   5  15
ATOM     15  C   UNL     1      -7.500  -9.494 -21.947  1.00  0.00     0.156 C 
BRANCH  15  16
ATOM     16  N   UNL     1      -6.680  -8.316 -21.753  1.00  0.00    -0.348 N 
ATOM     17  C   UNL     1      -7.003  -7.316 -20.867  1.00  0.00     0.251 C 
ATOM     18  O   UNL     1      -8.015  -7.282 -20.172  1.00  0.00    -0.269 OA
ATOM     19  H   UNL     1      -5.759  -8.342 -22.165  1.00  0.00     0.164 HD
BRANCH  17  20
ATOM     20  C   UNL     1      -5.983  -6.246 -20.733  1.00  0.00     0.040 A 
ATOM     21  C   UNL     1      -6.355  -4.901 -20.657  1.00  0.00     0.017 A 
ATOM     22  C   UNL     1      -4.634  -6.602 -20.673  1.00  0.00     0.017 A 
ATOM     23  C   UNL     1      -5.369  -3.919 -20.537  1.00  0.00     0.047 A 
ATOM     24  C   UNL     1      -3.649  -5.614 -20.565  1.00  0.00     0.047 A 
ATOM     25  C   UNL     1      -4.011  -4.266 -20.501  1.00  0.00     0.129 A 
BRANCH  25  26
ATOM     26  O   UNL     1      -3.163  -3.203 -20.389  1.00  0.00    -0.406 OA
BRANCH  26  27
ATOM     27  C   UNL     1      -3.156  -2.250 -21.439  1.00  0.00     0.573 C 
ATOM     28  F   UNL     1      -3.864  -1.168 -21.044  1.00  0.00    -0.132 F 
ATOM     29  F   UNL     1      -1.899  -1.847 -21.723  1.00  0.00    -0.132 F 
ATOM     30  F   UNL     1      -3.735  -2.748 -22.552  1.00  0.00    -0.132 F 
ENDBRANCH  26  27
ENDBRANCH  25  26
ENDBRANCH  17  20
ENDBRANCH  15  16
ENDBRANCH   5  15
BRANCH   4  31
ATOM     31  O   UNL     1     -10.184  -9.542 -21.117  1.00  0.00    -0.496 OA
ATOM     32  C   UNL     1     -11.373  -9.079 -20.491  1.00  0.00     0.278 C 
ENDBRANCH   4  31
TORSDOF 11
ENDMDL
MODEL 8
REMARK VINA RESULT:    -7.869      6.272      8.812
REMARK INTER + INTRA:         -13.956
REMARK INTER:                 -12.407
REMARK INTRA:                  -1.549
REMARK UNBOUND:                -1.257
REMARK SMILES CC[C@@H](Cc1ccc(OC)c(CNC(=O)c2ccc(OC(F)(F)F)cc2)c1)C(=O)O
REMARK SMILES IDX 5 1 6 2 7 3 8 4 11 5 27 6 4 7 3 8 2 9 1 10 28 11 29 12 30 13
REMARK SMILES IDX 12 15 13 16 14 17 15 18 16 20 17 21 26 22 18 23 25 24 19 25
REMARK SMILES IDX 20 26 21 27 22 28 23 29 24 30 9 31 10 32
REMARK H PARENT 30 14 13 19
ROOT
ATOM      1  C   UNL     1      -6.857  -6.554 -20.038  1.00  0.00    -0.047 A 
ATOM      2  C   UNL     1      -8.176  -6.376 -19.618  1.00  0.00     0.007 A 
ATOM      3  C   UNL     1      -9.210  -7.134 -20.182  1.00  0.00     0.047 A 
ATOM      4  C   UNL     1      -8.937  -8.106 -21.152  1.00  0.00     0.123 A 
ATOM      5  C   UNL     1      -7.613  -8.294 -21.582  1.00  0.00     0.014 A 
ATOM      6  C   UNL     1      -6.596  -7.487 -21.048  1.00  0.00     0.013 A 
ENDROOT
BRANCH   1   7
ATOM      7  C   UNL     1      -5.713  -5.824 -19.370  1.00  0.00     0.050 C 
BRANCH   7   8
ATOM      8  C   UNL     1      -4.766  -5.141 -20.379  1.00  0.00     0.103 C 
BRANCH   8   9
ATOM      9  C   UNL     1      -3.319  -5.614 -20.172  1.00  0.00     0.012 C 
ATOM     10  C   UNL     1      -3.238  -6.996 -19.540  1.00  0.00     0.005 C 
ENDBRANCH   8   9
BRANCH   8  11
ATOM     11  C   UNL     1      -4.857  -3.639 -20.197  1.00  0.00     0.306 C 
ATOM     12  O   UNL     1      -4.597  -3.029 -19.172  1.00  0.00    -0.252 OA
BRANCH  11  13
ATOM     13  O   UNL     1      -5.357  -3.024 -21.286  1.00  0.00    -0.481 OA
ATOM     14  H   UNL     1      -5.960  -3.688 -21.713  1.00  0.00     0.296 HD
ENDBRANCH  11  13
ENDBRANCH   8  11
ENDBRANCH   7   8
ENDBRANCH   1   7
BRANCH   5  15
ATOM     15  C   UNL     1      -7.226  -9.402 -22.529  1.00  0.00     0.156 C 
BRANCH  15  16
ATOM     16  N   UNL     1      -7.552  -9.058 -23.898  1.00  0.00    -0.348 N 
ATOM     17  C   UNL     1      -7.093  -9.771 -24.980  1.00  0.00     0.251 C 
ATOM     18  O   UNL     1      -6.343 -10.741 -24.924  1.00  0.00    -0.269 OA
ATOM     19  H   UNL     1      -8.287  -8.376 -24.022  1.00  0.00     0.164 HD
BRANCH  17  20
ATOM     20  C   UNL     1      -7.626  -9.327 -26.292  1.00  0.00     0.040 A 
ATOM     21  C   UNL     1      -8.967  -8.965 -26.441  1.00  0.00     0.017 A 
ATOM     22  C   UNL     1      -6.760  -9.265 -27.387  1.00  0.00     0.017 A 
ATOM     23  C   UNL     1      -9.437  -8.558 -27.691  1.00  0.00     0.047 A 
ATOM     24  C   UNL     1      -7.239  -8.868 -28.640  1.00  0.00     0.047 A 
ATOM     25  C   UNL     1      -8.581  -8.516 -28.800  1.00  0.00     0.129 A 
BRANCH  25  26
ATOM     26  O   UNL     1      -9.181  -8.106 -29.956  1.00  0.00    -0.406 OA
BRANCH  26  27
ATOM     27  C   UNL     1      -9.407  -9.077 -30.964  1.00  0.00     0.573 C 
ATOM     28  F   UNL     1     -10.536  -8.751 -31.631  1.00  0.00    -0.132 F 
ATOM     29  F   UNL     1      -8.389  -9.105 -31.850  1.00  0.00    -0.132 F 
ATOM     30  F   UNL     1      -9.575 -10.304 -30.428  1.00  0.00    -0.132 F 
ENDBRANCH  26  27
ENDBRANCH  25  26
ENDBRANCH  17  20
ENDBRANCH  15  16
ENDBRANCH   5  15
BRANCH   4  31
ATOM     31  O   UNL     1      -9.876  -8.925 -21.726  1.00  0.00    -0.496 OA
ATOM     32  C   UNL     1     -11.077  -9.144 -20.999  1.00  0.00     0.278 C 
ENDBRANCH   4  31
TORSDOF 11
ENDMDL
MODEL 9
REMARK VINA RESULT:    -7.860      7.200      9.560
REMARK INTER + INTRA:         -13.941
REMARK INTER:                 -12.795
REMARK INTRA:                  -1.147
REMARK UNBOUND:                -1.257
REMARK SMILES CC[C@@H](Cc1ccc(OC)c(CNC(=O)c2ccc(OC(F)(F)F)cc2)c1)C(=O)O
REMARK SMILES IDX 5 1 6 2 7 3 8 4 11 5 27 6 4 7 3 8 2 9 1 10 28 11 29 12 30 13
REMARK SMILES IDX 12 15 13 16 14 17 15 18 16 20 17 21 26 22 18 23 25 24 19 25
REMARK SMILES IDX 20 26 21 27 22 28 23 29 24 30 9 31 10 32
REMARK H PARENT 30 14 13 19
ROOT
ATOM      1  C   UNL     1      -6.960  -6.859 -21.076  1.00  0.00    -0.047 A 
ATOM      2  C   UNL     1      -6.170  -8.007 -20.995  1.00  0.00     0.007 A 
ATOM      3  C   UNL     1      -6.458  -9.125 -21.788  1.00  0.00     0.047 A 
ATOM      4  C   UNL     1      -7.519  -9.100 -22.702  1.00  0.00     0.123 A 
ATOM      5  C   UNL     1      -8.320  -7.950 -22.792  1.00  0.00     0.014 A 
ATOM      6  C   UNL     1      -8.053  -6.859 -21.950  1.00  0.00     0.013 A 
ENDROOT
BRANCH   1   7
ATOM      7  C   UNL     1      -6.607  -5.605 -20.309  1.00  0.00     0.050 C 
BRANCH   7   8
ATOM      8  C   UNL     1      -5.118  -5.219 -20.444  1.00  0.00     0.103 C 
BRANCH   8   9
ATOM      9  C   UNL     1      -4.262  -5.997 -19.433  1.00  0.00     0.012 C 
ATOM     10  C   UNL     1      -2.828  -6.193 -19.906  1.00  0.00     0.005 C 
ENDBRANCH   8   9
BRANCH   8  11
ATOM     11  C   UNL     1      -4.976  -3.728 -20.212  1.00  0.00     0.306 C 
ATOM     12  O   UNL     1      -4.644  -3.198 -19.164  1.00  0.00    -0.252 OA
BRANCH  11  13
ATOM     13  O   UNL     1      -5.352  -3.009 -21.288  1.00  0.00    -0.481 OA
ATOM     14  H   UNL     1      -6.206  -3.412 -21.593  1.00  0.00     0.296 HD
ENDBRANCH  11  13
ENDBRANCH   8  11
ENDBRANCH   7   8
ENDBRANCH   1   7
BRANCH   5  15
ATOM     15  C   UNL     1      -9.400  -7.803 -23.835  1.00  0.00     0.156 C 
BRANCH  15  16
ATOM     16  N   UNL     1      -8.917  -8.186 -25.146  1.00  0.00    -0.348 N 
ATOM     17  C   UNL     1      -9.747  -8.377 -26.225  1.00  0.00     0.251 C 
ATOM     18  O   UNL     1     -10.971  -8.280 -26.204  1.00  0.00    -0.269 OA
ATOM     19  H   UNL     1      -7.918  -8.130 -25.285  1.00  0.00     0.164 HD
BRANCH  17  20
ATOM     20  C   UNL     1      -9.053  -8.660 -27.505  1.00  0.00     0.040 A 
ATOM     21  C   UNL     1      -7.662  -8.568 -27.607  1.00  0.00     0.017 A 
ATOM     22  C   UNL     1      -9.811  -9.034 -28.617  1.00  0.00     0.017 A 
ATOM     23  C   UNL     1      -7.041  -8.836 -28.829  1.00  0.00     0.047 A 
ATOM     24  C   UNL     1      -9.185  -9.289 -29.842  1.00  0.00     0.047 A 
ATOM     25  C   UNL     1      -7.797  -9.187 -29.956  1.00  0.00     0.129 A 
BRANCH  25  26
ATOM     26  O   UNL     1      -7.056  -9.412 -31.080  1.00  0.00    -0.406 OA
BRANCH  26  27
ATOM     27  C   UNL     1      -7.268  -8.561 -32.193  1.00  0.00     0.573 C 
ATOM     28  F   UNL     1      -6.124  -8.494 -32.909  1.00  0.00    -0.132 F 
ATOM     29  F   UNL     1      -8.238  -9.043 -32.998  1.00  0.00    -0.132 F 
ATOM     30  F   UNL     1      -7.589  -7.311 -31.796  1.00  0.00    -0.132 F 
ENDBRANCH  26  27
ENDBRANCH  25  26
ENDBRANCH  17  20
ENDBRANCH  15  16
ENDBRANCH   5  15
BRANCH   4  31
ATOM     31  O   UNL     1      -7.847 -10.127 -23.550  1.00  0.00    -0.496 OA
ATOM     32  C   UNL     1      -6.793 -10.700 -24.312  1.00  0.00     0.278 C 
ENDBRANCH   4  31
TORSDOF 11
ENDMDL
