MODEL 2
REMARK VINA RESULT:   -11.098      2.168      2.728
REMARK INTER + INTRA:         -18.733
REMARK INTER:                 -17.120
REMARK INTRA:                  -1.613
REMARK UNBOUND:                -1.472
REMARK SMILES O=C(O)Cc1cc(Cl)cc(OCCC2(N3CCCC3)CCN(c3nc4ccc(C(F)(F)F)nc4s3)CC2)c1
REMARK SMILES IDX 11 1 10 2 5 3 6 4 38 5 7 6 9 7 8 8 4 9 2 10 1 11 3 12 12 14
REMARK SMILES IDX 13 15 14 16 20 17 37 18 21 19 36 20 22 21 15 22 16 23 19 24
REMARK SMILES IDX 17 25 18 26 23 27 24 28 35 29 25 30 34 31 26 32 33 33 27 34
REMARK SMILES IDX 28 35 29 36 30 37 31 38 32 39
REMARK H PARENT 3 13
ROOT
ATOM      1  O   UNL     1      40.248   2.825 129.562  1.00  0.00    -0.493 OA
ENDROOT
BRANCH   1   2
ATOM      2  C   UNL     1      40.656   3.355 130.755  1.00  0.00     0.121 A 
ATOM      3  C   UNL     1      42.426   3.318 132.435  1.00  0.00    -0.032 A 
ATOM      4  C   UNL     1      41.722   4.275 133.175  1.00  0.00     0.025 A 
ATOM      5  C   UNL     1      41.881   2.867 131.223  1.00  0.00     0.050 A 
ATOM      6  C   UNL     1      40.491   4.746 132.716  1.00  0.00     0.045 A 
ATOM      7  C   UNL     1      39.951   4.286 131.515  1.00  0.00     0.067 A 
ATOM      8  Cl  UNL     1      39.626   5.905 133.650  1.00  0.00    -0.084 Cl
BRANCH   3   9
ATOM      9  C   UNL     1      43.759   2.798 132.913  1.00  0.00     0.158 C 
BRANCH   9  10
ATOM     10  C   UNL     1      43.668   1.530 133.725  1.00  0.00     0.307 C 
ATOM     11  O   UNL     1      43.369   0.408 133.350  1.00  0.00    -0.252 OA
BRANCH  10  12
ATOM     12  O   UNL     1      43.997   1.738 135.020  1.00  0.00    -0.481 OA
ATOM     13  H   UNL     1      44.968   1.869 134.997  1.00  0.00     0.296 HD
ENDBRANCH  10  12
ENDBRANCH   9  10
ENDBRANCH   3   9
ENDBRANCH   1   2
BRANCH   1  14
ATOM     14  C   UNL     1      39.293   1.766 129.623  1.00  0.00     0.231 C 
BRANCH  14  15
ATOM     15  C   UNL     1      37.865   2.338 129.587  1.00  0.00     0.064 C 
BRANCH  15  16
ATOM     16  C   UNL     1      36.757   1.462 130.284  1.00  0.00     0.028 C 
ATOM     17  C   UNL     1      35.864   2.429 131.129  1.00  0.00     0.044 C 
ATOM     18  C   UNL     1      37.458   0.442 131.233  1.00  0.00     0.044 C 
ATOM     19  C   UNL     1      35.483   1.845 132.486  1.00  0.00     0.121 C 
ATOM     20  C   UNL     1      37.859   1.058 132.575  1.00  0.00     0.121 C 
ATOM     21  N   UNL     1      36.698   1.614 133.268  1.00  0.00    -0.348 N 
BRANCH  16  22
ATOM     22  N   UNL     1      35.963   0.777 129.233  1.00  0.00    -0.297 NA
ATOM     23  C   UNL     1      34.521   0.662 129.464  1.00  0.00     0.085 C 
ATOM     24  C   UNL     1      36.085   1.247 127.854  1.00  0.00     0.085 C 
ATOM     25  C   UNL     1      33.989   0.088 128.157  1.00  0.00     0.017 C 
ATOM     26  C   UNL     1      35.071   0.379 127.127  1.00  0.00     0.017 C 
ENDBRANCH  16  22
BRANCH  21  27
ATOM     27  C   UNL     1      36.791   2.145 134.526  1.00  0.00     0.187 A 
ATOM     28  N   UNL     1      37.305   3.336 134.769  1.00  0.00    -0.218 NA
ATOM     29  S   UNL     1      36.248   1.312 135.954  1.00  0.00    -0.077 S 
ATOM     30  C   UNL     1      37.292   3.613 136.118  1.00  0.00     0.102 A 
ATOM     31  C   UNL     1      36.751   2.617 136.917  1.00  0.00     0.145 A 
ATOM     32  C   UNL     1      37.752   4.771 136.762  1.00  0.00     0.034 A 
ATOM     33  N   UNL     1      36.608   2.633 138.260  1.00  0.00    -0.231 NA
ATOM     34  C   UNL     1      37.628   4.841 138.151  1.00  0.00     0.036 A 
ATOM     35  C   UNL     1      37.047   3.778 138.853  1.00  0.00     0.146 A 
BRANCH  35  36
ATOM     36  C   UNL     1      36.935   3.898 140.372  1.00  0.00     0.433 C 
ATOM     37  F   UNL     1      37.491   2.832 141.021  1.00  0.00    -0.165 F 
ATOM     38  F   UNL     1      35.639   3.945 140.795  1.00  0.00    -0.165 F 
ATOM     39  F   UNL     1      37.542   5.000 140.892  1.00  0.00    -0.165 F 
ENDBRANCH  35  36
ENDBRANCH  21  27
ENDBRANCH  15  16
ENDBRANCH  14  15
ENDBRANCH   1  14
TORSDOF 10
ENDMDL
