REMARK SMILES CCOCCOc1nc(-c2cnn3ccccc23)nc(N[C@@H]2CCCN(C(=O)CO)C2)c1F
REMARK SMILES IDX 7 1 8 2 9 3 19 4 20 5 32 6 33 7 6 8 5 9 4 10 3 11 2 12 1 13
REMARK SMILES IDX 10 14 11 15 18 16 12 17 17 18 13 19 16 20 14 21 15 22 21 23
REMARK SMILES IDX 22 25 23 26 31 27 24 28 26 29 25 30 27 31 28 32 29 33 30 34
REMARK H PARENT 21 24 30 35
REMARK INDEX MAP 7 1 8 2 9 3 19 4 20 5 32 6 33 7 6 8 5 9 4 10 3 11 2 12 1 13
REMARK INDEX MAP 10 14 11 15 18 16 12 17 17 18 13 19 16 20 14 21 15 22 21 23
REMARK INDEX MAP 48 24 22 25 23 26 31 27 24 28 26 29 25 30 27 31 28 32 29 33
REMARK INDEX MAP 30 34 58 35
ROOT
ATOM      1  C   UNL     1       5.106 -24.093  21.022  1.00  0.00     0.256 A 
ATOM      2  N   UNL     1       6.057 -24.637  21.802  1.00  0.00    -0.190 NA
ATOM      3  C   UNL     1       6.960 -23.779  22.294  1.00  0.00     0.169 A 
ATOM      4  N   UNL     1       6.976 -22.451  22.059  1.00  0.00    -0.208 NA
ATOM      5  C   UNL     1       6.008 -21.936  21.277  1.00  0.00     0.170 A 
ATOM      6  C   UNL     1       5.033 -22.748  20.726  1.00  0.00     0.227 A 
ATOM      7  F   UNL     1       4.065 -22.271  19.930  1.00  0.00    -0.197 F 
ENDROOT
BRANCH   1   8
ATOM      8  O   UNL     1       4.137 -24.908  20.462  1.00  0.00    -0.473 OA
BRANCH   8   9
ATOM      9  C   UNL     1       3.182 -25.396  21.406  1.00  0.00     0.260 C 
BRANCH   9  10
ATOM     10  C   UNL     1       2.564 -26.681  20.857  1.00  0.00     0.201 C 
BRANCH  10  11
ATOM     11  O   UNL     1       2.842 -27.797  21.703  1.00  0.00    -0.378 OA
BRANCH  11  12
ATOM     12  C   UNL     1       4.036 -27.663  22.473  1.00  0.00     0.157 C 
ATOM     13  C   UNL     1       4.734 -29.005  22.619  1.00  0.00     0.035 C 
ENDBRANCH  11  12
ENDBRANCH  10  11
ENDBRANCH   9  10
ENDBRANCH   8   9
ENDBRANCH   1   8
BRANCH   3  14
ATOM     14  C   UNL     1       8.023 -24.290  23.137  1.00  0.00     0.065 A 
ATOM     15  C   UNL     1       9.233 -23.654  23.489  1.00  0.00     0.148 A 
ATOM     16  C   UNL     1       8.085 -25.509  23.790  1.00  0.00     0.077 A 
ATOM     17  N   UNL     1      10.008 -24.390  24.283  1.00  0.00    -0.176 NA
ATOM     18  C   UNL     1       7.242 -26.656  23.914  1.00  0.00     0.029 A 
ATOM     19  N   UNL     1       9.308 -25.536  24.476  1.00  0.00    -0.240 N 
ATOM     20  C   UNL     1       7.637 -27.704  24.659  1.00  0.00     0.004 A 
ATOM     21  C   UNL     1       9.706 -26.631  25.246  1.00  0.00     0.113 A 
ATOM     22  C   UNL     1       8.911 -27.707  25.355  1.00  0.00     0.020 A 
ENDBRANCH   3  14
BRANCH   5  23
ATOM     23  N   UNL     1       6.102 -20.579  21.105  1.00  0.00    -0.363 N 
ATOM     24  H   UNL     1       6.475 -20.258  20.200  1.00  0.00     0.162 HD
BRANCH  23  25
ATOM     25  C   UNL     1       5.734 -19.540  22.058  1.00  0.00     0.100 C 
ATOM     26  C   UNL     1       4.386 -19.881  22.719  1.00  0.00     0.028 C 
ATOM     27  C   UNL     1       5.655 -18.189  21.312  1.00  0.00     0.144 C 
ATOM     28  C   UNL     1       3.188 -19.179  22.072  1.00  0.00     0.024 C 
ATOM     29  N   UNL     1       4.589 -18.168  20.299  1.00  0.00    -0.339 N 
ATOM     30  C   UNL     1       3.383 -18.948  20.581  1.00  0.00     0.119 C 
BRANCH  29  31
ATOM     31  C   UNL     1       4.653 -17.464  19.106  1.00  0.00     0.248 C 
ATOM     32  O   UNL     1       5.537 -16.636  18.869  1.00  0.00    -0.272 OA
BRANCH  31  33
ATOM     33  C   UNL     1       3.577 -17.737  18.049  1.00  0.00     0.256 C 
BRANCH  33  34
ATOM     34  O   UNL     1       4.067 -18.555  16.994  1.00  0.00    -0.387 OA
ATOM     35  H   UNL     1       4.537 -19.339  17.375  1.00  0.00     0.211 HD
ENDBRANCH  33  34
ENDBRANCH  31  33
ENDBRANCH  29  31
ENDBRANCH  23  25
ENDBRANCH   5  23
TORSDOF 11
