REMARK SMILES COc1ccc(Cl)cc1C(=O)NCCc1ccc(S(=O)(=O)[N-]C(=O)[NH2+]C2CCCCC2)cc1
REMARK SMILES IDX 15 1 16 2 17 3 18 4 32 5 33 6 14 7 13 8 12 9 10 10 11 11
REMARK SMILES IDX 9 13 3 14 4 15 5 16 8 17 6 18 7 19 2 20 1 21 19 22 20 23
REMARK SMILES IDX 21 24 22 25 23 26 24 27 25 28 26 31 27 32 31 33 28 34 30 35
REMARK SMILES IDX 29 36
REMARK H PARENT 12 12 25 29 25 30
ROOT
ATOM      1  C   UNL     1       1.365  -0.126  -0.207  1.00  0.00    -0.046 A 
ATOM      2  C   UNL     1       0.679  -0.197  -1.429  1.00  0.00     0.005 A 
ATOM      3  C   UNL     1      -0.676  -0.531  -1.461  1.00  0.00     0.019 A 
ATOM      4  C   UNL     1      -1.348  -0.785  -0.263  1.00  0.00     0.052 A 
ATOM      5  C   UNL     1      -0.683  -0.723   0.964  1.00  0.00     0.019 A 
ATOM      6  C   UNL     1       0.675  -0.396   0.988  1.00  0.00     0.005 A 
ENDROOT
BRANCH   1   7
ATOM      7  C   UNL     1       2.835   0.214  -0.175  1.00  0.00     0.057 C 
BRANCH   7   8
ATOM      8  C   UNL     1       3.712  -0.993  -0.511  1.00  0.00     0.121 C 
BRANCH   8   9
ATOM      9  N   UNL     1       5.119  -0.638  -0.518  1.00  0.00    -0.352 N 
ATOM     10  C   UNL     1       5.987  -0.995   0.490  1.00  0.00     0.255 C 
ATOM     11  O   UNL     1       5.633  -1.634   1.480  1.00  0.00    -0.269 OA
ATOM     12  H   UNL     1       5.483  -0.091  -1.291  1.00  0.00     0.163 HD
BRANCH  10  13
ATOM     13  C   UNL     1       7.428  -0.609   0.330  1.00  0.00     0.083 A 
ATOM     14  C   UNL     1       7.908   0.338  -0.603  1.00  0.00     0.131 A 
ATOM     15  C   UNL     1       9.288   0.587  -0.668  1.00  0.00     0.049 A 
ATOM     16  C   UNL     1      10.178  -0.077   0.182  1.00  0.00     0.024 A 
ATOM     17  C   UNL     1       8.336  -1.267   1.182  1.00  0.00     0.038 A 
ATOM     18  C   UNL     1       9.699  -1.001   1.104  1.00  0.00     0.042 A 
ATOM     19  Cl  UNL     1      10.799  -1.820   2.142  1.00  0.00    -0.084 Cl
BRANCH  14  20
ATOM     20  O   UNL     1       6.989   0.978  -1.399  1.00  0.00    -0.496 OA
ATOM     21  C   UNL     1       7.457   1.980  -2.296  1.00  0.00     0.278 C 
ENDBRANCH  14  20
ENDBRANCH  10  13
ENDBRANCH   8   9
ENDBRANCH   7   8
ENDBRANCH   1   7
BRANCH   4  22
ATOM     22  S   UNL     1      -3.106  -1.177  -0.337  1.00  0.00     0.129 S 
ATOM     23  O   UNL     1      -3.469  -1.411   1.066  1.00  0.00    -0.240 OA
ATOM     24  O   UNL     1      -3.128  -2.371  -1.171  1.00  0.00    -0.240 OA
BRANCH  22  25
ATOM     25  N   UNL     1      -3.828   0.085  -0.970  1.00  0.00    -0.488 NA
BRANCH  25  26
ATOM     26  C   UNL     1      -4.303   0.973  -0.115  1.00  0.00     0.253 C 
ATOM     27  O   UNL     1      -4.249   2.189  -0.205  1.00  0.00    -0.250 OA
BRANCH  26  28
ATOM     28  N   UNL     1      -5.015   0.584   1.094  1.00  0.00    -0.295 N 
ATOM     29  H   UNL     1      -4.545  -0.283   1.424  1.00  0.00     0.353 HD
ATOM     30  H   UNL     1      -4.740   1.323   1.748  1.00  0.00     0.353 HD
BRANCH  28  31
ATOM     31  C   UNL     1      -6.479   0.404   1.049  1.00  0.00     0.188 C 
ATOM     32  C   UNL     1      -6.873  -0.852   0.258  1.00  0.00     0.065 C 
ATOM     33  C   UNL     1      -7.195   1.656   0.542  1.00  0.00     0.065 C 
ATOM     34  C   UNL     1      -8.355  -0.881  -0.130  1.00  0.00     0.006 C 
ATOM     35  C   UNL     1      -8.718   1.509   0.616  1.00  0.00     0.006 C 
ATOM     36  C   UNL     1      -9.204   0.061   0.714  1.00  0.00     0.000 C 
ENDBRANCH  28  31
ENDBRANCH  26  28
ENDBRANCH  25  26
ENDBRANCH  22  25
ENDBRANCH   4  22
TORSDOF 10
