REMARK SMILES NC1CCN(c2c(F)cc3c(=O)c(C(=O)[O-])cn(C4CC4)c3c2Cl)C1
REMARK SMILES IDX 6 1 7 2 8 3 9 4 10 5 11 6 12 7 13 8 17 9 18 10 22 11 23 12
REMARK SMILES IDX 24 13 5 14 2 15 3 16 25 17 4 18 1 19 19 22 20 23 21 24 14 25
REMARK SMILES IDX 15 26 16 27
REMARK H PARENT 1 20 1 21
ROOT
ATOM      1  C   UNL     1       1.075   0.319   0.188  1.00  0.00     0.094 A 
ATOM      2  C   UNL     1       0.934   1.532  -0.506  1.00  0.00     0.148 A 
ATOM      3  F   UNL     1       2.017   2.176  -0.971  1.00  0.00    -0.205 F 
ATOM      4  C   UNL     1      -0.304   2.098  -0.743  1.00  0.00     0.056 A 
ATOM      5  C   UNL     1      -1.459   1.435  -0.321  1.00  0.00     0.051 A 
ATOM      6  C   UNL     1      -2.763   2.105  -0.583  1.00  0.00     0.198 C 
ATOM      7  O   UNL     1      -2.792   3.099  -1.300  1.00  0.00    -0.288 OA
ATOM      8  C   UNL     1      -3.953   1.498   0.023  1.00  0.00     0.062 C 
ATOM      9  C   UNL     1      -3.823   0.281   0.558  1.00  0.00     0.100 C 
ATOM     10  N   UNL     1      -2.655  -0.458   0.636  1.00  0.00    -0.342 N 
ATOM     11  C   UNL     1      -1.407   0.172   0.322  1.00  0.00     0.073 A 
ATOM     12  C   UNL     1      -0.115  -0.349   0.608  1.00  0.00     0.091 A 
ATOM     13  Cl  UNL     1       0.109  -1.770   1.602  1.00  0.00    -0.080 Cl
ENDROOT
BRANCH   1  14
ATOM     14  N   UNL     1       2.344  -0.258   0.441  1.00  0.00    -0.366 N 
ATOM     15  C   UNL     1       4.528   0.532  -0.157  1.00  0.00     0.072 C 
ATOM     16  C   UNL     1       4.361  -0.905  -0.634  1.00  0.00     0.042 C 
ATOM     17  C   UNL     1       3.423   0.636   0.914  1.00  0.00     0.135 C 
ATOM     18  C   UNL     1       2.842  -1.040  -0.708  1.00  0.00     0.118 C 
BRANCH  15  19
ATOM     19  N   UNL     1       5.886   0.807   0.310  1.00  0.00    -0.326 NA
ATOM     20  H   UNL     1       6.535   0.723  -0.471  1.00  0.00     0.119 HD
ATOM     21  H   UNL     1       5.941   1.776   0.625  1.00  0.00     0.119 HD
ENDBRANCH  15  19
ENDBRANCH   1  14
BRANCH  10  22
ATOM     22  C   UNL     1      -2.815  -1.903   0.884  1.00  0.00     0.087 C 
ATOM     23  C   UNL     1      -2.404  -2.939  -0.137  1.00  0.00     0.027 C 
ATOM     24  C   UNL     1      -3.853  -2.729   0.153  1.00  0.00     0.027 C 
ENDBRANCH  10  22
BRANCH   8  25
ATOM     25  C   UNL     1      -5.305   2.172   0.044  1.00  0.00     0.077 C 
ATOM     26  O   UNL     1      -5.356   3.280   0.649  1.00  0.00    -0.545 OA
ATOM     27  O   UNL     1      -6.250   1.496  -0.464  1.00  0.00    -0.545 OA
ENDBRANCH   8  25
TORSDOF 4
