REMARK SMILES CC(=O)Nc1cccc2c1c(Sc1ccc(Cl)cc1)c(C)n2CC(=O)[O-]
REMARK SMILES IDX 5 1 6 2 7 3 8 4 9 5 10 6 11 7 20 8 21 9 22 10 4 11 2 12 3 13
REMARK SMILES IDX 1 14 12 16 13 17 14 18 19 19 15 20 18 21 16 22 17 23 23 24
REMARK SMILES IDX 24 25 25 26 26 27
REMARK H PARENT 4 15
ROOT
ATOM      1  C   UNL     1      -1.884   1.304   0.339  1.00  0.00     0.051 A 
ATOM      2  C   UNL     1      -3.032   1.212   1.138  1.00  0.00     0.027 A 
ATOM      3  C   UNL     1      -3.608  -0.023   1.427  1.00  0.00     0.004 A 
ATOM      4  C   UNL     1      -3.055  -1.204   0.938  1.00  0.00     0.027 A 
ATOM      5  C   UNL     1      -1.897  -1.122   0.148  1.00  0.00     0.052 A 
ATOM      6  C   UNL     1      -1.304   0.104  -0.173  1.00  0.00     0.037 A 
ATOM      7  C   UNL     1      -0.168  -0.211  -0.986  1.00  0.00     0.043 A 
ATOM      8  C   UNL     1      -0.099  -1.580  -1.160  1.00  0.00     0.030 A 
ATOM      9  C   UNL     1       0.858  -2.416  -1.939  1.00  0.00     0.066 C 
ATOM     10  N   UNL     1      -1.145  -2.128  -0.440  1.00  0.00    -0.338 N 
ENDROOT
BRANCH   1  11
ATOM     11  N   UNL     1      -1.279   2.535   0.005  1.00  0.00    -0.326 N 
ATOM     12  C   UNL     1      -1.620   3.805   0.420  1.00  0.00     0.221 C 
ATOM     13  O   UNL     1      -2.497   4.121   1.216  1.00  0.00    -0.275 OA
ATOM     14  C   UNL     1      -0.732   4.853  -0.203  1.00  0.00     0.114 C 
ATOM     15  H   UNL     1      -0.490   2.446  -0.626  1.00  0.00     0.169 HD
ENDBRANCH   1  11
BRANCH   7  16
ATOM     16  S   UNL     1       0.962   0.964  -1.650  1.00  0.00    -0.087 SA
BRANCH  16  17
ATOM     17  C   UNL     1       2.425   0.654  -0.674  1.00  0.00     0.012 A 
ATOM     18  C   UNL     1       3.649   0.462  -1.325  1.00  0.00     0.017 A 
ATOM     19  C   UNL     1       2.382   0.628   0.726  1.00  0.00     0.017 A 
ATOM     20  C   UNL     1       4.815   0.236  -0.587  1.00  0.00     0.021 A 
ATOM     21  C   UNL     1       3.547   0.400   1.465  1.00  0.00     0.021 A 
ATOM     22  C   UNL     1       4.758   0.205   0.804  1.00  0.00     0.041 A 
ATOM     23  Cl  UNL     1       6.194  -0.068   1.712  1.00  0.00    -0.084 Cl
ENDBRANCH  16  17
ENDBRANCH   7  16
BRANCH  10  24
ATOM     24  C   UNL     1      -1.355  -3.551  -0.199  1.00  0.00     0.175 C 
BRANCH  24  25
ATOM     25  C   UNL     1      -2.426  -4.136  -1.101  1.00  0.00     0.061 C 
ATOM     26  O   UNL     1      -3.564  -4.287  -0.564  1.00  0.00    -0.548 OA
ATOM     27  O   UNL     1      -2.045  -4.474  -2.259  1.00  0.00    -0.548 OA
ENDBRANCH  24  25
ENDBRANCH  10  24
TORSDOF 5
