REMARK SMILES CC(C)(C)N/C(Nc1cccc(/C(=C\CCCC(=O)[O-])c2cccnc2)c1)=[NH+]\C#N
REMARK SMILES IDX 13 1 14 2 12 3 8 4 9 5 27 6 10 7 11 8 7 9 5 10 6 11 28 12
REMARK SMILES IDX 29 13 30 14 2 18 1 19 3 20 4 21 21 22 22 23 26 24 23 25
REMARK SMILES IDX 25 26 24 27 15 28 16 29 17 30 18 31 19 32 20 33
REMARK H PARENT 5 15 7 16 28 17
ROOT
ATOM      1  C   UNL     1       2.954  -0.319  -0.918  1.00  0.00    -0.013 C 
ATOM      2  C   UNL     1       3.527   0.184   0.197  1.00  0.00    -0.018 C 
ENDROOT
BRANCH   1   3
ATOM      3  C   UNL     1       1.582   0.152  -1.222  1.00  0.00    -0.015 A 
ATOM      4  C   UNL     1      -0.786   0.100  -0.715  1.00  0.00     0.085 A 
ATOM      5  C   UNL     1      -1.004   1.107  -1.662  1.00  0.00     0.039 A 
ATOM      6  C   UNL     1       0.504  -0.372  -0.494  1.00  0.00     0.047 A 
ATOM      7  C   UNL     1       0.065   1.620  -2.403  1.00  0.00     0.004 A 
ATOM      8  C   UNL     1       1.356   1.147  -2.180  1.00  0.00     0.009 A 
BRANCH   4   9
ATOM      9  N   UNL     1      -1.819  -0.417   0.122  1.00  0.00    -0.265 N 
ATOM     10  N   UNL     1      -3.995  -0.419   0.886  1.00  0.00    -0.292 N 
ATOM     11  C   UNL     1      -3.153  -0.432  -0.181  1.00  0.00     0.320 C 
ATOM     12  N   UNL     1      -3.520  -0.502  -1.475  1.00  0.00    -0.188 N 
ATOM     13  C   UNL     1      -4.789  -1.002  -1.940  1.00  0.00     0.323 C 
ATOM     14  N   UNL     1      -5.777  -1.415  -2.378  1.00  0.00    -0.009 NA
ATOM     15  H   UNL     1      -3.560  -0.690   1.761  1.00  0.00     0.236 HD
ATOM     16  H   UNL     1      -1.514  -0.764   1.029  1.00  0.00     0.242 HD
ATOM     17  H   UNL     1      -2.792  -0.553  -2.175  1.00  0.00     0.257 HD
BRANCH  10  18
ATOM     18  C   UNL     1      -5.325   0.271   1.096  1.00  0.00     0.066 C 
ATOM     19  C   UNL     1      -5.583   1.400   0.098  1.00  0.00     0.047 C 
ATOM     20  C   UNL     1      -5.263   0.911   2.504  1.00  0.00     0.047 C 
ATOM     21  C   UNL     1      -6.453  -0.765   1.099  1.00  0.00     0.047 C 
ENDBRANCH  10  18
ENDBRANCH   4   9
ENDBRANCH   1   3
BRANCH   1  22
ATOM     22  C   UNL     1       3.669  -1.348  -1.735  1.00  0.00     0.000 A 
ATOM     23  C   UNL     1       4.654  -2.201  -1.217  1.00  0.00     0.012 A 
ATOM     24  C   UNL     1       3.331  -1.563  -3.076  1.00  0.00     0.119 A 
ATOM     25  C   UNL     1       5.256  -3.165  -2.028  1.00  0.00     0.021 A 
ATOM     26  N   UNL     1       3.884  -2.499  -3.889  1.00  0.00    -0.264 NA
ATOM     27  C   UNL     1       4.840  -3.275  -3.342  1.00  0.00     0.111 A 
ENDBRANCH   1  22
BRANCH   2  28
ATOM     28  C   UNL     1       2.934   1.165   1.187  1.00  0.00     0.028 C 
BRANCH  28  29
ATOM     29  C   UNL     1       3.963   2.112   1.829  1.00  0.00     0.010 C 
BRANCH  29  30
ATOM     30  C   UNL     1       5.036   1.425   2.681  1.00  0.00     0.053 C 
BRANCH  30  31
ATOM     31  C   UNL     1       4.400   0.429   3.662  1.00  0.00     0.041 C 
ATOM     32  O   UNL     1       3.741   0.950   4.610  1.00  0.00    -0.550 OA
ATOM     33  O   UNL     1       4.575  -0.792   3.373  1.00  0.00    -0.550 OA
ENDBRANCH  30  31
ENDBRANCH  29  30
ENDBRANCH  28  29
ENDBRANCH   2  28
TORSDOF 8
