MODEL 7
REMARK VINA RESULT:    -8.542      1.474      2.212
REMARK INTER + INTRA:         -14.324
REMARK INTER:                 -13.411
REMARK INTRA:                  -0.913
REMARK UNBOUND:                -1.038
REMARK SMILES CC[C@H](C(=O)O)[C@H]1CCc2cc(OCCc3nc(-c4cccc(C(F)(F)F)c4)oc3C)ccc21
REMARK SMILES IDX 13 1 12 2 7 3 8 4 34 5 9 6 33 7 10 8 32 9 11 10 3 11 2 12
REMARK SMILES IDX 1 13 4 14 5 15 6 16 14 18 15 19 16 20 17 21 30 22 18 23
REMARK SMILES IDX 29 24 31 25 19 26 20 27 28 28 21 29 23 30 22 31 24 32 25 33
REMARK SMILES IDX 26 34 27 35
REMARK H PARENT 6 17
ROOT
ATOM      1  O   UNL     1      -8.372  -8.862 -23.925  1.00  0.00    -0.493 OA
ENDROOT
BRANCH   1   2
ATOM      2  C   UNL     1      -8.567  -8.623 -25.259  1.00  0.00     0.119 A 
ATOM      3  C   UNL     1      -9.791  -7.646 -29.243  1.00  0.00     0.034 C 
ATOM      4  C   UNL     1     -11.306  -7.737 -28.945  1.00  0.00     0.014 C 
ATOM      5  C   UNL     1      -9.213  -8.059 -27.915  1.00  0.00    -0.041 A 
ATOM      6  C   UNL     1     -11.471  -7.427 -27.450  1.00  0.00     0.036 C 
ATOM      7  C   UNL     1      -7.923  -8.458 -27.606  1.00  0.00     0.008 A 
ATOM      8  C   UNL     1     -10.172  -7.932 -26.905  1.00  0.00    -0.041 A 
ATOM      9  C   UNL     1      -7.605  -8.749 -26.272  1.00  0.00     0.047 A 
ATOM     10  C   UNL     1      -9.863  -8.207 -25.582  1.00  0.00     0.050 A 
BRANCH   3  11
ATOM     11  C   UNL     1      -9.307  -8.409 -30.490  1.00  0.00     0.106 C 
BRANCH  11  12
ATOM     12  C   UNL     1      -9.147  -9.913 -30.199  1.00  0.00     0.012 C 
ATOM     13  C   UNL     1      -9.629 -10.789 -31.349  1.00  0.00     0.005 C 
ENDBRANCH  11  12
BRANCH  11  14
ATOM     14  C   UNL     1      -8.011  -7.845 -31.039  1.00  0.00     0.307 C 
ATOM     15  O   UNL     1      -7.045  -8.476 -31.436  1.00  0.00    -0.252 OA
BRANCH  14  16
ATOM     16  O   UNL     1      -8.008  -6.498 -31.085  1.00  0.00    -0.481 OA
ATOM     17  H   UNL     1      -8.571  -6.290 -31.862  1.00  0.00     0.296 HD
ENDBRANCH  14  16
ENDBRANCH  11  14
ENDBRANCH   3  11
ENDBRANCH   1   2
BRANCH   1  18
ATOM     18  C   UNL     1      -8.456  -7.768 -23.009  1.00  0.00     0.236 C 
BRANCH  18  19
ATOM     19  C   UNL     1      -7.646  -8.049 -21.745  1.00  0.00     0.101 C 
BRANCH  19  20
ATOM     20  C   UNL     1      -7.346  -6.808 -20.987  1.00  0.00     0.086 A 
ATOM     21  N   UNL     1      -6.247  -6.039 -21.293  1.00  0.00    -0.214 NA
ATOM     22  C   UNL     1      -8.034  -6.231 -19.940  1.00  0.00     0.125 A 
ATOM     23  C   UNL     1      -6.298  -5.038 -20.433  1.00  0.00     0.226 A 
ATOM     24  O   UNL     1      -7.371  -5.092 -19.582  1.00  0.00    -0.441 OA
ATOM     25  C   UNL     1      -9.257  -6.562 -19.188  1.00  0.00     0.090 C 
BRANCH  23  26
ATOM     26  C   UNL     1      -5.382  -3.912 -20.275  1.00  0.00     0.038 A 
ATOM     27  C   UNL     1      -5.100  -3.354 -19.019  1.00  0.00     0.014 A 
ATOM     28  C   UNL     1      -4.756  -3.365 -21.407  1.00  0.00     0.026 A 
ATOM     29  C   UNL     1      -4.214  -2.282 -18.896  1.00  0.00     0.001 A 
ATOM     30  C   UNL     1      -3.868  -2.280 -21.299  1.00  0.00     0.056 A 
ATOM     31  C   UNL     1      -3.599  -1.750 -20.028  1.00  0.00     0.013 A 
BRANCH  30  32
ATOM     32  C   UNL     1      -3.184  -1.724 -22.522  1.00  0.00     0.416 C 
ATOM     33  F   UNL     1      -3.502  -2.399 -23.664  1.00  0.00    -0.166 F 
ATOM     34  F   UNL     1      -3.516  -0.424 -22.754  1.00  0.00    -0.166 F 
ATOM     35  F   UNL     1      -1.824  -1.756 -22.442  1.00  0.00    -0.166 F 
ENDBRANCH  30  32
ENDBRANCH  23  26
ENDBRANCH  19  20
ENDBRANCH  18  19
ENDBRANCH   1  18
TORSDOF 10
ENDMDL
