REMARK VINA RESULT:    -7.997      2.299      3.374
REMARK INTER + INTRA:         -10.123
REMARK INTER:                  -9.155
REMARK INTRA:                  -0.968
REMARK UNBOUND:                -0.256
REMARK SMILES FC(F)c1nc2ccccc2n1-c1nc(N2CCOCC2)nc(N2CCOCC2)n1
REMARK SMILES IDX 4 1 5 2 6 3 7 4 8 5 9 6 10 7 11 8 12 9 2 10 1 11 3 12 13 13
REMARK SMILES IDX 14 14 30 15 15 16 23 17 22 18 16 19 17 20 21 21 18 22 20 23
REMARK SMILES IDX 19 24 24 25 25 26 29 27 26 28 28 29 27 30
REMARK H PARENT
ROOT
ATOM      1  C   UNL     1      32.815  46.795  39.638  1.00  0.00     0.184 A 
ATOM      2  N   UNL     1      33.377  46.334  38.532  1.00  0.00    -0.227 NA
ATOM      3  C   UNL     1      34.681  46.096  38.841  1.00  0.00     0.090 A 
ATOM      4  C   UNL     1      35.701  45.612  38.008  1.00  0.00     0.030 A 
ATOM      5  C   UNL     1      36.981  45.430  38.537  1.00  0.00     0.002 A 
ATOM      6  C   UNL     1      37.238  45.722  39.874  1.00  0.00     0.002 A 
ATOM      7  C   UNL     1      36.230  46.204  40.717  1.00  0.00     0.029 A 
ATOM      8  C   UNL     1      34.945  46.392  40.175  1.00  0.00     0.076 A 
ATOM      9  N   UNL     1      33.727  46.833  40.693  1.00  0.00    -0.259 N 
ENDROOT
BRANCH   1  10
ATOM     10  C   UNL     1      31.396  47.235  39.753  1.00  0.00     0.408 C 
ATOM     11  F   UNL     1      30.582  46.210  40.138  1.00  0.00    -0.201 F 
ATOM     12  F   UNL     1      30.904  47.653  38.554  1.00  0.00    -0.201 F 
ENDBRANCH   1  10
BRANCH   9  13
ATOM     13  C   UNL     1      33.460  47.225  42.049  1.00  0.00     0.242 A 
ATOM     14  N   UNL     1      34.161  48.233  42.566  1.00  0.00    -0.176 NA
ATOM     15  N   UNL     1      32.541  46.536  42.725  1.00  0.00    -0.176 NA
ATOM     16  C   UNL     1      33.898  48.553  43.827  1.00  0.00     0.232 A 
ATOM     17  C   UNL     1      32.321  46.914  43.979  1.00  0.00     0.232 A 
ATOM     18  N   UNL     1      32.995  47.904  44.550  1.00  0.00    -0.176 NA
BRANCH  16  19
ATOM     19  N   UNL     1      34.575  49.608  44.411  1.00  0.00    -0.336 N 
ATOM     20  C   UNL     1      35.642  50.264  43.657  1.00  0.00     0.148 C 
ATOM     21  C   UNL     1      34.708  49.604  45.871  1.00  0.00     0.148 C 
ATOM     22  C   UNL     1      36.031  51.602  44.304  1.00  0.00     0.181 C 
ATOM     23  C   UNL     1      35.148  50.983  46.385  1.00  0.00     0.181 C 
ATOM     24  O   UNL     1      36.318  51.454  45.701  1.00  0.00    -0.378 OA
ENDBRANCH  16  19
BRANCH  17  25
ATOM     25  N   UNL     1      31.354  46.264  44.720  1.00  0.00    -0.336 N 
ATOM     26  C   UNL     1      31.081  46.705  46.088  1.00  0.00     0.148 C 
ATOM     27  C   UNL     1      30.240  45.641  43.997  1.00  0.00     0.148 C 
ATOM     28  C   UNL     1      30.283  45.645  46.860  1.00  0.00     0.181 C 
ATOM     29  C   UNL     1      29.493  44.644  44.894  1.00  0.00     0.181 C 
ATOM     30  O   UNL     1      29.110  45.238  46.142  1.00  0.00    -0.378 OA
ENDBRANCH  17  25
ENDBRANCH   9  13
TORSDOF 4
