MODEL 1
REMARK VINA RESULT:    -9.566      0.000      0.000
REMARK INTER + INTRA:         -15.620
REMARK INTER:                 -14.319
REMARK INTRA:                  -1.301
REMARK UNBOUND:                -1.301
REMARK SMILES CCO[C@H](Cc1cccc2c1ccn2Cc1nc(-c2ccccc2)oc1C)C(=O)O
REMARK SMILES IDX 5 1 4 2 3 3 2 4 1 5 28 6 29 7 30 8 6 10 7 11 11 12 8 13
REMARK SMILES IDX 10 14 12 15 9 16 14 17 13 18 15 19 16 20 17 21 26 22 18 23
REMARK SMILES IDX 25 24 27 25 19 26 20 27 24 28 21 29 23 30 22 31
REMARK H PARENT 30 9
ROOT
ATOM      1  C   UNL     1      39.120 -39.529 109.038  1.00  0.00     0.080 C 
ENDROOT
BRANCH   1   2
ATOM      2  C   UNL     1      38.082 -38.404 109.168  1.00  0.00     0.231 C 
BRANCH   2   3
ATOM      3  O   UNL     1      36.985 -38.713 108.300  1.00  0.00    -0.366 OA
BRANCH   3   4
ATOM      4  C   UNL     1      36.792 -37.736 107.280  1.00  0.00     0.158 C 
ATOM      5  C   UNL     1      36.334 -38.449 106.023  1.00  0.00     0.035 C 
ENDBRANCH   3   4
ENDBRANCH   2   3
BRANCH   2   6
ATOM      6  C   UNL     1      37.649 -38.299 110.633  1.00  0.00     0.333 C 
ATOM      7  O   UNL     1      36.544 -38.016 111.067  1.00  0.00    -0.249 OA
BRANCH   6   8
ATOM      8  O   UNL     1      38.668 -38.515 111.497  1.00  0.00    -0.479 OA
ATOM      9  H   UNL     1      38.262 -39.074 112.194  1.00  0.00     0.296 HD
ENDBRANCH   6   8
ENDBRANCH   2   6
ENDBRANCH   1   2
BRANCH   1  10
ATOM     10  C   UNL     1      40.389 -39.048 108.358  1.00  0.00    -0.035 A 
ATOM     11  C   UNL     1      41.411 -38.482 109.147  1.00  0.00     0.004 A 
ATOM     12  C   UNL     1      40.595 -39.115 106.956  1.00  0.00     0.003 A 
ATOM     13  C   UNL     1      42.593 -38.012 108.580  1.00  0.00     0.002 A 
ATOM     14  C   UNL     1      41.790 -38.636 106.409  1.00  0.00     0.049 A 
ATOM     15  C   UNL     1      39.804 -39.588 105.869  1.00  0.00     0.028 A 
ATOM     16  C   UNL     1      42.805 -38.082 107.204  1.00  0.00     0.027 A 
ATOM     17  N   UNL     1      41.721 -38.836 105.042  1.00  0.00    -0.341 N 
ATOM     18  C   UNL     1      40.514 -39.396 104.708  1.00  0.00     0.087 A 
BRANCH  17  19
ATOM     19  C   UNL     1      42.750 -38.464 104.076  1.00  0.00     0.182 C 
BRANCH  19  20
ATOM     20  C   UNL     1      43.113 -39.591 103.177  1.00  0.00     0.102 A 
ATOM     21  N   UNL     1      43.062 -39.438 101.805  1.00  0.00    -0.212 NA
ATOM     22  C   UNL     1      43.510 -40.879 103.474  1.00  0.00     0.126 A 
ATOM     23  C   UNL     1      43.440 -40.610 101.328  1.00  0.00     0.226 A 
ATOM     24  O   UNL     1      43.723 -41.538 102.296  1.00  0.00    -0.441 OA
ATOM     25  C   UNL     1      43.750 -41.637 104.716  1.00  0.00     0.090 C 
BRANCH  23  26
ATOM     26  C   UNL     1      43.585 -41.040  99.939  1.00  0.00     0.037 A 
ATOM     27  C   UNL     1      44.639 -41.868  99.523  1.00  0.00     0.014 A 
ATOM     28  C   UNL     1      42.650 -40.617  98.982  1.00  0.00     0.014 A 
ATOM     29  C   UNL     1      44.753 -42.262  98.188  1.00  0.00     0.001 A 
ATOM     30  C   UNL     1      42.763 -41.010  97.646  1.00  0.00     0.001 A 
ATOM     31  C   UNL     1      43.815 -41.833  97.250  1.00  0.00     0.000 A 
ENDBRANCH  23  26
ENDBRANCH  19  20
ENDBRANCH  17  19
ENDBRANCH   1  10
TORSDOF 9
ENDMDL
MODEL 2
REMARK VINA RESULT:    -9.518      4.356      8.631
REMARK INTER + INTRA:         -15.548
REMARK INTER:                 -14.186
REMARK INTRA:                  -1.363
REMARK UNBOUND:                -1.301
REMARK SMILES CCO[C@H](Cc1cccc2c1ccn2Cc1nc(-c2ccccc2)oc1C)C(=O)O
REMARK SMILES IDX 5 1 4 2 3 3 2 4 1 5 28 6 29 7 30 8 6 10 7 11 11 12 8 13
REMARK SMILES IDX 10 14 12 15 9 16 14 17 13 18 15 19 16 20 17 21 26 22 18 23
REMARK SMILES IDX 25 24 27 25 19 26 20 27 24 28 21 29 23 30 22 31
REMARK H PARENT 30 9
ROOT
ATOM      1  C   UNL     1      42.402 -40.920 103.031  1.00  0.00     0.080 C 
ENDROOT
BRANCH   1   2
ATOM      2  C   UNL     1      42.761 -39.694 102.178  1.00  0.00     0.231 C 
BRANCH   2   3
ATOM      3  O   UNL     1      42.971 -40.139 100.832  1.00  0.00    -0.366 OA
BRANCH   3   4
ATOM      4  C   UNL     1      44.348 -40.334 100.521  1.00  0.00     0.158 C 
ATOM      5  C   UNL     1      44.564 -41.806 100.231  1.00  0.00     0.035 C 
ENDBRANCH   3   4
ENDBRANCH   2   3
BRANCH   2   6
ATOM      6  C   UNL     1      41.626 -38.672 102.279  1.00  0.00     0.333 C 
ATOM      7  O   UNL     1      40.679 -38.682 103.049  1.00  0.00    -0.249 OA
BRANCH   6   8
ATOM      8  O   UNL     1      41.720 -37.691 101.353  1.00  0.00    -0.479 OA
ATOM      9  H   UNL     1      42.290 -37.020 101.787  1.00  0.00     0.296 HD
ENDBRANCH   6   8
ENDBRANCH   2   6
ENDBRANCH   1   2
BRANCH   1  10
ATOM     10  C   UNL     1      43.401 -41.136 104.154  1.00  0.00    -0.035 A 
ATOM     11  C   UNL     1      44.355 -42.167 104.026  1.00  0.00     0.004 A 
ATOM     12  C   UNL     1      43.412 -40.367 105.346  1.00  0.00     0.003 A 
ATOM     13  C   UNL     1      45.290 -42.422 105.027  1.00  0.00     0.002 A 
ATOM     14  C   UNL     1      44.360 -40.642 106.337  1.00  0.00     0.049 A 
ATOM     15  C   UNL     1      42.614 -39.289 105.826  1.00  0.00     0.028 A 
ATOM     16  C   UNL     1      45.310 -41.665 106.197  1.00  0.00     0.027 A 
ATOM     17  N   UNL     1      44.146 -39.743 107.366  1.00  0.00    -0.341 N 
ATOM     18  C   UNL     1      43.079 -38.932 107.069  1.00  0.00     0.087 A 
BRANCH  17  19
ATOM     19  C   UNL     1      44.900 -39.684 108.614  1.00  0.00     0.182 C 
BRANCH  19  20
ATOM     20  C   UNL     1      46.166 -38.918 108.472  1.00  0.00     0.102 A 
ATOM     21  N   UNL     1      46.143 -37.539 108.366  1.00  0.00    -0.212 NA
ATOM     22  C   UNL     1      47.473 -39.354 108.403  1.00  0.00     0.126 A 
ATOM     23  C   UNL     1      47.413 -37.196 108.256  1.00  0.00     0.226 A 
ATOM     24  O   UNL     1      48.278 -38.259 108.266  1.00  0.00    -0.441 OA
ATOM     25  C   UNL     1      48.138 -40.670 108.457  1.00  0.00     0.090 C 
BRANCH  23  26
ATOM     26  C   UNL     1      48.003 -35.866 108.122  1.00  0.00     0.037 A 
ATOM     27  C   UNL     1      48.571 -35.422 106.918  1.00  0.00     0.014 A 
ATOM     28  C   UNL     1      48.007 -34.996 109.223  1.00  0.00     0.014 A 
ATOM     29  C   UNL     1      49.128 -34.144 106.820  1.00  0.00     0.001 A 
ATOM     30  C   UNL     1      48.563 -33.719 109.126  1.00  0.00     0.001 A 
ATOM     31  C   UNL     1      49.124 -33.293 107.923  1.00  0.00     0.000 A 
ENDBRANCH  23  26
ENDBRANCH  19  20
ENDBRANCH  17  19
ENDBRANCH   1  10
TORSDOF 9
ENDMDL
MODEL 3
REMARK VINA RESULT:    -9.452      4.316      8.962
REMARK INTER + INTRA:         -15.451
REMARK INTER:                 -14.192
REMARK INTRA:                  -1.258
REMARK UNBOUND:                -1.301
REMARK SMILES CCO[C@H](Cc1cccc2c1ccn2Cc1nc(-c2ccccc2)oc1C)C(=O)O
REMARK SMILES IDX 5 1 4 2 3 3 2 4 1 5 28 6 29 7 30 8 6 10 7 11 11 12 8 13
REMARK SMILES IDX 10 14 12 15 9 16 14 17 13 18 15 19 16 20 17 21 26 22 18 23
REMARK SMILES IDX 25 24 27 25 19 26 20 27 24 28 21 29 23 30 22 31
REMARK H PARENT 30 9
ROOT
ATOM      1  C   UNL     1      36.147 -36.565 102.242  1.00  0.00     0.080 C 
ENDROOT
BRANCH   1   2
ATOM      2  C   UNL     1      37.628 -36.378 101.877  1.00  0.00     0.231 C 
BRANCH   2   3
ATOM      3  O   UNL     1      38.095 -37.599 101.290  1.00  0.00    -0.366 OA
BRANCH   3   4
ATOM      4  C   UNL     1      39.442 -37.904 101.645  1.00  0.00     0.158 C 
ATOM      5  C   UNL     1      39.419 -38.752 102.901  1.00  0.00     0.035 C 
ENDBRANCH   3   4
ENDBRANCH   2   3
BRANCH   2   6
ATOM      6  C   UNL     1      37.754 -35.190 100.919  1.00  0.00     0.333 C 
ATOM      7  O   UNL     1      37.147 -35.003  99.877  1.00  0.00    -0.249 OA
BRANCH   6   8
ATOM      8  O   UNL     1      38.694 -34.299 101.311  1.00  0.00    -0.479 OA
ATOM      9  H   UNL     1      38.170 -33.507 101.557  1.00  0.00     0.296 HD
ENDBRANCH   6   8
ENDBRANCH   2   6
ENDBRANCH   1   2
BRANCH   1  10
ATOM     10  C   UNL     1      35.981 -37.262 103.580  1.00  0.00    -0.035 A 
ATOM     11  C   UNL     1      35.875 -38.668 103.606  1.00  0.00     0.004 A 
ATOM     12  C   UNL     1      35.903 -36.569 104.815  1.00  0.00     0.003 A 
ATOM     13  C   UNL     1      35.710 -39.364 104.801  1.00  0.00     0.002 A 
ATOM     14  C   UNL     1      35.737 -37.290 106.003  1.00  0.00     0.049 A 
ATOM     15  C   UNL     1      35.949 -35.190 105.173  1.00  0.00     0.028 A 
ATOM     16  C   UNL     1      35.640 -38.689 106.019  1.00  0.00     0.027 A 
ATOM     17  N   UNL     1      35.705 -36.371 107.036  1.00  0.00    -0.341 N 
ATOM     18  C   UNL     1      35.816 -35.097 106.537  1.00  0.00     0.087 A 
BRANCH  17  19
ATOM     19  C   UNL     1      35.527 -36.686 108.450  1.00  0.00     0.182 C 
BRANCH  19  20
ATOM     20  C   UNL     1      36.731 -37.328 109.040  1.00  0.00     0.102 A 
ATOM     21  N   UNL     1      37.983 -37.099 108.500  1.00  0.00    -0.212 NA
ATOM     22  C   UNL     1      36.851 -38.198 110.105  1.00  0.00     0.126 A 
ATOM     23  C   UNL     1      38.802 -37.810 109.254  1.00  0.00     0.226 A 
ATOM     24  O   UNL     1      38.173 -38.510 110.249  1.00  0.00    -0.441 OA
ATOM     25  C   UNL     1      35.911 -38.807 111.064  1.00  0.00     0.090 C 
BRANCH  23  26
ATOM     26  C   UNL     1      40.254 -37.950 109.163  1.00  0.00     0.037 A 
ATOM     27  C   UNL     1      40.925 -39.077 109.662  1.00  0.00     0.014 A 
ATOM     28  C   UNL     1      41.011 -36.933 108.562  1.00  0.00     0.014 A 
ATOM     29  C   UNL     1      42.314 -39.184 109.561  1.00  0.00     0.001 A 
ATOM     30  C   UNL     1      42.401 -37.039 108.461  1.00  0.00     0.001 A 
ATOM     31  C   UNL     1      43.052 -38.165 108.961  1.00  0.00     0.000 A 
ENDBRANCH  23  26
ENDBRANCH  19  20
ENDBRANCH  17  19
ENDBRANCH   1  10
TORSDOF 9
ENDMDL
MODEL 4
REMARK VINA RESULT:    -9.298      4.589      6.035
REMARK INTER + INTRA:         -15.220
REMARK INTER:                 -14.009
REMARK INTRA:                  -1.211
REMARK UNBOUND:                -1.301
REMARK SMILES CCO[C@H](Cc1cccc2c1ccn2Cc1nc(-c2ccccc2)oc1C)C(=O)O
REMARK SMILES IDX 5 1 4 2 3 3 2 4 1 5 28 6 29 7 30 8 6 10 7 11 11 12 8 13
REMARK SMILES IDX 10 14 12 15 9 16 14 17 13 18 15 19 16 20 17 21 26 22 18 23
REMARK SMILES IDX 25 24 27 25 19 26 20 27 24 28 21 29 23 30 22 31
REMARK H PARENT 30 9
ROOT
ATOM      1  C   UNL     1      46.022 -37.674 109.217  1.00  0.00     0.080 C 
ENDROOT
BRANCH   1   2
ATOM      2  C   UNL     1      47.442 -37.396 108.701  1.00  0.00     0.231 C 
BRANCH   2   3
ATOM      3  O   UNL     1      47.555 -37.965 107.391  1.00  0.00    -0.366 OA
BRANCH   3   4
ATOM      4  C   UNL     1      48.861 -38.466 107.115  1.00  0.00     0.158 C 
ATOM      5  C   UNL     1      49.159 -39.579 108.100  1.00  0.00     0.035 C 
ENDBRANCH   3   4
ENDBRANCH   2   3
BRANCH   2   6
ATOM      6  C   UNL     1      47.678 -35.883 108.698  1.00  0.00     0.333 C 
ATOM      7  O   UNL     1      47.928 -35.164 109.651  1.00  0.00    -0.249 OA
BRANCH   6   8
ATOM      8  O   UNL     1      47.539 -35.335 107.469  1.00  0.00    -0.479 OA
ATOM      9  H   UNL     1      46.746 -34.764 107.561  1.00  0.00     0.296 HD
ENDBRANCH   6   8
ENDBRANCH   2   6
ENDBRANCH   1   2
BRANCH   1  10
ATOM     10  C   UNL     1      45.460 -38.966 108.650  1.00  0.00    -0.035 A 
ATOM     11  C   UNL     1      45.851 -40.190 109.231  1.00  0.00     0.004 A 
ATOM     12  C   UNL     1      44.575 -39.010 107.543  1.00  0.00     0.003 A 
ATOM     13  C   UNL     1      45.379 -41.408 108.748  1.00  0.00     0.002 A 
ATOM     14  C   UNL     1      44.115 -40.246 107.076  1.00  0.00     0.049 A 
ATOM     15  C   UNL     1      43.993 -38.011 106.710  1.00  0.00     0.028 A 
ATOM     16  C   UNL     1      44.503 -41.458 107.665  1.00  0.00     0.027 A 
ATOM     17  N   UNL     1      43.270 -39.989 106.011  1.00  0.00    -0.341 N 
ATOM     18  C   UNL     1      43.206 -38.639 105.775  1.00  0.00     0.087 A 
BRANCH  17  19
ATOM     19  C   UNL     1      42.580 -40.996 105.211  1.00  0.00     0.182 C 
BRANCH  19  20
ATOM     20  C   UNL     1      43.303 -41.304 103.949  1.00  0.00     0.102 A 
ATOM     21  N   UNL     1      42.834 -40.828 102.738  1.00  0.00    -0.212 NA
ATOM     22  C   UNL     1      44.442 -42.052 103.729  1.00  0.00     0.126 A 
ATOM     23  C   UNL     1      43.698 -41.282 101.849  1.00  0.00     0.226 A 
ATOM     24  O   UNL     1      44.703 -42.041 102.389  1.00  0.00    -0.441 OA
ATOM     25  C   UNL     1      45.381 -42.798 104.587  1.00  0.00     0.090 C 
BRANCH  23  26
ATOM     26  C   UNL     1      43.720 -41.089 100.401  1.00  0.00     0.037 A 
ATOM     27  C   UNL     1      44.649 -41.744  99.578  1.00  0.00     0.014 A 
ATOM     28  C   UNL     1      42.789 -40.226  99.803  1.00  0.00     0.014 A 
ATOM     29  C   UNL     1      44.646 -41.540  98.195  1.00  0.00     0.001 A 
ATOM     30  C   UNL     1      42.785 -40.022  98.421  1.00  0.00     0.001 A 
ATOM     31  C   UNL     1      43.714 -40.679  97.617  1.00  0.00     0.000 A 
ENDBRANCH  23  26
ENDBRANCH  19  20
ENDBRANCH  17  19
ENDBRANCH   1  10
TORSDOF 9
ENDMDL
MODEL 5
REMARK VINA RESULT:    -9.273      4.435      7.780
REMARK INTER + INTRA:         -15.182
REMARK INTER:                 -14.130
REMARK INTRA:                  -1.052
REMARK UNBOUND:                -1.301
REMARK SMILES CCO[C@H](Cc1cccc2c1ccn2Cc1nc(-c2ccccc2)oc1C)C(=O)O
REMARK SMILES IDX 5 1 4 2 3 3 2 4 1 5 28 6 29 7 30 8 6 10 7 11 11 12 8 13
REMARK SMILES IDX 10 14 12 15 9 16 14 17 13 18 15 19 16 20 17 21 26 22 18 23
REMARK SMILES IDX 25 24 27 25 19 26 20 27 24 28 21 29 23 30 22 31
REMARK H PARENT 30 9
ROOT
ATOM      1  C   UNL     1      40.217 -40.112 105.276  1.00  0.00     0.080 C 
ENDROOT
BRANCH   1   2
ATOM      2  C   UNL     1      40.567 -39.138 104.141  1.00  0.00     0.231 C 
BRANCH   2   3
ATOM      3  O   UNL     1      41.591 -39.743 103.341  1.00  0.00    -0.366 OA
BRANCH   3   4
ATOM      4  C   UNL     1      42.468 -38.787 102.749  1.00  0.00     0.158 C 
ATOM      5  C   UNL     1      42.542 -39.072 101.262  1.00  0.00     0.035 C 
ENDBRANCH   3   4
ENDBRANCH   2   3
BRANCH   2   6
ATOM      6  C   UNL     1      39.300 -38.845 103.334  1.00  0.00     0.333 C 
ATOM      7  O   UNL     1      39.165 -38.048 102.419  1.00  0.00    -0.249 OA
BRANCH   6   8
ATOM      8  O   UNL     1      38.231 -39.555 103.761  1.00  0.00    -0.479 OA
ATOM      9  H   UNL     1      38.065 -40.185 103.026  1.00  0.00     0.296 HD
ENDBRANCH   6   8
ENDBRANCH   2   6
ENDBRANCH   1   2
BRANCH   1  10
ATOM     10  C   UNL     1      40.852 -39.696 106.591  1.00  0.00    -0.035 A 
ATOM     11  C   UNL     1      40.071 -38.998 107.533  1.00  0.00     0.004 A 
ATOM     12  C   UNL     1      42.209 -39.954 106.916  1.00  0.00     0.003 A 
ATOM     13  C   UNL     1      40.600 -38.579 108.751  1.00  0.00     0.002 A 
ATOM     14  C   UNL     1      42.718 -39.524 108.146  1.00  0.00     0.049 A 
ATOM     15  C   UNL     1      43.279 -40.596 106.228  1.00  0.00     0.028 A 
ATOM     16  C   UNL     1      41.930 -38.835 109.080  1.00  0.00     0.027 A 
ATOM     17  N   UNL     1      44.044 -39.915 108.197  1.00  0.00    -0.341 N 
ATOM     18  C   UNL     1      44.393 -40.550 107.031  1.00  0.00     0.087 A 
BRANCH  17  19
ATOM     19  C   UNL     1      44.966 -39.654 109.297  1.00  0.00     0.182 C 
BRANCH  19  20
ATOM     20  C   UNL     1      46.171 -38.903 108.856  1.00  0.00     0.102 A 
ATOM     21  N   UNL     1      46.175 -37.520 108.859  1.00  0.00    -0.212 NA
ATOM     22  C   UNL     1      47.387 -39.357 108.387  1.00  0.00     0.126 A 
ATOM     23  C   UNL     1      47.376 -37.194 108.418  1.00  0.00     0.226 A 
ATOM     24  O   UNL     1      48.164 -38.270 108.106  1.00  0.00    -0.441 OA
ATOM     25  C   UNL     1      47.985 -40.685 108.156  1.00  0.00     0.090 C 
BRANCH  23  26
ATOM     26  C   UNL     1      47.957 -35.868 108.217  1.00  0.00     0.037 A 
ATOM     27  C   UNL     1      47.999 -34.912 109.243  1.00  0.00     0.014 A 
ATOM     28  C   UNL     1      48.493 -35.530 106.965  1.00  0.00     0.014 A 
ATOM     29  C   UNL     1      48.562 -33.652 109.022  1.00  0.00     0.001 A 
ATOM     30  C   UNL     1      49.056 -34.270 106.743  1.00  0.00     0.001 A 
ATOM     31  C   UNL     1      49.090 -33.332 107.772  1.00  0.00     0.000 A 
ENDBRANCH  23  26
ENDBRANCH  19  20
ENDBRANCH  17  19
ENDBRANCH   1  10
TORSDOF 9
ENDMDL
MODEL 6
REMARK VINA RESULT:    -9.121      3.317      5.424
REMARK INTER + INTRA:         -14.955
REMARK INTER:                 -13.596
REMARK INTRA:                  -1.359
REMARK UNBOUND:                -1.301
REMARK SMILES CCO[C@H](Cc1cccc2c1ccn2Cc1nc(-c2ccccc2)oc1C)C(=O)O
REMARK SMILES IDX 5 1 4 2 3 3 2 4 1 5 28 6 29 7 30 8 6 10 7 11 11 12 8 13
REMARK SMILES IDX 10 14 12 15 9 16 14 17 13 18 15 19 16 20 17 21 26 22 18 23
REMARK SMILES IDX 25 24 27 25 19 26 20 27 24 28 21 29 23 30 22 31
REMARK H PARENT 30 9
ROOT
ATOM      1  C   UNL     1      35.487 -37.928 107.835  1.00  0.00     0.080 C 
ENDROOT
BRANCH   1   2
ATOM      2  C   UNL     1      36.738 -38.412 108.584  1.00  0.00     0.231 C 
BRANCH   2   3
ATOM      3  O   UNL     1      37.640 -37.305 108.698  1.00  0.00    -0.366 OA
BRANCH   3   4
ATOM      4  C   UNL     1      38.992 -37.710 108.895  1.00  0.00     0.158 C 
ATOM      5  C   UNL     1      39.322 -38.775 107.868  1.00  0.00     0.035 C 
ENDBRANCH   3   4
ENDBRANCH   2   3
BRANCH   2   6
ATOM      6  C   UNL     1      36.314 -38.956 109.951  1.00  0.00     0.333 C 
ATOM      7  O   UNL     1      36.093 -38.323 110.971  1.00  0.00    -0.249 OA
BRANCH   6   8
ATOM      8  O   UNL     1      36.234 -40.306 109.975  1.00  0.00    -0.479 OA
ATOM      9  H   UNL     1      36.735 -40.551 110.783  1.00  0.00     0.296 HD
ENDBRANCH   6   8
ENDBRANCH   2   6
ENDBRANCH   1   2
BRANCH   1  10
ATOM     10  C   UNL     1      35.546 -38.277 106.358  1.00  0.00    -0.035 A 
ATOM     11  C   UNL     1      35.303 -39.608 105.963  1.00  0.00     0.004 A 
ATOM     12  C   UNL     1      35.859 -37.333 105.347  1.00  0.00     0.003 A 
ATOM     13  C   UNL     1      35.355 -39.992 104.626  1.00  0.00     0.002 A 
ATOM     14  C   UNL     1      35.905 -37.742 104.010  1.00  0.00     0.049 A 
ATOM     15  C   UNL     1      36.174 -35.943 105.364  1.00  0.00     0.028 A 
ATOM     16  C   UNL     1      35.654 -39.068 103.626  1.00  0.00     0.027 A 
ATOM     17  N   UNL     1      36.217 -36.627 103.254  1.00  0.00    -0.341 N 
ATOM     18  C   UNL     1      36.398 -35.539 104.070  1.00  0.00     0.087 A 
BRANCH  17  19
ATOM     19  C   UNL     1      36.387 -36.602 101.804  1.00  0.00     0.182 C 
BRANCH  19  20
ATOM     20  C   UNL     1      37.813 -36.716 101.402  1.00  0.00     0.102 A 
ATOM     21  N   UNL     1      38.564 -37.814 101.782  1.00  0.00    -0.212 NA
ATOM     22  C   UNL     1      38.609 -35.856 100.673  1.00  0.00     0.126 A 
ATOM     23  C   UNL     1      39.758 -37.591 101.265  1.00  0.00     0.226 A 
ATOM     24  O   UNL     1      39.855 -36.409 100.580  1.00  0.00    -0.441 OA
ATOM     25  C   UNL     1      38.403 -34.556 100.007  1.00  0.00     0.090 C 
BRANCH  23  26
ATOM     26  C   UNL     1      40.962 -38.417 101.332  1.00  0.00     0.037 A 
ATOM     27  C   UNL     1      41.528 -38.808 102.554  1.00  0.00     0.014 A 
ATOM     28  C   UNL     1      41.580 -38.837 100.144  1.00  0.00     0.014 A 
ATOM     29  C   UNL     1      42.680 -39.598 102.587  1.00  0.00     0.001 A 
ATOM     30  C   UNL     1      42.732 -39.627 100.176  1.00  0.00     0.001 A 
ATOM     31  C   UNL     1      43.282 -40.007 101.398  1.00  0.00     0.000 A 
ENDBRANCH  23  26
ENDBRANCH  19  20
ENDBRANCH  17  19
ENDBRANCH   1  10
TORSDOF 9
ENDMDL
MODEL 7
REMARK VINA RESULT:    -9.036      4.664      6.788
REMARK INTER + INTRA:         -14.828
REMARK INTER:                 -13.419
REMARK INTRA:                  -1.408
REMARK UNBOUND:                -1.301
REMARK SMILES CCO[C@H](Cc1cccc2c1ccn2Cc1nc(-c2ccccc2)oc1C)C(=O)O
REMARK SMILES IDX 5 1 4 2 3 3 2 4 1 5 28 6 29 7 30 8 6 10 7 11 11 12 8 13
REMARK SMILES IDX 10 14 12 15 9 16 14 17 13 18 15 19 16 20 17 21 26 22 18 23
REMARK SMILES IDX 25 24 27 25 19 26 20 27 24 28 21 29 23 30 22 31
REMARK H PARENT 30 9
ROOT
ATOM      1  C   UNL     1      47.130 -36.659 109.587  1.00  0.00     0.080 C 
ENDROOT
BRANCH   1   2
ATOM      2  C   UNL     1      48.078 -35.961 108.599  1.00  0.00     0.231 C 
BRANCH   2   3
ATOM      3  O   UNL     1      47.494 -36.044 107.293  1.00  0.00    -0.366 OA
BRANCH   3   4
ATOM      4  C   UNL     1      48.463 -36.221 106.263  1.00  0.00     0.158 C 
ATOM      5  C   UNL     1      49.475 -37.245 106.738  1.00  0.00     0.035 C 
ENDBRANCH   3   4
ENDBRANCH   2   3
BRANCH   2   6
ATOM      6  C   UNL     1      48.283 -34.513 109.051  1.00  0.00     0.333 C 
ATOM      7  O   UNL     1      48.672 -33.570 108.382  1.00  0.00    -0.249 OA
BRANCH   6   8
ATOM      8  O   UNL     1      48.025 -34.333 110.367  1.00  0.00    -0.479 OA
ATOM      9  H   UNL     1      48.169 -35.224 110.753  1.00  0.00     0.296 HD
ENDBRANCH   6   8
ENDBRANCH   2   6
ENDBRANCH   1   2
BRANCH   1  10
ATOM     10  C   UNL     1      46.798 -38.073 109.145  1.00  0.00    -0.035 A 
ATOM     11  C   UNL     1      47.798 -39.064 109.231  1.00  0.00     0.004 A 
ATOM     12  C   UNL     1      45.534 -38.451 108.625  1.00  0.00     0.003 A 
ATOM     13  C   UNL     1      47.559 -40.376 108.830  1.00  0.00     0.002 A 
ATOM     14  C   UNL     1      45.318 -39.775 108.229  1.00  0.00     0.049 A 
ATOM     15  C   UNL     1      44.323 -37.742 108.377  1.00  0.00     0.028 A 
ATOM     16  C   UNL     1      46.317 -40.755 108.324  1.00  0.00     0.027 A 
ATOM     17  N   UNL     1      44.012 -39.857 107.778  1.00  0.00    -0.341 N 
ATOM     18  C   UNL     1      43.411 -38.625 107.850  1.00  0.00     0.087 A 
BRANCH  17  19
ATOM     19  C   UNL     1      43.368 -41.056 107.251  1.00  0.00     0.182 C 
BRANCH  19  20
ATOM     20  C   UNL     1      43.625 -41.240 105.798  1.00  0.00     0.102 A 
ATOM     21  N   UNL     1      42.946 -40.479 104.864  1.00  0.00    -0.212 NA
ATOM     22  C   UNL     1      44.471 -42.111 105.142  1.00  0.00     0.126 A 
ATOM     23  C   UNL     1      43.409 -40.896 103.700  1.00  0.00     0.226 A 
ATOM     24  O   UNL     1      44.341 -41.897 103.800  1.00  0.00    -0.441 OA
ATOM     25  C   UNL     1      45.433 -43.146 105.563  1.00  0.00     0.090 C 
BRANCH  23  26
ATOM     26  C   UNL     1      43.063 -40.447 102.354  1.00  0.00     0.037 A 
ATOM     27  C   UNL     1      43.500 -41.128 101.207  1.00  0.00     0.014 A 
ATOM     28  C   UNL     1      42.271 -39.301 102.188  1.00  0.00     0.014 A 
ATOM     29  C   UNL     1      43.154 -40.675  99.932  1.00  0.00     0.001 A 
ATOM     30  C   UNL     1      41.924 -38.847 100.914  1.00  0.00     0.001 A 
ATOM     31  C   UNL     1      42.366 -39.534  99.785  1.00  0.00     0.000 A 
ENDBRANCH  23  26
ENDBRANCH  19  20
ENDBRANCH  17  19
ENDBRANCH   1  10
TORSDOF 9
ENDMDL
MODEL 8
REMARK VINA RESULT:    -8.980      4.582      6.744
REMARK INTER + INTRA:         -14.744
REMARK INTER:                 -13.803
REMARK INTRA:                  -0.941
REMARK UNBOUND:                -1.301
REMARK SMILES CCO[C@H](Cc1cccc2c1ccn2Cc1nc(-c2ccccc2)oc1C)C(=O)O
REMARK SMILES IDX 5 1 4 2 3 3 2 4 1 5 28 6 29 7 30 8 6 10 7 11 11 12 8 13
REMARK SMILES IDX 10 14 12 15 9 16 14 17 13 18 15 19 16 20 17 21 26 22 18 23
REMARK SMILES IDX 25 24 27 25 19 26 20 27 24 28 21 29 23 30 22 31
REMARK H PARENT 30 9
ROOT
ATOM      1  C   UNL     1      47.150 -37.083 109.172  1.00  0.00     0.080 C 
ENDROOT
BRANCH   1   2
ATOM      2  C   UNL     1      48.383 -36.564 108.418  1.00  0.00     0.231 C 
BRANCH   2   3
ATOM      3  O   UNL     1      48.313 -37.047 107.071  1.00  0.00    -0.366 OA
BRANCH   3   4
ATOM      4  C   UNL     1      49.568 -37.514 106.583  1.00  0.00     0.158 C 
ATOM      5  C   UNL     1      49.368 -38.907 106.020  1.00  0.00     0.035 C 
ENDBRANCH   3   4
ENDBRANCH   2   3
BRANCH   2   6
ATOM      6  C   UNL     1      48.396 -35.034 108.485  1.00  0.00     0.333 C 
ATOM      7  O   UNL     1      47.657 -34.256 107.904  1.00  0.00    -0.249 OA
BRANCH   6   8
ATOM      8  O   UNL     1      49.391 -34.552 109.264  1.00  0.00    -0.479 OA
ATOM      9  H   UNL     1      49.090 -33.645 109.485  1.00  0.00     0.296 HD
ENDBRANCH   6   8
ENDBRANCH   2   6
ENDBRANCH   1   2
BRANCH   1  10
ATOM     10  C   UNL     1      46.766 -38.483 108.727  1.00  0.00    -0.035 A 
ATOM     11  C   UNL     1      47.527 -39.576 109.190  1.00  0.00     0.004 A 
ATOM     12  C   UNL     1      45.689 -38.752 107.844  1.00  0.00     0.003 A 
ATOM     13  C   UNL     1      47.232 -40.882 108.809  1.00  0.00     0.002 A 
ATOM     14  C   UNL     1      45.412 -40.072 107.475  1.00  0.00     0.049 A 
ATOM     15  C   UNL     1      44.739 -37.928 107.174  1.00  0.00     0.028 A 
ATOM     16  C   UNL     1      46.171 -41.154 107.947  1.00  0.00     0.027 A 
ATOM     17  N   UNL     1      44.319 -40.037 106.628  1.00  0.00    -0.341 N 
ATOM     18  C   UNL     1      43.918 -38.740 106.429  1.00  0.00     0.087 A 
BRANCH  17  19
ATOM     19  C   UNL     1      43.702 -41.194 105.987  1.00  0.00     0.182 C 
BRANCH  19  20
ATOM     20  C   UNL     1      43.240 -40.894 104.606  1.00  0.00     0.102 A 
ATOM     21  N   UNL     1      43.991 -41.290 103.515  1.00  0.00    -0.212 NA
ATOM     22  C   UNL     1      42.118 -40.224 104.164  1.00  0.00     0.126 A 
ATOM     23  C   UNL     1      43.301 -40.869 102.470  1.00  0.00     0.226 A 
ATOM     24  O   UNL     1      42.148 -40.204 102.798  1.00  0.00    -0.441 OA
ATOM     25  C   UNL     1      40.963 -39.580 104.816  1.00  0.00     0.090 C 
BRANCH  23  26
ATOM     26  C   UNL     1      43.601 -41.009 101.047  1.00  0.00     0.037 A 
ATOM     27  C   UNL     1      42.983 -40.209 100.075  1.00  0.00     0.014 A 
ATOM     28  C   UNL     1      44.533 -41.970 100.628  1.00  0.00     0.014 A 
ATOM     29  C   UNL     1      43.290 -40.365  98.721  1.00  0.00     0.001 A 
ATOM     30  C   UNL     1      44.840 -42.128  99.274  1.00  0.00     0.001 A 
ATOM     31  C   UNL     1      44.218 -41.325  98.321  1.00  0.00     0.000 A 
ENDBRANCH  23  26
ENDBRANCH  19  20
ENDBRANCH  17  19
ENDBRANCH   1  10
TORSDOF 9
ENDMDL
MODEL 9
REMARK VINA RESULT:    -8.865      4.229      6.692
REMARK INTER + INTRA:         -14.572
REMARK INTER:                 -13.445
REMARK INTRA:                  -1.127
REMARK UNBOUND:                -1.301
REMARK SMILES CCO[C@H](Cc1cccc2c1ccn2Cc1nc(-c2ccccc2)oc1C)C(=O)O
REMARK SMILES IDX 5 1 4 2 3 3 2 4 1 5 28 6 29 7 30 8 6 10 7 11 11 12 8 13
REMARK SMILES IDX 10 14 12 15 9 16 14 17 13 18 15 19 16 20 17 21 26 22 18 23
REMARK SMILES IDX 25 24 27 25 19 26 20 27 24 28 21 29 23 30 22 31
REMARK H PARENT 30 9
ROOT
ATOM      1  C   UNL     1      47.177 -38.053 109.224  1.00  0.00     0.080 C 
ENDROOT
BRANCH   1   2
ATOM      2  C   UNL     1      47.686 -36.899 108.346  1.00  0.00     0.231 C 
BRANCH   2   3
ATOM      3  O   UNL     1      48.066 -35.821 109.211  1.00  0.00    -0.366 OA
BRANCH   3   4
ATOM      4  C   UNL     1      48.064 -34.557 108.554  1.00  0.00     0.158 C 
ATOM      5  C   UNL     1      49.476 -34.007 108.581  1.00  0.00     0.035 C 
ENDBRANCH   3   4
ENDBRANCH   2   3
BRANCH   2   6
ATOM      6  C   UNL     1      48.858 -37.402 107.499  1.00  0.00     0.333 C 
ATOM      7  O   UNL     1      49.186 -37.031 106.384  1.00  0.00    -0.249 OA
BRANCH   6   8
ATOM      8  O   UNL     1      49.544 -38.403 108.097  1.00  0.00    -0.479 OA
ATOM      9  H   UNL     1      48.951 -39.179 107.998  1.00  0.00     0.296 HD
ENDBRANCH   6   8
ENDBRANCH   2   6
ENDBRANCH   1   2
BRANCH   1  10
ATOM     10  C   UNL     1      45.894 -38.652 108.677  1.00  0.00    -0.035 A 
ATOM     11  C   UNL     1      44.660 -38.196 109.185  1.00  0.00     0.004 A 
ATOM     12  C   UNL     1      45.868 -39.671 107.691  1.00  0.00     0.003 A 
ATOM     13  C   UNL     1      43.450 -38.715 108.732  1.00  0.00     0.002 A 
ATOM     14  C   UNL     1      44.640 -40.177 107.252  1.00  0.00     0.049 A 
ATOM     15  C   UNL     1      46.882 -40.376 106.979  1.00  0.00     0.028 A 
ATOM     16  C   UNL     1      43.417 -39.711 107.758  1.00  0.00     0.027 A 
ATOM     17  N   UNL     1      44.914 -41.137 106.294  1.00  0.00    -0.341 N 
ATOM     18  C   UNL     1      46.270 -41.273 106.138  1.00  0.00     0.087 A 
BRANCH  17  19
ATOM     19  C   UNL     1      43.921 -41.936 105.583  1.00  0.00     0.182 C 
BRANCH  19  20
ATOM     20  C   UNL     1      43.556 -41.342 104.270  1.00  0.00     0.102 A 
ATOM     21  N   UNL     1      44.062 -41.870 103.097  1.00  0.00    -0.212 NA
ATOM     22  C   UNL     1      42.752 -40.261 103.970  1.00  0.00     0.126 A 
ATOM     23  C   UNL     1      43.543 -41.115 102.145  1.00  0.00     0.226 A 
ATOM     24  O   UNL     1      42.737 -40.110 102.612  1.00  0.00    -0.441 OA
ATOM     25  C   UNL     1      41.948 -39.308 104.757  1.00  0.00     0.090 C 
BRANCH  23  26
ATOM     26  C   UNL     1      43.715 -41.205 100.697  1.00  0.00     0.037 A 
ATOM     27  C   UNL     1      42.945 -40.441  99.808  1.00  0.00     0.014 A 
ATOM     28  C   UNL     1      44.677 -42.079 100.168  1.00  0.00     0.014 A 
ATOM     29  C   UNL     1      43.133 -40.548  98.427  1.00  0.00     0.001 A 
ATOM     30  C   UNL     1      44.865 -42.188  98.788  1.00  0.00     0.001 A 
ATOM     31  C   UNL     1      44.092 -41.421  97.918  1.00  0.00     0.000 A 
ENDBRANCH  23  26
ENDBRANCH  19  20
ENDBRANCH  17  19
ENDBRANCH   1  10
TORSDOF 9
ENDMDL
