MODEL 1
REMARK VINA RESULT:   -11.672      0.000      0.000
REMARK INTER + INTRA:         -17.423
REMARK INTER:                 -15.766
REMARK INTRA:                  -1.657
REMARK UNBOUND:                -1.657
REMARK SMILES C=CC(=O)N1[C@@H]2CC[C@H]1C[C@@H](n1nc(-c3cc(F)c(Oc4ccc5c(c4)ncn5C)c(Cl)c3)c3c(C)ncnc31)C2
REMARK SMILES IDX 12 1 13 2 14 3 34 4 35 5 36 6 37 7 38 8 39 9 40 10 11 11
REMARK SMILES IDX 5 12 6 13 9 14 7 15 41 16 8 17 10 18 3 19 4 20 2 21 1 22
REMARK SMILES IDX 15 23 16 24 33 25 17 26 31 27 19 28 18 29 32 30 20 31 21 32
REMARK SMILES IDX 22 33 26 34 23 35 25 36 24 37 27 38 29 39 28 40 30 41
REMARK H PARENT
ROOT
ATOM      1  N   UNL     1      17.624  35.057  15.874  1.00  0.00    -0.243 N 
ATOM      2  N   UNL     1      18.089  34.918  14.617  1.00  0.00    -0.170 NA
ATOM      3  C   UNL     1      17.045  34.438  13.923  1.00  0.00     0.104 A 
ATOM      4  C   UNL     1      15.886  34.304  14.744  1.00  0.00     0.068 A 
ATOM      5  C   UNL     1      14.540  33.927  14.620  1.00  0.00     0.052 A 
ATOM      6  C   UNL     1      13.866  33.510  13.349  1.00  0.00     0.067 C 
ATOM      7  N   UNL     1      13.768  33.930  15.744  1.00  0.00    -0.241 NA
ATOM      8  C   UNL     1      14.315  34.318  16.913  1.00  0.00     0.224 A 
ATOM      9  N   UNL     1      15.575  34.722  17.132  1.00  0.00    -0.217 NA
ATOM     10  C   UNL     1      16.308  34.695  16.005  1.00  0.00     0.162 A 
ENDROOT
BRANCH   1  11
ATOM     11  C   UNL     1      18.489  35.551  16.947  1.00  0.00     0.114 C 
ATOM     12  N   UNL     1      21.243  35.563  17.619  1.00  0.00    -0.333 N 
ATOM     13  C   UNL     1      20.661  34.246  17.459  1.00  0.00     0.088 C 
ATOM     14  C   UNL     1      20.923  36.293  16.404  1.00  0.00     0.088 C 
ATOM     15  C   UNL     1      20.975  33.900  16.001  1.00  0.00     0.027 C 
ATOM     16  C   UNL     1      19.154  34.383  17.718  1.00  0.00     0.052 C 
ATOM     17  C   UNL     1      21.205  35.255  15.319  1.00  0.00     0.027 C 
ATOM     18  C   UNL     1      19.441  36.695  16.496  1.00  0.00     0.052 C 
BRANCH  12  19
ATOM     19  C   UNL     1      21.730  36.004  18.823  1.00  0.00     0.246 C 
ATOM     20  O   UNL     1      22.606  35.403  19.442  1.00  0.00    -0.270 OA
BRANCH  19  21
ATOM     21  C   UNL     1      21.136  37.252  19.370  1.00  0.00     0.063 C 
ATOM     22  C   UNL     1      20.021  37.199  20.109  1.00  0.00     0.014 C 
ENDBRANCH  19  21
ENDBRANCH  12  19
ENDBRANCH   1  11
BRANCH   3  23
ATOM     23  C   UNL     1      17.207  34.135  12.507  1.00  0.00     0.007 A 
ATOM     24  C   UNL     1      18.160  33.204  12.082  1.00  0.00     0.053 A 
ATOM     25  C   UNL     1      16.436  34.817  11.555  1.00  0.00     0.035 A 
ATOM     26  C   UNL     1      18.306  32.938  10.722  1.00  0.00     0.167 A 
ATOM     27  C   UNL     1      16.594  34.546  10.192  1.00  0.00     0.087 A 
ATOM     28  C   UNL     1      17.513  33.583   9.772  1.00  0.00     0.181 A 
ATOM     29  F   UNL     1      19.243  32.058  10.343  1.00  0.00    -0.203 F 
ATOM     30  Cl  UNL     1      15.620  35.415   9.063  1.00  0.00    -0.080 Cl
BRANCH  28  31
ATOM     31  O   UNL     1      17.679  33.337   8.428  1.00  0.00    -0.453 OA
BRANCH  31  32
ATOM     32  C   UNL     1      17.112  32.173   7.950  1.00  0.00     0.129 A 
ATOM     33  C   UNL     1      15.724  32.062   8.062  1.00  0.00     0.049 A 
ATOM     34  C   UNL     1      17.885  31.121   7.441  1.00  0.00     0.077 A 
ATOM     35  C   UNL     1      15.051  30.912   7.633  1.00  0.00     0.032 A 
ATOM     36  C   UNL     1      17.225  29.961   7.008  1.00  0.00     0.092 A 
ATOM     37  C   UNL     1      15.837  29.881   7.106  1.00  0.00     0.068 A 
ATOM     38  N   UNL     1      17.751  28.809   6.473  1.00  0.00    -0.237 NA
ATOM     39  N   UNL     1      15.543  28.638   6.603  1.00  0.00    -0.334 N 
ATOM     40  C   UNL     1      16.714  28.036   6.240  1.00  0.00     0.200 A 
ATOM     41  C   UNL     1      14.229  28.061   6.478  1.00  0.00     0.151 C 
ENDBRANCH  31  32
ENDBRANCH  28  31
ENDBRANCH   3  23
TORSDOF 6
ENDMDL
MODEL 2
REMARK VINA RESULT:   -10.316      1.427      2.012
REMARK INTER + INTRA:         -15.591
REMARK INTER:                 -14.156
REMARK INTRA:                  -1.434
REMARK UNBOUND:                -1.657
REMARK SMILES C=CC(=O)N1[C@@H]2CC[C@H]1C[C@@H](n1nc(-c3cc(F)c(Oc4ccc5c(c4)ncn5C)c(Cl)c3)c3c(C)ncnc31)C2
REMARK SMILES IDX 12 1 13 2 14 3 34 4 35 5 36 6 37 7 38 8 39 9 40 10 11 11
REMARK SMILES IDX 5 12 6 13 9 14 7 15 41 16 8 17 10 18 3 19 4 20 2 21 1 22
REMARK SMILES IDX 15 23 16 24 33 25 17 26 31 27 19 28 18 29 32 30 20 31 21 32
REMARK SMILES IDX 22 33 26 34 23 35 25 36 24 37 27 38 29 39 28 40 30 41
REMARK H PARENT
ROOT
ATOM      1  N   UNL     1      17.681  35.137  16.016  1.00  0.00    -0.243 N 
ATOM      2  N   UNL     1      18.087  35.065  14.733  1.00  0.00    -0.170 NA
ATOM      3  C   UNL     1      17.011  34.624  14.064  1.00  0.00     0.104 A 
ATOM      4  C   UNL     1      15.891  34.447  14.930  1.00  0.00     0.068 A 
ATOM      5  C   UNL     1      14.538  34.079  14.848  1.00  0.00     0.052 A 
ATOM      6  C   UNL     1      13.805  33.732  13.589  1.00  0.00     0.067 C 
ATOM      7  N   UNL     1      13.820  34.023  16.005  1.00  0.00    -0.241 NA
ATOM      8  C   UNL     1      14.421  34.348  17.166  1.00  0.00     0.224 A 
ATOM      9  N   UNL     1      15.691  34.738  17.348  1.00  0.00    -0.217 NA
ATOM     10  C   UNL     1      16.371  34.770  16.188  1.00  0.00     0.162 A 
ENDROOT
BRANCH   1  11
ATOM     11  C   UNL     1      18.596  35.573  17.073  1.00  0.00     0.114 C 
ATOM     12  N   UNL     1      21.370  35.481  17.651  1.00  0.00    -0.333 N 
ATOM     13  C   UNL     1      20.742  34.188  17.473  1.00  0.00     0.088 C 
ATOM     14  C   UNL     1      21.033  36.256  16.470  1.00  0.00     0.088 C 
ATOM     15  C   UNL     1      20.996  33.877  15.996  1.00  0.00     0.027 C 
ATOM     16  C   UNL     1      19.250  34.362  17.787  1.00  0.00     0.052 C 
ATOM     17  C   UNL     1      21.247  35.244  15.345  1.00  0.00     0.027 C 
ATOM     18  C   UNL     1      19.568  36.700  16.623  1.00  0.00     0.052 C 
BRANCH  12  19
ATOM     19  C   UNL     1      21.911  35.871  18.850  1.00  0.00     0.246 C 
ATOM     20  O   UNL     1      21.559  36.894  19.433  1.00  0.00    -0.270 OA
BRANCH  19  21
ATOM     21  C   UNL     1      22.971  34.999  19.421  1.00  0.00     0.063 C 
ATOM     22  C   UNL     1      24.242  35.420  19.456  1.00  0.00     0.014 C 
ENDBRANCH  19  21
ENDBRANCH  12  19
ENDBRANCH   1  11
BRANCH   3  23
ATOM     23  C   UNL     1      17.107  34.396  12.628  1.00  0.00     0.007 A 
ATOM     24  C   UNL     1      16.329  35.140  11.735  1.00  0.00     0.053 A 
ATOM     25  C   UNL     1      17.948  33.387  12.136  1.00  0.00     0.035 A 
ATOM     26  C   UNL     1      16.428  34.897  10.367  1.00  0.00     0.167 A 
ATOM     27  C   UNL     1      18.036  33.149  10.762  1.00  0.00     0.087 A 
ATOM     28  C   UNL     1      17.294  33.923   9.868  1.00  0.00     0.181 A 
ATOM     29  F   UNL     1      15.654  35.611   9.537  1.00  0.00    -0.203 F 
ATOM     30  Cl  UNL     1      19.087  31.896  10.209  1.00  0.00    -0.080 Cl
BRANCH  28  31
ATOM     31  O   UNL     1      17.368  33.669   8.518  1.00  0.00    -0.453 OA
BRANCH  31  32
ATOM     32  C   UNL     1      16.780  32.496   8.088  1.00  0.00     0.129 A 
ATOM     33  C   UNL     1      17.325  31.905   6.945  1.00  0.00     0.049 A 
ATOM     34  C   UNL     1      15.650  31.955   8.714  1.00  0.00     0.077 A 
ATOM     35  C   UNL     1      16.788  30.730   6.408  1.00  0.00     0.032 A 
ATOM     36  C   UNL     1      15.099  30.777   8.187  1.00  0.00     0.092 A 
ATOM     37  C   UNL     1      15.674  30.191   7.061  1.00  0.00     0.068 A 
ATOM     38  N   UNL     1      14.010  30.057   8.619  1.00  0.00    -0.237 NA
ATOM     39  N   UNL     1      14.894  29.084   6.832  1.00  0.00    -0.334 N 
ATOM     40  C   UNL     1      13.915  29.047   7.784  1.00  0.00     0.200 A 
ATOM     41  C   UNL     1      15.071  28.125   5.772  1.00  0.00     0.151 C 
ENDBRANCH  31  32
ENDBRANCH  28  31
ENDBRANCH   3  23
TORSDOF 6
ENDMDL
MODEL 3
REMARK VINA RESULT:   -10.169      3.776      9.077
REMARK INTER + INTRA:         -15.393
REMARK INTER:                 -13.950
REMARK INTRA:                  -1.442
REMARK UNBOUND:                -1.657
REMARK SMILES C=CC(=O)N1[C@@H]2CC[C@H]1C[C@@H](n1nc(-c3cc(F)c(Oc4ccc5c(c4)ncn5C)c(Cl)c3)c3c(C)ncnc31)C2
REMARK SMILES IDX 12 1 13 2 14 3 34 4 35 5 36 6 37 7 38 8 39 9 40 10 11 11
REMARK SMILES IDX 5 12 6 13 9 14 7 15 41 16 8 17 10 18 3 19 4 20 2 21 1 22
REMARK SMILES IDX 15 23 16 24 33 25 17 26 31 27 19 28 18 29 32 30 20 31 21 32
REMARK SMILES IDX 22 33 26 34 23 35 25 36 24 37 27 38 29 39 28 40 30 41
REMARK H PARENT
ROOT
ATOM      1  N   UNL     1      16.574  33.960  13.224  1.00  0.00    -0.243 N 
ATOM      2  N   UNL     1      17.916  33.934  13.348  1.00  0.00    -0.170 NA
ATOM      3  C   UNL     1      18.139  34.218  14.641  1.00  0.00     0.104 A 
ATOM      4  C   UNL     1      16.918  34.392  15.358  1.00  0.00     0.068 A 
ATOM      5  C   UNL     1      16.489  34.642  16.672  1.00  0.00     0.052 A 
ATOM      6  C   UNL     1      17.382  34.800  17.864  1.00  0.00     0.067 C 
ATOM      7  N   UNL     1      15.149  34.757  16.896  1.00  0.00    -0.241 NA
ATOM      8  C   UNL     1      14.297  34.601  15.865  1.00  0.00     0.224 A 
ATOM      9  N   UNL     1      14.600  34.333  14.586  1.00  0.00    -0.217 NA
ATOM     10  C   UNL     1      15.929  34.238  14.401  1.00  0.00     0.162 A 
ENDROOT
BRANCH   1  11
ATOM     11  C   UNL     1      15.933  33.708  11.932  1.00  0.00     0.114 C 
ATOM     12  N   UNL     1      16.674  32.927   9.309  1.00  0.00    -0.333 N 
ATOM     13  C   UNL     1      17.306  34.141   9.784  1.00  0.00     0.088 C 
ATOM     14  C   UNL     1      16.926  31.919  10.324  1.00  0.00     0.088 C 
ATOM     15  C   UNL     1      18.636  33.641  10.355  1.00  0.00     0.027 C 
ATOM     16  C   UNL     1      16.391  34.735  10.865  1.00  0.00     0.052 C 
ATOM     17  C   UNL     1      18.399  32.155  10.657  1.00  0.00     0.027 C 
ATOM     18  C   UNL     1      15.978  32.215  11.499  1.00  0.00     0.052 C 
BRANCH  12  19
ATOM     19  C   UNL     1      15.810  32.924   8.243  1.00  0.00     0.246 C 
ATOM     20  O   UNL     1      15.405  33.959   7.717  1.00  0.00    -0.270 OA
BRANCH  19  21
ATOM     21  C   UNL     1      15.360  31.597   7.749  1.00  0.00     0.063 C 
ATOM     22  C   UNL     1      16.148  30.877   6.940  1.00  0.00     0.014 C 
ENDBRANCH  19  21
ENDBRANCH  12  19
ENDBRANCH   1  11
BRANCH   3  23
ATOM     23  C   UNL     1      19.510  34.306  15.127  1.00  0.00     0.007 A 
ATOM     24  C   UNL     1      20.002  33.373  16.044  1.00  0.00     0.053 A 
ATOM     25  C   UNL     1      20.331  35.365  14.711  1.00  0.00     0.035 A 
ATOM     26  C   UNL     1      21.312  33.483  16.504  1.00  0.00     0.167 A 
ATOM     27  C   UNL     1      21.642  35.469  15.183  1.00  0.00     0.087 A 
ATOM     28  C   UNL     1      22.148  34.510  16.063  1.00  0.00     0.181 A 
ATOM     29  F   UNL     1      21.749  32.586  17.400  1.00  0.00    -0.203 F 
ATOM     30  Cl  UNL     1      22.610  36.791  14.640  1.00  0.00    -0.080 Cl
BRANCH  28  31
ATOM     31  O   UNL     1      23.433  34.631  16.541  1.00  0.00    -0.453 OA
BRANCH  31  32
ATOM     32  C   UNL     1      24.434  34.153  15.719  1.00  0.00     0.129 A 
ATOM     33  C   UNL     1      25.632  34.872  15.710  1.00  0.00     0.049 A 
ATOM     34  C   UNL     1      24.246  33.047  14.879  1.00  0.00     0.077 A 
ATOM     35  C   UNL     1      26.701  34.491  14.892  1.00  0.00     0.032 A 
ATOM     36  C   UNL     1      25.309  32.653  14.053  1.00  0.00     0.092 A 
ATOM     37  C   UNL     1      26.504  33.370  14.078  1.00  0.00     0.068 A 
ATOM     38  N   UNL     1      25.375  31.612  13.157  1.00  0.00    -0.237 NA
ATOM     39  N   UNL     1      27.298  32.718  13.167  1.00  0.00    -0.334 N 
ATOM     40  C   UNL     1      26.582  31.679  12.643  1.00  0.00     0.200 A 
ATOM     41  C   UNL     1      28.651  33.066  12.818  1.00  0.00     0.151 C 
ENDBRANCH  31  32
ENDBRANCH  28  31
ENDBRANCH   3  23
TORSDOF 6
ENDMDL
MODEL 4
REMARK VINA RESULT:    -9.579      2.413      3.333
REMARK INTER + INTRA:         -14.596
REMARK INTER:                 -13.190
REMARK INTRA:                  -1.406
REMARK UNBOUND:                -1.657
REMARK SMILES C=CC(=O)N1[C@@H]2CC[C@H]1C[C@@H](n1nc(-c3cc(F)c(Oc4ccc5c(c4)ncn5C)c(Cl)c3)c3c(C)ncnc31)C2
REMARK SMILES IDX 12 1 13 2 14 3 34 4 35 5 36 6 37 7 38 8 39 9 40 10 11 11
REMARK SMILES IDX 5 12 6 13 9 14 7 15 41 16 8 17 10 18 3 19 4 20 2 21 1 22
REMARK SMILES IDX 15 23 16 24 33 25 17 26 31 27 19 28 18 29 32 30 20 31 21 32
REMARK SMILES IDX 22 33 26 34 23 35 25 36 24 37 27 38 29 39 28 40 30 41
REMARK H PARENT
ROOT
ATOM      1  N   UNL     1      20.192  33.741  15.519  1.00  0.00    -0.243 N 
ATOM      2  N   UNL     1      19.833  33.570  14.232  1.00  0.00    -0.170 NA
ATOM      3  C   UNL     1      18.504  33.755  14.225  1.00  0.00     0.104 A 
ATOM      4  C   UNL     1      18.014  34.085  15.523  1.00  0.00     0.068 A 
ATOM      5  C   UNL     1      16.799  34.427  16.140  1.00  0.00     0.052 A 
ATOM      6  C   UNL     1      15.480  34.568  15.446  1.00  0.00     0.067 C 
ATOM      7  N   UNL     1      16.806  34.647  17.486  1.00  0.00    -0.241 NA
ATOM      8  C   UNL     1      17.969  34.557  18.159  1.00  0.00     0.224 A 
ATOM      9  N   UNL     1      19.181  34.267  17.663  1.00  0.00    -0.217 NA
ATOM     10  C   UNL     1      19.134  34.046  16.337  1.00  0.00     0.162 A 
ENDROOT
BRANCH   1  11
ATOM     11  C   UNL     1      21.588  33.603  15.938  1.00  0.00     0.114 C 
ATOM     12  N   UNL     1      24.164  34.345  15.017  1.00  0.00    -0.333 N 
ATOM     13  C   UNL     1      23.407  33.515  14.103  1.00  0.00     0.088 C 
ATOM     14  C   UNL     1      23.304  35.467  15.347  1.00  0.00     0.088 C 
ATOM     15  C   UNL     1      22.736  34.535  13.179  1.00  0.00     0.027 C 
ATOM     16  C   UNL     1      22.391  32.727  14.942  1.00  0.00     0.052 C 
ATOM     17  C   UNL     1      22.722  35.841  13.984  1.00  0.00     0.027 C 
ATOM     18  C   UNL     1      22.249  34.951  16.341  1.00  0.00     0.052 C 
BRANCH  12  19
ATOM     19  C   UNL     1      25.332  33.915  15.595  1.00  0.00     0.246 C 
ATOM     20  O   UNL     1      26.206  33.326  14.962  1.00  0.00    -0.270 OA
BRANCH  19  21
ATOM     21  C   UNL     1      25.497  34.178  17.048  1.00  0.00     0.063 C 
ATOM     22  C   UNL     1      25.430  33.170  17.927  1.00  0.00     0.014 C 
ENDBRANCH  19  21
ENDBRANCH  12  19
ENDBRANCH   1  11
BRANCH   3  23
ATOM     23  C   UNL     1      17.769  33.610  12.975  1.00  0.00     0.007 A 
ATOM     24  C   UNL     1      18.087  34.399  11.866  1.00  0.00     0.053 A 
ATOM     25  C   UNL     1      16.699  32.707  12.896  1.00  0.00     0.035 A 
ATOM     26  C   UNL     1      17.363  34.252  10.685  1.00  0.00     0.167 A 
ATOM     27  C   UNL     1      15.976  32.570  11.708  1.00  0.00     0.087 A 
ATOM     28  C   UNL     1      16.323  33.325  10.586  1.00  0.00     0.181 A 
ATOM     29  F   UNL     1      17.676  35.038   9.645  1.00  0.00    -0.203 F 
ATOM     30  Cl  UNL     1      14.669  31.444  11.664  1.00  0.00    -0.080 Cl
BRANCH  28  31
ATOM     31  O   UNL     1      15.594  33.203   9.426  1.00  0.00    -0.453 OA
BRANCH  31  32
ATOM     32  C   UNL     1      15.825  32.063   8.681  1.00  0.00     0.129 A 
ATOM     33  C   UNL     1      17.159  31.765   8.392  1.00  0.00     0.049 A 
ATOM     34  C   UNL     1      14.781  31.278   8.175  1.00  0.00     0.077 A 
ATOM     35  C   UNL     1      17.503  30.650   7.621  1.00  0.00     0.032 A 
ATOM     36  C   UNL     1      15.110  30.157   7.399  1.00  0.00     0.092 A 
ATOM     37  C   UNL     1      16.448  29.864   7.144  1.00  0.00     0.068 A 
ATOM     38  N   UNL     1      14.279  29.238   6.802  1.00  0.00    -0.237 NA
ATOM     39  N   UNL     1      16.395  28.728   6.374  1.00  0.00    -0.334 N 
ATOM     40  C   UNL     1      15.082  28.394   6.195  1.00  0.00     0.200 A 
ATOM     41  C   UNL     1      17.524  28.009   5.843  1.00  0.00     0.151 C 
ENDBRANCH  31  32
ENDBRANCH  28  31
ENDBRANCH   3  23
TORSDOF 6
ENDMDL
MODEL 5
REMARK VINA RESULT:    -9.528      2.265      3.096
REMARK INTER + INTRA:         -14.527
REMARK INTER:                 -14.552
REMARK INTRA:                   0.025
REMARK UNBOUND:                -1.657
REMARK SMILES C=CC(=O)N1[C@@H]2CC[C@H]1C[C@@H](n1nc(-c3cc(F)c(Oc4ccc5c(c4)ncn5C)c(Cl)c3)c3c(C)ncnc31)C2
REMARK SMILES IDX 12 1 13 2 14 3 34 4 35 5 36 6 37 7 38 8 39 9 40 10 11 11
REMARK SMILES IDX 5 12 6 13 9 14 7 15 41 16 8 17 10 18 3 19 4 20 2 21 1 22
REMARK SMILES IDX 15 23 16 24 33 25 17 26 31 27 19 28 18 29 32 30 20 31 21 32
REMARK SMILES IDX 22 33 26 34 23 35 25 36 24 37 27 38 29 39 28 40 30 41
REMARK H PARENT
ROOT
ATOM      1  N   UNL     1      20.292  33.849  15.137  1.00  0.00    -0.243 N 
ATOM      2  N   UNL     1      20.210  33.784  13.794  1.00  0.00    -0.170 NA
ATOM      3  C   UNL     1      18.894  33.811  13.536  1.00  0.00     0.104 A 
ATOM      4  C   UNL     1      18.127  33.933  14.733  1.00  0.00     0.068 A 
ATOM      5  C   UNL     1      16.783  34.058  15.120  1.00  0.00     0.052 A 
ATOM      6  C   UNL     1      15.611  34.122  14.190  1.00  0.00     0.067 C 
ATOM      7  N   UNL     1      16.505  34.124  16.453  1.00  0.00    -0.241 NA
ATOM      8  C   UNL     1      17.522  34.095  17.336  1.00  0.00     0.224 A 
ATOM      9  N   UNL     1      18.833  34.007  17.071  1.00  0.00    -0.217 NA
ATOM     10  C   UNL     1      19.068  33.933  15.749  1.00  0.00     0.162 A 
ENDROOT
BRANCH   1  11
ATOM     11  C   UNL     1      21.590  33.828  15.814  1.00  0.00     0.114 C 
ATOM     12  N   UNL     1      24.341  33.905  15.135  1.00  0.00    -0.333 N 
ATOM     13  C   UNL     1      23.603  32.799  14.560  1.00  0.00     0.088 C 
ATOM     14  C   UNL     1      23.607  35.106  14.780  1.00  0.00     0.088 C 
ATOM     15  C   UNL     1      23.204  33.327  13.179  1.00  0.00     0.027 C 
ATOM     16  C   UNL     1      22.389  32.546  15.465  1.00  0.00     0.052 C 
ATOM     17  C   UNL     1      23.264  34.854  13.312  1.00  0.00     0.027 C 
ATOM     18  C   UNL     1      22.372  35.168  15.695  1.00  0.00     0.052 C 
BRANCH  12  19
ATOM     19  C   UNL     1      25.354  33.712  16.040  1.00  0.00     0.246 C 
ATOM     20  O   UNL     1      25.153  33.301  17.181  1.00  0.00    -0.270 OA
BRANCH  19  21
ATOM     21  C   UNL     1      26.731  34.041  15.585  1.00  0.00     0.063 C 
ATOM     22  C   UNL     1      27.412  33.178  14.820  1.00  0.00     0.014 C 
ENDBRANCH  19  21
ENDBRANCH  12  19
ENDBRANCH   1  11
BRANCH   3  23
ATOM     23  C   UNL     1      18.434  33.724  12.155  1.00  0.00     0.007 A 
ATOM     24  C   UNL     1      19.016  32.815  11.267  1.00  0.00     0.053 A 
ATOM     25  C   UNL     1      17.432  34.592  11.697  1.00  0.00     0.035 A 
ATOM     26  C   UNL     1      18.569  32.757   9.949  1.00  0.00     0.167 A 
ATOM     27  C   UNL     1      16.994  34.528  10.372  1.00  0.00     0.087 A 
ATOM     28  C   UNL     1      17.544  33.589   9.497  1.00  0.00     0.181 A 
ATOM     29  F   UNL     1      19.162  31.891   9.114  1.00  0.00    -0.203 F 
ATOM     30  Cl  UNL     1      15.759  35.619   9.860  1.00  0.00    -0.080 Cl
BRANCH  28  31
ATOM     31  O   UNL     1      17.124  33.546   8.187  1.00  0.00    -0.453 OA
BRANCH  31  32
ATOM     32  C   UNL     1      16.689  32.319   7.729  1.00  0.00     0.129 A 
ATOM     33  C   UNL     1      15.314  32.079   7.794  1.00  0.00     0.049 A 
ATOM     34  C   UNL     1      17.576  31.329   7.286  1.00  0.00     0.077 A 
ATOM     35  C   UNL     1      14.769  30.859   7.382  1.00  0.00     0.032 A 
ATOM     36  C   UNL     1      17.045  30.100   6.870  1.00  0.00     0.092 A 
ATOM     37  C   UNL     1      15.668  29.891   6.920  1.00  0.00     0.068 A 
ATOM     38  N   UNL     1      17.698  28.987   6.395  1.00  0.00    -0.237 NA
ATOM     39  N   UNL     1      15.512  28.610   6.450  1.00  0.00    -0.334 N 
ATOM     40  C   UNL     1      16.749  28.111   6.152  1.00  0.00     0.200 A 
ATOM     41  C   UNL     1      14.264  27.908   6.297  1.00  0.00     0.151 C 
ENDBRANCH  31  32
ENDBRANCH  28  31
ENDBRANCH   3  23
TORSDOF 6
ENDMDL
MODEL 6
REMARK VINA RESULT:    -9.447      3.216      9.998
REMARK INTER + INTRA:         -14.418
REMARK INTER:                 -13.579
REMARK INTRA:                  -0.839
REMARK UNBOUND:                -1.657
REMARK SMILES C=CC(=O)N1[C@@H]2CC[C@H]1C[C@@H](n1nc(-c3cc(F)c(Oc4ccc5c(c4)ncn5C)c(Cl)c3)c3c(C)ncnc31)C2
REMARK SMILES IDX 12 1 13 2 14 3 34 4 35 5 36 6 37 7 38 8 39 9 40 10 11 11
REMARK SMILES IDX 5 12 6 13 9 14 7 15 41 16 8 17 10 18 3 19 4 20 2 21 1 22
REMARK SMILES IDX 15 23 16 24 33 25 17 26 31 27 19 28 18 29 32 30 20 31 21 32
REMARK SMILES IDX 22 33 26 34 23 35 25 36 24 37 27 38 29 39 28 40 30 41
REMARK H PARENT
ROOT
ATOM      1  N   UNL     1      16.461  34.316  13.286  1.00  0.00    -0.243 N 
ATOM      2  N   UNL     1      17.754  34.657  13.451  1.00  0.00    -0.170 NA
ATOM      3  C   UNL     1      17.861  34.947  14.757  1.00  0.00     0.104 A 
ATOM      4  C   UNL     1      16.624  34.751  15.441  1.00  0.00     0.068 A 
ATOM      5  C   UNL     1      16.115  34.827  16.747  1.00  0.00     0.052 A 
ATOM      6  C   UNL     1      16.902  35.184  17.969  1.00  0.00     0.067 C 
ATOM      7  N   UNL     1      14.791  34.560  16.933  1.00  0.00    -0.241 NA
ATOM      8  C   UNL     1      14.038  34.210  15.872  1.00  0.00     0.224 A 
ATOM      9  N   UNL     1      14.431  34.081  14.596  1.00  0.00    -0.217 NA
ATOM     10  C   UNL     1      15.738  34.363  14.450  1.00  0.00     0.162 A 
ENDROOT
BRANCH   1  11
ATOM     11  C   UNL     1      15.943  33.941  11.968  1.00  0.00     0.114 C 
ATOM     12  N   UNL     1      16.919  32.891   9.523  1.00  0.00    -0.333 N 
ATOM     13  C   UNL     1      17.527  34.139   9.935  1.00  0.00     0.088 C 
ATOM     14  C   UNL     1      17.051  31.988  10.653  1.00  0.00     0.088 C 
ATOM     15  C   UNL     1      18.785  33.686  10.681  1.00  0.00     0.027 C 
ATOM     16  C   UNL     1      16.524  34.850  10.855  1.00  0.00     0.052 C 
ATOM     17  C   UNL     1      18.489  32.241  11.104  1.00  0.00     0.027 C 
ATOM     18  C   UNL     1      16.000  32.411  11.693  1.00  0.00     0.052 C 
BRANCH  12  19
ATOM     19  C   UNL     1      16.163  32.790   8.382  1.00  0.00     0.246 C 
ATOM     20  O   UNL     1      15.608  33.758   7.868  1.00  0.00    -0.270 OA
BRANCH  19  21
ATOM     21  C   UNL     1      16.025  31.434   7.789  1.00  0.00     0.063 C 
ATOM     22  C   UNL     1      14.815  30.874   7.664  1.00  0.00     0.014 C 
ENDBRANCH  19  21
ENDBRANCH  12  19
ENDBRANCH   1  11
BRANCH   3  23
ATOM     23  C   UNL     1      19.143  35.393  15.287  1.00  0.00     0.007 A 
ATOM     24  C   UNL     1      19.201  36.193  16.432  1.00  0.00     0.053 A 
ATOM     25  C   UNL     1      20.329  35.061  14.616  1.00  0.00     0.035 A 
ATOM     26  C   UNL     1      20.437  36.618  16.914  1.00  0.00     0.167 A 
ATOM     27  C   UNL     1      21.564  35.496  15.106  1.00  0.00     0.087 A 
ATOM     28  C   UNL     1      21.624  36.256  16.276  1.00  0.00     0.181 A 
ATOM     29  F   UNL     1      20.460  37.403  18.001  1.00  0.00    -0.203 F 
ATOM     30  Cl  UNL     1      22.993  35.059  14.243  1.00  0.00    -0.080 Cl
BRANCH  28  31
ATOM     31  O   UNL     1      22.840  36.701  16.740  1.00  0.00    -0.453 OA
BRANCH  31  32
ATOM     32  C   UNL     1      23.595  35.782  17.443  1.00  0.00     0.129 A 
ATOM     33  C   UNL     1      24.919  35.616  17.031  1.00  0.00     0.049 A 
ATOM     34  C   UNL     1      23.051  35.000  18.470  1.00  0.00     0.077 A 
ATOM     35  C   UNL     1      25.763  34.691  17.656  1.00  0.00     0.032 A 
ATOM     36  C   UNL     1      23.885  34.068  19.106  1.00  0.00     0.092 A 
ATOM     37  C   UNL     1      25.210  33.936  18.696  1.00  0.00     0.068 A 
ATOM     38  N   UNL     1      23.595  33.199  20.131  1.00  0.00    -0.237 NA
ATOM     39  N   UNL     1      25.713  32.957  19.518  1.00  0.00    -0.334 N 
ATOM     40  C   UNL     1      24.714  32.547  20.354  1.00  0.00     0.200 A 
ATOM     41  C   UNL     1      27.059  32.445  19.503  1.00  0.00     0.151 C 
ENDBRANCH  31  32
ENDBRANCH  28  31
ENDBRANCH   3  23
TORSDOF 6
ENDMDL
MODEL 7
REMARK VINA RESULT:    -9.368      3.609      9.635
REMARK INTER + INTRA:         -14.311
REMARK INTER:                 -13.067
REMARK INTRA:                  -1.244
REMARK UNBOUND:                -1.657
REMARK SMILES C=CC(=O)N1[C@@H]2CC[C@H]1C[C@@H](n1nc(-c3cc(F)c(Oc4ccc5c(c4)ncn5C)c(Cl)c3)c3c(C)ncnc31)C2
REMARK SMILES IDX 12 1 13 2 14 3 34 4 35 5 36 6 37 7 38 8 39 9 40 10 11 11
REMARK SMILES IDX 5 12 6 13 9 14 7 15 41 16 8 17 10 18 3 19 4 20 2 21 1 22
REMARK SMILES IDX 15 23 16 24 33 25 17 26 31 27 19 28 18 29 32 30 20 31 21 32
REMARK SMILES IDX 22 33 26 34 23 35 25 36 24 37 27 38 29 39 28 40 30 41
REMARK H PARENT
ROOT
ATOM      1  N   UNL     1      16.615  34.026  14.018  1.00  0.00    -0.243 N 
ATOM      2  N   UNL     1      17.914  34.114  14.365  1.00  0.00    -0.170 NA
ATOM      3  C   UNL     1      17.896  34.625  15.606  1.00  0.00     0.104 A 
ATOM      4  C   UNL     1      16.563  34.832  16.069  1.00  0.00     0.068 A 
ATOM      5  C   UNL     1      15.901  35.267  17.229  1.00  0.00     0.052 A 
ATOM      6  C   UNL     1      16.565  35.684  18.505  1.00  0.00     0.067 C 
ATOM      7  N   UNL     1      14.539  35.325  17.204  1.00  0.00    -0.241 NA
ATOM      8  C   UNL     1      13.888  34.941  16.090  1.00  0.00     0.224 A 
ATOM      9  N   UNL     1      14.420  34.485  14.947  1.00  0.00    -0.217 NA
ATOM     10  C   UNL     1      15.763  34.452  15.005  1.00  0.00     0.162 A 
ENDROOT
BRANCH   1  11
ATOM     11  C   UNL     1      16.220  33.518  12.703  1.00  0.00     0.114 C 
ATOM     12  N   UNL     1      17.414  32.977  10.189  1.00  0.00    -0.333 N 
ATOM     13  C   UNL     1      17.525  34.352  10.632  1.00  0.00     0.088 C 
ATOM     14  C   UNL     1      17.923  32.162  11.278  1.00  0.00     0.088 C 
ATOM     15  C   UNL     1      18.891  34.387  11.321  1.00  0.00     0.027 C 
ATOM     16  C   UNL     1      16.368  34.607  11.609  1.00  0.00     0.052 C 
ATOM     17  C   UNL     1      19.178  32.927  11.695  1.00  0.00     0.027 C 
ATOM     18  C   UNL     1      16.836  32.130  12.365  1.00  0.00     0.052 C 
BRANCH  12  19
ATOM     19  C   UNL     1      16.703  32.628   9.068  1.00  0.00     0.246 C 
ATOM     20  O   UNL     1      16.296  31.484   8.873  1.00  0.00    -0.270 OA
BRANCH  19  21
ATOM     21  C   UNL     1      16.453  33.702   8.072  1.00  0.00     0.063 C 
ATOM     22  C   UNL     1      15.340  33.685   7.328  1.00  0.00     0.014 C 
ENDBRANCH  19  21
ENDBRANCH  12  19
ENDBRANCH   1  11
BRANCH   3  23
ATOM     23  C   UNL     1      19.157  34.888  16.289  1.00  0.00     0.007 A 
ATOM     24  C   UNL     1      19.451  36.165  16.776  1.00  0.00     0.053 A 
ATOM     25  C   UNL     1      20.107  33.865  16.416  1.00  0.00     0.035 A 
ATOM     26  C   UNL     1      20.666  36.396  17.415  1.00  0.00     0.167 A 
ATOM     27  C   UNL     1      21.326  34.109  17.055  1.00  0.00     0.087 A 
ATOM     28  C   UNL     1      21.600  35.372  17.582  1.00  0.00     0.181 A 
ATOM     29  F   UNL     1      20.930  37.636  17.852  1.00  0.00    -0.203 F 
ATOM     30  Cl  UNL     1      22.461  32.814  17.185  1.00  0.00    -0.080 Cl
BRANCH  28  31
ATOM     31  O   UNL     1      22.811  35.612  18.190  1.00  0.00    -0.453 OA
BRANCH  31  32
ATOM     32  C   UNL     1      23.907  35.684  17.353  1.00  0.00     0.129 A 
ATOM     33  C   UNL     1      25.152  35.421  17.930  1.00  0.00     0.049 A 
ATOM     34  C   UNL     1      23.797  36.071  16.011  1.00  0.00     0.077 A 
ATOM     35  C   UNL     1      26.330  35.495  17.178  1.00  0.00     0.032 A 
ATOM     36  C   UNL     1      24.969  36.149  15.245  1.00  0.00     0.092 A 
ATOM     37  C   UNL     1      26.198  35.859  15.834  1.00  0.00     0.068 A 
ATOM     38  N   UNL     1      25.123  36.494  13.923  1.00  0.00    -0.237 NA
ATOM     39  N   UNL     1      27.101  36.034  14.814  1.00  0.00    -0.334 N 
ATOM     40  C   UNL     1      26.414  36.415  13.696  1.00  0.00     0.200 A 
ATOM     41  C   UNL     1      28.527  35.853  14.902  1.00  0.00     0.151 C 
ENDBRANCH  31  32
ENDBRANCH  28  31
ENDBRANCH   3  23
TORSDOF 6
ENDMDL
MODEL 8
REMARK VINA RESULT:    -9.175      4.314      7.127
REMARK INTER + INTRA:         -14.050
REMARK INTER:                 -12.568
REMARK INTRA:                  -1.481
REMARK UNBOUND:                -1.657
REMARK SMILES C=CC(=O)N1[C@@H]2CC[C@H]1C[C@@H](n1nc(-c3cc(F)c(Oc4ccc5c(c4)ncn5C)c(Cl)c3)c3c(C)ncnc31)C2
REMARK SMILES IDX 12 1 13 2 14 3 34 4 35 5 36 6 37 7 38 8 39 9 40 10 11 11
REMARK SMILES IDX 5 12 6 13 9 14 7 15 41 16 8 17 10 18 3 19 4 20 2 21 1 22
REMARK SMILES IDX 15 23 16 24 33 25 17 26 31 27 19 28 18 29 32 30 20 31 21 32
REMARK SMILES IDX 22 33 26 34 23 35 25 36 24 37 27 38 29 39 28 40 30 41
REMARK H PARENT
ROOT
ATOM      1  N   UNL     1      25.262  34.278  16.563  1.00  0.00    -0.243 N 
ATOM      2  N   UNL     1      24.012  33.777  16.582  1.00  0.00    -0.170 NA
ATOM      3  C   UNL     1      23.443  34.248  15.461  1.00  0.00     0.104 A 
ATOM      4  C   UNL     1      24.359  35.031  14.698  1.00  0.00     0.068 A 
ATOM      5  C   UNL     1      24.398  35.722  13.476  1.00  0.00     0.052 A 
ATOM      6  C   UNL     1      23.277  35.804  12.486  1.00  0.00     0.067 C 
ATOM      7  N   UNL     1      25.545  36.384  13.151  1.00  0.00    -0.241 NA
ATOM      8  C   UNL     1      26.594  36.326  13.993  1.00  0.00     0.224 A 
ATOM      9  N   UNL     1      26.670  35.675  15.163  1.00  0.00    -0.217 NA
ATOM     10  C   UNL     1      25.519  35.045  15.455  1.00  0.00     0.162 A 
ENDROOT
BRANCH   1  11
ATOM     11  C   UNL     1      26.204  33.995  17.647  1.00  0.00     0.114 C 
ATOM     12  N   UNL     1      26.155  33.601  20.454  1.00  0.00    -0.333 N 
ATOM     13  C   UNL     1      25.645  34.882  20.010  1.00  0.00     0.088 C 
ATOM     14  C   UNL     1      25.427  32.596  19.699  1.00  0.00     0.088 C 
ATOM     15  C   UNL     1      24.136  34.641  19.907  1.00  0.00     0.027 C 
ATOM     16  C   UNL     1      26.286  35.177  18.646  1.00  0.00     0.052 C 
ATOM     17  C   UNL     1      23.993  33.120  19.760  1.00  0.00     0.027 C 
ATOM     18  C   UNL     1      26.015  32.586  18.278  1.00  0.00     0.052 C 
BRANCH  12  19
ATOM     19  C   UNL     1      27.283  33.494  21.228  1.00  0.00     0.246 C 
ATOM     20  O   UNL     1      27.397  34.060  22.313  1.00  0.00    -0.270 OA
BRANCH  19  21
ATOM     21  C   UNL     1      28.391  32.665  20.685  1.00  0.00     0.063 C 
ATOM     22  C   UNL     1      28.890  31.653  21.406  1.00  0.00     0.014 C 
ENDBRANCH  19  21
ENDBRANCH  12  19
ENDBRANCH   1  11
BRANCH   3  23
ATOM     23  C   UNL     1      22.052  33.921  15.173  1.00  0.00     0.007 A 
ATOM     24  C   UNL     1      21.698  32.647  14.722  1.00  0.00     0.053 A 
ATOM     25  C   UNL     1      21.064  34.908  15.301  1.00  0.00     0.035 A 
ATOM     26  C   UNL     1      20.364  32.360  14.442  1.00  0.00     0.167 A 
ATOM     27  C   UNL     1      19.729  34.611  15.013  1.00  0.00     0.087 A 
ATOM     28  C   UNL     1      19.369  33.325  14.607  1.00  0.00     0.181 A 
ATOM     29  F   UNL     1      20.058  31.136  13.990  1.00  0.00    -0.203 F 
ATOM     30  Cl  UNL     1      18.552  35.862  15.187  1.00  0.00    -0.080 Cl
BRANCH  28  31
ATOM     31  O   UNL     1      18.057  33.045  14.303  1.00  0.00    -0.453 OA
BRANCH  31  32
ATOM     32  C   UNL     1      17.691  33.208  12.981  1.00  0.00     0.129 A 
ATOM     33  C   UNL     1      16.789  34.239  12.705  1.00  0.00     0.049 A 
ATOM     34  C   UNL     1      18.139  32.347  11.972  1.00  0.00     0.077 A 
ATOM     35  C   UNL     1      16.332  34.473  11.404  1.00  0.00     0.032 A 
ATOM     36  C   UNL     1      17.689  32.569  10.662  1.00  0.00     0.092 A 
ATOM     37  C   UNL     1      16.808  33.618  10.404  1.00  0.00     0.068 A 
ATOM     38  N   UNL     1      17.983  31.876   9.512  1.00  0.00    -0.237 NA
ATOM     39  N   UNL     1      16.587  33.537   9.051  1.00  0.00    -0.334 N 
ATOM     40  C   UNL     1      17.306  32.483   8.563  1.00  0.00     0.200 A 
ATOM     41  C   UNL     1      15.742  34.408   8.276  1.00  0.00     0.151 C 
ENDBRANCH  31  32
ENDBRANCH  28  31
ENDBRANCH   3  23
TORSDOF 6
ENDMDL
