MODEL 2
REMARK VINA RESULT:    -7.701      6.254     11.945
REMARK INTER + INTRA:         -14.274
REMARK INTER:                 -14.429
REMARK INTRA:                   0.155
REMARK UNBOUND:                -0.721
REMARK SMILES COCC(C)(C)CN1Cc2cc(Nc3nn([C@H]4CCCCC[C@@H]4C#N)c4cc[nH]c(=O)c34)ccc2S1(=O)=O
REMARK SMILES IDX 14 1 15 2 16 3 26 4 27 5 28 6 29 7 30 8 31 9 32 10 13 12
REMARK SMILES IDX 12 14 8 15 9 16 36 17 10 18 35 19 37 20 38 21 11 22 34 23
REMARK SMILES IDX 33 24 7 25 4 26 5 27 6 28 3 29 2 30 1 31 17 32 18 33 19 34
REMARK SMILES IDX 20 35 21 36 22 37 23 39 24 40 25 41
REMARK H PARENT 29 11 13 13
REMARK Flexibility Score:   39.900
ROOT
ATOM      1  C   UNL     1     -11.710  13.609  19.868  1.00  0.00     0.166 A 
ATOM      2  N   UNL     1     -12.221  14.838  20.000  1.00  0.00    -0.153 NA
ATOM      3  N   UNL     1     -13.564  14.661  19.990  1.00  0.00    -0.258 N 
ATOM      4  C   UNL     1     -13.908  13.362  19.758  1.00  0.00     0.078 A 
ATOM      5  C   UNL     1     -15.198  12.801  19.636  1.00  0.00     0.046 A 
ATOM      6  C   UNL     1     -15.223  11.474  19.408  1.00  0.00     0.088 A 
ATOM      7  N   UNL     1     -14.065  10.723  19.295  1.00  0.00    -0.328 N 
ATOM      8  C   UNL     1     -12.768  11.229  19.397  1.00  0.00     0.261 A 
ATOM      9  O   UNL     1     -11.793  10.501  19.251  1.00  0.00    -0.269 OA
ATOM     10  C   UNL     1     -12.725  12.653  19.664  1.00  0.00     0.109 A 
ATOM     11  H   UNL     1     -14.118   9.728  19.114  1.00  0.00     0.169 HD
ENDROOT
BRANCH   1  12
ATOM     12  N   UNL     1     -10.376  13.376  19.901  1.00  0.00    -0.338 N 
ATOM     13  H   UNL     1     -10.105  12.704  19.185  1.00  0.00     0.168 HD
BRANCH  12  14
ATOM     14  C   UNL     1      -9.371  14.380  19.948  1.00  0.00     0.040 A 
ATOM     15  N   UNL     1      -4.932  16.017  19.303  1.00  0.00    -0.193 NA
ATOM     16  C   UNL     1      -5.542  14.742  19.839  1.00  0.00     0.139 C 
ATOM     17  S   UNL     1      -5.959  17.302  19.858  1.00  0.00     0.243 S 
ATOM     18  C   UNL     1      -7.032  14.949  19.870  1.00  0.00    -0.011 A 
ATOM     19  C   UNL     1      -7.393  16.298  19.889  1.00  0.00     0.087 A 
ATOM     20  O   UNL     1      -5.618  17.593  21.234  1.00  0.00    -0.207 OA
ATOM     21  O   UNL     1      -6.087  18.319  18.843  1.00  0.00    -0.207 OA
ATOM     22  C   UNL     1      -8.024  13.979  19.893  1.00  0.00     0.032 A 
ATOM     23  C   UNL     1      -8.702  16.735  19.891  1.00  0.00     0.024 A 
ATOM     24  C   UNL     1      -9.698  15.757  19.917  1.00  0.00     0.027 A 
BRANCH  15  25
ATOM     25  C   UNL     1      -4.716  15.950  17.820  1.00  0.00     0.111 C 
BRANCH  25  26
ATOM     26  C   UNL     1      -3.218  16.170  17.480  1.00  0.00     0.002 C 
ATOM     27  C   UNL     1      -2.637  14.929  16.777  1.00  0.00     0.015 C 
ATOM     28  C   UNL     1      -2.402  16.460  18.753  1.00  0.00     0.015 C 
BRANCH  26  29
ATOM     29  C   UNL     1      -3.097  17.396  16.543  1.00  0.00     0.167 C 
BRANCH  29  30
ATOM     30  O   UNL     1      -4.390  17.932  16.258  1.00  0.00    -0.384 OA
ATOM     31  C   UNL     1      -4.507  18.323  14.894  1.00  0.00     0.194 C 
ENDBRANCH  29  30
ENDBRANCH  26  29
ENDBRANCH  25  26
ENDBRANCH  15  25
ENDBRANCH  12  14
ENDBRANCH   1  12
BRANCH   3  32
ATOM     32  C   UNL     1     -14.400  15.844  20.244  1.00  0.00     0.125 C 
BRANCH  32  33
ATOM     33  C   UNL     1     -13.880  16.594  21.484  1.00  0.00     0.029 C 
BRANCH  33  34
ATOM     34  C   UNL     1     -14.838  17.635  22.059  1.00  0.00     0.002 C 
BRANCH  34  35
ATOM     35  C   UNL     1     -16.242  17.682  21.468  1.00  0.00     0.000 C 
BRANCH  35  36
ATOM     36  C   UNL     1     -16.332  18.299  20.077  1.00  0.00     0.001 C 
BRANCH  36  37
ATOM     37  C   UNL     1     -15.023  18.187  19.298  1.00  0.00     0.021 CG0
ATOM     38  G   UNL     1     -14.529  16.758  19.000  1.00  0.00     0.000 G0
ENDBRANCH  36  37
ENDBRANCH  35  36
ENDBRANCH  34  35
ENDBRANCH  33  34
ENDBRANCH  32  33
BRANCH  32  39
ATOM     39  C   UNL     1     -14.524  16.752  18.997  1.00  0.00     0.117 CG0
ATOM     40  C   UNL     1     -15.434  16.165  17.985  1.00  0.00     0.068 C 
ATOM     41  N   UNL     1     -16.128  15.736  17.159  1.00  0.00    -0.198 NA
ATOM     42  G   UNL     1     -15.022  18.179  19.299  1.00  0.00     0.000 G0
ENDBRANCH  32  39
ENDBRANCH   3  32
TORSDOF 7
ENDMDL
