REMARK SMILES CCOC(=O)c1cn2ncnc(NCc3ccccc3)c2c1CC
REMARK SMILES IDX 6 1 7 2 8 3 9 4 10 5 11 6 12 7 21 8 22 9 4 10 5 11 3 12 2 13
REMARK SMILES IDX 1 14 23 15 24 16 13 17 14 19 15 20 16 21 20 22 17 23 19 24
REMARK SMILES IDX 18 25
REMARK H PARENT 13 18
REMARK INDEX MAP 6 1 7 2 8 3 9 4 10 5 11 6 12 7 21 8 22 9 4 10 5 11 3 12 2 13
REMARK INDEX MAP 1 14 23 15 24 16 13 17 32 18 14 19 15 20 16 21 20 22 17 23
REMARK INDEX MAP 19 24 18 25
ROOT
ATOM      1  C   UNL     1      15.335   3.204  25.187  1.00  0.00     0.083 A 
ATOM      2  C   UNL     1      14.559   4.084  24.453  1.00  0.00     0.129 A 
ATOM      3  N   UNL     1      13.514   4.501  25.222  1.00  0.00    -0.235 N 
ATOM      4  N   UNL     1      12.604   5.412  24.850  1.00  0.00    -0.156 NA
ATOM      5  C   UNL     1      11.715   5.657  25.759  1.00  0.00     0.247 A 
ATOM      6  N   UNL     1      11.607   5.063  26.989  1.00  0.00    -0.215 NA
ATOM      7  C   UNL     1      12.475   4.161  27.345  1.00  0.00     0.154 A 
ATOM      8  C   UNL     1      13.549   3.872  26.432  1.00  0.00     0.111 A 
ATOM      9  C   UNL     1      14.697   3.084  26.480  1.00  0.00    -0.003 A 
ENDROOT
BRANCH   1  10
ATOM     10  C   UNL     1      16.558   2.557  24.709  1.00  0.00     0.340 C 
ATOM     11  O   UNL     1      16.791   2.339  23.525  1.00  0.00    -0.246 OA
BRANCH  10  12
ATOM     12  O   UNL     1      17.407   2.222  25.729  1.00  0.00    -0.462 OA
BRANCH  12  13
ATOM     13  C   UNL     1      18.222   1.078  25.457  1.00  0.00     0.230 C 
ATOM     14  C   UNL     1      17.453  -0.162  25.864  1.00  0.00     0.049 C 
ENDBRANCH  12  13
ENDBRANCH  10  12
ENDBRANCH   1  10
BRANCH   9  15
ATOM     15  C   UNL     1      15.213   2.275  27.633  1.00  0.00     0.035 C 
ATOM     16  C   UNL     1      14.533   0.917  27.741  1.00  0.00     0.009 C 
ENDBRANCH   9  15
BRANCH   7  17
ATOM     17  N   UNL     1      12.320   3.517  28.544  1.00  0.00    -0.364 N 
ATOM     18  H   UNL     1      12.976   3.749  29.303  1.00  0.00     0.162 HD
BRANCH  17  19
ATOM     19  C   UNL     1      11.299   2.535  28.813  1.00  0.00     0.150 C 
BRANCH  19  20
ATOM     20  C   UNL     1      11.406   2.101  30.254  1.00  0.00    -0.029 A 
ATOM     21  C   UNL     1      10.250   1.760  30.973  1.00  0.00     0.005 A 
ATOM     22  C   UNL     1      12.656   1.971  30.875  1.00  0.00     0.005 A 
ATOM     23  C   UNL     1      10.342   1.316  32.291  1.00  0.00     0.000 A 
ATOM     24  C   UNL     1      12.743   1.527  32.195  1.00  0.00     0.000 A 
ATOM     25  C   UNL     1      11.588   1.204  32.902  1.00  0.00     0.000 A 
ENDBRANCH  19  20
ENDBRANCH  17  19
ENDBRANCH   7  17
TORSDOF 7
