REMARK SMILES Cc1cc(Nc2cc3nc(CN4CCOCC4)ccc3c(N[C@@H]3C[C@H]4CCC[C@@H](C3)N4CC(F)(F)F)n2)n[nH]1
REMARK SMILES IDX 22 1 21 3 6 4 7 5 37 6 8 7 9 8 20 9 10 10 19 11 18 12 5 13
REMARK SMILES IDX 4 15 2 16 3 17 39 18 38 19 1 20 11 22 12 23 13 24 17 25
REMARK SMILES IDX 14 26 16 27 15 28 23 29 24 30 30 31 25 32 29 33 26 34 31 35
REMARK SMILES IDX 28 36 27 37 32 38 33 39 34 40 35 41 36 42
REMARK H PARENT 22 2 5 14 39 21
REMARK INDEX MAP 22 1 58 2 21 3 6 4 7 5 37 6 8 7 9 8 20 9 10 10 19 11 18 12
REMARK INDEX MAP 5 13 44 14 4 15 2 16 3 17 39 18 38 19 1 20 74 21 11 22 12 23
REMARK INDEX MAP 13 24 17 25 14 26 16 27 15 28 23 29 24 30 30 31 25 32 29 33
REMARK INDEX MAP 26 34 31 35 28 36 27 37 32 38 33 39 34 40 35 41 36 42
ROOT
ATOM      1  N   UNL     1       5.190 -21.115  22.771  1.00  0.00    -0.367 N 
ATOM      2  H   UNL     1       4.307 -21.285  23.273  1.00  0.00     0.162 HD
ENDROOT
BRANCH   1   3
ATOM      3  C   UNL     1       5.438 -19.859  22.225  1.00  0.00     0.138 A 
ATOM      4  C   UNL     1       6.939 -18.103  21.900  1.00  0.00     0.136 A 
ATOM      5  C   UNL     1       5.988 -17.388  21.196  1.00  0.00     0.076 A 
ATOM      6  N   UNL     1       6.660 -19.319  22.415  1.00  0.00    -0.213 NA
ATOM      7  C   UNL     1       4.722 -17.902  21.010  1.00  0.00     0.078 A 
ATOM      8  N   UNL     1       3.822 -17.163  20.330  1.00  0.00    -0.251 NA
ATOM      9  C   UNL     1       4.419 -19.166  21.539  1.00  0.00     0.043 A 
ATOM     10  C   UNL     1       2.568 -17.649  20.150  1.00  0.00     0.055 A 
ATOM     11  C   UNL     1       3.103 -19.641  21.346  1.00  0.00     0.016 A 
ATOM     12  C   UNL     1       2.175 -18.885  20.641  1.00  0.00     0.026 A 
BRANCH   4  13
ATOM     13  N   UNL     1       8.242 -17.663  22.135  1.00  0.00    -0.323 N 
ATOM     14  H   UNL     1       8.290 -16.748  22.605  1.00  0.00     0.170 HD
BRANCH  13  15
ATOM     15  C   UNL     1       9.450 -18.197  21.869  1.00  0.00     0.153 A 
ATOM     16  C   UNL     1      11.380 -18.503  20.793  1.00  0.00     0.034 A 
ATOM     17  C   UNL     1      10.207 -17.784  20.742  1.00  0.00     0.071 A 
ATOM     18  N   UNL     1      11.265 -19.290  21.903  1.00  0.00    -0.281 N 
ATOM     19  N   UNL     1      10.113 -19.124  22.564  1.00  0.00    -0.158 NA
ATOM     20  C   UNL     1      12.575 -18.523  19.925  1.00  0.00     0.066 C 
ATOM     21  H   UNL     1      11.996 -19.950  22.204  1.00  0.00     0.190 HD
ENDBRANCH  13  15
ENDBRANCH   4  13
BRANCH  10  22
ATOM     22  C   UNL     1       1.598 -16.799  19.350  1.00  0.00     0.140 C 
BRANCH  22  23
ATOM     23  N   UNL     1       0.672 -16.011  20.190  1.00  0.00    -0.293 NA
ATOM     24  C   UNL     1      -0.731 -16.445  19.969  1.00  0.00     0.113 C 
ATOM     25  C   UNL     1       0.807 -14.562  19.932  1.00  0.00     0.113 C 
ATOM     26  C   UNL     1      -1.737 -15.337  20.317  1.00  0.00     0.175 C 
ATOM     27  C   UNL     1      -0.262 -14.005  18.982  1.00  0.00     0.175 C 
ATOM     28  O   UNL     1      -1.592 -14.174  19.489  1.00  0.00    -0.379 OA
ENDBRANCH  22  23
ENDBRANCH  10  22
ENDBRANCH   1   3
BRANCH   1  29
ATOM     29  C   UNL     1       6.164 -22.196  22.643  1.00  0.00     0.083 C 
ATOM     30  C   UNL     1       6.169 -22.752  21.215  1.00  0.00     0.044 C 
ATOM     31  C   UNL     1       5.820 -23.281  23.673  1.00  0.00     0.044 C 
ATOM     32  C   UNL     1       6.831 -24.137  21.081  1.00  0.00     0.059 C 
ATOM     33  C   UNL     1       6.523 -24.624  23.421  1.00  0.00     0.059 C 
ATOM     34  C   UNL     1       8.365 -24.106  21.215  1.00  0.00     0.019 C 
ATOM     35  N   UNL     1       6.311 -25.114  22.051  1.00  0.00    -0.289 NA
ATOM     36  C   UNL     1       8.043 -24.592  23.690  1.00  0.00     0.019 C 
ATOM     37  C   UNL     1       8.874 -23.865  22.635  1.00  0.00     0.003 C 
BRANCH  35  38
ATOM     38  C   UNL     1       4.924 -25.555  21.745  1.00  0.00     0.201 C 
BRANCH  38  39
ATOM     39  C   UNL     1       4.443 -26.917  22.290  1.00  0.00     0.401 C 
ATOM     40  F   UNL     1       3.383 -27.360  21.572  1.00  0.00    -0.170 F 
ATOM     41  F   UNL     1       4.036 -26.818  23.576  1.00  0.00    -0.170 F 
ATOM     42  F   UNL     1       5.403 -27.864  22.222  1.00  0.00    -0.170 F 
ENDBRANCH  38  39
ENDBRANCH  35  38
ENDBRANCH   1  29
TORSDOF 8
