REMARK VINA RESULT:   -10.487      1.770      2.787
REMARK INTER + INTRA:         -13.990
REMARK INTER:                 -13.548
REMARK INTRA:                  -0.442
REMARK UNBOUND:                -0.438
REMARK SMILES O=C(CNCc1cc(F)cc(F)c1)Nc1ccc2nc3n(c(=O)c2c1)CCC3
REMARK SMILES IDX 4 1 3 3 2 4 1 5 14 6 15 8 16 9 25 10 17 11 24 12 18 13 22 14
REMARK SMILES IDX 19 15 21 16 23 17 20 18 26 19 28 20 27 21 5 22 6 23 7 24
REMARK SMILES IDX 13 25 8 26 11 27 10 28 9 29 12 30
REMARK H PARENT 4 2 14 7
ROOT
ATOM      1  N   UNL     1     -10.860 -46.162  29.451  1.00  0.00    -0.304 NA
ATOM      2  H   UNL     1     -11.729 -45.874  29.907  1.00  0.00     0.123 HD
ENDROOT
BRANCH   1   3
ATOM      3  C   UNL     1     -10.371 -45.024  28.639  1.00  0.00     0.182 C 
BRANCH   3   4
ATOM      4  C   UNL     1     -11.516 -44.045  28.338  1.00  0.00     0.238 C 
ATOM      5  O   UNL     1     -11.337 -42.832  28.381  1.00  0.00    -0.273 OA
ATOM      6  N   UNL     1     -12.682 -44.701  27.987  1.00  0.00    -0.325 N 
ATOM      7  H   UNL     1     -12.605 -45.716  28.036  1.00  0.00     0.169 HD
BRANCH   6   8
ATOM      8  C   UNL     1     -13.919 -44.150  27.612  1.00  0.00     0.042 A 
ATOM      9  C   UNL     1     -14.900 -43.751  28.523  1.00  0.00     0.028 A 
ATOM     10  C   UNL     1     -14.162 -44.000  26.245  1.00  0.00     0.042 A 
ATOM     11  C   UNL     1     -16.112 -43.209  28.075  1.00  0.00     0.031 A 
ATOM     12  C   UNL     1     -15.376 -43.456  25.806  1.00  0.00     0.068 A 
ATOM     13  C   UNL     1     -16.366 -43.055  26.714  1.00  0.00     0.078 A 
ATOM     14  C   UNL     1     -15.646 -43.293  24.360  1.00  0.00     0.261 A 
ATOM     15  N   UNL     1     -17.600 -42.509  26.311  1.00  0.00    -0.234 NA
ATOM     16  N   UNL     1     -16.864 -42.729  24.074  1.00  0.00    -0.296 N 
ATOM     17  O   UNL     1     -14.830 -43.645  23.515  1.00  0.00    -0.269 OA
ATOM     18  C   UNL     1     -17.778 -42.373  25.043  1.00  0.00     0.112 A 
ATOM     19  C   UNL     1     -17.369 -42.478  22.751  1.00  0.00     0.128 C 
ATOM     20  C   UNL     1     -19.011 -41.833  24.384  1.00  0.00     0.077 C 
ATOM     21  C   UNL     1     -18.500 -41.490  22.986  1.00  0.00     0.030 C 
ENDBRANCH   6   8
ENDBRANCH   3   4
ENDBRANCH   1   3
BRANCH   1  22
ATOM     22  C   UNL     1      -9.887 -46.492  30.493  1.00  0.00     0.117 C 
BRANCH  22  23
ATOM     23  C   UNL     1      -9.633 -45.289  31.365  1.00  0.00    -0.028 A 
ATOM     24  C   UNL     1     -10.697 -44.585  31.948  1.00  0.00     0.044 A 
ATOM     25  C   UNL     1      -8.321 -44.873  31.638  1.00  0.00     0.044 A 
ATOM     26  C   UNL     1     -10.442 -43.487  32.768  1.00  0.00     0.126 A 
ATOM     27  C   UNL     1      -8.093 -43.772  32.461  1.00  0.00     0.126 A 
ATOM     28  C   UNL     1      -9.145 -43.071  33.030  1.00  0.00     0.078 A 
ATOM     29  F   UNL     1     -11.470 -42.825  33.314  1.00  0.00    -0.207 F 
ATOM     30  F   UNL     1      -6.834 -43.387  32.707  1.00  0.00    -0.207 F 
ENDBRANCH  22  23
ENDBRANCH   1  22
TORSDOF 5
