MODEL 5
REMARK VINA RESULT:    -7.844      3.567      6.478
REMARK INTER + INTRA:         -11.114
REMARK INTER:                 -11.154
REMARK INTRA:                   0.041
REMARK UNBOUND:                -0.747
REMARK SMILES CCC(CC)n1cnc2c(-c3cnc(N)cn3)nc(N3C[C@H]4CC[C@@H](C3)O4)nc21
REMARK SMILES IDX 6 1 7 2 8 3 9 4 10 5 18 6 19 7 28 8 29 9 3 10 2 11 1 12 4 13
REMARK SMILES IDX 5 14 20 15 26 16 21 17 25 18 22 19 24 20 27 21 23 22 11 23
REMARK SMILES IDX 12 24 17 25 13 26 16 27 14 28 15 29
REMARK H PARENT 15 30 15 31
ROOT
ATOM      1  N   UNL     1     -15.838  14.269  29.136  1.00  0.00    -0.312 N 
ATOM      2  C   UNL     1     -15.357  15.094  30.117  1.00  0.00     0.202 A 
ATOM      3  N   UNL     1     -16.309  15.494  30.930  1.00  0.00    -0.233 NA
ATOM      4  C   UNL     1     -17.464  14.892  30.472  1.00  0.00     0.136 A 
ATOM      5  C   UNL     1     -18.801  14.902  30.875  1.00  0.00     0.124 A 
ATOM      6  N   UNL     1     -19.706  14.188  30.130  1.00  0.00    -0.209 NA
ATOM      7  C   UNL     1     -19.314  13.472  29.056  1.00  0.00     0.228 A 
ATOM      8  N   UNL     1     -18.048  13.414  28.615  1.00  0.00    -0.193 NA
ATOM      9  C   UNL     1     -17.186  14.133  29.348  1.00  0.00     0.166 A 
ENDROOT
BRANCH   1  10
ATOM     10  C   UNL     1     -15.086  13.641  28.057  1.00  0.00     0.090 C 
BRANCH  10  11
ATOM     11  C   UNL     1     -15.294  12.112  28.032  1.00  0.00     0.022 C 
ATOM     12  C   UNL     1     -15.072  11.436  26.686  1.00  0.00     0.006 C 
ENDBRANCH  10  11
BRANCH  10  13
ATOM     13  C   UNL     1     -13.597  14.041  28.013  1.00  0.00     0.022 C 
ATOM     14  C   UNL     1     -13.393  15.540  27.831  1.00  0.00     0.006 C 
ENDBRANCH  10  13
ENDBRANCH   1  10
BRANCH   7  15
ATOM     15  N   UNL     1     -20.293  12.785  28.340  1.00  0.00    -0.336 N 
ATOM     16  C   UNL     1     -19.871  11.472  27.814  1.00  0.00     0.151 C 
ATOM     17  C   UNL     1     -21.640  12.815  28.944  1.00  0.00     0.151 C 
ATOM     18  C   UNL     1     -21.038  10.788  27.061  1.00  0.00     0.138 C 
ATOM     19  C   UNL     1     -22.640  12.002  28.086  1.00  0.00     0.138 C 
ATOM     20  C   UNL     1     -21.607  11.660  25.945  1.00  0.00     0.037 C 
ATOM     21  O   UNL     1     -22.152  10.645  27.971  1.00  0.00    -0.371 OA
ATOM     22  C   UNL     1     -22.690  12.479  26.638  1.00  0.00     0.037 C 
ENDBRANCH   7  15
BRANCH   5  23
ATOM     23  C   UNL     1     -19.300  15.641  32.034  1.00  0.00     0.110 A 
ATOM     24  C   UNL     1     -20.367  15.170  32.801  1.00  0.00     0.144 A 
ATOM     25  N   UNL     1     -18.689  16.802  32.384  1.00  0.00    -0.249 NA
ATOM     26  N   UNL     1     -20.869  15.812  33.892  1.00  0.00    -0.236 NA
ATOM     27  C   UNL     1     -19.184  17.438  33.475  1.00  0.00     0.158 A 
ATOM     28  C   UNL     1     -20.262  16.966  34.216  1.00  0.00     0.141 A 
BRANCH  28  29
ATOM     29  N   UNL     1     -20.746  17.634  35.337  1.00  0.00    -0.382 N 
ATOM     30  H   UNL     1     -21.739  17.825  35.260  1.00  0.00     0.158 HD
ATOM     31  H   UNL     1     -20.536  17.051  36.144  1.00  0.00     0.158 HD
ENDBRANCH  28  29
ENDBRANCH   5  23
TORSDOF 6
ENDMDL
