MODEL 2
REMARK VINA RESULT:    -9.557      2.983      4.595
REMARK INTER + INTRA:         -16.368
REMARK INTER:                 -14.079
REMARK INTRA:                  -2.289
REMARK UNBOUND:                -1.503
REMARK SMILES O=C(Nc1nc2ccccc2s1)c1cccc2c1CN(c1nc(C(=O)O)c(CCOc3ccc(-n4ncc5cncnc54)cc3)s1)CC2
REMARK SMILES IDX 28 1 27 2 21 3 22 4 46 5 23 6 20 7 13 8 14 9 18 10 15 11
REMARK SMILES IDX 17 12 19 13 16 14 48 15 47 16 2 17 1 18 3 19 4 21 5 22 12 23
REMARK SMILES IDX 6 24 11 25 7 26 10 27 8 28 9 29 24 30 25 31 26 32 29 34
REMARK SMILES IDX 30 35 31 36 32 37 45 38 33 39 44 40 34 41 35 42 36 43 43 44
REMARK SMILES IDX 37 45 42 46 38 47 41 48 39 49 40 50
REMARK H PARENT 3 20 26 33
ROOT
ATOM      1  C   UNL     1     -13.837   5.696  25.755  1.00  0.00     0.091 C 
ENDROOT
BRANCH   1   2
ATOM      2  C   UNL     1     -13.852   6.399  24.430  1.00  0.00     0.045 A 
ATOM      3  C   UNL     1     -13.437   7.922  22.573  1.00  0.00     0.186 A 
ATOM      4  N   UNL     1     -14.145   6.893  22.172  1.00  0.00    -0.213 NA
ATOM      5  S   UNL     1     -13.047   7.907  24.247  1.00  0.00    -0.101 S 
ATOM      6  C   UNL     1     -14.427   6.022  23.223  1.00  0.00     0.164 A 
BRANCH   3   7
ATOM      7  N   UNL     1     -13.000   8.914  21.742  1.00  0.00    -0.343 N 
ATOM      8  C   UNL     1     -10.898   9.150  18.538  1.00  0.00     0.045 A 
ATOM      9  C   UNL     1     -10.207  10.155  17.834  1.00  0.00     0.014 A 
ATOM     10  C   UNL     1     -11.534   9.464  19.766  1.00  0.00    -0.013 A 
ATOM     11  C   UNL     1     -10.184  11.469  18.301  1.00  0.00     0.001 A 
ATOM     12  C   UNL     1     -11.469  10.797  20.241  1.00  0.00    -0.040 A 
ATOM     13  C   UNL     1     -12.221   8.383  20.596  1.00  0.00     0.155 C 
ATOM     14  C   UNL     1     -10.821  11.791  19.492  1.00  0.00     0.004 A 
ATOM     15  C   UNL     1     -12.127  11.181  21.543  1.00  0.00     0.057 C 
ATOM     16  C   UNL     1     -12.272   9.972  22.459  1.00  0.00     0.124 C 
BRANCH   8  17
ATOM     17  C   UNL     1     -10.909   7.751  17.985  1.00  0.00     0.257 C 
ATOM     18  O   UNL     1     -10.141   6.926  18.457  1.00  0.00    -0.269 OA
ATOM     19  N   UNL     1     -11.821   7.542  16.974  1.00  0.00    -0.298 N 
ATOM     20  H   UNL     1     -12.445   8.279  16.681  1.00  0.00     0.172 HD
BRANCH  19  21
ATOM     21  C   UNL     1     -12.020   6.390  16.258  1.00  0.00     0.190 A 
ATOM     22  N   UNL     1     -13.123   5.695  16.417  1.00  0.00    -0.220 NA
ATOM     23  S   UNL     1     -10.895   5.778  15.140  1.00  0.00    -0.097 S 
ATOM     24  C   UNL     1     -13.094   4.585  15.586  1.00  0.00     0.084 A 
ATOM     25  C   UNL     1     -11.939   4.450  14.810  1.00  0.00     0.056 A 
ATOM     26  C   UNL     1     -14.109   3.613  15.470  1.00  0.00     0.030 A 
ATOM     27  C   UNL     1     -11.762   3.375  13.925  1.00  0.00     0.021 A 
ATOM     28  C   UNL     1     -13.939   2.535  14.594  1.00  0.00     0.002 A 
ATOM     29  C   UNL     1     -12.777   2.417  13.835  1.00  0.00     0.002 A 
ENDBRANCH  19  21
ENDBRANCH   8  17
ENDBRANCH   3   7
BRANCH   6  30
ATOM     30  C   UNL     1     -15.231   4.819  23.005  1.00  0.00     0.355 C 
ATOM     31  O   UNL     1     -16.226   4.496  23.640  1.00  0.00    -0.244 OA
BRANCH  30  32
ATOM     32  O   UNL     1     -14.791   4.017  22.007  1.00  0.00    -0.476 OA
ATOM     33  H   UNL     1     -13.858   3.850  22.239  1.00  0.00     0.297 HD
ENDBRANCH  30  32
ENDBRANCH   6  30
ENDBRANCH   1   2
BRANCH   1  34
ATOM     34  C   UNL     1     -12.647   4.739  25.858  1.00  0.00     0.235 C 
BRANCH  34  35
ATOM     35  O   UNL     1     -13.135   3.407  26.051  1.00  0.00    -0.493 OA
BRANCH  35  36
ATOM     36  C   UNL     1     -13.111   2.590  24.953  1.00  0.00     0.119 A 
ATOM     37  C   UNL     1     -12.057   2.469  24.049  1.00  0.00     0.048 A 
ATOM     38  C   UNL     1     -14.259   1.819  24.764  1.00  0.00     0.048 A 
ATOM     39  C   UNL     1     -12.166   1.604  22.953  1.00  0.00     0.032 A 
ATOM     40  C   UNL     1     -14.377   0.959  23.665  1.00  0.00     0.032 A 
ATOM     41  C   UNL     1     -13.331   0.848  22.743  1.00  0.00     0.067 A 
BRANCH  41  42
ATOM     42  N   UNL     1     -13.412  -0.005  21.599  1.00  0.00    -0.215 N 
ATOM     43  N   UNL     1     -13.245   0.529  20.343  1.00  0.00    -0.174 NA
ATOM     44  C   UNL     1     -13.657  -1.378  21.531  1.00  0.00     0.166 A 
ATOM     45  C   UNL     1     -13.380  -0.506  19.516  1.00  0.00     0.147 A 
ATOM     46  N   UNL     1     -13.884  -2.249  22.538  1.00  0.00    -0.216 NA
ATOM     47  C   UNL     1     -13.642  -1.708  20.184  1.00  0.00     0.058 A 
ATOM     48  C   UNL     1     -14.111  -3.499  22.095  1.00  0.00     0.224 A 
ATOM     49  C   UNL     1     -13.875  -3.035  19.846  1.00  0.00     0.126 A 
ATOM     50  N   UNL     1     -14.121  -3.937  20.822  1.00  0.00    -0.244 NA
ENDBRANCH  41  42
ENDBRANCH  35  36
ENDBRANCH  34  35
ENDBRANCH   1  34
TORSDOF 10
ENDMDL
