MODEL 3
REMARK VINA RESULT:    -9.263      2.682      8.071
REMARK INTER + INTRA:         -13.019
REMARK INTER:                 -12.877
REMARK INTRA:                  -0.143
REMARK UNBOUND:                -0.777
REMARK SMILES Cn1cc(-c2cc(-c3cnn([C@]4(CC#N)C[C@H](C#N)C4)n3)c3cccnc3c2)c(CO)n1
REMARK SMILES IDX 5 1 6 2 7 3 22 4 23 5 24 6 25 7 26 8 27 9 28 10 4 11 2 12
REMARK SMILES IDX 3 13 32 14 29 15 1 16 30 17 31 18 8 20 9 21 21 22 10 23
REMARK SMILES IDX 11 24 12 25 16 26 20 27 17 28 18 29 19 30 13 31 14 32 15 33
REMARK H PARENT 31 19
ROOT
ATOM      1  C   UNL     1      -4.065  23.862 -30.426  1.00  0.00    -0.012 A 
ATOM      2  C   UNL     1      -3.857  25.014 -29.666  1.00  0.00     0.020 A 
ATOM      3  C   UNL     1      -4.330  26.254 -30.114  1.00  0.00     0.014 A 
ATOM      4  C   UNL     1      -5.025  26.350 -31.349  1.00  0.00     0.010 A 
ATOM      5  C   UNL     1      -5.534  27.553 -31.888  1.00  0.00     0.012 A 
ATOM      6  C   UNL     1      -6.201  27.563 -33.106  1.00  0.00     0.021 A 
ATOM      7  C   UNL     1      -6.343  26.363 -33.768  1.00  0.00     0.112 A 
ATOM      8  N   UNL     1      -5.869  25.189 -33.300  1.00  0.00    -0.256 NA
ATOM      9  C   UNL     1      -5.229  25.182 -32.116  1.00  0.00     0.071 A 
ATOM     10  C   UNL     1      -4.749  23.969 -31.641  1.00  0.00     0.037 A 
ENDROOT
BRANCH   1  11
ATOM     11  C   UNL     1      -3.581  22.578 -29.958  1.00  0.00     0.025 A 
ATOM     12  N   UNL     1      -2.590  21.082 -28.698  1.00  0.00    -0.275 N 
ATOM     13  C   UNL     1      -2.845  22.416 -28.802  1.00  0.00     0.117 A 
ATOM     14  N   UNL     1      -3.068  20.361 -29.725  1.00  0.00    -0.175 NA
ATOM     15  C   UNL     1      -3.708  21.262 -30.490  1.00  0.00     0.096 A 
ATOM     16  C   UNL     1      -1.876  20.416 -27.637  1.00  0.00     0.173 C 
BRANCH  15  17
ATOM     17  C   UNL     1      -4.392  20.829 -31.746  1.00  0.00     0.214 C 
BRANCH  17  18
ATOM     18  O   UNL     1      -4.720  19.441 -31.729  1.00  0.00    -0.390 OA
ATOM     19  H   UNL     1      -3.882  18.962 -31.631  1.00  0.00     0.211 HD
ENDBRANCH  17  18
ENDBRANCH  15  17
ENDBRANCH   1  11
BRANCH   3  20
ATOM     20  C   UNL     1      -4.075  27.415 -29.278  1.00  0.00     0.113 A 
ATOM     21  C   UNL     1      -4.012  27.492 -27.871  1.00  0.00     0.166 A 
ATOM     22  N   UNL     1      -3.889  28.645 -29.779  1.00  0.00    -0.153 NA
ATOM     23  N   UNL     1      -3.787  28.750 -27.484  1.00  0.00    -0.161 NA
ATOM     24  N   UNL     1      -3.721  29.388 -28.672  1.00  0.00    -0.177 N 
BRANCH  24  25
ATOM     25  C   UNL     1      -3.541  30.871 -28.732  1.00  0.00     0.098 C 
ATOM     26  C   UNL     1      -3.113  31.441 -27.345  1.00  0.00     0.052 C 
ATOM     27  C   UNL     1      -2.146  31.321 -29.264  1.00  0.00     0.052 C 
ATOM     28  C   UNL     1      -1.637  31.445 -27.809  1.00  0.00     0.097 C 
ATOM     29  C   UNL     1      -0.823  30.350 -27.316  1.00  0.00     0.066 C 
ATOM     30  N   UNL     1      -0.181  29.477 -26.902  1.00  0.00    -0.198 NA
BRANCH  25  31
ATOM     31  C   UNL     1      -4.770  31.531 -29.352  1.00  0.00     0.152 C 
ATOM     32  C   UNL     1      -4.496  32.904 -29.802  1.00  0.00     0.065 C 
ATOM     33  N   UNL     1      -4.291  33.990 -30.152  1.00  0.00    -0.198 NA
ENDBRANCH  25  31
ENDBRANCH  24  25
ENDBRANCH   3  20
TORSDOF 6
ENDMDL
