REMARK VINA RESULT:    -5.841      2.484      6.493
REMARK INTER + INTRA:         -13.387
REMARK INTER:                 -11.606
REMARK INTRA:                  -1.781
REMARK UNBOUND:                -2.082
REMARK SMILES C#CCN(CC)C(=O)Oc1cccc2c(CN(C)CCC3CCCCCC3)c[nH]c12
REMARK SMILES IDX 16 1 15 2 10 3 11 4 30 5 12 6 29 7 14 8 13 9 28 10 9 12 7 13
REMARK SMILES IDX 8 14 4 15 3 16 2 17 1 18 5 19 6 20 17 21 18 22 19 23 20 24
REMARK SMILES IDX 21 25 22 26 23 27 24 28 27 30 26 31 25 32
REMARK H PARENT 29 11
REMARK Flexibility Score:   48.900
ROOT
ATOM      1  C   UNL     1     131.262 114.084  42.697  1.00  0.00     0.122 C 
ENDROOT
BRANCH   1   2
ATOM      2  C   UNL     1     132.203 113.254  41.871  1.00  0.00    -0.008 A 
ATOM      3  C   UNL     1     135.187 111.260  41.322  1.00  0.00     0.156 A 
ATOM      4  C   UNL     1     135.884 111.305  42.537  1.00  0.00     0.049 A 
ATOM      5  C   UNL     1     133.977 111.957  41.220  1.00  0.00     0.089 A 
ATOM      6  C   UNL     1     135.390 112.033  43.614  1.00  0.00     0.005 A 
ATOM      7  N   UNL     1     133.087 112.096  40.183  1.00  0.00    -0.358 N 
ATOM      8  C   UNL     1     133.454 112.690  42.293  1.00  0.00     0.008 A 
ATOM      9  C   UNL     1     134.180 112.726  43.504  1.00  0.00     0.011 A 
ATOM     10  C   UNL     1     132.013 112.845  40.563  1.00  0.00     0.088 A 
ATOM     11  H   UNL     1     133.234 111.696  39.260  1.00  0.00     0.166 HD
BRANCH   3  12
ATOM     12  O   UNL     1     135.822 110.446  40.315  1.00  0.00    -0.408 OA
BRANCH  12  13
ATOM     13  C   UNL     1     137.004 110.688  39.613  1.00  0.00     0.416 C 
ATOM     14  O   UNL     1     138.119 110.713  40.125  1.00  0.00    -0.224 OA
BRANCH  13  15
ATOM     15  N   UNL     1     136.788 110.893  38.258  1.00  0.00    -0.297 N 
BRANCH  15  16
ATOM     16  C   UNL     1     135.701 110.254  37.530  1.00  0.00     0.212 C 
ATOM     17  C   UNL     1     134.947 111.248  36.754  1.00  0.00    -0.085 C 
ATOM     18  C   UNL     1     134.337 112.072  36.128  1.00  0.00     0.006 C 
ENDBRANCH  15  16
BRANCH  15  19
ATOM     19  C   UNL     1     137.668 111.796  37.524  1.00  0.00     0.121 C 
ATOM     20  C   UNL     1     138.828 111.052  36.884  1.00  0.00     0.027 C 
ENDBRANCH  15  19
ENDBRANCH  13  15
ENDBRANCH  12  13
ENDBRANCH   3  12
ENDBRANCH   1   2
BRANCH   1  21
ATOM     21  N   UNL     1     131.980 115.190  43.358  1.00  0.00    -0.302 NA
ATOM     22  C   UNL     1     131.186 115.735  44.464  1.00  0.00     0.105 C 
BRANCH  21  23
ATOM     23  C   UNL     1     132.326 116.269  42.419  1.00  0.00     0.085 C 
BRANCH  23  24
ATOM     24  C   UNL     1     133.821 116.631  42.359  1.00  0.00     0.019 C 
BRANCH  24  25
ATOM     25  C   UNL     1     134.616 116.005  41.185  1.00  0.00    -0.010 C 
BRANCH  25  26
ATOM     26  C   UNL     1     133.877 116.255  39.856  1.00  0.00     0.003 C 
BRANCH  26  27
ATOM     27  C   UNL     1     134.618 115.815  38.595  1.00  0.00     0.000 C 
BRANCH  27  28
ATOM     28  C   UNL     1     135.280 114.448  38.756  1.00  0.00     0.000 CG0
ATOM     29  G   UNL     1     136.478 114.423  39.699  1.00  0.00     0.000 G0
ENDBRANCH  27  28
ENDBRANCH  26  27
ENDBRANCH  25  26
BRANCH  25  30
ATOM     30  C   UNL     1     136.087 116.454  41.207  1.00  0.00     0.003 C 
BRANCH  30  31
ATOM     31  C   UNL     1     136.982 115.815  40.145  1.00  0.00     0.000 C 
BRANCH  31  32
ATOM     32  C   UNL     1     136.494 114.434  39.712  1.00  0.00     0.000 CG0
ATOM     33  G   UNL     1     135.298 114.436  38.766  1.00  0.00     0.000 G0
ENDBRANCH  31  32
ENDBRANCH  30  31
ENDBRANCH  25  30
ENDBRANCH  24  25
ENDBRANCH  23  24
ENDBRANCH  21  23
ENDBRANCH   1  21
TORSDOF 10
