REMARK SMILES CCCS(=O)(=O)C[C@H]1C[C@H](N(C)c2ncnc3[nH]ccc23)C1
REMARK SMILES IDX 7 1 4 2 5 3 6 4 3 5 2 6 1 7 8 8 9 9 22 10 10 11 11 12 12 13
REMARK SMILES IDX 13 14 14 15 21 16 15 17 20 18 17 19 16 20 19 21 18 22
REMARK H PARENT 18 23
REMARK INDEX MAP 7 1 4 2 5 3 6 4 3 5 2 6 1 7 8 8 9 9 22 10 10 11 11 12 12 13
REMARK INDEX MAP 13 14 14 15 21 16 15 17 20 18 17 19 16 20 19 21 18 22 40 23
ROOT
ATOM      1  C   UNL     1      -3.058  24.434 -26.985  1.00  0.00     0.140 C 
ENDROOT
BRANCH   1   2
ATOM      2  S   UNL     1      -1.990  24.388 -25.552  1.00  0.00     0.150 S 
ATOM      3  O   UNL     1      -2.456  25.394 -24.618  1.00  0.00    -0.229 OA
ATOM      4  O   UNL     1      -1.839  23.002 -25.154  1.00  0.00    -0.229 OA
BRANCH   2   5
ATOM      5  C   UNL     1      -0.429  24.939 -26.222  1.00  0.00     0.136 C 
BRANCH   5   6
ATOM      6  C   UNL     1       0.092  26.222 -25.583  1.00  0.00     0.013 C 
ATOM      7  C   UNL     1       0.100  27.415 -26.525  1.00  0.00     0.005 C 
ENDBRANCH   5   6
ENDBRANCH   2   5
ENDBRANCH   1   2
BRANCH   1   8
ATOM      8  C   UNL     1      -2.630  25.530 -27.956  1.00  0.00     0.008 C 
ATOM      9  C   UNL     1      -2.742  25.256 -29.480  1.00  0.00     0.029 C 
ATOM     10  C   UNL     1      -3.690  26.638 -28.178  1.00  0.00     0.029 C 
ATOM     11  C   UNL     1      -4.175  25.857 -29.432  1.00  0.00     0.084 C 
BRANCH  11  12
ATOM     12  N   UNL     1      -4.503  26.675 -30.566  1.00  0.00    -0.356 N 
ATOM     13  C   UNL     1      -4.175  28.097 -30.573  1.00  0.00     0.145 C 
BRANCH  12  14
ATOM     14  C   UNL     1      -5.226  26.269 -31.712  1.00  0.00     0.141 A 
ATOM     15  N   UNL     1      -5.909  27.219 -32.417  1.00  0.00    -0.219 NA
ATOM     16  C   UNL     1      -5.311  24.941 -32.191  1.00  0.00     0.061 A 
ATOM     17  C   UNL     1      -6.578  26.874 -33.532  1.00  0.00     0.226 A 
ATOM     18  C   UNL     1      -4.865  23.645 -31.789  1.00  0.00     0.033 A 
ATOM     19  C   UNL     1      -6.047  24.737 -33.354  1.00  0.00     0.142 A 
ATOM     20  N   UNL     1      -6.697  25.658 -34.079  1.00  0.00    -0.218 NA
ATOM     21  C   UNL     1      -5.303  22.724 -32.718  1.00  0.00     0.085 A 
ATOM     22  N   UNL     1      -6.013  23.407 -33.668  1.00  0.00    -0.346 N 
ATOM     23  H   UNL     1      -6.455  22.983 -34.496  1.00  0.00     0.167 HD
ENDBRANCH  12  14
ENDBRANCH  11  12
ENDBRANCH   1   8
TORSDOF 6
