REMARK VINA RESULT:    -8.271      1.855      5.242
REMARK INTER + INTRA:         -15.485
REMARK INTER:                 -13.903
REMARK INTRA:                  -1.582
REMARK UNBOUND:                -1.654
REMARK SMILES CCCOc1cc(F)c(C[C@H](CC)C(=O)O)cc1CNC(=O)c1ccc([C@]23C[C@H]4C[C@H](C[C@H](C4)C2)C3)cc1F
REMARK SMILES IDX 5 1 6 2 7 3 8 4 9 5 17 6 18 7 4 8 3 9 2 10 1 11 19 12 20 13
REMARK SMILES IDX 21 14 22 15 23 17 24 18 38 19 25 20 37 21 26 22 39 23 27 24
REMARK SMILES IDX 36 25 35 26 28 27 31 28 33 29 29 30 30 31 32 32 34 33 10 34
REMARK SMILES IDX 11 35 12 36 13 37 14 38 15 39 16 40
REMARK H PARENT 20 16 16 41
ROOT
ATOM      1  C   UNL     1       8.620   3.624  -3.890  1.00  0.00     0.127 A 
ATOM      2  C   UNL     1       7.525   4.138  -3.191  1.00  0.00     0.086 A 
ATOM      3  C   UNL     1       6.509   4.810  -3.873  1.00  0.00     0.130 A 
ATOM      4  F   UNL     1       5.512   5.362  -3.165  1.00  0.00    -0.207 F 
ATOM      5  C   UNL     1       6.531   4.945  -5.257  1.00  0.00    -0.011 A 
ATOM      6  C   UNL     1       7.585   4.357  -5.960  1.00  0.00     0.016 A 
ATOM      7  C   UNL     1       8.655   3.742  -5.291  1.00  0.00     0.014 A 
ENDROOT
BRANCH   1   8
ATOM      8  O   UNL     1       9.708   3.018  -3.322  1.00  0.00    -0.493 OA
BRANCH   8   9
ATOM      9  C   UNL     1       9.664   1.620  -3.036  1.00  0.00     0.229 C 
BRANCH   9  10
ATOM     10  C   UNL     1      10.926   0.894  -3.504  1.00  0.00     0.038 C 
ATOM     11  C   UNL     1      12.019   0.882  -2.443  1.00  0.00     0.007 C 
ENDBRANCH   9  10
ENDBRANCH   8   9
ENDBRANCH   1   8
BRANCH   7  12
ATOM     12  C   UNL     1       9.868   3.362  -6.104  1.00  0.00     0.156 C 
BRANCH  12  13
ATOM     13  N   UNL     1      10.108   4.337  -7.150  1.00  0.00    -0.348 N 
ATOM     14  C   UNL     1       9.814   4.124  -8.478  1.00  0.00     0.254 C 
ATOM     15  O   UNL     1       9.379   3.061  -8.918  1.00  0.00    -0.269 OA
ATOM     16  H   UNL     1      10.423   5.250  -6.848  1.00  0.00     0.164 HD
BRANCH  14  17
ATOM     17  C   UNL     1      10.016   5.274  -9.406  1.00  0.00     0.075 A 
ATOM     18  C   UNL     1      10.109   6.562  -8.869  1.00  0.00     0.017 A 
ATOM     19  C   UNL     1      10.116   5.130 -10.789  1.00  0.00     0.136 A 
ATOM     20  C   UNL     1      10.298   7.671  -9.703  1.00  0.00     0.005 A 
ATOM     21  C   UNL     1      10.303   6.237 -11.624  1.00  0.00     0.044 A 
ATOM     22  C   UNL     1      10.398   7.536 -11.102  1.00  0.00    -0.039 A 
ATOM     23  F   UNL     1      10.036   3.921 -11.367  1.00  0.00    -0.206 F 
BRANCH  22  24
ATOM     24  C   UNL     1      10.607   8.776 -11.986  1.00  0.00    -0.004 C 
ATOM     25  C   UNL     1       9.382   9.116 -12.890  1.00  0.00     0.015 C 
ATOM     26  C   UNL     1      10.884  10.026 -11.099  1.00  0.00     0.015 C 
ATOM     27  C   UNL     1      11.828   8.561 -12.930  1.00  0.00     0.015 C 
ATOM     28  C   UNL     1       9.643  10.363 -13.753  1.00  0.00    -0.010 C 
ATOM     29  C   UNL     1      11.153  11.272 -11.962  1.00  0.00    -0.010 C 
ATOM     30  C   UNL     1      12.094   9.810 -13.787  1.00  0.00    -0.010 C 
ATOM     31  C   UNL     1      10.861  10.108 -14.653  1.00  0.00     0.007 C 
ATOM     32  C   UNL     1       9.925  11.561 -12.836  1.00  0.00     0.007 C 
ATOM     33  C   UNL     1      12.369  11.010 -12.865  1.00  0.00     0.007 C 
ENDBRANCH  22  24
ENDBRANCH  14  17
ENDBRANCH  12  13
ENDBRANCH   7  12
BRANCH   5  34
ATOM     34  C   UNL     1       5.532   5.808  -5.991  1.00  0.00     0.054 C 
BRANCH  34  35
ATOM     35  C   UNL     1       5.408   7.223  -5.383  1.00  0.00     0.103 C 
BRANCH  35  36
ATOM     36  C   UNL     1       3.963   7.743  -5.360  1.00  0.00     0.012 C 
ATOM     37  C   UNL     1       3.058   6.973  -4.410  1.00  0.00     0.005 C 
ENDBRANCH  35  36
BRANCH  35  38
ATOM     38  C   UNL     1       6.280   8.228  -6.114  1.00  0.00     0.306 C 
ATOM     39  O   UNL     1       7.306   7.965  -6.721  1.00  0.00    -0.252 OA
BRANCH  38  40
ATOM     40  O   UNL     1       5.793   9.485  -6.071  1.00  0.00    -0.481 OA
ATOM     41  H   UNL     1       4.984   9.430  -5.496  1.00  0.00     0.296 HD
ENDBRANCH  38  40
ENDBRANCH  35  38
ENDBRANCH  34  35
ENDBRANCH   5  34
TORSDOF 12
