MODEL 1
REMARK VINA RESULT:    -9.889      0.000      0.000
REMARK INTER + INTRA:         -17.730
REMARK INTER:                 -15.960
REMARK INTRA:                  -1.770
REMARK UNBOUND:                -1.770
REMARK SMILES CC(C)(O)CC(=O)NCCn1ccc2ncnc(Nc3ccc(Oc4cccc(C(F)(F)F)c4)c(Cl)c3)c21
REMARK SMILES IDX 11 1 12 2 13 3 14 4 38 5 18 6 17 7 16 8 15 9 10 10 9 11 8 12
REMARK SMILES IDX 6 13 7 14 5 16 2 17 1 18 3 19 4 20 19 22 20 24 21 25 37 26
REMARK SMILES IDX 22 27 35 28 23 29 36 30 24 31 25 32 26 33 34 34 27 35 29 36
REMARK SMILES IDX 28 37 30 38 31 39 32 40 33 41
REMARK H PARENT 8 15 4 21 19 23
ROOT
ATOM      1  N   UNL     1      16.304   2.177  26.218  1.00  0.00    -0.341 N 
ATOM      2  C   UNL     1      17.488   1.878  25.579  1.00  0.00     0.088 A 
ATOM      3  C   UNL     1      17.822   0.581  25.886  1.00  0.00     0.048 A 
ATOM      4  C   UNL     1      16.812   0.081  26.736  1.00  0.00     0.094 A 
ATOM      5  C   UNL     1      15.854   1.079  26.935  1.00  0.00     0.110 A 
ATOM      6  C   UNL     1      14.740   0.805  27.751  1.00  0.00     0.158 A 
ATOM      7  N   UNL     1      14.690  -0.435  28.296  1.00  0.00    -0.217 NA
ATOM      8  C   UNL     1      15.663  -1.322  28.044  1.00  0.00     0.225 A 
ATOM      9  N   UNL     1      16.742  -1.148  27.283  1.00  0.00    -0.235 NA
ENDROOT
BRANCH   1  10
ATOM     10  C   UNL     1      15.689   3.495  26.120  1.00  0.00     0.143 C 
BRANCH  10  11
ATOM     11  C   UNL     1      14.652   3.564  24.998  1.00  0.00     0.137 C 
BRANCH  11  12
ATOM     12  N   UNL     1      13.844   4.763  25.057  1.00  0.00    -0.354 N 
ATOM     13  C   UNL     1      12.573   4.773  25.574  1.00  0.00     0.222 C 
ATOM     14  O   UNL     1      12.034   3.769  26.030  1.00  0.00    -0.275 OA
ATOM     15  H   UNL     1      14.209   5.646  24.689  1.00  0.00     0.163 HD
BRANCH  13  16
ATOM     16  C   UNL     1      11.912   6.137  25.610  1.00  0.00     0.134 C 
BRANCH  16  17
ATOM     17  C   UNL     1      10.614   6.250  24.795  1.00  0.00     0.068 C 
ATOM     18  C   UNL     1      10.912   5.943  23.322  1.00  0.00     0.042 C 
ATOM     19  C   UNL     1       9.957   7.626  24.920  1.00  0.00     0.042 C 
BRANCH  17  20
ATOM     20  O   UNL     1       9.688   5.256  25.264  1.00  0.00    -0.390 OA
ATOM     21  H   UNL     1      10.210   4.532  25.660  1.00  0.00     0.211 HD
ENDBRANCH  17  20
ENDBRANCH  16  17
ENDBRANCH  13  16
ENDBRANCH  11  12
ENDBRANCH  10  11
ENDBRANCH   1  10
BRANCH   6  22
ATOM     22  N   UNL     1      13.697   1.714  27.978  1.00  0.00    -0.338 N 
ATOM     23  H   UNL     1      13.598   2.419  27.271  1.00  0.00     0.168 HD
BRANCH  22  24
ATOM     24  C   UNL     1      12.732   1.810  28.998  1.00  0.00     0.041 A 
ATOM     25  C   UNL     1      11.402   2.189  28.780  1.00  0.00     0.030 A 
ATOM     26  C   UNL     1      13.121   1.518  30.317  1.00  0.00     0.050 A 
ATOM     27  C   UNL     1      10.490   2.280  29.837  1.00  0.00     0.051 A 
ATOM     28  C   UNL     1      12.215   1.605  31.380  1.00  0.00     0.085 A 
ATOM     29  C   UNL     1      10.902   2.010  31.140  1.00  0.00     0.146 A 
ATOM     30  Cl  UNL     1      12.767   1.184  32.960  1.00  0.00    -0.080 Cl
BRANCH  29  31
ATOM     31  O   UNL     1       9.956   2.080  32.133  1.00  0.00    -0.456 OA
BRANCH  31  32
ATOM     32  C   UNL     1       8.887   1.213  32.063  1.00  0.00     0.128 A 
ATOM     33  C   UNL     1       7.543   1.588  32.131  1.00  0.00     0.047 A 
ATOM     34  C   UNL     1       9.223  -0.131  31.870  1.00  0.00     0.060 A 
ATOM     35  C   UNL     1       6.544   0.619  32.032  1.00  0.00     0.004 A 
ATOM     36  C   UNL     1       8.226  -1.114  31.776  1.00  0.00     0.059 A 
ATOM     37  C   UNL     1       6.881  -0.723  31.854  1.00  0.00     0.013 A 
BRANCH  36  38
ATOM     38  C   UNL     1       8.594  -2.558  31.549  1.00  0.00     0.416 C 
ATOM     39  F   UNL     1       7.904  -3.401  32.366  1.00  0.00    -0.166 F 
ATOM     40  F   UNL     1       9.913  -2.814  31.776  1.00  0.00    -0.166 F 
ATOM     41  F   UNL     1       8.347  -2.984  30.278  1.00  0.00    -0.166 F 
ENDBRANCH  36  38
ENDBRANCH  31  32
ENDBRANCH  29  31
ENDBRANCH  22  24
ENDBRANCH   6  22
TORSDOF 11
ENDMDL
MODEL 2
REMARK VINA RESULT:    -9.582      1.690      2.310
REMARK INTER + INTRA:         -17.235
REMARK INTER:                 -15.607
REMARK INTRA:                  -1.628
REMARK UNBOUND:                -1.770
REMARK SMILES CC(C)(O)CC(=O)NCCn1ccc2ncnc(Nc3ccc(Oc4cccc(C(F)(F)F)c4)c(Cl)c3)c21
REMARK SMILES IDX 11 1 12 2 13 3 14 4 38 5 18 6 17 7 16 8 15 9 10 10 9 11 8 12
REMARK SMILES IDX 6 13 7 14 5 16 2 17 1 18 3 19 4 20 19 22 20 24 21 25 37 26
REMARK SMILES IDX 22 27 35 28 23 29 36 30 24 31 25 32 26 33 34 34 27 35 29 36
REMARK SMILES IDX 28 37 30 38 31 39 32 40 33 41
REMARK H PARENT 8 15 4 21 19 23
ROOT
ATOM      1  N   UNL     1      16.261   4.052  25.176  1.00  0.00    -0.341 N 
ATOM      2  C   UNL     1      17.073   4.235  24.078  1.00  0.00     0.088 A 
ATOM      3  C   UNL     1      17.868   3.122  23.945  1.00  0.00     0.048 A 
ATOM      4  C   UNL     1      17.527   2.240  24.993  1.00  0.00     0.094 A 
ATOM      5  C   UNL     1      16.511   2.819  25.758  1.00  0.00     0.110 A 
ATOM      6  C   UNL     1      16.000   2.113  26.864  1.00  0.00     0.158 A 
ATOM      7  N   UNL     1      16.556   0.900  27.106  1.00  0.00    -0.217 NA
ATOM      8  C   UNL     1      17.531   0.434  26.311  1.00  0.00     0.225 A 
ATOM      9  N   UNL     1      18.063   1.030  25.247  1.00  0.00    -0.235 NA
ENDROOT
BRANCH   1  10
ATOM     10  C   UNL     1      15.313   5.070  25.609  1.00  0.00     0.143 C 
BRANCH  10  11
ATOM     11  C   UNL     1      13.901   4.803  25.086  1.00  0.00     0.137 C 
BRANCH  11  12
ATOM     12  N   UNL     1      13.080   5.994  25.059  1.00  0.00    -0.354 N 
ATOM     13  C   UNL     1      11.941   6.123  25.813  1.00  0.00     0.222 C 
ATOM     14  O   UNL     1      11.542   5.242  26.569  1.00  0.00    -0.275 OA
ATOM     15  H   UNL     1      13.330   6.777  24.448  1.00  0.00     0.163 HD
BRANCH  13  16
ATOM     16  C   UNL     1      11.253   7.469  25.700  1.00  0.00     0.134 C 
BRANCH  16  17
ATOM     17  C   UNL     1       9.845   7.429  25.083  1.00  0.00     0.068 C 
ATOM     18  C   UNL     1       9.941   6.932  23.635  1.00  0.00     0.042 C 
ATOM     19  C   UNL     1       9.144   8.788  25.125  1.00  0.00     0.042 C 
BRANCH  17  20
ATOM     20  O   UNL     1       9.051   6.479  25.813  1.00  0.00    -0.390 OA
ATOM     21  H   UNL     1       9.438   5.596  25.665  1.00  0.00     0.211 HD
ENDBRANCH  17  20
ENDBRANCH  16  17
ENDBRANCH  13  16
ENDBRANCH  11  12
ENDBRANCH  10  11
ENDBRANCH   1  10
BRANCH   6  22
ATOM     22  N   UNL     1      14.950   2.576  27.667  1.00  0.00    -0.338 N 
ATOM     23  H   UNL     1      14.857   3.575  27.697  1.00  0.00     0.168 HD
BRANCH  22  24
ATOM     24  C   UNL     1      13.969   1.904  28.422  1.00  0.00     0.041 A 
ATOM     25  C   UNL     1      13.008   1.051  27.867  1.00  0.00     0.030 A 
ATOM     26  C   UNL     1      13.942   2.104  29.813  1.00  0.00     0.050 A 
ATOM     27  C   UNL     1      12.048   0.421  28.667  1.00  0.00     0.051 A 
ATOM     28  C   UNL     1      12.987   1.477  30.620  1.00  0.00     0.085 A 
ATOM     29  C   UNL     1      12.023   0.652  30.041  1.00  0.00     0.146 A 
ATOM     30  Cl  UNL     1      13.056   1.742  32.324  1.00  0.00    -0.080 Cl
BRANCH  29  31
ATOM     31  O   UNL     1      11.082  -0.021  30.781  1.00  0.00    -0.456 OA
BRANCH  31  32
ATOM     32  C   UNL     1       9.923   0.649  31.109  1.00  0.00     0.128 A 
ATOM     33  C   UNL     1       9.693   2.009  30.889  1.00  0.00     0.047 A 
ATOM     34  C   UNL     1       8.916  -0.144  31.666  1.00  0.00     0.060 A 
ATOM     35  C   UNL     1       8.470   2.576  31.249  1.00  0.00     0.004 A 
ATOM     36  C   UNL     1       7.684   0.417  32.037  1.00  0.00     0.059 A 
ATOM     37  C   UNL     1       7.470   1.786  31.818  1.00  0.00     0.013 A 
BRANCH  36  38
ATOM     38  C   UNL     1       6.594  -0.447  32.620  1.00  0.00     0.416 C 
ATOM     39  F   UNL     1       6.565  -0.393  33.980  1.00  0.00    -0.166 F 
ATOM     40  F   UNL     1       6.730  -1.764  32.301  1.00  0.00    -0.166 F 
ATOM     41  F   UNL     1       5.345  -0.092  32.205  1.00  0.00    -0.166 F 
ENDBRANCH  36  38
ENDBRANCH  31  32
ENDBRANCH  29  31
ENDBRANCH  22  24
ENDBRANCH   6  22
TORSDOF 11
ENDMDL
MODEL 3
REMARK VINA RESULT:    -9.512      1.349      2.348
REMARK INTER + INTRA:         -17.121
REMARK INTER:                 -15.376
REMARK INTRA:                  -1.745
REMARK UNBOUND:                -1.770
REMARK SMILES CC(C)(O)CC(=O)NCCn1ccc2ncnc(Nc3ccc(Oc4cccc(C(F)(F)F)c4)c(Cl)c3)c21
REMARK SMILES IDX 11 1 12 2 13 3 14 4 38 5 18 6 17 7 16 8 15 9 10 10 9 11 8 12
REMARK SMILES IDX 6 13 7 14 5 16 2 17 1 18 3 19 4 20 19 22 20 24 21 25 37 26
REMARK SMILES IDX 22 27 35 28 23 29 36 30 24 31 25 32 26 33 34 34 27 35 29 36
REMARK SMILES IDX 28 37 30 38 31 39 32 40 33 41
REMARK H PARENT 8 15 4 21 19 23
ROOT
ATOM      1  N   UNL     1      13.647   3.347  25.222  1.00  0.00    -0.341 N 
ATOM      2  C   UNL     1      14.291   4.212  24.365  1.00  0.00     0.088 A 
ATOM      3  C   UNL     1      15.640   4.129  24.609  1.00  0.00     0.048 A 
ATOM      4  C   UNL     1      15.819   3.186  25.644  1.00  0.00     0.094 A 
ATOM      5  C   UNL     1      14.568   2.687  26.021  1.00  0.00     0.110 A 
ATOM      6  C   UNL     1      14.497   1.720  27.041  1.00  0.00     0.158 A 
ATOM      7  N   UNL     1      15.678   1.347  27.594  1.00  0.00    -0.217 NA
ATOM      8  C   UNL     1      16.826   1.889  27.161  1.00  0.00     0.225 A 
ATOM      9  N   UNL     1      16.982   2.798  26.202  1.00  0.00    -0.235 NA
ENDROOT
BRANCH   1  10
ATOM     10  C   UNL     1      12.195   3.219  25.238  1.00  0.00     0.143 C 
BRANCH  10  11
ATOM     11  C   UNL     1      11.527   4.335  26.043  1.00  0.00     0.137 C 
BRANCH  11  12
ATOM     12  N   UNL     1      10.551   5.073  25.271  1.00  0.00    -0.354 N 
ATOM     13  C   UNL     1      10.721   6.392  24.934  1.00  0.00     0.222 C 
ATOM     14  O   UNL     1      11.715   7.037  25.255  1.00  0.00    -0.275 OA
ATOM     15  H   UNL     1       9.685   4.619  24.969  1.00  0.00     0.163 HD
BRANCH  13  16
ATOM     16  C   UNL     1       9.622   6.973  24.066  1.00  0.00     0.134 C 
BRANCH  16  17
ATOM     17  C   UNL     1       8.425   7.553  24.838  1.00  0.00     0.068 C 
ATOM     18  C   UNL     1       7.174   7.492  23.953  1.00  0.00     0.042 C 
ATOM     19  C   UNL     1       8.666   8.990  25.305  1.00  0.00     0.042 C 
BRANCH  17  20
ATOM     20  O   UNL     1       8.179   6.731  25.990  1.00  0.00    -0.390 OA
ATOM     21  H   UNL     1       9.038   6.377  26.288  1.00  0.00     0.211 HD
ENDBRANCH  17  20
ENDBRANCH  16  17
ENDBRANCH  13  16
ENDBRANCH  11  12
ENDBRANCH  10  11
ENDBRANCH   1  10
BRANCH   6  22
ATOM     22  N   UNL     1      13.304   1.118  27.463  1.00  0.00    -0.338 N 
ATOM     23  H   UNL     1      13.011   0.337  26.904  1.00  0.00     0.168 HD
BRANCH  22  24
ATOM     24  C   UNL     1      12.446   1.377  28.549  1.00  0.00     0.041 A 
ATOM     25  C   UNL     1      11.119   1.798  28.410  1.00  0.00     0.030 A 
ATOM     26  C   UNL     1      12.948   1.212  29.851  1.00  0.00     0.050 A 
ATOM     27  C   UNL     1      10.317   2.053  29.528  1.00  0.00     0.051 A 
ATOM     28  C   UNL     1      12.153   1.464  30.975  1.00  0.00     0.085 A 
ATOM     29  C   UNL     1      10.841   1.908  30.811  1.00  0.00     0.146 A 
ATOM     30  Cl  UNL     1      12.836   1.191  32.536  1.00  0.00    -0.080 Cl
BRANCH  29  31
ATOM     31  O   UNL     1       9.999   2.136  31.871  1.00  0.00    -0.456 OA
BRANCH  31  32
ATOM     32  C   UNL     1       8.901   1.313  32.008  1.00  0.00     0.128 A 
ATOM     33  C   UNL     1       7.600   1.748  32.270  1.00  0.00     0.047 A 
ATOM     34  C   UNL     1       9.154  -0.049  31.824  1.00  0.00     0.060 A 
ATOM     35  C   UNL     1       6.562   0.820  32.371  1.00  0.00     0.004 A 
ATOM     36  C   UNL     1       8.119  -0.992  31.930  1.00  0.00     0.059 A 
ATOM     37  C   UNL     1       6.819  -0.541  32.201  1.00  0.00     0.013 A 
BRANCH  36  38
ATOM     38  C   UNL     1       8.394  -2.458  31.711  1.00  0.00     0.416 C 
ATOM     39  F   UNL     1       8.189  -2.834  30.418  1.00  0.00    -0.166 F 
ATOM     40  F   UNL     1       7.599  -3.267  32.465  1.00  0.00    -0.166 F 
ATOM     41  F   UNL     1       9.674  -2.816  32.006  1.00  0.00    -0.166 F 
ENDBRANCH  36  38
ENDBRANCH  31  32
ENDBRANCH  29  31
ENDBRANCH  22  24
ENDBRANCH   6  22
TORSDOF 11
ENDMDL
MODEL 4
REMARK VINA RESULT:    -9.394      1.680      2.097
REMARK INTER + INTRA:         -16.931
REMARK INTER:                 -15.500
REMARK INTRA:                  -1.431
REMARK UNBOUND:                -1.770
REMARK SMILES CC(C)(O)CC(=O)NCCn1ccc2ncnc(Nc3ccc(Oc4cccc(C(F)(F)F)c4)c(Cl)c3)c21
REMARK SMILES IDX 11 1 12 2 13 3 14 4 38 5 18 6 17 7 16 8 15 9 10 10 9 11 8 12
REMARK SMILES IDX 6 13 7 14 5 16 2 17 1 18 3 19 4 20 19 22 20 24 21 25 37 26
REMARK SMILES IDX 22 27 35 28 23 29 36 30 24 31 25 32 26 33 34 34 27 35 29 36
REMARK SMILES IDX 28 37 30 38 31 39 32 40 33 41
REMARK H PARENT 8 15 4 21 19 23
ROOT
ATOM      1  N   UNL     1      16.695   2.395  25.805  1.00  0.00    -0.341 N 
ATOM      2  C   UNL     1      17.833   2.060  25.105  1.00  0.00     0.088 A 
ATOM      3  C   UNL     1      18.153   0.759  25.408  1.00  0.00     0.048 A 
ATOM      4  C   UNL     1      17.180   0.292  26.318  1.00  0.00     0.094 A 
ATOM      5  C   UNL     1      16.259   1.316  26.559  1.00  0.00     0.110 A 
ATOM      6  C   UNL     1      15.186   1.078  27.438  1.00  0.00     0.158 A 
ATOM      7  N   UNL     1      15.137  -0.155  28.000  1.00  0.00    -0.217 NA
ATOM      8  C   UNL     1      16.073  -1.068  27.705  1.00  0.00     0.225 A 
ATOM      9  N   UNL     1      17.111  -0.929  26.883  1.00  0.00    -0.235 NA
ENDROOT
BRANCH   1  10
ATOM     10  C   UNL     1      16.107   3.726  25.726  1.00  0.00     0.143 C 
BRANCH  10  11
ATOM     11  C   UNL     1      15.027   3.816  24.647  1.00  0.00     0.137 C 
BRANCH  11  12
ATOM     12  N   UNL     1      13.765   4.307  25.158  1.00  0.00    -0.354 N 
ATOM     13  C   UNL     1      13.505   5.645  25.319  1.00  0.00     0.222 C 
ATOM     14  O   UNL     1      14.319   6.519  25.033  1.00  0.00    -0.275 OA
ATOM     15  H   UNL     1      13.031   3.650  25.433  1.00  0.00     0.163 HD
BRANCH  13  16
ATOM     16  C   UNL     1      12.105   5.967  25.804  1.00  0.00     0.134 C 
BRANCH  16  17
ATOM     17  C   UNL     1      10.974   5.508  24.870  1.00  0.00     0.068 C 
ATOM     18  C   UNL     1      11.440   5.627  23.414  1.00  0.00     0.042 C 
ATOM     19  C   UNL     1       9.683   6.304  25.072  1.00  0.00     0.042 C 
BRANCH  17  20
ATOM     20  O   UNL     1      10.702   4.120  25.125  1.00  0.00    -0.390 OA
ATOM     21  H   UNL     1      11.163   3.877  25.949  1.00  0.00     0.211 HD
ENDBRANCH  17  20
ENDBRANCH  16  17
ENDBRANCH  13  16
ENDBRANCH  11  12
ENDBRANCH  10  11
ENDBRANCH   1  10
BRANCH   6  22
ATOM     22  N   UNL     1      14.180   2.014  27.712  1.00  0.00    -0.338 N 
ATOM     23  H   UNL     1      14.161   2.801  27.090  1.00  0.00     0.168 HD
BRANCH  22  24
ATOM     24  C   UNL     1      13.158   2.049  28.681  1.00  0.00     0.041 A 
ATOM     25  C   UNL     1      11.821   2.347  28.394  1.00  0.00     0.030 A 
ATOM     26  C   UNL     1      13.495   1.778  30.018  1.00  0.00     0.050 A 
ATOM     27  C   UNL     1      10.851   2.379  29.402  1.00  0.00     0.051 A 
ATOM     28  C   UNL     1      12.532   1.807  31.033  1.00  0.00     0.085 A 
ATOM     29  C   UNL     1      11.211   2.132  30.725  1.00  0.00     0.146 A 
ATOM     30  Cl  UNL     1      13.026   1.416  32.640  1.00  0.00    -0.080 Cl
BRANCH  29  31
ATOM     31  O   UNL     1      10.213   2.142  31.668  1.00  0.00    -0.456 OA
BRANCH  31  32
ATOM     32  C   UNL     1       9.372   1.050  31.724  1.00  0.00     0.128 A 
ATOM     33  C   UNL     1       9.724  -0.253  31.361  1.00  0.00     0.047 A 
ATOM     34  C   UNL     1       8.093   1.310  32.224  1.00  0.00     0.060 A 
ATOM     35  C   UNL     1       8.790  -1.284  31.477  1.00  0.00     0.004 A 
ATOM     36  C   UNL     1       7.144   0.282  32.338  1.00  0.00     0.059 A 
ATOM     37  C   UNL     1       7.509  -1.020  31.963  1.00  0.00     0.013 A 
BRANCH  36  38
ATOM     38  C   UNL     1       5.773   0.564  32.896  1.00  0.00     0.416 C 
ATOM     39  F   UNL     1       5.630   0.106  34.170  1.00  0.00    -0.166 F 
ATOM     40  F   UNL     1       4.774  -0.018  32.176  1.00  0.00    -0.166 F 
ATOM     41  F   UNL     1       5.472   1.893  32.940  1.00  0.00    -0.166 F 
ENDBRANCH  36  38
ENDBRANCH  31  32
ENDBRANCH  29  31
ENDBRANCH  22  24
ENDBRANCH   6  22
TORSDOF 11
ENDMDL
MODEL 5
REMARK VINA RESULT:    -9.265      5.172      9.448
REMARK INTER + INTRA:         -16.723
REMARK INTER:                 -16.084
REMARK INTRA:                  -0.639
REMARK UNBOUND:                -1.770
REMARK SMILES CC(C)(O)CC(=O)NCCn1ccc2ncnc(Nc3ccc(Oc4cccc(C(F)(F)F)c4)c(Cl)c3)c21
REMARK SMILES IDX 11 1 12 2 13 3 14 4 38 5 18 6 17 7 16 8 15 9 10 10 9 11 8 12
REMARK SMILES IDX 6 13 7 14 5 16 2 17 1 18 3 19 4 20 19 22 20 24 21 25 37 26
REMARK SMILES IDX 22 27 35 28 23 29 36 30 24 31 25 32 26 33 34 34 27 35 29 36
REMARK SMILES IDX 28 37 30 38 31 39 32 40 33 41
REMARK H PARENT 8 15 4 21 19 23
ROOT
ATOM      1  N   UNL     1       8.162   0.858  32.088  1.00  0.00    -0.341 N 
ATOM      2  C   UNL     1       6.881   0.561  32.499  1.00  0.00     0.088 A 
ATOM      3  C   UNL     1       6.726  -0.804  32.463  1.00  0.00     0.048 A 
ATOM      4  C   UNL     1       7.950  -1.349  32.017  1.00  0.00     0.094 A 
ATOM      5  C   UNL     1       8.854  -0.307  31.793  1.00  0.00     0.110 A 
ATOM      6  C   UNL     1      10.153  -0.612  31.346  1.00  0.00     0.158 A 
ATOM      7  N   UNL     1      10.426  -1.927  31.158  1.00  0.00    -0.217 NA
ATOM      8  C   UNL     1       9.486  -2.852  31.400  1.00  0.00     0.225 A 
ATOM      9  N   UNL     1       8.242  -2.651  31.829  1.00  0.00    -0.235 NA
ENDROOT
BRANCH   1  10
ATOM     10  C   UNL     1       8.638   2.231  31.986  1.00  0.00     0.143 C 
BRANCH  10  11
ATOM     11  C   UNL     1       8.008   2.972  30.804  1.00  0.00     0.137 C 
BRANCH  11  12
ATOM     12  N   UNL     1       6.819   3.707  31.175  1.00  0.00    -0.354 N 
ATOM     13  C   UNL     1       6.853   4.788  32.021  1.00  0.00     0.222 C 
ATOM     14  O   UNL     1       7.893   5.212  32.515  1.00  0.00    -0.275 OA
ATOM     15  H   UNL     1       5.904   3.418  30.819  1.00  0.00     0.163 HD
BRANCH  13  16
ATOM     16  C   UNL     1       5.515   5.467  32.238  1.00  0.00     0.134 C 
BRANCH  16  17
ATOM     17  C   UNL     1       4.593   4.775  33.255  1.00  0.00     0.068 C 
ATOM     18  C   UNL     1       3.429   5.711  33.603  1.00  0.00     0.042 C 
ATOM     19  C   UNL     1       5.329   4.360  34.530  1.00  0.00     0.042 C 
BRANCH  17  20
ATOM     20  O   UNL     1       4.035   3.600  32.644  1.00  0.00    -0.390 OA
ATOM     21  H   UNL     1       3.511   3.890  31.874  1.00  0.00     0.211 HD
ENDBRANCH  17  20
ENDBRANCH  16  17
ENDBRANCH  13  16
ENDBRANCH  11  12
ENDBRANCH  10  11
ENDBRANCH   1  10
BRANCH   6  22
ATOM     22  N   UNL     1      11.152   0.348  31.138  1.00  0.00    -0.338 N 
ATOM     23  H   UNL     1      11.489   0.788  31.974  1.00  0.00     0.168 HD
BRANCH  22  24
ATOM     24  C   UNL     1      11.806   0.796  29.973  1.00  0.00     0.041 A 
ATOM     25  C   UNL     1      12.614  -0.018  29.171  1.00  0.00     0.030 A 
ATOM     26  C   UNL     1      11.648   2.140  29.593  1.00  0.00     0.050 A 
ATOM     27  C   UNL     1      13.249   0.488  28.031  1.00  0.00     0.051 A 
ATOM     28  C   UNL     1      12.278   2.654  28.455  1.00  0.00     0.085 A 
ATOM     29  C   UNL     1      13.100   1.830  27.686  1.00  0.00     0.146 A 
ATOM     30  Cl  UNL     1      11.992   4.304  28.037  1.00  0.00    -0.080 Cl
BRANCH  29  31
ATOM     31  O   UNL     1      13.716   2.262  26.538  1.00  0.00    -0.456 OA
BRANCH  31  32
ATOM     32  C   UNL     1      15.070   2.033  26.410  1.00  0.00     0.128 A 
ATOM     33  C   UNL     1      15.805   1.123  27.173  1.00  0.00     0.047 A 
ATOM     34  C   UNL     1      15.704   2.764  25.401  1.00  0.00     0.060 A 
ATOM     35  C   UNL     1      17.172   0.965  26.942  1.00  0.00     0.004 A 
ATOM     36  C   UNL     1      17.079   2.618  25.164  1.00  0.00     0.059 A 
ATOM     37  C   UNL     1      17.806   1.706  25.944  1.00  0.00     0.013 A 
BRANCH  36  38
ATOM     38  C   UNL     1      17.753   3.394  24.062  1.00  0.00     0.416 C 
ATOM     39  F   UNL     1      18.085   4.657  24.448  1.00  0.00    -0.166 F 
ATOM     40  F   UNL     1      16.972   3.536  22.955  1.00  0.00    -0.166 F 
ATOM     41  F   UNL     1      18.910   2.820  23.628  1.00  0.00    -0.166 F 
ENDBRANCH  36  38
ENDBRANCH  31  32
ENDBRANCH  29  31
ENDBRANCH  22  24
ENDBRANCH   6  22
TORSDOF 11
ENDMDL
MODEL 6
REMARK VINA RESULT:    -9.178      2.942      4.779
REMARK INTER + INTRA:         -16.582
REMARK INTER:                 -14.755
REMARK INTRA:                  -1.827
REMARK UNBOUND:                -1.770
REMARK SMILES CC(C)(O)CC(=O)NCCn1ccc2ncnc(Nc3ccc(Oc4cccc(C(F)(F)F)c4)c(Cl)c3)c21
REMARK SMILES IDX 11 1 12 2 13 3 14 4 38 5 18 6 17 7 16 8 15 9 10 10 9 11 8 12
REMARK SMILES IDX 6 13 7 14 5 16 2 17 1 18 3 19 4 20 19 22 20 24 21 25 37 26
REMARK SMILES IDX 22 27 35 28 23 29 36 30 24 31 25 32 26 33 34 34 27 35 29 36
REMARK SMILES IDX 28 37 30 38 31 39 32 40 33 41
REMARK H PARENT 8 15 4 21 19 23
ROOT
ATOM      1  N   UNL     1      15.720   5.477  22.227  1.00  0.00    -0.341 N 
ATOM      2  C   UNL     1      16.183   5.561  20.933  1.00  0.00     0.088 A 
ATOM      3  C   UNL     1      17.364   4.862  20.855  1.00  0.00     0.048 A 
ATOM      4  C   UNL     1      17.623   4.339  22.140  1.00  0.00     0.094 A 
ATOM      5  C   UNL     1      16.586   4.716  22.998  1.00  0.00     0.110 A 
ATOM      6  C   UNL     1      16.625   4.300  24.343  1.00  0.00     0.158 A 
ATOM      7  N   UNL     1      17.698   3.555  24.706  1.00  0.00    -0.217 NA
ATOM      8  C   UNL     1      18.643   3.249  23.804  1.00  0.00     0.225 A 
ATOM      9  N   UNL     1      18.679   3.593  22.519  1.00  0.00    -0.235 NA
ENDROOT
BRANCH   1  10
ATOM     10  C   UNL     1      14.495   6.141  22.651  1.00  0.00     0.143 C 
BRANCH  10  11
ATOM     11  C   UNL     1      13.292   5.729  21.800  1.00  0.00     0.137 C 
BRANCH  11  12
ATOM     12  N   UNL     1      12.054   6.319  22.259  1.00  0.00    -0.354 N 
ATOM     13  C   UNL     1      11.209   5.679  23.129  1.00  0.00     0.222 C 
ATOM     14  O   UNL     1      11.446   4.564  23.586  1.00  0.00    -0.275 OA
ATOM     15  H   UNL     1      11.769   7.243  21.922  1.00  0.00     0.163 HD
BRANCH  13  16
ATOM     16  C   UNL     1       9.994   6.485  23.546  1.00  0.00     0.134 C 
BRANCH  16  17
ATOM     17  C   UNL     1       9.915   6.810  25.046  1.00  0.00     0.068 C 
ATOM     18  C   UNL     1       8.691   7.696  25.309  1.00  0.00     0.042 C 
ATOM     19  C   UNL     1      11.178   7.496  25.569  1.00  0.00     0.042 C 
BRANCH  17  20
ATOM     20  O   UNL     1       9.724   5.584  25.772  1.00  0.00    -0.390 OA
ATOM     21  H   UNL     1      10.432   5.526  26.441  1.00  0.00     0.211 HD
ENDBRANCH  17  20
ENDBRANCH  16  17
ENDBRANCH  13  16
ENDBRANCH  11  12
ENDBRANCH  10  11
ENDBRANCH   1  10
BRANCH   6  22
ATOM     22  N   UNL     1      15.617   4.578  25.275  1.00  0.00    -0.338 N 
ATOM     23  H   UNL     1      15.446   5.555  25.426  1.00  0.00     0.168 HD
BRANCH  22  24
ATOM     24  C   UNL     1      14.764   3.743  26.023  1.00  0.00     0.041 A 
ATOM     25  C   UNL     1      13.444   4.072  26.353  1.00  0.00     0.030 A 
ATOM     26  C   UNL     1      15.265   2.511  26.477  1.00  0.00     0.050 A 
ATOM     27  C   UNL     1      12.648   3.207  27.112  1.00  0.00     0.051 A 
ATOM     28  C   UNL     1      14.476   1.639  27.235  1.00  0.00     0.085 A 
ATOM     29  C   UNL     1      13.172   2.000  27.573  1.00  0.00     0.146 A 
ATOM     30  Cl  UNL     1      15.156   0.126  27.711  1.00  0.00    -0.080 Cl
BRANCH  29  31
ATOM     31  O   UNL     1      12.335   1.174  28.282  1.00  0.00    -0.456 OA
BRANCH  31  32
ATOM     32  C   UNL     1      12.227   1.383  29.641  1.00  0.00     0.128 A 
ATOM     33  C   UNL     1      13.304   1.482  30.525  1.00  0.00     0.047 A 
ATOM     34  C   UNL     1      10.922   1.538  30.116  1.00  0.00     0.060 A 
ATOM     35  C   UNL     1      13.072   1.711  31.882  1.00  0.00     0.004 A 
ATOM     36  C   UNL     1      10.677   1.762  31.480  1.00  0.00     0.059 A 
ATOM     37  C   UNL     1      11.767   1.851  32.357  1.00  0.00     0.013 A 
BRANCH  36  38
ATOM     38  C   UNL     1       9.268   1.949  31.984  1.00  0.00     0.416 C 
ATOM     39  F   UNL     1       8.889   0.955  32.835  1.00  0.00    -0.166 F 
ATOM     40  F   UNL     1       8.342   1.959  30.986  1.00  0.00    -0.166 F 
ATOM     41  F   UNL     1       9.090   3.114  32.668  1.00  0.00    -0.166 F 
ENDBRANCH  36  38
ENDBRANCH  31  32
ENDBRANCH  29  31
ENDBRANCH  22  24
ENDBRANCH   6  22
TORSDOF 11
ENDMDL
MODEL 7
REMARK VINA RESULT:    -9.148      3.078      5.107
REMARK INTER + INTRA:         -16.533
REMARK INTER:                 -14.667
REMARK INTRA:                  -1.866
REMARK UNBOUND:                -1.770
REMARK SMILES CC(C)(O)CC(=O)NCCn1ccc2ncnc(Nc3ccc(Oc4cccc(C(F)(F)F)c4)c(Cl)c3)c21
REMARK SMILES IDX 11 1 12 2 13 3 14 4 38 5 18 6 17 7 16 8 15 9 10 10 9 11 8 12
REMARK SMILES IDX 6 13 7 14 5 16 2 17 1 18 3 19 4 20 19 22 20 24 21 25 37 26
REMARK SMILES IDX 22 27 35 28 23 29 36 30 24 31 25 32 26 33 34 34 27 35 29 36
REMARK SMILES IDX 28 37 30 38 31 39 32 40 33 41
REMARK H PARENT 8 15 4 21 19 23
ROOT
ATOM      1  N   UNL     1      13.504   6.141  22.962  1.00  0.00    -0.341 N 
ATOM      2  C   UNL     1      13.456   6.404  21.611  1.00  0.00     0.088 A 
ATOM      3  C   UNL     1      14.634   5.973  21.050  1.00  0.00     0.048 A 
ATOM      4  C   UNL     1      15.418   5.434  22.093  1.00  0.00     0.094 A 
ATOM      5  C   UNL     1      14.704   5.530  23.291  1.00  0.00     0.110 A 
ATOM      6  C   UNL     1      15.289   5.046  24.476  1.00  0.00     0.158 A 
ATOM      7  N   UNL     1      16.532   4.519  24.356  1.00  0.00    -0.217 NA
ATOM      8  C   UNL     1      17.134   4.476  23.159  1.00  0.00     0.225 A 
ATOM      9  N   UNL     1      16.651   4.902  21.993  1.00  0.00    -0.235 NA
ENDROOT
BRANCH   1  10
ATOM     10  C   UNL     1      12.413   6.507  23.856  1.00  0.00     0.143 C 
BRANCH  10  11
ATOM     11  C   UNL     1      11.169   5.645  23.629  1.00  0.00     0.137 C 
BRANCH  11  12
ATOM     12  N   UNL     1       9.957   6.429  23.528  1.00  0.00    -0.354 N 
ATOM     13  C   UNL     1       9.254   6.847  24.630  1.00  0.00     0.222 C 
ATOM     14  O   UNL     1       9.607   6.593  25.779  1.00  0.00    -0.275 OA
ATOM     15  H   UNL     1       9.582   6.679  22.609  1.00  0.00     0.163 HD
BRANCH  13  16
ATOM     16  C   UNL     1       8.049   7.713  24.324  1.00  0.00     0.134 C 
BRANCH  16  17
ATOM     17  C   UNL     1       8.215   9.202  24.670  1.00  0.00     0.068 C 
ATOM     18  C   UNL     1       6.837   9.875  24.689  1.00  0.00     0.042 C 
ATOM     19  C   UNL     1       9.141   9.934  23.695  1.00  0.00     0.042 C 
BRANCH  17  20
ATOM     20  O   UNL     1       8.766   9.308  25.993  1.00  0.00    -0.390 OA
ATOM     21  H   UNL     1       8.023   9.443  26.611  1.00  0.00     0.211 HD
ENDBRANCH  17  20
ENDBRANCH  16  17
ENDBRANCH  13  16
ENDBRANCH  11  12
ENDBRANCH  10  11
ENDBRANCH   1  10
BRANCH   6  22
ATOM     22  N   UNL     1      14.645   5.046  25.720  1.00  0.00    -0.338 N 
ATOM     23  H   UNL     1      14.677   5.924  26.206  1.00  0.00     0.168 HD
BRANCH  22  24
ATOM     24  C   UNL     1      13.924   4.054  26.413  1.00  0.00     0.041 A 
ATOM     25  C   UNL     1      12.566   4.158  26.734  1.00  0.00     0.030 A 
ATOM     26  C   UNL     1      14.605   2.893  26.817  1.00  0.00     0.050 A 
ATOM     27  C   UNL     1      11.906   3.144  27.436  1.00  0.00     0.051 A 
ATOM     28  C   UNL     1      13.953   1.873  27.519  1.00  0.00     0.085 A 
ATOM     29  C   UNL     1      12.605   2.012  27.849  1.00  0.00     0.146 A 
ATOM     30  Cl  UNL     1      14.854   0.462  27.934  1.00  0.00    -0.080 Cl
BRANCH  29  31
ATOM     31  O   UNL     1      11.899   1.033  28.504  1.00  0.00    -0.456 OA
BRANCH  31  32
ATOM     32  C   UNL     1      11.643   1.213  29.846  1.00  0.00     0.128 A 
ATOM     33  C   UNL     1      12.605   1.174  30.859  1.00  0.00     0.047 A 
ATOM     34  C   UNL     1      10.311   1.493  30.165  1.00  0.00     0.060 A 
ATOM     35  C   UNL     1      12.229   1.388  32.185  1.00  0.00     0.004 A 
ATOM     36  C   UNL     1       9.921   1.704  31.497  1.00  0.00     0.059 A 
ATOM     37  C   UNL     1      10.896   1.653  32.504  1.00  0.00     0.013 A 
BRANCH  36  38
ATOM     38  C   UNL     1       8.487   2.025  31.833  1.00  0.00     0.416 C 
ATOM     39  F   UNL     1       7.880   1.017  32.518  1.00  0.00    -0.166 F 
ATOM     40  F   UNL     1       7.717   2.243  30.730  1.00  0.00    -0.166 F 
ATOM     41  F   UNL     1       8.350   3.138  32.607  1.00  0.00    -0.166 F 
ENDBRANCH  36  38
ENDBRANCH  31  32
ENDBRANCH  29  31
ENDBRANCH  22  24
ENDBRANCH   6  22
TORSDOF 11
ENDMDL
MODEL 8
REMARK VINA RESULT:    -9.106      2.938      3.536
REMARK INTER + INTRA:         -16.466
REMARK INTER:                 -14.518
REMARK INTRA:                  -1.948
REMARK UNBOUND:                -1.770
REMARK SMILES CC(C)(O)CC(=O)NCCn1ccc2ncnc(Nc3ccc(Oc4cccc(C(F)(F)F)c4)c(Cl)c3)c21
REMARK SMILES IDX 11 1 12 2 13 3 14 4 38 5 18 6 17 7 16 8 15 9 10 10 9 11 8 12
REMARK SMILES IDX 6 13 7 14 5 16 2 17 1 18 3 19 4 20 19 22 20 24 21 25 37 26
REMARK SMILES IDX 22 27 35 28 23 29 36 30 24 31 25 32 26 33 34 34 27 35 29 36
REMARK SMILES IDX 28 37 30 38 31 39 32 40 33 41
REMARK H PARENT 8 15 4 21 19 23
ROOT
ATOM      1  N   UNL     1      16.578   2.684  26.057  1.00  0.00    -0.341 N 
ATOM      2  C   UNL     1      17.596   2.411  25.170  1.00  0.00     0.088 A 
ATOM      3  C   UNL     1      17.912   1.078  25.279  1.00  0.00     0.048 A 
ATOM      4  C   UNL     1      17.060   0.528  26.261  1.00  0.00     0.094 A 
ATOM      5  C   UNL     1      16.216   1.534  26.741  1.00  0.00     0.110 A 
ATOM      6  C   UNL     1      15.268   1.215  27.732  1.00  0.00     0.158 A 
ATOM      7  N   UNL     1      15.257  -0.072  28.156  1.00  0.00    -0.217 NA
ATOM      8  C   UNL     1      16.113  -0.962  27.632  1.00  0.00     0.225 A 
ATOM      9  N   UNL     1      17.030  -0.748  26.692  1.00  0.00    -0.235 NA
ENDROOT
BRANCH   1  10
ATOM     10  C   UNL     1      16.029   4.025  26.209  1.00  0.00     0.143 C 
BRANCH  10  11
ATOM     11  C   UNL     1      15.194   4.446  24.999  1.00  0.00     0.137 C 
BRANCH  11  12
ATOM     12  N   UNL     1      14.073   5.287  25.359  1.00  0.00    -0.354 N 
ATOM     13  C   UNL     1      12.777   4.835  25.348  1.00  0.00     0.222 C 
ATOM     14  O   UNL     1      12.478   3.685  25.039  1.00  0.00    -0.275 OA
ATOM     15  H   UNL     1      14.227   6.265  25.620  1.00  0.00     0.163 HD
BRANCH  13  16
ATOM     16  C   UNL     1      11.748   5.843  25.820  1.00  0.00     0.134 C 
BRANCH  16  17
ATOM     17  C   UNL     1      11.333   6.887  24.770  1.00  0.00     0.068 C 
ATOM     18  C   UNL     1      10.640   8.062  25.471  1.00  0.00     0.042 C 
ATOM     19  C   UNL     1      10.417   6.307  23.691  1.00  0.00     0.042 C 
BRANCH  17  20
ATOM     20  O   UNL     1      12.518   7.400  24.139  1.00  0.00    -0.390 OA
ATOM     21  H   UNL     1      12.921   6.669  23.634  1.00  0.00     0.211 HD
ENDBRANCH  17  20
ENDBRANCH  16  17
ENDBRANCH  13  16
ENDBRANCH  11  12
ENDBRANCH  10  11
ENDBRANCH   1  10
BRANCH   6  22
ATOM     22  N   UNL     1      14.342   2.131  28.248  1.00  0.00    -0.338 N 
ATOM     23  H   UNL     1      14.622   3.092  28.177  1.00  0.00     0.168 HD
BRANCH  22  24
ATOM     24  C   UNL     1      13.066   1.965  28.820  1.00  0.00     0.041 A 
ATOM     25  C   UNL     1      11.868   2.099  28.108  1.00  0.00     0.030 A 
ATOM     26  C   UNL     1      12.982   1.656  30.189  1.00  0.00     0.050 A 
ATOM     27  C   UNL     1      10.628   1.935  28.735  1.00  0.00     0.051 A 
ATOM     28  C   UNL     1      11.746   1.490  30.824  1.00  0.00     0.085 A 
ATOM     29  C   UNL     1      10.566   1.653  30.098  1.00  0.00     0.146 A 
ATOM     30  Cl  UNL     1      11.738   1.065  32.496  1.00  0.00    -0.080 Cl
BRANCH  29  31
ATOM     31  O   UNL     1       9.324   1.467  30.653  1.00  0.00    -0.456 OA
BRANCH  31  32
ATOM     32  C   UNL     1       8.682   2.570  31.173  1.00  0.00     0.128 A 
ATOM     33  C   UNL     1       8.835   3.048  32.476  1.00  0.00     0.047 A 
ATOM     34  C   UNL     1       7.852   3.252  30.277  1.00  0.00     0.060 A 
ATOM     35  C   UNL     1       8.143   4.188  32.887  1.00  0.00     0.004 A 
ATOM     36  C   UNL     1       7.146   4.395  30.681  1.00  0.00     0.059 A 
ATOM     37  C   UNL     1       7.304   4.859  31.995  1.00  0.00     0.013 A 
BRANCH  36  38
ATOM     38  C   UNL     1       6.268   5.138  29.705  1.00  0.00     0.416 C 
ATOM     39  F   UNL     1       5.703   6.246  30.260  1.00  0.00    -0.166 F 
ATOM     40  F   UNL     1       5.234   4.384  29.240  1.00  0.00    -0.166 F 
ATOM     41  F   UNL     1       6.938   5.572  28.601  1.00  0.00    -0.166 F 
ENDBRANCH  36  38
ENDBRANCH  31  32
ENDBRANCH  29  31
ENDBRANCH  22  24
ENDBRANCH   6  22
TORSDOF 11
ENDMDL
MODEL 9
REMARK VINA RESULT:    -9.065      2.731      3.275
REMARK INTER + INTRA:         -16.400
REMARK INTER:                 -15.164
REMARK INTRA:                  -1.236
REMARK UNBOUND:                -1.770
REMARK SMILES CC(C)(O)CC(=O)NCCn1ccc2ncnc(Nc3ccc(Oc4cccc(C(F)(F)F)c4)c(Cl)c3)c21
REMARK SMILES IDX 11 1 12 2 13 3 14 4 38 5 18 6 17 7 16 8 15 9 10 10 9 11 8 12
REMARK SMILES IDX 6 13 7 14 5 16 2 17 1 18 3 19 4 20 19 22 20 24 21 25 37 26
REMARK SMILES IDX 22 27 35 28 23 29 36 30 24 31 25 32 26 33 34 34 27 35 29 36
REMARK SMILES IDX 28 37 30 38 31 39 32 40 33 41
REMARK H PARENT 8 15 4 21 19 23
ROOT
ATOM      1  N   UNL     1      15.389   4.094  25.734  1.00  0.00    -0.341 N 
ATOM      2  C   UNL     1      16.468   4.296  24.901  1.00  0.00     0.088 A 
ATOM      3  C   UNL     1      17.266   3.179  24.958  1.00  0.00     0.048 A 
ATOM      4  C   UNL     1      16.653   2.275  25.851  1.00  0.00     0.094 A 
ATOM      5  C   UNL     1      15.469   2.844  26.329  1.00  0.00     0.110 A 
ATOM      6  C   UNL     1      14.678   2.116  27.238  1.00  0.00     0.158 A 
ATOM      7  N   UNL     1      15.145   0.893  27.589  1.00  0.00    -0.217 NA
ATOM      8  C   UNL     1      16.296   0.437  27.074  1.00  0.00     0.225 A 
ATOM      9  N   UNL     1      17.098   1.054  26.208  1.00  0.00    -0.235 NA
ENDROOT
BRANCH   1  10
ATOM     10  C   UNL     1      14.362   5.110  25.923  1.00  0.00     0.143 C 
BRANCH  10  11
ATOM     11  C   UNL     1      13.461   5.254  24.695  1.00  0.00     0.137 C 
BRANCH  11  12
ATOM     12  N   UNL     1      12.589   6.406  24.774  1.00  0.00    -0.354 N 
ATOM     13  C   UNL     1      11.563   6.495  25.680  1.00  0.00     0.222 C 
ATOM     14  O   UNL     1      11.316   5.608  26.494  1.00  0.00    -0.275 OA
ATOM     15  H   UNL     1      12.713   7.190  24.127  1.00  0.00     0.163 HD
BRANCH  13  16
ATOM     16  C   UNL     1      10.803   7.806  25.654  1.00  0.00     0.134 C 
BRANCH  16  17
ATOM     17  C   UNL     1       9.364   7.711  25.121  1.00  0.00     0.068 C 
ATOM     18  C   UNL     1       9.399   7.359  23.628  1.00  0.00     0.042 C 
ATOM     19  C   UNL     1       8.569   9.001  25.335  1.00  0.00     0.042 C 
BRANCH  17  20
ATOM     20  O   UNL     1       8.691   6.639  25.801  1.00  0.00    -0.390 OA
ATOM     21  H   UNL     1       8.833   6.764  26.758  1.00  0.00     0.211 HD
ENDBRANCH  17  20
ENDBRANCH  16  17
ENDBRANCH  13  16
ENDBRANCH  11  12
ENDBRANCH  10  11
ENDBRANCH   1  10
BRANCH   6  22
ATOM     22  N   UNL     1      13.451   2.569  27.741  1.00  0.00    -0.338 N 
ATOM     23  H   UNL     1      13.032   3.312  27.211  1.00  0.00     0.168 HD
BRANCH  22  24
ATOM     24  C   UNL     1      12.668   2.159  28.837  1.00  0.00     0.041 A 
ATOM     25  C   UNL     1      11.303   1.861  28.752  1.00  0.00     0.030 A 
ATOM     26  C   UNL     1      13.285   2.047  30.095  1.00  0.00     0.050 A 
ATOM     27  C   UNL     1      10.573   1.470  29.880  1.00  0.00     0.051 A 
ATOM     28  C   UNL     1      12.564   1.655  31.228  1.00  0.00     0.085 A 
ATOM     29  C   UNL     1      11.198   1.389  31.123  1.00  0.00     0.146 A 
ATOM     30  Cl  UNL     1      13.412   1.499  32.723  1.00  0.00    -0.080 Cl
BRANCH  29  31
ATOM     31  O   UNL     1      10.443   0.965  32.187  1.00  0.00    -0.456 OA
BRANCH  31  32
ATOM     32  C   UNL     1       9.111   1.323  32.213  1.00  0.00     0.128 A 
ATOM     33  C   UNL     1       8.039   0.428  32.186  1.00  0.00     0.047 A 
ATOM     34  C   UNL     1       8.867   2.696  32.312  1.00  0.00     0.060 A 
ATOM     35  C   UNL     1       6.730   0.909  32.233  1.00  0.00     0.004 A 
ATOM     36  C   UNL     1       7.554   3.190  32.353  1.00  0.00     0.059 A 
ATOM     37  C   UNL     1       6.487   2.281  32.317  1.00  0.00     0.013 A 
BRANCH  36  38
ATOM     38  C   UNL     1       7.297   4.671  32.479  1.00  0.00     0.416 C 
ATOM     39  F   UNL     1       8.295   5.313  33.147  1.00  0.00    -0.166 F 
ATOM     40  F   UNL     1       6.151   4.956  33.158  1.00  0.00    -0.166 F 
ATOM     41  F   UNL     1       7.184   5.303  31.277  1.00  0.00    -0.166 F 
ENDBRANCH  36  38
ENDBRANCH  31  32
ENDBRANCH  29  31
ENDBRANCH  22  24
ENDBRANCH   6  22
TORSDOF 11
ENDMDL
