MODEL 1
REMARK VINA RESULT:   -10.078      0.000      0.000
REMARK INTER + INTRA:         -12.070
REMARK INTER:                 -12.434
REMARK INTRA:                   0.364
REMARK UNBOUND:                 0.364
REMARK SMILES CCNC(=O)Nc1ccc(-c2nc(C3=CCOCC3)c3sccc3n2)cc1
REMARK SMILES IDX 7 1 8 2 9 3 10 4 26 5 27 6 6 7 3 8 4 9 5 10 2 13 1 14 11 15
REMARK SMILES IDX 12 16 25 17 13 18 24 19 20 20 23 21 21 22 22 23 14 24 15 25
REMARK SMILES IDX 19 26 16 27 18 28 17 29
REMARK H PARENT 3 11 6 12
ROOT
ATOM      1  C   UNL     1      55.679   1.381 -43.463  1.00  0.00     0.042 A 
ATOM      2  C   UNL     1      54.537   0.869 -42.855  1.00  0.00     0.027 A 
ATOM      3  C   UNL     1      53.449   0.437 -43.630  1.00  0.00     0.014 A 
ATOM      4  C   UNL     1      53.464   0.504 -45.035  1.00  0.00     0.019 A 
ATOM      5  C   UNL     1      54.628   1.024 -45.629  1.00  0.00     0.014 A 
ATOM      6  C   UNL     1      55.717   1.455 -44.859  1.00  0.00     0.027 A 
ENDROOT
BRANCH   1   7
ATOM      7  N   UNL     1      56.815   1.834 -42.761  1.00  0.00    -0.308 N 
ATOM      8  N   UNL     1      58.324   2.226 -41.106  1.00  0.00    -0.338 N 
ATOM      9  C   UNL     1      57.113   1.649 -41.430  1.00  0.00     0.319 C 
ATOM     10  O   UNL     1      56.431   1.060 -40.600  1.00  0.00    -0.249 OA
ATOM     11  H   UNL     1      58.875   2.673 -41.820  1.00  0.00     0.165 HD
ATOM     12  H   UNL     1      57.486   2.362 -43.296  1.00  0.00     0.171 HD
BRANCH   8  13
ATOM     13  C   UNL     1      58.858   2.174 -39.761  1.00  0.00     0.114 C 
ATOM     14  C   UNL     1      60.375   2.217 -39.758  1.00  0.00     0.027 C 
ENDBRANCH   8  13
ENDBRANCH   1   7
BRANCH   4  15
ATOM     15  C   UNL     1      52.315   0.049 -45.849  1.00  0.00     0.160 A 
ATOM     16  N   UNL     1      52.395   0.227 -47.179  1.00  0.00    -0.227 NA
ATOM     17  N   UNL     1      51.280  -0.503 -45.203  1.00  0.00    -0.227 NA
ATOM     18  C   UNL     1      51.363  -0.165 -47.960  1.00  0.00     0.088 A 
ATOM     19  C   UNL     1      50.258  -0.913 -45.987  1.00  0.00     0.086 A 
ATOM     20  C   UNL     1      50.254  -0.767 -47.373  1.00  0.00     0.079 A 
ATOM     21  C   UNL     1      49.071  -1.539 -45.502  1.00  0.00     0.041 A 
ATOM     22  S   UNL     1      48.809  -1.425 -48.044  1.00  0.00    -0.140 S 
ATOM     23  C   UNL     1      48.199  -1.867 -46.514  1.00  0.00     0.068 A 
BRANCH  18  24
ATOM     24  C   UNL     1      51.492   0.059 -49.403  1.00  0.00    -0.020 C 
ATOM     25  C   UNL     1      50.508  -0.308 -50.243  1.00  0.00     0.007 C 
ATOM     26  C   UNL     1      52.791   0.585 -49.954  1.00  0.00     0.066 C 
ATOM     27  C   UNL     1      50.616  -0.175 -51.733  1.00  0.00     0.188 C 
ATOM     28  C   UNL     1      52.935   0.207 -51.428  1.00  0.00     0.165 C 
ATOM     29  O   UNL     1      51.756   0.590 -52.139  1.00  0.00    -0.377 OA
ENDBRANCH  18  24
ENDBRANCH   4  15
TORSDOF 4
ENDMDL
MODEL 2
REMARK VINA RESULT:    -9.860      1.977      3.735
REMARK INTER + INTRA:         -11.802
REMARK INTER:                 -11.428
REMARK INTRA:                  -0.374
REMARK UNBOUND:                 0.364
REMARK SMILES CCNC(=O)Nc1ccc(-c2nc(C3=CCOCC3)c3sccc3n2)cc1
REMARK SMILES IDX 7 1 8 2 9 3 10 4 26 5 27 6 6 7 3 8 4 9 5 10 2 13 1 14 11 15
REMARK SMILES IDX 12 16 25 17 13 18 24 19 20 20 23 21 21 22 22 23 14 24 15 25
REMARK SMILES IDX 19 26 16 27 18 28 17 29
REMARK H PARENT 3 11 6 12
ROOT
ATOM      1  C   UNL     1      55.420   1.462 -44.023  1.00  0.00     0.042 A 
ATOM      2  C   UNL     1      54.151   1.086 -43.590  1.00  0.00     0.027 A 
ATOM      3  C   UNL     1      53.165   0.708 -44.514  1.00  0.00     0.014 A 
ATOM      4  C   UNL     1      53.410   0.694 -45.899  1.00  0.00     0.019 A 
ATOM      5  C   UNL     1      54.698   1.077 -46.315  1.00  0.00     0.014 A 
ATOM      6  C   UNL     1      55.686   1.454 -45.395  1.00  0.00     0.027 A 
ENDROOT
BRANCH   1   7
ATOM      7  N   UNL     1      56.467   1.853 -43.163  1.00  0.00    -0.308 N 
ATOM      8  N   UNL     1      57.808   2.059 -41.339  1.00  0.00    -0.338 N 
ATOM      9  C   UNL     1      56.662   1.486 -41.850  1.00  0.00     0.319 C 
ATOM     10  O   UNL     1      55.946   0.753 -41.179  1.00  0.00    -0.249 OA
ATOM     11  H   UNL     1      58.392   2.628 -41.929  1.00  0.00     0.165 HD
ATOM     12  H   UNL     1      57.150   2.481 -43.554  1.00  0.00     0.171 HD
BRANCH   8  13
ATOM     13  C   UNL     1      58.230   1.831 -39.972  1.00  0.00     0.114 C 
ATOM     14  C   UNL     1      59.682   2.216 -39.763  1.00  0.00     0.027 C 
ENDBRANCH   8  13
ENDBRANCH   1   7
BRANCH   4  15
ATOM     15  C   UNL     1      52.368   0.297 -46.871  1.00  0.00     0.160 A 
ATOM     16  N   UNL     1      51.313  -0.388 -46.395  1.00  0.00    -0.227 NA
ATOM     17  N   UNL     1      52.550   0.646 -48.151  1.00  0.00    -0.227 NA
ATOM     18  C   UNL     1      50.340  -0.779 -47.250  1.00  0.00     0.088 A 
ATOM     19  C   UNL     1      51.567   0.271 -49.001  1.00  0.00     0.086 A 
ATOM     20  C   UNL     1      50.440  -0.442 -48.596  1.00  0.00     0.079 A 
ATOM     21  C   UNL     1      51.559   0.555 -50.399  1.00  0.00     0.041 A 
ATOM     22  S   UNL     1      49.391  -0.720 -49.935  1.00  0.00    -0.140 S 
ATOM     23  C   UNL     1      50.435   0.072 -51.027  1.00  0.00     0.068 A 
BRANCH  18  24
ATOM     24  C   UNL     1      49.217  -1.532 -46.686  1.00  0.00    -0.020 C 
ATOM     25  C   UNL     1      49.282  -2.870 -46.564  1.00  0.00     0.007 C 
ATOM     26  C   UNL     1      47.934  -0.812 -46.364  1.00  0.00     0.066 C 
ATOM     27  C   UNL     1      48.136  -3.700 -46.067  1.00  0.00     0.188 C 
ATOM     28  C   UNL     1      46.761  -1.792 -46.357  1.00  0.00     0.165 C 
ATOM     29  O   UNL     1      47.074  -2.910 -45.523  1.00  0.00    -0.377 OA
ENDBRANCH  18  24
ENDBRANCH   4  15
TORSDOF 4
ENDMDL
MODEL 3
REMARK VINA RESULT:    -8.774      1.520      2.045
REMARK INTER + INTRA:         -10.462
REMARK INTER:                 -10.531
REMARK INTRA:                   0.069
REMARK UNBOUND:                 0.364
REMARK SMILES CCNC(=O)Nc1ccc(-c2nc(C3=CCOCC3)c3sccc3n2)cc1
REMARK SMILES IDX 7 1 8 2 9 3 10 4 26 5 27 6 6 7 3 8 4 9 5 10 2 13 1 14 11 15
REMARK SMILES IDX 12 16 25 17 13 18 24 19 20 20 23 21 21 22 22 23 14 24 15 25
REMARK SMILES IDX 19 26 16 27 18 28 17 29
REMARK H PARENT 3 11 6 12
ROOT
ATOM      1  C   UNL     1      53.757   0.263 -42.916  1.00  0.00     0.042 A 
ATOM      2  C   UNL     1      53.220   1.167 -43.828  1.00  0.00     0.027 A 
ATOM      3  C   UNL     1      52.240   0.758 -44.745  1.00  0.00     0.014 A 
ATOM      4  C   UNL     1      51.763  -0.565 -44.784  1.00  0.00     0.019 A 
ATOM      5  C   UNL     1      52.318  -1.462 -43.854  1.00  0.00     0.014 A 
ATOM      6  C   UNL     1      53.297  -1.057 -42.936  1.00  0.00     0.027 A 
ENDROOT
BRANCH   1   7
ATOM      7  N   UNL     1      54.742   0.590 -41.962  1.00  0.00    -0.308 N 
ATOM      8  N   UNL     1      56.662   1.339 -41.001  1.00  0.00    -0.338 N 
ATOM      9  C   UNL     1      55.980   1.151 -42.185  1.00  0.00     0.319 C 
ATOM     10  O   UNL     1      56.461   1.460 -43.268  1.00  0.00    -0.249 OA
ATOM     11  H   UNL     1      56.223   1.105 -40.126  1.00  0.00     0.165 HD
ATOM     12  H   UNL     1      54.516   0.383 -41.003  1.00  0.00     0.171 HD
BRANCH   8  13
ATOM     13  C   UNL     1      57.993   1.910 -40.970  1.00  0.00     0.114 C 
ATOM     14  C   UNL     1      58.223   2.723 -39.709  1.00  0.00     0.027 C 
ENDBRANCH   8  13
ENDBRANCH   1   7
BRANCH   4  15
ATOM     15  C   UNL     1      50.731  -0.993 -45.753  1.00  0.00     0.160 A 
ATOM     16  N   UNL     1      50.878  -0.588 -47.027  1.00  0.00    -0.227 NA
ATOM     17  N   UNL     1      49.726  -1.749 -45.293  1.00  0.00    -0.227 NA
ATOM     18  C   UNL     1      49.953  -0.949 -47.945  1.00  0.00     0.088 A 
ATOM     19  C   UNL     1      48.812  -2.125 -46.216  1.00  0.00     0.086 A 
ATOM     20  C   UNL     1      48.884  -1.751 -47.557  1.00  0.00     0.079 A 
ATOM     21  C   UNL     1      47.675  -2.942 -45.938  1.00  0.00     0.041 A 
ATOM     22  S   UNL     1      47.572  -2.433 -48.442  1.00  0.00    -0.140 S 
ATOM     23  C   UNL     1      46.916  -3.184 -47.059  1.00  0.00     0.068 A 
BRANCH  18  24
ATOM     24  C   UNL     1      50.151  -0.475 -49.317  1.00  0.00    -0.020 C 
ATOM     25  C   UNL     1      49.426  -0.987 -50.329  1.00  0.00     0.007 C 
ATOM     26  C   UNL     1      51.264   0.496 -49.609  1.00  0.00     0.066 C 
ATOM     27  C   UNL     1      49.639  -0.597 -51.762  1.00  0.00     0.188 C 
ATOM     28  C   UNL     1      51.671   0.412 -51.080  1.00  0.00     0.165 C 
ATOM     29  O   UNL     1      50.511   0.528 -51.907  1.00  0.00    -0.377 OA
ENDBRANCH  18  24
ENDBRANCH   4  15
TORSDOF 4
ENDMDL
MODEL 4
REMARK VINA RESULT:    -8.752      4.326     10.404
REMARK INTER + INTRA:         -10.434
REMARK INTER:                 -10.264
REMARK INTRA:                  -0.170
REMARK UNBOUND:                 0.364
REMARK SMILES CCNC(=O)Nc1ccc(-c2nc(C3=CCOCC3)c3sccc3n2)cc1
REMARK SMILES IDX 7 1 8 2 9 3 10 4 26 5 27 6 6 7 3 8 4 9 5 10 2 13 1 14 11 15
REMARK SMILES IDX 12 16 25 17 13 18 24 19 20 20 23 21 21 22 22 23 14 24 15 25
REMARK SMILES IDX 19 26 16 27 18 28 17 29
REMARK H PARENT 3 11 6 12
ROOT
ATOM      1  C   UNL     1      48.166  -2.300 -49.505  1.00  0.00     0.042 A 
ATOM      2  C   UNL     1      48.233  -2.841 -48.224  1.00  0.00     0.027 A 
ATOM      3  C   UNL     1      49.124  -2.317 -47.275  1.00  0.00     0.014 A 
ATOM      4  C   UNL     1      49.977  -1.239 -47.571  1.00  0.00     0.019 A 
ATOM      5  C   UNL     1      49.893  -0.707 -48.871  1.00  0.00     0.014 A 
ATOM      6  C   UNL     1      49.004  -1.227 -49.821  1.00  0.00     0.027 A 
ENDROOT
BRANCH   1   7
ATOM      7  N   UNL     1      47.300  -2.764 -50.516  1.00  0.00    -0.308 N 
ATOM      8  N   UNL     1      45.467  -3.564 -51.599  1.00  0.00    -0.338 N 
ATOM      9  C   UNL     1      46.001  -3.201 -50.380  1.00  0.00     0.319 C 
ATOM     10  O   UNL     1      45.358  -3.278 -49.340  1.00  0.00    -0.249 OA
ATOM     11  H   UNL     1      46.012  -3.456 -52.439  1.00  0.00     0.165 HD
ATOM     12  H   UNL     1      47.678  -2.785 -51.449  1.00  0.00     0.171 HD
BRANCH   8  13
ATOM     13  C   UNL     1      44.114  -4.064 -51.721  1.00  0.00     0.114 C 
ATOM     14  C   UNL     1      44.089  -5.498 -52.218  1.00  0.00     0.027 C 
ENDBRANCH   8  13
ENDBRANCH   1   7
BRANCH   4  15
ATOM     15  C   UNL     1      50.917  -0.690 -46.568  1.00  0.00     0.160 A 
ATOM     16  N   UNL     1      50.544  -0.753 -45.278  1.00  0.00    -0.227 NA
ATOM     17  N   UNL     1      52.066  -0.171 -47.017  1.00  0.00    -0.227 NA
ATOM     18  C   UNL     1      51.368  -0.255 -44.328  1.00  0.00     0.088 A 
ATOM     19  C   UNL     1      52.898   0.309 -46.065  1.00  0.00     0.086 A 
ATOM     20  C   UNL     1      52.593   0.287 -44.705  1.00  0.00     0.079 A 
ATOM     21  C   UNL     1      54.175   0.888 -46.327  1.00  0.00     0.041 A 
ATOM     22  S   UNL     1      53.891   0.952 -43.786  1.00  0.00    -0.140 S 
ATOM     23  C   UNL     1      54.820   1.282 -45.178  1.00  0.00     0.068 A 
BRANCH  18  24
ATOM     24  C   UNL     1      50.913  -0.337 -42.938  1.00  0.00    -0.020 C 
ATOM     25  C   UNL     1      51.735  -0.793 -41.975  1.00  0.00     0.007 C 
ATOM     26  C   UNL     1      49.475  -0.030 -42.613  1.00  0.00     0.066 C 
ATOM     27  C   UNL     1      51.301  -0.971 -40.550  1.00  0.00     0.188 C 
ATOM     28  C   UNL     1      49.069  -0.708 -41.304  1.00  0.00     0.165 C 
ATOM     29  O   UNL     1      50.020  -0.391 -40.284  1.00  0.00    -0.377 OA
ENDBRANCH  18  24
ENDBRANCH   4  15
TORSDOF 4
ENDMDL
MODEL 5
REMARK VINA RESULT:    -8.613      4.530     10.676
REMARK INTER + INTRA:         -10.263
REMARK INTER:                  -9.713
REMARK INTRA:                  -0.550
REMARK UNBOUND:                 0.364
REMARK SMILES CCNC(=O)Nc1ccc(-c2nc(C3=CCOCC3)c3sccc3n2)cc1
REMARK SMILES IDX 7 1 8 2 9 3 10 4 26 5 27 6 6 7 3 8 4 9 5 10 2 13 1 14 11 15
REMARK SMILES IDX 12 16 25 17 13 18 24 19 20 20 23 21 21 22 22 23 14 24 15 25
REMARK SMILES IDX 19 26 16 27 18 28 17 29
REMARK H PARENT 3 11 6 12
ROOT
ATOM      1  C   UNL     1      47.191  -2.689 -49.194  1.00  0.00     0.042 A 
ATOM      2  C   UNL     1      48.225  -1.962 -49.777  1.00  0.00     0.027 A 
ATOM      3  C   UNL     1      49.240  -1.405 -48.984  1.00  0.00     0.014 A 
ATOM      4  C   UNL     1      49.258  -1.554 -47.586  1.00  0.00     0.019 A 
ATOM      5  C   UNL     1      48.205  -2.293 -47.017  1.00  0.00     0.014 A 
ATOM      6  C   UNL     1      47.189  -2.851 -47.806  1.00  0.00     0.027 A 
ENDROOT
BRANCH   1   7
ATOM      7  N   UNL     1      46.135  -3.283 -49.915  1.00  0.00    -0.308 N 
ATOM      8  N   UNL     1      44.812  -4.816 -50.951  1.00  0.00    -0.338 N 
ATOM      9  C   UNL     1      45.985  -4.609 -50.255  1.00  0.00     0.319 C 
ATOM     10  O   UNL     1      46.758  -5.524 -49.998  1.00  0.00    -0.249 OA
ATOM     11  H   UNL     1      44.183  -4.047 -51.114  1.00  0.00     0.165 HD
ATOM     12  H   UNL     1      45.405  -2.662 -50.225  1.00  0.00     0.171 HD
BRANCH   8  13
ATOM     13  C   UNL     1      44.429  -6.129 -51.427  1.00  0.00     0.114 C 
ATOM     14  C   UNL     1      43.202  -6.065 -52.317  1.00  0.00     0.027 C 
ENDBRANCH   8  13
ENDBRANCH   1   7
BRANCH   4  15
ATOM     15  C   UNL     1      50.330  -0.964 -46.753  1.00  0.00     0.160 A 
ATOM     16  N   UNL     1      50.158  -0.992 -45.420  1.00  0.00    -0.227 NA
ATOM     17  N   UNL     1      51.390  -0.446 -47.387  1.00  0.00    -0.227 NA
ATOM     18  C   UNL     1      51.108  -0.456 -44.621  1.00  0.00     0.088 A 
ATOM     19  C   UNL     1      52.349   0.072 -46.585  1.00  0.00     0.086 A 
ATOM     20  C   UNL     1      52.253   0.089 -45.195  1.00  0.00     0.079 A 
ATOM     21  C   UNL     1      53.562   0.658 -47.055  1.00  0.00     0.041 A 
ATOM     22  S   UNL     1      53.664   0.796 -44.504  1.00  0.00    -0.140 S 
ATOM     23  C   UNL     1      54.366   1.094 -46.029  1.00  0.00     0.068 A 
BRANCH  18  24
ATOM     24  C   UNL     1      50.871  -0.500 -43.176  1.00  0.00    -0.020 C 
ATOM     25  C   UNL     1      51.686  -1.204 -42.370  1.00  0.00     0.007 C 
ATOM     26  C   UNL     1      49.630   0.141 -42.613  1.00  0.00     0.066 C 
ATOM     27  C   UNL     1      51.449  -1.349 -40.896  1.00  0.00     0.188 C 
ATOM     28  C   UNL     1      49.272  -0.487 -41.265  1.00  0.00     0.165 C 
ATOM     29  O   UNL     1      50.420  -0.480 -40.412  1.00  0.00    -0.377 OA
ENDBRANCH  18  24
ENDBRANCH   4  15
TORSDOF 4
ENDMDL
MODEL 6
REMARK VINA RESULT:    -7.923      3.014      5.137
REMARK INTER + INTRA:          -9.411
REMARK INTER:                  -8.845
REMARK INTRA:                  -0.566
REMARK UNBOUND:                 0.364
REMARK SMILES CCNC(=O)Nc1ccc(-c2nc(C3=CCOCC3)c3sccc3n2)cc1
REMARK SMILES IDX 7 1 8 2 9 3 10 4 26 5 27 6 6 7 3 8 4 9 5 10 2 13 1 14 11 15
REMARK SMILES IDX 12 16 25 17 13 18 24 19 20 20 23 21 21 22 22 23 14 24 15 25
REMARK SMILES IDX 19 26 16 27 18 28 17 29
REMARK H PARENT 3 11 6 12
ROOT
ATOM      1  C   UNL     1      52.726   0.771 -44.540  1.00  0.00     0.042 A 
ATOM      2  C   UNL     1      52.949   0.937 -45.904  1.00  0.00     0.027 A 
ATOM      3  C   UNL     1      52.071   0.376 -46.844  1.00  0.00     0.014 A 
ATOM      4  C   UNL     1      50.943  -0.370 -46.455  1.00  0.00     0.019 A 
ATOM      5  C   UNL     1      50.736  -0.525 -45.073  1.00  0.00     0.014 A 
ATOM      6  C   UNL     1      51.610   0.035 -44.131  1.00  0.00     0.027 A 
ENDROOT
BRANCH   1   7
ATOM      7  N   UNL     1      53.555   1.302 -43.531  1.00  0.00    -0.308 N 
ATOM      8  N   UNL     1      55.388   1.881 -42.316  1.00  0.00    -0.338 N 
ATOM      9  C   UNL     1      54.927   1.228 -43.440  1.00  0.00     0.319 C 
ATOM     10  O   UNL     1      55.685   0.670 -44.225  1.00  0.00    -0.249 OA
ATOM     11  H   UNL     1      54.741   2.358 -41.711  1.00  0.00     0.165 HD
ATOM     12  H   UNL     1      53.088   1.788 -42.782  1.00  0.00     0.171 HD
BRANCH   8  13
ATOM     13  C   UNL     1      56.799   1.940 -41.993  1.00  0.00     0.114 C 
ATOM     14  C   UNL     1      57.071   1.443 -40.585  1.00  0.00     0.027 C 
ENDBRANCH   8  13
ENDBRANCH   1   7
BRANCH   4  15
ATOM     15  C   UNL     1      50.021  -0.961 -47.449  1.00  0.00     0.160 A 
ATOM     16  N   UNL     1      49.003  -1.703 -46.978  1.00  0.00    -0.227 NA
ATOM     17  N   UNL     1      50.267  -0.717 -48.743  1.00  0.00    -0.227 NA
ATOM     18  C   UNL     1      48.140  -2.270 -47.852  1.00  0.00     0.088 A 
ATOM     19  C   UNL     1      49.392  -1.269 -49.614  1.00  0.00     0.086 A 
ATOM     20  C   UNL     1      48.310  -2.053 -49.216  1.00  0.00     0.079 A 
ATOM     21  C   UNL     1      49.463  -1.120 -51.031  1.00  0.00     0.041 A 
ATOM     22  S   UNL     1      47.398  -2.561 -50.586  1.00  0.00    -0.140 S 
ATOM     23  C   UNL     1      48.442  -1.773 -51.680  1.00  0.00     0.068 A 
BRANCH  18  24
ATOM     24  C   UNL     1      47.054  -3.077 -47.291  1.00  0.00    -0.020 C 
ATOM     25  C   UNL     1      47.217  -4.398 -47.087  1.00  0.00     0.007 C 
ATOM     26  C   UNL     1      45.706  -2.446 -47.066  1.00  0.00     0.066 C 
ATOM     27  C   UNL     1      46.118  -5.288 -46.589  1.00  0.00     0.188 C 
ATOM     28  C   UNL     1      44.613  -3.516 -47.049  1.00  0.00     0.165 C 
ATOM     29  O   UNL     1      44.974  -4.556 -46.138  1.00  0.00    -0.377 OA
ENDBRANCH  18  24
ENDBRANCH   4  15
TORSDOF 4
ENDMDL
MODEL 7
REMARK VINA RESULT:    -7.819      4.127      6.783
REMARK INTER + INTRA:          -9.283
REMARK INTER:                  -8.787
REMARK INTRA:                  -0.495
REMARK UNBOUND:                 0.364
REMARK SMILES CCNC(=O)Nc1ccc(-c2nc(C3=CCOCC3)c3sccc3n2)cc1
REMARK SMILES IDX 7 1 8 2 9 3 10 4 26 5 27 6 6 7 3 8 4 9 5 10 2 13 1 14 11 15
REMARK SMILES IDX 12 16 25 17 13 18 24 19 20 20 23 21 21 22 22 23 14 24 15 25
REMARK SMILES IDX 19 26 16 27 18 28 17 29
REMARK H PARENT 3 11 6 12
ROOT
ATOM      1  C   UNL     1      51.911   0.090 -46.897  1.00  0.00     0.042 A 
ATOM      2  C   UNL     1      51.113  -0.463 -45.899  1.00  0.00     0.027 A 
ATOM      3  C   UNL     1      49.995  -1.244 -46.230  1.00  0.00     0.014 A 
ATOM      4  C   UNL     1      49.636  -1.500 -47.566  1.00  0.00     0.019 A 
ATOM      5  C   UNL     1      50.456  -0.933 -48.558  1.00  0.00     0.014 A 
ATOM      6  C   UNL     1      51.573  -0.152 -48.231  1.00  0.00     0.027 A 
ENDROOT
BRANCH   1   7
ATOM      7  N   UNL     1      53.050   0.884 -46.652  1.00  0.00    -0.308 N 
ATOM      8  N   UNL     1      55.048   1.615 -45.850  1.00  0.00    -0.338 N 
ATOM      9  C   UNL     1      54.111   0.603 -45.820  1.00  0.00     0.319 C 
ATOM     10  O   UNL     1      54.254  -0.394 -45.124  1.00  0.00    -0.249 OA
ATOM     11  H   UNL     1      54.915   2.405 -46.460  1.00  0.00     0.165 HD
ATOM     12  H   UNL     1      53.089   1.765 -47.138  1.00  0.00     0.171 HD
BRANCH   8  13
ATOM     13  C   UNL     1      56.257   1.559 -45.054  1.00  0.00     0.114 C 
ATOM     14  C   UNL     1      55.984   1.889 -43.598  1.00  0.00     0.027 C 
ENDBRANCH   8  13
ENDBRANCH   1   7
BRANCH   4  15
ATOM     15  C   UNL     1      48.457  -2.323 -47.912  1.00  0.00     0.160 A 
ATOM     16  N   UNL     1      47.865  -3.000 -46.911  1.00  0.00    -0.227 NA
ATOM     17  N   UNL     1      48.065  -2.336 -49.192  1.00  0.00    -0.227 NA
ATOM     18  C   UNL     1      46.789  -3.772 -47.184  1.00  0.00     0.088 A 
ATOM     19  C   UNL     1      46.977  -3.093 -49.460  1.00  0.00     0.086 A 
ATOM     20  C   UNL     1      46.303  -3.829 -48.487  1.00  0.00     0.079 A 
ATOM     21  C   UNL     1      46.389  -3.232 -50.752  1.00  0.00     0.041 A 
ATOM     22  S   UNL     1      44.953  -4.647 -49.179  1.00  0.00    -0.140 S 
ATOM     23  C   UNL     1      45.284  -4.049 -50.742  1.00  0.00     0.068 A 
BRANCH  18  24
ATOM     24  C   UNL     1      46.186  -4.499 -46.064  1.00  0.00    -0.020 C 
ATOM     25  C   UNL     1      45.241  -3.919 -45.301  1.00  0.00     0.007 C 
ATOM     26  C   UNL     1      46.724  -5.854 -45.688  1.00  0.00     0.066 C 
ATOM     27  C   UNL     1      44.644  -4.584 -44.096  1.00  0.00     0.188 C 
ATOM     28  C   UNL     1      46.401  -6.168 -44.227  1.00  0.00     0.165 C 
ATOM     29  O   UNL     1      45.007  -5.964 -43.989  1.00  0.00    -0.377 OA
ENDBRANCH  18  24
ENDBRANCH   4  15
TORSDOF 4
ENDMDL
MODEL 8
REMARK VINA RESULT:    -7.743      3.264      5.249
REMARK INTER + INTRA:          -9.189
REMARK INTER:                  -8.697
REMARK INTRA:                  -0.492
REMARK UNBOUND:                 0.364
REMARK SMILES CCNC(=O)Nc1ccc(-c2nc(C3=CCOCC3)c3sccc3n2)cc1
REMARK SMILES IDX 7 1 8 2 9 3 10 4 26 5 27 6 6 7 3 8 4 9 5 10 2 13 1 14 11 15
REMARK SMILES IDX 12 16 25 17 13 18 24 19 20 20 23 21 21 22 22 23 14 24 15 25
REMARK SMILES IDX 19 26 16 27 18 28 17 29
REMARK H PARENT 3 11 6 12
ROOT
ATOM      1  C   UNL     1      53.536  -0.060 -42.908  1.00  0.00     0.042 A 
ATOM      2  C   UNL     1      53.033   0.724 -43.943  1.00  0.00     0.027 A 
ATOM      3  C   UNL     1      52.017   0.236 -44.779  1.00  0.00     0.014 A 
ATOM      4  C   UNL     1      51.469  -1.049 -44.611  1.00  0.00     0.019 A 
ATOM      5  C   UNL     1      51.991  -1.824 -43.560  1.00  0.00     0.014 A 
ATOM      6  C   UNL     1      53.005  -1.340 -42.722  1.00  0.00     0.027 A 
ENDROOT
BRANCH   1   7
ATOM      7  N   UNL     1      54.552   0.353 -42.023  1.00  0.00    -0.308 N 
ATOM      8  N   UNL     1      56.453   1.285 -41.191  1.00  0.00    -0.338 N 
ATOM      9  C   UNL     1      55.703   1.047 -42.325  1.00  0.00     0.319 C 
ATOM     10  O   UNL     1      56.063   1.425 -43.433  1.00  0.00    -0.249 OA
ATOM     11  H   UNL     1      56.111   0.990 -40.292  1.00  0.00     0.165 HD
ATOM     12  H   UNL     1      54.426   0.106 -41.055  1.00  0.00     0.171 HD
BRANCH   8  13
ATOM     13  C   UNL     1      57.714   1.994 -41.246  1.00  0.00     0.114 C 
ATOM     14  C   UNL     1      58.230   2.326 -39.858  1.00  0.00     0.027 C 
ENDBRANCH   8  13
ENDBRANCH   1   7
BRANCH   4  15
ATOM     15  C   UNL     1      50.399  -1.561 -45.495  1.00  0.00     0.160 A 
ATOM     16  N   UNL     1      49.513  -2.416 -44.956  1.00  0.00    -0.227 NA
ATOM     17  N   UNL     1      50.392  -1.138 -46.766  1.00  0.00    -0.227 NA
ATOM     18  C   UNL     1      48.523  -2.916 -45.730  1.00  0.00     0.088 A 
ATOM     19  C   UNL     1      49.390  -1.623 -47.534  1.00  0.00     0.086 A 
ATOM     20  C   UNL     1      48.429  -2.515 -47.060  1.00  0.00     0.079 A 
ATOM     21  C   UNL     1      49.192  -1.288 -48.907  1.00  0.00     0.041 A 
ATOM     22  S   UNL     1      47.296  -2.895 -48.301  1.00  0.00    -0.140 S 
ATOM     23  C   UNL     1      48.091  -1.911 -49.446  1.00  0.00     0.068 A 
BRANCH  18  24
ATOM     24  C   UNL     1      47.588  -3.852 -45.100  1.00  0.00    -0.020 C 
ATOM     25  C   UNL     1      46.480  -3.402 -44.485  1.00  0.00     0.007 C 
ATOM     26  C   UNL     1      47.943  -5.314 -45.032  1.00  0.00     0.066 C 
ATOM     27  C   UNL     1      45.528  -4.305 -43.757  1.00  0.00     0.188 C 
ATOM     28  C   UNL     1      47.188  -5.991 -43.887  1.00  0.00     0.165 C 
ATOM     29  O   UNL     1      45.794  -5.692 -43.988  1.00  0.00    -0.377 OA
ENDBRANCH  18  24
ENDBRANCH   4  15
TORSDOF 4
ENDMDL
MODEL 9
REMARK VINA RESULT:    -7.713      4.951      9.058
REMARK INTER + INTRA:          -9.152
REMARK INTER:                  -8.601
REMARK INTRA:                  -0.551
REMARK UNBOUND:                 0.364
REMARK SMILES CCNC(=O)Nc1ccc(-c2nc(C3=CCOCC3)c3sccc3n2)cc1
REMARK SMILES IDX 7 1 8 2 9 3 10 4 26 5 27 6 6 7 3 8 4 9 5 10 2 13 1 14 11 15
REMARK SMILES IDX 12 16 25 17 13 18 24 19 20 20 23 21 21 22 22 23 14 24 15 25
REMARK SMILES IDX 19 26 16 27 18 28 17 29
REMARK H PARENT 3 11 6 12
ROOT
ATOM      1  C   UNL     1      52.434   0.082 -45.916  1.00  0.00     0.042 A 
ATOM      2  C   UNL     1      53.569  -0.049 -45.121  1.00  0.00     0.027 A 
ATOM      3  C   UNL     1      53.483  -0.629 -43.845  1.00  0.00     0.014 A 
ATOM      4  C   UNL     1      52.264  -1.096 -43.322  1.00  0.00     0.019 A 
ATOM      5  C   UNL     1      51.130  -0.954 -44.142  1.00  0.00     0.014 A 
ATOM      6  C   UNL     1      51.212  -0.376 -45.416  1.00  0.00     0.027 A 
ENDROOT
BRANCH   1   7
ATOM      7  N   UNL     1      52.433   0.650 -47.206  1.00  0.00    -0.308 N 
ATOM      8  N   UNL     1      52.120   0.954 -49.438  1.00  0.00    -0.338 N 
ATOM      9  C   UNL     1      51.967   0.089 -48.375  1.00  0.00     0.319 C 
ATOM     10  O   UNL     1      51.473  -1.024 -48.508  1.00  0.00    -0.249 OA
ATOM     11  H   UNL     1      52.498   1.874 -49.287  1.00  0.00     0.165 HD
ATOM     12  H   UNL     1      52.825   1.574 -47.285  1.00  0.00     0.171 HD
BRANCH   8  13
ATOM     13  C   UNL     1      51.711   0.593 -50.780  1.00  0.00     0.114 C 
ATOM     14  C   UNL     1      52.878   0.077 -51.601  1.00  0.00     0.027 C 
ENDBRANCH   8  13
ENDBRANCH   1   7
BRANCH   4  15
ATOM     15  C   UNL     1      52.177  -1.706 -41.976  1.00  0.00     0.160 A 
ATOM     16  N   UNL     1      51.302  -2.714 -41.814  1.00  0.00    -0.227 NA
ATOM     17  N   UNL     1      52.973  -1.210 -41.020  1.00  0.00    -0.227 NA
ATOM     18  C   UNL     1      51.184  -3.295 -40.598  1.00  0.00     0.088 A 
ATOM     19  C   UNL     1      52.867  -1.805 -39.810  1.00  0.00     0.086 A 
ATOM     20  C   UNL     1      51.986  -2.854 -39.550  1.00  0.00     0.079 A 
ATOM     21  C   UNL     1      53.633  -1.440 -38.663  1.00  0.00     0.041 A 
ATOM     22  S   UNL     1      52.142  -3.379 -37.917  1.00  0.00    -0.140 S 
ATOM     23  C   UNL     1      53.337  -2.214 -37.566  1.00  0.00     0.068 A 
BRANCH  18  24
ATOM     24  C   UNL     1      50.209  -4.381 -40.468  1.00  0.00    -0.020 C 
ATOM     25  C   UNL     1      50.564  -5.653 -40.728  1.00  0.00     0.007 C 
ATOM     26  C   UNL     1      48.771  -4.051 -40.168  1.00  0.00     0.066 C 
ATOM     27  C   UNL     1      49.592  -6.795 -40.686  1.00  0.00     0.188 C 
ATOM     28  C   UNL     1      47.856  -5.182 -40.637  1.00  0.00     0.165 C 
ATOM     29  O   UNL     1      48.330  -6.428 -40.120  1.00  0.00    -0.377 OA
ENDBRANCH  18  24
ENDBRANCH   4  15
TORSDOF 4
ENDMDL
