MODEL 4
REMARK VINA RESULT:    -8.124      3.291      7.990
REMARK INTER + INTRA:         -17.753
REMARK INTER:                 -15.683
REMARK INTRA:                  -2.071
REMARK UNBOUND:                -3.456
REMARK SMILES CC(C)c1cc(C(C)C)c(S(=O)(=O)N[C@@H](Cc2cccc(C(=N)N)c2)C(=O)N2CCC(CCN=C(N)N)CC2)c(C(C)C)c1
REMARK SMILES IDX 15 1 14 2 11 4 12 5 13 6 10 7 4 8 5 9 44 10 6 11 40 12 2 13
REMARK SMILES IDX 1 14 3 15 7 16 8 17 9 18 41 19 42 20 43 21 16 22 17 23 18 24
REMARK SMILES IDX 25 25 19 26 21 27 20 28 22 29 23 30 24 31 26 35 27 36 28 37
REMARK SMILES IDX 29 38 39 39 30 40 38 41 31 42 32 43 33 44 34 45 35 46 36 47
REMARK SMILES IDX 37 48
REMARK H PARENT 14 3 23 32 24 33 24 34 36 49 36 50 37 51 37 52
ROOT
ATOM      1  C   UNL     1     126.407 -17.202 162.910  1.00  0.00     0.163 C 
ENDROOT
BRANCH   1   2
ATOM      2  N   UNL     1     127.708 -17.195 163.585  1.00  0.00    -0.198 NA
ATOM      3  H   UNL     1     127.820 -16.808 164.517  1.00  0.00     0.142 HD
BRANCH   2   4
ATOM      4  S   UNL     1     129.116 -17.430 162.719  1.00  0.00     0.241 S 
ATOM      5  O   UNL     1     129.100 -18.769 162.184  1.00  0.00    -0.207 OA
ATOM      6  O   UNL     1     129.192 -16.318 161.795  1.00  0.00    -0.207 OA
BRANCH   4   7
ATOM      7  C   UNL     1     130.393 -17.230 163.990  1.00  0.00     0.089 A 
ATOM      8  C   UNL     1     132.093 -16.738 166.217  1.00  0.00    -0.045 A 
ATOM      9  C   UNL     1     132.104 -15.898 165.103  1.00  0.00     0.009 A 
ATOM     10  C   UNL     1     131.277 -17.868 166.176  1.00  0.00     0.009 A 
ATOM     11  C   UNL     1     131.287 -16.120 163.969  1.00  0.00    -0.025 A 
ATOM     12  C   UNL     1     130.438 -18.157 165.077  1.00  0.00    -0.025 A 
BRANCH   8  13
ATOM     13  C   UNL     1     132.955 -16.469 167.439  1.00  0.00     0.013 C 
ATOM     14  C   UNL     1     134.011 -17.558 167.626  1.00  0.00     0.012 C 
ATOM     15  C   UNL     1     133.604 -15.082 167.395  1.00  0.00     0.012 C 
ENDBRANCH   8  13
BRANCH  11  16
ATOM     16  C   UNL     1     131.444 -15.130 162.813  1.00  0.00     0.014 C 
ATOM     17  C   UNL     1     132.904 -14.948 162.360  1.00  0.00     0.012 C 
ATOM     18  C   UNL     1     130.824 -13.776 163.167  1.00  0.00     0.012 C 
ENDBRANCH  11  16
BRANCH  12  19
ATOM     19  C   UNL     1     129.644 -19.464 165.145  1.00  0.00     0.014 C 
ATOM     20  C   UNL     1     130.467 -20.687 164.703  1.00  0.00     0.012 C 
ATOM     21  C   UNL     1     129.083 -19.698 166.552  1.00  0.00     0.012 C 
ENDBRANCH  12  19
ENDBRANCH   4   7
ENDBRANCH   2   4
ENDBRANCH   1   2
BRANCH   1  22
ATOM     22  C   UNL     1     126.204 -15.907 162.102  1.00  0.00     0.065 C 
BRANCH  22  23
ATOM     23  C   UNL     1     126.175 -14.651 162.949  1.00  0.00    -0.045 A 
ATOM     24  C   UNL     1     127.034 -13.580 162.665  1.00  0.00     0.004 A 
ATOM     25  C   UNL     1     125.263 -14.524 164.008  1.00  0.00     0.015 A 
ATOM     26  C   UNL     1     126.987 -12.408 163.424  1.00  0.00     0.001 A 
ATOM     27  C   UNL     1     125.226 -13.355 164.774  1.00  0.00     0.016 A 
ATOM     28  C   UNL     1     126.083 -12.294 164.481  1.00  0.00     0.012 A 
BRANCH  27  29
ATOM     29  C   UNL     1     124.252 -13.251 165.889  1.00  0.00     0.122 C 
ATOM     30  N   UNL     1     124.131 -12.170 166.592  1.00  0.00    -0.284 NA
ATOM     31  N   UNL     1     123.450 -14.300 166.210  1.00  0.00    -0.384 N 
ATOM     32  H   UNL     1     124.751 -11.430 166.245  1.00  0.00     0.189 HD
ATOM     33  H   UNL     1     122.684 -14.044 166.822  1.00  0.00     0.158 HD
ATOM     34  H   UNL     1     123.232 -14.996 165.512  1.00  0.00     0.158 HD
ENDBRANCH  27  29
ENDBRANCH  22  23
ENDBRANCH   1  22
BRANCH   1  35
ATOM     35  C   UNL     1     126.087 -18.402 162.008  1.00  0.00     0.241 C 
ATOM     36  O   UNL     1     125.878 -18.181 160.809  1.00  0.00    -0.273 OA
ATOM     37  N   UNL     1     126.162 -19.703 162.503  1.00  0.00    -0.341 N 
ATOM     38  C   UNL     1     126.115 -20.054 163.920  1.00  0.00     0.120 C 
ATOM     39  C   UNL     1     125.903 -20.803 161.578  1.00  0.00     0.120 C 
ATOM     40  C   UNL     1     126.229 -21.557 164.186  1.00  0.00     0.025 C 
ATOM     41  C   UNL     1     126.875 -21.969 161.788  1.00  0.00     0.025 C 
ATOM     42  C   UNL     1     127.276 -22.188 163.260  1.00  0.00    -0.006 C 
BRANCH  42  43
ATOM     43  C   UNL     1     127.495 -23.673 163.614  1.00  0.00     0.027 C 
BRANCH  43  44
ATOM     44  C   UNL     1     127.156 -24.030 165.064  1.00  0.00     0.146 C 
BRANCH  44  45
ATOM     45  N   UNL     1     128.320 -23.894 165.931  1.00  0.00    -0.254 NA
ATOM     46  C   UNL     1     128.227 -23.263 167.037  1.00  0.00     0.185 C 
ATOM     47  N   UNL     1     129.318 -23.116 167.819  1.00  0.00    -0.370 N 
ATOM     48  N   UNL     1     127.161 -22.672 167.620  1.00  0.00    -0.370 N 
ATOM     49  H   UNL     1     129.439 -22.160 168.129  1.00  0.00     0.159 HD
ATOM     50  H   UNL     1     130.142 -23.426 167.310  1.00  0.00     0.159 HD
ATOM     51  H   UNL     1     126.267 -22.971 167.253  1.00  0.00     0.159 HD
ATOM     52  H   UNL     1     127.183 -22.759 168.630  1.00  0.00     0.159 HD
ENDBRANCH  44  45
ENDBRANCH  43  44
ENDBRANCH  42  43
ENDBRANCH   1  35
TORSDOF 13
ENDMDL
