MODEL 2
REMARK VINA RESULT:    -8.289      1.933      3.813
REMARK INTER + INTRA:         -18.045
REMARK INTER:                 -14.339
REMARK INTRA:                  -3.706
REMARK UNBOUND:                -3.456
REMARK SMILES CC(C)c1cc(C(C)C)c(S(=O)(=O)N[C@@H](Cc2cccc(C(=N)N)c2)C(=O)N2CCC(CCN=C(N)N)CC2)c(C(C)C)c1
REMARK SMILES IDX 15 1 14 2 11 4 12 5 13 6 10 7 4 8 5 9 44 10 6 11 40 12 2 13
REMARK SMILES IDX 1 14 3 15 7 16 8 17 9 18 41 19 42 20 43 21 16 22 17 23 18 24
REMARK SMILES IDX 25 25 19 26 21 27 20 28 22 29 23 30 24 31 26 35 27 36 28 37
REMARK SMILES IDX 29 38 39 39 30 40 38 41 31 42 32 43 33 44 34 45 35 46 36 47
REMARK SMILES IDX 37 48
REMARK H PARENT 14 3 23 32 24 33 24 34 36 49 36 50 37 51 37 52
ROOT
ATOM      1  C   UNL     1     132.821 -16.604 163.919  1.00  0.00     0.163 C 
ENDROOT
BRANCH   1   2
ATOM      2  N   UNL     1     133.170 -17.923 163.382  1.00  0.00    -0.198 NA
ATOM      3  H   UNL     1     133.842 -18.029 162.629  1.00  0.00     0.142 HD
BRANCH   2   4
ATOM      4  S   UNL     1     132.198 -19.247 163.683  1.00  0.00     0.241 S 
ATOM      5  O   UNL     1     130.821 -18.821 163.622  1.00  0.00    -0.207 OA
ATOM      6  O   UNL     1     132.645 -20.272 162.764  1.00  0.00    -0.207 OA
BRANCH   4   7
ATOM      7  C   UNL     1     132.682 -19.710 165.367  1.00  0.00     0.089 A 
ATOM      8  C   UNL     1     133.275 -20.815 167.921  1.00  0.00    -0.045 A 
ATOM      9  C   UNL     1     132.169 -19.984 167.734  1.00  0.00     0.009 A 
ATOM     10  C   UNL     1     134.123 -21.028 166.835  1.00  0.00     0.009 A 
ATOM     11  C   UNL     1     131.852 -19.401 166.485  1.00  0.00    -0.025 A 
ATOM     12  C   UNL     1     133.874 -20.476 165.559  1.00  0.00    -0.025 A 
BRANCH   8  13
ATOM     13  C   UNL     1     133.585 -21.457 169.263  1.00  0.00     0.013 C 
ATOM     14  C   UNL     1     132.451 -22.379 169.713  1.00  0.00     0.012 C 
ATOM     15  C   UNL     1     134.923 -22.202 169.252  1.00  0.00     0.012 C 
ENDBRANCH   8  13
BRANCH  11  16
ATOM     16  C   UNL     1     130.629 -18.482 166.453  1.00  0.00     0.014 C 
ATOM     17  C   UNL     1     130.648 -17.402 167.550  1.00  0.00     0.012 C 
ATOM     18  C   UNL     1     129.335 -19.296 166.531  1.00  0.00     0.012 C 
ENDBRANCH  11  16
BRANCH  12  19
ATOM     19  C   UNL     1     134.923 -20.746 164.477  1.00  0.00     0.014 C 
ATOM     20  C   UNL     1     136.259 -20.032 164.750  1.00  0.00     0.012 C 
ATOM     21  C   UNL     1     135.164 -22.249 164.303  1.00  0.00     0.012 C 
ENDBRANCH  12  19
ENDBRANCH   4   7
ENDBRANCH   2   4
ENDBRANCH   1   2
BRANCH   1  22
ATOM     22  C   UNL     1     134.054 -15.928 164.547  1.00  0.00     0.065 C 
BRANCH  22  23
ATOM     23  C   UNL     1     134.125 -16.058 166.055  1.00  0.00    -0.045 A 
ATOM     24  C   UNL     1     133.409 -15.181 166.881  1.00  0.00     0.004 A 
ATOM     25  C   UNL     1     134.878 -17.083 166.648  1.00  0.00     0.015 A 
ATOM     26  C   UNL     1     133.447 -15.320 168.271  1.00  0.00     0.001 A 
ATOM     27  C   UNL     1     134.924 -17.212 168.040  1.00  0.00     0.016 A 
ATOM     28  C   UNL     1     134.206 -16.335 168.853  1.00  0.00     0.012 A 
BRANCH  27  29
ATOM     29  C   UNL     1     135.731 -18.305 168.639  1.00  0.00     0.122 C 
ATOM     30  N   UNL     1     135.625 -18.627 169.888  1.00  0.00    -0.284 NA
ATOM     31  N   UNL     1     136.618 -19.005 167.885  1.00  0.00    -0.384 N 
ATOM     32  H   UNL     1     134.904 -18.066 170.357  1.00  0.00     0.189 HD
ATOM     33  H   UNL     1     136.938 -19.857 168.332  1.00  0.00     0.158 HD
ATOM     34  H   UNL     1     136.490 -19.065 166.886  1.00  0.00     0.158 HD
ENDBRANCH  27  29
ENDBRANCH  22  23
ENDBRANCH   1  22
BRANCH   1  35
ATOM     35  C   UNL     1     132.146 -15.610 162.963  1.00  0.00     0.241 C 
ATOM     36  O   UNL     1     132.812 -15.184 162.011  1.00  0.00    -0.273 OA
ATOM     37  N   UNL     1     130.791 -15.308 163.093  1.00  0.00    -0.341 N 
ATOM     38  C   UNL     1     130.009 -15.518 164.309  1.00  0.00     0.120 C 
ATOM     39  C   UNL     1     130.196 -14.400 162.116  1.00  0.00     0.120 C 
ATOM     40  C   UNL     1     128.540 -15.109 164.173  1.00  0.00     0.025 C 
ATOM     41  C   UNL     1     128.801 -14.861 161.682  1.00  0.00     0.025 C 
ATOM     42  C   UNL     1     127.988 -15.533 162.807  1.00  0.00    -0.006 C 
BRANCH  42  43
ATOM     43  C   UNL     1     126.476 -15.247 162.716  1.00  0.00     0.027 C 
BRANCH  43  44
ATOM     44  C   UNL     1     125.744 -15.301 164.059  1.00  0.00     0.146 C 
BRANCH  44  45
ATOM     45  N   UNL     1     125.618 -13.974 164.650  1.00  0.00    -0.254 NA
ATOM     46  C   UNL     1     124.598 -13.683 165.362  1.00  0.00     0.185 C 
ATOM     47  N   UNL     1     124.476 -12.441 165.879  1.00  0.00    -0.370 N 
ATOM     48  N   UNL     1     123.540 -14.438 165.726  1.00  0.00    -0.370 N 
ATOM     49  H   UNL     1     123.558 -12.049 165.717  1.00  0.00     0.159 HD
ATOM     50  H   UNL     1     125.191 -11.837 165.481  1.00  0.00     0.159 HD
ATOM     51  H   UNL     1     123.686 -15.434 165.625  1.00  0.00     0.159 HD
ATOM     52  H   UNL     1     123.217 -14.215 166.660  1.00  0.00     0.159 HD
ENDBRANCH  44  45
ENDBRANCH  43  44
ENDBRANCH  42  43
ENDBRANCH   1  35
TORSDOF 13
ENDMDL
