MODEL 5
REMARK minimizedAffinity -5.41833591
REMARK CNNscore 0.884841204
REMARK CNNaffinity 6.77972841
REMARK SMILES CCn1c(=O)c(-c2cc[nH]n2)cc2c(C)nc(N)nc21
REMARK SMILES IDX 3 1 4 2 5 3 6 4 12 5 13 6 14 7 15 8 16 9 17 10 19 11 20 12
REMARK SMILES IDX 2 13 1 14 7 15 8 16 11 17 9 18 10 19 18 21
REMARK H PARENT 10 20 18 22 18 23
ROOT
ATOM      1  N   UNL     1      32.422  46.820  43.071  1.00  0.00    -0.292 N 
ATOM      2  C   UNL     1      32.718  47.556  44.214  1.00  0.00     0.261 A 
ATOM      3  O   UNL     1      33.624  48.391  44.220  1.00  0.00    -0.269 OA
ATOM      4  C   UNL     1      31.887  47.305  45.450  1.00  0.00     0.068 A 
ATOM      5  C   UNL     1      30.915  46.375  45.381  1.00  0.00     0.030 A 
ATOM      6  C   UNL     1      30.658  45.599  44.175  1.00  0.00     0.040 A 
ATOM      7  C   UNL     1      29.684  44.616  44.063  1.00  0.00     0.052 A 
ATOM      8  C   UNL     1      28.773  44.253  45.201  1.00  0.00     0.067 C 
ATOM      9  N   UNL     1      29.491  43.919  42.922  1.00  0.00    -0.218 NA
ATOM     10  C   UNL     1      30.286  44.196  41.890  1.00  0.00     0.222 A 
ATOM     11  N   UNL     1      31.231  45.133  41.893  1.00  0.00    -0.195 NA
ATOM     12  C   UNL     1      31.413  45.823  43.037  1.00  0.00     0.148 A 
ENDROOT
BRANCH   1  13
ATOM     13  C   UNL     1      33.229  47.026  41.868  1.00  0.00     0.124 C 
ATOM     14  C   UNL     1      32.370  47.331  40.650  1.00  0.00     0.028 C 
ENDBRANCH   1  13
BRANCH   4  15
ATOM     15  C   UNL     1      32.117  48.052  46.670  1.00  0.00     0.098 A 
ATOM     16  C   UNL     1      33.244  48.858  46.988  1.00  0.00     0.050 A 
ATOM     17  N   UNL     1      31.259  48.033  47.711  1.00  0.00    -0.175 NA
ATOM     18  C   UNL     1      33.017  49.344  48.253  1.00  0.00     0.106 A 
ATOM     19  N   UNL     1      31.817  48.830  48.633  1.00  0.00    -0.285 N 
ATOM     20  H   UNL     1      31.324  48.974  49.508  1.00  0.00     0.189 HD
ENDBRANCH   4  15
BRANCH  10  21
ATOM     21  N   UNL     1      30.084  43.492  40.724  1.00  0.00    -0.368 N 
ATOM     22  H   UNL     1      30.401  44.031  39.931  1.00  0.00     0.159 HD
ATOM     23  H   UNL     1      29.141  43.133  40.697  1.00  0.00     0.159 HD
ENDBRANCH  10  21
TORSDOF 3
ENDMDL
