MODEL 8
REMARK VINA RESULT:    -6.601     14.533     16.897
REMARK INTER + INTRA:          -8.644
REMARK INTER:                  -8.093
REMARK INTRA:                  -0.551
REMARK UNBOUND:                -0.113
REMARK SMILES CC1=C(C2=C(C)C(=O)[C@H]3C(C(C)C)=C(O)C(O)=C[C@H]3C2=O)C(=O)c2cc(O)c(O)c(C(C)C)c2C1=O
REMARK SMILES IDX 1 1 2 2 3 3 22 4 23 5 24 6 25 7 26 8 28 9 30 10 34 11 35 12
REMARK SMILES IDX 36 13 4 14 5 15 20 16 7 17 19 18 21 19 8 20 9 21 18 22 10 23
REMARK SMILES IDX 16 24 14 25 6 26 11 27 12 28 13 29 17 30 15 32 31 34 32 35
REMARK SMILES IDX 33 36 29 37 27 39
REMARK H PARENT 17 31 15 33 29 38 27 40
ROOT
ATOM      1  C   UNL     1      42.210  13.029 -49.495  1.00  0.00     0.049 C 
ATOM      2  C   UNL     1      42.679  13.119 -48.067  1.00  0.00     0.009 C 
ATOM      3  C   UNL     1      41.944  12.811 -46.985  1.00  0.00     0.041 C 
ATOM      4  C   UNL     1      42.533  12.917 -45.623  1.00  0.00     0.195 C 
ATOM      5  O   UNL     1      41.914  12.536 -44.635  1.00  0.00    -0.289 OA
ATOM      6  C   UNL     1      43.846  13.578 -45.474  1.00  0.00     0.038 A 
ATOM      7  C   UNL     1      44.293  13.818 -44.167  1.00  0.00     0.063 A 
ATOM      8  C   UNL     1      45.486  14.484 -43.984  1.00  0.00     0.158 A 
ATOM      9  C   UNL     1      46.209  14.944 -45.084  1.00  0.00     0.161 A 
ATOM     10  C   UNL     1      45.783  14.742 -46.415  1.00  0.00     0.012 A 
ATOM     11  C   UNL     1      44.594  13.985 -46.595  1.00  0.00     0.041 A 
ATOM     12  C   UNL     1      44.108  13.511 -47.915  1.00  0.00     0.190 C 
ATOM     13  O   UNL     1      44.859  13.377 -48.873  1.00  0.00    -0.289 OA
ENDROOT
BRANCH   3  14
ATOM     14  C   UNL     1      40.574  12.307 -47.062  1.00  0.00     0.036 C 
ATOM     15  C   UNL     1      39.490  13.096 -46.976  1.00  0.00     0.004 C 
ATOM     16  C   UNL     1      40.427  10.832 -47.212  1.00  0.00     0.172 C 
ATOM     17  C   UNL     1      38.112  12.521 -46.984  1.00  0.00     0.167 C 
ATOM     18  C   UNL     1      39.132  10.276 -47.760  1.00  0.00     0.103 C 
ATOM     19  O   UNL     1      41.399  10.097 -47.026  1.00  0.00    -0.293 OA
ATOM     20  O   UNL     1      37.178  13.269 -46.684  1.00  0.00    -0.294 OA
ATOM     21  C   UNL     1      37.880  11.035 -47.288  1.00  0.00     0.106 C 
ATOM     22  C   UNL     1      39.297  10.179 -49.262  1.00  0.00     0.036 C 
ATOM     23  C   UNL     1      36.698  10.906 -48.261  1.00  0.00    -0.010 C 
ATOM     24  C   UNL     1      38.255  10.372 -50.076  1.00  0.00     0.154 C 
ATOM     25  C   UNL     1      36.929  10.628 -49.560  1.00  0.00     0.157 C 
ATOM     26  C   UNL     1      39.530  14.594 -46.805  1.00  0.00     0.049 C 
BRANCH  23  27
ATOM     27  C   UNL     1      35.304  11.095 -47.665  1.00  0.00     0.013 C 
ATOM     28  C   UNL     1      34.572   9.758 -47.512  1.00  0.00     0.012 C 
ATOM     29  C   UNL     1      34.440  12.102 -48.430  1.00  0.00     0.012 C 
ENDBRANCH  23  27
BRANCH  24  30
ATOM     30  O   UNL     1      38.325  10.247 -51.443  1.00  0.00    -0.504 OA
ATOM     31  H   UNL     1      38.362   9.299 -51.661  1.00  0.00     0.293 HD
ENDBRANCH  24  30
BRANCH  25  32
ATOM     32  O   UNL     1      35.919  10.515 -50.485  1.00  0.00    -0.504 OA
ATOM     33  H   UNL     1      35.954   9.588 -50.793  1.00  0.00     0.293 HD
ENDBRANCH  25  32
ENDBRANCH   3  14
BRANCH  10  34
ATOM     34  C   UNL     1      46.625  15.385 -47.519  1.00  0.00     0.018 C 
ATOM     35  C   UNL     1      46.612  16.914 -47.467  1.00  0.00     0.012 C 
ATOM     36  C   UNL     1      48.027  14.793 -47.710  1.00  0.00     0.012 C 
ENDBRANCH  10  34
BRANCH   9  37
ATOM     37  O   UNL     1      47.379  15.614 -44.822  1.00  0.00    -0.504 OA
ATOM     38  H   UNL     1      47.159  16.563 -44.915  1.00  0.00     0.293 HD
ENDBRANCH   9  37
BRANCH   8  39
ATOM     39  O   UNL     1      45.993  14.732 -42.741  1.00  0.00    -0.504 OA
ATOM     40  H   UNL     1      45.258  14.956 -42.140  1.00  0.00     0.293 HD
ENDBRANCH   8  39
TORSDOF 7
ENDMDL
