MODEL 4
REMARK VINA RESULT:    -7.044      8.781     12.087
REMARK INTER + INTRA:          -9.216
REMARK INTER:                  -8.688
REMARK INTRA:                  -0.529
REMARK UNBOUND:                -0.113
REMARK SMILES CC1=C(C2=C(C)C(=O)[C@H]3C(C(C)C)=C(O)C(O)=C[C@H]3C2=O)C(=O)c2cc(O)c(O)c(C(C)C)c2C1=O
REMARK SMILES IDX 1 1 2 2 3 3 22 4 23 5 24 6 25 7 26 8 28 9 30 10 34 11 35 12
REMARK SMILES IDX 36 13 4 14 5 15 20 16 7 17 19 18 21 19 8 20 9 21 18 22 10 23
REMARK SMILES IDX 16 24 14 25 6 26 11 27 12 28 13 29 17 30 15 32 31 34 32 35
REMARK SMILES IDX 33 36 29 37 27 39
REMARK H PARENT 17 31 15 33 29 38 27 40
ROOT
ATOM      1  C   UNL     1      32.886   9.281 -49.212  1.00  0.00     0.049 C 
ATOM      2  C   UNL     1      33.885  10.011 -48.356  1.00  0.00     0.009 C 
ATOM      3  C   UNL     1      33.751  10.262 -47.043  1.00  0.00     0.041 C 
ATOM      4  C   UNL     1      34.826  10.973 -46.300  1.00  0.00     0.195 C 
ATOM      5  O   UNL     1      34.768  11.113 -45.083  1.00  0.00    -0.289 OA
ATOM      6  C   UNL     1      35.923  11.591 -47.072  1.00  0.00     0.038 A 
ATOM      7  C   UNL     1      36.824  12.399 -46.363  1.00  0.00     0.063 A 
ATOM      8  C   UNL     1      37.829  13.040 -47.055  1.00  0.00     0.158 A 
ATOM      9  C   UNL     1      37.917  12.916 -48.441  1.00  0.00     0.161 A 
ATOM     10  C   UNL     1      37.017  12.130 -49.195  1.00  0.00     0.012 A 
ATOM     11  C   UNL     1      36.035  11.409 -48.463  1.00  0.00     0.041 A 
ATOM     12  C   UNL     1      35.140  10.389 -49.065  1.00  0.00     0.190 C 
ATOM     13  O   UNL     1      35.427   9.805 -50.102  1.00  0.00    -0.289 OA
ENDROOT
BRANCH   3  14
ATOM     14  C   UNL     1      32.603   9.818 -46.254  1.00  0.00     0.036 C 
ATOM     15  C   UNL     1      31.501  10.565 -46.066  1.00  0.00     0.004 C 
ATOM     16  C   UNL     1      32.722   8.474 -45.624  1.00  0.00     0.172 C 
ATOM     17  C   UNL     1      30.388  10.095 -45.189  1.00  0.00     0.167 C 
ATOM     18  C   UNL     1      31.465   7.745 -45.206  1.00  0.00     0.103 C 
ATOM     19  O   UNL     1      33.819   7.913 -45.579  1.00  0.00    -0.293 OA
ATOM     20  O   UNL     1      29.516  10.912 -44.885  1.00  0.00    -0.294 OA
ATOM     21  C   UNL     1      30.374   8.665 -44.632  1.00  0.00     0.106 C 
ATOM     22  C   UNL     1      31.037   6.897 -46.385  1.00  0.00     0.036 C 
ATOM     23  C   UNL     1      28.958   8.087 -44.787  1.00  0.00    -0.010 C 
ATOM     24  C   UNL     1      29.742   6.674 -46.630  1.00  0.00     0.154 C 
ATOM     25  C   UNL     1      28.708   7.184 -45.758  1.00  0.00     0.157 C 
ATOM     26  C   UNL     1      31.290  11.942 -46.643  1.00  0.00     0.049 C 
BRANCH  23  27
ATOM     27  C   UNL     1      27.910   8.581 -43.793  1.00  0.00     0.013 C 
ATOM     28  C   UNL     1      27.546   7.496 -42.774  1.00  0.00     0.012 C 
ATOM     29  C   UNL     1      26.651   9.147 -44.458  1.00  0.00     0.012 C 
ENDBRANCH  23  27
BRANCH  24  30
ATOM     30  O   UNL     1      29.288   5.872 -47.651  1.00  0.00    -0.504 OA
ATOM     31  H   UNL     1      30.060   5.533 -48.138  1.00  0.00     0.293 HD
ENDBRANCH  24  30
BRANCH  25  32
ATOM     32  O   UNL     1      27.463   6.641 -45.961  1.00  0.00    -0.504 OA
ATOM     33  H   UNL     1      27.544   5.703 -45.696  1.00  0.00     0.293 HD
ENDBRANCH  25  32
ENDBRANCH   3  14
BRANCH  10  34
ATOM     34  C   UNL     1      37.173  12.162 -50.717  1.00  0.00     0.018 C 
ATOM     35  C   UNL     1      36.858  13.532 -51.321  1.00  0.00     0.012 C 
ATOM     36  C   UNL     1      38.463  11.537 -51.262  1.00  0.00     0.012 C 
ENDBRANCH  10  34
BRANCH   9  37
ATOM     37  O   UNL     1      38.933  13.598 -49.063  1.00  0.00    -0.504 OA
ATOM     38  H   UNL     1      38.500  14.125 -49.765  1.00  0.00     0.293 HD
ENDBRANCH   9  37
BRANCH   8  39
ATOM     39  O   UNL     1      38.754  13.824 -46.427  1.00  0.00    -0.504 OA
ATOM     40  H   UNL     1      39.587  13.325 -46.346  1.00  0.00     0.293 HD
ENDBRANCH   8  39
TORSDOF 7
ENDMDL
