REMARK SMILES N=C(N)c1cccc(C2=NO[C@](Cn3cnnn3)(C(=O)Nc3ncc(-c4ccccc4S(N)(=O)=O)cn3)C2)c1
REMARK SMILES IDX 22 1 23 2 24 3 25 4 36 5 37 6 21 7 19 8 20 9 12 11 9 12
REMARK SMILES IDX 10 13 38 14 11 15 8 16 4 17 5 18 39 19 6 20 7 21 2 22 1 23
REMARK SMILES IDX 3 24 13 28 14 29 15 30 18 31 16 32 17 33 26 34 27 35 31 36
REMARK SMILES IDX 28 37 30 38 29 39 32 40 34 41 35 42 33 43
REMARK H PARENT 21 10 1 25 3 26 3 27 33 44 33 45
REMARK INDEX MAP 22 1 23 2 24 3 25 4 36 5 37 6 21 7 19 8 20 9 49 10 12 11 9 12
REMARK INDEX MAP 10 13 38 14 11 15 8 16 4 17 5 18 39 19 6 20 7 21 2 22 1 23
REMARK INDEX MAP 3 24 40 25 41 26 42 27 13 28 14 29 15 30 18 31 16 32 17 33
REMARK INDEX MAP 26 34 27 35 31 36 28 37 30 38 29 39 32 40 34 41 35 42 33 43
REMARK INDEX MAP 55 44 56 45
ROOT
ATOM      1  C   UNL     1      -7.151  12.587  22.898  1.00  0.00     0.229 A 
ATOM      2  N   UNL     1      -7.713  12.566  21.682  1.00  0.00    -0.221 NA
ATOM      3  C   UNL     1      -9.005  12.956  21.603  1.00  0.00     0.125 A 
ATOM      4  C   UNL     1      -9.757  13.375  22.683  1.00  0.00     0.020 A 
ATOM      5  C   UNL     1      -9.065  13.368  23.878  1.00  0.00     0.125 A 
ATOM      6  N   UNL     1      -7.780  12.977  24.009  1.00  0.00    -0.221 NA
ENDROOT
BRANCH   1   7
ATOM      7  N   UNL     1      -5.826  12.191  22.914  1.00  0.00    -0.291 N 
ATOM      8  C   UNL     1      -4.756  12.879  22.389  1.00  0.00     0.276 C 
ATOM      9  O   UNL     1      -4.790  13.992  21.873  1.00  0.00    -0.270 OA
ATOM     10  H   UNL     1      -5.619  11.289  23.365  1.00  0.00     0.173 HD
BRANCH   8  11
ATOM     11  C   UNL     1      -3.446  12.081  22.444  1.00  0.00     0.240 C 
ATOM     12  C   UNL     1      -2.136  11.365  24.179  1.00  0.00     0.092 C 
ATOM     13  N   UNL     1      -1.561  12.440  23.737  1.00  0.00    -0.089 NA
ATOM     14  C   UNL     1      -3.483  11.097  23.602  1.00  0.00     0.124 C 
ATOM     15  O   UNL     1      -2.407  13.021  22.769  1.00  0.00    -0.376 OA
BRANCH  12  16
ATOM     16  C   UNL     1      -1.524  10.479  25.195  1.00  0.00     0.000 A 
ATOM     17  C   UNL     1      -1.675   9.060  27.149  1.00  0.00     0.017 A 
ATOM     18  C   UNL     1      -0.295   8.834  27.103  1.00  0.00     0.012 A 
ATOM     19  C   UNL     1      -2.293   9.882  26.200  1.00  0.00     0.022 A 
ATOM     20  C   UNL     1       0.469   9.427  26.098  1.00  0.00     0.001 A 
ATOM     21  C   UNL     1      -0.142  10.246  25.149  1.00  0.00     0.010 A 
BRANCH  17  22
ATOM     22  C   UNL     1      -2.488   8.444  28.228  1.00  0.00     0.122 C 
ATOM     23  N   UNL     1      -3.649   8.906  28.564  1.00  0.00    -0.284 NA
ATOM     24  N   UNL     1      -2.018   7.371  28.908  1.00  0.00    -0.384 N 
ATOM     25  H   UNL     1      -4.041   9.721  28.071  1.00  0.00     0.189 HD
ATOM     26  H   UNL     1      -1.098   6.973  28.671  1.00  0.00     0.158 HD
ATOM     27  H   UNL     1      -2.581   6.953  29.663  1.00  0.00     0.158 HD
ENDBRANCH  17  22
ENDBRANCH  12  16
BRANCH  11  28
ATOM     28  C   UNL     1      -3.162  11.470  21.067  1.00  0.00     0.210 C 
BRANCH  28  29
ATOM     29  N   UNL     1      -2.074  12.101  20.360  1.00  0.00    -0.228 N 
ATOM     30  C   UNL     1      -2.063  13.267  19.665  1.00  0.00     0.246 A 
ATOM     31  N   UNL     1      -0.854  11.540  20.329  1.00  0.00    -0.045 NA
ATOM     32  N   UNL     1      -0.853  13.452  19.191  1.00  0.00    -0.117 NA
ATOM     33  N   UNL     1      -0.112  12.373  19.613  1.00  0.00    -0.024 NA
ENDBRANCH  28  29
ENDBRANCH  11  28
ENDBRANCH   8  11
ENDBRANCH   1   7
BRANCH   4  34
ATOM     34  C   UNL     1     -11.144  13.828  22.576  1.00  0.00     0.005 A 
ATOM     35  C   UNL     1     -11.379  15.213  22.461  1.00  0.00     0.010 A 
ATOM     36  C   UNL     1     -12.269  12.976  22.592  1.00  0.00     0.090 A 
ATOM     37  C   UNL     1     -12.673  15.730  22.357  1.00  0.00     0.001 A 
ATOM     38  C   UNL     1     -13.569  13.498  22.484  1.00  0.00     0.022 A 
ATOM     39  C   UNL     1     -13.768  14.872  22.368  1.00  0.00     0.001 A 
BRANCH  36  40
ATOM     40  S   UNL     1     -12.109  11.214  22.752  1.00  0.00     0.238 S 
ATOM     41  O   UNL     1     -11.573  10.673  21.524  1.00  0.00    -0.207 OA
ATOM     42  O   UNL     1     -11.527  10.917  24.039  1.00  0.00    -0.207 OA
BRANCH  40  43
ATOM     43  N   UNL     1     -13.702  10.687  22.792  1.00  0.00    -0.225 NA
ATOM     44  H   UNL     1     -14.006  10.586  23.771  1.00  0.00     0.137 HD
ATOM     45  H   UNL     1     -14.303  11.374  22.315  1.00  0.00     0.137 HD
ENDBRANCH  40  43
ENDBRANCH  36  40
ENDBRANCH   4  34
TORSDOF 9
