REMARK SMILES N=C(N)c1cccc(C2=NO[C@](Cn3cnnn3)(C(=O)Nc3ncc(-c4ccccc4S(N)(=O)=O)cn3)C2)c1
REMARK SMILES IDX 22 1 23 2 24 3 25 4 36 5 37 6 21 7 19 8 20 9 12 11 9 12
REMARK SMILES IDX 10 13 38 14 11 15 8 16 4 17 5 18 39 19 6 20 7 21 2 22 1 23
REMARK SMILES IDX 3 24 13 28 14 29 15 30 18 31 16 32 17 33 26 34 27 35 31 36
REMARK SMILES IDX 28 37 30 38 29 39 32 40 34 41 35 42 33 43
REMARK H PARENT 21 10 1 25 3 26 3 27 33 44 33 45
REMARK INDEX MAP 22 1 23 2 24 3 25 4 36 5 37 6 21 7 19 8 20 9 49 10 12 11 9 12
REMARK INDEX MAP 10 13 38 14 11 15 8 16 4 17 5 18 39 19 6 20 7 21 2 22 1 23
REMARK INDEX MAP 3 24 40 25 41 26 42 27 13 28 14 29 15 30 18 31 16 32 17 33
REMARK INDEX MAP 26 34 27 35 31 36 28 37 30 38 29 39 32 40 34 41 35 42 33 43
REMARK INDEX MAP 55 44 56 45
ROOT
ATOM      1  C   UNL     1      -5.037  10.786  18.975  1.00  0.00     0.229 A 
ATOM      2  N   UNL     1      -4.866   9.523  18.559  1.00  0.00    -0.221 NA
ATOM      3  C   UNL     1      -5.561   9.144  17.464  1.00  0.00     0.125 A 
ATOM      4  C   UNL     1      -6.412   9.974  16.758  1.00  0.00     0.020 A 
ATOM      5  C   UNL     1      -6.494  11.253  17.274  1.00  0.00     0.125 A 
ATOM      6  N   UNL     1      -5.829  11.674  18.370  1.00  0.00    -0.221 NA
ENDROOT
BRANCH   1   7
ATOM      7  N   UNL     1      -4.292  11.118  20.091  1.00  0.00    -0.291 N 
ATOM      8  C   UNL     1      -4.757  11.701  21.247  1.00  0.00     0.276 C 
ATOM      9  O   UNL     1      -5.927  11.966  21.508  1.00  0.00    -0.270 OA
ATOM     10  H   UNL     1      -3.284  10.907  20.053  1.00  0.00     0.173 HD
BRANCH   8  11
ATOM     11  C   UNL     1      -3.634  12.074  22.225  1.00  0.00     0.240 C 
ATOM     12  C   UNL     1      -2.894  11.128  24.174  1.00  0.00     0.092 C 
ATOM     13  N   UNL     1      -3.654  12.114  24.537  1.00  0.00    -0.089 NA
ATOM     14  C   UNL     1      -2.933  10.818  22.716  1.00  0.00     0.124 C 
ATOM     15  O   UNL     1      -4.270  12.640  23.384  1.00  0.00    -0.376 OA
BRANCH  12  16
ATOM     16  C   UNL     1      -2.069  10.347  25.122  1.00  0.00     0.000 A 
ATOM     17  C   UNL     1      -1.824   8.966  27.093  1.00  0.00     0.017 A 
ATOM     18  C   UNL     1      -0.440   8.911  26.894  1.00  0.00     0.012 A 
ATOM     19  C   UNL     1      -2.641   9.684  26.212  1.00  0.00     0.022 A 
ATOM     20  C   UNL     1       0.128   9.569  25.805  1.00  0.00     0.001 A 
ATOM     21  C   UNL     1      -0.682  10.285  24.923  1.00  0.00     0.010 A 
BRANCH  17  22
ATOM     22  C   UNL     1      -2.429   8.280  28.263  1.00  0.00     0.122 C 
ATOM     23  N   UNL     1      -3.570   8.640  28.757  1.00  0.00    -0.284 NA
ATOM     24  N   UNL     1      -1.784   7.250  28.859  1.00  0.00    -0.384 N 
ATOM     25  H   UNL     1      -4.092   9.419  28.332  1.00  0.00     0.189 HD
ATOM     26  H   UNL     1      -0.874   6.933  28.496  1.00  0.00     0.158 HD
ATOM     27  H   UNL     1      -2.204   6.783  29.675  1.00  0.00     0.158 HD
ENDBRANCH  17  22
ENDBRANCH  12  16
BRANCH  11  28
ATOM     28  C   UNL     1      -2.726  13.128  21.581  1.00  0.00     0.210 C 
BRANCH  28  29
ATOM     29  N   UNL     1      -1.472  12.603  21.098  1.00  0.00    -0.228 N 
ATOM     30  C   UNL     1      -0.306  12.412  21.768  1.00  0.00     0.246 A 
ATOM     31  N   UNL     1      -1.333  12.213  19.820  1.00  0.00    -0.045 NA
ATOM     32  N   UNL     1       0.571  11.907  20.931  1.00  0.00    -0.117 NA
ATOM     33  N   UNL     1      -0.081  11.788  19.726  1.00  0.00    -0.024 NA
ENDBRANCH  28  29
ENDBRANCH  11  28
ENDBRANCH   8  11
ENDBRANCH   1   7
BRANCH   4  34
ATOM     34  C   UNL     1      -7.129   9.560  15.553  1.00  0.00     0.005 A 
ATOM     35  C   UNL     1      -8.265   8.741  15.710  1.00  0.00     0.010 A 
ATOM     36  C   UNL     1      -6.757   9.913  14.238  1.00  0.00     0.090 A 
ATOM     37  C   UNL     1      -9.005   8.297  14.610  1.00  0.00     0.001 A 
ATOM     38  C   UNL     1      -7.505   9.469  13.134  1.00  0.00     0.022 A 
ATOM     39  C   UNL     1      -8.626   8.662  13.323  1.00  0.00     0.001 A 
BRANCH  36  40
ATOM     40  S   UNL     1      -5.335  10.924  13.904  1.00  0.00     0.238 S 
ATOM     41  O   UNL     1      -5.701  12.316  14.037  1.00  0.00    -0.207 OA
ATOM     42  O   UNL     1      -4.196  10.363  14.590  1.00  0.00    -0.207 OA
BRANCH  40  43
ATOM     43  N   UNL     1      -5.086  10.703  12.260  1.00  0.00    -0.225 NA
ATOM     44  H   UNL     1      -4.323  10.026  12.116  1.00  0.00     0.137 HD
ATOM     45  H   UNL     1      -5.949  10.345  11.827  1.00  0.00     0.137 HD
ENDBRANCH  40  43
ENDBRANCH  36  40
ENDBRANCH   4  34
TORSDOF 9
