MODEL 5
REMARK VINA RESULT:    -8.303      5.520      8.153
REMARK INTER + INTRA:         -11.018
REMARK INTER:                 -10.138
REMARK INTRA:                  -0.880
REMARK UNBOUND:                -0.045
REMARK SMILES CS(=O)(=O)N1CCN(Cc2cn3c(Cl)c(-c4cnc(N)nc4)nc(N4CCOCC4)c3n2)CC1
REMARK SMILES IDX 10 1 11 2 12 3 13 4 14 5 15 6 23 7 24 8 31 9 32 10 9 11 8 12
REMARK SMILES IDX 5 13 6 14 34 15 7 16 33 17 2 18 3 19 4 20 1 21 25 22 26 23
REMARK SMILES IDX 30 24 27 25 29 26 28 27 16 28 17 29 22 30 18 31 21 32 19 33
REMARK SMILES IDX 20 34
REMARK H PARENT 20 35 20 36
ROOT
ATOM      1  C   UNL     1      -1.040  -6.403  19.312  1.00  0.00     0.074 A 
ATOM      2  C   UNL     1      -1.170  -7.777  19.239  1.00  0.00     0.119 A 
ATOM      3  N   UNL     1      -2.168  -8.111  20.122  1.00  0.00    -0.285 N 
ATOM      4  C   UNL     1      -2.728  -9.329  20.487  1.00  0.00     0.141 A 
ATOM      5  Cl  UNL     1      -2.177 -10.768  19.686  1.00  0.00    -0.061 Cl
ATOM      6  C   UNL     1      -3.688  -9.315  21.444  1.00  0.00     0.112 A 
ATOM      7  N   UNL     1      -4.165  -8.138  22.016  1.00  0.00    -0.224 NA
ATOM      8  C   UNL     1      -3.670  -6.962  21.680  1.00  0.00     0.173 A 
ATOM      9  C   UNL     1      -2.596  -6.938  20.689  1.00  0.00     0.181 A 
ATOM     10  N   UNL     1      -1.943  -5.893  20.221  1.00  0.00    -0.229 NA
ENDROOT
BRANCH   1  11
ATOM     11  C   UNL     1      -0.069  -5.514  18.590  1.00  0.00     0.142 C 
BRANCH  11  12
ATOM     12  N   UNL     1       0.350  -6.027  17.281  1.00  0.00    -0.295 NA
ATOM     13  N   UNL     1       1.370  -5.570  14.533  1.00  0.00    -0.200 NA
ATOM     14  C   UNL     1       0.011  -6.110  14.817  1.00  0.00     0.117 C 
ATOM     15  C   UNL     1       2.087  -5.024  15.716  1.00  0.00     0.117 C 
ATOM     16  C   UNL     1      -0.525  -5.616  16.172  1.00  0.00     0.101 C 
ATOM     17  C   UNL     1       1.781  -5.838  16.989  1.00  0.00     0.101 C 
BRANCH  13  18
ATOM     18  S   UNL     1       2.263  -6.355  13.335  1.00  0.00     0.211 S 
ATOM     19  O   UNL     1       1.386  -7.296  12.671  1.00  0.00    -0.213 OA
ATOM     20  O   UNL     1       3.513  -6.780  13.925  1.00  0.00    -0.213 OA
ATOM     21  C   UNL     1       2.624  -5.044  12.182  1.00  0.00     0.176 C 
ENDBRANCH  13  18
ENDBRANCH  11  12
ENDBRANCH   1  11
BRANCH   8  22
ATOM     22  N   UNL     1      -4.212  -5.825  22.279  1.00  0.00    -0.349 N 
ATOM     23  C   UNL     1      -5.516  -5.266  21.898  1.00  0.00     0.146 C 
ATOM     24  C   UNL     1      -3.521  -5.119  23.366  1.00  0.00     0.146 C 
ATOM     25  C   UNL     1      -5.633  -3.804  22.351  1.00  0.00     0.181 C 
ATOM     26  C   UNL     1      -4.548  -4.541  24.353  1.00  0.00     0.181 C 
ATOM     27  O   UNL     1      -5.475  -3.622  23.762  1.00  0.00    -0.378 OA
ENDBRANCH   8  22
BRANCH   6  28
ATOM     28  C   UNL     1      -4.335 -10.543  21.951  1.00  0.00     0.040 A 
ATOM     29  C   UNL     1      -4.038 -11.066  23.198  1.00  0.00     0.127 A 
ATOM     30  C   UNL     1      -5.215 -11.320  21.226  1.00  0.00     0.127 A 
ATOM     31  N   UNL     1      -4.579 -12.200  23.700  1.00  0.00    -0.221 NA
ATOM     32  N   UNL     1      -5.794 -12.451  21.685  1.00  0.00    -0.221 NA
ATOM     33  C   UNL     1      -5.463 -12.829  22.924  1.00  0.00     0.219 A 
BRANCH  33  34
ATOM     34  N   UNL     1      -6.024 -13.997  23.397  1.00  0.00    -0.368 N 
ATOM     35  H   UNL     1      -5.400 -14.768  23.192  1.00  0.00     0.159 HD
ATOM     36  H   UNL     1      -6.301 -13.872  24.362  1.00  0.00     0.159 HD
ENDBRANCH  33  34
ENDBRANCH   6  28
TORSDOF 6
ENDMDL
