MODEL 1
REMARK VINA RESULT:    -9.819      0.000      0.000
REMARK INTER + INTRA:         -17.132
REMARK INTER:                 -15.845
REMARK INTRA:                  -1.287
REMARK UNBOUND:                -1.287
REMARK SMILES CC(C)O[C@@H](Cc1ccc(OCc2noc(-c3ccc(C(C)(C)C)cc3)n2)cc1)C(=O)O
REMARK SMILES IDX 7 1 8 2 9 3 10 4 28 5 29 6 6 7 5 8 4 9 2 10 1 11 3 12 30 13
REMARK SMILES IDX 31 14 32 15 11 17 12 18 13 19 14 20 27 21 15 22 16 23 17 24
REMARK SMILES IDX 18 25 26 26 19 27 25 28 20 29 21 30 22 31 23 32 24 33
REMARK H PARENT 32 16
ROOT
ATOM      1  C   UNL     1      39.774 -37.867 109.800  1.00  0.00    -0.045 A 
ATOM      2  C   UNL     1      40.472 -39.068 109.969  1.00  0.00     0.007 A 
ATOM      3  C   UNL     1      41.645 -39.305 109.250  1.00  0.00     0.047 A 
ATOM      4  C   UNL     1      42.140 -38.355 108.354  1.00  0.00     0.120 A 
ATOM      5  C   UNL     1      41.445 -37.159 108.178  1.00  0.00     0.047 A 
ATOM      6  C   UNL     1      40.268 -36.919 108.897  1.00  0.00     0.007 A 
ENDROOT
BRANCH   1   7
ATOM      7  C   UNL     1      38.487 -37.613 110.555  1.00  0.00     0.079 C 
BRANCH   7   8
ATOM      8  C   UNL     1      37.252 -37.926 109.699  1.00  0.00     0.232 C 
BRANCH   8   9
ATOM      9  O   UNL     1      36.791 -36.695 109.124  1.00  0.00    -0.364 OA
BRANCH   9  10
ATOM     10  C   UNL     1      36.011 -36.863 107.937  1.00  0.00     0.113 C 
ATOM     11  C   UNL     1      36.771 -37.738 106.943  1.00  0.00     0.038 C 
ATOM     12  C   UNL     1      35.779 -35.476 107.352  1.00  0.00     0.038 C 
ENDBRANCH   9  10
ENDBRANCH   8   9
BRANCH   8  13
ATOM     13  C   UNL     1      36.183 -38.572 110.586  1.00  0.00     0.333 C 
ATOM     14  O   UNL     1      35.397 -38.011 111.334  1.00  0.00    -0.249 OA
BRANCH  13  15
ATOM     15  O   UNL     1      36.125 -39.915 110.445  1.00  0.00    -0.479 OA
ATOM     16  H   UNL     1      36.883 -40.237 110.979  1.00  0.00     0.296 HD
ENDBRANCH  13  15
ENDBRANCH   8  13
ENDBRANCH   7   8
ENDBRANCH   1   7
BRANCH   4  17
ATOM     17  O   UNL     1      43.294 -38.720 107.719  1.00  0.00    -0.485 OA
BRANCH  17  18
ATOM     18  C   UNL     1      43.360 -40.051 107.195  1.00  0.00     0.310 C 
BRANCH  18  19
ATOM     19  C   UNL     1      42.912 -40.090 105.774  1.00  0.00     0.209 A 
ATOM     20  N   UNL     1      41.662 -39.775 105.401  1.00  0.00    -0.058 NA
ATOM     21  N   UNL     1      43.753 -40.430 104.740  1.00  0.00    -0.188 NA
ATOM     22  O   UNL     1      41.691 -39.953 104.016  1.00  0.00    -0.334 OA
ATOM     23  C   UNL     1      42.961 -40.346 103.693  1.00  0.00     0.258 A 
BRANCH  23  24
ATOM     24  C   UNL     1      43.241 -40.603 102.286  1.00  0.00     0.040 A 
ATOM     25  C   UNL     1      42.820 -39.686 101.317  1.00  0.00     0.014 A 
ATOM     26  C   UNL     1      43.928 -41.744 101.855  1.00  0.00     0.014 A 
ATOM     27  C   UNL     1      43.078 -39.904  99.959  1.00  0.00     0.005 A 
ATOM     28  C   UNL     1      44.187 -41.962 100.495  1.00  0.00     0.005 A 
ATOM     29  C   UNL     1      43.769 -41.047  99.515  1.00  0.00    -0.043 A 
BRANCH  29  30
ATOM     30  C   UNL     1      44.038 -41.254  98.014  1.00  0.00    -0.013 C 
ATOM     31  C   UNL     1      44.813 -42.551  97.691  1.00  0.00     0.016 C 
ATOM     32  C   UNL     1      44.874 -40.075  97.470  1.00  0.00     0.016 C 
ATOM     33  C   UNL     1      42.698 -41.321  97.250  1.00  0.00     0.016 C 
ENDBRANCH  29  30
ENDBRANCH  23  24
ENDBRANCH  18  19
ENDBRANCH  17  18
ENDBRANCH   4  17
TORSDOF 11
ENDMDL
MODEL 2
REMARK VINA RESULT:    -9.802      0.965      1.567
REMARK INTER + INTRA:         -17.106
REMARK INTER:                 -15.738
REMARK INTRA:                  -1.368
REMARK UNBOUND:                -1.287
REMARK SMILES CC(C)O[C@@H](Cc1ccc(OCc2noc(-c3ccc(C(C)(C)C)cc3)n2)cc1)C(=O)O
REMARK SMILES IDX 7 1 8 2 9 3 10 4 28 5 29 6 6 7 5 8 4 9 2 10 1 11 3 12 30 13
REMARK SMILES IDX 31 14 32 15 11 17 12 18 13 19 14 20 27 21 15 22 16 23 17 24
REMARK SMILES IDX 18 25 26 26 19 27 25 28 20 29 21 30 22 31 23 32 24 33
REMARK H PARENT 32 16
ROOT
ATOM      1  C   UNL     1      39.550 -37.917 109.375  1.00  0.00    -0.045 A 
ATOM      2  C   UNL     1      39.633 -39.164 108.747  1.00  0.00     0.007 A 
ATOM      3  C   UNL     1      40.718 -39.461 107.919  1.00  0.00     0.047 A 
ATOM      4  C   UNL     1      41.732 -38.525 107.703  1.00  0.00     0.120 A 
ATOM      5  C   UNL     1      41.650 -37.279 108.323  1.00  0.00     0.047 A 
ATOM      6  C   UNL     1      40.563 -36.978 109.153  1.00  0.00     0.007 A 
ENDROOT
BRANCH   1   7
ATOM      7  C   UNL     1      38.365 -37.577 110.253  1.00  0.00     0.079 C 
BRANCH   7   8
ATOM      8  C   UNL     1      37.031 -37.895 109.562  1.00  0.00     0.232 C 
BRANCH   8   9
ATOM      9  O   UNL     1      36.441 -36.653 109.152  1.00  0.00    -0.364 OA
BRANCH   9  10
ATOM     10  C   UNL     1      35.694 -36.737 107.936  1.00  0.00     0.113 C 
ATOM     11  C   UNL     1      36.435 -37.621 106.938  1.00  0.00     0.038 C 
ATOM     12  C   UNL     1      35.560 -35.320 107.392  1.00  0.00     0.038 C 
ENDBRANCH   9  10
ENDBRANCH   8   9
BRANCH   8  13
ATOM     13  C   UNL     1      36.132 -38.654 110.542  1.00  0.00     0.333 C 
ATOM     14  O   UNL     1      35.293 -38.188 111.298  1.00  0.00    -0.249 OA
BRANCH  13  15
ATOM     15  O   UNL     1      36.303 -39.993 110.482  1.00  0.00    -0.479 OA
ATOM     16  H   UNL     1      35.402 -40.334 110.291  1.00  0.00     0.296 HD
ENDBRANCH  13  15
ENDBRANCH   8  13
ENDBRANCH   7   8
ENDBRANCH   1   7
BRANCH   4  17
ATOM     17  O   UNL     1      42.728 -38.949 106.869  1.00  0.00    -0.485 OA
BRANCH  17  18
ATOM     18  C   UNL     1      43.219 -40.281 107.061  1.00  0.00     0.310 C 
BRANCH  18  19
ATOM     19  C   UNL     1      43.611 -40.899 105.761  1.00  0.00     0.209 A 
ATOM     20  N   UNL     1      44.291 -42.052 105.686  1.00  0.00    -0.058 NA
ATOM     21  N   UNL     1      43.283 -40.343 104.547  1.00  0.00    -0.188 NA
ATOM     22  O   UNL     1      44.440 -42.243 104.311  1.00  0.00    -0.334 OA
ATOM     23  C   UNL     1      43.823 -41.188 103.695  1.00  0.00     0.258 A 
BRANCH  23  24
ATOM     24  C   UNL     1      43.848 -41.159 102.238  1.00  0.00     0.040 A 
ATOM     25  C   UNL     1      44.587 -42.119 101.539  1.00  0.00     0.014 A 
ATOM     26  C   UNL     1      43.151 -40.199 101.497  1.00  0.00     0.014 A 
ATOM     27  C   UNL     1      44.627 -42.117 100.139  1.00  0.00     0.005 A 
ATOM     28  C   UNL     1      43.191 -40.198 100.095  1.00  0.00     0.005 A 
ATOM     29  C   UNL     1      43.929 -41.157  99.384  1.00  0.00    -0.043 A 
BRANCH  29  30
ATOM     30  C   UNL     1      43.994 -41.187  97.847  1.00  0.00    -0.013 C 
ATOM     31  C   UNL     1      44.803 -40.022  97.233  1.00  0.00     0.016 C 
ATOM     32  C   UNL     1      42.565 -41.104  97.267  1.00  0.00     0.016 C 
ATOM     33  C   UNL     1      44.656 -42.500  97.379  1.00  0.00     0.016 C 
ENDBRANCH  29  30
ENDBRANCH  23  24
ENDBRANCH  18  19
ENDBRANCH  17  18
ENDBRANCH   4  17
TORSDOF 11
ENDMDL
MODEL 3
REMARK VINA RESULT:    -9.760      5.109      7.277
REMARK INTER + INTRA:         -17.037
REMARK INTER:                 -15.637
REMARK INTRA:                  -1.400
REMARK UNBOUND:                -1.287
REMARK SMILES CC(C)O[C@@H](Cc1ccc(OCc2noc(-c3ccc(C(C)(C)C)cc3)n2)cc1)C(=O)O
REMARK SMILES IDX 7 1 8 2 9 3 10 4 28 5 29 6 6 7 5 8 4 9 2 10 1 11 3 12 30 13
REMARK SMILES IDX 31 14 32 15 11 17 12 18 13 19 14 20 27 21 15 22 16 23 17 24
REMARK SMILES IDX 18 25 26 26 19 27 25 28 20 29 21 30 22 31 23 32 24 33
REMARK H PARENT 32 16
ROOT
ATOM      1  C   UNL     1      46.728 -37.849 109.089  1.00  0.00    -0.045 A 
ATOM      2  C   UNL     1      45.764 -37.850 108.075  1.00  0.00     0.007 A 
ATOM      3  C   UNL     1      45.341 -39.055 107.511  1.00  0.00     0.047 A 
ATOM      4  C   UNL     1      45.870 -40.273 107.942  1.00  0.00     0.120 A 
ATOM      5  C   UNL     1      46.835 -40.277 108.948  1.00  0.00     0.047 A 
ATOM      6  C   UNL     1      47.262 -39.070 109.516  1.00  0.00     0.007 A 
ENDROOT
BRANCH   1   7
ATOM      7  C   UNL     1      47.213 -36.547 109.688  1.00  0.00     0.079 C 
BRANCH   7   8
ATOM      8  C   UNL     1      48.005 -35.710 108.673  1.00  0.00     0.232 C 
BRANCH   8   9
ATOM      9  O   UNL     1      49.278 -36.342 108.480  1.00  0.00    -0.364 OA
BRANCH   9  10
ATOM     10  C   UNL     1      49.606 -36.584 107.109  1.00  0.00     0.113 C 
ATOM     11  C   UNL     1      48.511 -36.017 106.211  1.00  0.00     0.038 C 
ATOM     12  C   UNL     1      49.709 -38.094 106.931  1.00  0.00     0.038 C 
ENDBRANCH   9  10
ENDBRANCH   8   9
BRANCH   8  13
ATOM     13  C   UNL     1      48.156 -34.285 109.214  1.00  0.00     0.333 C 
ATOM     14  O   UNL     1      48.406 -33.946 110.360  1.00  0.00    -0.249 OA
BRANCH  13  15
ATOM     15  O   UNL     1      48.032 -33.343 108.253  1.00  0.00    -0.479 OA
ATOM     16  H   UNL     1      48.767 -32.720 108.443  1.00  0.00     0.296 HD
ENDBRANCH  13  15
ENDBRANCH   8  13
ENDBRANCH   7   8
ENDBRANCH   1   7
BRANCH   4  17
ATOM     17  O   UNL     1      45.366 -41.370 107.301  1.00  0.00    -0.485 OA
BRANCH  17  18
ATOM     18  C   UNL     1      43.943 -41.461 107.179  1.00  0.00     0.310 C 
BRANCH  18  19
ATOM     19  C   UNL     1      43.494 -41.047 105.819  1.00  0.00     0.209 A 
ATOM     20  N   UNL     1      42.444 -40.237 105.619  1.00  0.00    -0.058 NA
ATOM     21  N   UNL     1      44.139 -41.449 104.671  1.00  0.00    -0.188 NA
ATOM     22  O   UNL     1      42.388 -40.128 104.228  1.00  0.00    -0.334 OA
ATOM     23  C   UNL     1      43.419 -40.876 103.730  1.00  0.00     0.258 A 
BRANCH  23  24
ATOM     24  C   UNL     1      43.569 -40.925 102.281  1.00  0.00     0.040 A 
ATOM     25  C   UNL     1      44.251 -41.994 101.690  1.00  0.00     0.014 A 
ATOM     26  C   UNL     1      43.047 -39.935 101.441  1.00  0.00     0.014 A 
ATOM     27  C   UNL     1      44.406 -42.069 100.301  1.00  0.00     0.005 A 
ATOM     28  C   UNL     1      43.203 -40.010 100.049  1.00  0.00     0.005 A 
ATOM     29  C   UNL     1      43.885 -41.079  99.447  1.00  0.00    -0.043 A 
BRANCH  29  30
ATOM     30  C   UNL     1      44.073 -41.195  97.924  1.00  0.00    -0.013 C 
ATOM     31  C   UNL     1      42.747 -41.242  97.133  1.00  0.00     0.016 C 
ATOM     32  C   UNL     1      44.848 -42.490  97.595  1.00  0.00     0.016 C 
ATOM     33  C   UNL     1      44.872 -39.980  97.405  1.00  0.00     0.016 C 
ENDBRANCH  29  30
ENDBRANCH  23  24
ENDBRANCH  18  19
ENDBRANCH  17  18
ENDBRANCH   4  17
TORSDOF 11
ENDMDL
MODEL 4
REMARK VINA RESULT:    -9.648      3.735      6.928
REMARK INTER + INTRA:         -16.858
REMARK INTER:                 -15.471
REMARK INTRA:                  -1.387
REMARK UNBOUND:                -1.287
REMARK SMILES CC(C)O[C@@H](Cc1ccc(OCc2noc(-c3ccc(C(C)(C)C)cc3)n2)cc1)C(=O)O
REMARK SMILES IDX 7 1 8 2 9 3 10 4 28 5 29 6 6 7 5 8 4 9 2 10 1 11 3 12 30 13
REMARK SMILES IDX 31 14 32 15 11 17 12 18 13 19 14 20 27 21 15 22 16 23 17 24
REMARK SMILES IDX 18 25 26 26 19 27 25 28 20 29 21 30 22 31 23 32 24 33
REMARK H PARENT 32 16
ROOT
ATOM      1  C   UNL     1      45.594 -38.096 108.482  1.00  0.00    -0.045 A 
ATOM      2  C   UNL     1      45.633 -38.923 107.355  1.00  0.00     0.007 A 
ATOM      3  C   UNL     1      44.507 -39.663 106.988  1.00  0.00     0.047 A 
ATOM      4  C   UNL     1      43.329 -39.593 107.737  1.00  0.00     0.120 A 
ATOM      5  C   UNL     1      43.288 -38.775 108.865  1.00  0.00     0.047 A 
ATOM      6  C   UNL     1      44.416 -38.032 109.235  1.00  0.00     0.007 A 
ENDROOT
BRANCH   1   7
ATOM      7  C   UNL     1      46.818 -37.311 108.902  1.00  0.00     0.079 C 
BRANCH   7   8
ATOM      8  C   UNL     1      47.865 -37.241 107.781  1.00  0.00     0.232 C 
BRANCH   8   9
ATOM      9  O   UNL     1      49.100 -37.755 108.299  1.00  0.00    -0.364 OA
BRANCH   9  10
ATOM     10  C   UNL     1      49.523 -38.977 107.689  1.00  0.00     0.113 C 
ATOM     11  C   UNL     1      49.155 -38.967 106.208  1.00  0.00     0.038 C 
ATOM     12  C   UNL     1      48.802 -40.112 108.407  1.00  0.00     0.038 C 
ENDBRANCH   9  10
ENDBRANCH   8   9
BRANCH   8  13
ATOM     13  C   UNL     1      48.005 -35.786 107.322  1.00  0.00     0.333 C 
ATOM     14  O   UNL     1      48.368 -35.382 106.229  1.00  0.00    -0.249 OA
BRANCH  13  15
ATOM     15  O   UNL     1      47.623 -34.899 108.267  1.00  0.00    -0.479 OA
ATOM     16  H   UNL     1      46.642 -34.936 108.237  1.00  0.00     0.296 HD
ENDBRANCH  13  15
ENDBRANCH   8  13
ENDBRANCH   7   8
ENDBRANCH   1   7
BRANCH   4  17
ATOM     17  O   UNL     1      42.310 -40.371 107.265  1.00  0.00    -0.485 OA
BRANCH  17  18
ATOM     18  C   UNL     1      41.295 -39.722 106.492  1.00  0.00     0.310 C 
BRANCH  18  19
ATOM     19  C   UNL     1      41.798 -39.374 105.132  1.00  0.00     0.209 A 
ATOM     20  N   UNL     1      42.044 -38.111 104.754  1.00  0.00    -0.058 NA
ATOM     21  N   UNL     1      42.067 -40.325 104.175  1.00  0.00    -0.188 NA
ATOM     22  O   UNL     1      42.482 -38.254 103.436  1.00  0.00    -0.334 OA
ATOM     23  C   UNL     1      42.465 -39.593 103.156  1.00  0.00     0.258 A 
BRANCH  23  24
ATOM     24  C   UNL     1      42.881 -40.001 101.820  1.00  0.00     0.040 A 
ATOM     25  C   UNL     1      42.244 -39.455 100.700  1.00  0.00     0.014 A 
ATOM     26  C   UNL     1      43.909 -40.926 101.605  1.00  0.00     0.014 A 
ATOM     27  C   UNL     1      42.625 -39.825  99.404  1.00  0.00     0.005 A 
ATOM     28  C   UNL     1      44.289 -41.297 100.307  1.00  0.00     0.005 A 
ATOM     29  C   UNL     1      43.657 -40.754  99.177  1.00  0.00    -0.043 A 
BRANCH  29  30
ATOM     30  C   UNL     1      44.050 -41.136  97.739  1.00  0.00    -0.013 C 
ATOM     31  C   UNL     1      44.815 -42.474  97.635  1.00  0.00     0.016 C 
ATOM     32  C   UNL     1      44.963 -40.042  97.144  1.00  0.00     0.016 C 
ATOM     33  C   UNL     1      42.781 -41.267  96.870  1.00  0.00     0.016 C 
ENDBRANCH  29  30
ENDBRANCH  23  24
ENDBRANCH  18  19
ENDBRANCH  17  18
ENDBRANCH   4  17
TORSDOF 11
ENDMDL
MODEL 5
REMARK VINA RESULT:    -9.505      3.892      7.196
REMARK INTER + INTRA:         -16.626
REMARK INTER:                 -15.136
REMARK INTRA:                  -1.490
REMARK UNBOUND:                -1.287
REMARK SMILES CC(C)O[C@@H](Cc1ccc(OCc2noc(-c3ccc(C(C)(C)C)cc3)n2)cc1)C(=O)O
REMARK SMILES IDX 7 1 8 2 9 3 10 4 28 5 29 6 6 7 5 8 4 9 2 10 1 11 3 12 30 13
REMARK SMILES IDX 31 14 32 15 11 17 12 18 13 19 14 20 27 21 15 22 16 23 17 24
REMARK SMILES IDX 18 25 26 26 19 27 25 28 20 29 21 30 22 31 23 32 24 33
REMARK H PARENT 32 16
ROOT
ATOM      1  C   UNL     1      35.808 -37.684 105.592  1.00  0.00    -0.045 A 
ATOM      2  C   UNL     1      36.098 -36.415 106.103  1.00  0.00     0.007 A 
ATOM      3  C   UNL     1      36.496 -36.268 107.433  1.00  0.00     0.047 A 
ATOM      4  C   UNL     1      36.609 -37.378 108.274  1.00  0.00     0.120 A 
ATOM      5  C   UNL     1      36.315 -38.645 107.771  1.00  0.00     0.047 A 
ATOM      6  C   UNL     1      35.915 -38.795 106.437  1.00  0.00     0.007 A 
ENDROOT
BRANCH   1   7
ATOM      7  C   UNL     1      35.350 -37.850 104.159  1.00  0.00     0.079 C 
BRANCH   7   8
ATOM      8  C   UNL     1      36.530 -37.833 103.177  1.00  0.00     0.232 C 
BRANCH   8   9
ATOM      9  O   UNL     1      37.739 -37.962 103.939  1.00  0.00    -0.364 OA
BRANCH   9  10
ATOM     10  C   UNL     1      38.570 -39.053 103.533  1.00  0.00     0.113 C 
ATOM     11  C   UNL     1      39.372 -39.560 104.728  1.00  0.00     0.038 C 
ATOM     12  C   UNL     1      39.504 -38.529 102.450  1.00  0.00     0.038 C 
ENDBRANCH   9  10
ENDBRANCH   8   9
BRANCH   8  13
ATOM     13  C   UNL     1      36.498 -36.524 102.383  1.00  0.00     0.333 C 
ATOM     14  O   UNL     1      35.732 -36.217 101.483  1.00  0.00    -0.249 OA
BRANCH  13  15
ATOM     15  O   UNL     1      37.418 -35.630 102.807  1.00  0.00    -0.479 OA
ATOM     16  H   UNL     1      38.272 -36.023 102.522  1.00  0.00     0.296 HD
ENDBRANCH  13  15
ENDBRANCH   8  13
ENDBRANCH   7   8
ENDBRANCH   1   7
BRANCH   4  17
ATOM     17  O   UNL     1      37.005 -37.087 109.549  1.00  0.00    -0.485 OA
BRANCH  17  18
ATOM     18  C   UNL     1      37.839 -38.044 110.210  1.00  0.00     0.310 C 
BRANCH  18  19
ATOM     19  C   UNL     1      39.232 -37.996 109.679  1.00  0.00     0.209 A 
ATOM     20  N   UNL     1      39.870 -36.843 109.429  1.00  0.00    -0.058 NA
ATOM     21  N   UNL     1      39.970 -39.129 109.430  1.00  0.00    -0.188 NA
ATOM     22  O   UNL     1      41.113 -37.266 108.953  1.00  0.00    -0.334 OA
ATOM     23  C   UNL     1      41.101 -38.634 108.975  1.00  0.00     0.258 A 
BRANCH  23  24
ATOM     24  C   UNL     1      42.302 -39.319 108.512  1.00  0.00     0.040 A 
ATOM     25  C   UNL     1      43.408 -39.429 109.362  1.00  0.00     0.014 A 
ATOM     26  C   UNL     1      42.397 -39.883 107.235  1.00  0.00     0.014 A 
ATOM     27  C   UNL     1      44.573 -40.083 108.945  1.00  0.00     0.005 A 
ATOM     28  C   UNL     1      43.564 -40.539 106.818  1.00  0.00     0.005 A 
ATOM     29  C   UNL     1      44.679 -40.655 107.664  1.00  0.00    -0.043 A 
BRANCH  29  30
ATOM     30  C   UNL     1      45.974 -41.369 107.240  1.00  0.00    -0.013 C 
ATOM     31  C   UNL     1      47.186 -40.423 107.081  1.00  0.00     0.016 C 
ATOM     32  C   UNL     1      45.759 -42.068 105.880  1.00  0.00     0.016 C 
ATOM     33  C   UNL     1      46.356 -42.426 108.299  1.00  0.00     0.016 C 
ENDBRANCH  29  30
ENDBRANCH  23  24
ENDBRANCH  18  19
ENDBRANCH  17  18
ENDBRANCH   4  17
TORSDOF 11
ENDMDL
MODEL 6
REMARK VINA RESULT:    -9.306      3.353      6.639
REMARK INTER + INTRA:         -16.306
REMARK INTER:                 -14.602
REMARK INTRA:                  -1.704
REMARK UNBOUND:                -1.287
REMARK SMILES CC(C)O[C@@H](Cc1ccc(OCc2noc(-c3ccc(C(C)(C)C)cc3)n2)cc1)C(=O)O
REMARK SMILES IDX 7 1 8 2 9 3 10 4 28 5 29 6 6 7 5 8 4 9 2 10 1 11 3 12 30 13
REMARK SMILES IDX 31 14 32 15 11 17 12 18 13 19 14 20 27 21 15 22 16 23 17 24
REMARK SMILES IDX 18 25 26 26 19 27 25 28 20 29 21 30 22 31 23 32 24 33
REMARK H PARENT 32 16
ROOT
ATOM      1  C   UNL     1      45.104 -38.799 108.614  1.00  0.00    -0.045 A 
ATOM      2  C   UNL     1      44.810 -38.215 107.377  1.00  0.00     0.007 A 
ATOM      3  C   UNL     1      43.488 -38.142 106.932  1.00  0.00     0.047 A 
ATOM      4  C   UNL     1      42.443 -38.649 107.706  1.00  0.00     0.120 A 
ATOM      5  C   UNL     1      42.731 -39.238 108.937  1.00  0.00     0.047 A 
ATOM      6  C   UNL     1      44.056 -39.312 109.386  1.00  0.00     0.007 A 
ENDROOT
BRANCH   1   7
ATOM      7  C   UNL     1      46.536 -38.906 109.093  1.00  0.00     0.079 C 
BRANCH   7   8
ATOM      8  C   UNL     1      47.366 -39.845 108.206  1.00  0.00     0.232 C 
BRANCH   8   9
ATOM      9  O   UNL     1      47.237 -41.174 108.730  1.00  0.00    -0.364 OA
BRANCH   9  10
ATOM     10  C   UNL     1      46.683 -42.113 107.805  1.00  0.00     0.113 C 
ATOM     11  C   UNL     1      46.428 -41.427 106.466  1.00  0.00     0.038 C 
ATOM     12  C   UNL     1      45.374 -42.614 108.402  1.00  0.00     0.038 C 
ENDBRANCH   9  10
ENDBRANCH   8   9
BRANCH   8  13
ATOM     13  C   UNL     1      48.823 -39.372 108.210  1.00  0.00     0.333 C 
ATOM     14  O   UNL     1      49.363 -38.616 107.418  1.00  0.00    -0.249 OA
BRANCH  13  15
ATOM     15  O   UNL     1      49.525 -39.846 109.263  1.00  0.00    -0.479 OA
ATOM     16  H   UNL     1      48.862 -40.364 109.770  1.00  0.00     0.296 HD
ENDBRANCH  13  15
ENDBRANCH   8  13
ENDBRANCH   7   8
ENDBRANCH   1   7
BRANCH   4  17
ATOM     17  O   UNL     1      41.203 -38.513 107.147  1.00  0.00    -0.485 OA
BRANCH  17  18
ATOM     18  C   UNL     1      40.687 -39.632 106.419  1.00  0.00     0.310 C 
BRANCH  18  19
ATOM     19  C   UNL     1      40.860 -39.441 104.950  1.00  0.00     0.209 A 
ATOM     20  N   UNL     1      40.145 -38.549 104.248  1.00  0.00    -0.058 NA
ATOM     21  N   UNL     1      41.780 -40.150 104.213  1.00  0.00    -0.188 NA
ATOM     22  O   UNL     1      40.622 -38.714 102.947  1.00  0.00    -0.334 OA
ATOM     23  C   UNL     1      41.587 -39.683 102.998  1.00  0.00     0.258 A 
BRANCH  23  24
ATOM     24  C   UNL     1      42.239 -40.042 101.745  1.00  0.00     0.040 A 
ATOM     25  C   UNL     1      41.850 -39.414 100.557  1.00  0.00     0.014 A 
ATOM     26  C   UNL     1      43.258 -40.999 101.678  1.00  0.00     0.014 A 
ATOM     27  C   UNL     1      42.461 -39.736  99.339  1.00  0.00     0.005 A 
ATOM     28  C   UNL     1      43.870 -41.321 100.458  1.00  0.00     0.005 A 
ATOM     29  C   UNL     1      43.486 -40.696  99.261  1.00  0.00    -0.043 A 
BRANCH  29  30
ATOM     30  C   UNL     1      44.138 -41.023  97.905  1.00  0.00    -0.013 C 
ATOM     31  C   UNL     1      45.021 -39.886  97.346  1.00  0.00     0.016 C 
ATOM     32  C   UNL     1      43.038 -41.305  96.857  1.00  0.00     0.016 C 
ATOM     33  C   UNL     1      45.035 -42.271  98.047  1.00  0.00     0.016 C 
ENDBRANCH  29  30
ENDBRANCH  23  24
ENDBRANCH  18  19
ENDBRANCH  17  18
ENDBRANCH   4  17
TORSDOF 11
ENDMDL
MODEL 7
REMARK VINA RESULT:    -9.191      3.731      6.880
REMARK INTER + INTRA:         -16.119
REMARK INTER:                 -15.236
REMARK INTRA:                  -0.884
REMARK UNBOUND:                -1.287
REMARK SMILES CC(C)O[C@@H](Cc1ccc(OCc2noc(-c3ccc(C(C)(C)C)cc3)n2)cc1)C(=O)O
REMARK SMILES IDX 7 1 8 2 9 3 10 4 28 5 29 6 6 7 5 8 4 9 2 10 1 11 3 12 30 13
REMARK SMILES IDX 31 14 32 15 11 17 12 18 13 19 14 20 27 21 15 22 16 23 17 24
REMARK SMILES IDX 18 25 26 26 19 27 25 28 20 29 21 30 22 31 23 32 24 33
REMARK H PARENT 32 16
ROOT
ATOM      1  C   UNL     1      46.090 -39.186 109.026  1.00  0.00    -0.045 A 
ATOM      2  C   UNL     1      45.312 -38.030 109.147  1.00  0.00     0.007 A 
ATOM      3  C   UNL     1      43.989 -38.025 108.700  1.00  0.00     0.047 A 
ATOM      4  C   UNL     1      43.423 -39.165 108.125  1.00  0.00     0.120 A 
ATOM      5  C   UNL     1      44.196 -40.318 107.998  1.00  0.00     0.047 A 
ATOM      6  C   UNL     1      45.523 -40.326 108.445  1.00  0.00     0.007 A 
ENDROOT
BRANCH   1   7
ATOM      7  C   UNL     1      47.533 -39.193 109.484  1.00  0.00     0.079 C 
BRANCH   7   8
ATOM      8  C   UNL     1      48.450 -38.461 108.494  1.00  0.00     0.232 C 
BRANCH   8   9
ATOM      9  O   UNL     1      47.741 -37.315 108.002  1.00  0.00    -0.364 OA
BRANCH   9  10
ATOM     10  C   UNL     1      48.505 -36.106 108.020  1.00  0.00     0.113 C 
ATOM     11  C   UNL     1      47.908 -35.135 109.033  1.00  0.00     0.038 C 
ATOM     12  C   UNL     1      48.443 -35.515 106.617  1.00  0.00     0.038 C 
ENDBRANCH   9  10
ENDBRANCH   8   9
BRANCH   8  13
ATOM     13  C   UNL     1      48.827 -39.422 107.363  1.00  0.00     0.333 C 
ATOM     14  O   UNL     1      49.086 -39.142 106.203  1.00  0.00    -0.249 OA
BRANCH  13  15
ATOM     15  O   UNL     1      48.910 -40.707 107.772  1.00  0.00    -0.479 OA
ATOM     16  H   UNL     1      49.717 -40.721 108.331  1.00  0.00     0.296 HD
ENDBRANCH  13  15
ENDBRANCH   8  13
ENDBRANCH   7   8
ENDBRANCH   1   7
BRANCH   4  17
ATOM     17  O   UNL     1      42.123 -39.016 107.731  1.00  0.00    -0.485 OA
BRANCH  17  18
ATOM     18  C   UNL     1      41.630 -39.929 106.744  1.00  0.00     0.310 C 
BRANCH  18  19
ATOM     19  C   UNL     1      42.092 -39.544 105.380  1.00  0.00     0.209 A 
ATOM     20  N   UNL     1      42.357 -38.274 105.039  1.00  0.00    -0.058 NA
ATOM     21  N   UNL     1      42.303 -40.465 104.381  1.00  0.00    -0.188 NA
ATOM     22  O   UNL     1      42.743 -38.379 103.701  1.00  0.00    -0.334 OA
ATOM     23  C   UNL     1      42.683 -39.707 103.375  1.00  0.00     0.258 A 
BRANCH  23  24
ATOM     24  C   UNL     1      43.040 -40.075 102.011  1.00  0.00     0.040 A 
ATOM     25  C   UNL     1      42.435 -39.417 100.934  1.00  0.00     0.014 A 
ATOM     26  C   UNL     1      43.980 -41.072 101.726  1.00  0.00     0.014 A 
ATOM     27  C   UNL     1      42.761 -39.747  99.614  1.00  0.00     0.005 A 
ATOM     28  C   UNL     1      44.307 -41.402 100.403  1.00  0.00     0.005 A 
ATOM     29  C   UNL     1      43.705 -40.747  99.316  1.00  0.00    -0.043 A 
BRANCH  29  30
ATOM     30  C   UNL     1      44.041 -41.083  97.852  1.00  0.00    -0.013 C 
ATOM     31  C   UNL     1      44.879 -39.998  97.139  1.00  0.00     0.016 C 
ATOM     32  C   UNL     1      42.734 -41.252  97.047  1.00  0.00     0.016 C 
ATOM     33  C   UNL     1      44.848 -42.397  97.792  1.00  0.00     0.016 C 
ENDBRANCH  29  30
ENDBRANCH  23  24
ENDBRANCH  18  19
ENDBRANCH  17  18
ENDBRANCH   4  17
TORSDOF 11
ENDMDL
MODEL 8
REMARK VINA RESULT:    -9.181      3.874      8.336
REMARK INTER + INTRA:         -16.104
REMARK INTER:                 -15.121
REMARK INTRA:                  -0.983
REMARK UNBOUND:                -1.287
REMARK SMILES CC(C)O[C@@H](Cc1ccc(OCc2noc(-c3ccc(C(C)(C)C)cc3)n2)cc1)C(=O)O
REMARK SMILES IDX 7 1 8 2 9 3 10 4 28 5 29 6 6 7 5 8 4 9 2 10 1 11 3 12 30 13
REMARK SMILES IDX 31 14 32 15 11 17 12 18 13 19 14 20 27 21 15 22 16 23 17 24
REMARK SMILES IDX 18 25 26 26 19 27 25 28 20 29 21 30 22 31 23 32 24 33
REMARK H PARENT 32 16
ROOT
ATOM      1  C   UNL     1      36.085 -36.631 103.071  1.00  0.00    -0.045 A 
ATOM      2  C   UNL     1      35.928 -38.008 103.258  1.00  0.00     0.007 A 
ATOM      3  C   UNL     1      35.829 -38.534 104.547  1.00  0.00     0.047 A 
ATOM      4  C   UNL     1      35.886 -37.702 105.667  1.00  0.00     0.120 A 
ATOM      5  C   UNL     1      36.048 -36.329 105.486  1.00  0.00     0.047 A 
ATOM      6  C   UNL     1      36.148 -35.798 104.194  1.00  0.00     0.007 A 
ENDROOT
BRANCH   1   7
ATOM      7  C   UNL     1      36.220 -36.054 101.678  1.00  0.00     0.079 C 
BRANCH   7   8
ATOM      8  C   UNL     1      37.608 -36.323 101.081  1.00  0.00     0.232 C 
BRANCH   8   9
ATOM      9  O   UNL     1      38.443 -36.845 102.124  1.00  0.00    -0.364 OA
BRANCH   9  10
ATOM     10  C   UNL     1      39.037 -38.109 101.816  1.00  0.00     0.113 C 
ATOM     11  C   UNL     1      39.408 -38.831 103.108  1.00  0.00     0.038 C 
ATOM     12  C   UNL     1      40.286 -37.829 100.989  1.00  0.00     0.038 C 
ENDBRANCH   9  10
ENDBRANCH   8   9
BRANCH   8  13
ATOM     13  C   UNL     1      38.166 -35.015 100.511  1.00  0.00     0.333 C 
ATOM     14  O   UNL     1      37.942 -34.525  99.414  1.00  0.00    -0.249 OA
BRANCH  13  15
ATOM     15  O   UNL     1      38.951 -34.353 101.388  1.00  0.00    -0.479 OA
ATOM     16  H   UNL     1      38.639 -34.670 102.264  1.00  0.00     0.296 HD
ENDBRANCH  13  15
ENDBRANCH   8  13
ENDBRANCH   7   8
ENDBRANCH   1   7
BRANCH   4  17
ATOM     17  O   UNL     1      35.778 -38.352 106.865  1.00  0.00    -0.485 OA
BRANCH  17  18
ATOM     18  C   UNL     1      35.963 -37.573 108.051  1.00  0.00     0.310 C 
BRANCH  18  19
ATOM     19  C   UNL     1      37.353 -37.712 108.573  1.00  0.00     0.209 A 
ATOM     20  N   UNL     1      37.749 -37.163 109.730  1.00  0.00    -0.058 NA
ATOM     21  N   UNL     1      38.323 -38.433 107.915  1.00  0.00    -0.188 NA
ATOM     22  O   UNL     1      39.092 -37.536 109.815  1.00  0.00    -0.334 OA
ATOM     23  C   UNL     1      39.366 -38.283 108.702  1.00  0.00     0.258 A 
BRANCH  23  24
ATOM     24  C   UNL     1      40.726 -38.789 108.558  1.00  0.00     0.040 A 
ATOM     25  C   UNL     1      41.136 -39.333 107.336  1.00  0.00     0.014 A 
ATOM     26  C   UNL     1      41.654 -38.751 109.604  1.00  0.00     0.014 A 
ATOM     27  C   UNL     1      42.437 -39.824 107.168  1.00  0.00     0.005 A 
ATOM     28  C   UNL     1      42.956 -39.242 109.435  1.00  0.00     0.005 A 
ATOM     29  C   UNL     1      43.378 -39.789 108.213  1.00  0.00    -0.043 A 
BRANCH  29  30
ATOM     30  C   UNL     1      44.799 -40.336 107.992  1.00  0.00    -0.013 C 
ATOM     31  C   UNL     1      44.844 -41.645 107.173  1.00  0.00     0.016 C 
ATOM     32  C   UNL     1      45.460 -40.629 109.357  1.00  0.00     0.016 C 
ATOM     33  C   UNL     1      45.645 -39.292 107.232  1.00  0.00     0.016 C 
ENDBRANCH  29  30
ENDBRANCH  23  24
ENDBRANCH  18  19
ENDBRANCH  17  18
ENDBRANCH   4  17
TORSDOF 11
ENDMDL
MODEL 9
REMARK VINA RESULT:    -9.099      4.377      7.113
REMARK INTER + INTRA:         -15.971
REMARK INTER:                 -14.739
REMARK INTRA:                  -1.231
REMARK UNBOUND:                -1.287
REMARK SMILES CC(C)O[C@@H](Cc1ccc(OCc2noc(-c3ccc(C(C)(C)C)cc3)n2)cc1)C(=O)O
REMARK SMILES IDX 7 1 8 2 9 3 10 4 28 5 29 6 6 7 5 8 4 9 2 10 1 11 3 12 30 13
REMARK SMILES IDX 31 14 32 15 11 17 12 18 13 19 14 20 27 21 15 22 16 23 17 24
REMARK SMILES IDX 18 25 26 26 19 27 25 28 20 29 21 30 22 31 23 32 24 33
REMARK H PARENT 32 16
ROOT
ATOM      1  C   UNL     1      35.853 -37.798 106.016  1.00  0.00    -0.045 A 
ATOM      2  C   UNL     1      36.337 -36.586 106.519  1.00  0.00     0.007 A 
ATOM      3  C   UNL     1      36.681 -36.474 107.868  1.00  0.00     0.047 A 
ATOM      4  C   UNL     1      36.549 -37.562 108.734  1.00  0.00     0.120 A 
ATOM      5  C   UNL     1      36.062 -38.770 108.238  1.00  0.00     0.047 A 
ATOM      6  C   UNL     1      35.715 -38.886 106.886  1.00  0.00     0.007 A 
ENDROOT
BRANCH   1   7
ATOM      7  C   UNL     1      35.452 -37.922 104.562  1.00  0.00     0.079 C 
BRANCH   7   8
ATOM      8  C   UNL     1      36.613 -37.575 103.618  1.00  0.00     0.232 C 
BRANCH   8   9
ATOM      9  O   UNL     1      36.059 -37.294 102.325  1.00  0.00    -0.364 OA
BRANCH   9  10
ATOM     10  C   UNL     1      36.509 -36.062 101.754  1.00  0.00     0.113 C 
ATOM     11  C   UNL     1      37.624 -36.337 100.750  1.00  0.00     0.038 C 
ATOM     12  C   UNL     1      37.027 -35.199 102.899  1.00  0.00     0.038 C 
ENDBRANCH   9  10
ENDBRANCH   8   9
BRANCH   8  13
ATOM     13  C   UNL     1      37.586 -38.757 103.573  1.00  0.00     0.333 C 
ATOM     14  O   UNL     1      38.781 -38.729 103.321  1.00  0.00    -0.249 OA
BRANCH  13  15
ATOM     15  O   UNL     1      37.003 -39.930 103.904  1.00  0.00    -0.479 OA
ATOM     16  H   UNL     1      37.023 -40.443 103.067  1.00  0.00     0.296 HD
ENDBRANCH  13  15
ENDBRANCH   8  13
ENDBRANCH   7   8
ENDBRANCH   1   7
BRANCH   4  17
ATOM     17  O   UNL     1      36.920 -37.309 110.025  1.00  0.00    -0.485 OA
BRANCH  17  18
ATOM     18  C   UNL     1      37.839 -38.223 110.632  1.00  0.00     0.310 C 
BRANCH  18  19
ATOM     19  C   UNL     1      39.195 -38.104 110.022  1.00  0.00     0.209 A 
ATOM     20  N   UNL     1      39.695 -36.935 109.595  1.00  0.00    -0.058 NA
ATOM     21  N   UNL     1      40.038 -39.180 109.874  1.00  0.00    -0.188 NA
ATOM     22  O   UNL     1      40.953 -37.289 109.105  1.00  0.00    -0.334 OA
ATOM     23  C   UNL     1      41.089 -38.637 109.297  1.00  0.00     0.258 A 
BRANCH  23  24
ATOM     24  C   UNL     1      42.334 -39.251 108.856  1.00  0.00     0.040 A 
ATOM     25  C   UNL     1      42.404 -39.844 107.590  1.00  0.00     0.014 A 
ATOM     26  C   UNL     1      43.484 -39.271 109.654  1.00  0.00     0.014 A 
ATOM     27  C   UNL     1      43.588 -40.439 107.138  1.00  0.00     0.005 A 
ATOM     28  C   UNL     1      44.669 -39.867 109.201  1.00  0.00     0.005 A 
ATOM     29  C   UNL     1      44.749 -40.464 107.932  1.00  0.00    -0.043 A 
BRANCH  29  30
ATOM     30  C   UNL     1      46.034 -41.124 107.403  1.00  0.00    -0.013 C 
ATOM     31  C   UNL     1      46.640 -42.171 108.364  1.00  0.00     0.016 C 
ATOM     32  C   UNL     1      47.112 -40.044 107.166  1.00  0.00     0.016 C 
ATOM     33  C   UNL     1      45.737 -41.845 106.070  1.00  0.00     0.016 C 
ENDBRANCH  29  30
ENDBRANCH  23  24
ENDBRANCH  18  19
ENDBRANCH  17  18
ENDBRANCH   4  17
TORSDOF 11
ENDMDL
