REMARK VINA RESULT:    -9.311      0.000      0.000
REMARK INTER + INTRA:         -14.459
REMARK INTER:                 -13.666
REMARK INTRA:                  -0.793
REMARK UNBOUND:                -0.793
REMARK SMILES CCC(CC)n1cc(-c2nc(-c3cnn(CCN4CCNCC4=O)c3)cn3nccc23)cn1
REMARK SMILES IDX 9 1 10 2 11 3 26 4 27 5 28 6 29 7 30 8 31 9 8 10 6 11 7 12
REMARK SMILES IDX 33 13 32 14 3 15 2 16 1 17 4 18 5 19 12 20 13 21 25 22 14 23
REMARK SMILES IDX 15 24 16 25 17 26 18 27 19 28 23 29 20 30 22 31 24 32 21 33
REMARK H PARENT 21 34
ROOT
ATOM      1  C   UNL     1     -12.892  15.696  19.985  1.00  0.00     0.100 A 
ATOM      2  N   UNL     1     -13.867  16.506  20.287  1.00  0.00    -0.244 NA
ATOM      3  C   UNL     1     -15.132  15.982  20.503  1.00  0.00     0.092 A 
ATOM      4  C   UNL     1     -15.384  14.664  20.411  1.00  0.00     0.142 A 
ATOM      5  N   UNL     1     -14.356  13.793  20.112  1.00  0.00    -0.237 N 
ATOM      6  N   UNL     1     -14.410  12.444  19.995  1.00  0.00    -0.176 NA
ATOM      7  C   UNL     1     -13.150  12.076  19.772  1.00  0.00     0.136 A 
ATOM      8  C   UNL     1     -12.272  13.170  19.717  1.00  0.00     0.052 A 
ATOM      9  C   UNL     1     -13.076  14.271  19.907  1.00  0.00     0.093 A 
ENDROOT
BRANCH   1  10
ATOM     10  C   UNL     1     -11.596  16.293  19.734  1.00  0.00     0.040 A 
ATOM     11  N   UNL     1      -9.444  16.776  19.616  1.00  0.00    -0.269 N 
ATOM     12  C   UNL     1     -10.340  15.887  20.147  1.00  0.00     0.119 A 
ATOM     13  N   UNL     1     -10.027  17.737  18.879  1.00  0.00    -0.181 NA
ATOM     14  C   UNL     1     -11.325  17.429  18.932  1.00  0.00     0.145 A 
BRANCH  11  15
ATOM     15  C   UNL     1      -7.987  16.752  19.782  1.00  0.00     0.107 C 
BRANCH  15  16
ATOM     16  C   UNL     1      -7.636  16.549  21.270  1.00  0.00     0.024 C 
ATOM     17  C   UNL     1      -6.151  16.697  21.569  1.00  0.00     0.006 C 
ENDBRANCH  15  16
BRANCH  15  18
ATOM     18  C   UNL     1      -7.319  18.002  19.177  1.00  0.00     0.024 C 
ATOM     19  C   UNL     1      -6.356  17.677  18.041  1.00  0.00     0.006 C 
ENDBRANCH  15  18
ENDBRANCH  11  15
ENDBRANCH   1  10
BRANCH   3  20
ATOM     20  C   UNL     1     -16.126  16.964  20.820  1.00  0.00     0.040 A 
ATOM     21  C   UNL     1     -16.145  17.870  21.905  1.00  0.00     0.145 A 
ATOM     22  C   UNL     1     -17.290  17.239  20.133  1.00  0.00     0.119 A 
ATOM     23  N   UNL     1     -17.227  18.657  21.905  1.00  0.00    -0.181 NA
ATOM     24  N   UNL     1     -17.909  18.247  20.818  1.00  0.00    -0.270 N 
BRANCH  24  25
ATOM     25  C   UNL     1     -19.170  18.878  20.485  1.00  0.00     0.165 C 
BRANCH  25  26
ATOM     26  C   UNL     1     -20.256  18.515  21.495  1.00  0.00     0.143 C 
BRANCH  26  27
ATOM     27  N   UNL     1     -21.482  19.290  21.305  1.00  0.00    -0.338 N 
ATOM     28  C   UNL     1     -21.736  19.865  19.986  1.00  0.00     0.135 C 
ATOM     29  C   UNL     1     -22.198  19.707  22.422  1.00  0.00     0.236 C 
ATOM     30  C   UNL     1     -23.171  20.366  19.810  1.00  0.00     0.103 C 
ATOM     31  C   UNL     1     -23.507  20.474  22.182  1.00  0.00     0.182 C 
ATOM     32  O   UNL     1     -21.848  19.405  23.566  1.00  0.00    -0.273 OA
ATOM     33  N   UNL     1     -23.532  21.245  20.923  1.00  0.00    -0.307 NA
ATOM     34  H   UNL     1     -24.475  21.606  20.783  1.00  0.00     0.123 HD
ENDBRANCH  26  27
ENDBRANCH  25  26
ENDBRANCH  24  25
ENDBRANCH   3  20
TORSDOF 8
