MODEL 7
REMARK VINA RESULT:    -8.938      3.386      7.150
REMARK INTER + INTRA:         -14.727
REMARK INTER:                 -13.000
REMARK INTRA:                  -1.727
REMARK UNBOUND:                -0.826
REMARK SMILES CN1C[C@@](C)(COc2ccc(C(=N)N)cc2)Oc2cc(N(Cc3ccc(F)cc3)C(=O)C(=O)O)ccc21
REMARK SMILES IDX 1 1 2 2 3 3 4 4 5 5 17 6 18 7 19 8 20 9 35 10 36 11 37 12
REMARK SMILES IDX 6 13 7 14 8 15 9 16 16 17 10 18 15 19 11 20 12 21 13 22
REMARK SMILES IDX 14 23 21 27 22 28 23 29 24 30 29 31 25 32 28 33 26 34 27 35
REMARK SMILES IDX 30 36 31 37 32 38 33 39 34 40
REMARK H PARENT 13 24 14 25 14 26 34 41
ROOT
ATOM      1  C   UNL     1     131.099 -17.314 167.193  1.00  0.00     0.144 C 
ATOM      2  N   UNL     1     130.662 -18.011 165.986  1.00  0.00    -0.367 N 
ATOM      3  C   UNL     1     129.901 -19.253 166.216  1.00  0.00     0.168 C 
ATOM      4  C   UNL     1     129.748 -20.039 164.898  1.00  0.00     0.157 C 
ATOM      5  C   UNL     1     131.109 -20.507 164.355  1.00  0.00     0.062 C 
ATOM      6  O   UNL     1     129.108 -19.254 163.876  1.00  0.00    -0.480 OA
ATOM      7  C   UNL     1     129.298 -17.894 163.956  1.00  0.00     0.145 A 
ATOM      8  C   UNL     1     128.635 -17.164 162.960  1.00  0.00     0.075 A 
ATOM      9  C   UNL     1     128.723 -15.773 162.905  1.00  0.00     0.048 A 
ATOM     10  C   UNL     1     129.567 -15.147 163.827  1.00  0.00     0.029 A 
ATOM     11  C   UNL     1     130.223 -15.877 164.831  1.00  0.00     0.032 A 
ATOM     12  C   UNL     1     130.066 -17.261 164.952  1.00  0.00     0.079 A 
ENDROOT
BRANCH   4  13
ATOM     13  C   UNL     1     128.871 -21.296 165.138  1.00  0.00     0.279 C 
BRANCH  13  14
ATOM     14  O   UNL     1     128.483 -21.946 163.920  1.00  0.00    -0.489 OA
BRANCH  14  15
ATOM     15  C   UNL     1     127.392 -21.486 163.235  1.00  0.00     0.119 A 
ATOM     16  C   UNL     1     127.458 -21.662 161.848  1.00  0.00     0.047 A 
ATOM     17  C   UNL     1     126.266 -20.871 163.783  1.00  0.00     0.047 A 
ATOM     18  C   UNL     1     126.418 -21.229 161.018  1.00  0.00     0.016 A 
ATOM     19  C   UNL     1     125.223 -20.431 162.959  1.00  0.00     0.016 A 
ATOM     20  C   UNL     1     125.296 -20.613 161.575  1.00  0.00     0.016 A 
BRANCH  20  21
ATOM     21  C   UNL     1     124.173 -20.143 160.722  1.00  0.00     0.122 C 
ATOM     22  N   UNL     1     123.108 -19.583 161.200  1.00  0.00    -0.284 NA
ATOM     23  N   UNL     1     124.241 -20.286 159.367  1.00  0.00    -0.384 N 
ATOM     24  H   UNL     1     123.168 -19.469 162.218  1.00  0.00     0.189 HD
ATOM     25  H   UNL     1     124.655 -21.144 159.027  1.00  0.00     0.158 HD
ATOM     26  H   UNL     1     123.347 -20.078 158.933  1.00  0.00     0.158 HD
ENDBRANCH  20  21
ENDBRANCH  14  15
ENDBRANCH  13  14
ENDBRANCH   4  13
BRANCH   9  27
ATOM     27  N   UNL     1     128.018 -15.021 161.913  1.00  0.00    -0.298 N 
BRANCH  27  28
ATOM     28  C   UNL     1     126.557 -14.966 161.958  1.00  0.00     0.161 C 
BRANCH  28  29
ATOM     29  C   UNL     1     126.040 -14.164 163.135  1.00  0.00    -0.028 A 
ATOM     30  C   UNL     1     125.078 -14.715 163.998  1.00  0.00     0.008 A 
ATOM     31  C   UNL     1     126.529 -12.874 163.394  1.00  0.00     0.008 A 
ATOM     32  C   UNL     1     124.608 -13.985 165.089  1.00  0.00     0.039 A 
ATOM     33  C   UNL     1     126.056 -12.146 164.488  1.00  0.00     0.039 A 
ATOM     34  C   UNL     1     125.100 -12.708 165.325  1.00  0.00     0.123 A 
ATOM     35  F   UNL     1     124.649 -12.013 166.377  1.00  0.00    -0.207 F 
ENDBRANCH  28  29
ENDBRANCH  27  28
BRANCH  27  36
ATOM     36  C   UNL     1     128.633 -14.384 160.822  1.00  0.00     0.336 C 
ATOM     37  O   UNL     1     129.621 -13.657 160.901  1.00  0.00    -0.261 OA
BRANCH  36  38
ATOM     38  C   UNL     1     128.107 -14.706 159.412  1.00  0.00     0.394 C 
ATOM     39  O   UNL     1     128.112 -15.810 158.900  1.00  0.00    -0.241 OA
BRANCH  38  40
ATOM     40  O   UNL     1     127.637 -13.620 158.783  1.00  0.00    -0.474 OA
ATOM     41  H   UNL     1     127.715 -12.907 159.451  1.00  0.00     0.297 HD
ENDBRANCH  38  40
ENDBRANCH  36  38
ENDBRANCH  27  36
ENDBRANCH   9  27
TORSDOF 10
ENDMDL
