REMARK VINA RESULT:    -7.302      2.305      4.900
REMARK INTER + INTRA:         -10.339
REMARK INTER:                  -9.321
REMARK INTRA:                  -1.018
REMARK UNBOUND:                -0.690
REMARK SMILES CC[C@@H](CO)n1cc(-c2nc(-c3cnn(C)c3)cn3nccc23)cn1
REMARK SMILES IDX 6 1 7 2 8 3 24 4 25 5 3 6 2 7 1 8 4 9 5 10 9 12 10 13 23 14
REMARK SMILES IDX 11 15 22 16 19 17 18 18 21 19 20 20 12 21 13 22 17 23 14 24
REMARK SMILES IDX 15 25 16 26
REMARK H PARENT 5 11
ROOT
ATOM      1  N   UNL     1       4.640 -19.470  20.884  1.00  0.00    -0.267 N 
ATOM      2  C   UNL     1       4.985 -20.324  21.897  1.00  0.00     0.119 A 
ATOM      3  C   UNL     1       5.568 -21.429  21.304  1.00  0.00     0.040 A 
ATOM      4  C   UNL     1       5.488 -21.140  19.918  1.00  0.00     0.145 A 
ATOM      5  N   UNL     1       4.952 -19.943  19.661  1.00  0.00    -0.180 NA
ENDROOT
BRANCH   1   6
ATOM      6  C   UNL     1       4.011 -18.153  21.027  1.00  0.00     0.132 C 
BRANCH   6   7
ATOM      7  C   UNL     1       4.684 -17.150  20.072  1.00  0.00     0.026 C 
ATOM      8  C   UNL     1       6.045 -16.671  20.557  1.00  0.00     0.006 C 
ENDBRANCH   6   7
BRANCH   6   9
ATOM      9  C   UNL     1       2.485 -18.255  20.857  1.00  0.00     0.183 C 
BRANCH   9  10
ATOM     10  O   UNL     1       2.112 -19.247  19.904  1.00  0.00    -0.394 OA
ATOM     11  H   UNL     1       2.920 -19.405  19.364  1.00  0.00     0.210 HD
ENDBRANCH   9  10
ENDBRANCH   6   9
ENDBRANCH   1   6
BRANCH   3  12
ATOM     12  C   UNL     1       6.107 -22.629  21.909  1.00  0.00     0.100 A 
ATOM     13  N   UNL     1       5.373 -23.705  21.847  1.00  0.00    -0.244 NA
ATOM     14  C   UNL     1       7.404 -22.620  22.531  1.00  0.00     0.093 A 
ATOM     15  C   UNL     1       5.843 -24.871  22.431  1.00  0.00     0.092 A 
ATOM     16  C   UNL     1       8.428 -21.713  22.688  1.00  0.00     0.052 A 
ATOM     17  N   UNL     1       7.832 -23.802  23.100  1.00  0.00    -0.237 N 
ATOM     18  C   UNL     1       7.036 -24.930  23.047  1.00  0.00     0.142 A 
ATOM     19  C   UNL     1       9.416 -22.414  23.395  1.00  0.00     0.136 A 
ATOM     20  N   UNL     1       9.059 -23.672  23.659  1.00  0.00    -0.176 NA
BRANCH  15  21
ATOM     21  C   UNL     1       4.944 -25.982  22.329  1.00  0.00     0.040 A 
ATOM     22  C   UNL     1       5.034 -27.239  22.969  1.00  0.00     0.145 A 
ATOM     23  C   UNL     1       3.789 -26.070  21.577  1.00  0.00     0.118 A 
ATOM     24  N   UNL     1       4.023 -28.054  22.649  1.00  0.00    -0.181 NA
ATOM     25  N   UNL     1       3.285 -27.320  21.799  1.00  0.00    -0.275 N 
ATOM     26  C   UNL     1       2.090 -27.889  21.225  1.00  0.00     0.173 C 
ENDBRANCH  15  21
ENDBRANCH   3  12
TORSDOF 6
