MODEL 1
REMARK VINA RESULT:   -11.565      0.000      0.000
REMARK INTER + INTRA:         -13.641
REMARK INTER:                 -13.593
REMARK INTRA:                  -0.047
REMARK UNBOUND:                -0.047
REMARK SMILES Cc1ccccc1NC(=O)Oc1ccc2c(c1)[C@@]1(C)CCO[C@H]1O2
REMARK SMILES IDX 8 1 9 2 10 3 7 5 2 6 3 7 4 8 6 9 5 10 1 11 11 12 12 13 13 14
REMARK SMILES IDX 17 15 14 16 16 17 15 18 18 19 24 20 20 21 23 22 21 23 22 24
REMARK SMILES IDX 19 25
REMARK H PARENT 8 4
ROOT
ATOM      1  N   UNL     1     -14.796 -43.470  27.300  1.00  0.00    -0.291 N 
ATOM      2  C   UNL     1     -13.908 -44.474  27.587  1.00  0.00     0.417 C 
ATOM      3  O   UNL     1     -13.546 -45.384  26.856  1.00  0.00    -0.224 OA
ATOM      4  H   UNL     1     -14.937 -42.834  28.071  1.00  0.00     0.173 HD
ENDROOT
BRANCH   1   5
ATOM      5  C   UNL     1     -15.508 -43.229  26.106  1.00  0.00     0.047 A 
ATOM      6  C   UNL     1     -16.830 -42.739  26.190  1.00  0.00    -0.027 A 
ATOM      7  C   UNL     1     -17.551 -42.494  25.007  1.00  0.00     0.005 A 
ATOM      8  C   UNL     1     -16.979 -42.729  23.759  1.00  0.00     0.000 A 
ATOM      9  C   UNL     1     -14.948 -43.458  24.844  1.00  0.00     0.026 A 
ATOM     10  C   UNL     1     -15.678 -43.210  23.678  1.00  0.00     0.002 A 
ATOM     11  C   UNL     1     -17.507 -42.464  27.507  1.00  0.00     0.046 C 
ENDBRANCH   1   5
BRANCH   2  12
ATOM     12  O   UNL     1     -13.467 -44.288  28.896  1.00  0.00    -0.410 OA
BRANCH  12  13
ATOM     13  C   UNL     1     -12.112 -43.964  29.073  1.00  0.00     0.133 A 
ATOM     14  C   UNL     1     -11.493 -43.235  28.047  1.00  0.00     0.051 A 
ATOM     15  C   UNL     1     -11.443 -44.281  30.257  1.00  0.00     0.055 A 
ATOM     16  C   UNL     1     -10.159 -42.842  28.184  1.00  0.00     0.051 A 
ATOM     17  C   UNL     1     -10.119 -43.889  30.370  1.00  0.00     0.010 A 
ATOM     18  C   UNL     1      -9.497 -43.187  29.347  1.00  0.00     0.127 A 
ATOM     19  C   UNL     1      -9.157 -44.084  31.493  1.00  0.00     0.061 C 
ATOM     20  O   UNL     1      -8.191 -42.871  29.599  1.00  0.00    -0.464 OA
ATOM     21  C   UNL     1      -8.831 -45.537  31.795  1.00  0.00     0.047 C 
ATOM     22  C   UNL     1      -7.866 -43.565  30.825  1.00  0.00     0.317 C 
ATOM     23  C   UNL     1      -7.807 -45.884  30.735  1.00  0.00     0.166 C 
ATOM     24  O   UNL     1      -7.020 -44.702  30.560  1.00  0.00    -0.342 OA
ATOM     25  C   UNL     1      -9.569 -43.286  32.726  1.00  0.00     0.023 C 
ENDBRANCH  12  13
ENDBRANCH   2  12
TORSDOF 3
ENDMDL
MODEL 2
REMARK VINA RESULT:   -11.400      1.386      2.366
REMARK INTER + INTRA:         -13.446
REMARK INTER:                 -13.256
REMARK INTRA:                  -0.190
REMARK UNBOUND:                -0.047
REMARK SMILES Cc1ccccc1NC(=O)Oc1ccc2c(c1)[C@@]1(C)CCO[C@H]1O2
REMARK SMILES IDX 8 1 9 2 10 3 7 5 2 6 3 7 4 8 6 9 5 10 1 11 11 12 12 13 13 14
REMARK SMILES IDX 17 15 14 16 16 17 15 18 18 19 24 20 20 21 23 22 21 23 22 24
REMARK SMILES IDX 19 25
REMARK H PARENT 8 4
ROOT
ATOM      1  N   UNL     1     -14.700 -42.581  26.659  1.00  0.00    -0.291 N 
ATOM      2  C   UNL     1     -13.857 -43.660  26.706  1.00  0.00     0.417 C 
ATOM      3  O   UNL     1     -14.157 -44.839  26.831  1.00  0.00    -0.224 OA
ATOM      4  H   UNL     1     -14.213 -41.703  26.552  1.00  0.00     0.173 HD
ENDROOT
BRANCH   1   5
ATOM      5  C   UNL     1     -16.107 -42.550  26.738  1.00  0.00     0.047 A 
ATOM      6  C   UNL     1     -16.856 -42.562  25.540  1.00  0.00    -0.027 A 
ATOM      7  C   UNL     1     -18.262 -42.532  25.604  1.00  0.00     0.005 A 
ATOM      8  C   UNL     1     -18.920 -42.489  26.831  1.00  0.00     0.000 A 
ATOM      9  C   UNL     1     -16.786 -42.508  27.962  1.00  0.00     0.026 A 
ATOM     10  C   UNL     1     -18.182 -42.477  28.008  1.00  0.00     0.002 A 
ATOM     11  C   UNL     1     -16.207 -42.608  24.182  1.00  0.00     0.046 C 
ENDBRANCH   1   5
BRANCH   2  12
ATOM     12  O   UNL     1     -12.552 -43.185  26.587  1.00  0.00    -0.410 OA
BRANCH  12  13
ATOM     13  C   UNL     1     -11.744 -43.247  27.734  1.00  0.00     0.133 A 
ATOM     14  C   UNL     1     -10.598 -42.437  27.750  1.00  0.00     0.051 A 
ATOM     15  C   UNL     1     -12.116 -44.015  28.839  1.00  0.00     0.055 A 
ATOM     16  C   UNL     1      -9.779 -42.418  28.881  1.00  0.00     0.051 A 
ATOM     17  C   UNL     1     -11.286 -43.989  29.947  1.00  0.00     0.010 A 
ATOM     18  C   UNL     1     -10.140 -43.206  29.958  1.00  0.00     0.127 A 
ATOM     19  C   UNL     1     -11.414 -44.697  31.254  1.00  0.00     0.061 C 
ATOM     20  O   UNL     1      -9.420 -43.283  31.117  1.00  0.00    -0.464 OA
ATOM     21  C   UNL     1     -11.360 -46.212  31.156  1.00  0.00     0.047 C 
ATOM     22  C   UNL     1     -10.051 -44.336  31.882  1.00  0.00     0.317 C 
ATOM     23  C   UNL     1      -9.877 -46.494  31.044  1.00  0.00     0.166 C 
ATOM     24  O   UNL     1      -9.238 -45.526  31.882  1.00  0.00    -0.342 OA
ATOM     25  C   UNL     1     -12.608 -44.183  32.052  1.00  0.00     0.023 C 
ENDBRANCH  12  13
ENDBRANCH   2  12
TORSDOF 3
ENDMDL
MODEL 3
REMARK VINA RESULT:   -11.400      2.908      7.445
REMARK INTER + INTRA:         -13.446
REMARK INTER:                 -13.244
REMARK INTRA:                  -0.202
REMARK UNBOUND:                -0.047
REMARK SMILES Cc1ccccc1NC(=O)Oc1ccc2c(c1)[C@@]1(C)CCO[C@H]1O2
REMARK SMILES IDX 8 1 9 2 10 3 7 5 2 6 3 7 4 8 6 9 5 10 1 11 11 12 12 13 13 14
REMARK SMILES IDX 17 15 14 16 16 17 15 18 18 19 24 20 20 21 23 22 21 23 22 24
REMARK SMILES IDX 19 25
REMARK H PARENT 8 4
ROOT
ATOM      1  N   UNL     1      -9.175 -43.402  31.451  1.00  0.00    -0.291 N 
ATOM      2  C   UNL     1      -7.955 -43.474  30.830  1.00  0.00     0.417 C 
ATOM      3  O   UNL     1      -6.870 -43.125  31.272  1.00  0.00    -0.224 OA
ATOM      4  H   UNL     1      -9.931 -43.752  30.880  1.00  0.00     0.173 HD
ENDROOT
BRANCH   1   5
ATOM      5  C   UNL     1      -9.489 -42.919  32.738  1.00  0.00     0.047 A 
ATOM      6  C   UNL     1     -10.838 -42.633  33.047  1.00  0.00    -0.027 A 
ATOM      7  C   UNL     1     -11.166 -42.151  34.327  1.00  0.00     0.005 A 
ATOM      8  C   UNL     1     -10.179 -41.951  35.289  1.00  0.00     0.000 A 
ATOM      9  C   UNL     1      -8.511 -42.713  33.718  1.00  0.00     0.026 A 
ATOM     10  C   UNL     1      -8.853 -42.233  34.985  1.00  0.00     0.002 A 
ATOM     11  C   UNL     1     -11.952 -42.827  32.052  1.00  0.00     0.046 C 
ENDBRANCH   1   5
BRANCH   2  12
ATOM     12  O   UNL     1      -8.154 -44.026  29.566  1.00  0.00    -0.410 OA
BRANCH  12  13
ATOM     13  C   UNL     1      -9.414 -43.834  28.978  1.00  0.00     0.133 A 
ATOM     14  C   UNL     1      -9.644 -42.600  28.352  1.00  0.00     0.051 A 
ATOM     15  C   UNL     1     -10.359 -44.862  28.945  1.00  0.00     0.055 A 
ATOM     16  C   UNL     1     -10.861 -42.366  27.708  1.00  0.00     0.051 A 
ATOM     17  C   UNL     1     -11.563 -44.606  28.309  1.00  0.00     0.010 A 
ATOM     18  C   UNL     1     -11.802 -43.378  27.708  1.00  0.00     0.127 A 
ATOM     19  C   UNL     1     -12.750 -45.490  28.118  1.00  0.00     0.061 C 
ATOM     20  O   UNL     1     -13.032 -43.271  27.122  1.00  0.00    -0.464 OA
ATOM     21  C   UNL     1     -13.436 -45.909  29.408  1.00  0.00     0.047 C 
ATOM     22  C   UNL     1     -13.738 -44.473  27.509  1.00  0.00     0.317 C 
ATOM     23  C   UNL     1     -14.276 -44.698  29.756  1.00  0.00     0.166 C 
ATOM     24  O   UNL     1     -14.738 -44.180  28.505  1.00  0.00    -0.342 OA
ATOM     25  C   UNL     1     -12.431 -46.660  27.193  1.00  0.00     0.023 C 
ENDBRANCH  12  13
ENDBRANCH   2  12
TORSDOF 3
ENDMDL
MODEL 4
REMARK VINA RESULT:   -11.196      1.740      2.997
REMARK INTER + INTRA:         -13.207
REMARK INTER:                 -13.197
REMARK INTRA:                  -0.010
REMARK UNBOUND:                -0.047
REMARK SMILES Cc1ccccc1NC(=O)Oc1ccc2c(c1)[C@@]1(C)CCO[C@H]1O2
REMARK SMILES IDX 8 1 9 2 10 3 7 5 2 6 3 7 4 8 6 9 5 10 1 11 11 12 12 13 13 14
REMARK SMILES IDX 17 15 14 16 16 17 15 18 18 19 24 20 20 21 23 22 21 23 22 24
REMARK SMILES IDX 19 25
REMARK H PARENT 8 4
ROOT
ATOM      1  N   UNL     1     -15.734 -43.050  26.040  1.00  0.00    -0.291 N 
ATOM      2  C   UNL     1     -14.942 -43.549  27.041  1.00  0.00     0.417 C 
ATOM      3  O   UNL     1     -15.245 -43.737  28.211  1.00  0.00    -0.224 OA
ATOM      4  H   UNL     1     -15.256 -42.984  25.153  1.00  0.00     0.173 HD
ENDROOT
BRANCH   1   5
ATOM      5  C   UNL     1     -17.080 -42.633  26.098  1.00  0.00     0.047 A 
ATOM      6  C   UNL     1     -17.791 -42.459  24.889  1.00  0.00    -0.027 A 
ATOM      7  C   UNL     1     -19.134 -42.044  24.932  1.00  0.00     0.005 A 
ATOM      8  C   UNL     1     -19.769 -41.802  26.147  1.00  0.00     0.000 A 
ATOM      9  C   UNL     1     -17.735 -42.386  27.310  1.00  0.00     0.026 A 
ATOM     10  C   UNL     1     -19.070 -41.973  27.335  1.00  0.00     0.002 A 
ATOM     11  C   UNL     1     -17.163 -42.703  23.542  1.00  0.00     0.046 C 
ENDBRANCH   1   5
BRANCH   2  12
ATOM     12  O   UNL     1     -13.688 -43.818  26.496  1.00  0.00    -0.410 OA
BRANCH  12  13
ATOM     13  C   UNL     1     -12.758 -44.465  27.325  1.00  0.00     0.133 A 
ATOM     14  C   UNL     1     -12.700 -45.864  27.248  1.00  0.00     0.051 A 
ATOM     15  C   UNL     1     -11.873 -43.736  28.123  1.00  0.00     0.055 A 
ATOM     16  C   UNL     1     -11.764 -46.562  28.013  1.00  0.00     0.051 A 
ATOM     17  C   UNL     1     -10.957 -44.448  28.880  1.00  0.00     0.010 A 
ATOM     18  C   UNL     1     -10.913 -45.833  28.823  1.00  0.00     0.127 A 
ATOM     19  C   UNL     1      -9.905 -43.957  29.817  1.00  0.00     0.061 C 
ATOM     20  O   UNL     1      -9.961 -46.397  29.625  1.00  0.00    -0.464 OA
ATOM     21  C   UNL     1     -10.440 -43.212  31.029  1.00  0.00     0.047 C 
ATOM     22  C   UNL     1      -9.435 -45.302  30.410  1.00  0.00     0.317 C 
ATOM     23  C   UNL     1     -10.873 -44.331  31.953  1.00  0.00     0.166 C 
ATOM     24  O   UNL     1      -9.911 -45.374  31.769  1.00  0.00    -0.342 OA
ATOM     25  C   UNL     1      -8.807 -43.201  29.076  1.00  0.00     0.023 C 
ENDBRANCH  12  13
ENDBRANCH   2  12
TORSDOF 3
ENDMDL
MODEL 5
REMARK VINA RESULT:   -11.013      3.264      9.140
REMARK INTER + INTRA:         -12.992
REMARK INTER:                 -12.803
REMARK INTRA:                  -0.189
REMARK UNBOUND:                -0.047
REMARK SMILES Cc1ccccc1NC(=O)Oc1ccc2c(c1)[C@@]1(C)CCO[C@H]1O2
REMARK SMILES IDX 8 1 9 2 10 3 7 5 2 6 3 7 4 8 6 9 5 10 1 11 11 12 12 13 13 14
REMARK SMILES IDX 17 15 14 16 16 17 15 18 18 19 24 20 20 21 23 22 21 23 22 24
REMARK SMILES IDX 19 25
REMARK H PARENT 8 4
ROOT
ATOM      1  N   UNL     1     -13.451 -43.434  27.117  1.00  0.00    -0.291 N 
ATOM      2  C   UNL     1     -14.320 -43.652  26.080  1.00  0.00     0.417 C 
ATOM      3  O   UNL     1     -14.438 -44.664  25.403  1.00  0.00    -0.224 OA
ATOM      4  H   UNL     1     -13.540 -42.513  27.521  1.00  0.00     0.173 HD
ENDROOT
BRANCH   1   5
ATOM      5  C   UNL     1     -12.486 -44.305  27.664  1.00  0.00     0.047 A 
ATOM      6  C   UNL     1     -11.234 -43.776  28.052  1.00  0.00    -0.027 A 
ATOM      7  C   UNL     1     -10.263 -44.633  28.600  1.00  0.00     0.005 A 
ATOM      8  C   UNL     1     -10.519 -45.993  28.762  1.00  0.00     0.000 A 
ATOM      9  C   UNL     1     -12.726 -45.673  27.836  1.00  0.00     0.026 A 
ATOM     10  C   UNL     1     -11.750 -46.511  28.381  1.00  0.00     0.002 A 
ATOM     11  C   UNL     1     -10.894 -42.317  27.903  1.00  0.00     0.046 C 
ENDBRANCH   1   5
BRANCH   2  12
ATOM     12  O   UNL     1     -15.077 -42.494  25.910  1.00  0.00    -0.410 OA
BRANCH  12  13
ATOM     13  C   UNL     1     -16.405 -42.529  26.363  1.00  0.00     0.133 A 
ATOM     14  C   UNL     1     -16.606 -42.527  27.751  1.00  0.00     0.051 A 
ATOM     15  C   UNL     1     -17.475 -42.478  25.466  1.00  0.00     0.055 A 
ATOM     16  C   UNL     1     -17.905 -42.513  28.264  1.00  0.00     0.051 A 
ATOM     17  C   UNL     1     -18.755 -42.474  25.995  1.00  0.00     0.010 A 
ATOM     18  C   UNL     1     -18.957 -42.494  27.368  1.00  0.00     0.127 A 
ATOM     19  C   UNL     1     -20.076 -42.430  25.301  1.00  0.00     0.061 C 
ATOM     20  O   UNL     1     -20.271 -42.489  27.741  1.00  0.00    -0.464 OA
ATOM     21  C   UNL     1     -20.363 -43.635  24.421  1.00  0.00     0.047 C 
ATOM     22  C   UNL     1     -21.013 -42.645  26.509  1.00  0.00     0.317 C 
ATOM     23  C   UNL     1     -20.815 -44.683  25.416  1.00  0.00     0.166 C 
ATOM     24  O   UNL     1     -21.562 -43.974  26.408  1.00  0.00    -0.342 OA
ATOM     25  C   UNL     1     -20.290 -41.096  24.593  1.00  0.00     0.023 C 
ENDBRANCH  12  13
ENDBRANCH   2  12
TORSDOF 3
ENDMDL
MODEL 6
REMARK VINA RESULT:   -10.739      2.078      3.230
REMARK INTER + INTRA:         -12.670
REMARK INTER:                 -12.420
REMARK INTRA:                  -0.250
REMARK UNBOUND:                -0.047
REMARK SMILES Cc1ccccc1NC(=O)Oc1ccc2c(c1)[C@@]1(C)CCO[C@H]1O2
REMARK SMILES IDX 8 1 9 2 10 3 7 5 2 6 3 7 4 8 6 9 5 10 1 11 11 12 12 13 13 14
REMARK SMILES IDX 17 15 14 16 16 17 15 18 18 19 24 20 20 21 23 22 21 23 22 24
REMARK SMILES IDX 19 25
REMARK H PARENT 8 4
ROOT
ATOM      1  N   UNL     1     -15.563 -42.616  26.236  1.00  0.00    -0.291 N 
ATOM      2  C   UNL     1     -14.749 -43.323  25.389  1.00  0.00     0.417 C 
ATOM      3  O   UNL     1     -15.081 -44.019  24.441  1.00  0.00    -0.224 OA
ATOM      4  H   UNL     1     -15.052 -42.115  26.949  1.00  0.00     0.173 HD
ENDROOT
BRANCH   1   5
ATOM      5  C   UNL     1     -16.969 -42.507  26.231  1.00  0.00     0.047 A 
ATOM      6  C   UNL     1     -17.654 -42.485  27.467  1.00  0.00    -0.027 A 
ATOM      7  C   UNL     1     -19.056 -42.377  27.476  1.00  0.00     0.005 A 
ATOM      8  C   UNL     1     -19.775 -42.293  26.286  1.00  0.00     0.000 A 
ATOM      9  C   UNL     1     -17.707 -42.421  25.045  1.00  0.00     0.026 A 
ATOM     10  C   UNL     1     -19.100 -42.315  25.072  1.00  0.00     0.002 A 
ATOM     11  C   UNL     1     -16.937 -42.572  28.788  1.00  0.00     0.046 C 
ENDBRANCH   1   5
BRANCH   2  12
ATOM     12  O   UNL     1     -13.432 -43.117  25.797  1.00  0.00    -0.410 OA
BRANCH  12  13
ATOM     13  C   UNL     1     -12.964 -43.905  26.861  1.00  0.00     0.133 A 
ATOM     14  C   UNL     1     -13.379 -45.244  26.894  1.00  0.00     0.051 A 
ATOM     15  C   UNL     1     -12.057 -43.394  27.792  1.00  0.00     0.055 A 
ATOM     16  C   UNL     1     -12.911 -46.091  27.901  1.00  0.00     0.051 A 
ATOM     17  C   UNL     1     -11.610 -44.247  28.788  1.00  0.00     0.010 A 
ATOM     18  C   UNL     1     -12.037 -45.567  28.835  1.00  0.00     0.127 A 
ATOM     19  C   UNL     1     -10.658 -43.994  29.908  1.00  0.00     0.061 C 
ATOM     20  O   UNL     1     -11.515 -46.287  29.873  1.00  0.00    -0.464 OA
ATOM     21  C   UNL     1     -11.130 -42.952  30.909  1.00  0.00     0.047 C 
ATOM     22  C   UNL     1     -10.808 -45.320  30.684  1.00  0.00     0.317 C 
ATOM     23  C   UNL     1     -12.095 -43.729  31.781  1.00  0.00     0.166 C 
ATOM     24  O   UNL     1     -11.536 -45.041  31.897  1.00  0.00    -0.342 OA
ATOM     25  C   UNL     1      -9.245 -43.744  29.394  1.00  0.00     0.023 C 
ENDBRANCH  12  13
ENDBRANCH   2  12
TORSDOF 3
ENDMDL
MODEL 7
REMARK VINA RESULT:   -10.596      1.876      3.126
REMARK INTER + INTRA:         -12.502
REMARK INTER:                 -12.431
REMARK INTRA:                  -0.071
REMARK UNBOUND:                -0.047
REMARK SMILES Cc1ccccc1NC(=O)Oc1ccc2c(c1)[C@@]1(C)CCO[C@H]1O2
REMARK SMILES IDX 8 1 9 2 10 3 7 5 2 6 3 7 4 8 6 9 5 10 1 11 11 12 12 13 13 14
REMARK SMILES IDX 17 15 14 16 16 17 15 18 18 19 24 20 20 21 23 22 21 23 22 24
REMARK SMILES IDX 19 25
REMARK H PARENT 8 4
ROOT
ATOM      1  N   UNL     1     -14.264 -44.520  28.999  1.00  0.00    -0.291 N 
ATOM      2  C   UNL     1     -14.874 -44.027  30.123  1.00  0.00     0.417 C 
ATOM      3  O   UNL     1     -15.785 -43.215  30.185  1.00  0.00    -0.224 OA
ATOM      4  H   UNL     1     -13.531 -45.183  29.204  1.00  0.00     0.173 HD
ENDROOT
BRANCH   1   5
ATOM      5  C   UNL     1     -14.527 -44.225  27.645  1.00  0.00     0.047 A 
ATOM      6  C   UNL     1     -13.904 -45.005  26.645  1.00  0.00    -0.027 A 
ATOM      7  C   UNL     1     -14.158 -44.721  25.291  1.00  0.00     0.005 A 
ATOM      8  C   UNL     1     -15.012 -43.683  24.926  1.00  0.00     0.000 A 
ATOM      9  C   UNL     1     -15.383 -43.186  27.259  1.00  0.00     0.026 A 
ATOM     10  C   UNL     1     -15.624 -42.917  25.910  1.00  0.00     0.002 A 
ATOM     11  C   UNL     1     -12.971 -46.141  26.973  1.00  0.00     0.046 C 
ENDBRANCH   1   5
BRANCH   2  12
ATOM     12  O   UNL     1     -14.267 -44.620  31.229  1.00  0.00    -0.410 OA
BRANCH  12  13
ATOM     13  C   UNL     1     -12.974 -44.182  31.557  1.00  0.00     0.133 A 
ATOM     14  C   UNL     1     -12.869 -43.174  32.527  1.00  0.00     0.051 A 
ATOM     15  C   UNL     1     -11.844 -44.787  31.002  1.00  0.00     0.055 A 
ATOM     16  C   UNL     1     -11.608 -42.728  32.930  1.00  0.00     0.051 A 
ATOM     17  C   UNL     1     -10.603 -44.325  31.409  1.00  0.00     0.010 A 
ATOM     18  C   UNL     1     -10.497 -43.313  32.353  1.00  0.00     0.127 A 
ATOM     19  C   UNL     1      -9.238 -44.764  30.998  1.00  0.00     0.061 C 
ATOM     20  O   UNL     1      -9.212 -42.960  32.654  1.00  0.00    -0.464 OA
ATOM     21  C   UNL     1      -8.922 -44.540  29.529  1.00  0.00     0.047 C 
ATOM     22  C   UNL     1      -8.392 -43.686  31.708  1.00  0.00     0.317 C 
ATOM     23  C   UNL     1      -8.567 -43.068  29.477  1.00  0.00     0.166 C 
ATOM     24  O   UNL     1      -7.871 -42.799  30.698  1.00  0.00    -0.342 OA
ATOM     25  C   UNL     1      -8.941 -46.182  31.472  1.00  0.00     0.023 C 
ENDBRANCH  12  13
ENDBRANCH   2  12
TORSDOF 3
ENDMDL
MODEL 8
REMARK VINA RESULT:   -10.510      3.292      9.549
REMARK INTER + INTRA:         -12.400
REMARK INTER:                 -12.374
REMARK INTRA:                  -0.026
REMARK UNBOUND:                -0.047
REMARK SMILES Cc1ccccc1NC(=O)Oc1ccc2c(c1)[C@@]1(C)CCO[C@H]1O2
REMARK SMILES IDX 8 1 9 2 10 3 7 5 2 6 3 7 4 8 6 9 5 10 1 11 11 12 12 13 13 14
REMARK SMILES IDX 17 15 14 16 16 17 15 18 18 19 24 20 20 21 23 22 21 23 22 24
REMARK SMILES IDX 19 25
REMARK H PARENT 8 4
ROOT
ATOM      1  N   UNL     1     -13.559 -43.375  27.166  1.00  0.00    -0.291 N 
ATOM      2  C   UNL     1     -14.425 -43.519  26.113  1.00  0.00     0.417 C 
ATOM      3  O   UNL     1     -14.527 -44.472  25.354  1.00  0.00    -0.224 OA
ATOM      4  H   UNL     1     -13.663 -42.493  27.646  1.00  0.00     0.173 HD
ENDROOT
BRANCH   1   5
ATOM      5  C   UNL     1     -12.580 -44.272  27.639  1.00  0.00     0.047 A 
ATOM      6  C   UNL     1     -11.324 -43.761  28.038  1.00  0.00    -0.027 A 
ATOM      7  C   UNL     1     -10.339 -44.646  28.513  1.00  0.00     0.005 A 
ATOM      8  C   UNL     1     -10.585 -46.015  28.593  1.00  0.00     0.000 A 
ATOM      9  C   UNL     1     -12.810 -45.651  27.728  1.00  0.00     0.026 A 
ATOM     10  C   UNL     1     -11.820 -46.516  28.201  1.00  0.00     0.002 A 
ATOM     11  C   UNL     1     -10.994 -42.294  27.976  1.00  0.00     0.046 C 
ENDBRANCH   1   5
BRANCH   2  12
ATOM     12  O   UNL     1     -15.200 -42.363  26.040  1.00  0.00    -0.410 OA
BRANCH  12  13
ATOM     13  C   UNL     1     -16.264 -42.366  25.124  1.00  0.00     0.133 A 
ATOM     14  C   UNL     1     -15.936 -42.241  23.766  1.00  0.00     0.051 A 
ATOM     15  C   UNL     1     -17.579 -42.573  25.546  1.00  0.00     0.055 A 
ATOM     16  C   UNL     1     -16.946 -42.284  22.802  1.00  0.00     0.051 A 
ATOM     17  C   UNL     1     -18.567 -42.604  24.575  1.00  0.00     0.010 A 
ATOM     18  C   UNL     1     -18.247 -42.458  23.232  1.00  0.00     0.127 A 
ATOM     19  C   UNL     1     -20.040 -42.798  24.715  1.00  0.00     0.061 C 
ATOM     20  O   UNL     1     -19.324 -42.507  22.392  1.00  0.00    -0.464 OA
ATOM     21  C   UNL     1     -20.745 -41.708  25.504  1.00  0.00     0.047 C 
ATOM     22  C   UNL     1     -20.480 -42.522  23.262  1.00  0.00     0.317 C 
ATOM     23  C   UNL     1     -20.895 -40.595  24.488  1.00  0.00     0.166 C 
ATOM     24  O   UNL     1     -21.151 -41.247  23.241  1.00  0.00    -0.342 OA
ATOM     25  C   UNL     1     -20.372 -44.207  25.196  1.00  0.00     0.023 C 
ENDBRANCH  12  13
ENDBRANCH   2  12
TORSDOF 3
ENDMDL
MODEL 9
REMARK VINA RESULT:    -9.821      2.115      3.716
REMARK INTER + INTRA:         -11.591
REMARK INTER:                 -11.409
REMARK INTRA:                  -0.182
REMARK UNBOUND:                -0.047
REMARK SMILES Cc1ccccc1NC(=O)Oc1ccc2c(c1)[C@@]1(C)CCO[C@H]1O2
REMARK SMILES IDX 8 1 9 2 10 3 7 5 2 6 3 7 4 8 6 9 5 10 1 11 11 12 12 13 13 14
REMARK SMILES IDX 17 15 14 16 16 17 15 18 18 19 24 20 20 21 23 22 21 23 22 24
REMARK SMILES IDX 19 25
REMARK H PARENT 8 4
ROOT
ATOM      1  N   UNL     1     -15.746 -42.453  25.063  1.00  0.00    -0.291 N 
ATOM      2  C   UNL     1     -14.790 -43.410  24.846  1.00  0.00     0.417 C 
ATOM      3  O   UNL     1     -14.872 -44.402  24.135  1.00  0.00    -0.224 OA
ATOM      4  H   UNL     1     -15.443 -41.727  25.696  1.00  0.00     0.173 HD
ENDROOT
BRANCH   1   5
ATOM      5  C   UNL     1     -17.049 -42.363  24.532  1.00  0.00     0.047 A 
ATOM      6  C   UNL     1     -17.221 -41.814  23.241  1.00  0.00    -0.027 A 
ATOM      7  C   UNL     1     -18.515 -41.719  22.698  1.00  0.00     0.005 A 
ATOM      8  C   UNL     1     -19.625 -42.157  23.417  1.00  0.00     0.000 A 
ATOM      9  C   UNL     1     -18.176 -42.800  25.238  1.00  0.00     0.026 A 
ATOM     10  C   UNL     1     -19.455 -42.697  24.685  1.00  0.00     0.002 A 
ATOM     11  C   UNL     1     -16.063 -41.322  22.413  1.00  0.00     0.046 C 
ENDBRANCH   1   5
BRANCH   2  12
ATOM     12  O   UNL     1     -13.665 -43.064  25.593  1.00  0.00    -0.410 OA
BRANCH  12  13
ATOM     13  C   UNL     1     -13.497 -43.710  26.828  1.00  0.00     0.133 A 
ATOM     14  C   UNL     1     -14.656 -43.975  27.572  1.00  0.00     0.051 A 
ATOM     15  C   UNL     1     -12.238 -44.143  27.250  1.00  0.00     0.055 A 
ATOM     16  C   UNL     1     -14.559 -44.656  28.787  1.00  0.00     0.051 A 
ATOM     17  C   UNL     1     -12.162 -44.810  28.462  1.00  0.00     0.010 A 
ATOM     18  C   UNL     1     -13.305 -45.054  29.210  1.00  0.00     0.127 A 
ATOM     19  C   UNL     1     -10.977 -45.380  29.167  1.00  0.00     0.061 C 
ATOM     20  O   UNL     1     -13.075 -45.719  30.382  1.00  0.00    -0.464 OA
ATOM     21  C   UNL     1      -9.939 -44.351  29.583  1.00  0.00     0.047 C 
ATOM     22  C   UNL     1     -11.635 -45.777  30.505  1.00  0.00     0.317 C 
ATOM     23  C   UNL     1     -10.528 -43.766  30.849  1.00  0.00     0.166 C 
ATOM     24  O   UNL     1     -11.170 -44.858  31.514  1.00  0.00    -0.342 OA
ATOM     25  C   UNL     1     -10.388 -46.561  28.402  1.00  0.00     0.023 C 
ENDBRANCH  12  13
ENDBRANCH   2  12
TORSDOF 3
ENDMDL
