MODEL 1
REMARK VINA RESULT:    -9.223      0.000      0.000
REMARK INTER + INTRA:         -12.425
REMARK INTER:                 -11.380
REMARK INTRA:                  -1.045
REMARK UNBOUND:                -1.045
REMARK SMILES COc1ccc(Cl)cc1-c1nn(C)cc1NC(=O)c1cncc2cn(C)nc12
REMARK SMILES IDX 15 1 14 2 12 3 11 4 10 5 13 6 16 7 17 8 18 9 19 11 25 12
REMARK SMILES IDX 24 13 27 14 23 15 28 16 22 17 21 18 20 19 26 20 9 21 8 22
REMARK SMILES IDX 3 23 6 24 4 25 5 26 7 27 2 28 1 29
REMARK H PARENT 16 10
ROOT
ATOM      1  C   UNL     1       7.393 -23.604  22.969  1.00  0.00     0.088 A 
ATOM      2  C   UNL     1       8.642 -23.579  23.538  1.00  0.00     0.135 A 
ATOM      3  N   UNL     1       9.063 -22.288  23.477  1.00  0.00    -0.273 N 
ATOM      4  N   UNL     1       8.178 -21.455  22.906  1.00  0.00    -0.171 NA
ATOM      5  C   UNL     1       7.131 -22.244  22.599  1.00  0.00     0.120 A 
ATOM      6  C   UNL     1      10.325 -21.769  23.946  1.00  0.00     0.173 C 
ENDROOT
BRANCH   1   7
ATOM      7  N   UNL     1       6.572 -24.701  22.776  1.00  0.00    -0.319 N 
ATOM      8  C   UNL     1       6.717 -25.938  23.367  1.00  0.00     0.259 C 
ATOM      9  O   UNL     1       7.572 -26.262  24.186  1.00  0.00    -0.269 OA
ATOM     10  H   UNL     1       5.783 -24.566  22.138  1.00  0.00     0.170 HD
BRANCH   8  11
ATOM     11  C   UNL     1       5.735 -26.952  22.964  1.00  0.00     0.086 A 
ATOM     12  N   UNL     1       2.800 -25.892  21.314  1.00  0.00    -0.275 N 
ATOM     13  C   UNL     1       2.555 -27.235  21.323  1.00  0.00     0.118 A 
ATOM     14  N   UNL     1       3.968 -25.534  21.890  1.00  0.00    -0.172 NA
ATOM     15  C   UNL     1       3.644 -27.775  21.949  1.00  0.00     0.039 A 
ATOM     16  C   UNL     1       4.525 -26.693  22.301  1.00  0.00     0.108 A 
ATOM     17  C   UNL     1       3.880 -29.119  22.207  1.00  0.00     0.123 A 
ATOM     18  N   UNL     1       5.064 -29.371  22.851  1.00  0.00    -0.263 NA
ATOM     19  C   UNL     1       5.919 -28.326  23.193  1.00  0.00     0.127 A 
ATOM     20  C   UNL     1       1.943 -24.865  20.770  1.00  0.00     0.173 C 
ENDBRANCH   8  11
ENDBRANCH   1   7
BRANCH   5  21
ATOM     21  C   UNL     1       5.948 -21.677  21.953  1.00  0.00     0.048 A 
ATOM     22  C   UNL     1       5.211 -20.696  22.634  1.00  0.00     0.035 A 
ATOM     23  C   UNL     1       5.511 -22.081  20.680  1.00  0.00     0.128 A 
ATOM     24  C   UNL     1       4.091 -20.115  22.040  1.00  0.00     0.041 A 
ATOM     25  C   UNL     1       4.400 -21.481  20.080  1.00  0.00     0.048 A 
ATOM     26  C   UNL     1       3.685 -20.499  20.764  1.00  0.00     0.024 A 
ATOM     27  Cl  UNL     1       3.206 -18.904  22.884  1.00  0.00    -0.084 Cl
BRANCH  23  28
ATOM     28  O   UNL     1       6.173 -23.032  19.945  1.00  0.00    -0.496 OA
ATOM     29  C   UNL     1       5.277 -23.667  19.031  1.00  0.00     0.278 C 
ENDBRANCH  23  28
ENDBRANCH   5  21
TORSDOF 4
ENDMDL
MODEL 2
REMARK VINA RESULT:    -9.141      1.074      1.209
REMARK INTER + INTRA:         -12.323
REMARK INTER:                 -10.973
REMARK INTRA:                  -1.350
REMARK UNBOUND:                -1.045
REMARK SMILES COc1ccc(Cl)cc1-c1nn(C)cc1NC(=O)c1cncc2cn(C)nc12
REMARK SMILES IDX 15 1 14 2 12 3 11 4 10 5 13 6 16 7 17 8 18 9 19 11 25 12
REMARK SMILES IDX 24 13 27 14 23 15 28 16 22 17 21 18 20 19 26 20 9 21 8 22
REMARK SMILES IDX 3 23 6 24 4 25 5 26 7 27 2 28 1 29
REMARK H PARENT 16 10
ROOT
ATOM      1  C   UNL     1       7.897 -22.599  23.017  1.00  0.00     0.088 A 
ATOM      2  C   UNL     1       9.176 -22.276  23.402  1.00  0.00     0.135 A 
ATOM      3  N   UNL     1       9.376 -20.988  23.017  1.00  0.00    -0.273 N 
ATOM      4  N   UNL     1       8.318 -20.434  22.402  1.00  0.00    -0.171 NA
ATOM      5  C   UNL     1       7.387 -21.407  22.405  1.00  0.00     0.120 A 
ATOM      6  C   UNL     1      10.577 -20.210  23.199  1.00  0.00     0.173 C 
ENDROOT
BRANCH   1   7
ATOM      7  N   UNL     1       7.248 -23.811  23.166  1.00  0.00    -0.319 N 
ATOM      8  C   UNL     1       7.715 -25.039  22.747  1.00  0.00     0.259 C 
ATOM      9  O   UNL     1       8.794 -25.266  22.208  1.00  0.00    -0.269 OA
ATOM     10  H   UNL     1       6.341 -23.780  23.639  1.00  0.00     0.170 HD
BRANCH   8  11
ATOM     11  C   UNL     1       6.815 -26.174  22.986  1.00  0.00     0.086 A 
ATOM     12  N   UNL     1       3.522 -26.005  21.726  1.00  0.00    -0.275 N 
ATOM     13  C   UNL     1       3.457 -27.241  22.304  1.00  0.00     0.118 A 
ATOM     14  N   UNL     1       4.718 -25.393  21.854  1.00  0.00    -0.172 NA
ATOM     15  C   UNL     1       4.699 -27.431  22.840  1.00  0.00     0.039 A 
ATOM     16  C   UNL     1       5.483 -26.260  22.551  1.00  0.00     0.108 A 
ATOM     17  C   UNL     1       5.148 -28.545  23.539  1.00  0.00     0.123 A 
ATOM     18  N   UNL     1       6.449 -28.461  23.961  1.00  0.00    -0.263 NA
ATOM     19  C   UNL     1       7.211 -27.328  23.681  1.00  0.00     0.127 A 
ATOM     20  C   UNL     1       2.457 -25.326  21.025  1.00  0.00     0.173 C 
ENDBRANCH   8  11
ENDBRANCH   1   7
BRANCH   5  21
ATOM     21  C   UNL     1       6.072 -21.166  21.812  1.00  0.00     0.048 A 
ATOM     22  C   UNL     1       5.253 -20.169  22.365  1.00  0.00     0.035 A 
ATOM     23  C   UNL     1       5.588 -21.900  20.716  1.00  0.00     0.128 A 
ATOM     24  C   UNL     1       4.003 -19.896  21.812  1.00  0.00     0.041 A 
ATOM     25  C   UNL     1       4.342 -21.608  20.152  1.00  0.00     0.048 A 
ATOM     26  C   UNL     1       3.546 -20.607  20.704  1.00  0.00     0.024 A 
ATOM     27  Cl  UNL     1       3.017 -18.661  22.494  1.00  0.00    -0.084 Cl
BRANCH  23  28
ATOM     28  O   UNL     1       6.322 -22.890  20.114  1.00  0.00    -0.496 OA
ATOM     29  C   UNL     1       5.577 -23.486  19.051  1.00  0.00     0.278 C 
ENDBRANCH  23  28
ENDBRANCH   5  21
TORSDOF 4
ENDMDL
MODEL 3
REMARK VINA RESULT:    -8.615      1.997      2.542
REMARK INTER + INTRA:         -11.675
REMARK INTER:                 -10.548
REMARK INTRA:                  -1.127
REMARK UNBOUND:                -1.045
REMARK SMILES COc1ccc(Cl)cc1-c1nn(C)cc1NC(=O)c1cncc2cn(C)nc12
REMARK SMILES IDX 15 1 14 2 12 3 11 4 10 5 13 6 16 7 17 8 18 9 19 11 25 12
REMARK SMILES IDX 24 13 27 14 23 15 28 16 22 17 21 18 20 19 26 20 9 21 8 22
REMARK SMILES IDX 3 23 6 24 4 25 5 26 7 27 2 28 1 29
REMARK H PARENT 16 10
ROOT
ATOM      1  C   UNL     1       8.175 -22.648  23.218  1.00  0.00     0.088 A 
ATOM      2  C   UNL     1       9.337 -22.260  23.840  1.00  0.00     0.135 A 
ATOM      3  N   UNL     1       9.627 -21.021  23.366  1.00  0.00    -0.273 N 
ATOM      4  N   UNL     1       8.738 -20.559  22.471  1.00  0.00    -0.171 NA
ATOM      5  C   UNL     1       7.823 -21.541  22.377  1.00  0.00     0.120 A 
ATOM      6  C   UNL     1      10.763 -20.206  23.722  1.00  0.00     0.173 C 
ENDROOT
BRANCH   1   7
ATOM      7  N   UNL     1       7.499 -23.847  23.355  1.00  0.00    -0.319 N 
ATOM      8  C   UNL     1       7.914 -25.072  22.876  1.00  0.00     0.259 C 
ATOM      9  O   UNL     1       8.963 -25.308  22.283  1.00  0.00    -0.269 OA
ATOM     10  H   UNL     1       6.615 -23.809  23.868  1.00  0.00     0.170 HD
BRANCH   8  11
ATOM     11  C   UNL     1       6.995 -26.191  23.116  1.00  0.00     0.086 A 
ATOM     12  N   UNL     1       3.743 -26.018  21.755  1.00  0.00    -0.275 N 
ATOM     13  C   UNL     1       3.646 -27.238  22.362  1.00  0.00     0.118 A 
ATOM     14  N   UNL     1       4.941 -25.416  21.904  1.00  0.00    -0.172 NA
ATOM     15  C   UNL     1       4.870 -27.429  22.939  1.00  0.00     0.039 A 
ATOM     16  C   UNL     1       5.675 -26.273  22.644  1.00  0.00     0.108 A 
ATOM     17  C   UNL     1       5.284 -28.529  23.679  1.00  0.00     0.123 A 
ATOM     18  N   UNL     1       6.574 -28.448  24.136  1.00  0.00    -0.263 NA
ATOM     19  C   UNL     1       7.357 -27.331  23.852  1.00  0.00     0.127 A 
ATOM     20  C   UNL     1       2.707 -25.345  21.007  1.00  0.00     0.173 C 
ENDBRANCH   8  11
ENDBRANCH   1   7
BRANCH   5  21
ATOM     21  C   UNL     1       6.676 -21.393  21.482  1.00  0.00     0.048 A 
ATOM     22  C   UNL     1       6.456 -22.369  20.497  1.00  0.00     0.035 A 
ATOM     23  C   UNL     1       5.786 -20.308  21.561  1.00  0.00     0.128 A 
ATOM     24  C   UNL     1       5.360 -22.275  19.642  1.00  0.00     0.041 A 
ATOM     25  C   UNL     1       4.676 -20.229  20.714  1.00  0.00     0.048 A 
ATOM     26  C   UNL     1       4.465 -21.212  19.749  1.00  0.00     0.024 A 
ATOM     27  Cl  UNL     1       5.099 -23.486  18.447  1.00  0.00    -0.084 Cl
BRANCH  23  28
ATOM     28  O   UNL     1       5.925 -19.313  22.494  1.00  0.00    -0.496 OA
ATOM     29  C   UNL     1       6.304 -18.088  21.863  1.00  0.00     0.278 C 
ENDBRANCH  23  28
ENDBRANCH   5  21
TORSDOF 4
ENDMDL
MODEL 4
REMARK VINA RESULT:    -8.597      2.492      6.103
REMARK INTER + INTRA:         -11.652
REMARK INTER:                 -11.371
REMARK INTRA:                  -0.282
REMARK UNBOUND:                -1.045
REMARK SMILES COc1ccc(Cl)cc1-c1nn(C)cc1NC(=O)c1cncc2cn(C)nc12
REMARK SMILES IDX 15 1 14 2 12 3 11 4 10 5 13 6 16 7 17 8 18 9 19 11 25 12
REMARK SMILES IDX 24 13 27 14 23 15 28 16 22 17 21 18 20 19 26 20 9 21 8 22
REMARK SMILES IDX 3 23 6 24 4 25 5 26 7 27 2 28 1 29
REMARK H PARENT 16 10
ROOT
ATOM      1  C   UNL     1       7.843 -25.345  23.720  1.00  0.00     0.088 A 
ATOM      2  C   UNL     1       8.719 -26.020  24.534  1.00  0.00     0.135 A 
ATOM      3  N   UNL     1       8.147 -27.226  24.793  1.00  0.00    -0.273 N 
ATOM      4  N   UNL     1       6.951 -27.396  24.206  1.00  0.00    -0.171 NA
ATOM      5  C   UNL     1       6.751 -26.252  23.525  1.00  0.00     0.120 A 
ATOM      6  C   UNL     1       8.691 -28.280  25.613  1.00  0.00     0.173 C 
ENDROOT
BRANCH   1   7
ATOM      7  N   UNL     1       7.973 -24.064  23.214  1.00  0.00    -0.319 N 
ATOM      8  C   UNL     1       8.509 -23.725  21.989  1.00  0.00     0.259 C 
ATOM      9  O   UNL     1       8.924 -24.500  21.133  1.00  0.00    -0.269 OA
ATOM     10  H   UNL     1       7.629 -23.307  23.811  1.00  0.00     0.170 HD
BRANCH   8  11
ATOM     11  C   UNL     1       8.573 -22.287  21.702  1.00  0.00     0.086 A 
ATOM     12  N   UNL     1       5.776 -20.285  22.494  1.00  0.00    -0.275 N 
ATOM     13  C   UNL     1       6.589 -19.310  21.990  1.00  0.00     0.118 A 
ATOM     14  N   UNL     1       6.319 -21.521  22.490  1.00  0.00    -0.172 NA
ATOM     15  C   UNL     1       7.733 -19.970  21.638  1.00  0.00     0.039 A 
ATOM     16  C   UNL     1       7.550 -21.361  21.958  1.00  0.00     0.108 A 
ATOM     17  C   UNL     1       8.877 -19.420  21.076  1.00  0.00     0.123 A 
ATOM     18  N   UNL     1       9.877 -20.324  20.829  1.00  0.00    -0.263 NA
ATOM     19  C   UNL     1       9.703 -21.672  21.139  1.00  0.00     0.127 A 
ATOM     20  C   UNL     1       4.435 -20.110  23.001  1.00  0.00     0.173 C 
ENDBRANCH   8  11
ENDBRANCH   1   7
BRANCH   5  21
ATOM     21  C   UNL     1       5.529 -26.067  22.742  1.00  0.00     0.048 A 
ATOM     22  C   UNL     1       5.352 -24.865  22.040  1.00  0.00     0.035 A 
ATOM     23  C   UNL     1       4.519 -27.041  22.671  1.00  0.00     0.128 A 
ATOM     24  C   UNL     1       4.211 -24.662  21.264  1.00  0.00     0.041 A 
ATOM     25  C   UNL     1       3.386 -26.842  21.876  1.00  0.00     0.048 A 
ATOM     26  C   UNL     1       3.230 -25.648  21.174  1.00  0.00     0.024 A 
ATOM     27  Cl  UNL     1       4.015 -23.187  20.400  1.00  0.00    -0.084 Cl
BRANCH  23  28
ATOM     28  O   UNL     1       4.612 -28.244  23.324  1.00  0.00    -0.496 OA
ATOM     29  C   UNL     1       4.359 -29.322  22.420  1.00  0.00     0.278 C 
ENDBRANCH  23  28
ENDBRANCH   5  21
TORSDOF 4
ENDMDL
MODEL 5
REMARK VINA RESULT:    -8.490      2.496      3.951
REMARK INTER + INTRA:         -11.520
REMARK INTER:                 -10.214
REMARK INTRA:                  -1.306
REMARK UNBOUND:                -1.045
REMARK SMILES COc1ccc(Cl)cc1-c1nn(C)cc1NC(=O)c1cncc2cn(C)nc12
REMARK SMILES IDX 15 1 14 2 12 3 11 4 10 5 13 6 16 7 17 8 18 9 19 11 25 12
REMARK SMILES IDX 24 13 27 14 23 15 28 16 22 17 21 18 20 19 26 20 9 21 8 22
REMARK SMILES IDX 3 23 6 24 4 25 5 26 7 27 2 28 1 29
REMARK H PARENT 16 10
ROOT
ATOM      1  C   UNL     1       6.787 -21.401  21.045  1.00  0.00     0.088 A 
ATOM      2  C   UNL     1       8.154 -21.366  21.181  1.00  0.00     0.135 A 
ATOM      3  N   UNL     1       8.541 -20.116  20.815  1.00  0.00    -0.273 N 
ATOM      4  N   UNL     1       7.525 -19.319  20.445  1.00  0.00    -0.171 NA
ATOM      5  C   UNL     1       6.431 -20.088  20.595  1.00  0.00     0.120 A 
ATOM      6  C   UNL     1       9.890 -19.605  20.786  1.00  0.00     0.173 C 
ENDROOT
BRANCH   1   7
ATOM      7  N   UNL     1       5.941 -22.471  21.272  1.00  0.00    -0.319 N 
ATOM      8  C   UNL     1       5.337 -23.248  20.306  1.00  0.00     0.259 C 
ATOM      9  O   UNL     1       5.478 -23.145  19.091  1.00  0.00    -0.269 OA
ATOM     10  H   UNL     1       5.759 -22.701  22.253  1.00  0.00     0.170 HD
BRANCH   8  11
ATOM     11  C   UNL     1       4.446 -24.302  20.806  1.00  0.00     0.086 A 
ATOM     12  N   UNL     1       5.786 -26.763  22.951  1.00  0.00    -0.275 N 
ATOM     13  C   UNL     1       4.496 -27.208  22.911  1.00  0.00     0.118 A 
ATOM     14  N   UNL     1       6.016 -25.653  22.218  1.00  0.00    -0.172 NA
ATOM     15  C   UNL     1       3.855 -26.319  22.094  1.00  0.00     0.039 A 
ATOM     16  C   UNL     1       4.824 -25.346  21.664  1.00  0.00     0.108 A 
ATOM     17  C   UNL     1       2.514 -26.332  21.732  1.00  0.00     0.123 A 
ATOM     18  N   UNL     1       2.145 -25.309  20.896  1.00  0.00    -0.263 NA
ATOM     19  C   UNL     1       3.081 -24.365  20.479  1.00  0.00     0.127 A 
ATOM     20  C   UNL     1       6.881 -27.364  23.677  1.00  0.00     0.173 C 
ENDBRANCH   8  11
ENDBRANCH   1   7
BRANCH   5  21
ATOM     21  C   UNL     1       5.106 -19.549  20.285  1.00  0.00     0.048 A 
ATOM     22  C   UNL     1       4.906 -18.918  19.047  1.00  0.00     0.035 A 
ATOM     23  C   UNL     1       4.026 -19.629  21.180  1.00  0.00     0.128 A 
ATOM     24  C   UNL     1       3.652 -18.414  18.707  1.00  0.00     0.041 A 
ATOM     25  C   UNL     1       2.765 -19.140  20.826  1.00  0.00     0.048 A 
ATOM     26  C   UNL     1       2.578 -18.526  19.588  1.00  0.00     0.024 A 
ATOM     27  Cl  UNL     1       3.420 -17.653  17.180  1.00  0.00    -0.084 Cl
BRANCH  23  28
ATOM     28  O   UNL     1       4.134 -20.230  22.408  1.00  0.00    -0.496 OA
ATOM     29  C   UNL     1       3.459 -19.456  23.402  1.00  0.00     0.278 C 
ENDBRANCH  23  28
ENDBRANCH   5  21
TORSDOF 4
ENDMDL
MODEL 6
REMARK VINA RESULT:    -8.287      2.357      3.953
REMARK INTER + INTRA:         -11.270
REMARK INTER:                 -10.044
REMARK INTRA:                  -1.225
REMARK UNBOUND:                -1.045
REMARK SMILES COc1ccc(Cl)cc1-c1nn(C)cc1NC(=O)c1cncc2cn(C)nc12
REMARK SMILES IDX 15 1 14 2 12 3 11 4 10 5 13 6 16 7 17 8 18 9 19 11 25 12
REMARK SMILES IDX 24 13 27 14 23 15 28 16 22 17 21 18 20 19 26 20 9 21 8 22
REMARK SMILES IDX 3 23 6 24 4 25 5 26 7 27 2 28 1 29
REMARK H PARENT 16 10
ROOT
ATOM      1  C   UNL     1       5.142 -22.018  21.109  1.00  0.00     0.088 A 
ATOM      2  C   UNL     1       4.032 -21.507  20.483  1.00  0.00     0.135 A 
ATOM      3  N   UNL     1       4.289 -20.191  20.265  1.00  0.00    -0.273 N 
ATOM      4  N   UNL     1       5.495 -19.793  20.704  1.00  0.00    -0.171 NA
ATOM      5  C   UNL     1       6.045 -20.910  21.214  1.00  0.00     0.120 A 
ATOM      6  C   UNL     1       3.411 -19.232  19.639  1.00  0.00     0.173 C 
ENDROOT
BRANCH   1   7
ATOM      7  N   UNL     1       5.342 -23.311  21.558  1.00  0.00    -0.319 N 
ATOM      8  C   UNL     1       5.555 -23.693  22.865  1.00  0.00     0.259 C 
ATOM      9  O   UNL     1       5.568 -22.959  23.849  1.00  0.00    -0.269 OA
ATOM     10  H   UNL     1       5.319 -24.044  20.843  1.00  0.00     0.170 HD
BRANCH   8  11
ATOM     11  C   UNL     1       5.783 -25.128  23.077  1.00  0.00     0.086 A 
ATOM     12  N   UNL     1       3.402 -27.413  21.825  1.00  0.00    -0.275 N 
ATOM     13  C   UNL     1       4.276 -28.308  22.373  1.00  0.00     0.118 A 
ATOM     14  N   UNL     1       3.766 -26.121  21.967  1.00  0.00    -0.172 NA
ATOM     15  C   UNL     1       5.269 -27.533  22.903  1.00  0.00     0.039 A 
ATOM     16  C   UNL     1       4.934 -26.158  22.642  1.00  0.00     0.108 A 
ATOM     17  C   UNL     1       6.403 -27.969  23.575  1.00  0.00     0.123 A 
ATOM     18  N   UNL     1       7.232 -26.963  23.997  1.00  0.00    -0.263 NA
ATOM     19  C   UNL     1       6.912 -25.630  23.744  1.00  0.00     0.127 A 
ATOM     20  C   UNL     1       2.168 -27.724  21.142  1.00  0.00     0.173 C 
ENDBRANCH   8  11
ENDBRANCH   1   7
BRANCH   5  21
ATOM     21  C   UNL     1       7.388 -20.868  21.794  1.00  0.00     0.048 A 
ATOM     22  C   UNL     1       7.705 -19.835  22.690  1.00  0.00     0.035 A 
ATOM     23  C   UNL     1       8.378 -21.816  21.485  1.00  0.00     0.128 A 
ATOM     24  C   UNL     1       8.966 -19.777  23.281  1.00  0.00     0.041 A 
ATOM     25  C   UNL     1       9.635 -21.765  22.096  1.00  0.00     0.048 A 
ATOM     26  C   UNL     1       9.931 -20.740  22.993  1.00  0.00     0.024 A 
ATOM     27  Cl  UNL     1       9.335 -18.511  24.387  1.00  0.00    -0.084 Cl
BRANCH  23  28
ATOM     28  O   UNL     1       8.152 -22.858  20.622  1.00  0.00    -0.496 OA
ATOM     29  C   UNL     1       8.744 -24.058  21.125  1.00  0.00     0.278 C 
ENDBRANCH  23  28
ENDBRANCH   5  21
TORSDOF 4
ENDMDL
MODEL 7
REMARK VINA RESULT:    -8.026      3.795      6.464
REMARK INTER + INTRA:         -10.949
REMARK INTER:                  -9.785
REMARK INTRA:                  -1.164
REMARK UNBOUND:                -1.045
REMARK SMILES COc1ccc(Cl)cc1-c1nn(C)cc1NC(=O)c1cncc2cn(C)nc12
REMARK SMILES IDX 15 1 14 2 12 3 11 4 10 5 13 6 16 7 17 8 18 9 19 11 25 12
REMARK SMILES IDX 24 13 27 14 23 15 28 16 22 17 21 18 20 19 26 20 9 21 8 22
REMARK SMILES IDX 3 23 6 24 4 25 5 26 7 27 2 28 1 29
REMARK H PARENT 16 10
ROOT
ATOM      1  C   UNL     1       7.863 -20.917  20.936  1.00  0.00     0.088 A 
ATOM      2  C   UNL     1       8.980 -20.209  20.564  1.00  0.00     0.135 A 
ATOM      3  N   UNL     1      10.029 -21.064  20.683  1.00  0.00    -0.273 N 
ATOM      4  N   UNL     1       9.686 -22.291  21.108  1.00  0.00    -0.171 NA
ATOM      5  C   UNL     1       8.349 -22.227  21.255  1.00  0.00     0.120 A 
ATOM      6  C   UNL     1      11.416 -20.771  20.411  1.00  0.00     0.173 C 
ENDROOT
BRANCH   1   7
ATOM      7  N   UNL     1       6.557 -20.464  21.006  1.00  0.00    -0.319 N 
ATOM      8  C   UNL     1       6.026 -19.672  22.002  1.00  0.00     0.259 C 
ATOM      9  O   UNL     1       6.626 -19.209  22.967  1.00  0.00    -0.269 OA
ATOM     10  H   UNL     1       5.942 -20.745  20.238  1.00  0.00     0.170 HD
BRANCH   8  11
ATOM     11  C   UNL     1       4.597 -19.362  21.869  1.00  0.00     0.086 A 
ATOM     12  N   UNL     1       3.418 -18.154  18.769  1.00  0.00    -0.275 N 
ATOM     13  C   UNL     1       2.235 -18.156  19.450  1.00  0.00     0.118 A 
ATOM     14  N   UNL     1       4.478 -18.579  19.490  1.00  0.00    -0.172 NA
ATOM     15  C   UNL     1       2.561 -18.616  20.695  1.00  0.00     0.039 A 
ATOM     16  C   UNL     1       3.976 -18.877  20.707  1.00  0.00     0.108 A 
ATOM     17  C   UNL     1       1.701 -18.805  21.769  1.00  0.00     0.123 A 
ATOM     18  N   UNL     1       2.308 -19.282  22.902  1.00  0.00    -0.263 NA
ATOM     19  C   UNL     1       3.678 -19.537  22.916  1.00  0.00     0.127 A 
ATOM     20  C   UNL     1       3.621 -17.742  17.399  1.00  0.00     0.173 C 
ENDBRANCH   8  11
ENDBRANCH   1   7
BRANCH   5  21
ATOM     21  C   UNL     1       7.603 -23.401  21.710  1.00  0.00     0.048 A 
ATOM     22  C   UNL     1       8.142 -24.186  22.741  1.00  0.00     0.035 A 
ATOM     23  C   UNL     1       6.372 -23.781  21.150  1.00  0.00     0.128 A 
ATOM     24  C   UNL     1       7.448 -25.297  23.217  1.00  0.00     0.041 A 
ATOM     25  C   UNL     1       5.670 -24.885  21.645  1.00  0.00     0.048 A 
ATOM     26  C   UNL     1       6.212 -25.648  22.678  1.00  0.00     0.024 A 
ATOM     27  Cl  UNL     1       8.117 -26.243  24.491  1.00  0.00    -0.084 Cl
BRANCH  23  28
ATOM     28  O   UNL     1       5.774 -23.069  20.141  1.00  0.00    -0.496 OA
ATOM     29  C   UNL     1       5.588 -23.897  18.991  1.00  0.00     0.278 C 
ENDBRANCH  23  28
ENDBRANCH   5  21
TORSDOF 4
ENDMDL
MODEL 8
REMARK VINA RESULT:    -7.984      3.131      6.979
REMARK INTER + INTRA:         -10.897
REMARK INTER:                  -9.847
REMARK INTRA:                  -1.049
REMARK UNBOUND:                -1.045
REMARK SMILES COc1ccc(Cl)cc1-c1nn(C)cc1NC(=O)c1cncc2cn(C)nc12
REMARK SMILES IDX 15 1 14 2 12 3 11 4 10 5 13 6 16 7 17 8 18 9 19 11 25 12
REMARK SMILES IDX 24 13 27 14 23 15 28 16 22 17 21 18 20 19 26 20 9 21 8 22
REMARK SMILES IDX 3 23 6 24 4 25 5 26 7 27 2 28 1 29
REMARK H PARENT 16 10
ROOT
ATOM      1  C   UNL     1       4.828 -24.084  21.564  1.00  0.00     0.088 A 
ATOM      2  C   UNL     1       3.634 -24.633  21.165  1.00  0.00     0.135 A 
ATOM      3  N   UNL     1       3.723 -25.965  21.420  1.00  0.00    -0.273 N 
ATOM      4  N   UNL     1       4.894 -26.337  21.961  1.00  0.00    -0.171 NA
ATOM      5  C   UNL     1       5.586 -25.189  22.074  1.00  0.00     0.120 A 
ATOM      6  C   UNL     1       2.713 -26.962  21.161  1.00  0.00     0.173 C 
ENDROOT
BRANCH   1   7
ATOM      7  N   UNL     1       5.223 -22.761  21.477  1.00  0.00    -0.319 N 
ATOM      8  C   UNL     1       5.513 -21.929  22.538  1.00  0.00     0.259 C 
ATOM      9  O   UNL     1       5.504 -22.230  23.728  1.00  0.00    -0.269 OA
ATOM     10  H   UNL     1       5.312 -22.379  20.532  1.00  0.00     0.170 HD
BRANCH   8  11
ATOM     11  C   UNL     1       5.870 -20.550  22.182  1.00  0.00     0.086 A 
ATOM     12  N   UNL     1       3.588 -18.663  20.260  1.00  0.00    -0.275 N 
ATOM     13  C   UNL     1       4.564 -17.719  20.405  1.00  0.00     0.118 A 
ATOM     14  N   UNL     1       3.861 -19.842  20.860  1.00  0.00    -0.172 NA
ATOM     15  C   UNL     1       5.529 -18.338  21.149  1.00  0.00     0.039 A 
ATOM     16  C   UNL     1       5.074 -19.674  21.428  1.00  0.00     0.108 A 
ATOM     17  C   UNL     1       6.735 -17.796  21.573  1.00  0.00     0.123 A 
ATOM     18  N   UNL     1       7.511 -18.652  22.312  1.00  0.00    -0.263 NA
ATOM     19  C   UNL     1       7.072 -19.946  22.585  1.00  0.00     0.127 A 
ATOM     20  C   UNL     1       2.345 -18.512  19.541  1.00  0.00     0.173 C 
ENDBRANCH   8  11
ENDBRANCH   1   7
BRANCH   5  21
ATOM     21  C   UNL     1       6.936 -25.196  22.638  1.00  0.00     0.048 A 
ATOM     22  C   UNL     1       7.187 -25.972  23.781  1.00  0.00     0.035 A 
ATOM     23  C   UNL     1       7.992 -24.450  22.088  1.00  0.00     0.128 A 
ATOM     24  C   UNL     1       8.466 -26.023  24.332  1.00  0.00     0.041 A 
ATOM     25  C   UNL     1       9.278 -24.521  22.633  1.00  0.00     0.048 A 
ATOM     26  C   UNL     1       9.515 -25.305  23.761  1.00  0.00     0.024 A 
ATOM     27  Cl  UNL     1       8.759 -26.989  25.727  1.00  0.00    -0.084 Cl
BRANCH  23  28
ATOM     28  O   UNL     1       7.835 -23.668  20.973  1.00  0.00    -0.496 OA
ATOM     29  C   UNL     1       8.820 -22.632  20.948  1.00  0.00     0.278 C 
ENDBRANCH  23  28
ENDBRANCH   5  21
TORSDOF 4
ENDMDL
MODEL 9
REMARK VINA RESULT:    -7.978      2.595      6.246
REMARK INTER + INTRA:         -10.889
REMARK INTER:                 -10.815
REMARK INTRA:                  -0.074
REMARK UNBOUND:                -1.045
REMARK SMILES COc1ccc(Cl)cc1-c1nn(C)cc1NC(=O)c1cncc2cn(C)nc12
REMARK SMILES IDX 15 1 14 2 12 3 11 4 10 5 13 6 16 7 17 8 18 9 19 11 25 12
REMARK SMILES IDX 24 13 27 14 23 15 28 16 22 17 21 18 20 19 26 20 9 21 8 22
REMARK SMILES IDX 3 23 6 24 4 25 5 26 7 27 2 28 1 29
REMARK H PARENT 16 10
ROOT
ATOM      1  C   UNL     1       7.938 -23.392  22.885  1.00  0.00     0.088 A 
ATOM      2  C   UNL     1       9.132 -23.526  23.549  1.00  0.00     0.135 A 
ATOM      3  N   UNL     1       9.153 -24.791  24.045  1.00  0.00    -0.273 N 
ATOM      4  N   UNL     1       8.054 -25.506  23.756  1.00  0.00    -0.171 NA
ATOM      5  C   UNL     1       7.296 -24.667  23.025  1.00  0.00     0.120 A 
ATOM      6  C   UNL     1      10.206 -25.394  24.826  1.00  0.00     0.173 C 
ENDROOT
BRANCH   1   7
ATOM      7  N   UNL     1       7.448 -22.271  22.238  1.00  0.00    -0.319 N 
ATOM      8  C   UNL     1       8.054 -21.609  21.191  1.00  0.00     0.259 C 
ATOM      9  O   UNL     1       9.103 -21.922  20.636  1.00  0.00    -0.269 OA
ATOM     10  H   UNL     1       6.550 -21.915  22.574  1.00  0.00     0.170 HD
BRANCH   8  11
ATOM     11  C   UNL     1       7.350 -20.416  20.705  1.00  0.00     0.086 A 
ATOM     12  N   UNL     1       4.425 -19.384  22.388  1.00  0.00    -0.275 N 
ATOM     13  C   UNL     1       4.470 -18.404  21.437  1.00  0.00     0.118 A 
ATOM     14  N   UNL     1       5.432 -20.280  22.314  1.00  0.00    -0.172 NA
ATOM     15  C   UNL     1       5.584 -18.696  20.702  1.00  0.00     0.039 A 
ATOM     16  C   UNL     1       6.180 -19.879  21.264  1.00  0.00     0.108 A 
ATOM     17  C   UNL     1       6.073 -17.992  19.609  1.00  0.00     0.123 A 
ATOM     18  N   UNL     1       7.218 -18.515  19.066  1.00  0.00    -0.263 NA
ATOM     19  C   UNL     1       7.798 -19.660  19.609  1.00  0.00     0.127 A 
ATOM     20  C   UNL     1       3.425 -19.536  23.419  1.00  0.00     0.173 C 
ENDBRANCH   8  11
ENDBRANCH   1   7
BRANCH   5  21
ATOM     21  C   UNL     1       5.997 -25.104  22.516  1.00  0.00     0.048 A 
ATOM     22  C   UNL     1       5.252 -24.223  21.717  1.00  0.00     0.035 A 
ATOM     23  C   UNL     1       5.457 -26.370  22.802  1.00  0.00     0.128 A 
ATOM     24  C   UNL     1       4.021 -24.614  21.194  1.00  0.00     0.041 A 
ATOM     25  C   UNL     1       4.231 -26.765  22.258  1.00  0.00     0.048 A 
ATOM     26  C   UNL     1       3.509 -25.883  21.456  1.00  0.00     0.024 A 
ATOM     27  Cl  UNL     1       3.126 -23.525  20.205  1.00  0.00    -0.084 Cl
BRANCH  23  28
ATOM     28  O   UNL     1       6.118 -27.293  23.572  1.00  0.00    -0.496 OA
ATOM     29  C   UNL     1       5.560 -28.594  23.378  1.00  0.00     0.278 C 
ENDBRANCH  23  28
ENDBRANCH   5  21
TORSDOF 4
ENDMDL
