MODEL 2
REMARK VINA RESULT:    -8.483      1.369      1.971
REMARK INTER + INTRA:         -17.611
REMARK INTER:                 -13.541
REMARK INTRA:                  -4.070
REMARK UNBOUND:                -3.425
REMARK SMILES Cc1cc(N)nc(C)c1CNC(=O)[C@@H]1CCCN1C(=O)[C@@H](Cc1ccc(Cl)c(Cl)c1)NS(=O)(=O)Cc1ccccc1
REMARK SMILES IDX 14 1 15 2 16 3 17 4 18 5 12 6 11 7 13 8 10 10 9 11 2 12 3 13
REMARK SMILES IDX 4 14 7 15 6 16 1 17 8 18 5 19 19 22 20 23 21 24 22 25 23 26
REMARK SMILES IDX 24 27 30 28 25 29 28 30 26 31 29 32 27 33 31 34 32 36 33 37
REMARK SMILES IDX 34 38 35 39 36 40 37 41 41 42 38 43 40 44 39 45
REMARK H PARENT 11 9 5 20 5 21 31 35
ROOT
ATOM      1  C   UNL     1      -5.294  12.645  23.656  1.00  0.00     0.174 C 
ATOM      2  C   UNL     1      -5.306  13.028  25.144  1.00  0.00     0.037 C 
ATOM      3  C   UNL     1      -4.086  13.923  25.305  1.00  0.00     0.024 C 
ATOM      4  C   UNL     1      -4.050  14.678  23.986  1.00  0.00     0.120 C 
ATOM      5  N   UNL     1      -4.469  13.684  23.008  1.00  0.00    -0.329 N 
ENDROOT
BRANCH   1   6
ATOM      6  C   UNL     1      -6.722  12.616  23.056  1.00  0.00     0.243 C 
ATOM      7  N   UNL     1      -6.864  13.400  21.934  1.00  0.00    -0.350 N 
ATOM      8  O   UNL     1      -7.650  11.981  23.550  1.00  0.00    -0.273 OA
ATOM      9  H   UNL     1      -6.073  13.968  21.647  1.00  0.00     0.163 HD
BRANCH   7  10
ATOM     10  C   UNL     1      -8.086  13.483  21.166  1.00  0.00     0.154 C 
BRANCH  10  11
ATOM     11  C   UNL     1      -8.087  12.535  19.989  1.00  0.00    -0.004 A 
ATOM     12  C   UNL     1      -8.841  11.340  20.001  1.00  0.00    -0.041 A 
ATOM     13  C   UNL     1      -8.816  10.513  18.870  1.00  0.00     0.050 A 
ATOM     14  C   UNL     1      -8.034  10.861  17.785  1.00  0.00     0.123 A 
ATOM     15  C   UNL     1      -7.329  12.806  18.833  1.00  0.00     0.045 A 
ATOM     16  N   UNL     1      -7.301  11.978  17.753  1.00  0.00    -0.236 NA
ATOM     17  C   UNL     1      -9.714  10.935  21.157  1.00  0.00     0.045 C 
ATOM     18  C   UNL     1      -6.474  14.035  18.698  1.00  0.00     0.067 C 
BRANCH  14  19
ATOM     19  N   UNL     1      -7.996  10.059  16.648  1.00  0.00    -0.384 N 
ATOM     20  H   UNL     1      -7.011   9.869  16.470  1.00  0.00     0.158 HD
ATOM     21  H   UNL     1      -8.521   9.205  16.789  1.00  0.00     0.158 HD
ENDBRANCH  14  19
ENDBRANCH  10  11
ENDBRANCH   7  10
ENDBRANCH   1   6
BRANCH   5  22
ATOM     22  C   UNL     1      -4.007  13.514  21.720  1.00  0.00     0.241 C 
ATOM     23  O   UNL     1      -4.064  14.448  20.907  1.00  0.00    -0.273 OA
BRANCH  22  24
ATOM     24  C   UNL     1      -3.472  12.156  21.243  1.00  0.00     0.163 C 
BRANCH  24  25
ATOM     25  C   UNL     1      -3.739  11.805  19.774  1.00  0.00     0.065 C 
BRANCH  25  26
ATOM     26  C   UNL     1      -4.530  10.523  19.632  1.00  0.00    -0.044 A 
ATOM     27  C   UNL     1      -4.326   9.698  18.518  1.00  0.00     0.005 A 
ATOM     28  C   UNL     1      -5.448  10.126  20.615  1.00  0.00     0.025 A 
ATOM     29  C   UNL     1      -5.027   8.496  18.389  1.00  0.00     0.022 A 
ATOM     30  C   UNL     1      -6.152   8.923  20.487  1.00  0.00     0.059 A 
ATOM     31  C   UNL     1      -5.940   8.106  19.372  1.00  0.00     0.059 A 
ATOM     32  Cl  UNL     1      -7.264   8.505  21.742  1.00  0.00    -0.083 Cl
ATOM     33  Cl  UNL     1      -6.767   6.605  19.154  1.00  0.00    -0.083 Cl
ENDBRANCH  25  26
ENDBRANCH  24  25
BRANCH  24  34
ATOM     34  N   UNL     1      -2.026  12.069  21.563  1.00  0.00    -0.202 NA
ATOM     35  H   UNL     1      -1.532  12.940  21.765  1.00  0.00     0.141 HD
BRANCH  34  36
ATOM     36  S   UNL     1      -1.523  10.804  22.558  1.00  0.00     0.216 S 
ATOM     37  O   UNL     1      -0.251  10.394  22.004  1.00  0.00    -0.212 OA
ATOM     38  O   UNL     1      -2.649   9.903  22.669  1.00  0.00    -0.212 OA
BRANCH  36  39
ATOM     39  C   UNL     1      -1.244  11.641  24.136  1.00  0.00     0.189 C 
BRANCH  39  40
ATOM     40  C   UNL     1      -1.366  10.642  25.254  1.00  0.00    -0.032 A 
ATOM     41  C   UNL     1      -0.365   9.680  25.462  1.00  0.00     0.005 A 
ATOM     42  C   UNL     1      -2.477  10.663  26.111  1.00  0.00     0.005 A 
ATOM     43  C   UNL     1      -0.477   8.757  26.503  1.00  0.00     0.000 A 
ATOM     44  C   UNL     1      -2.586   9.738  27.152  1.00  0.00     0.000 A 
ATOM     45  C   UNL     1      -1.587   8.786  27.348  1.00  0.00     0.000 A 
ENDBRANCH  39  40
ENDBRANCH  36  39
ENDBRANCH  34  36
ENDBRANCH  24  34
ENDBRANCH  22  24
ENDBRANCH   5  22
TORSDOF 12
ENDMDL
