MODEL 8
REMARK minimizedAffinity -7.80049372
REMARK CNNscore 0.751198649
REMARK CNNaffinity 7.04393244
REMARK SMILES Cc1ccccc1Nc1ncnn2ccc(CN3CCC([NH3+])CC3)c12
REMARK SMILES IDX 9 1 10 2 11 3 12 4 13 5 14 6 15 7 16 8 25 9 8 10 7 12 2 13
REMARK SMILES IDX 3 14 6 15 4 16 5 17 1 18 17 19 18 20 24 21 19 22 23 23 20 24
REMARK SMILES IDX 21 25 22 26
REMARK H PARENT 8 11 22 27 22 28 22 29
ROOT
ATOM      1  C   UNL     1      16.459   1.869  26.305  1.00  0.00     0.158 A 
ATOM      2  N   UNL     1      17.507   1.508  25.515  1.00  0.00    -0.215 NA
ATOM      3  C   UNL     1      17.908   0.217  25.558  1.00  0.00     0.247 A 
ATOM      4  N   UNL     1      17.382  -0.779  26.308  1.00  0.00    -0.156 NA
ATOM      5  N   UNL     1      16.350  -0.377  27.071  1.00  0.00    -0.235 N 
ATOM      6  C   UNL     1      15.642  -1.187  27.920  1.00  0.00     0.114 A 
ATOM      7  C   UNL     1      14.664  -0.415  28.526  1.00  0.00     0.027 A 
ATOM      8  C   UNL     1      14.717   0.901  28.071  1.00  0.00    -0.003 A 
ATOM      9  C   UNL     1      15.809   0.930  27.143  1.00  0.00     0.112 A 
ENDROOT
BRANCH   1  10
ATOM     10  N   UNL     1      16.037   3.208  26.299  1.00  0.00    -0.338 N 
ATOM     11  H   UNL     1      16.403   3.758  27.063  1.00  0.00     0.168 HD
BRANCH  10  12
ATOM     12  C   UNL     1      15.081   3.881  25.515  1.00  0.00     0.043 A 
ATOM     13  C   UNL     1      15.227   5.255  25.242  1.00  0.00    -0.028 A 
ATOM     14  C   UNL     1      14.256   5.921  24.488  1.00  0.00     0.005 A 
ATOM     15  C   UNL     1      13.944   3.211  25.038  1.00  0.00     0.026 A 
ATOM     16  C   UNL     1      13.138   5.239  24.012  1.00  0.00     0.000 A 
ATOM     17  C   UNL     1      12.981   3.885  24.289  1.00  0.00     0.002 A 
ATOM     18  C   UNL     1      16.441   6.044  25.722  1.00  0.00     0.046 C 
ENDBRANCH  10  12
ENDBRANCH   1  10
BRANCH   8  19
ATOM     19  C   UNL     1      13.805   2.038  28.501  1.00  0.00     0.122 C 
BRANCH  19  20
ATOM     20  N   UNL     1      12.841   1.647  29.532  1.00  0.00    -0.299 NA
ATOM     21  C   UNL     1      13.265   2.020  30.891  1.00  0.00     0.091 C 
ATOM     22  C   UNL     1      11.498   2.154  29.221  1.00  0.00     0.091 C 
ATOM     23  C   UNL     1      12.291   1.463  31.951  1.00  0.00     0.080 C 
ATOM     24  C   UNL     1      10.450   1.596  30.205  1.00  0.00     0.080 C 
ATOM     25  C   UNL     1      10.832   1.879  31.672  1.00  0.00     0.183 C 
BRANCH  25  26
ATOM     26  N   UNL     1       9.889   1.106  32.608  1.00  0.00    -0.355 N 
ATOM     27  H   UNL     1       9.968   0.114  32.436  1.00  0.00     0.344 HD
ATOM     28  H   UNL     1       8.931   1.389  32.450  1.00  0.00     0.344 HD
ATOM     29  H   UNL     1      10.127   1.288  33.572  1.00  0.00     0.344 HD
ENDBRANCH  25  26
ENDBRANCH  19  20
ENDBRANCH   8  19
TORSDOF 5
ENDMDL
