REMARK SMILES CC[C@@H](C)n1cc(-c2nc(-c3cnn(C4CCS(=O)(=O)CC4)c3)cn3nccc23)cn1
REMARK SMILES IDX 5 1 6 2 7 3 30 4 31 5 3 6 4 7 2 8 1 9 8 10 9 11 29 12 10 13
REMARK SMILES IDX 28 14 25 15 24 16 27 17 26 18 11 19 12 20 23 21 13 22 14 23
REMARK SMILES IDX 15 24 16 25 22 26 17 27 21 28 18 29 19 30 20 31
REMARK H PARENT
ROOT
ATOM      1  N   UNL     1      -4.418   0.882   0.271  1.00  0.00    -0.269 N 
ATOM      2  C   UNL     1      -3.849  -0.277  -0.186  1.00  0.00     0.119 A 
ATOM      3  C   UNL     1      -2.548  -0.297   0.281  1.00  0.00     0.040 A 
ATOM      4  C   UNL     1      -2.438   0.926   0.988  1.00  0.00     0.145 A 
ATOM      5  N   UNL     1      -3.571   1.632   0.998  1.00  0.00    -0.181 NA
ENDROOT
BRANCH   1   6
ATOM      6  C   UNL     1      -5.784   1.357   0.039  1.00  0.00     0.104 C 
ATOM      7  C   UNL     1      -6.800   0.389   0.649  1.00  0.00     0.033 C 
BRANCH   6   8
ATOM      8  C   UNL     1      -6.021   1.620  -1.458  1.00  0.00     0.023 C 
ATOM      9  C   UNL     1      -7.337   2.331  -1.743  1.00  0.00     0.006 C 
ENDBRANCH   6   8
ENDBRANCH   1   6
BRANCH   3  10
ATOM     10  C   UNL     1      -1.500  -1.276   0.075  1.00  0.00     0.100 A 
ATOM     11  N   UNL     1      -0.271  -0.851   0.167  1.00  0.00    -0.244 NA
ATOM     12  C   UNL     1      -1.815  -2.650  -0.212  1.00  0.00     0.093 A 
ATOM     13  C   UNL     1       0.767  -1.742  -0.055  1.00  0.00     0.092 A 
ATOM     14  C   UNL     1      -2.955  -3.420  -0.281  1.00  0.00     0.052 A 
ATOM     15  N   UNL     1      -0.752  -3.500  -0.444  1.00  0.00    -0.237 N 
ATOM     16  C   UNL     1       0.546  -3.033  -0.363  1.00  0.00     0.142 A 
ATOM     17  C   UNL     1      -2.494  -4.705  -0.608  1.00  0.00     0.136 A 
ATOM     18  N   UNL     1      -1.168  -4.759  -0.722  1.00  0.00    -0.176 NA
BRANCH  13  19
ATOM     19  C   UNL     1       2.077  -1.171   0.064  1.00  0.00     0.040 A 
ATOM     20  C   UNL     1       3.344  -1.786  -0.037  1.00  0.00     0.145 A 
ATOM     21  C   UNL     1       2.372   0.153   0.316  1.00  0.00     0.119 A 
ATOM     22  N   UNL     1       4.351  -0.925   0.137  1.00  0.00    -0.181 NA
ATOM     23  N   UNL     1       3.732   0.249   0.348  1.00  0.00    -0.269 N 
BRANCH  23  24
ATOM     24  C   UNL     1       4.513   1.460   0.586  1.00  0.00     0.109 C 
ATOM     25  C   UNL     1       5.383   1.847  -0.626  1.00  0.00     0.043 C 
ATOM     26  C   UNL     1       5.283   1.405   1.919  1.00  0.00     0.043 C 
ATOM     27  C   UNL     1       6.642   1.009  -0.816  1.00  0.00     0.139 C 
ATOM     28  C   UNL     1       6.531   0.530   1.908  1.00  0.00     0.139 C 
ATOM     29  S   UNL     1       7.667   1.029   0.635  1.00  0.00     0.150 S 
ATOM     30  O   UNL     1       8.680   0.002   0.496  1.00  0.00    -0.229 OA
ATOM     31  O   UNL     1       8.040   2.408   0.893  1.00  0.00    -0.229 OA
ENDBRANCH  23  24
ENDBRANCH  13  19
ENDBRANCH   3  10
TORSDOF 5
