REMARK SMILES Fc1ccc(C[n+]2ccc(CCNc3nc4ccc(F)cc4s3)cc2)cc1
REMARK SMILES IDX 11 1 10 2 7 3 8 4 25 5 9 6 24 7 6 8 5 9 2 10 3 11 27 12 4 13
REMARK SMILES IDX 26 14 1 15 12 16 13 17 14 19 15 20 23 21 16 22 22 23 17 24
REMARK SMILES IDX 21 25 18 26 19 27 20 28
REMARK H PARENT 13 18
ROOT
ATOM      1  C   UNL     1       0.504   3.134  -2.882  1.00  0.00     0.057 C 
ENDROOT
BRANCH   1   2
ATOM      2  C   UNL     1      -0.481   2.481  -1.938  1.00  0.00    -0.034 A 
ATOM      3  N   UNL     1      -2.205   1.182  -0.197  1.00  0.00    -0.201 N 
ATOM      4  C   UNL     1      -1.315   2.080   0.285  1.00  0.00     0.308 A 
ATOM      5  C   UNL     1      -2.261   0.913  -1.521  1.00  0.00     0.308 A 
ATOM      6  C   UNL     1      -0.447   2.749  -0.570  1.00  0.00     0.074 A 
ATOM      7  C   UNL     1      -1.407   1.551  -2.412  1.00  0.00     0.074 A 
BRANCH   3   8
ATOM      8  C   UNL     1      -3.138   0.503   0.733  1.00  0.00     0.393 C 
BRANCH   8   9
ATOM      9  C   UNL     1      -2.430  -0.538   1.563  1.00  0.00     0.017 A 
ATOM     10  C   UNL     1      -1.146  -2.474   3.119  1.00  0.00     0.123 A 
ATOM     11  C   UNL     1      -1.250  -2.656   1.745  1.00  0.00     0.040 A 
ATOM     12  C   UNL     1      -1.675  -1.345   3.730  1.00  0.00     0.040 A 
ATOM     13  C   UNL     1      -1.888  -1.689   0.965  1.00  0.00     0.013 A 
ATOM     14  C   UNL     1      -2.319  -0.378   2.957  1.00  0.00     0.013 A 
ATOM     15  F   UNL     1      -0.525  -3.397   3.862  1.00  0.00    -0.207 F 
ENDBRANCH   8   9
ENDBRANCH   3   8
ENDBRANCH   1   2
BRANCH   1  16
ATOM     16  C   UNL     1       1.947   2.628  -2.731  1.00  0.00     0.120 C 
BRANCH  16  17
ATOM     17  N   UNL     1       2.055   1.216  -3.050  1.00  0.00    -0.361 N 
ATOM     18  H   UNL     1       2.247   0.964  -4.013  1.00  0.00     0.162 HD
BRANCH  17  19
ATOM     19  C   UNL     1       2.106   0.274  -2.085  1.00  0.00     0.183 A 
ATOM     20  N   UNL     1       1.958   0.497  -0.800  1.00  0.00    -0.220 NA
ATOM     21  S   UNL     1       2.359  -1.372  -2.513  1.00  0.00    -0.097 S 
ATOM     22  C   UNL     1       2.147  -0.671  -0.082  1.00  0.00     0.084 A 
ATOM     23  C   UNL     1       2.365  -1.815  -0.853  1.00  0.00     0.059 A 
ATOM     24  C   UNL     1       2.135  -0.788   1.324  1.00  0.00     0.033 A 
ATOM     25  C   UNL     1       2.557  -3.078  -0.272  1.00  0.00     0.060 A 
ATOM     26  C   UNL     1       2.337  -2.040   1.915  1.00  0.00     0.041 A 
ATOM     27  C   UNL     1       2.539  -3.158   1.119  1.00  0.00     0.124 A 
ATOM     28  F   UNL     1       2.715  -4.351   1.702  1.00  0.00    -0.207 F 
ENDBRANCH  17  19
ENDBRANCH  16  17
ENDBRANCH   1  16
TORSDOF 6
