REMARK SMILES CN1CCN([C@H]2CC[C@H](n3nc(-c4ccc(Nc5nc6cccc(Cl)c6o5)cc4)c4c(N)ncnc43)CC2)CC1
REMARK SMILES IDX 10 1 11 2 12 3 30 4 31 5 33 6 34 7 35 8 36 9 9 10 6 11 38 12
REMARK SMILES IDX 7 13 37 14 8 15 5 16 2 17 3 18 40 19 4 20 39 21 1 22 13 23
REMARK SMILES IDX 14 24 29 25 15 26 28 27 16 28 17 29 18 31 19 32 27 33 20 34
REMARK SMILES IDX 26 35 21 36 24 37 22 38 23 39 25 40 32 41
REMARK H PARENT 17 30 32 42 32 43
ROOT
ATOM      1  N   UNL     1      -0.688  -0.087   1.910  1.00  0.00    -0.243 N 
ATOM      2  N   UNL     1       0.288  -0.315   1.005  1.00  0.00    -0.170 NA
ATOM      3  C   UNL     1       1.386  -0.522   1.752  1.00  0.00     0.106 A 
ATOM      4  C   UNL     1       1.105  -0.407   3.143  1.00  0.00     0.089 A 
ATOM      5  C   UNL     1       1.788  -0.476   4.364  1.00  0.00     0.138 A 
ATOM      6  N   UNL     1       1.083  -0.327   5.506  1.00  0.00    -0.219 NA
ATOM      7  C   UNL     1      -0.242  -0.097   5.424  1.00  0.00     0.226 A 
ATOM      8  N   UNL     1      -0.994   0.017   4.317  1.00  0.00    -0.217 NA
ATOM      9  C   UNL     1      -0.254  -0.146   3.206  1.00  0.00     0.164 A 
ENDROOT
BRANCH   1  10
ATOM     10  C   UNL     1      -2.059   0.155   1.472  1.00  0.00     0.110 C 
ATOM     11  C   UNL     1      -4.308  -0.004  -0.469  1.00  0.00     0.057 C 
ATOM     12  C   UNL     1      -3.580   1.327  -0.187  1.00  0.00     0.021 C 
ATOM     13  C   UNL     1      -4.229  -0.932   0.760  1.00  0.00     0.021 C 
ATOM     14  C   UNL     1      -2.134   1.090   0.254  1.00  0.00     0.029 C 
ATOM     15  C   UNL     1      -2.783  -1.169   1.196  1.00  0.00     0.029 C 
BRANCH  11  16
ATOM     16  N   UNL     1      -5.693   0.126  -0.945  1.00  0.00    -0.298 NA
ATOM     17  N   UNL     1      -8.365   0.574  -1.902  1.00  0.00    -0.304 NA
ATOM     18  C   UNL     1      -7.240   0.596  -2.866  1.00  0.00     0.099 C 
ATOM     19  C   UNL     1      -7.960   1.245  -0.653  1.00  0.00     0.099 C 
ATOM     20  C   UNL     1      -5.816   0.754  -2.265  1.00  0.00     0.100 C 
ATOM     21  C   UNL     1      -6.660   0.705   0.006  1.00  0.00     0.100 C 
ATOM     22  C   UNL     1      -8.794  -0.801  -1.635  1.00  0.00     0.105 C 
ENDBRANCH  11  16
ENDBRANCH   1  10
BRANCH   3  23
ATOM     23  C   UNL     1       2.657  -0.826   1.109  1.00  0.00     0.003 A 
ATOM     24  C   UNL     1       3.215   0.071   0.196  1.00  0.00     0.012 A 
ATOM     25  C   UNL     1       3.326  -2.021   1.381  1.00  0.00     0.012 A 
ATOM     26  C   UNL     1       4.437  -0.216  -0.427  1.00  0.00     0.027 A 
ATOM     27  C   UNL     1       4.544  -2.304   0.750  1.00  0.00     0.027 A 
ATOM     28  C   UNL     1       5.120  -1.410  -0.170  1.00  0.00     0.042 A 
BRANCH  28  29
ATOM     29  N   UNL     1       6.358  -1.752  -0.741  1.00  0.00    -0.309 N 
ATOM     30  H   UNL     1       6.587  -2.735  -0.689  1.00  0.00     0.171 HD
BRANCH  29  31
ATOM     31  C   UNL     1       7.256  -1.002  -1.403  1.00  0.00     0.300 A 
ATOM     32  N   UNL     1       8.320  -1.450  -2.040  1.00  0.00    -0.193 NA
ATOM     33  O   UNL     1       7.129   0.360  -1.409  1.00  0.00    -0.422 OA
ATOM     34  C   UNL     1       8.926  -0.316  -2.515  1.00  0.00     0.113 A 
ATOM     35  C   UNL     1       8.202   0.799  -2.128  1.00  0.00     0.175 A 
ATOM     36  C   UNL     1      10.090  -0.143  -3.276  1.00  0.00     0.032 A 
ATOM     37  C   UNL     1       8.557   2.104  -2.444  1.00  0.00     0.086 A 
ATOM     38  C   UNL     1      10.477   1.163  -3.615  1.00  0.00     0.004 A 
ATOM     39  C   UNL     1       9.721   2.268  -3.204  1.00  0.00     0.024 A 
ATOM     40  Cl  UNL     1       7.632   3.453  -1.939  1.00  0.00    -0.080 Cl
ENDBRANCH  29  31
ENDBRANCH  28  29
ENDBRANCH   3  23
BRANCH   5  41
ATOM     41  N   UNL     1       3.142  -0.670   4.495  1.00  0.00    -0.383 N 
ATOM     42  H   UNL     1       3.509  -0.647   5.435  1.00  0.00     0.158 HD
ATOM     43  H   UNL     1       3.763  -0.671   3.702  1.00  0.00     0.158 HD
ENDBRANCH   5  41
TORSDOF 6
