REMARK SMILES CCCCCCCC/C=C\CCCCCCCCCCCC(=O)O
REMARK SMILES IDX 13 1 12 2 11 3 10 4 9 5 8 6 7 7 6 8 5 9 4 10 3 11 2 12 1 13
REMARK SMILES IDX 14 14 15 15 16 16 17 17 18 18 19 19 20 20 21 21 22 22 23 23
REMARK SMILES IDX 24 24
REMARK H PARENT 24 25
ROOT
ATOM      1  C   UNL     1      -0.064  -1.539  -1.305  1.00  0.00     0.000 C 
ENDROOT
BRANCH   1   2
ATOM      2  C   UNL     1      -0.002  -2.918  -0.639  1.00  0.00     0.004 C 
BRANCH   2   3
ATOM      3  C   UNL     1       1.435  -3.391  -0.384  1.00  0.00     0.027 C 
BRANCH   3   4
ATOM      4  C   UNL     1       2.155  -2.551   0.633  1.00  0.00    -0.031 C 
ATOM      5  C   UNL     1       3.264  -1.816   0.454  1.00  0.00    -0.031 C 
BRANCH   5   6
ATOM      6  C   UNL     1       4.072  -1.660  -0.804  1.00  0.00     0.027 C 
BRANCH   6   7
ATOM      7  C   UNL     1       3.848  -0.316  -1.506  1.00  0.00     0.004 C 
BRANCH   7   8
ATOM      8  C   UNL     1       4.188   0.933  -0.684  1.00  0.00     0.000 C 
BRANCH   8   9
ATOM      9  C   UNL     1       5.663   1.014  -0.284  1.00  0.00     0.000 C 
BRANCH   9  10
ATOM     10  C   UNL     1       5.965   2.322   0.451  1.00  0.00    -0.000 C 
BRANCH  10  11
ATOM     11  C   UNL     1       7.450   2.511   0.771  1.00  0.00    -0.000 C 
BRANCH  11  12
ATOM     12  C   UNL     1       7.996   1.481   1.760  1.00  0.00    -0.003 C 
ATOM     13  C   UNL     1       9.438   1.784   2.138  1.00  0.00     0.004 C 
ENDBRANCH  11  12
ENDBRANCH  10  11
ENDBRANCH   9  10
ENDBRANCH   8   9
ENDBRANCH   7   8
ENDBRANCH   6   7
ENDBRANCH   5   6
ENDBRANCH   3   4
ENDBRANCH   2   3
ENDBRANCH   1   2
BRANCH   1  14
ATOM     14  C   UNL     1      -1.468  -1.157  -1.781  1.00  0.00     0.000 C 
BRANCH  14  15
ATOM     15  C   UNL     1      -2.481  -1.005  -0.645  1.00  0.00     0.000 C 
BRANCH  15  16
ATOM     16  C   UNL     1      -3.833  -0.521  -1.175  1.00  0.00     0.000 C 
BRANCH  16  17
ATOM     17  C   UNL     1      -4.859  -0.380  -0.050  1.00  0.00     0.000 C 
BRANCH  17  18
ATOM     18  C   UNL     1      -6.205   0.108  -0.587  1.00  0.00     0.000 C 
BRANCH  18  19
ATOM     19  C   UNL     1      -7.237   0.246   0.534  1.00  0.00     0.001 C 
BRANCH  19  20
ATOM     20  C   UNL     1      -8.583   0.735  -0.009  1.00  0.00     0.012 C 
BRANCH  20  21
ATOM     21  C   UNL     1      -9.652   0.830   1.076  1.00  0.00     0.122 C 
BRANCH  21  22
ATOM     22  C   UNL     1      -9.363   1.897   2.094  1.00  0.00     0.303 C 
ATOM     23  O   UNL     1      -9.225   1.726   3.293  1.00  0.00    -0.252 OA
BRANCH  22  24
ATOM     24  O   UNL     1      -9.296   3.131   1.564  1.00  0.00    -0.481 OA
ATOM     25  H   UNL     1      -9.126   3.712   2.335  1.00  0.00     0.296 HD
ENDBRANCH  22  24
ENDBRANCH  21  22
ENDBRANCH  20  21
ENDBRANCH  19  20
ENDBRANCH  18  19
ENDBRANCH  17  18
ENDBRANCH  16  17
ENDBRANCH  15  16
ENDBRANCH  14  15
ENDBRANCH   1  14
TORSDOF 20
