REMARK SMILES CC(=N)N1CCC(Oc2ccc3c(c2)nc(C)n3Cc2ccc3ccc(C(=N)N)cc3c2)CC1
REMARK SMILES IDX 9 1 10 2 11 3 12 4 13 5 14 6 15 7 16 8 17 9 18 10 8 11 7 12
REMARK SMILES IDX 2 13 3 14 4 15 5 16 34 17 6 18 33 19 1 20 19 22 20 23 21 24
REMARK SMILES IDX 32 25 22 26 31 27 23 28 30 29 24 30 26 31 25 32 27 33 28 34
REMARK SMILES IDX 29 35
REMARK H PARENT 3 21 28 36 29 37 29 38
ROOT
ATOM      1  C   UNL     1       1.997   0.305   0.650  1.00  0.00     0.122 A 
ATOM      2  C   UNL     1       1.156   1.196   1.324  1.00  0.00     0.049 A 
ATOM      3  C   UNL     1      -0.040   0.780   1.924  1.00  0.00     0.032 A 
ATOM      4  C   UNL     1      -0.354  -0.579   1.828  1.00  0.00     0.069 A 
ATOM      5  C   UNL     1       0.475  -1.489   1.184  1.00  0.00     0.092 A 
ATOM      6  C   UNL     1       1.669  -1.050   0.586  1.00  0.00     0.077 A 
ATOM      7  N   UNL     1      -0.042  -2.756   1.246  1.00  0.00    -0.233 NA
ATOM      8  C   UNL     1      -1.179  -2.653   1.903  1.00  0.00     0.107 A 
ATOM      9  C   UNL     1      -2.092  -3.786   2.200  1.00  0.00     0.088 C 
ATOM     10  N   UNL     1      -1.418  -1.342   2.264  1.00  0.00    -0.324 N 
ENDROOT
BRANCH   1  11
ATOM     11  O   UNL     1       3.120   0.881   0.119  1.00  0.00    -0.490 OA
BRANCH  11  12
ATOM     12  C   UNL     1       3.865   0.156  -0.871  1.00  0.00     0.176 C 
ATOM     13  C   UNL     1       7.780   1.176  -1.282  1.00  0.00     0.093 C 
ATOM     14  N   UNL     1       8.064   1.872  -2.340  1.00  0.00    -0.289 NA
ATOM     15  N   UNL     1       6.529   1.231  -0.700  1.00  0.00    -0.361 N 
ATOM     16  C   UNL     1       6.063   0.350   0.367  1.00  0.00     0.121 C 
ATOM     17  C   UNL     1       5.467   2.078  -1.254  1.00  0.00     0.121 C 
ATOM     18  C   UNL     1       5.018  -0.608  -0.204  1.00  0.00     0.066 C 
ATOM     19  C   UNL     1       4.400   1.182  -1.881  1.00  0.00     0.066 C 
ATOM     20  C   UNL     1       8.855   0.282  -0.694  1.00  0.00     0.086 C 
ATOM     21  H   UNL     1       9.031   1.713  -2.637  1.00  0.00     0.189 HD
ENDBRANCH  11  12
ENDBRANCH   1  11
BRANCH  10  22
ATOM     22  C   UNL     1      -2.566  -0.850   3.012  1.00  0.00     0.159 C 
BRANCH  22  23
ATOM     23  C   UNL     1      -3.818  -0.793   2.170  1.00  0.00    -0.028 A 
ATOM     24  C   UNL     1      -4.942  -1.553   2.519  1.00  0.00     0.006 A 
ATOM     25  C   UNL     1      -3.887   0.030   1.034  1.00  0.00     0.014 A 
ATOM     26  C   UNL     1      -6.099  -1.510   1.738  1.00  0.00     0.009 A 
ATOM     27  C   UNL     1      -5.047   0.088   0.242  1.00  0.00    -0.017 A 
ATOM     28  C   UNL     1      -6.167  -0.699   0.596  1.00  0.00    -0.018 A 
ATOM     29  C   UNL     1      -5.115   0.909  -0.894  1.00  0.00     0.020 A 
ATOM     30  C   UNL     1      -7.323  -0.653  -0.200  1.00  0.00     0.009 A 
ATOM     31  C   UNL     1      -6.275   0.946  -1.674  1.00  0.00     0.017 A 
ATOM     32  C   UNL     1      -7.379   0.163  -1.331  1.00  0.00     0.012 A 
BRANCH  31  33
ATOM     33  C   UNL     1      -6.339   1.842  -2.857  1.00  0.00     0.122 C 
ATOM     34  N   UNL     1      -6.880   1.471  -3.974  1.00  0.00    -0.284 NA
ATOM     35  N   UNL     1      -5.830   3.096  -2.788  1.00  0.00    -0.384 N 
ATOM     36  H   UNL     1      -7.195   0.498  -3.925  1.00  0.00     0.189 HD
ATOM     37  H   UNL     1      -5.915   3.677  -3.615  1.00  0.00     0.158 HD
ATOM     38  H   UNL     1      -5.486   3.512  -1.935  1.00  0.00     0.158 HD
ENDBRANCH  31  33
ENDBRANCH  22  23
ENDBRANCH  10  22
TORSDOF 5
