REMARK SMILES Cc1c(CCOc2ccc3c(c2)CC[C@H]3CC(=O)O)nc(-c2ccc(-c3ccccc3)cc2)n1C
REMARK SMILES IDX 6 1 5 2 4 3 3 4 2 5 34 6 20 7 21 8 1 9 35 10 22 11 23 12
REMARK SMILES IDX 33 13 24 14 32 15 25 16 26 17 27 18 31 19 28 20 30 21 29 22
REMARK SMILES IDX 7 23 8 24 12 25 9 26 11 27 10 28 13 29 15 30 14 31 16 32
REMARK SMILES IDX 17 33 18 34 19 35
REMARK H PARENT 19 36
ROOT
ATOM      1  O   UNL     1       2.435  -0.920  -1.510  1.00  0.00    -0.493 OA
ENDROOT
BRANCH   1   2
ATOM      2  C   UNL     1       1.609  -1.958  -0.970  1.00  0.00     0.236 C 
BRANCH   2   3
ATOM      3  C   UNL     1       0.510  -2.297  -1.976  1.00  0.00     0.099 C 
BRANCH   3   4
ATOM      4  C   UNL     1      -0.607  -1.310  -1.948  1.00  0.00     0.065 A 
ATOM      5  C   UNL     1      -0.757  -0.122  -2.638  1.00  0.00     0.038 A 
ATOM      6  N   UNL     1      -1.961   0.386  -2.201  1.00  0.00    -0.331 N 
ATOM      7  N   UNL     1      -1.688  -1.532  -1.132  1.00  0.00    -0.233 NA
ATOM      8  C   UNL     1      -2.518  -0.521  -1.319  1.00  0.00     0.140 A 
ATOM      9  C   UNL     1       0.133   0.553  -3.614  1.00  0.00     0.066 C 
ATOM     10  C   UNL     1      -2.514   1.672  -2.556  1.00  0.00     0.151 C 
BRANCH   8  11
ATOM     11  C   UNL     1      -3.808  -0.375  -0.644  1.00  0.00     0.017 A 
ATOM     12  C   UNL     1      -3.875  -0.508   0.746  1.00  0.00     0.012 A 
ATOM     13  C   UNL     1      -4.989  -0.138  -1.355  1.00  0.00     0.012 A 
ATOM     14  C   UNL     1      -5.094  -0.371   1.419  1.00  0.00     0.009 A 
ATOM     15  C   UNL     1      -6.209  -0.005  -0.681  1.00  0.00     0.009 A 
ATOM     16  C   UNL     1      -6.282  -0.113   0.718  1.00  0.00    -0.018 A 
BRANCH  16  17
ATOM     17  C   UNL     1      -7.564   0.032   1.426  1.00  0.00    -0.018 A 
ATOM     18  C   UNL     1      -8.681  -0.745   1.071  1.00  0.00     0.009 A 
ATOM     19  C   UNL     1      -7.708   0.949   2.480  1.00  0.00     0.009 A 
ATOM     20  C   UNL     1      -9.897  -0.610   1.747  1.00  0.00     0.001 A 
ATOM     21  C   UNL     1      -8.924   1.087   3.155  1.00  0.00     0.001 A 
ATOM     22  C   UNL     1     -10.018   0.307   2.788  1.00  0.00     0.000 A 
ENDBRANCH  16  17
ENDBRANCH   8  11
ENDBRANCH   3   4
ENDBRANCH   2   3
ENDBRANCH   1   2
BRANCH   1  23
ATOM     23  C   UNL     1       3.503  -0.519  -0.753  1.00  0.00     0.119 A 
ATOM     24  C   UNL     1       4.316   0.452  -1.363  1.00  0.00     0.047 A 
ATOM     25  C   UNL     1       3.818  -0.983   0.526  1.00  0.00     0.050 A 
ATOM     26  C   UNL     1       5.447   0.963  -0.719  1.00  0.00     0.008 A 
ATOM     27  C   UNL     1       4.950  -0.480   1.153  1.00  0.00    -0.041 A 
ATOM     28  C   UNL     1       5.764   0.479   0.539  1.00  0.00    -0.041 A 
ATOM     29  C   UNL     1       5.446  -0.806   2.526  1.00  0.00     0.036 C 
ATOM     30  C   UNL     1       6.897   0.879   1.451  1.00  0.00     0.031 C 
ATOM     31  C   UNL     1       6.896  -0.314   2.438  1.00  0.00     0.014 C 
BRANCH  30  32
ATOM     32  C   UNL     1       8.239   1.063   0.745  1.00  0.00     0.131 C 
BRANCH  32  33
ATOM     33  C   UNL     1       9.320   1.488   1.698  1.00  0.00     0.303 C 
ATOM     34  O   UNL     1       9.189   1.895   2.840  1.00  0.00    -0.252 OA
BRANCH  33  35
ATOM     35  O   UNL     1      10.544   1.400   1.141  1.00  0.00    -0.481 OA
ATOM     36  H   UNL     1      11.151   1.708   1.847  1.00  0.00     0.296 HD
ENDBRANCH  33  35
ENDBRANCH  32  33
ENDBRANCH  30  32
ENDBRANCH   1  23
TORSDOF 9
