REMARK SMILES Clc1cc(Nc2ncnc3cccc(OC4CCOCC4)c23)ccc1OCc1ccccn1
REMARK SMILES IDX 1 1 2 2 3 3 4 4 23 5 24 6 25 7 26 8 27 9 28 10 29 11 33 12
REMARK SMILES IDX 30 13 32 14 31 15 5 16 6 18 7 19 22 20 8 21 14 22 10 23 9 24
REMARK SMILES IDX 13 25 11 26 12 27 15 28 16 29 17 30 21 31 18 32 20 33 19 34
REMARK H PARENT 5 17
ROOT
ATOM      1  Cl  UNL     1       2.217  -3.096  -0.102  1.00  0.00    -0.080 Cl
ATOM      2  C   UNL     1       1.947  -1.390  -0.209  1.00  0.00     0.085 A 
ATOM      3  C   UNL     1       0.664  -0.948  -0.552  1.00  0.00     0.050 A 
ATOM      4  C   UNL     1       0.374   0.419  -0.667  1.00  0.00     0.041 A 
ATOM      5  C   UNL     1       1.408   1.323  -0.411  1.00  0.00     0.030 A 
ATOM      6  C   UNL     1       2.697   0.887  -0.069  1.00  0.00     0.050 A 
ATOM      7  C   UNL     1       2.981  -0.475   0.021  1.00  0.00     0.138 A 
ENDROOT
BRANCH   7   8
ATOM      8  O   UNL     1       4.207  -0.981   0.361  1.00  0.00    -0.486 OA
BRANCH   8   9
ATOM      9  C   UNL     1       5.340  -0.157   0.069  1.00  0.00     0.285 C 
BRANCH   9  10
ATOM     10  C   UNL     1       6.620  -0.958   0.172  1.00  0.00     0.078 A 
ATOM     11  C   UNL     1       6.677  -2.279  -0.273  1.00  0.00     0.027 A 
ATOM     12  N   UNL     1       7.713  -0.311   0.657  1.00  0.00    -0.258 NA
ATOM     13  C   UNL     1       7.884  -2.967  -0.193  1.00  0.00     0.004 A 
ATOM     14  C   UNL     1       8.870  -1.006   0.724  1.00  0.00     0.111 A 
ATOM     15  C   UNL     1       9.004  -2.322   0.317  1.00  0.00     0.020 A 
ENDBRANCH   9  10
ENDBRANCH   8   9
ENDBRANCH   7   8
BRANCH   4  16
ATOM     16  N   UNL     1      -0.927   0.804  -1.022  1.00  0.00    -0.339 N 
ATOM     17  H   UNL     1      -1.594   0.042  -1.111  1.00  0.00     0.168 HD
BRANCH  16  18
ATOM     18  C   UNL     1      -1.484   2.030  -1.450  1.00  0.00     0.145 A 
ATOM     19  N   UNL     1      -0.654   3.037  -1.787  1.00  0.00    -0.218 NA
ATOM     20  C   UNL     1      -2.895   2.171  -1.502  1.00  0.00     0.085 A 
ATOM     21  C   UNL     1      -1.213   4.177  -2.192  1.00  0.00     0.224 A 
ATOM     22  C   UNL     1      -3.875   1.192  -1.151  1.00  0.00     0.132 A 
ATOM     23  C   UNL     1      -3.343   3.423  -1.954  1.00  0.00     0.080 A 
ATOM     24  N   UNL     1      -2.521   4.418  -2.293  1.00  0.00    -0.236 NA
ATOM     25  C   UNL     1      -5.240   1.444  -1.311  1.00  0.00     0.047 A 
ATOM     26  C   UNL     1      -4.706   3.659  -2.070  1.00  0.00     0.029 A 
ATOM     27  C   UNL     1      -5.657   2.686  -1.763  1.00  0.00     0.006 A 
BRANCH  22  28
ATOM     28  O   UNL     1      -3.452  -0.049  -0.728  1.00  0.00    -0.489 OA
BRANCH  28  29
ATOM     29  C   UNL     1      -4.011  -0.464   0.532  1.00  0.00     0.178 C 
ATOM     30  C   UNL     1      -2.866  -0.674   1.524  1.00  0.00     0.073 C 
ATOM     31  C   UNL     1      -4.763  -1.778   0.327  1.00  0.00     0.073 C 
ATOM     32  C   UNL     1      -3.389  -1.302   2.805  1.00  0.00     0.164 C 
ATOM     33  C   UNL     1      -5.191  -2.351   1.668  1.00  0.00     0.164 C 
ATOM     34  O   UNL     1      -4.063  -2.529   2.522  1.00  0.00    -0.381 OA
ENDBRANCH  28  29
ENDBRANCH  22  28
ENDBRANCH  16  18
ENDBRANCH   4  16
TORSDOF 7
