REMARK SMILES COc1ccc(/C=C/c2cc(OC)cc(OCc3ccc(OCC(=O)O)c(C)c3)c2)cc1
REMARK SMILES IDX 17 1 16 2 15 3 9 4 10 5 30 6 11 7 14 8 8 9 7 10 6 11 3 12
REMARK SMILES IDX 4 13 32 14 5 15 31 16 2 17 1 18 12 19 13 20 18 21 19 22
REMARK SMILES IDX 29 23 20 24 27 25 21 26 28 27 22 28 23 29 24 30 25 31 26 32
REMARK H PARENT 26 33
ROOT
ATOM      1  C   UNL     1      -1.791  -2.548  -0.025  1.00  0.00     0.265 C 
ENDROOT
BRANCH   1   2
ATOM      2  O   UNL     1      -0.862  -1.478   0.125  1.00  0.00    -0.489 OA
BRANCH   2   3
ATOM      3  C   UNL     1       0.452  -1.806   0.327  1.00  0.00     0.124 A 
ATOM      4  C   UNL     1       2.683  -0.876   0.625  1.00  0.00    -0.018 A 
ATOM      5  C   UNL     1       3.181  -2.176   0.758  1.00  0.00     0.054 A 
ATOM      6  C   UNL     1       1.309  -0.705   0.424  1.00  0.00     0.054 A 
ATOM      7  C   UNL     1       2.336  -3.287   0.663  1.00  0.00     0.123 A 
ATOM      8  C   UNL     1       0.969  -3.099   0.446  1.00  0.00     0.092 A 
BRANCH   4   9
ATOM      9  C   UNL     1       3.609   0.258   0.755  1.00  0.00     0.009 C 
ATOM     10  C   UNL     1       3.511   1.388   0.036  1.00  0.00     0.009 C 
BRANCH  10  11
ATOM     11  C   UNL     1       4.437   2.522   0.164  1.00  0.00    -0.025 A 
ATOM     12  C   UNL     1       6.164   4.747   0.329  1.00  0.00     0.118 A 
ATOM     13  C   UNL     1       4.791   4.924   0.143  1.00  0.00     0.047 A 
ATOM     14  C   UNL     1       6.674   3.453   0.422  1.00  0.00     0.047 A 
ATOM     15  C   UNL     1       3.935   3.823   0.056  1.00  0.00     0.012 A 
ATOM     16  C   UNL     1       5.816   2.349   0.335  1.00  0.00     0.012 A 
BRANCH  12  17
ATOM     17  O   UNL     1       6.886   5.905   0.397  1.00  0.00    -0.497 OA
ATOM     18  C   UNL     1       8.291   5.776   0.571  1.00  0.00     0.278 C 
ENDBRANCH  12  17
ENDBRANCH  10  11
ENDBRANCH   4   9
BRANCH   7  19
ATOM     19  O   UNL     1       2.970  -4.492   0.803  1.00  0.00    -0.497 OA
ATOM     20  C   UNL     1       2.175  -5.664   0.678  1.00  0.00     0.278 C 
ENDBRANCH   7  19
ENDBRANCH   2   3
ENDBRANCH   1   2
BRANCH   1  21
ATOM     21  C   UNL     1      -3.159  -1.952  -0.246  1.00  0.00    -0.010 A 
ATOM     22  C   UNL     1      -3.894  -1.448   0.834  1.00  0.00     0.011 A 
ATOM     23  C   UNL     1      -3.702  -1.860  -1.534  1.00  0.00     0.014 A 
ATOM     24  C   UNL     1      -5.157  -0.882   0.635  1.00  0.00     0.047 A 
ATOM     25  C   UNL     1      -4.970  -1.295  -1.745  1.00  0.00    -0.009 A 
ATOM     26  C   UNL     1      -5.703  -0.803  -0.649  1.00  0.00     0.123 A 
ATOM     27  C   UNL     1      -5.525  -1.208  -3.141  1.00  0.00     0.048 C 
BRANCH  26  28
ATOM     28  O   UNL     1      -6.927  -0.268  -0.951  1.00  0.00    -0.482 OA
BRANCH  28  29
ATOM     29  C   UNL     1      -7.702   0.249   0.123  1.00  0.00     0.351 C 
BRANCH  29  30
ATOM     30  C   UNL     1      -9.018   0.794  -0.400  1.00  0.00     0.341 C 
ATOM     31  O   UNL     1      -9.421   0.823  -1.551  1.00  0.00    -0.248 OA
BRANCH  30  32
ATOM     32  O   UNL     1      -9.788   1.294   0.593  1.00  0.00    -0.479 OA
ATOM     33  H   UNL     1     -10.590   1.608   0.123  1.00  0.00     0.296 HD
ENDBRANCH  30  32
ENDBRANCH  29  30
ENDBRANCH  28  29
ENDBRANCH  26  28
ENDBRANCH   1  21
TORSDOF 11
