REMARK SMILES COc1cccc2cc(CN(CCCCCCNc3c4c(nc5ccccc35)CCC4)Cc3cc4cccc(OC)c4o3)oc12
REMARK SMILES IDX 13 1 12 2 11 3 10 4 9 5 3 6 4 7 45 8 5 9 44 10 7 11 6 12
REMARK SMILES IDX 8 13 2 14 1 15 32 16 33 17 34 18 43 19 35 20 42 21 36 22
REMARK SMILES IDX 39 23 37 24 38 25 40 26 41 27 14 28 15 29 16 30 17 31 18 32
REMARK SMILES IDX 19 34 20 35 28 36 21 37 31 38 27 39 23 40 22 41 29 42 30 43
REMARK SMILES IDX 26 44 24 45 25 46
REMARK H PARENT 18 33
ROOT
ATOM      1  C   UNL     1       0.034   1.593  -0.973  1.00  0.00     0.016 C 
ENDROOT
BRANCH   1   2
ATOM      2  C   UNL     1      -1.317   1.453  -1.693  1.00  0.00     0.085 C 
BRANCH   2   3
ATOM      3  N   UNL     1      -2.426   2.181  -1.047  1.00  0.00    -0.289 NA
BRANCH   3   4
ATOM      4  C   UNL     1      -2.724   1.706   0.324  1.00  0.00     0.160 C 
BRANCH   4   5
ATOM      5  C   UNL     1      -3.148   0.279   0.444  1.00  0.00     0.119 A 
ATOM      6  C   UNL     1      -2.077  -3.104   0.757  1.00  0.00     0.162 A 
ATOM      7  C   UNL     1      -2.902  -4.236   0.832  1.00  0.00     0.050 A 
ATOM      8  C   UNL     1      -2.747  -1.877   0.648  1.00  0.00     0.176 A 
ATOM      9  C   UNL     1      -4.299  -4.132   0.788  1.00  0.00     0.005 A 
ATOM     10  O   UNL     1      -2.154  -0.649   0.560  1.00  0.00    -0.456 OA
ATOM     11  C   UNL     1      -4.130  -1.736   0.602  1.00  0.00     0.024 A 
ATOM     12  C   UNL     1      -4.929  -2.888   0.671  1.00  0.00     0.012 A 
ATOM     13  C   UNL     1      -4.379  -0.343   0.486  1.00  0.00     0.056 A 
BRANCH   6  14
ATOM     14  O   UNL     1      -0.711  -3.103   0.793  1.00  0.00    -0.493 OA
ATOM     15  C   UNL     1      -0.064  -4.362   0.660  1.00  0.00     0.278 C 
ENDBRANCH   6  14
ENDBRANCH   4   5
ENDBRANCH   3   4
BRANCH   3  16
ATOM     16  C   UNL     1      -3.613   2.151  -1.927  1.00  0.00     0.160 C 
BRANCH  16  17
ATOM     17  C   UNL     1      -4.707   3.064  -1.479  1.00  0.00     0.119 A 
ATOM     18  C   UNL     1      -4.914   4.424  -1.588  1.00  0.00     0.056 A 
ATOM     19  O   UNL     1      -5.759   2.481  -0.834  1.00  0.00    -0.456 OA
ATOM     20  C   UNL     1      -6.176   4.692  -0.995  1.00  0.00     0.024 A 
ATOM     21  C   UNL     1      -6.653   3.468  -0.538  1.00  0.00     0.176 A 
ATOM     22  C   UNL     1      -6.965   5.837  -0.798  1.00  0.00     0.012 A 
ATOM     23  C   UNL     1      -7.872   3.288   0.127  1.00  0.00     0.162 A 
ATOM     24  C   UNL     1      -8.203   5.694  -0.157  1.00  0.00     0.005 A 
ATOM     25  C   UNL     1      -8.646   4.445   0.294  1.00  0.00     0.050 A 
BRANCH  23  26
ATOM     26  O   UNL     1      -8.221   2.028   0.530  1.00  0.00    -0.493 OA
ATOM     27  C   UNL     1      -9.235   1.945   1.525  1.00  0.00     0.278 C 
ENDBRANCH  23  26
ENDBRANCH  16  17
ENDBRANCH   3  16
ENDBRANCH   2   3
ENDBRANCH   1   2
BRANCH   1  28
ATOM     28  C   UNL     1       1.153   0.927  -1.782  1.00  0.00     0.001 C 
BRANCH  28  29
ATOM     29  C   UNL     1       2.510   1.056  -1.085  1.00  0.00     0.002 C 
BRANCH  29  30
ATOM     30  C   UNL     1       3.602   0.319  -1.869  1.00  0.00     0.021 C 
BRANCH  30  31
ATOM     31  C   UNL     1       4.997   0.427  -1.242  1.00  0.00     0.113 C 
BRANCH  31  32
ATOM     32  N   UNL     1       5.027  -0.252   0.038  1.00  0.00    -0.384 N 
ATOM     33  H   UNL     1       4.280  -0.059   0.695  1.00  0.00     0.160 HD
BRANCH  32  34
ATOM     34  C   UNL     1       6.015  -1.129   0.460  1.00  0.00     0.049 A 
ATOM     35  C   UNL     1       7.360  -0.962   0.161  1.00  0.00    -0.003 A 
ATOM     36  C   UNL     1       5.659  -2.290   1.213  1.00  0.00     0.024 A 
ATOM     37  C   UNL     1       8.277  -1.905   0.606  1.00  0.00     0.046 A 
ATOM     38  C   UNL     1       8.071   0.132  -0.576  1.00  0.00     0.040 C 
ATOM     39  C   UNL     1       4.324  -2.609   1.565  1.00  0.00     0.012 A 
ATOM     40  C   UNL     1       6.688  -3.186   1.613  1.00  0.00     0.073 A 
ATOM     41  N   UNL     1       7.983  -3.003   1.313  1.00  0.00    -0.252 NA
ATOM     42  C   UNL     1       9.677  -1.553   0.186  1.00  0.00     0.057 C 
ATOM     43  C   UNL     1       9.521  -0.061  -0.108  1.00  0.00     0.011 C 
ATOM     44  C   UNL     1       4.013  -3.754   2.302  1.00  0.00     0.001 A 
ATOM     45  C   UNL     1       6.350  -4.318   2.342  1.00  0.00     0.029 A 
ATOM     46  C   UNL     1       5.030  -4.611   2.692  1.00  0.00     0.002 A 
ENDBRANCH  32  34
ENDBRANCH  31  32
ENDBRANCH  30  31
ENDBRANCH  29  30
ENDBRANCH  28  29
ENDBRANCH   1  28
TORSDOF 14
