REMARK SMILES O=C(NCCCNc1c2c(nc3ccccc13)CCCC2)c1sc(-c2ccnc(NC(=O)C3CC3)c2)nc1OCC1CC1
REMARK SMILES IDX 1 1 2 2 3 3 22 5 23 6 38 7 24 8 37 9 39 10 40 11 41 12 42 13
REMARK SMILES IDX 43 14 25 15 26 16 36 17 27 18 29 19 28 20 30 21 31 22 32 23
REMARK SMILES IDX 33 25 34 26 35 27 4 28 5 29 6 30 7 31 8 33 9 34 17 35 10 36
REMARK SMILES IDX 21 37 16 38 12 39 11 40 18 41 20 42 15 43 13 44 19 45 14 46
REMARK H PARENT 3 4 30 24 7 32
ROOT
ATOM      1  O   UNL     1      -0.812  -4.540  -0.232  1.00  0.00    -0.268 OA
ATOM      2  C   UNL     1      -0.394  -3.420  -0.518  1.00  0.00     0.267 C 
ATOM      3  N   UNL     1      -1.162  -2.561  -1.284  1.00  0.00    -0.351 N 
ATOM      4  H   UNL     1      -0.797  -1.640  -1.495  1.00  0.00     0.163 HD
ENDROOT
BRANCH   2   5
ATOM      5  C   UNL     1       0.892  -2.894  -0.098  1.00  0.00     0.156 A 
ATOM      6  S   UNL     1       1.476  -1.375  -0.648  1.00  0.00    -0.105 S 
ATOM      7  C   UNL     1       1.834  -3.462   0.742  1.00  0.00     0.238 A 
ATOM      8  C   UNL     1       2.921  -1.584   0.258  1.00  0.00     0.128 A 
ATOM      9  N   UNL     1       2.986  -2.717   0.927  1.00  0.00    -0.201 NA
BRANCH   7  10
ATOM     10  O   UNL     1       1.589  -4.658   1.330  1.00  0.00    -0.476 OA
BRANCH  10  11
ATOM     11  C   UNL     1       2.707  -5.214   2.017  1.00  0.00     0.235 C 
BRANCH  11  12
ATOM     12  C   UNL     1       3.450  -6.144   1.105  1.00  0.00     0.027 C 
ATOM     13  C   UNL     1       4.842  -6.608   1.456  1.00  0.00     0.007 C 
ATOM     14  C   UNL     1       4.635  -5.665   0.303  1.00  0.00     0.007 C 
ENDBRANCH  11  12
ENDBRANCH  10  11
ENDBRANCH   7  10
BRANCH   8  15
ATOM     15  C   UNL     1       4.002  -0.582   0.237  1.00  0.00     0.016 A 
ATOM     16  C   UNL     1       5.298  -0.979   0.576  1.00  0.00     0.031 A 
ATOM     17  C   UNL     1       3.789   0.762  -0.097  1.00  0.00     0.058 A 
ATOM     18  C   UNL     1       6.308  -0.037   0.549  1.00  0.00     0.114 A 
ATOM     19  C   UNL     1       4.863   1.640  -0.100  1.00  0.00     0.133 A 
ATOM     20  N   UNL     1       6.118   1.256   0.214  1.00  0.00    -0.239 NA
BRANCH  19  21
ATOM     21  N   UNL     1       4.763   2.994  -0.415  1.00  0.00    -0.310 N 
ATOM     22  C   UNL     1       3.648   3.701  -0.772  1.00  0.00     0.228 C 
ATOM     23  O   UNL     1       2.515   3.272  -0.928  1.00  0.00    -0.274 OA
ATOM     24  H   UNL     1       5.652   3.471  -0.364  1.00  0.00     0.171 HD
BRANCH  22  25
ATOM     25  C   UNL     1       3.908   5.148  -1.020  1.00  0.00     0.079 C 
ATOM     26  C   UNL     1       4.759   5.989  -0.099  1.00  0.00     0.014 C 
ATOM     27  C   UNL     1       3.271   6.168  -0.105  1.00  0.00     0.014 C 
ENDBRANCH  22  25
ENDBRANCH  19  21
ENDBRANCH   8  15
ENDBRANCH   2   5
BRANCH   3  28
ATOM     28  C   UNL     1      -2.453  -2.922  -1.828  1.00  0.00     0.118 C 
BRANCH  28  29
ATOM     29  C   UNL     1      -3.577  -2.919  -0.793  1.00  0.00     0.042 C 
BRANCH  29  30
ATOM     30  C   UNL     1      -3.782  -1.575  -0.099  1.00  0.00     0.115 C 
BRANCH  30  31
ATOM     31  N   UNL     1      -4.166  -0.550  -1.067  1.00  0.00    -0.384 N 
ATOM     32  H   UNL     1      -4.840  -0.836  -1.771  1.00  0.00     0.160 HD
BRANCH  31  33
ATOM     33  C   UNL     1      -4.402   0.737  -0.542  1.00  0.00     0.049 A 
ATOM     34  C   UNL     1      -3.325   1.619  -0.333  1.00  0.00    -0.003 A 
ATOM     35  C   UNL     1      -5.718   1.134  -0.175  1.00  0.00     0.024 A 
ATOM     36  C   UNL     1      -3.603   2.864   0.238  1.00  0.00     0.046 A 
ATOM     37  C   UNL     1      -1.909   1.231  -0.687  1.00  0.00     0.039 C 
ATOM     38  C   UNL     1      -6.867   0.316  -0.330  1.00  0.00     0.012 A 
ATOM     39  C   UNL     1      -5.877   2.417   0.383  1.00  0.00     0.073 A 
ATOM     40  N   UNL     1      -4.852   3.258   0.581  1.00  0.00    -0.252 NA
ATOM     41  C   UNL     1      -2.529   3.901   0.450  1.00  0.00     0.056 C 
ATOM     42  C   UNL     1      -0.953   2.418  -0.793  1.00  0.00     0.005 C 
ATOM     43  C   UNL     1      -8.133   0.761   0.046  1.00  0.00     0.001 A 
ATOM     44  C   UNL     1      -7.149   2.838   0.750  1.00  0.00     0.029 A 
ATOM     45  C   UNL     1      -1.114   3.333   0.412  1.00  0.00     0.007 C 
ATOM     46  C   UNL     1      -8.275   2.028   0.588  1.00  0.00     0.002 A 
ENDBRANCH  31  33
ENDBRANCH  30  31
ENDBRANCH  29  30
ENDBRANCH  28  29
ENDBRANCH   3  28
TORSDOF 12
