REMARK SMILES CCc1cc(OCCc2nc(-c3ccc(C#N)cc3)oc2C)ncc1CCC(=O)O
REMARK SMILES IDX 3 1 4 2 5 3 23 4 24 5 25 6 2 7 1 8 26 9 27 10 28 11 29 12
REMARK SMILES IDX 30 13 6 15 7 16 8 17 9 18 10 19 21 20 11 21 20 22 22 23
REMARK SMILES IDX 12 24 13 25 19 26 14 27 18 28 15 29 16 30 17 31
REMARK H PARENT 30 14
ROOT
ATOM      1  C   UNL     1       3.416   0.702   0.217  1.00  0.00    -0.038 A 
ATOM      2  C   UNL     1       2.253   0.191   0.815  1.00  0.00     0.072 A 
ATOM      3  C   UNL     1       1.462  -0.705   0.115  1.00  0.00     0.213 A 
ATOM      4  N   UNL     1       1.742  -1.134  -1.127  1.00  0.00    -0.222 NA
ATOM      5  C   UNL     1       2.858  -0.628  -1.697  1.00  0.00     0.119 A 
ATOM      6  C   UNL     1       3.726   0.286  -1.091  1.00  0.00    -0.026 A 
ENDROOT
BRANCH   1   7
ATOM      7  C   UNL     1       4.261   1.669   1.014  1.00  0.00     0.032 C 
ATOM      8  C   UNL     1       4.982   0.994   2.174  1.00  0.00     0.009 C 
ENDBRANCH   1   7
BRANCH   6   9
ATOM      9  C   UNL     1       4.936   0.748  -1.865  1.00  0.00     0.049 C 
BRANCH   9  10
ATOM     10  C   UNL     1       6.189  -0.045  -1.505  1.00  0.00     0.127 C 
BRANCH  10  11
ATOM     11  C   UNL     1       7.368   0.418  -2.311  1.00  0.00     0.303 C 
ATOM     12  O   UNL     1       7.392   1.304  -3.148  1.00  0.00    -0.252 OA
BRANCH  11  13
ATOM     13  O   UNL     1       8.484  -0.276  -2.014  1.00  0.00    -0.481 OA
ATOM     14  H   UNL     1       9.173   0.110  -2.596  1.00  0.00     0.296 HD
ENDBRANCH  11  13
ENDBRANCH  10  11
ENDBRANCH   9  10
ENDBRANCH   6   9
BRANCH   3  15
ATOM     15  O   UNL     1       0.340  -1.171   0.771  1.00  0.00    -0.477 OA
BRANCH  15  16
ATOM     16  C   UNL     1      -0.475  -2.024  -0.043  1.00  0.00     0.238 C 
BRANCH  16  17
ATOM     17  C   UNL     1      -1.689  -2.468   0.771  1.00  0.00     0.101 C 
BRANCH  17  18
ATOM     18  C   UNL     1      -2.701  -1.387   0.926  1.00  0.00     0.086 A 
ATOM     19  N   UNL     1      -3.815  -1.341   0.117  1.00  0.00    -0.214 NA
ATOM     20  C   UNL     1      -2.734  -0.329   1.811  1.00  0.00     0.125 A 
ATOM     21  C   UNL     1      -4.471  -0.271   0.525  1.00  0.00     0.226 A 
ATOM     22  O   UNL     1      -3.865   0.394   1.559  1.00  0.00    -0.441 OA
ATOM     23  C   UNL     1      -1.854   0.156   2.887  1.00  0.00     0.090 C 
BRANCH  21  24
ATOM     24  C   UNL     1      -5.729   0.282   0.029  1.00  0.00     0.037 A 
ATOM     25  C   UNL     1      -6.396  -0.354  -1.030  1.00  0.00     0.015 A 
ATOM     26  C   UNL     1      -6.301   1.439   0.580  1.00  0.00     0.015 A 
ATOM     27  C   UNL     1      -7.602   0.151  -1.527  1.00  0.00     0.020 A 
ATOM     28  C   UNL     1      -7.508   1.947   0.085  1.00  0.00     0.020 A 
ATOM     29  C   UNL     1      -8.161   1.304  -0.970  1.00  0.00     0.052 A 
ATOM     30  C   UNL     1      -9.397   1.824  -1.478  1.00  0.00     0.099 C 
ATOM     31  N   UNL     1     -10.398   2.246  -1.886  1.00  0.00    -0.192 NA
ENDBRANCH  21  24
ENDBRANCH  17  18
ENDBRANCH  16  17
ENDBRANCH  15  16
ENDBRANCH   3  15
TORSDOF 10
