REMARK VINA RESULT:    -8.437      0.000      0.000
REMARK INTER + INTRA:         -13.893
REMARK INTER:                 -13.616
REMARK INTRA:                  -0.277
REMARK UNBOUND:                -0.277
REMARK SMILES COC(=O)N(CC(=O)O)Cc1ccc(F)c(OCc2nc(-c3ccc(Cl)cc3)oc2C)c1
REMARK SMILES IDX 11 1 12 2 13 3 14 4 15 5 16 6 32 7 10 8 5 9 3 10 4 11 2 12
REMARK SMILES IDX 1 13 6 14 7 15 8 16 9 17 17 19 18 20 19 21 20 22 30 23 21 24
REMARK SMILES IDX 29 25 31 26 22 27 23 28 28 29 24 30 27 31 25 32 26 33
REMARK H PARENT 9 18
ROOT
ATOM      1  C   UNL     1      -5.144  -5.168 -20.214  1.00  0.00    -0.025 A 
ATOM      2  C   UNL     1      -6.362  -4.648 -19.755  1.00  0.00     0.009 A 
ATOM      3  C   UNL     1      -7.534  -5.395 -19.870  1.00  0.00     0.043 A 
ATOM      4  C   UNL     1      -7.497  -6.668 -20.435  1.00  0.00     0.165 A 
ATOM      5  F   UNL     1      -8.653  -7.342 -20.519  1.00  0.00    -0.203 F 
ATOM      6  C   UNL     1      -6.297  -7.216 -20.890  1.00  0.00     0.155 A 
ATOM      7  C   UNL     1      -5.127  -6.455 -20.778  1.00  0.00     0.055 A 
ENDROOT
BRANCH   1   8
ATOM      8  C   UNL     1      -3.869  -4.367 -20.083  1.00  0.00     0.159 C 
BRANCH   8   9
ATOM      9  N   UNL     1      -4.045  -2.989 -20.526  1.00  0.00    -0.293 N 
BRANCH   9  10
ATOM     10  C   UNL     1      -3.815  -1.895 -19.713  1.00  0.00     0.410 C 
ATOM     11  O   UNL     1      -2.760  -1.703 -19.119  1.00  0.00    -0.224 OA
BRANCH  10  12
ATOM     12  O   UNL     1      -4.886  -1.058 -19.637  1.00  0.00    -0.453 OA
ATOM     13  C   UNL     1      -4.667   0.224 -20.231  1.00  0.00     0.284 C 
ENDBRANCH  10  12
ENDBRANCH   9  10
BRANCH   9  14
ATOM     14  C   UNL     1      -4.632  -2.754 -21.842  1.00  0.00     0.245 C 
BRANCH  14  15
ATOM     15  C   UNL     1      -3.595  -2.204 -22.811  1.00  0.00     0.323 C 
ATOM     16  O   UNL     1      -2.814  -1.286 -22.606  1.00  0.00    -0.250 OA
BRANCH  15  17
ATOM     17  O   UNL     1      -3.656  -2.788 -24.025  1.00  0.00    -0.480 OA
ATOM     18  H   UNL     1      -4.190  -2.164 -24.562  1.00  0.00     0.296 HD
ENDBRANCH  15  17
ENDBRANCH  14  15
ENDBRANCH   9  14
ENDBRANCH   8   9
ENDBRANCH   1   8
BRANCH   6  19
ATOM     19  O   UNL     1      -6.107  -8.454 -21.443  1.00  0.00    -0.484 OA
BRANCH  19  20
ATOM     20  C   UNL     1      -7.271  -9.248 -21.690  1.00  0.00     0.289 C 
BRANCH  20  21
ATOM     21  C   UNL     1      -7.595  -9.266 -23.145  1.00  0.00     0.120 A 
ATOM     22  N   UNL     1      -8.682  -8.586 -23.654  1.00  0.00    -0.210 NA
ATOM     23  C   UNL     1      -6.943  -9.917 -24.172  1.00  0.00     0.128 A 
ATOM     24  C   UNL     1      -8.645  -8.835 -24.951  1.00  0.00     0.226 A 
ATOM     25  O   UNL     1      -7.609  -9.648 -25.334  1.00  0.00    -0.441 OA
ATOM     26  C   UNL     1      -5.748 -10.774 -24.268  1.00  0.00     0.090 C 
BRANCH  24  27
ATOM     27  C   UNL     1      -9.536  -8.361 -26.008  1.00  0.00     0.037 A 
ATOM     28  C   UNL     1      -9.119  -8.265 -27.345  1.00  0.00     0.015 A 
ATOM     29  C   UNL     1     -10.852  -7.985 -25.687  1.00  0.00     0.015 A 
ATOM     30  C   UNL     1      -9.991  -7.799 -28.335  1.00  0.00     0.021 A 
ATOM     31  C   UNL     1     -11.726  -7.517 -26.675  1.00  0.00     0.021 A 
ATOM     32  C   UNL     1     -11.290  -7.425 -27.994  1.00  0.00     0.041 A 
ATOM     33  Cl  UNL     1     -12.359  -6.843 -29.211  1.00  0.00    -0.084 Cl
ENDBRANCH  24  27
ENDBRANCH  20  21
ENDBRANCH  19  20
ENDBRANCH   6  19
TORSDOF 11
