REMARK SMILES Oc1cc(CC(F)(F)F)c(-c2nc(NCCC3CC3)c3cn[nH]c3n2)cc1F
REMARK SMILES IDX 11 1 12 2 13 3 20 4 21 5 22 6 23 7 24 8 25 9 10 11 2 12 3 13
REMARK SMILES IDX 27 14 4 15 26 16 28 17 1 18 5 20 6 21 7 22 8 23 9 24 14 25
REMARK SMILES IDX 15 27 16 28 17 29 18 30 19 31
REMARK H PARENT 23 10 1 19 14 26
REMARK INDEX MAP 11 1 12 2 13 3 20 4 21 5 22 6 23 7 24 8 25 9 44 10 10 11 2 12
REMARK INDEX MAP 3 13 27 14 4 15 26 16 28 17 1 18 29 19 5 20 6 21 7 22 8 23
REMARK INDEX MAP 9 24 14 25 33 26 15 27 16 28 17 29 18 30 19 31
ROOT
ATOM      1  C   UNL     1      -3.494  25.181 -29.395  1.00  0.00     0.164 A 
ATOM      2  N   UNL     1      -2.998  24.094 -30.028  1.00  0.00    -0.210 NA
ATOM      3  C   UNL     1      -2.380  23.115 -29.317  1.00  0.00     0.141 A 
ATOM      4  C   UNL     1      -2.290  23.287 -27.932  1.00  0.00     0.081 A 
ATOM      5  C   UNL     1      -1.775  22.603 -26.812  1.00  0.00     0.149 A 
ATOM      6  N   UNL     1      -1.980  23.255 -25.661  1.00  0.00    -0.181 NA
ATOM      7  N   UNL     1      -2.630  24.372 -26.055  1.00  0.00    -0.261 N 
ATOM      8  C   UNL     1      -2.844  24.434 -27.401  1.00  0.00     0.161 A 
ATOM      9  N   UNL     1      -3.468  25.415 -28.066  1.00  0.00    -0.209 NA
ATOM     10  H   UNL     1      -2.935  25.107 -25.401  1.00  0.00     0.192 HD
ENDROOT
BRANCH   1  11
ATOM     11  C   UNL     1      -4.163  26.208 -30.229  1.00  0.00     0.026 A 
ATOM     12  C   UNL     1      -5.355  28.301 -31.713  1.00  0.00     0.151 A 
ATOM     13  C   UNL     1      -5.608  26.982 -32.058  1.00  0.00     0.054 A 
ATOM     14  C   UNL     1      -4.519  28.591 -30.650  1.00  0.00     0.165 A 
ATOM     15  C   UNL     1      -5.024  25.920 -31.329  1.00  0.00    -0.024 A 
ATOM     16  C   UNL     1      -3.929  27.568 -29.917  1.00  0.00     0.055 A 
ATOM     17  F   UNL     1      -4.280  29.869 -30.325  1.00  0.00    -0.203 F 
BRANCH  12  18
ATOM     18  O   UNL     1      -5.942  29.293 -32.443  1.00  0.00    -0.505 OA
ATOM     19  H   UNL     1      -5.775  30.241 -32.214  1.00  0.00     0.293 HD
ENDBRANCH  12  18
BRANCH  15  20
ATOM     20  C   UNL     1      -5.336  24.510 -31.805  1.00  0.00     0.151 C 
BRANCH  20  21
ATOM     21  C   UNL     1      -5.800  24.416 -33.250  1.00  0.00     0.393 C 
ATOM     22  F   UNL     1      -7.149  24.482 -33.336  1.00  0.00    -0.171 F 
ATOM     23  F   UNL     1      -5.290  25.383 -34.037  1.00  0.00    -0.171 F 
ATOM     24  F   UNL     1      -5.426  23.226 -33.780  1.00  0.00    -0.171 F 
ENDBRANCH  20  21
ENDBRANCH  15  20
ENDBRANCH   1  11
BRANCH   3  25
ATOM     25  N   UNL     1      -1.871  22.007 -29.957  1.00  0.00    -0.369 N 
ATOM     26  H   UNL     1      -0.986  22.081 -30.479  1.00  0.00     0.162 HD
BRANCH  25  27
ATOM     27  C   UNL     1      -2.570  20.737 -29.903  1.00  0.00     0.115 C 
BRANCH  27  28
ATOM     28  C   UNL     1      -4.082  20.938 -30.055  1.00  0.00     0.025 C 
BRANCH  28  29
ATOM     29  C   UNL     1      -4.520  20.958 -31.494  1.00  0.00    -0.009 C 
ATOM     30  C   UNL     1      -4.852  19.674 -32.208  1.00  0.00     0.004 C 
ATOM     31  C   UNL     1      -5.949  20.636 -31.847  1.00  0.00     0.004 C 
ENDBRANCH  28  29
ENDBRANCH  27  28
ENDBRANCH  25  27
ENDBRANCH   3  25
TORSDOF 8
