MODEL 1
REMARK VINA RESULT:    -8.975      0.000      0.000
REMARK INTER + INTRA:         -12.455
REMARK INTER:                 -11.336
REMARK INTRA:                  -1.119
REMARK UNBOUND:                -1.119
REMARK SMILES CC(C)[C@H](C)n1cc(-c2cc(C3CCOCC3)n(C)n2)c2[nH]nc(N)c2c1=O
REMARK SMILES IDX 6 1 7 2 8 3 21 4 22 5 23 6 24 7 26 8 27 9 28 10 4 12 5 13
REMARK SMILES IDX 2 14 1 15 3 16 9 17 10 18 20 19 11 20 18 21 19 22 12 23
REMARK SMILES IDX 13 24 17 25 14 26 16 27 15 28 25 29
REMARK H PARENT 22 11 25 30 25 31
ROOT
ATOM      1  N   UNL     1       5.352 -25.122  22.155  1.00  0.00    -0.311 N 
ATOM      2  C   UNL     1       6.407 -25.379  23.058  1.00  0.00     0.102 A 
ATOM      3  C   UNL     1       6.678 -26.588  23.611  1.00  0.00     0.044 A 
ATOM      4  C   UNL     1       5.743 -27.578  23.219  1.00  0.00     0.084 A 
ATOM      5  N   UNL     1       5.667 -28.853  23.680  1.00  0.00    -0.275 N 
ATOM      6  N   UNL     1       4.678 -29.560  23.096  1.00  0.00    -0.157 NA
ATOM      7  C   UNL     1       4.063 -28.673  22.312  1.00  0.00     0.158 A 
ATOM      8  C   UNL     1       4.690 -27.417  22.352  1.00  0.00     0.110 A 
ATOM      9  C   UNL     1       4.447 -26.135  21.732  1.00  0.00     0.264 A 
ATOM     10  O   UNL     1       3.546 -25.965  20.916  1.00  0.00    -0.268 OA
ATOM     11  H   UNL     1       6.238 -29.314  24.380  1.00  0.00     0.190 HD
ENDROOT
BRANCH   1  12
ATOM     12  C   UNL     1       5.176 -23.757  21.606  1.00  0.00     0.090 C 
ATOM     13  C   UNL     1       5.423 -22.706  22.698  1.00  0.00     0.032 C 
BRANCH  12  14
ATOM     14  C   UNL     1       6.023 -23.524  20.320  1.00  0.00     0.005 C 
ATOM     15  C   UNL     1       6.919 -22.286  20.433  1.00  0.00     0.009 C 
ATOM     16  C   UNL     1       5.126 -23.375  19.083  1.00  0.00     0.009 C 
ENDBRANCH  12  14
ENDBRANCH   1  12
BRANCH   3  17
ATOM     17  C   UNL     1       7.810 -26.774  24.485  1.00  0.00     0.096 A 
ATOM     18  C   UNL     1       8.739 -25.767  24.850  1.00  0.00     0.054 A 
ATOM     19  N   UNL     1       8.107 -27.931  25.092  1.00  0.00    -0.173 NA
ATOM     20  C   UNL     1       9.644 -26.372  25.701  1.00  0.00     0.042 A 
ATOM     21  N   UNL     1       9.224 -27.676  25.795  1.00  0.00    -0.272 N 
ATOM     22  C   UNL     1       9.833 -28.748  26.550  1.00  0.00     0.174 C 
BRANCH  20  23
ATOM     23  C   UNL     1      10.850 -25.828  26.414  1.00  0.00     0.042 C 
ATOM     24  C   UNL     1      10.559 -25.495  27.880  1.00  0.00     0.038 C 
ATOM     25  C   UNL     1      11.408 -24.590  25.693  1.00  0.00     0.038 C 
ATOM     26  C   UNL     1      11.825 -25.000  28.578  1.00  0.00     0.161 C 
ATOM     27  C   UNL     1      12.156 -23.664  26.646  1.00  0.00     0.161 C 
ATOM     28  O   UNL     1      12.775 -24.425  27.678  1.00  0.00    -0.381 OA
ENDBRANCH  20  23
ENDBRANCH   3  17
BRANCH   7  29
ATOM     29  N   UNL     1       2.979 -28.962  21.583  1.00  0.00    -0.382 N 
ATOM     30  H   UNL     1       3.098 -29.096  20.587  1.00  0.00     0.158 HD
ATOM     31  H   UNL     1       2.067 -28.612  21.864  1.00  0.00     0.158 HD
ENDBRANCH   7  29
TORSDOF 5
ENDMDL
