MODEL 1
REMARK minimizedAffinity -7.98713493
REMARK CNNscore 0.944377542
REMARK CNNaffinity 7.84810972
REMARK SMILES CN1CCN(CCC#CC(=O)Nc2cc3c(Nc4ccc(F)c(Br)c4)ncnc3cn2)CC1
REMARK SMILES IDX 9 1 10 2 11 3 12 4 8 6 7 7 6 8 5 9 2 10 3 11 33 12 4 13
REMARK SMILES IDX 32 14 1 15 13 16 14 17 31 18 15 19 30 20 16 21 29 22 26 23
REMARK SMILES IDX 28 24 27 25 17 26 18 28 19 29 25 30 20 31 23 32 21 33 24 34
REMARK SMILES IDX 22 35
REMARK H PARENT 12 5 17 27
ROOT
ATOM      1  C   UNL     1      17.281   6.120  24.034  1.00  0.00    -0.005 C 
ATOM      2  C   UNL     1      17.003   5.094  25.018  1.00  0.00     0.301 C 
ATOM      3  O   UNL     1      16.588   5.435  26.116  1.00  0.00    -0.259 OA
ATOM      4  N   UNL     1      17.237   3.821  24.575  1.00  0.00    -0.300 N 
ATOM      5  H   UNL     1      17.541   3.690  23.620  1.00  0.00     0.172 HD
ENDROOT
BRANCH   1   6
ATOM      6  C   UNL     1      17.514   6.969  23.216  1.00  0.00    -0.092 C 
ATOM      7  C   UNL     1      17.805   8.007  22.210  1.00  0.00     0.105 C 
BRANCH   7   8
ATOM      8  C   UNL     1      18.577   7.422  21.020  1.00  0.00     0.097 C 
BRANCH   8   9
ATOM      9  N   UNL     1      18.250   7.894  19.673  1.00  0.00    -0.300 NA
ATOM     10  N   UNL     1      17.407  10.652  18.915  1.00  0.00    -0.304 NA
ATOM     11  C   UNL     1      16.493   9.755  19.640  1.00  0.00     0.099 C 
ATOM     12  C   UNL     1      18.800  10.365  19.296  1.00  0.00     0.099 C 
ATOM     13  C   UNL     1      16.847   8.262  19.447  1.00  0.00     0.100 C 
ATOM     14  C   UNL     1      19.176   8.878  19.099  1.00  0.00     0.100 C 
ATOM     15  C   UNL     1      17.073  12.053  19.156  1.00  0.00     0.105 C 
ENDBRANCH   8   9
ENDBRANCH   7   8
ENDBRANCH   1   6
BRANCH   4  16
ATOM     16  C   UNL     1      17.073   2.626  25.268  1.00  0.00     0.134 A 
ATOM     17  C   UNL     1      16.053   2.377  26.171  1.00  0.00     0.061 A 
ATOM     18  N   UNL     1      18.011   1.706  24.985  1.00  0.00    -0.237 NA
ATOM     19  C   UNL     1      15.974   1.113  26.811  1.00  0.00     0.048 A 
ATOM     20  C   UNL     1      17.915   0.508  25.622  1.00  0.00     0.142 A 
ATOM     21  C   UNL     1      14.985   0.731  27.739  1.00  0.00     0.141 A 
ATOM     22  C   UNL     1      16.938   0.144  26.533  1.00  0.00     0.094 A 
ATOM     23  N   UNL     1      14.992  -0.482  28.322  1.00  0.00    -0.219 NA
ATOM     24  N   UNL     1      16.946  -1.071  27.099  1.00  0.00    -0.235 NA
ATOM     25  C   UNL     1      15.969  -1.322  27.974  1.00  0.00     0.224 A 
BRANCH  21  26
ATOM     26  N   UNL     1      13.957   1.655  28.066  1.00  0.00    -0.340 N 
ATOM     27  H   UNL     1      13.391   1.838  27.242  1.00  0.00     0.168 HD
BRANCH  26  28
ATOM     28  C   UNL     1      13.196   1.751  29.253  1.00  0.00     0.041 A 
ATOM     29  C   UNL     1      13.870   1.833  30.484  1.00  0.00     0.029 A 
ATOM     30  C   UNL     1      11.798   1.647  29.270  1.00  0.00     0.044 A 
ATOM     31  C   UNL     1      13.166   1.872  31.691  1.00  0.00     0.042 A 
ATOM     32  C   UNL     1      11.093   1.687  30.476  1.00  0.00     0.055 A 
ATOM     33  C   UNL     1      11.779   1.806  31.679  1.00  0.00     0.137 A 
ATOM     34  Br  UNL     1       9.205   1.565  30.455  1.00  0.00    -0.048 Br
ATOM     35  F   UNL     1      11.123   1.845  32.848  1.00  0.00    -0.206 F 
ENDBRANCH  26  28
ENDBRANCH  21  26
ENDBRANCH   4  16
TORSDOF 6
ENDMDL
