MODEL 1
REMARK VINA RESULT:    -9.571      0.000      0.000
REMARK INTER + INTRA:         -11.919
REMARK INTER:                 -11.250
REMARK INTRA:                  -0.669
REMARK UNBOUND:                -0.669
REMARK SMILES CCn1c2ccccc2c2cc(/C=C/c3ccc4ccccc4[n+]3C)ccc21
REMARK SMILES IDX 3 1 4 2 5 3 6 4 7 5 8 6 9 7 10 8 11 9 12 10 26 11 27 12
REMARK SMILES IDX 28 13 2 14 1 15 13 16 14 17 15 18 16 19 24 20 17 21 23 22
REMARK SMILES IDX 18 23 22 24 19 25 21 26 20 27 25 28
REMARK H PARENT
ROOT
ATOM      1  N   UNL     1     133.242 113.939  41.673  1.00  0.00    -0.341 N 
ATOM      2  C   UNL     1     133.333 115.276  41.333  1.00  0.00     0.049 A 
ATOM      3  C   UNL     1     132.755 116.420  41.912  1.00  0.00     0.027 A 
ATOM      4  C   UNL     1     133.035 117.664  41.340  1.00  0.00     0.002 A 
ATOM      5  C   UNL     1     133.866 117.769  40.230  1.00  0.00     0.001 A 
ATOM      6  C   UNL     1     134.439 116.627  39.662  1.00  0.00     0.011 A 
ATOM      7  C   UNL     1     134.172 115.359  40.221  1.00  0.00     0.007 A 
ATOM      8  C   UNL     1     134.591 114.031  39.897  1.00  0.00     0.008 A 
ATOM      9  C   UNL     1     135.432 113.495  38.896  1.00  0.00     0.019 A 
ATOM     10  C   UNL     1     135.659 112.111  38.827  1.00  0.00    -0.025 A 
ATOM     11  C   UNL     1     135.074 111.275  39.782  1.00  0.00     0.010 A 
ATOM     12  C   UNL     1     134.239 111.781  40.785  1.00  0.00     0.027 A 
ATOM     13  C   UNL     1     134.005 113.164  40.819  1.00  0.00     0.049 A 
ENDROOT
BRANCH   1  14
ATOM     14  C   UNL     1     132.451 113.422  42.780  1.00  0.00     0.119 C 
ATOM     15  C   UNL     1     131.026 113.099  42.367  1.00  0.00     0.027 C 
ENDBRANCH   1  14
BRANCH  10  16
ATOM     16  C   UNL     1     136.539 111.515  37.810  1.00  0.00     0.015 C 
ATOM     17  C   UNL     1     137.680 110.872  38.111  1.00  0.00     0.080 C 
BRANCH  17  18
ATOM     18  C   UNL     1     138.561 110.301  37.085  1.00  0.00     0.205 A 
ATOM     19  C   UNL     1     137.984 109.783  35.924  1.00  0.00     0.080 A 
ATOM     20  N   UNL     1     139.910 110.228  37.281  1.00  0.00    -0.195 N 
ATOM     21  C   UNL     1     138.775 109.182  34.962  1.00  0.00     0.022 A 
ATOM     22  C   UNL     1     140.720 109.606  36.361  1.00  0.00     0.212 A 
ATOM     23  C   UNL     1     140.145 109.080  35.172  1.00  0.00     0.046 A 
ATOM     24  C   UNL     1     142.111 109.457  36.538  1.00  0.00     0.080 A 
ATOM     25  C   UNL     1     140.953 108.452  34.214  1.00  0.00     0.015 A 
ATOM     26  C   UNL     1     142.903 108.826  35.574  1.00  0.00     0.007 A 
ATOM     27  C   UNL     1     142.327 108.327  34.414  1.00  0.00     0.001 A 
ATOM     28  C   UNL     1     140.521 110.849  38.481  1.00  0.00     0.441 C 
ENDBRANCH  17  18
ENDBRANCH  10  16
TORSDOF 3
ENDMDL
MODEL 2
REMARK VINA RESULT:    -9.569      2.910      3.777
REMARK INTER + INTRA:         -11.917
REMARK INTER:                 -11.249
REMARK INTRA:                  -0.667
REMARK UNBOUND:                -0.669
REMARK SMILES CCn1c2ccccc2c2cc(/C=C/c3ccc4ccccc4[n+]3C)ccc21
REMARK SMILES IDX 3 1 4 2 5 3 6 4 7 5 8 6 9 7 10 8 11 9 12 10 26 11 27 12
REMARK SMILES IDX 28 13 2 14 1 15 13 16 14 17 15 18 16 19 24 20 17 21 23 22
REMARK SMILES IDX 18 23 22 24 19 25 21 26 20 27 25 28
REMARK H PARENT
ROOT
ATOM      1  N   UNL     1     133.214 115.321  42.912  1.00  0.00    -0.341 N 
ATOM      2  C   UNL     1     133.553 116.100  41.822  1.00  0.00     0.049 A 
ATOM      3  C   UNL     1     133.061 117.342  41.382  1.00  0.00     0.027 A 
ATOM      4  C   UNL     1     133.611 117.898  40.223  1.00  0.00     0.002 A 
ATOM      5  C   UNL     1     134.619 117.243  39.525  1.00  0.00     0.001 A 
ATOM      6  C   UNL     1     135.105 116.010  39.971  1.00  0.00     0.011 A 
ATOM      7  C   UNL     1     134.567 115.427  41.139  1.00  0.00     0.007 A 
ATOM      8  C   UNL     1     134.835 114.216  41.849  1.00  0.00     0.008 A 
ATOM      9  C   UNL     1     135.743 113.151  41.646  1.00  0.00     0.019 A 
ATOM     10  C   UNL     1     135.774 112.067  42.537  1.00  0.00    -0.025 A 
ATOM     11  C   UNL     1     134.924 112.070  43.646  1.00  0.00     0.010 A 
ATOM     12  C   UNL     1     134.017 113.113  43.872  1.00  0.00     0.027 A 
ATOM     13  C   UNL     1     133.985 114.174  42.954  1.00  0.00     0.049 A 
ENDROOT
BRANCH   1  14
ATOM     14  C   UNL     1     132.184 115.665  43.882  1.00  0.00     0.119 C 
ATOM     15  C   UNL     1     130.871 114.955  43.602  1.00  0.00     0.027 C 
ENDBRANCH   1  14
BRANCH  10  16
ATOM     16  C   UNL     1     136.713 110.947  42.370  1.00  0.00     0.015 C 
ATOM     17  C   UNL     1     136.937 110.346  41.189  1.00  0.00     0.080 C 
BRANCH  17  18
ATOM     18  C   UNL     1     137.860 109.215  41.040  1.00  0.00     0.205 A 
ATOM     19  C   UNL     1     137.629 108.062  41.793  1.00  0.00     0.080 A 
ATOM     20  N   UNL     1     138.952 109.304  40.225  1.00  0.00    -0.195 N 
ATOM     21  C   UNL     1     138.510 106.999  41.725  1.00  0.00     0.022 A 
ATOM     22  C   UNL     1     139.866 108.279  40.162  1.00  0.00     0.212 A 
ATOM     23  C   UNL     1     139.637 107.097  40.919  1.00  0.00     0.046 A 
ATOM     24  C   UNL     1     141.036 108.340  39.378  1.00  0.00     0.080 A 
ATOM     25  C   UNL     1     140.551 106.034  40.862  1.00  0.00     0.015 A 
ATOM     26  C   UNL     1     141.937 107.271  39.332  1.00  0.00     0.007 A 
ATOM     27  C   UNL     1     141.694 106.121  40.070  1.00  0.00     0.001 A 
ATOM     28  C   UNL     1     139.147 110.501  39.371  1.00  0.00     0.441 C 
ENDBRANCH  17  18
ENDBRANCH  10  16
TORSDOF 3
ENDMDL
MODEL 3
REMARK VINA RESULT:    -9.470      1.329      1.923
REMARK INTER + INTRA:         -11.800
REMARK INTER:                 -11.172
REMARK INTRA:                  -0.628
REMARK UNBOUND:                -0.669
REMARK SMILES CCn1c2ccccc2c2cc(/C=C/c3ccc4ccccc4[n+]3C)ccc21
REMARK SMILES IDX 3 1 4 2 5 3 6 4 7 5 8 6 9 7 10 8 11 9 12 10 26 11 27 12
REMARK SMILES IDX 28 13 2 14 1 15 13 16 14 17 15 18 16 19 24 20 17 21 23 22
REMARK SMILES IDX 18 23 22 24 19 25 21 26 20 27 25 28
REMARK H PARENT
ROOT
ATOM      1  N   UNL     1     132.992 115.453  42.257  1.00  0.00    -0.341 N 
ATOM      2  C   UNL     1     133.262 116.586  41.513  1.00  0.00     0.049 A 
ATOM      3  C   UNL     1     133.013 117.946  41.773  1.00  0.00     0.027 A 
ATOM      4  C   UNL     1     133.408 118.885  40.816  1.00  0.00     0.002 A 
ATOM      5  C   UNL     1     134.033 118.487  39.640  1.00  0.00     0.001 A 
ATOM      6  C   UNL     1     134.280 117.134  39.391  1.00  0.00     0.011 A 
ATOM      7  C   UNL     1     133.891 116.165  40.341  1.00  0.00     0.007 A 
ATOM      8  C   UNL     1     133.998 114.741  40.396  1.00  0.00     0.008 A 
ATOM      9  C   UNL     1     134.538 113.772  39.520  1.00  0.00     0.019 A 
ATOM     10  C   UNL     1     134.494 112.410  39.856  1.00  0.00    -0.025 A 
ATOM     11  C   UNL     1     133.946 112.027  41.082  1.00  0.00     0.010 A 
ATOM     12  C   UNL     1     133.407 112.966  41.970  1.00  0.00     0.027 A 
ATOM     13  C   UNL     1     133.438 114.320  41.602  1.00  0.00     0.049 A 
ENDROOT
BRANCH   1  14
ATOM     14  C   UNL     1     132.329 115.456  43.553  1.00  0.00     0.119 C 
ATOM     15  C   UNL     1     130.891 114.979  43.464  1.00  0.00     0.027 C 
ENDBRANCH   1  14
BRANCH  10  16
ATOM     16  C   UNL     1     135.057 111.372  38.978  1.00  0.00     0.015 C 
ATOM     17  C   UNL     1     136.291 111.446  38.451  1.00  0.00     0.080 C 
BRANCH  17  18
ATOM     18  C   UNL     1     136.833 110.415  37.558  1.00  0.00     0.205 A 
ATOM     19  C   UNL     1     136.008 109.349  37.193  1.00  0.00     0.080 A 
ATOM     20  N   UNL     1     138.131 110.464  37.135  1.00  0.00    -0.195 N 
ATOM     21  C   UNL     1     136.502 108.326  36.403  1.00  0.00     0.022 A 
ATOM     22  C   UNL     1     138.661 109.446  36.379  1.00  0.00     0.212 A 
ATOM     23  C   UNL     1     137.829 108.359  35.995  1.00  0.00     0.046 A 
ATOM     24  C   UNL     1     140.007 109.422  35.960  1.00  0.00     0.080 A 
ATOM     25  C   UNL     1     138.346 107.315  35.214  1.00  0.00     0.015 A 
ATOM     26  C   UNL     1     140.508 108.373  35.182  1.00  0.00     0.007 A 
ATOM     27  C   UNL     1     139.679 107.324  34.808  1.00  0.00     0.001 A 
ATOM     28  C   UNL     1     138.975 111.638  37.465  1.00  0.00     0.441 C 
ENDBRANCH  17  18
ENDBRANCH  10  16
TORSDOF 3
ENDMDL
MODEL 4
REMARK VINA RESULT:    -9.227      3.155      4.714
REMARK INTER + INTRA:         -11.515
REMARK INTER:                 -10.822
REMARK INTRA:                  -0.693
REMARK UNBOUND:                -0.669
REMARK SMILES CCn1c2ccccc2c2cc(/C=C/c3ccc4ccccc4[n+]3C)ccc21
REMARK SMILES IDX 3 1 4 2 5 3 6 4 7 5 8 6 9 7 10 8 11 9 12 10 26 11 27 12
REMARK SMILES IDX 28 13 2 14 1 15 13 16 14 17 15 18 16 19 24 20 17 21 23 22
REMARK SMILES IDX 18 23 22 24 19 25 21 26 20 27 25 28
REMARK H PARENT
ROOT
ATOM      1  N   UNL     1     134.845 117.645  39.657  1.00  0.00    -0.341 N 
ATOM      2  C   UNL     1     134.454 117.446  38.347  1.00  0.00     0.049 A 
ATOM      3  C   UNL     1     133.899 118.328  37.402  1.00  0.00     0.027 A 
ATOM      4  C   UNL     1     133.603 117.833  36.129  1.00  0.00     0.002 A 
ATOM      5  C   UNL     1     133.854 116.504  35.803  1.00  0.00     0.001 A 
ATOM      6  C   UNL     1     134.408 115.635  36.747  1.00  0.00     0.011 A 
ATOM      7  C   UNL     1     134.717 116.110  38.040  1.00  0.00     0.007 A 
ATOM      8  C   UNL     1     135.282 115.503  39.204  1.00  0.00     0.008 A 
ATOM      9  C   UNL     1     135.746 114.200  39.492  1.00  0.00     0.019 A 
ATOM     10  C   UNL     1     136.260 113.895  40.763  1.00  0.00    -0.025 A 
ATOM     11  C   UNL     1     136.343 114.904  41.725  1.00  0.00     0.010 A 
ATOM     12  C   UNL     1     135.893 116.204  41.465  1.00  0.00     0.027 A 
ATOM     13  C   UNL     1     135.359 116.480  40.197  1.00  0.00     0.049 A 
ENDROOT
BRANCH   1  14
ATOM     14  C   UNL     1     134.730 118.909  40.369  1.00  0.00     0.119 C 
ATOM     15  C   UNL     1     133.456 118.993  41.190  1.00  0.00     0.027 C 
ENDBRANCH   1  14
BRANCH  10  16
ATOM     16  C   UNL     1     136.765 112.555  41.098  1.00  0.00     0.015 C 
ATOM     17  C   UNL     1     137.098 111.642  40.170  1.00  0.00     0.080 C 
BRANCH  17  18
ATOM     18  C   UNL     1     137.580 110.300  40.518  1.00  0.00     0.205 A 
ATOM     19  C   UNL     1     137.013 109.651  41.616  1.00  0.00     0.080 A 
ATOM     20  N   UNL     1     138.599 109.717  39.818  1.00  0.00    -0.195 N 
ATOM     21  C   UNL     1     137.482 108.413  42.012  1.00  0.00     0.022 A 
ATOM     22  C   UNL     1     139.112 108.503  40.207  1.00  0.00     0.212 A 
ATOM     23  C   UNL     1     138.537 107.830  41.320  1.00  0.00     0.046 A 
ATOM     24  C   UNL     1     140.196 107.882  39.553  1.00  0.00     0.080 A 
ATOM     25  C   UNL     1     139.037 106.585  41.728  1.00  0.00     0.015 A 
ATOM     26  C   UNL     1     140.683 106.640  39.973  1.00  0.00     0.007 A 
ATOM     27  C   UNL     1     140.104 105.992  41.056  1.00  0.00     0.001 A 
ATOM     28  C   UNL     1     139.143 110.379  38.608  1.00  0.00     0.441 C 
ENDBRANCH  17  18
ENDBRANCH  10  16
TORSDOF 3
ENDMDL
MODEL 5
REMARK VINA RESULT:    -9.152      1.312      3.002
REMARK INTER + INTRA:         -11.426
REMARK INTER:                 -10.847
REMARK INTRA:                  -0.579
REMARK UNBOUND:                -0.669
REMARK SMILES CCn1c2ccccc2c2cc(/C=C/c3ccc4ccccc4[n+]3C)ccc21
REMARK SMILES IDX 3 1 4 2 5 3 6 4 7 5 8 6 9 7 10 8 11 9 12 10 26 11 27 12
REMARK SMILES IDX 28 13 2 14 1 15 13 16 14 17 15 18 16 19 24 20 17 21 23 22
REMARK SMILES IDX 18 23 22 24 19 25 21 26 20 27 25 28
REMARK H PARENT
ROOT
ATOM      1  N   UNL     1     133.104 116.510  41.051  1.00  0.00    -0.341 N 
ATOM      2  C   UNL     1     132.485 115.758  42.032  1.00  0.00     0.049 A 
ATOM      3  C   UNL     1     131.713 116.140  43.143  1.00  0.00     0.027 A 
ATOM      4  C   UNL     1     131.206 115.136  43.974  1.00  0.00     0.002 A 
ATOM      5  C   UNL     1     131.456 113.794  43.706  1.00  0.00     0.001 A 
ATOM      6  C   UNL     1     132.222 113.423  42.598  1.00  0.00     0.011 A 
ATOM      7  C   UNL     1     132.745 114.418  41.743  1.00  0.00     0.007 A 
ATOM      8  C   UNL     1     133.540 114.378  40.556  1.00  0.00     0.008 A 
ATOM      9  C   UNL     1     134.095 113.326  39.792  1.00  0.00     0.019 A 
ATOM     10  C   UNL     1     134.851 113.607  38.643  1.00  0.00    -0.025 A 
ATOM     11  C   UNL     1     135.017 114.935  38.243  1.00  0.00     0.010 A 
ATOM     12  C   UNL     1     134.475 115.996  38.979  1.00  0.00     0.027 A 
ATOM     13  C   UNL     1     133.745 115.694  40.138  1.00  0.00     0.049 A 
ENDROOT
BRANCH   1  14
ATOM     14  C   UNL     1     133.082 117.965  40.992  1.00  0.00     0.119 C 
ATOM     15  C   UNL     1     134.427 118.575  41.344  1.00  0.00     0.027 C 
ENDBRANCH   1  14
BRANCH  10  16
ATOM     16  C   UNL     1     135.434 112.541  37.814  1.00  0.00     0.015 C 
ATOM     17  C   UNL     1     136.634 111.991  38.061  1.00  0.00     0.080 C 
BRANCH  17  18
ATOM     18  C   UNL     1     137.214 110.943  37.212  1.00  0.00     0.205 A 
ATOM     19  C   UNL     1     136.360 109.995  36.645  1.00  0.00     0.080 A 
ATOM     20  N   UNL     1     138.564 110.861  37.023  1.00  0.00    -0.195 N 
ATOM     21  C   UNL     1     136.875 108.957  35.890  1.00  0.00     0.022 A 
ATOM     22  C   UNL     1     139.111 109.822  36.307  1.00  0.00     0.212 A 
ATOM     23  C   UNL     1     138.250 108.855  35.720  1.00  0.00     0.046 A 
ATOM     24  C   UNL     1     140.499 109.661  36.126  1.00  0.00     0.080 A 
ATOM     25  C   UNL     1     138.785 107.792  34.976  1.00  0.00     0.015 A 
ATOM     26  C   UNL     1     141.017 108.595  35.382  1.00  0.00     0.007 A 
ATOM     27  C   UNL     1     140.162 107.665  34.807  1.00  0.00     0.001 A 
ATOM     28  C   UNL     1     139.456 111.915  37.565  1.00  0.00     0.441 C 
ENDBRANCH  17  18
ENDBRANCH  10  16
TORSDOF 3
ENDMDL
MODEL 6
REMARK VINA RESULT:    -9.088      2.096      3.571
REMARK INTER + INTRA:         -11.351
REMARK INTER:                 -10.713
REMARK INTRA:                  -0.638
REMARK UNBOUND:                -0.669
REMARK SMILES CCn1c2ccccc2c2cc(/C=C/c3ccc4ccccc4[n+]3C)ccc21
REMARK SMILES IDX 3 1 4 2 5 3 6 4 7 5 8 6 9 7 10 8 11 9 12 10 26 11 27 12
REMARK SMILES IDX 28 13 2 14 1 15 13 16 14 17 15 18 16 19 24 20 17 21 23 22
REMARK SMILES IDX 18 23 22 24 19 25 21 26 20 27 25 28
REMARK H PARENT
ROOT
ATOM      1  N   UNL     1     133.881 116.133  42.215  1.00  0.00    -0.341 N 
ATOM      2  C   UNL     1     132.898 115.384  42.834  1.00  0.00     0.049 A 
ATOM      3  C   UNL     1     131.655 115.755  43.376  1.00  0.00     0.027 A 
ATOM      4  C   UNL     1     130.857 114.759  43.946  1.00  0.00     0.002 A 
ATOM      5  C   UNL     1     131.280 113.435  43.975  1.00  0.00     0.001 A 
ATOM      6  C   UNL     1     132.517 113.073  43.432  1.00  0.00     0.011 A 
ATOM      7  C   UNL     1     133.341 114.061  42.849  1.00  0.00     0.007 A 
ATOM      8  C   UNL     1     134.623 114.027  42.218  1.00  0.00     0.008 A 
ATOM      9  C   UNL     1     135.542 112.990  41.939  1.00  0.00     0.019 A 
ATOM     10  C   UNL     1     136.754 113.273  41.290  1.00  0.00    -0.025 A 
ATOM     11  C   UNL     1     137.024 114.584  40.890  1.00  0.00     0.010 A 
ATOM     12  C   UNL     1     136.130 115.630  41.152  1.00  0.00     0.027 A 
ATOM     13  C   UNL     1     134.937 115.328  41.825  1.00  0.00     0.049 A 
ENDROOT
BRANCH   1  14
ATOM     14  C   UNL     1     133.813 117.571  42.005  1.00  0.00     0.119 C 
ATOM     15  C   UNL     1     133.419 117.926  40.582  1.00  0.00     0.027 C 
ENDBRANCH   1  14
BRANCH  10  16
ATOM     16  C   UNL     1     137.730 112.221  40.969  1.00  0.00     0.015 C 
ATOM     17  C   UNL     1     137.803 111.628  39.765  1.00  0.00     0.080 C 
BRANCH  17  18
ATOM     18  C   UNL     1     138.767 110.563  39.464  1.00  0.00     0.205 A 
ATOM     19  C   UNL     1     138.781 109.427  40.276  1.00  0.00     0.080 A 
ATOM     20  N   UNL     1     139.669 110.700  38.448  1.00  0.00    -0.195 N 
ATOM     21  C   UNL     1     139.714 108.430  40.062  1.00  0.00     0.022 A 
ATOM     22  C   UNL     1     140.632 109.743  38.231  1.00  0.00     0.212 A 
ATOM     23  C   UNL     1     140.651 108.580  39.047  1.00  0.00     0.046 A 
ATOM     24  C   UNL     1     141.618 109.859  37.230  1.00  0.00     0.080 A 
ATOM     25  C   UNL     1     141.618 107.586  38.837  1.00  0.00     0.015 A 
ATOM     26  C   UNL     1     142.576 108.859  37.034  1.00  0.00     0.007 A 
ATOM     27  C   UNL     1     142.575 107.725  37.834  1.00  0.00     0.001 A 
ATOM     28  C   UNL     1     139.597 111.873  37.544  1.00  0.00     0.441 C 
ENDBRANCH  17  18
ENDBRANCH  10  16
TORSDOF 3
ENDMDL
MODEL 7
REMARK VINA RESULT:    -9.014      1.433      2.245
REMARK INTER + INTRA:         -11.264
REMARK INTER:                 -10.603
REMARK INTRA:                  -0.661
REMARK UNBOUND:                -0.669
REMARK SMILES CCn1c2ccccc2c2cc(/C=C/c3ccc4ccccc4[n+]3C)ccc21
REMARK SMILES IDX 3 1 4 2 5 3 6 4 7 5 8 6 9 7 10 8 11 9 12 10 26 11 27 12
REMARK SMILES IDX 28 13 2 14 1 15 13 16 14 17 15 18 16 19 24 20 17 21 23 22
REMARK SMILES IDX 18 23 22 24 19 25 21 26 20 27 25 28
REMARK H PARENT
ROOT
ATOM      1  N   UNL     1     133.623 115.550  42.494  1.00  0.00    -0.341 N 
ATOM      2  C   UNL     1     133.732 116.722  41.769  1.00  0.00     0.049 A 
ATOM      3  C   UNL     1     133.052 117.947  41.880  1.00  0.00     0.027 A 
ATOM      4  C   UNL     1     133.384 118.973  40.990  1.00  0.00     0.002 A 
ATOM      5  C   UNL     1     134.364 118.788  40.022  1.00  0.00     0.001 A 
ATOM      6  C   UNL     1     135.038 117.567  39.919  1.00  0.00     0.011 A 
ATOM      7  C   UNL     1     134.722 116.516  40.806  1.00  0.00     0.007 A 
ATOM      8  C   UNL     1     135.212 115.183  40.970  1.00  0.00     0.008 A 
ATOM      9  C   UNL     1     136.202 114.423  40.306  1.00  0.00     0.019 A 
ATOM     10  C   UNL     1     136.466 113.103  40.703  1.00  0.00    -0.025 A 
ATOM     11  C   UNL     1     135.768 112.562  41.785  1.00  0.00     0.010 A 
ATOM     12  C   UNL     1     134.785 113.294  42.462  1.00  0.00     0.027 A 
ATOM     13  C   UNL     1     134.518 114.603  42.032  1.00  0.00     0.049 A 
ENDROOT
BRANCH   1  14
ATOM     14  C   UNL     1     132.691 115.345  43.593  1.00  0.00     0.119 C 
ATOM     15  C   UNL     1     131.438 114.610  43.155  1.00  0.00     0.027 C 
ENDBRANCH   1  14
BRANCH  10  16
ATOM     16  C   UNL     1     137.497 112.284  40.047  1.00  0.00     0.015 C 
ATOM     17  C   UNL     1     137.627 112.197  38.712  1.00  0.00     0.080 C 
BRANCH  17  18
ATOM     18  C   UNL     1     138.646 111.358  38.070  1.00  0.00     0.205 A 
ATOM     19  C   UNL     1     139.980 111.521  38.449  1.00  0.00     0.080 A 
ATOM     20  N   UNL     1     138.308 110.476  37.084  1.00  0.00    -0.195 N 
ATOM     21  C   UNL     1     140.975 110.793  37.823  1.00  0.00     0.022 A 
ATOM     22  C   UNL     1     139.277 109.762  36.418  1.00  0.00     0.212 A 
ATOM     23  C   UNL     1     140.638 109.916  36.800  1.00  0.00     0.046 A 
ATOM     24  C   UNL     1     138.988 108.878  35.359  1.00  0.00     0.080 A 
ATOM     25  C   UNL     1     141.642 109.190  36.142  1.00  0.00     0.015 A 
ATOM     26  C   UNL     1     140.001 108.162  34.712  1.00  0.00     0.007 A 
ATOM     27  C   UNL     1     141.324 108.316  35.105  1.00  0.00     0.001 A 
ATOM     28  C   UNL     1     136.883 110.254  36.742  1.00  0.00     0.441 C 
ENDBRANCH  17  18
ENDBRANCH  10  16
TORSDOF 3
ENDMDL
MODEL 8
REMARK VINA RESULT:    -8.907      2.553      9.907
REMARK INTER + INTRA:         -11.139
REMARK INTER:                 -10.468
REMARK INTRA:                  -0.670
REMARK UNBOUND:                -0.669
REMARK SMILES CCn1c2ccccc2c2cc(/C=C/c3ccc4ccccc4[n+]3C)ccc21
REMARK SMILES IDX 3 1 4 2 5 3 6 4 7 5 8 6 9 7 10 8 11 9 12 10 26 11 27 12
REMARK SMILES IDX 28 13 2 14 1 15 13 16 14 17 15 18 16 19 24 20 17 21 23 22
REMARK SMILES IDX 18 23 22 24 19 25 21 26 20 27 25 28
REMARK H PARENT
ROOT
ATOM      1  N   UNL     1     141.780 108.412  37.770  1.00  0.00    -0.341 N 
ATOM      2  C   UNL     1     141.890 108.298  36.397  1.00  0.00     0.049 A 
ATOM      3  C   UNL     1     142.703 107.475  35.598  1.00  0.00     0.027 A 
ATOM      4  C   UNL     1     142.590 107.581  34.209  1.00  0.00     0.002 A 
ATOM      5  C   UNL     1     141.695 108.475  33.632  1.00  0.00     0.001 A 
ATOM      6  C   UNL     1     140.888 109.288  34.433  1.00  0.00     0.011 A 
ATOM      7  C   UNL     1     140.982 109.199  35.839  1.00  0.00     0.007 A 
ATOM      8  C   UNL     1     140.316 109.864  36.915  1.00  0.00     0.008 A 
ATOM      9  C   UNL     1     139.310 110.855  36.972  1.00  0.00     0.019 A 
ATOM     10  C   UNL     1     138.846 111.324  38.211  1.00  0.00    -0.025 A 
ATOM     11  C   UNL     1     139.361 110.772  39.386  1.00  0.00     0.010 A 
ATOM     12  C   UNL     1     140.356 109.786  39.359  1.00  0.00     0.027 A 
ATOM     13  C   UNL     1     140.824 109.352  38.109  1.00  0.00     0.049 A 
ENDROOT
BRANCH   1  14
ATOM     14  C   UNL     1     142.566 107.645  38.726  1.00  0.00     0.119 C 
ATOM     15  C   UNL     1     141.887 106.345  39.118  1.00  0.00     0.027 C 
ENDBRANCH   1  14
BRANCH  10  16
ATOM     16  C   UNL     1     137.791 112.344  38.312  1.00  0.00     0.015 C 
ATOM     17  C   UNL     1     137.955 113.508  38.962  1.00  0.00     0.080 C 
BRANCH  17  18
ATOM     18  C   UNL     1     136.887 114.509  39.075  1.00  0.00     0.205 A 
ATOM     19  C   UNL     1     135.696 114.294  38.379  1.00  0.00     0.080 A 
ATOM     20  N   UNL     1     137.070 115.651  39.800  1.00  0.00    -0.195 N 
ATOM     21  C   UNL     1     134.690 115.242  38.411  1.00  0.00     0.022 A 
ATOM     22  C   UNL     1     136.104 116.629  39.824  1.00  0.00     0.212 A 
ATOM     23  C   UNL     1     134.885 116.419  39.124  1.00  0.00     0.046 A 
ATOM     24  C   UNL     1     136.263 117.849  40.513  1.00  0.00     0.080 A 
ATOM     25  C   UNL     1     133.881 117.398  39.144  1.00  0.00     0.015 A 
ATOM     26  C   UNL     1     135.252 118.816  40.523  1.00  0.00     0.007 A 
ATOM     27  C   UNL     1     134.064 118.590  39.842  1.00  0.00     0.001 A 
ATOM     28  C   UNL     1     138.307 115.835  40.597  1.00  0.00     0.441 C 
ENDBRANCH  17  18
ENDBRANCH  10  16
TORSDOF 3
ENDMDL
MODEL 9
REMARK VINA RESULT:    -8.838      2.353      9.985
REMARK INTER + INTRA:         -11.057
REMARK INTER:                 -10.397
REMARK INTRA:                  -0.660
REMARK UNBOUND:                -0.669
REMARK SMILES CCn1c2ccccc2c2cc(/C=C/c3ccc4ccccc4[n+]3C)ccc21
REMARK SMILES IDX 3 1 4 2 5 3 6 4 7 5 8 6 9 7 10 8 11 9 12 10 26 11 27 12
REMARK SMILES IDX 28 13 2 14 1 15 13 16 14 17 15 18 16 19 24 20 17 21 23 22
REMARK SMILES IDX 18 23 22 24 19 25 21 26 20 27 25 28
REMARK H PARENT
ROOT
ATOM      1  N   UNL     1     141.700 108.401  37.206  1.00  0.00    -0.341 N 
ATOM      2  C   UNL     1     141.293 108.746  35.931  1.00  0.00     0.049 A 
ATOM      3  C   UNL     1     141.910 108.563  34.680  1.00  0.00     0.027 A 
ATOM      4  C   UNL     1     141.245 109.023  33.540  1.00  0.00     0.002 A 
ATOM      5  C   UNL     1     140.004 109.643  33.639  1.00  0.00     0.001 A 
ATOM      6  C   UNL     1     139.396 109.818  34.885  1.00  0.00     0.011 A 
ATOM      7  C   UNL     1     140.047 109.362  36.053  1.00  0.00     0.007 A 
ATOM      8  C   UNL     1     139.708 109.380  37.441  1.00  0.00     0.008 A 
ATOM      9  C   UNL     1     138.590 109.857  38.162  1.00  0.00     0.019 A 
ATOM     10  C   UNL     1     138.541 109.730  39.560  1.00  0.00    -0.025 A 
ATOM     11  C   UNL     1     139.592 109.092  40.224  1.00  0.00     0.010 A 
ATOM     12  C   UNL     1     140.709 108.607  39.533  1.00  0.00     0.027 A 
ATOM     13  C   UNL     1     140.749 108.769  38.140  1.00  0.00     0.049 A 
ENDROOT
BRANCH   1  14
ATOM     14  C   UNL     1     142.959 107.741  37.519  1.00  0.00     0.119 C 
ATOM     15  C   UNL     1     142.819 106.230  37.571  1.00  0.00     0.027 C 
ENDBRANCH   1  14
BRANCH  10  16
ATOM     16  C   UNL     1     137.390 110.201  40.345  1.00  0.00     0.015 C 
ATOM     17  C   UNL     1     136.965 111.476  40.334  1.00  0.00     0.080 C 
BRANCH  17  18
ATOM     18  C   UNL     1     135.829 111.938  41.140  1.00  0.00     0.205 A 
ATOM     19  C   UNL     1     136.004 112.082  42.518  1.00  0.00     0.080 A 
ATOM     20  N   UNL     1     134.611 112.170  40.567  1.00  0.00    -0.195 N 
ATOM     21  C   UNL     1     134.941 112.456  43.318  1.00  0.00     0.022 A 
ATOM     22  C   UNL     1     133.526 112.509  41.340  1.00  0.00     0.212 A 
ATOM     23  C   UNL     1     133.694 112.665  42.743  1.00  0.00     0.046 A 
ATOM     24  C   UNL     1     132.236 112.709  40.807  1.00  0.00     0.080 A 
ATOM     25  C   UNL     1     132.603 113.022  43.549  1.00  0.00     0.015 A 
ATOM     26  C   UNL     1     131.158 113.063  41.625  1.00  0.00     0.007 A 
ATOM     27  C   UNL     1     131.341 113.221  42.991  1.00  0.00     0.001 A 
ATOM     28  C   UNL     1     134.455 112.088  39.095  1.00  0.00     0.441 C 
ENDBRANCH  17  18
ENDBRANCH  10  16
TORSDOF 3
ENDMDL
