MODEL 5
REMARK minimizedAffinity -5.83291721
REMARK CNNscore 0.142715111
REMARK CNNaffinity 5.29284716
REMARK SMILES C=CCN(/C=C1/C(=O)O[C@H](COC)[C@@]2(C)C1=C(O)C(=O)C1=C2[C@H](OC(C)=O)C[C@]2(C)C(=O)CC[C@@H]12)CC=C
REMARK SMILES IDX 5 1 6 2 7 3 8 4 9 5 10 6 14 7 15 8 16 9 17 10 19 11 20 12
REMARK SMILES IDX 21 13 22 14 23 15 28 16 29 17 30 18 31 19 32 20 33 21 34 22
REMARK SMILES IDX 35 23 4 24 3 25 2 26 1 27 36 28 37 29 38 30 18 31 11 33
REMARK SMILES IDX 12 34 13 35 24 36 25 37 27 38 26 39
REMARK H PARENT 18 32
ROOT
ATOM      1  C   UNL     1      49.559  -2.937 -42.573  1.00  0.00     0.097 C 
ATOM      2  C   UNL     1      48.869  -4.069 -42.815  1.00  0.00     0.084 C 
ATOM      3  C   UNL     1      49.315  -5.305 -42.100  1.00  0.00     0.340 C 
ATOM      4  O   UNL     1      50.369  -5.417 -41.489  1.00  0.00    -0.246 OA
ATOM      5  O   UNL     1      48.438  -6.328 -42.289  1.00  0.00    -0.455 OA
ATOM      6  C   UNL     1      47.037  -5.963 -42.161  1.00  0.00     0.217 C 
ATOM      7  C   UNL     1      46.571  -4.981 -43.323  1.00  0.00     0.062 C 
ATOM      8  C   UNL     1      45.700  -3.880 -42.646  1.00  0.00     0.026 C 
ATOM      9  C   UNL     1      47.846  -4.273 -43.844  1.00  0.00     0.028 C 
ATOM     10  C   UNL     1      48.144  -4.065 -45.143  1.00  0.00     0.168 C 
ATOM     11  C   UNL     1      47.237  -4.556 -46.213  1.00  0.00     0.224 C 
ATOM     12  O   UNL     1      47.484  -4.343 -47.394  1.00  0.00    -0.285 OA
ATOM     13  C   UNL     1      46.024  -5.304 -45.803  1.00  0.00     0.011 C 
ATOM     14  C   UNL     1      45.714  -5.522 -44.498  1.00  0.00    -0.008 C 
ATOM     15  C   UNL     1      44.348  -6.184 -44.218  1.00  0.00     0.205 C 
ATOM     16  C   UNL     1      43.182  -5.708 -45.137  1.00  0.00     0.065 C 
ATOM     17  C   UNL     1      43.654  -5.134 -46.476  1.00  0.00     0.037 C 
ATOM     18  C   UNL     1      43.615  -3.592 -46.441  1.00  0.00     0.020 C 
ATOM     19  C   UNL     1      42.858  -5.574 -47.693  1.00  0.00     0.139 C 
ATOM     20  O   UNL     1      41.638  -5.678 -47.719  1.00  0.00    -0.299 OA
ATOM     21  C   UNL     1      43.755  -5.848 -48.882  1.00  0.00     0.077 C 
ATOM     22  C   UNL     1      45.140  -5.459 -48.352  1.00  0.00     0.017 C 
ATOM     23  C   UNL     1      45.026  -5.736 -46.850  1.00  0.00     0.037 C 
ENDROOT
BRANCH   1  24
ATOM     24  N   UNL     1      49.485  -1.675 -43.189  1.00  0.00    -0.369 N 
BRANCH  24  25
ATOM     25  C   UNL     1      48.196  -0.959 -43.278  1.00  0.00     0.143 C 
BRANCH  25  26
ATOM     26  C   UNL     1      48.033  -0.394 -44.660  1.00  0.00    -0.014 C 
ATOM     27  C   UNL     1      46.960  -0.595 -45.437  1.00  0.00     0.006 C 
ENDBRANCH  25  26
ENDBRANCH  24  25
BRANCH  24  28
ATOM     28  C   UNL     1      50.643  -0.756 -43.048  1.00  0.00     0.143 C 
BRANCH  28  29
ATOM     29  C   UNL     1      51.532  -0.952 -44.241  1.00  0.00    -0.014 C 
ATOM     30  C   UNL     1      51.995   0.047 -45.011  1.00  0.00     0.006 C 
ENDBRANCH  28  29
ENDBRANCH  24  28
ENDBRANCH   1  24
BRANCH  10  31
ATOM     31  O   UNL     1      49.316  -3.453 -45.569  1.00  0.00    -0.504 OA
ATOM     32  H   UNL     1      49.600  -2.815 -44.878  1.00  0.00     0.293 HD
ENDBRANCH  10  31
BRANCH   6  33
ATOM     33  C   UNL     1      46.277  -7.277 -41.953  1.00  0.00     0.206 C 
BRANCH  33  34
ATOM     34  O   UNL     1      47.172  -8.378 -42.162  1.00  0.00    -0.381 OA
ATOM     35  C   UNL     1      46.506  -9.630 -42.035  1.00  0.00     0.195 C 
ENDBRANCH  33  34
ENDBRANCH   6  33
BRANCH  15  36
ATOM     36  O   UNL     1      44.538  -7.604 -44.414  1.00  0.00    -0.458 OA
BRANCH  36  37
ATOM     37  C   UNL     1      43.503  -8.409 -44.044  1.00  0.00     0.303 C 
ATOM     38  O   UNL     1      43.085  -9.356 -44.692  1.00  0.00    -0.253 OA
ATOM     39  C   UNL     1      42.941  -7.960 -42.728  1.00  0.00     0.139 C 
ENDBRANCH  36  37
ENDBRANCH  15  36
TORSDOF 10
ENDMDL
