MODEL 1
REMARK VINA RESULT:    -7.412      0.000      0.000
REMARK INTER + INTRA:         -15.722
REMARK INTER:                 -14.345
REMARK INTRA:                  -1.377
REMARK UNBOUND:                -1.377
REMARK SMILES CCN(CC)CCOc1ccc2cc1COCC=CCOCc1cccc(c1)-c1ccnc(n1)N2
REMARK SMILES IDX 9 1 10 2 11 3 12 4 13 5 14 6 8 7 7 8 6 9 3 10 2 11 1 12 4 13
REMARK SMILES IDX 5 14 15 15 16 16 17 17 18 18 19 19 35 21 33 23 32 24 34 25
REMARK SMILES IDX 31 26 29 27 30 28 27 29 26 30 28 31 25 32 23 33 24 34 22 35
REMARK SMILES IDX 21 36 20 37
REMARK H PARENT 35 22
REMARK Flexibility Score:  100.900
ROOT
ATOM      1  C   UNL     1     -15.044  20.660  19.591  1.00  0.00     0.125 A 
ATOM      2  C   UNL     1     -14.213  21.053  18.543  1.00  0.00     0.049 A 
ATOM      3  C   UNL     1     -13.005  20.385  18.314  1.00  0.00     0.030 A 
ATOM      4  C   UNL     1     -12.595  19.317  19.121  1.00  0.00     0.042 A 
ATOM      5  C   UNL     1     -13.440  18.940  20.171  1.00  0.00     0.036 A 
ATOM      6  C   UNL     1     -14.659  19.601  20.427  1.00  0.00     0.022 A 
ENDROOT
BRANCH   1   7
ATOM      7  O   UNL     1     -16.216  21.300  19.906  1.00  0.00    -0.492 OA
BRANCH   7   8
ATOM      8  C   UNL     1     -17.294  21.095  18.983  1.00  0.00     0.245 C 
BRANCH   8   9
ATOM      9  C   UNL     1     -18.554  20.768  19.803  1.00  0.00     0.126 C 
BRANCH   9  10
ATOM     10  N   UNL     1     -19.863  20.992  19.163  1.00  0.00    -0.301 NA
BRANCH  10  11
ATOM     11  C   UNL     1     -20.909  20.048  19.590  1.00  0.00     0.081 C 
ATOM     12  C   UNL     1     -20.548  19.245  20.836  1.00  0.00     0.021 C 
ENDBRANCH  10  11
BRANCH  10  13
ATOM     13  C   UNL     1     -20.356  22.376  19.289  1.00  0.00     0.081 C 
ATOM     14  C   UNL     1     -19.871  23.098  20.543  1.00  0.00     0.021 C 
ENDBRANCH  10  13
ENDBRANCH   9  10
ENDBRANCH   8   9
ENDBRANCH   7   8
ENDBRANCH   1   7
BRANCH   6  15
ATOM     15  C   UNL     1     -15.525  19.226  21.611  1.00  0.00     0.200 C 
BRANCH  15  16
ATOM     16  O   UNL     1     -15.872  17.841  21.592  1.00  0.00    -0.373 OA
BRANCH  16  17
ATOM     17  C   UNL     1     -17.039  17.567  20.829  1.00  0.00     0.188 C 
BRANCH  17  18
ATOM     18  C   UNL     1     -16.634  17.113  19.459  1.00  0.00    -0.001 C 
ATOM     19  C   UNL     1     -16.406  15.851  19.055  1.00  0.00    -0.001 CG0
ATOM     20  G   UNL     1     -16.422  14.617  19.904  1.00  0.00     0.000 G0
ENDBRANCH  17  18
ENDBRANCH  16  17
ENDBRANCH  15  16
ENDBRANCH   6  15
BRANCH   4  21
ATOM     21  N   UNL     1     -11.380  18.688  18.835  1.00  0.00    -0.324 N 
ATOM     22  H   UNL     1     -10.773  19.138  18.166  1.00  0.00     0.170 HD
BRANCH  21  23
ATOM     23  C   UNL     1     -10.755  17.537  19.305  1.00  0.00     0.227 A 
ATOM     24  N   UNL     1      -9.498  17.716  19.741  1.00  0.00    -0.221 NA
ATOM     25  N   UNL     1     -11.359  16.343  19.286  1.00  0.00    -0.213 NA
ATOM     26  C   UNL     1      -8.845  16.628  20.185  1.00  0.00     0.117 A 
ATOM     27  C   UNL     1     -10.682  15.260  19.731  1.00  0.00     0.076 A 
ATOM     28  C   UNL     1      -9.391  15.369  20.202  1.00  0.00     0.049 A 
BRANCH  27  29
ATOM     29  C   UNL     1     -11.402  13.969  19.636  1.00  0.00     0.001 A 
ATOM     30  C   UNL     1     -10.768  12.779  19.237  1.00  0.00     0.010 A 
ATOM     31  C   UNL     1     -12.777  13.894  19.935  1.00  0.00     0.016 A 
ATOM     32  C   UNL     1     -11.478  11.581  19.113  1.00  0.00     0.001 A 
ATOM     33  C   UNL     1     -13.505  12.697  19.820  1.00  0.00    -0.022 A 
ATOM     34  C   UNL     1     -12.842  11.544  19.390  1.00  0.00     0.006 A 
BRANCH  33  35
ATOM     35  C   UNL     1     -14.989  12.689  20.102  1.00  0.00     0.196 C 
BRANCH  35  36
ATOM     36  O   UNL     1     -15.729  13.534  19.216  1.00  0.00    -0.373 OA
BRANCH  36  37
ATOM     37  C   UNL     1     -16.417  14.593  19.887  1.00  0.00     0.188 CG0
ATOM     38  G   UNL     1     -16.379  15.833  19.046  1.00  0.00     0.000 G0
ENDBRANCH  36  37
ENDBRANCH  35  36
ENDBRANCH  33  35
ENDBRANCH  27  29
ENDBRANCH  21  23
ENDBRANCH   4  21
TORSDOF 6
ENDMDL
MODEL 2
REMARK VINA RESULT:    -7.185      2.468      4.718
REMARK INTER + INTRA:         -15.283
REMARK INTER:                 -13.808
REMARK INTRA:                  -1.475
REMARK UNBOUND:                -1.377
REMARK SMILES CCN(CC)CCOc1ccc2cc1COCC=CCOCc1cccc(c1)-c1ccnc(n1)N2
REMARK SMILES IDX 9 1 10 2 11 3 12 4 13 5 14 6 8 7 7 8 6 9 3 10 2 11 1 12 4 13
REMARK SMILES IDX 5 14 15 15 16 16 17 17 18 18 19 19 35 21 33 23 32 24 34 25
REMARK SMILES IDX 31 26 29 27 30 28 27 29 26 30 28 31 25 32 23 33 24 34 22 35
REMARK SMILES IDX 21 36 20 37
REMARK H PARENT 35 22
REMARK Flexibility Score:  100.900
ROOT
ATOM      1  C   UNL     1     -16.599  17.298  19.843  1.00  0.00     0.125 A 
ATOM      2  C   UNL     1     -16.897  16.340  18.875  1.00  0.00     0.049 A 
ATOM      3  C   UNL     1     -16.305  15.073  18.935  1.00  0.00     0.030 A 
ATOM      4  C   UNL     1     -15.406  14.731  19.952  1.00  0.00     0.042 A 
ATOM      5  C   UNL     1     -15.116  15.707  20.912  1.00  0.00     0.036 A 
ATOM      6  C   UNL     1     -15.693  16.993  20.871  1.00  0.00     0.022 A 
ENDROOT
BRANCH   1   7
ATOM      7  O   UNL     1     -17.100  18.574  19.820  1.00  0.00    -0.492 OA
BRANCH   7   8
ATOM      8  C   UNL     1     -18.467  18.690  19.404  1.00  0.00     0.245 C 
BRANCH   8   9
ATOM      9  C   UNL     1     -19.096  19.858  20.185  1.00  0.00     0.126 C 
BRANCH   9  10
ATOM     10  N   UNL     1     -20.158  19.538  21.155  1.00  0.00    -0.301 NA
BRANCH  10  11
ATOM     11  C   UNL     1     -21.517  19.845  20.680  1.00  0.00     0.081 C 
ATOM     12  C   UNL     1     -22.553  19.952  21.796  1.00  0.00     0.021 C 
ENDBRANCH  10  11
BRANCH  10  13
ATOM     13  C   UNL     1     -20.105  18.152  21.657  1.00  0.00     0.081 C 
ATOM     14  C   UNL     1     -18.990  17.898  22.668  1.00  0.00     0.021 C 
ENDBRANCH  10  13
ENDBRANCH   9  10
ENDBRANCH   8   9
ENDBRANCH   7   8
ENDBRANCH   1   7
BRANCH   6  15
ATOM     15  C   UNL     1     -15.312  18.060  21.877  1.00  0.00     0.200 C 
BRANCH  15  16
ATOM     16  O   UNL     1     -14.001  18.568  21.635  1.00  0.00    -0.373 OA
BRANCH  16  17
ATOM     17  C   UNL     1     -14.000  19.859  21.044  1.00  0.00     0.188 C 
BRANCH  17  18
ATOM     18  C   UNL     1     -13.810  19.722  19.564  1.00  0.00    -0.001 C 
ATOM     19  C   UNL     1     -12.660  19.483  18.910  1.00  0.00    -0.001 CG0
ATOM     20  G   UNL     1     -11.289  19.386  19.507  1.00  0.00     0.000 G0
ENDBRANCH  17  18
ENDBRANCH  16  17
ENDBRANCH  15  16
ENDBRANCH   6  15
BRANCH   4  21
ATOM     21  N   UNL     1     -14.856  13.446  19.957  1.00  0.00    -0.324 N 
ATOM     22  H   UNL     1     -15.478  12.678  20.160  1.00  0.00     0.170 HD
BRANCH  21  23
ATOM     23  C   UNL     1     -13.585  12.939  19.703  1.00  0.00     0.227 A 
ATOM     24  N   UNL     1     -13.545  11.625  19.435  1.00  0.00    -0.221 NA
ATOM     25  N   UNL     1     -12.490  13.707  19.759  1.00  0.00    -0.213 NA
ATOM     26  C   UNL     1     -12.335  11.085  19.204  1.00  0.00     0.117 A 
ATOM     27  C   UNL     1     -11.283  13.144  19.529  1.00  0.00     0.076 A 
ATOM     28  C   UNL     1     -11.165  11.801  19.239  1.00  0.00     0.049 A 
BRANCH  27  29
ATOM     29  C   UNL     1     -10.117  14.049  19.653  1.00  0.00     0.001 A 
ATOM     30  C   UNL     1      -8.803  13.571  19.807  1.00  0.00     0.010 A 
ATOM     31  C   UNL     1     -10.293  15.447  19.635  1.00  0.00     0.016 A 
ATOM     32  C   UNL     1      -7.724  14.445  19.966  1.00  0.00     0.001 A 
ATOM     33  C   UNL     1      -9.218  16.340  19.788  1.00  0.00    -0.022 A 
ATOM     34  C   UNL     1      -7.933  15.822  19.970  1.00  0.00     0.006 A 
BRANCH  33  35
ATOM     35  C   UNL     1      -9.475  17.828  19.815  1.00  0.00     0.196 C 
BRANCH  35  36
ATOM     36  O   UNL     1     -10.597  18.215  19.016  1.00  0.00    -0.373 OA
BRANCH  36  37
ATOM     37  C   UNL     1     -11.265  19.380  19.505  1.00  0.00     0.188 CG0
ATOM     38  G   UNL     1     -12.639  19.461  18.910  1.00  0.00     0.000 G0
ENDBRANCH  36  37
ENDBRANCH  35  36
ENDBRANCH  33  35
ENDBRANCH  27  29
ENDBRANCH  21  23
ENDBRANCH   4  21
TORSDOF 6
ENDMDL
MODEL 3
REMARK VINA RESULT:    -6.900      2.678      4.696
REMARK INTER + INTRA:         -14.730
REMARK INTER:                 -13.399
REMARK INTRA:                  -1.331
REMARK UNBOUND:                -1.377
REMARK SMILES CCN(CC)CCOc1ccc2cc1COCC=CCOCc1cccc(c1)-c1ccnc(n1)N2
REMARK SMILES IDX 9 1 10 2 11 3 12 4 13 5 14 6 8 7 7 8 6 9 3 10 2 11 1 12 4 13
REMARK SMILES IDX 5 14 15 15 16 16 17 17 18 18 19 19 35 21 33 23 32 24 34 25
REMARK SMILES IDX 31 26 29 27 30 28 27 29 26 30 28 31 25 32 23 33 24 34 22 35
REMARK SMILES IDX 21 36 20 37
REMARK H PARENT 35 22
REMARK Flexibility Score:  100.900
ROOT
ATOM      1  C   UNL     1     -17.059  20.294  20.103  1.00  0.00     0.125 A 
ATOM      2  C   UNL     1     -18.254  19.575  20.082  1.00  0.00     0.049 A 
ATOM      3  C   UNL     1     -18.257  18.229  19.699  1.00  0.00     0.030 A 
ATOM      4  C   UNL     1     -17.080  17.570  19.328  1.00  0.00     0.042 A 
ATOM      5  C   UNL     1     -15.891  18.309  19.351  1.00  0.00     0.036 A 
ATOM      6  C   UNL     1     -15.861  19.668  19.726  1.00  0.00     0.022 A 
ENDROOT
BRANCH   1   7
ATOM      7  O   UNL     1     -16.987  21.627  20.417  1.00  0.00    -0.492 OA
BRANCH   7   8
ATOM      8  C   UNL     1     -17.881  22.479  19.688  1.00  0.00     0.245 C 
BRANCH   8   9
ATOM      9  C   UNL     1     -18.893  23.060  20.691  1.00  0.00     0.126 C 
BRANCH   9  10
ATOM     10  N   UNL     1     -20.269  23.295  20.215  1.00  0.00    -0.301 NA
BRANCH  10  11
ATOM     11  C   UNL     1     -20.408  24.469  19.338  1.00  0.00     0.081 C 
ATOM     12  C   UNL     1     -21.275  24.222  18.107  1.00  0.00     0.021 C 
ENDBRANCH  10  11
BRANCH  10  13
ATOM     13  C   UNL     1     -20.884  22.117  19.577  1.00  0.00     0.081 C 
ATOM     14  C   UNL     1     -21.756  21.285  20.513  1.00  0.00     0.021 C 
ENDBRANCH  10  13
ENDBRANCH   9  10
ENDBRANCH   8   9
ENDBRANCH   7   8
ENDBRANCH   1   7
BRANCH   6  15
ATOM     15  C   UNL     1     -14.578  20.471  19.676  1.00  0.00     0.200 C 
BRANCH  15  16
ATOM     16  O   UNL     1     -13.864  20.398  20.910  1.00  0.00    -0.373 OA
BRANCH  16  17
ATOM     17  C   UNL     1     -12.471  20.634  20.765  1.00  0.00     0.188 C 
BRANCH  17  18
ATOM     18  C   UNL     1     -12.056  20.279  19.368  1.00  0.00    -0.001 C 
ATOM     19  C   UNL     1     -11.377  19.189  18.973  1.00  0.00    -0.001 CG0
ATOM     20  G   UNL     1     -10.804  18.118  19.852  1.00  0.00     0.000 G0
ENDBRANCH  17  18
ENDBRANCH  16  17
ENDBRANCH  15  16
ENDBRANCH   6  15
BRANCH   4  21
ATOM     21  N   UNL     1     -17.151  16.222  18.963  1.00  0.00    -0.324 N 
ATOM     22  H   UNL     1     -17.735  15.988  18.174  1.00  0.00     0.170 HD
BRANCH  21  23
ATOM     23  C   UNL     1     -16.548  15.061  19.435  1.00  0.00     0.227 A 
ATOM     24  N   UNL     1     -17.378  14.203  20.049  1.00  0.00    -0.221 NA
ATOM     25  N   UNL     1     -15.233  14.842  19.310  1.00  0.00    -0.213 NA
ATOM     26  C   UNL     1     -16.836  13.076  20.541  1.00  0.00     0.117 A 
ATOM     27  C   UNL     1     -14.707  13.704  19.817  1.00  0.00     0.076 A 
ATOM     28  C   UNL     1     -15.501  12.774  20.455  1.00  0.00     0.049 A 
BRANCH  27  29
ATOM     29  C   UNL     1     -13.241  13.557  19.678  1.00  0.00     0.001 A 
ATOM     30  C   UNL     1     -12.625  12.312  19.454  1.00  0.00     0.010 A 
ATOM     31  C   UNL     1     -12.396  14.680  19.783  1.00  0.00     0.016 A 
ATOM     32  C   UNL     1     -11.235  12.192  19.370  1.00  0.00     0.001 A 
ATOM     33  C   UNL     1     -10.997  14.578  19.695  1.00  0.00    -0.022 A 
ATOM     34  C   UNL     1     -10.425  13.317  19.503  1.00  0.00     0.006 A 
BRANCH  33  35
ATOM     35  C   UNL     1     -10.140  15.810  19.869  1.00  0.00     0.196 C 
BRANCH  35  36
ATOM     36  O   UNL     1     -10.589  16.916  19.081  1.00  0.00    -0.373 OA
BRANCH  36  37
ATOM     37  C   UNL     1     -10.798  18.106  19.845  1.00  0.00     0.188 CG0
ATOM     38  G   UNL     1     -11.369  19.177  18.966  1.00  0.00     0.000 G0
ENDBRANCH  36  37
ENDBRANCH  35  36
ENDBRANCH  33  35
ENDBRANCH  27  29
ENDBRANCH  21  23
ENDBRANCH   4  21
TORSDOF 6
ENDMDL
MODEL 4
REMARK VINA RESULT:    -6.786      3.634      8.338
REMARK INTER + INTRA:         -14.511
REMARK INTER:                 -13.257
REMARK INTRA:                  -1.254
REMARK UNBOUND:                -1.377
REMARK SMILES CCN(CC)CCOc1ccc2cc1COCC=CCOCc1cccc(c1)-c1ccnc(n1)N2
REMARK SMILES IDX 9 1 10 2 11 3 12 4 13 5 14 6 8 7 7 8 6 9 3 10 2 11 1 12 4 13
REMARK SMILES IDX 5 14 15 15 16 16 17 17 18 18 19 19 35 21 33 23 32 24 34 25
REMARK SMILES IDX 31 26 29 27 30 28 27 29 26 30 28 31 25 32 23 33 24 34 22 35
REMARK SMILES IDX 21 36 20 37
REMARK H PARENT 35 22
REMARK Flexibility Score:  100.900
ROOT
ATOM      1  C   UNL     1      -8.208  16.416  20.542  1.00  0.00     0.125 A 
ATOM      2  C   UNL     1      -7.587  15.169  20.605  1.00  0.00     0.049 A 
ATOM      3  C   UNL     1      -8.229  14.038  20.088  1.00  0.00     0.030 A 
ATOM      4  C   UNL     1      -9.498  14.118  19.503  1.00  0.00     0.042 A 
ATOM      5  C   UNL     1     -10.107  15.378  19.454  1.00  0.00     0.036 A 
ATOM      6  C   UNL     1      -9.486  16.532  19.973  1.00  0.00     0.022 A 
ENDROOT
BRANCH   1   7
ATOM      7  O   UNL     1      -7.663  17.558  21.072  1.00  0.00    -0.492 OA
BRANCH   7   8
ATOM      8  C   UNL     1      -6.398  17.948  20.520  1.00  0.00     0.245 C 
BRANCH   8   9
ATOM      9  C   UNL     1      -6.620  18.278  19.034  1.00  0.00     0.126 C 
BRANCH   9  10
ATOM     10  N   UNL     1      -5.467  18.142  18.125  1.00  0.00    -0.301 NA
BRANCH  10  11
ATOM     11  C   UNL     1      -4.493  17.120  18.541  1.00  0.00     0.081 C 
ATOM     12  C   UNL     1      -4.879  15.698  18.143  1.00  0.00     0.021 C 
ENDBRANCH  10  11
BRANCH  10  13
ATOM     13  C   UNL     1      -5.846  17.929  16.716  1.00  0.00     0.081 C 
ATOM     14  C   UNL     1      -4.784  18.371  15.712  1.00  0.00     0.021 C 
ENDBRANCH  10  13
ENDBRANCH   9  10
ENDBRANCH   8   9
ENDBRANCH   7   8
ENDBRANCH   1   7
BRANCH   6  15
ATOM     15  C   UNL     1     -10.190  17.873  19.975  1.00  0.00     0.200 C 
BRANCH  15  16
ATOM     16  O   UNL     1     -11.019  18.034  18.824  1.00  0.00    -0.373 OA
BRANCH  16  17
ATOM     17  C   UNL     1     -11.750  19.251  18.827  1.00  0.00     0.188 C 
BRANCH  17  18
ATOM     18  C   UNL     1     -12.065  19.632  20.243  1.00  0.00    -0.001 C 
ATOM     19  C   UNL     1     -13.237  19.484  20.883  1.00  0.00    -0.001 CG0
ATOM     20  G   UNL     1     -14.524  18.984  20.301  1.00  0.00     0.000 G0
ENDBRANCH  17  18
ENDBRANCH  16  17
ENDBRANCH  15  16
ENDBRANCH   6  15
BRANCH   4  21
ATOM     21  N   UNL     1     -10.081  12.951  19.001  1.00  0.00    -0.324 N 
ATOM     22  H   UNL     1      -9.509  12.369  18.407  1.00  0.00     0.170 HD
BRANCH  21  23
ATOM     23  C   UNL     1     -11.325  12.348  19.160  1.00  0.00     0.227 A 
ATOM     24  N   UNL     1     -11.331  11.016  18.995  1.00  0.00    -0.221 NA
ATOM     25  N   UNL     1     -12.429  13.057  19.423  1.00  0.00    -0.213 NA
ATOM     26  C   UNL     1     -12.515  10.391  19.117  1.00  0.00     0.117 A 
ATOM     27  C   UNL     1     -13.611  12.409  19.536  1.00  0.00     0.076 A 
ATOM     28  C   UNL     1     -13.692  11.041  19.387  1.00  0.00     0.049 A 
BRANCH  27  29
ATOM     29  C   UNL     1     -14.792  13.268  19.783  1.00  0.00     0.001 A 
ATOM     30  C   UNL     1     -16.041  12.742  20.161  1.00  0.00     0.010 A 
ATOM     31  C   UNL     1     -14.704  14.666  19.631  1.00  0.00     0.016 A 
ATOM     32  C   UNL     1     -17.153  13.569  20.346  1.00  0.00     0.001 A 
ATOM     33  C   UNL     1     -15.811  15.511  19.818  1.00  0.00    -0.022 A 
ATOM     34  C   UNL     1     -17.042  14.945  20.163  1.00  0.00     0.006 A 
BRANCH  33  35
ATOM     35  C   UNL     1     -15.670  16.998  19.588  1.00  0.00     0.196 C 
BRANCH  35  36
ATOM     36  O   UNL     1     -14.517  17.554  20.228  1.00  0.00    -0.373 OA
BRANCH  36  37
ATOM     37  C   UNL     1     -14.546  18.981  20.305  1.00  0.00     0.188 CG0
ATOM     38  G   UNL     1     -13.260  19.481  20.890  1.00  0.00     0.000 G0
ENDBRANCH  36  37
ENDBRANCH  35  36
ENDBRANCH  33  35
ENDBRANCH  27  29
ENDBRANCH  21  23
ENDBRANCH   4  21
TORSDOF 6
ENDMDL
MODEL 5
REMARK VINA RESULT:    -6.673      1.814      2.710
REMARK INTER + INTRA:         -14.291
REMARK INTER:                 -13.339
REMARK INTRA:                  -0.952
REMARK UNBOUND:                -1.377
REMARK SMILES CCN(CC)CCOc1ccc2cc1COCC=CCOCc1cccc(c1)-c1ccnc(n1)N2
REMARK SMILES IDX 9 1 10 2 11 3 12 4 13 5 14 6 8 7 7 8 6 9 3 10 2 11 1 12 4 13
REMARK SMILES IDX 5 14 15 15 16 16 17 17 18 18 19 19 35 21 33 23 32 24 34 25
REMARK SMILES IDX 31 26 29 27 30 28 27 29 26 30 28 31 25 32 23 33 24 34 22 35
REMARK SMILES IDX 21 36 20 37
REMARK H PARENT 35 22
REMARK Flexibility Score:  100.900
ROOT
ATOM      1  C   UNL     1     -17.289  19.470  19.981  1.00  0.00     0.125 A 
ATOM      2  C   UNL     1     -16.661  20.399  20.809  1.00  0.00     0.049 A 
ATOM      3  C   UNL     1     -15.305  20.254  21.127  1.00  0.00     0.030 A 
ATOM      4  C   UNL     1     -14.547  19.186  20.634  1.00  0.00     0.042 A 
ATOM      5  C   UNL     1     -15.196  18.261  19.809  1.00  0.00     0.036 A 
ATOM      6  C   UNL     1     -16.562  18.379  19.478  1.00  0.00     0.022 A 
ENDROOT
BRANCH   1   7
ATOM      7  O   UNL     1     -18.623  19.519  19.669  1.00  0.00    -0.492 OA
BRANCH   7   8
ATOM      8  C   UNL     1     -19.511  19.034  20.686  1.00  0.00     0.245 C 
BRANCH   8   9
ATOM      9  C   UNL     1     -20.828  19.821  20.570  1.00  0.00     0.126 C 
BRANCH   9  10
ATOM     10  N   UNL     1     -22.061  19.160  21.033  1.00  0.00    -0.301 NA
BRANCH  10  11
ATOM     11  C   UNL     1     -22.358  19.376  22.460  1.00  0.00     0.081 C 
ATOM     12  C   UNL     1     -23.411  18.426  23.023  1.00  0.00     0.021 C 
ENDBRANCH  10  11
BRANCH  10  13
ATOM     13  C   UNL     1     -23.249  19.484  20.221  1.00  0.00     0.081 C 
ATOM     14  C   UNL     1     -23.710  20.934  20.342  1.00  0.00     0.021 C 
ENDBRANCH  10  13
ENDBRANCH   9  10
ENDBRANCH   8   9
ENDBRANCH   7   8
ENDBRANCH   1   7
BRANCH   6  15
ATOM     15  C   UNL     1     -17.265  17.330  18.643  1.00  0.00     0.200 C 
BRANCH  15  16
ATOM     16  O   UNL     1     -16.369  16.699  17.728  1.00  0.00    -0.373 OA
BRANCH  16  17
ATOM     17  C   UNL     1     -16.099  15.344  18.053  1.00  0.00     0.188 C 
BRANCH  17  18
ATOM     18  C   UNL     1     -16.902  14.959  19.259  1.00  0.00    -0.001 C 
ATOM     19  C   UNL     1     -16.746  13.866  20.025  1.00  0.00    -0.001 CG0
ATOM     20  G   UNL     1     -15.787  12.736  19.798  1.00  0.00     0.000 G0
ENDBRANCH  17  18
ENDBRANCH  16  17
ENDBRANCH  15  16
ENDBRANCH   6  15
BRANCH   4  21
ATOM     21  N   UNL     1     -13.197  19.103  20.985  1.00  0.00    -0.324 N 
ATOM     22  H   UNL     1     -12.911  19.570  21.833  1.00  0.00     0.170 HD
BRANCH  21  23
ATOM     23  C   UNL     1     -12.092  18.466  20.428  1.00  0.00     0.227 A 
ATOM     24  N   UNL     1     -11.157  19.290  19.930  1.00  0.00    -0.221 NA
ATOM     25  N   UNL     1     -11.997  17.132  20.368  1.00  0.00    -0.213 NA
ATOM     26  C   UNL     1     -10.080  18.719  19.363  1.00  0.00     0.117 A 
ATOM     27  C   UNL     1     -10.909  16.578  19.788  1.00  0.00     0.076 A 
ATOM     28  C   UNL     1      -9.904  17.362  19.262  1.00  0.00     0.049 A 
BRANCH  27  29
ATOM     29  C   UNL     1     -10.899  15.099  19.721  1.00  0.00     0.001 A 
ATOM     30  C   UNL     1      -9.724  14.362  19.490  1.00  0.00     0.010 A 
ATOM     31  C   UNL     1     -12.094  14.369  19.876  1.00  0.00     0.016 A 
ATOM     32  C   UNL     1      -9.747  12.968  19.388  1.00  0.00     0.001 A 
ATOM     33  C   UNL     1     -12.134  12.967  19.781  1.00  0.00    -0.022 A 
ATOM     34  C   UNL     1     -10.948  12.275  19.520  1.00  0.00     0.006 A 
BRANCH  33  35
ATOM     35  C   UNL     1     -13.454  12.242  19.902  1.00  0.00     0.196 C 
BRANCH  35  36
ATOM     36  O   UNL     1     -14.518  13.091  20.344  1.00  0.00    -0.373 OA
BRANCH  36  37
ATOM     37  C   UNL     1     -15.791  12.729  19.803  1.00  0.00     0.188 CG0
ATOM     38  G   UNL     1     -16.769  13.841  20.029  1.00  0.00     0.000 G0
ENDBRANCH  36  37
ENDBRANCH  35  36
ENDBRANCH  33  35
ENDBRANCH  27  29
ENDBRANCH  21  23
ENDBRANCH   4  21
TORSDOF 6
ENDMDL
MODEL 6
REMARK VINA RESULT:    -6.572      3.699      8.497
REMARK INTER + INTRA:         -14.096
REMARK INTER:                 -12.941
REMARK INTRA:                  -1.155
REMARK UNBOUND:                -1.377
REMARK SMILES CCN(CC)CCOc1ccc2cc1COCC=CCOCc1cccc(c1)-c1ccnc(n1)N2
REMARK SMILES IDX 9 1 10 2 11 3 12 4 13 5 14 6 8 7 7 8 6 9 3 10 2 11 1 12 4 13
REMARK SMILES IDX 5 14 15 15 16 16 17 17 18 18 19 19 35 21 33 23 32 24 34 25
REMARK SMILES IDX 31 26 29 27 30 28 27 29 26 30 28 31 25 32 23 33 24 34 22 35
REMARK SMILES IDX 21 36 20 37
REMARK H PARENT 35 22
REMARK Flexibility Score:  100.900
ROOT
ATOM      1  C   UNL     1      -8.220  16.082  20.137  1.00  0.00     0.125 A 
ATOM      2  C   UNL     1      -7.542  14.866  20.060  1.00  0.00     0.049 A 
ATOM      3  C   UNL     1      -8.230  13.700  19.706  1.00  0.00     0.030 A 
ATOM      4  C   UNL     1      -9.601  13.714  19.425  1.00  0.00     0.042 A 
ATOM      5  C   UNL     1     -10.264  14.944  19.511  1.00  0.00     0.036 A 
ATOM      6  C   UNL     1      -9.597  16.132  19.872  1.00  0.00     0.022 A 
ENDROOT
BRANCH   1   7
ATOM      7  O   UNL     1      -7.623  17.255  20.526  1.00  0.00    -0.492 OA
BRANCH   7   8
ATOM      8  C   UNL     1      -6.363  17.539  19.902  1.00  0.00     0.245 C 
BRANCH   8   9
ATOM      9  C   UNL     1      -5.280  17.487  20.993  1.00  0.00     0.126 C 
BRANCH   9  10
ATOM     10  N   UNL     1      -5.704  17.705  22.388  1.00  0.00    -0.301 NA
BRANCH  10  11
ATOM     11  C   UNL     1      -5.775  16.474  23.193  1.00  0.00     0.081 C 
ATOM     12  C   UNL     1      -4.855  15.360  22.703  1.00  0.00     0.021 C 
ENDBRANCH  10  11
BRANCH  10  13
ATOM     13  C   UNL     1      -4.906  18.722  23.098  1.00  0.00     0.081 C 
ATOM     14  C   UNL     1      -3.819  19.368  22.244  1.00  0.00     0.021 C 
ENDBRANCH  10  13
ENDBRANCH   9  10
ENDBRANCH   8   9
ENDBRANCH   7   8
ENDBRANCH   1   7
BRANCH   6  15
ATOM     15  C   UNL     1     -10.345  17.439  20.030  1.00  0.00     0.200 C 
BRANCH  15  16
ATOM     16  O   UNL     1     -10.919  17.870  18.797  1.00  0.00    -0.373 OA
BRANCH  16  17
ATOM     17  C   UNL     1     -12.105  18.632  18.967  1.00  0.00     0.188 C 
BRANCH  17  18
ATOM     18  C   UNL     1     -12.116  19.223  20.345  1.00  0.00    -0.001 C 
ATOM     19  C   UNL     1     -13.175  19.371  21.158  1.00  0.00    -0.001 CG0
ATOM     20  G   UNL     1     -14.606  19.056  20.840  1.00  0.00     0.000 G0
ENDBRANCH  17  18
ENDBRANCH  16  17
ENDBRANCH  15  16
ENDBRANCH   6  15
BRANCH   4  21
ATOM     21  N   UNL     1     -10.226  12.515  19.071  1.00  0.00    -0.324 N 
ATOM     22  H   UNL     1      -9.651  11.801  18.650  1.00  0.00     0.170 HD
BRANCH  21  23
ATOM     23  C   UNL     1     -11.524  12.030  19.199  1.00  0.00     0.227 A 
ATOM     24  N   UNL     1     -11.652  10.706  19.012  1.00  0.00    -0.221 NA
ATOM     25  N   UNL     1     -12.562  12.835  19.453  1.00  0.00    -0.213 NA
ATOM     26  C   UNL     1     -12.892  10.194  19.104  1.00  0.00     0.117 A 
ATOM     27  C   UNL     1     -13.801  12.301  19.536  1.00  0.00     0.076 A 
ATOM     28  C   UNL     1     -14.008  10.948  19.364  1.00  0.00     0.049 A 
BRANCH  27  29
ATOM     29  C   UNL     1     -14.901  13.263  19.776  1.00  0.00     0.001 A 
ATOM     30  C   UNL     1     -16.214  12.851  20.067  1.00  0.00     0.010 A 
ATOM     31  C   UNL     1     -14.666  14.650  19.704  1.00  0.00     0.016 A 
ATOM     32  C   UNL     1     -17.246  13.777  20.247  1.00  0.00     0.001 A 
ATOM     33  C   UNL     1     -15.690  15.595  19.887  1.00  0.00    -0.022 A 
ATOM     34  C   UNL     1     -16.987  15.142  20.144  1.00  0.00     0.006 A 
BRANCH  33  35
ATOM     35  C   UNL     1     -15.389  17.068  19.745  1.00  0.00     0.196 C 
BRANCH  35  36
ATOM     36  O   UNL     1     -14.826  17.639  20.930  1.00  0.00    -0.373 OA
BRANCH  36  37
ATOM     37  C   UNL     1     -14.614  19.049  20.833  1.00  0.00     0.188 CG0
ATOM     38  G   UNL     1     -13.189  19.370  21.168  1.00  0.00     0.000 G0
ENDBRANCH  36  37
ENDBRANCH  35  36
ENDBRANCH  33  35
ENDBRANCH  27  29
ENDBRANCH  21  23
ENDBRANCH   4  21
TORSDOF 6
ENDMDL
MODEL 7
REMARK VINA RESULT:    -6.433      1.677      2.315
REMARK INTER + INTRA:         -13.827
REMARK INTER:                 -12.814
REMARK INTRA:                  -1.012
REMARK UNBOUND:                -1.377
REMARK SMILES CCN(CC)CCOc1ccc2cc1COCC=CCOCc1cccc(c1)-c1ccnc(n1)N2
REMARK SMILES IDX 9 1 10 2 11 3 12 4 13 5 14 6 8 7 7 8 6 9 3 10 2 11 1 12 4 13
REMARK SMILES IDX 5 14 15 15 16 16 17 17 18 18 19 19 35 21 33 23 32 24 34 25
REMARK SMILES IDX 31 26 29 27 30 28 27 29 26 30 28 31 25 32 23 33 24 34 22 35
REMARK SMILES IDX 21 36 20 37
REMARK H PARENT 35 22
REMARK Flexibility Score:  100.900
ROOT
ATOM      1  C   UNL     1     -14.810  19.720  19.299  1.00  0.00     0.125 A 
ATOM      2  C   UNL     1     -13.741  20.157  18.517  1.00  0.00     0.049 A 
ATOM      3  C   UNL     1     -12.457  19.644  18.732  1.00  0.00     0.030 A 
ATOM      4  C   UNL     1     -12.206  18.692  19.727  1.00  0.00     0.042 A 
ATOM      5  C   UNL     1     -13.290  18.270  20.505  1.00  0.00     0.036 A 
ATOM      6  C   UNL     1     -14.592  18.776  20.314  1.00  0.00     0.022 A 
ENDROOT
BRANCH   1   7
ATOM      7  O   UNL     1     -16.084  20.215  19.180  1.00  0.00    -0.492 OA
BRANCH   7   8
ATOM      8  C   UNL     1     -16.178  21.638  19.029  1.00  0.00     0.245 C 
BRANCH   8   9
ATOM      9  C   UNL     1     -16.746  22.210  20.340  1.00  0.00     0.126 C 
BRANCH   9  10
ATOM     10  N   UNL     1     -16.186  23.482  20.829  1.00  0.00    -0.301 NA
BRANCH  10  11
ATOM     11  C   UNL     1     -14.760  23.671  20.514  1.00  0.00     0.081 C 
ATOM     12  C   UNL     1     -14.005  24.507  21.543  1.00  0.00     0.021 C 
ENDBRANCH  10  11
BRANCH  10  13
ATOM     13  C   UNL     1     -16.953  24.669  20.406  1.00  0.00     0.081 C 
ATOM     14  C   UNL     1     -18.464  24.457  20.379  1.00  0.00     0.021 C 
ENDBRANCH  10  13
ENDBRANCH   9  10
ENDBRANCH   8   9
ENDBRANCH   7   8
ENDBRANCH   1   7
BRANCH   6  15
ATOM     15  C   UNL     1     -15.738  18.361  21.212  1.00  0.00     0.200 C 
BRANCH  15  16
ATOM     16  O   UNL     1     -16.256  17.081  20.848  1.00  0.00    -0.373 OA
BRANCH  16  17
ATOM     17  C   UNL     1     -17.081  17.119  19.693  1.00  0.00     0.188 C 
BRANCH  17  18
ATOM     18  C   UNL     1     -16.450  16.293  18.612  1.00  0.00    -0.001 C 
ATOM     19  C   UNL     1     -16.232  14.966  18.625  1.00  0.00    -0.001 CG0
ATOM     20  G   UNL     1     -16.492  14.022  19.759  1.00  0.00     0.000 G0
ENDBRANCH  17  18
ENDBRANCH  16  17
ENDBRANCH  15  16
ENDBRANCH   6  15
BRANCH   4  21
ATOM     21  N   UNL     1     -10.901  18.216  19.886  1.00  0.00    -0.324 N 
ATOM     22  H   UNL     1     -10.171  18.902  20.011  1.00  0.00     0.170 HD
BRANCH  21  23
ATOM     23  C   UNL     1     -10.338  16.945  19.949  1.00  0.00     0.227 A 
ATOM     24  N   UNL     1      -9.009  16.925  20.131  1.00  0.00    -0.221 NA
ATOM     25  N   UNL     1     -11.073  15.835  19.803  1.00  0.00    -0.213 NA
ATOM     26  C   UNL     1      -8.417  15.719  20.177  1.00  0.00     0.117 A 
ATOM     27  C   UNL     1     -10.457  14.632  19.847  1.00  0.00     0.076 A 
ATOM     28  C   UNL     1      -9.095  14.534  20.039  1.00  0.00     0.049 A 
BRANCH  27  29
ATOM     29  C   UNL     1     -11.330  13.456  19.633  1.00  0.00     0.001 A 
ATOM     30  C   UNL     1     -10.918  12.334  18.890  1.00  0.00     0.010 A 
ATOM     31  C   UNL     1     -12.634  13.427  20.166  1.00  0.00     0.016 A 
ATOM     32  C   UNL     1     -11.776  11.254  18.665  1.00  0.00     0.001 A 
ATOM     33  C   UNL     1     -13.508  12.347  19.953  1.00  0.00    -0.022 A 
ATOM     34  C   UNL     1     -13.068  11.266  19.183  1.00  0.00     0.006 A 
BRANCH  33  35
ATOM     35  C   UNL     1     -14.914  12.396  20.504  1.00  0.00     0.196 C 
BRANCH  35  36
ATOM     36  O   UNL     1     -15.886  12.757  19.519  1.00  0.00    -0.373 OA
BRANCH  36  37
ATOM     37  C   UNL     1     -16.493  14.028  19.762  1.00  0.00     0.188 CG0
ATOM     38  G   UNL     1     -16.223  14.946  18.608  1.00  0.00     0.000 G0
ENDBRANCH  36  37
ENDBRANCH  35  36
ENDBRANCH  33  35
ENDBRANCH  27  29
ENDBRANCH  21  23
ENDBRANCH   4  21
TORSDOF 6
ENDMDL
MODEL 8
REMARK VINA RESULT:    -6.400      5.114      7.738
REMARK INTER + INTRA:         -13.763
REMARK INTER:                 -12.315
REMARK INTRA:                  -1.449
REMARK UNBOUND:                -1.377
REMARK SMILES CCN(CC)CCOc1ccc2cc1COCC=CCOCc1cccc(c1)-c1ccnc(n1)N2
REMARK SMILES IDX 9 1 10 2 11 3 12 4 13 5 14 6 8 7 7 8 6 9 3 10 2 11 1 12 4 13
REMARK SMILES IDX 5 14 15 15 16 16 17 17 18 18 19 19 35 21 33 23 32 24 34 25
REMARK SMILES IDX 31 26 29 27 30 28 27 29 26 30 28 31 25 32 23 33 24 34 22 35
REMARK SMILES IDX 21 36 20 37
REMARK H PARENT 35 22
REMARK Flexibility Score:  100.900
ROOT
ATOM      1  C   UNL     1     -13.742  17.670  18.971  1.00  0.00     0.125 A 
ATOM      2  C   UNL     1     -12.704  16.921  18.420  1.00  0.00     0.049 A 
ATOM      3  C   UNL     1     -11.375  17.222  18.737  1.00  0.00     0.030 A 
ATOM      4  C   UNL     1     -11.048  18.271  19.605  1.00  0.00     0.042 A 
ATOM      5  C   UNL     1     -12.104  19.014  20.145  1.00  0.00     0.036 A 
ATOM      6  C   UNL     1     -13.451  18.736  19.836  1.00  0.00     0.022 A 
ENDROOT
BRANCH   1   7
ATOM      7  O   UNL     1     -15.064  17.466  18.667  1.00  0.00    -0.492 OA
BRANCH   7   8
ATOM      8  C   UNL     1     -15.472  16.093  18.591  1.00  0.00     0.245 C 
BRANCH   8   9
ATOM      9  C   UNL     1     -15.597  15.563  20.030  1.00  0.00     0.126 C 
BRANCH   9  10
ATOM     10  N   UNL     1     -15.248  14.151  20.270  1.00  0.00    -0.301 NA
BRANCH  10  11
ATOM     11  C   UNL     1     -16.234  13.192  19.744  1.00  0.00     0.081 C 
ATOM     12  C   UNL     1     -17.552  13.174  20.513  1.00  0.00     0.021 C 
ENDBRANCH  10  11
BRANCH  10  13
ATOM     13  C   UNL     1     -13.898  13.786  19.805  1.00  0.00     0.081 C 
ATOM     14  C   UNL     1     -12.777  14.218  20.746  1.00  0.00     0.021 C 
ENDBRANCH  10  13
ENDBRANCH   9  10
ENDBRANCH   8   9
ENDBRANCH   7   8
ENDBRANCH   1   7
BRANCH   6  15
ATOM     15  C   UNL     1     -14.577  19.596  20.374  1.00  0.00     0.200 C 
BRANCH  15  16
ATOM     16  O   UNL     1     -15.443  18.853  21.231  1.00  0.00    -0.373 OA
BRANCH  16  17
ATOM     17  C   UNL     1     -16.773  19.350  21.250  1.00  0.00     0.188 C 
BRANCH  17  18
ATOM     18  C   UNL     1     -17.724  18.202  21.412  1.00  0.00    -0.001 C 
ATOM     19  C   UNL     1     -19.047  18.267  21.640  1.00  0.00    -0.001 CG0
ATOM     20  G   UNL     1     -19.860  19.505  21.870  1.00  0.00     0.000 G0
ENDBRANCH  17  18
ENDBRANCH  16  17
ENDBRANCH  15  16
ENDBRANCH   6  15
BRANCH   4  21
ATOM     21  N   UNL     1      -9.701  18.515  19.886  1.00  0.00    -0.324 N 
ATOM     22  H   UNL     1      -9.456  19.441  20.202  1.00  0.00     0.170 HD
BRANCH  21  23
ATOM     23  C   UNL     1      -8.552  17.730  19.863  1.00  0.00     0.227 A 
ATOM     24  N   UNL     1      -8.431  16.877  20.893  1.00  0.00    -0.221 NA
ATOM     25  N   UNL     1      -7.630  17.848  18.901  1.00  0.00    -0.213 NA
ATOM     26  C   UNL     1      -7.327  16.112  20.925  1.00  0.00     0.117 A 
ATOM     27  C   UNL     1      -6.523  17.074  18.955  1.00  0.00     0.076 A 
ATOM     28  C   UNL     1      -6.334  16.169  19.979  1.00  0.00     0.049 A 
BRANCH  27  29
ATOM     29  C   UNL     1      -5.530  17.296  17.880  1.00  0.00     0.001 A 
ATOM     30  C   UNL     1      -5.822  18.044  16.725  1.00  0.00     0.010 A 
ATOM     31  C   UNL     1      -4.237  16.744  17.975  1.00  0.00     0.016 A 
ATOM     32  C   UNL     1      -4.882  18.203  15.703  1.00  0.00     0.001 A 
ATOM     33  C   UNL     1      -3.278  16.899  16.960  1.00  0.00    -0.022 A 
ATOM     34  C   UNL     1      -3.621  17.623  15.814  1.00  0.00     0.006 A 
BRANCH  33  35
ATOM     35  C   UNL     1      -1.926  16.237  17.093  1.00  0.00     0.196 C 
BRANCH  35  36
ATOM     36  O   UNL     1      -1.633  15.345  16.013  1.00  0.00    -0.373 OA
BRANCH  36  37
ATOM     37  C   UNL     1      -0.770  14.269  16.387  1.00  0.00     0.188 CG0
ATOM     38  G   UNL     1       0.543  14.405  15.677  1.00  0.00     0.000 G0
ENDBRANCH  36  37
ENDBRANCH  35  36
ENDBRANCH  33  35
ENDBRANCH  27  29
ENDBRANCH  21  23
ENDBRANCH   4  21
TORSDOF 6
ENDMDL
MODEL 9
REMARK VINA RESULT:    -6.282      5.325     10.378
REMARK INTER + INTRA:         -13.535
REMARK INTER:                 -11.981
REMARK INTRA:                  -1.554
REMARK UNBOUND:                -1.377
REMARK SMILES CCN(CC)CCOc1ccc2cc1COCC=CCOCc1cccc(c1)-c1ccnc(n1)N2
REMARK SMILES IDX 9 1 10 2 11 3 12 4 13 5 14 6 8 7 7 8 6 9 3 10 2 11 1 12 4 13
REMARK SMILES IDX 5 14 15 15 16 16 17 17 18 18 19 19 35 21 33 23 32 24 34 25
REMARK SMILES IDX 31 26 29 27 30 28 27 29 26 30 28 31 25 32 23 33 24 34 22 35
REMARK SMILES IDX 21 36 20 37
REMARK H PARENT 35 22
REMARK Flexibility Score:  100.900
ROOT
ATOM      1  C   UNL     1      -6.466  15.982  20.942  1.00  0.00     0.125 A 
ATOM      2  C   UNL     1      -7.774  16.440  20.785  1.00  0.00     0.049 A 
ATOM      3  C   UNL     1      -8.748  15.606  20.225  1.00  0.00     0.030 A 
ATOM      4  C   UNL     1      -8.446  14.305  19.806  1.00  0.00     0.042 A 
ATOM      5  C   UNL     1      -7.127  13.865  19.968  1.00  0.00     0.036 A 
ATOM      6  C   UNL     1      -6.125  14.687  20.523  1.00  0.00     0.022 A 
ENDROOT
BRANCH   1   7
ATOM      7  O   UNL     1      -5.449  16.759  21.435  1.00  0.00    -0.492 OA
BRANCH   7   8
ATOM      8  C   UNL     1      -5.217  17.987  20.731  1.00  0.00     0.245 C 
BRANCH   8   9
ATOM      9  C   UNL     1      -4.050  17.753  19.756  1.00  0.00     0.126 C 
BRANCH   9  10
ATOM     10  N   UNL     1      -4.327  17.887  18.315  1.00  0.00    -0.301 NA
BRANCH  10  11
ATOM     11  C   UNL     1      -3.170  17.595  17.452  1.00  0.00     0.081 C 
ATOM     12  C   UNL     1      -3.418  16.480  16.440  1.00  0.00     0.021 C 
ENDBRANCH  10  11
BRANCH  10  13
ATOM     13  C   UNL     1      -5.497  17.113  17.861  1.00  0.00     0.081 C 
ATOM     14  C   UNL     1      -6.709  17.969  17.504  1.00  0.00     0.021 C 
ENDBRANCH  10  13
ENDBRANCH   9  10
ENDBRANCH   8   9
ENDBRANCH   7   8
ENDBRANCH   1   7
BRANCH   6  15
ATOM     15  C   UNL     1      -4.688  14.220  20.623  1.00  0.00     0.200 C 
BRANCH  15  16
ATOM     16  O   UNL     1      -3.999  14.365  19.382  1.00  0.00    -0.373 OA
BRANCH  16  17
ATOM     17  C   UNL     1      -2.587  14.390  19.524  1.00  0.00     0.188 C 
BRANCH  17  18
ATOM     18  C   UNL     1      -2.017  13.106  19.000  1.00  0.00    -0.001 C 
ATOM     19  C   UNL     1      -0.728  12.837  18.733  1.00  0.00    -0.001 CG0
ATOM     20  G   UNL     1       0.426  13.789  18.817  1.00  0.00     0.000 G0
ENDBRANCH  17  18
ENDBRANCH  16  17
ENDBRANCH  15  16
ENDBRANCH   6  15
BRANCH   4  21
ATOM     21  N   UNL     1      -9.467  13.521  19.260  1.00  0.00    -0.324 N 
ATOM     22  H   UNL     1      -9.203  12.837  18.567  1.00  0.00     0.170 HD
BRANCH  21  23
ATOM     23  C   UNL     1     -10.838  13.431  19.481  1.00  0.00     0.227 A 
ATOM     24  N   UNL     1     -11.305  12.181  19.624  1.00  0.00    -0.221 NA
ATOM     25  N   UNL     1     -11.625  14.513  19.513  1.00  0.00    -0.213 NA
ATOM     26  C   UNL     1     -12.628  12.042  19.818  1.00  0.00     0.117 A 
ATOM     27  C   UNL     1     -12.953  14.351  19.703  1.00  0.00     0.076 A 
ATOM     28  C   UNL     1     -13.504  13.097  19.866  1.00  0.00     0.049 A 
BRANCH  27  29
ATOM     29  C   UNL     1     -13.761  15.592  19.681  1.00  0.00     0.001 A 
ATOM     30  C   UNL     1     -13.277  16.798  19.143  1.00  0.00     0.010 A 
ATOM     31  C   UNL     1     -15.063  15.607  20.220  1.00  0.00     0.016 A 
ATOM     32  C   UNL     1     -14.043  17.968  19.173  1.00  0.00     0.001 A 
ATOM     33  C   UNL     1     -15.848  16.772  20.253  1.00  0.00    -0.022 A 
ATOM     34  C   UNL     1     -15.316  17.958  19.737  1.00  0.00     0.006 A 
BRANCH  33  35
ATOM     35  C   UNL     1     -17.216  16.741  20.894  1.00  0.00     0.196 C 
BRANCH  35  36
ATOM     36  O   UNL     1     -18.038  17.846  20.505  1.00  0.00    -0.373 OA
BRANCH  36  37
ATOM     37  C   UNL     1     -18.855  18.343  21.567  1.00  0.00     0.188 CG0
ATOM     38  G   UNL     1     -19.440  19.667  21.177  1.00  0.00     0.000 G0
ENDBRANCH  36  37
ENDBRANCH  35  36
ENDBRANCH  33  35
ENDBRANCH  27  29
ENDBRANCH  21  23
ENDBRANCH   4  21
TORSDOF 6
ENDMDL
