MODEL 5
REMARK VINA RESULT:    -7.685      2.040      4.932
REMARK INTER + INTRA:         -12.344
REMARK INTER:                 -11.084
REMARK INTRA:                  -1.260
REMARK UNBOUND:                -1.515
REMARK SMILES COc1ccccc1C(=O)n1nc(-c2ccccn2)nc1NCc1cccs1
REMARK SMILES IDX 11 1 12 2 13 3 20 4 21 5 9 6 10 7 8 8 3 9 4 10 5 11 7 12
REMARK SMILES IDX 6 13 2 14 1 15 22 16 23 18 24 19 25 20 28 21 26 22 27 23
REMARK SMILES IDX 14 24 15 25 19 26 16 27 18 28 17 29
REMARK H PARENT 22 17
ROOT
ATOM      1  N   UNL     1      -3.815  12.414  22.331  1.00  0.00    -0.160 N 
ATOM      2  N   UNL     1      -4.658  11.829  21.429  1.00  0.00    -0.139 NA
ATOM      3  C   UNL     1      -4.268  10.546  21.438  1.00  0.00     0.202 A 
ATOM      4  N   UNL     1      -3.206  10.298  22.275  1.00  0.00    -0.189 NA
ATOM      5  C   UNL     1      -2.910  11.462  22.799  1.00  0.00     0.229 A 
ENDROOT
BRANCH   1   6
ATOM      6  C   UNL     1      -4.014  13.759  22.696  1.00  0.00     0.285 C 
ATOM      7  O   UNL     1      -3.635  14.647  21.929  1.00  0.00    -0.266 OA
BRANCH   6   8
ATOM      8  C   UNL     1      -4.678  14.215  23.928  1.00  0.00     0.084 A 
ATOM      9  C   UNL     1      -6.070  14.261  24.022  1.00  0.00     0.131 A 
ATOM     10  C   UNL     1      -6.678  14.680  25.204  1.00  0.00     0.047 A 
ATOM     11  C   UNL     1      -5.890  15.005  26.311  1.00  0.00     0.004 A 
ATOM     12  C   UNL     1      -3.888  14.516  25.043  1.00  0.00     0.018 A 
ATOM     13  C   UNL     1      -4.498  14.916  26.233  1.00  0.00     0.001 A 
BRANCH   9  14
ATOM     14  O   UNL     1      -6.841  13.992  22.921  1.00  0.00    -0.496 OA
ATOM     15  C   UNL     1      -7.629  12.817  23.144  1.00  0.00     0.278 C 
ENDBRANCH   9  14
ENDBRANCH   6   8
ENDBRANCH   1   6
BRANCH   5  16
ATOM     16  N   UNL     1      -1.898  11.724  23.669  1.00  0.00    -0.349 N 
ATOM     17  H   UNL     1      -1.399  12.596  23.495  1.00  0.00     0.164 HD
BRANCH  16  18
ATOM     18  C   UNL     1      -0.949  10.640  23.944  1.00  0.00     0.163 C 
BRANCH  18  19
ATOM     19  C   UNL     1      -1.163   9.937  25.257  1.00  0.00     0.024 A 
ATOM     20  C   UNL     1      -0.402   8.940  25.839  1.00  0.00     0.017 A 
ATOM     21  S   UNL     1      -2.521  10.331  26.227  1.00  0.00    -0.147 S 
ATOM     22  C   UNL     1      -0.928   8.512  27.091  1.00  0.00     0.012 A 
ATOM     23  C   UNL     1      -2.081   9.189  27.422  1.00  0.00     0.065 A 
ENDBRANCH  18  19
ENDBRANCH  16  18
ENDBRANCH   5  16
BRANCH   3  24
ATOM     24  C   UNL     1      -4.903   9.494  20.629  1.00  0.00     0.109 A 
ATOM     25  C   UNL     1      -6.203   9.072  20.905  1.00  0.00     0.032 A 
ATOM     26  N   UNL     1      -4.170   8.964  19.613  1.00  0.00    -0.253 NA
ATOM     27  C   UNL     1      -6.772   8.073  20.117  1.00  0.00     0.004 A 
ATOM     28  C   UNL     1      -4.748   7.997  18.869  1.00  0.00     0.112 A 
ATOM     29  C   UNL     1      -6.031   7.523  19.079  1.00  0.00     0.020 A 
ENDBRANCH   3  24
TORSDOF 7
ENDMDL
