MODEL 1
REMARK VINA RESULT:    -7.803      0.000      0.000
REMARK INTER + INTRA:         -10.821
REMARK INTER:                 -10.539
REMARK INTRA:                  -0.281
REMARK UNBOUND:                -0.281
REMARK SMILES NC(=O)c1ccc2c(c1)nc([C@H]1CC[C@H](O)CC1)n2CCCO
REMARK SMILES IDX 20 1 19 2 4 3 5 4 9 5 6 6 8 7 7 8 10 9 11 10 2 11 1 12 3 13
REMARK SMILES IDX 12 16 18 17 13 18 17 19 14 20 15 21 16 22 21 24 22 25 23 26
REMARK H PARENT 1 14 1 15 16 23 23 27
ROOT
ATOM      1  C   UNL     1       7.195 -22.238  22.699  1.00  0.00     0.126 C 
ENDROOT
BRANCH   1   2
ATOM      2  N   UNL     1       5.997 -22.756  22.061  1.00  0.00    -0.328 N 
ATOM      3  C   UNL     1       4.109 -26.408  21.903  1.00  0.00     0.041 A 
ATOM      4  C   UNL     1       5.282 -26.375  22.670  1.00  0.00     0.016 A 
ATOM      5  C   UNL     1       3.657 -25.256  21.242  1.00  0.00     0.044 A 
ATOM      6  C   UNL     1       6.022 -25.193  22.813  1.00  0.00     0.029 A 
ATOM      7  C   UNL     1       4.386 -24.068  21.385  1.00  0.00     0.090 A 
ATOM      8  C   UNL     1       5.542 -24.054  22.155  1.00  0.00     0.068 A 
ATOM      9  N   UNL     1       4.133 -22.830  20.862  1.00  0.00    -0.233 NA
ATOM     10  C   UNL     1       5.099 -22.040  21.290  1.00  0.00     0.112 A 
BRANCH   3  11
ATOM     11  C   UNL     1       3.316 -27.654  21.740  1.00  0.00     0.248 C 
ATOM     12  N   UNL     1       2.111 -27.555  21.102  1.00  0.00    -0.366 N 
ATOM     13  O   UNL     1       3.728 -28.737  22.134  1.00  0.00    -0.270 OA
ATOM     14  H   UNL     1       1.766 -26.712  20.668  1.00  0.00     0.159 HD
ATOM     15  H   UNL     1       1.583 -28.410  20.983  1.00  0.00     0.159 HD
ENDBRANCH   3  11
BRANCH  10  16
ATOM     16  C   UNL     1       5.201 -20.559  21.008  1.00  0.00     0.056 C 
ATOM     17  C   UNL     1       4.017 -20.047  20.169  1.00  0.00     0.014 C 
ATOM     18  C   UNL     1       5.364 -19.762  22.309  1.00  0.00     0.014 C 
ATOM     19  C   UNL     1       2.721 -19.858  20.963  1.00  0.00     0.032 C 
ATOM     20  C   UNL     1       4.059 -19.617  23.096  1.00  0.00     0.032 C 
ATOM     21  C   UNL     1       2.934 -19.045  22.238  1.00  0.00     0.114 C 
BRANCH  21  22
ATOM     22  O   UNL     1       3.266 -17.699  21.891  1.00  0.00    -0.393 OA
ATOM     23  H   UNL     1       2.591 -17.127  22.294  1.00  0.00     0.210 HD
ENDBRANCH  21  22
ENDBRANCH  10  16
ENDBRANCH   1   2
BRANCH   1  24
ATOM     24  C   UNL     1       8.493 -22.650  22.000  1.00  0.00     0.050 C 
BRANCH  24  25
ATOM     25  C   UNL     1       9.078 -21.571  21.099  1.00  0.00     0.158 C 
BRANCH  25  26
ATOM     26  O   UNL     1      10.415 -21.906  20.757  1.00  0.00    -0.396 OA
ATOM     27  H   UNL     1      10.950 -21.104  20.899  1.00  0.00     0.210 HD
ENDBRANCH  25  26
ENDBRANCH  24  25
ENDBRANCH   1  24
TORSDOF 7
ENDMDL
MODEL 2
REMARK VINA RESULT:    -7.672      2.920      5.321
REMARK INTER + INTRA:         -10.644
REMARK INTER:                 -10.476
REMARK INTRA:                  -0.168
REMARK UNBOUND:                -0.281
REMARK SMILES NC(=O)c1ccc2c(c1)nc([C@H]1CC[C@H](O)CC1)n2CCCO
REMARK SMILES IDX 20 1 19 2 4 3 5 4 9 5 6 6 8 7 7 8 10 9 11 10 2 11 1 12 3 13
REMARK SMILES IDX 12 16 18 17 13 18 17 19 14 20 15 21 16 22 21 24 22 25 23 26
REMARK H PARENT 1 14 1 15 16 23 23 27
ROOT
ATOM      1  C   UNL     1       3.481 -26.071  21.100  1.00  0.00     0.126 C 
ENDROOT
BRANCH   1   2
ATOM      2  N   UNL     1       4.606 -25.557  21.862  1.00  0.00    -0.328 N 
ATOM      3  C   UNL     1       7.492 -27.201  24.292  1.00  0.00     0.041 A 
ATOM      4  C   UNL     1       6.576 -28.114  23.751  1.00  0.00     0.016 A 
ATOM      5  C   UNL     1       7.384 -25.831  24.008  1.00  0.00     0.044 A 
ATOM      6  C   UNL     1       5.544 -27.689  22.902  1.00  0.00     0.029 A 
ATOM      7  C   UNL     1       6.361 -25.398  23.155  1.00  0.00     0.090 A 
ATOM      8  C   UNL     1       5.467 -26.319  22.623  1.00  0.00     0.068 A 
ATOM      9  N   UNL     1       6.074 -24.133  22.720  1.00  0.00    -0.233 NA
ATOM     10  C   UNL     1       5.026 -24.241  21.926  1.00  0.00     0.112 A 
BRANCH   3  11
ATOM     11  C   UNL     1       8.588 -27.635  25.195  1.00  0.00     0.248 C 
ATOM     12  N   UNL     1       8.666 -28.966  25.497  1.00  0.00    -0.366 N 
ATOM     13  O   UNL     1       9.412 -26.845  25.635  1.00  0.00    -0.270 OA
ATOM     14  H   UNL     1       8.080 -29.677  25.086  1.00  0.00     0.159 HD
ATOM     15  H   UNL     1       9.423 -29.256  26.103  1.00  0.00     0.159 HD
ENDBRANCH   3  11
BRANCH  10  16
ATOM     16  C   UNL     1       4.388 -23.100  21.169  1.00  0.00     0.056 C 
ATOM     17  C   UNL     1       4.756 -21.731  21.769  1.00  0.00     0.014 C 
ATOM     18  C   UNL     1       4.725 -23.176  19.673  1.00  0.00     0.014 C 
ATOM     19  C   UNL     1       6.165 -21.247  21.410  1.00  0.00     0.032 C 
ATOM     20  C   UNL     1       6.149 -22.717  19.352  1.00  0.00     0.032 C 
ATOM     21  C   UNL     1       6.443 -21.328  19.912  1.00  0.00     0.114 C 
BRANCH  21  22
ATOM     22  O   UNL     1       5.623 -20.379  19.226  1.00  0.00    -0.393 OA
ATOM     23  H   UNL     1       5.572 -19.588  19.790  1.00  0.00     0.210 HD
ENDBRANCH  21  22
ENDBRANCH  10  16
ENDBRANCH   1   2
BRANCH   1  24
ATOM     24  C   UNL     1       2.574 -27.010  21.899  1.00  0.00     0.050 C 
BRANCH  24  25
ATOM     25  C   UNL     1       2.082 -28.214  21.106  1.00  0.00     0.158 C 
BRANCH  25  26
ATOM     26  O   UNL     1       2.821 -29.368  21.481  1.00  0.00    -0.396 OA
ATOM     27  H   UNL     1       2.975 -29.878  20.666  1.00  0.00     0.210 HD
ENDBRANCH  25  26
ENDBRANCH  24  25
ENDBRANCH   1  24
TORSDOF 7
ENDMDL
MODEL 3
REMARK VINA RESULT:    -7.292      4.406      6.853
REMARK INTER + INTRA:         -10.131
REMARK INTER:                  -9.728
REMARK INTRA:                  -0.403
REMARK UNBOUND:                -0.281
REMARK SMILES NC(=O)c1ccc2c(c1)nc([C@H]1CC[C@H](O)CC1)n2CCCO
REMARK SMILES IDX 20 1 19 2 4 3 5 4 9 5 6 6 8 7 7 8 10 9 11 10 2 11 1 12 3 13
REMARK SMILES IDX 12 16 18 17 13 18 17 19 14 20 15 21 16 22 21 24 22 25 23 26
REMARK H PARENT 1 14 1 15 16 23 23 27
ROOT
ATOM      1  C   UNL     1       6.405 -27.970  22.931  1.00  0.00     0.126 C 
ENDROOT
BRANCH   1   2
ATOM      2  N   UNL     1       7.303 -27.039  23.593  1.00  0.00    -0.328 N 
ATOM      3  C   UNL     1      10.029 -27.287  26.666  1.00  0.00     0.041 A 
ATOM      4  C   UNL     1       9.369 -28.484  26.355  1.00  0.00     0.016 A 
ATOM      5  C   UNL     1       9.738 -26.109  25.960  1.00  0.00     0.044 A 
ATOM      6  C   UNL     1       8.419 -28.542  25.327  1.00  0.00     0.029 A 
ATOM      7  C   UNL     1       8.795 -26.160  24.926  1.00  0.00     0.090 A 
ATOM      8  C   UNL     1       8.156 -27.357  24.629  1.00  0.00     0.068 A 
ATOM      9  N   UNL     1       8.369 -25.160  24.095  1.00  0.00    -0.233 NA
ATOM     10  C   UNL     1       7.483 -25.704  23.282  1.00  0.00     0.112 A 
BRANCH   3  11
ATOM     11  C   UNL     1      11.036 -27.209  27.755  1.00  0.00     0.248 C 
ATOM     12  N   UNL     1      11.775 -26.062  27.850  1.00  0.00    -0.366 N 
ATOM     13  O   UNL     1      11.188 -28.119  28.559  1.00  0.00    -0.270 OA
ATOM     14  H   UNL     1      11.625 -25.242  27.281  1.00  0.00     0.159 HD
ATOM     15  H   UNL     1      12.449 -26.012  28.602  1.00  0.00     0.159 HD
ENDBRANCH   3  11
BRANCH  10  16
ATOM     16  C   UNL     1       6.782 -24.985  22.153  1.00  0.00     0.056 C 
ATOM     17  C   UNL     1       5.532 -24.229  22.636  1.00  0.00     0.014 C 
ATOM     18  C   UNL     1       7.753 -24.062  21.403  1.00  0.00     0.014 C 
ATOM     19  C   UNL     1       5.836 -22.910  23.355  1.00  0.00     0.032 C 
ATOM     20  C   UNL     1       8.061 -22.768  22.161  1.00  0.00     0.032 C 
ATOM     21  C   UNL     1       6.791 -22.022  22.561  1.00  0.00     0.114 C 
BRANCH  21  22
ATOM     22  O   UNL     1       6.139 -21.567  21.374  1.00  0.00    -0.393 OA
ATOM     23  H   UNL     1       6.702 -20.875  20.988  1.00  0.00     0.210 HD
ENDBRANCH  21  22
ENDBRANCH  10  16
ENDBRANCH   1   2
BRANCH   1  24
ATOM     24  C   UNL     1       4.945 -27.837  23.372  1.00  0.00     0.050 C 
BRANCH  24  25
ATOM     25  C   UNL     1       3.945 -28.416  22.379  1.00  0.00     0.158 C 
BRANCH  25  26
ATOM     26  O   UNL     1       3.990 -29.834  22.427  1.00  0.00    -0.396 OA
ATOM     27  H   UNL     1       3.149 -30.128  22.821  1.00  0.00     0.210 HD
ENDBRANCH  25  26
ENDBRANCH  24  25
ENDBRANCH   1  24
TORSDOF 7
ENDMDL
MODEL 4
REMARK VINA RESULT:    -7.226      1.341      1.391
REMARK INTER + INTRA:         -10.042
REMARK INTER:                  -9.680
REMARK INTRA:                  -0.362
REMARK UNBOUND:                -0.281
REMARK SMILES NC(=O)c1ccc2c(c1)nc([C@H]1CC[C@H](O)CC1)n2CCCO
REMARK SMILES IDX 20 1 19 2 4 3 5 4 9 5 6 6 8 7 7 8 10 9 11 10 2 11 1 12 3 13
REMARK SMILES IDX 12 16 18 17 13 18 17 19 14 20 15 21 16 22 21 24 22 25 23 26
REMARK H PARENT 1 14 1 15 16 23 23 27
ROOT
ATOM      1  C   UNL     1       7.341 -21.270  22.789  1.00  0.00     0.126 C 
ENDROOT
BRANCH   1   2
ATOM      2  N   UNL     1       6.235 -22.020  22.220  1.00  0.00    -0.328 N 
ATOM      3  C   UNL     1       4.965 -25.932  22.373  1.00  0.00     0.041 A 
ATOM      4  C   UNL     1       6.127 -25.652  23.105  1.00  0.00     0.016 A 
ATOM      5  C   UNL     1       4.322 -24.920  21.642  1.00  0.00     0.044 A 
ATOM      6  C   UNL     1       6.666 -24.359  23.144  1.00  0.00     0.029 A 
ATOM      7  C   UNL     1       4.850 -23.623  21.681  1.00  0.00     0.090 A 
ATOM      8  C   UNL     1       5.998 -23.364  22.418  1.00  0.00     0.068 A 
ATOM      9  N   UNL     1       4.391 -22.484  21.077  1.00  0.00    -0.233 NA
ATOM     10  C   UNL     1       5.221 -21.519  21.423  1.00  0.00     0.112 A 
BRANCH   3  11
ATOM     11  C   UNL     1       4.383 -27.297  22.320  1.00  0.00     0.248 C 
ATOM     12  N   UNL     1       5.162 -28.332  22.758  1.00  0.00    -0.366 N 
ATOM     13  O   UNL     1       3.241 -27.497  21.927  1.00  0.00    -0.270 OA
ATOM     14  H   UNL     1       6.068 -28.218  23.185  1.00  0.00     0.159 HD
ATOM     15  H   UNL     1       4.754 -29.257  22.731  1.00  0.00     0.159 HD
ENDBRANCH   3  11
BRANCH  10  16
ATOM     16  C   UNL     1       5.078 -20.067  21.032  1.00  0.00     0.056 C 
ATOM     17  C   UNL     1       3.869 -19.833  20.109  1.00  0.00     0.014 C 
ATOM     18  C   UNL     1       5.029 -19.166  22.274  1.00  0.00     0.014 C 
ATOM     19  C   UNL     1       2.519 -19.825  20.834  1.00  0.00     0.032 C 
ATOM     20  C   UNL     1       3.678 -19.203  22.994  1.00  0.00     0.032 C 
ATOM     21  C   UNL     1       2.518 -18.902  22.050  1.00  0.00     0.114 C 
BRANCH  21  22
ATOM     22  O   UNL     1       2.627 -17.545  21.615  1.00  0.00    -0.393 OA
ATOM     23  H   UNL     1       1.806 -17.333  21.138  1.00  0.00     0.210 HD
ENDBRANCH  21  22
ENDBRANCH  10  16
ENDBRANCH   1   2
BRANCH   1  24
ATOM     24  C   UNL     1       8.675 -21.504  22.077  1.00  0.00     0.050 C 
BRANCH  24  25
ATOM     25  C   UNL     1       9.859 -21.665  23.022  1.00  0.00     0.158 C 
BRANCH  25  26
ATOM     26  O   UNL     1       9.447 -22.356  24.192  1.00  0.00    -0.396 OA
ATOM     27  H   UNL     1      10.191 -22.313  24.819  1.00  0.00     0.210 HD
ENDBRANCH  25  26
ENDBRANCH  24  25
ENDBRANCH   1  24
TORSDOF 7
ENDMDL
MODEL 5
REMARK VINA RESULT:    -7.189      1.669      4.432
REMARK INTER + INTRA:          -9.992
REMARK INTER:                  -9.580
REMARK INTRA:                  -0.413
REMARK UNBOUND:                -0.281
REMARK SMILES NC(=O)c1ccc2c(c1)nc([C@H]1CC[C@H](O)CC1)n2CCCO
REMARK SMILES IDX 20 1 19 2 4 3 5 4 9 5 6 6 8 7 7 8 10 9 11 10 2 11 1 12 3 13
REMARK SMILES IDX 12 16 18 17 13 18 17 19 14 20 15 21 16 22 21 24 22 25 23 26
REMARK H PARENT 1 14 1 15 16 23 23 27
ROOT
ATOM      1  C   UNL     1       4.451 -21.171  19.938  1.00  0.00     0.126 C 
ENDROOT
BRANCH   1   2
ATOM      2  N   UNL     1       5.212 -22.056  20.802  1.00  0.00    -0.328 N 
ATOM      3  C   UNL     1       4.849 -25.963  22.041  1.00  0.00     0.041 A 
ATOM      4  C   UNL     1       3.842 -25.515  21.174  1.00  0.00     0.016 A 
ATOM      5  C   UNL     1       5.879 -25.100  22.442  1.00  0.00     0.044 A 
ATOM      6  C   UNL     1       3.847 -24.207  20.671  1.00  0.00     0.029 A 
ATOM      7  C   UNL     1       5.897 -23.792  21.939  1.00  0.00     0.090 A 
ATOM      8  C   UNL     1       4.894 -23.370  21.075  1.00  0.00     0.068 A 
ATOM      9  N   UNL     1       6.800 -22.790  22.165  1.00  0.00    -0.233 NA
ATOM     10  C   UNL     1       6.390 -21.753  21.461  1.00  0.00     0.112 A 
BRANCH   3  11
ATOM     11  C   UNL     1       4.855 -27.346  22.584  1.00  0.00     0.248 C 
ATOM     12  N   UNL     1       3.848 -28.182  22.191  1.00  0.00    -0.366 N 
ATOM     13  O   UNL     1       5.739 -27.740  23.333  1.00  0.00    -0.270 OA
ATOM     14  H   UNL     1       3.152 -27.947  21.500  1.00  0.00     0.159 HD
ATOM     15  H   UNL     1       3.867 -29.126  22.555  1.00  0.00     0.159 HD
ENDBRANCH   3  11
BRANCH  10  16
ATOM     16  C   UNL     1       7.112 -20.430  21.360  1.00  0.00     0.056 C 
ATOM     17  C   UNL     1       7.667 -19.969  22.720  1.00  0.00     0.014 C 
ATOM     18  C   UNL     1       8.208 -20.482  20.286  1.00  0.00     0.014 C 
ATOM     19  C   UNL     1       8.946 -20.692  23.153  1.00  0.00     0.032 C 
ATOM     20  C   UNL     1       9.460 -21.238  20.738  1.00  0.00     0.032 C 
ATOM     21  C   UNL     1      10.008 -20.702  22.057  1.00  0.00     0.114 C 
BRANCH  21  22
ATOM     22  O   UNL     1      10.481 -19.370  21.844  1.00  0.00    -0.393 OA
ATOM     23  H   UNL     1      11.250 -19.433  21.252  1.00  0.00     0.210 HD
ENDBRANCH  21  22
ENDBRANCH  10  16
ENDBRANCH   1   2
BRANCH   1  24
ATOM     24  C   UNL     1       3.585 -20.164  20.697  1.00  0.00     0.050 C 
BRANCH  24  25
ATOM     25  C   UNL     1       3.312 -18.878  19.926  1.00  0.00     0.158 C 
BRANCH  25  26
ATOM     26  O   UNL     1       2.021 -18.938  19.337  1.00  0.00    -0.396 OA
ATOM     27  H   UNL     1       1.431 -19.343  19.998  1.00  0.00     0.210 HD
ENDBRANCH  25  26
ENDBRANCH  24  25
ENDBRANCH   1  24
TORSDOF 7
ENDMDL
MODEL 6
REMARK VINA RESULT:    -7.118      2.673      4.367
REMARK INTER + INTRA:          -9.896
REMARK INTER:                  -9.387
REMARK INTRA:                  -0.510
REMARK UNBOUND:                -0.281
REMARK SMILES NC(=O)c1ccc2c(c1)nc([C@H]1CC[C@H](O)CC1)n2CCCO
REMARK SMILES IDX 20 1 19 2 4 3 5 4 9 5 6 6 8 7 7 8 10 9 11 10 2 11 1 12 3 13
REMARK SMILES IDX 12 16 18 17 13 18 17 19 14 20 15 21 16 22 21 24 22 25 23 26
REMARK H PARENT 1 14 1 15 16 23 23 27
ROOT
ATOM      1  C   UNL     1       4.599 -22.188  21.062  1.00  0.00     0.126 C 
ENDROOT
BRANCH   1   2
ATOM      2  N   UNL     1       5.577 -22.957  21.811  1.00  0.00    -0.328 N 
ATOM      3  C   UNL     1       5.848 -26.841  23.144  1.00  0.00     0.041 A 
ATOM      4  C   UNL     1       4.678 -26.533  22.435  1.00  0.00     0.016 A 
ATOM      5  C   UNL     1       6.823 -25.858  23.371  1.00  0.00     0.044 A 
ATOM      6  C   UNL     1       4.460 -25.248  21.920  1.00  0.00     0.029 A 
ATOM      7  C   UNL     1       6.616 -24.573  22.854  1.00  0.00     0.090 A 
ATOM      8  C   UNL     1       5.454 -24.289  22.148  1.00  0.00     0.068 A 
ATOM      9  N   UNL     1       7.424 -23.471  22.926  1.00  0.00    -0.233 NA
ATOM     10  C   UNL     1       6.798 -22.507  22.278  1.00  0.00     0.112 A 
BRANCH   3  11
ATOM     11  C   UNL     1       6.092 -28.197  23.698  1.00  0.00     0.248 C 
ATOM     12  N   UNL     1       7.232 -28.384  24.428  1.00  0.00    -0.366 N 
ATOM     13  O   UNL     1       5.297 -29.113  23.536  1.00  0.00    -0.270 OA
ATOM     14  H   UNL     1       7.872 -27.646  24.680  1.00  0.00     0.159 HD
ATOM     15  H   UNL     1       7.385 -29.307  24.813  1.00  0.00     0.159 HD
ENDBRANCH   3  11
BRANCH  10  16
ATOM     16  C   UNL     1       7.343 -21.116  22.051  1.00  0.00     0.056 C 
ATOM     17  C   UNL     1       8.192 -20.626  23.238  1.00  0.00     0.014 C 
ATOM     18  C   UNL     1       8.117 -21.039  20.727  1.00  0.00     0.014 C 
ATOM     19  C   UNL     1       9.601 -21.225  23.290  1.00  0.00     0.032 C 
ATOM     20  C   UNL     1       9.507 -21.673  20.803  1.00  0.00     0.032 C 
ATOM     21  C   UNL     1      10.332 -21.107  21.956  1.00  0.00     0.114 C 
BRANCH  21  22
ATOM     22  O   UNL     1      10.607 -19.731  21.685  1.00  0.00    -0.393 OA
ATOM     23  H   UNL     1      11.526 -19.681  21.370  1.00  0.00     0.210 HD
ENDBRANCH  21  22
ENDBRANCH  10  16
ENDBRANCH   1   2
BRANCH   1  24
ATOM     24  C   UNL     1       4.926 -22.063  19.571  1.00  0.00     0.050 C 
BRANCH  24  25
ATOM     25  C   UNL     1       4.999 -23.398  18.841  1.00  0.00     0.158 C 
BRANCH  25  26
ATOM     26  O   UNL     1       6.358 -23.767  18.654  1.00  0.00    -0.396 OA
ATOM     27  H   UNL     1       6.699 -23.219  17.925  1.00  0.00     0.210 HD
ENDBRANCH  25  26
ENDBRANCH  24  25
ENDBRANCH   1  24
TORSDOF 7
ENDMDL
MODEL 7
REMARK VINA RESULT:    -7.069      4.065      6.917
REMARK INTER + INTRA:          -9.830
REMARK INTER:                  -9.429
REMARK INTRA:                  -0.401
REMARK UNBOUND:                -0.281
REMARK SMILES NC(=O)c1ccc2c(c1)nc([C@H]1CC[C@H](O)CC1)n2CCCO
REMARK SMILES IDX 20 1 19 2 4 3 5 4 9 5 6 6 8 7 7 8 10 9 11 10 2 11 1 12 3 13
REMARK SMILES IDX 12 16 18 17 13 18 17 19 14 20 15 21 16 22 21 24 22 25 23 26
REMARK H PARENT 1 14 1 15 16 23 23 27
ROOT
ATOM      1  C   UNL     1       8.655 -23.604  23.586  1.00  0.00     0.126 C 
ENDROOT
BRANCH   1   2
ATOM      2  N   UNL     1       8.263 -24.957  23.938  1.00  0.00    -0.328 N 
ATOM      3  C   UNL     1       5.285 -27.542  22.761  1.00  0.00     0.041 A 
ATOM      4  C   UNL     1       5.275 -26.292  22.128  1.00  0.00     0.016 A 
ATOM      5  C   UNL     1       6.253 -27.841  23.732  1.00  0.00     0.044 A 
ATOM      6  C   UNL     1       6.236 -25.318  22.431  1.00  0.00     0.029 A 
ATOM      7  C   UNL     1       7.222 -26.877  24.036  1.00  0.00     0.090 A 
ATOM      8  C   UNL     1       7.200 -25.646  23.393  1.00  0.00     0.068 A 
ATOM      9  N   UNL     1       8.266 -26.947  24.918  1.00  0.00    -0.233 NA
ATOM     10  C   UNL     1       8.899 -25.792  24.839  1.00  0.00     0.112 A 
BRANCH   3  11
ATOM     11  C   UNL     1       4.272 -28.583  22.453  1.00  0.00     0.248 C 
ATOM     12  N   UNL     1       3.177 -28.203  21.728  1.00  0.00    -0.366 N 
ATOM     13  O   UNL     1       4.415 -29.747  22.805  1.00  0.00    -0.270 OA
ATOM     14  H   UNL     1       3.054 -27.286  21.326  1.00  0.00     0.159 HD
ATOM     15  H   UNL     1       2.498 -28.920  21.511  1.00  0.00     0.159 HD
ENDBRANCH   3  11
BRANCH  10  16
ATOM     16  C   UNL     1      10.155 -25.435  25.598  1.00  0.00     0.056 C 
ATOM     17  C   UNL     1      10.123 -25.955  27.047  1.00  0.00     0.014 C 
ATOM     18  C   UNL     1      11.406 -25.916  24.848  1.00  0.00     0.014 C 
ATOM     19  C   UNL     1      10.406 -27.455  27.182  1.00  0.00     0.032 C 
ATOM     20  C   UNL     1      11.644 -27.423  24.976  1.00  0.00     0.032 C 
ATOM     21  C   UNL     1      11.667 -27.877  26.433  1.00  0.00     0.114 C 
BRANCH  21  22
ATOM     22  O   UNL     1      12.811 -27.303  27.069  1.00  0.00    -0.393 OA
ATOM     23  H   UNL     1      12.849 -26.370  26.796  1.00  0.00     0.210 HD
ENDBRANCH  21  22
ENDBRANCH  10  16
ENDBRANCH   1   2
BRANCH   1  24
ATOM     24  C   UNL     1       9.236 -23.478  22.176  1.00  0.00     0.050 C 
BRANCH  24  25
ATOM     25  C   UNL     1       9.315 -22.044  21.666  1.00  0.00     0.158 C 
BRANCH  25  26
ATOM     26  O   UNL     1      10.449 -21.898  20.823  1.00  0.00    -0.396 OA
ATOM     27  H   UNL     1      11.170 -22.409  21.232  1.00  0.00     0.210 HD
ENDBRANCH  25  26
ENDBRANCH  24  25
ENDBRANCH   1  24
TORSDOF 7
ENDMDL
MODEL 8
REMARK VINA RESULT:    -6.709      2.297      6.386
REMARK INTER + INTRA:          -9.343
REMARK INTER:                  -8.869
REMARK INTRA:                  -0.474
REMARK UNBOUND:                -0.281
REMARK SMILES NC(=O)c1ccc2c(c1)nc([C@H]1CC[C@H](O)CC1)n2CCCO
REMARK SMILES IDX 20 1 19 2 4 3 5 4 9 5 6 6 8 7 7 8 10 9 11 10 2 11 1 12 3 13
REMARK SMILES IDX 12 16 18 17 13 18 17 19 14 20 15 21 16 22 21 24 22 25 23 26
REMARK H PARENT 1 14 1 15 16 23 23 27
ROOT
ATOM      1  C   UNL     1       7.962 -20.962  20.330  1.00  0.00     0.126 C 
ENDROOT
BRANCH   1   2
ATOM      2  N   UNL     1       6.512 -20.981  20.242  1.00  0.00    -0.328 N 
ATOM      3  C   UNL     1       3.566 -18.135  19.843  1.00  0.00     0.041 A 
ATOM      4  C   UNL     1       4.876 -17.637  19.886  1.00  0.00     0.016 A 
ATOM      5  C   UNL     1       3.325 -19.513  19.948  1.00  0.00     0.044 A 
ATOM      6  C   UNL     1       5.975 -18.497  20.014  1.00  0.00     0.029 A 
ATOM      7  C   UNL     1       4.417 -20.381  20.069  1.00  0.00     0.090 A 
ATOM      8  C   UNL     1       5.708 -19.869  20.102  1.00  0.00     0.068 A 
ATOM      9  N   UNL     1       4.432 -21.746  20.162  1.00  0.00    -0.233 NA
ATOM     10  C   UNL     1       5.699 -22.100  20.246  1.00  0.00     0.112 A 
BRANCH   3  11
ATOM     11  C   UNL     1       2.392 -17.235  19.711  1.00  0.00     0.248 C 
ATOM     12  N   UNL     1       2.632 -15.925  19.403  1.00  0.00    -0.366 N 
ATOM     13  O   UNL     1       1.246 -17.647  19.842  1.00  0.00    -0.270 OA
ATOM     14  H   UNL     1       3.543 -15.552  19.184  1.00  0.00     0.159 HD
ATOM     15  H   UNL     1       1.826 -15.322  19.302  1.00  0.00     0.159 HD
ENDBRANCH   3  11
BRANCH  10  16
ATOM     16  C   UNL     1       6.203 -23.523  20.311  1.00  0.00     0.056 C 
ATOM     17  C   UNL     1       6.645 -23.916  21.733  1.00  0.00     0.014 C 
ATOM     18  C   UNL     1       5.161 -24.500  19.749  1.00  0.00     0.014 C 
ATOM     19  C   UNL     1       5.487 -24.227  22.686  1.00  0.00     0.032 C 
ATOM     20  C   UNL     1       4.001 -24.767  20.712  1.00  0.00     0.032 C 
ATOM     21  C   UNL     1       4.490 -25.215  22.086  1.00  0.00     0.114 C 
BRANCH  21  22
ATOM     22  O   UNL     1       5.113 -26.494  21.952  1.00  0.00    -0.393 OA
ATOM     23  H   UNL     1       5.579 -26.672  22.787  1.00  0.00     0.210 HD
ENDBRANCH  21  22
ENDBRANCH  10  16
ENDBRANCH   1   2
BRANCH   1  24
ATOM     24  C   UNL     1       8.490 -20.740  21.749  1.00  0.00     0.050 C 
BRANCH  24  25
ATOM     25  C   UNL     1       9.854 -21.368  22.005  1.00  0.00     0.158 C 
BRANCH  25  26
ATOM     26  O   UNL     1      10.386 -21.869  20.787  1.00  0.00    -0.396 OA
ATOM     27  H   UNL     1       9.917 -22.701  20.598  1.00  0.00     0.210 HD
ENDBRANCH  25  26
ENDBRANCH  24  25
ENDBRANCH   1  24
TORSDOF 7
ENDMDL
