MODEL 9
REMARK VINA RESULT:    -7.007      2.387      6.119
REMARK INTER + INTRA:          -9.691
REMARK INTER:                  -9.442
REMARK INTRA:                  -0.249
REMARK UNBOUND:                -0.635
REMARK SMILES CN(C)CCCn1c(=O)c2cc([N+](=O)[O-])ccc2c2cnc3[nH]ccc3c21
REMARK SMILES IDX 5 1 4 2 2 3 1 4 3 5 6 6 7 7 8 8 27 9 9 10 10 11 26 12 19 13
REMARK SMILES IDX 11 14 18 15 25 16 22 17 20 18 12 19 17 20 24 21 21 22 23 23
REMARK SMILES IDX 16 24 13 26 14 27 15 28
REMARK H PARENT 23 25
ROOT
ATOM      1  C   UNL     1      -4.961  24.298 -31.216  1.00  0.00     0.037 C 
ENDROOT
BRANCH   1   2
ATOM      2  C   UNL     1      -5.277  23.529 -32.504  1.00  0.00     0.085 C 
BRANCH   2   3
ATOM      3  N   UNL     1      -6.494  24.013 -33.177  1.00  0.00    -0.309 NA
ATOM      4  C   UNL     1      -6.331  25.418 -33.565  1.00  0.00     0.104 C 
ATOM      5  C   UNL     1      -6.791  23.214 -34.371  1.00  0.00     0.104 C 
ENDBRANCH   2   3
ENDBRANCH   1   2
BRANCH   1   6
ATOM      6  C   UNL     1      -3.453  24.464 -30.993  1.00  0.00     0.127 C 
BRANCH   6   7
ATOM      7  N   UNL     1      -3.130  24.739 -29.593  1.00  0.00    -0.307 N 
ATOM      8  C   UNL     1      -2.662  23.643 -28.862  1.00  0.00     0.259 A 
ATOM      9  C   UNL     1      -3.348  26.032 -28.996  1.00  0.00     0.064 A 
ATOM     10  O   UNL     1      -2.552  22.511 -29.336  1.00  0.00    -0.269 OA
ATOM     11  C   UNL     1      -2.268  23.839 -27.452  1.00  0.00     0.055 A 
ATOM     12  C   UNL     1      -3.906  27.159 -29.677  1.00  0.00     0.043 A 
ATOM     13  C   UNL     1      -2.993  26.210 -27.629  1.00  0.00     0.025 A 
ATOM     14  C   UNL     1      -1.737  22.738 -26.750  1.00  0.00     0.100 A 
ATOM     15  C   UNL     1      -2.418  25.094 -26.850  1.00  0.00    -0.001 A 
ATOM     16  C   UNL     1      -4.413  27.487 -30.978  1.00  0.00     0.032 A 
ATOM     17  C   UNL     1      -4.049  28.338 -28.947  1.00  0.00     0.139 A 
ATOM     18  C   UNL     1      -3.215  27.473 -27.063  1.00  0.00     0.124 A 
ATOM     19  C   UNL     1      -1.341  22.888 -25.423  1.00  0.00     0.270 A 
ATOM     20  C   UNL     1      -2.001  25.211 -25.504  1.00  0.00     0.017 A 
ATOM     21  C   UNL     1      -4.823  28.803 -30.987  1.00  0.00     0.085 A 
ATOM     22  N   UNL     1      -3.732  28.560 -27.667  1.00  0.00    -0.238 NA
ATOM     23  N   UNL     1      -4.592  29.307 -29.743  1.00  0.00    -0.346 N 
ATOM     24  C   UNL     1      -1.470  24.126 -24.795  1.00  0.00     0.086 A 
ATOM     25  H   UNL     1      -4.784  30.246 -29.426  1.00  0.00     0.167 HD
BRANCH  19  26
ATOM     26  N   UNL     1      -0.787  21.746 -24.685  1.00  0.00     0.062 N 
ATOM     27  O   UNL     1      -1.049  20.610 -25.106  1.00  0.00    -0.258 OA
ATOM     28  O   UNL     1      -0.091  21.983 -23.689  1.00  0.00    -0.258 OA
ENDBRANCH  19  26
ENDBRANCH   6   7
ENDBRANCH   1   6
TORSDOF 5
ENDMDL
