MODEL 8
REMARK VINA RESULT:    -6.805      2.948      5.641
REMARK INTER + INTRA:          -9.479
REMARK INTER:                  -9.131
REMARK INTRA:                  -0.348
REMARK UNBOUND:                -0.883
REMARK SMILES Nc1cc(C(F)(F)F)c(-c2nc(N3CCOCC3)nc(N3CCOCC3)n2)cn1
REMARK SMILES IDX 2 1 3 2 4 3 9 4 28 5 29 6 1 7 5 10 6 11 7 12 8 13 10 14
REMARK SMILES IDX 27 15 11 16 20 17 12 18 19 19 21 20 26 21 22 22 25 23 23 24
REMARK SMILES IDX 24 25 13 26 18 27 14 28 17 29 15 30 16 31
REMARK H PARENT 1 8 1 9
ROOT
ATOM      1  C   UNL     1      50.688  -0.972 -41.870  1.00  0.00     0.123 A 
ATOM      2  C   UNL     1      49.311  -1.027 -42.079  1.00  0.00     0.060 A 
ATOM      3  C   UNL     1      48.814  -1.344 -43.354  1.00  0.00     0.072 A 
ATOM      4  C   UNL     1      49.738  -1.589 -44.403  1.00  0.00     0.050 A 
ATOM      5  C   UNL     1      51.103  -1.519 -44.083  1.00  0.00     0.126 A 
ATOM      6  N   UNL     1      51.583  -1.218 -42.854  1.00  0.00    -0.239 NA
ENDROOT
BRANCH   1   7
ATOM      7  N   UNL     1      51.193  -0.661 -40.609  1.00  0.00    -0.384 N 
ATOM      8  H   UNL     1      51.925   0.029 -40.521  1.00  0.00     0.158 HD
ATOM      9  H   UNL     1      50.817  -1.130 -39.798  1.00  0.00     0.158 HD
ENDBRANCH   1   7
BRANCH   3  10
ATOM     10  C   UNL     1      47.292  -1.468 -43.536  1.00  0.00     0.417 C 
ATOM     11  F   UNL     1      46.891  -0.661 -44.519  1.00  0.00    -0.166 F 
ATOM     12  F   UNL     1      46.937  -2.721 -43.828  1.00  0.00    -0.166 F 
ATOM     13  F   UNL     1      46.625  -1.125 -42.433  1.00  0.00    -0.166 F 
ENDBRANCH   3  10
BRANCH   4  14
ATOM     14  C   UNL     1      49.347  -1.907 -45.810  1.00  0.00     0.169 A 
ATOM     15  N   UNL     1      49.872  -1.127 -46.793  1.00  0.00    -0.193 NA
ATOM     16  N   UNL     1      48.466  -2.920 -46.015  1.00  0.00    -0.193 NA
ATOM     17  C   UNL     1      49.486  -1.435 -48.064  1.00  0.00     0.230 A 
ATOM     18  C   UNL     1      48.138  -3.170 -47.315  1.00  0.00     0.230 A 
ATOM     19  N   UNL     1      48.608  -2.436 -48.364  1.00  0.00    -0.177 NA
BRANCH  17  20
ATOM     20  N   UNL     1      49.956  -0.634 -49.111  1.00  0.00    -0.336 N 
ATOM     21  C   UNL     1      49.344  -0.685 -50.456  1.00  0.00     0.148 C 
ATOM     22  C   UNL     1      50.599   0.672 -48.855  1.00  0.00     0.148 C 
ATOM     23  C   UNL     1      50.203  -0.063 -51.576  1.00  0.00     0.181 C 
ATOM     24  C   UNL     1      51.406   1.233 -50.044  1.00  0.00     0.181 C 
ATOM     25  O   UNL     1      50.605   1.247 -51.214  1.00  0.00    -0.378 OA
ENDBRANCH  17  20
BRANCH  18  26
ATOM     26  N   UNL     1      47.216  -4.188 -47.581  1.00  0.00    -0.336 N 
ATOM     27  C   UNL     1      46.504  -4.265 -48.876  1.00  0.00     0.148 C 
ATOM     28  C   UNL     1      46.448  -4.835 -46.495  1.00  0.00     0.148 C 
ATOM     29  C   UNL     1      45.829  -5.621 -49.160  1.00  0.00     0.181 C 
ATOM     30  C   UNL     1      45.777  -6.166 -46.886  1.00  0.00     0.181 C 
ATOM     31  O   UNL     1      45.011  -6.000 -48.067  1.00  0.00    -0.378 OA
ENDBRANCH  18  26
ENDBRANCH   4  14
TORSDOF 5
ENDMDL
