MODEL 1
REMARK minimizedAffinity -9.70045662
REMARK CNNscore 0.890776694
REMARK CNNaffinity 7.4586997
REMARK SMILES Nc1ncnc2c1c(-c1ccc(F)c(O)c1)nn2Cc1ocnc1-c1ccccc1
REMARK SMILES IDX 2 1 3 2 4 3 5 4 6 5 7 6 8 7 17 8 18 9 1 10 9 13 10 14 16 15
REMARK SMILES IDX 11 16 14 17 12 18 13 19 15 20 19 22 20 23 21 24 24 25 22 26
REMARK SMILES IDX 23 27 25 28 26 29 30 30 27 31 29 32 28 33
REMARK H PARENT 1 11 1 12 15 21
ROOT
ATOM      1  C   UNL     1      51.940   0.505 -50.282  1.00  0.00     0.138 A 
ATOM      2  N   UNL     1      51.460   0.491 -51.545  1.00  0.00    -0.219 NA
ATOM      3  C   UNL     1      50.270  -0.093 -51.780  1.00  0.00     0.226 A 
ATOM      4  N   UNL     1      49.461  -0.702 -50.901  1.00  0.00    -0.217 NA
ATOM      5  C   UNL     1      49.973  -0.656 -49.658  1.00  0.00     0.164 A 
ATOM      6  C   UNL     1      51.163  -0.067 -49.265  1.00  0.00     0.089 A 
ATOM      7  C   UNL     1      51.217  -0.267 -47.853  1.00  0.00     0.106 A 
ATOM      8  N   UNL     1      50.147  -0.952 -47.411  1.00  0.00    -0.170 NA
ATOM      9  N   UNL     1      49.439  -1.219 -48.532  1.00  0.00    -0.239 N 
ENDROOT
BRANCH   1  10
ATOM     10  N   UNL     1      53.176   1.077 -50.108  1.00  0.00    -0.383 N 
ATOM     11  H   UNL     1      53.629   1.433 -50.936  1.00  0.00     0.158 HD
ATOM     12  H   UNL     1      53.663   1.063 -49.228  1.00  0.00     0.158 HD
ENDBRANCH   1  10
BRANCH   7  13
ATOM     13  C   UNL     1      52.235   0.164 -46.901  1.00  0.00     0.007 A 
ATOM     14  C   UNL     1      53.509   0.537 -47.369  1.00  0.00     0.014 A 
ATOM     15  C   UNL     1      51.973   0.180 -45.525  1.00  0.00     0.059 A 
ATOM     16  C   UNL     1      54.505   0.938 -46.474  1.00  0.00     0.044 A 
ATOM     17  C   UNL     1      52.969   0.584 -44.642  1.00  0.00     0.151 A 
ATOM     18  C   UNL     1      54.225   0.959 -45.114  1.00  0.00     0.164 A 
ATOM     19  F   UNL     1      55.171   1.342 -44.242  1.00  0.00    -0.203 F 
BRANCH  17  20
ATOM     20  O   UNL     1      52.691   0.603 -43.304  1.00  0.00    -0.505 OA
ATOM     21  H   UNL     1      53.514   0.857 -42.845  1.00  0.00     0.293 HD
ENDBRANCH  17  20
ENDBRANCH   7  13
BRANCH   9  22
ATOM     22  C   UNL     1      48.228  -2.023 -48.466  1.00  0.00     0.224 C 
BRANCH  22  23
ATOM     23  C   UNL     1      48.216  -2.945 -47.303  1.00  0.00     0.153 A 
ATOM     24  O   UNL     1      49.445  -3.346 -46.836  1.00  0.00    -0.446 OA
ATOM     25  C   UNL     1      47.262  -3.561 -46.513  1.00  0.00     0.114 A 
ATOM     26  C   UNL     1      49.150  -4.204 -45.819  1.00  0.00     0.309 A 
ATOM     27  N   UNL     1      47.869  -4.373 -45.582  1.00  0.00    -0.216 NA
BRANCH  25  28
ATOM     28  C   UNL     1      45.827  -3.459 -46.648  1.00  0.00     0.004 A 
ATOM     29  C   UNL     1      45.006  -3.903 -45.602  1.00  0.00     0.010 A 
ATOM     30  C   UNL     1      45.244  -2.931 -47.809  1.00  0.00     0.010 A 
ATOM     31  C   UNL     1      43.617  -3.850 -45.726  1.00  0.00     0.001 A 
ATOM     32  C   UNL     1      43.854  -2.878 -47.929  1.00  0.00     0.001 A 
ATOM     33  C   UNL     1      43.043  -3.340 -46.891  1.00  0.00     0.000 A 
ENDBRANCH  25  28
ENDBRANCH  22  23
ENDBRANCH   9  22
TORSDOF 6
ENDMDL
MODEL 2
REMARK minimizedAffinity -9.46229935
REMARK CNNscore 0.851569474
REMARK CNNaffinity 7.37810898
REMARK SMILES Nc1ncnc2c1c(-c1ccc(F)c(O)c1)nn2Cc1ocnc1-c1ccccc1
REMARK SMILES IDX 2 1 3 2 4 3 5 4 6 5 7 6 8 7 17 8 18 9 1 10 9 13 10 14 16 15
REMARK SMILES IDX 11 16 14 17 12 18 13 19 15 20 19 22 20 23 21 24 24 25 22 26
REMARK SMILES IDX 23 27 25 28 26 29 30 30 27 31 29 32 28 33
REMARK H PARENT 1 11 1 12 15 21
ROOT
ATOM      1  C   UNL     1      51.961   0.521 -50.150  1.00  0.00     0.138 A 
ATOM      2  N   UNL     1      51.575   0.562 -51.445  1.00  0.00    -0.219 NA
ATOM      3  C   UNL     1      50.409  -0.014 -51.791  1.00  0.00     0.226 A 
ATOM      4  N   UNL     1      49.542  -0.664 -51.002  1.00  0.00    -0.217 NA
ATOM      5  C   UNL     1      49.962  -0.673 -49.724  1.00  0.00     0.164 A 
ATOM      6  C   UNL     1      51.117  -0.099 -49.220  1.00  0.00     0.089 A 
ATOM      7  C   UNL     1      51.069  -0.362 -47.818  1.00  0.00     0.106 A 
ATOM      8  N   UNL     1      49.974  -1.070 -47.486  1.00  0.00    -0.170 NA
ATOM      9  N   UNL     1      49.351  -1.288 -48.666  1.00  0.00    -0.239 N 
ENDROOT
BRANCH   1  10
ATOM     10  N   UNL     1      53.179   1.088 -49.861  1.00  0.00    -0.383 N 
ATOM     11  H   UNL     1      53.688   1.482 -50.637  1.00  0.00     0.158 HD
ATOM     12  H   UNL     1      53.600   1.035 -48.950  1.00  0.00     0.158 HD
ENDBRANCH   1  10
BRANCH   7  13
ATOM     13  C   UNL     1      52.013   0.029 -46.776  1.00  0.00     0.007 A 
ATOM     14  C   UNL     1      51.679  -0.177 -45.424  1.00  0.00     0.014 A 
ATOM     15  C   UNL     1      53.232   0.638 -47.101  1.00  0.00     0.059 A 
ATOM     16  C   UNL     1      52.561   0.204 -44.409  1.00  0.00     0.044 A 
ATOM     17  C   UNL     1      54.104   1.011 -46.084  1.00  0.00     0.151 A 
ATOM     18  C   UNL     1      53.770   0.796 -44.749  1.00  0.00     0.164 A 
ATOM     19  F   UNL     1      54.627   1.168 -43.785  1.00  0.00    -0.203 F 
BRANCH  17  20
ATOM     20  O   UNL     1      55.293   1.595 -46.421  1.00  0.00    -0.505 OA
ATOM     21  H   UNL     1      55.741   1.833 -45.587  1.00  0.00     0.293 HD
ENDBRANCH  17  20
ENDBRANCH   7  13
BRANCH   9  22
ATOM     22  C   UNL     1      48.144  -2.097 -48.725  1.00  0.00     0.224 C 
BRANCH  22  23
ATOM     23  C   UNL     1      47.984  -2.975 -47.538  1.00  0.00     0.153 A 
ATOM     24  O   UNL     1      49.147  -3.396 -46.937  1.00  0.00    -0.446 OA
ATOM     25  C   UNL     1      46.936  -3.530 -46.826  1.00  0.00     0.114 A 
ATOM     26  C   UNL     1      48.722  -4.205 -45.925  1.00  0.00     0.309 A 
ATOM     27  N   UNL     1      47.420  -4.324 -45.812  1.00  0.00    -0.216 NA
BRANCH  25  28
ATOM     28  C   UNL     1      45.526  -3.387 -47.107  1.00  0.00     0.004 A 
ATOM     29  C   UNL     1      45.119  -2.977 -48.385  1.00  0.00     0.010 A 
ATOM     30  C   UNL     1      44.561  -3.644 -46.122  1.00  0.00     0.010 A 
ATOM     31  C   UNL     1      43.765  -2.794 -48.667  1.00  0.00     0.001 A 
ATOM     32  C   UNL     1      43.207  -3.462 -46.409  1.00  0.00     0.001 A 
ATOM     33  C   UNL     1      42.810  -3.034 -47.678  1.00  0.00     0.000 A 
ENDBRANCH  25  28
ENDBRANCH  22  23
ENDBRANCH   9  22
TORSDOF 6
ENDMDL
MODEL 3
REMARK minimizedAffinity -8.38259983
REMARK CNNscore 0.841267884
REMARK CNNaffinity 7.11924124
REMARK SMILES Nc1ncnc2c1c(-c1ccc(F)c(O)c1)nn2Cc1ocnc1-c1ccccc1
REMARK SMILES IDX 2 1 3 2 4 3 5 4 6 5 7 6 8 7 17 8 18 9 1 10 9 13 10 14 16 15
REMARK SMILES IDX 11 16 14 17 12 18 13 19 15 20 19 22 20 23 21 24 24 25 22 26
REMARK SMILES IDX 23 27 25 28 26 29 30 30 27 31 29 32 28 33
REMARK H PARENT 1 11 1 12 15 21
ROOT
ATOM      1  C   UNL     1      50.972   0.481 -49.852  1.00  0.00     0.138 A 
ATOM      2  N   UNL     1      50.560   0.537 -51.138  1.00  0.00    -0.219 NA
ATOM      3  C   UNL     1      49.618  -0.328 -51.555  1.00  0.00     0.226 A 
ATOM      4  N   UNL     1      49.011  -1.293 -50.848  1.00  0.00    -0.217 NA
ATOM      5  C   UNL     1      49.445  -1.308 -49.575  1.00  0.00     0.164 A 
ATOM      6  C   UNL     1      50.381  -0.463 -49.002  1.00  0.00     0.089 A 
ATOM      7  C   UNL     1      50.450  -0.874 -47.637  1.00  0.00     0.106 A 
ATOM      8  N   UNL     1      49.633  -1.915 -47.393  1.00  0.00    -0.170 NA
ATOM      9  N   UNL     1      49.078  -2.187 -48.595  1.00  0.00    -0.239 N 
ENDROOT
BRANCH   1  10
ATOM     10  N   UNL     1      51.964   1.361 -49.493  1.00  0.00    -0.383 N 
ATOM     11  H   UNL     1      52.309   1.971 -50.217  1.00  0.00     0.158 HD
ATOM     12  H   UNL     1      52.404   1.344 -48.589  1.00  0.00     0.158 HD
ENDBRANCH   1  10
BRANCH   7  13
ATOM     13  C   UNL     1      51.254  -0.324 -46.550  1.00  0.00     0.007 A 
ATOM     14  C   UNL     1      52.458   0.341 -46.846  1.00  0.00     0.014 A 
ATOM     15  C   UNL     1      50.861  -0.479 -45.214  1.00  0.00     0.059 A 
ATOM     16  C   UNL     1      53.253   0.862 -45.821  1.00  0.00     0.044 A 
ATOM     17  C   UNL     1      51.657   0.045 -44.200  1.00  0.00     0.151 A 
ATOM     18  C   UNL     1      52.843   0.709 -44.503  1.00  0.00     0.164 A 
ATOM     19  F   UNL     1      53.595   1.204 -43.507  1.00  0.00    -0.203 F 
BRANCH  17  20
ATOM     20  O   UNL     1      51.251  -0.108 -42.904  1.00  0.00    -0.505 OA
ATOM     21  H   UNL     1      51.952   0.271 -42.340  1.00  0.00     0.293 HD
ENDBRANCH  17  20
ENDBRANCH   7  13
BRANCH   9  22
ATOM     22  C   UNL     1      48.175  -3.318 -48.752  1.00  0.00     0.224 C 
BRANCH  22  23
ATOM     23  C   UNL     1      46.759  -2.959 -48.489  1.00  0.00     0.153 A 
ATOM     24  O   UNL     1      45.863  -3.263 -49.487  1.00  0.00    -0.446 OA
ATOM     25  C   UNL     1      46.041  -2.360 -47.470  1.00  0.00     0.114 A 
ATOM     26  C   UNL     1      44.672  -2.797 -49.016  1.00  0.00     0.309 A 
ATOM     27  N   UNL     1      44.716  -2.248 -47.824  1.00  0.00    -0.216 NA
BRANCH  25  28
ATOM     28  C   UNL     1      46.568  -1.846 -46.226  1.00  0.00     0.004 A 
ATOM     29  C   UNL     1      46.832  -2.733 -45.174  1.00  0.00     0.010 A 
ATOM     30  C   UNL     1      46.809  -0.475 -46.053  1.00  0.00     0.010 A 
ATOM     31  C   UNL     1      47.303  -2.255 -43.950  1.00  0.00     0.001 A 
ATOM     32  C   UNL     1      47.283   0.000 -44.828  1.00  0.00     0.001 A 
ATOM     33  C   UNL     1      47.525  -0.888 -43.779  1.00  0.00     0.000 A 
ENDBRANCH  25  28
ENDBRANCH  22  23
ENDBRANCH   9  22
TORSDOF 6
ENDMDL
MODEL 4
REMARK minimizedAffinity -9.33416462
REMARK CNNscore 0.779026628
REMARK CNNaffinity 7.27674675
REMARK SMILES Nc1ncnc2c1c(-c1ccc(F)c(O)c1)nn2Cc1ocnc1-c1ccccc1
REMARK SMILES IDX 2 1 3 2 4 3 5 4 6 5 7 6 8 7 17 8 18 9 1 10 9 13 10 14 16 15
REMARK SMILES IDX 11 16 14 17 12 18 13 19 15 20 19 22 20 23 21 24 24 25 22 26
REMARK SMILES IDX 23 27 25 28 26 29 30 30 27 31 29 32 28 33
REMARK H PARENT 1 11 1 12 15 21
ROOT
ATOM      1  C   UNL     1      51.992   0.548 -50.157  1.00  0.00     0.138 A 
ATOM      2  N   UNL     1      51.602   0.591 -51.450  1.00  0.00    -0.219 NA
ATOM      3  C   UNL     1      50.424   0.036 -51.791  1.00  0.00     0.226 A 
ATOM      4  N   UNL     1      49.547  -0.594 -50.995  1.00  0.00    -0.217 NA
ATOM      5  C   UNL     1      49.971  -0.606 -49.719  1.00  0.00     0.164 A 
ATOM      6  C   UNL     1      51.139  -0.053 -49.221  1.00  0.00     0.089 A 
ATOM      7  C   UNL     1      51.090  -0.309 -47.818  1.00  0.00     0.106 A 
ATOM      8  N   UNL     1      49.982  -0.994 -47.479  1.00  0.00    -0.170 NA
ATOM      9  N   UNL     1      49.352  -1.205 -48.657  1.00  0.00    -0.239 N 
ENDROOT
BRANCH   1  10
ATOM     10  N   UNL     1      53.221   1.092 -49.874  1.00  0.00    -0.383 N 
ATOM     11  H   UNL     1      53.735   1.473 -50.653  1.00  0.00     0.158 HD
ATOM     12  H   UNL     1      53.644   1.035 -48.963  1.00  0.00     0.158 HD
ENDBRANCH   1  10
BRANCH   7  13
ATOM     13  C   UNL     1      52.044   0.068 -46.780  1.00  0.00     0.007 A 
ATOM     14  C   UNL     1      51.730  -0.167 -45.429  1.00  0.00     0.014 A 
ATOM     15  C   UNL     1      53.256   0.691 -47.109  1.00  0.00     0.059 A 
ATOM     16  C   UNL     1      52.621   0.200 -44.418  1.00  0.00     0.044 A 
ATOM     17  C   UNL     1      54.139   1.050 -46.096  1.00  0.00     0.151 A 
ATOM     18  C   UNL     1      53.822   0.807 -44.761  1.00  0.00     0.164 A 
ATOM     19  F   UNL     1      54.690   1.165 -43.801  1.00  0.00    -0.203 F 
BRANCH  17  20
ATOM     20  O   UNL     1      55.320   1.647 -46.437  1.00  0.00    -0.505 OA
ATOM     21  H   UNL     1      55.776   1.872 -45.604  1.00  0.00     0.293 HD
ENDBRANCH  17  20
ENDBRANCH   7  13
BRANCH   9  22
ATOM     22  C   UNL     1      48.129  -1.991 -48.709  1.00  0.00     0.224 C 
BRANCH  22  23
ATOM     23  C   UNL     1      48.080  -3.043 -47.663  1.00  0.00     0.153 A 
ATOM     24  O   UNL     1      49.185  -3.140 -46.850  1.00  0.00    -0.446 OA
ATOM     25  C   UNL     1      47.190  -4.020 -47.253  1.00  0.00     0.114 A 
ATOM     26  C   UNL     1      48.902  -4.190 -46.029  1.00  0.00     0.309 A 
ATOM     27  N   UNL     1      47.732  -4.754 -46.223  1.00  0.00    -0.216 NA
BRANCH  25  28
ATOM     28  C   UNL     1      45.900  -4.315 -47.833  1.00  0.00     0.004 A 
ATOM     29  C   UNL     1      45.503  -5.651 -47.980  1.00  0.00     0.010 A 
ATOM     30  C   UNL     1      45.046  -3.288 -48.259  1.00  0.00     0.010 A 
ATOM     31  C   UNL     1      44.278  -5.961 -48.574  1.00  0.00     0.001 A 
ATOM     32  C   UNL     1      43.820  -3.601 -48.851  1.00  0.00     0.001 A 
ATOM     33  C   UNL     1      43.440  -4.935 -49.011  1.00  0.00     0.000 A 
ENDBRANCH  25  28
ENDBRANCH  22  23
ENDBRANCH   9  22
TORSDOF 6
ENDMDL
MODEL 5
REMARK minimizedAffinity -9.80434799
REMARK CNNscore 0.749810398
REMARK CNNaffinity 7.29614115
REMARK SMILES Nc1ncnc2c1c(-c1ccc(F)c(O)c1)nn2Cc1ocnc1-c1ccccc1
REMARK SMILES IDX 2 1 3 2 4 3 5 4 6 5 7 6 8 7 17 8 18 9 1 10 9 13 10 14 16 15
REMARK SMILES IDX 11 16 14 17 12 18 13 19 15 20 19 22 20 23 21 24 24 25 22 26
REMARK SMILES IDX 23 27 25 28 26 29 30 30 27 31 29 32 28 33
REMARK H PARENT 1 11 1 12 15 21
ROOT
ATOM      1  C   UNL     1      51.999   0.473 -50.432  1.00  0.00     0.138 A 
ATOM      2  N   UNL     1      51.556   0.470 -51.709  1.00  0.00    -0.219 NA
ATOM      3  C   UNL     1      50.352  -0.068 -51.976  1.00  0.00     0.226 A 
ATOM      4  N   UNL     1      49.495  -0.642 -51.118  1.00  0.00    -0.217 NA
ATOM      5  C   UNL     1      49.972  -0.610 -49.861  1.00  0.00     0.164 A 
ATOM      6  C   UNL     1      51.173  -0.064 -49.436  1.00  0.00     0.089 A 
ATOM      7  C   UNL     1      51.178  -0.259 -48.022  1.00  0.00     0.106 A 
ATOM      8  N   UNL     1      50.070  -0.901 -47.608  1.00  0.00    -0.170 NA
ATOM      9  N   UNL     1      49.385  -1.146 -48.748  1.00  0.00    -0.239 N 
ENDROOT
BRANCH   1  10
ATOM     10  N   UNL     1      53.252   0.998 -50.225  1.00  0.00    -0.383 N 
ATOM     11  H   UNL     1      53.741   1.331 -51.041  1.00  0.00     0.158 HD
ATOM     12  H   UNL     1      53.712   0.969 -49.331  1.00  0.00     0.158 HD
ENDBRANCH   1  10
BRANCH   7  13
ATOM     13  C   UNL     1      52.184   0.138 -47.043  1.00  0.00     0.007 A 
ATOM     14  C   UNL     1      53.455   0.553 -47.483  1.00  0.00     0.014 A 
ATOM     15  C   UNL     1      51.914   0.079 -45.669  1.00  0.00     0.059 A 
ATOM     16  C   UNL     1      54.440   0.922 -46.563  1.00  0.00     0.044 A 
ATOM     17  C   UNL     1      52.900   0.451 -44.761  1.00  0.00     0.151 A 
ATOM     18  C   UNL     1      54.153   0.868 -45.206  1.00  0.00     0.164 A 
ATOM     19  F   UNL     1      55.088   1.220 -44.309  1.00  0.00    -0.203 F 
BRANCH  17  20
ATOM     20  O   UNL     1      52.614   0.397 -43.425  1.00  0.00    -0.505 OA
ATOM     21  H   UNL     1      53.431   0.639 -42.949  1.00  0.00     0.293 HD
ENDBRANCH  17  20
ENDBRANCH   7  13
BRANCH   9  22
ATOM     22  C   UNL     1      48.142  -1.902 -48.715  1.00  0.00     0.224 C 
BRANCH  22  23
ATOM     23  C   UNL     1      48.081  -2.850 -47.574  1.00  0.00     0.153 A 
ATOM     24  O   UNL     1      48.848  -2.529 -46.479  1.00  0.00    -0.446 OA
ATOM     25  C   UNL     1      47.439  -4.041 -47.284  1.00  0.00     0.114 A 
ATOM     26  C   UNL     1      48.645  -3.566 -45.617  1.00  0.00     0.309 A 
ATOM     27  N   UNL     1      47.819  -4.495 -46.041  1.00  0.00    -0.216 NA
BRANCH  25  28
ATOM     28  C   UNL     1      46.548  -4.778 -48.150  1.00  0.00     0.004 A 
ATOM     29  C   UNL     1      45.604  -5.645 -47.584  1.00  0.00     0.010 A 
ATOM     30  C   UNL     1      46.619  -4.646 -49.544  1.00  0.00     0.010 A 
ATOM     31  C   UNL     1      44.759  -6.398 -48.402  1.00  0.00     0.001 A 
ATOM     32  C   UNL     1      45.771  -5.398 -50.360  1.00  0.00     0.001 A 
ATOM     33  C   UNL     1      44.846  -6.275 -49.789  1.00  0.00     0.000 A 
ENDBRANCH  25  28
ENDBRANCH  22  23
ENDBRANCH   9  22
TORSDOF 6
ENDMDL
MODEL 6
REMARK minimizedAffinity -9.3336792
REMARK CNNscore 0.72621578
REMARK CNNaffinity 7.25356054
REMARK SMILES Nc1ncnc2c1c(-c1ccc(F)c(O)c1)nn2Cc1ocnc1-c1ccccc1
REMARK SMILES IDX 2 1 3 2 4 3 5 4 6 5 7 6 8 7 17 8 18 9 1 10 9 13 10 14 16 15
REMARK SMILES IDX 11 16 14 17 12 18 13 19 15 20 19 22 20 23 21 24 24 25 22 26
REMARK SMILES IDX 23 27 25 28 26 29 30 30 27 31 29 32 28 33
REMARK H PARENT 1 11 1 12 15 21
ROOT
ATOM      1  C   UNL     1      52.019   0.555 -50.379  1.00  0.00     0.138 A 
ATOM      2  N   UNL     1      51.545   0.545 -51.644  1.00  0.00    -0.219 NA
ATOM      3  C   UNL     1      50.371  -0.064 -51.892  1.00  0.00     0.226 A 
ATOM      4  N   UNL     1      49.573  -0.705 -51.025  1.00  0.00    -0.217 NA
ATOM      5  C   UNL     1      50.078  -0.663 -49.779  1.00  0.00     0.164 A 
ATOM      6  C   UNL     1      51.252  -0.050 -49.373  1.00  0.00     0.089 A 
ATOM      7  C   UNL     1      51.304  -0.267 -47.964  1.00  0.00     0.106 A 
ATOM      8  N   UNL     1      50.249  -0.984 -47.535  1.00  0.00    -0.170 NA
ATOM      9  N   UNL     1      49.554  -1.253 -48.663  1.00  0.00    -0.239 N 
ENDROOT
BRANCH   1  10
ATOM     10  N   UNL     1      53.240   1.155 -50.191  1.00  0.00    -0.383 N 
ATOM     11  H   UNL     1      53.688   1.531 -51.012  1.00  0.00     0.158 HD
ATOM     12  H   UNL     1      53.723   1.140 -49.309  1.00  0.00     0.158 HD
ENDBRANCH   1  10
BRANCH   7  13
ATOM     13  C   UNL     1      52.307   0.177 -47.001  1.00  0.00     0.007 A 
ATOM     14  C   UNL     1      53.579   0.573 -47.457  1.00  0.00     0.014 A 
ATOM     15  C   UNL     1      52.034   0.182 -45.627  1.00  0.00     0.059 A 
ATOM     16  C   UNL     1      54.560   0.986 -46.552  1.00  0.00     0.044 A 
ATOM     17  C   UNL     1      53.016   0.598 -44.734  1.00  0.00     0.151 A 
ATOM     18  C   UNL     1      54.270   0.996 -45.194  1.00  0.00     0.164 A 
ATOM     19  F   UNL     1      55.202   1.391 -44.313  1.00  0.00    -0.203 F 
BRANCH  17  20
ATOM     20  O   UNL     1      52.727   0.606 -43.398  1.00  0.00    -0.505 OA
ATOM     21  H   UNL     1      53.542   0.872 -42.932  1.00  0.00     0.293 HD
ENDBRANCH  17  20
ENDBRANCH   7  13
BRANCH   9  22
ATOM     22  C   UNL     1      48.362  -2.087 -48.614  1.00  0.00     0.224 C 
BRANCH  22  23
ATOM     23  C   UNL     1      47.566  -1.875 -47.378  1.00  0.00     0.153 A 
ATOM     24  O   UNL     1      47.690  -0.642 -46.783  1.00  0.00    -0.446 OA
ATOM     25  C   UNL     1      46.689  -2.612 -46.603  1.00  0.00     0.114 A 
ATOM     26  C   UNL     1      46.907  -0.730 -45.671  1.00  0.00     0.309 A 
ATOM     27  N   UNL     1      46.289  -1.877 -45.510  1.00  0.00    -0.216 NA
BRANCH  25  28
ATOM     28  C   UNL     1      46.276  -3.979 -46.824  1.00  0.00     0.004 A 
ATOM     29  C   UNL     1      45.680  -4.327 -48.044  1.00  0.00     0.010 A 
ATOM     30  C   UNL     1      46.454  -4.958 -45.836  1.00  0.00     0.010 A 
ATOM     31  C   UNL     1      45.237  -5.632 -48.265  1.00  0.00     0.001 A 
ATOM     32  C   UNL     1      46.012  -6.264 -46.061  1.00  0.00     0.001 A 
ATOM     33  C   UNL     1      45.401  -6.598 -47.271  1.00  0.00     0.000 A 
ENDBRANCH  25  28
ENDBRANCH  22  23
ENDBRANCH   9  22
TORSDOF 6
ENDMDL
MODEL 7
REMARK minimizedAffinity -8.85528183
REMARK CNNscore 0.691481888
REMARK CNNaffinity 7.10695648
REMARK SMILES Nc1ncnc2c1c(-c1ccc(F)c(O)c1)nn2Cc1ocnc1-c1ccccc1
REMARK SMILES IDX 2 1 3 2 4 3 5 4 6 5 7 6 8 7 17 8 18 9 1 10 9 13 10 14 16 15
REMARK SMILES IDX 11 16 14 17 12 18 13 19 15 20 19 22 20 23 21 24 24 25 22 26
REMARK SMILES IDX 23 27 25 28 26 29 30 30 27 31 29 32 28 33
REMARK H PARENT 1 11 1 12 15 21
ROOT
ATOM      1  C   UNL     1      52.050   0.304 -50.423  1.00  0.00     0.138 A 
ATOM      2  N   UNL     1      51.808   0.404 -51.749  1.00  0.00    -0.219 NA
ATOM      3  C   UNL     1      50.619  -0.010 -52.223  1.00  0.00     0.226 A 
ATOM      4  N   UNL     1      49.598  -0.547 -51.539  1.00  0.00    -0.217 NA
ATOM      5  C   UNL     1      49.879  -0.621 -50.226  1.00  0.00     0.164 A 
ATOM      6  C   UNL     1      51.041  -0.207 -49.596  1.00  0.00     0.089 A 
ATOM      7  C   UNL     1      50.815  -0.472 -48.212  1.00  0.00     0.106 A 
ATOM      8  N   UNL     1      49.609  -1.032 -48.007  1.00  0.00    -0.170 NA
ATOM      9  N   UNL     1      49.088  -1.157 -49.248  1.00  0.00    -0.239 N 
ENDROOT
BRANCH   1  10
ATOM     10  N   UNL     1      53.294   0.704 -50.000  1.00  0.00    -0.383 N 
ATOM     11  H   UNL     1      53.928   1.033 -50.712  1.00  0.00     0.158 HD
ATOM     12  H   UNL     1      53.609   0.590 -49.052  1.00  0.00     0.158 HD
ENDBRANCH   1  10
BRANCH   7  13
ATOM     13  C   UNL     1      51.689  -0.216 -47.072  1.00  0.00     0.007 A 
ATOM     14  C   UNL     1      51.199  -0.402 -45.766  1.00  0.00     0.014 A 
ATOM     15  C   UNL     1      52.999   0.246 -47.258  1.00  0.00     0.059 A 
ATOM     16  C   UNL     1      52.013  -0.148 -44.659  1.00  0.00     0.044 A 
ATOM     17  C   UNL     1      53.803   0.494 -46.150  1.00  0.00     0.151 A 
ATOM     18  C   UNL     1      53.312   0.299 -44.861  1.00  0.00     0.164 A 
ATOM     19  F   UNL     1      54.106   0.547 -43.808  1.00  0.00    -0.203 F 
BRANCH  17  20
ATOM     20  O   UNL     1      55.080   0.934 -46.353  1.00  0.00    -0.505 OA
ATOM     21  H   UNL     1      55.467   1.102 -45.473  1.00  0.00     0.293 HD
ENDBRANCH  17  20
ENDBRANCH   7  13
BRANCH   9  22
ATOM     22  C   UNL     1      47.798  -1.801 -49.446  1.00  0.00     0.224 C 
BRANCH  22  23
ATOM     23  C   UNL     1      47.580  -2.942 -48.521  1.00  0.00     0.153 A 
ATOM     24  O   UNL     1      47.444  -4.178 -49.107  1.00  0.00    -0.446 OA
ATOM     25  C   UNL     1      47.457  -3.125 -47.156  1.00  0.00     0.114 A 
ATOM     26  C   UNL     1      47.215  -5.018 -48.059  1.00  0.00     0.309 A 
ATOM     27  N   UNL     1      47.209  -4.449 -46.875  1.00  0.00    -0.216 NA
BRANCH  25  28
ATOM     28  C   UNL     1      47.504  -2.102 -46.137  1.00  0.00     0.004 A 
ATOM     29  C   UNL     1      46.821  -0.895 -46.343  1.00  0.00     0.010 A 
ATOM     30  C   UNL     1      48.227  -2.293 -44.951  1.00  0.00     0.010 A 
ATOM     31  C   UNL     1      46.885   0.122 -45.390  1.00  0.00     0.001 A 
ATOM     32  C   UNL     1      48.287  -1.274 -43.998  1.00  0.00     0.001 A 
ATOM     33  C   UNL     1      47.620  -0.068 -44.220  1.00  0.00     0.000 A 
ENDBRANCH  25  28
ENDBRANCH  22  23
ENDBRANCH   9  22
TORSDOF 6
ENDMDL
MODEL 8
REMARK minimizedAffinity -9.05203724
REMARK CNNscore 0.670384765
REMARK CNNaffinity 7.12678862
REMARK SMILES Nc1ncnc2c1c(-c1ccc(F)c(O)c1)nn2Cc1ocnc1-c1ccccc1
REMARK SMILES IDX 2 1 3 2 4 3 5 4 6 5 7 6 8 7 17 8 18 9 1 10 9 13 10 14 16 15
REMARK SMILES IDX 11 16 14 17 12 18 13 19 15 20 19 22 20 23 21 24 24 25 22 26
REMARK SMILES IDX 23 27 25 28 26 29 30 30 27 31 29 32 28 33
REMARK H PARENT 1 11 1 12 15 21
ROOT
ATOM      1  C   UNL     1      52.096   0.582 -50.168  1.00  0.00     0.138 A 
ATOM      2  N   UNL     1      51.776   0.673 -51.478  1.00  0.00    -0.219 NA
ATOM      3  C   UNL     1      50.633   0.106 -51.907  1.00  0.00     0.226 A 
ATOM      4  N   UNL     1      49.732  -0.581 -51.189  1.00  0.00    -0.217 NA
ATOM      5  C   UNL     1      50.087  -0.640 -49.893  1.00  0.00     0.164 A 
ATOM      6  C   UNL     1      51.211  -0.080 -49.308  1.00  0.00     0.089 A 
ATOM      7  C   UNL     1      51.093  -0.400 -47.922  1.00  0.00     0.106 A 
ATOM      8  N   UNL     1      49.988  -1.127 -47.675  1.00  0.00    -0.170 NA
ATOM      9  N   UNL     1      49.428  -1.300 -48.893  1.00  0.00    -0.239 N 
ENDROOT
BRANCH   1  10
ATOM     10  N   UNL     1      53.293   1.144 -49.795  1.00  0.00    -0.383 N 
ATOM     11  H   UNL     1      53.838   1.572 -50.528  1.00  0.00     0.158 HD
ATOM     12  H   UNL     1      53.668   1.057 -48.866  1.00  0.00     0.158 HD
ENDBRANCH   1  10
BRANCH   7  13
ATOM     13  C   UNL     1      51.980  -0.046 -46.818  1.00  0.00     0.007 A 
ATOM     14  C   UNL     1      51.502  -0.108 -45.496  1.00  0.00     0.014 A 
ATOM     15  C   UNL     1      53.291   0.387 -47.059  1.00  0.00     0.059 A 
ATOM     16  C   UNL     1      52.329   0.241 -44.425  1.00  0.00     0.044 A 
ATOM     17  C   UNL     1      54.107   0.730 -45.986  1.00  0.00     0.151 A 
ATOM     18  C   UNL     1      53.628   0.658 -44.680  1.00  0.00     0.164 A 
ATOM     19  F   UNL     1      54.434   0.997 -43.661  1.00  0.00    -0.203 F 
BRANCH  17  20
ATOM     20  O   UNL     1      55.386   1.141 -46.240  1.00  0.00    -0.505 OA
ATOM     21  H   UNL     1      55.782   1.386 -45.383  1.00  0.00     0.293 HD
ENDBRANCH  17  20
ENDBRANCH   7  13
BRANCH   9  22
ATOM     22  C   UNL     1      48.231  -2.113 -49.046  1.00  0.00     0.224 C 
BRANCH  22  23
ATOM     23  C   UNL     1      47.320  -2.015 -47.878  1.00  0.00     0.153 A 
ATOM     24  O   UNL     1      47.530  -0.949 -47.035  1.00  0.00    -0.446 OA
ATOM     25  C   UNL     1      46.262  -2.740 -47.359  1.00  0.00     0.114 A 
ATOM     26  C   UNL     1      46.607  -1.122 -46.046  1.00  0.00     0.309 A 
ATOM     27  N   UNL     1      45.827  -2.170 -46.184  1.00  0.00    -0.216 NA
BRANCH  25  28
ATOM     28  C   UNL     1      45.704  -3.960 -47.892  1.00  0.00     0.004 A 
ATOM     29  C   UNL     1      44.974  -3.916 -49.088  1.00  0.00     0.010 A 
ATOM     30  C   UNL     1      45.872  -5.185 -47.230  1.00  0.00     0.010 A 
ATOM     31  C   UNL     1      44.391  -5.075 -49.602  1.00  0.00     0.001 A 
ATOM     32  C   UNL     1      45.290  -6.344 -47.748  1.00  0.00     0.001 A 
ATOM     33  C   UNL     1      44.548  -6.287 -48.929  1.00  0.00     0.000 A 
ENDBRANCH  25  28
ENDBRANCH  22  23
ENDBRANCH   9  22
TORSDOF 6
ENDMDL
MODEL 9
REMARK minimizedAffinity -9.86920834
REMARK CNNscore 0.651893914
REMARK CNNaffinity 7.44793367
REMARK SMILES Nc1ncnc2c1c(-c1ccc(F)c(O)c1)nn2Cc1ocnc1-c1ccccc1
REMARK SMILES IDX 2 1 3 2 4 3 5 4 6 5 7 6 8 7 17 8 18 9 1 10 9 13 10 14 16 15
REMARK SMILES IDX 11 16 14 17 12 18 13 19 15 20 19 22 20 23 21 24 24 25 22 26
REMARK SMILES IDX 23 27 25 28 26 29 30 30 27 31 29 32 28 33
REMARK H PARENT 1 11 1 12 15 21
ROOT
ATOM      1  C   UNL     1      48.213  -1.938 -48.294  1.00  0.00     0.138 A 
ATOM      2  N   UNL     1      47.125  -2.483 -47.708  1.00  0.00    -0.219 NA
ATOM      3  C   UNL     1      47.000  -2.405 -46.371  1.00  0.00     0.226 A 
ATOM      4  N   UNL     1      47.849  -1.849 -45.493  1.00  0.00    -0.217 NA
ATOM      5  C   UNL     1      48.912  -1.313 -46.119  1.00  0.00     0.164 A 
ATOM      6  C   UNL     1      49.156  -1.292 -47.483  1.00  0.00     0.089 A 
ATOM      7  C   UNL     1      50.385  -0.580 -47.618  1.00  0.00     0.106 A 
ATOM      8  N   UNL     1      50.876  -0.210 -46.421  1.00  0.00    -0.170 NA
ATOM      9  N   UNL     1      49.991  -0.713 -45.532  1.00  0.00    -0.239 N 
ENDROOT
BRANCH   1  10
ATOM     10  N   UNL     1      48.308  -2.083 -49.656  1.00  0.00    -0.383 N 
ATOM     11  H   UNL     1      47.563  -2.591 -50.108  1.00  0.00     0.158 HD
ATOM     12  H   UNL     1      49.117  -1.794 -50.179  1.00  0.00     0.158 HD
ENDBRANCH   1  10
BRANCH   7  13
ATOM     13  C   UNL     1      51.116  -0.230 -48.832  1.00  0.00     0.007 A 
ATOM     14  C   UNL     1      52.417   0.298 -48.731  1.00  0.00     0.014 A 
ATOM     15  C   UNL     1      50.528  -0.381 -50.095  1.00  0.00     0.059 A 
ATOM     16  C   UNL     1      53.129   0.655 -49.879  1.00  0.00     0.044 A 
ATOM     17  C   UNL     1      51.247  -0.026 -51.232  1.00  0.00     0.151 A 
ATOM     18  C   UNL     1      52.537   0.488 -51.123  1.00  0.00     0.164 A 
ATOM     19  F   UNL     1      53.209   0.826 -52.235  1.00  0.00    -0.203 F 
BRANCH  17  20
ATOM     20  O   UNL     1      50.660  -0.191 -52.455  1.00  0.00    -0.505 OA
ATOM     21  H   UNL     1      51.285   0.157 -53.120  1.00  0.00     0.293 HD
ENDBRANCH  17  20
ENDBRANCH   7  13
BRANCH   9  22
ATOM     22  C   UNL     1      50.224  -0.578 -44.102  1.00  0.00     0.224 C 
BRANCH  22  23
ATOM     23  C   UNL     1      51.258  -1.518 -43.599  1.00  0.00     0.153 A 
ATOM     24  O   UNL     1      50.796  -2.706 -43.086  1.00  0.00    -0.446 OA
ATOM     25  C   UNL     1      52.636  -1.535 -43.485  1.00  0.00     0.114 A 
ATOM     26  C   UNL     1      51.923  -3.346 -42.665  1.00  0.00     0.309 A 
ATOM     27  N   UNL     1      53.046  -2.698 -42.873  1.00  0.00    -0.216 NA
BRANCH  25  28
ATOM     28  C   UNL     1      53.551  -0.485 -43.869  1.00  0.00     0.004 A 
ATOM     29  C   UNL     1      53.744  -0.208 -45.229  1.00  0.00     0.010 A 
ATOM     30  C   UNL     1      54.253   0.252 -42.905  1.00  0.00     0.010 A 
ATOM     31  C   UNL     1      54.653   0.775 -45.625  1.00  0.00     0.001 A 
ATOM     32  C   UNL     1      55.160   1.237 -43.304  1.00  0.00     0.001 A 
ATOM     33  C   UNL     1      55.362   1.494 -44.662  1.00  0.00     0.000 A 
ENDBRANCH  25  28
ENDBRANCH  22  23
ENDBRANCH   9  22
TORSDOF 6
ENDMDL
