MODEL 4
REMARK VINA RESULT:    -9.967      1.940      6.563
REMARK INTER + INTRA:         -14.177
REMARK INTER:                 -14.262
REMARK INTRA:                   0.085
REMARK UNBOUND:                -0.132
REMARK SMILES COc1cc(-c2cnc3cccc(-c4ccc(CN5CCOCC5)cc4F)c3n2)cc(OC)c1OC
REMARK SMILES IDX 6 1 7 2 8 3 9 4 10 5 11 6 12 7 13 8 28 9 29 10 5 11 3 12
REMARK SMILES IDX 4 13 34 14 31 15 30 16 2 17 1 18 35 19 36 20 32 21 33 22
REMARK SMILES IDX 14 23 15 24 26 25 16 26 25 27 17 28 27 29 18 30 19 31 20 32
REMARK SMILES IDX 24 33 21 34 23 35 22 36
REMARK H PARENT
ROOT
ATOM      1  C   UNL     1      -3.733  22.969 -29.544  1.00  0.00     0.090 A 
ATOM      2  C   UNL     1      -3.981  21.681 -29.994  1.00  0.00     0.140 A 
ATOM      3  N   UNL     1      -4.665  21.403 -31.131  1.00  0.00    -0.252 NA
ATOM      4  C   UNL     1      -5.121  22.455 -31.833  1.00  0.00     0.089 A 
ATOM      5  C   UNL     1      -5.833  22.215 -32.999  1.00  0.00     0.030 A 
ATOM      6  C   UNL     1      -6.339  23.258 -33.767  1.00  0.00     0.003 A 
ATOM      7  C   UNL     1      -6.124  24.568 -33.360  1.00  0.00     0.011 A 
ATOM      8  C   UNL     1      -5.402  24.850 -32.185  1.00  0.00     0.013 A 
ATOM      9  C   UNL     1      -4.893  23.787 -31.410  1.00  0.00     0.097 A 
ATOM     10  N   UNL     1      -4.197  24.018 -30.270  1.00  0.00    -0.244 NA
ENDROOT
BRANCH   1  11
ATOM     11  C   UNL     1      -2.988  23.317 -28.307  1.00  0.00     0.009 A 
ATOM     12  C   UNL     1      -1.908  25.043 -26.913  1.00  0.00     0.165 A 
ATOM     13  C   UNL     1      -2.622  24.661 -28.055  1.00  0.00     0.061 A 
ATOM     14  C   UNL     1      -1.539  24.058 -25.991  1.00  0.00     0.203 A 
ATOM     15  C   UNL     1      -1.916  22.725 -26.185  1.00  0.00     0.165 A 
ATOM     16  C   UNL     1      -2.612  22.361 -27.345  1.00  0.00     0.061 A 
BRANCH  12  17
ATOM     17  O   UNL     1      -1.521  26.326 -26.624  1.00  0.00    -0.493 OA
ATOM     18  C   UNL     1      -2.315  27.383 -27.148  1.00  0.00     0.278 C 
ENDBRANCH  12  17
BRANCH  14  19
ATOM     19  O   UNL     1      -0.876  24.413 -24.838  1.00  0.00    -0.490 OA
ATOM     20  C   UNL     1      -1.815  24.840 -23.853  1.00  0.00     0.278 C 
ENDBRANCH  14  19
BRANCH  15  21
ATOM     21  O   UNL     1      -1.520  21.809 -25.242  1.00  0.00    -0.493 OA
ATOM     22  C   UNL     1      -1.146  20.542 -25.776  1.00  0.00     0.278 C 
ENDBRANCH  15  21
ENDBRANCH   1  11
BRANCH   8  23
ATOM     23  C   UNL     1      -5.195  26.258 -31.786  1.00  0.00     0.020 A 
ATOM     24  C   UNL     1      -4.352  26.594 -30.715  1.00  0.00     0.012 A 
ATOM     25  C   UNL     1      -5.832  27.310 -32.458  1.00  0.00     0.131 A 
ATOM     26  C   UNL     1      -4.156  27.928 -30.338  1.00  0.00     0.006 A 
ATOM     27  C   UNL     1      -5.641  28.641 -32.090  1.00  0.00     0.045 A 
ATOM     28  C   UNL     1      -4.789  28.970 -31.029  1.00  0.00    -0.031 A 
ATOM     29  F   UNL     1      -6.654  27.051 -33.486  1.00  0.00    -0.206 F 
BRANCH  28  30
ATOM     30  C   UNL     1      -4.573  30.416 -30.632  1.00  0.00     0.120 C 
BRANCH  30  31
ATOM     31  N   UNL     1      -4.156  30.667 -29.252  1.00  0.00    -0.295 NA
ATOM     32  C   UNL     1      -4.946  31.685 -28.541  1.00  0.00     0.113 C 
ATOM     33  C   UNL     1      -2.712  30.839 -29.040  1.00  0.00     0.113 C 
ATOM     34  C   UNL     1      -4.265  32.088 -27.223  1.00  0.00     0.175 C 
ATOM     35  C   UNL     1      -2.330  32.269 -28.625  1.00  0.00     0.175 C 
ATOM     36  O   UNL     1      -2.981  32.700 -27.421  1.00  0.00    -0.379 OA
ENDBRANCH  30  31
ENDBRANCH  28  30
ENDBRANCH   8  23
TORSDOF 7
ENDMDL
