MODEL 1
REMARK VINA RESULT:    -9.008      0.000      0.000
REMARK INTER + INTRA:         -14.866
REMARK INTER:                 -13.221
REMARK INTRA:                  -1.645
REMARK UNBOUND:                -1.645
REMARK SMILES COc1cc(Cl)cc(C(=O)Nc2ccc(Cl)cn2)c1NC(=O)c1scc(CN(C)C2=NCCCO2)c1Cl
REMARK SMILES IDX 20 1 21 2 22 3 19 5 3 6 4 7 5 8 8 9 7 10 6 11 2 12 1 13 9 14
REMARK SMILES IDX 10 15 11 16 12 18 13 19 18 20 14 21 17 22 15 23 16 24 23 25
REMARK SMILES IDX 24 26 36 27 25 28 26 29 37 30 27 31 28 32 29 33 30 34 31 35
REMARK SMILES IDX 35 36 32 37 34 38 33 39
REMARK H PARENT 20 4 11 17
ROOT
ATOM      1  N   UNL     1      -2.951  12.279  21.011  1.00  0.00    -0.317 N 
ATOM      2  C   UNL     1      -3.971  12.904  21.712  1.00  0.00     0.267 C 
ATOM      3  O   UNL     1      -3.758  13.743  22.585  1.00  0.00    -0.268 OA
ATOM      4  H   UNL     1      -3.187  11.380  20.585  1.00  0.00     0.170 HD
ENDROOT
BRANCH   1   5
ATOM      5  C   UNL     1      -1.585  12.646  20.961  1.00  0.00     0.097 A 
ATOM      6  C   UNL     1      -1.086  13.619  20.072  1.00  0.00     0.144 A 
ATOM      7  C   UNL     1       0.279  13.929  20.052  1.00  0.00     0.069 A 
ATOM      8  C   UNL     1       1.157  13.271  20.908  1.00  0.00     0.045 A 
ATOM      9  C   UNL     1      -0.672  11.972  21.808  1.00  0.00     0.069 A 
ATOM     10  C   UNL     1       0.695  12.288  21.777  1.00  0.00     0.036 A 
ATOM     11  Cl  UNL     1       2.836  13.644  20.863  1.00  0.00    -0.084 Cl
BRANCH   6  12
ATOM     12  O   UNL     1      -1.910  14.119  19.094  1.00  0.00    -0.494 OA
ATOM     13  C   UNL     1      -1.689  15.503  18.819  1.00  0.00     0.278 C 
ENDBRANCH   6  12
BRANCH   9  14
ATOM     14  C   UNL     1      -1.157  10.919  22.750  1.00  0.00     0.259 C 
ATOM     15  O   UNL     1      -1.782   9.970  22.289  1.00  0.00    -0.269 OA
ATOM     16  N   UNL     1      -0.883  11.144  24.078  1.00  0.00    -0.306 N 
ATOM     17  H   UNL     1      -0.446  12.008  24.371  1.00  0.00     0.171 HD
BRANCH  16  18
ATOM     18  C   UNL     1      -1.185  10.331  25.171  1.00  0.00     0.132 A 
ATOM     19  C   UNL     1      -2.260  10.533  26.028  1.00  0.00     0.049 A 
ATOM     20  N   UNL     1      -0.321   9.303  25.319  1.00  0.00    -0.238 NA
ATOM     21  C   UNL     1      -2.456   9.645  27.088  1.00  0.00     0.026 A 
ATOM     22  C   UNL     1      -0.535   8.455  26.356  1.00  0.00     0.134 A 
ATOM     23  C   UNL     1      -1.578   8.584  27.257  1.00  0.00     0.059 A 
ATOM     24  Cl  UNL     1      -1.784   7.469  28.543  1.00  0.00    -0.083 Cl
ENDBRANCH  16  18
ENDBRANCH   9  14
ENDBRANCH   1   5
BRANCH   2  25
ATOM     25  C   UNL     1      -5.314  12.401  21.414  1.00  0.00     0.111 A 
ATOM     26  S   UNL     1      -6.692  13.409  21.618  1.00  0.00    -0.137 S 
ATOM     27  C   UNL     1      -5.690  11.140  20.976  1.00  0.00     0.069 A 
ATOM     28  C   UNL     1      -7.758  12.180  21.127  1.00  0.00     0.072 A 
ATOM     29  C   UNL     1      -7.114  11.000  20.805  1.00  0.00     0.002 A 
ATOM     30  Cl  UNL     1      -4.607   9.845  20.639  1.00  0.00    -0.082 Cl
BRANCH  29  31
ATOM     31  C   UNL     1      -7.846   9.766  20.333  1.00  0.00     0.159 C 
BRANCH  31  32
ATOM     32  N   UNL     1      -7.581   9.365  18.955  1.00  0.00    -0.325 N 
ATOM     33  C   UNL     1      -8.271  10.119  17.919  1.00  0.00     0.149 C 
BRANCH  32  34
ATOM     34  C   UNL     1      -6.897   8.219  18.621  1.00  0.00     0.287 C 
ATOM     35  N   UNL     1      -7.188   7.061  19.103  1.00  0.00    -0.235 NA
ATOM     36  O   UNL     1      -5.889   8.446  17.740  1.00  0.00    -0.465 OA
ATOM     37  C   UNL     1      -6.421   5.890  18.712  1.00  0.00     0.151 C 
ATOM     38  C   UNL     1      -5.129   7.333  17.254  1.00  0.00     0.235 C 
ATOM     39  C   UNL     1      -5.015   6.262  18.308  1.00  0.00     0.065 C 
ENDBRANCH  32  34
ENDBRANCH  31  32
ENDBRANCH  29  31
ENDBRANCH   2  25
TORSDOF 8
ENDMDL
MODEL 2
REMARK VINA RESULT:    -8.534      3.042      7.838
REMARK INTER + INTRA:         -14.170
REMARK INTER:                 -12.798
REMARK INTRA:                  -1.372
REMARK UNBOUND:                -1.645
REMARK SMILES COc1cc(Cl)cc(C(=O)Nc2ccc(Cl)cn2)c1NC(=O)c1scc(CN(C)C2=NCCCO2)c1Cl
REMARK SMILES IDX 20 1 21 2 22 3 19 5 3 6 4 7 5 8 8 9 7 10 6 11 2 12 1 13 9 14
REMARK SMILES IDX 10 15 11 16 12 18 13 19 18 20 14 21 17 22 15 23 16 24 23 25
REMARK SMILES IDX 24 26 36 27 25 28 26 29 37 30 27 31 28 32 29 33 30 34 31 35
REMARK SMILES IDX 35 36 32 37 34 38 33 39
REMARK H PARENT 20 4 11 17
ROOT
ATOM      1  N   UNL     1      -3.321  13.261  18.972  1.00  0.00    -0.317 N 
ATOM      2  C   UNL     1      -1.950  13.137  18.809  1.00  0.00     0.267 C 
ATOM      3  O   UNL     1      -1.389  13.340  17.734  1.00  0.00    -0.268 OA
ATOM      4  H   UNL     1      -3.726  12.748  19.758  1.00  0.00     0.170 HD
ENDROOT
BRANCH   1   5
ATOM      5  C   UNL     1      -4.245  13.866  18.087  1.00  0.00     0.097 A 
ATOM      6  C   UNL     1      -4.479  15.256  18.056  1.00  0.00     0.144 A 
ATOM      7  C   UNL     1      -5.420  15.799  17.173  1.00  0.00     0.069 A 
ATOM      8  C   UNL     1      -6.139  14.965  16.321  1.00  0.00     0.045 A 
ATOM      9  C   UNL     1      -5.004  13.034  17.228  1.00  0.00     0.069 A 
ATOM     10  C   UNL     1      -5.948  13.588  16.350  1.00  0.00     0.036 A 
ATOM     11  Cl  UNL     1      -7.308  15.639  15.254  1.00  0.00    -0.084 Cl
BRANCH   6  12
ATOM     12  O   UNL     1      -3.923  16.051  19.027  1.00  0.00    -0.494 OA
ATOM     13  C   UNL     1      -2.869  16.884  18.545  1.00  0.00     0.278 C 
ENDBRANCH   6  12
BRANCH   9  14
ATOM     14  C   UNL     1      -4.803  11.554  17.246  1.00  0.00     0.259 C 
ATOM     15  O   UNL     1      -3.808  11.096  16.694  1.00  0.00    -0.269 OA
ATOM     16  N   UNL     1      -5.798  10.831  17.859  1.00  0.00    -0.306 N 
ATOM     17  H   UNL     1      -6.630  11.293  18.200  1.00  0.00     0.171 HD
BRANCH  16  18
ATOM     18  C   UNL     1      -5.870   9.451  18.050  1.00  0.00     0.132 A 
ATOM     19  C   UNL     1      -4.806   8.658  18.464  1.00  0.00     0.049 A 
ATOM     20  N   UNL     1      -7.097   8.946  17.796  1.00  0.00    -0.238 NA
ATOM     21  C   UNL     1      -5.007   7.285  18.620  1.00  0.00     0.026 A 
ATOM     22  C   UNL     1      -7.265   7.608  17.956  1.00  0.00     0.134 A 
ATOM     23  C   UNL     1      -6.260   6.747  18.362  1.00  0.00     0.059 A 
ATOM     24  Cl  UNL     1      -6.550   5.067  18.544  1.00  0.00    -0.083 Cl
ENDBRANCH  16  18
ENDBRANCH   9  14
ENDBRANCH   1   5
BRANCH   2  25
ATOM     25  C   UNL     1      -1.238  12.631  19.985  1.00  0.00     0.111 A 
ATOM     26  S   UNL     1       0.246  13.340  20.482  1.00  0.00    -0.137 S 
ATOM     27  C   UNL     1      -1.583  11.578  20.820  1.00  0.00     0.069 A 
ATOM     28  C   UNL     1       0.413  12.260  21.784  1.00  0.00     0.072 A 
ATOM     29  C   UNL     1      -0.626  11.354  21.874  1.00  0.00     0.002 A 
ATOM     30  Cl  UNL     1      -3.004  10.619  20.669  1.00  0.00    -0.082 Cl
BRANCH  29  31
ATOM     31  C   UNL     1      -0.708  10.300  22.952  1.00  0.00     0.159 C 
BRANCH  31  32
ATOM     32  N   UNL     1      -1.518  10.650  24.115  1.00  0.00    -0.325 N 
ATOM     33  C   UNL     1      -2.309  11.867  24.008  1.00  0.00     0.149 C 
BRANCH  32  34
ATOM     34  C   UNL     1      -1.405  10.016  25.331  1.00  0.00     0.287 C 
ATOM     35  N   UNL     1      -0.316   9.467  25.740  1.00  0.00    -0.235 NA
ATOM     36  O   UNL     1      -2.563  10.032  26.041  1.00  0.00    -0.465 OA
ATOM     37  C   UNL     1      -0.267   8.808  27.035  1.00  0.00     0.151 C 
ATOM     38  C   UNL     1      -2.579   9.463  27.355  1.00  0.00     0.235 C 
ATOM     39  C   UNL     1      -1.627   8.298  27.444  1.00  0.00     0.065 C 
ENDBRANCH  32  34
ENDBRANCH  31  32
ENDBRANCH  29  31
ENDBRANCH   2  25
TORSDOF 8
ENDMDL
MODEL 3
REMARK VINA RESULT:    -8.127      3.542      7.791
REMARK INTER + INTRA:         -13.572
REMARK INTER:                 -11.791
REMARK INTRA:                  -1.781
REMARK UNBOUND:                -1.645
REMARK SMILES COc1cc(Cl)cc(C(=O)Nc2ccc(Cl)cn2)c1NC(=O)c1scc(CN(C)C2=NCCCO2)c1Cl
REMARK SMILES IDX 20 1 21 2 22 3 19 5 3 6 4 7 5 8 8 9 7 10 6 11 2 12 1 13 9 14
REMARK SMILES IDX 10 15 11 16 12 18 13 19 18 20 14 21 17 22 15 23 16 24 23 25
REMARK SMILES IDX 24 26 36 27 25 28 26 29 37 30 27 31 28 32 29 33 30 34 31 35
REMARK SMILES IDX 35 36 32 37 34 38 33 39
REMARK H PARENT 20 4 11 17
ROOT
ATOM      1  N   UNL     1      -2.281  12.974  17.336  1.00  0.00    -0.317 N 
ATOM      2  C   UNL     1      -2.373  13.625  18.556  1.00  0.00     0.267 C 
ATOM      3  O   UNL     1      -2.734  14.796  18.658  1.00  0.00    -0.268 OA
ATOM      4  H   UNL     1      -1.659  12.164  17.307  1.00  0.00     0.170 HD
ENDROOT
BRANCH   1   5
ATOM      5  C   UNL     1      -2.806  13.394  16.090  1.00  0.00     0.097 A 
ATOM      6  C   UNL     1      -2.130  14.291  15.238  1.00  0.00     0.144 A 
ATOM      7  C   UNL     1      -2.705  14.688  14.025  1.00  0.00     0.069 A 
ATOM      8  C   UNL     1      -3.956  14.203  13.655  1.00  0.00     0.045 A 
ATOM      9  C   UNL     1      -4.087  12.931  15.705  1.00  0.00     0.069 A 
ATOM     10  C   UNL     1      -4.657  13.339  14.489  1.00  0.00     0.036 A 
ATOM     11  Cl  UNL     1      -4.664  14.712  12.171  1.00  0.00    -0.084 Cl
BRANCH   6  12
ATOM     12  O   UNL     1      -0.998  14.923  15.691  1.00  0.00    -0.494 OA
ATOM     13  C   UNL     1      -0.267  15.585  14.659  1.00  0.00     0.278 C 
ENDBRANCH   6  12
BRANCH   9  14
ATOM     14  C   UNL     1      -4.846  11.997  16.590  1.00  0.00     0.259 C 
ATOM     15  O   UNL     1      -5.458  12.467  17.543  1.00  0.00    -0.269 OA
ATOM     16  N   UNL     1      -4.747  10.665  16.264  1.00  0.00    -0.306 N 
ATOM     17  H   UNL     1      -4.136  10.365  15.516  1.00  0.00     0.171 HD
BRANCH  16  18
ATOM     18  C   UNL     1      -5.360   9.577  16.885  1.00  0.00     0.132 A 
ATOM     19  C   UNL     1      -6.639   9.120  16.589  1.00  0.00     0.049 A 
ATOM     20  N   UNL     1      -4.578   8.991  17.818  1.00  0.00    -0.238 NA
ATOM     21  C   UNL     1      -7.140   8.016  17.282  1.00  0.00     0.026 A 
ATOM     22  C   UNL     1      -5.089   7.920  18.477  1.00  0.00     0.134 A 
ATOM     23  C   UNL     1      -6.352   7.403  18.246  1.00  0.00     0.059 A 
ATOM     24  Cl  UNL     1      -6.928   6.044  19.118  1.00  0.00    -0.083 Cl
ENDBRANCH  16  18
ENDBRANCH   9  14
ENDBRANCH   1   5
BRANCH   2  25
ATOM     25  C   UNL     1      -1.894  12.848  19.701  1.00  0.00     0.111 A 
ATOM     26  S   UNL     1      -0.280  13.024  20.266  1.00  0.00    -0.137 S 
ATOM     27  C   UNL     1      -2.576  11.904  20.454  1.00  0.00     0.069 A 
ATOM     28  C   UNL     1      -0.501  11.865  21.490  1.00  0.00     0.072 A 
ATOM     29  C   UNL     1      -1.773  11.325  21.501  1.00  0.00     0.002 A 
ATOM     30  Cl  UNL     1      -4.219  11.448  20.218  1.00  0.00    -0.082 Cl
BRANCH  29  31
ATOM     31  C   UNL     1      -2.214  10.282  22.500  1.00  0.00     0.159 C 
BRANCH  31  32
ATOM     32  N   UNL     1      -2.477  10.773  23.849  1.00  0.00    -0.325 N 
ATOM     33  C   UNL     1      -3.170  12.050  23.947  1.00  0.00     0.149 C 
BRANCH  32  34
ATOM     34  C   UNL     1      -1.935  10.205  24.978  1.00  0.00     0.287 C 
ATOM     35  N   UNL     1      -0.707   9.830  25.057  1.00  0.00    -0.235 NA
ATOM     36  O   UNL     1      -2.835  10.082  25.989  1.00  0.00    -0.465 OA
ATOM     37  C   UNL     1      -0.199   9.230  26.280  1.00  0.00     0.151 C 
ATOM     38  C   UNL     1      -2.396   9.562  27.249  1.00  0.00     0.235 C 
ATOM     39  C   UNL     1      -1.299   8.547  27.056  1.00  0.00     0.065 C 
ENDBRANCH  32  34
ENDBRANCH  31  32
ENDBRANCH  29  31
ENDBRANCH   2  25
TORSDOF 8
ENDMDL
MODEL 4
REMARK VINA RESULT:    -8.058      3.425      4.389
REMARK INTER + INTRA:         -13.471
REMARK INTER:                 -12.651
REMARK INTRA:                  -0.820
REMARK UNBOUND:                -1.645
REMARK SMILES COc1cc(Cl)cc(C(=O)Nc2ccc(Cl)cn2)c1NC(=O)c1scc(CN(C)C2=NCCCO2)c1Cl
REMARK SMILES IDX 20 1 21 2 22 3 19 5 3 6 4 7 5 8 8 9 7 10 6 11 2 12 1 13 9 14
REMARK SMILES IDX 10 15 11 16 12 18 13 19 18 20 14 21 17 22 15 23 16 24 23 25
REMARK SMILES IDX 24 26 36 27 25 28 26 29 37 30 27 31 28 32 29 33 30 34 31 35
REMARK SMILES IDX 35 36 32 37 34 38 33 39
REMARK H PARENT 20 4 11 17
ROOT
ATOM      1  N   UNL     1      -5.336  11.632  22.969  1.00  0.00    -0.317 N 
ATOM      2  C   UNL     1      -4.932  11.692  21.645  1.00  0.00     0.267 C 
ATOM      3  O   UNL     1      -4.600  12.742  21.099  1.00  0.00    -0.268 OA
ATOM      4  H   UNL     1      -5.912  10.827  23.225  1.00  0.00     0.170 HD
ENDROOT
BRANCH   1   5
ATOM      5  C   UNL     1      -5.195  12.631  23.962  1.00  0.00     0.097 A 
ATOM      6  C   UNL     1      -5.934  13.831  23.951  1.00  0.00     0.144 A 
ATOM      7  C   UNL     1      -5.740  14.795  24.948  1.00  0.00     0.069 A 
ATOM      8  C   UNL     1      -4.807  14.575  25.957  1.00  0.00     0.045 A 
ATOM      9  C   UNL     1      -4.235  12.438  24.984  1.00  0.00     0.069 A 
ATOM     10  C   UNL     1      -4.044  13.412  25.977  1.00  0.00     0.036 A 
ATOM     11  Cl  UNL     1      -4.560  15.773  27.167  1.00  0.00    -0.084 Cl
BRANCH   6  12
ATOM     12  O   UNL     1      -6.702  14.136  22.854  1.00  0.00    -0.494 OA
ATOM     13  C   UNL     1      -8.093  13.878  23.045  1.00  0.00     0.278 C 
ENDBRANCH   6  12
BRANCH   9  14
ATOM     14  C   UNL     1      -3.415  11.190  25.019  1.00  0.00     0.259 C 
ATOM     15  O   UNL     1      -3.117  10.660  23.954  1.00  0.00    -0.269 OA
ATOM     16  N   UNL     1      -3.101  10.726  26.274  1.00  0.00    -0.306 N 
ATOM     17  H   UNL     1      -3.477  11.179  27.096  1.00  0.00     0.171 HD
BRANCH  16  18
ATOM     18  C   UNL     1      -2.335   9.611  26.615  1.00  0.00     0.132 A 
ATOM     19  C   UNL     1      -1.099   9.306  26.056  1.00  0.00     0.049 A 
ATOM     20  N   UNL     1      -2.912   8.843  27.565  1.00  0.00    -0.238 NA
ATOM     21  C   UNL     1      -0.428   8.158  26.485  1.00  0.00     0.026 A 
ATOM     22  C   UNL     1      -2.238   7.735  27.964  1.00  0.00     0.134 A 
ATOM     23  C   UNL     1      -1.007   7.356  27.458  1.00  0.00     0.059 A 
ATOM     24  Cl  UNL     1      -0.216   5.940  28.015  1.00  0.00    -0.083 Cl
ENDBRANCH  16  18
ENDBRANCH   9  14
ENDBRANCH   1   5
BRANCH   2  25
ATOM     25  C   UNL     1      -5.045  10.427  20.914  1.00  0.00     0.111 A 
ATOM     26  S   UNL     1      -3.675   9.740  20.136  1.00  0.00    -0.137 S 
ATOM     27  C   UNL     1      -6.168   9.639  20.715  1.00  0.00     0.069 A 
ATOM     28  C   UNL     1      -4.572   8.420  19.554  1.00  0.00     0.072 A 
ATOM     29  C   UNL     1      -5.904   8.464  19.923  1.00  0.00     0.002 A 
ATOM     30  Cl  UNL     1      -7.736   9.972  21.343  1.00  0.00    -0.082 Cl
BRANCH  29  31
ATOM     31  C   UNL     1      -6.901   7.399  19.533  1.00  0.00     0.159 C 
BRANCH  31  32
ATOM     32  N   UNL     1      -7.034   7.155  18.100  1.00  0.00    -0.325 N 
ATOM     33  C   UNL     1      -6.856   5.780  17.660  1.00  0.00     0.149 C 
BRANCH  32  34
ATOM     34  C   UNL     1      -7.111   8.164  17.167  1.00  0.00     0.287 C 
ATOM     35  N   UNL     1      -8.150   8.908  17.019  1.00  0.00    -0.235 NA
ATOM     36  O   UNL     1      -5.979   8.281  16.425  1.00  0.00    -0.465 OA
ATOM     37  C   UNL     1      -8.167   9.953  16.010  1.00  0.00     0.151 C 
ATOM     38  C   UNL     1      -5.891   9.330  15.455  1.00  0.00     0.235 C 
ATOM     39  C   UNL     1      -7.244   9.624  14.861  1.00  0.00     0.065 C 
ENDBRANCH  32  34
ENDBRANCH  31  32
ENDBRANCH  29  31
ENDBRANCH   2  25
TORSDOF 8
ENDMDL
MODEL 5
REMARK VINA RESULT:    -7.935      3.293      8.660
REMARK INTER + INTRA:         -13.291
REMARK INTER:                 -11.382
REMARK INTRA:                  -1.909
REMARK UNBOUND:                -1.645
REMARK SMILES COc1cc(Cl)cc(C(=O)Nc2ccc(Cl)cn2)c1NC(=O)c1scc(CN(C)C2=NCCCO2)c1Cl
REMARK SMILES IDX 20 1 21 2 22 3 19 5 3 6 4 7 5 8 8 9 7 10 6 11 2 12 1 13 9 14
REMARK SMILES IDX 10 15 11 16 12 18 13 19 18 20 14 21 17 22 15 23 16 24 23 25
REMARK SMILES IDX 24 26 36 27 25 28 26 29 37 30 27 31 28 32 29 33 30 34 31 35
REMARK SMILES IDX 35 36 32 37 34 38 33 39
REMARK H PARENT 20 4 11 17
ROOT
ATOM      1  N   UNL     1      -7.347  13.050  22.955  1.00  0.00    -0.317 N 
ATOM      2  C   UNL     1      -6.343  14.002  23.026  1.00  0.00     0.267 C 
ATOM      3  O   UNL     1      -6.399  15.072  22.424  1.00  0.00    -0.268 OA
ATOM      4  H   UNL     1      -7.071  12.092  23.180  1.00  0.00     0.170 HD
ENDROOT
BRANCH   1   5
ATOM      5  C   UNL     1      -8.657  13.211  22.444  1.00  0.00     0.097 A 
ATOM      6  C   UNL     1      -9.664  13.921  23.129  1.00  0.00     0.144 A 
ATOM      7  C   UNL     1     -10.950  14.032  22.586  1.00  0.00     0.069 A 
ATOM      8  C   UNL     1     -11.244  13.435  21.364  1.00  0.00     0.045 A 
ATOM      9  C   UNL     1      -8.984  12.592  21.214  1.00  0.00     0.069 A 
ATOM     10  C   UNL     1     -10.277  12.706  20.680  1.00  0.00     0.036 A 
ATOM     11  Cl  UNL     1     -12.832  13.560  20.713  1.00  0.00    -0.084 Cl
BRANCH   6  12
ATOM     12  O   UNL     1      -9.435  14.334  24.418  1.00  0.00    -0.494 OA
ATOM     13  C   UNL     1      -9.239  15.743  24.536  1.00  0.00     0.278 C 
ENDBRANCH   6  12
BRANCH   9  14
ATOM     14  C   UNL     1      -7.952  11.812  20.467  1.00  0.00     0.259 C 
ATOM     15  O   UNL     1      -7.016  12.422  19.961  1.00  0.00    -0.269 OA
ATOM     16  N   UNL     1      -8.181  10.459  20.385  1.00  0.00    -0.306 N 
ATOM     17  H   UNL     1      -9.035  10.061  20.752  1.00  0.00     0.171 HD
BRANCH  16  18
ATOM     18  C   UNL     1      -7.385   9.485  19.782  1.00  0.00     0.132 A 
ATOM     19  C   UNL     1      -6.329   8.833  20.407  1.00  0.00     0.049 A 
ATOM     20  N   UNL     1      -7.748   9.222  18.507  1.00  0.00    -0.238 NA
ATOM     21  C   UNL     1      -5.609   7.872  19.693  1.00  0.00     0.026 A 
ATOM     22  C   UNL     1      -7.031   8.285  17.836  1.00  0.00     0.134 A 
ATOM     23  C   UNL     1      -5.965   7.591  18.382  1.00  0.00     0.059 A 
ATOM     24  Cl  UNL     1      -5.109   6.418  17.471  1.00  0.00    -0.083 Cl
ENDBRANCH  16  18
ENDBRANCH   9  14
ENDBRANCH   1   5
BRANCH   2  25
ATOM     25  C   UNL     1      -5.158  13.586  23.781  1.00  0.00     0.111 A 
ATOM     26  S   UNL     1      -5.123  13.708  25.495  1.00  0.00    -0.137 S 
ATOM     27  C   UNL     1      -3.956  13.087  23.301  1.00  0.00     0.069 A 
ATOM     28  C   UNL     1      -3.538  13.102  25.582  1.00  0.00     0.072 A 
ATOM     29  C   UNL     1      -3.004  12.801  24.343  1.00  0.00     0.002 A 
ATOM     30  Cl  UNL     1      -3.595  12.801  21.642  1.00  0.00    -0.082 Cl
BRANCH  29  31
ATOM     31  C   UNL     1      -1.613  12.240  24.162  1.00  0.00     0.159 C 
BRANCH  31  32
ATOM     32  N   UNL     1      -1.508  10.785  24.220  1.00  0.00    -0.325 N 
ATOM     33  C   UNL     1      -1.788  10.068  22.984  1.00  0.00     0.149 C 
BRANCH  32  34
ATOM     34  C   UNL     1      -1.367  10.086  25.395  1.00  0.00     0.287 C 
ATOM     35  N   UNL     1      -0.245   9.593  25.790  1.00  0.00    -0.235 NA
ATOM     36  O   UNL     1      -2.533   9.970  26.082  1.00  0.00    -0.465 OA
ATOM     37  C   UNL     1      -0.166   8.859  27.042  1.00  0.00     0.151 C 
ATOM     38  C   UNL     1      -2.525   9.319  27.357  1.00  0.00     0.235 C 
ATOM     39  C   UNL     1      -1.490   8.224  27.393  1.00  0.00     0.065 C 
ENDBRANCH  32  34
ENDBRANCH  31  32
ENDBRANCH  29  31
ENDBRANCH   2  25
TORSDOF 8
ENDMDL
MODEL 6
REMARK VINA RESULT:    -7.919      3.343      4.560
REMARK INTER + INTRA:         -13.268
REMARK INTER:                 -11.827
REMARK INTRA:                  -1.441
REMARK UNBOUND:                -1.645
REMARK SMILES COc1cc(Cl)cc(C(=O)Nc2ccc(Cl)cn2)c1NC(=O)c1scc(CN(C)C2=NCCCO2)c1Cl
REMARK SMILES IDX 20 1 21 2 22 3 19 5 3 6 4 7 5 8 8 9 7 10 6 11 2 12 1 13 9 14
REMARK SMILES IDX 10 15 11 16 12 18 13 19 18 20 14 21 17 22 15 23 16 24 23 25
REMARK SMILES IDX 24 26 36 27 25 28 26 29 37 30 27 31 28 32 29 33 30 34 31 35
REMARK SMILES IDX 35 36 32 37 34 38 33 39
REMARK H PARENT 20 4 11 17
ROOT
ATOM      1  N   UNL     1      -5.478  13.818  22.124  1.00  0.00    -0.317 N 
ATOM      2  C   UNL     1      -4.226  13.531  21.606  1.00  0.00     0.267 C 
ATOM      3  O   UNL     1      -3.238  14.227  21.834  1.00  0.00    -0.268 OA
ATOM      4  H   UNL     1      -6.273  13.421  21.618  1.00  0.00     0.170 HD
ENDROOT
BRANCH   1   5
ATOM      5  C   UNL     1      -5.798  14.730  23.158  1.00  0.00     0.097 A 
ATOM      6  C   UNL     1      -6.370  15.995  22.914  1.00  0.00     0.144 A 
ATOM      7  C   UNL     1      -6.648  16.866  23.975  1.00  0.00     0.069 A 
ATOM      8  C   UNL     1      -6.353  16.489  25.282  1.00  0.00     0.045 A 
ATOM      9  C   UNL     1      -5.485  14.376  24.493  1.00  0.00     0.069 A 
ATOM     10  C   UNL     1      -5.763  15.258  25.548  1.00  0.00     0.036 A 
ATOM     11  Cl  UNL     1      -6.679  17.574  26.577  1.00  0.00    -0.084 Cl
BRANCH   6  12
ATOM     12  O   UNL     1      -6.473  16.447  21.621  1.00  0.00    -0.494 OA
ATOM     13  C   UNL     1      -5.338  17.197  21.190  1.00  0.00     0.278 C 
ENDBRANCH   6  12
BRANCH   9  14
ATOM     14  C   UNL     1      -4.858  13.054  24.792  1.00  0.00     0.259 C 
ATOM     15  O   UNL     1      -5.593  12.092  24.984  1.00  0.00    -0.269 OA
ATOM     16  N   UNL     1      -3.485  13.056  24.864  1.00  0.00    -0.306 N 
ATOM     17  H   UNL     1      -2.970  13.923  24.788  1.00  0.00     0.171 HD
BRANCH  16  18
ATOM     18  C   UNL     1      -2.632  11.978  25.098  1.00  0.00     0.132 A 
ATOM     19  C   UNL     1      -1.562  11.629  24.282  1.00  0.00     0.049 A 
ATOM     20  N   UNL     1      -2.943  11.292  26.220  1.00  0.00    -0.238 NA
ATOM     21  C   UNL     1      -0.779  10.525  24.628  1.00  0.00     0.026 A 
ATOM     22  C   UNL     1      -2.167  10.223  26.532  1.00  0.00     0.134 A 
ATOM     23  C   UNL     1      -1.086   9.807  25.774  1.00  0.00     0.059 A 
ATOM     24  Cl  UNL     1      -0.150   8.446  26.236  1.00  0.00    -0.083 Cl
ENDBRANCH  16  18
ENDBRANCH   9  14
ENDBRANCH   1   5
BRANCH   2  25
ATOM     25  C   UNL     1      -4.194  12.404  20.671  1.00  0.00     0.111 A 
ATOM     26  S   UNL     1      -3.511  10.897  21.139  1.00  0.00    -0.137 S 
ATOM     27  C   UNL     1      -4.644  12.352  19.361  1.00  0.00     0.069 A 
ATOM     28  C   UNL     1      -3.819  10.200  19.620  1.00  0.00     0.072 A 
ATOM     29  C   UNL     1      -4.431  11.070  18.738  1.00  0.00     0.002 A 
ATOM     30  Cl  UNL     1      -5.405  13.649  18.522  1.00  0.00    -0.082 Cl
BRANCH  29  31
ATOM     31  C   UNL     1      -4.812  10.680  17.330  1.00  0.00     0.159 C 
BRANCH  31  32
ATOM     32  N   UNL     1      -5.922   9.738  17.216  1.00  0.00    -0.325 N 
ATOM     33  C   UNL     1      -7.160  10.264  16.659  1.00  0.00     0.149 C 
BRANCH  32  34
ATOM     34  C   UNL     1      -5.910   8.485  17.783  1.00  0.00     0.287 C 
ATOM     35  N   UNL     1      -5.061   7.574  17.457  1.00  0.00    -0.235 NA
ATOM     36  O   UNL     1      -6.886   8.319  18.713  1.00  0.00    -0.465 OA
ATOM     37  C   UNL     1      -5.107   6.267  18.093  1.00  0.00     0.151 C 
ATOM     38  C   UNL     1      -6.956   7.083  19.432  1.00  0.00     0.235 C 
ATOM     39  C   UNL     1      -6.501   5.935  18.568  1.00  0.00     0.065 C 
ENDBRANCH  32  34
ENDBRANCH  31  32
ENDBRANCH  29  31
ENDBRANCH   2  25
TORSDOF 8
ENDMDL
MODEL 7
REMARK VINA RESULT:    -7.888      3.001      7.275
REMARK INTER + INTRA:         -13.222
REMARK INTER:                 -11.958
REMARK INTRA:                  -1.264
REMARK UNBOUND:                -1.645
REMARK SMILES COc1cc(Cl)cc(C(=O)Nc2ccc(Cl)cn2)c1NC(=O)c1scc(CN(C)C2=NCCCO2)c1Cl
REMARK SMILES IDX 20 1 21 2 22 3 19 5 3 6 4 7 5 8 8 9 7 10 6 11 2 12 1 13 9 14
REMARK SMILES IDX 10 15 11 16 12 18 13 19 18 20 14 21 17 22 15 23 16 24 23 25
REMARK SMILES IDX 24 26 36 27 25 28 26 29 37 30 27 31 28 32 29 33 30 34 31 35
REMARK SMILES IDX 35 36 32 37 34 38 33 39
REMARK H PARENT 20 4 11 17
ROOT
ATOM      1  N   UNL     1      -2.855  13.391  19.166  1.00  0.00    -0.317 N 
ATOM      2  C   UNL     1      -3.531  13.984  20.220  1.00  0.00     0.267 C 
ATOM      3  O   UNL     1      -4.018  15.110  20.146  1.00  0.00    -0.268 OA
ATOM      4  H   UNL     1      -2.202  12.645  19.416  1.00  0.00     0.170 HD
ENDROOT
BRANCH   1   5
ATOM      5  C   UNL     1      -2.829  13.805  17.812  1.00  0.00     0.097 A 
ATOM      6  C   UNL     1      -1.990  14.835  17.343  1.00  0.00     0.144 A 
ATOM      7  C   UNL     1      -2.020  15.219  15.997  1.00  0.00     0.069 A 
ATOM      8  C   UNL     1      -2.888  14.587  15.111  1.00  0.00     0.045 A 
ATOM      9  C   UNL     1      -3.720  13.191  16.900  1.00  0.00     0.069 A 
ATOM     10  C   UNL     1      -3.746  13.585  15.553  1.00  0.00     0.036 A 
ATOM     11  Cl  UNL     1      -2.932  15.077  13.463  1.00  0.00    -0.084 Cl
BRANCH   6  12
ATOM     12  O   UNL     1      -1.286  15.592  18.247  1.00  0.00    -0.494 OA
ATOM     13  C   UNL     1      -1.596  16.984  18.186  1.00  0.00     0.278 C 
ENDBRANCH   6  12
BRANCH   9  14
ATOM     14  C   UNL     1      -4.642  12.110  17.362  1.00  0.00     0.259 C 
ATOM     15  O   UNL     1      -5.823  12.390  17.540  1.00  0.00    -0.269 OA
ATOM     16  N   UNL     1      -4.053  10.889  17.585  1.00  0.00    -0.306 N 
ATOM     17  H   UNL     1      -3.051  10.781  17.504  1.00  0.00     0.171 HD
BRANCH  16  18
ATOM     18  C   UNL     1      -4.660   9.699  17.991  1.00  0.00     0.132 A 
ATOM     19  C   UNL     1      -4.701   9.245  19.304  1.00  0.00     0.049 A 
ATOM     20  N   UNL     1      -5.221   9.018  16.968  1.00  0.00    -0.238 NA
ATOM     21  C   UNL     1      -5.343   8.036  19.581  1.00  0.00     0.026 A 
ATOM     22  C   UNL     1      -5.838   7.846  17.265  1.00  0.00     0.134 A 
ATOM     23  C   UNL     1      -5.923   7.321  18.543  1.00  0.00     0.059 A 
ATOM     24  Cl  UNL     1      -6.723   5.833  18.840  1.00  0.00    -0.083 Cl
ENDBRANCH  16  18
ENDBRANCH   9  14
ENDBRANCH   1   5
BRANCH   2  25
ATOM     25  C   UNL     1      -3.517  13.213  21.466  1.00  0.00     0.111 A 
ATOM     26  S   UNL     1      -4.346  13.785  22.859  1.00  0.00    -0.137 S 
ATOM     27  C   UNL     1      -2.879  12.011  21.734  1.00  0.00     0.069 A 
ATOM     28  C   UNL     1      -3.860  12.448  23.790  1.00  0.00     0.072 A 
ATOM     29  C   UNL     1      -3.074  11.555  23.087  1.00  0.00     0.002 A 
ATOM     30  Cl  UNL     1      -1.955  11.106  20.598  1.00  0.00    -0.082 Cl
BRANCH  29  31
ATOM     31  C   UNL     1      -2.526  10.286  23.695  1.00  0.00     0.159 C 
BRANCH  31  32
ATOM     32  N   UNL     1      -1.537  10.470  24.753  1.00  0.00    -0.325 N 
ATOM     33  C   UNL     1      -0.407  11.332  24.437  1.00  0.00     0.149 C 
BRANCH  32  34
ATOM     34  C   UNL     1      -1.523   9.728  25.911  1.00  0.00     0.287 C 
ATOM     35  N   UNL     1      -0.515   9.017  26.279  1.00  0.00    -0.235 NA
ATOM     36  O   UNL     1      -2.683   9.825  26.611  1.00  0.00    -0.465 OA
ATOM     37  C   UNL     1      -0.569   8.251  27.513  1.00  0.00     0.151 C 
ATOM     38  C   UNL     1      -2.790   9.154  27.871  1.00  0.00     0.235 C 
ATOM     39  C   UNL     1      -1.988   7.878  27.868  1.00  0.00     0.065 C 
ENDBRANCH  32  34
ENDBRANCH  31  32
ENDBRANCH  29  31
ENDBRANCH   2  25
TORSDOF 8
ENDMDL
MODEL 8
REMARK VINA RESULT:    -7.857      3.626      4.938
REMARK INTER + INTRA:         -13.176
REMARK INTER:                 -11.507
REMARK INTRA:                  -1.669
REMARK UNBOUND:                -1.645
REMARK SMILES COc1cc(Cl)cc(C(=O)Nc2ccc(Cl)cn2)c1NC(=O)c1scc(CN(C)C2=NCCCO2)c1Cl
REMARK SMILES IDX 20 1 21 2 22 3 19 5 3 6 4 7 5 8 8 9 7 10 6 11 2 12 1 13 9 14
REMARK SMILES IDX 10 15 11 16 12 18 13 19 18 20 14 21 17 22 15 23 16 24 23 25
REMARK SMILES IDX 24 26 36 27 25 28 26 29 37 30 27 31 28 32 29 33 30 34 31 35
REMARK SMILES IDX 35 36 32 37 34 38 33 39
REMARK H PARENT 20 4 11 17
ROOT
ATOM      1  N   UNL     1      -6.210  14.287  22.201  1.00  0.00    -0.317 N 
ATOM      2  C   UNL     1      -7.109  13.402  21.628  1.00  0.00     0.267 C 
ATOM      3  O   UNL     1      -8.144  13.050  22.191  1.00  0.00    -0.268 OA
ATOM      4  H   UNL     1      -5.253  14.245  21.845  1.00  0.00     0.170 HD
ENDROOT
BRANCH   1   5
ATOM      5  C   UNL     1      -6.413  15.115  23.332  1.00  0.00     0.097 A 
ATOM      6  C   UNL     1      -7.073  16.358  23.262  1.00  0.00     0.144 A 
ATOM      7  C   UNL     1      -7.229  17.146  24.409  1.00  0.00     0.069 A 
ATOM      8  C   UNL     1      -6.723  16.707  25.629  1.00  0.00     0.045 A 
ATOM      9  C   UNL     1      -5.886  14.698  24.578  1.00  0.00     0.069 A 
ATOM     10  C   UNL     1      -6.043  15.497  25.721  1.00  0.00     0.036 A 
ATOM     11  Cl  UNL     1      -6.901  17.690  27.030  1.00  0.00    -0.084 Cl
BRANCH   6  12
ATOM     12  O   UNL     1      -7.391  16.881  22.032  1.00  0.00    -0.494 OA
ATOM     13  C   UNL     1      -6.506  17.919  21.612  1.00  0.00     0.278 C 
ENDBRANCH   6  12
BRANCH   9  14
ATOM     14  C   UNL     1      -5.160  13.398  24.691  1.00  0.00     0.259 C 
ATOM     15  O   UNL     1      -5.820  12.365  24.736  1.00  0.00    -0.269 OA
ATOM     16  N   UNL     1      -3.791  13.493  24.774  1.00  0.00    -0.306 N 
ATOM     17  H   UNL     1      -3.343  14.398  24.827  1.00  0.00     0.171 HD
BRANCH  16  18
ATOM     18  C   UNL     1      -2.858  12.459  24.859  1.00  0.00     0.132 A 
ATOM     19  C   UNL     1      -1.894  12.189  23.895  1.00  0.00     0.049 A 
ATOM     20  N   UNL     1      -2.977  11.733  25.992  1.00  0.00    -0.238 NA
ATOM     21  C   UNL     1      -1.014  11.123  24.099  1.00  0.00     0.026 A 
ATOM     22  C   UNL     1      -2.109  10.703  26.165  1.00  0.00     0.134 A 
ATOM     23  C   UNL     1      -1.122  10.364  25.256  1.00  0.00     0.059 A 
ATOM     24  Cl  UNL     1      -0.061   9.049  25.546  1.00  0.00    -0.083 Cl
ENDBRANCH  16  18
ENDBRANCH   9  14
ENDBRANCH   1   5
BRANCH   2  25
ATOM     25  C   UNL     1      -6.673  12.828  20.353  1.00  0.00     0.111 A 
ATOM     26  S   UNL     1      -7.547  13.143  18.906  1.00  0.00    -0.137 S 
ATOM     27  C   UNL     1      -5.596  11.990  20.103  1.00  0.00     0.069 A 
ATOM     28  C   UNL     1      -6.500  12.181  17.975  1.00  0.00     0.072 A 
ATOM     29  C   UNL     1      -5.485  11.608  18.718  1.00  0.00     0.002 A 
ATOM     30  Cl  UNL     1      -4.467  11.450  21.284  1.00  0.00    -0.082 Cl
BRANCH  29  31
ATOM     31  C   UNL     1      -4.425  10.718  18.114  1.00  0.00     0.159 C 
BRANCH  31  32
ATOM     32  N   UNL     1      -4.921   9.563  17.371  1.00  0.00    -0.325 N 
ATOM     33  C   UNL     1      -5.159   9.763  15.949  1.00  0.00     0.149 C 
BRANCH  32  34
ATOM     34  C   UNL     1      -5.352   8.405  17.977  1.00  0.00     0.287 C 
ATOM     35  N   UNL     1      -4.798   7.260  17.781  1.00  0.00    -0.235 NA
ATOM     36  O   UNL     1      -6.419   8.605  18.793  1.00  0.00    -0.465 OA
ATOM     37  C   UNL     1      -5.308   6.074  18.449  1.00  0.00     0.151 C 
ATOM     38  C   UNL     1      -6.938   7.499  19.540  1.00  0.00     0.235 C 
ATOM     39  C   UNL     1      -6.776   6.212  18.772  1.00  0.00     0.065 C 
ENDBRANCH  32  34
ENDBRANCH  31  32
ENDBRANCH  29  31
ENDBRANCH   2  25
TORSDOF 8
ENDMDL
MODEL 9
REMARK VINA RESULT:    -7.805      3.416      7.801
REMARK INTER + INTRA:         -13.101
REMARK INTER:                 -11.454
REMARK INTRA:                  -1.647
REMARK UNBOUND:                -1.645
REMARK SMILES COc1cc(Cl)cc(C(=O)Nc2ccc(Cl)cn2)c1NC(=O)c1scc(CN(C)C2=NCCCO2)c1Cl
REMARK SMILES IDX 20 1 21 2 22 3 19 5 3 6 4 7 5 8 8 9 7 10 6 11 2 12 1 13 9 14
REMARK SMILES IDX 10 15 11 16 12 18 13 19 18 20 14 21 17 22 15 23 16 24 23 25
REMARK SMILES IDX 24 26 36 27 25 28 26 29 37 30 27 31 28 32 29 33 30 34 31 35
REMARK SMILES IDX 35 36 32 37 34 38 33 39
REMARK H PARENT 20 4 11 17
ROOT
ATOM      1  N   UNL     1      -5.230  13.187  23.245  1.00  0.00    -0.317 N 
ATOM      2  C   UNL     1      -4.528  12.297  24.042  1.00  0.00     0.267 C 
ATOM      3  O   UNL     1      -4.953  11.898  25.125  1.00  0.00    -0.268 OA
ATOM      4  H   UNL     1      -4.674  13.720  22.573  1.00  0.00     0.170 HD
ENDROOT
BRANCH   1   5
ATOM      5  C   UNL     1      -6.587  13.572  23.367  1.00  0.00     0.097 A 
ATOM      6  C   UNL     1      -7.052  14.425  24.387  1.00  0.00     0.144 A 
ATOM      7  C   UNL     1      -8.410  14.757  24.472  1.00  0.00     0.069 A 
ATOM      8  C   UNL     1      -9.313  14.238  23.549  1.00  0.00     0.045 A 
ATOM      9  C   UNL     1      -7.526  13.037  22.452  1.00  0.00     0.069 A 
ATOM     10  C   UNL     1      -8.885  13.372  22.548  1.00  0.00     0.036 A 
ATOM     11  Cl  UNL     1     -10.983  14.636  23.672  1.00  0.00    -0.084 Cl
BRANCH   6  12
ATOM     12  O   UNL     1      -6.205  14.773  25.410  1.00  0.00    -0.494 OA
ATOM     13  C   UNL     1      -5.785  16.136  25.362  1.00  0.00     0.278 C 
ENDBRANCH   6  12
BRANCH   9  14
ATOM     14  C   UNL     1      -7.077  12.111  21.370  1.00  0.00     0.259 C 
ATOM     15  O   UNL     1      -6.839  12.582  20.263  1.00  0.00    -0.269 OA
ATOM     16  N   UNL     1      -7.013  10.783  21.719  1.00  0.00    -0.306 N 
ATOM     17  H   UNL     1      -7.325  10.478  22.631  1.00  0.00     0.171 HD
BRANCH  16  18
ATOM     18  C   UNL     1      -6.607   9.703  20.935  1.00  0.00     0.132 A 
ATOM     19  C   UNL     1      -7.465   8.739  20.418  1.00  0.00     0.049 A 
ATOM     20  N   UNL     1      -5.274   9.683  20.713  1.00  0.00    -0.238 NA
ATOM     21  C   UNL     1      -6.933   7.706  19.644  1.00  0.00     0.026 A 
ATOM     22  C   UNL     1      -4.784   8.668  19.957  1.00  0.00     0.134 A 
ATOM     23  C   UNL     1      -5.566   7.667  19.407  1.00  0.00     0.059 A 
ATOM     24  Cl  UNL     1      -4.872   6.418  18.460  1.00  0.00    -0.083 Cl
ENDBRANCH  16  18
ENDBRANCH   9  14
ENDBRANCH   1   5
BRANCH   2  25
ATOM     25  C   UNL     1      -3.190  11.961  23.551  1.00  0.00     0.111 A 
ATOM     26  S   UNL     1      -1.948  11.490  24.642  1.00  0.00    -0.137 S 
ATOM     27  C   UNL     1      -2.716  11.979  22.247  1.00  0.00     0.069 A 
ATOM     28  C   UNL     1      -0.811  11.313  23.391  1.00  0.00     0.072 A 
ATOM     29  C   UNL     1      -1.329  11.601  22.142  1.00  0.00     0.002 A 
ATOM     30  Cl  UNL     1      -3.651  12.382  20.859  1.00  0.00    -0.082 Cl
BRANCH  29  31
ATOM     31  C   UNL     1      -0.516  11.509  20.873  1.00  0.00     0.159 C 
BRANCH  31  32
ATOM     32  N   UNL     1       0.007  12.774  20.367  1.00  0.00    -0.325 N 
ATOM     33  C   UNL     1       1.328  13.163  20.841  1.00  0.00     0.149 C 
BRANCH  32  34
ATOM     34  C   UNL     1      -0.752  13.674  19.656  1.00  0.00     0.287 C 
ATOM     35  N   UNL     1      -0.965  14.881  20.050  1.00  0.00    -0.235 NA
ATOM     36  O   UNL     1      -1.250  13.150  18.507  1.00  0.00    -0.465 OA
ATOM     37  C   UNL     1      -1.783  15.780  19.253  1.00  0.00     0.151 C 
ATOM     38  C   UNL     1      -2.010  13.991  17.632  1.00  0.00     0.235 C 
ATOM     39  C   UNL     1      -2.784  15.019  18.418  1.00  0.00     0.065 C 
ENDBRANCH  32  34
ENDBRANCH  31  32
ENDBRANCH  29  31
ENDBRANCH   2  25
TORSDOF 8
ENDMDL
