MODEL 7
REMARK VINA RESULT:    -7.671      2.412      4.319
REMARK INTER + INTRA:         -14.346
REMARK INTER:                 -13.007
REMARK INTRA:                  -1.339
REMARK UNBOUND:                -1.742
REMARK SMILES CCOP(=O)(CCn1cc(-c2ccc(-c3nc(-c4ccc(F)cc4)c(-c4cc[nH]c(=O)c4)[nH]3)cc2)nn1)OCC
REMARK SMILES IDX 7 1 6 2 4 3 5 4 3 5 2 6 1 7 38 8 39 9 40 10 8 11 9 12 37 13
REMARK SMILES IDX 10 14 36 15 11 16 12 17 35 18 13 19 34 20 14 21 15 22 16 23
REMARK SMILES IDX 33 24 17 25 25 26 18 28 19 29 24 30 20 31 23 32 21 33 22 34
REMARK SMILES IDX 26 35 27 36 32 37 28 38 30 39 29 40 31 41
REMARK H PARENT 33 27 29 42
ROOT
ATOM      1  C   UNL     1     -16.302  15.818  20.451  1.00  0.00     0.159 C 
ENDROOT
BRANCH   1   2
ATOM      2  C   UNL     1     -16.374  17.221  19.877  1.00  0.00     0.153 C 
BRANCH   2   3
ATOM      3  P   UNL     1     -17.259  18.303  20.984  1.00  0.00     0.332 P 
ATOM      4  O   UNL     1     -17.261  17.813  22.399  1.00  0.00    -0.260 OA
BRANCH   3   5
ATOM      5  O   UNL     1     -16.587  19.756  20.802  1.00  0.00    -0.309 OA
BRANCH   5   6
ATOM      6  C   UNL     1     -17.232  20.736  20.004  1.00  0.00     0.167 C 
ATOM      7  C   UNL     1     -16.537  20.803  18.659  1.00  0.00     0.035 C 
ENDBRANCH   5   6
ENDBRANCH   3   5
BRANCH   3   8
ATOM      8  O   UNL     1     -18.726  18.474  20.341  1.00  0.00    -0.309 OA
BRANCH   8   9
ATOM      9  C   UNL     1     -19.841  18.388  21.214  1.00  0.00     0.167 C 
ATOM     10  C   UNL     1     -20.895  19.374  20.753  1.00  0.00     0.035 C 
ENDBRANCH   8   9
ENDBRANCH   3   8
ENDBRANCH   2   3
ENDBRANCH   1   2
BRANCH   1  11
ATOM     11  N   UNL     1     -15.026  15.195  20.190  1.00  0.00    -0.251 N 
ATOM     12  C   UNL     1     -13.783  15.724  20.368  1.00  0.00     0.139 A 
ATOM     13  N   UNL     1     -14.970  13.933  19.736  1.00  0.00    -0.067 NA
ATOM     14  C   UNL     1     -12.935  14.706  19.990  1.00  0.00     0.113 A 
ATOM     15  N   UNL     1     -13.688  13.621  19.604  1.00  0.00    -0.130 NA
BRANCH  14  16
ATOM     16  C   UNL     1     -11.482  14.722  19.982  1.00  0.00     0.004 A 
ATOM     17  C   UNL     1     -10.802  15.932  20.166  1.00  0.00     0.011 A 
ATOM     18  C   UNL     1     -10.725  13.561  19.781  1.00  0.00     0.011 A 
ATOM     19  C   UNL     1      -9.401  15.985  20.155  1.00  0.00     0.012 A 
ATOM     20  C   UNL     1      -9.325  13.613  19.768  1.00  0.00     0.012 A 
ATOM     21  C   UNL     1      -8.643  14.823  19.958  1.00  0.00     0.017 A 
BRANCH  21  22
ATOM     22  C   UNL     1      -7.177  14.827  19.929  1.00  0.00     0.138 A 
ATOM     23  N   UNL     1      -6.383  14.202  20.779  1.00  0.00    -0.228 NA
ATOM     24  N   UNL     1      -6.415  15.504  19.005  1.00  0.00    -0.337 N 
ATOM     25  C   UNL     1      -5.085  14.460  20.385  1.00  0.00     0.097 A 
ATOM     26  C   UNL     1      -5.084  15.263  19.258  1.00  0.00     0.074 A 
ATOM     27  H   UNL     1      -6.776  16.062  18.245  1.00  0.00     0.168 HD
BRANCH  25  28
ATOM     28  C   UNL     1      -3.945  13.903  21.103  1.00  0.00     0.003 A 
ATOM     29  C   UNL     1      -3.679  14.195  22.447  1.00  0.00     0.013 A 
ATOM     30  C   UNL     1      -3.088  13.018  20.427  1.00  0.00     0.013 A 
ATOM     31  C   UNL     1      -2.567  13.639  23.091  1.00  0.00     0.040 A 
ATOM     32  C   UNL     1      -1.982  12.457  21.071  1.00  0.00     0.040 A 
ATOM     33  C   UNL     1      -1.730  12.779  22.398  1.00  0.00     0.123 A 
ATOM     34  F   UNL     1      -0.668  12.247  23.018  1.00  0.00    -0.207 F 
ENDBRANCH  25  28
BRANCH  26  35
ATOM     35  C   UNL     1      -4.131  15.824  18.367  1.00  0.00     0.007 A 
ATOM     36  C   UNL     1      -3.986  17.257  18.147  1.00  0.00     0.028 A 
ATOM     37  C   UNL     1      -3.333  14.973  17.694  1.00  0.00     0.082 A 
ATOM     38  C   UNL     1      -3.071  17.725  17.291  1.00  0.00     0.086 A 
ATOM     39  C   UNL     1      -2.322  15.490  16.738  1.00  0.00     0.248 A 
ATOM     40  N   UNL     1      -2.265  16.856  16.605  1.00  0.00    -0.329 N 
ATOM     41  O   UNL     1      -1.592  14.734  16.109  1.00  0.00    -0.270 OA
ATOM     42  H   UNL     1      -1.569  17.203  15.955  1.00  0.00     0.169 HD
ENDBRANCH  26  35
ENDBRANCH  21  22
ENDBRANCH  14  16
ENDBRANCH   1  11
TORSDOF 11
ENDMDL
