REMARK VINA RESULT:    -7.817      3.194      9.460
REMARK INTER + INTRA:         -15.230
REMARK INTER:                 -13.723
REMARK INTRA:                  -1.507
REMARK UNBOUND:                -1.701
REMARK SMILES CCC#CCOc1cc(COCC2CC2)ccc1Sc1ccc(OCC(=O)O)c2c1CCCC2
REMARK SMILES IDX 20 1 21 2 22 3 23 4 29 5 30 6 31 7 32 8 33 9 34 10 19 11
REMARK SMILES IDX 18 12 7 13 8 14 9 15 17 16 16 17 6 18 5 19 4 20 3 21 2 22
REMARK SMILES IDX 1 23 10 24 11 25 12 26 13 27 14 28 15 29 24 30 25 31 26 32
REMARK SMILES IDX 27 33 28 34
REMARK H PARENT 28 35
ROOT
ATOM      1  C   UNL     1      -9.238  -8.667 -21.975  1.00  0.00     0.016 A 
ATOM      2  C   UNL     1     -10.382  -9.378 -21.586  1.00  0.00     0.019 A 
ATOM      3  C   UNL     1     -11.060  -9.062 -20.408  1.00  0.00     0.048 A 
ATOM      4  C   UNL     1     -10.622  -8.009 -19.608  1.00  0.00     0.123 A 
ATOM      5  C   UNL     1      -9.496  -7.253 -19.999  1.00  0.00    -0.002 A 
ATOM      6  C   UNL     1      -8.777  -7.599 -21.173  1.00  0.00    -0.027 A 
ATOM      7  C   UNL     1      -7.563  -6.793 -21.594  1.00  0.00     0.037 C 
ATOM      8  C   UNL     1      -6.997  -5.882 -20.509  1.00  0.00     0.005 C 
ATOM      9  C   UNL     1      -8.115  -5.123 -19.819  1.00  0.00     0.005 C 
ATOM     10  C   UNL     1      -9.047  -6.103 -19.117  1.00  0.00     0.040 C 
ENDROOT
BRANCH   1  11
ATOM     11  S   UNL     1      -8.445  -9.106 -23.528  1.00  0.00    -0.086 SA
BRANCH  11  12
ATOM     12  C   UNL     1      -9.578  -8.412 -24.732  1.00  0.00     0.054 A 
ATOM     13  C   UNL     1      -9.172  -7.936 -25.995  1.00  0.00     0.135 A 
ATOM     14  C   UNL     1     -10.137  -7.416 -26.870  1.00  0.00     0.053 A 
ATOM     15  C   UNL     1     -11.495  -7.372 -26.511  1.00  0.00    -0.019 A 
ATOM     16  C   UNL     1     -10.931  -8.347 -24.367  1.00  0.00     0.020 A 
ATOM     17  C   UNL     1     -11.881  -7.837 -25.250  1.00  0.00     0.007 A 
BRANCH  13  18
ATOM     18  O   UNL     1      -7.831  -7.997 -26.278  1.00  0.00    -0.480 OA
BRANCH  18  19
ATOM     19  C   UNL     1      -7.337  -9.190 -26.882  1.00  0.00     0.319 C 
ATOM     20  C   UNL     1      -7.347  -9.046 -28.344  1.00  0.00    -0.062 C 
BRANCH  20  21
ATOM     21  C   UNL     1      -7.342  -8.956 -29.542  1.00  0.00    -0.100 C 
ATOM     22  C   UNL     1      -7.342  -8.844 -31.006  1.00  0.00     0.086 C 
ATOM     23  C   UNL     1      -8.528  -9.574 -31.615  1.00  0.00     0.018 C 
ENDBRANCH  20  21
ENDBRANCH  18  19
ENDBRANCH  13  18
BRANCH  15  24
ATOM     24  C   UNL     1     -12.528  -6.815 -27.460  1.00  0.00     0.195 C 
BRANCH  24  25
ATOM     25  O   UNL     1     -12.492  -7.482 -28.720  1.00  0.00    -0.376 OA
BRANCH  25  26
ATOM     26  C   UNL     1     -12.222  -6.596 -29.805  1.00  0.00     0.164 C 
BRANCH  26  27
ATOM     27  C   UNL     1     -10.970  -6.998 -30.526  1.00  0.00     0.015 C 
ATOM     28  C   UNL     1      -9.995  -5.980 -31.060  1.00  0.00     0.006 C 
ATOM     29  C   UNL     1     -10.818  -6.803 -32.014  1.00  0.00     0.006 C 
ENDBRANCH  26  27
ENDBRANCH  25  26
ENDBRANCH  24  25
ENDBRANCH  15  24
ENDBRANCH  11  12
ENDBRANCH   1  11
BRANCH   4  30
ATOM     30  O   UNL     1     -11.215  -7.632 -18.431  1.00  0.00    -0.482 OA
BRANCH  30  31
ATOM     31  C   UNL     1     -11.690  -8.657 -17.568  1.00  0.00     0.351 C 
BRANCH  31  32
ATOM     32  C   UNL     1     -12.738  -8.098 -16.624  1.00  0.00     0.341 C 
ATOM     33  O   UNL     1     -13.634  -8.693 -16.050  1.00  0.00    -0.248 OA
BRANCH  32  34
ATOM     34  O   UNL     1     -12.600  -6.763 -16.451  1.00  0.00    -0.479 OA
ATOM     35  H   UNL     1     -13.282  -6.549 -15.779  1.00  0.00     0.296 HD
ENDBRANCH  32  34
ENDBRANCH  31  32
ENDBRANCH  30  31
ENDBRANCH   4  30
TORSDOF 13
