MODEL 1
REMARK VINA RESULT:    -8.718      0.000      0.000
REMARK INTER + INTRA:         -12.789
REMARK INTER:                 -11.520
REMARK INTRA:                  -1.269
REMARK UNBOUND:                -1.269
REMARK SMILES Cc1cc([C@@H](C)Nc2ccccc2C(=O)O)c2nc(N3CCOCC3)cc(=O)n2c1
REMARK SMILES IDX 8 1 9 2 10 3 11 4 12 5 13 6 7 7 5 9 6 10 4 11 2 12 3 13
REMARK SMILES IDX 30 14 29 15 17 16 27 17 18 18 26 19 28 20 19 21 1 22 20 23
REMARK SMILES IDX 21 24 25 25 22 26 24 27 23 28 14 29 15 30 16 31
REMARK H PARENT 7 8 16 32
ROOT
ATOM      1  C   UNL     1      -3.047 -11.334  21.070  1.00  0.00     0.049 A 
ATOM      2  C   UNL     1      -4.295 -11.879  20.728  1.00  0.00     0.026 A 
ATOM      3  C   UNL     1      -5.314 -12.072  21.670  1.00  0.00     0.002 A 
ATOM      4  C   UNL     1      -5.124 -11.693  22.989  1.00  0.00     0.001 A 
ATOM      5  C   UNL     1      -3.916 -11.114  23.362  1.00  0.00     0.018 A 
ATOM      6  C   UNL     1      -2.883 -10.923  22.420  1.00  0.00     0.083 A 
ENDROOT
BRANCH   1   7
ATOM      7  N   UNL     1      -2.062 -11.075  20.108  1.00  0.00    -0.378 N 
ATOM      8  H   UNL     1      -1.915 -11.934  19.557  1.00  0.00     0.161 HD
BRANCH   7   9
ATOM      9  C   UNL     1      -2.004  -9.919  19.198  1.00  0.00     0.110 C 
ATOM     10  C   UNL     1      -2.793  -8.735  19.767  1.00  0.00     0.036 C 
BRANCH   9  11
ATOM     11  C   UNL     1      -2.272 -10.316  17.762  1.00  0.00     0.018 A 
ATOM     12  C   UNL     1      -3.318 -11.605  15.972  1.00  0.00    -0.034 A 
ATOM     13  C   UNL     1      -3.157 -11.246  17.362  1.00  0.00     0.014 A 
ATOM     14  C   UNL     1      -2.572 -10.980  15.052  1.00  0.00     0.100 A 
ATOM     15  N   UNL     1      -1.677  -9.976  15.387  1.00  0.00    -0.267 N 
ATOM     16  C   UNL     1      -1.502  -9.565  16.700  1.00  0.00     0.147 A 
ATOM     17  C   UNL     1      -0.961  -9.353  14.383  1.00  0.00     0.259 A 
ATOM     18  N   UNL     1      -0.728  -8.582  17.044  1.00  0.00    -0.213 NA
ATOM     19  C   UNL     1      -0.087  -8.252  14.807  1.00  0.00     0.119 A 
ATOM     20  O   UNL     1      -1.010  -9.637  13.185  1.00  0.00    -0.269 OA
ATOM     21  C   UNL     1      -0.009  -7.896  16.098  1.00  0.00     0.136 A 
ATOM     22  C   UNL     1      -4.300 -12.686  15.638  1.00  0.00     0.046 C 
BRANCH  21  23
ATOM     23  N   UNL     1       0.789  -6.820  16.504  1.00  0.00    -0.352 N 
ATOM     24  C   UNL     1       0.359  -5.936  17.608  1.00  0.00     0.146 C 
ATOM     25  C   UNL     1       2.083  -6.450  15.900  1.00  0.00     0.146 C 
ATOM     26  C   UNL     1       0.933  -4.525  17.422  1.00  0.00     0.181 C 
ATOM     27  C   UNL     1       2.959  -5.693  16.911  1.00  0.00     0.181 C 
ATOM     28  O   UNL     1       2.366  -4.483  17.402  1.00  0.00    -0.378 OA
ENDBRANCH  21  23
ENDBRANCH   9  11
ENDBRANCH   7   9
ENDBRANCH   1   7
BRANCH   6  29
ATOM     29  C   UNL     1      -1.647 -10.296  22.972  1.00  0.00     0.337 C 
ATOM     30  O   UNL     1      -1.613  -9.321  23.704  1.00  0.00    -0.246 OA
BRANCH  29  31
ATOM     31  O   UNL     1      -0.505 -10.922  22.634  1.00  0.00    -0.478 OA
ATOM     32  H   UNL     1       0.171 -10.471  23.182  1.00  0.00     0.297 HD
ENDBRANCH  29  31
ENDBRANCH   6  29
TORSDOF 6
ENDMDL
MODEL 2
REMARK VINA RESULT:    -8.687      2.067      3.053
REMARK INTER + INTRA:         -12.749
REMARK INTER:                 -10.989
REMARK INTRA:                  -1.760
REMARK UNBOUND:                -1.269
REMARK SMILES Cc1cc([C@@H](C)Nc2ccccc2C(=O)O)c2nc(N3CCOCC3)cc(=O)n2c1
REMARK SMILES IDX 8 1 9 2 10 3 11 4 12 5 13 6 7 7 5 9 6 10 4 11 2 12 3 13
REMARK SMILES IDX 30 14 29 15 17 16 27 17 18 18 26 19 28 20 19 21 1 22 20 23
REMARK SMILES IDX 21 24 25 25 22 26 24 27 23 28 14 29 15 30 16 31
REMARK H PARENT 7 8 16 32
ROOT
ATOM      1  C   UNL     1      -1.830 -10.252  21.776  1.00  0.00     0.049 A 
ATOM      2  C   UNL     1      -0.460 -10.431  21.528  1.00  0.00     0.026 A 
ATOM      3  C   UNL     1       0.528  -9.737  22.238  1.00  0.00     0.002 A 
ATOM      4  C   UNL     1       0.172  -8.856  23.248  1.00  0.00     0.001 A 
ATOM      5  C   UNL     1      -1.174  -8.678  23.549  1.00  0.00     0.018 A 
ATOM      6  C   UNL     1      -2.174  -9.369  22.834  1.00  0.00     0.083 A 
ENDROOT
BRANCH   1   7
ATOM      7  N   UNL     1      -2.808 -11.007  21.113  1.00  0.00    -0.378 N 
ATOM      8  H   UNL     1      -3.250 -11.637  21.798  1.00  0.00     0.161 HD
BRANCH   7   9
ATOM      9  C   UNL     1      -3.849 -10.495  20.207  1.00  0.00     0.110 C 
ATOM     10  C   UNL     1      -5.242 -10.940  20.668  1.00  0.00     0.036 C 
BRANCH   9  11
ATOM     11  C   UNL     1      -3.490 -10.712  18.752  1.00  0.00     0.018 A 
ATOM     12  C   UNL     1      -3.555 -11.850  16.594  1.00  0.00    -0.034 A 
ATOM     13  C   UNL     1      -3.989 -11.678  17.961  1.00  0.00     0.014 A 
ATOM     14  C   UNL     1      -2.637 -11.013  16.096  1.00  0.00     0.100 A 
ATOM     15  N   UNL     1      -2.116  -9.963  16.839  1.00  0.00    -0.267 N 
ATOM     16  C   UNL     1      -2.517  -9.727  18.145  1.00  0.00     0.147 A 
ATOM     17  C   UNL     1      -1.193  -9.119  16.252  1.00  0.00     0.259 A 
ATOM     18  N   UNL     1      -2.108  -8.715  18.846  1.00  0.00    -0.213 NA
ATOM     19  C   UNL     1      -0.742  -7.991  17.075  1.00  0.00     0.119 A 
ATOM     20  O   UNL     1      -0.741  -9.232  15.111  1.00  0.00    -0.269 OA
ATOM     21  C   UNL     1      -1.214  -7.817  18.318  1.00  0.00     0.136 A 
ATOM     22  C   UNL     1      -4.142 -12.985  15.812  1.00  0.00     0.046 C 
BRANCH  21  23
ATOM     23  N   UNL     1      -0.822  -6.720  19.094  1.00  0.00    -0.352 N 
ATOM     24  C   UNL     1      -1.148  -6.658  20.535  1.00  0.00     0.146 C 
ATOM     25  C   UNL     1      -0.084  -5.546  18.589  1.00  0.00     0.146 C 
ATOM     26  C   UNL     1      -1.287  -5.200  20.993  1.00  0.00     0.181 C 
ATOM     27  C   UNL     1       0.714  -4.877  19.719  1.00  0.00     0.181 C 
ATOM     28  O   UNL     1      -0.096  -4.422  20.812  1.00  0.00    -0.378 OA
ENDBRANCH  21  23
ENDBRANCH   9  11
ENDBRANCH   7   9
ENDBRANCH   1   7
BRANCH   6  29
ATOM     29  C   UNL     1      -3.569  -9.071  23.270  1.00  0.00     0.337 C 
ATOM     30  O   UNL     1      -4.172  -8.031  23.056  1.00  0.00    -0.246 OA
BRANCH  29  31
ATOM     31  O   UNL     1      -4.182 -10.082  23.913  1.00  0.00    -0.478 OA
ATOM     32  H   UNL     1      -5.062 -10.122  23.484  1.00  0.00     0.297 HD
ENDBRANCH  29  31
ENDBRANCH   6  29
TORSDOF 6
ENDMDL
MODEL 3
REMARK VINA RESULT:    -8.577      2.572      6.678
REMARK INTER + INTRA:         -12.604
REMARK INTER:                 -10.880
REMARK INTRA:                  -1.724
REMARK UNBOUND:                -1.269
REMARK SMILES Cc1cc([C@@H](C)Nc2ccccc2C(=O)O)c2nc(N3CCOCC3)cc(=O)n2c1
REMARK SMILES IDX 8 1 9 2 10 3 11 4 12 5 13 6 7 7 5 9 6 10 4 11 2 12 3 13
REMARK SMILES IDX 30 14 29 15 17 16 27 17 18 18 26 19 28 20 19 21 1 22 20 23
REMARK SMILES IDX 21 24 25 25 22 26 24 27 23 28 14 29 15 30 16 31
REMARK H PARENT 7 8 16 32
ROOT
ATOM      1  C   UNL     1      -1.901  -6.201  17.977  1.00  0.00     0.049 A 
ATOM      2  C   UNL     1      -2.691  -5.820  19.074  1.00  0.00     0.026 A 
ATOM      3  C   UNL     1      -2.567  -4.567  19.689  1.00  0.00     0.002 A 
ATOM      4  C   UNL     1      -1.663  -3.637  19.201  1.00  0.00     0.001 A 
ATOM      5  C   UNL     1      -0.888  -3.962  18.093  1.00  0.00     0.018 A 
ATOM      6  C   UNL     1      -1.002  -5.224  17.473  1.00  0.00     0.083 A 
ENDROOT
BRANCH   1   7
ATOM      7  N   UNL     1      -2.084  -7.426  17.323  1.00  0.00    -0.378 N 
ATOM      8  H   UNL     1      -1.998  -7.268  16.308  1.00  0.00     0.161 HD
BRANCH   7   9
ATOM      9  C   UNL     1      -1.433  -8.705  17.653  1.00  0.00     0.110 C 
ATOM     10  C   UNL     1      -0.270  -8.990  16.697  1.00  0.00     0.036 C 
BRANCH   9  11
ATOM     11  C   UNL     1      -2.443  -9.811  17.878  1.00  0.00     0.018 A 
ATOM     12  C   UNL     1      -3.784 -11.754  17.258  1.00  0.00    -0.034 A 
ATOM     13  C   UNL     1      -2.770 -10.762  16.985  1.00  0.00     0.014 A 
ATOM     14  C   UNL     1      -4.406 -11.734  18.444  1.00  0.00     0.100 A 
ATOM     15  N   UNL     1      -4.083 -10.815  19.431  1.00  0.00    -0.267 N 
ATOM     16  C   UNL     1      -3.097  -9.859  19.240  1.00  0.00     0.147 A 
ATOM     17  C   UNL     1      -4.745 -10.871  20.642  1.00  0.00     0.259 A 
ATOM     18  N   UNL     1      -2.718  -9.030  20.163  1.00  0.00    -0.213 NA
ATOM     19  C   UNL     1      -4.300  -9.913  21.661  1.00  0.00     0.119 A 
ATOM     20  O   UNL     1      -5.651 -11.656  20.929  1.00  0.00    -0.269 OA
ATOM     21  C   UNL     1      -3.308  -9.047  21.402  1.00  0.00     0.136 A 
ATOM     22  C   UNL     1      -4.105 -12.741  16.178  1.00  0.00     0.046 C 
BRANCH  21  23
ATOM     23  N   UNL     1      -2.849  -8.160  22.381  1.00  0.00    -0.352 N 
ATOM     24  C   UNL     1      -3.628  -6.953  22.732  1.00  0.00     0.146 C 
ATOM     25  C   UNL     1      -1.587  -8.307  23.132  1.00  0.00     0.146 C 
ATOM     26  C   UNL     1      -2.696  -5.836  23.223  1.00  0.00     0.181 C 
ATOM     27  C   UNL     1      -1.675  -7.592  24.490  1.00  0.00     0.181 C 
ATOM     28  O   UNL     1      -1.939  -6.185  24.390  1.00  0.00    -0.378 OA
ENDBRANCH  21  23
ENDBRANCH   9  11
ENDBRANCH   7   9
ENDBRANCH   1   7
BRANCH   6  29
ATOM     29  C   UNL     1      -0.102  -5.424  16.300  1.00  0.00     0.337 C 
ATOM     30  O   UNL     1       1.093  -5.665  16.355  1.00  0.00    -0.246 OA
BRANCH  29  31
ATOM     31  O   UNL     1      -0.720  -5.365  15.106  1.00  0.00    -0.478 OA
ATOM     32  H   UNL     1      -1.573  -5.819  15.270  1.00  0.00     0.297 HD
ENDBRANCH  29  31
ENDBRANCH   6  29
TORSDOF 6
ENDMDL
MODEL 4
REMARK VINA RESULT:    -8.452      2.063      4.061
REMARK INTER + INTRA:         -12.439
REMARK INTER:                 -10.514
REMARK INTRA:                  -1.925
REMARK UNBOUND:                -1.269
REMARK SMILES Cc1cc([C@@H](C)Nc2ccccc2C(=O)O)c2nc(N3CCOCC3)cc(=O)n2c1
REMARK SMILES IDX 8 1 9 2 10 3 11 4 12 5 13 6 7 7 5 9 6 10 4 11 2 12 3 13
REMARK SMILES IDX 30 14 29 15 17 16 27 17 18 18 26 19 28 20 19 21 1 22 20 23
REMARK SMILES IDX 21 24 25 25 22 26 24 27 23 28 14 29 15 30 16 31
REMARK H PARENT 7 8 16 32
ROOT
ATOM      1  C   UNL     1      -3.224 -11.310  20.579  1.00  0.00     0.049 A 
ATOM      2  C   UNL     1      -4.588 -11.636  20.646  1.00  0.00     0.026 A 
ATOM      3  C   UNL     1      -5.279 -11.729  21.861  1.00  0.00     0.002 A 
ATOM      4  C   UNL     1      -4.626 -11.465  23.055  1.00  0.00     0.001 A 
ATOM      5  C   UNL     1      -3.284 -11.102  23.029  1.00  0.00     0.018 A 
ATOM      6  C   UNL     1      -2.581 -11.013  21.810  1.00  0.00     0.083 A 
ENDROOT
BRANCH   1   7
ATOM      7  N   UNL     1      -2.561 -11.146  19.355  1.00  0.00    -0.378 N 
ATOM      8  H   UNL     1      -1.950 -11.963  19.205  1.00  0.00     0.161 HD
BRANCH   7   9
ATOM      9  C   UNL     1      -3.170 -10.775  18.067  1.00  0.00     0.110 C 
ATOM     10  C   UNL     1      -3.833 -11.989  17.406  1.00  0.00     0.036 C 
BRANCH   9  11
ATOM     11  C   UNL     1      -2.235  -9.939  17.219  1.00  0.00     0.018 A 
ATOM     12  C   UNL     1      -0.877  -9.426  15.257  1.00  0.00    -0.034 A 
ATOM     13  C   UNL     1      -1.812 -10.254  15.982  1.00  0.00     0.014 A 
ATOM     14  C   UNL     1      -0.428  -8.302  15.831  1.00  0.00     0.100 A 
ATOM     15  N   UNL     1      -0.860  -7.890  17.082  1.00  0.00    -0.267 N 
ATOM     16  C   UNL     1      -1.781  -8.625  17.813  1.00  0.00     0.147 A 
ATOM     17  C   UNL     1      -0.378  -6.704  17.601  1.00  0.00     0.259 A 
ATOM     18  N   UNL     1      -2.263  -8.236  18.953  1.00  0.00    -0.213 NA
ATOM     19  C   UNL     1      -0.935  -6.298  18.897  1.00  0.00     0.119 A 
ATOM     20  O   UNL     1       0.455  -5.972  17.064  1.00  0.00    -0.269 OA
ATOM     21  C   UNL     1      -1.854  -7.053  19.516  1.00  0.00     0.136 A 
ATOM     22  C   UNL     1      -0.435  -9.891  13.903  1.00  0.00     0.046 C 
BRANCH  21  23
ATOM     23  N   UNL     1      -2.422  -6.652  20.731  1.00  0.00    -0.352 N 
ATOM     24  C   UNL     1      -2.097  -5.335  21.318  1.00  0.00     0.146 C 
ATOM     25  C   UNL     1      -3.354  -7.462  21.538  1.00  0.00     0.146 C 
ATOM     26  C   UNL     1      -2.206  -5.387  22.848  1.00  0.00     0.181 C 
ATOM     27  C   UNL     1      -4.244  -6.562  22.409  1.00  0.00     0.181 C 
ATOM     28  O   UNL     1      -3.515  -5.732  23.323  1.00  0.00    -0.378 OA
ENDBRANCH  21  23
ENDBRANCH   9  11
ENDBRANCH   7   9
ENDBRANCH   1   7
BRANCH   6  29
ATOM     29  C   UNL     1      -1.149 -10.617  21.945  1.00  0.00     0.337 C 
ATOM     30  O   UNL     1      -0.393 -10.981  22.831  1.00  0.00    -0.246 OA
BRANCH  29  31
ATOM     31  O   UNL     1      -0.694  -9.823  20.959  1.00  0.00    -0.478 OA
ATOM     32  H   UNL     1      -1.148 -10.169  20.162  1.00  0.00     0.297 HD
ENDBRANCH  29  31
ENDBRANCH   6  29
TORSDOF 6
ENDMDL
MODEL 5
REMARK VINA RESULT:    -8.282      2.215      6.498
REMARK INTER + INTRA:         -12.214
REMARK INTER:                 -10.529
REMARK INTRA:                  -1.685
REMARK UNBOUND:                -1.269
REMARK SMILES Cc1cc([C@@H](C)Nc2ccccc2C(=O)O)c2nc(N3CCOCC3)cc(=O)n2c1
REMARK SMILES IDX 8 1 9 2 10 3 11 4 12 5 13 6 7 7 5 9 6 10 4 11 2 12 3 13
REMARK SMILES IDX 30 14 29 15 17 16 27 17 18 18 26 19 28 20 19 21 1 22 20 23
REMARK SMILES IDX 21 24 25 25 22 26 24 27 23 28 14 29 15 30 16 31
REMARK H PARENT 7 8 16 32
ROOT
ATOM      1  C   UNL     1      -1.615  -5.469  18.178  1.00  0.00     0.049 A 
ATOM      2  C   UNL     1      -2.273  -6.189  19.188  1.00  0.00     0.026 A 
ATOM      3  C   UNL     1      -2.786  -5.572  20.336  1.00  0.00     0.002 A 
ATOM      4  C   UNL     1      -2.682  -4.199  20.495  1.00  0.00     0.001 A 
ATOM      5  C   UNL     1      -2.070  -3.445  19.500  1.00  0.00     0.018 A 
ATOM      6  C   UNL     1      -1.545  -4.061  18.345  1.00  0.00     0.083 A 
ENDROOT
BRANCH   1   7
ATOM      7  N   UNL     1      -1.172  -6.084  16.999  1.00  0.00    -0.378 N 
ATOM      8  H   UNL     1      -1.023  -5.353  16.288  1.00  0.00     0.161 HD
BRANCH   7   9
ATOM      9  C   UNL     1      -0.094  -7.080  16.877  1.00  0.00     0.110 C 
ATOM     10  C   UNL     1       1.276  -6.397  16.803  1.00  0.00     0.036 C 
BRANCH   9  11
ATOM     11  C   UNL     1      -0.411  -8.131  15.835  1.00  0.00     0.018 A 
ATOM     12  C   UNL     1      -0.305  -9.177  13.632  1.00  0.00    -0.034 A 
ATOM     13  C   UNL     1       0.087  -8.166  14.586  1.00  0.00     0.014 A 
ATOM     14  C   UNL     1      -1.182 -10.116  14.008  1.00  0.00     0.100 A 
ATOM     15  N   UNL     1      -1.697 -10.171  15.295  1.00  0.00    -0.267 N 
ATOM     16  C   UNL     1      -1.334  -9.249  16.264  1.00  0.00     0.147 A 
ATOM     17  C   UNL     1      -2.575 -11.186  15.623  1.00  0.00     0.259 A 
ATOM     18  N   UNL     1      -1.737  -9.309  17.496  1.00  0.00    -0.213 NA
ATOM     19  C   UNL     1      -3.022 -11.220  17.021  1.00  0.00     0.119 A 
ATOM     20  O   UNL     1      -2.992 -12.052  14.852  1.00  0.00    -0.269 OA
ATOM     21  C   UNL     1      -2.586 -10.308  17.903  1.00  0.00     0.136 A 
ATOM     22  C   UNL     1       0.274  -9.099  12.253  1.00  0.00     0.046 C 
BRANCH  21  23
ATOM     23  N   UNL     1      -2.973 -10.359  19.247  1.00  0.00    -0.352 N 
ATOM     24  C   UNL     1      -4.164 -11.130  19.661  1.00  0.00     0.146 C 
ATOM     25  C   UNL     1      -2.282  -9.671  20.354  1.00  0.00     0.146 C 
ATOM     26  C   UNL     1      -4.795 -10.512  20.917  1.00  0.00     0.181 C 
ATOM     27  C   UNL     1      -2.531 -10.395  21.686  1.00  0.00     0.181 C 
ATOM     28  O   UNL     1      -3.916 -10.482  22.050  1.00  0.00    -0.378 OA
ENDBRANCH  21  23
ENDBRANCH   9  11
ENDBRANCH   7   9
ENDBRANCH   1   7
BRANCH   6  29
ATOM     29  C   UNL     1      -0.915  -3.121  17.371  1.00  0.00     0.337 C 
ATOM     30  O   UNL     1       0.217  -3.216  16.925  1.00  0.00    -0.246 OA
BRANCH  29  31
ATOM     31  O   UNL     1      -1.721  -2.129  16.953  1.00  0.00    -0.478 OA
ATOM     32  H   UNL     1      -1.787  -2.283  15.987  1.00  0.00     0.297 HD
ENDBRANCH  29  31
ENDBRANCH   6  29
TORSDOF 6
ENDMDL
MODEL 6
REMARK VINA RESULT:    -8.270      2.075      2.950
REMARK INTER + INTRA:         -12.198
REMARK INTER:                 -10.431
REMARK INTRA:                  -1.767
REMARK UNBOUND:                -1.269
REMARK SMILES Cc1cc([C@@H](C)Nc2ccccc2C(=O)O)c2nc(N3CCOCC3)cc(=O)n2c1
REMARK SMILES IDX 8 1 9 2 10 3 11 4 12 5 13 6 7 7 5 9 6 10 4 11 2 12 3 13
REMARK SMILES IDX 30 14 29 15 17 16 27 17 18 18 26 19 28 20 19 21 1 22 20 23
REMARK SMILES IDX 21 24 25 25 22 26 24 27 23 28 14 29 15 30 16 31
REMARK H PARENT 7 8 16 32
ROOT
ATOM      1  C   UNL     1      -2.770  -9.369  22.078  1.00  0.00     0.049 A 
ATOM      2  C   UNL     1      -3.728  -8.366  22.302  1.00  0.00     0.026 A 
ATOM      3  C   UNL     1      -3.569  -7.383  23.287  1.00  0.00     0.002 A 
ATOM      4  C   UNL     1      -2.422  -7.354  24.064  1.00  0.00     0.001 A 
ATOM      5  C   UNL     1      -1.432  -8.307  23.849  1.00  0.00     0.018 A 
ATOM      6  C   UNL     1      -1.589  -9.305  22.864  1.00  0.00     0.083 A 
ENDROOT
BRANCH   1   7
ATOM      7  N   UNL     1      -2.903 -10.302  21.042  1.00  0.00    -0.378 N 
ATOM      8  H   UNL     1      -2.649 -11.232  21.407  1.00  0.00     0.161 HD
BRANCH   7   9
ATOM      9  C   UNL     1      -4.055 -10.454  20.137  1.00  0.00     0.110 C 
ATOM     10  C   UNL     1      -5.099 -11.403  20.737  1.00  0.00     0.036 C 
BRANCH   9  11
ATOM     11  C   UNL     1      -3.623 -10.701  18.707  1.00  0.00     0.018 A 
ATOM     12  C   UNL     1      -3.567 -11.895  16.579  1.00  0.00    -0.034 A 
ATOM     13  C   UNL     1      -4.068 -11.695  17.919  1.00  0.00     0.014 A 
ATOM     14  C   UNL     1      -2.640 -11.053  16.103  1.00  0.00     0.100 A 
ATOM     15  N   UNL     1      -2.174  -9.975  16.842  1.00  0.00    -0.267 N 
ATOM     16  C   UNL     1      -2.640  -9.713  18.121  1.00  0.00     0.147 A 
ATOM     17  C   UNL     1      -1.239  -9.129  16.277  1.00  0.00     0.259 A 
ATOM     18  N   UNL     1      -2.282  -8.677  18.814  1.00  0.00    -0.213 NA
ATOM     19  C   UNL     1      -0.846  -7.973  17.091  1.00  0.00     0.119 A 
ATOM     20  O   UNL     1      -0.731  -9.263  15.162  1.00  0.00    -0.269 OA
ATOM     21  C   UNL     1      -1.381  -7.776  18.306  1.00  0.00     0.136 A 
ATOM     22  C   UNL     1      -4.095 -13.060  15.800  1.00  0.00     0.046 C 
BRANCH  21  23
ATOM     23  N   UNL     1      -1.044  -6.653  19.070  1.00  0.00    -0.352 N 
ATOM     24  C   UNL     1      -0.892  -5.326  18.437  1.00  0.00     0.146 C 
ATOM     25  C   UNL     1      -0.799  -6.662  20.526  1.00  0.00     0.146 C 
ATOM     26  C   UNL     1       0.110  -4.467  19.221  1.00  0.00     0.181 C 
ATOM     27  C   UNL     1      -1.080  -5.278  21.133  1.00  0.00     0.181 C 
ATOM     28  O   UNL     1      -0.275  -4.227  20.581  1.00  0.00    -0.378 OA
ENDBRANCH  21  23
ENDBRANCH   9  11
ENDBRANCH   7   9
ENDBRANCH   1   7
BRANCH   6  29
ATOM     29  C   UNL     1      -0.445 -10.257  22.755  1.00  0.00     0.337 C 
ATOM     30  O   UNL     1      -0.485 -11.447  23.022  1.00  0.00    -0.246 OA
BRANCH  29  31
ATOM     31  O   UNL     1       0.691  -9.713  22.280  1.00  0.00    -0.478 OA
ATOM     32  H   UNL     1       1.195 -10.489  21.957  1.00  0.00     0.297 HD
ENDBRANCH  29  31
ENDBRANCH   6  29
TORSDOF 6
ENDMDL
MODEL 7
REMARK VINA RESULT:    -8.242      1.829      2.658
REMARK INTER + INTRA:         -12.161
REMARK INTER:                 -10.764
REMARK INTRA:                  -1.397
REMARK UNBOUND:                -1.269
REMARK SMILES Cc1cc([C@@H](C)Nc2ccccc2C(=O)O)c2nc(N3CCOCC3)cc(=O)n2c1
REMARK SMILES IDX 8 1 9 2 10 3 11 4 12 5 13 6 7 7 5 9 6 10 4 11 2 12 3 13
REMARK SMILES IDX 30 14 29 15 17 16 27 17 18 18 26 19 28 20 19 21 1 22 20 23
REMARK SMILES IDX 21 24 25 25 22 26 24 27 23 28 14 29 15 30 16 31
REMARK H PARENT 7 8 16 32
ROOT
ATOM      1  C   UNL     1      -0.914  -9.312  20.937  1.00  0.00     0.049 A 
ATOM      2  C   UNL     1      -0.685 -10.495  21.658  1.00  0.00     0.026 A 
ATOM      3  C   UNL     1      -0.389 -10.494  23.027  1.00  0.00     0.002 A 
ATOM      4  C   UNL     1      -0.342  -9.300  23.729  1.00  0.00     0.001 A 
ATOM      5  C   UNL     1      -0.600  -8.109  23.060  1.00  0.00     0.018 A 
ATOM      6  C   UNL     1      -0.892  -8.101  21.680  1.00  0.00     0.083 A 
ENDROOT
BRANCH   1   7
ATOM      7  N   UNL     1      -1.284  -9.328  19.586  1.00  0.00    -0.378 N 
ATOM      8  H   UNL     1      -0.664  -9.984  19.088  1.00  0.00     0.161 HD
BRANCH   7   9
ATOM      9  C   UNL     1      -2.647  -9.473  19.048  1.00  0.00     0.110 C 
ATOM     10  C   UNL     1      -3.578 -10.114  20.083  1.00  0.00     0.036 C 
BRANCH   9  11
ATOM     11  C   UNL     1      -2.645 -10.056  17.651  1.00  0.00     0.018 A 
ATOM     12  C   UNL     1      -3.317 -11.609  15.892  1.00  0.00    -0.034 A 
ATOM     13  C   UNL     1      -3.416 -11.074  17.230  1.00  0.00     0.014 A 
ATOM     14  C   UNL     1      -2.439 -11.063  15.040  1.00  0.00     0.100 A 
ATOM     15  N   UNL     1      -1.649  -9.978  15.390  1.00  0.00    -0.267 N 
ATOM     16  C   UNL     1      -1.722  -9.401  16.649  1.00  0.00     0.147 A 
ATOM     17  C   UNL     1      -0.786  -9.447  14.452  1.00  0.00     0.259 A 
ATOM     18  N   UNL     1      -1.052  -8.344  16.990  1.00  0.00    -0.213 NA
ATOM     19  C   UNL     1      -0.035  -8.257  14.872  1.00  0.00     0.119 A 
ATOM     20  O   UNL     1      -0.613  -9.877  13.310  1.00  0.00    -0.269 OA
ATOM     21  C   UNL     1      -0.198  -7.742  16.100  1.00  0.00     0.136 A 
ATOM     22  C   UNL     1      -4.190 -12.773  15.537  1.00  0.00     0.046 C 
BRANCH  21  23
ATOM     23  N   UNL     1       0.481  -6.584  16.494  1.00  0.00    -0.352 N 
ATOM     24  C   UNL     1       1.764  -6.208  15.862  1.00  0.00     0.146 C 
ATOM     25  C   UNL     1       0.029  -5.653  17.546  1.00  0.00     0.146 C 
ATOM     26  C   UNL     1       2.635  -5.413  16.844  1.00  0.00     0.181 C 
ATOM     27  C   UNL     1       0.598  -4.245  17.309  1.00  0.00     0.181 C 
ATOM     28  O   UNL     1       2.031  -4.192  17.295  1.00  0.00    -0.378 OA
ENDBRANCH  21  23
ENDBRANCH   9  11
ENDBRANCH   7   9
ENDBRANCH   1   7
BRANCH   6  29
ATOM     29  C   UNL     1      -1.141  -6.748  21.104  1.00  0.00     0.337 C 
ATOM     30  O   UNL     1      -0.301  -5.875  20.957  1.00  0.00    -0.246 OA
BRANCH  29  31
ATOM     31  O   UNL     1      -2.405  -6.540  20.691  1.00  0.00    -0.478 OA
ATOM     32  H   UNL     1      -2.349  -5.685  20.215  1.00  0.00     0.297 HD
ENDBRANCH  29  31
ENDBRANCH   6  29
TORSDOF 6
ENDMDL
MODEL 8
REMARK VINA RESULT:    -8.212      2.725      6.604
REMARK INTER + INTRA:         -12.121
REMARK INTER:                 -10.202
REMARK INTRA:                  -1.919
REMARK UNBOUND:                -1.269
REMARK SMILES Cc1cc([C@@H](C)Nc2ccccc2C(=O)O)c2nc(N3CCOCC3)cc(=O)n2c1
REMARK SMILES IDX 8 1 9 2 10 3 11 4 12 5 13 6 7 7 5 9 6 10 4 11 2 12 3 13
REMARK SMILES IDX 30 14 29 15 17 16 27 17 18 18 26 19 28 20 19 21 1 22 20 23
REMARK SMILES IDX 21 24 25 25 22 26 24 27 23 28 14 29 15 30 16 31
REMARK H PARENT 7 8 16 32
ROOT
ATOM      1  C   UNL     1      -1.329  -6.212  17.891  1.00  0.00     0.049 A 
ATOM      2  C   UNL     1      -0.888  -5.706  16.657  1.00  0.00     0.026 A 
ATOM      3  C   UNL     1      -0.151  -4.520  16.552  1.00  0.00     0.002 A 
ATOM      4  C   UNL     1       0.197  -3.813  17.692  1.00  0.00     0.001 A 
ATOM      5  C   UNL     1      -0.188  -4.299  18.937  1.00  0.00     0.018 A 
ATOM      6  C   UNL     1      -0.937  -5.490  19.049  1.00  0.00     0.083 A 
ENDROOT
BRANCH   1   7
ATOM      7  N   UNL     1      -2.001  -7.437  17.992  1.00  0.00    -0.378 N 
ATOM      8  H   UNL     1      -2.775  -7.440  17.310  1.00  0.00     0.161 HD
BRANCH   7   9
ATOM      9  C   UNL     1      -1.389  -8.777  18.010  1.00  0.00     0.110 C 
ATOM     10  C   UNL     1      -0.374  -8.930  16.872  1.00  0.00     0.036 C 
BRANCH   9  11
ATOM     11  C   UNL     1      -2.424  -9.869  18.178  1.00  0.00     0.018 A 
ATOM     12  C   UNL     1      -3.865 -11.695  17.439  1.00  0.00    -0.034 A 
ATOM     13  C   UNL     1      -2.833 -10.711  17.212  1.00  0.00     0.014 A 
ATOM     14  C   UNL     1      -4.423 -11.779  18.653  1.00  0.00     0.100 A 
ATOM     15  N   UNL     1      -4.016 -10.977  19.709  1.00  0.00    -0.267 N 
ATOM     16  C   UNL     1      -3.008 -10.038  19.562  1.00  0.00     0.147 A 
ATOM     17  C   UNL     1      -4.615 -11.139  20.943  1.00  0.00     0.259 A 
ATOM     18  N   UNL     1      -2.550  -9.321  20.542  1.00  0.00    -0.213 NA
ATOM     19  C   UNL     1      -4.082 -10.305  22.028  1.00  0.00     0.119 A 
ATOM     20  O   UNL     1      -5.532 -11.921  21.200  1.00  0.00    -0.269 OA
ATOM     21  C   UNL     1      -3.075  -9.448  21.803  1.00  0.00     0.136 A 
ATOM     22  C   UNL     1      -4.279 -12.554  16.283  1.00  0.00     0.046 C 
BRANCH  21  23
ATOM     23  N   UNL     1      -2.533  -8.681  22.841  1.00  0.00    -0.352 N 
ATOM     24  C   UNL     1      -3.406  -7.876  23.721  1.00  0.00     0.146 C 
ATOM     25  C   UNL     1      -1.095  -8.578  23.155  1.00  0.00     0.146 C 
ATOM     26  C   UNL     1      -2.651  -6.649  24.251  1.00  0.00     0.181 C 
ATOM     27  C   UNL     1      -0.886  -8.219  24.635  1.00  0.00     0.181 C 
ATOM     28  O   UNL     1      -1.487  -6.976  25.022  1.00  0.00    -0.378 OA
ENDBRANCH  21  23
ENDBRANCH   9  11
ENDBRANCH   7   9
ENDBRANCH   1   7
BRANCH   6  29
ATOM     29  C   UNL     1      -1.279  -5.880  20.448  1.00  0.00     0.337 C 
ATOM     30  O   UNL     1      -0.512  -5.861  21.397  1.00  0.00    -0.246 OA
BRANCH  29  31
ATOM     31  O   UNL     1      -2.564  -6.235  20.630  1.00  0.00    -0.478 OA
ATOM     32  H   UNL     1      -2.508  -7.196  20.818  1.00  0.00     0.297 HD
ENDBRANCH  29  31
ENDBRANCH   6  29
TORSDOF 6
ENDMDL
MODEL 9
REMARK VINA RESULT:    -8.126      2.478      4.486
REMARK INTER + INTRA:         -12.007
REMARK INTER:                 -10.261
REMARK INTRA:                  -1.747
REMARK UNBOUND:                -1.269
REMARK SMILES Cc1cc([C@@H](C)Nc2ccccc2C(=O)O)c2nc(N3CCOCC3)cc(=O)n2c1
REMARK SMILES IDX 8 1 9 2 10 3 11 4 12 5 13 6 7 7 5 9 6 10 4 11 2 12 3 13
REMARK SMILES IDX 30 14 29 15 17 16 27 17 18 18 26 19 28 20 19 21 1 22 20 23
REMARK SMILES IDX 21 24 25 25 22 26 24 27 23 28 14 29 15 30 16 31
REMARK H PARENT 7 8 16 32
ROOT
ATOM      1  C   UNL     1      -2.298 -11.131  20.343  1.00  0.00     0.049 A 
ATOM      2  C   UNL     1      -1.048 -10.669  20.787  1.00  0.00     0.026 A 
ATOM      3  C   UNL     1      -0.794 -10.367  22.131  1.00  0.00     0.002 A 
ATOM      4  C   UNL     1      -1.782 -10.549  23.085  1.00  0.00     0.001 A 
ATOM      5  C   UNL     1      -3.023 -11.040  22.692  1.00  0.00     0.018 A 
ATOM      6  C   UNL     1      -3.288 -11.339  21.340  1.00  0.00     0.083 A 
ENDROOT
BRANCH   1   7
ATOM      7  N   UNL     1      -2.520 -11.501  19.010  1.00  0.00    -0.378 N 
ATOM      8  H   UNL     1      -2.899 -12.460  18.999  1.00  0.00     0.161 HD
BRANCH   7   9
ATOM      9  C   UNL     1      -3.217 -10.711  17.981  1.00  0.00     0.110 C 
ATOM     10  C   UNL     1      -4.258 -11.564  17.248  1.00  0.00     0.036 C 
BRANCH   9  11
ATOM     11  C   UNL     1      -2.253  -9.904  17.138  1.00  0.00     0.018 A 
ATOM     12  C   UNL     1      -0.826  -9.459  15.209  1.00  0.00    -0.034 A 
ATOM     13  C   UNL     1      -1.786 -10.262  15.929  1.00  0.00     0.014 A 
ATOM     14  C   UNL     1      -0.397  -8.315  15.758  1.00  0.00     0.100 A 
ATOM     15  N   UNL     1      -0.874  -7.859  16.978  1.00  0.00    -0.267 N 
ATOM     16  C   UNL     1      -1.820  -8.569  17.701  1.00  0.00     0.147 A 
ATOM     17  C   UNL     1      -0.410  -6.655  17.472  1.00  0.00     0.259 A 
ATOM     18  N   UNL     1      -2.342  -8.141  18.809  1.00  0.00    -0.213 NA
ATOM     19  C   UNL     1      -1.012  -6.204  18.732  1.00  0.00     0.119 A 
ATOM     20  O   UNL     1       0.441  -5.941  16.939  1.00  0.00    -0.269 OA
ATOM     21  C   UNL     1      -1.953  -6.939  19.344  1.00  0.00     0.136 A 
ATOM     22  C   UNL     1      -0.336  -9.970  13.889  1.00  0.00     0.046 C 
BRANCH  21  23
ATOM     23  N   UNL     1      -2.563  -6.496  20.523  1.00  0.00    -0.352 N 
ATOM     24  C   UNL     1      -2.934  -7.452  21.587  1.00  0.00     0.146 C 
ATOM     25  C   UNL     1      -2.906  -5.092  20.824  1.00  0.00     0.146 C 
ATOM     26  C   UNL     1      -4.143  -6.935  22.379  1.00  0.00     0.181 C 
ATOM     27  C   UNL     1      -2.955  -4.857  22.342  1.00  0.00     0.181 C 
ATOM     28  O   UNL     1      -3.913  -5.676  23.026  1.00  0.00    -0.378 OA
ENDBRANCH  21  23
ENDBRANCH   9  11
ENDBRANCH   7   9
ENDBRANCH   1   7
BRANCH   6  29
ATOM     29  C   UNL     1      -4.664 -11.852  21.074  1.00  0.00     0.337 C 
ATOM     30  O   UNL     1      -5.073 -12.966  21.360  1.00  0.00    -0.246 OA
BRANCH  29  31
ATOM     31  O   UNL     1      -5.494 -10.957  20.509  1.00  0.00    -0.478 OA
ATOM     32  H   UNL     1      -5.156 -10.097  20.836  1.00  0.00     0.297 HD
ENDBRANCH  29  31
ENDBRANCH   6  29
TORSDOF 6
ENDMDL
