MODEL 1
REMARK VINA RESULT:    -9.795      0.000      0.000
REMARK INTER + INTRA:         -14.562
REMARK INTER:                 -14.089
REMARK INTRA:                  -0.473
REMARK UNBOUND:                -0.473
REMARK SMILES CC(C)(Oc1c(Br)cc(CN2C(=O)CN(c3ccc(C(F)(F)F)cc3)C2=O)cc1Br)C(=O)O
REMARK SMILES IDX 5 1 6 2 7 3 8 4 9 5 28 6 29 7 30 8 4 9 2 10 1 11 3 12 31 13
REMARK SMILES IDX 32 14 33 15 10 17 11 18 12 19 26 20 13 21 14 22 15 23 27 24
REMARK SMILES IDX 16 25 17 26 25 27 18 28 24 29 19 30 20 31 21 32 22 33 23 34
REMARK H PARENT 33 16
ROOT
ATOM      1  C   UNL     1      42.242   0.996 131.512  1.00  0.00     0.149 A 
ATOM      2  C   UNL     1      42.221   2.124 132.342  1.00  0.00     0.061 A 
ATOM      3  Br  UNL     1      43.790   2.806 133.169  1.00  0.00    -0.047 Br
ATOM      4  C   UNL     1      41.034   2.840 132.545  1.00  0.00     0.025 A 
ATOM      5  C   UNL     1      39.854   2.463 131.893  1.00  0.00    -0.025 A 
ATOM      6  C   UNL     1      39.894   1.389 130.997  1.00  0.00     0.025 A 
ATOM      7  C   UNL     1      41.081   0.674 130.793  1.00  0.00     0.061 A 
ATOM      8  Br  UNL     1      41.052  -0.674 129.456  1.00  0.00    -0.047 Br
ENDROOT
BRANCH   1   9
ATOM      9  O   UNL     1      43.412   0.312 131.320  1.00  0.00    -0.474 OA
BRANCH   9  10
ATOM     10  C   UNL     1      43.639  -0.839 132.154  1.00  0.00     0.200 C 
ATOM     11  C   UNL     1      42.528  -0.895 133.220  1.00  0.00     0.069 C 
ATOM     12  C   UNL     1      44.950  -0.528 132.903  1.00  0.00     0.069 C 
BRANCH  10  13
ATOM     13  C   UNL     1      43.767  -2.265 131.550  1.00  0.00     0.347 C 
ATOM     14  O   UNL     1      44.280  -2.571 130.485  1.00  0.00    -0.248 OA
BRANCH  13  15
ATOM     15  O   UNL     1      43.256  -3.239 132.335  1.00  0.00    -0.478 OA
ATOM     16  H   UNL     1      43.956  -3.925 132.342  1.00  0.00     0.296 HD
ENDBRANCH  13  15
ENDBRANCH  10  13
ENDBRANCH   9  10
ENDBRANCH   1   9
BRANCH   5  17
ATOM     17  C   UNL     1      38.582   3.257 132.089  1.00  0.00     0.166 C 
BRANCH  17  18
ATOM     18  N   UNL     1      37.892   2.864 133.295  1.00  0.00    -0.258 N 
ATOM     19  C   UNL     1      36.979   1.859 133.370  1.00  0.00     0.251 C 
ATOM     20  C   UNL     1      38.049   3.478 134.509  1.00  0.00     0.332 C 
ATOM     21  O   UNL     1      36.625   1.125 132.457  1.00  0.00    -0.272 OA
ATOM     22  C   UNL     1      36.456   1.786 134.785  1.00  0.00     0.228 C 
ATOM     23  N   UNL     1      37.198   2.847 135.431  1.00  0.00    -0.285 N 
ATOM     24  O   UNL     1      38.818   4.410 134.704  1.00  0.00    -0.248 OA
BRANCH  23  25
ATOM     25  C   UNL     1      37.031   3.162 136.806  1.00  0.00     0.046 A 
ATOM     26  C   UNL     1      36.225   2.356 137.626  1.00  0.00     0.027 A 
ATOM     27  C   UNL     1      37.653   4.266 137.398  1.00  0.00     0.027 A 
ATOM     28  C   UNL     1      36.045   2.646 138.986  1.00  0.00     0.015 A 
ATOM     29  C   UNL     1      37.477   4.560 138.758  1.00  0.00     0.015 A 
ATOM     30  C   UNL     1      36.665   3.759 139.566  1.00  0.00     0.056 A 
BRANCH  30  31
ATOM     31  C   UNL     1      36.493   4.061 141.033  1.00  0.00     0.416 C 
ATOM     32  F   UNL     1      37.059   3.120 141.840  1.00  0.00    -0.166 F 
ATOM     33  F   UNL     1      37.063   5.246 141.387  1.00  0.00    -0.166 F 
ATOM     34  F   UNL     1      35.189   4.142 141.417  1.00  0.00    -0.166 F 
ENDBRANCH  30  31
ENDBRANCH  23  25
ENDBRANCH  17  18
ENDBRANCH   5  17
TORSDOF 8
ENDMDL
