REMARK SMILES CS(=O)(=O)CCNCc1ccc(-c2ccc3ncnc(Nc4ccc(OCc5cccc(F)c5)c(Cl)c4)c3c2)o1
REMARK SMILES IDX 13 1 14 2 15 3 16 4 17 5 18 6 19 7 20 8 38 9 39 10 12 11
REMARK SMILES IDX 9 12 10 13 40 14 11 15 8 16 7 17 6 19 5 20 2 21 3 22 4 23
REMARK SMILES IDX 1 24 21 25 22 27 23 28 37 29 24 30 35 31 25 32 36 33 26 34
REMARK SMILES IDX 27 35 28 36 29 37 34 38 30 39 32 40 31 41 33 42
REMARK H PARENT 7 18 21 26
REMARK INDEX MAP 13 1 14 2 15 3 16 4 17 5 18 6 19 7 20 8 38 9 39 10 12 11 9 12
REMARK INDEX MAP 10 13 40 14 11 15 8 16 7 17 48 18 6 19 5 20 2 21 3 22 4 23
REMARK INDEX MAP 1 24 21 25 56 26 22 27 23 28 37 29 24 30 35 31 25 32 36 33
REMARK INDEX MAP 26 34 27 35 28 36 29 37 34 38 30 39 32 40 31 41 33 42
ROOT
ATOM      1  C   UNL     1      20.936  36.010  16.337  1.00  0.00     0.018 A 
ATOM      2  C   UNL     1      22.284  36.366  16.360  1.00  0.00     0.014 A 
ATOM      3  C   UNL     1      23.149  35.939  15.345  1.00  0.00     0.030 A 
ATOM      4  C   UNL     1      22.712  35.153  14.288  1.00  0.00     0.076 A 
ATOM      5  N   UNL     1      23.599  34.793  13.358  1.00  0.00    -0.236 NA
ATOM      6  C   UNL     1      23.138  34.047  12.349  1.00  0.00     0.224 A 
ATOM      7  N   UNL     1      21.881  33.628  12.189  1.00  0.00    -0.219 NA
ATOM      8  C   UNL     1      20.995  33.976  13.140  1.00  0.00     0.141 A 
ATOM      9  C   UNL     1      21.364  34.776  14.241  1.00  0.00     0.044 A 
ATOM     10  C   UNL     1      20.487  35.220  15.270  1.00  0.00     0.026 A 
ENDROOT
BRANCH   1  11
ATOM     11  C   UNL     1      20.028  36.445  17.395  1.00  0.00     0.134 A 
ATOM     12  C   UNL     1      18.035  36.565  18.328  1.00  0.00     0.118 A 
ATOM     13  C   UNL     1      18.900  37.230  19.172  1.00  0.00     0.047 A 
ATOM     14  O   UNL     1      18.716  36.092  17.244  1.00  0.00    -0.460 OA
ATOM     15  C   UNL     1      20.181  37.149  18.574  1.00  0.00     0.051 A 
BRANCH  12  16
ATOM     16  C   UNL     1      16.578  36.268  18.377  1.00  0.00     0.157 C 
BRANCH  16  17
ATOM     17  N   UNL     1      16.280  35.059  17.599  1.00  0.00    -0.309 NA
ATOM     18  H   UNL     1      16.442  34.233  18.193  1.00  0.00     0.123 HD
BRANCH  17  19
ATOM     19  C   UNL     1      14.890  35.037  17.125  1.00  0.00     0.097 C 
BRANCH  19  20
ATOM     20  C   UNL     1      14.681  34.027  16.004  1.00  0.00     0.152 C 
BRANCH  20  21
ATOM     21  S   UNL     1      15.839  34.320  14.684  1.00  0.00     0.148 S 
ATOM     22  O   UNL     1      15.990  35.751  14.508  1.00  0.00    -0.229 OA
ATOM     23  O   UNL     1      16.993  33.471  14.915  1.00  0.00    -0.229 OA
ATOM     24  C   UNL     1      14.986  33.688  13.259  1.00  0.00     0.158 C 
ENDBRANCH  20  21
ENDBRANCH  19  20
ENDBRANCH  17  19
ENDBRANCH  16  17
ENDBRANCH  12  16
ENDBRANCH   1  11
BRANCH   8  25
ATOM     25  N   UNL     1      19.657  33.534  13.021  1.00  0.00    -0.340 N 
ATOM     26  H   UNL     1      19.203  33.305  13.917  1.00  0.00     0.168 HD
BRANCH  25  27
ATOM     27  C   UNL     1      18.839  33.353  11.892  1.00  0.00     0.041 A 
ATOM     28  C   UNL     1      18.893  32.218  11.077  1.00  0.00     0.030 A 
ATOM     29  C   UNL     1      17.963  34.379  11.519  1.00  0.00     0.050 A 
ATOM     30  C   UNL     1      18.084  32.093   9.938  1.00  0.00     0.050 A 
ATOM     31  C   UNL     1      17.155  34.260  10.381  1.00  0.00     0.085 A 
ATOM     32  C   UNL     1      17.212  33.117   9.572  1.00  0.00     0.138 A 
ATOM     33  Cl  UNL     1      16.098  35.578  10.002  1.00  0.00    -0.080 Cl
BRANCH  32  34
ATOM     34  O   UNL     1      16.380  33.085   8.485  1.00  0.00    -0.487 OA
BRANCH  34  35
ATOM     35  C   UNL     1      16.792  32.380   7.314  1.00  0.00     0.265 C 
BRANCH  35  36
ATOM     36  C   UNL     1      16.162  31.010   7.190  1.00  0.00    -0.008 A 
ATOM     37  C   UNL     1      14.839  30.808   7.618  1.00  0.00     0.007 A 
ATOM     38  C   UNL     1      16.892  29.912   6.713  1.00  0.00     0.046 A 
ATOM     39  C   UNL     1      14.252  29.541   7.547  1.00  0.00     0.003 A 
ATOM     40  C   UNL     1      16.296  28.657   6.643  1.00  0.00     0.123 A 
ATOM     41  C   UNL     1      14.984  28.463   7.053  1.00  0.00     0.039 A 
ATOM     42  F   UNL     1      17.001  27.616   6.179  1.00  0.00    -0.207 F 
ENDBRANCH  35  36
ENDBRANCH  34  35
ENDBRANCH  32  34
ENDBRANCH  25  27
ENDBRANCH   8  25
TORSDOF 11
