REMARK SMILES CC[C@@H](Cc1ccc(CCc2ccc(N3C(=O)c4ccccc4C3=O)cc2)cc1)C(=O)O
REMARK SMILES IDX 5 1 6 2 7 3 8 4 28 5 29 6 4 7 3 8 2 9 1 10 30 11 31 12 32 13
REMARK SMILES IDX 9 15 10 16 11 17 12 18 27 19 13 20 26 21 14 22 15 23 16 24
REMARK SMILES IDX 24 25 17 26 18 27 23 28 25 29 19 30 22 31 20 32 21 33
REMARK H PARENT 32 14
REMARK INDEX MAP 5 1 6 2 7 3 8 4 28 5 29 6 4 7 3 8 2 9 1 10 30 11 31 12 32 13
REMARK INDEX MAP 57 14 9 15 10 16 11 17 12 18 27 19 13 20 26 21 14 22 15 23
REMARK INDEX MAP 16 24 24 25 17 26 18 27 23 28 25 29 19 30 22 31 20 32 21 33
ROOT
ATOM      1  C   UNL     1      11.863   1.822  -3.270  1.00  0.00    -0.047 A 
ATOM      2  C   UNL     1      11.616   1.271  -4.534  1.00  0.00     0.004 A 
ATOM      3  C   UNL     1      10.637   1.816  -5.367  1.00  0.00     0.004 A 
ATOM      4  C   UNL     1       9.886   2.922  -4.950  1.00  0.00    -0.048 A 
ATOM      5  C   UNL     1      10.139   3.479  -3.691  1.00  0.00     0.004 A 
ATOM      6  C   UNL     1      11.118   2.932  -2.858  1.00  0.00     0.004 A 
ENDROOT
BRANCH   1   7
ATOM      7  C   UNL     1      12.938   1.242  -2.378  1.00  0.00     0.050 C 
BRANCH   7   8
ATOM      8  C   UNL     1      14.330   1.821  -2.674  1.00  0.00     0.103 C 
BRANCH   8   9
ATOM      9  C   UNL     1      15.221   0.854  -3.473  1.00  0.00     0.012 C 
ATOM     10  C   UNL     1      14.699   0.493  -4.857  1.00  0.00     0.005 C 
ENDBRANCH   8   9
BRANCH   8  11
ATOM     11  C   UNL     1      15.033   2.229  -1.397  1.00  0.00     0.306 C 
ATOM     12  O   UNL     1      15.005   3.322  -0.856  1.00  0.00    -0.252 OA
BRANCH  11  13
ATOM     13  O   UNL     1      15.715   1.209  -0.838  1.00  0.00    -0.481 OA
ATOM     14  H   UNL     1      16.217   1.351   0.003  1.00  0.00     0.296 HD
ENDBRANCH  11  13
ENDBRANCH   8  11
ENDBRANCH   7   8
ENDBRANCH   1   7
BRANCH   4  15
ATOM     15  C   UNL     1       8.843   3.526  -5.857  1.00  0.00     0.040 C 
BRANCH  15  16
ATOM     16  C   UNL     1       9.006   3.042  -7.302  1.00  0.00     0.040 C 
BRANCH  16  17
ATOM     17  C   UNL     1       9.433   4.161  -8.218  1.00  0.00    -0.048 A 
ATOM     18  C   UNL     1       9.758   5.417  -7.708  1.00  0.00     0.006 A 
ATOM     19  C   UNL     1       9.485   3.971  -9.599  1.00  0.00     0.006 A 
ATOM     20  C   UNL     1      10.137   6.461  -8.565  1.00  0.00     0.027 A 
ATOM     21  C   UNL     1       9.864   5.020 -10.450  1.00  0.00     0.027 A 
ATOM     22  C   UNL     1      10.201   6.291  -9.956  1.00  0.00     0.052 A 
BRANCH  22  23
ATOM     23  N   UNL     1      10.589   7.358 -10.829  1.00  0.00    -0.242 N 
ATOM     24  C   UNL     1      10.162   8.669 -10.718  1.00  0.00     0.266 C 
ATOM     25  C   UNL     1      11.446   7.232 -11.907  1.00  0.00     0.266 C 
ATOM     26  O   UNL     1       9.416   9.227  -9.933  1.00  0.00    -0.268 OA
ATOM     27  C   UNL     1      10.790   9.423 -11.798  1.00  0.00     0.053 A 
ATOM     28  C   UNL     1      11.570   8.549 -12.520  1.00  0.00     0.053 A 
ATOM     29  O   UNL     1      12.047   6.279 -12.371  1.00  0.00    -0.268 OA
ATOM     30  C   UNL     1      10.694  10.762 -12.129  1.00  0.00     0.015 A 
ATOM     31  C   UNL     1      12.303   8.959 -13.619  1.00  0.00     0.015 A 
ATOM     32  C   UNL     1      11.425  11.205 -13.236  1.00  0.00     0.001 A 
ATOM     33  C   UNL     1      12.223  10.309 -13.976  1.00  0.00     0.001 A 
ENDBRANCH  22  23
ENDBRANCH  16  17
ENDBRANCH  15  16
ENDBRANCH   4  15
TORSDOF 9
