MODEL 5
REMARK VINA RESULT:    -9.249      3.164      7.107
REMARK INTER + INTRA:         -12.603
REMARK INTER:                 -12.806
REMARK INTRA:                   0.203
REMARK UNBOUND:                -0.651
REMARK SMILES CS(=O)(=O)N1CC(CC#N)(n2ccc(-c3cc(-c4cn[nH]c4)cc4ncccc34)n2)C1
REMARK SMILES IDX 11 1 12 2 13 3 14 4 30 5 7 6 5 7 6 8 31 9 2 10 3 11 4 12
REMARK SMILES IDX 1 13 8 14 9 15 10 16 15 17 16 18 29 19 17 20 28 21 24 22
REMARK SMILES IDX 23 23 27 24 25 25 26 26 18 27 19 28 22 29 20 30 21 31
REMARK H PARENT 21 32
ROOT
ATOM      1  N   UNL     1      -3.843  28.891 -28.814  1.00  0.00    -0.262 N 
ATOM      2  C   UNL     1      -3.555  28.079 -27.754  1.00  0.00     0.110 A 
ATOM      3  C   UNL     1      -3.757  26.795 -28.202  1.00  0.00     0.050 A 
ATOM      4  C   UNL     1      -4.135  26.927 -29.563  1.00  0.00     0.093 A 
ATOM      5  N   UNL     1      -4.135  28.216 -29.937  1.00  0.00    -0.172 NA
ENDROOT
BRANCH   1   6
ATOM      6  C   UNL     1      -3.704  30.363 -28.812  1.00  0.00     0.103 C 
ATOM      7  N   UNL     1      -2.720  31.778 -27.540  1.00  0.00    -0.197 NA
ATOM      8  C   UNL     1      -2.236  30.817 -28.575  1.00  0.00     0.135 C 
ATOM      9  C   UNL     1      -3.956  30.945 -27.391  1.00  0.00     0.135 C 
BRANCH   7  10
ATOM     10  S   UNL     1      -1.810  32.356 -26.240  1.00  0.00     0.211 S 
ATOM     11  O   UNL     1      -2.712  33.040 -25.340  1.00  0.00    -0.213 OA
ATOM     12  O   UNL     1      -0.971  31.269 -25.785  1.00  0.00    -0.213 OA
ATOM     13  C   UNL     1      -0.791  33.564 -27.057  1.00  0.00     0.176 C 
ENDBRANCH   7  10
BRANCH   6  14
ATOM     14  C   UNL     1      -4.503  30.962 -29.962  1.00  0.00     0.153 C 
ATOM     15  C   UNL     1      -4.494  32.432 -29.981  1.00  0.00     0.065 C 
ATOM     16  N   UNL     1      -4.454  33.590 -30.016  1.00  0.00    -0.198 NA
ENDBRANCH   6  14
ENDBRANCH   1   6
BRANCH   4  17
ATOM     17  C   UNL     1      -4.452  25.854 -30.499  1.00  0.00     0.012 A 
ATOM     18  C   UNL     1      -4.041  24.555 -30.163  1.00  0.00     0.020 A 
ATOM     19  C   UNL     1      -5.171  26.090 -31.702  1.00  0.00     0.010 A 
ATOM     20  C   UNL     1      -4.334  23.480 -31.003  1.00  0.00    -0.012 A 
ATOM     21  C   UNL     1      -5.630  27.357 -32.128  1.00  0.00     0.012 A 
ATOM     22  C   UNL     1      -5.472  24.995 -32.542  1.00  0.00     0.071 A 
ATOM     23  C   UNL     1      -5.053  23.723 -32.178  1.00  0.00     0.037 A 
ATOM     24  C   UNL     1      -6.336  27.493 -33.318  1.00  0.00     0.021 A 
ATOM     25  N   UNL     1      -6.159  25.123 -33.690  1.00  0.00    -0.256 NA
ATOM     26  C   UNL     1      -6.573  26.354 -34.056  1.00  0.00     0.112 A 
BRANCH  20  27
ATOM     27  C   UNL     1      -3.912  22.132 -30.670  1.00  0.00     0.020 A 
ATOM     28  C   UNL     1      -4.377  20.876 -31.128  1.00  0.00     0.143 A 
ATOM     29  C   UNL     1      -2.884  21.811 -29.807  1.00  0.00     0.113 A 
ATOM     30  N   UNL     1      -3.710  19.852 -30.588  1.00  0.00    -0.184 NA
ATOM     31  N   UNL     1      -2.801  20.448 -29.799  1.00  0.00    -0.285 N 
ATOM     32  H   UNL     1      -2.152  19.861 -29.284  1.00  0.00     0.189 HD
ENDBRANCH  20  27
ENDBRANCH   4  17
TORSDOF 5
ENDMDL
