MODEL 1
REMARK VINA RESULT:    -8.845      0.000      0.000
REMARK INTER + INTRA:         -12.701
REMARK INTER:                 -11.689
REMARK INTRA:                  -1.013
REMARK UNBOUND:                -1.013
REMARK SMILES CN(C)c1cccc(Nc2nc(N)n(C(=O)c3c(F)cccc3F)n2)c1
REMARK SMILES IDX 10 1 11 2 12 3 14 4 25 5 9 6 8 8 4 9 5 10 26 11 6 12 7 13
REMARK SMILES IDX 2 14 1 15 3 16 13 17 15 20 16 21 17 22 18 23 23 24 20 25
REMARK SMILES IDX 22 26 21 27 19 28 24 29
REMARK H PARENT 9 7 13 18 13 19
ROOT
ATOM      1  C   UNL     1       7.390 -24.106  22.514  1.00  0.00     0.248 A 
ATOM      2  N   UNL     1       8.677 -23.937  22.082  1.00  0.00    -0.175 NA
ATOM      3  C   UNL     1       8.634 -22.835  21.376  1.00  0.00     0.228 A 
ATOM      4  N   UNL     1       7.341 -22.338  21.388  1.00  0.00    -0.159 N 
ATOM      5  N   UNL     1       6.539 -23.162  22.107  1.00  0.00    -0.123 NA
ENDROOT
BRANCH   1   6
ATOM      6  N   UNL     1       7.165 -25.191  23.275  1.00  0.00    -0.323 N 
ATOM      7  H   UNL     1       7.716 -25.215  24.123  1.00  0.00     0.170 HD
BRANCH   6   8
ATOM      8  C   UNL     1       6.309 -26.300  23.127  1.00  0.00     0.043 A 
ATOM      9  C   UNL     1       4.143 -27.153  22.248  1.00  0.00     0.038 A 
ATOM     10  C   UNL     1       4.497 -28.409  22.762  1.00  0.00     0.026 A 
ATOM     11  C   UNL     1       5.080 -26.119  22.452  1.00  0.00     0.052 A 
ATOM     12  C   UNL     1       5.703 -28.620  23.435  1.00  0.00     0.004 A 
ATOM     13  C   UNL     1       6.601 -27.571  23.616  1.00  0.00     0.026 A 
BRANCH   9  14
ATOM     14  N   UNL     1       2.940 -26.942  21.577  1.00  0.00    -0.378 N 
ATOM     15  C   UNL     1       2.462 -25.596  21.289  1.00  0.00     0.143 C 
ATOM     16  C   UNL     1       2.117 -28.062  21.141  1.00  0.00     0.143 C 
ENDBRANCH   9  14
ENDBRANCH   6   8
ENDBRANCH   1   6
BRANCH   3  17
ATOM     17  N   UNL     1       9.659 -22.254  20.733  1.00  0.00    -0.368 N 
ATOM     18  H   UNL     1       9.547 -21.897  19.791  1.00  0.00     0.159 HD
ATOM     19  H   UNL     1      10.575 -22.136  21.168  1.00  0.00     0.159 HD
ENDBRANCH   3  17
BRANCH   4  20
ATOM     20  C   UNL     1       6.818 -21.198  20.767  1.00  0.00     0.287 C 
ATOM     21  O   UNL     1       7.449 -20.682  19.844  1.00  0.00    -0.266 OA
BRANCH  20  22
ATOM     22  C   UNL     1       5.549 -20.596  21.175  1.00  0.00     0.113 A 
ATOM     23  C   UNL     1       4.393 -20.858  20.453  1.00  0.00     0.139 A 
ATOM     24  C   UNL     1       5.498 -19.762  22.285  1.00  0.00     0.139 A 
ATOM     25  C   UNL     1       3.179 -20.292  20.839  1.00  0.00     0.040 A 
ATOM     26  C   UNL     1       4.291 -19.190  22.682  1.00  0.00     0.040 A 
ATOM     27  C   UNL     1       3.127 -19.456  21.956  1.00  0.00     0.006 A 
ATOM     28  F   UNL     1       4.420 -21.673  19.389  1.00  0.00    -0.206 F 
ATOM     29  F   UNL     1       6.610 -19.480  22.978  1.00  0.00    -0.206 F 
ENDBRANCH  20  22
ENDBRANCH   4  20
TORSDOF 6
ENDMDL
MODEL 2
REMARK VINA RESULT:    -8.834      0.018      1.761
REMARK INTER + INTRA:         -12.687
REMARK INTER:                 -11.669
REMARK INTRA:                  -1.018
REMARK UNBOUND:                -1.013
REMARK SMILES CN(C)c1cccc(Nc2nc(N)n(C(=O)c3c(F)cccc3F)n2)c1
REMARK SMILES IDX 10 1 11 2 12 3 14 4 25 5 9 6 8 8 4 9 5 10 26 11 6 12 7 13
REMARK SMILES IDX 2 14 1 15 3 16 13 17 15 20 16 21 17 22 18 23 23 24 20 25
REMARK SMILES IDX 22 26 21 27 19 28 24 29
REMARK H PARENT 9 7 13 18 13 19
ROOT
ATOM      1  C   UNL     1       7.388 -24.116  22.511  1.00  0.00     0.248 A 
ATOM      2  N   UNL     1       8.677 -23.944  22.084  1.00  0.00    -0.175 NA
ATOM      3  C   UNL     1       8.633 -22.842  21.378  1.00  0.00     0.228 A 
ATOM      4  N   UNL     1       7.339 -22.349  21.384  1.00  0.00    -0.159 N 
ATOM      5  N   UNL     1       6.536 -23.176  22.100  1.00  0.00    -0.123 NA
ENDROOT
BRANCH   1   6
ATOM      6  N   UNL     1       7.163 -25.203  23.271  1.00  0.00    -0.323 N 
ATOM      7  H   UNL     1       7.712 -25.225  24.121  1.00  0.00     0.170 HD
BRANCH   6   8
ATOM      8  C   UNL     1       6.310 -26.313  23.121  1.00  0.00     0.043 A 
ATOM      9  C   UNL     1       4.147 -27.169  22.238  1.00  0.00     0.038 A 
ATOM     10  C   UNL     1       4.502 -28.425  22.752  1.00  0.00     0.026 A 
ATOM     11  C   UNL     1       5.082 -26.134  22.444  1.00  0.00     0.052 A 
ATOM     12  C   UNL     1       5.708 -28.634  23.427  1.00  0.00     0.004 A 
ATOM     13  C   UNL     1       6.604 -27.584  23.610  1.00  0.00     0.026 A 
BRANCH   9  14
ATOM     14  N   UNL     1       2.945 -26.961  21.565  1.00  0.00    -0.378 N 
ATOM     15  C   UNL     1       2.112 -28.080  21.145  1.00  0.00     0.143 C 
ATOM     16  C   UNL     1       2.480 -25.616  21.256  1.00  0.00     0.143 C 
ENDBRANCH   9  14
ENDBRANCH   6   8
ENDBRANCH   1   6
BRANCH   3  17
ATOM     17  N   UNL     1       9.659 -22.259  20.739  1.00  0.00    -0.368 N 
ATOM     18  H   UNL     1      10.248 -22.789  20.107  1.00  0.00     0.159 HD
ATOM     19  H   UNL     1       9.873 -21.267  20.849  1.00  0.00     0.159 HD
ENDBRANCH   3  17
BRANCH   4  20
ATOM     20  C   UNL     1       6.815 -21.211  20.760  1.00  0.00     0.287 C 
ATOM     21  O   UNL     1       7.441 -20.701  19.831  1.00  0.00    -0.266 OA
BRANCH  20  22
ATOM     22  C   UNL     1       5.550 -20.604  21.173  1.00  0.00     0.113 A 
ATOM     23  C   UNL     1       5.508 -19.773  22.284  1.00  0.00     0.139 A 
ATOM     24  C   UNL     1       4.388 -20.857  20.454  1.00  0.00     0.139 A 
ATOM     25  C   UNL     1       4.307 -19.187  22.679  1.00  0.00     0.040 A 
ATOM     26  C   UNL     1       3.181 -20.277  20.838  1.00  0.00     0.040 A 
ATOM     27  C   UNL     1       3.139 -19.439  21.955  1.00  0.00     0.006 A 
ATOM     28  F   UNL     1       6.622 -19.504  22.980  1.00  0.00    -0.206 F 
ATOM     29  F   UNL     1       4.408 -21.676  19.393  1.00  0.00    -0.206 F 
ENDBRANCH  20  22
ENDBRANCH   4  20
TORSDOF 6
ENDMDL
MODEL 3
REMARK VINA RESULT:    -8.755      1.332      1.640
REMARK INTER + INTRA:         -12.583
REMARK INTER:                 -11.480
REMARK INTRA:                  -1.103
REMARK UNBOUND:                -1.013
REMARK SMILES CN(C)c1cccc(Nc2nc(N)n(C(=O)c3c(F)cccc3F)n2)c1
REMARK SMILES IDX 10 1 11 2 12 3 14 4 25 5 9 6 8 8 4 9 5 10 26 11 6 12 7 13
REMARK SMILES IDX 2 14 1 15 3 16 13 17 15 20 16 21 17 22 18 23 23 24 20 25
REMARK SMILES IDX 22 26 21 27 19 28 24 29
REMARK H PARENT 9 7 13 18 13 19
ROOT
ATOM      1  C   UNL     1       6.799 -23.476  23.035  1.00  0.00     0.248 A 
ATOM      2  N   UNL     1       7.680 -23.373  21.993  1.00  0.00    -0.175 NA
ATOM      3  C   UNL     1       7.552 -22.134  21.589  1.00  0.00     0.228 A 
ATOM      4  N   UNL     1       6.613 -21.493  22.380  1.00  0.00    -0.159 N 
ATOM      5  N   UNL     1       6.119 -22.359  23.300  1.00  0.00    -0.123 NA
ENDROOT
BRANCH   1   6
ATOM      6  N   UNL     1       6.738 -24.678  23.633  1.00  0.00    -0.323 N 
ATOM      7  H   UNL     1       7.277 -24.735  24.488  1.00  0.00     0.170 HD
BRANCH   6   8
ATOM      8  C   UNL     1       6.066 -25.873  23.310  1.00  0.00     0.043 A 
ATOM      9  C   UNL     1       4.080 -26.917  22.235  1.00  0.00     0.038 A 
ATOM     10  C   UNL     1       4.610 -28.163  22.603  1.00  0.00     0.026 A 
ATOM     11  C   UNL     1       4.842 -25.791  22.608  1.00  0.00     0.052 A 
ATOM     12  C   UNL     1       5.817 -28.278  23.298  1.00  0.00     0.004 A 
ATOM     13  C   UNL     1       6.538 -27.139  23.648  1.00  0.00     0.026 A 
BRANCH   9  14
ATOM     14  N   UNL     1       2.877 -26.803  21.542  1.00  0.00    -0.378 N 
ATOM     15  C   UNL     1       2.131 -27.983  21.126  1.00  0.00     0.143 C 
ATOM     16  C   UNL     1       2.323 -25.498  21.209  1.00  0.00     0.143 C 
ENDBRANCH   9  14
ENDBRANCH   6   8
ENDBRANCH   1   6
BRANCH   3  17
ATOM     17  N   UNL     1       8.209 -21.549  20.575  1.00  0.00    -0.368 N 
ATOM     18  H   UNL     1       7.707 -21.157  19.786  1.00  0.00     0.159 HD
ATOM     19  H   UNL     1       9.226 -21.462  20.567  1.00  0.00     0.159 HD
ENDBRANCH   3  17
BRANCH   4  20
ATOM     20  C   UNL     1       6.142 -20.176  22.316  1.00  0.00     0.287 C 
ATOM     21  O   UNL     1       6.818 -19.278  22.818  1.00  0.00    -0.266 OA
BRANCH  20  22
ATOM     22  C   UNL     1       4.875 -19.828  21.675  1.00  0.00     0.113 A 
ATOM     23  C   UNL     1       4.817 -19.661  20.298  1.00  0.00     0.139 A 
ATOM     24  C   UNL     1       3.728 -19.663  22.441  1.00  0.00     0.139 A 
ATOM     25  C   UNL     1       3.611 -19.334  19.679  1.00  0.00     0.040 A 
ATOM     26  C   UNL     1       2.516 -19.337  21.835  1.00  0.00     0.040 A 
ATOM     27  C   UNL     1       2.457 -19.171  20.449  1.00  0.00     0.006 A 
ATOM     28  F   UNL     1       5.910 -19.832  19.541  1.00  0.00    -0.206 F 
ATOM     29  F   UNL     1       3.773 -19.797  23.774  1.00  0.00    -0.206 F 
ENDBRANCH  20  22
ENDBRANCH   4  20
TORSDOF 6
ENDMDL
MODEL 4
REMARK VINA RESULT:    -8.500      2.526      3.936
REMARK INTER + INTRA:         -12.245
REMARK INTER:                 -11.237
REMARK INTRA:                  -1.008
REMARK UNBOUND:                -1.013
REMARK SMILES CN(C)c1cccc(Nc2nc(N)n(C(=O)c3c(F)cccc3F)n2)c1
REMARK SMILES IDX 10 1 11 2 12 3 14 4 25 5 9 6 8 8 4 9 5 10 26 11 6 12 7 13
REMARK SMILES IDX 2 14 1 15 3 16 13 17 15 20 16 21 17 22 18 23 23 24 20 25
REMARK SMILES IDX 22 26 21 27 19 28 24 29
REMARK H PARENT 9 7 13 18 13 19
ROOT
ATOM      1  C   UNL     1       4.255 -22.736  20.124  1.00  0.00     0.248 A 
ATOM      2  N   UNL     1       5.500 -22.633  19.566  1.00  0.00    -0.175 NA
ATOM      3  C   UNL     1       5.788 -21.359  19.664  1.00  0.00     0.228 A 
ATOM      4  N   UNL     1       4.737 -20.701  20.280  1.00  0.00    -0.159 N 
ATOM      5  N   UNL     1       3.745 -21.583  20.563  1.00  0.00    -0.123 NA
ENDROOT
BRANCH   1   6
ATOM      6  N   UNL     1       3.722 -23.970  20.144  1.00  0.00    -0.323 N 
ATOM      7  H   UNL     1       3.073 -24.145  19.389  1.00  0.00     0.170 HD
BRANCH   6   8
ATOM      8  C   UNL     1       3.896 -25.071  21.007  1.00  0.00     0.043 A 
ATOM      9  C   UNL     1       5.356 -26.193  22.680  1.00  0.00     0.038 A 
ATOM     10  C   UNL     1       4.386 -27.203  22.761  1.00  0.00     0.026 A 
ATOM     11  C   UNL     1       5.072 -25.139  21.786  1.00  0.00     0.052 A 
ATOM     12  C   UNL     1       3.213 -27.165  22.002  1.00  0.00     0.004 A 
ATOM     13  C   UNL     1       2.972 -26.106  21.131  1.00  0.00     0.026 A 
BRANCH   9  14
ATOM     14  N   UNL     1       6.525 -26.230  23.436  1.00  0.00    -0.378 N 
ATOM     15  C   UNL     1       7.305 -25.023  23.680  1.00  0.00     0.143 C 
ATOM     16  C   UNL     1       7.010 -27.478  24.008  1.00  0.00     0.143 C 
ENDBRANCH   9  14
ENDBRANCH   6   8
ENDBRANCH   1   6
BRANCH   3  17
ATOM     17  N   UNL     1       6.912 -20.757  19.244  1.00  0.00    -0.368 N 
ATOM     18  H   UNL     1       7.113 -20.660  18.255  1.00  0.00     0.159 HD
ATOM     19  H   UNL     1       7.592 -20.364  19.896  1.00  0.00     0.159 HD
ENDBRANCH   3  17
BRANCH   4  20
ATOM     20  C   UNL     1       4.590 -19.343  20.585  1.00  0.00     0.287 C 
ATOM     21  O   UNL     1       5.426 -18.804  21.311  1.00  0.00    -0.266 OA
BRANCH  20  22
ATOM     22  C   UNL     1       3.480 -18.540  20.073  1.00  0.00     0.113 A 
ATOM     23  C   UNL     1       2.455 -18.149  20.923  1.00  0.00     0.139 A 
ATOM     24  C   UNL     1       3.450 -18.167  18.735  1.00  0.00     0.139 A 
ATOM     25  C   UNL     1       1.398 -17.380  20.442  1.00  0.00     0.040 A 
ATOM     26  C   UNL     1       2.398 -17.397  18.241  1.00  0.00     0.040 A 
ATOM     27  C   UNL     1       1.368 -17.002  19.098  1.00  0.00     0.006 A 
ATOM     28  F   UNL     1       2.477 -18.486  22.221  1.00  0.00    -0.206 F 
ATOM     29  F   UNL     1       4.420 -18.557  17.896  1.00  0.00    -0.206 F 
ENDBRANCH  20  22
ENDBRANCH   4  20
TORSDOF 6
ENDMDL
MODEL 5
REMARK VINA RESULT:    -8.332      2.649      3.708
REMARK INTER + INTRA:         -12.024
REMARK INTER:                 -11.031
REMARK INTRA:                  -0.993
REMARK UNBOUND:                -1.013
REMARK SMILES CN(C)c1cccc(Nc2nc(N)n(C(=O)c3c(F)cccc3F)n2)c1
REMARK SMILES IDX 10 1 11 2 12 3 14 4 25 5 9 6 8 8 4 9 5 10 26 11 6 12 7 13
REMARK SMILES IDX 2 14 1 15 3 16 13 17 15 20 16 21 17 22 18 23 23 24 20 25
REMARK SMILES IDX 22 26 21 27 19 28 24 29
REMARK H PARENT 9 7 13 18 13 19
ROOT
ATOM      1  C   UNL     1       4.489 -22.243  20.327  1.00  0.00     0.248 A 
ATOM      2  N   UNL     1       5.723 -22.193  19.737  1.00  0.00    -0.175 NA
ATOM      3  C   UNL     1       5.975 -20.912  19.636  1.00  0.00     0.228 A 
ATOM      4  N   UNL     1       4.914 -20.196  20.166  1.00  0.00    -0.159 N 
ATOM      5  N   UNL     1       3.953 -21.051  20.596  1.00  0.00    -0.123 NA
ENDROOT
BRANCH   1   6
ATOM      6  N   UNL     1       3.992 -23.473  20.544  1.00  0.00    -0.323 N 
ATOM      7  H   UNL     1       3.172 -23.684  19.991  1.00  0.00     0.170 HD
BRANCH   6   8
ATOM      8  C   UNL     1       4.394 -24.531  21.383  1.00  0.00     0.043 A 
ATOM      9  C   UNL     1       4.086 -26.918  22.014  1.00  0.00     0.038 A 
ATOM     10  C   UNL     1       5.080 -26.727  22.986  1.00  0.00     0.026 A 
ATOM     11  C   UNL     1       3.770 -25.789  21.230  1.00  0.00     0.052 A 
ATOM     12  C   UNL     1       5.714 -25.495  23.164  1.00  0.00     0.004 A 
ATOM     13  C   UNL     1       5.372 -24.406  22.367  1.00  0.00     0.026 A 
BRANCH   9  14
ATOM     14  N   UNL     1       3.453 -28.146  21.837  1.00  0.00    -0.378 N 
ATOM     15  C   UNL     1       4.072 -29.386  22.289  1.00  0.00     0.143 C 
ATOM     16  C   UNL     1       2.150 -28.234  21.191  1.00  0.00     0.143 C 
ENDBRANCH   9  14
ENDBRANCH   6   8
ENDBRANCH   1   6
BRANCH   3  17
ATOM     17  N   UNL     1       7.076 -20.351  19.110  1.00  0.00    -0.368 N 
ATOM     18  H   UNL     1       7.130 -19.349  18.964  1.00  0.00     0.159 HD
ATOM     19  H   UNL     1       7.896 -20.902  18.855  1.00  0.00     0.159 HD
ENDBRANCH   3  17
BRANCH   4  20
ATOM     20  C   UNL     1       4.733 -18.812  20.265  1.00  0.00     0.287 C 
ATOM     21  O   UNL     1       5.648 -18.124  20.718  1.00  0.00    -0.266 OA
BRANCH  20  22
ATOM     22  C   UNL     1       3.496 -18.151  19.849  1.00  0.00     0.113 A 
ATOM     23  C   UNL     1       2.582 -17.726  20.802  1.00  0.00     0.139 A 
ATOM     24  C   UNL     1       3.234 -17.949  18.499  1.00  0.00     0.139 A 
ATOM     25  C   UNL     1       1.404 -17.091  20.413  1.00  0.00     0.040 A 
ATOM     26  C   UNL     1       2.060 -17.316  18.097  1.00  0.00     0.040 A 
ATOM     27  C   UNL     1       1.141 -16.885  19.057  1.00  0.00     0.006 A 
ATOM     28  F   UNL     1       2.826 -17.897  22.109  1.00  0.00    -0.206 F 
ATOM     29  F   UNL     1       4.095 -18.376  17.566  1.00  0.00    -0.206 F 
ENDBRANCH  20  22
ENDBRANCH   4  20
TORSDOF 6
ENDMDL
MODEL 6
REMARK VINA RESULT:    -8.251      2.856      7.167
REMARK INTER + INTRA:         -11.917
REMARK INTER:                 -10.978
REMARK INTRA:                  -0.939
REMARK UNBOUND:                -1.013
REMARK SMILES CN(C)c1cccc(Nc2nc(N)n(C(=O)c3c(F)cccc3F)n2)c1
REMARK SMILES IDX 10 1 11 2 12 3 14 4 25 5 9 6 8 8 4 9 5 10 26 11 6 12 7 13
REMARK SMILES IDX 2 14 1 15 3 16 13 17 15 20 16 21 17 22 18 23 23 24 20 25
REMARK SMILES IDX 22 26 21 27 19 28 24 29
REMARK H PARENT 9 7 13 18 13 19
ROOT
ATOM      1  C   UNL     1       6.715 -22.457  20.573  1.00  0.00     0.248 A 
ATOM      2  N   UNL     1       7.997 -22.919  20.696  1.00  0.00    -0.175 NA
ATOM      3  C   UNL     1       7.937 -23.761  21.697  1.00  0.00     0.228 A 
ATOM      4  N   UNL     1       6.635 -23.816  22.167  1.00  0.00    -0.159 N 
ATOM      5  N   UNL     1       5.853 -22.967  21.455  1.00  0.00    -0.123 NA
ENDROOT
BRANCH   1   6
ATOM      6  N   UNL     1       6.508 -21.557  19.595  1.00  0.00    -0.323 N 
ATOM      7  H   UNL     1       6.661 -21.925  18.665  1.00  0.00     0.170 HD
BRANCH   6   8
ATOM      8  C   UNL     1       6.113 -20.205  19.610  1.00  0.00     0.043 A 
ATOM      9  C   UNL     1       4.232 -18.589  19.815  1.00  0.00     0.038 A 
ATOM     10  C   UNL     1       5.174 -17.563  19.652  1.00  0.00     0.026 A 
ATOM     11  C   UNL     1       4.744 -19.903  19.788  1.00  0.00     0.052 A 
ATOM     12  C   UNL     1       6.535 -17.829  19.473  1.00  0.00     0.004 A 
ATOM     13  C   UNL     1       6.998 -19.141  19.451  1.00  0.00     0.026 A 
BRANCH   9  14
ATOM     14  N   UNL     1       2.876 -18.325  19.994  1.00  0.00    -0.378 N 
ATOM     15  C   UNL     1       2.220 -18.577  21.270  1.00  0.00     0.143 C 
ATOM     16  C   UNL     1       2.066 -17.787  18.909  1.00  0.00     0.143 C 
ENDBRANCH   9  14
ENDBRANCH   6   8
ENDBRANCH   1   6
BRANCH   3  17
ATOM     17  N   UNL     1       8.954 -24.473  22.208  1.00  0.00    -0.368 N 
ATOM     18  H   UNL     1       9.009 -24.662  23.202  1.00  0.00     0.159 HD
ATOM     19  H   UNL     1       9.693 -24.861  21.620  1.00  0.00     0.159 HD
ENDBRANCH   3  17
BRANCH   4  20
ATOM     20  C   UNL     1       6.099 -24.562  23.223  1.00  0.00     0.287 C 
ATOM     21  O   UNL     1       5.930 -24.014  24.312  1.00  0.00    -0.266 OA
BRANCH  20  22
ATOM     22  C   UNL     1       5.732 -25.971  23.080  1.00  0.00     0.113 A 
ATOM     23  C   UNL     1       6.540 -26.958  23.625  1.00  0.00     0.139 A 
ATOM     24  C   UNL     1       4.574 -26.322  22.397  1.00  0.00     0.139 A 
ATOM     25  C   UNL     1       6.193 -28.302  23.497  1.00  0.00     0.040 A 
ATOM     26  C   UNL     1       4.215 -27.662  22.262  1.00  0.00     0.040 A 
ATOM     27  C   UNL     1       5.027 -28.656  22.813  1.00  0.00     0.006 A 
ATOM     28  F   UNL     1       7.652 -26.637  24.301  1.00  0.00    -0.206 F 
ATOM     29  F   UNL     1       3.796 -25.382  21.844  1.00  0.00    -0.206 F 
ENDBRANCH  20  22
ENDBRANCH   4  20
TORSDOF 6
ENDMDL
MODEL 7
REMARK VINA RESULT:    -8.194      2.930      7.178
REMARK INTER + INTRA:         -11.841
REMARK INTER:                 -10.888
REMARK INTRA:                  -0.953
REMARK UNBOUND:                -1.013
REMARK SMILES CN(C)c1cccc(Nc2nc(N)n(C(=O)c3c(F)cccc3F)n2)c1
REMARK SMILES IDX 10 1 11 2 12 3 14 4 25 5 9 6 8 8 4 9 5 10 26 11 6 12 7 13
REMARK SMILES IDX 2 14 1 15 3 16 13 17 15 20 16 21 17 22 18 23 23 24 20 25
REMARK SMILES IDX 22 26 21 27 19 28 24 29
REMARK H PARENT 9 7 13 18 13 19
ROOT
ATOM      1  C   UNL     1       6.792 -22.436  20.606  1.00  0.00     0.248 A 
ATOM      2  N   UNL     1       8.059 -22.938  20.733  1.00  0.00    -0.175 NA
ATOM      3  C   UNL     1       7.964 -23.792  21.721  1.00  0.00     0.228 A 
ATOM      4  N   UNL     1       6.657 -23.815  22.179  1.00  0.00    -0.159 N 
ATOM      5  N   UNL     1       5.907 -22.934  21.472  1.00  0.00    -0.123 NA
ENDROOT
BRANCH   1   6
ATOM      6  N   UNL     1       6.620 -21.517  19.639  1.00  0.00    -0.323 N 
ATOM      7  H   UNL     1       6.583 -21.909  18.707  1.00  0.00     0.170 HD
BRANCH   6   8
ATOM      8  C   UNL     1       6.475 -20.116  19.669  1.00  0.00     0.043 A 
ATOM      9  C   UNL     1       4.904 -18.188  19.746  1.00  0.00     0.038 A 
ATOM     10  C   UNL     1       6.027 -17.348  19.724  1.00  0.00     0.026 A 
ATOM     11  C   UNL     1       5.172 -19.573  19.717  1.00  0.00     0.052 A 
ATOM     12  C   UNL     1       7.329 -17.854  19.674  1.00  0.00     0.004 A 
ATOM     13  C   UNL     1       7.549 -19.229  19.647  1.00  0.00     0.026 A 
BRANCH   9  14
ATOM     14  N   UNL     1       3.607 -17.684  19.795  1.00  0.00    -0.378 N 
ATOM     15  C   UNL     1       3.356 -16.266  20.017  1.00  0.00     0.143 C 
ATOM     16  C   UNL     1       2.454 -18.558  19.627  1.00  0.00     0.143 C 
ENDBRANCH   9  14
ENDBRANCH   6   8
ENDBRANCH   1   6
BRANCH   3  17
ATOM     17  N   UNL     1       8.955 -24.541  22.231  1.00  0.00    -0.368 N 
ATOM     18  H   UNL     1       9.193 -25.438  21.823  1.00  0.00     0.159 HD
ATOM     19  H   UNL     1       9.512 -24.232  23.028  1.00  0.00     0.159 HD
ENDBRANCH   3  17
BRANCH   4  20
ATOM     20  C   UNL     1       6.090 -24.561  23.219  1.00  0.00     0.287 C 
ATOM     21  O   UNL     1       5.916 -24.021  24.311  1.00  0.00    -0.266 OA
BRANCH  20  22
ATOM     22  C   UNL     1       5.694 -25.959  23.055  1.00  0.00     0.113 A 
ATOM     23  C   UNL     1       4.529 -26.276  22.371  1.00  0.00     0.139 A 
ATOM     24  C   UNL     1       6.484 -26.973  23.583  1.00  0.00     0.139 A 
ATOM     25  C   UNL     1       4.149 -27.607  22.206  1.00  0.00     0.040 A 
ATOM     26  C   UNL     1       6.116 -28.308  23.426  1.00  0.00     0.040 A 
ATOM     27  C   UNL     1       4.944 -28.626  22.735  1.00  0.00     0.006 A 
ATOM     28  F   UNL     1       3.764 -25.312  21.839  1.00  0.00    -0.206 F 
ATOM     29  F   UNL     1       7.599 -26.683  24.267  1.00  0.00    -0.206 F 
ENDBRANCH  20  22
ENDBRANCH   4  20
TORSDOF 6
ENDMDL
MODEL 8
REMARK VINA RESULT:    -8.170      2.737      6.860
REMARK INTER + INTRA:         -11.810
REMARK INTER:                 -10.950
REMARK INTRA:                  -0.860
REMARK UNBOUND:                -1.013
REMARK SMILES CN(C)c1cccc(Nc2nc(N)n(C(=O)c3c(F)cccc3F)n2)c1
REMARK SMILES IDX 10 1 11 2 12 3 14 4 25 5 9 6 8 8 4 9 5 10 26 11 6 12 7 13
REMARK SMILES IDX 2 14 1 15 3 16 13 17 15 20 16 21 17 22 18 23 23 24 20 25
REMARK SMILES IDX 22 26 21 27 19 28 24 29
REMARK H PARENT 9 7 13 18 13 19
ROOT
ATOM      1  C   UNL     1       7.045 -20.811  22.201  1.00  0.00     0.248 A 
ATOM      2  N   UNL     1       8.226 -20.649  21.528  1.00  0.00    -0.175 NA
ATOM      3  C   UNL     1       8.656 -21.872  21.343  1.00  0.00     0.228 A 
ATOM      4  N   UNL     1       7.745 -22.762  21.888  1.00  0.00    -0.159 N 
ATOM      5  N   UNL     1       6.717 -22.079  22.451  1.00  0.00    -0.123 NA
ENDROOT
BRANCH   1   6
ATOM      6  N   UNL     1       6.392 -19.679  22.518  1.00  0.00    -0.323 N 
ATOM      7  H   UNL     1       6.951 -19.021  23.047  1.00  0.00     0.170 HD
BRANCH   6   8
ATOM      8  C   UNL     1       5.085 -19.224  22.255  1.00  0.00     0.043 A 
ATOM      9  C   UNL     1       3.635 -17.754  20.867  1.00  0.00     0.038 A 
ATOM     10  C   UNL     1       2.545 -18.220  21.618  1.00  0.00     0.026 A 
ATOM     11  C   UNL     1       4.894 -18.283  21.218  1.00  0.00     0.052 A 
ATOM     12  C   UNL     1       2.701 -19.150  22.650  1.00  0.00     0.004 A 
ATOM     13  C   UNL     1       3.964 -19.646  22.965  1.00  0.00     0.026 A 
BRANCH   9  14
ATOM     14  N   UNL     1       3.479 -16.828  19.838  1.00  0.00    -0.378 N 
ATOM     15  C   UNL     1       2.886 -15.520  20.084  1.00  0.00     0.143 C 
ATOM     16  C   UNL     1       3.904 -17.136  18.479  1.00  0.00     0.143 C 
ENDBRANCH   9  14
ENDBRANCH   6   8
ENDBRANCH   1   6
BRANCH   3  17
ATOM     17  N   UNL     1       9.792 -22.238  20.729  1.00  0.00    -0.368 N 
ATOM     18  H   UNL     1       9.774 -22.647  19.801  1.00  0.00     0.159 HD
ATOM     19  H   UNL     1      10.708 -22.104  21.159  1.00  0.00     0.159 HD
ENDBRANCH   3  17
BRANCH   4  20
ATOM     20  C   UNL     1       7.785 -24.160  21.939  1.00  0.00     0.287 C 
ATOM     21  O   UNL     1       8.874 -24.727  21.845  1.00  0.00    -0.266 OA
BRANCH  20  22
ATOM     22  C   UNL     1       6.581 -24.973  22.102  1.00  0.00     0.113 A 
ATOM     23  C   UNL     1       6.460 -25.825  23.191  1.00  0.00     0.139 A 
ATOM     24  C   UNL     1       5.555 -24.895  21.168  1.00  0.00     0.139 A 
ATOM     25  C   UNL     1       5.313 -26.599  23.356  1.00  0.00     0.040 A 
ATOM     26  C   UNL     1       4.402 -25.663  21.321  1.00  0.00     0.040 A 
ATOM     27  C   UNL     1       4.280 -26.519  22.419  1.00  0.00     0.006 A 
ATOM     28  F   UNL     1       7.433 -25.902  24.112  1.00  0.00    -0.206 F 
ATOM     29  F   UNL     1       5.666 -24.095  20.099  1.00  0.00    -0.206 F 
ENDBRANCH  20  22
ENDBRANCH   4  20
TORSDOF 6
ENDMDL
MODEL 9
REMARK VINA RESULT:    -8.047      3.212      7.388
REMARK INTER + INTRA:         -11.647
REMARK INTER:                 -11.141
REMARK INTRA:                  -0.505
REMARK UNBOUND:                -1.013
REMARK SMILES CN(C)c1cccc(Nc2nc(N)n(C(=O)c3c(F)cccc3F)n2)c1
REMARK SMILES IDX 10 1 11 2 12 3 14 4 25 5 9 6 8 8 4 9 5 10 26 11 6 12 7 13
REMARK SMILES IDX 2 14 1 15 3 16 13 17 15 20 16 21 17 22 18 23 23 24 20 25
REMARK SMILES IDX 22 26 21 27 19 28 24 29
REMARK H PARENT 9 7 13 18 13 19
ROOT
ATOM      1  C   UNL     1       5.252 -21.944  20.430  1.00  0.00     0.248 A 
ATOM      2  N   UNL     1       6.515 -22.319  20.058  1.00  0.00    -0.175 NA
ATOM      3  C   UNL     1       6.869 -23.192  20.968  1.00  0.00     0.228 A 
ATOM      4  N   UNL     1       5.832 -23.351  21.872  1.00  0.00    -0.159 N 
ATOM      5  N   UNL     1       4.799 -22.538  21.535  1.00  0.00    -0.123 NA
ENDROOT
BRANCH   1   6
ATOM      6  N   UNL     1       4.655 -21.033  19.642  1.00  0.00    -0.323 N 
ATOM      7  H   UNL     1       4.877 -21.138  18.660  1.00  0.00     0.170 HD
BRANCH   6   8
ATOM      8  C   UNL     1       3.777 -19.965  19.912  1.00  0.00     0.043 A 
ATOM      9  C   UNL     1       2.840 -17.795  19.135  1.00  0.00     0.038 A 
ATOM     10  C   UNL     1       2.080 -17.769  20.314  1.00  0.00     0.026 A 
ATOM     11  C   UNL     1       3.681 -18.915  18.971  1.00  0.00     0.052 A 
ATOM     12  C   UNL     1       2.153 -18.791  21.265  1.00  0.00     0.004 A 
ATOM     13  C   UNL     1       2.997 -19.880  21.063  1.00  0.00     0.026 A 
BRANCH   9  14
ATOM     14  N   UNL     1       2.767 -16.777  18.188  1.00  0.00    -0.378 N 
ATOM     15  C   UNL     1       3.554 -15.558  18.327  1.00  0.00     0.143 C 
ATOM     16  C   UNL     1       1.899 -16.894  17.024  1.00  0.00     0.143 C 
ENDBRANCH   9  14
ENDBRANCH   6   8
ENDBRANCH   1   6
BRANCH   3  17
ATOM     17  N   UNL     1       8.039 -23.845  21.039  1.00  0.00    -0.368 N 
ATOM     18  H   UNL     1       8.137 -24.676  21.611  1.00  0.00     0.159 HD
ATOM     19  H   UNL     1       8.861 -23.543  20.515  1.00  0.00     0.159 HD
ENDBRANCH   3  17
BRANCH   4  20
ATOM     20  C   UNL     1       5.758 -24.163  23.010  1.00  0.00     0.287 C 
ATOM     21  O   UNL     1       5.868 -23.643  24.120  1.00  0.00    -0.266 OA
BRANCH  20  22
ATOM     22  C   UNL     1       5.554 -25.609  22.928  1.00  0.00     0.113 A 
ATOM     23  C   UNL     1       4.402 -26.116  22.344  1.00  0.00     0.139 A 
ATOM     24  C   UNL     1       6.514 -26.478  23.434  1.00  0.00     0.139 A 
ATOM     25  C   UNL     1       4.204 -27.493  22.258  1.00  0.00     0.040 A 
ATOM     26  C   UNL     1       6.328 -27.857  23.354  1.00  0.00     0.040 A 
ATOM     27  C   UNL     1       5.169 -28.367  22.764  1.00  0.00     0.006 A 
ATOM     28  F   UNL     1       3.473 -25.293  21.835  1.00  0.00    -0.206 F 
ATOM     29  F   UNL     1       7.620 -26.004  24.022  1.00  0.00    -0.206 F 
ENDBRANCH  20  22
ENDBRANCH   4  20
TORSDOF 6
ENDMDL
