MODEL 2
REMARK minimizedAffinity -6.74701357
REMARK CNNscore 0.71674633
REMARK CNNaffinity 7.46221733
REMARK SMILES COc1cc2ncnc(Nc3cccc(Br)c3)c2cc1OCCCO[P@](N)(=O)N(CCCl)CCCl
REMARK SMILES IDX 23 1 22 2 21 3 20 4 3 5 4 6 5 7 19 8 6 9 18 10 7 11 9 12
REMARK SMILES IDX 8 13 2 14 1 15 10 16 11 18 12 19 17 20 13 21 15 22 14 23
REMARK SMILES IDX 16 24 24 25 25 26 26 27 28 28 27 29 29 32 30 33 31 34 32 35
REMARK SMILES IDX 33 36 34 37 35 38
REMARK H PARENT 10 17 27 30 27 31
ROOT
ATOM      1  C   UNL     1      15.125   6.404  25.205  1.00  0.00     0.070 C 
ENDROOT
BRANCH   1   2
ATOM      2  C   UNL     1      15.211   4.883  25.244  1.00  0.00     0.232 C 
BRANCH   2   3
ATOM      3  O   UNL     1      16.586   4.520  25.447  1.00  0.00    -0.490 OA
BRANCH   3   4
ATOM      4  C   UNL     1      16.688   3.210  25.846  1.00  0.00     0.162 A 
ATOM      5  C   UNL     1      17.706   2.375  25.380  1.00  0.00     0.162 A 
ATOM      6  C   UNL     1      17.736   1.051  25.825  1.00  0.00     0.079 A 
ATOM      7  C   UNL     1      16.767   0.537  26.684  1.00  0.00     0.080 A 
ATOM      8  C   UNL     1      15.693   2.716  26.684  1.00  0.00     0.064 A 
ATOM      9  N   UNL     1      16.864  -0.743  27.047  1.00  0.00    -0.236 NA
ATOM     10  C   UNL     1      15.732   1.374  27.124  1.00  0.00     0.047 A 
ATOM     11  C   UNL     1      15.904  -1.213  27.849  1.00  0.00     0.224 A 
ATOM     12  C   UNL     1      14.786   0.777  27.982  1.00  0.00     0.141 A 
ATOM     13  N   UNL     1      14.870  -0.520  28.334  1.00  0.00    -0.219 NA
BRANCH   5  14
ATOM     14  O   UNL     1      18.611   2.929  24.513  1.00  0.00    -0.493 OA
ATOM     15  C   UNL     1      18.218   3.020  23.148  1.00  0.00     0.278 C 
ENDBRANCH   5  14
BRANCH  12  16
ATOM     16  N   UNL     1      13.719   1.568  28.487  1.00  0.00    -0.340 N 
ATOM     17  H   UNL     1      13.869   2.536  28.225  1.00  0.00     0.168 HD
BRANCH  16  18
ATOM     18  C   UNL     1      13.053   1.461  29.728  1.00  0.00     0.041 A 
ATOM     19  C   UNL     1      13.721   1.869  30.895  1.00  0.00     0.026 A 
ATOM     20  C   UNL     1      11.708   1.086  29.838  1.00  0.00     0.041 A 
ATOM     21  C   UNL     1      13.085   1.845  32.140  1.00  0.00     0.003 A 
ATOM     22  C   UNL     1      11.075   1.060  31.083  1.00  0.00     0.020 A 
ATOM     23  C   UNL     1      11.760   1.433  32.236  1.00  0.00     0.016 A 
ATOM     24  Br  UNL     1       9.265   0.527  31.203  1.00  0.00    -0.051 Br
ENDBRANCH  16  18
ENDBRANCH  12  16
ENDBRANCH   3   4
ENDBRANCH   2   3
ENDBRANCH   1   2
BRANCH   1  25
ATOM     25  C   UNL     1      13.719   6.906  25.502  1.00  0.00     0.175 C 
BRANCH  25  26
ATOM     26  O   UNL     1      13.328   7.858  24.528  1.00  0.00    -0.306 OA
BRANCH  26  27
ATOM     27  P   UNL     1      12.150   7.546  23.475  1.00  0.00     0.340 P 
ATOM     28  O   UNL     1      11.704   6.123  23.605  1.00  0.00    -0.256 OA
BRANCH  27  29
ATOM     29  N   UNL     1      10.965   8.601  23.846  1.00  0.00    -0.246 NA
ATOM     30  H   UNL     1      10.364   8.206  24.562  1.00  0.00     0.130 HD
ATOM     31  H   UNL     1      11.280   9.490  24.204  1.00  0.00     0.130 HD
ENDBRANCH  27  29
BRANCH  27  32
ATOM     32  N   UNL     1      12.745   7.940  21.986  1.00  0.00    -0.217 NA
BRANCH  32  33
ATOM     33  C   UNL     1      12.286   9.227  21.408  1.00  0.00     0.111 C 
BRANCH  33  34
ATOM     34  C   UNL     1      13.319  10.334  21.629  1.00  0.00     0.125 C 
ATOM     35  Cl  UNL     1      12.662  11.595  22.700  1.00  0.00    -0.125 Cl
ENDBRANCH  33  34
ENDBRANCH  32  33
BRANCH  32  36
ATOM     36  C   UNL     1      12.591   6.892  20.945  1.00  0.00     0.111 C 
BRANCH  36  37
ATOM     37  C   UNL     1      12.754   7.393  19.505  1.00  0.00     0.125 C 
ATOM     38  Cl  UNL     1      12.220   6.143  18.349  1.00  0.00    -0.125 Cl
ENDBRANCH  36  37
ENDBRANCH  32  36
ENDBRANCH  27  32
ENDBRANCH  26  27
ENDBRANCH  25  26
ENDBRANCH   1  25
TORSDOF 15
ENDMDL
