REMARK VINA RESULT:   -10.233      2.552      3.473
REMARK INTER + INTRA:         -17.319
REMARK INTER:                 -15.868
REMARK INTRA:                  -1.451
REMARK UNBOUND:                -1.701
REMARK SMILES Cc1c(C(=O)NCCN2CCOCC2)[nH]c2cnnc(Nc3ccc(OCc4cccc(F)c4)c(Cl)c3)c12
REMARK SMILES IDX 21 1 20 3 2 4 3 5 38 6 15 7 16 8 19 9 17 10 18 11 1 12 4 14
REMARK SMILES IDX 5 15 6 16 7 18 8 19 9 20 10 21 14 22 11 23 13 24 12 25 22 26
REMARK SMILES IDX 23 27 37 28 24 29 35 30 25 31 36 32 26 33 27 34 28 35 29 36
REMARK SMILES IDX 34 37 30 38 32 39 31 40 33 41
REMARK H PARENT 21 2 15 13 6 17
ROOT
ATOM      1  N   UNL     1      18.237  33.307  13.396  1.00  0.00    -0.338 N 
ATOM      2  H   UNL     1      18.348  32.398  13.811  1.00  0.00     0.168 HD
ENDROOT
BRANCH   1   3
ATOM      3  C   UNL     1      18.382  34.368  14.305  1.00  0.00     0.162 A 
ATOM      4  C   UNL     1      20.943  34.990  13.908  1.00  0.00    -0.009 A 
ATOM      5  C   UNL     1      21.759  35.881  14.603  1.00  0.00     0.108 A 
ATOM      6  C   UNL     1      19.614  35.062  14.495  1.00  0.00     0.049 A 
ATOM      7  N   UNL     1      20.940  36.585  15.454  1.00  0.00    -0.349 N 
ATOM      8  C   UNL     1      19.665  36.085  15.445  1.00  0.00     0.071 A 
ATOM      9  N   UNL     1      17.335  34.794  15.064  1.00  0.00    -0.132 NA
ATOM     10  C   UNL     1      18.570  36.469  16.196  1.00  0.00     0.162 A 
ATOM     11  N   UNL     1      17.419  35.820  15.992  1.00  0.00    -0.155 NA
ATOM     12  C   UNL     1      21.352  34.135  12.756  1.00  0.00     0.048 C 
ATOM     13  H   UNL     1      21.271  37.339  16.042  1.00  0.00     0.167 HD
BRANCH   5  14
ATOM     14  C   UNL     1      23.172  36.191  14.550  1.00  0.00     0.268 C 
ATOM     15  O   UNL     1      23.583  37.301  14.225  1.00  0.00    -0.268 OA
ATOM     16  N   UNL     1      24.009  35.188  14.970  1.00  0.00    -0.349 N 
ATOM     17  H   UNL     1      23.612  34.344  15.353  1.00  0.00     0.163 HD
BRANCH  16  18
ATOM     18  C   UNL     1      25.451  35.345  14.994  1.00  0.00     0.131 C 
BRANCH  18  19
ATOM     19  C   UNL     1      26.090  35.104  13.612  1.00  0.00     0.106 C 
BRANCH  19  20
ATOM     20  N   UNL     1      25.897  33.730  13.112  1.00  0.00    -0.297 NA
ATOM     21  C   UNL     1      27.211  33.083  12.895  1.00  0.00     0.113 C 
ATOM     22  C   UNL     1      25.151  33.710  11.833  1.00  0.00     0.113 C 
ATOM     23  C   UNL     1      27.054  31.670  12.310  1.00  0.00     0.175 C 
ATOM     24  C   UNL     1      25.043  32.285  11.268  1.00  0.00     0.175 C 
ATOM     25  O   UNL     1      26.338  31.702  11.070  1.00  0.00    -0.379 OA
ENDBRANCH  19  20
ENDBRANCH  18  19
ENDBRANCH  16  18
ENDBRANCH   5  14
ENDBRANCH   1   3
BRANCH   1  26
ATOM     26  C   UNL     1      17.923  33.280  12.025  1.00  0.00     0.041 A 
ATOM     27  C   UNL     1      18.511  32.282  11.227  1.00  0.00     0.030 A 
ATOM     28  C   UNL     1      17.088  34.213  11.395  1.00  0.00     0.050 A 
ATOM     29  C   UNL     1      18.266  32.207   9.854  1.00  0.00     0.050 A 
ATOM     30  C   UNL     1      16.836  34.144  10.021  1.00  0.00     0.085 A 
ATOM     31  C   UNL     1      17.442  33.152   9.250  1.00  0.00     0.138 A 
ATOM     32  Cl  UNL     1      15.759  35.295   9.315  1.00  0.00    -0.080 Cl
BRANCH  31  33
ATOM     33  O   UNL     1      17.194  33.032   7.908  1.00  0.00    -0.487 OA
BRANCH  33  34
ATOM     34  C   UNL     1      15.923  32.403   7.691  1.00  0.00     0.265 C 
BRANCH  34  35
ATOM     35  C   UNL     1      16.128  30.994   7.185  1.00  0.00    -0.008 A 
ATOM     36  C   UNL     1      17.414  30.504   6.900  1.00  0.00     0.007 A 
ATOM     37  C   UNL     1      15.036  30.125   7.057  1.00  0.00     0.046 A 
ATOM     38  C   UNL     1      17.601  29.186   6.472  1.00  0.00     0.003 A 
ATOM     39  C   UNL     1      15.233  28.814   6.631  1.00  0.00     0.123 A 
ATOM     40  C   UNL     1      16.504  28.337   6.338  1.00  0.00     0.039 A 
ATOM     41  F   UNL     1      14.178  27.995   6.517  1.00  0.00    -0.207 F 
ENDBRANCH  34  35
ENDBRANCH  33  34
ENDBRANCH  31  33
ENDBRANCH   1  26
TORSDOF 9
