MODEL 1
REMARK minimizedAffinity -9.02932358
REMARK CNNscore 0.507196367
REMARK CNNaffinity 6.93087387
REMARK SMILES N=C(N)c1cccc(-n2nnnc2C(=O)Nc2ccc(-c3ccccc3S(N)(=O)=O)cc2)c1
REMARK SMILES IDX 17 1 18 2 19 3 20 4 31 5 32 6 16 7 14 8 15 9 13 11 9 12
REMARK SMILES IDX 10 13 11 14 12 15 8 16 4 17 5 18 33 19 6 20 7 21 2 22 1 23
REMARK SMILES IDX 3 24 21 28 22 29 26 30 23 31 25 32 24 33 27 34 29 35 30 36
REMARK SMILES IDX 28 37
REMARK H PARENT 16 10 1 25 3 26 3 27 28 38 28 39
ROOT
ATOM      1  C   UNL     1     130.656 -15.365 163.173  1.00  0.00     0.041 A 
ATOM      2  C   UNL     1     132.041 -15.435 163.028  1.00  0.00     0.027 A 
ATOM      3  C   UNL     1     132.848 -15.841 164.099  1.00  0.00     0.011 A 
ATOM      4  C   UNL     1     132.290 -16.175 165.338  1.00  0.00    -0.017 A 
ATOM      5  C   UNL     1     130.897 -16.113 165.475  1.00  0.00     0.011 A 
ATOM      6  C   UNL     1     130.090 -15.707 164.406  1.00  0.00     0.027 A 
ENDROOT
BRANCH   1   7
ATOM      7  N   UNL     1     129.773 -14.960 162.155  1.00  0.00    -0.319 N 
ATOM      8  C   UNL     1     128.900 -15.737 161.406  1.00  0.00     0.295 C 
ATOM      9  O   UNL     1     128.728 -16.940 161.567  1.00  0.00    -0.265 OA
ATOM     10  H   UNL     1     129.748 -13.966 161.941  1.00  0.00     0.170 HD
BRANCH   8  11
ATOM     11  C   UNL     1     128.185 -14.953 160.424  1.00  0.00     0.245 A 
ATOM     12  N   UNL     1     127.280 -13.919 160.597  1.00  0.00    -0.188 N 
ATOM     13  N   UNL     1     127.104 -13.330 159.384  1.00  0.00    -0.039 NA
ATOM     14  N   UNL     1     127.746 -14.081 158.505  1.00  0.00    -0.023 NA
ATOM     15  N   UNL     1     128.409 -15.096 159.125  1.00  0.00    -0.103 NA
BRANCH  12  16
ATOM     16  C   UNL     1     126.538 -13.461 161.718  1.00  0.00     0.070 A 
ATOM     17  C   UNL     1     125.279 -13.852 163.755  1.00  0.00     0.018 A 
ATOM     18  C   UNL     1     125.085 -12.478 163.916  1.00  0.00     0.012 A 
ATOM     19  C   UNL     1     125.989 -14.344 162.651  1.00  0.00     0.040 A 
ATOM     20  C   UNL     1     125.597 -11.594 162.968  1.00  0.00     0.003 A 
ATOM     21  C   UNL     1     126.314 -12.080 161.871  1.00  0.00     0.028 A 
BRANCH  17  22
ATOM     22  C   UNL     1     124.748 -14.808 164.762  1.00  0.00     0.122 C 
ATOM     23  N   UNL     1     123.788 -14.497 165.573  1.00  0.00    -0.284 NA
ATOM     24  N   UNL     1     125.273 -16.053 164.855  1.00  0.00    -0.384 N 
ATOM     25  H   UNL     1     123.441 -13.551 165.393  1.00  0.00     0.189 HD
ATOM     26  H   UNL     1     124.891 -16.668 165.562  1.00  0.00     0.158 HD
ATOM     27  H   UNL     1     126.087 -16.357 164.339  1.00  0.00     0.158 HD
ENDBRANCH  17  22
ENDBRANCH  12  16
ENDBRANCH   8  11
ENDBRANCH   1   7
BRANCH   4  28
ATOM     28  C   UNL     1     133.134 -16.621 166.455  1.00  0.00     0.002 A 
ATOM     29  C   UNL     1     133.530 -15.658 167.405  1.00  0.00     0.010 A 
ATOM     30  C   UNL     1     133.579 -17.946 166.642  1.00  0.00     0.090 A 
ATOM     31  C   UNL     1     134.335 -15.995 168.497  1.00  0.00     0.001 A 
ATOM     32  C   UNL     1     134.388 -18.282 167.743  1.00  0.00     0.022 A 
ATOM     33  C   UNL     1     134.763 -17.306 168.665  1.00  0.00     0.001 A 
BRANCH  30  34
ATOM     34  S   UNL     1     133.141 -19.253 165.525  1.00  0.00     0.238 S 
ATOM     35  O   UNL     1     133.624 -20.507 166.060  1.00  0.00    -0.207 OA
ATOM     36  O   UNL     1     131.770 -19.089 165.106  1.00  0.00    -0.207 OA
BRANCH  34  37
ATOM     37  N   UNL     1     134.109 -18.974 164.182  1.00  0.00    -0.225 NA
ATOM     38  H   UNL     1     133.520 -18.739 163.382  1.00  0.00     0.137 HD
ATOM     39  H   UNL     1     134.721 -19.776 164.032  1.00  0.00     0.137 HD
ENDBRANCH  34  37
ENDBRANCH  30  34
ENDBRANCH   4  28
TORSDOF 7
ENDMDL
MODEL 2
REMARK minimizedAffinity -7.98157072
REMARK CNNscore 0.498695225
REMARK CNNaffinity 6.80751801
REMARK SMILES N=C(N)c1cccc(-n2nnnc2C(=O)Nc2ccc(-c3ccccc3S(N)(=O)=O)cc2)c1
REMARK SMILES IDX 17 1 18 2 19 3 20 4 31 5 32 6 16 7 14 8 15 9 13 11 9 12
REMARK SMILES IDX 10 13 11 14 12 15 8 16 4 17 5 18 33 19 6 20 7 21 2 22 1 23
REMARK SMILES IDX 3 24 21 28 22 29 26 30 23 31 25 32 24 33 27 34 29 35 30 36
REMARK SMILES IDX 28 37
REMARK H PARENT 16 10 1 25 3 26 3 27 28 38 28 39
ROOT
ATOM      1  C   UNL     1     130.426 -17.314 164.764  1.00  0.00     0.041 A 
ATOM      2  C   UNL     1     130.867 -16.821 165.990  1.00  0.00     0.027 A 
ATOM      3  C   UNL     1     132.231 -16.824 166.309  1.00  0.00     0.011 A 
ATOM      4  C   UNL     1     133.181 -17.328 165.414  1.00  0.00    -0.017 A 
ATOM      5  C   UNL     1     132.733 -17.812 164.178  1.00  0.00     0.011 A 
ATOM      6  C   UNL     1     131.371 -17.810 163.859  1.00  0.00     0.027 A 
ENDROOT
BRANCH   1   7
ATOM      7  N   UNL     1     129.076 -17.357 164.365  1.00  0.00    -0.319 N 
ATOM      8  C   UNL     1     128.457 -16.669 163.331  1.00  0.00     0.295 C 
ATOM      9  O   UNL     1     129.035 -15.928 162.544  1.00  0.00    -0.265 OA
ATOM     10  H   UNL     1     128.467 -17.983 164.886  1.00  0.00     0.170 HD
BRANCH   8  11
ATOM     11  C   UNL     1     127.041 -16.953 163.265  1.00  0.00     0.245 A 
ATOM     12  N   UNL     1     125.960 -16.089 163.204  1.00  0.00    -0.188 N 
ATOM     13  N   UNL     1     124.868 -16.831 162.877  1.00  0.00    -0.039 NA
ATOM     14  N   UNL     1     125.251 -18.096 162.905  1.00  0.00    -0.023 NA
ATOM     15  N   UNL     1     126.586 -18.195 163.157  1.00  0.00    -0.103 NA
BRANCH  12  16
ATOM     16  C   UNL     1     125.818 -14.700 163.459  1.00  0.00     0.070 A 
ATOM     17  C   UNL     1     125.168 -12.841 164.877  1.00  0.00     0.018 A 
ATOM     18  C   UNL     1     125.572 -11.932 163.896  1.00  0.00     0.012 A 
ATOM     19  C   UNL     1     125.275 -14.221 164.655  1.00  0.00     0.040 A 
ATOM     20  C   UNL     1     126.078 -12.404 162.687  1.00  0.00     0.003 A 
ATOM     21  C   UNL     1     126.195 -13.779 162.464  1.00  0.00     0.028 A 
BRANCH  17  22
ATOM     22  C   UNL     1     124.636 -12.354 166.178  1.00  0.00     0.122 C 
ATOM     23  N   UNL     1     123.838 -13.065 166.908  1.00  0.00    -0.284 NA
ATOM     24  N   UNL     1     124.983 -11.127 166.634  1.00  0.00    -0.384 N 
ATOM     25  H   UNL     1     123.671 -13.984 166.491  1.00  0.00     0.189 HD
ATOM     26  H   UNL     1     124.589 -10.830 167.517  1.00  0.00     0.158 HD
ATOM     27  H   UNL     1     125.517 -10.459 166.094  1.00  0.00     0.158 HD
ENDBRANCH  17  22
ENDBRANCH  12  16
ENDBRANCH   8  11
ENDBRANCH   1   7
BRANCH   4  28
ATOM     28  C   UNL     1     134.613 -17.311 165.739  1.00  0.00     0.002 A 
ATOM     29  C   UNL     1     135.279 -16.069 165.714  1.00  0.00     0.010 A 
ATOM     30  C   UNL     1     135.371 -18.452 166.071  1.00  0.00     0.090 A 
ATOM     31  C   UNL     1     136.641 -15.962 166.007  1.00  0.00     0.001 A 
ATOM     32  C   UNL     1     136.742 -18.342 166.367  1.00  0.00     0.022 A 
ATOM     33  C   UNL     1     137.372 -17.099 166.334  1.00  0.00     0.001 A 
BRANCH  30  34
ATOM     34  S   UNL     1     134.650 -20.072 166.149  1.00  0.00     0.238 S 
ATOM     35  O   UNL     1     133.517 -20.037 167.047  1.00  0.00    -0.207 OA
ATOM     36  O   UNL     1     134.541 -20.615 164.817  1.00  0.00    -0.207 OA
BRANCH  34  37
ATOM     37  N   UNL     1     135.799 -20.983 166.966  1.00  0.00    -0.225 NA
ATOM     38  H   UNL     1     136.170 -21.700 166.341  1.00  0.00     0.137 HD
ATOM     39  H   UNL     1     135.394 -21.347 167.829  1.00  0.00     0.137 HD
ENDBRANCH  34  37
ENDBRANCH  30  34
ENDBRANCH   4  28
TORSDOF 7
ENDMDL
MODEL 3
REMARK minimizedAffinity -10.3583012
REMARK CNNscore 0.432472706
REMARK CNNaffinity 6.9924407
REMARK SMILES N=C(N)c1cccc(-n2nnnc2C(=O)Nc2ccc(-c3ccccc3S(N)(=O)=O)cc2)c1
REMARK SMILES IDX 17 1 18 2 19 3 20 4 31 5 32 6 16 7 14 8 15 9 13 11 9 12
REMARK SMILES IDX 10 13 11 14 12 15 8 16 4 17 5 18 33 19 6 20 7 21 2 22 1 23
REMARK SMILES IDX 3 24 21 28 22 29 26 30 23 31 25 32 24 33 27 34 29 35 30 36
REMARK SMILES IDX 28 37
REMARK H PARENT 16 10 1 25 3 26 3 27 28 38 28 39
ROOT
ATOM      1  C   UNL     1     130.288 -15.212 163.847  1.00  0.00     0.041 A 
ATOM      2  C   UNL     1     131.641 -15.148 163.518  1.00  0.00     0.027 A 
ATOM      3  C   UNL     1     132.598 -15.788 164.316  1.00  0.00     0.011 A 
ATOM      4  C   UNL     1     132.224 -16.496 165.464  1.00  0.00    -0.017 A 
ATOM      5  C   UNL     1     130.862 -16.566 165.784  1.00  0.00     0.011 A 
ATOM      6  C   UNL     1     129.906 -15.926 164.988  1.00  0.00     0.027 A 
ENDROOT
BRANCH   1   7
ATOM      7  N   UNL     1     129.262 -14.593 163.108  1.00  0.00    -0.319 N 
ATOM      8  C   UNL     1     128.219 -15.185 162.411  1.00  0.00     0.295 C 
ATOM      9  O   UNL     1     128.000 -16.391 162.379  1.00  0.00    -0.265 OA
ATOM     10  H   UNL     1     129.265 -13.576 163.088  1.00  0.00     0.170 HD
BRANCH   8  11
ATOM     11  C   UNL     1     127.390 -14.207 161.744  1.00  0.00     0.245 A 
ATOM     12  N   UNL     1     126.439 -13.343 162.261  1.00  0.00    -0.188 N 
ATOM     13  N   UNL     1     126.142 -12.440 161.288  1.00  0.00    -0.039 NA
ATOM     14  N   UNL     1     126.765 -12.847 160.195  1.00  0.00    -0.023 NA
ATOM     15  N   UNL     1     127.530 -13.944 160.451  1.00  0.00    -0.103 NA
BRANCH  12  16
ATOM     16  C   UNL     1     125.752 -13.293 163.503  1.00  0.00     0.070 A 
ATOM     17  C   UNL     1     125.081 -12.144 165.532  1.00  0.00     0.018 A 
ATOM     18  C   UNL     1     124.360 -13.266 165.947  1.00  0.00     0.012 A 
ATOM     19  C   UNL     1     125.789 -12.161 164.322  1.00  0.00     0.040 A 
ATOM     20  C   UNL     1     124.352 -14.412 165.153  1.00  0.00     0.003 A 
ATOM     21  C   UNL     1     125.048 -14.430 163.940  1.00  0.00     0.028 A 
BRANCH  17  22
ATOM     22  C   UNL     1     125.092 -10.910 166.362  1.00  0.00     0.122 C 
ATOM     23  N   UNL     1     126.163 -10.203 166.535  1.00  0.00    -0.284 NA
ATOM     24  N   UNL     1     123.956 -10.494 166.970  1.00  0.00    -0.384 N 
ATOM     25  H   UNL     1     126.950 -10.583 166.004  1.00  0.00     0.189 HD
ATOM     26  H   UNL     1     124.011  -9.656 167.535  1.00  0.00     0.158 HD
ATOM     27  H   UNL     1     123.098 -11.028 166.979  1.00  0.00     0.158 HD
ENDBRANCH  17  22
ENDBRANCH  12  16
ENDBRANCH   8  11
ENDBRANCH   1   7
BRANCH   4  28
ATOM     28  C   UNL     1     133.225 -17.185 166.289  1.00  0.00     0.002 A 
ATOM     29  C   UNL     1     133.652 -16.549 167.473  1.00  0.00     0.010 A 
ATOM     30  C   UNL     1     133.792 -18.438 165.981  1.00  0.00     0.090 A 
ATOM     31  C   UNL     1     134.603 -17.132 168.315  1.00  0.00     0.001 A 
ATOM     32  C   UNL     1     134.748 -19.023 166.831  1.00  0.00     0.022 A 
ATOM     33  C   UNL     1     135.150 -18.368 167.994  1.00  0.00     0.001 A 
BRANCH  30  34
ATOM     34  S   UNL     1     133.331 -19.347 164.528  1.00  0.00     0.238 S 
ATOM     35  O   UNL     1     133.394 -18.465 163.384  1.00  0.00    -0.207 OA
ATOM     36  O   UNL     1     133.995 -20.628 164.530  1.00  0.00    -0.207 OA
BRANCH  34  37
ATOM     37  N   UNL     1     131.691 -19.636 164.739  1.00  0.00    -0.225 NA
ATOM     38  H   UNL     1     131.533 -20.640 164.837  1.00  0.00     0.137 HD
ATOM     39  H   UNL     1     131.168 -19.200 163.979  1.00  0.00     0.137 HD
ENDBRANCH  34  37
ENDBRANCH  30  34
ENDBRANCH   4  28
TORSDOF 7
ENDMDL
MODEL 4
REMARK minimizedAffinity -8.3070364
REMARK CNNscore 0.392867804
REMARK CNNaffinity 6.49311209
REMARK SMILES N=C(N)c1cccc(-n2nnnc2C(=O)Nc2ccc(-c3ccccc3S(N)(=O)=O)cc2)c1
REMARK SMILES IDX 17 1 18 2 19 3 20 4 31 5 32 6 16 7 14 8 15 9 13 11 9 12
REMARK SMILES IDX 10 13 11 14 12 15 8 16 4 17 5 18 33 19 6 20 7 21 2 22 1 23
REMARK SMILES IDX 3 24 21 28 22 29 26 30 23 31 25 32 24 33 27 34 29 35 30 36
REMARK SMILES IDX 28 37
REMARK H PARENT 16 10 1 25 3 26 3 27 28 38 28 39
ROOT
ATOM      1  C   UNL     1     130.986 -17.932 165.056  1.00  0.00     0.041 A 
ATOM      2  C   UNL     1     131.280 -17.236 166.227  1.00  0.00     0.027 A 
ATOM      3  C   UNL     1     132.197 -17.754 167.151  1.00  0.00     0.011 A 
ATOM      4  C   UNL     1     132.832 -18.981 166.928  1.00  0.00    -0.017 A 
ATOM      5  C   UNL     1     132.541 -19.671 165.744  1.00  0.00     0.011 A 
ATOM      6  C   UNL     1     131.625 -19.155 164.821  1.00  0.00     0.027 A 
ENDROOT
BRANCH   1   7
ATOM      7  N   UNL     1     130.073 -17.491 164.080  1.00  0.00    -0.319 N 
ATOM      8  C   UNL     1     129.259 -16.367 164.102  1.00  0.00     0.295 C 
ATOM      9  O   UNL     1     129.256 -15.527 164.995  1.00  0.00    -0.265 OA
ATOM     10  H   UNL     1     130.002 -18.052 163.235  1.00  0.00     0.170 HD
BRANCH   8  11
ATOM     11  C   UNL     1     128.427 -16.279 162.923  1.00  0.00     0.245 A 
ATOM     12  N   UNL     1     127.559 -15.278 162.517  1.00  0.00    -0.188 N 
ATOM     13  N   UNL     1     127.231 -15.531 161.221  1.00  0.00    -0.039 NA
ATOM     14  N   UNL     1     127.748 -16.711 160.925  1.00  0.00    -0.023 NA
ATOM     15  N   UNL     1     128.479 -17.197 161.966  1.00  0.00    -0.103 NA
BRANCH  12  16
ATOM     16  C   UNL     1     126.973 -14.175 163.191  1.00  0.00     0.070 A 
ATOM     17  C   UNL     1     125.396 -13.227 164.773  1.00  0.00     0.018 A 
ATOM     18  C   UNL     1     125.864 -11.942 164.492  1.00  0.00     0.012 A 
ATOM     19  C   UNL     1     125.936 -14.340 164.114  1.00  0.00     0.040 A 
ATOM     20  C   UNL     1     126.870 -11.767 163.543  1.00  0.00     0.003 A 
ATOM     21  C   UNL     1     127.419 -12.875 162.891  1.00  0.00     0.028 A 
BRANCH  17  22
ATOM     22  C   UNL     1     124.330 -13.433 165.790  1.00  0.00     0.122 C 
ATOM     23  N   UNL     1     124.110 -12.583 166.742  1.00  0.00    -0.284 NA
ATOM     24  N   UNL     1     123.552 -14.540 165.739  1.00  0.00    -0.384 N 
ATOM     25  H   UNL     1     124.725 -11.770 166.664  1.00  0.00     0.189 HD
ATOM     26  H   UNL     1     122.847 -14.646 166.457  1.00  0.00     0.158 HD
ATOM     27  H   UNL     1     123.709 -15.306 165.099  1.00  0.00     0.158 HD
ENDBRANCH  17  22
ENDBRANCH  12  16
ENDBRANCH   8  11
ENDBRANCH   1   7
BRANCH   4  28
ATOM     28  C   UNL     1     133.810 -19.514 167.885  1.00  0.00     0.002 A 
ATOM     29  C   UNL     1     135.073 -18.891 167.952  1.00  0.00     0.010 A 
ATOM     30  C   UNL     1     133.577 -20.609 168.742  1.00  0.00     0.090 A 
ATOM     31  C   UNL     1     136.064 -19.335 168.832  1.00  0.00     0.001 A 
ATOM     32  C   UNL     1     134.576 -21.053 169.627  1.00  0.00     0.022 A 
ATOM     33  C   UNL     1     135.814 -20.416 169.670  1.00  0.00     0.001 A 
BRANCH  30  34
ATOM     34  S   UNL     1     132.027 -21.473 168.764  1.00  0.00     0.238 S 
ATOM     35  O   UNL     1     130.952 -20.507 168.727  1.00  0.00    -0.207 OA
ATOM     36  O   UNL     1     132.079 -22.580 167.839  1.00  0.00    -0.207 OA
BRANCH  34  37
ATOM     37  N   UNL     1     131.951 -22.120 170.311  1.00  0.00    -0.225 NA
ATOM     38  H   UNL     1     131.973 -23.139 170.254  1.00  0.00     0.137 HD
ATOM     39  H   UNL     1     131.136 -21.745 170.797  1.00  0.00     0.137 HD
ENDBRANCH  34  37
ENDBRANCH  30  34
ENDBRANCH   4  28
TORSDOF 7
ENDMDL
MODEL 5
REMARK minimizedAffinity -9.45187283
REMARK CNNscore 0.330126822
REMARK CNNaffinity 6.90321112
REMARK SMILES N=C(N)c1cccc(-n2nnnc2C(=O)Nc2ccc(-c3ccccc3S(N)(=O)=O)cc2)c1
REMARK SMILES IDX 17 1 18 2 19 3 20 4 31 5 32 6 16 7 14 8 15 9 13 11 9 12
REMARK SMILES IDX 10 13 11 14 12 15 8 16 4 17 5 18 33 19 6 20 7 21 2 22 1 23
REMARK SMILES IDX 3 24 21 28 22 29 26 30 23 31 25 32 24 33 27 34 29 35 30 36
REMARK SMILES IDX 28 37
REMARK H PARENT 16 10 1 25 3 26 3 27 28 38 28 39
ROOT
ATOM      1  C   UNL     1     130.344 -16.554 164.003  1.00  0.00     0.041 A 
ATOM      2  C   UNL     1     131.156 -17.614 163.603  1.00  0.00     0.027 A 
ATOM      3  C   UNL     1     132.006 -18.244 164.521  1.00  0.00     0.011 A 
ATOM      4  C   UNL     1     132.069 -17.822 165.854  1.00  0.00    -0.017 A 
ATOM      5  C   UNL     1     131.244 -16.764 166.253  1.00  0.00     0.011 A 
ATOM      6  C   UNL     1     130.395 -16.133 165.336  1.00  0.00     0.027 A 
ENDROOT
BRANCH   1   7
ATOM      7  N   UNL     1     129.470 -15.859 163.147  1.00  0.00    -0.319 N 
ATOM      8  C   UNL     1     128.103 -16.034 162.979  1.00  0.00     0.295 C 
ATOM      9  O   UNL     1     127.418 -16.822 163.621  1.00  0.00    -0.265 OA
ATOM     10  H   UNL     1     129.876 -15.117 162.583  1.00  0.00     0.170 HD
BRANCH   8  11
ATOM     11  C   UNL     1     127.565 -15.148 161.971  1.00  0.00     0.245 A 
ATOM     12  N   UNL     1     126.967 -13.905 162.104  1.00  0.00    -0.188 N 
ATOM     13  N   UNL     1     126.887 -13.361 160.860  1.00  0.00    -0.039 NA
ATOM     14  N   UNL     1     127.268 -14.302 160.013  1.00  0.00    -0.023 NA
ATOM     15  N   UNL     1     127.677 -15.418 160.677  1.00  0.00    -0.103 NA
BRANCH  12  16
ATOM     16  C   UNL     1     126.428 -13.206 163.216  1.00  0.00     0.070 A 
ATOM     17  C   UNL     1     124.994 -13.074 165.169  1.00  0.00     0.018 A 
ATOM     18  C   UNL     1     125.407 -11.760 165.402  1.00  0.00     0.012 A 
ATOM     19  C   UNL     1     125.489 -13.790 164.071  1.00  0.00     0.040 A 
ATOM     20  C   UNL     1     126.313 -11.158 164.531  1.00  0.00     0.003 A 
ATOM     21  C   UNL     1     126.817 -11.872 163.440  1.00  0.00     0.028 A 
BRANCH  17  22
ATOM     22  C   UNL     1     124.035 -13.735 166.095  1.00  0.00     0.122 C 
ATOM     23  N   UNL     1     123.216 -14.655 165.700  1.00  0.00    -0.284 NA
ATOM     24  N   UNL     1     124.000 -13.376 167.401  1.00  0.00    -0.384 N 
ATOM     25  H   UNL     1     123.352 -14.875 164.710  1.00  0.00     0.189 HD
ATOM     26  H   UNL     1     123.325 -13.842 167.993  1.00  0.00     0.158 HD
ATOM     27  H   UNL     1     124.526 -12.602 167.783  1.00  0.00     0.158 HD
ENDBRANCH  17  22
ENDBRANCH  12  16
ENDBRANCH   8  11
ENDBRANCH   1   7
BRANCH   4  28
ATOM     28  C   UNL     1     132.945 -18.497 166.822  1.00  0.00     0.002 A 
ATOM     29  C   UNL     1     132.459 -19.664 167.447  1.00  0.00     0.010 A 
ATOM     30  C   UNL     1     134.237 -18.057 167.175  1.00  0.00     0.090 A 
ATOM     31  C   UNL     1     133.223 -20.367 168.382  1.00  0.00     0.001 A 
ATOM     32  C   UNL     1     135.004 -18.767 168.116  1.00  0.00     0.022 A 
ATOM     33  C   UNL     1     134.496 -19.918 168.716  1.00  0.00     0.001 A 
BRANCH  30  34
ATOM     34  S   UNL     1     134.968 -16.611 166.453  1.00  0.00     0.238 S 
ATOM     35  O   UNL     1     134.492 -16.473 165.095  1.00  0.00    -0.207 OA
ATOM     36  O   UNL     1     134.899 -15.517 167.391  1.00  0.00    -0.207 OA
BRANCH  34  37
ATOM     37  N   UNL     1     136.587 -17.021 166.285  1.00  0.00    -0.225 NA
ATOM     38  H   UNL     1     137.153 -16.423 166.889  1.00  0.00     0.137 HD
ATOM     39  H   UNL     1     136.846 -16.988 165.299  1.00  0.00     0.137 HD
ENDBRANCH  34  37
ENDBRANCH  30  34
ENDBRANCH   4  28
TORSDOF 7
ENDMDL
MODEL 6
REMARK minimizedAffinity -10.4597359
REMARK CNNscore 0.307582825
REMARK CNNaffinity 6.70239639
REMARK SMILES N=C(N)c1cccc(-n2nnnc2C(=O)Nc2ccc(-c3ccccc3S(N)(=O)=O)cc2)c1
REMARK SMILES IDX 17 1 18 2 19 3 20 4 31 5 32 6 16 7 14 8 15 9 13 11 9 12
REMARK SMILES IDX 10 13 11 14 12 15 8 16 4 17 5 18 33 19 6 20 7 21 2 22 1 23
REMARK SMILES IDX 3 24 21 28 22 29 26 30 23 31 25 32 24 33 27 34 29 35 30 36
REMARK SMILES IDX 28 37
REMARK H PARENT 16 10 1 25 3 26 3 27 28 38 28 39
ROOT
ATOM      1  C   UNL     1     130.314 -15.437 163.743  1.00  0.00     0.041 A 
ATOM      2  C   UNL     1     129.853 -16.047 164.908  1.00  0.00     0.027 A 
ATOM      3  C   UNL     1     130.751 -16.431 165.912  1.00  0.00     0.011 A 
ATOM      4  C   UNL     1     132.127 -16.223 165.769  1.00  0.00    -0.017 A 
ATOM      5  C   UNL     1     132.584 -15.600 164.601  1.00  0.00     0.011 A 
ATOM      6  C   UNL     1     131.688 -15.216 163.597  1.00  0.00     0.027 A 
ENDROOT
BRANCH   1   7
ATOM      7  N   UNL     1     129.485 -15.028 162.681  1.00  0.00    -0.319 N 
ATOM      8  C   UNL     1     129.844 -14.404 161.494  1.00  0.00     0.295 C 
ATOM      9  O   UNL     1     130.996 -14.154 161.160  1.00  0.00    -0.265 OA
ATOM     10  H   UNL     1     128.492 -15.224 162.776  1.00  0.00     0.170 HD
BRANCH   8  11
ATOM     11  C   UNL     1     128.693 -14.108 160.671  1.00  0.00     0.245 A 
ATOM     12  N   UNL     1     127.364 -13.936 161.024  1.00  0.00    -0.188 N 
ATOM     13  N   UNL     1     126.727 -13.403 159.947  1.00  0.00    -0.039 NA
ATOM     14  N   UNL     1     127.597 -13.412 158.952  1.00  0.00    -0.023 NA
ATOM     15  N   UNL     1     128.814 -13.856 159.374  1.00  0.00    -0.103 NA
BRANCH  12  16
ATOM     16  C   UNL     1     126.627 -14.251 162.196  1.00  0.00     0.070 A 
ATOM     17  C   UNL     1     125.556 -13.628 164.282  1.00  0.00     0.018 A 
ATOM     18  C   UNL     1     125.159 -14.950 164.490  1.00  0.00     0.012 A 
ATOM     19  C   UNL     1     126.302 -13.280 163.147  1.00  0.00     0.040 A 
ATOM     20  C   UNL     1     125.513 -15.930 163.565  1.00  0.00     0.003 A 
ATOM     21  C   UNL     1     126.249 -15.586 162.427  1.00  0.00     0.028 A 
BRANCH  17  22
ATOM     22  C   UNL     1     125.177 -12.568 165.254  1.00  0.00     0.122 C 
ATOM     23  N   UNL     1     125.918 -11.527 165.466  1.00  0.00    -0.284 NA
ATOM     24  N   UNL     1     124.023 -12.674 165.955  1.00  0.00    -0.384 N 
ATOM     25  H   UNL     1     126.743 -11.528 164.861  1.00  0.00     0.189 HD
ATOM     26  H   UNL     1     123.810 -11.937 166.614  1.00  0.00     0.158 HD
ATOM     27  H   UNL     1     123.429 -13.492 165.935  1.00  0.00     0.158 HD
ENDBRANCH  17  22
ENDBRANCH  12  16
ENDBRANCH   8  11
ENDBRANCH   1   7
BRANCH   4  28
ATOM     28  C   UNL     1     133.067 -16.606 166.831  1.00  0.00     0.002 A 
ATOM     29  C   UNL     1     133.407 -15.632 167.792  1.00  0.00     0.010 A 
ATOM     30  C   UNL     1     133.657 -17.880 166.957  1.00  0.00     0.090 A 
ATOM     31  C   UNL     1     134.295 -15.910 168.835  1.00  0.00     0.001 A 
ATOM     32  C   UNL     1     134.549 -18.157 168.008  1.00  0.00     0.022 A 
ATOM     33  C   UNL     1     134.866 -17.172 168.942  1.00  0.00     0.001 A 
BRANCH  30  34
ATOM     34  S   UNL     1     133.303 -19.197 165.821  1.00  0.00     0.238 S 
ATOM     35  O   UNL     1     134.147 -20.328 166.138  1.00  0.00    -0.207 OA
ATOM     36  O   UNL     1     131.875 -19.338 165.676  1.00  0.00    -0.207 OA
BRANCH  34  37
ATOM     37  N   UNL     1     133.900 -18.633 164.356  1.00  0.00    -0.225 NA
ATOM     38  H   UNL     1     133.126 -18.503 163.703  1.00  0.00     0.137 HD
ATOM     39  H   UNL     1     134.631 -19.262 164.022  1.00  0.00     0.137 HD
ENDBRANCH  34  37
ENDBRANCH  30  34
ENDBRANCH   4  28
TORSDOF 7
ENDMDL
MODEL 7
REMARK minimizedAffinity -8.00424767
REMARK CNNscore 0.238116935
REMARK CNNaffinity 6.35882425
REMARK SMILES N=C(N)c1cccc(-n2nnnc2C(=O)Nc2ccc(-c3ccccc3S(N)(=O)=O)cc2)c1
REMARK SMILES IDX 17 1 18 2 19 3 20 4 31 5 32 6 16 7 14 8 15 9 13 11 9 12
REMARK SMILES IDX 10 13 11 14 12 15 8 16 4 17 5 18 33 19 6 20 7 21 2 22 1 23
REMARK SMILES IDX 3 24 21 28 22 29 26 30 23 31 25 32 24 33 27 34 29 35 30 36
REMARK SMILES IDX 28 37
REMARK H PARENT 16 10 1 25 3 26 3 27 28 38 28 39
ROOT
ATOM      1  C   UNL     1     129.373 -18.077 164.874  1.00  0.00     0.041 A 
ATOM      2  C   UNL     1     129.954 -18.617 166.020  1.00  0.00     0.027 A 
ATOM      3  C   UNL     1     131.242 -18.233 166.413  1.00  0.00     0.011 A 
ATOM      4  C   UNL     1     131.981 -17.310 165.665  1.00  0.00    -0.017 A 
ATOM      5  C   UNL     1     131.389 -16.763 164.519  1.00  0.00     0.011 A 
ATOM      6  C   UNL     1     130.102 -17.146 164.125  1.00  0.00     0.027 A 
ENDROOT
BRANCH   1   7
ATOM      7  N   UNL     1     128.091 -18.412 164.402  1.00  0.00    -0.319 N 
ATOM      8  C   UNL     1     127.713 -19.490 163.612  1.00  0.00     0.295 C 
ATOM      9  O   UNL     1     128.471 -20.377 163.237  1.00  0.00    -0.265 OA
ATOM     10  H   UNL     1     127.327 -17.802 164.682  1.00  0.00     0.170 HD
BRANCH   8  11
ATOM     11  C   UNL     1     126.301 -19.465 163.305  1.00  0.00     0.245 A 
ATOM     12  N   UNL     1     125.495 -18.414 162.897  1.00  0.00    -0.188 N 
ATOM     13  N   UNL     1     124.319 -18.949 162.472  1.00  0.00    -0.039 NA
ATOM     14  N   UNL     1     124.364 -20.237 162.766  1.00  0.00    -0.023 NA
ATOM     15  N   UNL     1     125.573 -20.575 163.294  1.00  0.00    -0.103 NA
BRANCH  12  16
ATOM     16  C   UNL     1     125.666 -17.005 162.907  1.00  0.00     0.070 A 
ATOM     17  C   UNL     1     125.223 -14.803 163.826  1.00  0.00     0.018 A 
ATOM     18  C   UNL     1     126.058 -14.220 162.870  1.00  0.00     0.012 A 
ATOM     19  C   UNL     1     125.013 -16.189 163.836  1.00  0.00     0.040 A 
ATOM     20  C   UNL     1     126.681 -15.024 161.917  1.00  0.00     0.003 A 
ATOM     21  C   UNL     1     126.482 -16.408 161.930  1.00  0.00     0.028 A 
BRANCH  17  22
ATOM     22  C   UNL     1     124.559 -13.961 164.857  1.00  0.00     0.122 C 
ATOM     23  N   UNL     1     124.856 -12.712 165.025  1.00  0.00    -0.284 NA
ATOM     24  N   UNL     1     123.609 -14.498 165.659  1.00  0.00    -0.384 N 
ATOM     25  H   UNL     1     125.554 -12.401 164.346  1.00  0.00     0.189 HD
ATOM     26  H   UNL     1     123.192 -13.893 166.354  1.00  0.00     0.158 HD
ATOM     27  H   UNL     1     123.379 -15.482 165.673  1.00  0.00     0.158 HD
ENDBRANCH  17  22
ENDBRANCH  12  16
ENDBRANCH   8  11
ENDBRANCH   1   7
BRANCH   4  28
ATOM     28  C   UNL     1     133.324 -16.892 166.088  1.00  0.00     0.002 A 
ATOM     29  C   UNL     1     133.457 -15.626 166.696  1.00  0.00     0.010 A 
ATOM     30  C   UNL     1     134.491 -17.664 165.927  1.00  0.00     0.090 A 
ATOM     31  C   UNL     1     134.697 -15.148 167.127  1.00  0.00     0.001 A 
ATOM     32  C   UNL     1     135.738 -17.180 166.362  1.00  0.00     0.022 A 
ATOM     33  C   UNL     1     135.837 -15.925 166.960  1.00  0.00     0.001 A 
BRANCH  30  34
ATOM     34  S   UNL     1     134.457 -19.277 165.187  1.00  0.00     0.238 S 
ATOM     35  O   UNL     1     135.813 -19.685 164.892  1.00  0.00    -0.207 OA
ATOM     36  O   UNL     1     133.558 -20.128 165.927  1.00  0.00    -0.207 OA
BRANCH  34  37
ATOM     37  N   UNL     1     133.767 -19.013 163.680  1.00  0.00    -0.225 NA
ATOM     38  H   UNL     1     132.868 -19.494 163.630  1.00  0.00     0.137 HD
ATOM     39  H   UNL     1     134.428 -19.281 162.951  1.00  0.00     0.137 HD
ENDBRANCH  34  37
ENDBRANCH  30  34
ENDBRANCH   4  28
TORSDOF 7
ENDMDL
MODEL 8
REMARK minimizedAffinity -10.2766113
REMARK CNNscore 0.200260639
REMARK CNNaffinity 6.47556543
REMARK SMILES N=C(N)c1cccc(-n2nnnc2C(=O)Nc2ccc(-c3ccccc3S(N)(=O)=O)cc2)c1
REMARK SMILES IDX 17 1 18 2 19 3 20 4 31 5 32 6 16 7 14 8 15 9 13 11 9 12
REMARK SMILES IDX 10 13 11 14 12 15 8 16 4 17 5 18 33 19 6 20 7 21 2 22 1 23
REMARK SMILES IDX 3 24 21 28 22 29 26 30 23 31 25 32 24 33 27 34 29 35 30 36
REMARK SMILES IDX 28 37
REMARK H PARENT 16 10 1 25 3 26 3 27 28 38 28 39
ROOT
ATOM      1  C   UNL     1     130.813 -16.571 163.457  1.00  0.00     0.041 A 
ATOM      2  C   UNL     1     130.628 -17.857 163.961  1.00  0.00     0.027 A 
ATOM      3  C   UNL     1     131.697 -18.557 164.535  1.00  0.00     0.011 A 
ATOM      4  C   UNL     1     132.974 -17.990 164.609  1.00  0.00    -0.017 A 
ATOM      5  C   UNL     1     133.152 -16.693 164.110  1.00  0.00     0.011 A 
ATOM      6  C   UNL     1     132.085 -15.994 163.536  1.00  0.00     0.027 A 
ENDROOT
BRANCH   1   7
ATOM      7  N   UNL     1     129.799 -15.802 162.857  1.00  0.00    -0.319 N 
ATOM      8  C   UNL     1     128.745 -15.133 163.465  1.00  0.00     0.295 C 
ATOM      9  O   UNL     1     128.567 -15.071 164.676  1.00  0.00    -0.265 OA
ATOM     10  H   UNL     1     129.841 -15.700 161.846  1.00  0.00     0.170 HD
BRANCH   8  11
ATOM     11  C   UNL     1     127.888 -14.483 162.499  1.00  0.00     0.245 A 
ATOM     12  N   UNL     1     126.758 -13.705 162.691  1.00  0.00    -0.188 N 
ATOM     13  N   UNL     1     126.477 -13.103 161.504  1.00  0.00    -0.039 NA
ATOM     14  N   UNL     1     127.302 -13.624 160.613  1.00  0.00    -0.023 NA
ATOM     15  N   UNL     1     128.173 -14.489 161.203  1.00  0.00    -0.103 NA
BRANCH  12  16
ATOM     16  C   UNL     1     125.900 -13.505 163.804  1.00  0.00     0.070 A 
ATOM     17  C   UNL     1     125.055 -12.162 165.639  1.00  0.00     0.018 A 
ATOM     18  C   UNL     1     124.165 -13.178 165.993  1.00  0.00     0.012 A 
ATOM     19  C   UNL     1     125.932 -12.329 164.559  1.00  0.00     0.040 A 
ATOM     20  C   UNL     1     124.155 -14.369 165.269  1.00  0.00     0.003 A 
ATOM     21  C   UNL     1     125.021 -14.536 164.184  1.00  0.00     0.028 A 
BRANCH  17  22
ATOM     22  C   UNL     1     125.071 -10.881 166.395  1.00  0.00     0.122 C 
ATOM     23  N   UNL     1     126.142 -10.165 166.520  1.00  0.00    -0.284 NA
ATOM     24  N   UNL     1     123.937 -10.429 166.983  1.00  0.00    -0.384 N 
ATOM     25  H   UNL     1     126.926 -10.576 166.009  1.00  0.00     0.189 HD
ATOM     26  H   UNL     1     123.995  -9.559 167.497  1.00  0.00     0.158 HD
ATOM     27  H   UNL     1     123.079 -10.961 167.028  1.00  0.00     0.158 HD
ENDBRANCH  17  22
ENDBRANCH  12  16
ENDBRANCH   8  11
ENDBRANCH   1   7
BRANCH   4  28
ATOM     28  C   UNL     1     134.091 -18.714 165.230  1.00  0.00     0.002 A 
ATOM     29  C   UNL     1     134.555 -19.882 164.590  1.00  0.00     0.010 A 
ATOM     30  C   UNL     1     134.731 -18.327 166.425  1.00  0.00     0.090 A 
ATOM     31  C   UNL     1     135.611 -20.634 165.113  1.00  0.00     0.001 A 
ATOM     32  C   UNL     1     135.794 -19.085 166.948  1.00  0.00     0.022 A 
ATOM     33  C   UNL     1     136.230 -20.235 166.292  1.00  0.00     0.001 A 
BRANCH  30  34
ATOM     34  S   UNL     1     134.251 -16.873 167.321  1.00  0.00     0.238 S 
ATOM     35  O   UNL     1     134.900 -15.723 166.731  1.00  0.00    -0.207 OA
ATOM     36  O   UNL     1     132.827 -16.898 167.553  1.00  0.00    -0.207 OA
BRANCH  34  37
ATOM     37  N   UNL     1     135.002 -17.053 168.811  1.00  0.00    -0.225 NA
ATOM     38  H   UNL     1     134.293 -17.155 169.538  1.00  0.00     0.137 HD
ATOM     39  H   UNL     1     135.650 -16.280 168.962  1.00  0.00     0.137 HD
ENDBRANCH  34  37
ENDBRANCH  30  34
ENDBRANCH   4  28
TORSDOF 7
ENDMDL
MODEL 9
REMARK minimizedAffinity -10.8677979
REMARK CNNscore 0.196682304
REMARK CNNaffinity 6.37082672
REMARK SMILES N=C(N)c1cccc(-n2nnnc2C(=O)Nc2ccc(-c3ccccc3S(N)(=O)=O)cc2)c1
REMARK SMILES IDX 17 1 18 2 19 3 20 4 31 5 32 6 16 7 14 8 15 9 13 11 9 12
REMARK SMILES IDX 10 13 11 14 12 15 8 16 4 17 5 18 33 19 6 20 7 21 2 22 1 23
REMARK SMILES IDX 3 24 21 28 22 29 26 30 23 31 25 32 24 33 27 34 29 35 30 36
REMARK SMILES IDX 28 37
REMARK H PARENT 16 10 1 25 3 26 3 27 28 38 28 39
ROOT
ATOM      1  C   UNL     1     130.201 -16.054 164.073  1.00  0.00     0.041 A 
ATOM      2  C   UNL     1     131.160 -16.881 163.492  1.00  0.00     0.027 A 
ATOM      3  C   UNL     1     132.092 -17.558 164.290  1.00  0.00     0.011 A 
ATOM      4  C   UNL     1     132.089 -17.416 165.682  1.00  0.00    -0.017 A 
ATOM      5  C   UNL     1     131.116 -16.592 166.261  1.00  0.00     0.011 A 
ATOM      6  C   UNL     1     130.186 -15.914 165.465  1.00  0.00     0.027 A 
ENDROOT
BRANCH   1   7
ATOM      7  N   UNL     1     129.235 -15.330 163.349  1.00  0.00    -0.319 N 
ATOM      8  C   UNL     1     127.963 -15.730 162.962  1.00  0.00     0.295 C 
ATOM      9  O   UNL     1     127.454 -16.806 163.255  1.00  0.00    -0.265 OA
ATOM     10  H   UNL     1     129.483 -14.381 163.081  1.00  0.00     0.170 HD
BRANCH   8  11
ATOM     11  C   UNL     1     127.287 -14.710 162.193  1.00  0.00     0.245 A 
ATOM     12  N   UNL     1     126.407 -13.722 162.602  1.00  0.00    -0.188 N 
ATOM     13  N   UNL     1     126.268 -12.851 161.566  1.00  0.00    -0.039 NA
ATOM     14  N   UNL     1     126.904 -13.386 160.538  1.00  0.00    -0.023 NA
ATOM     15  N   UNL     1     127.529 -14.541 160.900  1.00  0.00    -0.103 NA
BRANCH  12  16
ATOM     16  C   UNL     1     125.659 -13.526 163.793  1.00  0.00     0.070 A 
ATOM     17  C   UNL     1     124.981 -12.184 165.697  1.00  0.00     0.018 A 
ATOM     18  C   UNL     1     124.140 -13.208 166.139  1.00  0.00     0.012 A 
ATOM     19  C   UNL     1     125.750 -12.346 164.537  1.00  0.00     0.040 A 
ATOM     20  C   UNL     1     124.074 -14.402 165.423  1.00  0.00     0.003 A 
ATOM     21  C   UNL     1     124.833 -14.565 164.260  1.00  0.00     0.028 A 
BRANCH  17  22
ATOM     22  C   UNL     1     125.055 -10.899 166.444  1.00  0.00     0.122 C 
ATOM     23  N   UNL     1     126.172 -10.272 166.630  1.00  0.00    -0.284 NA
ATOM     24  N   UNL     1     123.929 -10.349 166.957  1.00  0.00    -0.384 N 
ATOM     25  H   UNL     1     126.950 -10.752 166.171  1.00  0.00     0.189 HD
ATOM     26  H   UNL     1     124.027  -9.482 167.468  1.00  0.00     0.158 HD
ATOM     27  H   UNL     1     123.029 -10.810 166.953  1.00  0.00     0.158 HD
ENDBRANCH  17  22
ENDBRANCH  12  16
ENDBRANCH   8  11
ENDBRANCH   1   7
BRANCH   4  28
ATOM     28  C   UNL     1     133.052 -18.143 166.520  1.00  0.00     0.002 A 
ATOM     29  C   UNL     1     132.666 -19.402 167.025  1.00  0.00     0.010 A 
ATOM     30  C   UNL     1     134.335 -17.670 166.860  1.00  0.00     0.090 A 
ATOM     31  C   UNL     1     133.518 -20.160 167.832  1.00  0.00     0.001 A 
ATOM     32  C   UNL     1     135.191 -18.436 167.672  1.00  0.00     0.022 A 
ATOM     33  C   UNL     1     134.780 -19.677 168.155  1.00  0.00     0.001 A 
BRANCH  30  34
ATOM     34  S   UNL     1     134.946 -16.108 166.280  1.00  0.00     0.238 S 
ATOM     35  O   UNL     1     134.564 -15.941 164.895  1.00  0.00    -0.207 OA
ATOM     36  O   UNL     1     134.675 -15.089 167.265  1.00  0.00    -0.207 OA
BRANCH  34  37
ATOM     37  N   UNL     1     136.610 -16.322 166.229  1.00  0.00    -0.225 NA
ATOM     38  H   UNL     1     137.053 -15.702 166.909  1.00  0.00     0.137 HD
ATOM     39  H   UNL     1     136.940 -16.198 165.271  1.00  0.00     0.137 HD
ENDBRANCH  34  37
ENDBRANCH  30  34
ENDBRANCH   4  28
TORSDOF 7
ENDMDL
