MODEL 1
REMARK VINA RESULT:    -9.105      0.000      0.000
REMARK INTER + INTRA:         -13.574
REMARK INTER:                 -12.564
REMARK INTRA:                  -1.010
REMARK UNBOUND:                -1.010
REMARK SMILES CCC(CC)n1cc(-c2nc(-c3cnn([C@H]4OCC[C@@H]4O)c3)cn3nccc23)cn1
REMARK SMILES IDX 9 1 10 2 11 3 23 4 24 5 25 6 26 7 27 8 28 9 8 10 6 11 7 12
REMARK SMILES IDX 30 13 29 14 3 15 2 16 1 17 4 18 5 19 12 20 13 21 22 22 14 23
REMARK SMILES IDX 15 24 16 25 17 26 20 27 18 28 19 29 21 30
REMARK H PARENT 21 31
ROOT
ATOM      1  C   UNL     1      -3.913  24.334 -30.181  1.00  0.00     0.100 A 
ATOM      2  N   UNL     1      -4.061  25.627 -30.231  1.00  0.00    -0.244 NA
ATOM      3  C   UNL     1      -4.795  26.180 -31.269  1.00  0.00     0.092 A 
ATOM      4  C   UNL     1      -5.358  25.423 -32.228  1.00  0.00     0.142 A 
ATOM      5  N   UNL     1      -5.224  24.049 -32.176  1.00  0.00    -0.237 N 
ATOM      6  N   UNL     1      -5.730  23.129 -33.032  1.00  0.00    -0.176 NA
ATOM      7  C   UNL     1      -5.383  21.955 -32.505  1.00  0.00     0.136 A 
ATOM      8  C   UNL     1      -4.636  22.095 -31.323  1.00  0.00     0.052 A 
ATOM      9  C   UNL     1      -4.517  23.456 -31.148  1.00  0.00     0.093 A 
ENDROOT
BRANCH   1  10
ATOM     10  C   UNL     1      -3.108  23.811 -29.093  1.00  0.00     0.040 A 
ATOM     11  N   UNL     1      -2.248  23.242 -27.139  1.00  0.00    -0.269 N 
ATOM     12  C   UNL     1      -3.265  23.946 -27.726  1.00  0.00     0.119 A 
ATOM     13  N   UNL     1      -1.445  22.635 -28.031  1.00  0.00    -0.181 NA
ATOM     14  C   UNL     1      -1.976  22.967 -29.209  1.00  0.00     0.145 A 
BRANCH  11  15
ATOM     15  C   UNL     1      -1.985  23.079 -25.706  1.00  0.00     0.107 C 
BRANCH  15  16
ATOM     16  C   UNL     1      -1.221  24.304 -25.166  1.00  0.00     0.024 C 
ATOM     17  C   UNL     1      -2.085  25.232 -24.324  1.00  0.00     0.006 C 
ENDBRANCH  15  16
BRANCH  15  18
ATOM     18  C   UNL     1      -1.262  21.751 -25.406  1.00  0.00     0.024 C 
ATOM     19  C   UNL     1      -0.207  21.878 -24.311  1.00  0.00     0.006 C 
ENDBRANCH  15  18
ENDBRANCH  11  15
ENDBRANCH   1  10
BRANCH   3  20
ATOM     20  C   UNL     1      -4.889  27.609 -31.222  1.00  0.00     0.040 A 
ATOM     21  C   UNL     1      -5.657  28.460 -32.049  1.00  0.00     0.145 A 
ATOM     22  C   UNL     1      -4.246  28.469 -30.358  1.00  0.00     0.122 A 
ATOM     23  N   UNL     1      -5.511  29.752 -31.742  1.00  0.00    -0.178 NA
ATOM     24  N   UNL     1      -4.640  29.734 -30.705  1.00  0.00    -0.241 N 
BRANCH  24  25
ATOM     25  C   UNL     1      -4.226  31.004 -30.111  1.00  0.00     0.265 C 
ATOM     26  O   UNL     1      -5.257  31.529 -29.242  1.00  0.00    -0.354 OA
ATOM     27  C   UNL     1      -2.968  30.840 -29.256  1.00  0.00     0.168 C 
ATOM     28  C   UNL     1      -4.636  31.909 -28.006  1.00  0.00     0.166 C 
ATOM     29  C   UNL     1      -3.145  31.951 -28.252  1.00  0.00     0.065 C 
BRANCH  27  30
ATOM     30  O   UNL     1      -1.756  30.990 -29.982  1.00  0.00    -0.388 OA
ATOM     31  H   UNL     1      -1.547  30.102 -30.338  1.00  0.00     0.211 HD
ENDBRANCH  27  30
ENDBRANCH  24  25
ENDBRANCH   3  20
TORSDOF 7
ENDMDL
MODEL 2
REMARK VINA RESULT:    -9.069      1.057      1.708
REMARK INTER + INTRA:         -13.525
REMARK INTER:                 -12.713
REMARK INTRA:                  -0.812
REMARK UNBOUND:                -1.010
REMARK SMILES CCC(CC)n1cc(-c2nc(-c3cnn([C@H]4OCC[C@@H]4O)c3)cn3nccc23)cn1
REMARK SMILES IDX 9 1 10 2 11 3 23 4 24 5 25 6 26 7 27 8 28 9 8 10 6 11 7 12
REMARK SMILES IDX 30 13 29 14 3 15 2 16 1 17 4 18 5 19 12 20 13 21 22 22 14 23
REMARK SMILES IDX 15 24 16 25 17 26 20 27 18 28 19 29 21 30
REMARK H PARENT 21 31
ROOT
ATOM      1  C   UNL     1      -3.877  24.905 -30.524  1.00  0.00     0.100 A 
ATOM      2  N   UNL     1      -3.982  26.199 -30.407  1.00  0.00    -0.244 NA
ATOM      3  C   UNL     1      -4.791  26.892 -31.294  1.00  0.00     0.092 A 
ATOM      4  C   UNL     1      -5.471  26.270 -32.275  1.00  0.00     0.142 A 
ATOM      5  N   UNL     1      -5.384  24.898 -32.399  1.00  0.00    -0.237 N 
ATOM      6  N   UNL     1      -6.003  24.101 -33.302  1.00  0.00    -0.176 NA
ATOM      7  C   UNL     1      -5.650  22.864 -32.955  1.00  0.00     0.136 A 
ATOM      8  C   UNL     1      -4.789  22.840 -31.846  1.00  0.00     0.052 A 
ATOM      9  C   UNL     1      -4.604  24.167 -31.523  1.00  0.00     0.093 A 
ENDROOT
BRANCH   1  10
ATOM     10  C   UNL     1      -2.992  24.236 -29.592  1.00  0.00     0.040 A 
ATOM     11  N   UNL     1      -1.821  23.576 -27.837  1.00  0.00    -0.269 N 
ATOM     12  C   UNL     1      -2.701  24.531 -28.272  1.00  0.00     0.119 A 
ATOM     13  N   UNL     1      -1.532  22.659 -28.778  1.00  0.00    -0.181 NA
ATOM     14  C   UNL     1      -2.253  23.050 -29.830  1.00  0.00     0.145 A 
BRANCH  11  15
ATOM     15  C   UNL     1      -1.220  23.456 -26.506  1.00  0.00     0.107 C 
BRANCH  15  16
ATOM     16  C   UNL     1      -1.924  22.344 -25.705  1.00  0.00     0.024 C 
ATOM     17  C   UNL     1      -0.958  21.391 -25.017  1.00  0.00     0.006 C 
ENDBRANCH  15  16
BRANCH  15  18
ATOM     18  C   UNL     1      -1.210  24.806 -25.761  1.00  0.00     0.024 C 
ATOM     19  C   UNL     1      -2.220  24.868 -24.620  1.00  0.00     0.006 C 
ENDBRANCH  15  18
ENDBRANCH  11  15
ENDBRANCH   1  10
BRANCH   3  20
ATOM     20  C   UNL     1      -4.827  28.306 -31.070  1.00  0.00     0.040 A 
ATOM     21  C   UNL     1      -5.600  29.277 -31.747  1.00  0.00     0.145 A 
ATOM     22  C   UNL     1      -4.111  29.033 -30.144  1.00  0.00     0.122 A 
ATOM     23  N   UNL     1      -5.390  30.516 -31.294  1.00  0.00    -0.178 NA
ATOM     24  N   UNL     1      -4.471  30.343 -30.314  1.00  0.00    -0.241 N 
BRANCH  24  25
ATOM     25  C   UNL     1      -3.981  31.516 -29.593  1.00  0.00     0.265 C 
ATOM     26  O   UNL     1      -4.290  32.732 -30.312  1.00  0.00    -0.354 OA
ATOM     27  C   UNL     1      -4.631  31.640 -28.214  1.00  0.00     0.168 C 
ATOM     28  C   UNL     1      -4.866  33.658 -29.380  1.00  0.00     0.166 C 
ATOM     29  C   UNL     1      -4.577  33.131 -27.993  1.00  0.00     0.065 C 
BRANCH  27  30
ATOM     30  O   UNL     1      -3.940  30.941 -27.188  1.00  0.00    -0.388 OA
ATOM     31  H   UNL     1      -3.645  31.625 -26.551  1.00  0.00     0.211 HD
ENDBRANCH  27  30
ENDBRANCH  24  25
ENDBRANCH   3  20
TORSDOF 7
ENDMDL
MODEL 3
REMARK VINA RESULT:    -8.863      2.650      3.782
REMARK INTER + INTRA:         -13.241
REMARK INTER:                 -12.551
REMARK INTRA:                  -0.690
REMARK UNBOUND:                -1.010
REMARK SMILES CCC(CC)n1cc(-c2nc(-c3cnn([C@H]4OCC[C@@H]4O)c3)cn3nccc23)cn1
REMARK SMILES IDX 9 1 10 2 11 3 23 4 24 5 25 6 26 7 27 8 28 9 8 10 6 11 7 12
REMARK SMILES IDX 30 13 29 14 3 15 2 16 1 17 4 18 5 19 12 20 13 21 22 22 14 23
REMARK SMILES IDX 15 24 16 25 17 26 20 27 18 28 19 29 21 30
REMARK H PARENT 21 31
ROOT
ATOM      1  C   UNL     1      -4.753  26.214 -31.254  1.00  0.00     0.100 A 
ATOM      2  N   UNL     1      -4.433  27.359 -30.718  1.00  0.00    -0.244 NA
ATOM      3  C   UNL     1      -4.898  28.527 -31.300  1.00  0.00     0.092 A 
ATOM      4  C   UNL     1      -5.668  28.518 -32.403  1.00  0.00     0.142 A 
ATOM      5  N   UNL     1      -6.029  27.313 -32.971  1.00  0.00    -0.237 N 
ATOM      6  N   UNL     1      -6.806  27.103 -34.061  1.00  0.00    -0.176 NA
ATOM      7  C   UNL     1      -6.909  25.778 -34.149  1.00  0.00     0.136 A 
ATOM      8  C   UNL     1      -6.191  25.113 -33.141  1.00  0.00     0.052 A 
ATOM      9  C   UNL     1      -5.604  26.123 -32.411  1.00  0.00     0.093 A 
ENDROOT
BRANCH   1  10
ATOM     10  C   UNL     1      -4.212  25.025 -30.625  1.00  0.00     0.040 A 
ATOM     11  N   UNL     1      -3.726  22.968 -29.981  1.00  0.00    -0.269 N 
ATOM     12  C   UNL     1      -4.553  23.696 -30.794  1.00  0.00     0.119 A 
ATOM     13  N   UNL     1      -2.849  23.730 -29.305  1.00  0.00    -0.181 NA
ATOM     14  C   UNL     1      -3.133  24.970 -29.708  1.00  0.00     0.145 A 
BRANCH  11  15
ATOM     15  C   UNL     1      -3.697  21.512 -29.810  1.00  0.00     0.107 C 
BRANCH  15  16
ATOM     16  C   UNL     1      -4.761  20.853 -30.707  1.00  0.00     0.024 C 
ATOM     17  C   UNL     1      -4.209  20.360 -32.037  1.00  0.00     0.006 C 
ENDBRANCH  15  16
BRANCH  15  18
ATOM     18  C   UNL     1      -3.839  21.109 -28.328  1.00  0.00     0.024 C 
ATOM     19  C   UNL     1      -5.270  21.212 -27.814  1.00  0.00     0.006 C 
ENDBRANCH  15  18
ENDBRANCH  11  15
ENDBRANCH   1  10
BRANCH   3  20
ATOM     20  C   UNL     1      -4.482  29.721 -30.626  1.00  0.00     0.040 A 
ATOM     21  C   UNL     1      -4.913  31.047 -30.857  1.00  0.00     0.145 A 
ATOM     22  C   UNL     1      -3.565  29.838 -29.604  1.00  0.00     0.122 A 
ATOM     23  N   UNL     1      -4.317  31.934 -30.053  1.00  0.00    -0.178 NA
ATOM     24  N   UNL     1      -3.492  31.170 -29.297  1.00  0.00    -0.241 N 
BRANCH  24  25
ATOM     25  C   UNL     1      -2.650  31.822 -28.297  1.00  0.00     0.265 C 
ATOM     26  O   UNL     1      -3.057  33.195 -28.092  1.00  0.00    -0.354 OA
ATOM     27  C   UNL     1      -2.748  31.124 -26.939  1.00  0.00     0.168 C 
ATOM     28  C   UNL     1      -3.156  33.416 -26.677  1.00  0.00     0.166 C 
ATOM     29  C   UNL     1      -2.452  32.264 -25.997  1.00  0.00     0.065 C 
BRANCH  27  30
ATOM     30  O   UNL     1      -1.819  30.062 -26.770  1.00  0.00    -0.388 OA
ATOM     31  H   UNL     1      -0.932  30.477 -26.795  1.00  0.00     0.211 HD
ENDBRANCH  27  30
ENDBRANCH  24  25
ENDBRANCH   3  20
TORSDOF 7
ENDMDL
MODEL 4
REMARK VINA RESULT:    -8.833      1.991      2.830
REMARK INTER + INTRA:         -13.199
REMARK INTER:                 -12.144
REMARK INTRA:                  -1.055
REMARK UNBOUND:                -1.010
REMARK SMILES CCC(CC)n1cc(-c2nc(-c3cnn([C@H]4OCC[C@@H]4O)c3)cn3nccc23)cn1
REMARK SMILES IDX 9 1 10 2 11 3 23 4 24 5 25 6 26 7 27 8 28 9 8 10 6 11 7 12
REMARK SMILES IDX 30 13 29 14 3 15 2 16 1 17 4 18 5 19 12 20 13 21 22 22 14 23
REMARK SMILES IDX 15 24 16 25 17 26 20 27 18 28 19 29 21 30
REMARK H PARENT 21 31
ROOT
ATOM      1  C   UNL     1      -4.525  26.228 -30.930  1.00  0.00     0.100 A 
ATOM      2  N   UNL     1      -4.293  27.434 -30.494  1.00  0.00    -0.244 NA
ATOM      3  C   UNL     1      -4.852  28.511 -31.165  1.00  0.00     0.092 A 
ATOM      4  C   UNL     1      -5.624  28.350 -32.255  1.00  0.00     0.142 A 
ATOM      5  N   UNL     1      -5.894  27.076 -32.716  1.00  0.00    -0.237 N 
ATOM      6  N   UNL     1      -6.658  26.717 -33.775  1.00  0.00    -0.176 NA
ATOM      7  C   UNL     1      -6.658  25.385 -33.751  1.00  0.00     0.136 A 
ATOM      8  C   UNL     1      -5.884  24.864 -32.700  1.00  0.00     0.052 A 
ATOM      9  C   UNL     1      -5.373  25.975 -32.064  1.00  0.00     0.093 A 
ENDROOT
BRANCH   1  10
ATOM     10  C   UNL     1      -3.890  25.141 -30.210  1.00  0.00     0.040 A 
ATOM     11  N   UNL     1      -3.260  23.618 -28.738  1.00  0.00    -0.269 N 
ATOM     12  C   UNL     1      -4.103  24.680 -28.924  1.00  0.00     0.119 A 
ATOM     13  N   UNL     1      -2.522  23.336 -29.826  1.00  0.00    -0.181 NA
ATOM     14  C   UNL     1      -2.916  24.246 -30.719  1.00  0.00     0.145 A 
BRANCH  11  15
ATOM     15  C   UNL     1      -3.116  22.791 -27.536  1.00  0.00     0.107 C 
BRANCH  15  16
ATOM     16  C   UNL     1      -1.683  22.907 -26.984  1.00  0.00     0.024 C 
ATOM     17  C   UNL     1      -1.527  22.336 -25.582  1.00  0.00     0.006 C 
ENDBRANCH  15  16
BRANCH  15  18
ATOM     18  C   UNL     1      -3.536  21.330 -27.794  1.00  0.00     0.024 C 
ATOM     19  C   UNL     1      -5.018  21.181 -28.115  1.00  0.00     0.006 C 
ENDBRANCH  15  18
ENDBRANCH  11  15
ENDBRANCH   1  10
BRANCH   3  20
ATOM     20  C   UNL     1      -4.526  29.785 -30.598  1.00  0.00     0.040 A 
ATOM     21  C   UNL     1      -5.006  31.058 -30.982  1.00  0.00     0.145 A 
ATOM     22  C   UNL     1      -3.668  30.050 -29.553  1.00  0.00     0.122 A 
ATOM     23  N   UNL     1      -4.494  32.050 -30.246  1.00  0.00    -0.178 NA
ATOM     24  N   UNL     1      -3.673  31.408 -29.380  1.00  0.00    -0.241 N 
BRANCH  24  25
ATOM     25  C   UNL     1      -2.913  32.199 -28.414  1.00  0.00     0.265 C 
ATOM     26  O   UNL     1      -3.246  31.819 -27.058  1.00  0.00    -0.354 OA
ATOM     27  C   UNL     1      -1.407  31.988 -28.576  1.00  0.00     0.168 C 
ATOM     28  C   UNL     1      -2.016  31.629 -26.343  1.00  0.00     0.166 C 
ATOM     29  C   UNL     1      -0.918  32.251 -27.174  1.00  0.00     0.065 C 
BRANCH  27  30
ATOM     30  O   UNL     1      -0.800  32.871 -29.508  1.00  0.00    -0.388 OA
ATOM     31  H   UNL     1       0.162  32.689 -29.462  1.00  0.00     0.211 HD
ENDBRANCH  27  30
ENDBRANCH  24  25
ENDBRANCH   3  20
TORSDOF 7
ENDMDL
MODEL 5
REMARK VINA RESULT:    -8.814      5.081      9.931
REMARK INTER + INTRA:         -13.173
REMARK INTER:                 -12.034
REMARK INTRA:                  -1.139
REMARK UNBOUND:                -1.010
REMARK SMILES CCC(CC)n1cc(-c2nc(-c3cnn([C@H]4OCC[C@@H]4O)c3)cn3nccc23)cn1
REMARK SMILES IDX 9 1 10 2 11 3 23 4 24 5 25 6 26 7 27 8 28 9 8 10 6 11 7 12
REMARK SMILES IDX 30 13 29 14 3 15 2 16 1 17 4 18 5 19 12 20 13 21 22 22 14 23
REMARK SMILES IDX 15 24 16 25 17 26 20 27 18 28 19 29 21 30
REMARK H PARENT 21 31
ROOT
ATOM      1  C   UNL     1      -3.002  23.079 -27.408  1.00  0.00     0.100 A 
ATOM      2  N   UNL     1      -2.233  22.313 -26.687  1.00  0.00    -0.244 NA
ATOM      3  C   UNL     1      -1.383  22.894 -25.759  1.00  0.00     0.092 A 
ATOM      4  C   UNL     1      -1.325  24.226 -25.581  1.00  0.00     0.142 A 
ATOM      5  N   UNL     1      -2.147  25.049 -26.325  1.00  0.00    -0.237 N 
ATOM      6  N   UNL     1      -2.244  26.399 -26.274  1.00  0.00    -0.176 NA
ATOM      7  C   UNL     1      -3.222  26.697 -27.128  1.00  0.00     0.136 A 
ATOM      8  C   UNL     1      -3.755  25.560 -27.756  1.00  0.00     0.052 A 
ATOM      9  C   UNL     1      -3.023  24.509 -27.247  1.00  0.00     0.093 A 
ENDROOT
BRANCH   1  10
ATOM     10  C   UNL     1      -3.846  22.421 -28.386  1.00  0.00     0.040 A 
ATOM     11  N   UNL     1      -4.853  21.701 -30.217  1.00  0.00    -0.269 N 
ATOM     12  C   UNL     1      -3.899  22.571 -29.760  1.00  0.00     0.119 A 
ATOM     13  N   UNL     1      -5.415  20.974 -29.235  1.00  0.00    -0.181 NA
ATOM     14  C   UNL     1      -4.794  21.399 -28.134  1.00  0.00     0.145 A 
BRANCH  11  15
ATOM     15  C   UNL     1      -5.276  21.487 -31.604  1.00  0.00     0.107 C 
BRANCH  15  16
ATOM     16  C   UNL     1      -4.509  20.297 -32.213  1.00  0.00     0.024 C 
ATOM     17  C   UNL     1      -5.365  19.050 -32.382  1.00  0.00     0.006 C 
ENDBRANCH  15  16
BRANCH  15  18
ATOM     18  C   UNL     1      -5.141  22.771 -32.447  1.00  0.00     0.024 C 
ATOM     19  C   UNL     1      -6.317  22.995 -33.390  1.00  0.00     0.006 C 
ENDBRANCH  15  18
ENDBRANCH  11  15
ENDBRANCH   1  10
BRANCH   3  20
ATOM     20  C   UNL     1      -0.586  21.955 -25.028  1.00  0.00     0.040 A 
ATOM     21  C   UNL     1       0.327  22.215 -23.981  1.00  0.00     0.145 A 
ATOM     22  C   UNL     1      -0.534  20.587 -25.187  1.00  0.00     0.122 A 
ATOM     23  N   UNL     1       0.915  21.108 -23.517  1.00  0.00    -0.178 NA
ATOM     24  N   UNL     1       0.374  20.123 -24.274  1.00  0.00    -0.241 N 
BRANCH  24  25
ATOM     25  C   UNL     1       0.809  18.746 -24.051  1.00  0.00     0.265 C 
ATOM     26  O   UNL     1       1.473  18.216 -25.222  1.00  0.00    -0.354 OA
ATOM     27  C   UNL     1       1.807  18.651 -22.896  1.00  0.00     0.168 C 
ATOM     28  C   UNL     1       2.696  17.601 -24.792  1.00  0.00     0.166 C 
ATOM     29  C   UNL     1       2.606  17.435 -23.292  1.00  0.00     0.065 C 
BRANCH  27  30
ATOM     30  O   UNL     1       1.199  18.477 -21.623  1.00  0.00    -0.388 OA
ATOM     31  H   UNL     1       0.724  17.621 -21.670  1.00  0.00     0.211 HD
ENDBRANCH  27  30
ENDBRANCH  24  25
ENDBRANCH   3  20
TORSDOF 7
ENDMDL
MODEL 6
REMARK VINA RESULT:    -8.747      2.577      7.258
REMARK INTER + INTRA:         -13.080
REMARK INTER:                 -12.262
REMARK INTRA:                  -0.818
REMARK UNBOUND:                -1.010
REMARK SMILES CCC(CC)n1cc(-c2nc(-c3cnn([C@H]4OCC[C@@H]4O)c3)cn3nccc23)cn1
REMARK SMILES IDX 9 1 10 2 11 3 23 4 24 5 25 6 26 7 27 8 28 9 8 10 6 11 7 12
REMARK SMILES IDX 30 13 29 14 3 15 2 16 1 17 4 18 5 19 12 20 13 21 22 22 14 23
REMARK SMILES IDX 15 24 16 25 17 26 20 27 18 28 19 29 21 30
REMARK H PARENT 21 31
ROOT
ATOM      1  C   UNL     1      -4.777  26.836 -31.317  1.00  0.00     0.100 A 
ATOM      2  N   UNL     1      -4.016  26.121 -30.537  1.00  0.00    -0.244 NA
ATOM      3  C   UNL     1      -3.971  24.747 -30.716  1.00  0.00     0.092 A 
ATOM      4  C   UNL     1      -4.690  24.128 -31.669  1.00  0.00     0.142 A 
ATOM      5  N   UNL     1      -5.486  24.875 -32.515  1.00  0.00    -0.237 N 
ATOM      6  N   UNL     1      -6.260  24.436 -33.536  1.00  0.00    -0.176 NA
ATOM      7  C   UNL     1      -6.761  25.546 -34.077  1.00  0.00     0.136 A 
ATOM      8  C   UNL     1      -6.341  26.708 -33.409  1.00  0.00     0.052 A 
ATOM      9  C   UNL     1      -5.544  26.249 -32.383  1.00  0.00     0.093 A 
ENDROOT
BRANCH   1  10
ATOM     10  C   UNL     1      -4.812  28.263 -31.064  1.00  0.00     0.040 A 
ATOM     11  N   UNL     1      -4.480  30.326 -30.344  1.00  0.00    -0.269 N 
ATOM     12  C   UNL     1      -4.083  29.027 -30.171  1.00  0.00     0.119 A 
ATOM     13  N   UNL     1      -5.406  30.469 -31.308  1.00  0.00    -0.181 NA
ATOM     14  C   UNL     1      -5.593  29.225 -31.753  1.00  0.00     0.145 A 
BRANCH  11  15
ATOM     15  C   UNL     1      -3.995  31.510 -29.630  1.00  0.00     0.107 C 
BRANCH  15  16
ATOM     16  C   UNL     1      -2.600  31.237 -29.037  1.00  0.00     0.024 C 
ATOM     17  C   UNL     1      -2.607  31.073 -27.524  1.00  0.00     0.006 C 
ENDBRANCH  15  16
BRANCH  15  18
ATOM     18  C   UNL     1      -5.005  31.990 -28.568  1.00  0.00     0.024 C 
ATOM     19  C   UNL     1      -5.232  33.497 -28.595  1.00  0.00     0.006 C 
ENDBRANCH  15  18
ENDBRANCH  11  15
ENDBRANCH   1  10
BRANCH   3  20
ATOM     20  C   UNL     1      -3.104  24.067 -29.801  1.00  0.00     0.040 A 
ATOM     21  C   UNL     1      -2.568  22.764 -29.913  1.00  0.00     0.145 A 
ATOM     22  C   UNL     1      -2.603  24.535 -28.605  1.00  0.00     0.122 A 
ATOM     23  N   UNL     1      -1.795  22.429 -28.875  1.00  0.00    -0.178 NA
ATOM     24  N   UNL     1      -1.835  23.528 -28.085  1.00  0.00    -0.241 N 
BRANCH  24  25
ATOM     25  C   UNL     1      -1.101  23.513 -26.821  1.00  0.00     0.265 C 
ATOM     26  O   UNL     1      -1.192  24.794 -26.154  1.00  0.00    -0.354 OA
ATOM     27  C   UNL     1      -1.666  22.470 -25.855  1.00  0.00     0.168 C 
ATOM     28  C   UNL     1      -1.545  24.550 -24.785  1.00  0.00     0.166 C 
ATOM     29  C   UNL     1      -1.315  23.080 -24.521  1.00  0.00     0.065 C 
BRANCH  27  30
ATOM     30  O   UNL     1      -1.089  21.180 -26.000  1.00  0.00    -0.388 OA
ATOM     31  H   UNL     1      -1.700  20.678 -26.578  1.00  0.00     0.211 HD
ENDBRANCH  27  30
ENDBRANCH  24  25
ENDBRANCH   3  20
TORSDOF 7
ENDMDL
MODEL 7
REMARK VINA RESULT:    -8.448      2.028      3.102
REMARK INTER + INTRA:         -12.668
REMARK INTER:                 -11.736
REMARK INTRA:                  -0.932
REMARK UNBOUND:                -1.010
REMARK SMILES CCC(CC)n1cc(-c2nc(-c3cnn([C@H]4OCC[C@@H]4O)c3)cn3nccc23)cn1
REMARK SMILES IDX 9 1 10 2 11 3 23 4 24 5 25 6 26 7 27 8 28 9 8 10 6 11 7 12
REMARK SMILES IDX 30 13 29 14 3 15 2 16 1 17 4 18 5 19 12 20 13 21 22 22 14 23
REMARK SMILES IDX 15 24 16 25 17 26 20 27 18 28 19 29 21 30
REMARK H PARENT 21 31
ROOT
ATOM      1  C   UNL     1      -4.329  26.418 -30.295  1.00  0.00     0.100 A 
ATOM      2  N   UNL     1      -4.162  27.668 -29.966  1.00  0.00    -0.244 NA
ATOM      3  C   UNL     1      -4.680  28.655 -30.790  1.00  0.00     0.092 A 
ATOM      4  C   UNL     1      -5.348  28.364 -31.921  1.00  0.00     0.142 A 
ATOM      5  N   UNL     1      -5.548  27.043 -32.272  1.00  0.00    -0.237 N 
ATOM      6  N   UNL     1      -6.206  26.557 -33.351  1.00  0.00    -0.176 NA
ATOM      7  C   UNL     1      -6.181  25.235 -33.192  1.00  0.00     0.136 A 
ATOM      8  C   UNL     1      -5.495  24.845 -32.030  1.00  0.00     0.052 A 
ATOM      9  C   UNL     1      -5.066  26.028 -31.468  1.00  0.00     0.093 A 
ENDROOT
BRANCH   1  10
ATOM     10  C   UNL     1      -3.739  25.427 -29.416  1.00  0.00     0.040 A 
ATOM     11  N   UNL     1      -2.661  23.716 -28.524  1.00  0.00    -0.269 N 
ATOM     12  C   UNL     1      -3.001  24.297 -29.717  1.00  0.00     0.119 A 
ATOM     13  N   UNL     1      -3.110  24.403 -27.459  1.00  0.00    -0.181 NA
ATOM     14  C   UNL     1      -3.746  25.444 -27.999  1.00  0.00     0.145 A 
BRANCH  11  15
ATOM     15  C   UNL     1      -1.877  22.496 -28.317  1.00  0.00     0.107 C 
BRANCH  15  16
ATOM     16  C   UNL     1      -1.843  21.662 -29.612  1.00  0.00     0.024 C 
ATOM     17  C   UNL     1      -3.011  20.695 -29.739  1.00  0.00     0.006 C 
ENDBRANCH  15  16
BRANCH  15  18
ATOM     18  C   UNL     1      -2.387  21.688 -27.107  1.00  0.00     0.024 C 
ATOM     19  C   UNL     1      -1.538  21.883 -25.856  1.00  0.00     0.006 C 
ENDBRANCH  15  18
ENDBRANCH  11  15
ENDBRANCH   1  10
BRANCH   3  20
ATOM     20  C   UNL     1      -4.433  29.989 -30.330  1.00  0.00     0.040 A 
ATOM     21  C   UNL     1      -4.856  31.205 -30.913  1.00  0.00     0.145 A 
ATOM     22  C   UNL     1      -3.724  30.379 -29.214  1.00  0.00     0.122 A 
ATOM     23  N   UNL     1      -4.447  32.278 -30.230  1.00  0.00    -0.178 NA
ATOM     24  N   UNL     1      -3.752  31.748 -29.195  1.00  0.00    -0.241 N 
BRANCH  24  25
ATOM     25  C   UNL     1      -3.129  32.651 -28.229  1.00  0.00     0.265 C 
ATOM     26  O   UNL     1      -2.789  31.951 -27.010  1.00  0.00    -0.354 OA
ATOM     27  C   UNL     1      -1.830  33.247 -28.774  1.00  0.00     0.168 C 
ATOM     28  C   UNL     1      -1.436  32.290 -26.673  1.00  0.00     0.166 C 
ATOM     29  C   UNL     1      -1.061  33.498 -27.501  1.00  0.00     0.065 C 
BRANCH  27  30
ATOM     30  O   UNL     1      -2.013  34.449 -29.511  1.00  0.00    -0.388 OA
ATOM     31  H   UNL     1      -2.891  34.368 -29.939  1.00  0.00     0.211 HD
ENDBRANCH  27  30
ENDBRANCH  24  25
ENDBRANCH   3  20
TORSDOF 7
ENDMDL
MODEL 8
REMARK VINA RESULT:    -8.354      4.038      8.878
REMARK INTER + INTRA:         -12.538
REMARK INTER:                 -11.622
REMARK INTRA:                  -0.916
REMARK UNBOUND:                -1.010
REMARK SMILES CCC(CC)n1cc(-c2nc(-c3cnn([C@H]4OCC[C@@H]4O)c3)cn3nccc23)cn1
REMARK SMILES IDX 9 1 10 2 11 3 23 4 24 5 25 6 26 7 27 8 28 9 8 10 6 11 7 12
REMARK SMILES IDX 30 13 29 14 3 15 2 16 1 17 4 18 5 19 12 20 13 21 22 22 14 23
REMARK SMILES IDX 15 24 16 25 17 26 20 27 18 28 19 29 21 30
REMARK H PARENT 21 31
ROOT
ATOM      1  C   UNL     1      -3.416  23.371 -29.183  1.00  0.00     0.100 A 
ATOM      2  N   UNL     1      -2.744  23.032 -28.119  1.00  0.00    -0.244 NA
ATOM      3  C   UNL     1      -2.512  21.689 -27.869  1.00  0.00     0.092 A 
ATOM      4  C   UNL     1      -2.960  20.723 -28.690  1.00  0.00     0.142 A 
ATOM      5  N   UNL     1      -3.657  21.068 -29.832  1.00  0.00    -0.237 N 
ATOM      6  N   UNL     1      -4.166  20.246 -30.780  1.00  0.00    -0.176 NA
ATOM      7  C   UNL     1      -4.675  21.067 -31.698  1.00  0.00     0.136 A 
ATOM      8  C   UNL     1      -4.524  22.420 -31.353  1.00  0.00     0.052 A 
ATOM      9  C   UNL     1      -3.893  22.397 -30.128  1.00  0.00     0.093 A 
ENDROOT
BRANCH   1  10
ATOM     10  C   UNL     1      -3.659  24.787 -29.378  1.00  0.00     0.040 A 
ATOM     11  N   UNL     1      -4.107  26.801 -30.171  1.00  0.00    -0.269 N 
ATOM     12  C   UNL     1      -3.941  25.491 -30.534  1.00  0.00     0.119 A 
ATOM     13  N   UNL     1      -3.973  27.001 -28.848  1.00  0.00    -0.181 NA
ATOM     14  C   UNL     1      -3.719  25.782 -28.369  1.00  0.00     0.145 A 
BRANCH  11  15
ATOM     15  C   UNL     1      -4.422  27.936 -31.043  1.00  0.00     0.107 C 
BRANCH  15  16
ATOM     16  C   UNL     1      -4.089  29.260 -30.328  1.00  0.00     0.024 C 
ATOM     17  C   UNL     1      -4.933  30.434 -30.806  1.00  0.00     0.006 C 
ENDBRANCH  15  16
BRANCH  15  18
ATOM     18  C   UNL     1      -5.880  27.884 -31.543  1.00  0.00     0.024 C 
ATOM     19  C   UNL     1      -6.004  27.379 -32.976  1.00  0.00     0.006 C 
ENDBRANCH  15  18
ENDBRANCH  11  15
ENDBRANCH   1  10
BRANCH   3  20
ATOM     20  C   UNL     1      -1.767  21.438 -26.672  1.00  0.00     0.040 A 
ATOM     21  C   UNL     1      -1.471  22.340 -25.625  1.00  0.00     0.145 A 
ATOM     22  C   UNL     1      -1.172  20.258 -26.279  1.00  0.00     0.122 A 
ATOM     23  N   UNL     1      -0.744  21.783 -24.650  1.00  0.00    -0.178 NA
ATOM     24  N   UNL     1      -0.570  20.509 -25.075  1.00  0.00    -0.241 N 
BRANCH  24  25
ATOM     25  C   UNL     1       0.213  19.592 -24.248  1.00  0.00     0.265 C 
ATOM     26  O   UNL     1       0.477  18.357 -24.953  1.00  0.00    -0.354 OA
ATOM     27  C   UNL     1       1.571  20.190 -23.879  1.00  0.00     0.168 C 
ATOM     28  C   UNL     1       1.875  18.065 -24.816  1.00  0.00     0.166 C 
ATOM     29  C   UNL     1       2.407  18.946 -23.709  1.00  0.00     0.065 C 
BRANCH  27  30
ATOM     30  O   UNL     1       1.554  20.965 -22.688  1.00  0.00    -0.388 OA
ATOM     31  H   UNL     1       1.650  20.326 -21.952  1.00  0.00     0.211 HD
ENDBRANCH  27  30
ENDBRANCH  24  25
ENDBRANCH   3  20
TORSDOF 7
ENDMDL
MODEL 9
REMARK VINA RESULT:    -8.346      2.640      7.223
REMARK INTER + INTRA:         -12.527
REMARK INTER:                 -11.944
REMARK INTRA:                  -0.582
REMARK UNBOUND:                -1.010
REMARK SMILES CCC(CC)n1cc(-c2nc(-c3cnn([C@H]4OCC[C@@H]4O)c3)cn3nccc23)cn1
REMARK SMILES IDX 9 1 10 2 11 3 23 4 24 5 25 6 26 7 27 8 28 9 8 10 6 11 7 12
REMARK SMILES IDX 30 13 29 14 3 15 2 16 1 17 4 18 5 19 12 20 13 21 22 22 14 23
REMARK SMILES IDX 15 24 16 25 17 26 20 27 18 28 19 29 21 30
REMARK H PARENT 21 31
ROOT
ATOM      1  C   UNL     1      -4.576  25.544 -30.896  1.00  0.00     0.100 A 
ATOM      2  N   UNL     1      -3.955  24.915 -29.938  1.00  0.00    -0.244 NA
ATOM      3  C   UNL     1      -3.883  23.531 -29.979  1.00  0.00     0.092 A 
ATOM      4  C   UNL     1      -4.436  22.816 -30.975  1.00  0.00     0.142 A 
ATOM      5  N   UNL     1      -5.080  23.471 -32.006  1.00  0.00    -0.237 N 
ATOM      6  N   UNL     1      -5.675  22.930 -33.096  1.00  0.00    -0.176 NA
ATOM      7  C   UNL     1      -6.078  23.978 -33.814  1.00  0.00     0.136 A 
ATOM      8  C   UNL     1      -5.772  25.203 -33.197  1.00  0.00     0.052 A 
ATOM      9  C   UNL     1      -5.157  24.851 -32.015  1.00  0.00     0.093 A 
ENDROOT
BRANCH   1  10
ATOM     10  C   UNL     1      -4.650  26.988 -30.787  1.00  0.00     0.040 A 
ATOM     11  N   UNL     1      -4.462  29.110 -30.200  1.00  0.00    -0.269 N 
ATOM     12  C   UNL     1      -4.128  27.836 -29.827  1.00  0.00     0.119 A 
ATOM     13  N   UNL     1      -5.151  29.157 -31.354  1.00  0.00    -0.181 NA
ATOM     14  C   UNL     1      -5.249  27.877 -31.715  1.00  0.00     0.145 A 
BRANCH  11  15
ATOM     15  C   UNL     1      -4.134  30.359 -29.506  1.00  0.00     0.107 C 
BRANCH  15  16
ATOM     16  C   UNL     1      -4.676  31.563 -30.300  1.00  0.00     0.024 C 
ATOM     17  C   UNL     1      -4.575  32.880 -29.543  1.00  0.00     0.006 C 
ENDBRANCH  15  16
BRANCH  15  18
ATOM     18  C   UNL     1      -2.624  30.471 -29.217  1.00  0.00     0.024 C 
ATOM     19  C   UNL     1      -2.296  30.457 -27.728  1.00  0.00     0.006 C 
ENDBRANCH  15  18
ENDBRANCH  11  15
ENDBRANCH   1  10
BRANCH   3  20
ATOM     20  C   UNL     1      -3.181  22.950 -28.874  1.00  0.00     0.040 A 
ATOM     21  C   UNL     1      -2.380  21.786 -28.865  1.00  0.00     0.145 A 
ATOM     22  C   UNL     1      -3.134  23.401 -27.572  1.00  0.00     0.122 A 
ATOM     23  N   UNL     1      -1.871  21.514 -27.659  1.00  0.00    -0.178 NA
ATOM     24  N   UNL     1      -2.350  22.515 -26.882  1.00  0.00    -0.241 N 
BRANCH  24  25
ATOM     25  C   UNL     1      -2.004  22.531 -25.462  1.00  0.00     0.265 C 
ATOM     26  O   UNL     1      -0.885  21.654 -25.192  1.00  0.00    -0.354 OA
ATOM     27  C   UNL     1      -1.591  23.930 -25.000  1.00  0.00     0.168 C 
ATOM     28  C   UNL     1       0.057  22.381 -24.391  1.00  0.00     0.166 C 
ATOM     29  C   UNL     1      -0.658  23.603 -23.861  1.00  0.00     0.065 C 
BRANCH  27  30
ATOM     30  O   UNL     1      -2.678  24.734 -24.562  1.00  0.00    -0.388 OA
ATOM     31  H   UNL     1      -2.879  24.437 -23.650  1.00  0.00     0.211 HD
ENDBRANCH  27  30
ENDBRANCH  24  25
ENDBRANCH   3  20
TORSDOF 7
ENDMDL
