MODEL 1
REMARK VINA RESULT:   -10.635      0.000      0.000
REMARK INTER + INTRA:         -13.557
REMARK INTER:                 -13.121
REMARK INTRA:                  -0.436
REMARK UNBOUND:                -0.436
REMARK SMILES CNC(=O)Nc1ccc(-c2nc(N3C[C@H]4CC[C@@H](C3)O4)c3cnn(C4CCC5(CC4)OCCO5)c3n2)cc1
REMARK SMILES IDX 6 1 7 2 8 3 9 4 37 5 38 6 5 7 2 8 3 9 4 10 1 11 10 14 11 15
REMARK SMILES IDX 36 16 12 17 35 18 21 19 24 20 22 21 23 22 13 23 14 24 19 25
REMARK SMILES IDX 15 26 18 27 16 28 20 29 17 30 25 31 26 32 30 33 27 34 29 35
REMARK SMILES IDX 28 36 31 37 34 38 32 39 33 40
REMARK H PARENT 2 12 5 13
ROOT
ATOM      1  C   UNL     1      55.949   1.364 -43.093  1.00  0.00     0.042 A 
ATOM      2  C   UNL     1      55.879   1.605 -44.468  1.00  0.00     0.027 A 
ATOM      3  C   UNL     1      54.775   1.170 -45.216  1.00  0.00     0.014 A 
ATOM      4  C   UNL     1      53.714   0.467 -44.619  1.00  0.00     0.019 A 
ATOM      5  C   UNL     1      53.811   0.226 -43.236  1.00  0.00     0.014 A 
ATOM      6  C   UNL     1      54.908   0.667 -42.483  1.00  0.00     0.027 A 
ENDROOT
BRANCH   1   7
ATOM      7  N   UNL     1      57.086   1.835 -42.407  1.00  0.00    -0.308 N 
ATOM      8  N   UNL     1      58.661   2.128 -40.796  1.00  0.00    -0.341 N 
ATOM      9  C   UNL     1      57.404   1.638 -41.081  1.00  0.00     0.318 C 
ATOM     10  O   UNL     1      56.697   1.122 -40.226  1.00  0.00    -0.249 OA
ATOM     11  C   UNL     1      59.184   2.080 -39.454  1.00  0.00     0.144 C 
ATOM     12  H   UNL     1      59.283   2.372 -41.550  1.00  0.00     0.165 HD
ATOM     13  H   UNL     1      57.689   2.461 -42.914  1.00  0.00     0.171 HD
ENDBRANCH   1   7
BRANCH   4  14
ATOM     14  C   UNL     1      52.547   0.005 -45.401  1.00  0.00     0.163 A 
ATOM     15  N   UNL     1      52.576   0.235 -46.732  1.00  0.00    -0.210 NA
ATOM     16  N   UNL     1      51.555  -0.605 -44.731  1.00  0.00    -0.208 NA
ATOM     17  C   UNL     1      51.551  -0.146 -47.547  1.00  0.00     0.144 A 
ATOM     18  C   UNL     1      50.562  -1.000 -45.545  1.00  0.00     0.164 A 
ATOM     19  C   UNL     1      50.485  -0.821 -46.917  1.00  0.00     0.082 A 
ATOM     20  N   UNL     1      49.427  -1.677 -45.170  1.00  0.00    -0.244 N 
ATOM     21  C   UNL     1      49.264  -1.443 -47.258  1.00  0.00     0.149 A 
ATOM     22  N   UNL     1      48.617  -1.963 -46.211  1.00  0.00    -0.178 NA
BRANCH  17  23
ATOM     23  N   UNL     1      51.658   0.171 -48.895  1.00  0.00    -0.351 N 
ATOM     24  C   UNL     1      52.939   0.488 -49.540  1.00  0.00     0.150 C 
ATOM     25  C   UNL     1      50.430   0.660 -49.555  1.00  0.00     0.150 C 
ATOM     26  C   UNL     1      52.815   0.524 -51.082  1.00  0.00     0.138 C 
ATOM     27  C   UNL     1      50.570   0.675 -51.093  1.00  0.00     0.138 C 
ATOM     28  C   UNL     1      52.363  -0.814 -51.659  1.00  0.00     0.037 C 
ATOM     29  O   UNL     1      51.750   1.426 -51.450  1.00  0.00    -0.371 OA
ATOM     30  C   UNL     1      50.844  -0.714 -51.663  1.00  0.00     0.037 C 
ENDBRANCH  17  23
BRANCH  20  31
ATOM     31  C   UNL     1      49.104  -2.114 -43.814  1.00  0.00     0.110 C 
ATOM     32  C   UNL     1      49.988  -3.294 -43.380  1.00  0.00     0.033 C 
ATOM     33  C   UNL     1      47.604  -2.386 -43.587  1.00  0.00     0.033 C 
ATOM     34  C   UNL     1      49.494  -4.642 -43.905  1.00  0.00     0.068 C 
ATOM     35  C   UNL     1      47.133  -3.767 -44.053  1.00  0.00     0.068 C 
ATOM     36  C   UNL     1      48.030  -4.893 -43.539  1.00  0.00     0.168 C 
ATOM     37  O   UNL     1      47.903  -4.961 -42.106  1.00  0.00    -0.348 OA
ATOM     38  O   UNL     1      47.616  -6.142 -44.111  1.00  0.00    -0.348 OA
ATOM     39  C   UNL     1      47.670  -6.341 -41.825  1.00  0.00     0.192 C 
ATOM     40  C   UNL     1      46.954  -6.830 -43.053  1.00  0.00     0.192 C 
ENDBRANCH  20  31
ENDBRANCH   4  14
TORSDOF 4
ENDMDL
MODEL 2
REMARK VINA RESULT:   -10.017      1.443      2.020
REMARK INTER + INTRA:         -12.795
REMARK INTER:                 -12.673
REMARK INTRA:                  -0.123
REMARK UNBOUND:                -0.436
REMARK SMILES CNC(=O)Nc1ccc(-c2nc(N3C[C@H]4CC[C@@H](C3)O4)c3cnn(C4CCC5(CC4)OCCO5)c3n2)cc1
REMARK SMILES IDX 6 1 7 2 8 3 9 4 37 5 38 6 5 7 2 8 3 9 4 10 1 11 10 14 11 15
REMARK SMILES IDX 36 16 12 17 35 18 21 19 24 20 22 21 23 22 13 23 14 24 19 25
REMARK SMILES IDX 15 26 18 27 16 28 20 29 17 30 25 31 26 32 30 33 27 34 29 35
REMARK SMILES IDX 28 36 31 37 34 38 32 39 33 40
REMARK H PARENT 2 12 5 13
ROOT
ATOM      1  C   UNL     1      54.200   0.169 -42.880  1.00  0.00     0.042 A 
ATOM      2  C   UNL     1      53.097  -0.603 -42.505  1.00  0.00     0.027 A 
ATOM      3  C   UNL     1      52.103  -0.932 -43.437  1.00  0.00     0.014 A 
ATOM      4  C   UNL     1      52.168  -0.487 -44.769  1.00  0.00     0.019 A 
ATOM      5  C   UNL     1      53.281   0.298 -45.122  1.00  0.00     0.014 A 
ATOM      6  C   UNL     1      54.282   0.621 -44.195  1.00  0.00     0.027 A 
ENDROOT
BRANCH   1   7
ATOM      7  N   UNL     1      55.161   0.455 -41.890  1.00  0.00    -0.308 N 
ATOM      8  N   UNL     1      56.840   1.479 -40.750  1.00  0.00    -0.341 N 
ATOM      9  C   UNL     1      56.184   1.376 -41.959  1.00  0.00     0.318 C 
ATOM     10  O   UNL     1      56.520   2.027 -42.940  1.00  0.00    -0.249 OA
ATOM     11  C   UNL     1      57.982   2.345 -40.603  1.00  0.00     0.144 C 
ATOM     12  H   UNL     1      56.426   1.076 -39.924  1.00  0.00     0.165 HD
ATOM     13  H   UNL     1      55.161  -0.139 -41.079  1.00  0.00     0.171 HD
ENDBRANCH   1   7
BRANCH   4  14
ATOM     14  C   UNL     1      51.123  -0.831 -45.758  1.00  0.00     0.163 A 
ATOM     15  N   UNL     1      51.342  -0.448 -47.035  1.00  0.00    -0.210 NA
ATOM     16  N   UNL     1      50.044  -1.495 -45.311  1.00  0.00    -0.208 NA
ATOM     17  C   UNL     1      50.442  -0.711 -48.025  1.00  0.00     0.144 A 
ATOM     18  C   UNL     1      49.176  -1.772 -46.298  1.00  0.00     0.164 A 
ATOM     19  C   UNL     1      49.295  -1.433 -47.636  1.00  0.00     0.082 A 
ATOM     20  N   UNL     1      47.997  -2.465 -46.169  1.00  0.00    -0.244 N 
ATOM     21  C   UNL     1      48.132  -1.986 -48.216  1.00  0.00     0.149 A 
ATOM     22  N   UNL     1      47.342  -2.612 -47.340  1.00  0.00    -0.178 NA
BRANCH  17  23
ATOM     23  N   UNL     1      50.741  -0.241 -49.297  1.00  0.00    -0.351 N 
ATOM     24  C   UNL     1      51.783   0.763 -49.552  1.00  0.00     0.150 C 
ATOM     25  C   UNL     1      49.685  -0.394 -50.320  1.00  0.00     0.150 C 
ATOM     26  C   UNL     1      52.099   0.895 -51.061  1.00  0.00     0.138 C 
ATOM     27  C   UNL     1      50.224  -0.142 -51.745  1.00  0.00     0.138 C 
ATOM     28  C   UNL     1      52.605  -0.412 -51.664  1.00  0.00     0.037 C 
ATOM     29  O   UNL     1      50.874   1.147 -51.781  1.00  0.00    -0.371 OA
ATOM     30  C   UNL     1      51.336  -1.115 -52.124  1.00  0.00     0.037 C 
ENDBRANCH  17  23
BRANCH  20  31
ATOM     31  C   UNL     1      47.482  -3.051 -44.934  1.00  0.00     0.110 C 
ATOM     32  C   UNL     1      48.421  -4.144 -44.398  1.00  0.00     0.033 C 
ATOM     33  C   UNL     1      46.019  -3.525 -45.030  1.00  0.00     0.033 C 
ATOM     34  C   UNL     1      48.228  -5.494 -45.088  1.00  0.00     0.068 C 
ATOM     35  C   UNL     1      45.842  -4.911 -45.660  1.00  0.00     0.068 C 
ATOM     36  C   UNL     1      46.771  -5.955 -45.040  1.00  0.00     0.168 C 
ATOM     37  O   UNL     1      46.381  -6.158 -43.669  1.00  0.00    -0.348 OA
ATOM     38  O   UNL     1      46.652  -7.194 -45.755  1.00  0.00    -0.348 OA
ATOM     39  C   UNL     1      46.292  -7.575 -43.520  1.00  0.00     0.192 C 
ATOM     40  C   UNL     1      45.901  -8.045 -44.892  1.00  0.00     0.192 C 
ENDBRANCH  20  31
ENDBRANCH   4  14
TORSDOF 4
ENDMDL
MODEL 3
REMARK VINA RESULT:    -9.369      3.489      4.530
REMARK INTER + INTRA:         -11.996
REMARK INTER:                 -11.271
REMARK INTRA:                  -0.725
REMARK UNBOUND:                -0.436
REMARK SMILES CNC(=O)Nc1ccc(-c2nc(N3C[C@H]4CC[C@@H](C3)O4)c3cnn(C4CCC5(CC4)OCCO5)c3n2)cc1
REMARK SMILES IDX 6 1 7 2 8 3 9 4 37 5 38 6 5 7 2 8 3 9 4 10 1 11 10 14 11 15
REMARK SMILES IDX 36 16 12 17 35 18 21 19 24 20 22 21 23 22 13 23 14 24 19 25
REMARK SMILES IDX 15 26 18 27 16 28 20 29 17 30 25 31 26 32 30 33 27 34 29 35
REMARK SMILES IDX 28 36 31 37 34 38 32 39 33 40
REMARK H PARENT 2 12 5 13
ROOT
ATOM      1  C   UNL     1      51.492  -0.722 -41.810  1.00  0.00     0.042 A 
ATOM      2  C   UNL     1      50.280  -1.401 -41.967  1.00  0.00     0.027 A 
ATOM      3  C   UNL     1      49.748  -1.628 -43.244  1.00  0.00     0.014 A 
ATOM      4  C   UNL     1      50.398  -1.171 -44.404  1.00  0.00     0.019 A 
ATOM      5  C   UNL     1      51.610  -0.480 -44.220  1.00  0.00     0.014 A 
ATOM      6  C   UNL     1      52.151  -0.259 -42.946  1.00  0.00     0.027 A 
ENDROOT
BRANCH   1   7
ATOM      7  N   UNL     1      51.966  -0.535 -40.496  1.00  0.00    -0.308 N 
ATOM      8  N   UNL     1      53.072  -0.866 -38.538  1.00  0.00    -0.341 N 
ATOM      9  C   UNL     1      52.646  -1.445 -39.715  1.00  0.00     0.318 C 
ATOM     10  O   UNL     1      52.853  -2.623 -39.974  1.00  0.00    -0.249 OA
ATOM     11  C   UNL     1      53.759  -1.646 -37.540  1.00  0.00     0.144 C 
ATOM     12  H   UNL     1      53.050   0.137 -38.441  1.00  0.00     0.165 HD
ATOM     13  H   UNL     1      51.703   0.322 -40.041  1.00  0.00     0.171 HD
ENDBRANCH   1   7
BRANCH   4  14
ATOM     14  C   UNL     1      49.842  -1.407 -45.754  1.00  0.00     0.163 A 
ATOM     15  N   UNL     1      50.507  -0.853 -46.792  1.00  0.00    -0.210 NA
ATOM     16  N   UNL     1      48.728  -2.152 -45.842  1.00  0.00    -0.208 NA
ATOM     17  C   UNL     1      50.079  -1.006 -48.078  1.00  0.00     0.144 A 
ATOM     18  C   UNL     1      48.329  -2.318 -47.114  1.00  0.00     0.164 A 
ATOM     19  C   UNL     1      48.928  -1.802 -48.252  1.00  0.00     0.082 A 
ATOM     20  N   UNL     1      47.247  -3.052 -47.535  1.00  0.00    -0.244 N 
ATOM     21  C   UNL     1      48.123  -2.303 -49.298  1.00  0.00     0.149 A 
ATOM     22  N   UNL     1      47.105  -3.059 -48.877  1.00  0.00    -0.178 NA
BRANCH  17  23
ATOM     23  N   UNL     1      50.808  -0.365 -49.071  1.00  0.00    -0.351 N 
ATOM     24  C   UNL     1      52.186   0.103 -48.873  1.00  0.00     0.150 C 
ATOM     25  C   UNL     1      50.028   0.272 -50.153  1.00  0.00     0.150 C 
ATOM     26  C   UNL     1      52.852   0.520 -50.206  1.00  0.00     0.138 C 
ATOM     27  C   UNL     1      50.920   0.669 -51.349  1.00  0.00     0.138 C 
ATOM     28  C   UNL     1      52.928  -0.634 -51.202  1.00  0.00     0.037 C 
ATOM     29  O   UNL     1      52.011   1.485 -50.872  1.00  0.00    -0.371 OA
ATOM     30  C   UNL     1      51.619  -0.536 -51.973  1.00  0.00     0.037 C 
ENDBRANCH  17  23
BRANCH  20  31
ATOM     31  C   UNL     1      46.342  -3.809 -46.673  1.00  0.00     0.110 C 
ATOM     32  C   UNL     1      46.267  -5.284 -47.097  1.00  0.00     0.033 C 
ATOM     33  C   UNL     1      44.949  -3.169 -46.514  1.00  0.00     0.033 C 
ATOM     34  C   UNL     1      45.313  -5.526 -48.268  1.00  0.00     0.068 C 
ATOM     35  C   UNL     1      43.977  -3.475 -47.659  1.00  0.00     0.068 C 
ATOM     36  C   UNL     1      43.918  -4.967 -47.989  1.00  0.00     0.168 C 
ATOM     37  O   UNL     1      43.342  -5.660 -46.865  1.00  0.00    -0.348 OA
ATOM     38  O   UNL     1      43.094  -5.174 -49.145  1.00  0.00    -0.348 OA
ATOM     39  C   UNL     1      42.330  -6.493 -47.430  1.00  0.00     0.192 C 
ATOM     40  C   UNL     1      41.880  -5.723 -48.639  1.00  0.00     0.192 C 
ENDBRANCH  20  31
ENDBRANCH   4  14
TORSDOF 4
ENDMDL
MODEL 4
REMARK VINA RESULT:    -9.319      2.870      3.522
REMARK INTER + INTRA:         -11.935
REMARK INTER:                 -11.569
REMARK INTRA:                  -0.365
REMARK UNBOUND:                -0.436
REMARK SMILES CNC(=O)Nc1ccc(-c2nc(N3C[C@H]4CC[C@@H](C3)O4)c3cnn(C4CCC5(CC4)OCCO5)c3n2)cc1
REMARK SMILES IDX 6 1 7 2 8 3 9 4 37 5 38 6 5 7 2 8 3 9 4 10 1 11 10 14 11 15
REMARK SMILES IDX 36 16 12 17 35 18 21 19 24 20 22 21 23 22 13 23 14 24 19 25
REMARK SMILES IDX 15 26 18 27 16 28 20 29 17 30 25 31 26 32 30 33 27 34 29 35
REMARK SMILES IDX 28 36 31 37 34 38 32 39 33 40
REMARK H PARENT 2 12 5 13
ROOT
ATOM      1  C   UNL     1      52.571  -1.024 -42.160  1.00  0.00     0.042 A 
ATOM      2  C   UNL     1      52.135  -2.288 -42.567  1.00  0.00     0.027 A 
ATOM      3  C   UNL     1      51.267  -2.428 -43.660  1.00  0.00     0.014 A 
ATOM      4  C   UNL     1      50.795  -1.311 -44.372  1.00  0.00     0.019 A 
ATOM      5  C   UNL     1      51.238  -0.049 -43.937  1.00  0.00     0.014 A 
ATOM      6  C   UNL     1      52.112   0.095 -42.850  1.00  0.00     0.027 A 
ENDROOT
BRANCH   1   7
ATOM      7  N   UNL     1      53.445  -0.962 -41.056  1.00  0.00    -0.308 N 
ATOM      8  N   UNL     1      54.291  -1.214 -38.962  1.00  0.00    -0.341 N 
ATOM      9  C   UNL     1      53.154  -1.255 -39.742  1.00  0.00     0.318 C 
ATOM     10  O   UNL     1      52.051  -1.505 -39.273  1.00  0.00    -0.249 OA
ATOM     11  C   UNL     1      54.218  -1.436 -37.540  1.00  0.00     0.144 C 
ATOM     12  H   UNL     1      55.196  -1.192 -39.404  1.00  0.00     0.165 HD
ATOM     13  H   UNL     1      54.356  -0.573 -41.227  1.00  0.00     0.171 HD
ENDBRANCH   1   7
BRANCH   4  14
ATOM     14  C   UNL     1      49.880  -1.452 -45.526  1.00  0.00     0.163 A 
ATOM     15  N   UNL     1      50.301  -0.938 -46.702  1.00  0.00    -0.210 NA
ATOM     16  N   UNL     1      48.711  -2.080 -45.315  1.00  0.00    -0.208 NA
ATOM     17  C   UNL     1      49.535  -1.011 -47.829  1.00  0.00     0.144 A 
ATOM     18  C   UNL     1      47.976  -2.169 -46.435  1.00  0.00     0.164 A 
ATOM     19  C   UNL     1      48.303  -1.683 -47.691  1.00  0.00     0.082 A 
ATOM     20  N   UNL     1      46.751  -2.778 -46.554  1.00  0.00    -0.244 N 
ATOM     21  C   UNL     1      47.202  -2.071 -48.486  1.00  0.00     0.149 A 
ATOM     22  N   UNL     1      46.260  -2.733 -47.810  1.00  0.00    -0.178 NA
BRANCH  17  23
ATOM     23  N   UNL     1      50.038  -0.417 -48.978  1.00  0.00    -0.351 N 
ATOM     24  C   UNL     1      50.742   0.873 -48.968  1.00  0.00     0.150 C 
ATOM     25  C   UNL     1      49.438  -0.849 -50.259  1.00  0.00     0.150 C 
ATOM     26  C   UNL     1      51.437   1.162 -50.320  1.00  0.00     0.138 C 
ATOM     27  C   UNL     1      50.271  -0.380 -51.472  1.00  0.00     0.138 C 
ATOM     28  C   UNL     1      52.480   0.106 -50.673  1.00  0.00     0.037 C 
ATOM     29  O   UNL     1      50.468   1.047 -51.383  1.00  0.00    -0.371 OA
ATOM     30  C   UNL     1      51.691  -0.939 -51.449  1.00  0.00     0.037 C 
ENDBRANCH  17  23
BRANCH  20  31
ATOM     31  C   UNL     1      46.032  -3.466 -45.483  1.00  0.00     0.110 C 
ATOM     32  C   UNL     1      46.991  -4.274 -44.594  1.00  0.00     0.033 C 
ATOM     33  C   UNL     1      44.834  -4.303 -45.972  1.00  0.00     0.033 C 
ATOM     34  C   UNL     1      47.359  -5.635 -45.186  1.00  0.00     0.068 C 
ATOM     35  C   UNL     1      45.205  -5.693 -46.499  1.00  0.00     0.068 C 
ATOM     36  C   UNL     1      46.117  -6.456 -45.538  1.00  0.00     0.168 C 
ATOM     37  O   UNL     1      45.378  -6.739 -44.335  1.00  0.00    -0.348 OA
ATOM     38  O   UNL     1      46.532  -7.690 -46.141  1.00  0.00    -0.348 OA
ATOM     39  C   UNL     1      45.593  -8.130 -44.093  1.00  0.00     0.192 C 
ATOM     40  C   UNL     1      45.778  -8.698 -45.472  1.00  0.00     0.192 C 
ENDBRANCH  20  31
ENDBRANCH   4  14
TORSDOF 4
ENDMDL
MODEL 5
REMARK VINA RESULT:    -9.259      4.150      9.224
REMARK INTER + INTRA:         -11.860
REMARK INTER:                 -11.035
REMARK INTRA:                  -0.826
REMARK UNBOUND:                -0.436
REMARK SMILES CNC(=O)Nc1ccc(-c2nc(N3C[C@H]4CC[C@@H](C3)O4)c3cnn(C4CCC5(CC4)OCCO5)c3n2)cc1
REMARK SMILES IDX 6 1 7 2 8 3 9 4 37 5 38 6 5 7 2 8 3 9 4 10 1 11 10 14 11 15
REMARK SMILES IDX 36 16 12 17 35 18 21 19 24 20 22 21 23 22 13 23 14 24 19 25
REMARK SMILES IDX 15 26 18 27 16 28 20 29 17 30 25 31 26 32 30 33 27 34 29 35
REMARK SMILES IDX 28 36 31 37 34 38 32 39 33 40
REMARK H PARENT 2 12 5 13
ROOT
ATOM      1  C   UNL     1      44.436  -5.145 -49.218  1.00  0.00     0.042 A 
ATOM      2  C   UNL     1      45.340  -5.701 -48.308  1.00  0.00     0.027 A 
ATOM      3  C   UNL     1      46.422  -4.952 -47.825  1.00  0.00     0.014 A 
ATOM      4  C   UNL     1      46.646  -3.629 -48.246  1.00  0.00     0.019 A 
ATOM      5  C   UNL     1      45.729  -3.094 -49.170  1.00  0.00     0.014 A 
ATOM      6  C   UNL     1      44.641  -3.837 -49.649  1.00  0.00     0.027 A 
ENDROOT
BRANCH   1   7
ATOM      7  N   UNL     1      43.371  -5.958 -49.655  1.00  0.00    -0.308 N 
ATOM      8  N   UNL     1      42.159  -7.456 -50.861  1.00  0.00    -0.341 N 
ATOM      9  C   UNL     1      43.288  -6.664 -50.835  1.00  0.00     0.318 C 
ATOM     10  O   UNL     1      44.071  -6.616 -51.775  1.00  0.00    -0.249 OA
ATOM     11  C   UNL     1      41.837  -8.244 -52.023  1.00  0.00     0.144 C 
ATOM     12  H   UNL     1      41.643  -7.614 -50.009  1.00  0.00     0.165 HD
ATOM     13  H   UNL     1      42.540  -5.952 -49.089  1.00  0.00     0.171 HD
ENDBRANCH   1   7
BRANCH   4  14
ATOM     14  C   UNL     1      47.785  -2.832 -47.741  1.00  0.00     0.163 A 
ATOM     15  N   UNL     1      48.410  -2.031 -48.631  1.00  0.00    -0.210 NA
ATOM     16  N   UNL     1      48.105  -2.965 -46.443  1.00  0.00    -0.208 NA
ATOM     17  C   UNL     1      49.473  -1.255 -48.271  1.00  0.00     0.144 A 
ATOM     18  C   UNL     1      49.136  -2.180 -46.093  1.00  0.00     0.164 A 
ATOM     19  C   UNL     1      49.849  -1.321 -46.914  1.00  0.00     0.082 A 
ATOM     20  N   UNL     1      49.677  -2.065 -44.836  1.00  0.00    -0.244 N 
ATOM     21  C   UNL     1      50.788  -0.736 -46.035  1.00  0.00     0.149 A 
ATOM     22  N   UNL     1      50.692  -1.178 -44.778  1.00  0.00    -0.178 NA
BRANCH  17  23
ATOM     23  N   UNL     1      50.073  -0.497 -49.268  1.00  0.00    -0.351 N 
ATOM     24  C   UNL     1      50.584   0.861 -49.039  1.00  0.00     0.150 C 
ATOM     25  C   UNL     1      49.755  -0.873 -50.662  1.00  0.00     0.150 C 
ATOM     26  C   UNL     1      51.445   1.361 -50.223  1.00  0.00     0.138 C 
ATOM     27  C   UNL     1      50.704  -0.192 -51.672  1.00  0.00     0.138 C 
ATOM     28  C   UNL     1      52.665   0.478 -50.466  1.00  0.00     0.037 C 
ATOM     29  O   UNL     1      50.688   1.233 -51.445  1.00  0.00    -0.371 OA
ATOM     30  C   UNL     1      52.163  -0.575 -51.443  1.00  0.00     0.037 C 
ENDBRANCH  17  23
BRANCH  20  31
ATOM     31  C   UNL     1      49.212  -2.763 -43.639  1.00  0.00     0.110 C 
ATOM     32  C   UNL     1      49.428  -1.915 -42.376  1.00  0.00     0.033 C 
ATOM     33  C   UNL     1      49.769  -4.192 -43.493  1.00  0.00     0.033 C 
ATOM     34  C   UNL     1      50.856  -1.994 -41.835  1.00  0.00     0.068 C 
ATOM     35  C   UNL     1      51.173  -4.266 -42.885  1.00  0.00     0.068 C 
ATOM     36  C   UNL     1      51.297  -3.440 -41.604  1.00  0.00     0.168 C 
ATOM     37  O   UNL     1      50.462  -4.037 -40.593  1.00  0.00    -0.348 OA
ATOM     38  O   UNL     1      52.660  -3.444 -41.155  1.00  0.00    -0.348 OA
ATOM     39  C   UNL     1      51.300  -4.144 -39.443  1.00  0.00     0.192 C 
ATOM     40  C   UNL     1      52.673  -4.317 -40.028  1.00  0.00     0.192 C 
ENDBRANCH  20  31
ENDBRANCH   4  14
TORSDOF 4
ENDMDL
MODEL 6
REMARK VINA RESULT:    -9.194      4.677      6.910
REMARK INTER + INTRA:         -11.779
REMARK INTER:                 -10.971
REMARK INTRA:                  -0.809
REMARK UNBOUND:                -0.436
REMARK SMILES CNC(=O)Nc1ccc(-c2nc(N3C[C@H]4CC[C@@H](C3)O4)c3cnn(C4CCC5(CC4)OCCO5)c3n2)cc1
REMARK SMILES IDX 6 1 7 2 8 3 9 4 37 5 38 6 5 7 2 8 3 9 4 10 1 11 10 14 11 15
REMARK SMILES IDX 36 16 12 17 35 18 21 19 24 20 22 21 23 22 13 23 14 24 19 25
REMARK SMILES IDX 15 26 18 27 16 28 20 29 17 30 25 31 26 32 30 33 27 34 29 35
REMARK SMILES IDX 28 36 31 37 34 38 32 39 33 40
REMARK H PARENT 2 12 5 13
ROOT
ATOM      1  C   UNL     1      48.818  -2.399 -42.141  1.00  0.00     0.042 A 
ATOM      2  C   UNL     1      47.565  -2.198 -42.727  1.00  0.00     0.027 A 
ATOM      3  C   UNL     1      47.422  -2.170 -44.121  1.00  0.00     0.014 A 
ATOM      4  C   UNL     1      48.527  -2.326 -44.976  1.00  0.00     0.019 A 
ATOM      5  C   UNL     1      49.780  -2.515 -44.365  1.00  0.00     0.014 A 
ATOM      6  C   UNL     1      49.926  -2.553 -42.971  1.00  0.00     0.027 A 
ENDROOT
BRANCH   1   7
ATOM      7  N   UNL     1      48.882  -2.418 -40.734  1.00  0.00    -0.308 N 
ATOM      8  N   UNL     1      48.989  -3.174 -38.593  1.00  0.00    -0.341 N 
ATOM      9  C   UNL     1      48.721  -3.507 -39.904  1.00  0.00     0.318 C 
ATOM     10  O   UNL     1      48.370  -4.633 -40.232  1.00  0.00    -0.249 OA
ATOM     11  C   UNL     1      48.832  -4.145 -37.540  1.00  0.00     0.144 C 
ATOM     12  H   UNL     1      49.450  -2.303 -38.385  1.00  0.00     0.165 HD
ATOM     13  H   UNL     1      48.964  -1.527 -40.276  1.00  0.00     0.171 HD
ENDBRANCH   1   7
BRANCH   4  14
ATOM     14  C   UNL     1      48.384  -2.298 -46.448  1.00  0.00     0.163 A 
ATOM     15  N   UNL     1      49.292  -1.571 -47.135  1.00  0.00    -0.210 NA
ATOM     16  N   UNL     1      47.369  -2.996 -46.984  1.00  0.00    -0.208 NA
ATOM     17  C   UNL     1      49.250  -1.475 -48.495  1.00  0.00     0.144 A 
ATOM     18  C   UNL     1      47.351  -2.917 -48.325  1.00  0.00     0.164 A 
ATOM     19  C   UNL     1      48.227  -2.207 -49.131  1.00  0.00     0.082 A 
ATOM     20  N   UNL     1      46.461  -3.542 -49.162  1.00  0.00    -0.244 N 
ATOM     21  C   UNL     1      47.769  -2.492 -50.437  1.00  0.00     0.149 A 
ATOM     22  N   UNL     1      46.703  -3.297 -50.467  1.00  0.00    -0.178 NA
BRANCH  17  23
ATOM     23  N   UNL     1      50.204  -0.671 -49.105  1.00  0.00    -0.351 N 
ATOM     24  C   UNL     1      51.522  -0.406 -48.512  1.00  0.00     0.150 C 
ATOM     25  C   UNL     1      49.706   0.298 -50.105  1.00  0.00     0.150 C 
ATOM     26  C   UNL     1      52.480   0.277 -49.517  1.00  0.00     0.138 C 
ATOM     27  C   UNL     1      50.855   0.903 -50.941  1.00  0.00     0.138 C 
ATOM     28  C   UNL     1      52.730  -0.580 -50.754  1.00  0.00     0.037 C 
ATOM     29  O   UNL     1      51.844   1.458 -50.048  1.00  0.00    -0.371 OA
ATOM     30  C   UNL     1      51.628  -0.159 -51.716  1.00  0.00     0.037 C 
ENDBRANCH  17  23
BRANCH  20  31
ATOM     31  C   UNL     1      45.379  -4.433 -48.746  1.00  0.00     0.110 C 
ATOM     32  C   UNL     1      45.650  -5.883 -49.178  1.00  0.00     0.033 C 
ATOM     33  C   UNL     1      43.976  -3.947 -49.159  1.00  0.00     0.033 C 
ATOM     34  C   UNL     1      45.280  -6.156 -50.636  1.00  0.00     0.068 C 
ATOM     35  C   UNL     1      43.587  -4.287 -50.601  1.00  0.00     0.068 C 
ATOM     36  C   UNL     1      43.836  -5.757 -50.940  1.00  0.00     0.168 C 
ATOM     37  O   UNL     1      42.942  -6.566 -50.151  1.00  0.00    -0.348 OA
ATOM     38  O   UNL     1      43.575  -5.984 -52.333  1.00  0.00    -0.348 OA
ATOM     39  C   UNL     1      42.343  -7.465 -51.084  1.00  0.00     0.192 C 
ATOM     40  C   UNL     1      42.331  -6.680 -52.366  1.00  0.00     0.192 C 
ENDBRANCH  20  31
ENDBRANCH   4  14
TORSDOF 4
ENDMDL
MODEL 7
REMARK VINA RESULT:    -8.820      3.737      7.440
REMARK INTER + INTRA:         -11.318
REMARK INTER:                 -10.501
REMARK INTRA:                  -0.817
REMARK UNBOUND:                -0.436
REMARK SMILES CNC(=O)Nc1ccc(-c2nc(N3C[C@H]4CC[C@@H](C3)O4)c3cnn(C4CCC5(CC4)OCCO5)c3n2)cc1
REMARK SMILES IDX 6 1 7 2 8 3 9 4 37 5 38 6 5 7 2 8 3 9 4 10 1 11 10 14 11 15
REMARK SMILES IDX 36 16 12 17 35 18 21 19 24 20 22 21 23 22 13 23 14 24 19 25
REMARK SMILES IDX 15 26 18 27 16 28 20 29 17 30 25 31 26 32 30 33 27 34 29 35
REMARK SMILES IDX 28 36 31 37 34 38 32 39 33 40
REMARK H PARENT 2 12 5 13
ROOT
ATOM      1  C   UNL     1      53.784   0.538 -43.799  1.00  0.00     0.042 A 
ATOM      2  C   UNL     1      52.544   1.087 -44.134  1.00  0.00     0.027 A 
ATOM      3  C   UNL     1      51.367   0.338 -43.991  1.00  0.00     0.014 A 
ATOM      4  C   UNL     1      51.392  -0.988 -43.524  1.00  0.00     0.019 A 
ATOM      5  C   UNL     1      52.653  -1.524 -43.205  1.00  0.00     0.014 A 
ATOM      6  C   UNL     1      53.831  -0.775 -43.338  1.00  0.00     0.027 A 
ENDROOT
BRANCH   1   7
ATOM      7  N   UNL     1      54.922   1.352 -43.966  1.00  0.00    -0.308 N 
ATOM      8  N   UNL     1      56.476   2.715 -44.912  1.00  0.00    -0.341 N 
ATOM      9  C   UNL     1      55.435   1.841 -45.148  1.00  0.00     0.318 C 
ATOM     10  O   UNL     1      55.068   1.557 -46.280  1.00  0.00    -0.249 OA
ATOM     11  C   UNL     1      57.202   3.309 -46.006  1.00  0.00     0.144 C 
ATOM     12  H   UNL     1      56.628   3.067 -43.980  1.00  0.00     0.165 HD
ATOM     13  H   UNL     1      55.477   1.522 -43.144  1.00  0.00     0.171 HD
ENDBRANCH   1   7
BRANCH   4  14
ATOM     14  C   UNL     1      50.155  -1.784 -43.370  1.00  0.00     0.163 A 
ATOM     15  N   UNL     1      50.028  -2.498 -42.231  1.00  0.00    -0.210 NA
ATOM     16  N   UNL     1      49.258  -1.732 -44.369  1.00  0.00    -0.208 NA
ATOM     17  C   UNL     1      48.929  -3.268 -41.988  1.00  0.00     0.144 A 
ATOM     18  C   UNL     1      48.168  -2.473 -44.110  1.00  0.00     0.164 A 
ATOM     19  C   UNL     1      47.929  -3.241 -42.982  1.00  0.00     0.082 A 
ATOM     20  N   UNL     1      47.064  -2.601 -44.917  1.00  0.00    -0.244 N 
ATOM     21  C   UNL     1      46.643  -3.774 -43.219  1.00  0.00     0.149 A 
ATOM     22  N   UNL     1      46.112  -3.394 -44.385  1.00  0.00    -0.178 NA
BRANCH  17  23
ATOM     23  N   UNL     1      48.911  -3.996 -40.806  1.00  0.00    -0.351 N 
ATOM     24  C   UNL     1      49.242  -3.408 -39.501  1.00  0.00     0.150 C 
ATOM     25  C   UNL     1      49.031  -5.464 -40.935  1.00  0.00     0.150 C 
ATOM     26  C   UNL     1      48.872  -4.351 -38.332  1.00  0.00     0.138 C 
ATOM     27  C   UNL     1      48.682  -6.188 -39.616  1.00  0.00     0.138 C 
ATOM     28  C   UNL     1      47.380  -4.669 -38.293  1.00  0.00     0.037 C 
ATOM     29  O   UNL     1      49.486  -5.638 -38.551  1.00  0.00    -0.371 OA
ATOM     30  C   UNL     1      47.251  -5.910 -39.165  1.00  0.00     0.037 C 
ENDBRANCH  17  23
BRANCH  20  31
ATOM     31  C   UNL     1      46.863  -1.931 -46.200  1.00  0.00     0.110 C 
ATOM     32  C   UNL     1      45.480  -2.252 -46.789  1.00  0.00     0.033 C 
ATOM     33  C   UNL     1      48.003  -2.162 -47.211  1.00  0.00     0.033 C 
ATOM     34  C   UNL     1      45.432  -3.598 -47.514  1.00  0.00     0.068 C 
ATOM     35  C   UNL     1      47.908  -3.482 -47.982  1.00  0.00     0.068 C 
ATOM     36  C   UNL     1      46.520  -3.707 -48.583  1.00  0.00     0.168 C 
ATOM     37  O   UNL     1      46.293  -2.709 -49.596  1.00  0.00    -0.348 OA
ATOM     38  O   UNL     1      46.456  -5.010 -49.179  1.00  0.00    -0.348 OA
ATOM     39  C   UNL     1      45.830  -3.440 -50.731  1.00  0.00     0.192 C 
ATOM     40  C   UNL     1      46.503  -4.775 -50.584  1.00  0.00     0.192 C 
ENDBRANCH  20  31
ENDBRANCH   4  14
TORSDOF 4
ENDMDL
MODEL 8
REMARK VINA RESULT:    -8.621      4.089      8.557
REMARK INTER + INTRA:         -11.072
REMARK INTER:                 -10.074
REMARK INTRA:                  -0.999
REMARK UNBOUND:                -0.436
REMARK SMILES CNC(=O)Nc1ccc(-c2nc(N3C[C@H]4CC[C@@H](C3)O4)c3cnn(C4CCC5(CC4)OCCO5)c3n2)cc1
REMARK SMILES IDX 6 1 7 2 8 3 9 4 37 5 38 6 5 7 2 8 3 9 4 10 1 11 10 14 11 15
REMARK SMILES IDX 36 16 12 17 35 18 21 19 24 20 22 21 23 22 13 23 14 24 19 25
REMARK SMILES IDX 15 26 18 27 16 28 20 29 17 30 25 31 26 32 30 33 27 34 29 35
REMARK SMILES IDX 28 36 31 37 34 38 32 39 33 40
REMARK H PARENT 2 12 5 13
ROOT
ATOM      1  C   UNL     1      51.594  -1.250 -43.419  1.00  0.00     0.042 A 
ATOM      2  C   UNL     1      51.486  -2.532 -42.872  1.00  0.00     0.027 A 
ATOM      3  C   UNL     1      50.489  -3.415 -43.309  1.00  0.00     0.014 A 
ATOM      4  C   UNL     1      49.558  -3.043 -44.295  1.00  0.00     0.019 A 
ATOM      5  C   UNL     1      49.678  -1.745 -44.823  1.00  0.00     0.014 A 
ATOM      6  C   UNL     1      50.679  -0.861 -44.395  1.00  0.00     0.027 A 
ENDROOT
BRANCH   1   7
ATOM      7  N   UNL     1      52.623  -0.420 -42.933  1.00  0.00    -0.308 N 
ATOM      8  N   UNL     1      54.482   0.886 -42.855  1.00  0.00    -0.341 N 
ATOM      9  C   UNL     1      53.774  -0.043 -43.589  1.00  0.00     0.318 C 
ATOM     10  O   UNL     1      54.172  -0.460 -44.670  1.00  0.00    -0.249 OA
ATOM     11  C   UNL     1      55.751   1.384 -43.323  1.00  0.00     0.144 C 
ATOM     12  H   UNL     1      54.041   1.341 -42.072  1.00  0.00     0.165 HD
ATOM     13  H   UNL     1      52.560  -0.144 -41.968  1.00  0.00     0.171 HD
ENDBRANCH   1   7
BRANCH   4  14
ATOM     14  C   UNL     1      48.504  -3.970 -44.761  1.00  0.00     0.163 A 
ATOM     15  N   UNL     1      47.983  -4.812 -43.842  1.00  0.00    -0.210 NA
ATOM     16  N   UNL     1      48.148  -3.901 -46.054  1.00  0.00    -0.208 NA
ATOM     17  C   UNL     1      47.008  -5.710 -44.165  1.00  0.00     0.144 A 
ATOM     18  C   UNL     1      47.170  -4.771 -46.357  1.00  0.00     0.164 A 
ATOM     19  C   UNL     1      46.561  -5.675 -45.502  1.00  0.00     0.082 A 
ATOM     20  N   UNL     1      46.569  -4.921 -47.583  1.00  0.00    -0.244 N 
ATOM     21  C   UNL     1      45.602  -6.306 -46.325  1.00  0.00     0.149 A 
ATOM     22  N   UNL     1      45.599  -5.858 -47.583  1.00  0.00    -0.178 NA
BRANCH  17  23
ATOM     23  N   UNL     1      46.567  -6.558 -43.158  1.00  0.00    -0.351 N 
ATOM     24  C   UNL     1      45.157  -6.658 -42.760  1.00  0.00     0.150 C 
ATOM     25  C   UNL     1      47.579  -6.993 -42.173  1.00  0.00     0.150 C 
ATOM     26  C   UNL     1      44.904  -7.867 -41.827  1.00  0.00     0.138 C 
ATOM     27  C   UNL     1      47.072  -8.166 -41.306  1.00  0.00     0.138 C 
ATOM     28  C   UNL     1      45.258  -9.195 -42.491  1.00  0.00     0.037 C 
ATOM     29  O   UNL     1      45.811  -7.797 -40.707  1.00  0.00    -0.371 OA
ATOM     30  C   UNL     1      46.726  -9.395 -42.141  1.00  0.00     0.037 C 
ENDBRANCH  17  23
BRANCH  20  31
ATOM     31  C   UNL     1      46.870  -4.140 -48.782  1.00  0.00     0.110 C 
ATOM     32  C   UNL     1      46.029  -2.855 -48.839  1.00  0.00     0.033 C 
ATOM     33  C   UNL     1      46.797  -4.952 -50.090  1.00  0.00     0.033 C 
ATOM     34  C   UNL     1      44.615  -3.084 -49.374  1.00  0.00     0.068 C 
ATOM     35  C   UNL     1      45.383  -5.116 -50.656  1.00  0.00     0.068 C 
ATOM     36  C   UNL     1      44.628  -3.788 -50.731  1.00  0.00     0.168 C 
ATOM     37  O   UNL     1      45.281  -2.945 -51.699  1.00  0.00    -0.348 OA
ATOM     38  O   UNL     1      43.274  -4.024 -51.144  1.00  0.00    -0.348 OA
ATOM     39  C   UNL     1      44.228  -2.470 -52.538  1.00  0.00     0.192 C 
ATOM     40  C   UNL     1      43.222  -3.585 -52.499  1.00  0.00     0.192 C 
ENDBRANCH  20  31
ENDBRANCH   4  14
TORSDOF 4
ENDMDL
MODEL 9
REMARK VINA RESULT:    -8.467      4.707     11.101
REMARK INTER + INTRA:         -10.883
REMARK INTER:                  -9.920
REMARK INTRA:                  -0.964
REMARK UNBOUND:                -0.436
REMARK SMILES CNC(=O)Nc1ccc(-c2nc(N3C[C@H]4CC[C@@H](C3)O4)c3cnn(C4CCC5(CC4)OCCO5)c3n2)cc1
REMARK SMILES IDX 6 1 7 2 8 3 9 4 37 5 38 6 5 7 2 8 3 9 4 10 1 11 10 14 11 15
REMARK SMILES IDX 36 16 12 17 35 18 21 19 24 20 22 21 23 22 13 23 14 24 19 25
REMARK SMILES IDX 15 26 18 27 16 28 20 29 17 30 25 31 26 32 30 33 27 34 29 35
REMARK SMILES IDX 28 36 31 37 34 38 32 39 33 40
REMARK H PARENT 2 12 5 13
ROOT
ATOM      1  C   UNL     1      45.294  -3.113 -51.151  1.00  0.00     0.042 A 
ATOM      2  C   UNL     1      46.583  -3.089 -50.611  1.00  0.00     0.027 A 
ATOM      3  C   UNL     1      46.779  -3.120 -49.223  1.00  0.00     0.014 A 
ATOM      4  C   UNL     1      45.694  -3.159 -48.328  1.00  0.00     0.019 A 
ATOM      5  C   UNL     1      44.406  -3.171 -48.894  1.00  0.00     0.014 A 
ATOM      6  C   UNL     1      44.206  -3.150 -50.281  1.00  0.00     0.027 A 
ENDROOT
BRANCH   1   7
ATOM      7  N   UNL     1      45.176  -3.084 -52.554  1.00  0.00    -0.308 N 
ATOM      8  N   UNL     1      44.823  -2.336 -54.671  1.00  0.00    -0.341 N 
ATOM      9  C   UNL     1      44.647  -2.074 -53.329  1.00  0.00     0.318 C 
ATOM     10  O   UNL     1      44.072  -1.070 -52.931  1.00  0.00    -0.249 OA
ATOM     11  C   UNL     1      44.301  -1.440 -55.672  1.00  0.00     0.144 C 
ATOM     12  H   UNL     1      45.457  -3.066 -54.957  1.00  0.00     0.165 HD
ATOM     13  H   UNL     1      45.418  -3.929 -53.043  1.00  0.00     0.171 HD
ENDBRANCH   1   7
BRANCH   4  14
ATOM     14  C   UNL     1      45.894  -3.192 -46.863  1.00  0.00     0.163 A 
ATOM     15  N   UNL     1      45.210  -4.133 -46.176  1.00  0.00    -0.210 NA
ATOM     16  N   UNL     1      46.737  -2.290 -46.334  1.00  0.00    -0.208 NA
ATOM     17  C   UNL     1      45.318  -4.250 -44.822  1.00  0.00     0.144 A 
ATOM     18  C   UNL     1      46.857  -2.429 -45.003  1.00  0.00     0.164 A 
ATOM     19  C   UNL     1      46.210  -3.353 -44.198  1.00  0.00     0.082 A 
ATOM     20  N   UNL     1      47.663  -1.683 -44.179  1.00  0.00    -0.244 N 
ATOM     21  C   UNL     1      46.717  -3.072 -42.910  1.00  0.00     0.149 A 
ATOM     22  N   UNL     1      47.595  -2.066 -42.887  1.00  0.00    -0.178 NA
BRANCH  17  23
ATOM     23  N   UNL     1      44.543  -5.222 -44.204  1.00  0.00    -0.351 N 
ATOM     24  C   UNL     1      44.622  -6.646 -44.554  1.00  0.00     0.150 C 
ATOM     25  C   UNL     1      43.306  -4.756 -43.543  1.00  0.00     0.150 C 
ATOM     26  C   UNL     1      43.872  -7.534 -43.532  1.00  0.00     0.138 C 
ATOM     27  C   UNL     1      42.697  -5.841 -42.628  1.00  0.00     0.138 C 
ATOM     28  C   UNL     1      44.443  -7.406 -42.123  1.00  0.00     0.037 C 
ATOM     29  O   UNL     1      42.518  -7.053 -43.392  1.00  0.00    -0.371 OA
ATOM     30  C   UNL     1      43.651  -6.258 -41.513  1.00  0.00     0.037 C 
ENDBRANCH  17  23
BRANCH  20  31
ATOM     31  C   UNL     1      48.561  -0.612 -44.606  1.00  0.00     0.110 C 
ATOM     32  C   UNL     1      49.713  -1.156 -45.466  1.00  0.00     0.033 C 
ATOM     33  C   UNL     1      49.056   0.285 -43.454  1.00  0.00     0.033 C 
ATOM     34  C   UNL     1      50.854  -1.747 -44.638  1.00  0.00     0.068 C 
ATOM     35  C   UNL     1      50.245  -0.285 -42.675  1.00  0.00     0.068 C 
ATOM     36  C   UNL     1      51.372  -0.757 -43.594  1.00  0.00     0.168 C 
ATOM     37  O   UNL     1      51.928   0.391 -44.262  1.00  0.00    -0.348 OA
ATOM     38  O   UNL     1      52.396  -1.395 -42.816  1.00  0.00    -0.348 OA
ATOM     39  C   UNL     1      53.340   0.267 -44.088  1.00  0.00     0.192 C 
ATOM     40  C   UNL     1      53.466  -0.454 -42.776  1.00  0.00     0.192 C 
ENDBRANCH  20  31
ENDBRANCH   4  14
TORSDOF 4
ENDMDL
