MODEL 1
REMARK VINA RESULT:    -8.343      0.000      0.000
REMARK INTER + INTRA:          -9.748
REMARK INTER:                  -9.318
REMARK INTRA:                  -0.430
REMARK UNBOUND:                -0.430
REMARK SMILES COc1cccc2cc[n+](-c3cccc(Cl)c3)cc12
REMARK SMILES IDX 3 1 4 2 5 3 6 4 7 5 8 6 9 7 10 8 18 9 19 10 2 11 1 12 11 13
REMARK SMILES IDX 12 14 17 15 13 16 15 17 14 18 16 19
REMARK H PARENT
ROOT
ATOM      1  C   UNL     1     133.864 117.675  39.726  1.00  0.00     0.132 A 
ATOM      2  C   UNL     1     133.562 118.522  40.795  1.00  0.00     0.047 A 
ATOM      3  C   UNL     1     133.018 118.003  41.971  1.00  0.00     0.004 A 
ATOM      4  C   UNL     1     132.772 116.637  42.087  1.00  0.00     0.009 A 
ATOM      5  C   UNL     1     133.068 115.770  41.027  1.00  0.00    -0.003 A 
ATOM      6  C   UNL     1     132.831 114.399  41.128  1.00  0.00     0.080 A 
ATOM      7  C   UNL     1     133.133 113.564  40.060  1.00  0.00     0.315 A 
ATOM      8  N   UNL     1     133.660 114.057  38.913  1.00  0.00    -0.166 N 
ATOM      9  C   UNL     1     133.899 115.387  38.799  1.00  0.00     0.327 A 
ATOM     10  C   UNL     1     133.615 116.286  39.838  1.00  0.00     0.088 A 
ENDROOT
BRANCH   1  11
ATOM     11  O   UNL     1     134.398 118.090  38.532  1.00  0.00    -0.496 OA
ATOM     12  C   UNL     1     134.573 119.493  38.344  1.00  0.00     0.278 C 
ENDBRANCH   1  11
BRANCH   8  13
ATOM     13  C   UNL     1     133.966 113.166  37.807  1.00  0.00     0.212 A 
ATOM     14  C   UNL     1     134.700 111.997  38.042  1.00  0.00     0.080 A 
ATOM     15  C   UNL     1     133.528 113.490  36.520  1.00  0.00     0.100 A 
ATOM     16  C   UNL     1     134.997 111.145  36.976  1.00  0.00     0.008 A 
ATOM     17  C   UNL     1     133.831 112.627  35.467  1.00  0.00     0.047 A 
ATOM     18  C   UNL     1     134.562 111.460  35.688  1.00  0.00     0.021 A 
ATOM     19  Cl  UNL     1     133.291 113.009  33.881  1.00  0.00    -0.084 Cl
ENDBRANCH   8  13
TORSDOF 2
ENDMDL
MODEL 2
REMARK VINA RESULT:    -8.333      1.908      3.162
REMARK INTER + INTRA:          -9.738
REMARK INTER:                  -9.312
REMARK INTRA:                  -0.426
REMARK UNBOUND:                -0.430
REMARK SMILES COc1cccc2cc[n+](-c3cccc(Cl)c3)cc12
REMARK SMILES IDX 3 1 4 2 5 3 6 4 7 5 8 6 9 7 10 8 18 9 19 10 2 11 1 12 11 13
REMARK SMILES IDX 12 14 17 15 13 16 15 17 14 18 16 19
REMARK H PARENT
ROOT
ATOM      1  C   UNL     1     133.134 116.326  41.355  1.00  0.00     0.132 A 
ATOM      2  C   UNL     1     133.052 117.524  42.069  1.00  0.00     0.047 A 
ATOM      3  C   UNL     1     133.400 118.730  41.460  1.00  0.00     0.004 A 
ATOM      4  C   UNL     1     133.831 118.749  40.136  1.00  0.00     0.009 A 
ATOM      5  C   UNL     1     133.920 117.559  39.401  1.00  0.00    -0.003 A 
ATOM      6  C   UNL     1     134.347 117.561  38.073  1.00  0.00     0.080 A 
ATOM      7  C   UNL     1     134.427 116.365  37.371  1.00  0.00     0.315 A 
ATOM      8  N   UNL     1     134.094 115.188  37.952  1.00  0.00    -0.166 N 
ATOM      9  C   UNL     1     133.674 115.169  39.242  1.00  0.00     0.327 A 
ATOM     10  C   UNL     1     133.573 116.338  40.009  1.00  0.00     0.088 A 
ENDROOT
BRANCH   1  11
ATOM     11  O   UNL     1     132.817 115.092  41.866  1.00  0.00    -0.496 OA
ATOM     12  C   UNL     1     131.932 115.053  42.983  1.00  0.00     0.278 C 
ENDBRANCH   1  11
BRANCH   8  13
ATOM     13  C   UNL     1     134.187 113.948  37.200  1.00  0.00     0.212 A 
ATOM     14  C   UNL     1     133.545 113.841  35.960  1.00  0.00     0.080 A 
ATOM     15  C   UNL     1     134.912 112.876  37.726  1.00  0.00     0.100 A 
ATOM     16  C   UNL     1     133.633 112.647  35.241  1.00  0.00     0.008 A 
ATOM     17  C   UNL     1     134.992 111.692  36.994  1.00  0.00     0.047 A 
ATOM     18  C   UNL     1     134.356 111.572  35.759  1.00  0.00     0.021 A 
ATOM     19  Cl  UNL     1     135.888 110.368  37.625  1.00  0.00    -0.084 Cl
ENDBRANCH   8  13
TORSDOF 2
ENDMDL
MODEL 3
REMARK VINA RESULT:    -8.254      3.492      5.373
REMARK INTER + INTRA:          -9.649
REMARK INTER:                  -9.237
REMARK INTRA:                  -0.412
REMARK UNBOUND:                -0.430
REMARK SMILES COc1cccc2cc[n+](-c3cccc(Cl)c3)cc12
REMARK SMILES IDX 3 1 4 2 5 3 6 4 7 5 8 6 9 7 10 8 18 9 19 10 2 11 1 12 11 13
REMARK SMILES IDX 12 14 17 15 13 16 15 17 14 18 16 19
REMARK H PARENT
ROOT
ATOM      1  C   UNL     1     134.129 117.240  38.237  1.00  0.00     0.132 A 
ATOM      2  C   UNL     1     134.368 118.424  37.535  1.00  0.00     0.047 A 
ATOM      3  C   UNL     1     134.245 119.658  38.174  1.00  0.00     0.004 A 
ATOM      4  C   UNL     1     133.882 119.719  39.518  1.00  0.00     0.009 A 
ATOM      5  C   UNL     1     133.638 118.544  40.241  1.00  0.00    -0.003 A 
ATOM      6  C   UNL     1     133.277 118.586  41.587  1.00  0.00     0.080 A 
ATOM      7  C   UNL     1     133.039 117.405  42.278  1.00  0.00     0.315 A 
ATOM      8  N   UNL     1     133.153 116.201  41.667  1.00  0.00    -0.166 N 
ATOM      9  C   UNL     1     133.507 116.142  40.358  1.00  0.00     0.327 A 
ATOM     10  C   UNL     1     133.758 117.296  39.602  1.00  0.00     0.088 A 
ENDROOT
BRANCH   1  11
ATOM     11  O   UNL     1     134.222 115.982  37.696  1.00  0.00    -0.496 OA
ATOM     12  C   UNL     1     133.967 115.849  36.299  1.00  0.00     0.278 C 
ENDBRANCH   1  11
BRANCH   8  13
ATOM     13  C   UNL     1     132.898 114.978  42.406  1.00  0.00     0.212 A 
ATOM     14  C   UNL     1     131.578 114.558  42.615  1.00  0.00     0.080 A 
ATOM     15  C   UNL     1     133.972 114.236  42.904  1.00  0.00     0.100 A 
ATOM     16  C   UNL     1     131.335 113.383  43.330  1.00  0.00     0.008 A 
ATOM     17  C   UNL     1     133.712 113.064  43.614  1.00  0.00     0.047 A 
ATOM     18  C   UNL     1     132.402 112.636  43.830  1.00  0.00     0.021 A 
ATOM     19  Cl  UNL     1     135.024 112.138  44.224  1.00  0.00    -0.084 Cl
ENDBRANCH   8  13
TORSDOF 2
ENDMDL
MODEL 4
REMARK VINA RESULT:    -8.160      3.088      5.226
REMARK INTER + INTRA:          -9.545
REMARK INTER:                  -9.090
REMARK INTRA:                  -0.455
REMARK UNBOUND:                -0.430
REMARK SMILES COc1cccc2cc[n+](-c3cccc(Cl)c3)cc12
REMARK SMILES IDX 3 1 4 2 5 3 6 4 7 5 8 6 9 7 10 8 18 9 19 10 2 11 1 12 11 13
REMARK SMILES IDX 12 14 17 15 13 16 15 17 14 18 16 19
REMARK H PARENT
ROOT
ATOM      1  C   UNL     1     134.195 115.475  36.842  1.00  0.00     0.132 A 
ATOM      2  C   UNL     1     133.994 116.441  35.853  1.00  0.00     0.047 A 
ATOM      3  C   UNL     1     133.809 117.779  36.204  1.00  0.00     0.004 A 
ATOM      4  C   UNL     1     133.823 118.162  37.544  1.00  0.00     0.009 A 
ATOM      5  C   UNL     1     134.024 117.209  38.551  1.00  0.00    -0.003 A 
ATOM      6  C   UNL     1     134.044 117.575  39.897  1.00  0.00     0.080 A 
ATOM      7  C   UNL     1     134.243 116.608  40.874  1.00  0.00     0.315 A 
ATOM      8  N   UNL     1     134.422 115.306  40.545  1.00  0.00    -0.166 N 
ATOM      9  C   UNL     1     134.408 114.933  39.241  1.00  0.00     0.327 A 
ATOM     10  C   UNL     1     134.209 115.857  38.205  1.00  0.00     0.088 A 
ENDROOT
BRANCH   1  11
ATOM     11  O   UNL     1     134.383 114.138  36.596  1.00  0.00    -0.496 OA
ATOM     12  C   UNL     1     133.448 113.491  35.737  1.00  0.00     0.278 C 
ENDBRANCH   1  11
BRANCH   8  13
ATOM     13  C   UNL     1     134.626 114.310  41.583  1.00  0.00     0.212 A 
ATOM     14  C   UNL     1     134.407 114.653  42.923  1.00  0.00     0.080 A 
ATOM     15  C   UNL     1     135.042 113.024  41.231  1.00  0.00     0.100 A 
ATOM     16  C   UNL     1     134.608 113.694  43.919  1.00  0.00     0.008 A 
ATOM     17  C   UNL     1     135.236 112.078  42.238  1.00  0.00     0.047 A 
ATOM     18  C   UNL     1     135.022 112.407  43.576  1.00  0.00     0.021 A 
ATOM     19  Cl  UNL     1     135.739 110.490  41.818  1.00  0.00    -0.084 Cl
ENDBRANCH   8  13
TORSDOF 2
ENDMDL
MODEL 5
REMARK VINA RESULT:    -8.027      5.351      6.611
REMARK INTER + INTRA:          -9.396
REMARK INTER:                  -8.973
REMARK INTRA:                  -0.423
REMARK UNBOUND:                -0.430
REMARK SMILES COc1cccc2cc[n+](-c3cccc(Cl)c3)cc12
REMARK SMILES IDX 3 1 4 2 5 3 6 4 7 5 8 6 9 7 10 8 18 9 19 10 2 11 1 12 11 13
REMARK SMILES IDX 12 14 17 15 13 16 15 17 14 18 16 19
REMARK H PARENT
ROOT
ATOM      1  C   UNL     1     134.398 115.303  42.441  1.00  0.00     0.132 A 
ATOM      2  C   UNL     1     133.061 115.648  42.229  1.00  0.00     0.047 A 
ATOM      3  C   UNL     1     132.734 116.695  41.366  1.00  0.00     0.004 A 
ATOM      4  C   UNL     1     133.737 117.404  40.709  1.00  0.00     0.009 A 
ATOM      5  C   UNL     1     135.084 117.073  40.907  1.00  0.00    -0.003 A 
ATOM      6  C   UNL     1     136.102 117.770  40.255  1.00  0.00     0.080 A 
ATOM      7  C   UNL     1     137.429 117.421  40.472  1.00  0.00     0.315 A 
ATOM      8  N   UNL     1     137.759 116.408  41.309  1.00  0.00    -0.166 N 
ATOM      9  C   UNL     1     136.781 115.718  41.949  1.00  0.00     0.327 A 
ATOM     10  C   UNL     1     135.423 116.020  41.777  1.00  0.00     0.088 A 
ENDROOT
BRANCH   1  11
ATOM     11  O   UNL     1     134.819 114.293  43.270  1.00  0.00    -0.496 OA
ATOM     12  C   UNL     1     134.377 112.971  42.970  1.00  0.00     0.278 C 
ENDBRANCH   1  11
BRANCH   8  13
ATOM     13  C   UNL     1     139.152 116.061  41.524  1.00  0.00     0.212 A 
ATOM     14  C   UNL     1     139.934 116.840  42.387  1.00  0.00     0.080 A 
ATOM     15  C   UNL     1     139.698 114.957  40.864  1.00  0.00     0.100 A 
ATOM     16  C   UNL     1     141.276 116.506  42.589  1.00  0.00     0.008 A 
ATOM     17  C   UNL     1     141.038 114.637  41.078  1.00  0.00     0.047 A 
ATOM     18  C   UNL     1     141.827 115.404  41.934  1.00  0.00     0.021 A 
ATOM     19  Cl  UNL     1     141.719 113.277  40.279  1.00  0.00    -0.084 Cl
ENDBRANCH   8  13
TORSDOF 2
ENDMDL
MODEL 6
REMARK VINA RESULT:    -7.762      3.132      4.945
REMARK INTER + INTRA:          -9.100
REMARK INTER:                  -8.727
REMARK INTRA:                  -0.373
REMARK UNBOUND:                -0.430
REMARK SMILES COc1cccc2cc[n+](-c3cccc(Cl)c3)cc12
REMARK SMILES IDX 3 1 4 2 5 3 6 4 7 5 8 6 9 7 10 8 18 9 19 10 2 11 1 12 11 13
REMARK SMILES IDX 12 14 17 15 13 16 15 17 14 18 16 19
REMARK H PARENT
ROOT
ATOM      1  C   UNL     1     134.213 117.678  38.583  1.00  0.00     0.132 A 
ATOM      2  C   UNL     1     134.061 118.268  37.326  1.00  0.00     0.047 A 
ATOM      3  C   UNL     1     133.938 117.472  36.187  1.00  0.00     0.004 A 
ATOM      4  C   UNL     1     133.965 116.083  36.293  1.00  0.00     0.009 A 
ATOM      5  C   UNL     1     134.116 115.471  37.545  1.00  0.00    -0.003 A 
ATOM      6  C   UNL     1     134.143 114.082  37.671  1.00  0.00     0.080 A 
ATOM      7  C   UNL     1     134.296 113.504  38.924  1.00  0.00     0.315 A 
ATOM      8  N   UNL     1     134.418 114.266  40.037  1.00  0.00    -0.166 N 
ATOM      9  C   UNL     1     134.392 115.619  39.933  1.00  0.00     0.327 A 
ATOM     10  C   UNL     1     134.243 116.267  38.698  1.00  0.00     0.088 A 
ENDROOT
BRANCH   1  11
ATOM     11  O   UNL     1     134.344 118.374  39.758  1.00  0.00    -0.496 OA
ATOM     12  C   UNL     1     135.620 118.942  40.045  1.00  0.00     0.278 C 
ENDBRANCH   1  11
BRANCH   8  13
ATOM     13  C   UNL     1     134.580 113.641  41.338  1.00  0.00     0.212 A 
ATOM     14  C   UNL     1     133.915 114.174  42.449  1.00  0.00     0.080 A 
ATOM     15  C   UNL     1     135.400 112.518  41.466  1.00  0.00     0.100 A 
ATOM     16  C   UNL     1     134.075 113.574  43.700  1.00  0.00     0.008 A 
ATOM     17  C   UNL     1     135.548 111.929  42.722  1.00  0.00     0.047 A 
ATOM     18  C   UNL     1     134.892 112.451  43.836  1.00  0.00     0.021 A 
ATOM     19  Cl  UNL     1     136.547 110.541  42.891  1.00  0.00    -0.084 Cl
ENDBRANCH   8  13
TORSDOF 2
ENDMDL
MODEL 7
REMARK VINA RESULT:    -7.754      2.826      6.389
REMARK INTER + INTRA:          -9.091
REMARK INTER:                  -8.636
REMARK INTRA:                  -0.455
REMARK UNBOUND:                -0.430
REMARK SMILES COc1cccc2cc[n+](-c3cccc(Cl)c3)cc12
REMARK SMILES IDX 3 1 4 2 5 3 6 4 7 5 8 6 9 7 10 8 18 9 19 10 2 11 1 12 11 13
REMARK SMILES IDX 12 14 17 15 13 16 15 17 14 18 16 19
REMARK H PARENT
ROOT
ATOM      1  C   UNL     1     134.868 111.981  37.086  1.00  0.00     0.132 A 
ATOM      2  C   UNL     1     135.418 110.867  36.447  1.00  0.00     0.047 A 
ATOM      3  C   UNL     1     135.772 109.738  37.185  1.00  0.00     0.004 A 
ATOM      4  C   UNL     1     135.581 109.712  38.565  1.00  0.00     0.009 A 
ATOM      5  C   UNL     1     135.030 110.818  39.225  1.00  0.00    -0.003 A 
ATOM      6  C   UNL     1     134.828 110.808  40.605  1.00  0.00     0.080 A 
ATOM      7  C   UNL     1     134.282 111.921  41.233  1.00  0.00     0.315 A 
ATOM      8  N   UNL     1     133.936 113.024  40.527  1.00  0.00    -0.166 N 
ATOM      9  C   UNL     1     134.123 113.049  39.183  1.00  0.00     0.327 A 
ATOM     10  C   UNL     1     134.672 111.962  38.488  1.00  0.00     0.088 A 
ENDROOT
BRANCH   1  11
ATOM     11  O   UNL     1     134.491 113.137  36.448  1.00  0.00    -0.496 OA
ATOM     12  C   UNL     1     133.474 113.035  35.454  1.00  0.00     0.278 C 
ENDBRANCH   1  11
BRANCH   8  13
ATOM     13  C   UNL     1     133.368 114.177  41.203  1.00  0.00     0.212 A 
ATOM     14  C   UNL     1     132.588 113.992  42.351  1.00  0.00     0.080 A 
ATOM     15  C   UNL     1     133.605 115.458  40.697  1.00  0.00     0.100 A 
ATOM     16  C   UNL     1     132.040 115.103  42.996  1.00  0.00     0.008 A 
ATOM     17  C   UNL     1     133.053 116.556  41.355  1.00  0.00     0.047 A 
ATOM     18  C   UNL     1     132.272 116.385  42.498  1.00  0.00     0.021 A 
ATOM     19  Cl  UNL     1     133.343 118.137  40.748  1.00  0.00    -0.084 Cl
ENDBRANCH   8  13
TORSDOF 2
ENDMDL
MODEL 8
REMARK VINA RESULT:    -7.647      3.323      5.537
REMARK INTER + INTRA:          -8.972
REMARK INTER:                  -8.530
REMARK INTRA:                  -0.442
REMARK UNBOUND:                -0.430
REMARK SMILES COc1cccc2cc[n+](-c3cccc(Cl)c3)cc12
REMARK SMILES IDX 3 1 4 2 5 3 6 4 7 5 8 6 9 7 10 8 18 9 19 10 2 11 1 12 11 13
REMARK SMILES IDX 12 14 17 15 13 16 15 17 14 18 16 19
REMARK H PARENT
ROOT
ATOM      1  C   UNL     1     135.969 112.663  41.478  1.00  0.00     0.132 A 
ATOM      2  C   UNL     1     136.021 111.682  42.471  1.00  0.00     0.047 A 
ATOM      3  C   UNL     1     135.326 111.854  43.668  1.00  0.00     0.004 A 
ATOM      4  C   UNL     1     134.574 113.007  43.883  1.00  0.00     0.009 A 
ATOM      5  C   UNL     1     134.507 114.003  42.900  1.00  0.00    -0.003 A 
ATOM      6  C   UNL     1     133.756 115.163  43.097  1.00  0.00     0.080 A 
ATOM      7  C   UNL     1     133.709 116.134  42.106  1.00  0.00     0.315 A 
ATOM      8  N   UNL     1     134.382 115.978  40.940  1.00  0.00    -0.166 N 
ATOM      9  C   UNL     1     135.115 114.855  40.731  1.00  0.00     0.327 A 
ATOM     10  C   UNL     1     135.207 113.837  41.691  1.00  0.00     0.088 A 
ENDROOT
BRANCH   1  11
ATOM     11  O   UNL     1     136.619 112.585  40.271  1.00  0.00    -0.496 OA
ATOM     12  C   UNL     1     137.859 111.882  40.239  1.00  0.00     0.278 C 
ENDBRANCH   1  11
BRANCH   8  13
ATOM     13  C   UNL     1     134.322 117.007  39.917  1.00  0.00     0.212 A 
ATOM     14  C   UNL     1     134.324 118.357  40.292  1.00  0.00     0.080 A 
ATOM     15  C   UNL     1     134.260 116.639  38.571  1.00  0.00     0.100 A 
ATOM     16  C   UNL     1     134.263 119.345  39.307  1.00  0.00     0.008 A 
ATOM     17  C   UNL     1     134.201 117.638  37.600  1.00  0.00     0.047 A 
ATOM     18  C   UNL     1     134.201 118.985  37.960  1.00  0.00     0.021 A 
ATOM     19  Cl  UNL     1     134.132 117.198  35.940  1.00  0.00    -0.084 Cl
ENDBRANCH   8  13
TORSDOF 2
ENDMDL
MODEL 9
REMARK VINA RESULT:    -7.600      5.446      5.926
REMARK INTER + INTRA:          -8.918
REMARK INTER:                  -8.553
REMARK INTRA:                  -0.366
REMARK UNBOUND:                -0.430
REMARK SMILES COc1cccc2cc[n+](-c3cccc(Cl)c3)cc12
REMARK SMILES IDX 3 1 4 2 5 3 6 4 7 5 8 6 9 7 10 8 18 9 19 10 2 11 1 12 11 13
REMARK SMILES IDX 12 14 17 15 13 16 15 17 14 18 16 19
REMARK H PARENT
ROOT
ATOM      1  C   UNL     1     139.112 116.131  41.712  1.00  0.00     0.132 A 
ATOM      2  C   UNL     1     139.976 116.904  42.490  1.00  0.00     0.047 A 
ATOM      3  C   UNL     1     141.321 116.553  42.608  1.00  0.00     0.004 A 
ATOM      4  C   UNL     1     141.813 115.427  41.950  1.00  0.00     0.009 A 
ATOM      5  C   UNL     1     140.963 114.638  41.163  1.00  0.00    -0.003 A 
ATOM      6  C   UNL     1     141.439 113.510  40.495  1.00  0.00     0.080 A 
ATOM      7  C   UNL     1     140.573 112.745  39.724  1.00  0.00     0.315 A 
ATOM      8  N   UNL     1     139.265 113.076  39.604  1.00  0.00    -0.166 N 
ATOM      9  C   UNL     1     138.786 114.172  40.245  1.00  0.00     0.327 A 
ATOM     10  C   UNL     1     139.605 114.985  41.042  1.00  0.00     0.088 A 
ENDROOT
BRANCH   1  11
ATOM     11  O   UNL     1     137.776 116.393  41.537  1.00  0.00    -0.496 OA
ATOM     12  C   UNL     1     137.422 117.373  40.563  1.00  0.00     0.278 C 
ENDBRANCH   1  11
BRANCH   8  13
ATOM     13  C   UNL     1     138.376 112.261  38.795  1.00  0.00     0.212 A 
ATOM     14  C   UNL     1     138.749 110.954  38.458  1.00  0.00     0.080 A 
ATOM     15  C   UNL     1     137.159 112.793  38.359  1.00  0.00     0.100 A 
ATOM     16  C   UNL     1     137.893 110.175  37.676  1.00  0.00     0.008 A 
ATOM     17  C   UNL     1     136.316 112.001  37.581  1.00  0.00     0.047 A 
ATOM     18  C   UNL     1     136.677 110.698  37.238  1.00  0.00     0.021 A 
ATOM     19  Cl  UNL     1     134.813 112.640  37.046  1.00  0.00    -0.084 Cl
ENDBRANCH   8  13
TORSDOF 2
ENDMDL
