REMARK SMILES C[C@]1(C(=O)O)CCc2ccc(OCCCOc3ccc(Oc4ccc(F)cc4)cc3Cl)cc2O1
REMARK SMILES IDX 14 1 13 2 12 3 11 4 2 5 6 6 34 7 7 8 33 9 8 10 32 11 9 12
REMARK SMILES IDX 10 13 1 14 3 15 4 16 5 17 15 19 16 20 17 21 18 22 30 23
REMARK SMILES IDX 19 24 29 25 20 26 31 27 21 28 22 29 23 30 28 31 24 32 27 33
REMARK SMILES IDX 25 34 26 35
REMARK H PARENT 5 18
REMARK INDEX MAP 14 1 13 2 12 3 11 4 2 5 6 6 34 7 7 8 33 9 8 10 32 11 9 12
REMARK INDEX MAP 10 13 1 14 3 15 4 16 5 17 38 18 15 19 16 20 17 21 18 22 30 23
REMARK INDEX MAP 19 24 29 25 20 26 31 27 21 28 22 29 23 30 28 31 24 32 27 33
REMARK INDEX MAP 25 34 26 35
ROOT
ATOM      1  C   UNL     1       6.462   4.029  -2.029  1.00  0.00     0.083 C 
ENDROOT
BRANCH   1   2
ATOM      2  C   UNL     1       6.073   4.240  -0.569  1.00  0.00     0.233 C 
BRANCH   2   3
ATOM      3  O   UNL     1       4.683   4.565  -0.536  1.00  0.00    -0.493 OA
BRANCH   3   4
ATOM      4  C   UNL     1       4.175   5.234  -1.616  1.00  0.00     0.123 A 
ATOM      5  C   UNL     1       4.954   8.974  -4.518  1.00  0.00     0.203 C 
ATOM      6  C   UNL     1       3.459   9.049  -4.858  1.00  0.00     0.065 C 
ATOM      7  O   UNL     1       5.160   8.335  -3.249  1.00  0.00    -0.475 OA
ATOM      8  C   UNL     1       2.867   7.648  -4.942  1.00  0.00     0.044 C 
ATOM      9  C   UNL     1       4.435   7.196  -3.021  1.00  0.00     0.127 A 
ATOM     10  C   UNL     1       3.329   6.815  -3.783  1.00  0.00    -0.005 A 
ATOM     11  C   UNL     1       4.844   6.417  -1.939  1.00  0.00     0.093 A 
ATOM     12  C   UNL     1       2.665   5.624  -3.468  1.00  0.00     0.011 A 
ATOM     13  C   UNL     1       3.084   4.839  -2.389  1.00  0.00     0.047 A 
ATOM     14  C   UNL     1       5.513  10.394  -4.358  1.00  0.00     0.069 C 
BRANCH   5  15
ATOM     15  C   UNL     1       5.778   8.292  -5.627  1.00  0.00     0.347 C 
ATOM     16  O   UNL     1       5.648   7.159  -6.062  1.00  0.00    -0.248 OA
BRANCH  15  17
ATOM     17  O   UNL     1       6.767   9.073  -6.121  1.00  0.00    -0.478 OA
ATOM     18  H   UNL     1       7.357   8.730  -6.839  1.00  0.00     0.296 HD
ENDBRANCH  15  17
ENDBRANCH   5  15
ENDBRANCH   3   4
ENDBRANCH   2   3
ENDBRANCH   1   2
BRANCH   1  19
ATOM     19  C   UNL     1       7.959   3.789  -2.203  1.00  0.00     0.233 C 
BRANCH  19  20
ATOM     20  O   UNL     1       8.240   2.610  -2.955  1.00  0.00    -0.492 OA
BRANCH  20  21
ATOM     21  C   UNL     1       9.537   2.201  -3.116  1.00  0.00     0.138 A 
ATOM     22  C   UNL     1      10.325   1.636  -2.108  1.00  0.00     0.052 A 
ATOM     23  C   UNL     1      10.092   2.362  -4.399  1.00  0.00     0.086 A 
ATOM     24  C   UNL     1      11.642   1.247  -2.374  1.00  0.00     0.051 A 
ATOM     25  C   UNL     1      11.407   1.976  -4.667  1.00  0.00     0.071 A 
ATOM     26  C   UNL     1      12.172   1.403  -3.656  1.00  0.00     0.129 A 
ATOM     27  Cl  UNL     1       9.177   3.065  -5.691  1.00  0.00    -0.080 Cl
BRANCH  26  28
ATOM     28  O   UNL     1      13.474   1.076  -3.957  1.00  0.00    -0.457 OA
BRANCH  28  29
ATOM     29  C   UNL     1      14.447   1.507  -3.082  1.00  0.00     0.127 A 
ATOM     30  C   UNL     1      15.493   0.621  -2.816  1.00  0.00     0.050 A 
ATOM     31  C   UNL     1      14.374   2.737  -2.419  1.00  0.00     0.050 A 
ATOM     32  C   UNL     1      16.492   0.981  -1.911  1.00  0.00     0.043 A 
ATOM     33  C   UNL     1      15.373   3.093  -1.512  1.00  0.00     0.043 A 
ATOM     34  C   UNL     1      16.423   2.215  -1.268  1.00  0.00     0.123 A 
ATOM     35  F   UNL     1      17.380   2.558  -0.396  1.00  0.00    -0.207 F 
ENDBRANCH  28  29
ENDBRANCH  26  28
ENDBRANCH  20  21
ENDBRANCH  19  20
ENDBRANCH   1  19
TORSDOF 10
