REMARK VINA RESULT:    -8.105      3.653     11.499
REMARK INTER + INTRA:         -13.336
REMARK INTER:                 -11.986
REMARK INTRA:                  -1.351
REMARK UNBOUND:                -1.204
REMARK SMILES N=C(N)c1cccc(C2=NO[C@](Cn3cnnn3)(C(=O)Nc3ncc(-c4ccccc4S(N)(=O)=O)cn3)C2)c1
REMARK SMILES IDX 22 1 23 2 24 3 25 4 36 5 37 6 21 7 19 8 20 9 12 11 9 12
REMARK SMILES IDX 10 13 38 14 11 15 8 16 4 17 5 18 39 19 6 20 7 21 2 22 1 23
REMARK SMILES IDX 3 24 13 28 14 29 15 30 18 31 16 32 17 33 26 34 27 35 31 36
REMARK SMILES IDX 28 37 30 38 29 39 32 40 34 41 35 42 33 43
REMARK H PARENT 21 10 1 25 3 26 3 27 33 44 33 45
ROOT
ATOM      1  C   UNL     1     130.819 -17.159 164.166  1.00  0.00     0.229 A 
ATOM      2  N   UNL     1     131.117 -15.853 164.201  1.00  0.00    -0.221 NA
ATOM      3  C   UNL     1     130.126 -14.994 163.872  1.00  0.00     0.125 A 
ATOM      4  C   UNL     1     128.847 -15.382 163.520  1.00  0.00     0.020 A 
ATOM      5  C   UNL     1     128.658 -16.750 163.534  1.00  0.00     0.125 A 
ATOM      6  N   UNL     1     129.619 -17.646 163.844  1.00  0.00    -0.221 NA
ENDROOT
BRANCH   1   7
ATOM      7  N   UNL     1     131.867 -17.987 164.524  1.00  0.00    -0.291 N 
ATOM      8  C   UNL     1     132.262 -18.307 165.802  1.00  0.00     0.276 C 
ATOM      9  O   UNL     1     131.709 -17.961 166.842  1.00  0.00    -0.270 OA
ATOM     10  H   UNL     1     132.335 -18.410 163.733  1.00  0.00     0.173 HD
BRANCH   8  11
ATOM     11  C   UNL     1     133.558 -19.130 165.841  1.00  0.00     0.240 C 
ATOM     12  C   UNL     1     135.376 -19.098 167.232  1.00  0.00     0.092 C 
ATOM     13  N   UNL     1     135.734 -18.425 166.183  1.00  0.00    -0.089 NA
ATOM     14  C   UNL     1     133.929 -19.450 167.280  1.00  0.00     0.124 C 
ATOM     15  O   UNL     1     134.603 -18.271 165.354  1.00  0.00    -0.376 OA
BRANCH  12  16
ATOM     16  C   UNL     1     136.313 -19.471 168.314  1.00  0.00     0.000 A 
ATOM     17  C   UNL     1     136.938 -19.566 170.650  1.00  0.00     0.017 A 
ATOM     18  C   UNL     1     138.148 -20.181 170.311  1.00  0.00     0.012 A 
ATOM     19  C   UNL     1     136.019 -19.208 169.657  1.00  0.00     0.022 A 
ATOM     20  C   UNL     1     138.437 -20.446 168.973  1.00  0.00     0.001 A 
ATOM     21  C   UNL     1     137.524 -20.092 167.979  1.00  0.00     0.010 A 
BRANCH  17  22
ATOM     22  C   UNL     1     136.635 -19.266 172.072  1.00  0.00     0.122 C 
ATOM     23  N   UNL     1     137.011 -18.165 172.639  1.00  0.00    -0.284 NA
ATOM     24  N   UNL     1     135.957 -20.162 172.829  1.00  0.00    -0.384 N 
ATOM     25  H   UNL     1     137.469 -17.538 171.970  1.00  0.00     0.189 HD
ATOM     26  H   UNL     1     135.688 -21.080 172.507  1.00  0.00     0.158 HD
ATOM     27  H   UNL     1     135.782 -19.912 173.794  1.00  0.00     0.158 HD
ENDBRANCH  17  22
ENDBRANCH  12  16
BRANCH  11  28
ATOM     28  C   UNL     1     133.422 -20.339 164.910  1.00  0.00     0.210 C 
BRANCH  28  29
ATOM     29  N   UNL     1     134.414 -20.385 163.863  1.00  0.00    -0.228 N 
ATOM     30  C   UNL     1     135.605 -21.037 163.837  1.00  0.00     0.246 A 
ATOM     31  N   UNL     1     134.229 -19.728 162.706  1.00  0.00    -0.045 NA
ATOM     32  N   UNL     1     136.178 -20.801 162.679  1.00  0.00    -0.117 NA
ATOM     33  N   UNL     1     135.311 -19.988 161.987  1.00  0.00    -0.024 NA
ENDBRANCH  28  29
ENDBRANCH  11  28
ENDBRANCH   8  11
ENDBRANCH   1   7
BRANCH   4  34
ATOM     34  C   UNL     1     127.776 -14.439 163.201  1.00  0.00     0.005 A 
ATOM     35  C   UNL     1     126.970 -13.974 164.260  1.00  0.00     0.010 A 
ATOM     36  C   UNL     1     127.481 -13.969 161.904  1.00  0.00     0.090 A 
ATOM     37  C   UNL     1     125.922 -13.075 164.042  1.00  0.00     0.001 A 
ATOM     38  C   UNL     1     126.430 -13.063 161.688  1.00  0.00     0.022 A 
ATOM     39  C   UNL     1     125.653 -12.619 162.756  1.00  0.00     0.001 A 
BRANCH  36  40
ATOM     40  S   UNL     1     128.409 -14.494 160.482  1.00  0.00     0.238 S 
ATOM     41  O   UNL     1     129.732 -13.915 160.540  1.00  0.00    -0.207 OA
ATOM     42  O   UNL     1     128.200 -15.909 160.289  1.00  0.00    -0.207 OA
BRANCH  40  43
ATOM     43  N   UNL     1     127.649 -13.700 159.214  1.00  0.00    -0.225 NA
ATOM     44  H   UNL     1     127.445 -12.733 159.473  1.00  0.00     0.137 HD
ATOM     45  H   UNL     1     126.825 -14.225 158.921  1.00  0.00     0.137 HD
ENDBRANCH  40  43
ENDBRANCH  36  40
ENDBRANCH   4  34
TORSDOF 9
