REMARK VINA RESULT:    -8.210      4.067      9.368
REMARK INTER + INTRA:         -12.141
REMARK INTER:                 -12.027
REMARK INTRA:                  -0.115
REMARK UNBOUND:                -0.812
REMARK SMILES COc1cc(/C=C(\C#N)C(N)=O)cc(CSc2nc3ccccc3s2)c1O
REMARK SMILES IDX 3 1 4 2 5 3 13 4 14 5 26 6 2 7 1 8 27 9 6 11 7 12 8 13 9 14
REMARK SMILES IDX 10 15 11 16 12 17 15 20 16 21 17 22 18 23 25 24 19 25 24 26
REMARK SMILES IDX 20 27 23 28 21 29 22 30
REMARK H PARENT 27 10 11 18 11 19
ROOT
ATOM      1  C   UNL     1      12.543   4.518  26.855  1.00  0.00     0.161 A 
ATOM      2  C   UNL     1      13.739   4.389  26.151  1.00  0.00     0.058 A 
ATOM      3  C   UNL     1      14.461   3.187  26.201  1.00  0.00    -0.020 A 
ATOM      4  C   UNL     1      13.953   2.105  26.934  1.00  0.00     0.016 A 
ATOM      5  C   UNL     1      12.741   2.208  27.636  1.00  0.00     0.009 A 
ATOM      6  C   UNL     1      12.056   3.425  27.586  1.00  0.00     0.161 A 
ENDROOT
BRANCH   1   7
ATOM      7  O   UNL     1      11.752   5.640  26.902  1.00  0.00    -0.493 OA
ATOM      8  C   UNL     1      11.745   6.464  25.741  1.00  0.00     0.278 C 
ENDBRANCH   1   7
BRANCH   6   9
ATOM      9  O   UNL     1      10.875   3.557  28.269  1.00  0.00    -0.504 OA
ATOM     10  H   UNL     1      10.509   4.417  27.982  1.00  0.00     0.293 HD
ENDBRANCH   6   9
BRANCH   3  11
ATOM     11  C   UNL     1      15.725   3.008  25.469  1.00  0.00     0.033 C 
ATOM     12  C   UNL     1      15.976   3.397  24.203  1.00  0.00     0.117 C 
ATOM     13  C   UNL     1      15.017   4.045  23.381  1.00  0.00     0.105 C 
ATOM     14  N   UNL     1      14.256   4.554  22.668  1.00  0.00    -0.192 NA
BRANCH  12  15
ATOM     15  C   UNL     1      17.348   3.127  23.672  1.00  0.00     0.259 C 
ATOM     16  N   UNL     1      18.284   2.676  24.554  1.00  0.00    -0.365 N 
ATOM     17  O   UNL     1      17.653   3.296  22.496  1.00  0.00    -0.269 OA
ATOM     18  H   UNL     1      19.211   2.493  24.189  1.00  0.00     0.159 HD
ATOM     19  H   UNL     1      18.129   2.501  25.539  1.00  0.00     0.159 HD
ENDBRANCH  12  15
ENDBRANCH   3  11
BRANCH   5  20
ATOM     20  C   UNL     1      12.228   1.037  28.437  1.00  0.00     0.117 C 
BRANCH  20  21
ATOM     21  S   UNL     1      12.415   1.325  30.222  1.00  0.00    -0.091 SA
BRANCH  21  22
ATOM     22  C   UNL     1      10.961   0.557  30.819  1.00  0.00     0.151 A 
ATOM     23  N   UNL     1      10.822  -0.748  30.841  1.00  0.00    -0.230 NA
ATOM     24  S   UNL     1       9.644   1.467  31.426  1.00  0.00    -0.108 S 
ATOM     25  C   UNL     1       9.581  -1.074  31.364  1.00  0.00     0.083 A 
ATOM     26  C   UNL     1       8.786   0.009  31.745  1.00  0.00     0.055 A 
ATOM     27  C   UNL     1       9.076  -2.379  31.537  1.00  0.00     0.030 A 
ATOM     28  C   UNL     1       7.505  -0.165  32.292  1.00  0.00     0.021 A 
ATOM     29  C   UNL     1       7.800  -2.565  32.081  1.00  0.00     0.002 A 
ATOM     30  C   UNL     1       7.027  -1.469  32.454  1.00  0.00     0.002 A 
ENDBRANCH  21  22
ENDBRANCH  20  21
ENDBRANCH   5  20
TORSDOF 7
