REMARK SMILES N#CCc1ccc(NC(=O)Cc2nc3cnc4[nH]ccc4c3n2[C@H]2CC[C@H](CC#N)CC2)cc1
REMARK SMILES IDX 11 1 9 2 8 3 10 4 7 6 4 7 5 8 34 9 6 10 33 11 3 12 1 13 2 14
REMARK SMILES IDX 12 15 13 16 23 17 14 18 22 19 15 20 21 21 16 22 20 23 17 24
REMARK SMILES IDX 19 25 18 26 24 28 25 29 32 30 26 31 31 32 27 33 28 34 29 35
REMARK SMILES IDX 30 36
REMARK H PARENT 8 5 18 27
REMARK INDEX MAP 11 1 9 2 8 3 10 4 39 5 7 6 4 7 5 8 34 9 6 10 33 11 3 12 1 13
REMARK INDEX MAP 2 14 12 15 13 16 23 17 14 18 22 19 15 20 21 21 16 22 20 23
REMARK INDEX MAP 17 24 19 25 18 26 43 27 24 28 25 29 32 30 26 31 31 32 27 33
REMARK INDEX MAP 28 34 29 35 30 36
ROOT
ATOM      1  C   UNL     1      -3.038  25.805 -29.163  1.00  0.00     0.175 C 
ENDROOT
BRANCH   1   2
ATOM      2  C   UNL     1      -3.954  26.985 -28.864  1.00  0.00     0.231 C 
ATOM      3  N   UNL     1      -3.267  28.147 -28.563  1.00  0.00    -0.326 N 
ATOM      4  O   UNL     1      -5.175  26.858 -28.946  1.00  0.00    -0.274 OA
ATOM      5  H   UNL     1      -2.245  28.054 -28.479  1.00  0.00     0.169 HD
BRANCH   3   6
ATOM      6  C   UNL     1      -3.783  29.438 -28.357  1.00  0.00     0.041 A 
ATOM      7  C   UNL     1      -4.755  32.018 -27.764  1.00  0.00    -0.034 A 
ATOM      8  C   UNL     1      -4.467  31.112 -26.734  1.00  0.00     0.007 A 
ATOM      9  C   UNL     1      -4.550  31.617 -29.091  1.00  0.00     0.007 A 
ATOM     10  C   UNL     1      -3.988  29.834 -27.032  1.00  0.00     0.026 A 
ATOM     11  C   UNL     1      -4.070  30.338 -29.382  1.00  0.00     0.026 A 
BRANCH   7  12
ATOM     12  C   UNL     1      -5.243  33.410 -27.449  1.00  0.00     0.155 C 
ATOM     13  N   UNL     1      -4.921  34.071 -24.928  1.00  0.00    -0.198 NA
ATOM     14  C   UNL     1      -5.067  33.765 -26.036  1.00  0.00     0.067 C 
ENDBRANCH   7  12
ENDBRANCH   3   6
ENDBRANCH   1   2
BRANCH   1  15
ATOM     15  C   UNL     1      -2.477  25.250 -27.893  1.00  0.00     0.119 A 
ATOM     16  N   UNL     1      -2.023  26.044 -26.933  1.00  0.00    -0.231 NA
ATOM     17  N   UNL     1      -2.342  23.905 -27.546  1.00  0.00    -0.324 N 
ATOM     18  C   UNL     1      -1.531  25.215 -25.966  1.00  0.00     0.108 A 
ATOM     19  C   UNL     1      -1.682  23.899 -26.361  1.00  0.00     0.081 A 
ATOM     20  C   UNL     1      -0.919  25.496 -24.732  1.00  0.00     0.144 A 
ATOM     21  C   UNL     1      -1.186  22.910 -25.561  1.00  0.00     0.045 A 
ATOM     22  N   UNL     1      -0.450  24.519 -23.902  1.00  0.00    -0.236 NA
ATOM     23  C   UNL     1      -1.098  21.504 -25.717  1.00  0.00     0.032 A 
ATOM     24  C   UNL     1      -0.596  23.268 -24.368  1.00  0.00     0.139 A 
ATOM     25  C   UNL     1      -0.473  21.041 -24.570  1.00  0.00     0.085 A 
ATOM     26  N   UNL     1      -0.182  22.118 -23.760  1.00  0.00    -0.346 N 
ATOM     27  H   UNL     1       0.277  22.063 -22.839  1.00  0.00     0.167 HD
BRANCH  17  28
ATOM     28  C   UNL     1      -2.839  22.759 -28.297  1.00  0.00     0.089 C 
ATOM     29  C   UNL     1      -1.842  22.285 -29.368  1.00  0.00     0.026 C 
ATOM     30  C   UNL     1      -4.272  22.917 -28.839  1.00  0.00     0.026 C 
ATOM     31  C   UNL     1      -2.346  21.045 -30.111  1.00  0.00     0.007 C 
ATOM     32  C   UNL     1      -4.739  21.643 -29.550  1.00  0.00     0.007 C 
ATOM     33  C   UNL     1      -3.765  21.247 -30.673  1.00  0.00     0.003 C 
BRANCH  33  34
ATOM     34  C   UNL     1      -4.266  20.030 -31.476  1.00  0.00     0.123 C 
ATOM     35  C   UNL     1      -5.658  20.157 -31.930  1.00  0.00     0.062 C 
ATOM     36  N   UNL     1      -6.761  20.262 -32.274  1.00  0.00    -0.198 NA
ENDBRANCH  33  34
ENDBRANCH  17  28
ENDBRANCH   1  15
TORSDOF 6
