REMARK SMILES N=C(N)NCCC[C@H](NC(=O)CN1CCN(S(=O)(=O)Cc2ccccc2)[C@H](CCC(=O)O)C1=O)C(=O)c1nccs1
REMARK SMILES IDX 9 1 10 2 11 3 8 5 7 6 6 7 5 8 4 9 1 10 2 11 3 12 35 17 36 18
REMARK SMILES IDX 37 19 38 20 41 21 39 22 40 23 12 24 13 25 14 26 33 27 15 28
REMARK SMILES IDX 27 29 34 30 16 31 28 32 29 33 30 34 31 35 32 36 17 38 18 39
REMARK SMILES IDX 19 40 20 41 21 42 22 43 26 44 23 45 25 46 24 47
REMARK H PARENT 9 4 1 13 3 14 3 15 4 16 32 37
REMARK INDEX MAP 9 1 10 2 11 3 53 4 8 5 7 6 6 7 5 8 4 9 1 10 2 11 3 12 42 13
REMARK INDEX MAP 43 14 44 15 45 16 35 17 36 18 37 19 38 20 41 21 39 22 40 23
REMARK INDEX MAP 12 24 13 25 14 26 33 27 15 28 27 29 34 30 16 31 28 32 29 33
REMARK INDEX MAP 30 34 31 35 32 36 72 37 17 38 18 39 19 40 20 41 21 42 22 43
REMARK INDEX MAP 26 44 23 45 25 46 24 47
ROOT
ATOM      1  N   UNL     1      -4.998  13.362  23.909  1.00  0.00    -0.344 N 
ATOM      2  C   UNL     1      -6.161  12.847  23.387  1.00  0.00     0.240 C 
ATOM      3  O   UNL     1      -7.060  12.392  24.099  1.00  0.00    -0.273 OA
ATOM      4  H   UNL     1      -4.306  13.760  23.259  1.00  0.00     0.164 HD
ENDROOT
BRANCH   1   5
ATOM      5  C   UNL     1      -4.692  13.374  25.341  1.00  0.00     0.156 C 
BRANCH   5   6
ATOM      6  C   UNL     1      -3.305  12.767  25.607  1.00  0.00     0.035 C 
BRANCH   6   7
ATOM      7  C   UNL     1      -2.554  12.305  24.348  1.00  0.00     0.024 C 
BRANCH   7   8
ATOM      8  C   UNL     1      -2.489  10.787  24.150  1.00  0.00     0.116 C 
BRANCH   8   9
ATOM      9  N   UNL     1      -1.302  10.238  24.757  1.00  0.00    -0.357 N 
ATOM     10  N   UNL     1      -2.139   9.313  26.760  1.00  0.00    -0.270 NA
ATOM     11  C   UNL     1      -1.194   9.642  25.959  1.00  0.00     0.185 C 
ATOM     12  N   UNL     1       0.076   9.403  26.303  1.00  0.00    -0.370 N 
ATOM     13  H   UNL     1      -3.119   9.494  26.502  1.00  0.00     0.191 HD
ATOM     14  H   UNL     1       0.841   9.665  25.664  1.00  0.00     0.159 HD
ATOM     15  H   UNL     1       0.290   8.957  27.207  1.00  0.00     0.159 HD
ATOM     16  H   UNL     1      -0.435  10.310  24.206  1.00  0.00     0.163 HD
ENDBRANCH   8   9
ENDBRANCH   7   8
ENDBRANCH   6   7
ENDBRANCH   5   6
BRANCH   5  17
ATOM     17  C   UNL     1      -4.720  14.843  25.806  1.00  0.00     0.213 C 
ATOM     18  O   UNL     1      -4.796  15.103  27.015  1.00  0.00    -0.289 OA
BRANCH  17  19
ATOM     19  C   UNL     1      -4.674  15.846  24.752  1.00  0.00     0.161 A 
ATOM     20  N   UNL     1      -3.575  16.161  24.092  1.00  0.00    -0.241 NA
ATOM     21  S   UNL     1      -6.088  16.703  24.290  1.00  0.00    -0.119 S 
ATOM     22  C   UNL     1      -3.858  17.155  23.175  1.00  0.00     0.124 A 
ATOM     23  C   UNL     1      -5.167  17.579  23.141  1.00  0.00     0.087 A 
ENDBRANCH  17  19
ENDBRANCH   5  17
ENDBRANCH   1   5
BRANCH   2  24
ATOM     24  C   UNL     1      -6.336  13.030  21.871  1.00  0.00     0.219 C 
BRANCH  24  25
ATOM     25  N   UNL     1      -5.472  12.159  21.065  1.00  0.00    -0.331 N 
ATOM     26  C   UNL     1      -6.011  10.859  20.685  1.00  0.00     0.137 C 
ATOM     27  C   UNL     1      -4.288  12.660  20.552  1.00  0.00     0.241 C 
ATOM     28  C   UNL     1      -4.988   9.890  20.094  1.00  0.00     0.124 C 
ATOM     29  C   UNL     1      -3.401  11.746  19.700  1.00  0.00     0.162 C 
ATOM     30  O   UNL     1      -3.897  13.784  20.887  1.00  0.00    -0.273 OA
ATOM     31  N   UNL     1      -4.090  10.552  19.112  1.00  0.00    -0.187 NA
BRANCH  29  32
ATOM     32  C   UNL     1      -2.199  11.290  20.554  1.00  0.00     0.042 C 
BRANCH  32  33
ATOM     33  C   UNL     1      -1.053  12.302  20.625  1.00  0.00     0.125 C 
BRANCH  33  34
ATOM     34  C   UNL     1       0.083  11.922  21.539  1.00  0.00     0.303 C 
ATOM     35  O   UNL     1       0.245  10.824  22.050  1.00  0.00    -0.252 OA
BRANCH  34  36
ATOM     36  O   UNL     1       0.907  12.940  21.843  1.00  0.00    -0.481 OA
ATOM     37  H   UNL     1       1.683  12.788  22.438  1.00  0.00     0.296 HD
ENDBRANCH  34  36
ENDBRANCH  33  34
ENDBRANCH  32  33
ENDBRANCH  29  32
BRANCH  31  38
ATOM     38  S   UNL     1      -4.694  10.795  17.543  1.00  0.00     0.219 S 
ATOM     39  O   UNL     1      -5.931  11.536  17.676  1.00  0.00    -0.212 OA
ATOM     40  O   UNL     1      -3.617  11.331  16.735  1.00  0.00    -0.212 OA
BRANCH  38  41
ATOM     41  C   UNL     1      -5.095   9.145  16.932  1.00  0.00     0.189 C 
BRANCH  41  42
ATOM     42  C   UNL     1      -6.256   9.156  15.970  1.00  0.00    -0.032 A 
ATOM     43  C   UNL     1      -7.532   8.758  16.397  1.00  0.00     0.005 A 
ATOM     44  C   UNL     1      -6.099   9.603  14.651  1.00  0.00     0.005 A 
ATOM     45  C   UNL     1      -8.616   8.776  15.516  1.00  0.00     0.000 A 
ATOM     46  C   UNL     1      -7.183   9.618  13.772  1.00  0.00     0.000 A 
ATOM     47  C   UNL     1      -8.439   9.204  14.202  1.00  0.00     0.000 A 
ENDBRANCH  41  42
ENDBRANCH  38  41
ENDBRANCH  31  38
ENDBRANCH  24  25
ENDBRANCH   2  24
TORSDOF 16
