MODEL 1
REMARK VINA RESULT:    -8.556      0.000      0.000
REMARK INTER + INTRA:         -24.601
REMARK INTER:                 -19.059
REMARK INTRA:                  -5.542
REMARK UNBOUND:                -5.542
REMARK SMILES CCN(CCCCCC(=O)N1CCC(C2CCN(C(=O)CCCCCN(CC)Cc3ccccc3OC)CC2)CC1)Cc1ccccc1OC
REMARK SMILES IDX 9 1 10 2 11 3 12 4 13 5 14 6 40 7 41 8 8 9 7 10 6 11 5 12
REMARK SMILES IDX 4 13 3 14 2 15 1 16 42 17 43 18 44 19 48 20 45 21 47 22
REMARK SMILES IDX 46 23 49 24 50 25 15 26 16 27 39 28 17 29 38 30 18 31 19 32
REMARK SMILES IDX 20 33 21 34 22 35 23 36 24 37 25 38 26 39 27 40 28 41 29 42
REMARK SMILES IDX 30 43 31 44 35 45 32 46 34 47 33 48 36 49 37 50
REMARK H PARENT
ROOT
ATOM      1  C   UNL     1     135.687 109.912  36.736  1.00  0.00     0.222 C 
ATOM      2  O   UNL     1     135.935 109.488  35.605  1.00  0.00    -0.275 OA
ATOM      3  N   UNL     1     134.979 111.092  36.946  1.00  0.00    -0.343 N 
ATOM      4  C   UNL     1     134.795 111.735  38.249  1.00  0.00     0.119 C 
ATOM      5  C   UNL     1     133.460 112.475  38.366  1.00  0.00     0.025 C 
ATOM      6  C   UNL     1     133.207 113.435  37.186  1.00  0.00    -0.004 C 
ATOM      7  C   UNL     1     133.292 112.587  35.903  1.00  0.00     0.025 C 
ATOM      8  C   UNL     1     134.640 111.889  35.767  1.00  0.00     0.119 C 
ENDROOT
BRANCH   1   9
ATOM      9  C   UNL     1     136.154 109.122  37.943  1.00  0.00     0.100 C 
BRANCH   9  10
ATOM     10  C   UNL     1     136.799 107.792  37.558  1.00  0.00     0.010 C 
BRANCH  10  11
ATOM     11  C   UNL     1     137.569 107.089  38.683  1.00  0.00     0.002 C 
BRANCH  11  12
ATOM     12  C   UNL     1     137.797 107.901  39.966  1.00  0.00     0.016 C 
BRANCH  12  13
ATOM     13  C   UNL     1     139.237 107.817  40.500  1.00  0.00     0.085 C 
BRANCH  13  14
ATOM     14  N   UNL     1     140.257 108.115  39.482  1.00  0.00    -0.299 NA
BRANCH  14  15
ATOM     15  C   UNL     1     141.305 107.094  39.338  1.00  0.00     0.081 C 
ATOM     16  C   UNL     1     141.476 106.496  37.948  1.00  0.00     0.021 C 
ENDBRANCH  14  15
BRANCH  14  17
ATOM     17  C   UNL     1     140.845 109.460  39.656  1.00  0.00     0.124 C 
BRANCH  17  18
ATOM     18  C   UNL     1     140.236 110.513  38.746  1.00  0.00     0.008 A 
ATOM     19  C   UNL     1     139.688 110.131  37.509  1.00  0.00     0.009 A 
ATOM     20  C   UNL     1     140.215 111.871  39.102  1.00  0.00     0.123 A 
ATOM     21  C   UNL     1     139.131 111.078  36.650  1.00  0.00     0.001 A 
ATOM     22  C   UNL     1     139.635 112.817  38.250  1.00  0.00     0.047 A 
ATOM     23  C   UNL     1     139.103 112.419  37.023  1.00  0.00     0.004 A 
BRANCH  20  24
ATOM     24  O   UNL     1     140.707 112.211  40.335  1.00  0.00    -0.496 OA
ATOM     25  C   UNL     1     141.299 113.509  40.374  1.00  0.00     0.278 C 
ENDBRANCH  20  24
ENDBRANCH  17  18
ENDBRANCH  14  17
ENDBRANCH  13  14
ENDBRANCH  12  13
ENDBRANCH  11  12
ENDBRANCH  10  11
ENDBRANCH   9  10
ENDBRANCH   1   9
BRANCH   6  26
ATOM     26  C   UNL     1     134.149 114.683  37.201  1.00  0.00    -0.004 C 
ATOM     27  C   UNL     1     133.490 115.927  36.565  1.00  0.00     0.025 C 
ATOM     28  C   UNL     1     134.596 115.022  38.646  1.00  0.00     0.025 C 
ATOM     29  C   UNL     1     134.381 117.165  36.675  1.00  0.00     0.119 C 
ATOM     30  C   UNL     1     135.433 116.298  38.712  1.00  0.00     0.119 C 
ATOM     31  N   UNL     1     134.740 117.404  38.064  1.00  0.00    -0.343 N 
ATOM     32  C   UNL     1     134.431 118.627  38.644  1.00  0.00     0.222 C 
ATOM     33  O   UNL     1     133.966 119.560  37.986  1.00  0.00    -0.275 OA
BRANCH  32  34
ATOM     34  C   UNL     1     134.692 118.766  40.138  1.00  0.00     0.100 C 
BRANCH  34  35
ATOM     35  C   UNL     1     133.419 118.790  40.987  1.00  0.00     0.010 C 
BRANCH  35  36
ATOM     36  C   UNL     1     132.983 117.388  41.425  1.00  0.00     0.002 C 
BRANCH  36  37
ATOM     37  C   UNL     1     134.087 116.605  42.149  1.00  0.00     0.016 C 
BRANCH  37  38
ATOM     38  C   UNL     1     133.601 115.796  43.362  1.00  0.00     0.085 C 
BRANCH  38  39
ATOM     39  N   UNL     1     133.629 114.337  43.200  1.00  0.00    -0.299 NA
BRANCH  39  40
ATOM     40  C   UNL     1     132.391 113.671  43.645  1.00  0.00     0.081 C 
ATOM     41  C   UNL     1     131.069 114.352  43.300  1.00  0.00     0.021 C 
ENDBRANCH  39  40
BRANCH  39  42
ATOM     42  C   UNL     1     133.986 113.989  41.806  1.00  0.00     0.124 C 
BRANCH  42  43
ATOM     43  C   UNL     1     135.098 112.958  41.697  1.00  0.00     0.008 A 
ATOM     44  C   UNL     1     134.784 111.594  41.869  1.00  0.00     0.009 A 
ATOM     45  C   UNL     1     136.437 113.334  41.487  1.00  0.00     0.123 A 
ATOM     46  C   UNL     1     135.779 110.621  41.812  1.00  0.00     0.001 A 
ATOM     47  C   UNL     1     137.426 112.346  41.424  1.00  0.00     0.047 A 
ATOM     48  C   UNL     1     137.098 110.998  41.582  1.00  0.00     0.004 A 
BRANCH  45  49
ATOM     49  O   UNL     1     136.675 114.675  41.335  1.00  0.00    -0.496 OA
ATOM     50  C   UNL     1     138.029 115.104  41.271  1.00  0.00     0.278 C 
ENDBRANCH  45  49
ENDBRANCH  42  43
ENDBRANCH  39  42
ENDBRANCH  38  39
ENDBRANCH  37  38
ENDBRANCH  36  37
ENDBRANCH  35  36
ENDBRANCH  34  35
ENDBRANCH  32  34
ENDBRANCH   6  26
TORSDOF 21
ENDMDL
MODEL 2
REMARK VINA RESULT:    -8.551      2.244      7.655
REMARK INTER + INTRA:         -24.591
REMARK INTER:                 -19.826
REMARK INTRA:                  -4.764
REMARK UNBOUND:                -5.542
REMARK SMILES CCN(CCCCCC(=O)N1CCC(C2CCN(C(=O)CCCCCN(CC)Cc3ccccc3OC)CC2)CC1)Cc1ccccc1OC
REMARK SMILES IDX 9 1 10 2 11 3 12 4 13 5 14 6 40 7 41 8 8 9 7 10 6 11 5 12
REMARK SMILES IDX 4 13 3 14 2 15 1 16 42 17 43 18 44 19 48 20 45 21 47 22
REMARK SMILES IDX 46 23 49 24 50 25 15 26 16 27 39 28 17 29 38 30 18 31 19 32
REMARK SMILES IDX 20 33 21 34 22 35 23 36 24 37 25 38 26 39 27 40 28 41 29 42
REMARK SMILES IDX 30 43 31 44 35 45 32 46 34 47 33 48 36 49 37 50
REMARK H PARENT
ROOT
ATOM      1  C   UNL     1     132.206 113.559  40.743  1.00  0.00     0.222 C 
ATOM      2  O   UNL     1     131.075 113.068  40.797  1.00  0.00    -0.275 OA
ATOM      3  N   UNL     1     133.062 113.330  39.670  1.00  0.00    -0.343 N 
ATOM      4  C   UNL     1     134.466 113.742  39.621  1.00  0.00     0.119 C 
ATOM      5  C   UNL     1     134.937 114.088  38.205  1.00  0.00     0.025 C 
ATOM      6  C   UNL     1     134.602 112.984  37.181  1.00  0.00    -0.004 C 
ATOM      7  C   UNL     1     133.079 112.767  37.252  1.00  0.00     0.025 C 
ATOM      8  C   UNL     1     132.621 112.377  38.652  1.00  0.00     0.119 C 
ENDROOT
BRANCH   1   9
ATOM      9  C   UNL     1     132.680 114.451  41.873  1.00  0.00     0.100 C 
BRANCH   9  10
ATOM     10  C   UNL     1     133.229 113.656  43.057  1.00  0.00     0.010 C 
BRANCH  10  11
ATOM     11  C   UNL     1     134.645 114.041  43.502  1.00  0.00     0.002 C 
BRANCH  11  12
ATOM     12  C   UNL     1     135.234 115.316  42.882  1.00  0.00     0.016 C 
BRANCH  12  13
ATOM     13  C   UNL     1     136.440 115.053  41.964  1.00  0.00     0.085 C 
BRANCH  13  14
ATOM     14  N   UNL     1     136.908 116.254  41.253  1.00  0.00    -0.299 NA
BRANCH  14  15
ATOM     15  C   UNL     1     135.864 116.987  40.522  1.00  0.00     0.081 C 
ATOM     16  C   UNL     1     136.114 118.472  40.298  1.00  0.00     0.021 C 
ENDBRANCH  14  15
BRANCH  14  17
ATOM     17  C   UNL     1     138.069 115.973  40.384  1.00  0.00     0.124 C 
BRANCH  17  18
ATOM     18  C   UNL     1     139.381 115.855  41.139  1.00  0.00     0.008 A 
ATOM     19  C   UNL     1     139.810 116.914  41.958  1.00  0.00     0.009 A 
ATOM     20  C   UNL     1     140.192 114.713  41.033  1.00  0.00     0.123 A 
ATOM     21  C   UNL     1     141.014 116.836  42.655  1.00  0.00     0.001 A 
ATOM     22  C   UNL     1     141.389 114.627  41.752  1.00  0.00     0.047 A 
ATOM     23  C   UNL     1     141.802 115.692  42.553  1.00  0.00     0.004 A 
BRANCH  20  24
ATOM     24  O   UNL     1     139.728 113.674  40.271  1.00  0.00    -0.496 OA
ATOM     25  C   UNL     1     140.607 112.551  40.243  1.00  0.00     0.278 C 
ENDBRANCH  20  24
ENDBRANCH  17  18
ENDBRANCH  14  17
ENDBRANCH  13  14
ENDBRANCH  12  13
ENDBRANCH  11  12
ENDBRANCH  10  11
ENDBRANCH   9  10
ENDBRANCH   1   9
BRANCH   6  26
ATOM     26  C   UNL     1     135.452 111.687  37.382  1.00  0.00    -0.004 C 
ATOM     27  C   UNL     1     135.322 110.708  36.194  1.00  0.00     0.025 C 
ATOM     28  C   UNL     1     136.947 112.033  37.600  1.00  0.00     0.025 C 
ATOM     29  C   UNL     1     136.233 109.490  36.356  1.00  0.00     0.119 C 
ATOM     30  C   UNL     1     137.825 110.786  37.695  1.00  0.00     0.119 C 
ATOM     31  N   UNL     1     137.611 109.915  36.547  1.00  0.00    -0.343 N 
ATOM     32  C   UNL     1     138.589 109.461  35.672  1.00  0.00     0.222 C 
ATOM     33  O   UNL     1     138.346 108.617  34.807  1.00  0.00    -0.275 OA
BRANCH  32  34
ATOM     34  C   UNL     1     139.982 110.056  35.827  1.00  0.00     0.100 C 
BRANCH  34  35
ATOM     35  C   UNL     1     140.947 109.169  36.616  1.00  0.00     0.010 C 
BRANCH  35  36
ATOM     36  C   UNL     1     141.155 109.663  38.052  1.00  0.00     0.002 C 
BRANCH  36  37
ATOM     37  C   UNL     1     141.370 108.527  39.062  1.00  0.00     0.016 C 
BRANCH  37  38
ATOM     38  C   UNL     1     140.363 108.510  40.222  1.00  0.00     0.085 C 
BRANCH  38  39
ATOM     39  N   UNL     1     139.075 107.868  39.931  1.00  0.00    -0.299 NA
BRANCH  39  40
ATOM     40  C   UNL     1     139.208 106.557  39.266  1.00  0.00     0.081 C 
ATOM     41  C   UNL     1     138.699 106.450  37.831  1.00  0.00     0.021 C 
ENDBRANCH  39  40
BRANCH  39  42
ATOM     42  C   UNL     1     138.255 107.795  41.161  1.00  0.00     0.124 C 
BRANCH  42  43
ATOM     43  C   UNL     1     137.225 108.907  41.278  1.00  0.00     0.008 A 
ATOM     44  C   UNL     1     137.277 109.773  42.388  1.00  0.00     0.009 A 
ATOM     45  C   UNL     1     136.190 109.057  40.336  1.00  0.00     0.123 A 
ATOM     46  C   UNL     1     136.332 110.782  42.551  1.00  0.00     0.001 A 
ATOM     47  C   UNL     1     135.251 110.080  40.506  1.00  0.00     0.047 A 
ATOM     48  C   UNL     1     135.324 110.940  41.605  1.00  0.00     0.004 A 
BRANCH  45  49
ATOM     49  O   UNL     1     136.193 108.179  39.285  1.00  0.00    -0.496 OA
ATOM     50  C   UNL     1     135.206 107.155  39.275  1.00  0.00     0.278 C 
ENDBRANCH  45  49
ENDBRANCH  42  43
ENDBRANCH  39  42
ENDBRANCH  38  39
ENDBRANCH  37  38
ENDBRANCH  36  37
ENDBRANCH  35  36
ENDBRANCH  34  35
ENDBRANCH  32  34
ENDBRANCH   6  26
TORSDOF 21
ENDMDL
MODEL 3
REMARK VINA RESULT:    -8.350      2.194      8.503
REMARK INTER + INTRA:         -24.143
REMARK INTER:                 -20.914
REMARK INTRA:                  -3.229
REMARK UNBOUND:                -5.542
REMARK SMILES CCN(CCCCCC(=O)N1CCC(C2CCN(C(=O)CCCCCN(CC)Cc3ccccc3OC)CC2)CC1)Cc1ccccc1OC
REMARK SMILES IDX 9 1 10 2 11 3 12 4 13 5 14 6 40 7 41 8 8 9 7 10 6 11 5 12
REMARK SMILES IDX 4 13 3 14 2 15 1 16 42 17 43 18 44 19 48 20 45 21 47 22
REMARK SMILES IDX 46 23 49 24 50 25 15 26 16 27 39 28 17 29 38 30 18 31 19 32
REMARK SMILES IDX 20 33 21 34 22 35 23 36 24 37 25 38 26 39 27 40 28 41 29 42
REMARK SMILES IDX 30 43 31 44 35 45 32 46 34 47 33 48 36 49 37 50
REMARK H PARENT
ROOT
ATOM      1  C   UNL     1     136.574 110.451  40.918  1.00  0.00     0.222 C 
ATOM      2  O   UNL     1     137.491 110.690  41.708  1.00  0.00    -0.275 OA
ATOM      3  N   UNL     1     136.475 109.239  40.242  1.00  0.00    -0.343 N 
ATOM      4  C   UNL     1     135.514 108.955  39.174  1.00  0.00     0.119 C 
ATOM      5  C   UNL     1     135.074 107.488  39.142  1.00  0.00     0.025 C 
ATOM      6  C   UNL     1     136.266 106.510  39.150  1.00  0.00    -0.004 C 
ATOM      7  C   UNL     1     137.099 106.841  40.402  1.00  0.00     0.025 C 
ATOM      8  C   UNL     1     137.574 108.288  40.407  1.00  0.00     0.119 C 
ENDROOT
BRANCH   1   9
ATOM      9  C   UNL     1     135.509 111.504  40.680  1.00  0.00     0.100 C 
BRANCH   9  10
ATOM     10  C   UNL     1     134.566 111.663  41.871  1.00  0.00     0.010 C 
BRANCH  10  11
ATOM     11  C   UNL     1     135.008 112.690  42.922  1.00  0.00     0.002 C 
BRANCH  11  12
ATOM     12  C   UNL     1     135.127 114.145  42.448  1.00  0.00     0.016 C 
BRANCH  12  13
ATOM     13  C   UNL     1     134.417 115.152  43.370  1.00  0.00     0.085 C 
BRANCH  13  14
ATOM     14  N   UNL     1     133.173 115.691  42.799  1.00  0.00    -0.299 NA
BRANCH  14  15
ATOM     15  C   UNL     1     131.940 115.222  43.448  1.00  0.00     0.081 C 
ATOM     16  C   UNL     1     131.387 113.889  42.959  1.00  0.00     0.021 C 
ENDBRANCH  14  15
BRANCH  14  17
ATOM     17  C   UNL     1     133.105 115.512  41.334  1.00  0.00     0.124 C 
BRANCH  17  18
ATOM     18  C   UNL     1     133.485 116.755  40.550  1.00  0.00     0.008 A 
ATOM     19  C   UNL     1     133.482 118.008  41.187  1.00  0.00     0.009 A 
ATOM     20  C   UNL     1     133.832 116.691  39.190  1.00  0.00     0.123 A 
ATOM     21  C   UNL     1     133.818 119.167  40.489  1.00  0.00     0.001 A 
ATOM     22  C   UNL     1     134.192 117.851  38.497  1.00  0.00     0.047 A 
ATOM     23  C   UNL     1     134.174 119.087  39.145  1.00  0.00     0.004 A 
BRANCH  20  24
ATOM     24  O   UNL     1     133.879 115.453  38.605  1.00  0.00    -0.496 OA
ATOM     25  C   UNL     1     134.208 115.491  37.218  1.00  0.00     0.278 C 
ENDBRANCH  20  24
ENDBRANCH  17  18
ENDBRANCH  14  17
ENDBRANCH  13  14
ENDBRANCH  12  13
ENDBRANCH  11  12
ENDBRANCH  10  11
ENDBRANCH   9  10
ENDBRANCH   1   9
BRANCH   6  26
ATOM     26  C   UNL     1     137.074 106.522  37.811  1.00  0.00    -0.004 C 
ATOM     27  C   UNL     1     136.716 107.731  36.918  1.00  0.00     0.025 C 
ATOM     28  C   UNL     1     138.599 106.521  38.085  1.00  0.00     0.025 C 
ATOM     29  C   UNL     1     137.581 107.786  35.658  1.00  0.00     0.119 C 
ATOM     30  C   UNL     1     139.421 106.639  36.802  1.00  0.00     0.119 C 
ATOM     31  N   UNL     1     138.991 107.789  36.017  1.00  0.00    -0.343 N 
ATOM     32  C   UNL     1     139.799 108.832  35.585  1.00  0.00     0.222 C 
ATOM     33  O   UNL     1     139.387 109.696  34.810  1.00  0.00    -0.275 OA
BRANCH  32  34
ATOM     34  C   UNL     1     141.226 108.862  36.116  1.00  0.00     0.100 C 
BRANCH  34  35
ATOM     35  C   UNL     1     141.485 109.981  37.128  1.00  0.00     0.010 C 
BRANCH  35  36
ATOM     36  C   UNL     1     140.802 109.720  38.475  1.00  0.00     0.002 C 
BRANCH  36  37
ATOM     37  C   UNL     1     139.683 110.720  38.795  1.00  0.00     0.016 C 
BRANCH  37  38
ATOM     38  C   UNL     1     140.097 111.853  39.747  1.00  0.00     0.085 C 
BRANCH  38  39
ATOM     39  N   UNL     1     139.554 113.179  39.424  1.00  0.00    -0.299 NA
BRANCH  39  40
ATOM     40  C   UNL     1     138.602 113.167  38.297  1.00  0.00     0.081 C 
ATOM     41  C   UNL     1     137.282 113.908  38.491  1.00  0.00     0.021 C 
ENDBRANCH  39  40
BRANCH  39  42
ATOM     42  C   UNL     1     138.981 113.801  40.639  1.00  0.00     0.124 C 
BRANCH  42  43
ATOM     43  C   UNL     1     139.869 114.869  41.257  1.00  0.00     0.008 A 
ATOM     44  C   UNL     1     140.916 114.474  42.115  1.00  0.00     0.009 A 
ATOM     45  C   UNL     1     139.638 116.240  41.040  1.00  0.00     0.123 A 
ATOM     46  C   UNL     1     141.731 115.422  42.729  1.00  0.00     0.001 A 
ATOM     47  C   UNL     1     140.468 117.182  41.657  1.00  0.00     0.047 A 
ATOM     48  C   UNL     1     141.510 116.775  42.492  1.00  0.00     0.004 A 
BRANCH  45  49
ATOM     49  O   UNL     1     138.601 116.555  40.202  1.00  0.00    -0.496 OA
ATOM     50  C   UNL     1     137.400 117.041  40.789  1.00  0.00     0.278 C 
ENDBRANCH  45  49
ENDBRANCH  42  43
ENDBRANCH  39  42
ENDBRANCH  38  39
ENDBRANCH  37  38
ENDBRANCH  36  37
ENDBRANCH  35  36
ENDBRANCH  34  35
ENDBRANCH  32  34
ENDBRANCH   6  26
TORSDOF 21
ENDMDL
MODEL 4
REMARK VINA RESULT:    -7.990      2.099      7.792
REMARK INTER + INTRA:         -23.341
REMARK INTER:                 -20.106
REMARK INTRA:                  -3.235
REMARK UNBOUND:                -5.542
REMARK SMILES CCN(CCCCCC(=O)N1CCC(C2CCN(C(=O)CCCCCN(CC)Cc3ccccc3OC)CC2)CC1)Cc1ccccc1OC
REMARK SMILES IDX 9 1 10 2 11 3 12 4 13 5 14 6 40 7 41 8 8 9 7 10 6 11 5 12
REMARK SMILES IDX 4 13 3 14 2 15 1 16 42 17 43 18 44 19 48 20 45 21 47 22
REMARK SMILES IDX 46 23 49 24 50 25 15 26 16 27 39 28 17 29 38 30 18 31 19 32
REMARK SMILES IDX 20 33 21 34 22 35 23 36 24 37 25 38 26 39 27 40 28 41 29 42
REMARK SMILES IDX 30 43 31 44 35 45 32 46 34 47 33 48 36 49 37 50
REMARK H PARENT
ROOT
ATOM      1  C   UNL     1     136.565 110.239  42.061  1.00  0.00     0.222 C 
ATOM      2  O   UNL     1     137.127 110.372  43.151  1.00  0.00    -0.275 OA
ATOM      3  N   UNL     1     136.720 109.096  41.282  1.00  0.00    -0.343 N 
ATOM      4  C   UNL     1     136.220 108.945  39.914  1.00  0.00     0.119 C 
ATOM      5  C   UNL     1     135.820 107.504  39.581  1.00  0.00     0.025 C 
ATOM      6  C   UNL     1     136.924 106.486  39.930  1.00  0.00    -0.004 C 
ATOM      7  C   UNL     1     137.238 106.672  41.426  1.00  0.00     0.025 C 
ATOM      8  C   UNL     1     137.680 108.095  41.745  1.00  0.00     0.119 C 
ENDROOT
BRANCH   1   9
ATOM      9  C   UNL     1     135.665 111.348  41.552  1.00  0.00     0.100 C 
BRANCH   9  10
ATOM     10  C   UNL     1     134.840 111.991  42.666  1.00  0.00     0.010 C 
BRANCH  10  11
ATOM     11  C   UNL     1     135.138 113.473  42.927  1.00  0.00     0.002 C 
BRANCH  11  12
ATOM     12  C   UNL     1     136.031 114.182  41.899  1.00  0.00     0.016 C 
BRANCH  12  13
ATOM     13  C   UNL     1     136.015 115.715  42.025  1.00  0.00     0.085 C 
BRANCH  13  14
ATOM     14  N   UNL     1     137.097 116.376  41.277  1.00  0.00    -0.299 NA
BRANCH  14  15
ATOM     15  C   UNL     1     136.653 117.199  40.143  1.00  0.00     0.081 C 
ATOM     16  C   UNL     1     135.555 118.213  40.436  1.00  0.00     0.021 C 
ENDBRANCH  14  15
BRANCH  14  17
ATOM     17  C   UNL     1     138.152 115.427  40.865  1.00  0.00     0.124 C 
BRANCH  17  18
ATOM     18  C   UNL     1     139.495 115.685  41.525  1.00  0.00     0.008 A 
ATOM     19  C   UNL     1     139.865 116.999  41.858  1.00  0.00     0.009 A 
ATOM     20  C   UNL     1     140.391 114.641  41.805  1.00  0.00     0.123 A 
ATOM     21  C   UNL     1     141.096 117.267  42.457  1.00  0.00     0.001 A 
ATOM     22  C   UNL     1     141.616 114.907  42.427  1.00  0.00     0.047 A 
ATOM     23  C   UNL     1     141.969 116.220  42.742  1.00  0.00     0.004 A 
BRANCH  20  24
ATOM     24  O   UNL     1     139.987 113.364  41.520  1.00  0.00    -0.496 OA
ATOM     25  C   UNL     1     140.822 112.699  40.573  1.00  0.00     0.278 C 
ENDBRANCH  20  24
ENDBRANCH  17  18
ENDBRANCH  14  17
ENDBRANCH  13  14
ENDBRANCH  12  13
ENDBRANCH  11  12
ENDBRANCH  10  11
ENDBRANCH   9  10
ENDBRANCH   1   9
BRANCH   6  26
ATOM     26  C   UNL     1     138.168 106.588  38.989  1.00  0.00    -0.004 C 
ATOM     27  C   UNL     1     137.783 106.956  37.539  1.00  0.00     0.025 C 
ATOM     28  C   UNL     1     139.186 107.625  39.527  1.00  0.00     0.025 C 
ATOM     29  C   UNL     1     139.013 107.149  36.652  1.00  0.00     0.119 C 
ATOM     30  C   UNL     1     140.367 107.828  38.579  1.00  0.00     0.119 C 
ATOM     31  N   UNL     1     139.901 108.143  37.235  1.00  0.00    -0.343 N 
ATOM     32  C   UNL     1     140.247 109.263  36.491  1.00  0.00     0.222 C 
ATOM     33  O   UNL     1     139.919 109.387  35.310  1.00  0.00    -0.275 OA
BRANCH  32  34
ATOM     34  C   UNL     1     141.054 110.340  37.204  1.00  0.00     0.100 C 
BRANCH  34  35
ATOM     35  C   UNL     1     140.266 111.624  37.473  1.00  0.00     0.010 C 
BRANCH  35  36
ATOM     36  C   UNL     1     138.787 111.351  37.773  1.00  0.00     0.002 C 
BRANCH  36  37
ATOM     37  C   UNL     1     137.927 112.622  37.803  1.00  0.00     0.016 C 
BRANCH  37  38
ATOM     38  C   UNL     1     136.425 112.366  37.999  1.00  0.00     0.085 C 
BRANCH  38  39
ATOM     39  N   UNL     1     135.692 111.960  36.793  1.00  0.00    -0.299 NA
BRANCH  39  40
ATOM     40  C   UNL     1     135.347 110.525  36.768  1.00  0.00     0.081 C 
ATOM     41  C   UNL     1     136.127 109.637  35.802  1.00  0.00     0.021 C 
ENDBRANCH  39  40
BRANCH  39  42
ATOM     42  C   UNL     1     134.507 112.828  36.603  1.00  0.00     0.124 C 
BRANCH  42  43
ATOM     43  C   UNL     1     133.950 113.396  37.898  1.00  0.00     0.008 A 
ATOM     44  C   UNL     1     133.184 112.561  38.736  1.00  0.00     0.009 A 
ATOM     45  C   UNL     1     134.134 114.745  38.253  1.00  0.00     0.123 A 
ATOM     46  C   UNL     1     132.626 113.052  39.914  1.00  0.00     0.001 A 
ATOM     47  C   UNL     1     133.575 115.224  39.443  1.00  0.00     0.047 A 
ATOM     48  C   UNL     1     132.830 114.381  40.270  1.00  0.00     0.004 A 
BRANCH  45  49
ATOM     49  O   UNL     1     134.883 115.503  37.391  1.00  0.00    -0.496 OA
ATOM     50  C   UNL     1     134.192 116.375  36.505  1.00  0.00     0.278 C 
ENDBRANCH  45  49
ENDBRANCH  42  43
ENDBRANCH  39  42
ENDBRANCH  38  39
ENDBRANCH  37  38
ENDBRANCH  36  37
ENDBRANCH  35  36
ENDBRANCH  34  35
ENDBRANCH  32  34
ENDBRANCH   6  26
TORSDOF 21
ENDMDL
MODEL 5
REMARK VINA RESULT:    -7.831      2.098      9.269
REMARK INTER + INTRA:         -22.987
REMARK INTER:                 -18.805
REMARK INTRA:                  -4.182
REMARK UNBOUND:                -5.542
REMARK SMILES CCN(CCCCCC(=O)N1CCC(C2CCN(C(=O)CCCCCN(CC)Cc3ccccc3OC)CC2)CC1)Cc1ccccc1OC
REMARK SMILES IDX 9 1 10 2 11 3 12 4 13 5 14 6 40 7 41 8 8 9 7 10 6 11 5 12
REMARK SMILES IDX 4 13 3 14 2 15 1 16 42 17 43 18 44 19 48 20 45 21 47 22
REMARK SMILES IDX 46 23 49 24 50 25 15 26 16 27 39 28 17 29 38 30 18 31 19 32
REMARK SMILES IDX 20 33 21 34 22 35 23 36 24 37 25 38 26 39 27 40 28 41 29 42
REMARK SMILES IDX 30 43 31 44 35 45 32 46 34 47 33 48 36 49 37 50
REMARK H PARENT
ROOT
ATOM      1  C   UNL     1     131.775 113.027  42.242  1.00  0.00     0.222 C 
ATOM      2  O   UNL     1     130.836 113.024  41.443  1.00  0.00    -0.275 OA
ATOM      3  N   UNL     1     133.056 112.620  41.882  1.00  0.00    -0.343 N 
ATOM      4  C   UNL     1     134.169 112.442  42.817  1.00  0.00     0.119 C 
ATOM      5  C   UNL     1     135.531 112.754  42.190  1.00  0.00     0.025 C 
ATOM      6  C   UNL     1     135.751 112.021  40.851  1.00  0.00    -0.004 C 
ATOM      7  C   UNL     1     134.581 112.420  39.933  1.00  0.00     0.025 C 
ATOM      8  C   UNL     1     133.230 112.065  40.540  1.00  0.00     0.119 C 
ENDROOT
BRANCH   1   9
ATOM      9  C   UNL     1     131.536 113.500  43.663  1.00  0.00     0.100 C 
BRANCH   9  10
ATOM     10  C   UNL     1     130.971 114.918  43.722  1.00  0.00     0.010 C 
BRANCH  10  11
ATOM     11  C   UNL     1     132.011 116.040  43.610  1.00  0.00     0.002 C 
BRANCH  11  12
ATOM     12  C   UNL     1     132.634 116.260  42.223  1.00  0.00     0.016 C 
BRANCH  12  13
ATOM     13  C   UNL     1     134.164 116.102  42.204  1.00  0.00     0.085 C 
BRANCH  13  14
ATOM     14  N   UNL     1     134.756 116.300  40.871  1.00  0.00    -0.299 NA
BRANCH  14  15
ATOM     15  C   UNL     1     136.183 116.651  40.874  1.00  0.00     0.081 C 
ATOM     16  C   UNL     1     137.132 115.617  40.281  1.00  0.00     0.021 C 
ENDBRANCH  14  15
BRANCH  14  17
ATOM     17  C   UNL     1     133.976 117.248  40.047  1.00  0.00     0.124 C 
BRANCH  17  18
ATOM     18  C   UNL     1     133.981 116.915  38.566  1.00  0.00     0.008 A 
ATOM     19  C   UNL     1     134.015 115.571  38.155  1.00  0.00     0.009 A 
ATOM     20  C   UNL     1     133.963 117.920  37.585  1.00  0.00     0.123 A 
ATOM     21  C   UNL     1     134.029 115.237  36.802  1.00  0.00     0.001 A 
ATOM     22  C   UNL     1     133.953 117.583  36.227  1.00  0.00     0.047 A 
ATOM     23  C   UNL     1     133.996 116.243  35.839  1.00  0.00     0.004 A 
BRANCH  20  24
ATOM     24  O   UNL     1     133.877 119.219  38.009  1.00  0.00    -0.496 OA
ATOM     25  C   UNL     1     135.029 119.664  38.723  1.00  0.00     0.278 C 
ENDBRANCH  20  24
ENDBRANCH  17  18
ENDBRANCH  14  17
ENDBRANCH  13  14
ENDBRANCH  12  13
ENDBRANCH  11  12
ENDBRANCH  10  11
ENDBRANCH   9  10
ENDBRANCH   1   9
BRANCH   6  26
ATOM     26  C   UNL     1     135.942 110.479  41.025  1.00  0.00    -0.004 C 
ATOM     27  C   UNL     1     135.836 109.717  39.685  1.00  0.00     0.025 C 
ATOM     28  C   UNL     1     137.305 110.160  41.689  1.00  0.00     0.025 C 
ATOM     29  C   UNL     1     136.121 108.224  39.852  1.00  0.00     0.119 C 
ATOM     30  C   UNL     1     137.572 108.659  41.780  1.00  0.00     0.119 C 
ATOM     31  N   UNL     1     137.421 108.028  40.475  1.00  0.00    -0.343 N 
ATOM     32  C   UNL     1     138.379 107.266  39.821  1.00  0.00     0.222 C 
ATOM     33  O   UNL     1     138.125 106.653  38.782  1.00  0.00    -0.275 OA
BRANCH  32  34
ATOM     34  C   UNL     1     139.768 107.220  40.445  1.00  0.00     0.100 C 
BRANCH  34  35
ATOM     35  C   UNL     1     140.711 106.215  39.779  1.00  0.00     0.010 C 
BRANCH  35  36
ATOM     36  C   UNL     1     142.078 106.826  39.449  1.00  0.00     0.002 C 
BRANCH  36  37
ATOM     37  C   UNL     1     142.000 108.300  39.028  1.00  0.00     0.016 C 
BRANCH  37  38
ATOM     38  C   UNL     1     142.628 108.602  37.658  1.00  0.00     0.085 C 
BRANCH  38  39
ATOM     39  N   UNL     1     141.754 109.297  36.704  1.00  0.00    -0.299 NA
BRANCH  39  40
ATOM     40  C   UNL     1     142.029 108.953  35.296  1.00  0.00     0.081 C 
ATOM     41  C   UNL     1     140.826 108.795  34.369  1.00  0.00     0.021 C 
ENDBRANCH  39  40
BRANCH  39  42
ATOM     42  C   UNL     1     140.335 109.086  37.069  1.00  0.00     0.124 C 
BRANCH  42  43
ATOM     43  C   UNL     1     139.562 110.376  37.292  1.00  0.00     0.008 A 
ATOM     44  C   UNL     1     140.241 111.500  37.805  1.00  0.00     0.009 A 
ATOM     45  C   UNL     1     138.178 110.459  37.054  1.00  0.00     0.123 A 
ATOM     46  C   UNL     1     139.563 112.689  38.057  1.00  0.00     0.001 A 
ATOM     47  C   UNL     1     137.509 111.662  37.304  1.00  0.00     0.047 A 
ATOM     48  C   UNL     1     138.199 112.771  37.798  1.00  0.00     0.004 A 
BRANCH  45  49
ATOM     49  O   UNL     1     137.577 109.330  36.563  1.00  0.00    -0.496 OA
ATOM     50  C   UNL     1     136.289 109.466  35.976  1.00  0.00     0.278 C 
ENDBRANCH  45  49
ENDBRANCH  42  43
ENDBRANCH  39  42
ENDBRANCH  38  39
ENDBRANCH  37  38
ENDBRANCH  36  37
ENDBRANCH  35  36
ENDBRANCH  34  35
ENDBRANCH  32  34
ENDBRANCH   6  26
TORSDOF 21
ENDMDL
MODEL 6
REMARK VINA RESULT:    -7.800      2.207      8.470
REMARK INTER + INTRA:         -22.919
REMARK INTER:                 -20.050
REMARK INTRA:                  -2.869
REMARK UNBOUND:                -5.542
REMARK SMILES CCN(CCCCCC(=O)N1CCC(C2CCN(C(=O)CCCCCN(CC)Cc3ccccc3OC)CC2)CC1)Cc1ccccc1OC
REMARK SMILES IDX 9 1 10 2 11 3 12 4 13 5 14 6 40 7 41 8 8 9 7 10 6 11 5 12
REMARK SMILES IDX 4 13 3 14 2 15 1 16 42 17 43 18 44 19 48 20 45 21 47 22
REMARK SMILES IDX 46 23 49 24 50 25 15 26 16 27 39 28 17 29 38 30 18 31 19 32
REMARK SMILES IDX 20 33 21 34 22 35 23 36 24 37 25 38 26 39 27 40 28 41 29 42
REMARK SMILES IDX 30 43 31 44 35 45 32 46 34 47 33 48 36 49 37 50
REMARK H PARENT
ROOT
ATOM      1  C   UNL     1     135.756 110.070  38.913  1.00  0.00     0.222 C 
ATOM      2  O   UNL     1     135.486 109.531  39.990  1.00  0.00    -0.275 OA
ATOM      3  N   UNL     1     136.209 109.345  37.815  1.00  0.00    -0.343 N 
ATOM      4  C   UNL     1     136.702 109.938  36.570  1.00  0.00     0.119 C 
ATOM      5  C   UNL     1     136.407 109.073  35.340  1.00  0.00     0.025 C 
ATOM      6  C   UNL     1     136.854 107.609  35.523  1.00  0.00    -0.004 C 
ATOM      7  C   UNL     1     136.144 107.086  36.786  1.00  0.00     0.025 C 
ATOM      8  C   UNL     1     136.477 107.922  38.016  1.00  0.00     0.119 C 
ENDROOT
BRANCH   1   9
ATOM      9  C   UNL     1     135.578 111.569  38.770  1.00  0.00     0.100 C 
BRANCH   9  10
ATOM     10  C   UNL     1     134.304 111.938  38.011  1.00  0.00     0.010 C 
BRANCH  10  11
ATOM     11  C   UNL     1     134.505 112.890  36.825  1.00  0.00     0.002 C 
BRANCH  11  12
ATOM     12  C   UNL     1     133.826 114.264  36.928  1.00  0.00     0.016 C 
BRANCH  12  13
ATOM     13  C   UNL     1     134.609 115.273  37.785  1.00  0.00     0.085 C 
BRANCH  13  14
ATOM     14  N   UNL     1     133.893 115.687  39.002  1.00  0.00    -0.299 NA
BRANCH  14  15
ATOM     15  C   UNL     1     133.929 117.129  39.282  1.00  0.00     0.081 C 
ATOM     16  C   UNL     1     134.330 118.030  38.121  1.00  0.00     0.021 C 
ENDBRANCH  14  15
BRANCH  14  17
ATOM     17  C   UNL     1     134.305 114.904  40.186  1.00  0.00     0.124 C 
BRANCH  17  18
ATOM     18  C   UNL     1     133.140 114.335  40.976  1.00  0.00     0.008 A 
ATOM     19  C   UNL     1     132.377 113.287  40.433  1.00  0.00     0.009 A 
ATOM     20  C   UNL     1     132.793 114.837  42.241  1.00  0.00     0.123 A 
ATOM     21  C   UNL     1     131.297 112.752  41.132  1.00  0.00     0.001 A 
ATOM     22  C   UNL     1     131.723 114.283  42.953  1.00  0.00     0.047 A 
ATOM     23  C   UNL     1     130.972 113.248  42.393  1.00  0.00     0.004 A 
BRANCH  20  24
ATOM     24  O   UNL     1     133.584 115.822  42.772  1.00  0.00    -0.496 OA
ATOM     25  C   UNL     1     134.569 115.333  43.680  1.00  0.00     0.278 C 
ENDBRANCH  20  24
ENDBRANCH  17  18
ENDBRANCH  14  17
ENDBRANCH  13  14
ENDBRANCH  12  13
ENDBRANCH  11  12
ENDBRANCH  10  11
ENDBRANCH   9  10
ENDBRANCH   1   9
BRANCH   6  26
ATOM     26  C   UNL     1     138.409 107.442  35.537  1.00  0.00    -0.004 C 
ATOM     27  C   UNL     1     139.147 108.774  35.276  1.00  0.00     0.025 C 
ATOM     28  C   UNL     1     138.889 106.845  36.884  1.00  0.00     0.025 C 
ATOM     29  C   UNL     1     140.664 108.618  35.390  1.00  0.00     0.119 C 
ATOM     30  C   UNL     1     140.412 106.765  36.975  1.00  0.00     0.119 C 
ATOM     31  N   UNL     1     141.015 108.060  36.687  1.00  0.00    -0.343 N 
ATOM     32  C   UNL     1     141.883 108.760  37.514  1.00  0.00     0.222 C 
ATOM     33  O   UNL     1     142.456 109.784  37.138  1.00  0.00    -0.275 OA
BRANCH  32  34
ATOM     34  C   UNL     1     142.096 108.205  38.916  1.00  0.00     0.100 C 
BRANCH  34  35
ATOM     35  C   UNL     1     141.377 108.999  40.009  1.00  0.00     0.010 C 
BRANCH  35  36
ATOM     36  C   UNL     1     139.865 109.086  39.771  1.00  0.00     0.002 C 
BRANCH  36  37
ATOM     37  C   UNL     1     139.340 110.527  39.716  1.00  0.00     0.016 C 
BRANCH  37  38
ATOM     38  C   UNL     1     140.438 111.602  39.693  1.00  0.00     0.085 C 
BRANCH  38  39
ATOM     39  N   UNL     1     139.973 112.973  39.443  1.00  0.00    -0.299 NA
BRANCH  39  40
ATOM     40  C   UNL     1     139.104 113.093  38.256  1.00  0.00     0.081 C 
ATOM     41  C   UNL     1     139.466 112.244  37.040  1.00  0.00     0.021 C 
ENDBRANCH  39  40
BRANCH  39  42
ATOM     42  C   UNL     1     139.340 113.524  40.663  1.00  0.00     0.124 C 
BRANCH  42  43
ATOM     43  C   UNL     1     140.039 114.757  41.212  1.00  0.00     0.008 A 
ATOM     44  C   UNL     1     141.193 114.593  42.005  1.00  0.00     0.009 A 
ATOM     45  C   UNL     1     139.533 116.052  40.995  1.00  0.00     0.123 A 
ATOM     46  C   UNL     1     141.843 115.694  42.555  1.00  0.00     0.001 A 
ATOM     47  C   UNL     1     140.199 117.151  41.547  1.00  0.00     0.047 A 
ATOM     48  C   UNL     1     141.350 116.973  42.319  1.00  0.00     0.004 A 
BRANCH  45  49
ATOM     49  O   UNL     1     138.406 116.141  40.221  1.00  0.00    -0.496 OA
ATOM     50  C   UNL     1     137.533 117.241  40.447  1.00  0.00     0.278 C 
ENDBRANCH  45  49
ENDBRANCH  42  43
ENDBRANCH  39  42
ENDBRANCH  38  39
ENDBRANCH  37  38
ENDBRANCH  36  37
ENDBRANCH  35  36
ENDBRANCH  34  35
ENDBRANCH  32  34
ENDBRANCH   6  26
TORSDOF 21
ENDMDL
MODEL 7
REMARK VINA RESULT:    -7.761      2.240      9.430
REMARK INTER + INTRA:         -22.832
REMARK INTER:                 -17.684
REMARK INTRA:                  -5.148
REMARK UNBOUND:                -5.542
REMARK SMILES CCN(CCCCCC(=O)N1CCC(C2CCN(C(=O)CCCCCN(CC)Cc3ccccc3OC)CC2)CC1)Cc1ccccc1OC
REMARK SMILES IDX 9 1 10 2 11 3 12 4 13 5 14 6 40 7 41 8 8 9 7 10 6 11 5 12
REMARK SMILES IDX 4 13 3 14 2 15 1 16 42 17 43 18 44 19 48 20 45 21 47 22
REMARK SMILES IDX 46 23 49 24 50 25 15 26 16 27 39 28 17 29 38 30 18 31 19 32
REMARK SMILES IDX 20 33 21 34 22 35 23 36 24 37 25 38 26 39 27 40 28 41 29 42
REMARK SMILES IDX 30 43 31 44 35 45 32 46 34 47 33 48 36 49 37 50
REMARK H PARENT
ROOT
ATOM      1  C   UNL     1     131.459 113.354  42.772  1.00  0.00     0.222 C 
ATOM      2  O   UNL     1     130.430 113.319  42.093  1.00  0.00    -0.275 OA
ATOM      3  N   UNL     1     132.696 112.970  42.263  1.00  0.00    -0.343 N 
ATOM      4  C   UNL     1     133.918 112.829  43.057  1.00  0.00     0.119 C 
ATOM      5  C   UNL     1     135.186 113.163  42.265  1.00  0.00     0.025 C 
ATOM      6  C   UNL     1     135.259 112.417  40.917  1.00  0.00    -0.004 C 
ATOM      7  C   UNL     1     133.977 112.778  40.144  1.00  0.00     0.025 C 
ATOM      8  C   UNL     1     132.718 112.401  40.916  1.00  0.00     0.119 C 
ENDROOT
BRANCH   1   9
ATOM      9  C   UNL     1     131.384 113.840  44.207  1.00  0.00     0.100 C 
BRANCH   9  10
ATOM     10  C   UNL     1     131.591 115.349  44.325  1.00  0.00     0.010 C 
BRANCH  10  11
ATOM     11  C   UNL     1     131.665 116.104  42.992  1.00  0.00     0.002 C 
BRANCH  11  12
ATOM     12  C   UNL     1     133.071 116.384  42.441  1.00  0.00     0.016 C 
BRANCH  12  13
ATOM     13  C   UNL     1     133.080 116.806  40.962  1.00  0.00     0.085 C 
BRANCH  13  14
ATOM     14  N   UNL     1     134.297 117.534  40.568  1.00  0.00    -0.299 NA
BRANCH  14  15
ATOM     15  C   UNL     1     134.103 118.968  40.307  1.00  0.00     0.081 C 
ATOM     16  C   UNL     1     134.217 119.409  38.853  1.00  0.00     0.021 C 
ENDBRANCH  14  15
BRANCH  14  17
ATOM     17  C   UNL     1     135.003 116.879  39.447  1.00  0.00     0.124 C 
BRANCH  17  18
ATOM     18  C   UNL     1     136.221 116.082  39.878  1.00  0.00     0.008 A 
ATOM     19  C   UNL     1     136.830 116.354  41.115  1.00  0.00     0.009 A 
ATOM     20  C   UNL     1     136.769 115.078  39.063  1.00  0.00     0.123 A 
ATOM     21  C   UNL     1     137.955 115.644  41.531  1.00  0.00     0.001 A 
ATOM     22  C   UNL     1     137.884 114.349  39.492  1.00  0.00     0.047 A 
ATOM     23  C   UNL     1     138.479 114.640  40.720  1.00  0.00     0.004 A 
BRANCH  20  24
ATOM     24  O   UNL     1     136.128 114.795  37.886  1.00  0.00    -0.496 OA
ATOM     25  C   UNL     1     136.044 113.399  37.604  1.00  0.00     0.278 C 
ENDBRANCH  20  24
ENDBRANCH  17  18
ENDBRANCH  14  17
ENDBRANCH  13  14
ENDBRANCH  12  13
ENDBRANCH  11  12
ENDBRANCH  10  11
ENDBRANCH   9  10
ENDBRANCH   1   9
BRANCH   6  26
ATOM     26  C   UNL     1     135.506 110.882  41.083  1.00  0.00    -0.004 C 
ATOM     27  C   UNL     1     135.383 110.117  39.746  1.00  0.00     0.025 C 
ATOM     28  C   UNL     1     136.899 110.608  41.704  1.00  0.00     0.025 C 
ATOM     29  C   UNL     1     135.722 108.634  39.902  1.00  0.00     0.119 C 
ATOM     30  C   UNL     1     137.218 109.116  41.784  1.00  0.00     0.119 C 
ATOM     31  N   UNL     1     137.047 108.481  40.483  1.00  0.00    -0.343 N 
ATOM     32  C   UNL     1     138.008 107.751  39.798  1.00  0.00     0.222 C 
ATOM     33  O   UNL     1     137.741 107.131  38.767  1.00  0.00    -0.275 OA
BRANCH  32  34
ATOM     34  C   UNL     1     139.416 107.751  40.378  1.00  0.00     0.100 C 
BRANCH  34  35
ATOM     35  C   UNL     1     140.245 106.525  39.986  1.00  0.00     0.010 C 
BRANCH  35  36
ATOM     36  C   UNL     1     141.620 106.904  39.425  1.00  0.00     0.002 C 
BRANCH  36  37
ATOM     37  C   UNL     1     141.887 106.329  38.027  1.00  0.00     0.016 C 
BRANCH  37  38
ATOM     38  C   UNL     1     141.123 107.032  36.895  1.00  0.00     0.085 C 
BRANCH  38  39
ATOM     39  N   UNL     1     141.912 107.975  36.092  1.00  0.00    -0.299 NA
BRANCH  39  40
ATOM     40  C   UNL     1     142.775 107.317  35.092  1.00  0.00     0.081 C 
ATOM     41  C   UNL     1     142.095 106.751  33.848  1.00  0.00     0.021 C 
ENDBRANCH  39  40
BRANCH  39  42
ATOM     42  C   UNL     1     141.025 108.993  35.487  1.00  0.00     0.124 C 
BRANCH  42  43
ATOM     43  C   UNL     1     140.186 109.755  36.501  1.00  0.00     0.008 A 
ATOM     44  C   UNL     1     140.833 110.416  37.564  1.00  0.00     0.009 A 
ATOM     45  C   UNL     1     138.780 109.768  36.436  1.00  0.00     0.123 A 
ATOM     46  C   UNL     1     140.100 111.096  38.533  1.00  0.00     0.001 A 
ATOM     47  C   UNL     1     138.055 110.461  37.412  1.00  0.00     0.047 A 
ATOM     48  C   UNL     1     138.712 111.123  38.452  1.00  0.00     0.004 A 
BRANCH  45  49
ATOM     49  O   UNL     1     138.214 109.100  35.383  1.00  0.00    -0.496 OA
ATOM     50  C   UNL     1     136.798 108.966  35.367  1.00  0.00     0.278 C 
ENDBRANCH  45  49
ENDBRANCH  42  43
ENDBRANCH  39  42
ENDBRANCH  38  39
ENDBRANCH  37  38
ENDBRANCH  36  37
ENDBRANCH  35  36
ENDBRANCH  34  35
ENDBRANCH  32  34
ENDBRANCH   6  26
TORSDOF 21
ENDMDL
MODEL 8
REMARK VINA RESULT:    -7.733      2.151      8.744
REMARK INTER + INTRA:         -22.769
REMARK INTER:                 -20.925
REMARK INTRA:                  -1.844
REMARK UNBOUND:                -5.542
REMARK SMILES CCN(CCCCCC(=O)N1CCC(C2CCN(C(=O)CCCCCN(CC)Cc3ccccc3OC)CC2)CC1)Cc1ccccc1OC
REMARK SMILES IDX 9 1 10 2 11 3 12 4 13 5 14 6 40 7 41 8 8 9 7 10 6 11 5 12
REMARK SMILES IDX 4 13 3 14 2 15 1 16 42 17 43 18 44 19 48 20 45 21 47 22
REMARK SMILES IDX 46 23 49 24 50 25 15 26 16 27 39 28 17 29 38 30 18 31 19 32
REMARK SMILES IDX 20 33 21 34 22 35 23 36 24 37 25 38 26 39 27 40 28 41 29 42
REMARK SMILES IDX 30 43 31 44 35 45 32 46 34 47 33 48 36 49 37 50
REMARK H PARENT
ROOT
ATOM      1  C   UNL     1     131.903 112.945  42.357  1.00  0.00     0.222 C 
ATOM      2  O   UNL     1     130.932 112.941  41.596  1.00  0.00    -0.275 OA
ATOM      3  N   UNL     1     133.168 112.532  41.946  1.00  0.00    -0.343 N 
ATOM      4  C   UNL     1     134.318 112.356  42.835  1.00  0.00     0.119 C 
ATOM      5  C   UNL     1     135.653 112.661  42.150  1.00  0.00     0.025 C 
ATOM      6  C   UNL     1     135.816 111.920  40.808  1.00  0.00    -0.004 C 
ATOM      7  C   UNL     1     134.610 112.317  39.936  1.00  0.00     0.025 C 
ATOM      8  C   UNL     1     133.284 111.969  40.601  1.00  0.00     0.119 C 
ENDROOT
BRANCH   1   9
ATOM      9  C   UNL     1     131.725 113.427  43.784  1.00  0.00     0.100 C 
BRANCH   9  10
ATOM     10  C   UNL     1     130.842 114.670  43.876  1.00  0.00     0.010 C 
BRANCH  10  11
ATOM     11  C   UNL     1     131.544 115.995  43.549  1.00  0.00     0.002 C 
BRANCH  11  12
ATOM     12  C   UNL     1     132.943 115.892  42.925  1.00  0.00     0.016 C 
BRANCH  12  13
ATOM     13  C   UNL     1     132.988 116.309  41.445  1.00  0.00     0.085 C 
BRANCH  13  14
ATOM     14  N   UNL     1     134.313 116.781  41.010  1.00  0.00    -0.299 NA
BRANCH  14  15
ATOM     15  C   UNL     1     134.410 118.231  40.788  1.00  0.00     0.081 C 
ATOM     16  C   UNL     1     133.398 119.096  41.528  1.00  0.00     0.021 C 
ENDBRANCH  14  15
BRANCH  14  17
ATOM     17  C   UNL     1     134.820 116.028  39.844  1.00  0.00     0.124 C 
BRANCH  17  18
ATOM     18  C   UNL     1     134.409 116.624  38.509  1.00  0.00     0.008 A 
ATOM     19  C   UNL     1     134.472 118.014  38.318  1.00  0.00     0.009 A 
ATOM     20  C   UNL     1     133.954 115.818  37.453  1.00  0.00     0.123 A 
ATOM     21  C   UNL     1     134.092 118.589  37.106  1.00  0.00     0.001 A 
ATOM     22  C   UNL     1     133.595 116.393  36.229  1.00  0.00     0.047 A 
ATOM     23  C   UNL     1     133.656 117.777  36.062  1.00  0.00     0.004 A 
BRANCH  20  24
ATOM     24  O   UNL     1     133.951 114.461  37.644  1.00  0.00    -0.496 OA
ATOM     25  C   UNL     1     133.845 113.715  36.433  1.00  0.00     0.278 C 
ENDBRANCH  20  24
ENDBRANCH  17  18
ENDBRANCH  14  17
ENDBRANCH  13  14
ENDBRANCH  12  13
ENDBRANCH  11  12
ENDBRANCH  10  11
ENDBRANCH   9  10
ENDBRANCH   1   9
BRANCH   6  26
ATOM     26  C   UNL     1     136.009 110.378  40.982  1.00  0.00    -0.004 C 
ATOM     27  C   UNL     1     135.721 109.596  39.681  1.00  0.00     0.025 C 
ATOM     28  C   UNL     1     137.444 110.050  41.469  1.00  0.00     0.025 C 
ATOM     29  C   UNL     1     136.008 108.102  39.836  1.00  0.00     0.119 C 
ATOM     30  C   UNL     1     137.702 108.547  41.551  1.00  0.00     0.119 C 
ATOM     31  N   UNL     1     137.375 107.898  40.287  1.00  0.00    -0.343 N 
ATOM     32  C   UNL     1     138.230 107.112  39.527  1.00  0.00     0.222 C 
ATOM     33  O   UNL     1     137.835 106.487  38.541  1.00  0.00    -0.275 OA
BRANCH  32  34
ATOM     34  C   UNL     1     139.688 107.057  39.966  1.00  0.00     0.100 C 
BRANCH  34  35
ATOM     35  C   UNL     1     140.605 107.993  39.176  1.00  0.00     0.010 C 
BRANCH  35  36
ATOM     36  C   UNL     1     140.929 109.279  39.944  1.00  0.00     0.002 C 
BRANCH  36  37
ATOM     37  C   UNL     1     140.456 110.552  39.227  1.00  0.00     0.016 C 
BRANCH  37  38
ATOM     38  C   UNL     1     140.502 111.821  40.092  1.00  0.00     0.085 C 
BRANCH  38  39
ATOM     39  N   UNL     1     140.199 113.075  39.389  1.00  0.00    -0.299 NA
BRANCH  39  40
ATOM     40  C   UNL     1     139.640 112.872  38.038  1.00  0.00     0.081 C 
ATOM     41  C   UNL     1     138.120 112.796  37.917  1.00  0.00     0.021 C 
ENDBRANCH  39  40
BRANCH  39  42
ATOM     42  C   UNL     1     139.337 113.934  40.232  1.00  0.00     0.124 C 
BRANCH  42  43
ATOM     43  C   UNL     1     140.113 114.861  41.155  1.00  0.00     0.008 A 
ATOM     44  C   UNL     1     141.457 114.561  41.452  1.00  0.00     0.009 A 
ATOM     45  C   UNL     1     139.506 115.976  41.762  1.00  0.00     0.123 A 
ATOM     46  C   UNL     1     142.192 115.364  42.320  1.00  0.00     0.001 A 
ATOM     47  C   UNL     1     140.257 116.780  42.626  1.00  0.00     0.047 A 
ATOM     48  C   UNL     1     141.593 116.478  42.900  1.00  0.00     0.004 A 
BRANCH  45  49
ATOM     49  O   UNL     1     138.196 116.207  41.436  1.00  0.00    -0.496 OA
ATOM     50  C   UNL     1     137.919 117.239  40.498  1.00  0.00     0.278 C 
ENDBRANCH  45  49
ENDBRANCH  42  43
ENDBRANCH  39  42
ENDBRANCH  38  39
ENDBRANCH  37  38
ENDBRANCH  36  37
ENDBRANCH  35  36
ENDBRANCH  34  35
ENDBRANCH  32  34
ENDBRANCH   6  26
TORSDOF 21
ENDMDL
MODEL 9
REMARK VINA RESULT:    -2.608      2.059      8.465
REMARK INTER + INTRA:         -11.351
REMARK INTER:                  -6.129
REMARK INTRA:                  -5.222
REMARK UNBOUND:                -5.542
REMARK SMILES CCN(CCCCCC(=O)N1CCC(C2CCN(C(=O)CCCCCN(CC)Cc3ccccc3OC)CC2)CC1)Cc1ccccc1OC
REMARK SMILES IDX 9 1 10 2 11 3 12 4 13 5 14 6 40 7 41 8 8 9 7 10 6 11 5 12
REMARK SMILES IDX 4 13 3 14 2 15 1 16 42 17 43 18 44 19 48 20 45 21 47 22
REMARK SMILES IDX 46 23 49 24 50 25 15 26 16 27 39 28 17 29 38 30 18 31 19 32
REMARK SMILES IDX 20 33 21 34 22 35 23 36 24 37 25 38 26 39 27 40 28 41 29 42
REMARK SMILES IDX 30 43 31 44 35 45 32 46 34 47 33 48 36 49 37 50
REMARK H PARENT
ROOT
ATOM      1  C   UNL     1     135.691 118.175  39.597  1.00  0.00     0.222 C 
ATOM      2  O   UNL     1     136.112 119.329  39.483  1.00  0.00    -0.275 OA
ATOM      3  N   UNL     1     136.454 117.161  40.171  1.00  0.00    -0.343 N 
ATOM      4  C   UNL     1     136.083 115.745  40.187  1.00  0.00     0.119 C 
ATOM      5  C   UNL     1     136.587 115.010  41.432  1.00  0.00     0.025 C 
ATOM      6  C   UNL     1     138.091 115.238  41.689  1.00  0.00    -0.004 C 
ATOM      7  C   UNL     1     138.295 116.761  41.788  1.00  0.00     0.025 C 
ATOM      8  C   UNL     1     137.835 117.483  40.528  1.00  0.00     0.119 C 
ENDROOT
BRANCH   1   9
ATOM      9  C   UNL     1     134.293 117.844  39.111  1.00  0.00     0.100 C 
BRANCH   9  10
ATOM     10  C   UNL     1     134.185 117.860  37.587  1.00  0.00     0.010 C 
BRANCH  10  11
ATOM     11  C   UNL     1     133.501 116.634  36.968  1.00  0.00     0.002 C 
BRANCH  11  12
ATOM     12  C   UNL     1     134.263 115.304  37.066  1.00  0.00     0.016 C 
BRANCH  12  13
ATOM     13  C   UNL     1     133.674 114.332  38.102  1.00  0.00     0.085 C 
BRANCH  13  14
ATOM     14  N   UNL     1     134.512 113.145  38.334  1.00  0.00    -0.299 NA
BRANCH  14  15
ATOM     15  C   UNL     1     135.074 112.537  37.119  1.00  0.00     0.081 C 
ATOM     16  C   UNL     1     135.350 111.040  37.181  1.00  0.00     0.021 C 
ENDBRANCH  14  15
BRANCH  14  17
ATOM     17  C   UNL     1     133.831 112.134  39.170  1.00  0.00     0.124 C 
BRANCH  17  18
ATOM     18  C   UNL     1     134.334 112.089  40.602  1.00  0.00     0.008 A 
ATOM     19  C   UNL     1     135.478 111.336  40.914  1.00  0.00     0.009 A 
ATOM     20  C   UNL     1     133.675 112.775  41.635  1.00  0.00     0.123 A 
ATOM     21  C   UNL     1     135.957 111.270  42.222  1.00  0.00     0.001 A 
ATOM     22  C   UNL     1     134.169 112.727  42.943  1.00  0.00     0.047 A 
ATOM     23  C   UNL     1     135.302 111.967  43.235  1.00  0.00     0.004 A 
BRANCH  20  24
ATOM     24  O   UNL     1     132.593 113.544  41.298  1.00  0.00    -0.496 OA
ATOM     25  C   UNL     1     132.144 114.391  42.354  1.00  0.00     0.278 C 
ENDBRANCH  20  24
ENDBRANCH  17  18
ENDBRANCH  14  17
ENDBRANCH  13  14
ENDBRANCH  12  13
ENDBRANCH  11  12
ENDBRANCH  10  11
ENDBRANCH   9  10
ENDBRANCH   1   9
BRANCH   6  26
ATOM     26  C   UNL     1     139.003 114.529  40.635  1.00  0.00    -0.004 C 
ATOM     27  C   UNL     1     140.066 113.619  41.291  1.00  0.00     0.025 C 
ATOM     28  C   UNL     1     138.157 113.693  39.642  1.00  0.00     0.025 C 
ATOM     29  C   UNL     1     140.887 112.857  40.251  1.00  0.00     0.119 C 
ATOM     30  C   UNL     1     139.021 112.903  38.661  1.00  0.00     0.119 C 
ATOM     31  N   UNL     1     140.007 112.100  39.374  1.00  0.00    -0.343 N 
ATOM     32  C   UNL     1     140.177 110.726  39.263  1.00  0.00     0.222 C 
ATOM     33  O   UNL     1     141.123 110.143  39.796  1.00  0.00    -0.275 OA
BRANCH  32  34
ATOM     34  C   UNL     1     139.136 109.967  38.452  1.00  0.00     0.100 C 
BRANCH  34  35
ATOM     35  C   UNL     1     139.593 109.619  37.033  1.00  0.00     0.010 C 
BRANCH  35  36
ATOM     36  C   UNL     1     138.418 109.472  36.060  1.00  0.00     0.002 C 
BRANCH  36  37
ATOM     37  C   UNL     1     138.396 108.120  35.332  1.00  0.00     0.016 C 
BRANCH  37  38
ATOM     38  C   UNL     1     137.327 107.142  35.844  1.00  0.00     0.085 C 
BRANCH  38  39
ATOM     39  N   UNL     1     137.079 107.179  37.292  1.00  0.00    -0.299 NA
BRANCH  39  40
ATOM     40  C   UNL     1     135.657 107.354  37.641  1.00  0.00     0.081 C 
ATOM     41  C   UNL     1     135.344 107.921  39.024  1.00  0.00     0.021 C 
ENDBRANCH  39  40
BRANCH  39  42
ATOM     42  C   UNL     1     137.676 105.988  37.938  1.00  0.00     0.124 C 
BRANCH  42  43
ATOM     43  C   UNL     1     139.012 106.261  38.611  1.00  0.00     0.008 A 
ATOM     44  C   UNL     1     140.197 106.101  37.865  1.00  0.00     0.009 A 
ATOM     45  C   UNL     1     139.097 106.613  39.970  1.00  0.00     0.123 A 
ATOM     46  C   UNL     1     141.443 106.307  38.452  1.00  0.00     0.001 A 
ATOM     47  C   UNL     1     140.354 106.825  40.547  1.00  0.00     0.047 A 
ATOM     48  C   UNL     1     141.519 106.677  39.791  1.00  0.00     0.004 A 
BRANCH  45  49
ATOM     49  O   UNL     1     137.909 106.745  40.639  1.00  0.00    -0.496 OA
ATOM     50  C   UNL     1     137.940 107.325  41.937  1.00  0.00     0.278 C 
ENDBRANCH  45  49
ENDBRANCH  42  43
ENDBRANCH  39  42
ENDBRANCH  38  39
ENDBRANCH  37  38
ENDBRANCH  36  37
ENDBRANCH  35  36
ENDBRANCH  34  35
ENDBRANCH  32  34
ENDBRANCH   6  26
TORSDOF 21
ENDMDL
