MODEL 1
REMARK VINA RESULT:    -7.548      0.000      0.000
REMARK INTER + INTRA:          -8.996
REMARK INTER:                  -8.652
REMARK INTRA:                  -0.345
REMARK UNBOUND:                -0.345
REMARK SMILES O=C1CSC(N/N=C/c2cc(F)ccc2O)=N1
REMARK SMILES IDX 9 1 10 2 11 3 12 4 13 5 14 6 15 7 8 8 7 9 6 10 1 11 2 12
REMARK SMILES IDX 3 13 17 14 4 15 5 16 16 18
REMARK H PARENT 6 17 16 19
ROOT
ATOM      1  C   UNL     1       8.555  -0.173  31.592  1.00  0.00     0.039 A 
ATOM      2  C   UNL     1       7.561   0.343  32.427  1.00  0.00     0.052 A 
ATOM      3  C   UNL     1       6.694  -0.533  33.074  1.00  0.00     0.124 A 
ATOM      4  F   UNL     1       5.739  -0.040  33.872  1.00  0.00    -0.207 F 
ATOM      5  C   UNL     1       6.799  -1.910  32.905  1.00  0.00     0.043 A 
ATOM      6  C   UNL     1       7.794  -2.427  32.075  1.00  0.00     0.050 A 
ATOM      7  C   UNL     1       8.669  -1.560  31.422  1.00  0.00     0.124 A 
ENDROOT
BRANCH   1   8
ATOM      8  C   UNL     1       9.456   0.785  30.918  1.00  0.00     0.145 C 
ATOM      9  N   UNL     1       9.348   1.028  29.648  1.00  0.00    -0.181 NA
BRANCH   9  10
ATOM     10  N   UNL     1      10.249   1.896  29.100  1.00  0.00    -0.256 N 
ATOM     11  O   UNL     1      14.424  -0.067  28.454  1.00  0.00    -0.272 OA
ATOM     12  C   UNL     1      13.562   0.802  28.383  1.00  0.00     0.258 C 
ATOM     13  C   UNL     1      13.833   2.138  27.730  1.00  0.00     0.180 C 
ATOM     14  N   UNL     1      12.291   0.650  28.882  1.00  0.00    -0.187 NA
ATOM     15  S   UNL     1      12.301   3.070  27.937  1.00  0.00    -0.077 SA
ATOM     16  C   UNL     1      11.556   1.699  28.730  1.00  0.00     0.185 C 
ATOM     17  H   UNL     1       9.862   2.781  28.774  1.00  0.00     0.192 HD
ENDBRANCH   9  10
ENDBRANCH   1   8
BRANCH   7  18
ATOM     18  O   UNL     1       9.619  -2.140  30.627  1.00  0.00    -0.507 OA
ATOM     19  H   UNL     1       9.403  -1.914  29.696  1.00  0.00     0.293 HD
ENDBRANCH   7  18
TORSDOF 3
ENDMDL
MODEL 2
REMARK VINA RESULT:    -7.235      3.346      4.306
REMARK INTER + INTRA:          -8.637
REMARK INTER:                  -8.379
REMARK INTRA:                  -0.258
REMARK UNBOUND:                -0.345
REMARK SMILES O=C1CSC(N/N=C/c2cc(F)ccc2O)=N1
REMARK SMILES IDX 9 1 10 2 11 3 12 4 13 5 14 6 15 7 8 8 7 9 6 10 1 11 2 12
REMARK SMILES IDX 3 13 17 14 4 15 5 16 16 18
REMARK H PARENT 6 17 16 19
ROOT
ATOM      1  C   UNL     1      12.080   1.801  30.654  1.00  0.00     0.039 A 
ATOM      2  C   UNL     1      10.835   1.597  30.055  1.00  0.00     0.052 A 
ATOM      3  C   UNL     1       9.760   1.192  30.841  1.00  0.00     0.124 A 
ATOM      4  F   UNL     1       8.567   0.993  30.267  1.00  0.00    -0.207 F 
ATOM      5  C   UNL     1       9.902   0.987  32.209  1.00  0.00     0.043 A 
ATOM      6  C   UNL     1      11.144   1.194  32.810  1.00  0.00     0.050 A 
ATOM      7  C   UNL     1      12.228   1.601  32.034  1.00  0.00     0.124 A 
ENDROOT
BRANCH   1   8
ATOM      8  C   UNL     1      13.201   2.228  29.790  1.00  0.00     0.145 C 
ATOM      9  N   UNL     1      13.137   2.104  28.499  1.00  0.00    -0.181 NA
BRANCH   9  10
ATOM     10  N   UNL     1      14.235   2.485  27.782  1.00  0.00    -0.256 N 
ATOM     11  O   UNL     1      17.131  -1.070  26.962  1.00  0.00    -0.272 OA
ATOM     12  C   UNL     1      16.696   0.073  26.880  1.00  0.00     0.258 C 
ATOM     13  C   UNL     1      17.400   1.135  26.068  1.00  0.00     0.180 C 
ATOM     14  N   UNL     1      15.548   0.492  27.508  1.00  0.00    -0.187 NA
ATOM     15  S   UNL     1      16.421   2.630  26.317  1.00  0.00    -0.077 SA
ATOM     16  C   UNL     1      15.291   1.741  27.316  1.00  0.00     0.185 C 
ATOM     17  H   UNL     1      14.203   3.431  27.402  1.00  0.00     0.192 HD
ENDBRANCH   9  10
ENDBRANCH   1   8
BRANCH   7  18
ATOM     18  O   UNL     1      13.413   1.785  32.693  1.00  0.00    -0.507 OA
ATOM     19  H   UNL     1      13.585   0.976  33.222  1.00  0.00     0.293 HD
ENDBRANCH   7  18
TORSDOF 3
ENDMDL
MODEL 3
REMARK VINA RESULT:    -7.065      1.671      2.029
REMARK INTER + INTRA:          -8.442
REMARK INTER:                  -8.182
REMARK INTRA:                  -0.260
REMARK UNBOUND:                -0.345
REMARK SMILES O=C1CSC(N/N=C/c2cc(F)ccc2O)=N1
REMARK SMILES IDX 9 1 10 2 11 3 12 4 13 5 14 6 15 7 8 8 7 9 6 10 1 11 2 12
REMARK SMILES IDX 3 13 17 14 4 15 5 16 16 18
REMARK H PARENT 6 17 16 19
ROOT
ATOM      1  C   UNL     1       8.342   0.092  31.555  1.00  0.00     0.039 A 
ATOM      2  C   UNL     1       8.675  -1.264  31.593  1.00  0.00     0.052 A 
ATOM      3  C   UNL     1       7.816  -2.159  32.224  1.00  0.00     0.124 A 
ATOM      4  F   UNL     1       8.135  -3.458  32.264  1.00  0.00    -0.207 F 
ATOM      5  C   UNL     1       6.632  -1.728  32.815  1.00  0.00     0.043 A 
ATOM      6  C   UNL     1       6.296  -0.375  32.775  1.00  0.00     0.050 A 
ATOM      7  C   UNL     1       7.149   0.531  32.145  1.00  0.00     0.124 A 
ENDROOT
BRANCH   1   8
ATOM      8  C   UNL     1       9.279   1.014  30.881  1.00  0.00     0.145 C 
ATOM      9  N   UNL     1       9.365   1.055  29.586  1.00  0.00    -0.181 NA
BRANCH   9  10
ATOM     10  N   UNL     1      10.288   1.907  29.049  1.00  0.00    -0.256 N 
ATOM     11  O   UNL     1      14.452  -0.109  28.509  1.00  0.00    -0.272 OA
ATOM     12  C   UNL     1      13.602   0.769  28.412  1.00  0.00     0.258 C 
ATOM     13  C   UNL     1      13.902   2.096  27.753  1.00  0.00     0.180 C 
ATOM     14  N   UNL     1      12.320   0.636  28.886  1.00  0.00    -0.187 NA
ATOM     15  S   UNL     1      12.378   3.047  27.920  1.00  0.00    -0.077 SA
ATOM     16  C   UNL     1      11.601   1.692  28.709  1.00  0.00     0.185 C 
ATOM     17  H   UNL     1       9.918   2.794  28.707  1.00  0.00     0.192 HD
ENDBRANCH   9  10
ENDBRANCH   1   8
BRANCH   7  18
ATOM     18  O   UNL     1       6.751   1.840  32.144  1.00  0.00    -0.507 OA
ATOM     19  H   UNL     1       6.268   2.000  31.304  1.00  0.00     0.293 HD
ENDBRANCH   7  18
TORSDOF 3
ENDMDL
MODEL 4
REMARK VINA RESULT:    -7.033      3.616      4.579
REMARK INTER + INTRA:          -8.406
REMARK INTER:                  -7.958
REMARK INTRA:                  -0.448
REMARK UNBOUND:                -0.345
REMARK SMILES O=C1CSC(N/N=C/c2cc(F)ccc2O)=N1
REMARK SMILES IDX 9 1 10 2 11 3 12 4 13 5 14 6 15 7 8 8 7 9 6 10 1 11 2 12
REMARK SMILES IDX 3 13 17 14 4 15 5 16 16 18
REMARK H PARENT 6 17 16 19
ROOT
ATOM      1  C   UNL     1      12.274   1.966  30.530  1.00  0.00     0.039 A 
ATOM      2  C   UNL     1      12.589   1.363  31.750  1.00  0.00     0.052 A 
ATOM      3  C   UNL     1      11.560   0.991  32.611  1.00  0.00     0.124 A 
ATOM      4  F   UNL     1      11.861   0.415  33.781  1.00  0.00    -0.207 F 
ATOM      5  C   UNL     1      10.227   1.208  32.279  1.00  0.00     0.043 A 
ATOM      6  C   UNL     1       9.910   1.808  31.059  1.00  0.00     0.050 A 
ATOM      7  C   UNL     1      10.932   2.184  30.189  1.00  0.00     0.124 A 
ENDROOT
BRANCH   1   8
ATOM      8  C   UNL     1      13.391   2.352  29.642  1.00  0.00     0.145 C 
ATOM      9  N   UNL     1      13.280   2.272  28.351  1.00  0.00    -0.181 NA
BRANCH   9  10
ATOM     10  N   UNL     1      14.377   2.609  27.610  1.00  0.00    -0.256 N 
ATOM     11  O   UNL     1      17.188  -1.028  26.856  1.00  0.00    -0.272 OA
ATOM     12  C   UNL     1      16.775   0.121  26.747  1.00  0.00     0.258 C 
ATOM     13  C   UNL     1      17.490   1.145  25.896  1.00  0.00     0.180 C 
ATOM     14  N   UNL     1      15.645   0.582  27.377  1.00  0.00    -0.187 NA
ATOM     15  S   UNL     1      16.545   2.666  26.114  1.00  0.00    -0.077 SA
ATOM     16  C   UNL     1      15.410   1.830  27.152  1.00  0.00     0.185 C 
ATOM     17  H   UNL     1      14.359   3.544  27.203  1.00  0.00     0.192 HD
ENDBRANCH   9  10
ENDBRANCH   1   8
BRANCH   7  18
ATOM     18  O   UNL     1      10.545   2.763  29.012  1.00  0.00    -0.507 OA
ATOM     19  H   UNL     1       9.756   2.276  28.689  1.00  0.00     0.293 HD
ENDBRANCH   7  18
TORSDOF 3
ENDMDL
MODEL 5
REMARK VINA RESULT:    -6.912      4.515      8.327
REMARK INTER + INTRA:          -8.267
REMARK INTER:                  -7.868
REMARK INTRA:                  -0.399
REMARK UNBOUND:                -0.345
REMARK SMILES O=C1CSC(N/N=C/c2cc(F)ccc2O)=N1
REMARK SMILES IDX 9 1 10 2 11 3 12 4 13 5 14 6 15 7 8 8 7 9 6 10 1 11 2 12
REMARK SMILES IDX 3 13 17 14 4 15 5 16 16 18
REMARK H PARENT 6 17 16 19
ROOT
ATOM      1  C   UNL     1      15.670   1.253  27.308  1.00  0.00     0.039 A 
ATOM      2  C   UNL     1      16.319   2.200  26.512  1.00  0.00     0.052 A 
ATOM      3  C   UNL     1      17.381   1.798  25.706  1.00  0.00     0.124 A 
ATOM      4  F   UNL     1      18.006   2.704  24.945  1.00  0.00    -0.207 F 
ATOM      5  C   UNL     1      17.806   0.473  25.679  1.00  0.00     0.043 A 
ATOM      6  C   UNL     1      17.156  -0.474  26.471  1.00  0.00     0.050 A 
ATOM      7  C   UNL     1      16.091  -0.084  27.281  1.00  0.00     0.124 A 
ENDROOT
BRANCH   1   8
ATOM      8  C   UNL     1      14.549   1.714  28.154  1.00  0.00     0.145 C 
ATOM      9  N   UNL     1      13.539   0.941  28.410  1.00  0.00    -0.181 NA
BRANCH   9  10
ATOM     10  N   UNL     1      12.529   1.464  29.166  1.00  0.00    -0.256 N 
ATOM     11  O   UNL     1      10.249  -1.806  31.576  1.00  0.00    -0.272 OA
ATOM     12  C   UNL     1      10.550  -0.674  31.216  1.00  0.00     0.258 C 
ATOM     13  C   UNL     1       9.858   0.548  31.775  1.00  0.00     0.180 C 
ATOM     14  N   UNL     1      11.526  -0.410  30.286  1.00  0.00    -0.187 NA
ATOM     15  S   UNL     1      10.599   1.939  30.895  1.00  0.00    -0.077 SA
ATOM     16  C   UNL     1      11.658   0.847  30.029  1.00  0.00     0.185 C 
ATOM     17  H   UNL     1      12.506   2.482  29.221  1.00  0.00     0.192 HD
ENDBRANCH   9  10
ENDBRANCH   1   8
BRANCH   7  18
ATOM     18  O   UNL     1      15.503  -1.068  28.027  1.00  0.00    -0.507 OA
ATOM     19  H   UNL     1      15.340  -0.702  28.923  1.00  0.00     0.293 HD
ENDBRANCH   7  18
TORSDOF 3
ENDMDL
MODEL 6
REMARK VINA RESULT:    -6.871      3.556      6.875
REMARK INTER + INTRA:          -8.221
REMARK INTER:                  -7.805
REMARK INTRA:                  -0.415
REMARK UNBOUND:                -0.345
REMARK SMILES O=C1CSC(N/N=C/c2cc(F)ccc2O)=N1
REMARK SMILES IDX 9 1 10 2 11 3 12 4 13 5 14 6 15 7 8 8 7 9 6 10 1 11 2 12
REMARK SMILES IDX 3 13 17 14 4 15 5 16 16 18
REMARK H PARENT 6 17 16 19
ROOT
ATOM      1  C   UNL     1      11.597   1.987  29.013  1.00  0.00     0.039 A 
ATOM      2  C   UNL     1      11.795   3.263  28.480  1.00  0.00     0.052 A 
ATOM      3  C   UNL     1      12.842   3.473  27.587  1.00  0.00     0.124 A 
ATOM      4  F   UNL     1      13.034   4.696  27.078  1.00  0.00    -0.207 F 
ATOM      5  C   UNL     1      13.692   2.436  27.214  1.00  0.00     0.043 A 
ATOM      6  C   UNL     1      13.493   1.160  27.743  1.00  0.00     0.050 A 
ATOM      7  C   UNL     1      12.448   0.938  28.638  1.00  0.00     0.124 A 
ENDROOT
BRANCH   1   8
ATOM      8  C   UNL     1      10.479   1.801  29.962  1.00  0.00     0.145 C 
ATOM      9  N   UNL     1       9.476   1.028  29.674  1.00  0.00    -0.181 NA
BRANCH   9  10
ATOM     10  N   UNL     1       8.468   0.948  30.591  1.00  0.00    -0.256 N 
ATOM     11  O   UNL     1       7.974  -3.356  32.303  1.00  0.00    -0.272 OA
ATOM     12  C   UNL     1       7.769  -2.152  32.200  1.00  0.00     0.258 C 
ATOM     13  C   UNL     1       6.759  -1.441  33.071  1.00  0.00     0.180 C 
ATOM     14  N   UNL     1       8.424  -1.347  31.300  1.00  0.00    -0.187 NA
ATOM     15  S   UNL     1       6.781   0.270  32.498  1.00  0.00    -0.077 SA
ATOM     16  C   UNL     1       8.032  -0.119  31.337  1.00  0.00     0.185 C 
ATOM     17  H   UNL     1       8.071   1.840  30.885  1.00  0.00     0.192 HD
ENDBRANCH   9  10
ENDBRANCH   1   8
BRANCH   7  18
ATOM     18  O   UNL     1      12.315  -0.338  29.111  1.00  0.00    -0.507 OA
ATOM     19  H   UNL     1      11.528  -0.734  28.676  1.00  0.00     0.293 HD
ENDBRANCH   7  18
TORSDOF 3
ENDMDL
MODEL 7
REMARK VINA RESULT:    -6.764      3.787      7.245
REMARK INTER + INTRA:          -8.097
REMARK INTER:                  -7.847
REMARK INTRA:                  -0.251
REMARK UNBOUND:                -0.345
REMARK SMILES O=C1CSC(N/N=C/c2cc(F)ccc2O)=N1
REMARK SMILES IDX 9 1 10 2 11 3 12 4 13 5 14 6 15 7 8 8 7 9 6 10 1 11 2 12
REMARK SMILES IDX 3 13 17 14 4 15 5 16 16 18
REMARK H PARENT 6 17 16 19
ROOT
ATOM      1  C   UNL     1      12.380   2.219  28.020  1.00  0.00     0.039 A 
ATOM      2  C   UNL     1      13.493   1.373  28.046  1.00  0.00     0.052 A 
ATOM      3  C   UNL     1      14.681   1.795  27.456  1.00  0.00     0.124 A 
ATOM      4  F   UNL     1      15.747   0.985  27.477  1.00  0.00    -0.207 F 
ATOM      5  C   UNL     1      14.782   3.040  26.844  1.00  0.00     0.043 A 
ATOM      6  C   UNL     1      13.673   3.887  26.821  1.00  0.00     0.050 A 
ATOM      7  C   UNL     1      12.478   3.476  27.409  1.00  0.00     0.124 A 
ENDROOT
BRANCH   1   8
ATOM      8  C   UNL     1      11.134   1.738  28.652  1.00  0.00     0.145 C 
ATOM      9  N   UNL     1      11.040   1.611  29.940  1.00  0.00    -0.181 NA
BRANCH   9  10
ATOM     10  N   UNL     1       9.865   1.120  30.435  1.00  0.00    -0.256 N 
ATOM     11  O   UNL     1      10.185  -3.374  31.618  1.00  0.00    -0.272 OA
ATOM     12  C   UNL     1       9.667  -2.268  31.516  1.00  0.00     0.258 C 
ATOM     13  C   UNL     1       8.264  -1.999  32.010  1.00  0.00     0.180 C 
ATOM     14  N   UNL     1      10.298  -1.186  30.953  1.00  0.00    -0.187 NA
ATOM     15  S   UNL     1       7.945  -0.276  31.578  1.00  0.00    -0.077 SA
ATOM     16  C   UNL     1       9.560  -0.128  30.917  1.00  0.00     0.185 C 
ATOM     17  H   UNL     1       9.143   1.816  30.617  1.00  0.00     0.192 HD
ENDBRANCH   9  10
ENDBRANCH   1   8
BRANCH   7  18
ATOM     18  O   UNL     1      11.436   4.361  27.349  1.00  0.00    -0.507 OA
ATOM     19  H   UNL     1      11.754   5.216  27.711  1.00  0.00     0.293 HD
ENDBRANCH   7  18
TORSDOF 3
ENDMDL
MODEL 8
REMARK VINA RESULT:    -6.665      3.570      4.395
REMARK INTER + INTRA:          -7.984
REMARK INTER:                  -7.738
REMARK INTRA:                  -0.246
REMARK UNBOUND:                -0.345
REMARK SMILES O=C1CSC(N/N=C/c2cc(F)ccc2O)=N1
REMARK SMILES IDX 9 1 10 2 11 3 12 4 13 5 14 6 15 7 8 8 7 9 6 10 1 11 2 12
REMARK SMILES IDX 3 13 17 14 4 15 5 16 16 18
REMARK H PARENT 6 17 16 19
ROOT
ATOM      1  C   UNL     1      11.949   1.608  30.779  1.00  0.00     0.039 A 
ATOM      2  C   UNL     1      10.747   1.851  30.110  1.00  0.00     0.052 A 
ATOM      3  C   UNL     1       9.564   1.920  30.841  1.00  0.00     0.124 A 
ATOM      4  F   UNL     1       8.411   2.150  30.201  1.00  0.00    -0.207 F 
ATOM      5  C   UNL     1       9.557   1.753  32.222  1.00  0.00     0.043 A 
ATOM      6  C   UNL     1      10.757   1.514  32.892  1.00  0.00     0.050 A 
ATOM      7  C   UNL     1      11.949   1.443  32.171  1.00  0.00     0.124 A 
ENDROOT
BRANCH   1   8
ATOM      8  C   UNL     1      13.185   1.536  29.973  1.00  0.00     0.145 C 
ATOM      9  N   UNL     1      13.280   0.729  28.960  1.00  0.00    -0.181 NA
BRANCH   9  10
ATOM     10  N   UNL     1      14.474   0.699  28.297  1.00  0.00    -0.256 N 
ATOM     11  O   UNL     1      14.676   3.850  24.873  1.00  0.00    -0.272 OA
ATOM     12  C   UNL     1      15.087   2.978  25.630  1.00  0.00     0.258 C 
ATOM     13  C   UNL     1      16.507   2.465  25.554  1.00  0.00     0.180 C 
ATOM     14  N   UNL     1      14.313   2.393  26.602  1.00  0.00    -0.187 NA
ATOM     15  S   UNL     1      16.596   1.170  26.808  1.00  0.00    -0.077 SA
ATOM     16  C   UNL     1      14.934   1.476  27.264  1.00  0.00     0.185 C 
ATOM     17  H   UNL     1      15.196   0.117  28.722  1.00  0.00     0.192 HD
ENDBRANCH   9  10
ENDBRANCH   1   8
BRANCH   7  18
ATOM     18  O   UNL     1      13.084   1.208  32.897  1.00  0.00    -0.507 OA
ATOM     19  H   UNL     1      13.165   0.237  33.013  1.00  0.00     0.293 HD
ENDBRANCH   7  18
TORSDOF 3
ENDMDL
MODEL 9
REMARK VINA RESULT:    -6.654      4.505      7.582
REMARK INTER + INTRA:          -7.971
REMARK INTER:                  -7.525
REMARK INTRA:                  -0.447
REMARK UNBOUND:                -0.345
REMARK SMILES O=C1CSC(N/N=C/c2cc(F)ccc2O)=N1
REMARK SMILES IDX 9 1 10 2 11 3 12 4 13 5 14 6 15 7 8 8 7 9 6 10 1 11 2 12
REMARK SMILES IDX 3 13 17 14 4 15 5 16 16 18
REMARK H PARENT 6 17 16 19
ROOT
ATOM      1  C   UNL     1      12.620   2.183  28.377  1.00  0.00     0.039 A 
ATOM      2  C   UNL     1      13.805   1.459  28.226  1.00  0.00     0.052 A 
ATOM      3  C   UNL     1      14.723   1.852  27.256  1.00  0.00     0.124 A 
ATOM      4  F   UNL     1      15.858   1.158  27.108  1.00  0.00    -0.207 F 
ATOM      5  C   UNL     1      14.482   2.951  26.437  1.00  0.00     0.043 A 
ATOM      6  C   UNL     1      13.301   3.677  26.589  1.00  0.00     0.050 A 
ATOM      7  C   UNL     1      12.374   3.293  27.558  1.00  0.00     0.124 A 
ENDROOT
BRANCH   1   8
ATOM      8  C   UNL     1      11.665   1.735  29.414  1.00  0.00     0.145 C 
ATOM      9  N   UNL     1      10.435   1.450  29.114  1.00  0.00    -0.181 NA
BRANCH   9  10
ATOM     10  N   UNL     1       9.612   1.086  30.142  1.00  0.00    -0.256 N 
ATOM     11  O   UNL     1       6.711   4.512  31.384  1.00  0.00    -0.272 OA
ATOM     12  C   UNL     1       7.190   3.383  31.383  1.00  0.00     0.258 C 
ATOM     13  C   UNL     1       6.653   2.291  32.279  1.00  0.00     0.180 C 
ATOM     14  N   UNL     1       8.242   3.009  30.583  1.00  0.00    -0.187 NA
ATOM     15  S   UNL     1       7.716   0.869  31.959  1.00  0.00    -0.077 SA
ATOM     16  C   UNL     1       8.610   1.786  30.766  1.00  0.00     0.185 C 
ATOM     17  H   UNL     1       9.634   0.097  30.391  1.00  0.00     0.192 HD
ENDBRANCH   9  10
ENDBRANCH   1   8
BRANCH   7  18
ATOM     18  O   UNL     1      11.241   4.054  27.649  1.00  0.00    -0.507 OA
ATOM     19  H   UNL     1      11.169   4.577  26.821  1.00  0.00     0.293 HD
ENDBRANCH   7  18
TORSDOF 3
ENDMDL
