REMARK VINA RESULT:    -8.377      0.000      0.000
REMARK INTER + INTRA:         -15.430
REMARK INTER:                 -14.499
REMARK INTRA:                  -0.930
REMARK UNBOUND:                -0.930
REMARK SMILES CCC#CCOc1cc(COCC2CC2)ccc1Sc1ccc(OCC(=O)O)c2c1CCCC2
REMARK SMILES IDX 20 1 21 2 22 3 23 4 29 5 30 6 31 7 32 8 33 9 34 10 19 11
REMARK SMILES IDX 18 12 7 13 8 14 9 15 17 16 16 17 6 18 5 19 4 20 3 21 2 22
REMARK SMILES IDX 1 23 10 24 11 25 12 26 13 27 14 28 15 29 24 30 25 31 26 32
REMARK SMILES IDX 27 33 28 34
REMARK H PARENT 28 35
ROOT
ATOM      1  C   UNL     1       5.580   6.081  -5.413  1.00  0.00     0.016 A 
ATOM      2  C   UNL     1       4.765   5.172  -4.725  1.00  0.00     0.019 A 
ATOM      3  C   UNL     1       3.956   5.586  -3.667  1.00  0.00     0.048 A 
ATOM      4  C   UNL     1       3.926   6.928  -3.292  1.00  0.00     0.123 A 
ATOM      5  C   UNL     1       4.709   7.869  -3.994  1.00  0.00    -0.002 A 
ATOM      6  C   UNL     1       5.567   7.444  -5.042  1.00  0.00    -0.027 A 
ATOM      7  C   UNL     1       6.413   8.452  -5.797  1.00  0.00     0.037 C 
ATOM      8  C   UNL     1       6.540   9.812  -5.117  1.00  0.00     0.005 C 
ATOM      9  C   UNL     1       5.185  10.288  -4.629  1.00  0.00     0.005 C 
ATOM     10  C   UNL     1       4.649   9.326  -3.575  1.00  0.00     0.040 C 
ENDROOT
BRANCH   1  11
ATOM     11  S   UNL     1       6.562   5.477  -6.793  1.00  0.00    -0.086 SA
BRANCH  11  12
ATOM     12  C   UNL     1       7.883   4.602  -5.954  1.00  0.00     0.054 A 
ATOM     13  C   UNL     1       9.136   4.338  -6.543  1.00  0.00     0.135 A 
ATOM     14  C   UNL     1      10.107   3.651  -5.801  1.00  0.00     0.053 A 
ATOM     15  C   UNL     1       9.854   3.232  -4.485  1.00  0.00    -0.019 A 
ATOM     16  C   UNL     1       7.624   4.163  -4.647  1.00  0.00     0.020 A 
ATOM     17  C   UNL     1       8.602   3.489  -3.917  1.00  0.00     0.007 A 
BRANCH  13  18
ATOM     18  O   UNL     1       9.314   4.764  -7.836  1.00  0.00    -0.480 OA
BRANCH  18  19
ATOM     19  C   UNL     1      10.095   5.939  -8.042  1.00  0.00     0.319 C 
ATOM     20  C   UNL     1      10.349   6.117  -9.479  1.00  0.00    -0.062 C 
BRANCH  20  21
ATOM     21  C   UNL     1      10.572   6.290 -10.647  1.00  0.00    -0.100 C 
ATOM     22  C   UNL     1      10.847   6.497 -12.074  1.00  0.00     0.086 C 
ATOM     23  C   UNL     1      12.334   6.683 -12.327  1.00  0.00     0.018 C 
ENDBRANCH  20  21
ENDBRANCH  18  19
ENDBRANCH  13  18
BRANCH  15  24
ATOM     24  C   UNL     1      10.907   2.496  -3.692  1.00  0.00     0.195 C 
BRANCH  24  25
ATOM     25  O   UNL     1      11.501   1.451  -4.459  1.00  0.00    -0.376 OA
BRANCH  25  26
ATOM     26  C   UNL     1      12.705   0.956  -3.875  1.00  0.00     0.164 C 
BRANCH  26  27
ATOM     27  C   UNL     1      13.374   2.015  -3.050  1.00  0.00     0.015 C 
ATOM     28  C   UNL     1      14.867   2.224  -3.079  1.00  0.00     0.006 C 
ATOM     29  C   UNL     1      14.211   1.666  -1.844  1.00  0.00     0.006 C 
ENDBRANCH  26  27
ENDBRANCH  25  26
ENDBRANCH  24  25
ENDBRANCH  15  24
ENDBRANCH  11  12
ENDBRANCH   1  11
BRANCH   4  30
ATOM     30  O   UNL     1       3.174   7.428  -2.260  1.00  0.00    -0.482 OA
BRANCH  30  31
ATOM     31  C   UNL     1       3.546   7.074  -0.935  1.00  0.00     0.351 C 
BRANCH  31  32
ATOM     32  C   UNL     1       2.542   7.635   0.054  1.00  0.00     0.341 C 
ATOM     33  O   UNL     1       1.933   7.045   0.931  1.00  0.00    -0.248 OA
BRANCH  32  34
ATOM     34  O   UNL     1       2.345   8.962  -0.123  1.00  0.00    -0.479 OA
ATOM     35  H   UNL     1       1.542   9.146   0.409  1.00  0.00     0.296 HD
ENDBRANCH  32  34
ENDBRANCH  31  32
ENDBRANCH  30  31
ENDBRANCH   4  30
TORSDOF 13
