MODEL 1
REMARK VINA RESULT:   -10.505      0.000      0.000
REMARK INTER + INTRA:         -16.291
REMARK INTER:                 -14.803
REMARK INTRA:                  -1.488
REMARK UNBOUND:                -1.488
REMARK SMILES Cc1[nH]c2ccccc2c1CC(=O)NCCC1CCN(Cc2ccccc2)CC1
REMARK SMILES IDX 15 1 14 2 12 3 13 4 11 6 10 7 2 8 3 9 4 10 9 11 5 12 8 13
REMARK SMILES IDX 6 14 7 15 1 16 16 18 17 19 18 20 29 21 19 22 28 23 20 24
REMARK SMILES IDX 21 25 22 26 23 27 27 28 24 29 26 30 25 31
REMARK H PARENT 14 5 3 17
ROOT
ATOM      1  C   UNL     1     136.736 110.955  42.452  1.00  0.00     0.116 C 
ENDROOT
BRANCH   1   2
ATOM      2  N   UNL     1     137.757 111.702  41.750  1.00  0.00    -0.356 N 
ATOM      3  C   UNL     1     138.065 111.467  40.425  1.00  0.00     0.224 C 
ATOM      4  O   UNL     1     137.451 110.652  39.738  1.00  0.00    -0.275 OA
ATOM      5  H   UNL     1     138.320 112.365  42.270  1.00  0.00     0.163 HD
BRANCH   3   6
ATOM      6  C   UNL     1     139.148 112.354  39.827  1.00  0.00     0.138 C 
BRANCH   6   7
ATOM      7  C   UNL     1     139.018 113.803  40.197  1.00  0.00    -0.010 A 
ATOM      8  C   UNL     1     138.038 114.684  39.767  1.00  0.00     0.016 A 
ATOM      9  N   UNL     1     138.296 115.907  40.333  1.00  0.00    -0.358 N 
ATOM     10  C   UNL     1     139.422 115.849  41.118  1.00  0.00     0.046 A 
ATOM     11  C   UNL     1     139.894 114.538  41.062  1.00  0.00     0.003 A 
ATOM     12  C   UNL     1     140.049 116.849  41.870  1.00  0.00     0.026 A 
ATOM     13  C   UNL     1     141.055 114.211  41.794  1.00  0.00     0.010 A 
ATOM     14  C   UNL     1     141.196 116.499  42.587  1.00  0.00     0.002 A 
ATOM     15  C   UNL     1     141.695 115.199  42.551  1.00  0.00     0.001 A 
ATOM     16  C   UNL     1     136.880 114.474  38.858  1.00  0.00     0.064 C 
ATOM     17  H   UNL     1     137.742 116.741  40.196  1.00  0.00     0.166 HD
ENDBRANCH   6   7
ENDBRANCH   3   6
ENDBRANCH   1   2
BRANCH   1  18
ATOM     18  C   UNL     1     135.336 111.422  42.053  1.00  0.00     0.025 C 
BRANCH  18  19
ATOM     19  C   UNL     1     134.869 112.664  42.835  1.00  0.00    -0.007 C 
ATOM     20  C   UNL     1     133.341 112.726  42.978  1.00  0.00     0.019 C 
ATOM     21  C   UNL     1     135.383 113.941  42.153  1.00  0.00     0.019 C 
ATOM     22  C   UNL     1     132.885 114.039  43.624  1.00  0.00     0.085 C 
ATOM     23  C   UNL     1     134.855 115.200  42.847  1.00  0.00     0.085 C 
ATOM     24  N   UNL     1     133.392 115.250  42.961  1.00  0.00    -0.299 NA
BRANCH  24  25
ATOM     25  C   UNL     1     132.750 115.512  41.662  1.00  0.00     0.120 C 
BRANCH  25  26
ATOM     26  C   UNL     1     133.235 116.783  40.995  1.00  0.00    -0.034 A 
ATOM     27  C   UNL     1     133.779 116.747  39.701  1.00  0.00     0.005 A 
ATOM     28  C   UNL     1     133.130 118.019  41.649  1.00  0.00     0.005 A 
ATOM     29  C   UNL     1     134.214 117.919  39.080  1.00  0.00     0.000 A 
ATOM     30  C   UNL     1     133.563 119.190  41.026  1.00  0.00     0.000 A 
ATOM     31  C   UNL     1     134.106 119.141  39.743  1.00  0.00     0.000 A 
ENDBRANCH  25  26
ENDBRANCH  24  25
ENDBRANCH  18  19
ENDBRANCH   1  18
TORSDOF 7
ENDMDL
MODEL 2
REMARK VINA RESULT:   -10.340      1.697      6.486
REMARK INTER + INTRA:         -16.059
REMARK INTER:                 -14.726
REMARK INTRA:                  -1.333
REMARK UNBOUND:                -1.488
REMARK SMILES Cc1[nH]c2ccccc2c1CC(=O)NCCC1CCN(Cc2ccccc2)CC1
REMARK SMILES IDX 15 1 14 2 12 3 13 4 11 6 10 7 2 8 3 9 4 10 9 11 5 12 8 13
REMARK SMILES IDX 6 14 7 15 1 16 16 18 17 19 18 20 29 21 19 22 28 23 20 24
REMARK SMILES IDX 21 25 22 26 23 27 27 28 24 29 26 30 25 31
REMARK H PARENT 14 5 3 17
ROOT
ATOM      1  C   UNL     1     134.995 110.809  40.717  1.00  0.00     0.116 C 
ENDROOT
BRANCH   1   2
ATOM      2  N   UNL     1     133.818 111.645  40.810  1.00  0.00    -0.356 N 
ATOM      3  C   UNL     1     133.865 112.935  41.300  1.00  0.00     0.224 C 
ATOM      4  O   UNL     1     134.917 113.477  41.635  1.00  0.00    -0.275 OA
ATOM      5  H   UNL     1     132.916 111.244  40.579  1.00  0.00     0.163 HD
BRANCH   3   6
ATOM      6  C   UNL     1     132.544 113.690  41.309  1.00  0.00     0.138 C 
BRANCH   6   7
ATOM      7  C   UNL     1     132.689 115.164  41.549  1.00  0.00    -0.010 A 
ATOM      8  C   UNL     1     132.310 115.860  42.687  1.00  0.00     0.016 A 
ATOM      9  N   UNL     1     132.611 117.184  42.489  1.00  0.00    -0.358 N 
ATOM     10  C   UNL     1     133.173 117.372  41.249  1.00  0.00     0.046 A 
ATOM     11  C   UNL     1     133.245 116.121  40.637  1.00  0.00     0.003 A 
ATOM     12  C   UNL     1     133.622 118.545  40.632  1.00  0.00     0.026 A 
ATOM     13  C   UNL     1     133.793 116.038  39.341  1.00  0.00     0.010 A 
ATOM     14  C   UNL     1     134.161 118.436  39.347  1.00  0.00     0.002 A 
ATOM     15  C   UNL     1     134.247 117.202  38.708  1.00  0.00     0.001 A 
ATOM     16  C   UNL     1     131.678 115.384  43.946  1.00  0.00     0.064 C 
ATOM     17  H   UNL     1     132.444 117.926  43.155  1.00  0.00     0.166 HD
ENDBRANCH   6   7
ENDBRANCH   3   6
ENDBRANCH   1   2
BRANCH   1  18
ATOM     18  C   UNL     1     135.428 110.619  39.264  1.00  0.00     0.025 C 
BRANCH  18  19
ATOM     19  C   UNL     1     136.775 111.293  38.944  1.00  0.00    -0.007 C 
ATOM     20  C   UNL     1     137.796 111.129  40.080  1.00  0.00     0.019 C 
ATOM     21  C   UNL     1     136.562 112.784  38.643  1.00  0.00     0.019 C 
ATOM     22  C   UNL     1     139.075 111.930  39.811  1.00  0.00     0.085 C 
ATOM     23  C   UNL     1     137.892 113.508  38.417  1.00  0.00     0.085 C 
ATOM     24  N   UNL     1     138.850 113.353  39.520  1.00  0.00    -0.299 NA
BRANCH  24  25
ATOM     25  C   UNL     1     138.452 114.133  40.704  1.00  0.00     0.120 C 
BRANCH  25  26
ATOM     26  C   UNL     1     139.579 114.960  41.289  1.00  0.00    -0.034 A 
ATOM     27  C   UNL     1     139.534 116.363  41.240  1.00  0.00     0.005 A 
ATOM     28  C   UNL     1     140.674 114.340  41.907  1.00  0.00     0.005 A 
ATOM     29  C   UNL     1     140.564 117.126  41.790  1.00  0.00     0.000 A 
ATOM     30  C   UNL     1     141.703 115.106  42.458  1.00  0.00     0.000 A 
ATOM     31  C   UNL     1     141.649 116.497  42.399  1.00  0.00     0.000 A 
ENDBRANCH  25  26
ENDBRANCH  24  25
ENDBRANCH  18  19
ENDBRANCH   1  18
TORSDOF 7
ENDMDL
MODEL 3
REMARK VINA RESULT:   -10.307      1.968      6.457
REMARK INTER + INTRA:         -16.013
REMARK INTER:                 -14.605
REMARK INTRA:                  -1.408
REMARK UNBOUND:                -1.488
REMARK SMILES Cc1[nH]c2ccccc2c1CC(=O)NCCC1CCN(Cc2ccccc2)CC1
REMARK SMILES IDX 15 1 14 2 12 3 13 4 11 6 10 7 2 8 3 9 4 10 9 11 5 12 8 13
REMARK SMILES IDX 6 14 7 15 1 16 16 18 17 19 18 20 29 21 19 22 28 23 20 24
REMARK SMILES IDX 21 25 22 26 23 27 27 28 24 29 26 30 25 31
REMARK H PARENT 14 5 3 17
ROOT
ATOM      1  C   UNL     1     133.356 117.141  42.068  1.00  0.00     0.116 C 
ENDROOT
BRANCH   1   2
ATOM      2  N   UNL     1     133.045 115.751  42.320  1.00  0.00    -0.356 N 
ATOM      3  C   UNL     1     133.895 114.919  43.021  1.00  0.00     0.224 C 
ATOM      4  O   UNL     1     134.942 115.318  43.527  1.00  0.00    -0.275 OA
ATOM      5  H   UNL     1     132.211 115.355  41.902  1.00  0.00     0.163 HD
BRANCH   3   6
ATOM      6  C   UNL     1     133.410 113.490  43.220  1.00  0.00     0.138 C 
BRANCH   6   7
ATOM      7  C   UNL     1     133.856 112.542  42.146  1.00  0.00    -0.010 A 
ATOM      8  C   UNL     1     133.280 112.376  40.895  1.00  0.00     0.016 A 
ATOM      9  N   UNL     1     133.989 111.406  40.233  1.00  0.00    -0.358 N 
ATOM     10  C   UNL     1     135.010 110.930  41.020  1.00  0.00     0.046 A 
ATOM     11  C   UNL     1     134.960 111.630  42.224  1.00  0.00     0.003 A 
ATOM     12  C   UNL     1     135.968 109.944  40.754  1.00  0.00     0.026 A 
ATOM     13  C   UNL     1     135.916 111.328  43.217  1.00  0.00     0.010 A 
ATOM     14  C   UNL     1     136.903 109.664  41.753  1.00  0.00     0.002 A 
ATOM     15  C   UNL     1     136.880 110.344  42.968  1.00  0.00     0.001 A 
ATOM     16  C   UNL     1     132.110 113.050  40.273  1.00  0.00     0.064 C 
ATOM     17  H   UNL     1     133.793 111.078  39.296  1.00  0.00     0.166 HD
ENDBRANCH   6   7
ENDBRANCH   3   6
ENDBRANCH   1   2
BRANCH   1  18
ATOM     18  C   UNL     1     133.371 117.443  40.570  1.00  0.00     0.025 C 
BRANCH  18  19
ATOM     19  C   UNL     1     134.749 117.215  39.922  1.00  0.00    -0.007 C 
ATOM     20  C   UNL     1     135.137 115.729  39.882  1.00  0.00     0.019 C 
ATOM     21  C   UNL     1     135.824 118.016  40.672  1.00  0.00     0.019 C 
ATOM     22  C   UNL     1     136.571 115.532  39.374  1.00  0.00     0.085 C 
ATOM     23  C   UNL     1     137.223 117.735  40.117  1.00  0.00     0.085 C 
ATOM     24  N   UNL     1     137.584 116.311  40.100  1.00  0.00    -0.299 NA
BRANCH  24  25
ATOM     25  C   UNL     1     137.852 115.798  41.454  1.00  0.00     0.120 C 
BRANCH  25  26
ATOM     26  C   UNL     1     139.326 115.739  41.796  1.00  0.00    -0.034 A 
ATOM     27  C   UNL     1     140.095 114.616  41.449  1.00  0.00     0.005 A 
ATOM     28  C   UNL     1     139.953 116.812  42.445  1.00  0.00     0.005 A 
ATOM     29  C   UNL     1     141.456 114.565  41.752  1.00  0.00     0.000 A 
ATOM     30  C   UNL     1     141.315 116.761  42.744  1.00  0.00     0.000 A 
ATOM     31  C   UNL     1     142.067 115.639  42.400  1.00  0.00     0.000 A 
ENDBRANCH  25  26
ENDBRANCH  24  25
ENDBRANCH  18  19
ENDBRANCH   1  18
TORSDOF 7
ENDMDL
MODEL 4
REMARK VINA RESULT:   -10.118      1.930      6.746
REMARK INTER + INTRA:         -15.747
REMARK INTER:                 -14.210
REMARK INTRA:                  -1.537
REMARK UNBOUND:                -1.488
REMARK SMILES Cc1[nH]c2ccccc2c1CC(=O)NCCC1CCN(Cc2ccccc2)CC1
REMARK SMILES IDX 15 1 14 2 12 3 13 4 11 6 10 7 2 8 3 9 4 10 9 11 5 12 8 13
REMARK SMILES IDX 6 14 7 15 1 16 16 18 17 19 18 20 29 21 19 22 28 23 20 24
REMARK SMILES IDX 21 25 22 26 23 27 27 28 24 29 26 30 25 31
REMARK H PARENT 14 5 3 17
ROOT
ATOM      1  C   UNL     1     135.107 113.113  37.533  1.00  0.00     0.116 C 
ENDROOT
BRANCH   1   2
ATOM      2  N   UNL     1     134.270 114.227  37.922  1.00  0.00    -0.356 N 
ATOM      3  C   UNL     1     134.763 115.317  38.610  1.00  0.00     0.224 C 
ATOM      4  O   UNL     1     135.955 115.441  38.885  1.00  0.00    -0.275 OA
ATOM      5  H   UNL     1     133.272 114.169  37.751  1.00  0.00     0.163 HD
BRANCH   3   6
ATOM      6  C   UNL     1     133.757 116.416  38.923  1.00  0.00     0.138 C 
BRANCH   6   7
ATOM      7  C   UNL     1     133.346 116.469  40.366  1.00  0.00    -0.010 A 
ATOM      8  C   UNL     1     133.327 117.590  41.181  1.00  0.00     0.016 A 
ATOM      9  N   UNL     1     132.899 117.197  42.424  1.00  0.00    -0.358 N 
ATOM     10  C   UNL     1     132.642 115.847  42.443  1.00  0.00     0.046 A 
ATOM     11  C   UNL     1     132.904 115.362  41.163  1.00  0.00     0.003 A 
ATOM     12  C   UNL     1     132.197 115.030  43.488  1.00  0.00     0.026 A 
ATOM     13  C   UNL     1     132.713 113.987  40.914  1.00  0.00     0.010 A 
ATOM     14  C   UNL     1     132.015 113.671  43.216  1.00  0.00     0.002 A 
ATOM     15  C   UNL     1     132.269 113.154  41.948  1.00  0.00     0.001 A 
ATOM     16  C   UNL     1     133.687 119.004  40.891  1.00  0.00     0.064 C 
ATOM     17  H   UNL     1     132.786 117.808  43.222  1.00  0.00     0.166 HD
ENDBRANCH   6   7
ENDBRANCH   3   6
ENDBRANCH   1   2
BRANCH   1  18
ATOM     18  C   UNL     1     135.058 111.993  38.573  1.00  0.00     0.025 C 
BRANCH  18  19
ATOM     19  C   UNL     1     136.386 111.818  39.332  1.00  0.00    -0.007 C 
ATOM     20  C   UNL     1     136.407 112.590  40.660  1.00  0.00     0.019 C 
ATOM     21  C   UNL     1     137.562 112.263  38.450  1.00  0.00     0.019 C 
ATOM     22  C   UNL     1     137.785 112.529  41.329  1.00  0.00     0.085 C 
ATOM     23  C   UNL     1     138.890 112.196  39.208  1.00  0.00     0.085 C 
ATOM     24  N   UNL     1     138.898 112.952  40.467  1.00  0.00    -0.299 NA
BRANCH  24  25
ATOM     25  C   UNL     1     138.930 114.406  40.233  1.00  0.00     0.120 C 
BRANCH  25  26
ATOM     26  C   UNL     1     139.898 115.142  41.137  1.00  0.00    -0.034 A 
ATOM     27  C   UNL     1     139.644 116.466  41.527  1.00  0.00     0.005 A 
ATOM     28  C   UNL     1     141.051 114.505  41.618  1.00  0.00     0.005 A 
ATOM     29  C   UNL     1     140.527 117.141  42.371  1.00  0.00     0.000 A 
ATOM     30  C   UNL     1     141.933 115.181  42.463  1.00  0.00     0.000 A 
ATOM     31  C   UNL     1     141.672 116.497  42.839  1.00  0.00     0.000 A 
ENDBRANCH  25  26
ENDBRANCH  24  25
ENDBRANCH  18  19
ENDBRANCH   1  18
TORSDOF 7
ENDMDL
MODEL 5
REMARK VINA RESULT:    -9.929      1.492      2.049
REMARK INTER + INTRA:         -15.480
REMARK INTER:                 -13.957
REMARK INTRA:                  -1.523
REMARK UNBOUND:                -1.488
REMARK SMILES Cc1[nH]c2ccccc2c1CC(=O)NCCC1CCN(Cc2ccccc2)CC1
REMARK SMILES IDX 15 1 14 2 12 3 13 4 11 6 10 7 2 8 3 9 4 10 9 11 5 12 8 13
REMARK SMILES IDX 6 14 7 15 1 16 16 18 17 19 18 20 29 21 19 22 28 23 20 24
REMARK SMILES IDX 21 25 22 26 23 27 27 28 24 29 26 30 25 31
REMARK H PARENT 14 5 3 17
ROOT
ATOM      1  C   UNL     1     136.819 111.030  41.449  1.00  0.00     0.116 C 
ENDROOT
BRANCH   1   2
ATOM      2  N   UNL     1     137.508 112.226  41.019  1.00  0.00    -0.356 N 
ATOM      3  C   UNL     1     137.385 112.731  39.740  1.00  0.00     0.224 C 
ATOM      4  O   UNL     1     136.636 112.232  38.901  1.00  0.00    -0.275 OA
ATOM      5  H   UNL     1     138.164 112.666  41.654  1.00  0.00     0.163 HD
BRANCH   3   6
ATOM      6  C   UNL     1     138.157 114.011  39.454  1.00  0.00     0.138 C 
BRANCH   6   7
ATOM      7  C   UNL     1     139.541 114.028  40.033  1.00  0.00    -0.010 A 
ATOM      8  C   UNL     1     140.559 113.122  39.774  1.00  0.00     0.016 A 
ATOM      9  N   UNL     1     141.652 113.496  40.514  1.00  0.00    -0.358 N 
ATOM     10  C   UNL     1     141.373 114.621  41.254  1.00  0.00     0.046 A 
ATOM     11  C   UNL     1     140.058 114.985  40.966  1.00  0.00     0.003 A 
ATOM     12  C   UNL     1     142.182 115.337  42.144  1.00  0.00     0.026 A 
ATOM     13  C   UNL     1     139.523 116.124  41.603  1.00  0.00     0.010 A 
ATOM     14  C   UNL     1     141.628 116.461  42.761  1.00  0.00     0.002 A 
ATOM     15  C   UNL     1     140.318 116.852  42.497  1.00  0.00     0.001 A 
ATOM     16  C   UNL     1     140.586 111.924  38.892  1.00  0.00     0.064 C 
ATOM     17  H   UNL     1     142.542 113.016  40.523  1.00  0.00     0.166 HD
ENDBRANCH   6   7
ENDBRANCH   3   6
ENDBRANCH   1   2
BRANCH   1  18
ATOM     18  C   UNL     1     136.108 111.248  42.784  1.00  0.00     0.025 C 
BRANCH  18  19
ATOM     19  C   UNL     1     134.839 112.112  42.657  1.00  0.00    -0.007 C 
ATOM     20  C   UNL     1     134.102 111.876  41.329  1.00  0.00     0.019 C 
ATOM     21  C   UNL     1     135.195 113.599  42.801  1.00  0.00     0.019 C 
ATOM     22  C   UNL     1     132.930 112.849  41.153  1.00  0.00     0.085 C 
ATOM     23  C   UNL     1     133.973 114.494  42.580  1.00  0.00     0.085 C 
ATOM     24  N   UNL     1     133.289 114.266  41.301  1.00  0.00    -0.299 NA
BRANCH  24  25
ATOM     25  C   UNL     1     134.067 114.790  40.164  1.00  0.00     0.120 C 
BRANCH  25  26
ATOM     26  C   UNL     1     134.437 116.251  40.309  1.00  0.00    -0.034 A 
ATOM     27  C   UNL     1     135.783 116.651  40.298  1.00  0.00     0.005 A 
ATOM     28  C   UNL     1     133.442 117.232  40.433  1.00  0.00     0.005 A 
ATOM     29  C   UNL     1     136.125 117.999  40.417  1.00  0.00     0.000 A 
ATOM     30  C   UNL     1     133.786 118.579  40.550  1.00  0.00     0.000 A 
ATOM     31  C   UNL     1     135.126 118.963  40.544  1.00  0.00     0.000 A 
ENDBRANCH  25  26
ENDBRANCH  24  25
ENDBRANCH  18  19
ENDBRANCH   1  18
TORSDOF 7
ENDMDL
MODEL 6
REMARK VINA RESULT:    -9.823      2.878      6.810
REMARK INTER + INTRA:         -15.331
REMARK INTER:                 -13.862
REMARK INTRA:                  -1.469
REMARK UNBOUND:                -1.488
REMARK SMILES Cc1[nH]c2ccccc2c1CC(=O)NCCC1CCN(Cc2ccccc2)CC1
REMARK SMILES IDX 15 1 14 2 12 3 13 4 11 6 10 7 2 8 3 9 4 10 9 11 5 12 8 13
REMARK SMILES IDX 6 14 7 15 1 16 16 18 17 19 18 20 29 21 19 22 28 23 20 24
REMARK SMILES IDX 21 25 22 26 23 27 27 28 24 29 26 30 25 31
REMARK H PARENT 14 5 3 17
ROOT
ATOM      1  C   UNL     1     136.340 110.214  38.450  1.00  0.00     0.116 C 
ENDROOT
BRANCH   1   2
ATOM      2  N   UNL     1     135.132 110.989  38.277  1.00  0.00    -0.356 N 
ATOM      3  C   UNL     1     134.905 112.168  38.961  1.00  0.00     0.224 C 
ATOM      4  O   UNL     1     135.740 112.665  39.715  1.00  0.00    -0.275 OA
ATOM      5  H   UNL     1     134.392 110.616  37.693  1.00  0.00     0.163 HD
BRANCH   3   6
ATOM      6  C   UNL     1     133.594 112.875  38.648  1.00  0.00     0.138 C 
BRANCH   6   7
ATOM      7  C   UNL     1     133.729 113.989  37.652  1.00  0.00    -0.010 A 
ATOM      8  C   UNL     1     133.726 113.870  36.270  1.00  0.00     0.016 A 
ATOM      9  N   UNL     1     133.884 115.127  35.741  1.00  0.00    -0.358 N 
ATOM     10  C   UNL     1     133.994 116.063  36.741  1.00  0.00     0.046 A 
ATOM     11  C   UNL     1     133.891 115.382  37.953  1.00  0.00     0.003 A 
ATOM     12  C   UNL     1     134.171 117.449  36.662  1.00  0.00     0.026 A 
ATOM     13  C   UNL     1     133.971 116.125  39.149  1.00  0.00     0.010 A 
ATOM     14  C   UNL     1     134.247 118.162  37.861  1.00  0.00     0.002 A 
ATOM     15  C   UNL     1     134.149 117.512  39.089  1.00  0.00     0.001 A 
ATOM     16  C   UNL     1     133.596 112.669  35.403  1.00  0.00     0.064 C 
ATOM     17  H   UNL     1     133.918 115.343  34.754  1.00  0.00     0.166 HD
ENDBRANCH   6   7
ENDBRANCH   3   6
ENDBRANCH   1   2
BRANCH   1  18
ATOM     18  C   UNL     1     137.336 110.480  37.322  1.00  0.00     0.025 C 
BRANCH  18  19
ATOM     19  C   UNL     1     138.695 111.000  37.827  1.00  0.00    -0.007 C 
ATOM     20  C   UNL     1     138.920 110.697  39.316  1.00  0.00     0.019 C 
ATOM     21  C   UNL     1     138.808 112.512  37.579  1.00  0.00     0.019 C 
ATOM     22  C   UNL     1     140.205 111.350  39.839  1.00  0.00     0.085 C 
ATOM     23  C   UNL     1     140.105 113.082  38.159  1.00  0.00     0.085 C 
ATOM     24  N   UNL     1     140.297 112.795  39.586  1.00  0.00    -0.299 NA
BRANCH  24  25
ATOM     25  C   UNL     1     139.391 113.592  40.431  1.00  0.00     0.120 C 
BRANCH  25  26
ATOM     26  C   UNL     1     140.101 114.657  41.241  1.00  0.00    -0.034 A 
ATOM     27  C   UNL     1     141.459 114.516  41.569  1.00  0.00     0.005 A 
ATOM     28  C   UNL     1     139.421 115.810  41.658  1.00  0.00     0.005 A 
ATOM     29  C   UNL     1     142.119 115.503  42.304  1.00  0.00     0.000 A 
ATOM     30  C   UNL     1     140.083 116.797  42.391  1.00  0.00     0.000 A 
ATOM     31  C   UNL     1     141.430 116.643  42.715  1.00  0.00     0.000 A 
ENDBRANCH  25  26
ENDBRANCH  24  25
ENDBRANCH  18  19
ENDBRANCH   1  18
TORSDOF 7
ENDMDL
MODEL 7
REMARK VINA RESULT:    -9.788      1.541      6.089
REMARK INTER + INTRA:         -15.281
REMARK INTER:                 -13.235
REMARK INTRA:                  -2.046
REMARK UNBOUND:                -1.488
REMARK SMILES Cc1[nH]c2ccccc2c1CC(=O)NCCC1CCN(Cc2ccccc2)CC1
REMARK SMILES IDX 15 1 14 2 12 3 13 4 11 6 10 7 2 8 3 9 4 10 9 11 5 12 8 13
REMARK SMILES IDX 6 14 7 15 1 16 16 18 17 19 18 20 29 21 19 22 28 23 20 24
REMARK SMILES IDX 21 25 22 26 23 27 27 28 24 29 26 30 25 31
REMARK H PARENT 14 5 3 17
ROOT
ATOM      1  C   UNL     1     135.041 110.576  40.335  1.00  0.00     0.116 C 
ENDROOT
BRANCH   1   2
ATOM      2  N   UNL     1     134.617 111.414  41.434  1.00  0.00    -0.356 N 
ATOM      3  C   UNL     1     135.447 111.720  42.494  1.00  0.00     0.224 C 
ATOM      4  O   UNL     1     136.619 111.349  42.544  1.00  0.00    -0.275 OA
ATOM      5  H   UNL     1     133.653 111.725  41.466  1.00  0.00     0.163 HD
BRANCH   3   6
ATOM      6  C   UNL     1     134.857 112.634  43.558  1.00  0.00     0.138 C 
BRANCH   6   7
ATOM      7  C   UNL     1     133.943 113.691  43.011  1.00  0.00    -0.010 A 
ATOM      8  C   UNL     1     132.560 113.721  43.106  1.00  0.00     0.016 A 
ATOM      9  N   UNL     1     132.120 114.852  42.465  1.00  0.00    -0.358 N 
ATOM     10  C   UNL     1     133.180 115.559  41.950  1.00  0.00     0.046 A 
ATOM     11  C   UNL     1     134.340 114.862  42.284  1.00  0.00     0.003 A 
ATOM     12  C   UNL     1     133.197 116.756  41.224  1.00  0.00     0.026 A 
ATOM     13  C   UNL     1     135.582 115.386  41.870  1.00  0.00     0.010 A 
ATOM     14  C   UNL     1     134.439 117.254  40.825  1.00  0.00     0.002 A 
ATOM     15  C   UNL     1     135.617 116.582  41.142  1.00  0.00     0.001 A 
ATOM     16  C   UNL     1     131.614 112.767  43.743  1.00  0.00     0.064 C 
ATOM     17  H   UNL     1     131.153 115.133  42.376  1.00  0.00     0.166 HD
ENDBRANCH   6   7
ENDBRANCH   3   6
ENDBRANCH   1   2
BRANCH   1  18
ATOM     18  C   UNL     1     134.995 111.335  39.008  1.00  0.00     0.025 C 
BRANCH  18  19
ATOM     19  C   UNL     1     136.320 112.043  38.672  1.00  0.00    -0.007 C 
ATOM     20  C   UNL     1     137.532 111.352  39.316  1.00  0.00     0.019 C 
ATOM     21  C   UNL     1     136.260 113.513  39.114  1.00  0.00     0.019 C 
ATOM     22  C   UNL     1     138.821 112.153  39.097  1.00  0.00     0.085 C 
ATOM     23  C   UNL     1     137.597 114.223  38.885  1.00  0.00     0.085 C 
ATOM     24  N   UNL     1     138.742 113.558  39.520  1.00  0.00    -0.299 NA
BRANCH  24  25
ATOM     25  C   UNL     1     138.730 113.725  40.983  1.00  0.00     0.120 C 
BRANCH  25  26
ATOM     26  C   UNL     1     139.745 114.731  41.485  1.00  0.00    -0.034 A 
ATOM     27  C   UNL     1     141.095 114.372  41.630  1.00  0.00     0.005 A 
ATOM     28  C   UNL     1     139.360 116.044  41.790  1.00  0.00     0.005 A 
ATOM     29  C   UNL     1     142.034 115.301  42.079  1.00  0.00     0.000 A 
ATOM     30  C   UNL     1     140.300 116.974  42.236  1.00  0.00     0.000 A 
ATOM     31  C   UNL     1     141.636 116.603  42.382  1.00  0.00     0.000 A 
ENDBRANCH  25  26
ENDBRANCH  24  25
ENDBRANCH  18  19
ENDBRANCH   1  18
TORSDOF 7
ENDMDL
MODEL 8
REMARK VINA RESULT:    -9.700      1.961      6.707
REMARK INTER + INTRA:         -15.158
REMARK INTER:                 -13.991
REMARK INTRA:                  -1.166
REMARK UNBOUND:                -1.488
REMARK SMILES Cc1[nH]c2ccccc2c1CC(=O)NCCC1CCN(Cc2ccccc2)CC1
REMARK SMILES IDX 15 1 14 2 12 3 13 4 11 6 10 7 2 8 3 9 4 10 9 11 5 12 8 13
REMARK SMILES IDX 6 14 7 15 1 16 16 18 17 19 18 20 29 21 19 22 28 23 20 24
REMARK SMILES IDX 21 25 22 26 23 27 27 28 24 29 26 30 25 31
REMARK H PARENT 14 5 3 17
ROOT
ATOM      1  C   UNL     1     135.771 112.035  37.203  1.00  0.00     0.116 C 
ENDROOT
BRANCH   1   2
ATOM      2  N   UNL     1     134.526 112.408  37.838  1.00  0.00    -0.356 N 
ATOM      3  C   UNL     1     134.477 113.250  38.931  1.00  0.00     0.224 C 
ATOM      4  O   UNL     1     135.482 113.784  39.399  1.00  0.00    -0.275 OA
ATOM      5  H   UNL     1     133.667 111.976  37.518  1.00  0.00     0.163 HD
BRANCH   3   6
ATOM      6  C   UNL     1     133.087 113.564  39.466  1.00  0.00     0.138 C 
BRANCH   6   7
ATOM      7  C   UNL     1     133.062 114.680  40.470  1.00  0.00    -0.010 A 
ATOM      8  C   UNL     1     132.729 114.579  41.813  1.00  0.00     0.016 A 
ATOM      9  N   UNL     1     132.824 115.832  42.363  1.00  0.00    -0.358 N 
ATOM     10  C   UNL     1     133.206 116.750  41.414  1.00  0.00     0.046 A 
ATOM     11  C   UNL     1     133.372 116.056  40.216  1.00  0.00     0.003 A 
ATOM     12  C   UNL     1     133.417 118.129  41.528  1.00  0.00     0.026 A 
ATOM     13  C   UNL     1     133.769 116.779  39.072  1.00  0.00     0.010 A 
ATOM     14  C   UNL     1     133.810 118.821  40.380  1.00  0.00     0.002 A 
ATOM     15  C   UNL     1     133.985 118.159  39.167  1.00  0.00     0.001 A 
ATOM     16  C   UNL     1     132.320 113.400  42.622  1.00  0.00     0.064 C 
ATOM     17  H   UNL     1     132.639 116.060  43.331  1.00  0.00     0.166 HD
ENDBRANCH   6   7
ENDBRANCH   3   6
ENDBRANCH   1   2
BRANCH   1  18
ATOM     18  C   UNL     1     136.422 110.849  37.915  1.00  0.00     0.025 C 
BRANCH  18  19
ATOM     19  C   UNL     1     137.870 111.132  38.357  1.00  0.00    -0.007 C 
ATOM     20  C   UNL     1     137.984 111.372  39.870  1.00  0.00     0.019 C 
ATOM     21  C   UNL     1     138.429 112.341  37.592  1.00  0.00     0.019 C 
ATOM     22  C   UNL     1     139.401 111.800  40.270  1.00  0.00     0.085 C 
ATOM     23  C   UNL     1     139.832 112.713  38.077  1.00  0.00     0.085 C 
ATOM     24  N   UNL     1     139.920 112.954  39.523  1.00  0.00    -0.299 NA
BRANCH  24  25
ATOM     25  C   UNL     1     139.285 114.227  39.905  1.00  0.00     0.120 C 
BRANCH  25  26
ATOM     26  C   UNL     1     140.066 115.002  40.946  1.00  0.00    -0.034 A 
ATOM     27  C   UNL     1     141.379 114.628  41.278  1.00  0.00     0.005 A 
ATOM     28  C   UNL     1     139.501 116.118  41.580  1.00  0.00     0.005 A 
ATOM     29  C   UNL     1     142.105 115.349  42.227  1.00  0.00     0.000 A 
ATOM     30  C   UNL     1     140.230 116.840  42.527  1.00  0.00     0.000 A 
ATOM     31  C   UNL     1     141.529 116.455  42.851  1.00  0.00     0.000 A 
ENDBRANCH  25  26
ENDBRANCH  24  25
ENDBRANCH  18  19
ENDBRANCH   1  18
TORSDOF 7
ENDMDL
MODEL 9
REMARK VINA RESULT:    -9.693      2.105      5.515
REMARK INTER + INTRA:         -15.148
REMARK INTER:                 -13.795
REMARK INTRA:                  -1.353
REMARK UNBOUND:                -1.488
REMARK SMILES Cc1[nH]c2ccccc2c1CC(=O)NCCC1CCN(Cc2ccccc2)CC1
REMARK SMILES IDX 15 1 14 2 12 3 13 4 11 6 10 7 2 8 3 9 4 10 9 11 5 12 8 13
REMARK SMILES IDX 6 14 7 15 1 16 16 18 17 19 18 20 29 21 19 22 28 23 20 24
REMARK SMILES IDX 21 25 22 26 23 27 27 28 24 29 26 30 25 31
REMARK H PARENT 14 5 3 17
ROOT
ATOM      1  C   UNL     1     135.619 117.401  39.480  1.00  0.00     0.116 C 
ENDROOT
BRANCH   1   2
ATOM      2  N   UNL     1     136.399 116.851  40.567  1.00  0.00    -0.356 N 
ATOM      3  C   UNL     1     137.745 117.120  40.722  1.00  0.00     0.224 C 
ATOM      4  O   UNL     1     138.354 117.891  39.982  1.00  0.00    -0.275 OA
ATOM      5  H   UNL     1     135.961 116.184  41.192  1.00  0.00     0.163 HD
BRANCH   3   6
ATOM      6  C   UNL     1     138.415 116.484  41.931  1.00  0.00     0.138 C 
BRANCH   6   7
ATOM      7  C   UNL     1     139.432 115.438  41.580  1.00  0.00    -0.010 A 
ATOM      8  C   UNL     1     140.784 115.459  41.890  1.00  0.00     0.016 A 
ATOM      9  N   UNL     1     141.350 114.320  41.376  1.00  0.00    -0.358 N 
ATOM     10  C   UNL     1     140.403 113.557  40.735  1.00  0.00     0.046 A 
ATOM     11  C   UNL     1     139.187 114.227  40.853  1.00  0.00     0.003 A 
ATOM     12  C   UNL     1     140.534 112.333  40.068  1.00  0.00     0.026 A 
ATOM     13  C   UNL     1     138.040 113.644  40.274  1.00  0.00     0.010 A 
ATOM     14  C   UNL     1     139.384 111.776  39.504  1.00  0.00     0.002 A 
ATOM     15  C   UNL     1     138.153 112.420  39.603  1.00  0.00     0.001 A 
ATOM     16  C   UNL     1     141.592 116.469  42.624  1.00  0.00     0.064 C 
ATOM     17  H   UNL     1     142.326 114.069  41.452  1.00  0.00     0.166 HD
ENDBRANCH   6   7
ENDBRANCH   3   6
ENDBRANCH   1   2
BRANCH   1  18
ATOM     18  C   UNL     1     134.148 117.544  39.870  1.00  0.00     0.025 C 
BRANCH  18  19
ATOM     19  C   UNL     1     133.430 116.191  40.020  1.00  0.00    -0.007 C 
ATOM     20  C   UNL     1     133.017 115.906  41.472  1.00  0.00     0.019 C 
ATOM     21  C   UNL     1     134.326 115.056  39.499  1.00  0.00     0.019 C 
ATOM     22  C   UNL     1     132.441 114.494  41.630  1.00  0.00     0.085 C 
ATOM     23  C   UNL     1     133.684 113.685  39.724  1.00  0.00     0.085 C 
ATOM     24  N   UNL     1     133.309 113.423  41.120  1.00  0.00    -0.299 NA
BRANCH  24  25
ATOM     25  C   UNL     1     134.489 113.180  41.967  1.00  0.00     0.120 C 
BRANCH  25  26
ATOM     26  C   UNL     1     135.168 111.854  41.690  1.00  0.00    -0.034 A 
ATOM     27  C   UNL     1     136.145 111.355  42.566  1.00  0.00     0.005 A 
ATOM     28  C   UNL     1     134.815 111.092  40.567  1.00  0.00     0.005 A 
ATOM     29  C   UNL     1     136.762 110.128  42.319  1.00  0.00     0.000 A 
ATOM     30  C   UNL     1     135.431 109.863  40.323  1.00  0.00     0.000 A 
ATOM     31  C   UNL     1     136.404 109.381  41.197  1.00  0.00     0.000 A 
ENDBRANCH  25  26
ENDBRANCH  24  25
ENDBRANCH  18  19
ENDBRANCH   1  18
TORSDOF 7
ENDMDL
