REMARK SMILES O=C(c1ccccc1)N1c2ccccc2Sc2ccc(Cl)cc21
REMARK SMILES IDX 9 1 10 2 11 3 12 4 13 5 14 6 15 7 16 8 17 9 18 10 19 11
REMARK SMILES IDX 20 12 21 13 22 14 23 15 2 16 1 17 3 18 4 19 8 20 5 21 7 22
REMARK SMILES IDX 6 23
REMARK H PARENT
REMARK INDEX MAP 9 1 10 2 11 3 12 4 13 5 14 6 15 7 16 8 17 9 18 10 19 11 20 12
REMARK INDEX MAP 21 13 22 14 23 15 2 16 1 17 3 18 4 19 8 20 5 21 7 22 6 23
ROOT
ATOM      1  N   UNL     1     -19.031 -41.732  24.736  1.00  0.00    -0.275 N 
ATOM      2  C   UNL     1     -19.749 -41.325  23.549  1.00  0.00     0.063 A 
ATOM      3  C   UNL     1     -21.164 -41.336  23.557  1.00  0.00     0.028 A 
ATOM      4  C   UNL     1     -21.919 -40.949  22.446  1.00  0.00     0.002 A 
ATOM      5  C   UNL     1     -21.280 -40.548  21.285  1.00  0.00     0.001 A 
ATOM      6  C   UNL     1     -19.890 -40.551  21.239  1.00  0.00     0.017 A 
ATOM      7  C   UNL     1     -19.123 -40.945  22.355  1.00  0.00     0.036 A 
ATOM      8  S   UNL     1     -17.371 -40.893  22.140  1.00  0.00    -0.086 SA
ATOM      9  C   UNL     1     -16.831 -41.832  23.540  1.00  0.00     0.037 A 
ATOM     10  C   UNL     1     -15.477 -42.225  23.514  1.00  0.00     0.019 A 
ATOM     11  C   UNL     1     -14.900 -42.886  24.593  1.00  0.00     0.022 A 
ATOM     12  C   UNL     1     -15.674 -43.142  25.712  1.00  0.00     0.043 A 
ATOM     13  Cl  UNL     1     -14.972 -43.937  27.068  1.00  0.00    -0.084 Cl
ATOM     14  C   UNL     1     -17.016 -42.757  25.748  1.00  0.00     0.048 A 
ATOM     15  C   UNL     1     -17.639 -42.112  24.655  1.00  0.00     0.065 A 
ENDROOT
BRANCH   1  16
ATOM     16  C   UNL     1     -19.728 -41.886  25.946  1.00  0.00     0.262 C 
ATOM     17  O   UNL     1     -19.918 -40.981  26.756  1.00  0.00    -0.268 OA
BRANCH  16  18
ATOM     18  C   UNL     1     -20.301 -43.243  26.232  1.00  0.00     0.040 A 
ATOM     19  C   UNL     1     -20.588 -44.161  25.212  1.00  0.00     0.014 A 
ATOM     20  C   UNL     1     -20.588 -43.580  27.563  1.00  0.00     0.014 A 
ATOM     21  C   UNL     1     -21.130 -45.411  25.527  1.00  0.00     0.001 A 
ATOM     22  C   UNL     1     -21.130 -44.828  27.871  1.00  0.00     0.001 A 
ATOM     23  C   UNL     1     -21.397 -45.743  26.854  1.00  0.00     0.000 A 
ENDBRANCH  16  18
ENDBRANCH   1  16
TORSDOF 2
