MODEL 1
REMARK VINA RESULT:    -9.232      0.000      0.000
REMARK INTER + INTRA:         -13.610
REMARK INTER:                 -12.200
REMARK INTRA:                  -1.410
REMARK UNBOUND:                -1.410
REMARK SMILES O=C(NC[C@@H](O)c1ccc(F)cn1)[C@H]1CCN(c2ncnc3[nH]ccc23)CC12CC2
REMARK SMILES IDX 1 1 2 2 3 3 14 5 15 6 28 7 16 8 27 9 29 10 30 11 17 12 18 13
REMARK SMILES IDX 19 14 26 15 20 16 25 17 22 18 21 19 24 20 23 21 4 23 5 24
REMARK SMILES IDX 6 25 7 27 8 28 13 29 9 30 12 31 10 32 11 33
REMARK H PARENT 3 4 23 22 6 26
ROOT
ATOM      1  O   UNL     1       6.517 -23.753  19.881  1.00  0.00    -0.275 OA
ATOM      2  C   UNL     1       6.035 -23.175  20.851  1.00  0.00     0.223 C 
ATOM      3  N   UNL     1       4.674 -23.110  21.047  1.00  0.00    -0.353 N 
ATOM      4  H   UNL     1       4.303 -22.749  21.915  1.00  0.00     0.163 HD
ENDROOT
BRANCH   2   5
ATOM      5  C   UNL     1       6.867 -22.528  21.964  1.00  0.00     0.088 C 
ATOM      6  C   UNL     1       6.318 -22.881  23.351  1.00  0.00     0.035 C 
ATOM      7  C   UNL     1       8.335 -22.924  21.932  1.00  0.00    -0.000 C 
ATOM      8  C   UNL     1       6.552 -24.350  23.711  1.00  0.00     0.119 C 
ATOM      9  C   UNL     1       8.561 -24.400  22.204  1.00  0.00     0.126 C 
ATOM     10  C   UNL     1       9.315 -22.163  21.052  1.00  0.00     0.010 C 
ATOM     11  C   UNL     1       9.336 -21.950  22.537  1.00  0.00     0.010 C 
ATOM     12  N   UNL     1       7.939 -24.759  23.466  1.00  0.00    -0.355 N 
BRANCH  12  13
ATOM     13  C   UNL     1       8.378 -25.859  24.199  1.00  0.00     0.141 A 
ATOM     14  N   UNL     1       7.569 -26.961  24.221  1.00  0.00    -0.219 NA
ATOM     15  C   UNL     1       9.584 -25.957  24.944  1.00  0.00     0.061 A 
ATOM     16  C   UNL     1       7.910 -28.041  24.944  1.00  0.00     0.226 A 
ATOM     17  C   UNL     1      10.746 -25.157  25.188  1.00  0.00     0.033 A 
ATOM     18  C   UNL     1       9.800 -27.141  25.640  1.00  0.00     0.142 A 
ATOM     19  N   UNL     1       9.005 -28.218  25.691  1.00  0.00    -0.218 NA
ATOM     20  C   UNL     1      11.591 -25.855  26.026  1.00  0.00     0.085 A 
ATOM     21  N   UNL     1      10.997 -27.057  26.296  1.00  0.00    -0.346 N 
ATOM     22  H   UNL     1      11.370 -27.798  26.872  1.00  0.00     0.167 HD
ENDBRANCH  12  13
ENDBRANCH   2   5
BRANCH   3  23
ATOM     23  C   UNL     1       3.748 -23.734  20.114  1.00  0.00     0.154 C 
BRANCH  23  24
ATOM     24  C   UNL     1       2.582 -24.424  20.840  1.00  0.00     0.182 C 
BRANCH  24  25
ATOM     25  O   UNL     1       1.448 -24.450  19.950  1.00  0.00    -0.385 OA
ATOM     26  H   UNL     1       1.795 -24.831  19.115  1.00  0.00     0.211 HD
ENDBRANCH  24  25
BRANCH  24  27
ATOM     27  C   UNL     1       2.949 -25.840  21.246  1.00  0.00     0.071 A 
ATOM     28  C   UNL     1       2.139 -26.916  20.872  1.00  0.00     0.030 A 
ATOM     29  N   UNL     1       4.086 -25.994  21.983  1.00  0.00    -0.255 NA
ATOM     30  C   UNL     1       2.507 -28.201  21.262  1.00  0.00     0.043 A 
ATOM     31  C   UNL     1       4.414 -27.259  22.344  1.00  0.00     0.150 A 
ATOM     32  C   UNL     1       3.664 -28.371  22.008  1.00  0.00     0.141 A 
ATOM     33  F   UNL     1       4.041 -29.594  22.401  1.00  0.00    -0.205 F 
ENDBRANCH  24  27
ENDBRANCH  23  24
ENDBRANCH   3  23
TORSDOF 6
ENDMDL
MODEL 2
REMARK VINA RESULT:    -8.915      3.692      5.874
REMARK INTER + INTRA:         -13.191
REMARK INTER:                 -12.242
REMARK INTRA:                  -0.949
REMARK UNBOUND:                -1.410
REMARK SMILES O=C(NC[C@@H](O)c1ccc(F)cn1)[C@H]1CCN(c2ncnc3[nH]ccc23)CC12CC2
REMARK SMILES IDX 1 1 2 2 3 3 14 5 15 6 28 7 16 8 27 9 29 10 30 11 17 12 18 13
REMARK SMILES IDX 19 14 26 15 20 16 25 17 22 18 21 19 24 20 23 21 4 23 5 24
REMARK SMILES IDX 6 25 7 27 8 28 13 29 9 30 12 31 10 32 11 33
REMARK H PARENT 3 4 23 22 6 26
ROOT
ATOM      1  O   UNL     1       6.900 -21.259  22.588  1.00  0.00    -0.275 OA
ATOM      2  C   UNL     1       6.735 -21.178  21.373  1.00  0.00     0.223 C 
ATOM      3  N   UNL     1       6.830 -19.973  20.713  1.00  0.00    -0.353 N 
ATOM      4  H   UNL     1       6.825 -19.947  19.703  1.00  0.00     0.163 HD
ENDROOT
BRANCH   2   5
ATOM      5  C   UNL     1       6.473 -22.381  20.461  1.00  0.00     0.088 C 
ATOM      6  C   UNL     1       7.704 -23.289  20.364  1.00  0.00     0.035 C 
ATOM      7  C   UNL     1       5.299 -23.237  20.910  1.00  0.00    -0.000 C 
ATOM      8  C   UNL     1       7.973 -24.042  21.669  1.00  0.00     0.119 C 
ATOM      9  C   UNL     1       5.532 -23.916  22.247  1.00  0.00     0.126 C 
ATOM     10  C   UNL     1       3.883 -22.880  20.485  1.00  0.00     0.010 C 
ATOM     11  C   UNL     1       4.575 -24.045  19.843  1.00  0.00     0.010 C 
ATOM     12  N   UNL     1       6.763 -24.685  22.189  1.00  0.00    -0.355 N 
BRANCH  12  13
ATOM     13  C   UNL     1       6.977 -25.768  23.041  1.00  0.00     0.141 A 
ATOM     14  N   UNL     1       8.026 -25.681  23.912  1.00  0.00    -0.219 NA
ATOM     15  C   UNL     1       6.222 -26.969  23.093  1.00  0.00     0.061 A 
ATOM     16  C   UNL     1       8.317 -26.706  24.731  1.00  0.00     0.226 A 
ATOM     17  C   UNL     1       5.051 -27.512  22.473  1.00  0.00     0.033 A 
ATOM     18  C   UNL     1       6.643 -27.940  23.995  1.00  0.00     0.142 A 
ATOM     19  N   UNL     1       7.683 -27.879  24.836  1.00  0.00    -0.218 NA
ATOM     20  C   UNL     1       4.827 -28.773  22.987  1.00  0.00     0.085 A 
ATOM     21  N   UNL     1       5.808 -29.020  23.907  1.00  0.00    -0.346 N 
ATOM     22  H   UNL     1       5.915 -29.854  24.466  1.00  0.00     0.167 HD
ENDBRANCH  12  13
ENDBRANCH   2   5
BRANCH   3  23
ATOM     23  C   UNL     1       7.141 -18.744  21.429  1.00  0.00     0.154 C 
BRANCH  23  24
ATOM     24  C   UNL     1       6.048 -17.680  21.241  1.00  0.00     0.182 C 
BRANCH  24  25
ATOM     25  O   UNL     1       6.052 -17.268  19.860  1.00  0.00    -0.385 OA
ATOM     26  H   UNL     1       6.784 -17.777  19.450  1.00  0.00     0.211 HD
ENDBRANCH  24  25
BRANCH  24  27
ATOM     27  C   UNL     1       4.680 -18.226  21.611  1.00  0.00     0.071 A 
ATOM     28  C   UNL     1       3.595 -18.060  20.746  1.00  0.00     0.030 A 
ATOM     29  N   UNL     1       4.577 -18.867  22.810  1.00  0.00    -0.255 NA
ATOM     30  C   UNL     1       2.355 -18.574  21.119  1.00  0.00     0.043 A 
ATOM     31  C   UNL     1       3.356 -19.356  23.139  1.00  0.00     0.150 A 
ATOM     32  C   UNL     1       2.238 -19.233  22.333  1.00  0.00     0.141 A 
ATOM     33  F   UNL     1       1.059 -19.734  22.720  1.00  0.00    -0.205 F 
ENDBRANCH  24  27
ENDBRANCH  23  24
ENDBRANCH   3  23
TORSDOF 6
ENDMDL
MODEL 3
REMARK VINA RESULT:    -8.901      3.287      6.041
REMARK INTER + INTRA:         -13.173
REMARK INTER:                 -11.506
REMARK INTRA:                  -1.666
REMARK UNBOUND:                -1.410
REMARK SMILES O=C(NC[C@@H](O)c1ccc(F)cn1)[C@H]1CCN(c2ncnc3[nH]ccc23)CC12CC2
REMARK SMILES IDX 1 1 2 2 3 3 14 5 15 6 28 7 16 8 27 9 29 10 30 11 17 12 18 13
REMARK SMILES IDX 19 14 26 15 20 16 25 17 22 18 21 19 24 20 23 21 4 23 5 24
REMARK SMILES IDX 6 25 7 27 8 28 13 29 9 30 12 31 10 32 11 33
REMARK H PARENT 3 4 23 22 6 26
ROOT
ATOM      1  O   UNL     1       8.592 -22.837  20.811  1.00  0.00    -0.275 OA
ATOM      2  C   UNL     1       8.098 -22.289  21.793  1.00  0.00     0.223 C 
ATOM      3  N   UNL     1       7.773 -20.951  21.784  1.00  0.00    -0.353 N 
ATOM      4  H   UNL     1       7.246 -20.552  22.549  1.00  0.00     0.163 HD
ENDROOT
BRANCH   2   5
ATOM      5  C   UNL     1       7.734 -23.020  23.091  1.00  0.00     0.088 C 
ATOM      6  C   UNL     1       6.276 -22.762  23.488  1.00  0.00     0.035 C 
ATOM      7  C   UNL     1       7.934 -24.526  23.014  1.00  0.00    -0.000 C 
ATOM      8  C   UNL     1       5.286 -23.453  22.547  1.00  0.00     0.119 C 
ATOM      9  C   UNL     1       7.010 -25.200  22.016  1.00  0.00     0.126 C 
ATOM     10  C   UNL     1       9.296 -25.134  23.307  1.00  0.00     0.010 C 
ATOM     11  C   UNL     1       8.197 -25.264  24.318  1.00  0.00     0.010 C 
ATOM     12  N   UNL     1       5.633 -24.860  22.327  1.00  0.00    -0.355 N 
BRANCH  12  13
ATOM     13  C   UNL     1       4.580 -25.682  21.930  1.00  0.00     0.141 A 
ATOM     14  N   UNL     1       3.535 -25.090  21.277  1.00  0.00    -0.219 NA
ATOM     15  C   UNL     1       4.468 -27.081  22.144  1.00  0.00     0.061 A 
ATOM     16  C   UNL     1       2.466 -25.815  20.905  1.00  0.00     0.226 A 
ATOM     17  C   UNL     1       5.267 -28.137  22.692  1.00  0.00     0.033 A 
ATOM     18  C   UNL     1       3.302 -27.696  21.699  1.00  0.00     0.142 A 
ATOM     19  N   UNL     1       2.261 -27.125  21.081  1.00  0.00    -0.218 NA
ATOM     20  C   UNL     1       4.562 -29.318  22.590  1.00  0.00     0.085 A 
ATOM     21  N   UNL     1       3.367 -29.031  21.989  1.00  0.00    -0.346 N 
ATOM     22  H   UNL     1       2.632 -29.686  21.763  1.00  0.00     0.167 HD
ENDBRANCH  12  13
ENDBRANCH   2   5
BRANCH   3  23
ATOM     23  C   UNL     1       7.994 -20.130  20.603  1.00  0.00     0.154 C 
BRANCH  23  24
ATOM     24  C   UNL     1       6.749 -20.073  19.704  1.00  0.00     0.182 C 
BRANCH  24  25
ATOM     25  O   UNL     1       6.685 -21.295  18.941  1.00  0.00    -0.385 OA
ATOM     26  H   UNL     1       5.730 -21.424  18.758  1.00  0.00     0.211 HD
ENDBRANCH  24  25
BRANCH  24  27
ATOM     27  C   UNL     1       5.484 -19.915  20.528  1.00  0.00     0.071 A 
ATOM     28  C   UNL     1       4.327 -20.622  20.190  1.00  0.00     0.030 A 
ATOM     29  N   UNL     1       5.543 -19.059  21.588  1.00  0.00    -0.255 NA
ATOM     30  C   UNL     1       3.185 -20.452  20.970  1.00  0.00     0.043 A 
ATOM     31  C   UNL     1       4.413 -18.919  22.325  1.00  0.00     0.150 A 
ATOM     32  C   UNL     1       3.233 -19.588  22.054  1.00  0.00     0.141 A 
ATOM     33  F   UNL     1       2.150 -19.401  22.819  1.00  0.00    -0.205 F 
ENDBRANCH  24  27
ENDBRANCH  23  24
ENDBRANCH   3  23
TORSDOF 6
ENDMDL
MODEL 4
REMARK VINA RESULT:    -8.867      3.099      6.663
REMARK INTER + INTRA:         -13.128
REMARK INTER:                 -12.047
REMARK INTRA:                  -1.081
REMARK UNBOUND:                -1.410
REMARK SMILES O=C(NC[C@@H](O)c1ccc(F)cn1)[C@H]1CCN(c2ncnc3[nH]ccc23)CC12CC2
REMARK SMILES IDX 1 1 2 2 3 3 14 5 15 6 28 7 16 8 27 9 29 10 30 11 17 12 18 13
REMARK SMILES IDX 19 14 26 15 20 16 25 17 22 18 21 19 24 20 23 21 4 23 5 24
REMARK SMILES IDX 6 25 7 27 8 28 13 29 9 30 12 31 10 32 11 33
REMARK H PARENT 3 4 23 22 6 26
ROOT
ATOM      1  O   UNL     1       8.440 -23.468  23.740  1.00  0.00    -0.275 OA
ATOM      2  C   UNL     1       8.052 -23.906  22.660  1.00  0.00     0.223 C 
ATOM      3  N   UNL     1       7.474 -25.151  22.554  1.00  0.00    -0.353 N 
ATOM      4  H   UNL     1       7.041 -25.436  21.686  1.00  0.00     0.163 HD
ENDROOT
BRANCH   2   5
ATOM      5  C   UNL     1       8.106 -23.118  21.346  1.00  0.00     0.088 C 
ATOM      6  C   UNL     1       6.806 -23.271  20.548  1.00  0.00     0.035 C 
ATOM      7  C   UNL     1       8.359 -21.631  21.541  1.00  0.00    -0.000 C 
ATOM      8  C   UNL     1       5.632 -22.543  21.207  1.00  0.00     0.119 C 
ATOM      9  C   UNL     1       7.232 -20.925  22.272  1.00  0.00     0.126 C 
ATOM     10  C   UNL     1       9.780 -21.106  21.665  1.00  0.00     0.010 C 
ATOM     11  C   UNL     1       9.016 -20.877  20.395  1.00  0.00     0.010 C 
ATOM     12  N   UNL     1       5.980 -21.167  21.577  1.00  0.00    -0.355 N 
BRANCH  12  13
ATOM     13  C   UNL     1       4.905 -20.289  21.702  1.00  0.00     0.141 A 
ATOM     14  N   UNL     1       4.412 -20.078  22.959  1.00  0.00    -0.219 NA
ATOM     15  C   UNL     1       4.251 -19.593  20.651  1.00  0.00     0.061 A 
ATOM     16  C   UNL     1       3.348 -19.278  23.147  1.00  0.00     0.226 A 
ATOM     17  C   UNL     1       4.403 -19.424  19.237  1.00  0.00     0.033 A 
ATOM     18  C   UNL     1       3.164 -18.798  21.002  1.00  0.00     0.142 A 
ATOM     19  N   UNL     1       2.655 -18.601  22.224  1.00  0.00    -0.218 NA
ATOM     20  C   UNL     1       3.410 -18.578  18.788  1.00  0.00     0.085 A 
ATOM     21  N   UNL     1       2.662 -18.212  19.873  1.00  0.00    -0.346 N 
ATOM     22  H   UNL     1       1.867 -17.589  19.876  1.00  0.00     0.167 HD
ENDBRANCH  12  13
ENDBRANCH   2   5
BRANCH   3  23
ATOM     23  C   UNL     1       7.288 -25.998  23.722  1.00  0.00     0.154 C 
BRANCH  23  24
ATOM     24  C   UNL     1       7.089 -27.472  23.336  1.00  0.00     0.182 C 
BRANCH  24  25
ATOM     25  O   UNL     1       7.300 -28.279  24.512  1.00  0.00    -0.385 OA
ATOM     26  H   UNL     1       7.506 -29.174  24.165  1.00  0.00     0.211 HD
ENDBRANCH  24  25
BRANCH  24  27
ATOM     27  C   UNL     1       5.693 -27.713  22.790  1.00  0.00     0.071 A 
ATOM     28  C   UNL     1       5.209 -29.015  22.637  1.00  0.00     0.030 A 
ATOM     29  N   UNL     1       4.961 -26.610  22.464  1.00  0.00    -0.255 NA
ATOM     30  C   UNL     1       3.923 -29.198  22.133  1.00  0.00     0.043 A 
ATOM     31  C   UNL     1       3.713 -26.826  21.978  1.00  0.00     0.150 A 
ATOM     32  C   UNL     1       3.166 -28.084  21.802  1.00  0.00     0.141 A 
ATOM     33  F   UNL     1       1.929 -28.229  21.312  1.00  0.00    -0.205 F 
ENDBRANCH  24  27
ENDBRANCH  23  24
ENDBRANCH   3  23
TORSDOF 6
ENDMDL
MODEL 5
REMARK VINA RESULT:    -8.822      4.488      5.997
REMARK INTER + INTRA:         -13.068
REMARK INTER:                 -12.296
REMARK INTRA:                  -0.773
REMARK UNBOUND:                -1.410
REMARK SMILES O=C(NC[C@@H](O)c1ccc(F)cn1)[C@H]1CCN(c2ncnc3[nH]ccc23)CC12CC2
REMARK SMILES IDX 1 1 2 2 3 3 14 5 15 6 28 7 16 8 27 9 29 10 30 11 17 12 18 13
REMARK SMILES IDX 19 14 26 15 20 16 25 17 22 18 21 19 24 20 23 21 4 23 5 24
REMARK SMILES IDX 6 25 7 27 8 28 13 29 9 30 12 31 10 32 11 33
REMARK H PARENT 3 4 23 22 6 26
ROOT
ATOM      1  O   UNL     1       5.998 -22.312  19.439  1.00  0.00    -0.275 OA
ATOM      2  C   UNL     1       5.991 -21.441  20.305  1.00  0.00     0.223 C 
ATOM      3  N   UNL     1       5.248 -20.290  20.162  1.00  0.00    -0.353 N 
ATOM      4  H   UNL     1       5.149 -19.651  20.939  1.00  0.00     0.163 HD
ENDROOT
BRANCH   2   5
ATOM      5  C   UNL     1       6.738 -21.551  21.639  1.00  0.00     0.088 C 
ATOM      6  C   UNL     1       5.797 -21.969  22.774  1.00  0.00     0.035 C 
ATOM      7  C   UNL     1       7.894 -22.540  21.606  1.00  0.00    -0.000 C 
ATOM      8  C   UNL     1       5.340 -23.424  22.643  1.00  0.00     0.119 C 
ATOM      9  C   UNL     1       7.446 -23.973  21.389  1.00  0.00     0.126 C 
ATOM     10  C   UNL     1       9.265 -22.098  21.120  1.00  0.00     0.010 C 
ATOM     11  C   UNL     1       9.035 -22.313  22.586  1.00  0.00     0.010 C 
ATOM     12  N   UNL     1       6.467 -24.331  22.399  1.00  0.00    -0.355 N 
BRANCH  12  13
ATOM     13  C   UNL     1       6.255 -25.660  22.760  1.00  0.00     0.141 A 
ATOM     14  N   UNL     1       5.170 -26.291  22.219  1.00  0.00    -0.219 NA
ATOM     15  C   UNL     1       7.047 -26.436  23.648  1.00  0.00     0.061 A 
ATOM     16  C   UNL     1       4.881 -27.559  22.557  1.00  0.00     0.226 A 
ATOM     17  C   UNL     1       8.259 -26.282  24.395  1.00  0.00     0.033 A 
ATOM     18  C   UNL     1       6.623 -27.736  23.899  1.00  0.00     0.142 A 
ATOM     19  N   UNL     1       5.549 -28.358  23.396  1.00  0.00    -0.218 NA
ATOM     20  C   UNL     1       8.505 -27.456  25.078  1.00  0.00     0.085 A 
ATOM     21  N   UNL     1       7.496 -28.327  24.770  1.00  0.00    -0.346 N 
ATOM     22  H   UNL     1       7.395 -29.275  25.103  1.00  0.00     0.167 HD
ENDBRANCH  12  13
ENDBRANCH   2   5
BRANCH   3  23
ATOM     23  C   UNL     1       4.429 -20.064  18.981  1.00  0.00     0.154 C 
BRANCH  23  24
ATOM     24  C   UNL     1       4.383 -18.578  18.591  1.00  0.00     0.182 C 
BRANCH  24  25
ATOM     25  O   UNL     1       4.504 -18.483  17.157  1.00  0.00    -0.385 OA
ATOM     26  H   UNL     1       5.111 -17.726  17.008  1.00  0.00     0.211 HD
ENDBRANCH  24  25
BRANCH  24  27
ATOM     27  C   UNL     1       3.086 -17.932  19.042  1.00  0.00     0.071 A 
ATOM     28  C   UNL     1       2.269 -17.269  18.121  1.00  0.00     0.030 A 
ATOM     29  N   UNL     1       2.776 -18.030  20.366  1.00  0.00    -0.255 NA
ATOM     30  C   UNL     1       1.085 -16.688  18.571  1.00  0.00     0.043 A 
ATOM     31  C   UNL     1       1.616 -17.454  20.768  1.00  0.00     0.150 A 
ATOM     32  C   UNL     1       0.757 -16.786  19.915  1.00  0.00     0.141 A 
ATOM     33  F   UNL     1      -0.372 -16.234  20.377  1.00  0.00    -0.205 F 
ENDBRANCH  24  27
ENDBRANCH  23  24
ENDBRANCH   3  23
TORSDOF 6
ENDMDL
MODEL 6
REMARK VINA RESULT:    -8.752      3.794      6.119
REMARK INTER + INTRA:         -12.976
REMARK INTER:                 -11.745
REMARK INTRA:                  -1.231
REMARK UNBOUND:                -1.410
REMARK SMILES O=C(NC[C@@H](O)c1ccc(F)cn1)[C@H]1CCN(c2ncnc3[nH]ccc23)CC12CC2
REMARK SMILES IDX 1 1 2 2 3 3 14 5 15 6 28 7 16 8 27 9 29 10 30 11 17 12 18 13
REMARK SMILES IDX 19 14 26 15 20 16 25 17 22 18 21 19 24 20 23 21 4 23 5 24
REMARK SMILES IDX 6 25 7 27 8 28 13 29 9 30 12 31 10 32 11 33
REMARK H PARENT 3 4 23 22 6 26
ROOT
ATOM      1  O   UNL     1       6.275 -21.263  19.605  1.00  0.00    -0.275 OA
ATOM      2  C   UNL     1       6.788 -20.700  20.569  1.00  0.00     0.223 C 
ATOM      3  N   UNL     1       7.046 -19.347  20.559  1.00  0.00    -0.353 N 
ATOM      4  H   UNL     1       7.342 -18.882  21.406  1.00  0.00     0.163 HD
ENDROOT
BRANCH   2   5
ATOM      5  C   UNL     1       7.135 -21.402  21.886  1.00  0.00     0.088 C 
ATOM      6  C   UNL     1       5.898 -21.569  22.775  1.00  0.00     0.035 C 
ATOM      7  C   UNL     1       7.758 -22.776  21.694  1.00  0.00    -0.000 C 
ATOM      8  C   UNL     1       4.916 -22.601  22.215  1.00  0.00     0.119 C 
ATOM      9  C   UNL     1       6.811 -23.777  21.059  1.00  0.00     0.126 C 
ATOM     10  C   UNL     1       9.256 -22.914  21.475  1.00  0.00     0.010 C 
ATOM     11  C   UNL     1       8.666 -23.293  22.800  1.00  0.00     0.010 C 
ATOM     12  N   UNL     1       5.589 -23.849  21.840  1.00  0.00    -0.355 N 
BRANCH  12  13
ATOM     13  C   UNL     1       4.778 -24.982  21.807  1.00  0.00     0.141 A 
ATOM     14  N   UNL     1       3.573 -24.871  21.172  1.00  0.00    -0.219 NA
ATOM     15  C   UNL     1       5.066 -26.249  22.379  1.00  0.00     0.061 A 
ATOM     16  C   UNL     1       2.721 -25.910  21.141  1.00  0.00     0.226 A 
ATOM     17  C   UNL     1       6.155 -26.880  23.063  1.00  0.00     0.033 A 
ATOM     18  C   UNL     1       4.087 -27.230  22.263  1.00  0.00     0.142 A 
ATOM     19  N   UNL     1       2.893 -27.128  21.667  1.00  0.00    -0.218 NA
ATOM     20  C   UNL     1       5.794 -28.179  23.357  1.00  0.00     0.085 A 
ATOM     21  N   UNL     1       4.531 -28.373  22.869  1.00  0.00    -0.346 N 
ATOM     22  H   UNL     1       3.991 -29.225  22.915  1.00  0.00     0.167 HD
ENDBRANCH  12  13
ENDBRANCH   2   5
BRANCH   3  23
ATOM     23  C   UNL     1       6.711 -18.525  19.406  1.00  0.00     0.154 C 
BRANCH  23  24
ATOM     24  C   UNL     1       5.638 -17.477  19.742  1.00  0.00     0.182 C 
BRANCH  24  25
ATOM     25  O   UNL     1       5.155 -16.913  18.506  1.00  0.00    -0.385 OA
ATOM     26  H   UNL     1       5.665 -17.375  17.806  1.00  0.00     0.211 HD
ENDBRANCH  24  25
BRANCH  24  27
ATOM     27  C   UNL     1       4.485 -18.099  20.509  1.00  0.00     0.071 A 
ATOM     28  C   UNL     1       3.388 -18.630  19.827  1.00  0.00     0.030 A 
ATOM     29  N   UNL     1       4.581 -18.102  21.869  1.00  0.00    -0.255 NA
ATOM     30  C   UNL     1       2.348 -19.193  20.564  1.00  0.00     0.043 A 
ATOM     31  C   UNL     1       3.552 -18.658  22.554  1.00  0.00     0.150 A 
ATOM     32  C   UNL     1       2.436 -19.207  21.948  1.00  0.00     0.141 A 
ATOM     33  F   UNL     1       1.451 -19.737  22.683  1.00  0.00    -0.205 F 
ENDBRANCH  24  27
ENDBRANCH  23  24
ENDBRANCH   3  23
TORSDOF 6
ENDMDL
MODEL 7
REMARK VINA RESULT:    -8.609      4.536      6.393
REMARK INTER + INTRA:         -12.787
REMARK INTER:                 -12.044
REMARK INTRA:                  -0.744
REMARK UNBOUND:                -1.410
REMARK SMILES O=C(NC[C@@H](O)c1ccc(F)cn1)[C@H]1CCN(c2ncnc3[nH]ccc23)CC12CC2
REMARK SMILES IDX 1 1 2 2 3 3 14 5 15 6 28 7 16 8 27 9 29 10 30 11 17 12 18 13
REMARK SMILES IDX 19 14 26 15 20 16 25 17 22 18 21 19 24 20 23 21 4 23 5 24
REMARK SMILES IDX 6 25 7 27 8 28 13 29 9 30 12 31 10 32 11 33
REMARK H PARENT 3 4 23 22 6 26
ROOT
ATOM      1  O   UNL     1       5.347 -20.765  22.956  1.00  0.00    -0.275 OA
ATOM      2  C   UNL     1       4.967 -21.016  21.815  1.00  0.00     0.223 C 
ATOM      3  N   UNL     1       3.805 -20.476  21.309  1.00  0.00    -0.353 N 
ATOM      4  H   UNL     1       3.581 -20.585  20.330  1.00  0.00     0.163 HD
ENDROOT
BRANCH   2   5
ATOM      5  C   UNL     1       5.748 -21.883  20.822  1.00  0.00     0.088 C 
ATOM      6  C   UNL     1       7.214 -22.035  21.243  1.00  0.00     0.035 C 
ATOM      7  C   UNL     1       5.168 -23.279  20.650  1.00  0.00    -0.000 C 
ATOM      8  C   UNL     1       7.372 -22.909  22.489  1.00  0.00     0.119 C 
ATOM      9  C   UNL     1       5.247 -24.117  21.913  1.00  0.00     0.126 C 
ATOM     10  C   UNL     1       4.047 -23.525  19.653  1.00  0.00     0.010 C 
ATOM     11  C   UNL     1       5.436 -23.990  19.332  1.00  0.00     0.010 C 
ATOM     12  N   UNL     1       6.623 -24.164  22.375  1.00  0.00    -0.355 N 
BRANCH  12  13
ATOM     13  C   UNL     1       7.079 -25.210  23.175  1.00  0.00     0.141 A 
ATOM     14  N   UNL     1       8.177 -24.971  23.953  1.00  0.00    -0.219 NA
ATOM     15  C   UNL     1       6.528 -26.516  23.261  1.00  0.00     0.061 A 
ATOM     16  C   UNL     1       8.698 -25.948  24.715  1.00  0.00     0.226 A 
ATOM     17  C   UNL     1       5.403 -27.229  22.733  1.00  0.00     0.033 A 
ATOM     18  C   UNL     1       7.175 -27.420  24.097  1.00  0.00     0.142 A 
ATOM     19  N   UNL     1       8.266 -27.207  24.845  1.00  0.00    -0.218 NA
ATOM     20  C   UNL     1       5.426 -28.515  23.230  1.00  0.00     0.085 A 
ATOM     21  N   UNL     1       6.514 -28.616  24.054  1.00  0.00    -0.346 N 
ATOM     22  H   UNL     1       6.800 -29.430  24.579  1.00  0.00     0.167 HD
ENDBRANCH  12  13
ENDBRANCH   2   5
BRANCH   3  23
ATOM     23  C   UNL     1       2.983 -19.577  22.105  1.00  0.00     0.154 C 
BRANCH  23  24
ATOM     24  C   UNL     1       3.227 -18.104  21.740  1.00  0.00     0.182 C 
BRANCH  24  25
ATOM     25  O   UNL     1       4.641 -17.841  21.845  1.00  0.00    -0.385 OA
ATOM     26  H   UNL     1       4.706 -16.867  21.946  1.00  0.00     0.211 HD
ENDBRANCH  24  25
BRANCH  24  27
ATOM     27  C   UNL     1       2.752 -17.802  20.330  1.00  0.00     0.071 A 
ATOM     28  C   UNL     1       1.458 -17.321  20.108  1.00  0.00     0.030 A 
ATOM     29  N   UNL     1       3.639 -18.027  19.319  1.00  0.00    -0.255 NA
ATOM     30  C   UNL     1       1.056 -17.055  18.801  1.00  0.00     0.043 A 
ATOM     31  C   UNL     1       3.214 -17.756  18.060  1.00  0.00     0.150 A 
ATOM     32  C   UNL     1       1.951 -17.275  17.765  1.00  0.00     0.141 A 
ATOM     33  F   UNL     1       1.592 -17.032  16.498  1.00  0.00    -0.205 F 
ENDBRANCH  24  27
ENDBRANCH  23  24
ENDBRANCH   3  23
TORSDOF 6
ENDMDL
MODEL 8
REMARK VINA RESULT:    -8.558      4.960      6.958
REMARK INTER + INTRA:         -12.719
REMARK INTER:                 -11.832
REMARK INTRA:                  -0.888
REMARK UNBOUND:                -1.410
REMARK SMILES O=C(NC[C@@H](O)c1ccc(F)cn1)[C@H]1CCN(c2ncnc3[nH]ccc23)CC12CC2
REMARK SMILES IDX 1 1 2 2 3 3 14 5 15 6 28 7 16 8 27 9 29 10 30 11 17 12 18 13
REMARK SMILES IDX 19 14 26 15 20 16 25 17 22 18 21 19 24 20 23 21 4 23 5 24
REMARK SMILES IDX 6 25 7 27 8 28 13 29 9 30 12 31 10 32 11 33
REMARK H PARENT 3 4 23 22 6 26
ROOT
ATOM      1  O   UNL     1       7.438 -20.060  19.238  1.00  0.00    -0.275 OA
ATOM      2  C   UNL     1       6.839 -19.918  20.301  1.00  0.00     0.223 C 
ATOM      3  N   UNL     1       5.659 -19.212  20.372  1.00  0.00    -0.353 N 
ATOM      4  H   UNL     1       5.114 -19.221  21.224  1.00  0.00     0.163 HD
ENDROOT
BRANCH   2   5
ATOM      5  C   UNL     1       7.284 -20.544  21.627  1.00  0.00     0.088 C 
ATOM      6  C   UNL     1       6.094 -20.773  22.565  1.00  0.00     0.035 C 
ATOM      7  C   UNL     1       8.003 -21.874  21.458  1.00  0.00    -0.000 C 
ATOM      8  C   UNL     1       5.175 -21.895  22.076  1.00  0.00     0.119 C 
ATOM      9  C   UNL     1       7.114 -22.965  20.891  1.00  0.00     0.126 C 
ATOM     10  C   UNL     1       9.499 -21.906  21.188  1.00  0.00     0.010 C 
ATOM     11  C   UNL     1       8.985 -22.281  22.546  1.00  0.00     0.010 C 
ATOM     12  N   UNL     1       5.929 -23.101  21.718  1.00  0.00    -0.355 N 
BRANCH  12  13
ATOM     13  C   UNL     1       5.206 -24.292  21.752  1.00  0.00     0.141 A 
ATOM     14  N   UNL     1       3.995 -24.308  21.119  1.00  0.00    -0.219 NA
ATOM     15  C   UNL     1       5.591 -25.501  22.392  1.00  0.00     0.061 A 
ATOM     16  C   UNL     1       3.225 -25.410  21.149  1.00  0.00     0.226 A 
ATOM     17  C   UNL     1       6.725 -26.008  23.104  1.00  0.00     0.033 A 
ATOM     18  C   UNL     1       4.689 -26.558  22.336  1.00  0.00     0.142 A 
ATOM     19  N   UNL     1       3.489 -26.580  21.741  1.00  0.00    -0.218 NA
ATOM     20  C   UNL     1       6.465 -27.313  23.470  1.00  0.00     0.085 A 
ATOM     21  N   UNL     1       5.219 -27.629  23.000  1.00  0.00    -0.346 N 
ATOM     22  H   UNL     1       4.746 -28.516  23.097  1.00  0.00     0.167 HD
ENDBRANCH  12  13
ENDBRANCH   2   5
BRANCH   3  23
ATOM     23  C   UNL     1       5.067 -18.611  19.186  1.00  0.00     0.154 C 
BRANCH  23  24
ATOM     24  C   UNL     1       3.562 -18.909  19.083  1.00  0.00     0.182 C 
BRANCH  24  25
ATOM     25  O   UNL     1       3.248 -19.971  20.007  1.00  0.00    -0.385 OA
ATOM     26  H   UNL     1       3.838 -19.815  20.775  1.00  0.00     0.211 HD
ENDBRANCH  24  25
BRANCH  24  27
ATOM     27  C   UNL     1       2.736 -17.679  19.413  1.00  0.00     0.071 A 
ATOM     28  C   UNL     1       3.361 -16.485  19.781  1.00  0.00     0.030 A 
ATOM     29  N   UNL     1       1.380 -17.809  19.335  1.00  0.00    -0.255 NA
ATOM     30  C   UNL     1       2.570 -15.376  20.076  1.00  0.00     0.043 A 
ATOM     31  C   UNL     1       0.642 -16.709  19.627  1.00  0.00     0.150 A 
ATOM     32  C   UNL     1       1.191 -15.494  19.995  1.00  0.00     0.141 A 
ATOM     33  F   UNL     1       0.406 -14.447  20.277  1.00  0.00    -0.205 F 
ENDBRANCH  24  27
ENDBRANCH  23  24
ENDBRANCH   3  23
TORSDOF 6
ENDMDL
MODEL 9
REMARK VINA RESULT:    -8.398      6.040      7.874
REMARK INTER + INTRA:         -12.508
REMARK INTER:                 -11.911
REMARK INTRA:                  -0.597
REMARK UNBOUND:                -1.410
REMARK SMILES O=C(NC[C@@H](O)c1ccc(F)cn1)[C@H]1CCN(c2ncnc3[nH]ccc23)CC12CC2
REMARK SMILES IDX 1 1 2 2 3 3 14 5 15 6 28 7 16 8 27 9 29 10 30 11 17 12 18 13
REMARK SMILES IDX 19 14 26 15 20 16 25 17 22 18 21 19 24 20 23 21 4 23 5 24
REMARK SMILES IDX 6 25 7 27 8 28 13 29 9 30 12 31 10 32 11 33
REMARK H PARENT 3 4 23 22 6 26
ROOT
ATOM      1  O   UNL     1       3.756 -18.425  22.512  1.00  0.00    -0.275 OA
ATOM      2  C   UNL     1       4.498 -18.330  21.539  1.00  0.00     0.223 C 
ATOM      3  N   UNL     1       4.154 -17.571  20.443  1.00  0.00    -0.353 N 
ATOM      4  H   UNL     1       4.833 -17.396  19.714  1.00  0.00     0.163 HD
ENDROOT
BRANCH   2   5
ATOM      5  C   UNL     1       5.887 -18.975  21.453  1.00  0.00     0.088 C 
ATOM      6  C   UNL     1       6.182 -19.834  22.687  1.00  0.00     0.035 C 
ATOM      7  C   UNL     1       6.072 -19.850  20.223  1.00  0.00    -0.000 C 
ATOM      8  C   UNL     1       5.337 -21.109  22.723  1.00  0.00     0.119 C 
ATOM      9  C   UNL     1       5.171 -21.071  20.217  1.00  0.00     0.126 C 
ATOM     10  C   UNL     1       6.513 -19.235  18.904  1.00  0.00     0.010 C 
ATOM     11  C   UNL     1       7.491 -20.038  19.707  1.00  0.00     0.010 C 
ATOM     12  N   UNL     1       5.369 -21.823  21.443  1.00  0.00    -0.355 N 
BRANCH  12  13
ATOM     13  C   UNL     1       5.080 -23.185  21.508  1.00  0.00     0.141 A 
ATOM     14  N   UNL     1       4.034 -23.639  20.754  1.00  0.00    -0.219 NA
ATOM     15  C   UNL     1       5.753 -24.159  22.291  1.00  0.00     0.061 A 
ATOM     16  C   UNL     1       3.671 -24.933  20.803  1.00  0.00     0.226 A 
ATOM     17  C   UNL     1       6.889 -24.219  23.161  1.00  0.00     0.033 A 
ATOM     18  C   UNL     1       5.264 -25.460  22.236  1.00  0.00     0.142 A 
ATOM     19  N   UNL     1       4.226 -25.915  21.522  1.00  0.00    -0.218 NA
ATOM     20  C   UNL     1       7.026 -25.515  23.615  1.00  0.00     0.085 A 
ATOM     21  N   UNL     1       6.025 -26.255  23.047  1.00  0.00    -0.346 N 
ATOM     22  H   UNL     1       5.860 -27.244  23.172  1.00  0.00     0.167 HD
ENDBRANCH  12  13
ENDBRANCH   2   5
BRANCH   3  23
ATOM     23  C   UNL     1       2.897 -16.840  20.397  1.00  0.00     0.154 C 
BRANCH  23  24
ATOM     24  C   UNL     1       2.055 -17.225  19.170  1.00  0.00     0.182 C 
BRANCH  24  25
ATOM     25  O   UNL     1       1.862 -18.653  19.185  1.00  0.00    -0.385 OA
ATOM     26  H   UNL     1       2.065 -18.922  20.106  1.00  0.00     0.211 HD
ENDBRANCH  24  25
BRANCH  24  27
ATOM     27  C   UNL     1       0.708 -16.523  19.187  1.00  0.00     0.071 A 
ATOM     28  C   UNL     1       0.523 -15.367  19.950  1.00  0.00     0.030 A 
ATOM     29  N   UNL     1      -0.285 -17.079  18.435  1.00  0.00    -0.255 NA
ATOM     30  C   UNL     1      -0.727 -14.750  19.940  1.00  0.00     0.043 A 
ATOM     31  C   UNL     1      -1.487 -16.451  18.449  1.00  0.00     0.150 A 
ATOM     32  C   UNL     1      -1.743 -15.303  19.176  1.00  0.00     0.141 A 
ATOM     33  F   UNL     1      -2.955 -14.734  19.151  1.00  0.00    -0.205 F 
ENDBRANCH  24  27
ENDBRANCH  23  24
ENDBRANCH   3  23
TORSDOF 6
ENDMDL
