REMARK VINA RESULT:    -8.873      2.685      3.999
REMARK INTER + INTRA:         -15.500
REMARK INTER:                 -14.401
REMARK INTRA:                  -1.099
REMARK UNBOUND:                -1.181
REMARK SMILES COc1csc(-c2ccc(OCCCOc3ccc4c(c3)CC[C@H]4CC(=O)O)cc2)n1
REMARK SMILES IDX 13 1 12 2 11 3 10 4 7 5 8 6 30 7 9 8 29 9 6 10 3 11 4 12
REMARK SMILES IDX 31 13 5 14 2 15 1 16 14 17 15 18 16 19 17 20 21 21 18 22
REMARK SMILES IDX 20 23 19 24 22 25 24 26 23 27 25 28 26 29 27 30 28 31
REMARK H PARENT 28 32
ROOT
ATOM      1  C   UNL     1      38.899 -39.178 104.595  1.00  0.00     0.083 C 
ENDROOT
BRANCH   1   2
ATOM      2  C   UNL     1      39.946 -39.903 105.431  1.00  0.00     0.233 C 
BRANCH   2   3
ATOM      3  O   UNL     1      40.133 -39.193 106.655  1.00  0.00    -0.493 OA
BRANCH   3   4
ATOM      4  C   UNL     1      41.418 -38.988 107.067  1.00  0.00     0.119 A 
ATOM      5  C   UNL     1      44.166 -38.562 107.636  1.00  0.00     0.011 A 
ATOM      6  C   UNL     1      43.711 -38.681 106.316  1.00  0.00     0.015 A 
ATOM      7  C   UNL     1      43.210 -38.662 108.662  1.00  0.00     0.015 A 
ATOM      8  C   UNL     1      42.355 -38.892 106.038  1.00  0.00     0.047 A 
ATOM      9  C   UNL     1      41.852 -38.872 108.385  1.00  0.00     0.047 A 
BRANCH   5  10
ATOM     10  C   UNL     1      45.582 -38.340 108.002  1.00  0.00     0.127 A 
ATOM     11  C   UNL     1      47.531 -37.296 108.216  1.00  0.00     0.224 A 
ATOM     12  C   UNL     1      47.874 -38.494 108.798  1.00  0.00     0.135 A 
ATOM     13  N   UNL     1      46.231 -37.212 107.765  1.00  0.00    -0.202 NA
ATOM     14  S   UNL     1      46.532 -39.550 108.785  1.00  0.00    -0.118 S 
BRANCH  11  15
ATOM     15  O   UNL     1      48.454 -36.311 108.124  1.00  0.00    -0.480 OA
ATOM     16  C   UNL     1      48.426 -35.669 106.856  1.00  0.00     0.280 C 
ENDBRANCH  11  15
ENDBRANCH   5  10
ENDBRANCH   3   4
ENDBRANCH   2   3
ENDBRANCH   1   2
BRANCH   1  17
ATOM     17  C   UNL     1      39.400 -38.872 103.185  1.00  0.00     0.233 C 
BRANCH  17  18
ATOM     18  O   UNL     1      40.781 -38.519 103.284  1.00  0.00    -0.493 OA
BRANCH  18  19
ATOM     19  C   UNL     1      41.639 -39.117 102.399  1.00  0.00     0.119 A 
ATOM     20  C   UNL     1      41.593 -38.588 101.098  1.00  0.00     0.047 A 
ATOM     21  C   UNL     1      42.520 -40.161 102.693  1.00  0.00     0.050 A 
ATOM     22  C   UNL     1      42.413 -39.086 100.081  1.00  0.00     0.008 A 
ATOM     23  C   UNL     1      43.320 -40.659 101.673  1.00  0.00    -0.041 A 
ATOM     24  C   UNL     1      43.270 -40.132 100.378  1.00  0.00    -0.041 A 
ATOM     25  C   UNL     1      44.351 -41.739 101.774  1.00  0.00     0.036 C 
ATOM     26  C   UNL     1      44.275 -40.817  99.485  1.00  0.00     0.031 C 
ATOM     27  C   UNL     1      44.532 -42.109 100.296  1.00  0.00     0.014 C 
BRANCH  26  28
ATOM     28  C   UNL     1      43.778 -41.094  98.068  1.00  0.00     0.131 C 
BRANCH  28  29
ATOM     29  C   UNL     1      44.157 -39.993  97.117  1.00  0.00     0.303 C 
ATOM     30  O   UNL     1      45.262 -39.512  96.937  1.00  0.00    -0.252 OA
BRANCH  29  31
ATOM     31  O   UNL     1      43.090 -39.526  96.439  1.00  0.00    -0.481 OA
ATOM     32  H   UNL     1      43.433 -39.355  95.537  1.00  0.00     0.296 HD
ENDBRANCH  29  31
ENDBRANCH  28  29
ENDBRANCH  26  28
ENDBRANCH  18  19
ENDBRANCH  17  18
ENDBRANCH   1  17
TORSDOF 11
