MODEL 1
REMARK VINA RESULT:    -9.217      0.000      0.000
REMARK INTER + INTRA:         -11.484
REMARK INTER:                 -10.833
REMARK INTRA:                  -0.650
REMARK UNBOUND:                -0.650
REMARK SMILES Cc1ccccc1-c1nnc(Cc2nc3ccccc3[nH]2)o1
REMARK SMILES IDX 8 1 9 2 10 3 11 4 22 5 7 6 2 7 3 8 4 9 6 10 5 11 1 12 12 13
REMARK SMILES IDX 13 14 14 15 21 16 15 17 20 18 16 19 19 20 17 21 18 22
REMARK H PARENT 21 23
ROOT
ATOM      1  C   UNL     1      10.971   0.538  31.240  1.00  0.00     0.248 A 
ATOM      2  N   UNL     1      11.964   0.932  32.016  1.00  0.00    -0.108 NA
ATOM      3  N   UNL     1      12.755   1.776  31.267  1.00  0.00    -0.112 NA
ATOM      4  C   UNL     1      12.190   1.847  30.080  1.00  0.00     0.224 A 
ATOM      5  O   UNL     1      11.058   1.088  29.981  1.00  0.00    -0.420 OA
ENDROOT
BRANCH   1   6
ATOM      6  C   UNL     1       9.841  -0.357  31.501  1.00  0.00     0.042 A 
ATOM      7  C   UNL     1       8.560   0.127  31.861  1.00  0.00    -0.038 A 
ATOM      8  C   UNL     1       7.513  -0.787  32.093  1.00  0.00     0.004 A 
ATOM      9  C   UNL     1       7.718  -2.160  31.978  1.00  0.00     0.000 A 
ATOM     10  C   UNL     1      10.019  -1.752  31.391  1.00  0.00     0.014 A 
ATOM     11  C   UNL     1       8.971  -2.644  31.626  1.00  0.00     0.001 A 
ATOM     12  C   UNL     1       8.261   1.596  32.006  1.00  0.00     0.045 C 
ENDBRANCH   1   6
BRANCH   4  13
ATOM     13  C   UNL     1      12.612   2.627  28.891  1.00  0.00     0.174 C 
BRANCH  13  14
ATOM     14  C   UNL     1      13.816   2.054  28.215  1.00  0.00     0.116 A 
ATOM     15  N   UNL     1      14.621   2.689  27.385  1.00  0.00    -0.233 NA
ATOM     16  N   UNL     1      14.210   0.743  28.368  1.00  0.00    -0.342 N 
ATOM     17  C   UNL     1      15.565   1.767  27.003  1.00  0.00     0.089 A 
ATOM     18  C   UNL     1      15.330   0.537  27.606  1.00  0.00     0.065 A 
ATOM     19  C   UNL     1      16.659   1.907  26.137  1.00  0.00     0.030 A 
ATOM     20  C   UNL     1      16.136  -0.585  27.400  1.00  0.00     0.028 A 
ATOM     21  C   UNL     1      17.485   0.798  25.911  1.00  0.00     0.002 A 
ATOM     22  C   UNL     1      17.224  -0.426  26.535  1.00  0.00     0.002 A 
ATOM     23  H   UNL     1      13.761   0.057  28.963  1.00  0.00     0.168 HD
ENDBRANCH  13  14
ENDBRANCH   4  13
TORSDOF 3
ENDMDL
MODEL 2
REMARK VINA RESULT:    -9.201      1.382      8.072
REMARK INTER + INTRA:         -11.465
REMARK INTER:                 -10.832
REMARK INTRA:                  -0.633
REMARK UNBOUND:                -0.650
REMARK SMILES Cc1ccccc1-c1nnc(Cc2nc3ccccc3[nH]2)o1
REMARK SMILES IDX 8 1 9 2 10 3 11 4 22 5 7 6 2 7 3 8 4 9 6 10 5 11 1 12 12 13
REMARK SMILES IDX 13 14 14 15 21 16 15 17 20 18 16 19 19 20 17 21 18 22
REMARK H PARENT 21 23
ROOT
ATOM      1  C   UNL     1      13.998   1.155  27.924  1.00  0.00     0.248 A 
ATOM      2  N   UNL     1      12.773   1.087  27.438  1.00  0.00    -0.108 NA
ATOM      3  N   UNL     1      11.906   1.185  28.504  1.00  0.00    -0.112 NA
ATOM      4  C   UNL     1      12.660   1.312  29.577  1.00  0.00     0.224 A 
ATOM      5  O   UNL     1      13.997   1.297  29.293  1.00  0.00    -0.420 OA
ENDROOT
BRANCH   1   6
ATOM      6  C   UNL     1      15.303   1.103  27.260  1.00  0.00     0.042 A 
ATOM      7  C   UNL     1      16.102  -0.065  27.253  1.00  0.00    -0.038 A 
ATOM      8  C   UNL     1      17.346  -0.052  26.591  1.00  0.00     0.004 A 
ATOM      9  C   UNL     1      17.805   1.094  25.946  1.00  0.00     0.000 A 
ATOM     10  C   UNL     1      15.793   2.248  26.598  1.00  0.00     0.014 A 
ATOM     11  C   UNL     1      17.029   2.245  25.948  1.00  0.00     0.001 A 
ATOM     12  C   UNL     1      15.675  -1.343  27.928  1.00  0.00     0.045 C 
ENDBRANCH   1   6
BRANCH   4  13
ATOM     13  C   UNL     1      12.249   1.471  30.992  1.00  0.00     0.174 C 
BRANCH  13  14
ATOM     14  C   UNL     1      10.956   0.788  31.304  1.00  0.00     0.116 A 
ATOM     15  N   UNL     1       9.906   1.334  31.889  1.00  0.00    -0.233 NA
ATOM     16  N   UNL     1      10.723  -0.542  31.033  1.00  0.00    -0.342 N 
ATOM     17  C   UNL     1       8.970   0.334  31.985  1.00  0.00     0.089 A 
ATOM     18  C   UNL     1       9.458  -0.855  31.454  1.00  0.00     0.065 A 
ATOM     19  C   UNL     1       7.674   0.364  32.518  1.00  0.00     0.030 A 
ATOM     20  C   UNL     1       8.719  -2.039  31.417  1.00  0.00     0.028 A 
ATOM     21  C   UNL     1       6.909  -0.810  32.495  1.00  0.00     0.002 A 
ATOM     22  C   UNL     1       7.426  -1.990  31.952  1.00  0.00     0.002 A 
ATOM     23  H   UNL     1      11.372  -1.172  30.576  1.00  0.00     0.168 HD
ENDBRANCH  13  14
ENDBRANCH   4  13
TORSDOF 3
ENDMDL
MODEL 3
REMARK VINA RESULT:    -9.093      1.400      7.978
REMARK INTER + INTRA:         -11.338
REMARK INTER:                 -10.815
REMARK INTRA:                  -0.523
REMARK UNBOUND:                -0.650
REMARK SMILES Cc1ccccc1-c1nnc(Cc2nc3ccccc3[nH]2)o1
REMARK SMILES IDX 8 1 9 2 10 3 11 4 22 5 7 6 2 7 3 8 4 9 6 10 5 11 1 12 12 13
REMARK SMILES IDX 13 14 14 15 21 16 15 17 20 18 16 19 19 20 17 21 18 22
REMARK H PARENT 21 23
ROOT
ATOM      1  C   UNL     1      13.819   1.450  27.798  1.00  0.00     0.248 A 
ATOM      2  N   UNL     1      12.591   1.419  27.314  1.00  0.00    -0.108 NA
ATOM      3  N   UNL     1      11.729   1.461  28.389  1.00  0.00    -0.112 NA
ATOM      4  C   UNL     1      12.490   1.519  29.463  1.00  0.00     0.224 A 
ATOM      5  O   UNL     1      13.825   1.512  29.173  1.00  0.00    -0.420 OA
ENDROOT
BRANCH   1   6
ATOM      6  C   UNL     1      15.121   1.428  27.125  1.00  0.00     0.042 A 
ATOM      7  C   UNL     1      15.602   2.525  26.372  1.00  0.00    -0.038 A 
ATOM      8  C   UNL     1      16.865   2.443  25.754  1.00  0.00     0.004 A 
ATOM      9  C   UNL     1      17.648   1.296  25.868  1.00  0.00     0.000 A 
ATOM     10  C   UNL     1      15.935   0.281  27.224  1.00  0.00     0.014 A 
ATOM     11  C   UNL     1      17.184   0.214  26.604  1.00  0.00     0.001 A 
ATOM     12  C   UNL     1      14.814   3.799  26.202  1.00  0.00     0.045 C 
ENDBRANCH   1   6
BRANCH   4  13
ATOM     13  C   UNL     1      12.087   1.598  30.888  1.00  0.00     0.174 C 
BRANCH  13  14
ATOM     14  C   UNL     1      10.896   0.751  31.205  1.00  0.00     0.116 A 
ATOM     15  N   UNL     1       9.763   1.166  31.738  1.00  0.00    -0.233 NA
ATOM     16  N   UNL     1      10.865  -0.610  30.995  1.00  0.00    -0.342 N 
ATOM     17  C   UNL     1       8.977   0.046  31.863  1.00  0.00     0.089 A 
ATOM     18  C   UNL     1       9.646  -1.083  31.404  1.00  0.00     0.065 A 
ATOM     19  C   UNL     1       7.675  -0.087  32.365  1.00  0.00     0.030 A 
ATOM     20  C   UNL     1       9.085  -2.361  31.409  1.00  0.00     0.028 A 
ATOM     21  C   UNL     1       7.088  -1.358  32.384  1.00  0.00     0.002 A 
ATOM     22  C   UNL     1       7.784  -2.475  31.912  1.00  0.00     0.002 A 
ATOM     23  H   UNL     1      11.610  -1.160  30.584  1.00  0.00     0.168 HD
ENDBRANCH  13  14
ENDBRANCH   4  13
TORSDOF 3
ENDMDL
MODEL 4
REMARK VINA RESULT:    -8.892      3.216      8.223
REMARK INTER + INTRA:         -11.102
REMARK INTER:                 -10.768
REMARK INTRA:                  -0.334
REMARK UNBOUND:                -0.650
REMARK SMILES Cc1ccccc1-c1nnc(Cc2nc3ccccc3[nH]2)o1
REMARK SMILES IDX 8 1 9 2 10 3 11 4 22 5 7 6 2 7 3 8 4 9 6 10 5 11 1 12 12 13
REMARK SMILES IDX 13 14 14 15 21 16 15 17 20 18 16 19 19 20 17 21 18 22
REMARK H PARENT 21 23
ROOT
ATOM      1  C   UNL     1      10.746  -0.513  30.702  1.00  0.00     0.248 A 
ATOM      2  N   UNL     1      10.804  -1.831  30.660  1.00  0.00    -0.108 NA
ATOM      3  N   UNL     1       9.545  -2.304  30.960  1.00  0.00    -0.112 NA
ATOM      4  C   UNL     1       8.795  -1.240  31.162  1.00  0.00     0.224 A 
ATOM      5  O   UNL     1       9.483  -0.067  31.021  1.00  0.00    -0.420 OA
ENDROOT
BRANCH   1   6
ATOM      6  C   UNL     1      11.774   0.505  30.472  1.00  0.00     0.042 A 
ATOM      7  C   UNL     1      12.366   1.235  31.531  1.00  0.00    -0.038 A 
ATOM      8  C   UNL     1      13.354   2.197  31.244  1.00  0.00     0.004 A 
ATOM      9  C   UNL     1      13.757   2.445  29.934  1.00  0.00     0.000 A 
ATOM     10  C   UNL     1      12.203   0.777  29.156  1.00  0.00     0.014 A 
ATOM     11  C   UNL     1      13.182   1.735  28.888  1.00  0.00     0.001 A 
ATOM     12  C   UNL     1      11.982   1.025  32.973  1.00  0.00     0.045 C 
ENDBRANCH   1   6
BRANCH   4  13
ATOM     13  C   UNL     1       7.353  -1.165  31.500  1.00  0.00     0.174 C 
BRANCH  13  14
ATOM     14  C   UNL     1       6.928   0.196  31.947  1.00  0.00     0.116 A 
ATOM     15  N   UNL     1       5.981   0.469  32.825  1.00  0.00    -0.233 NA
ATOM     16  N   UNL     1       7.478   1.357  31.448  1.00  0.00    -0.342 N 
ATOM     17  C   UNL     1       5.929   1.840  32.903  1.00  0.00     0.089 A 
ATOM     18  C   UNL     1       6.859   2.421  32.049  1.00  0.00     0.065 A 
ATOM     19  C   UNL     1       5.108   2.665  33.684  1.00  0.00     0.030 A 
ATOM     20  C   UNL     1       7.028   3.802  31.924  1.00  0.00     0.028 A 
ATOM     21  C   UNL     1       5.255   4.054  33.579  1.00  0.00     0.002 A 
ATOM     22  C   UNL     1       6.201   4.610  32.713  1.00  0.00     0.002 A 
ATOM     23  H   UNL     1       8.230   1.409  30.772  1.00  0.00     0.168 HD
ENDBRANCH  13  14
ENDBRANCH   4  13
TORSDOF 3
ENDMDL
MODEL 5
REMARK VINA RESULT:    -8.818      0.738      1.626
REMARK INTER + INTRA:         -11.015
REMARK INTER:                 -10.349
REMARK INTRA:                  -0.666
REMARK UNBOUND:                -0.650
REMARK SMILES Cc1ccccc1-c1nnc(Cc2nc3ccccc3[nH]2)o1
REMARK SMILES IDX 8 1 9 2 10 3 11 4 22 5 7 6 2 7 3 8 4 9 6 10 5 11 1 12 12 13
REMARK SMILES IDX 13 14 14 15 21 16 15 17 20 18 16 19 19 20 17 21 18 22
REMARK H PARENT 21 23
ROOT
ATOM      1  C   UNL     1      10.217   0.648  31.349  1.00  0.00     0.248 A 
ATOM      2  N   UNL     1      11.357   0.791  31.999  1.00  0.00    -0.108 NA
ATOM      3  N   UNL     1      12.223   1.458  31.160  1.00  0.00    -0.112 NA
ATOM      4  C   UNL     1      11.553   1.684  30.049  1.00  0.00     0.224 A 
ATOM      5  O   UNL     1      10.276   1.197  30.088  1.00  0.00    -0.420 OA
ENDROOT
BRANCH   1   6
ATOM      6  C   UNL     1       8.954   0.020  31.744  1.00  0.00     0.042 A 
ATOM      7  C   UNL     1       8.767  -1.383  31.725  1.00  0.00    -0.038 A 
ATOM      8  C   UNL     1       7.530  -1.925  32.122  1.00  0.00     0.004 A 
ATOM      9  C   UNL     1       6.483  -1.102  32.533  1.00  0.00     0.000 A 
ATOM     10  C   UNL     1       7.877   0.829  32.164  1.00  0.00     0.014 A 
ATOM     11  C   UNL     1       6.655   0.276  32.554  1.00  0.00     0.001 A 
ATOM     12  C   UNL     1       9.851  -2.338  31.294  1.00  0.00     0.045 C 
ENDBRANCH   1   6
BRANCH   4  13
ATOM     13  C   UNL     1      11.996   2.380  28.817  1.00  0.00     0.174 C 
BRANCH  13  14
ATOM     14  C   UNL     1      13.282   1.844  28.275  1.00  0.00     0.116 A 
ATOM     15  N   UNL     1      14.164   2.512  27.556  1.00  0.00    -0.233 NA
ATOM     16  N   UNL     1      13.684   0.538  28.447  1.00  0.00    -0.342 N 
ATOM     17  C   UNL     1      15.165   1.616  27.268  1.00  0.00     0.089 A 
ATOM     18  C   UNL     1      14.888   0.369  27.817  1.00  0.00     0.065 A 
ATOM     19  C   UNL     1      16.349   1.794  26.538  1.00  0.00     0.030 A 
ATOM     20  C   UNL     1      15.736  -0.733  27.684  1.00  0.00     0.028 A 
ATOM     21  C   UNL     1      17.218   0.706  26.388  1.00  0.00     0.002 A 
ATOM     22  C   UNL     1      16.913  -0.535  26.954  1.00  0.00     0.002 A 
ATOM     23  H   UNL     1      13.183  -0.168  28.973  1.00  0.00     0.168 HD
ENDBRANCH  13  14
ENDBRANCH   4  13
TORSDOF 3
ENDMDL
MODEL 6
REMARK VINA RESULT:    -8.770      1.689      8.173
REMARK INTER + INTRA:         -10.958
REMARK INTER:                 -10.314
REMARK INTRA:                  -0.644
REMARK UNBOUND:                -0.650
REMARK SMILES Cc1ccccc1-c1nnc(Cc2nc3ccccc3[nH]2)o1
REMARK SMILES IDX 8 1 9 2 10 3 11 4 22 5 7 6 2 7 3 8 4 9 6 10 5 11 1 12 12 13
REMARK SMILES IDX 13 14 14 15 21 16 15 17 20 18 16 19 19 20 17 21 18 22
REMARK H PARENT 21 23
ROOT
ATOM      1  C   UNL     1      13.517   2.098  27.798  1.00  0.00     0.248 A 
ATOM      2  N   UNL     1      12.711   1.106  27.467  1.00  0.00    -0.108 NA
ATOM      3  N   UNL     1      12.065   0.705  28.616  1.00  0.00    -0.112 NA
ATOM      4  C   UNL     1      12.516   1.484  29.578  1.00  0.00     0.224 A 
ATOM      5  O   UNL     1      13.443   2.389  29.141  1.00  0.00    -0.420 OA
ENDROOT
BRANCH   1   6
ATOM      6  C   UNL     1      14.440   2.900  26.991  1.00  0.00     0.042 A 
ATOM      7  C   UNL     1      15.757   2.471  26.697  1.00  0.00    -0.038 A 
ATOM      8  C   UNL     1      16.594   3.287  25.911  1.00  0.00     0.004 A 
ATOM      9  C   UNL     1      16.149   4.512  25.420  1.00  0.00     0.000 A 
ATOM     10  C   UNL     1      14.016   4.144  26.481  1.00  0.00     0.014 A 
ATOM     11  C   UNL     1      14.859   4.942  25.704  1.00  0.00     0.001 A 
ATOM     12  C   UNL     1      16.311   1.159  27.192  1.00  0.00     0.045 C 
ENDBRANCH   1   6
BRANCH   4  13
ATOM     13  C   UNL     1      12.149   1.500  31.014  1.00  0.00     0.174 C 
BRANCH  13  14
ATOM     14  C   UNL     1      10.929   0.689  31.313  1.00  0.00     0.116 A 
ATOM     15  N   UNL     1       9.811   1.131  31.857  1.00  0.00    -0.233 NA
ATOM     16  N   UNL     1      10.850  -0.665  31.073  1.00  0.00    -0.342 N 
ATOM     17  C   UNL     1       8.987   0.037  31.958  1.00  0.00     0.089 A 
ATOM     18  C   UNL     1       9.615  -1.104  31.472  1.00  0.00     0.065 A 
ATOM     19  C   UNL     1       7.681  -0.062  32.458  1.00  0.00     0.030 A 
ATOM     20  C   UNL     1       9.010  -2.362  31.450  1.00  0.00     0.028 A 
ATOM     21  C   UNL     1       7.049  -1.312  32.449  1.00  0.00     0.002 A 
ATOM     22  C   UNL     1       7.706  -2.441  31.952  1.00  0.00     0.002 A 
ATOM     23  H   UNL     1      11.575  -1.232  30.649  1.00  0.00     0.168 HD
ENDBRANCH  13  14
ENDBRANCH   4  13
TORSDOF 3
ENDMDL
MODEL 7
REMARK VINA RESULT:    -8.435      1.931      8.142
REMARK INTER + INTRA:         -10.565
REMARK INTER:                  -9.879
REMARK INTRA:                  -0.686
REMARK UNBOUND:                -0.650
REMARK SMILES Cc1ccccc1-c1nnc(Cc2nc3ccccc3[nH]2)o1
REMARK SMILES IDX 8 1 9 2 10 3 11 4 22 5 7 6 2 7 3 8 4 9 6 10 5 11 1 12 12 13
REMARK SMILES IDX 13 14 14 15 21 16 15 17 20 18 16 19 19 20 17 21 18 22
REMARK H PARENT 21 23
ROOT
ATOM      1  C   UNL     1      12.937   1.538  29.833  1.00  0.00     0.248 A 
ATOM      2  N   UNL     1      13.260   1.805  31.085  1.00  0.00    -0.108 NA
ATOM      3  N   UNL     1      12.266   1.280  31.882  1.00  0.00    -0.112 NA
ATOM      4  C   UNL     1      11.400   0.720  31.063  1.00  0.00     0.224 A 
ATOM      5  O   UNL     1      11.751   0.845  29.748  1.00  0.00    -0.420 OA
ENDROOT
BRANCH   1   6
ATOM      6  C   UNL     1      13.617   1.854  28.574  1.00  0.00     0.042 A 
ATOM      7  C   UNL     1      13.199   2.914  27.734  1.00  0.00    -0.038 A 
ATOM      8  C   UNL     1      13.899   3.170  26.539  1.00  0.00     0.004 A 
ATOM      9  C   UNL     1      14.996   2.395  26.167  1.00  0.00     0.000 A 
ATOM     10  C   UNL     1      14.731   1.087  28.174  1.00  0.00     0.014 A 
ATOM     11  C   UNL     1      15.413   1.353  26.985  1.00  0.00     0.001 A 
ATOM     12  C   UNL     1      12.023   3.795  28.067  1.00  0.00     0.045 C 
ENDBRANCH   1   6
BRANCH   4  13
ATOM     13  C   UNL     1      10.147  -0.006  31.384  1.00  0.00     0.174 C 
BRANCH  13  14
ATOM     14  C   UNL     1       9.034   0.905  31.793  1.00  0.00     0.116 A 
ATOM     15  N   UNL     1       7.805   0.542  32.106  1.00  0.00    -0.233 NA
ATOM     16  N   UNL     1       9.169   2.274  31.857  1.00  0.00    -0.342 N 
ATOM     17  C   UNL     1       7.134   1.707  32.393  1.00  0.00     0.089 A 
ATOM     18  C   UNL     1       7.968   2.809  32.244  1.00  0.00     0.065 A 
ATOM     19  C   UNL     1       5.803   1.904  32.787  1.00  0.00     0.030 A 
ATOM     20  C   UNL     1       7.552   4.122  32.473  1.00  0.00     0.028 A 
ATOM     21  C   UNL     1       5.358   3.211  33.023  1.00  0.00     0.002 A 
ATOM     22  C   UNL     1       6.221   4.299  32.868  1.00  0.00     0.002 A 
ATOM     23  H   UNL     1      10.020   2.792  31.674  1.00  0.00     0.168 HD
ENDBRANCH  13  14
ENDBRANCH   4  13
TORSDOF 3
ENDMDL
MODEL 8
REMARK VINA RESULT:    -8.431      2.730      8.765
REMARK INTER + INTRA:         -10.560
REMARK INTER:                 -10.118
REMARK INTRA:                  -0.442
REMARK UNBOUND:                -0.650
REMARK SMILES Cc1ccccc1-c1nnc(Cc2nc3ccccc3[nH]2)o1
REMARK SMILES IDX 8 1 9 2 10 3 11 4 22 5 7 6 2 7 3 8 4 9 6 10 5 11 1 12 12 13
REMARK SMILES IDX 13 14 14 15 21 16 15 17 20 18 16 19 19 20 17 21 18 22
REMARK H PARENT 21 23
ROOT
ATOM      1  C   UNL     1      16.202   2.915  25.979  1.00  0.00     0.248 A 
ATOM      2  N   UNL     1      16.468   2.132  27.008  1.00  0.00    -0.108 NA
ATOM      3  N   UNL     1      15.265   1.823  27.606  1.00  0.00    -0.112 NA
ATOM      4  C   UNL     1      14.339   2.436  26.898  1.00  0.00     0.224 A 
ATOM      5  O   UNL     1      14.852   3.152  25.853  1.00  0.00    -0.420 OA
ENDROOT
BRANCH   1   6
ATOM      6  C   UNL     1      17.085   3.545  24.993  1.00  0.00     0.042 A 
ATOM      7  C   UNL     1      17.179   4.950  24.851  1.00  0.00    -0.038 A 
ATOM      8  C   UNL     1      18.051   5.493  23.888  1.00  0.00     0.004 A 
ATOM      9  C   UNL     1      18.822   4.670  23.069  1.00  0.00     0.000 A 
ATOM     10  C   UNL     1      17.876   2.736  24.152  1.00  0.00     0.014 A 
ATOM     11  C   UNL     1      18.735   3.291  23.200  1.00  0.00     0.001 A 
ATOM     12  C   UNL     1      16.379   5.905  25.699  1.00  0.00     0.045 C 
ENDBRANCH   1   6
BRANCH   4  13
ATOM     13  C   UNL     1      12.868   2.435  27.087  1.00  0.00     0.174 C 
BRANCH  13  14
ATOM     14  C   UNL     1      12.456   1.980  28.450  1.00  0.00     0.116 A 
ATOM     15  N   UNL     1      11.355   1.317  28.752  1.00  0.00    -0.233 NA
ATOM     16  N   UNL     1      13.192   2.242  29.584  1.00  0.00    -0.342 N 
ATOM     17  C   UNL     1      11.390   1.137  30.113  1.00  0.00     0.089 A 
ATOM     18  C   UNL     1      12.533   1.708  30.660  1.00  0.00     0.065 A 
ATOM     19  C   UNL     1      10.476   0.493  30.959  1.00  0.00     0.030 A 
ATOM     20  C   UNL     1      12.830   1.674  32.024  1.00  0.00     0.028 A 
ATOM     21  C   UNL     1      10.747   0.444  32.332  1.00  0.00     0.002 A 
ATOM     22  C   UNL     1      11.907   1.026  32.852  1.00  0.00     0.002 A 
ATOM     23  H   UNL     1      14.082   2.726  29.611  1.00  0.00     0.168 HD
ENDBRANCH  13  14
ENDBRANCH   4  13
TORSDOF 3
ENDMDL
MODEL 9
REMARK VINA RESULT:    -8.323      2.138      3.713
REMARK INTER + INTRA:         -10.434
REMARK INTER:                  -9.911
REMARK INTRA:                  -0.522
REMARK UNBOUND:                -0.650
REMARK SMILES Cc1ccccc1-c1nnc(Cc2nc3ccccc3[nH]2)o1
REMARK SMILES IDX 8 1 9 2 10 3 11 4 22 5 7 6 2 7 3 8 4 9 6 10 5 11 1 12 12 13
REMARK SMILES IDX 13 14 14 15 21 16 15 17 20 18 16 19 19 20 17 21 18 22
REMARK H PARENT 21 23
ROOT
ATOM      1  C   UNL     1       8.400   1.362  31.414  1.00  0.00     0.248 A 
ATOM      2  N   UNL     1       8.592   0.749  30.261  1.00  0.00    -0.108 NA
ATOM      3  N   UNL     1       9.949   0.750  30.020  1.00  0.00    -0.112 NA
ATOM      4  C   UNL     1      10.500   1.362  31.048  1.00  0.00     0.224 A 
ATOM      5  O   UNL     1       9.585   1.783  31.972  1.00  0.00    -0.420 OA
ENDROOT
BRANCH   1   6
ATOM      6  C   UNL     1       7.172   1.653  32.158  1.00  0.00     0.042 A 
ATOM      7  C   UNL     1       6.361   0.632  32.709  1.00  0.00    -0.038 A 
ATOM      8  C   UNL     1       5.195   0.978  33.419  1.00  0.00     0.004 A 
ATOM      9  C   UNL     1       4.823   2.310  33.586  1.00  0.00     0.000 A 
ATOM     10  C   UNL     1       6.772   2.993  32.344  1.00  0.00     0.014 A 
ATOM     11  C   UNL     1       5.612   3.319  33.049  1.00  0.00     0.001 A 
ATOM     12  C   UNL     1       6.696  -0.831  32.570  1.00  0.00     0.045 C 
ENDBRANCH   1   6
BRANCH   4  13
ATOM     13  C   UNL     1      11.934   1.627  31.316  1.00  0.00     0.174 C 
BRANCH  13  14
ATOM     14  C   UNL     1      12.700   1.989  30.083  1.00  0.00     0.116 A 
ATOM     15  N   UNL     1      13.842   1.458  29.690  1.00  0.00    -0.233 NA
ATOM     16  N   UNL     1      12.296   2.975  29.210  1.00  0.00    -0.342 N 
ATOM     17  C   UNL     1      14.175   2.110  28.528  1.00  0.00     0.089 A 
ATOM     18  C   UNL     1      13.221   3.067  28.204  1.00  0.00     0.065 A 
ATOM     19  C   UNL     1      15.285   1.939  27.688  1.00  0.00     0.030 A 
ATOM     20  C   UNL     1      13.302   3.879  27.071  1.00  0.00     0.028 A 
ATOM     21  C   UNL     1      15.393   2.741  26.544  1.00  0.00     0.002 A 
ATOM     22  C   UNL     1      14.416   3.694  26.244  1.00  0.00     0.002 A 
ATOM     23  H   UNL     1      11.445   3.520  29.289  1.00  0.00     0.168 HD
ENDBRANCH  13  14
ENDBRANCH   4  13
TORSDOF 3
ENDMDL
