MODEL 5
REMARK VINA RESULT:    -8.223      3.085      6.674
REMARK INTER + INTRA:         -10.357
REMARK INTER:                 -10.099
REMARK INTRA:                  -0.258
REMARK UNBOUND:                 0.511
REMARK SMILES NCCn1c(Cc2ccccc2)nc2cc(C(N)=O)ccc21
REMARK SMILES IDX 3 1 2 2 1 3 4 6 5 7 22 8 13 9 21 10 14 11 20 12 15 13 16 14
REMARK SMILES IDX 6 15 7 16 8 17 12 18 9 19 11 20 10 21 17 22 18 23 19 24
REMARK H PARENT 1 4 1 5 18 25 18 26
ROOT
ATOM      1  C   UNL     1      -5.716  25.232 -33.505  1.00  0.00     0.139 C 
ENDROOT
BRANCH   1   2
ATOM      2  C   UNL     1      -6.917  24.331 -33.199  1.00  0.00     0.099 C 
BRANCH   2   3
ATOM      3  N   UNL     1      -6.792  23.027 -33.855  1.00  0.00    -0.329 NA
ATOM      4  H   UNL     1      -5.890  22.621 -33.604  1.00  0.00     0.118 HD
ATOM      5  H   UNL     1      -7.487  22.390 -33.463  1.00  0.00     0.118 HD
ENDBRANCH   2   3
ENDBRANCH   1   2
BRANCH   1   6
ATOM      6  N   UNL     1      -5.092  25.743 -32.297  1.00  0.00    -0.326 N 
ATOM      7  C   UNL     1      -4.397  25.018 -31.351  1.00  0.00     0.114 A 
ATOM      8  C   UNL     1      -5.100  27.065 -31.904  1.00  0.00     0.068 A 
ATOM      9  N   UNL     1      -3.944  25.813 -30.400  1.00  0.00    -0.233 NA
ATOM     10  C   UNL     1      -5.654  28.225 -32.460  1.00  0.00     0.029 A 
ATOM     11  C   UNL     1      -4.366  27.076 -30.725  1.00  0.00     0.090 A 
ATOM     12  C   UNL     1      -5.443  29.426 -31.770  1.00  0.00     0.016 A 
ATOM     13  C   UNL     1      -4.157  28.284 -30.045  1.00  0.00     0.044 A 
ATOM     14  C   UNL     1      -4.713  29.458 -30.573  1.00  0.00     0.041 A 
BRANCH   7  15
ATOM     15  C   UNL     1      -4.191  23.531 -31.383  1.00  0.00     0.111 C 
BRANCH  15  16
ATOM     16  C   UNL     1      -3.660  22.952 -30.090  1.00  0.00    -0.040 A 
ATOM     17  C   UNL     1      -2.293  23.031 -29.783  1.00  0.00     0.004 A 
ATOM     18  C   UNL     1      -4.518  22.299 -29.192  1.00  0.00     0.004 A 
ATOM     19  C   UNL     1      -1.801  22.493 -28.592  1.00  0.00     0.000 A 
ATOM     20  C   UNL     1      -4.025  21.762 -28.002  1.00  0.00     0.000 A 
ATOM     21  C   UNL     1      -2.669  21.862 -27.701  1.00  0.00     0.000 A 
ENDBRANCH  15  16
ENDBRANCH   7  15
BRANCH  14  22
ATOM     22  C   UNL     1      -4.482  30.727 -29.836  1.00  0.00     0.248 C 
ATOM     23  N   UNL     1      -5.068  31.859 -30.335  1.00  0.00    -0.366 N 
ATOM     24  O   UNL     1      -3.827  30.767 -28.802  1.00  0.00    -0.270 OA
ATOM     25  H   UNL     1      -5.013  32.674 -29.738  1.00  0.00     0.159 HD
ATOM     26  H   UNL     1      -5.846  31.812 -30.979  1.00  0.00     0.159 HD
ENDBRANCH  14  22
ENDBRANCH   1   6
TORSDOF 6
ENDMDL
