MODEL 7
REMARK VINA RESULT:    -7.937      3.633      7.188
REMARK INTER + INTRA:          -9.979
REMARK INTER:                  -9.361
REMARK INTRA:                  -0.618
REMARK UNBOUND:                 0.511
REMARK SMILES NCCn1c(Cc2ccccc2)nc2cc(C(N)=O)ccc21
REMARK SMILES IDX 3 1 2 2 1 3 4 6 5 7 22 8 13 9 21 10 14 11 20 12 15 13 16 14
REMARK SMILES IDX 6 15 7 16 8 17 12 18 9 19 11 20 10 21 17 22 18 23 19 24
REMARK H PARENT 1 4 1 5 18 25 18 26
ROOT
ATOM      1  C   UNL     1      -2.340  23.297 -28.529  1.00  0.00     0.139 C 
ENDROOT
BRANCH   1   2
ATOM      2  C   UNL     1      -3.235  22.229 -27.892  1.00  0.00     0.099 C 
BRANCH   2   3
ATOM      3  N   UNL     1      -2.755  21.847 -26.562  1.00  0.00    -0.329 NA
ATOM      4  H   UNL     1      -3.562  21.705 -25.953  1.00  0.00     0.118 HD
ATOM      5  H   UNL     1      -2.304  20.934 -26.620  1.00  0.00     0.118 HD
ENDBRANCH   2   3
ENDBRANCH   1   2
BRANCH   1   6
ATOM      6  N   UNL     1      -3.021  24.572 -28.667  1.00  0.00    -0.326 N 
ATOM      7  C   UNL     1      -3.098  25.578 -27.726  1.00  0.00     0.114 A 
ATOM      8  C   UNL     1      -3.710  24.980 -29.790  1.00  0.00     0.068 A 
ATOM      9  N   UNL     1      -3.774  26.606 -28.204  1.00  0.00    -0.233 NA
ATOM     10  C   UNL     1      -3.968  24.376 -31.027  1.00  0.00     0.029 A 
ATOM     11  C   UNL     1      -4.156  26.257 -29.472  1.00  0.00     0.090 A 
ATOM     12  C   UNL     1      -4.713  25.116 -31.954  1.00  0.00     0.016 A 
ATOM     13  C   UNL     1      -4.897  26.990 -30.409  1.00  0.00     0.044 A 
ATOM     14  C   UNL     1      -5.181  26.402 -31.651  1.00  0.00     0.041 A 
BRANCH   7  15
ATOM     15  C   UNL     1      -2.512  25.516 -26.345  1.00  0.00     0.111 C 
BRANCH  15  16
ATOM     16  C   UNL     1      -1.010  25.692 -26.302  1.00  0.00    -0.040 A 
ATOM     17  C   UNL     1      -0.180  24.633 -25.905  1.00  0.00     0.004 A 
ATOM     18  C   UNL     1      -0.425  26.926 -26.625  1.00  0.00     0.004 A 
ATOM     19  C   UNL     1       1.206  24.796 -25.861  1.00  0.00     0.000 A 
ATOM     20  C   UNL     1       0.961  27.087 -26.581  1.00  0.00     0.000 A 
ATOM     21  C   UNL     1       1.775  26.022 -26.202  1.00  0.00     0.000 A 
ENDBRANCH  15  16
ENDBRANCH   7  15
BRANCH  14  22
ATOM     22  C   UNL     1      -5.969  27.195 -32.629  1.00  0.00     0.248 C 
ATOM     23  N   UNL     1      -5.958  28.556 -32.489  1.00  0.00    -0.366 N 
ATOM     24  O   UNL     1      -6.578  26.667 -33.551  1.00  0.00    -0.270 OA
ATOM     25  H   UNL     1      -6.382  29.073 -33.248  1.00  0.00     0.159 HD
ATOM     26  H   UNL     1      -5.239  29.027 -31.956  1.00  0.00     0.159 HD
ENDBRANCH  14  22
ENDBRANCH   1   6
TORSDOF 6
ENDMDL
