MODEL 1
REMARK VINA RESULT:    -7.250      0.000      0.000
REMARK INTER + INTRA:         -16.959
REMARK INTER:                 -15.514
REMARK INTRA:                  -1.446
REMARK UNBOUND:                -1.446
REMARK SMILES CCCCCCCC/C=C\CCCCCCCCCCCC(=O)O
REMARK SMILES IDX 13 1 12 2 11 3 10 4 9 5 8 6 7 7 6 8 5 9 4 10 3 11 2 12 1 13
REMARK SMILES IDX 14 14 15 15 16 16 17 17 18 18 19 19 20 20 21 21 22 22 23 23
REMARK SMILES IDX 24 24
REMARK H PARENT 24 25
ROOT
ATOM      1  C   UNL     1      45.765 -41.568 108.168  1.00  0.00     0.000 C 
ENDROOT
BRANCH   1   2
ATOM      2  C   UNL     1      45.371 -43.048 108.108  1.00  0.00     0.004 C 
BRANCH   2   3
ATOM      3  C   UNL     1      44.551 -43.395 106.858  1.00  0.00     0.027 C 
BRANCH   3   4
ATOM      4  C   UNL     1      45.365 -43.356 105.596  1.00  0.00    -0.031 C 
ATOM      5  C   UNL     1      45.202 -42.545 104.539  1.00  0.00    -0.031 C 
BRANCH   5   6
ATOM      6  C   UNL     1      44.157 -41.481 104.346  1.00  0.00     0.027 C 
BRANCH   6   7
ATOM      7  C   UNL     1      43.200 -41.774 103.186  1.00  0.00     0.004 C 
BRANCH   7   8
ATOM      8  C   UNL     1      43.855 -42.233 101.877  1.00  0.00     0.000 C 
BRANCH   8   9
ATOM      9  C   UNL     1      44.134 -41.086 100.903  1.00  0.00     0.000 C 
BRANCH   9  10
ATOM     10  C   UNL     1      42.958 -40.108 100.851  1.00  0.00    -0.000 C 
BRANCH  10  11
ATOM     11  C   UNL     1      42.511 -39.770  99.426  1.00  0.00    -0.000 C 
BRANCH  11  12
ATOM     12  C   UNL     1      43.156 -40.655  98.359  1.00  0.00    -0.003 C 
ATOM     13  C   UNL     1      43.279 -39.923  97.031  1.00  0.00     0.004 C 
ENDBRANCH  11  12
ENDBRANCH  10  11
ENDBRANCH   9  10
ENDBRANCH   8   9
ENDBRANCH   7   8
ENDBRANCH   6   7
ENDBRANCH   5   6
ENDBRANCH   3   4
ENDBRANCH   2   3
ENDBRANCH   1   2
BRANCH   1  14
ATOM     14  C   UNL     1      47.278 -41.345 108.231  1.00  0.00     0.000 C 
BRANCH  14  15
ATOM     15  C   UNL     1      47.673 -39.982 108.802  1.00  0.00     0.000 C 
BRANCH  15  16
ATOM     16  C   UNL     1      49.053 -39.553 108.296  1.00  0.00     0.000 C 
BRANCH  16  17
ATOM     17  C   UNL     1      49.082 -39.443 106.771  1.00  0.00     0.000 C 
BRANCH  17  18
ATOM     18  C   UNL     1      49.560 -38.061 106.325  1.00  0.00     0.000 C 
BRANCH  18  19
ATOM     19  C   UNL     1      49.533 -37.060 107.482  1.00  0.00     0.001 C 
BRANCH  19  20
ATOM     20  C   UNL     1      48.329 -36.119 107.373  1.00  0.00     0.012 C 
BRANCH  20  21
ATOM     21  C   UNL     1      48.607 -34.743 107.972  1.00  0.00     0.122 C 
BRANCH  21  22
ATOM     22  C   UNL     1      48.118 -34.608 109.387  1.00  0.00     0.303 C 
ATOM     23  O   UNL     1      48.455 -33.750 110.184  1.00  0.00    -0.252 OA
BRANCH  22  24
ATOM     24  O   UNL     1      47.257 -35.577 109.745  1.00  0.00    -0.481 OA
ATOM     25  H   UNL     1      47.805 -36.390 109.756  1.00  0.00     0.296 HD
ENDBRANCH  22  24
ENDBRANCH  21  22
ENDBRANCH  20  21
ENDBRANCH  19  20
ENDBRANCH  18  19
ENDBRANCH  17  18
ENDBRANCH  16  17
ENDBRANCH  15  16
ENDBRANCH  14  15
ENDBRANCH   1  14
TORSDOF 20
ENDMDL
MODEL 2
REMARK VINA RESULT:    -7.183      4.267      7.845
REMARK INTER + INTRA:         -16.816
REMARK INTER:                 -13.955
REMARK INTRA:                  -2.861
REMARK UNBOUND:                -1.446
REMARK SMILES CCCCCCCC/C=C\CCCCCCCCCCCC(=O)O
REMARK SMILES IDX 13 1 12 2 11 3 10 4 9 5 8 6 7 7 6 8 5 9 4 10 3 11 2 12 1 13
REMARK SMILES IDX 14 14 15 15 16 16 17 17 18 18 19 19 20 20 21 21 22 22 23 23
REMARK SMILES IDX 24 24
REMARK H PARENT 24 25
ROOT
ATOM      1  C   UNL     1      45.162 -42.743 104.884  1.00  0.00     0.000 C 
ENDROOT
BRANCH   1   2
ATOM      2  C   UNL     1      44.659 -43.684 105.984  1.00  0.00     0.004 C 
BRANCH   2   3
ATOM      3  C   UNL     1      44.594 -43.008 107.360  1.00  0.00     0.027 C 
BRANCH   3   4
ATOM      4  C   UNL     1      45.925 -42.973 108.057  1.00  0.00    -0.031 C 
ATOM      5  C   UNL     1      46.677 -41.897 108.336  1.00  0.00    -0.031 C 
BRANCH   5   6
ATOM      6  C   UNL     1      46.386 -40.459 108.008  1.00  0.00     0.027 C 
BRANCH   6   7
ATOM      7  C   UNL     1      45.758 -39.687 109.174  1.00  0.00     0.004 C 
BRANCH   7   8
ATOM      8  C   UNL     1      44.583 -38.770 108.814  1.00  0.00     0.000 C 
BRANCH   8   9
ATOM      9  C   UNL     1      43.233 -39.490 108.799  1.00  0.00     0.000 C 
BRANCH   9  10
ATOM     10  C   UNL     1      42.673 -39.586 107.378  1.00  0.00    -0.000 C 
BRANCH  10  11
ATOM     11  C   UNL     1      43.165 -38.470 106.454  1.00  0.00    -0.000 C 
BRANCH  11  12
ATOM     12  C   UNL     1      42.437 -38.425 105.111  1.00  0.00    -0.003 C 
ATOM     13  C   UNL     1      41.197 -39.307 105.121  1.00  0.00     0.004 C 
ENDBRANCH  11  12
ENDBRANCH  10  11
ENDBRANCH   9  10
ENDBRANCH   8   9
ENDBRANCH   7   8
ENDBRANCH   6   7
ENDBRANCH   5   6
ENDBRANCH   3   4
ENDBRANCH   2   3
ENDBRANCH   1   2
BRANCH   1  14
ATOM     14  C   UNL     1      44.278 -41.509 104.688  1.00  0.00     0.000 C 
BRANCH  14  15
ATOM     15  C   UNL     1      43.534 -41.493 103.351  1.00  0.00     0.000 C 
BRANCH  15  16
ATOM     16  C   UNL     1      44.031 -42.611 102.432  1.00  0.00     0.000 C 
BRANCH  16  17
ATOM     17  C   UNL     1      44.624 -42.052 101.138  1.00  0.00     0.000 C 
BRANCH  17  18
ATOM     18  C   UNL     1      44.050 -40.671 100.818  1.00  0.00     0.000 C 
BRANCH  18  19
ATOM     19  C   UNL     1      43.106 -40.723  99.615  1.00  0.00     0.001 C 
BRANCH  19  20
ATOM     20  C   UNL     1      42.128 -39.544  99.627  1.00  0.00     0.012 C 
BRANCH  20  21
ATOM     21  C   UNL     1      41.984 -38.917 101.011  1.00  0.00     0.122 C 
BRANCH  21  22
ATOM     22  C   UNL     1      40.855 -37.929 101.094  1.00  0.00     0.303 C 
ATOM     23  O   UNL     1      39.735 -38.154 101.519  1.00  0.00    -0.252 OA
BRANCH  22  24
ATOM     24  O   UNL     1      41.173 -36.717 100.607  1.00  0.00    -0.481 OA
ATOM     25  H   UNL     1      42.092 -36.571 100.915  1.00  0.00     0.296 HD
ENDBRANCH  22  24
ENDBRANCH  21  22
ENDBRANCH  20  21
ENDBRANCH  19  20
ENDBRANCH  18  19
ENDBRANCH  17  18
ENDBRANCH  16  17
ENDBRANCH  15  16
ENDBRANCH  14  15
ENDBRANCH   1  14
TORSDOF 20
ENDMDL
MODEL 3
REMARK VINA RESULT:    -7.122      3.359      4.329
REMARK INTER + INTRA:         -16.686
REMARK INTER:                 -14.398
REMARK INTRA:                  -2.287
REMARK UNBOUND:                -1.446
REMARK SMILES CCCCCCCC/C=C\CCCCCCCCCCCC(=O)O
REMARK SMILES IDX 13 1 12 2 11 3 10 4 9 5 8 6 7 7 6 8 5 9 4 10 3 11 2 12 1 13
REMARK SMILES IDX 14 14 15 15 16 16 17 17 18 18 19 19 20 20 21 21 22 22 23 23
REMARK SMILES IDX 24 24
REMARK H PARENT 24 25
ROOT
ATOM      1  C   UNL     1      44.699 -43.659 106.245  1.00  0.00     0.000 C 
ENDROOT
BRANCH   1   2
ATOM      2  C   UNL     1      45.269 -42.604 105.290  1.00  0.00     0.004 C 
BRANCH   2   3
ATOM      3  C   UNL     1      44.179 -41.846 104.522  1.00  0.00     0.027 C 
BRANCH   3   4
ATOM      4  C   UNL     1      43.630 -40.676 105.288  1.00  0.00    -0.031 C 
ATOM      5  C   UNL     1      42.613 -39.871 104.941  1.00  0.00    -0.031 C 
BRANCH   5   6
ATOM      6  C   UNL     1      41.778 -39.929 103.692  1.00  0.00     0.027 C 
BRANCH   6   7
ATOM      7  C   UNL     1      42.188 -38.894 102.639  1.00  0.00     0.004 C 
BRANCH   7   8
ATOM      8  C   UNL     1      43.361 -39.289 101.733  1.00  0.00     0.000 C 
BRANCH   8   9
ATOM      9  C   UNL     1      43.055 -40.487 100.832  1.00  0.00     0.000 C 
BRANCH   9  10
ATOM     10  C   UNL     1      44.335 -41.051 100.210  1.00  0.00    -0.000 C 
BRANCH  10  11
ATOM     11  C   UNL     1      44.631 -40.492  98.816  1.00  0.00    -0.000 C 
BRANCH  11  12
ATOM     12  C   UNL     1      43.377 -40.076  98.047  1.00  0.00    -0.003 C 
ATOM     13  C   UNL     1      42.827 -41.228  97.219  1.00  0.00     0.004 C 
ENDBRANCH  11  12
ENDBRANCH  10  11
ENDBRANCH   9  10
ENDBRANCH   8   9
ENDBRANCH   7   8
ENDBRANCH   6   7
ENDBRANCH   5   6
ENDBRANCH   3   4
ENDBRANCH   2   3
ENDBRANCH   1   2
BRANCH   1  14
ATOM     14  C   UNL     1      44.844 -43.282 107.722  1.00  0.00     0.000 C 
BRANCH  14  15
ATOM     15  C   UNL     1      46.267 -42.885 108.117  1.00  0.00     0.000 C 
BRANCH  15  16
ATOM     16  C   UNL     1      46.319 -41.433 108.598  1.00  0.00     0.000 C 
BRANCH  16  17
ATOM     17  C   UNL     1      44.917 -40.840 108.746  1.00  0.00     0.000 C 
BRANCH  17  18
ATOM     18  C   UNL     1      44.968 -39.315 108.839  1.00  0.00     0.000 C 
BRANCH  18  19
ATOM     19  C   UNL     1      43.655 -38.743 109.376  1.00  0.00     0.001 C 
BRANCH  19  20
ATOM     20  C   UNL     1      42.450 -39.334 108.638  1.00  0.00     0.012 C 
BRANCH  20  21
ATOM     21  C   UNL     1      41.401 -38.281 108.294  1.00  0.00     0.122 C 
BRANCH  21  22
ATOM     22  C   UNL     1      41.977 -36.901 108.154  1.00  0.00     0.303 C 
ATOM     23  O   UNL     1      41.738 -35.947 108.874  1.00  0.00    -0.252 OA
BRANCH  22  24
ATOM     24  O   UNL     1      42.798 -36.774 107.096  1.00  0.00    -0.481 OA
ATOM     25  H   UNL     1      42.291 -36.220 106.467  1.00  0.00     0.296 HD
ENDBRANCH  22  24
ENDBRANCH  21  22
ENDBRANCH  20  21
ENDBRANCH  19  20
ENDBRANCH  18  19
ENDBRANCH  17  18
ENDBRANCH  16  17
ENDBRANCH  15  16
ENDBRANCH  14  15
ENDBRANCH   1  14
TORSDOF 20
ENDMDL
MODEL 4
REMARK VINA RESULT:    -7.078      2.999      7.693
REMARK INTER + INTRA:         -16.592
REMARK INTER:                 -14.306
REMARK INTRA:                  -2.286
REMARK UNBOUND:                -1.446
REMARK SMILES CCCCCCCC/C=C\CCCCCCCCCCCC(=O)O
REMARK SMILES IDX 13 1 12 2 11 3 10 4 9 5 8 6 7 7 6 8 5 9 4 10 3 11 2 12 1 13
REMARK SMILES IDX 14 14 15 15 16 16 17 17 18 18 19 19 20 20 21 21 22 22 23 23
REMARK SMILES IDX 24 24
REMARK H PARENT 24 25
ROOT
ATOM      1  C   UNL     1      42.063 -39.322 100.066  1.00  0.00     0.000 C 
ENDROOT
BRANCH   1   2
ATOM      2  C   UNL     1      43.071 -40.275  99.414  1.00  0.00     0.004 C 
BRANCH   2   3
ATOM      3  C   UNL     1      44.194 -40.696 100.370  1.00  0.00     0.027 C 
BRANCH   3   4
ATOM      4  C   UNL     1      44.102 -42.138 100.782  1.00  0.00    -0.031 C 
ATOM      5  C   UNL     1      43.999 -42.632 102.026  1.00  0.00    -0.031 C 
BRANCH   5   6
ATOM      6  C   UNL     1      43.967 -41.868 103.320  1.00  0.00     0.027 C 
BRANCH   6   7
ATOM      7  C   UNL     1      44.768 -42.539 104.441  1.00  0.00     0.004 C 
BRANCH   7   8
ATOM      8  C   UNL     1      44.538 -41.985 105.852  1.00  0.00     0.000 C 
BRANCH   8   9
ATOM      9  C   UNL     1      44.651 -43.048 106.948  1.00  0.00     0.000 C 
BRANCH   9  10
ATOM     10  C   UNL     1      45.248 -42.460 108.228  1.00  0.00    -0.000 C 
BRANCH  10  11
ATOM     11  C   UNL     1      46.777 -42.384 108.208  1.00  0.00    -0.000 C 
BRANCH  11  12
ATOM     12  C   UNL     1      47.326 -41.037 108.676  1.00  0.00    -0.003 C 
ATOM     13  C   UNL     1      47.807 -40.194 107.504  1.00  0.00     0.004 C 
ENDBRANCH  11  12
ENDBRANCH  10  11
ENDBRANCH   9  10
ENDBRANCH   8   9
ENDBRANCH   7   8
ENDBRANCH   6   7
ENDBRANCH   5   6
ENDBRANCH   3   4
ENDBRANCH   2   3
ENDBRANCH   1   2
BRANCH   1  14
ATOM     14  C   UNL     1      42.445 -38.915 101.491  1.00  0.00     0.000 C 
BRANCH  14  15
ATOM     15  C   UNL     1      41.243 -38.705 102.414  1.00  0.00     0.000 C 
BRANCH  15  16
ATOM     16  C   UNL     1      41.277 -39.683 103.591  1.00  0.00     0.000 C 
BRANCH  16  17
ATOM     17  C   UNL     1      41.722 -38.993 104.881  1.00  0.00     0.000 C 
BRANCH  17  18
ATOM     18  C   UNL     1      40.909 -39.483 106.080  1.00  0.00     0.000 C 
BRANCH  18  19
ATOM     19  C   UNL     1      41.794 -40.208 107.096  1.00  0.00     0.001 C 
BRANCH  19  20
ATOM     20  C   UNL     1      42.707 -39.226 107.837  1.00  0.00     0.012 C 
BRANCH  20  21
ATOM     21  C   UNL     1      41.950 -38.380 108.856  1.00  0.00     0.122 C 
BRANCH  21  22
ATOM     22  C   UNL     1      41.853 -36.933 108.462  1.00  0.00     0.303 C 
ATOM     23  O   UNL     1      41.104 -36.105 108.951  1.00  0.00    -0.252 OA
BRANCH  22  24
ATOM     24  O   UNL     1      42.676 -36.602 107.451  1.00  0.00    -0.481 OA
ATOM     25  H   UNL     1      43.320 -35.987 107.860  1.00  0.00     0.296 HD
ENDBRANCH  22  24
ENDBRANCH  21  22
ENDBRANCH  20  21
ENDBRANCH  19  20
ENDBRANCH  18  19
ENDBRANCH  17  18
ENDBRANCH  16  17
ENDBRANCH  15  16
ENDBRANCH  14  15
ENDBRANCH   1  14
TORSDOF 20
ENDMDL
MODEL 5
REMARK VINA RESULT:    -7.077      3.850      5.451
REMARK INTER + INTRA:         -16.590
REMARK INTER:                 -14.442
REMARK INTRA:                  -2.148
REMARK UNBOUND:                -1.446
REMARK SMILES CCCCCCCC/C=C\CCCCCCCCCCCC(=O)O
REMARK SMILES IDX 13 1 12 2 11 3 10 4 9 5 8 6 7 7 6 8 5 9 4 10 3 11 2 12 1 13
REMARK SMILES IDX 14 14 15 15 16 16 17 17 18 18 19 19 20 20 21 21 22 22 23 23
REMARK SMILES IDX 24 24
REMARK H PARENT 24 25
ROOT
ATOM      1  C   UNL     1      44.718 -43.084 106.657  1.00  0.00     0.000 C 
ENDROOT
BRANCH   1   2
ATOM      2  C   UNL     1      45.400 -42.163 105.640  1.00  0.00     0.004 C 
BRANCH   2   3
ATOM      3  C   UNL     1      45.245 -42.655 104.195  1.00  0.00     0.027 C 
BRANCH   3   4
ATOM      4  C   UNL     1      43.956 -42.211 103.562  1.00  0.00    -0.031 C 
ATOM      5  C   UNL     1      43.688 -42.073 102.254  1.00  0.00    -0.031 C 
BRANCH   5   6
ATOM      6  C   UNL     1      44.614 -42.314 101.094  1.00  0.00     0.027 C 
BRANCH   6   7
ATOM      7  C   UNL     1      44.289 -41.452  99.869  1.00  0.00     0.004 C 
BRANCH   7   8
ATOM      8  C   UNL     1      43.822 -40.021 100.162  1.00  0.00     0.000 C 
BRANCH   8   9
ATOM      9  C   UNL     1      42.383 -39.749  99.719  1.00  0.00     0.000 C 
BRANCH   9  10
ATOM     10  C   UNL     1      41.695 -38.754 100.656  1.00  0.00    -0.000 C 
BRANCH  10  11
ATOM     11  C   UNL     1      42.367 -38.646 102.028  1.00  0.00    -0.000 C 
BRANCH  11  12
ATOM     12  C   UNL     1      41.493 -39.153 103.175  1.00  0.00    -0.003 C 
ATOM     13  C   UNL     1      42.246 -39.133 104.497  1.00  0.00     0.004 C 
ENDBRANCH  11  12
ENDBRANCH  10  11
ENDBRANCH   9  10
ENDBRANCH   8   9
ENDBRANCH   7   8
ENDBRANCH   6   7
ENDBRANCH   5   6
ENDBRANCH   3   4
ENDBRANCH   2   3
ENDBRANCH   1   2
BRANCH   1  14
ATOM     14  C   UNL     1      45.432 -43.129 108.011  1.00  0.00     0.000 C 
BRANCH  14  15
ATOM     15  C   UNL     1      46.364 -41.941 108.252  1.00  0.00     0.000 C 
BRANCH  15  16
ATOM     16  C   UNL     1      45.737 -40.938 109.224  1.00  0.00     0.000 C 
BRANCH  16  17
ATOM     17  C   UNL     1      45.142 -39.738 108.486  1.00  0.00     0.000 C 
BRANCH  17  18
ATOM     18  C   UNL     1      43.651 -39.938 108.215  1.00  0.00     0.000 C 
BRANCH  18  19
ATOM     19  C   UNL     1      42.792 -39.149 109.205  1.00  0.00     0.001 C 
BRANCH  19  20
ATOM     20  C   UNL     1      41.493 -38.669 108.552  1.00  0.00     0.012 C 
BRANCH  20  21
ATOM     21  C   UNL     1      40.250 -39.203 109.259  1.00  0.00     0.122 C 
BRANCH  21  22
ATOM     22  C   UNL     1      39.562 -38.165 110.100  1.00  0.00     0.303 C 
ATOM     23  O   UNL     1      39.568 -36.962 109.903  1.00  0.00    -0.252 OA
BRANCH  22  24
ATOM     24  O   UNL     1      38.928 -38.683 111.167  1.00  0.00    -0.481 OA
ATOM     25  H   UNL     1      38.960 -37.965 111.834  1.00  0.00     0.296 HD
ENDBRANCH  22  24
ENDBRANCH  21  22
ENDBRANCH  20  21
ENDBRANCH  19  20
ENDBRANCH  18  19
ENDBRANCH  17  18
ENDBRANCH  16  17
ENDBRANCH  15  16
ENDBRANCH  14  15
ENDBRANCH   1  14
TORSDOF 20
ENDMDL
MODEL 6
REMARK VINA RESULT:    -7.072      3.452      5.122
REMARK INTER + INTRA:         -16.580
REMARK INTER:                 -14.488
REMARK INTRA:                  -2.092
REMARK UNBOUND:                -1.446
REMARK SMILES CCCCCCCC/C=C\CCCCCCCCCCCC(=O)O
REMARK SMILES IDX 13 1 12 2 11 3 10 4 9 5 8 6 7 7 6 8 5 9 4 10 3 11 2 12 1 13
REMARK SMILES IDX 14 14 15 15 16 16 17 17 18 18 19 19 20 20 21 21 22 22 23 23
REMARK SMILES IDX 24 24
REMARK H PARENT 24 25
ROOT
ATOM      1  C   UNL     1      45.031 -42.480 104.587  1.00  0.00     0.000 C 
ENDROOT
BRANCH   1   2
ATOM      2  C   UNL     1      43.856 -41.504 104.461  1.00  0.00     0.004 C 
BRANCH   2   3
ATOM      3  C   UNL     1      43.184 -41.559 103.082  1.00  0.00     0.027 C 
BRANCH   3   4
ATOM      4  C   UNL     1      43.852 -42.524 102.144  1.00  0.00    -0.031 C 
ATOM      5  C   UNL     1      44.495 -42.245 100.999  1.00  0.00    -0.031 C 
BRANCH   5   6
ATOM      6  C   UNL     1      44.695 -40.899 100.361  1.00  0.00     0.027 C 
BRANCH   6   7
ATOM      7  C   UNL     1      44.206 -40.837  98.909  1.00  0.00     0.004 C 
BRANCH   7   8
ATOM      8  C   UNL     1      42.886 -40.091  98.680  1.00  0.00     0.000 C 
BRANCH   8   9
ATOM      9  C   UNL     1      42.049 -39.933  99.951  1.00  0.00     0.000 C 
BRANCH   9  10
ATOM     10  C   UNL     1      41.655 -38.471 100.174  1.00  0.00    -0.000 C 
BRANCH  10  11
ATOM     11  C   UNL     1      40.602 -38.285 101.270  1.00  0.00    -0.000 C 
BRANCH  11  12
ATOM     12  C   UNL     1      41.049 -38.800 102.638  1.00  0.00    -0.003 C 
ATOM     13  C   UNL     1      39.857 -39.132 103.523  1.00  0.00     0.004 C 
ENDBRANCH  11  12
ENDBRANCH  10  11
ENDBRANCH   9  10
ENDBRANCH   8   9
ENDBRANCH   7   8
ENDBRANCH   6   7
ENDBRANCH   5   6
ENDBRANCH   3   4
ENDBRANCH   2   3
ENDBRANCH   1   2
BRANCH   1  14
ATOM     14  C   UNL     1      44.904 -43.433 105.778  1.00  0.00     0.000 C 
BRANCH  14  15
ATOM     15  C   UNL     1      44.563 -42.731 107.093  1.00  0.00     0.000 C 
BRANCH  15  16
ATOM     16  C   UNL     1      45.782 -41.998 107.657  1.00  0.00     0.000 C 
BRANCH  16  17
ATOM     17  C   UNL     1      45.539 -40.491 107.747  1.00  0.00     0.000 C 
BRANCH  17  18
ATOM     18  C   UNL     1      44.061 -40.183 107.988  1.00  0.00     0.000 C 
BRANCH  18  19
ATOM     19  C   UNL     1      43.851 -39.461 109.321  1.00  0.00     0.001 C 
BRANCH  19  20
ATOM     20  C   UNL     1      42.369 -39.156 109.559  1.00  0.00     0.012 C 
BRANCH  20  21
ATOM     21  C   UNL     1      41.677 -38.608 108.314  1.00  0.00     0.122 C 
BRANCH  21  22
ATOM     22  C   UNL     1      41.823 -37.119 108.169  1.00  0.00     0.303 C 
ATOM     23  O   UNL     1      41.138 -36.274 108.720  1.00  0.00    -0.252 OA
BRANCH  22  24
ATOM     24  O   UNL     1      42.797 -36.763 107.313  1.00  0.00    -0.481 OA
ATOM     25  H   UNL     1      42.493 -37.111 106.449  1.00  0.00     0.296 HD
ENDBRANCH  22  24
ENDBRANCH  21  22
ENDBRANCH  20  21
ENDBRANCH  19  20
ENDBRANCH  18  19
ENDBRANCH  17  18
ENDBRANCH  16  17
ENDBRANCH  15  16
ENDBRANCH  14  15
ENDBRANCH   1  14
TORSDOF 20
ENDMDL
MODEL 7
REMARK VINA RESULT:    -7.052      3.253      8.050
REMARK INTER + INTRA:         -16.536
REMARK INTER:                 -14.135
REMARK INTRA:                  -2.401
REMARK UNBOUND:                -1.446
REMARK SMILES CCCCCCCC/C=C\CCCCCCCCCCCC(=O)O
REMARK SMILES IDX 13 1 12 2 11 3 10 4 9 5 8 6 7 7 6 8 5 9 4 10 3 11 2 12 1 13
REMARK SMILES IDX 14 14 15 15 16 16 17 17 18 18 19 19 20 20 21 21 22 22 23 23
REMARK SMILES IDX 24 24
REMARK H PARENT 24 25
ROOT
ATOM      1  C   UNL     1      44.580 -41.583 100.624  1.00  0.00     0.000 C 
ENDROOT
BRANCH   1   2
ATOM      2  C   UNL     1      43.537 -42.378 101.416  1.00  0.00     0.004 C 
BRANCH   2   3
ATOM      3  C   UNL     1      43.675 -42.195 102.933  1.00  0.00     0.027 C 
BRANCH   3   4
ATOM      4  C   UNL     1      45.056 -42.508 103.436  1.00  0.00    -0.031 C 
ATOM      5  C   UNL     1      45.461 -42.616 104.711  1.00  0.00    -0.031 C 
BRANCH   5   6
ATOM      6  C   UNL     1      44.638 -42.437 105.956  1.00  0.00     0.027 C 
BRANCH   6   7
ATOM      7  C   UNL     1      44.971 -43.454 107.054  1.00  0.00     0.004 C 
BRANCH   7   8
ATOM      8  C   UNL     1      45.533 -42.873 108.357  1.00  0.00     0.000 C 
BRANCH   8   9
ATOM      9  C   UNL     1      46.862 -42.137 108.169  1.00  0.00     0.000 C 
BRANCH   9  10
ATOM     10  C   UNL     1      46.818 -40.746 108.807  1.00  0.00    -0.000 C 
BRANCH  10  11
ATOM     11  C   UNL     1      45.543 -40.487 109.614  1.00  0.00    -0.000 C 
BRANCH  11  12
ATOM     12  C   UNL     1      44.698 -39.337 109.065  1.00  0.00    -0.003 C 
ATOM     13  C   UNL     1      43.406 -39.173 109.850  1.00  0.00     0.004 C 
ENDBRANCH  11  12
ENDBRANCH  10  11
ENDBRANCH   9  10
ENDBRANCH   8   9
ENDBRANCH   7   8
ENDBRANCH   6   7
ENDBRANCH   5   6
ENDBRANCH   3   4
ENDBRANCH   2   3
ENDBRANCH   1   2
BRANCH   1  14
ATOM     14  C   UNL     1      44.045 -41.026  99.302  1.00  0.00     0.000 C 
BRANCH  14  15
ATOM     15  C   UNL     1      42.696 -40.318  99.436  1.00  0.00     0.000 C 
BRANCH  15  16
ATOM     16  C   UNL     1      42.781 -39.155 100.428  1.00  0.00     0.000 C 
BRANCH  16  17
ATOM     17  C   UNL     1      41.393 -38.661 100.834  1.00  0.00     0.000 C 
BRANCH  17  18
ATOM     18  C   UNL     1      41.248 -38.609 102.356  1.00  0.00     0.000 C 
BRANCH  18  19
ATOM     19  C   UNL     1      42.586 -38.862 103.054  1.00  0.00     0.001 C 
BRANCH  19  20
ATOM     20  C   UNL     1      42.378 -39.367 104.484  1.00  0.00     0.012 C 
BRANCH  20  21
ATOM     21  C   UNL     1      43.255 -38.636 105.496  1.00  0.00     0.122 C 
BRANCH  21  22
ATOM     22  C   UNL     1      42.462 -37.931 106.561  1.00  0.00     0.303 C 
ATOM     23  O   UNL     1      41.410 -38.313 107.042  1.00  0.00    -0.252 OA
BRANCH  22  24
ATOM     24  O   UNL     1      43.010 -36.764 106.945  1.00  0.00    -0.481 OA
ATOM     25  H   UNL     1      43.328 -36.939 107.855  1.00  0.00     0.296 HD
ENDBRANCH  22  24
ENDBRANCH  21  22
ENDBRANCH  20  21
ENDBRANCH  19  20
ENDBRANCH  18  19
ENDBRANCH  17  18
ENDBRANCH  16  17
ENDBRANCH  15  16
ENDBRANCH  14  15
ENDBRANCH   1  14
TORSDOF 20
ENDMDL
MODEL 8
REMARK VINA RESULT:    -7.010      1.484      2.054
REMARK INTER + INTRA:         -16.447
REMARK INTER:                 -14.345
REMARK INTRA:                  -2.103
REMARK UNBOUND:                -1.446
REMARK SMILES CCCCCCCC/C=C\CCCCCCCCCCCC(=O)O
REMARK SMILES IDX 13 1 12 2 11 3 10 4 9 5 8 6 7 7 6 8 5 9 4 10 3 11 2 12 1 13
REMARK SMILES IDX 14 14 15 15 16 16 17 17 18 18 19 19 20 20 21 21 22 22 23 23
REMARK SMILES IDX 24 24
REMARK H PARENT 24 25
ROOT
ATOM      1  C   UNL     1      44.662 -38.656 108.853  1.00  0.00     0.000 C 
ENDROOT
BRANCH   1   2
ATOM      2  C   UNL     1      44.147 -40.096 108.964  1.00  0.00     0.004 C 
BRANCH   2   3
ATOM      3  C   UNL     1      43.960 -40.767 107.598  1.00  0.00     0.027 C 
BRANCH   3   4
ATOM      4  C   UNL     1      44.458 -42.185 107.571  1.00  0.00    -0.031 C 
ATOM      5  C   UNL     1      45.103 -42.810 106.573  1.00  0.00    -0.031 C 
BRANCH   5   6
ATOM      6  C   UNL     1      45.477 -42.254 105.228  1.00  0.00     0.027 C 
BRANCH   6   7
ATOM      7  C   UNL     1      44.393 -42.458 104.164  1.00  0.00     0.004 C 
BRANCH   7   8
ATOM      8  C   UNL     1      44.818 -42.189 102.715  1.00  0.00     0.000 C 
BRANCH   8   9
ATOM      9  C   UNL     1      43.674 -42.335 101.709  1.00  0.00     0.000 C 
BRANCH   9  10
ATOM     10  C   UNL     1      43.448 -41.032 100.938  1.00  0.00    -0.000 C 
BRANCH  10  11
ATOM     11  C   UNL     1      44.669 -40.584 100.130  1.00  0.00    -0.000 C 
BRANCH  11  12
ATOM     12  C   UNL     1      44.519 -40.805  98.625  1.00  0.00    -0.003 C 
ATOM     13  C   UNL     1      44.906 -42.222  98.230  1.00  0.00     0.004 C 
ENDBRANCH  11  12
ENDBRANCH  10  11
ENDBRANCH   9  10
ENDBRANCH   8   9
ENDBRANCH   7   8
ENDBRANCH   6   7
ENDBRANCH   5   6
ENDBRANCH   3   4
ENDBRANCH   2   3
ENDBRANCH   1   2
BRANCH   1  14
ATOM     14  C   UNL     1      46.189 -38.560 108.801  1.00  0.00     0.000 C 
BRANCH  14  15
ATOM     15  C   UNL     1      46.901 -39.791 109.366  1.00  0.00     0.000 C 
BRANCH  15  16
ATOM     16  C   UNL     1      47.730 -40.490 108.286  1.00  0.00     0.000 C 
BRANCH  16  17
ATOM     17  C   UNL     1      47.679 -39.731 106.960  1.00  0.00     0.000 C 
BRANCH  17  18
ATOM     18  C   UNL     1      49.067 -39.240 106.549  1.00  0.00     0.000 C 
BRANCH  18  19
ATOM     19  C   UNL     1      49.597 -38.185 107.522  1.00  0.00     0.001 C 
BRANCH  19  20
ATOM     20  C   UNL     1      49.007 -36.805 107.219  1.00  0.00     0.012 C 
BRANCH  20  21
ATOM     21  C   UNL     1      49.621 -35.704 108.078  1.00  0.00     0.122 C 
BRANCH  21  22
ATOM     22  C   UNL     1      48.640 -34.626 108.442  1.00  0.00     0.303 C 
ATOM     23  O   UNL     1      47.698 -34.255 107.763  1.00  0.00    -0.252 OA
BRANCH  22  24
ATOM     24  O   UNL     1      48.908 -34.040 109.622  1.00  0.00    -0.481 OA
ATOM     25  H   UNL     1      48.083 -33.560 109.843  1.00  0.00     0.296 HD
ENDBRANCH  22  24
ENDBRANCH  21  22
ENDBRANCH  20  21
ENDBRANCH  19  20
ENDBRANCH  18  19
ENDBRANCH  17  18
ENDBRANCH  16  17
ENDBRANCH  15  16
ENDBRANCH  14  15
ENDBRANCH   1  14
TORSDOF 20
ENDMDL
MODEL 9
REMARK VINA RESULT:    -6.946      2.486      6.173
REMARK INTER + INTRA:         -16.310
REMARK INTER:                 -13.956
REMARK INTRA:                  -2.353
REMARK UNBOUND:                -1.446
REMARK SMILES CCCCCCCC/C=C\CCCCCCCCCCCC(=O)O
REMARK SMILES IDX 13 1 12 2 11 3 10 4 9 5 8 6 7 7 6 8 5 9 4 10 3 11 2 12 1 13
REMARK SMILES IDX 14 14 15 15 16 16 17 17 18 18 19 19 20 20 21 21 22 22 23 23
REMARK SMILES IDX 24 24
REMARK H PARENT 24 25
ROOT
ATOM      1  C   UNL     1      44.903 -42.177 102.900  1.00  0.00     0.000 C 
ENDROOT
BRANCH   1   2
ATOM      2  C   UNL     1      43.914 -42.527 101.782  1.00  0.00     0.004 C 
BRANCH   2   3
ATOM      3  C   UNL     1      44.286 -41.888 100.438  1.00  0.00     0.027 C 
BRANCH   3   4
ATOM      4  C   UNL     1      43.183 -41.041  99.869  1.00  0.00    -0.031 C 
ATOM      5  C   UNL     1      42.692 -39.893 100.360  1.00  0.00    -0.031 C 
BRANCH   5   6
ATOM      6  C   UNL     1      43.112 -39.172 101.611  1.00  0.00     0.027 C 
BRANCH   6   7
ATOM      7  C   UNL     1      42.011 -39.114 102.676  1.00  0.00     0.004 C 
BRANCH   7   8
ATOM      8  C   UNL     1      42.491 -39.039 104.131  1.00  0.00     0.000 C 
BRANCH   8   9
ATOM      9  C   UNL     1      41.460 -39.552 105.138  1.00  0.00     0.000 C 
BRANCH   9  10
ATOM     10  C   UNL     1      41.987 -39.448 106.571  1.00  0.00    -0.000 C 
BRANCH  10  11
ATOM     11  C   UNL     1      40.880 -39.299 107.617  1.00  0.00    -0.000 C 
BRANCH  11  12
ATOM     12  C   UNL     1      41.383 -38.795 108.970  1.00  0.00    -0.003 C 
ATOM     13  C   UNL     1      42.812 -39.247 109.234  1.00  0.00     0.004 C 
ENDBRANCH  11  12
ENDBRANCH  10  11
ENDBRANCH   9  10
ENDBRANCH   8   9
ENDBRANCH   7   8
ENDBRANCH   6   7
ENDBRANCH   5   6
ENDBRANCH   3   4
ENDBRANCH   2   3
ENDBRANCH   1   2
BRANCH   1  14
ATOM     14  C   UNL     1      44.296 -42.280 104.302  1.00  0.00     0.000 C 
BRANCH  14  15
ATOM     15  C   UNL     1      45.298 -42.707 105.375  1.00  0.00     0.000 C 
BRANCH  15  16
ATOM     16  C   UNL     1      44.602 -43.463 106.509  1.00  0.00     0.000 C 
BRANCH  16  17
ATOM     17  C   UNL     1      45.428 -43.431 107.796  1.00  0.00     0.000 C 
BRANCH  17  18
ATOM     18  C   UNL     1      45.626 -41.998 108.290  1.00  0.00     0.000 C 
BRANCH  18  19
ATOM     19  C   UNL     1      47.110 -41.661 108.446  1.00  0.00     0.001 C 
BRANCH  19  20
ATOM     20  C   UNL     1      47.473 -40.386 107.678  1.00  0.00     0.012 C 
BRANCH  20  21
ATOM     21  C   UNL     1      46.243 -39.584 107.262  1.00  0.00     0.122 C 
BRANCH  21  22
ATOM     22  C   UNL     1      46.098 -38.295 108.020  1.00  0.00     0.303 C 
ATOM     23  O   UNL     1      46.328 -38.130 109.206  1.00  0.00    -0.252 OA
BRANCH  22  24
ATOM     24  O   UNL     1      45.639 -37.283 107.263  1.00  0.00    -0.481 OA
ATOM     25  H   UNL     1      45.127 -37.729 106.556  1.00  0.00     0.296 HD
ENDBRANCH  22  24
ENDBRANCH  21  22
ENDBRANCH  20  21
ENDBRANCH  19  20
ENDBRANCH  18  19
ENDBRANCH  17  18
ENDBRANCH  16  17
ENDBRANCH  15  16
ENDBRANCH  14  15
ENDBRANCH   1  14
TORSDOF 20
ENDMDL
