REMARK VINA RESULT:    -8.673      3.705      7.879
REMARK INTER + INTRA:         -15.814
REMARK INTER:                 -12.385
REMARK INTRA:                  -3.429
REMARK UNBOUND:                -3.085
REMARK SMILES N=C(N)c1cccc(C[C@H](NS(=O)(=O)c2ccc3ccccc3c2)C(=O)N2CCC(C3CCNCC3)CC2)c1
REMARK SMILES IDX 9 1 8 2 4 3 5 4 39 5 6 6 7 7 2 8 1 9 3 10 10 14 11 15 12 17
REMARK SMILES IDX 13 18 14 19 15 20 16 21 24 22 17 23 23 24 18 25 22 26 19 27
REMARK SMILES IDX 21 28 20 29 25 30 26 31 27 32 28 33 38 34 29 35 37 36 30 37
REMARK SMILES IDX 31 38 32 39 36 40 33 41 35 42 34 43
REMARK H PARENT 1 11 3 12 3 13 11 16 34 44
ROOT
ATOM      1  C   UNL     1     126.351 -15.913 161.934  1.00  0.00     0.065 C 
ENDROOT
BRANCH   1   2
ATOM      2  C   UNL     1     126.016 -14.607 162.615  1.00  0.00    -0.045 A 
ATOM      3  C   UNL     1     124.997 -13.402 164.479  1.00  0.00     0.016 A 
ATOM      4  C   UNL     1     125.457 -12.196 163.938  1.00  0.00     0.012 A 
ATOM      5  C   UNL     1     125.275 -14.601 163.807  1.00  0.00     0.015 A 
ATOM      6  C   UNL     1     126.191 -12.194 162.749  1.00  0.00     0.001 A 
ATOM      7  C   UNL     1     126.475 -13.393 162.093  1.00  0.00     0.004 A 
BRANCH   3   8
ATOM      8  C   UNL     1     124.227 -13.459 165.764  1.00  0.00     0.122 C 
ATOM      9  N   UNL     1     123.504 -14.503 166.023  1.00  0.00    -0.284 NA
ATOM     10  N   UNL     1     124.269 -12.447 166.671  1.00  0.00    -0.384 N 
ATOM     11  H   UNL     1     123.048 -14.381 166.930  1.00  0.00     0.189 HD
ATOM     12  H   UNL     1     124.811 -11.608 166.524  1.00  0.00     0.158 HD
ATOM     13  H   UNL     1     123.779 -12.511 167.553  1.00  0.00     0.158 HD
ENDBRANCH   3   8
ENDBRANCH   1   2
BRANCH   1  14
ATOM     14  C   UNL     1     127.614 -16.564 162.515  1.00  0.00     0.163 C 
BRANCH  14  15
ATOM     15  N   UNL     1     128.822 -15.881 161.968  1.00  0.00    -0.198 NA
ATOM     16  H   UNL     1     129.266 -16.393 161.198  1.00  0.00     0.142 HD
BRANCH  15  17
ATOM     17  S   UNL     1     129.943 -15.252 163.045  1.00  0.00     0.241 S 
ATOM     18  O   UNL     1     129.256 -14.290 163.880  1.00  0.00    -0.207 OA
ATOM     19  O   UNL     1     131.109 -14.888 162.272  1.00  0.00    -0.207 OA
BRANCH  17  20
ATOM     20  C   UNL     1     130.381 -16.643 164.058  1.00  0.00     0.083 A 
ATOM     21  C   UNL     1     130.262 -16.544 165.443  1.00  0.00     0.022 A 
ATOM     22  C   UNL     1     130.835 -17.822 163.460  1.00  0.00     0.030 A 
ATOM     23  C   UNL     1     130.629 -17.627 166.241  1.00  0.00     0.010 A 
ATOM     24  C   UNL     1     131.197 -18.918 164.255  1.00  0.00    -0.017 A 
ATOM     25  C   UNL     1     131.099 -18.819 165.664  1.00  0.00    -0.018 A 
ATOM     26  C   UNL     1     131.654 -20.115 163.681  1.00  0.00     0.009 A 
ATOM     27  C   UNL     1     131.466 -19.918 166.455  1.00  0.00     0.009 A 
ATOM     28  C   UNL     1     132.005 -21.201 164.483  1.00  0.00     0.001 A 
ATOM     29  C   UNL     1     131.915 -21.102 165.868  1.00  0.00     0.001 A 
ENDBRANCH  17  20
ENDBRANCH  15  17
ENDBRANCH  14  15
BRANCH  14  30
ATOM     30  C   UNL     1     127.693 -18.025 162.029  1.00  0.00     0.241 C 
ATOM     31  O   UNL     1     127.924 -18.241 160.830  1.00  0.00    -0.273 OA
ATOM     32  N   UNL     1     127.504 -19.060 162.935  1.00  0.00    -0.341 N 
ATOM     33  C   UNL     1     127.528 -20.433 162.434  1.00  0.00     0.120 C 
ATOM     34  C   UNL     1     127.068 -18.902 164.323  1.00  0.00     0.120 C 
ATOM     35  C   UNL     1     128.280 -21.376 163.372  1.00  0.00     0.025 C 
ATOM     36  C   UNL     1     127.825 -19.833 165.271  1.00  0.00     0.025 C 
ATOM     37  C   UNL     1     127.730 -21.294 164.811  1.00  0.00    -0.004 C 
BRANCH  37  38
ATOM     38  C   UNL     1     128.411 -22.354 165.729  1.00  0.00    -0.005 C 
ATOM     39  C   UNL     1     128.416 -22.037 167.234  1.00  0.00     0.019 C 
ATOM     40  C   UNL     1     127.915 -23.792 165.479  1.00  0.00     0.019 C 
ATOM     41  C   UNL     1     127.189 -22.545 167.992  1.00  0.00     0.081 C 
ATOM     42  C   UNL     1     126.714 -24.209 166.322  1.00  0.00     0.081 C 
ATOM     43  N   UNL     1     126.938 -23.964 167.743  1.00  0.00    -0.317 NA
ATOM     44  H   UNL     1     127.743 -24.505 168.054  1.00  0.00     0.122 HD
ENDBRANCH  37  38
ENDBRANCH  14  30
ENDBRANCH   1  14
TORSDOF 8
