REMARK VINA RESULT:    -7.746      7.174      9.879
REMARK INTER + INTRA:         -10.470
REMARK INTER:                  -9.612
REMARK INTRA:                  -0.858
REMARK UNBOUND:                -0.686
REMARK SMILES NNC(=O)c1csc2nc(CN3CCOCC3)c(-c3ccc(Br)cc3)n12
REMARK SMILES IDX 5 1 6 2 7 3 8 4 9 5 10 6 18 7 26 8 3 9 2 10 4 11 1 13 19 16
REMARK SMILES IDX 20 17 25 18 21 19 24 20 22 21 23 22 11 23 12 24 13 25 17 26
REMARK SMILES IDX 14 27 16 28 15 29
REMARK H PARENT 2 12 1 14 1 15
ROOT
ATOM      1  C   UNL     1      14.343   1.988  27.941  1.00  0.00     0.125 A 
ATOM      2  C   UNL     1      13.568   1.402  28.874  1.00  0.00     0.101 A 
ATOM      3  S   UNL     1      12.033   2.240  29.126  1.00  0.00    -0.104 S 
ATOM      4  C   UNL     1      12.506   3.386  27.911  1.00  0.00     0.195 A 
ATOM      5  N   UNL     1      11.951   4.457  27.423  1.00  0.00    -0.222 NA
ATOM      6  C   UNL     1      12.865   4.885  26.470  1.00  0.00     0.082 A 
ATOM      7  C   UNL     1      13.966   4.022  26.390  1.00  0.00     0.079 A 
ATOM      8  N   UNL     1      13.728   3.092  27.380  1.00  0.00    -0.278 N 
ENDROOT
BRANCH   1   9
ATOM      9  C   UNL     1      15.675   1.433  27.657  1.00  0.00     0.283 C 
ATOM     10  N   UNL     1      15.677   0.100  27.287  1.00  0.00    -0.289 N 
ATOM     11  O   UNL     1      16.683   2.133  27.699  1.00  0.00    -0.266 OA
ATOM     12  H   UNL     1      14.817  -0.440  27.213  1.00  0.00     0.185 HD
BRANCH  10  13
ATOM     13  N   UNL     1      16.896  -0.534  26.967  1.00  0.00    -0.248 NA
ATOM     14  H   UNL     1      17.221  -0.150  26.074  1.00  0.00     0.143 HD
ATOM     15  H   UNL     1      16.679  -1.516  26.743  1.00  0.00     0.143 HD
ENDBRANCH  10  13
ENDBRANCH   1   9
BRANCH   7  16
ATOM     16  C   UNL     1      15.110   4.032  25.489  1.00  0.00     0.001 A 
ATOM     17  C   UNL     1      16.153   4.947  25.681  1.00  0.00     0.011 A 
ATOM     18  C   UNL     1      15.175   3.135  24.415  1.00  0.00     0.011 A 
ATOM     19  C   UNL     1      17.256   4.952  24.824  1.00  0.00     0.016 A 
ATOM     20  C   UNL     1      16.279   3.138  23.557  1.00  0.00     0.016 A 
ATOM     21  C   UNL     1      17.315   4.045  23.768  1.00  0.00     0.018 A 
ATOM     22  Br  UNL     1      18.809   4.046  22.612  1.00  0.00    -0.051 Br
ENDBRANCH   7  16
BRANCH   6  23
ATOM     23  C   UNL     1      12.570   6.117  25.662  1.00  0.00     0.143 C 
BRANCH  23  24
ATOM     24  N   UNL     1      11.190   6.575  25.908  1.00  0.00    -0.293 NA
ATOM     25  C   UNL     1      11.088   8.043  25.740  1.00  0.00     0.113 C 
ATOM     26  C   UNL     1      10.207   5.945  24.991  1.00  0.00     0.113 C 
ATOM     27  C   UNL     1      11.150   8.516  24.278  1.00  0.00     0.175 C 
ATOM     28  C   UNL     1      10.282   6.450  23.539  1.00  0.00     0.175 C 
ATOM     29  O   UNL     1      10.148   7.876  23.480  1.00  0.00    -0.379 OA
ENDBRANCH  23  24
ENDBRANCH   6  23
TORSDOF 5
