REMARK SMILES CCCCOc1cc(-c2nc(C)no2)ccc1N
REMARK SMILES IDX 4 1 3 2 2 3 1 4 5 5 6 6 7 7 17 8 8 9 16 10 15 11 18 12 9 15
REMARK SMILES IDX 10 16 14 17 11 18 13 19 12 20
REMARK H PARENT 18 13 18 14
REMARK INDEX MAP 4 1 3 2 2 3 1 4 5 5 6 6 7 7 17 8 8 9 16 10 15 11 18 12 34 13
REMARK INDEX MAP 35 14 9 15 10 16 14 17 11 18 13 19 12 20
ROOT
ATOM      1  C   UNL     1     141.640 114.723  41.186  1.00  0.00     0.229 C 
ENDROOT
BRANCH   1   2
ATOM      2  C   UNL     1     142.190 115.412  42.433  1.00  0.00     0.041 C 
BRANCH   2   3
ATOM      3  C   UNL     1     141.367 116.644  42.805  1.00  0.00     0.000 C 
ATOM      4  C   UNL     1     141.197 117.579  41.619  1.00  0.00     0.004 C 
ENDBRANCH   2   3
ENDBRANCH   1   2
BRANCH   1   5
ATOM      5  O   UNL     1     140.572 113.870  41.597  1.00  0.00    -0.491 OA
BRANCH   5   6
ATOM      6  C   UNL     1     139.358 114.028  40.968  1.00  0.00     0.142 A 
ATOM      7  C   UNL     1     138.644 115.229  40.890  1.00  0.00     0.062 A 
ATOM      8  C   UNL     1     138.831 112.860  40.381  1.00  0.00     0.074 A 
ATOM      9  C   UNL     1     137.410 115.294  40.221  1.00  0.00     0.044 A 
ATOM     10  C   UNL     1     137.616 112.929  39.697  1.00  0.00     0.030 A 
ATOM     11  C   UNL     1     136.907 114.132  39.623  1.00  0.00     0.016 A 
BRANCH   8  12
ATOM     12  N   UNL     1     139.547 111.670  40.403  1.00  0.00    -0.396 N 
ATOM     13  H   UNL     1     140.444 111.618  40.907  1.00  0.00     0.156 HD
ATOM     14  H   UNL     1     139.181 110.840  39.915  1.00  0.00     0.156 HD
ENDBRANCH   8  12
BRANCH   9  15
ATOM     15  C   UNL     1     136.695 116.565  40.162  1.00  0.00     0.258 A 
ATOM     16  N   UNL     1     135.634 116.903  39.458  1.00  0.00    -0.192 NA
ATOM     17  O   UNL     1     137.167 117.587  40.940  1.00  0.00    -0.334 OA
ATOM     18  C   UNL     1     135.446 118.209  39.828  1.00  0.00     0.169 A 
ATOM     19  N   UNL     1     136.330 118.683  40.714  1.00  0.00    -0.062 NA
ATOM     20  C   UNL     1     134.350 119.036  39.291  1.00  0.00     0.093 C 
ENDBRANCH   9  15
ENDBRANCH   5   6
ENDBRANCH   1   5
TORSDOF 6
