MODEL 2
REMARK VINA RESULT:    -9.203      4.045      7.281
REMARK INTER + INTRA:         -14.551
REMARK INTER:                 -14.059
REMARK INTRA:                  -0.492
REMARK UNBOUND:                -0.506
REMARK SMILES COC(=O)c1cnc2cc(Nc3cc(C)[nH]n3)nc(N[C@@H]3C[C@H]4CC[C@@H](C3)N4CCCF)c2c1
REMARK SMILES IDX 21 1 22 2 23 3 24 4 25 5 26 6 27 7 28 8 20 9 19 11 5 12 6 13
REMARK SMILES IDX 34 14 7 15 33 16 8 17 9 18 18 19 10 20 3 21 4 22 2 23 1 24
REMARK SMILES IDX 11 25 12 27 13 28 17 29 14 30 16 31 15 32 29 34 30 35 31 36
REMARK SMILES IDX 32 37
REMARK H PARENT 20 10 11 26 16 33
ROOT
ATOM      1  C   UNL     1      -3.641  26.037 -29.122  1.00  0.00     0.083 C 
ATOM      2  C   UNL     1      -3.398  25.307 -27.783  1.00  0.00     0.044 C 
ATOM      3  C   UNL     1      -3.352  23.775 -27.964  1.00  0.00     0.059 C 
ATOM      4  C   UNL     1      -4.645  23.247 -28.592  1.00  0.00     0.021 C 
ATOM      5  C   UNL     1      -4.393  23.289 -30.100  1.00  0.00     0.021 C 
ATOM      6  C   UNL     1      -2.970  23.838 -30.244  1.00  0.00     0.059 C 
ATOM      7  C   UNL     1      -2.967  25.378 -30.346  1.00  0.00     0.044 C 
ATOM      8  N   UNL     1      -2.317  23.532 -28.971  1.00  0.00    -0.297 NA
ENDROOT
BRANCH   1   9
ATOM      9  N   UNL     1      -3.435  27.496 -29.045  1.00  0.00    -0.367 N 
ATOM     10  H   UNL     1      -3.593  27.832 -28.098  1.00  0.00     0.162 HD
BRANCH   9  11
ATOM     11  C   UNL     1      -4.106  28.355 -29.934  1.00  0.00     0.138 A 
ATOM     12  C   UNL     1      -3.319  31.773 -28.584  1.00  0.00     0.079 A 
ATOM     13  C   UNL     1      -4.038  32.488 -29.524  1.00  0.00     0.127 A 
ATOM     14  C   UNL     1      -3.322  30.382 -28.695  1.00  0.00     0.031 A 
ATOM     15  N   UNL     1      -4.735  31.916 -30.539  1.00  0.00    -0.255 NA
ATOM     16  C   UNL     1      -4.044  29.749 -29.735  1.00  0.00     0.044 A 
ATOM     17  C   UNL     1      -4.731  30.572 -30.641  1.00  0.00     0.078 A 
ATOM     18  C   UNL     1      -5.425  29.994 -31.684  1.00  0.00     0.076 A 
ATOM     19  N   UNL     1      -4.780  27.831 -30.971  1.00  0.00    -0.213 NA
ATOM     20  C   UNL     1      -5.445  28.623 -31.831  1.00  0.00     0.136 A 
BRANCH  12  21
ATOM     21  C   UNL     1      -2.595  32.517 -27.532  1.00  0.00     0.339 C 
ATOM     22  O   UNL     1      -1.659  33.265 -27.762  1.00  0.00    -0.246 OA
BRANCH  21  23
ATOM     23  O   UNL     1      -3.123  32.251 -26.312  1.00  0.00    -0.465 OA
ATOM     24  C   UNL     1      -3.080  33.357 -25.408  1.00  0.00     0.282 C 
ENDBRANCH  21  23
ENDBRANCH  12  21
BRANCH  20  25
ATOM     25  N   UNL     1      -6.107  27.937 -32.842  1.00  0.00    -0.323 N 
ATOM     26  H   UNL     1      -6.472  28.623 -33.497  1.00  0.00     0.170 HD
BRANCH  25  27
ATOM     27  C   UNL     1      -6.302  26.652 -33.183  1.00  0.00     0.153 A 
ATOM     28  C   UNL     1      -5.693  25.504 -32.622  1.00  0.00     0.071 A 
ATOM     29  N   UNL     1      -7.101  26.311 -34.199  1.00  0.00    -0.158 NA
ATOM     30  C   UNL     1      -6.197  24.430 -33.322  1.00  0.00     0.034 A 
ATOM     31  N   UNL     1      -7.043  24.973 -34.245  1.00  0.00    -0.281 N 
ATOM     32  C   UNL     1      -5.960  22.975 -33.218  1.00  0.00     0.066 C 
ATOM     33  H   UNL     1      -7.600  24.494 -34.944  1.00  0.00     0.190 HD
ENDBRANCH  25  27
ENDBRANCH  20  25
ENDBRANCH   9  11
ENDBRANCH   1   9
BRANCH   8  34
ATOM     34  C   UNL     1      -1.563  22.288 -28.878  1.00  0.00     0.088 C 
BRANCH  34  35
ATOM     35  C   UNL     1      -2.319  20.966 -28.780  1.00  0.00     0.050 C 
BRANCH  35  36
ATOM     36  C   UNL     1      -2.465  20.325 -30.149  1.00  0.00     0.216 C 
ATOM     37  F   UNL     1      -3.787  20.103 -30.385  1.00  0.00    -0.251 F 
ENDBRANCH  35  36
ENDBRANCH  34  35
ENDBRANCH   8  34
TORSDOF 9
ENDMDL
