MODEL 6
REMARK VINA RESULT:    -7.686      2.228      2.994
REMARK INTER + INTRA:         -16.625
REMARK INTER:                 -13.787
REMARK INTRA:                  -2.839
REMARK UNBOUND:                -3.098
REMARK SMILES O=C(/C=C/c1cccc(C(F)(F)F)c1)Nc1ccc(C(=O)NS(=O)(=O)c2ccc(NCCSc3ccccc3)c([N+](=O)[O-])c2)cc1
REMARK SMILES IDX 20 1 21 2 22 3 19 5 16 6 17 7 46 8 18 9 45 10 15 11 1 12
REMARK SMILES IDX 2 13 3 15 4 16 5 17 6 18 14 19 7 20 9 21 8 22 10 23 11 24
REMARK SMILES IDX 12 25 13 26 23 27 24 28 25 29 26 30 27 31 44 32 28 33 40 34
REMARK SMILES IDX 29 35 41 36 42 37 43 38 30 39 31 41 32 42 33 43 34 44 35 45
REMARK SMILES IDX 39 46 36 47 38 48 37 49
REMARK H PARENT 22 4 15 14 30 40
ROOT
ATOM      1  C   UNL     1     -14.726   8.114  26.848  1.00  0.00     0.264 C 
ATOM      2  O   UNL     1     -15.801   8.286  27.399  1.00  0.00    -0.268 OA
ATOM      3  N   UNL     1     -13.678   9.041  26.892  1.00  0.00    -0.245 N 
ATOM      4  H   UNL     1     -12.762   8.847  26.506  1.00  0.00     0.183 HD
ENDROOT
BRANCH   1   5
ATOM      5  C   UNL     1     -14.466   6.884  26.052  1.00  0.00     0.040 A 
ATOM      6  C   UNL     1     -14.076   4.575  24.479  1.00  0.00     0.041 A 
ATOM      7  C   UNL     1     -13.285   4.811  25.606  1.00  0.00     0.027 A 
ATOM      8  C   UNL     1     -15.067   5.506  24.145  1.00  0.00     0.027 A 
ATOM      9  C   UNL     1     -13.475   5.956  26.390  1.00  0.00     0.016 A 
ATOM     10  C   UNL     1     -15.259   6.655  24.920  1.00  0.00     0.016 A 
BRANCH   6  11
ATOM     11  N   UNL     1     -13.945   3.443  23.650  1.00  0.00    -0.323 N 
ATOM     12  O   UNL     1     -12.672   1.989  24.959  1.00  0.00    -0.270 OA
ATOM     13  C   UNL     1     -13.312   2.257  23.951  1.00  0.00     0.248 C 
ATOM     14  H   UNL     1     -14.305   3.538  22.709  1.00  0.00     0.170 HD
BRANCH  13  15
ATOM     15  C   UNL     1     -13.370   1.262  22.850  1.00  0.00     0.072 C 
ATOM     16  C   UNL     1     -13.749  -0.009  23.052  1.00  0.00     0.014 C 
BRANCH  16  17
ATOM     17  C   UNL     1     -13.778  -1.009  21.979  1.00  0.00    -0.025 A 
ATOM     18  C   UNL     1     -13.419  -0.629  20.682  1.00  0.00     0.008 A 
ATOM     19  C   UNL     1     -14.102  -2.349  22.233  1.00  0.00     0.021 A 
ATOM     20  C   UNL     1     -13.402  -1.567  19.648  1.00  0.00     0.001 A 
ATOM     21  C   UNL     1     -14.089  -3.302  21.201  1.00  0.00     0.056 A 
ATOM     22  C   UNL     1     -13.731  -2.897  19.907  1.00  0.00     0.013 A 
BRANCH  21  23
ATOM     23  C   UNL     1     -14.406  -4.748  21.493  1.00  0.00     0.416 C 
ATOM     24  F   UNL     1     -15.697  -5.079  21.205  1.00  0.00    -0.166 F 
ATOM     25  F   UNL     1     -13.632  -5.620  20.791  1.00  0.00    -0.166 F 
ATOM     26  F   UNL     1     -14.225  -5.059  22.806  1.00  0.00    -0.166 F 
ENDBRANCH  21  23
ENDBRANCH  16  17
ENDBRANCH  13  15
ENDBRANCH   6  11
ENDBRANCH   1   5
BRANCH   3  27
ATOM     27  S   UNL     1     -13.706  10.461  27.756  1.00  0.00     0.264 S 
ATOM     28  O   UNL     1     -13.654  10.059  29.147  1.00  0.00    -0.201 OA
ATOM     29  O   UNL     1     -14.764  11.317  27.273  1.00  0.00    -0.201 OA
BRANCH  27  30
ATOM     30  C   UNL     1     -12.140  11.196  27.363  1.00  0.00     0.094 A 
ATOM     31  C   UNL     1     -11.578  12.125  28.236  1.00  0.00     0.025 A 
ATOM     32  C   UNL     1     -11.498  10.879  26.169  1.00  0.00     0.110 A 
ATOM     33  C   UNL     1     -10.350  12.721  27.924  1.00  0.00     0.034 A 
ATOM     34  C   UNL     1     -10.265  11.486  25.872  1.00  0.00     0.293 A 
ATOM     35  C   UNL     1      -9.662  12.444  26.731  1.00  0.00     0.113 A 
BRANCH  34  36
ATOM     36  N   UNL     1      -9.620  11.105  24.611  1.00  0.00     0.065 N 
ATOM     37  O   UNL     1      -9.619   9.904  24.306  1.00  0.00    -0.258 OA
ATOM     38  O   UNL     1      -9.127  12.006  23.915  1.00  0.00    -0.258 OA
ENDBRANCH  34  36
BRANCH  35  39
ATOM     39  N   UNL     1      -8.390  12.963  26.486  1.00  0.00    -0.379 N 
ATOM     40  H   UNL     1      -7.922  12.509  25.694  1.00  0.00     0.160 HD
BRANCH  39  41
ATOM     41  C   UNL     1      -8.048  14.385  26.573  1.00  0.00     0.124 C 
BRANCH  41  42
ATOM     42  C   UNL     1      -8.595  15.165  25.368  1.00  0.00     0.096 C 
BRANCH  42  43
ATOM     43  S   UNL     1     -10.011  16.267  25.752  1.00  0.00    -0.124 SA
BRANCH  43  44
ATOM     44  C   UNL     1     -11.408  15.228  25.361  1.00  0.00     0.007 A 
ATOM     45  C   UNL     1     -11.478  14.463  24.192  1.00  0.00     0.015 A 
ATOM     46  C   UNL     1     -12.494  15.217  26.244  1.00  0.00     0.015 A 
ATOM     47  C   UNL     1     -12.600  13.673  23.927  1.00  0.00     0.001 A 
ATOM     48  C   UNL     1     -13.615  14.427  25.982  1.00  0.00     0.001 A 
ATOM     49  C   UNL     1     -13.665  13.651  24.825  1.00  0.00     0.000 A 
ENDBRANCH  43  44
ENDBRANCH  42  43
ENDBRANCH  41  42
ENDBRANCH  39  41
ENDBRANCH  35  39
ENDBRANCH  27  30
ENDBRANCH   3  27
TORSDOF 13
ENDMDL
