MODEL 3
REMARK VINA RESULT:    -7.898      1.868      2.575
REMARK INTER + INTRA:         -16.997
REMARK INTER:                 -13.559
REMARK INTRA:                  -3.438
REMARK UNBOUND:                -3.098
REMARK SMILES O=C(/C=C/c1cccc(C(F)(F)F)c1)Nc1ccc(C(=O)NS(=O)(=O)c2ccc(NCCSc3ccccc3)c([N+](=O)[O-])c2)cc1
REMARK SMILES IDX 20 1 21 2 22 3 19 5 16 6 17 7 46 8 18 9 45 10 15 11 1 12
REMARK SMILES IDX 2 13 3 15 4 16 5 17 6 18 14 19 7 20 9 21 8 22 10 23 11 24
REMARK SMILES IDX 12 25 13 26 23 27 24 28 25 29 26 30 27 31 44 32 28 33 40 34
REMARK SMILES IDX 29 35 41 36 42 37 43 38 30 39 31 41 32 42 33 43 34 44 35 45
REMARK SMILES IDX 39 46 36 47 38 48 37 49
REMARK H PARENT 22 4 15 14 30 40
ROOT
ATOM      1  C   UNL     1     -14.077   8.178  26.524  1.00  0.00     0.264 C 
ATOM      2  O   UNL     1     -14.753   8.411  27.512  1.00  0.00    -0.268 OA
ATOM      3  N   UNL     1     -13.277   9.137  25.891  1.00  0.00    -0.245 N 
ATOM      4  H   UNL     1     -12.654   8.908  25.126  1.00  0.00     0.183 HD
ENDROOT
BRANCH   1   5
ATOM      5  C   UNL     1     -14.082   6.828  25.899  1.00  0.00     0.040 A 
ATOM      6  C   UNL     1     -14.003   4.235  24.791  1.00  0.00     0.041 A 
ATOM      7  C   UNL     1     -14.765   5.242  24.192  1.00  0.00     0.027 A 
ATOM      8  C   UNL     1     -13.279   4.537  25.950  1.00  0.00     0.027 A 
ATOM      9  C   UNL     1     -14.807   6.531  24.740  1.00  0.00     0.016 A 
ATOM     10  C   UNL     1     -13.322   5.821  26.505  1.00  0.00     0.016 A 
BRANCH   6  11
ATOM     11  N   UNL     1     -13.909   2.920  24.292  1.00  0.00    -0.323 N 
ATOM     12  O   UNL     1     -11.690   2.797  23.579  1.00  0.00    -0.270 OA
ATOM     13  C   UNL     1     -12.790   2.302  23.779  1.00  0.00     0.248 C 
ATOM     14  H   UNL     1     -14.773   2.397  24.254  1.00  0.00     0.170 HD
BRANCH  13  15
ATOM     15  C   UNL     1     -13.035   0.900  23.352  1.00  0.00     0.072 C 
ATOM     16  C   UNL     1     -13.303   0.574  22.079  1.00  0.00     0.014 C 
BRANCH  16  17
ATOM     17  C   UNL     1     -13.580  -0.801  21.652  1.00  0.00    -0.025 A 
ATOM     18  C   UNL     1     -13.423  -1.143  20.305  1.00  0.00     0.008 A 
ATOM     19  C   UNL     1     -13.942  -1.796  22.571  1.00  0.00     0.021 A 
ATOM     20  C   UNL     1     -13.643  -2.454  19.877  1.00  0.00     0.001 A 
ATOM     21  C   UNL     1     -14.167  -3.118  22.152  1.00  0.00     0.056 A 
ATOM     22  C   UNL     1     -14.010  -3.436  20.796  1.00  0.00     0.013 A 
BRANCH  21  23
ATOM     23  C   UNL     1     -14.523  -4.187  23.156  1.00  0.00     0.416 C 
ATOM     24  F   UNL     1     -15.842  -4.535  23.118  1.00  0.00    -0.166 F 
ATOM     25  F   UNL     1     -13.828  -5.344  22.978  1.00  0.00    -0.166 F 
ATOM     26  F   UNL     1     -14.277  -3.794  24.435  1.00  0.00    -0.166 F 
ENDBRANCH  21  23
ENDBRANCH  16  17
ENDBRANCH  13  15
ENDBRANCH   6  11
ENDBRANCH   1   5
BRANCH   3  27
ATOM     27  S   UNL     1     -13.064  10.696  26.428  1.00  0.00     0.264 S 
ATOM     28  O   UNL     1     -12.259  10.576  27.627  1.00  0.00    -0.201 OA
ATOM     29  O   UNL     1     -14.329  11.391  26.454  1.00  0.00    -0.201 OA
BRANCH  27  30
ATOM     30  C   UNL     1     -12.035  11.411  25.173  1.00  0.00     0.094 A 
ATOM     31  C   UNL     1     -10.796  10.839  24.892  1.00  0.00     0.025 A 
ATOM     32  C   UNL     1     -12.444  12.561  24.503  1.00  0.00     0.110 A 
ATOM     33  C   UNL     1      -9.971  11.408  23.914  1.00  0.00     0.034 A 
ATOM     34  C   UNL     1     -11.603  13.118  23.523  1.00  0.00     0.293 A 
ATOM     35  C   UNL     1     -10.330  12.571  23.213  1.00  0.00     0.113 A 
BRANCH  34  36
ATOM     36  N   UNL     1     -12.088  14.318  22.833  1.00  0.00     0.065 N 
ATOM     37  O   UNL     1     -13.039  14.188  22.050  1.00  0.00    -0.258 OA
ATOM     38  O   UNL     1     -11.529  15.398  23.085  1.00  0.00    -0.258 OA
ENDBRANCH  34  36
BRANCH  35  39
ATOM     39  N   UNL     1      -9.547  13.062  22.167  1.00  0.00    -0.379 N 
ATOM     40  H   UNL     1      -8.678  13.499  22.493  1.00  0.00     0.160 HD
BRANCH  39  41
ATOM     41  C   UNL     1      -9.359  12.377  20.885  1.00  0.00     0.124 C 
BRANCH  41  42
ATOM     42  C   UNL     1     -10.577  12.566  19.968  1.00  0.00     0.096 C 
BRANCH  42  43
ATOM     43  S   UNL     1     -11.131  11.040  19.113  1.00  0.00    -0.124 SA
BRANCH  43  44
ATOM     44  C   UNL     1     -11.639  10.011  20.480  1.00  0.00     0.007 A 
ATOM     45  C   UNL     1     -12.782  10.276  21.242  1.00  0.00     0.015 A 
ATOM     46  C   UNL     1     -10.832   8.920  20.825  1.00  0.00     0.015 A 
ATOM     47  C   UNL     1     -13.131   9.444  22.309  1.00  0.00     0.001 A 
ATOM     48  C   UNL     1     -11.180   8.088  21.890  1.00  0.00     0.001 A 
ATOM     49  C   UNL     1     -12.333   8.347  22.628  1.00  0.00     0.000 A 
ENDBRANCH  43  44
ENDBRANCH  42  43
ENDBRANCH  41  42
ENDBRANCH  39  41
ENDBRANCH  35  39
ENDBRANCH  27  30
ENDBRANCH   3  27
TORSDOF 13
ENDMDL
