REMARK VINA RESULT:    -8.136      2.229      2.925
REMARK INTER + INTRA:         -11.114
REMARK INTER:                 -10.668
REMARK INTRA:                  -0.445
REMARK UNBOUND:                -0.600
REMARK SMILES N#C/C(=C\c1ccc(O)c(O)c1)C(=O)NCc1ccccc1
REMARK SMILES IDX 1 1 2 2 3 3 4 4 13 5 14 6 15 7 16 9 17 10 18 11 22 12 19 13
REMARK SMILES IDX 21 14 20 15 5 16 6 17 12 18 7 19 10 20 8 21 11 22 9 24
REMARK H PARENT 15 8 11 23 9 25
ROOT
ATOM      1  N   UNL     1      15.003  31.848  12.108  1.00  0.00    -0.192 NA
ATOM      2  C   UNL     1      15.958  32.301  11.627  1.00  0.00     0.105 C 
ATOM      3  C   UNL     1      17.098  32.856  10.988  1.00  0.00     0.117 C 
ATOM      4  C   UNL     1      18.085  33.480  11.663  1.00  0.00     0.033 C 
ENDROOT
BRANCH   3   5
ATOM      5  C   UNL     1      17.252  32.749   9.500  1.00  0.00     0.262 C 
ATOM      6  O   UNL     1      16.964  33.682   8.754  1.00  0.00    -0.268 OA
ATOM      7  N   UNL     1      17.728  31.553   9.018  1.00  0.00    -0.347 N 
ATOM      8  H   UNL     1      17.972  30.782   9.627  1.00  0.00     0.164 HD
BRANCH   7   9
ATOM      9  C   UNL     1      17.913  31.355   7.598  1.00  0.00     0.152 C 
BRANCH   9  10
ATOM     10  C   UNL     1      16.916  30.363   7.064  1.00  0.00    -0.029 A 
ATOM     11  C   UNL     1      17.346  29.140   6.531  1.00  0.00     0.005 A 
ATOM     12  C   UNL     1      15.541  30.626   7.140  1.00  0.00     0.005 A 
ATOM     13  C   UNL     1      16.419  28.205   6.067  1.00  0.00     0.000 A 
ATOM     14  C   UNL     1      14.615  29.690   6.675  1.00  0.00     0.000 A 
ATOM     15  C   UNL     1      15.054  28.482   6.137  1.00  0.00     0.000 A 
ENDBRANCH   9  10
ENDBRANCH   7   9
ENDBRANCH   3   5
BRANCH   4  16
ATOM     16  C   UNL     1      18.139  33.680  13.117  1.00  0.00    -0.020 A 
ATOM     17  C   UNL     1      17.281  34.581  13.767  1.00  0.00     0.012 A 
ATOM     18  C   UNL     1      19.094  32.978  13.862  1.00  0.00     0.058 A 
ATOM     19  C   UNL     1      17.355  34.764  15.154  1.00  0.00     0.051 A 
ATOM     20  C   UNL     1      19.162  33.168  15.236  1.00  0.00     0.157 A 
ATOM     21  C   UNL     1      18.299  34.050  15.881  1.00  0.00     0.157 A 
BRANCH  20  22
ATOM     22  O   UNL     1      20.090  32.475  15.958  1.00  0.00    -0.504 OA
ATOM     23  H   UNL     1      19.605  32.161  16.747  1.00  0.00     0.293 HD
ENDBRANCH  20  22
BRANCH  21  24
ATOM     24  O   UNL     1      18.422  34.184  17.236  1.00  0.00    -0.504 OA
ATOM     25  H   UNL     1      19.365  34.293  17.445  1.00  0.00     0.293 HD
ENDBRANCH  21  24
ENDBRANCH   4  16
TORSDOF 6
