MODEL 1
REMARK VINA RESULT:    -9.471      0.000      0.000
REMARK INTER + INTRA:         -13.322
REMARK INTER:                 -12.240
REMARK INTRA:                  -1.082
REMARK UNBOUND:                -1.082
REMARK SMILES Cc1cc2c(cc1C)[n+](Cc1ccccc1C)cn2C(c1ccccc1)c1ccccc1
REMARK SMILES IDX 1 1 2 2 3 3 4 4 5 5 6 6 7 7 8 8 9 9 18 10 19 11 20 12 21 13
REMARK SMILES IDX 22 14 26 15 23 16 25 17 24 18 27 19 28 20 32 21 29 22 31 23
REMARK SMILES IDX 30 24 10 25 11 26 12 27 16 28 13 29 15 30 14 31 17 32
REMARK H PARENT
ROOT
ATOM      1  C   UNL     1     -16.800 -42.407  28.524  1.00  0.00     0.045 C 
ATOM      2  C   UNL     1     -17.581 -42.419  27.232  1.00  0.00    -0.044 A 
ATOM      3  C   UNL     1     -18.978 -42.242  27.295  1.00  0.00     0.060 A 
ATOM      4  C   UNL     1     -19.665 -42.256  26.086  1.00  0.00     0.175 A 
ATOM      5  C   UNL     1     -19.014 -42.423  24.859  1.00  0.00     0.174 A 
ATOM      6  C   UNL     1     -17.637 -42.602  24.770  1.00  0.00     0.060 A 
ATOM      7  C   UNL     1     -16.918 -42.600  25.983  1.00  0.00    -0.044 A 
ATOM      8  C   UNL     1     -15.421 -42.787  25.929  1.00  0.00     0.045 C 
ATOM      9  N   UNL     1     -19.998 -42.351  23.881  1.00  0.00    -0.226 N 
ATOM     10  C   UNL     1     -21.197 -42.193  24.466  1.00  0.00     0.406 A 
ATOM     11  N   UNL     1     -21.022 -42.117  25.794  1.00  0.00    -0.218 N 
ENDROOT
BRANCH  11  12
ATOM     12  C   UNL     1     -22.102 -41.916  26.781  1.00  0.00     0.242 C 
BRANCH  12  13
ATOM     13  C   UNL     1     -22.927 -43.190  26.903  1.00  0.00     0.001 A 
ATOM     14  C   UNL     1     -22.421 -44.253  27.677  1.00  0.00     0.008 A 
ATOM     15  C   UNL     1     -24.151 -43.375  26.239  1.00  0.00     0.008 A 
ATOM     16  C   UNL     1     -23.119 -45.456  27.786  1.00  0.00     0.000 A 
ATOM     17  C   UNL     1     -24.847 -44.581  26.350  1.00  0.00     0.000 A 
ATOM     18  C   UNL     1     -24.332 -45.619  27.122  1.00  0.00     0.000 A 
ENDBRANCH  12  13
BRANCH  12  19
ATOM     19  C   UNL     1     -22.869 -40.637  26.472  1.00  0.00     0.001 A 
ATOM     20  C   UNL     1     -23.278 -39.816  27.539  1.00  0.00     0.008 A 
ATOM     21  C   UNL     1     -23.217 -40.252  25.165  1.00  0.00     0.008 A 
ATOM     22  C   UNL     1     -23.995 -38.641  27.305  1.00  0.00     0.000 A 
ATOM     23  C   UNL     1     -23.934 -39.076  24.934  1.00  0.00     0.000 A 
ATOM     24  C   UNL     1     -24.321 -38.271  26.003  1.00  0.00     0.000 A 
ENDBRANCH  12  19
ENDBRANCH  11  12
BRANCH   9  25
ATOM     25  C   UNL     1     -19.805 -42.440  22.431  1.00  0.00     0.279 C 
BRANCH  25  26
ATOM     26  C   UNL     1     -20.325 -41.184  21.771  1.00  0.00    -0.004 A 
ATOM     27  C   UNL     1     -20.096 -39.946  22.403  1.00  0.00     0.008 A 
ATOM     28  C   UNL     1     -21.002 -41.207  20.531  1.00  0.00    -0.044 A 
ATOM     29  C   UNL     1     -20.512 -38.753  21.813  1.00  0.00     0.000 A 
ATOM     30  C   UNL     1     -21.403 -39.994  19.948  1.00  0.00     0.004 A 
ATOM     31  C   UNL     1     -21.160 -38.778  20.584  1.00  0.00     0.000 A 
ATOM     32  C   UNL     1     -21.285 -42.486  19.790  1.00  0.00     0.045 C 
ENDBRANCH  25  26
ENDBRANCH   9  25
TORSDOF 5
ENDMDL
MODEL 2
REMARK VINA RESULT:    -9.463      0.924      1.386
REMARK INTER + INTRA:         -13.312
REMARK INTER:                 -12.352
REMARK INTRA:                  -0.960
REMARK UNBOUND:                -1.082
REMARK SMILES Cc1cc2c(cc1C)[n+](Cc1ccccc1C)cn2C(c1ccccc1)c1ccccc1
REMARK SMILES IDX 1 1 2 2 3 3 4 4 5 5 6 6 7 7 8 8 9 9 18 10 19 11 20 12 21 13
REMARK SMILES IDX 22 14 26 15 23 16 25 17 24 18 27 19 28 20 32 21 29 22 31 23
REMARK SMILES IDX 30 24 10 25 11 26 12 27 16 28 13 29 15 30 14 31 17 32
REMARK H PARENT
ROOT
ATOM      1  C   UNL     1     -15.854 -42.763  26.965  1.00  0.00     0.045 C 
ATOM      2  C   UNL     1     -16.893 -42.661  25.873  1.00  0.00    -0.044 A 
ATOM      3  C   UNL     1     -18.219 -42.358  26.241  1.00  0.00     0.060 A 
ATOM      4  C   UNL     1     -19.148 -42.269  25.209  1.00  0.00     0.175 A 
ATOM      5  C   UNL     1     -18.795 -42.455  23.869  1.00  0.00     0.174 A 
ATOM      6  C   UNL     1     -17.493 -42.758  23.480  1.00  0.00     0.060 A 
ATOM      7  C   UNL     1     -16.534 -42.862  24.508  1.00  0.00    -0.044 A 
ATOM      8  C   UNL     1     -15.109 -43.184  24.128  1.00  0.00     0.045 C 
ATOM      9  N   UNL     1     -19.955 -42.260  23.128  1.00  0.00    -0.226 N 
ATOM     10  C   UNL     1     -20.979 -42.012  23.961  1.00  0.00     0.406 A 
ATOM     11  N   UNL     1     -20.516 -41.996  25.220  1.00  0.00    -0.218 N 
ENDROOT
BRANCH  11  12
ATOM     12  C   UNL     1     -21.334 -41.728  26.421  1.00  0.00     0.242 C 
BRANCH  12  13
ATOM     13  C   UNL     1     -21.886 -43.039  26.966  1.00  0.00     0.001 A 
ATOM     14  C   UNL     1     -23.224 -43.379  26.686  1.00  0.00     0.008 A 
ATOM     15  C   UNL     1     -21.136 -43.905  27.780  1.00  0.00     0.008 A 
ATOM     16  C   UNL     1     -23.788 -44.548  27.196  1.00  0.00     0.000 A 
ATOM     17  C   UNL     1     -21.705 -45.074  28.290  1.00  0.00     0.000 A 
ATOM     18  C   UNL     1     -23.027 -45.395  27.999  1.00  0.00     0.000 A 
ENDBRANCH  12  13
BRANCH  12  19
ATOM     19  C   UNL     1     -22.349 -40.630  26.135  1.00  0.00     0.001 A 
ATOM     20  C   UNL     1     -22.894 -39.911  27.215  1.00  0.00     0.008 A 
ATOM     21  C   UNL     1     -22.795 -40.320  24.837  1.00  0.00     0.008 A 
ATOM     22  C   UNL     1     -23.838 -38.905  27.002  1.00  0.00     0.000 A 
ATOM     23  C   UNL     1     -23.739 -39.313  24.628  1.00  0.00     0.000 A 
ATOM     24  C   UNL     1     -24.258 -38.605  25.710  1.00  0.00     0.000 A 
ENDBRANCH  12  19
ENDBRANCH  11  12
BRANCH   9  25
ATOM     25  C   UNL     1     -20.088 -42.320  21.670  1.00  0.00     0.279 C 
BRANCH  25  26
ATOM     26  C   UNL     1     -20.698 -41.034  21.163  1.00  0.00    -0.004 A 
ATOM     27  C   UNL     1     -20.039 -39.820  21.438  1.00  0.00     0.008 A 
ATOM     28  C   UNL     1     -21.887 -41.012  20.398  1.00  0.00    -0.044 A 
ATOM     29  C   UNL     1     -20.533 -38.610  20.953  1.00  0.00     0.000 A 
ATOM     30  C   UNL     1     -22.363 -39.784  19.909  1.00  0.00     0.004 A 
ATOM     31  C   UNL     1     -21.691 -38.594  20.184  1.00  0.00     0.000 A 
ATOM     32  C   UNL     1     -22.651 -42.263  20.058  1.00  0.00     0.045 C 
ENDBRANCH  25  26
ENDBRANCH   9  25
TORSDOF 5
ENDMDL
MODEL 3
REMARK VINA RESULT:    -9.313      1.630      6.555
REMARK INTER + INTRA:         -13.117
REMARK INTER:                 -11.947
REMARK INTRA:                  -1.170
REMARK UNBOUND:                -1.082
REMARK SMILES Cc1cc2c(cc1C)[n+](Cc1ccccc1C)cn2C(c1ccccc1)c1ccccc1
REMARK SMILES IDX 1 1 2 2 3 3 4 4 5 5 6 6 7 7 8 8 9 9 18 10 19 11 20 12 21 13
REMARK SMILES IDX 22 14 26 15 23 16 25 17 24 18 27 19 28 20 32 21 29 22 31 23
REMARK SMILES IDX 30 24 10 25 11 26 12 27 16 28 13 29 15 30 14 31 17 32
REMARK H PARENT
ROOT
ATOM      1  C   UNL     1     -15.162 -43.445  23.614  1.00  0.00     0.045 C 
ATOM      2  C   UNL     1     -16.498 -42.966  24.130  1.00  0.00    -0.044 A 
ATOM      3  C   UNL     1     -17.543 -42.780  23.204  1.00  0.00     0.060 A 
ATOM      4  C   UNL     1     -18.760 -42.340  23.715  1.00  0.00     0.175 A 
ATOM      5  C   UNL     1     -18.955 -42.103  25.079  1.00  0.00     0.174 A 
ATOM      6  C   UNL     1     -17.938 -42.277  26.014  1.00  0.00     0.060 A 
ATOM      7  C   UNL     1     -16.692 -42.714  25.520  1.00  0.00    -0.044 A 
ATOM      8  C   UNL     1     -15.564 -42.918  26.502  1.00  0.00     0.045 C 
ATOM      9  N   UNL     1     -20.282 -41.715  25.224  1.00  0.00    -0.226 N 
ATOM     10  C   UNL     1     -20.866 -41.668  24.015  1.00  0.00     0.406 A 
ATOM     11  N   UNL     1     -19.975 -42.056  23.090  1.00  0.00    -0.218 N 
ENDROOT
BRANCH  11  12
ATOM     12  C   UNL     1     -20.248 -42.165  21.643  1.00  0.00     0.242 C 
BRANCH  12  13
ATOM     13  C   UNL     1     -20.582 -40.789  21.081  1.00  0.00     0.001 A 
ATOM     14  C   UNL     1     -21.871 -40.263  21.296  1.00  0.00     0.008 A 
ATOM     15  C   UNL     1     -19.676 -40.037  20.313  1.00  0.00     0.008 A 
ATOM     16  C   UNL     1     -22.237 -39.026  20.767  1.00  0.00     0.000 A 
ATOM     17  C   UNL     1     -20.048 -38.798  19.785  1.00  0.00     0.000 A 
ATOM     18  C   UNL     1     -21.325 -38.294  20.011  1.00  0.00     0.000 A 
ENDBRANCH  12  13
BRANCH  12  19
ATOM     19  C   UNL     1     -21.262 -43.270  21.377  1.00  0.00     0.001 A 
ATOM     20  C   UNL     1     -21.451 -43.715  20.056  1.00  0.00     0.008 A 
ATOM     21  C   UNL     1     -22.044 -43.850  22.392  1.00  0.00     0.008 A 
ATOM     22  C   UNL     1     -22.379 -44.716  19.762  1.00  0.00     0.000 A 
ATOM     23  C   UNL     1     -22.970 -44.852  22.095  1.00  0.00     0.000 A 
ATOM     24  C   UNL     1     -23.135 -45.285  20.782  1.00  0.00     0.000 A 
ENDBRANCH  12  19
ENDBRANCH  11  12
BRANCH   9  25
ATOM     25  C   UNL     1     -20.970 -41.386  26.474  1.00  0.00     0.279 C 
BRANCH  25  26
ATOM     26  C   UNL     1     -21.653 -42.619  27.017  1.00  0.00    -0.004 A 
ATOM     27  C   UNL     1     -20.858 -43.644  27.566  1.00  0.00     0.008 A 
ATOM     28  C   UNL     1     -23.059 -42.764  27.022  1.00  0.00    -0.044 A 
ATOM     29  C   UNL     1     -21.440 -44.781  28.124  1.00  0.00     0.000 A 
ATOM     30  C   UNL     1     -23.627 -43.911  27.599  1.00  0.00     0.004 A 
ATOM     31  C   UNL     1     -22.824 -44.911  28.144  1.00  0.00     0.000 A 
ATOM     32  C   UNL     1     -23.980 -41.715  26.457  1.00  0.00     0.045 C 
ENDBRANCH  25  26
ENDBRANCH   9  25
TORSDOF 5
ENDMDL
MODEL 4
REMARK VINA RESULT:    -9.261      7.578     12.665
REMARK INTER + INTRA:         -13.051
REMARK INTER:                 -11.921
REMARK INTRA:                  -1.130
REMARK UNBOUND:                -1.082
REMARK SMILES Cc1cc2c(cc1C)[n+](Cc1ccccc1C)cn2C(c1ccccc1)c1ccccc1
REMARK SMILES IDX 1 1 2 2 3 3 4 4 5 5 6 6 7 7 8 8 9 9 18 10 19 11 20 12 21 13
REMARK SMILES IDX 22 14 26 15 23 16 25 17 24 18 27 19 28 20 32 21 29 22 31 23
REMARK SMILES IDX 30 24 10 25 11 26 12 27 16 28 13 29 15 30 14 31 17 32
REMARK H PARENT
ROOT
ATOM      1  C   UNL     1     -12.369 -41.414  34.924  1.00  0.00     0.045 C 
ATOM      2  C   UNL     1     -12.582 -42.250  33.683  1.00  0.00    -0.044 A 
ATOM      3  C   UNL     1     -11.520 -42.363  32.765  1.00  0.00     0.060 A 
ATOM      4  C   UNL     1     -11.750 -43.142  31.636  1.00  0.00     0.175 A 
ATOM      5  C   UNL     1     -12.967 -43.797  31.417  1.00  0.00     0.174 A 
ATOM      6  C   UNL     1     -14.032 -43.699  32.307  1.00  0.00     0.060 A 
ATOM      7  C   UNL     1     -13.826 -42.908  33.455  1.00  0.00    -0.044 A 
ATOM      8  C   UNL     1     -14.956 -42.779  34.448  1.00  0.00     0.045 C 
ATOM      9  N   UNL     1     -12.825 -44.498  30.224  1.00  0.00    -0.226 N 
ATOM     10  C   UNL     1     -11.608 -44.257  29.709  1.00  0.00     0.406 A 
ATOM     11  N   UNL     1     -10.935 -43.455  30.548  1.00  0.00    -0.218 N 
ENDROOT
BRANCH  11  12
ATOM     12  C   UNL     1      -9.549 -42.987  30.345  1.00  0.00     0.242 C 
BRANCH  12  13
ATOM     13  C   UNL     1      -9.328 -42.668  28.872  1.00  0.00     0.001 A 
ATOM     14  C   UNL     1      -8.038 -42.296  28.444  1.00  0.00     0.008 A 
ATOM     15  C   UNL     1     -10.365 -42.679  27.924  1.00  0.00     0.008 A 
ATOM     16  C   UNL     1      -7.795 -41.954  27.114  1.00  0.00     0.000 A 
ATOM     17  C   UNL     1     -10.117 -42.336  26.592  1.00  0.00     0.000 A 
ATOM     18  C   UNL     1      -8.836 -41.975  26.189  1.00  0.00     0.000 A 
ENDBRANCH  12  13
BRANCH  12  19
ATOM     19  C   UNL     1      -8.564 -43.956  30.984  1.00  0.00     0.001 A 
ATOM     20  C   UNL     1      -7.640 -43.464  31.925  1.00  0.00     0.008 A 
ATOM     21  C   UNL     1      -8.513 -45.323  30.654  1.00  0.00     0.008 A 
ATOM     22  C   UNL     1      -6.710 -44.313  32.527  1.00  0.00     0.000 A 
ATOM     23  C   UNL     1      -7.581 -46.169  31.259  1.00  0.00     0.000 A 
ATOM     24  C   UNL     1      -6.682 -45.664  32.195  1.00  0.00     0.000 A 
ENDBRANCH  12  19
ENDBRANCH  11  12
BRANCH   9  25
ATOM     25  C   UNL     1     -13.822 -45.362  29.589  1.00  0.00     0.279 C 
BRANCH  25  26
ATOM     26  C   UNL     1     -14.165 -44.820  28.221  1.00  0.00    -0.004 A 
ATOM     27  C   UNL     1     -15.047 -43.725  28.132  1.00  0.00     0.008 A 
ATOM     28  C   UNL     1     -13.609 -45.351  27.035  1.00  0.00    -0.044 A 
ATOM     29  C   UNL     1     -15.360 -43.156  26.898  1.00  0.00     0.000 A 
ATOM     30  C   UNL     1     -13.927 -44.757  25.803  1.00  0.00     0.004 A 
ATOM     31  C   UNL     1     -14.795 -43.669  25.736  1.00  0.00     0.000 A 
ATOM     32  C   UNL     1     -12.657 -46.518  27.043  1.00  0.00     0.045 C 
ENDBRANCH  25  26
ENDBRANCH   9  25
TORSDOF 5
ENDMDL
MODEL 5
REMARK VINA RESULT:    -9.138      2.307      6.145
REMARK INTER + INTRA:         -12.892
REMARK INTER:                 -12.381
REMARK INTRA:                  -0.511
REMARK UNBOUND:                -1.082
REMARK SMILES Cc1cc2c(cc1C)[n+](Cc1ccccc1C)cn2C(c1ccccc1)c1ccccc1
REMARK SMILES IDX 1 1 2 2 3 3 4 4 5 5 6 6 7 7 8 8 9 9 18 10 19 11 20 12 21 13
REMARK SMILES IDX 22 14 26 15 23 16 25 17 24 18 27 19 28 20 32 21 29 22 31 23
REMARK SMILES IDX 30 24 10 25 11 26 12 27 16 28 13 29 15 30 14 31 17 32
REMARK H PARENT
ROOT
ATOM      1  C   UNL     1     -23.313 -39.851  20.895  1.00  0.00     0.045 C 
ATOM      2  C   UNL     1     -22.184 -40.516  21.646  1.00  0.00    -0.044 A 
ATOM      3  C   UNL     1     -22.485 -41.634  22.448  1.00  0.00     0.060 A 
ATOM      4  C   UNL     1     -21.420 -42.224  23.123  1.00  0.00     0.175 A 
ATOM      5  C   UNL     1     -20.110 -41.748  23.010  1.00  0.00     0.174 A 
ATOM      6  C   UNL     1     -19.787 -40.645  22.226  1.00  0.00     0.060 A 
ATOM      7  C   UNL     1     -20.850 -40.025  21.539  1.00  0.00    -0.044 A 
ATOM      8  C   UNL     1     -20.541 -38.826  20.674  1.00  0.00     0.045 C 
ATOM      9  N   UNL     1     -19.320 -42.591  23.784  1.00  0.00    -0.226 N 
ATOM     10  C   UNL     1     -20.099 -43.508  24.380  1.00  0.00     0.406 A 
ATOM     11  N   UNL     1     -21.367 -43.318  23.986  1.00  0.00    -0.218 N 
ENDROOT
BRANCH  11  12
ATOM     12  C   UNL     1     -22.518 -44.146  24.403  1.00  0.00     0.242 C 
BRANCH  12  13
ATOM     13  C   UNL     1     -22.447 -44.400  25.904  1.00  0.00     0.001 A 
ATOM     14  C   UNL     1     -23.625 -44.285  26.667  1.00  0.00     0.008 A 
ATOM     15  C   UNL     1     -21.248 -44.697  26.573  1.00  0.00     0.008 A 
ATOM     16  C   UNL     1     -23.604 -44.467  28.049  1.00  0.00     0.000 A 
ATOM     17  C   UNL     1     -21.231 -44.879  27.958  1.00  0.00     0.000 A 
ATOM     18  C   UNL     1     -22.406 -44.764  28.694  1.00  0.00     0.000 A 
ENDBRANCH  12  13
BRANCH  12  19
ATOM     19  C   UNL     1     -22.636 -45.375  23.512  1.00  0.00     0.001 A 
ATOM     20  C   UNL     1     -22.323 -46.637  24.050  1.00  0.00     0.008 A 
ATOM     21  C   UNL     1     -23.016 -45.305  22.160  1.00  0.00     0.008 A 
ATOM     22  C   UNL     1     -22.404 -47.790  23.267  1.00  0.00     0.000 A 
ATOM     23  C   UNL     1     -23.097 -46.460  21.380  1.00  0.00     0.000 A 
ATOM     24  C   UNL     1     -22.793 -47.701  21.934  1.00  0.00     0.000 A 
ENDBRANCH  12  19
ENDBRANCH  11  12
BRANCH   9  25
ATOM     25  C   UNL     1     -17.868 -42.517  23.961  1.00  0.00     0.279 C 
BRANCH  25  26
ATOM     26  C   UNL     1     -17.536 -42.502  25.435  1.00  0.00    -0.004 A 
ATOM     27  C   UNL     1     -18.543 -42.137  26.349  1.00  0.00     0.008 A 
ATOM     28  C   UNL     1     -16.263 -42.870  25.926  1.00  0.00    -0.044 A 
ATOM     29  C   UNL     1     -18.304 -42.153  27.723  1.00  0.00     0.000 A 
ATOM     30  C   UNL     1     -16.045 -42.891  27.314  1.00  0.00     0.004 A 
ATOM     31  C   UNL     1     -17.057 -42.535  28.203  1.00  0.00     0.000 A 
ATOM     32  C   UNL     1     -15.133 -43.274  25.017  1.00  0.00     0.045 C 
ENDBRANCH  25  26
ENDBRANCH   9  25
TORSDOF 5
ENDMDL
MODEL 6
REMARK VINA RESULT:    -9.114      1.940      6.968
REMARK INTER + INTRA:         -12.860
REMARK INTER:                 -11.225
REMARK INTRA:                  -1.635
REMARK UNBOUND:                -1.082
REMARK SMILES Cc1cc2c(cc1C)[n+](Cc1ccccc1C)cn2C(c1ccccc1)c1ccccc1
REMARK SMILES IDX 1 1 2 2 3 3 4 4 5 5 6 6 7 7 8 8 9 9 18 10 19 11 20 12 21 13
REMARK SMILES IDX 22 14 26 15 23 16 25 17 24 18 27 19 28 20 32 21 29 22 31 23
REMARK SMILES IDX 30 24 10 25 11 26 12 27 16 28 13 29 15 30 14 31 17 32
REMARK H PARENT
ROOT
ATOM      1  C   UNL     1     -23.293 -39.346  27.328  1.00  0.00     0.045 C 
ATOM      2  C   UNL     1     -22.837 -40.732  26.937  1.00  0.00    -0.044 A 
ATOM      3  C   UNL     1     -21.690 -40.854  26.129  1.00  0.00     0.060 A 
ATOM      4  C   UNL     1     -21.298 -42.145  25.790  1.00  0.00     0.175 A 
ATOM      5  C   UNL     1     -21.992 -43.276  26.233  1.00  0.00     0.174 A 
ATOM      6  C   UNL     1     -23.129 -43.182  27.029  1.00  0.00     0.060 A 
ATOM      7  C   UNL     1     -23.552 -41.884  27.379  1.00  0.00    -0.044 A 
ATOM      8  C   UNL     1     -24.780 -41.740  28.245  1.00  0.00     0.045 C 
ATOM      9  N   UNL     1     -21.304 -44.377  25.735  1.00  0.00    -0.226 N 
ATOM     10  C   UNL     1     -20.270 -43.955  24.989  1.00  0.00     0.406 A 
ATOM     11  N   UNL     1     -20.235 -42.614  25.019  1.00  0.00    -0.218 N 
ENDROOT
BRANCH  11  12
ATOM     12  C   UNL     1     -19.223 -41.777  24.341  1.00  0.00     0.242 C 
BRANCH  12  13
ATOM     13  C   UNL     1     -19.659 -41.511  22.906  1.00  0.00     0.001 A 
ATOM     14  C   UNL     1     -19.273 -40.302  22.295  1.00  0.00     0.008 A 
ATOM     15  C   UNL     1     -20.472 -42.395  22.177  1.00  0.00     0.008 A 
ATOM     16  C   UNL     1     -19.681 -39.993  20.997  1.00  0.00     0.000 A 
ATOM     17  C   UNL     1     -20.879 -42.082  20.878  1.00  0.00     0.000 A 
ATOM     18  C   UNL     1     -20.485 -40.884  20.290  1.00  0.00     0.000 A 
ENDBRANCH  12  13
BRANCH  12  19
ATOM     19  C   UNL     1     -17.834 -42.371  24.530  1.00  0.00     0.001 A 
ATOM     20  C   UNL     1     -17.292 -42.433  25.827  1.00  0.00     0.008 A 
ATOM     21  C   UNL     1     -17.049 -42.835  23.459  1.00  0.00     0.008 A 
ATOM     22  C   UNL     1     -16.017 -42.956  26.047  1.00  0.00     0.000 A 
ATOM     23  C   UNL     1     -15.774 -43.359  23.682  1.00  0.00     0.000 A 
ATOM     24  C   UNL     1     -15.260 -43.421  24.975  1.00  0.00     0.000 A 
ENDBRANCH  12  19
ENDBRANCH  11  12
BRANCH   9  25
ATOM     25  C   UNL     1     -21.629 -45.788  25.953  1.00  0.00     0.279 C 
BRANCH  25  26
ATOM     26  C   UNL     1     -22.720 -46.212  24.997  1.00  0.00    -0.004 A 
ATOM     27  C   UNL     1     -22.409 -46.327  23.628  1.00  0.00     0.008 A 
ATOM     28  C   UNL     1     -24.027 -46.525  25.433  1.00  0.00    -0.044 A 
ATOM     29  C   UNL     1     -23.366 -46.761  22.711  1.00  0.00     0.000 A 
ATOM     30  C   UNL     1     -24.973 -46.971  24.496  1.00  0.00     0.004 A 
ATOM     31  C   UNL     1     -24.644 -47.087  23.146  1.00  0.00     0.000 A 
ATOM     32  C   UNL     1     -24.440 -46.430  26.878  1.00  0.00     0.045 C 
ENDBRANCH  25  26
ENDBRANCH   9  25
TORSDOF 5
ENDMDL
MODEL 7
REMARK VINA RESULT:    -8.666      1.817      5.617
REMARK INTER + INTRA:         -12.282
REMARK INTER:                 -11.739
REMARK INTRA:                  -0.543
REMARK UNBOUND:                -1.082
REMARK SMILES Cc1cc2c(cc1C)[n+](Cc1ccccc1C)cn2C(c1ccccc1)c1ccccc1
REMARK SMILES IDX 1 1 2 2 3 3 4 4 5 5 6 6 7 7 8 8 9 9 18 10 19 11 20 12 21 13
REMARK SMILES IDX 22 14 26 15 23 16 25 17 24 18 27 19 28 20 32 21 29 22 31 23
REMARK SMILES IDX 30 24 10 25 11 26 12 27 16 28 13 29 15 30 14 31 17 32
REMARK H PARENT
ROOT
ATOM      1  C   UNL     1     -24.152 -46.055  23.779  1.00  0.00     0.045 C 
ATOM      2  C   UNL     1     -23.043 -45.184  24.321  1.00  0.00    -0.044 A 
ATOM      3  C   UNL     1     -23.217 -43.786  24.289  1.00  0.00     0.060 A 
ATOM      4  C   UNL     1     -22.177 -43.015  24.798  1.00  0.00     0.175 A 
ATOM      5  C   UNL     1     -21.016 -43.586  25.329  1.00  0.00     0.174 A 
ATOM      6  C   UNL     1     -20.818 -44.963  25.368  1.00  0.00     0.060 A 
ATOM      7  C   UNL     1     -21.854 -45.766  24.851  1.00  0.00    -0.044 A 
ATOM      8  C   UNL     1     -21.681 -47.266  24.880  1.00  0.00     0.045 C 
ATOM      9  N   UNL     1     -20.225 -42.529  25.766  1.00  0.00    -0.226 N 
ATOM     10  C   UNL     1     -20.838 -41.368  25.482  1.00  0.00     0.406 A 
ATOM     11  N   UNL     1     -22.023 -41.634  24.913  1.00  0.00    -0.218 N 
ENDROOT
BRANCH  11  12
ATOM     12  C   UNL     1     -23.004 -40.616  24.483  1.00  0.00     0.242 C 
BRANCH  12  13
ATOM     13  C   UNL     1     -22.488 -39.901  23.241  1.00  0.00     0.001 A 
ATOM     14  C   UNL     1     -23.404 -39.555  22.228  1.00  0.00     0.008 A 
ATOM     15  C   UNL     1     -21.128 -39.613  23.035  1.00  0.00     0.008 A 
ATOM     16  C   UNL     1     -22.974 -38.937  21.054  1.00  0.00     0.000 A 
ATOM     17  C   UNL     1     -20.702 -38.994  21.857  1.00  0.00     0.000 A 
ATOM     18  C   UNL     1     -21.622 -38.657  20.870  1.00  0.00     0.000 A 
ENDBRANCH  12  13
BRANCH  12  19
ATOM     19  C   UNL     1     -23.401 -39.733  25.659  1.00  0.00     0.001 A 
ATOM     20  C   UNL     1     -23.179 -40.205  26.966  1.00  0.00     0.008 A 
ATOM     21  C   UNL     1     -24.009 -38.475  25.499  1.00  0.00     0.008 A 
ATOM     22  C   UNL     1     -23.538 -39.436  28.075  1.00  0.00     0.000 A 
ATOM     23  C   UNL     1     -24.366 -37.709  26.611  1.00  0.00     0.000 A 
ATOM     24  C   UNL     1     -24.129 -38.189  27.896  1.00  0.00     0.000 A 
ENDBRANCH  12  19
ENDBRANCH  11  12
BRANCH   9  25
ATOM     25  C   UNL     1     -18.920 -42.622  26.423  1.00  0.00     0.279 C 
BRANCH  25  26
ATOM     26  C   UNL     1     -17.826 -42.641  25.380  1.00  0.00    -0.004 A 
ATOM     27  C   UNL     1     -18.189 -42.566  24.022  1.00  0.00     0.008 A 
ATOM     28  C   UNL     1     -16.456 -42.701  25.723  1.00  0.00    -0.044 A 
ATOM     29  C   UNL     1     -17.218 -42.532  23.022  1.00  0.00     0.000 A 
ATOM     30  C   UNL     1     -15.493 -42.654  24.702  1.00  0.00     0.004 A 
ATOM     31  C   UNL     1     -15.871 -42.571  23.363  1.00  0.00     0.000 A 
ATOM     32  C   UNL     1     -15.984 -42.781  27.150  1.00  0.00     0.045 C 
ENDBRANCH  25  26
ENDBRANCH   9  25
TORSDOF 5
ENDMDL
MODEL 8
REMARK VINA RESULT:    -8.596      1.748      6.061
REMARK INTER + INTRA:         -12.191
REMARK INTER:                 -10.612
REMARK INTRA:                  -1.579
REMARK UNBOUND:                -1.082
REMARK SMILES Cc1cc2c(cc1C)[n+](Cc1ccccc1C)cn2C(c1ccccc1)c1ccccc1
REMARK SMILES IDX 1 1 2 2 3 3 4 4 5 5 6 6 7 7 8 8 9 9 18 10 19 11 20 12 21 13
REMARK SMILES IDX 22 14 26 15 23 16 25 17 24 18 27 19 28 20 32 21 29 22 31 23
REMARK SMILES IDX 30 24 10 25 11 26 12 27 16 28 13 29 15 30 14 31 17 32
REMARK H PARENT
ROOT
ATOM      1  C   UNL     1     -16.459 -42.543  25.313  1.00  0.00     0.045 C 
ATOM      2  C   UNL     1     -17.956 -42.507  25.511  1.00  0.00    -0.044 A 
ATOM      3  C   UNL     1     -18.781 -42.566  24.370  1.00  0.00     0.060 A 
ATOM      4  C   UNL     1     -20.155 -42.533  24.590  1.00  0.00     0.175 A 
ATOM      5  C   UNL     1     -20.703 -42.458  25.875  1.00  0.00     0.174 A 
ATOM      6  C   UNL     1     -19.910 -42.395  27.016  1.00  0.00     0.060 A 
ATOM      7  C   UNL     1     -18.515 -42.419  26.820  1.00  0.00    -0.044 A 
ATOM      8  C   UNL     1     -17.619 -42.357  28.034  1.00  0.00     0.045 C 
ATOM      9  N   UNL     1     -22.084 -42.480  25.712  1.00  0.00    -0.226 N 
ATOM     10  C   UNL     1     -22.377 -42.520  24.402  1.00  0.00     0.406 A 
ATOM     11  N   UNL     1     -21.232 -42.569  23.705  1.00  0.00    -0.218 N 
ENDROOT
BRANCH  11  12
ATOM     12  C   UNL     1     -21.138 -42.651  22.233  1.00  0.00     0.242 C 
BRANCH  12  13
ATOM     13  C   UNL     1     -20.895 -41.262  21.658  1.00  0.00     0.001 A 
ATOM     14  C   UNL     1     -20.586 -41.139  20.289  1.00  0.00     0.008 A 
ATOM     15  C   UNL     1     -20.915 -40.096  22.442  1.00  0.00     0.008 A 
ATOM     16  C   UNL     1     -20.315 -39.893  19.725  1.00  0.00     0.000 A 
ATOM     17  C   UNL     1     -20.643 -38.849  21.873  1.00  0.00     0.000 A 
ATOM     18  C   UNL     1     -20.343 -38.749  20.518  1.00  0.00     0.000 A 
ENDBRANCH  12  13
BRANCH  12  19
ATOM     19  C   UNL     1     -22.326 -43.420  21.669  1.00  0.00     0.001 A 
ATOM     20  C   UNL     1     -22.281 -44.827  21.659  1.00  0.00     0.008 A 
ATOM     21  C   UNL     1     -23.459 -42.788  21.128  1.00  0.00     0.008 A 
ATOM     22  C   UNL     1     -23.340 -45.574  21.141  1.00  0.00     0.000 A 
ATOM     23  C   UNL     1     -24.517 -43.538  20.611  1.00  0.00     0.000 A 
ATOM     24  C   UNL     1     -24.457 -44.929  20.619  1.00  0.00     0.000 A 
ENDBRANCH  12  19
ENDBRANCH  11  12
BRANCH   9  25
ATOM     25  C   UNL     1     -23.094 -42.451  26.773  1.00  0.00     0.279 C 
BRANCH  25  26
ATOM     26  C   UNL     1     -23.729 -41.081  26.832  1.00  0.00    -0.004 A 
ATOM     27  C   UNL     1     -23.038 -40.046  27.490  1.00  0.00     0.008 A 
ATOM     28  C   UNL     1     -24.973 -40.798  26.223  1.00  0.00    -0.044 A 
ATOM     29  C   UNL     1     -23.557 -38.752  27.531  1.00  0.00     0.000 A 
ATOM     30  C   UNL     1     -25.473 -39.487  26.266  1.00  0.00     0.004 A 
ATOM     31  C   UNL     1     -24.771 -38.473  26.915  1.00  0.00     0.000 A 
ATOM     32  C   UNL     1     -25.774 -41.847  25.499  1.00  0.00     0.045 C 
ENDBRANCH  25  26
ENDBRANCH   9  25
TORSDOF 5
ENDMDL
MODEL 9
REMARK VINA RESULT:    -8.531      1.419      2.363
REMARK INTER + INTRA:         -12.107
REMARK INTER:                 -11.264
REMARK INTRA:                  -0.844
REMARK UNBOUND:                -1.082
REMARK SMILES Cc1cc2c(cc1C)[n+](Cc1ccccc1C)cn2C(c1ccccc1)c1ccccc1
REMARK SMILES IDX 1 1 2 2 3 3 4 4 5 5 6 6 7 7 8 8 9 9 18 10 19 11 20 12 21 13
REMARK SMILES IDX 22 14 26 15 23 16 25 17 24 18 27 19 28 20 32 21 29 22 31 23
REMARK SMILES IDX 30 24 10 25 11 26 12 27 16 28 13 29 15 30 14 31 17 32
REMARK H PARENT
ROOT
ATOM      1  C   UNL     1     -15.869 -42.947  26.500  1.00  0.00     0.045 C 
ATOM      2  C   UNL     1     -16.836 -42.542  25.413  1.00  0.00    -0.044 A 
ATOM      3  C   UNL     1     -18.208 -42.480  25.729  1.00  0.00     0.060 A 
ATOM      4  C   UNL     1     -19.069 -42.101  24.705  1.00  0.00     0.175 A 
ATOM      5  C   UNL     1     -18.609 -41.782  23.423  1.00  0.00     0.174 A 
ATOM      6  C   UNL     1     -17.260 -41.837  23.085  1.00  0.00     0.060 A 
ATOM      7  C   UNL     1     -16.368 -42.227  24.104  1.00  0.00    -0.044 A 
ATOM      8  C   UNL     1     -14.895 -42.296  23.778  1.00  0.00     0.045 C 
ATOM      9  N   UNL     1     -19.730 -41.421  22.683  1.00  0.00    -0.226 N 
ATOM     10  C   UNL     1     -20.827 -41.553  23.447  1.00  0.00     0.406 A 
ATOM     11  N   UNL     1     -20.455 -41.946  24.674  1.00  0.00    -0.218 N 
ENDROOT
BRANCH  11  12
ATOM     12  C   UNL     1     -21.375 -42.172  25.807  1.00  0.00     0.242 C 
BRANCH  12  13
ATOM     13  C   UNL     1     -21.997 -43.558  25.692  1.00  0.00     0.001 A 
ATOM     14  C   UNL     1     -21.171 -44.644  25.341  1.00  0.00     0.008 A 
ATOM     15  C   UNL     1     -23.370 -43.797  25.870  1.00  0.00     0.008 A 
ATOM     16  C   UNL     1     -21.700 -45.924  25.182  1.00  0.00     0.000 A 
ATOM     17  C   UNL     1     -23.896 -45.082  25.710  1.00  0.00     0.000 A 
ATOM     18  C   UNL     1     -23.063 -46.142  25.367  1.00  0.00     0.000 A 
ENDBRANCH  12  13
BRANCH  12  19
ATOM     19  C   UNL     1     -22.342 -41.004  25.945  1.00  0.00     0.001 A 
ATOM     20  C   UNL     1     -22.986 -40.516  24.793  1.00  0.00     0.008 A 
ATOM     21  C   UNL     1     -22.600 -40.366  27.172  1.00  0.00     0.008 A 
ATOM     22  C   UNL     1     -23.871 -39.439  24.869  1.00  0.00     0.000 A 
ATOM     23  C   UNL     1     -23.486 -39.288  27.243  1.00  0.00     0.000 A 
ATOM     24  C   UNL     1     -24.121 -38.828  26.093  1.00  0.00     0.000 A 
ENDBRANCH  12  19
ENDBRANCH  11  12
BRANCH   9  25
ATOM     25  C   UNL     1     -19.756 -40.976  21.288  1.00  0.00     0.279 C 
BRANCH  25  26
ATOM     26  C   UNL     1     -20.936 -41.600  20.579  1.00  0.00    -0.004 A 
ATOM     27  C   UNL     1     -20.918 -42.986  20.331  1.00  0.00     0.008 A 
ATOM     28  C   UNL     1     -22.066 -40.847  20.187  1.00  0.00    -0.044 A 
ATOM     29  C   UNL     1     -22.002 -43.619  19.723  1.00  0.00     0.000 A 
ATOM     30  C   UNL     1     -23.152 -41.504  19.587  1.00  0.00     0.004 A 
ATOM     31  C   UNL     1     -23.120 -42.878  19.357  1.00  0.00     0.000 A 
ATOM     32  C   UNL     1     -22.166 -39.362  20.418  1.00  0.00     0.045 C 
ENDBRANCH  25  26
ENDBRANCH   9  25
TORSDOF 5
ENDMDL
