MODEL 1
REMARK VINA RESULT:    -8.537      0.000      0.000
REMARK INTER + INTRA:         -10.252
REMARK INTER:                 -10.034
REMARK INTRA:                  -0.217
REMARK UNBOUND:                -0.217
REMARK SMILES CC(C)n1nc(-c2cc3cc(O)ccc3[nH]2)c2c(N)ncnc21
REMARK SMILES IDX 4 1 23 2 17 3 6 4 5 5 18 6 20 7 21 8 22 9 2 10 1 11 3 12
REMARK SMILES IDX 7 13 8 14 16 15 9 16 15 17 10 18 14 19 11 20 13 21 12 23
REMARK SMILES IDX 19 25
REMARK H PARENT 16 22 12 24 19 26 19 27
ROOT
ATOM      1  N   UNL     1      49.078  -1.699 -49.242  1.00  0.00    -0.244 N 
ATOM      2  C   UNL     1      49.333  -1.026 -50.406  1.00  0.00     0.164 A 
ATOM      3  C   UNL     1      50.573  -0.422 -50.247  1.00  0.00     0.091 A 
ATOM      4  C   UNL     1      50.924  -0.719 -48.904  1.00  0.00     0.122 A 
ATOM      5  N   UNL     1      50.056  -1.562 -48.321  1.00  0.00    -0.168 NA
ATOM      6  C   UNL     1      51.082   0.238 -51.373  1.00  0.00     0.138 A 
ATOM      7  N   UNL     1      50.307   0.334 -52.477  1.00  0.00    -0.219 NA
ATOM      8  C   UNL     1      49.100  -0.258 -52.475  1.00  0.00     0.226 A 
ATOM      9  N   UNL     1      48.542  -0.981 -51.493  1.00  0.00    -0.217 NA
ENDROOT
BRANCH   1  10
ATOM     10  C   UNL     1      47.902  -2.508 -48.949  1.00  0.00     0.103 C 
ATOM     11  C   UNL     1      46.722  -1.638 -48.516  1.00  0.00     0.033 C 
ATOM     12  C   UNL     1      48.210  -3.584 -47.909  1.00  0.00     0.033 C 
ENDBRANCH   1  10
BRANCH   4  13
ATOM     13  C   UNL     1      52.106  -0.203 -48.030  1.00  0.00     0.068 A 
ATOM     14  C   UNL     1      52.329  -0.298 -46.677  1.00  0.00     0.038 A 
ATOM     15  N   UNL     1      53.197   0.414 -48.588  1.00  0.00    -0.353 N 
ATOM     16  C   UNL     1      53.576   0.337 -46.398  1.00  0.00     0.004 A 
ATOM     17  C   UNL     1      54.095   0.782 -47.615  1.00  0.00     0.046 A 
ATOM     18  C   UNL     1      54.318   0.559 -45.219  1.00  0.00     0.056 A 
ATOM     19  C   UNL     1      55.319   1.453 -47.718  1.00  0.00     0.030 A 
ATOM     20  C   UNL     1      55.539   1.230 -45.316  1.00  0.00     0.116 A 
ATOM     21  C   UNL     1      56.033   1.672 -46.538  1.00  0.00     0.048 A 
ATOM     22  H   UNL     1      53.296   0.578 -49.581  1.00  0.00     0.167 HD
BRANCH  20  23
ATOM     23  O   UNL     1      56.296   1.475 -44.206  1.00  0.00    -0.508 OA
ATOM     24  H   UNL     1      56.016   2.322 -43.823  1.00  0.00     0.293 HD
ENDBRANCH  20  23
ENDBRANCH   4  13
BRANCH   6  25
ATOM     25  N   UNL     1      52.358   0.738 -51.498  1.00  0.00    -0.383 N 
ATOM     26  H   UNL     1      52.505   1.730 -51.586  1.00  0.00     0.158 HD
ATOM     27  H   UNL     1      53.089   0.153 -51.115  1.00  0.00     0.158 HD
ENDBRANCH   6  25
TORSDOF 4
ENDMDL
MODEL 2
REMARK VINA RESULT:    -8.535      3.258      7.739
REMARK INTER + INTRA:         -10.249
REMARK INTER:                 -10.043
REMARK INTRA:                  -0.206
REMARK UNBOUND:                -0.217
REMARK SMILES CC(C)n1nc(-c2cc3cc(O)ccc3[nH]2)c2c(N)ncnc21
REMARK SMILES IDX 4 1 23 2 17 3 6 4 5 5 18 6 20 7 21 8 22 9 2 10 1 11 3 12
REMARK SMILES IDX 7 13 8 14 16 15 9 16 15 17 10 18 14 19 11 20 13 21 12 23
REMARK SMILES IDX 19 25
REMARK H PARENT 16 22 12 24 19 26 19 27
ROOT
ATOM      1  N   UNL     1      55.778   1.507 -47.071  1.00  0.00    -0.244 N 
ATOM      2  C   UNL     1      55.149   1.040 -45.950  1.00  0.00     0.164 A 
ATOM      3  C   UNL     1      53.967   0.452 -46.379  1.00  0.00     0.091 A 
ATOM      4  C   UNL     1      53.944   0.716 -47.774  1.00  0.00     0.122 A 
ATOM      5  N   UNL     1      55.082   1.285 -48.206  1.00  0.00    -0.168 NA
ATOM      6  C   UNL     1      53.210  -0.194 -45.393  1.00  0.00     0.138 A 
ATOM      7  N   UNL     1      53.613  -0.111 -44.105  1.00  0.00    -0.219 NA
ATOM      8  C   UNL     1      54.757   0.537 -43.824  1.00  0.00     0.226 A 
ATOM      9  N   UNL     1      55.602   1.121 -44.686  1.00  0.00    -0.217 NA
ENDROOT
BRANCH   1  10
ATOM     10  C   UNL     1      57.070   2.180 -47.122  1.00  0.00     0.103 C 
ATOM     11  C   UNL     1      56.942   3.660 -46.761  1.00  0.00     0.033 C 
ATOM     12  C   UNL     1      57.741   1.997 -48.483  1.00  0.00     0.033 C 
ENDBRANCH   1  10
BRANCH   4  13
ATOM     13  C   UNL     1      52.823   0.483 -48.829  1.00  0.00     0.068 A 
ATOM     14  C   UNL     1      52.717   0.904 -50.133  1.00  0.00     0.038 A 
ATOM     15  N   UNL     1      51.731  -0.303 -48.558  1.00  0.00    -0.353 N 
ATOM     16  C   UNL     1      51.487   0.401 -50.654  1.00  0.00     0.004 A 
ATOM     17  C   UNL     1      50.886  -0.347 -49.640  1.00  0.00     0.046 A 
ATOM     18  C   UNL     1      50.840   0.501 -51.902  1.00  0.00     0.056 A 
ATOM     19  C   UNL     1      49.655  -0.994 -49.802  1.00  0.00     0.030 A 
ATOM     20  C   UNL     1      49.611  -0.142 -52.070  1.00  0.00     0.116 A 
ATOM     21  C   UNL     1      49.025  -0.874 -51.044  1.00  0.00     0.048 A 
ATOM     22  H   UNL     1      51.586  -0.764 -47.670  1.00  0.00     0.167 HD
BRANCH  20  23
ATOM     23  O   UNL     1      48.939  -0.074 -53.257  1.00  0.00    -0.508 OA
ATOM     24  H   UNL     1      48.184  -0.683 -53.218  1.00  0.00     0.293 HD
ENDBRANCH  20  23
ENDBRANCH   4  13
BRANCH   6  25
ATOM     25  N   UNL     1      52.115  -0.995 -45.622  1.00  0.00    -0.383 N 
ATOM     26  H   UNL     1      51.186  -0.610 -45.559  1.00  0.00     0.158 HD
ATOM     27  H   UNL     1      52.286  -1.802 -46.206  1.00  0.00     0.158 HD
ENDBRANCH   6  25
TORSDOF 4
ENDMDL
MODEL 3
REMARK VINA RESULT:    -8.196      3.845      5.977
REMARK INTER + INTRA:          -9.851
REMARK INTER:                  -9.635
REMARK INTRA:                  -0.215
REMARK UNBOUND:                -0.217
REMARK SMILES CC(C)n1nc(-c2cc3cc(O)ccc3[nH]2)c2c(N)ncnc21
REMARK SMILES IDX 4 1 23 2 17 3 6 4 5 5 18 6 20 7 21 8 22 9 2 10 1 11 3 12
REMARK SMILES IDX 7 13 8 14 16 15 9 16 15 17 10 18 14 19 11 20 13 21 12 23
REMARK SMILES IDX 19 25
REMARK H PARENT 16 22 12 24 19 26 19 27
ROOT
ATOM      1  N   UNL     1      52.390  -0.771 -45.110  1.00  0.00    -0.244 N 
ATOM      2  C   UNL     1      52.975  -0.158 -46.184  1.00  0.00     0.164 A 
ATOM      3  C   UNL     1      54.140   0.433 -45.714  1.00  0.00     0.091 A 
ATOM      4  C   UNL     1      54.099   0.193 -44.315  1.00  0.00     0.122 A 
ATOM      5  N   UNL     1      53.080  -0.608 -43.961  1.00  0.00    -0.168 NA
ATOM      6  C   UNL     1      54.958   1.030 -46.681  1.00  0.00     0.138 A 
ATOM      7  N   UNL     1      54.519   1.088 -47.958  1.00  0.00    -0.219 NA
ATOM      8  C   UNL     1      53.342   0.516 -48.266  1.00  0.00     0.226 A 
ATOM      9  N   UNL     1      52.515  -0.151 -47.449  1.00  0.00    -0.217 NA
ENDROOT
BRANCH   1  10
ATOM     10  C   UNL     1      51.156  -1.546 -45.121  1.00  0.00     0.103 C 
ATOM     11  C   UNL     1      49.981  -0.714 -45.636  1.00  0.00     0.033 C 
ATOM     12  C   UNL     1      50.856  -2.137 -43.744  1.00  0.00     0.033 C 
ENDBRANCH   1  10
BRANCH   4  13
ATOM     13  C   UNL     1      55.009   0.730 -43.170  1.00  0.00     0.068 A 
ATOM     14  C   UNL     1      55.854   1.813 -43.130  1.00  0.00     0.038 A 
ATOM     15  N   UNL     1      55.019   0.150 -41.927  1.00  0.00    -0.353 N 
ATOM     16  C   UNL     1      56.442   1.857 -41.830  1.00  0.00     0.004 A 
ATOM     17  C   UNL     1      55.905   0.796 -41.099  1.00  0.00     0.046 A 
ATOM     18  C   UNL     1      57.370   2.714 -41.205  1.00  0.00     0.056 A 
ATOM     19  C   UNL     1      56.258   0.535 -39.769  1.00  0.00     0.030 A 
ATOM     20  C   UNL     1      57.727   2.458 -39.879  1.00  0.00     0.116 A 
ATOM     21  C   UNL     1      57.187   1.391 -39.172  1.00  0.00     0.048 A 
ATOM     22  H   UNL     1      54.453  -0.652 -41.683  1.00  0.00     0.167 HD
BRANCH  20  23
ATOM     23  O   UNL     1      58.625   3.255 -39.227  1.00  0.00    -0.508 OA
ATOM     24  H   UNL     1      59.505   3.104 -39.609  1.00  0.00     0.293 HD
ENDBRANCH  20  23
ENDBRANCH   4  13
BRANCH   6  25
ATOM     25  N   UNL     1      56.233   1.503 -46.469  1.00  0.00    -0.383 N 
ATOM     26  H   UNL     1      57.027   0.967 -46.775  1.00  0.00     0.158 HD
ATOM     27  H   UNL     1      56.309   2.507 -46.375  1.00  0.00     0.158 HD
ENDBRANCH   6  25
TORSDOF 4
ENDMDL
MODEL 4
REMARK VINA RESULT:    -8.008      1.617      3.462
REMARK INTER + INTRA:          -9.630
REMARK INTER:                  -9.775
REMARK INTRA:                   0.145
REMARK UNBOUND:                -0.217
REMARK SMILES CC(C)n1nc(-c2cc3cc(O)ccc3[nH]2)c2c(N)ncnc21
REMARK SMILES IDX 4 1 23 2 17 3 6 4 5 5 18 6 20 7 21 8 22 9 2 10 1 11 3 12
REMARK SMILES IDX 7 13 8 14 16 15 9 16 15 17 10 18 14 19 11 20 13 21 12 23
REMARK SMILES IDX 19 25
REMARK H PARENT 16 22 12 24 19 26 19 27
ROOT
ATOM      1  N   UNL     1      49.232  -1.003 -50.430  1.00  0.00    -0.244 N 
ATOM      2  C   UNL     1      48.821  -1.631 -49.286  1.00  0.00     0.164 A 
ATOM      3  C   UNL     1      49.750  -1.309 -48.306  1.00  0.00     0.091 A 
ATOM      4  C   UNL     1      50.733  -0.560 -49.004  1.00  0.00     0.122 A 
ATOM      5  N   UNL     1      50.378  -0.305 -50.274  1.00  0.00    -0.168 NA
ATOM      6  C   UNL     1      49.460  -1.765 -47.013  1.00  0.00     0.138 A 
ATOM      7  N   UNL     1      48.382  -2.561 -46.831  1.00  0.00    -0.219 NA
ATOM      8  C   UNL     1      47.594  -2.835 -47.884  1.00  0.00     0.226 A 
ATOM      9  N   UNL     1      47.722  -2.394 -49.144  1.00  0.00    -0.217 NA
ENDROOT
BRANCH   1  10
ATOM     10  C   UNL     1      48.557  -1.027 -51.722  1.00  0.00     0.103 C 
ATOM     11  C   UNL     1      48.177  -2.451 -52.125  1.00  0.00     0.033 C 
ATOM     12  C   UNL     1      49.398  -0.349 -52.803  1.00  0.00     0.033 C 
ENDBRANCH   1  10
BRANCH   4  13
ATOM     13  C   UNL     1      52.126  -0.040 -48.540  1.00  0.00     0.068 A 
ATOM     14  C   UNL     1      53.208   0.396 -49.267  1.00  0.00     0.038 A 
ATOM     15  N   UNL     1      52.431   0.113 -47.211  1.00  0.00    -0.353 N 
ATOM     16  C   UNL     1      54.229   0.772 -48.343  1.00  0.00     0.004 A 
ATOM     17  C   UNL     1      53.716   0.577 -47.060  1.00  0.00     0.046 A 
ATOM     18  C   UNL     1      55.537   1.277 -48.484  1.00  0.00     0.056 A 
ATOM     19  C   UNL     1      54.450   0.848 -45.899  1.00  0.00     0.030 A 
ATOM     20  C   UNL     1      56.275   1.549 -47.329  1.00  0.00     0.116 A 
ATOM     21  C   UNL     1      55.748   1.339 -46.061  1.00  0.00     0.048 A 
ATOM     22  H   UNL     1      51.786  -0.108 -46.465  1.00  0.00     0.167 HD
BRANCH  20  23
ATOM     23  O   UNL     1      57.549   2.036 -47.408  1.00  0.00    -0.508 OA
ATOM     24  H   UNL     1      58.026   1.539 -48.092  1.00  0.00     0.293 HD
ENDBRANCH  20  23
ENDBRANCH   4  13
BRANCH   6  25
ATOM     25  N   UNL     1      50.134  -1.407 -45.869  1.00  0.00    -0.383 N 
ATOM     26  H   UNL     1      51.064  -1.754 -45.701  1.00  0.00     0.158 HD
ATOM     27  H   UNL     1      49.840  -0.534 -45.452  1.00  0.00     0.158 HD
ENDBRANCH   6  25
TORSDOF 4
ENDMDL
MODEL 5
REMARK VINA RESULT:    -7.959      4.648      7.404
REMARK INTER + INTRA:          -9.572
REMARK INTER:                  -9.191
REMARK INTRA:                  -0.381
REMARK UNBOUND:                -0.217
REMARK SMILES CC(C)n1nc(-c2cc3cc(O)ccc3[nH]2)c2c(N)ncnc21
REMARK SMILES IDX 4 1 23 2 17 3 6 4 5 5 18 6 20 7 21 8 22 9 2 10 1 11 3 12
REMARK SMILES IDX 7 13 8 14 16 15 9 16 15 17 10 18 14 19 11 20 13 21 12 23
REMARK SMILES IDX 19 25
REMARK H PARENT 16 22 12 24 19 26 19 27
ROOT
ATOM      1  N   UNL     1      51.832  -1.977 -42.418  1.00  0.00    -0.244 N 
ATOM      2  C   UNL     1      52.705  -1.656 -41.415  1.00  0.00     0.164 A 
ATOM      3  C   UNL     1      53.617  -0.762 -41.958  1.00  0.00     0.091 A 
ATOM      4  C   UNL     1      53.251  -0.697 -43.329  1.00  0.00     0.122 A 
ATOM      5  N   UNL     1      52.119  -1.370 -43.590  1.00  0.00    -0.168 NA
ATOM      6  C   UNL     1      54.547  -0.215 -41.064  1.00  0.00     0.138 A 
ATOM      7  N   UNL     1      54.565  -0.665 -39.789  1.00  0.00    -0.219 NA
ATOM      8  C   UNL     1      53.652  -1.575 -39.410  1.00  0.00     0.226 A 
ATOM      9  N   UNL     1      52.668  -2.108 -40.148  1.00  0.00    -0.217 NA
ENDROOT
BRANCH   1  10
ATOM     10  C   UNL     1      50.682  -2.866 -42.314  1.00  0.00     0.103 C 
ATOM     11  C   UNL     1      50.685  -3.913 -43.428  1.00  0.00     0.033 C 
ATOM     12  C   UNL     1      49.371  -2.082 -42.293  1.00  0.00     0.033 C 
ENDBRANCH   1  10
BRANCH   4  13
ATOM     13  C   UNL     1      53.963  -0.013 -44.533  1.00  0.00     0.068 A 
ATOM     14  C   UNL     1      55.032   0.850 -44.571  1.00  0.00     0.038 A 
ATOM     15  N   UNL     1      53.596  -0.274 -45.829  1.00  0.00    -0.353 N 
ATOM     16  C   UNL     1      55.286   1.167 -45.939  1.00  0.00     0.004 A 
ATOM     17  C   UNL     1      54.364   0.454 -46.706  1.00  0.00     0.046 A 
ATOM     18  C   UNL     1      56.228   1.986 -46.595  1.00  0.00     0.056 A 
ATOM     19  C   UNL     1      54.323   0.524 -48.104  1.00  0.00     0.030 A 
ATOM     20  C   UNL     1      56.191   2.061 -47.989  1.00  0.00     0.116 A 
ATOM     21  C   UNL     1      55.259   1.348 -48.733  1.00  0.00     0.048 A 
ATOM     22  H   UNL     1      52.849  -0.909 -46.077  1.00  0.00     0.167 HD
BRANCH  20  23
ATOM     23  O   UNL     1      57.079   2.841 -48.674  1.00  0.00    -0.508 OA
ATOM     24  H   UNL     1      57.804   3.081 -48.075  1.00  0.00     0.293 HD
ENDBRANCH  20  23
ENDBRANCH   4  13
BRANCH   6  25
ATOM     25  N   UNL     1      55.410   0.820 -41.342  1.00  0.00    -0.383 N 
ATOM     26  H   UNL     1      55.833   1.340 -40.591  1.00  0.00     0.158 HD
ATOM     27  H   UNL     1      55.875   0.763 -42.238  1.00  0.00     0.158 HD
ENDBRANCH   6  25
TORSDOF 4
ENDMDL
MODEL 6
REMARK VINA RESULT:    -7.703      3.463      6.395
REMARK INTER + INTRA:          -9.271
REMARK INTER:                  -8.765
REMARK INTRA:                  -0.506
REMARK UNBOUND:                -0.217
REMARK SMILES CC(C)n1nc(-c2cc3cc(O)ccc3[nH]2)c2c(N)ncnc21
REMARK SMILES IDX 4 1 23 2 17 3 6 4 5 5 18 6 20 7 21 8 22 9 2 10 1 11 3 12
REMARK SMILES IDX 7 13 8 14 16 15 9 16 15 17 10 18 14 19 11 20 13 21 12 23
REMARK SMILES IDX 19 25
REMARK H PARENT 16 22 12 24 19 26 19 27
ROOT
ATOM      1  N   UNL     1      55.070   1.218 -47.271  1.00  0.00    -0.244 N 
ATOM      2  C   UNL     1      53.998   0.755 -47.985  1.00  0.00     0.164 A 
ATOM      3  C   UNL     1      53.157   0.134 -47.071  1.00  0.00     0.091 A 
ATOM      4  C   UNL     1      53.878   0.197 -45.850  1.00  0.00     0.122 A 
ATOM      5  N   UNL     1      55.001   0.927 -45.954  1.00  0.00    -0.168 NA
ATOM      6  C   UNL     1      51.933  -0.322 -47.577  1.00  0.00     0.138 A 
ATOM      7  N   UNL     1      51.703  -0.230 -48.906  1.00  0.00    -0.219 NA
ATOM      8  C   UNL     1      52.632   0.352 -49.685  1.00  0.00     0.226 A 
ATOM      9  N   UNL     1      53.798   0.895 -49.308  1.00  0.00    -0.217 NA
ENDROOT
BRANCH   1  10
ATOM     10  C   UNL     1      56.206   1.964 -47.800  1.00  0.00     0.103 C 
ATOM     11  C   UNL     1      57.345   1.028 -48.205  1.00  0.00     0.033 C 
ATOM     12  C   UNL     1      56.684   3.026 -46.811  1.00  0.00     0.033 C 
ENDBRANCH   1  10
BRANCH   4  13
ATOM     13  C   UNL     1      53.585  -0.458 -44.468  1.00  0.00     0.068 A 
ATOM     14  C   UNL     1      52.862  -1.581 -44.143  1.00  0.00     0.038 A 
ATOM     15  N   UNL     1      54.127   0.035 -43.308  1.00  0.00    -0.353 N 
ATOM     16  C   UNL     1      52.922  -1.741 -42.726  1.00  0.00     0.004 A 
ATOM     17  C   UNL     1      53.716  -0.708 -42.227  1.00  0.00     0.046 A 
ATOM     18  C   UNL     1      52.383  -2.682 -41.825  1.00  0.00     0.056 A 
ATOM     19  C   UNL     1      53.994  -0.554 -40.864  1.00  0.00     0.030 A 
ATOM     20  C   UNL     1      52.656  -2.534 -40.463  1.00  0.00     0.116 A 
ATOM     21  C   UNL     1      53.443  -1.492 -39.987  1.00  0.00     0.048 A 
ATOM     22  H   UNL     1      54.732   0.845 -43.278  1.00  0.00     0.167 HD
BRANCH  20  23
ATOM     23  O   UNL     1      52.157  -3.415 -39.547  1.00  0.00    -0.508 OA
ATOM     24  H   UNL     1      52.094  -2.964 -38.689  1.00  0.00     0.293 HD
ENDBRANCH  20  23
ENDBRANCH   4  13
BRANCH   6  25
ATOM     25  N   UNL     1      50.882  -0.792 -46.824  1.00  0.00    -0.383 N 
ATOM     26  H   UNL     1      49.988  -0.330 -46.861  1.00  0.00     0.158 HD
ATOM     27  H   UNL     1      50.931  -1.772 -46.580  1.00  0.00     0.158 HD
ENDBRANCH   6  25
TORSDOF 4
ENDMDL
MODEL 7
REMARK VINA RESULT:    -7.669      3.381      5.326
REMARK INTER + INTRA:          -9.231
REMARK INTER:                  -8.812
REMARK INTRA:                  -0.418
REMARK UNBOUND:                -0.217
REMARK SMILES CC(C)n1nc(-c2cc3cc(O)ccc3[nH]2)c2c(N)ncnc21
REMARK SMILES IDX 4 1 23 2 17 3 6 4 5 5 18 6 20 7 21 8 22 9 2 10 1 11 3 12
REMARK SMILES IDX 7 13 8 14 16 15 9 16 15 17 10 18 14 19 11 20 13 21 12 23
REMARK SMILES IDX 19 25
REMARK H PARENT 16 22 12 24 19 26 19 27
ROOT
ATOM      1  N   UNL     1      48.884  -1.694 -45.087  1.00  0.00    -0.244 N 
ATOM      2  C   UNL     1      49.460  -2.597 -44.236  1.00  0.00     0.164 A 
ATOM      3  C   UNL     1      50.815  -2.294 -44.201  1.00  0.00     0.091 A 
ATOM      4  C   UNL     1      50.953  -1.250 -45.153  1.00  0.00     0.122 A 
ATOM      5  N   UNL     1      49.769  -0.831 -45.630  1.00  0.00    -0.168 NA
ATOM      6  C   UNL     1      51.585  -3.036 -43.296  1.00  0.00     0.138 A 
ATOM      7  N   UNL     1      50.998  -4.045 -42.615  1.00  0.00    -0.219 NA
ATOM      8  C   UNL     1      49.682  -4.261 -42.785  1.00  0.00     0.226 A 
ATOM      9  N   UNL     1      48.829  -3.571 -43.555  1.00  0.00    -0.217 NA
ENDROOT
BRANCH   1  10
ATOM     10  C   UNL     1      47.468  -1.601 -45.422  1.00  0.00     0.103 C 
ATOM     11  C   UNL     1      47.042  -2.733 -46.357  1.00  0.00     0.033 C 
ATOM     12  C   UNL     1      47.123  -0.234 -46.011  1.00  0.00     0.033 C 
ENDBRANCH   1  10
BRANCH   4  13
ATOM     13  C   UNL     1      52.229  -0.568 -45.728  1.00  0.00     0.068 A 
ATOM     14  C   UNL     1      53.398  -0.188 -45.112  1.00  0.00     0.038 A 
ATOM     15  N   UNL     1      52.362  -0.300 -47.067  1.00  0.00    -0.353 N 
ATOM     16  C   UNL     1      54.247   0.383 -46.106  1.00  0.00     0.004 A 
ATOM     17  C   UNL     1      53.568   0.307 -47.323  1.00  0.00     0.046 A 
ATOM     18  C   UNL     1      55.540   0.945 -46.083  1.00  0.00     0.056 A 
ATOM     19  C   UNL     1      54.108   0.776 -48.526  1.00  0.00     0.030 A 
ATOM     20  C   UNL     1      56.085   1.416 -47.279  1.00  0.00     0.116 A 
ATOM     21  C   UNL     1      55.387   1.338 -48.479  1.00  0.00     0.048 A 
ATOM     22  H   UNL     1      51.648  -0.517 -47.750  1.00  0.00     0.167 HD
BRANCH  20  23
ATOM     23  O   UNL     1      57.332   1.972 -47.313  1.00  0.00    -0.508 OA
ATOM     24  H   UNL     1      57.968   1.322 -46.971  1.00  0.00     0.293 HD
ENDBRANCH  20  23
ENDBRANCH   4  13
BRANCH   6  25
ATOM     25  N   UNL     1      52.896  -2.779 -42.964  1.00  0.00    -0.383 N 
ATOM     26  H   UNL     1      53.443  -3.479 -42.492  1.00  0.00     0.158 HD
ATOM     27  H   UNL     1      53.355  -2.080 -43.533  1.00  0.00     0.158 HD
ENDBRANCH   6  25
TORSDOF 4
ENDMDL
MODEL 8
REMARK VINA RESULT:    -7.623      1.831      3.951
REMARK INTER + INTRA:          -9.177
REMARK INTER:                  -8.810
REMARK INTRA:                  -0.367
REMARK UNBOUND:                -0.217
REMARK SMILES CC(C)n1nc(-c2cc3cc(O)ccc3[nH]2)c2c(N)ncnc21
REMARK SMILES IDX 4 1 23 2 17 3 6 4 5 5 18 6 20 7 21 8 22 9 2 10 1 11 3 12
REMARK SMILES IDX 7 13 8 14 16 15 9 16 15 17 10 18 14 19 11 20 13 21 12 23
REMARK SMILES IDX 19 25
REMARK H PARENT 16 22 12 24 19 26 19 27
ROOT
ATOM      1  N   UNL     1      51.598  -0.265 -49.487  1.00  0.00    -0.244 N 
ATOM      2  C   UNL     1      50.567  -0.961 -48.916  1.00  0.00     0.164 A 
ATOM      3  C   UNL     1      50.771  -0.909 -47.543  1.00  0.00     0.091 A 
ATOM      4  C   UNL     1      52.016  -0.239 -47.412  1.00  0.00     0.122 A 
ATOM      5  N   UNL     1      52.476   0.224 -48.586  1.00  0.00    -0.168 NA
ATOM      6  C   UNL     1      49.762  -1.473 -46.752  1.00  0.00     0.138 A 
ATOM      7  N   UNL     1      48.737  -2.111 -47.361  1.00  0.00    -0.219 NA
ATOM      8  C   UNL     1      48.692  -2.128 -48.705  1.00  0.00     0.226 A 
ATOM      9  N   UNL     1      49.550  -1.558 -49.563  1.00  0.00    -0.217 NA
ENDROOT
BRANCH   1  10
ATOM     10  C   UNL     1      51.796  -0.025 -50.911  1.00  0.00     0.103 C 
ATOM     11  C   UNL     1      53.223   0.437 -51.204  1.00  0.00     0.033 C 
ATOM     12  C   UNL     1      50.768   0.966 -51.457  1.00  0.00     0.033 C 
ENDBRANCH   1  10
BRANCH   4  13
ATOM     13  C   UNL     1      52.907   0.000 -46.157  1.00  0.00     0.068 A 
ATOM     14  C   UNL     1      52.913  -0.619 -44.930  1.00  0.00     0.038 A 
ATOM     15  N   UNL     1      53.932   0.913 -46.165  1.00  0.00    -0.353 N 
ATOM     16  C   UNL     1      53.944  -0.019 -44.146  1.00  0.00     0.004 A 
ATOM     17  C   UNL     1      54.561   0.945 -44.945  1.00  0.00     0.046 A 
ATOM     18  C   UNL     1      54.417  -0.221 -42.833  1.00  0.00     0.056 A 
ATOM     19  C   UNL     1      55.627   1.733 -44.495  1.00  0.00     0.030 A 
ATOM     20  C   UNL     1      55.479   0.564 -42.379  1.00  0.00     0.116 A 
ATOM     21  C   UNL     1      56.074   1.524 -43.188  1.00  0.00     0.048 A 
ATOM     22  H   UNL     1      54.162   1.482 -46.969  1.00  0.00     0.167 HD
BRANCH  20  23
ATOM     23  O   UNL     1      55.974   0.412 -41.115  1.00  0.00    -0.508 OA
ATOM     24  H   UNL     1      56.265   1.281 -40.792  1.00  0.00     0.293 HD
ENDBRANCH  20  23
ENDBRANCH   4  13
BRANCH   6  25
ATOM     25  N   UNL     1      49.666  -1.367 -45.383  1.00  0.00    -0.383 N 
ATOM     26  H   UNL     1      49.103  -2.021 -44.865  1.00  0.00     0.158 HD
ATOM     27  H   UNL     1      50.444  -0.905 -44.932  1.00  0.00     0.158 HD
ENDBRANCH   6  25
TORSDOF 4
ENDMDL
MODEL 9
REMARK VINA RESULT:    -7.609      4.239      6.405
REMARK INTER + INTRA:          -9.161
REMARK INTER:                  -8.741
REMARK INTRA:                  -0.420
REMARK UNBOUND:                -0.217
REMARK SMILES CC(C)n1nc(-c2cc3cc(O)ccc3[nH]2)c2c(N)ncnc21
REMARK SMILES IDX 4 1 23 2 17 3 6 4 5 5 18 6 20 7 21 8 22 9 2 10 1 11 3 12
REMARK SMILES IDX 7 13 8 14 16 15 9 16 15 17 10 18 14 19 11 20 13 21 12 23
REMARK SMILES IDX 19 25
REMARK H PARENT 16 22 12 24 19 26 19 27
ROOT
ATOM      1  N   UNL     1      51.802  -3.034 -41.931  1.00  0.00    -0.244 N 
ATOM      2  C   UNL     1      50.610  -2.835 -42.573  1.00  0.00     0.164 A 
ATOM      3  C   UNL     1      50.891  -2.064 -43.694  1.00  0.00     0.091 A 
ATOM      4  C   UNL     1      52.275  -1.774 -43.566  1.00  0.00     0.122 A 
ATOM      5  N   UNL     1      52.844  -2.431 -42.542  1.00  0.00    -0.168 NA
ATOM      6  C   UNL     1      49.816  -1.830 -44.562  1.00  0.00     0.138 A 
ATOM      7  N   UNL     1      48.586  -2.264 -44.207  1.00  0.00    -0.219 NA
ATOM      8  C   UNL     1      48.449  -2.958 -43.063  1.00  0.00     0.226 A 
ATOM      9  N   UNL     1      49.409  -3.311 -42.197  1.00  0.00    -0.217 NA
ENDROOT
BRANCH   1  10
ATOM     10  C   UNL     1      52.011  -3.809 -40.715  1.00  0.00     0.103 C 
ATOM     11  C   UNL     1      52.712  -2.979 -39.640  1.00  0.00     0.033 C 
ATOM     12  C   UNL     1      52.773  -5.103 -41.004  1.00  0.00     0.033 C 
ENDBRANCH   1  10
BRANCH   4  13
ATOM     13  C   UNL     1      53.187  -0.817 -44.389  1.00  0.00     0.068 A 
ATOM     14  C   UNL     1      54.221  -0.003 -43.993  1.00  0.00     0.038 A 
ATOM     15  N   UNL     1      53.083  -0.720 -45.754  1.00  0.00    -0.353 N 
ATOM     16  C   UNL     1      54.726   0.655 -45.155  1.00  0.00     0.004 A 
ATOM     17  C   UNL     1      53.987   0.191 -46.245  1.00  0.00     0.046 A 
ATOM     18  C   UNL     1      55.755   1.591 -45.379  1.00  0.00     0.056 A 
ATOM     19  C   UNL     1      54.213   0.626 -47.556  1.00  0.00     0.030 A 
ATOM     20  C   UNL     1      55.985   2.030 -46.685  1.00  0.00     0.116 A 
ATOM     21  C   UNL     1      55.232   1.562 -47.755  1.00  0.00     0.048 A 
ATOM     22  H   UNL     1      52.414  -1.248 -46.299  1.00  0.00     0.167 HD
BRANCH  20  23
ATOM     23  O   UNL     1      56.968   2.939 -46.958  1.00  0.00    -0.508 OA
ATOM     24  H   UNL     1      56.834   3.275 -47.859  1.00  0.00     0.293 HD
ENDBRANCH  20  23
ENDBRANCH   4  13
BRANCH   6  25
ATOM     25  N   UNL     1      49.907  -1.259 -45.811  1.00  0.00    -0.383 N 
ATOM     26  H   UNL     1      49.071  -1.005 -46.311  1.00  0.00     0.158 HD
ATOM     27  H   UNL     1      50.774  -0.775 -46.000  1.00  0.00     0.158 HD
ENDBRANCH   6  25
TORSDOF 4
ENDMDL
