REMARK VINA RESULT:    -8.997      2.566      4.366
REMARK INTER + INTRA:         -12.139
REMARK INTER:                 -11.623
REMARK INTRA:                  -0.516
REMARK UNBOUND:                -0.776
REMARK SMILES CNC(=O)c1cnc(N)c2c(-c3ccc(NC(=O)Nc4cc(C)ccc4F)cc3)csc12
REMARK SMILES IDX 12 1 13 2 14 3 15 4 28 5 29 6 11 7 5 8 6 9 32 10 7 11 31 12
REMARK SMILES IDX 10 13 8 14 30 15 3 16 2 17 4 18 1 19 9 21 16 24 17 25 18 26
REMARK SMILES IDX 19 27 20 30 21 31 26 32 22 33 25 34 24 35 27 36 23 37
REMARK H PARENT 2 20 9 22 9 23 16 28 19 29
ROOT
ATOM      1  C   UNL     1      15.489   4.811  25.298  1.00  0.00    -0.017 A 
ATOM      2  C   UNL     1      15.756   3.741  26.154  1.00  0.00     0.011 A 
ATOM      3  C   UNL     1      14.709   3.093  26.820  1.00  0.00     0.027 A 
ATOM      4  C   UNL     1      13.388   3.507  26.640  1.00  0.00     0.042 A 
ATOM      5  C   UNL     1      13.128   4.583  25.780  1.00  0.00     0.027 A 
ATOM      6  C   UNL     1      14.172   5.233  25.112  1.00  0.00     0.011 A 
ENDROOT
BRANCH   1   7
ATOM      7  C   UNL     1      16.573   5.473  24.590  1.00  0.00     0.004 A 
ATOM      8  C   UNL     1      19.352   5.544  22.161  1.00  0.00     0.076 A 
ATOM      9  C   UNL     1      19.331   4.236  21.708  1.00  0.00     0.128 A 
ATOM     10  C   UNL     1      18.382   5.872  23.129  1.00  0.00     0.053 A 
ATOM     11  N   UNL     1      18.491   3.281  22.151  1.00  0.00    -0.238 NA
ATOM     12  S   UNL     1      18.076   7.406  23.873  1.00  0.00    -0.142 S 
ATOM     13  C   UNL     1      17.479   4.899  23.608  1.00  0.00     0.043 A 
ATOM     14  C   UNL     1      17.577   3.576  23.095  1.00  0.00     0.132 A 
ATOM     15  C   UNL     1      16.805   6.809  24.818  1.00  0.00     0.075 A 
BRANCH   8  16
ATOM     16  C   UNL     1      20.361   6.454  21.576  1.00  0.00     0.254 C 
ATOM     17  N   UNL     1      20.191   6.852  20.271  1.00  0.00    -0.355 N 
ATOM     18  O   UNL     1      21.288   6.854  22.274  1.00  0.00    -0.269 OA
ATOM     19  C   UNL     1      21.117   7.756  19.637  1.00  0.00     0.143 C 
ATOM     20  H   UNL     1      19.396   6.519  19.739  1.00  0.00     0.163 HD
ENDBRANCH   8  16
BRANCH  14  21
ATOM     21  N   UNL     1      16.790   2.523  23.491  1.00  0.00    -0.383 N 
ATOM     22  H   UNL     1      16.974   2.157  24.413  1.00  0.00     0.158 HD
ATOM     23  H   UNL     1      16.030   2.167  22.937  1.00  0.00     0.158 HD
ENDBRANCH  14  21
ENDBRANCH   1   7
BRANCH   4  24
ATOM     24  N   UNL     1      12.275   2.907  27.268  1.00  0.00    -0.308 N 
ATOM     25  C   UNL     1      11.977   2.878  28.622  1.00  0.00     0.323 C 
ATOM     26  O   UNL     1      12.654   3.395  29.501  1.00  0.00    -0.248 OA
ATOM     27  N   UNL     1      10.801   2.179  28.843  1.00  0.00    -0.305 N 
ATOM     28  H   UNL     1      11.619   2.452  26.656  1.00  0.00     0.171 HD
ATOM     29  H   UNL     1      10.337   1.774  28.043  1.00  0.00     0.171 HD
BRANCH  27  30
ATOM     30  C   UNL     1      10.149   1.938  30.074  1.00  0.00     0.079 A 
ATOM     31  C   UNL     1       9.100   2.705  30.583  1.00  0.00     0.032 A 
ATOM     32  C   UNL     1      10.596   0.841  30.820  1.00  0.00     0.146 A 
ATOM     33  C   UNL     1       8.515   2.386  31.823  1.00  0.00    -0.049 A 
ATOM     34  C   UNL     1      10.023   0.505  32.042  1.00  0.00     0.042 A 
ATOM     35  C   UNL     1       8.976   1.276  32.543  1.00  0.00     0.006 A 
ATOM     36  F   UNL     1      11.604   0.089  30.347  1.00  0.00    -0.205 F 
ATOM     37  C   UNL     1       7.368   3.208  32.337  1.00  0.00     0.044 C 
ENDBRANCH  27  30
ENDBRANCH   4  24
TORSDOF 5
