MODEL 1
REMARK VINA RESULT:    -9.154      0.000      0.000
REMARK INTER + INTRA:         -11.549
REMARK INTER:                 -11.295
REMARK INTRA:                  -0.254
REMARK UNBOUND:                -0.254
REMARK SMILES CCS(=O)(=O)c1cccc(-c2cn(C)c3cnc(NC(C)=O)cc23)n1
REMARK SMILES IDX 6 1 7 2 8 3 9 4 10 5 25 6 3 7 4 8 5 9 2 10 1 11 11 12 12 13
REMARK SMILES IDX 24 14 13 15 23 16 15 17 18 18 16 19 17 20 14 21 19 22 20 23
REMARK SMILES IDX 22 24 21 26
REMARK H PARENT 19 25
ROOT
ATOM      1  C   UNL     1       5.386 -21.594  21.050  1.00  0.00     0.155 A 
ATOM      2  C   UNL     1       6.756 -21.394  20.976  1.00  0.00     0.041 A 
ATOM      3  C   UNL     1       7.568 -22.509  21.133  1.00  0.00     0.005 A 
ATOM      4  C   UNL     1       6.981 -23.757  21.353  1.00  0.00     0.029 A 
ATOM      5  C   UNL     1       5.590 -23.859  21.406  1.00  0.00     0.074 A 
ATOM      6  N   UNL     1       4.778 -22.790  21.245  1.00  0.00    -0.236 NA
ENDROOT
BRANCH   1   7
ATOM      7  S   UNL     1       4.280 -20.216  20.832  1.00  0.00     0.195 S 
ATOM      8  O   UNL     1       2.929 -20.753  20.890  1.00  0.00    -0.222 OA
ATOM      9  O   UNL     1       4.733 -19.491  19.658  1.00  0.00    -0.222 OA
BRANCH   7  10
ATOM     10  C   UNL     1       4.523 -19.195  22.271  1.00  0.00     0.140 C 
ATOM     11  C   UNL     1       3.338 -19.274  23.215  1.00  0.00     0.021 C 
ENDBRANCH   7  10
ENDBRANCH   1   7
BRANCH   5  12
ATOM     12  C   UNL     1       4.924 -25.135  21.641  1.00  0.00     0.026 A 
ATOM     13  C   UNL     1       3.703 -25.481  21.090  1.00  0.00     0.096 A 
ATOM     14  C   UNL     1       5.361 -26.265  22.412  1.00  0.00     0.014 A 
ATOM     15  N   UNL     1       3.388 -26.751  21.495  1.00  0.00    -0.349 N 
ATOM     16  C   UNL     1       6.495 -26.541  23.199  1.00  0.00     0.058 A 
ATOM     17  C   UNL     1       4.381 -27.253  22.305  1.00  0.00     0.067 A 
ATOM     18  C   UNL     1       6.570 -27.784  23.809  1.00  0.00     0.133 A 
ATOM     19  C   UNL     1       4.510 -28.479  22.946  1.00  0.00     0.140 A 
ATOM     20  N   UNL     1       5.609 -28.726  23.693  1.00  0.00    -0.237 NA
ATOM     21  C   UNL     1       2.187 -27.463  21.113  1.00  0.00     0.149 C 
BRANCH  18  22
ATOM     22  N   UNL     1       7.638 -28.198  24.605  1.00  0.00    -0.311 N 
ATOM     23  C   UNL     1       8.588 -27.430  25.233  1.00  0.00     0.222 C 
ATOM     24  O   UNL     1       8.674 -26.207  25.219  1.00  0.00    -0.275 OA
ATOM     25  H   UNL     1       7.673 -29.205  24.693  1.00  0.00     0.171 HD
ATOM     26  C   UNL     1       9.573 -28.268  26.007  1.00  0.00     0.114 C 
ENDBRANCH  18  22
ENDBRANCH   5  12
TORSDOF 4
ENDMDL
MODEL 2
REMARK VINA RESULT:    -9.108      2.012      2.787
REMARK INTER + INTRA:         -11.493
REMARK INTER:                 -11.356
REMARK INTRA:                  -0.137
REMARK UNBOUND:                -0.254
REMARK SMILES CCS(=O)(=O)c1cccc(-c2cn(C)c3cnc(NC(C)=O)cc23)n1
REMARK SMILES IDX 6 1 7 2 8 3 9 4 10 5 25 6 3 7 4 8 5 9 2 10 1 11 11 12 12 13
REMARK SMILES IDX 24 14 13 15 23 16 15 17 18 18 16 19 17 20 14 21 19 22 20 23
REMARK SMILES IDX 22 24 21 26
REMARK H PARENT 19 25
ROOT
ATOM      1  C   UNL     1       6.146 -22.589  21.620  1.00  0.00     0.155 A 
ATOM      2  C   UNL     1       5.457 -21.655  20.863  1.00  0.00     0.041 A 
ATOM      3  C   UNL     1       4.248 -22.055  20.310  1.00  0.00     0.005 A 
ATOM      4  C   UNL     1       3.790 -23.354  20.536  1.00  0.00     0.029 A 
ATOM      5  C   UNL     1       4.553 -24.222  21.318  1.00  0.00     0.074 A 
ATOM      6  N   UNL     1       5.728 -23.853  21.876  1.00  0.00    -0.236 NA
ENDROOT
BRANCH   1   7
ATOM      7  S   UNL     1       7.691 -22.140  22.383  1.00  0.00     0.195 S 
ATOM      8  O   UNL     1       7.828 -22.975  23.567  1.00  0.00    -0.222 OA
ATOM      9  O   UNL     1       7.702 -20.692  22.499  1.00  0.00    -0.222 OA
BRANCH   7  10
ATOM     10  C   UNL     1       8.944 -22.636  21.219  1.00  0.00     0.140 C 
ATOM     11  C   UNL     1       9.872 -21.487  20.876  1.00  0.00     0.021 C 
ENDBRANCH   7  10
ENDBRANCH   1   7
BRANCH   5  12
ATOM     12  C   UNL     1       4.126 -25.593  21.579  1.00  0.00     0.026 A 
ATOM     13  C   UNL     1       2.964 -26.148  21.074  1.00  0.00     0.096 A 
ATOM     14  C   UNL     1       4.778 -26.623  22.336  1.00  0.00     0.014 A 
ATOM     15  N   UNL     1       2.887 -27.450  21.492  1.00  0.00    -0.349 N 
ATOM     16  C   UNL     1       5.970 -26.694  23.082  1.00  0.00     0.058 A 
ATOM     17  C   UNL     1       3.980 -27.767  22.267  1.00  0.00     0.067 A 
ATOM     18  C   UNL     1       6.279 -27.900  23.691  1.00  0.00     0.133 A 
ATOM     19  C   UNL     1       4.342 -28.947  22.906  1.00  0.00     0.140 A 
ATOM     20  N   UNL     1       5.493 -28.994  23.613  1.00  0.00    -0.237 NA
ATOM     21  C   UNL     1       1.815 -28.362  21.156  1.00  0.00     0.149 C 
BRANCH  18  22
ATOM     22  N   UNL     1       7.430 -28.118  24.450  1.00  0.00    -0.311 N 
ATOM     23  C   UNL     1       8.352 -27.200  24.893  1.00  0.00     0.222 C 
ATOM     24  O   UNL     1       8.331 -25.988  24.710  1.00  0.00    -0.275 OA
ATOM     25  H   UNL     1       7.558 -29.096  24.668  1.00  0.00     0.171 HD
ATOM     26  C   UNL     1       9.455 -27.845  25.692  1.00  0.00     0.114 C 
ENDBRANCH  18  22
ENDBRANCH   5  12
TORSDOF 4
ENDMDL
MODEL 3
REMARK VINA RESULT:    -8.711      2.753      5.373
REMARK INTER + INTRA:         -11.002
REMARK INTER:                 -10.370
REMARK INTRA:                  -0.631
REMARK UNBOUND:                -0.254
REMARK SMILES CCS(=O)(=O)c1cccc(-c2cn(C)c3cnc(NC(C)=O)cc23)n1
REMARK SMILES IDX 6 1 7 2 8 3 9 4 10 5 25 6 3 7 4 8 5 9 2 10 1 11 11 12 12 13
REMARK SMILES IDX 24 14 13 15 23 16 15 17 18 18 16 19 17 20 14 21 19 22 20 23
REMARK SMILES IDX 22 24 21 26
REMARK H PARENT 19 25
ROOT
ATOM      1  C   UNL     1       4.409 -25.306  21.421  1.00  0.00     0.155 A 
ATOM      2  C   UNL     1       3.400 -26.255  21.452  1.00  0.00     0.041 A 
ATOM      3  C   UNL     1       3.585 -27.349  22.287  1.00  0.00     0.005 A 
ATOM      4  C   UNL     1       4.755 -27.441  23.043  1.00  0.00     0.029 A 
ATOM      5  C   UNL     1       5.713 -26.430  22.948  1.00  0.00     0.074 A 
ATOM      6  N   UNL     1       5.551 -25.350  22.151  1.00  0.00    -0.236 NA
ENDROOT
BRANCH   1   7
ATOM      7  S   UNL     1       4.231 -23.862  20.393  1.00  0.00     0.195 S 
ATOM      8  O   UNL     1       2.805 -23.595  20.295  1.00  0.00    -0.222 OA
ATOM      9  O   UNL     1       5.020 -24.094  19.196  1.00  0.00    -0.222 OA
BRANCH   7  10
ATOM     10  C   UNL     1       4.971 -22.537  21.325  1.00  0.00     0.140 C 
ATOM     11  C   UNL     1       6.205 -21.991  20.633  1.00  0.00     0.021 C 
ENDBRANCH   7  10
ENDBRANCH   1   7
BRANCH   5  12
ATOM     12  C   UNL     1       6.957 -26.479  23.709  1.00  0.00     0.026 A 
ATOM     13  C   UNL     1       7.363 -27.574  24.451  1.00  0.00     0.096 A 
ATOM     14  C   UNL     1       7.992 -25.493  23.831  1.00  0.00     0.014 A 
ATOM     15  N   UNL     1       8.582 -27.291  25.011  1.00  0.00    -0.349 N 
ATOM     16  C   UNL     1       8.177 -24.192  23.328  1.00  0.00     0.058 A 
ATOM     17  C   UNL     1       8.988 -26.027  24.651  1.00  0.00     0.067 A 
ATOM     18  C   UNL     1       9.345 -23.527  23.671  1.00  0.00     0.133 A 
ATOM     19  C   UNL     1      10.135 -25.307  24.965  1.00  0.00     0.140 A 
ATOM     20  N   UNL     1      10.295 -24.061  24.467  1.00  0.00    -0.237 NA
ATOM     21  C   UNL     1       9.334 -28.199  25.849  1.00  0.00     0.149 C 
BRANCH  18  22
ATOM     22  N   UNL     1       9.666 -22.241  23.237  1.00  0.00    -0.311 N 
ATOM     23  C   UNL     1       9.788 -21.775  21.950  1.00  0.00     0.222 C 
ATOM     24  O   UNL     1       9.625 -22.415  20.916  1.00  0.00    -0.275 OA
ATOM     25  H   UNL     1       9.826 -21.611  24.011  1.00  0.00     0.171 HD
ATOM     26  C   UNL     1      10.146 -20.312  21.908  1.00  0.00     0.114 C 
ENDBRANCH  18  22
ENDBRANCH   5  12
TORSDOF 4
ENDMDL
MODEL 4
REMARK VINA RESULT:    -8.589      3.007      8.007
REMARK INTER + INTRA:         -10.852
REMARK INTER:                 -10.440
REMARK INTRA:                  -0.412
REMARK UNBOUND:                -0.254
REMARK SMILES CCS(=O)(=O)c1cccc(-c2cn(C)c3cnc(NC(C)=O)cc23)n1
REMARK SMILES IDX 6 1 7 2 8 3 9 4 10 5 25 6 3 7 4 8 5 9 2 10 1 11 11 12 12 13
REMARK SMILES IDX 24 14 13 15 23 16 15 17 18 18 16 19 17 20 14 21 19 22 20 23
REMARK SMILES IDX 22 24 21 26
REMARK H PARENT 19 25
ROOT
ATOM      1  C   UNL     1       4.127 -27.181  22.087  1.00  0.00     0.155 A 
ATOM      2  C   UNL     1       2.789 -27.113  21.732  1.00  0.00     0.041 A 
ATOM      3  C   UNL     1       2.343 -25.924  21.171  1.00  0.00     0.005 A 
ATOM      4  C   UNL     1       3.242 -24.872  20.994  1.00  0.00     0.029 A 
ATOM      5  C   UNL     1       4.574 -25.038  21.378  1.00  0.00     0.074 A 
ATOM      6  N   UNL     1       5.035 -26.190  21.916  1.00  0.00    -0.236 NA
ENDROOT
BRANCH   1   7
ATOM      7  S   UNL     1       4.779 -28.684  22.787  1.00  0.00     0.195 S 
ATOM      8  O   UNL     1       4.427 -29.757  21.870  1.00  0.00    -0.222 OA
ATOM      9  O   UNL     1       4.345 -28.728  24.172  1.00  0.00    -0.222 OA
BRANCH   7  10
ATOM     10  C   UNL     1       6.548 -28.485  22.742  1.00  0.00     0.140 C 
ATOM     11  C   UNL     1       7.075 -27.892  24.034  1.00  0.00     0.021 C 
ENDBRANCH   7  10
ENDBRANCH   1   7
BRANCH   5  12
ATOM     12  C   UNL     1       5.555 -23.969  21.223  1.00  0.00     0.026 A 
ATOM     13  C   UNL     1       6.904 -24.116  21.494  1.00  0.00     0.096 A 
ATOM     14  C   UNL     1       5.374 -22.625  20.755  1.00  0.00     0.014 A 
ATOM     15  N   UNL     1       7.534 -22.931  21.216  1.00  0.00    -0.349 N 
ATOM     16  C   UNL     1       4.265 -21.871  20.327  1.00  0.00     0.058 A 
ATOM     17  C   UNL     1       6.624 -22.002  20.766  1.00  0.00     0.067 A 
ATOM     18  C   UNL     1       4.488 -20.560  19.934  1.00  0.00     0.133 A 
ATOM     19  C   UNL     1       6.783 -20.681  20.365  1.00  0.00     0.140 A 
ATOM     20  N   UNL     1       5.705 -19.977  19.954  1.00  0.00    -0.237 NA
ATOM     21  C   UNL     1       8.954 -22.699  21.365  1.00  0.00     0.149 C 
BRANCH  18  22
ATOM     22  N   UNL     1       3.487 -19.702  19.478  1.00  0.00    -0.311 N 
ATOM     23  C   UNL     1       2.858 -18.683  20.151  1.00  0.00     0.222 C 
ATOM     24  O   UNL     1       3.068 -18.321  21.304  1.00  0.00    -0.275 OA
ATOM     25  H   UNL     1       3.223 -19.906  18.524  1.00  0.00     0.171 HD
ATOM     26  C   UNL     1       1.830 -17.989  19.296  1.00  0.00     0.114 C 
ENDBRANCH  18  22
ENDBRANCH   5  12
TORSDOF 4
ENDMDL
MODEL 5
REMARK VINA RESULT:    -8.492      2.180      3.227
REMARK INTER + INTRA:         -10.732
REMARK INTER:                 -10.247
REMARK INTRA:                  -0.485
REMARK UNBOUND:                -0.254
REMARK SMILES CCS(=O)(=O)c1cccc(-c2cn(C)c3cnc(NC(C)=O)cc23)n1
REMARK SMILES IDX 6 1 7 2 8 3 9 4 10 5 25 6 3 7 4 8 5 9 2 10 1 11 11 12 12 13
REMARK SMILES IDX 24 14 13 15 23 16 15 17 18 18 16 19 17 20 14 21 19 22 20 23
REMARK SMILES IDX 22 24 21 26
REMARK H PARENT 19 25
ROOT
ATOM      1  C   UNL     1       5.869 -22.022  21.483  1.00  0.00     0.155 A 
ATOM      2  C   UNL     1       4.800 -21.799  20.630  1.00  0.00     0.041 A 
ATOM      3  C   UNL     1       3.957 -22.873  20.379  1.00  0.00     0.005 A 
ATOM      4  C   UNL     1       4.218 -24.103  20.984  1.00  0.00     0.029 A 
ATOM      5  C   UNL     1       5.318 -24.228  21.834  1.00  0.00     0.074 A 
ATOM      6  N   UNL     1       6.148 -23.195  22.103  1.00  0.00    -0.236 NA
ENDROOT
BRANCH   1   7
ATOM      7  S   UNL     1       6.980 -20.685  21.873  1.00  0.00     0.195 S 
ATOM      8  O   UNL     1       6.340 -19.906  22.922  1.00  0.00    -0.222 OA
ATOM      9  O   UNL     1       7.350 -20.061  20.615  1.00  0.00    -0.222 OA
BRANCH   7  10
ATOM     10  C   UNL     1       8.417 -21.467  22.575  1.00  0.00     0.140 C 
ATOM     11  C   UNL     1       9.578 -21.478  21.600  1.00  0.00     0.021 C 
ENDBRANCH   7  10
ENDBRANCH   1   7
BRANCH   5  12
ATOM     12  C   UNL     1       5.643 -25.492  22.486  1.00  0.00     0.026 A 
ATOM     13  C   UNL     1       4.928 -26.662  22.299  1.00  0.00     0.096 A 
ATOM     14  C   UNL     1       6.720 -25.808  23.381  1.00  0.00     0.014 A 
ATOM     15  N   UNL     1       5.518 -27.654  23.037  1.00  0.00    -0.349 N 
ATOM     16  C   UNL     1       7.775 -25.071  23.951  1.00  0.00     0.058 A 
ATOM     17  C   UNL     1       6.612 -27.160  23.710  1.00  0.00     0.067 A 
ATOM     18  C   UNL     1       8.648 -25.741  24.795  1.00  0.00     0.133 A 
ATOM     19  C   UNL     1       7.516 -27.775  24.568  1.00  0.00     0.140 A 
ATOM     20  N   UNL     1       8.525 -27.050  25.101  1.00  0.00    -0.237 NA
ATOM     21  C   UNL     1       5.059 -29.025  23.090  1.00  0.00     0.149 C 
BRANCH  18  22
ATOM     22  N   UNL     1       9.742 -25.142  25.419  1.00  0.00    -0.311 N 
ATOM     23  C   UNL     1      11.080 -25.391  25.230  1.00  0.00     0.222 C 
ATOM     24  O   UNL     1      11.576 -26.199  24.453  1.00  0.00    -0.275 OA
ATOM     25  H   UNL     1       9.456 -24.446  26.094  1.00  0.00     0.171 HD
ATOM     26  C   UNL     1      11.948 -24.521  26.102  1.00  0.00     0.114 C 
ENDBRANCH  18  22
ENDBRANCH   5  12
TORSDOF 4
ENDMDL
MODEL 6
REMARK VINA RESULT:    -8.370      3.182      7.537
REMARK INTER + INTRA:         -10.581
REMARK INTER:                 -10.044
REMARK INTRA:                  -0.537
REMARK UNBOUND:                -0.254
REMARK SMILES CCS(=O)(=O)c1cccc(-c2cn(C)c3cnc(NC(C)=O)cc23)n1
REMARK SMILES IDX 6 1 7 2 8 3 9 4 10 5 25 6 3 7 4 8 5 9 2 10 1 11 11 12 12 13
REMARK SMILES IDX 24 14 13 15 23 16 15 17 18 18 16 19 17 20 14 21 19 22 20 23
REMARK SMILES IDX 22 24 21 26
REMARK H PARENT 19 25
ROOT
ATOM      1  C   UNL     1      10.086 -26.469  25.952  1.00  0.00     0.155 A 
ATOM      2  C   UNL     1      10.829 -25.366  25.564  1.00  0.00     0.041 A 
ATOM      3  C   UNL     1      10.347 -24.621  24.496  1.00  0.00     0.005 A 
ATOM      4  C   UNL     1       9.160 -25.009  23.873  1.00  0.00     0.029 A 
ATOM      5  C   UNL     1       8.478 -26.134  24.340  1.00  0.00     0.074 A 
ATOM      6  N   UNL     1       8.921 -26.869  25.385  1.00  0.00    -0.236 NA
ENDROOT
BRANCH   1   7
ATOM      7  S   UNL     1      10.627 -27.458  27.332  1.00  0.00     0.195 S 
ATOM      8  O   UNL     1       9.719 -28.590  27.413  1.00  0.00    -0.222 OA
ATOM      9  O   UNL     1      10.785 -26.558  28.461  1.00  0.00    -0.222 OA
BRANCH   7  10
ATOM     10  C   UNL     1      12.228 -28.076  26.857  1.00  0.00     0.140 C 
ATOM     11  C   UNL     1      13.346 -27.239  27.449  1.00  0.00     0.021 C 
ENDBRANCH   7  10
ENDBRANCH   1   7
BRANCH   5  12
ATOM     12  C   UNL     1       7.238 -26.589  23.722  1.00  0.00     0.026 A 
ATOM     13  C   UNL     1       6.770 -27.889  23.798  1.00  0.00     0.096 A 
ATOM     14  C   UNL     1       6.264 -25.846  22.974  1.00  0.00     0.014 A 
ATOM     15  N   UNL     1       5.574 -27.960  23.133  1.00  0.00    -0.349 N 
ATOM     16  C   UNL     1       6.154 -24.506  22.558  1.00  0.00     0.058 A 
ATOM     17  C   UNL     1       5.242 -26.728  22.618  1.00  0.00     0.067 A 
ATOM     18  C   UNL     1       5.031 -24.146  21.830  1.00  0.00     0.133 A 
ATOM     19  C   UNL     1       4.142 -26.308  21.880  1.00  0.00     0.140 A 
ATOM     20  N   UNL     1       4.054 -25.015  21.495  1.00  0.00    -0.237 NA
ATOM     21  C   UNL     1       4.773 -29.158  23.005  1.00  0.00     0.149 C 
BRANCH  18  22
ATOM     22  N   UNL     1       4.785 -22.854  21.363  1.00  0.00    -0.311 N 
ATOM     23  C   UNL     1       4.919 -22.362  20.087  1.00  0.00     0.222 C 
ATOM     24  O   UNL     1       5.280 -22.982  19.093  1.00  0.00    -0.275 OA
ATOM     25  H   UNL     1       4.477 -22.239  22.104  1.00  0.00     0.171 HD
ATOM     26  C   UNL     1       4.546 -20.905  19.999  1.00  0.00     0.114 C 
ENDBRANCH  18  22
ENDBRANCH   5  12
TORSDOF 4
ENDMDL
MODEL 7
REMARK VINA RESULT:    -8.274      2.791      5.149
REMARK INTER + INTRA:         -10.463
REMARK INTER:                  -9.695
REMARK INTRA:                  -0.768
REMARK UNBOUND:                -0.254
REMARK SMILES CCS(=O)(=O)c1cccc(-c2cn(C)c3cnc(NC(C)=O)cc23)n1
REMARK SMILES IDX 6 1 7 2 8 3 9 4 10 5 25 6 3 7 4 8 5 9 2 10 1 11 11 12 12 13
REMARK SMILES IDX 24 14 13 15 23 16 15 17 18 18 16 19 17 20 14 21 19 22 20 23
REMARK SMILES IDX 22 24 21 26
REMARK H PARENT 19 25
ROOT
ATOM      1  C   UNL     1       3.542 -18.786  20.677  1.00  0.00     0.155 A 
ATOM      2  C   UNL     1       2.816 -18.624  21.847  1.00  0.00     0.041 A 
ATOM      3  C   UNL     1       3.312 -19.235  22.990  1.00  0.00     0.005 A 
ATOM      4  C   UNL     1       4.496 -19.971  22.913  1.00  0.00     0.029 A 
ATOM      5  C   UNL     1       5.159 -20.072  21.689  1.00  0.00     0.074 A 
ATOM      6  N   UNL     1       4.702 -19.477  20.564  1.00  0.00    -0.236 NA
ENDROOT
BRANCH   1   7
ATOM      7  S   UNL     1       2.982 -18.008  19.176  1.00  0.00     0.195 S 
ATOM      8  O   UNL     1       1.544 -18.219  19.110  1.00  0.00    -0.222 OA
ATOM      9  O   UNL     1       3.844 -18.482  18.107  1.00  0.00    -0.222 OA
BRANCH   7  10
ATOM     10  C   UNL     1       3.267 -16.268  19.421  1.00  0.00     0.140 C 
ATOM     11  C   UNL     1       4.740 -15.968  19.619  1.00  0.00     0.021 C 
ENDBRANCH   7  10
ENDBRANCH   1   7
BRANCH   5  12
ATOM     12  C   UNL     1       6.395 -20.835  21.549  1.00  0.00     0.026 A 
ATOM     13  C   UNL     1       7.602 -20.281  21.159  1.00  0.00     0.096 A 
ATOM     14  C   UNL     1       6.643 -22.226  21.798  1.00  0.00     0.014 A 
ATOM     15  N   UNL     1       8.552 -21.269  21.158  1.00  0.00    -0.349 N 
ATOM     16  C   UNL     1       5.846 -23.310  22.211  1.00  0.00     0.058 A 
ATOM     17  C   UNL     1       7.994 -22.467  21.542  1.00  0.00     0.067 A 
ATOM     18  C   UNL     1       6.458 -24.547  22.347  1.00  0.00     0.133 A 
ATOM     19  C   UNL     1       8.549 -23.732  21.690  1.00  0.00     0.140 A 
ATOM     20  N   UNL     1       7.767 -24.758  22.093  1.00  0.00    -0.237 NA
ATOM     21  C   UNL     1       9.944 -21.072  20.815  1.00  0.00     0.149 C 
BRANCH  18  22
ATOM     22  N   UNL     1       5.795 -25.704  22.758  1.00  0.00    -0.311 N 
ATOM     23  C   UNL     1       4.729 -26.338  22.167  1.00  0.00     0.222 C 
ATOM     24  O   UNL     1       4.151 -26.004  21.139  1.00  0.00    -0.275 OA
ATOM     25  H   UNL     1       6.188 -26.079  23.611  1.00  0.00     0.171 HD
ATOM     26  C   UNL     1       4.310 -27.569  22.928  1.00  0.00     0.114 C 
ENDBRANCH  18  22
ENDBRANCH   5  12
TORSDOF 4
ENDMDL
MODEL 8
REMARK VINA RESULT:    -8.132      1.615      1.892
REMARK INTER + INTRA:         -10.287
REMARK INTER:                  -9.963
REMARK INTRA:                  -0.324
REMARK UNBOUND:                -0.254
REMARK SMILES CCS(=O)(=O)c1cccc(-c2cn(C)c3cnc(NC(C)=O)cc23)n1
REMARK SMILES IDX 6 1 7 2 8 3 9 4 10 5 25 6 3 7 4 8 5 9 2 10 1 11 11 12 12 13
REMARK SMILES IDX 24 14 13 15 23 16 15 17 18 18 16 19 17 20 14 21 19 22 20 23
REMARK SMILES IDX 22 24 21 26
REMARK H PARENT 19 25
ROOT
ATOM      1  C   UNL     1       5.281 -20.334  20.811  1.00  0.00     0.155 A 
ATOM      2  C   UNL     1       6.632 -20.115  20.596  1.00  0.00     0.041 A 
ATOM      3  C   UNL     1       7.465 -21.225  20.617  1.00  0.00     0.005 A 
ATOM      4  C   UNL     1       6.915 -22.487  20.849  1.00  0.00     0.029 A 
ATOM      5  C   UNL     1       5.539 -22.608  21.049  1.00  0.00     0.074 A 
ATOM      6  N   UNL     1       4.706 -21.544  21.023  1.00  0.00    -0.236 NA
ENDROOT
BRANCH   1   7
ATOM      7  S   UNL     1       4.146 -18.961  20.772  1.00  0.00     0.195 S 
ATOM      8  O   UNL     1       4.373 -18.200  21.991  1.00  0.00    -0.222 OA
ATOM      9  O   UNL     1       2.833 -19.506  20.478  1.00  0.00    -0.222 OA
BRANCH   7  10
ATOM     10  C   UNL     1       4.679 -17.960  19.399  1.00  0.00     0.140 C 
ATOM     11  C   UNL     1       4.075 -18.440  18.093  1.00  0.00     0.021 C 
ENDBRANCH   7  10
ENDBRANCH   1   7
BRANCH   5  12
ATOM     12  C   UNL     1       4.913 -23.901  21.304  1.00  0.00     0.026 A 
ATOM     13  C   UNL     1       3.736 -24.318  20.707  1.00  0.00     0.096 A 
ATOM     14  C   UNL     1       5.353 -24.980  22.142  1.00  0.00     0.014 A 
ATOM     15  N   UNL     1       3.451 -25.584  21.148  1.00  0.00    -0.349 N 
ATOM     16  C   UNL     1       6.455 -25.178  22.995  1.00  0.00     0.058 A 
ATOM     17  C   UNL     1       4.420 -26.012  22.026  1.00  0.00     0.067 A 
ATOM     18  C   UNL     1       6.546 -26.392  23.659  1.00  0.00     0.133 A 
ATOM     19  C   UNL     1       4.564 -27.205  22.724  1.00  0.00     0.140 A 
ATOM     20  N   UNL     1       5.631 -27.376  23.535  1.00  0.00    -0.237 NA
ATOM     21  C   UNL     1       2.301 -26.360  20.736  1.00  0.00     0.149 C 
BRANCH  18  22
ATOM     22  N   UNL     1       7.587 -26.730  24.525  1.00  0.00    -0.311 N 
ATOM     23  C   UNL     1       8.795 -26.099  24.702  1.00  0.00     0.222 C 
ATOM     24  O   UNL     1       9.193 -25.093  24.125  1.00  0.00    -0.275 OA
ATOM     25  H   UNL     1       7.374 -27.557  25.065  1.00  0.00     0.171 HD
ATOM     26  C   UNL     1       9.643 -26.782  25.744  1.00  0.00     0.114 C 
ENDBRANCH  18  22
ENDBRANCH   5  12
TORSDOF 4
ENDMDL
MODEL 9
REMARK VINA RESULT:    -8.084      3.502      7.195
REMARK INTER + INTRA:         -10.229
REMARK INTER:                  -9.674
REMARK INTRA:                  -0.555
REMARK UNBOUND:                -0.254
REMARK SMILES CCS(=O)(=O)c1cccc(-c2cn(C)c3cnc(NC(C)=O)cc23)n1
REMARK SMILES IDX 6 1 7 2 8 3 9 4 10 5 25 6 3 7 4 8 5 9 2 10 1 11 11 12 12 13
REMARK SMILES IDX 24 14 13 15 23 16 15 17 18 18 16 19 17 20 14 21 19 22 20 23
REMARK SMILES IDX 22 24 21 26
REMARK H PARENT 19 25
ROOT
ATOM      1  C   UNL     1       9.723 -26.556  25.627  1.00  0.00     0.155 A 
ATOM      2  C   UNL     1       9.633 -27.857  26.095  1.00  0.00     0.041 A 
ATOM      3  C   UNL     1       8.582 -28.630  25.620  1.00  0.00     0.005 A 
ATOM      4  C   UNL     1       7.682 -28.074  24.709  1.00  0.00     0.029 A 
ATOM      5  C   UNL     1       7.860 -26.754  24.292  1.00  0.00     0.074 A 
ATOM      6  N   UNL     1       8.881 -25.985  24.732  1.00  0.00    -0.236 NA
ENDROOT
BRANCH   1   7
ATOM      7  S   UNL     1      11.060 -25.513  26.172  1.00  0.00     0.195 S 
ATOM      8  O   UNL     1      10.852 -25.278  27.592  1.00  0.00    -0.222 OA
ATOM      9  O   UNL     1      11.131 -24.397  25.245  1.00  0.00    -0.222 OA
BRANCH   7  10
ATOM     10  C   UNL     1      12.526 -26.508  25.993  1.00  0.00     0.140 C 
ATOM     11  C   UNL     1      13.698 -25.914  26.751  1.00  0.00     0.021 C 
ENDBRANCH   7  10
ENDBRANCH   1   7
BRANCH   5  12
ATOM     12  C   UNL     1       6.945 -26.119  23.349  1.00  0.00     0.026 A 
ATOM     13  C   UNL     1       5.623 -26.494  23.187  1.00  0.00     0.096 A 
ATOM     14  C   UNL     1       7.171 -25.017  22.458  1.00  0.00     0.014 A 
ATOM     15  N   UNL     1       5.052 -25.677  22.246  1.00  0.00    -0.349 N 
ATOM     16  C   UNL     1       8.282 -24.207  22.155  1.00  0.00     0.058 A 
ATOM     17  C   UNL     1       5.975 -24.768  21.782  1.00  0.00     0.067 A 
ATOM     18  C   UNL     1       8.113 -23.206  21.210  1.00  0.00     0.133 A 
ATOM     19  C   UNL     1       5.869 -23.752  20.840  1.00  0.00     0.140 A 
ATOM     20  N   UNL     1       6.947 -22.983  20.567  1.00  0.00    -0.237 NA
ATOM     21  C   UNL     1       3.674 -25.756  21.814  1.00  0.00     0.149 C 
BRANCH  18  22
ATOM     22  N   UNL     1       9.121 -22.324  20.820  1.00  0.00    -0.311 N 
ATOM     23  C   UNL     1       9.660 -21.274  21.523  1.00  0.00     0.222 C 
ATOM     24  O   UNL     1       9.357 -20.911  22.654  1.00  0.00    -0.275 OA
ATOM     25  H   UNL     1       9.457 -22.525  19.889  1.00  0.00     0.171 HD
ATOM     26  C   UNL     1      10.739 -20.566  20.744  1.00  0.00     0.114 C 
ENDBRANCH  18  22
ENDBRANCH   5  12
TORSDOF 4
ENDMDL
