MODEL 7
REMARK VINA RESULT:    -8.375      3.707      9.321
REMARK INTER + INTRA:         -16.406
REMARK INTER:                 -13.619
REMARK INTRA:                  -2.788
REMARK UNBOUND:                -2.157
REMARK SMILES COC(=O)[C@H](Cc1cccc(C(=N)N)c1)[C@H](/C=C/c1ccccc1)NC(=O)c1ccc(-c2ccccc2OC)cc1
REMARK SMILES IDX 16 1 5 2 3 3 4 4 2 5 1 6 6 7 7 8 8 9 15 10 9 11 11 12 10 13
REMARK SMILES IDX 12 14 13 15 14 16 17 20 18 21 19 22 20 23 24 24 21 25 23 26
REMARK SMILES IDX 22 27 25 28 26 29 27 30 28 32 29 33 41 34 30 35 40 36 31 37
REMARK SMILES IDX 32 38 33 39 37 40 34 41 36 42 35 43 38 44 39 45
REMARK H PARENT 13 17 14 18 14 19 25 31
ROOT
ATOM      1  C   UNL     1     133.510 -18.168 166.466  1.00  0.00     0.120 C 
ENDROOT
BRANCH   1   2
ATOM      2  C   UNL     1     133.720 -16.661 166.193  1.00  0.00     0.130 C 
BRANCH   2   3
ATOM      3  C   UNL     1     134.589 -16.088 167.300  1.00  0.00     0.311 C 
ATOM      4  O   UNL     1     134.410 -16.348 168.488  1.00  0.00    -0.252 OA
BRANCH   3   5
ATOM      5  O   UNL     1     135.505 -15.192 166.844  1.00  0.00    -0.469 OA
ATOM      6  C   UNL     1     136.564 -15.768 166.080  1.00  0.00     0.282 C 
ENDBRANCH   3   5
ENDBRANCH   2   3
BRANCH   2   7
ATOM      7  C   UNL     1     132.381 -15.926 165.986  1.00  0.00     0.053 C 
BRANCH   7   8
ATOM      8  C   UNL     1     132.159 -15.457 164.565  1.00  0.00    -0.046 A 
ATOM      9  C   UNL     1     133.188 -15.532 163.619  1.00  0.00     0.004 A 
ATOM     10  C   UNL     1     130.916 -14.937 164.175  1.00  0.00     0.015 A 
ATOM     11  C   UNL     1     132.979 -15.108 162.306  1.00  0.00     0.001 A 
ATOM     12  C   UNL     1     130.704 -14.498 162.860  1.00  0.00     0.016 A 
ATOM     13  C   UNL     1     131.739 -14.595 161.923  1.00  0.00     0.012 A 
BRANCH  12  14
ATOM     14  C   UNL     1     129.374 -13.937 162.474  1.00  0.00     0.122 C 
ATOM     15  N   UNL     1     129.135 -13.669 161.233  1.00  0.00    -0.284 NA
ATOM     16  N   UNL     1     128.408 -13.719 163.416  1.00  0.00    -0.384 N 
ATOM     17  H   UNL     1     128.203 -13.264 161.136  1.00  0.00     0.189 HD
ATOM     18  H   UNL     1     128.452 -14.321 164.232  1.00  0.00     0.158 HD
ATOM     19  H   UNL     1     127.462 -13.655 163.059  1.00  0.00     0.158 HD
ENDBRANCH  12  14
ENDBRANCH   7   8
ENDBRANCH   2   7
ENDBRANCH   1   2
BRANCH   1  20
ATOM     20  C   UNL     1     134.694 -19.037 166.094  1.00  0.00    -0.001 C 
ATOM     21  C   UNL     1     134.813 -19.865 165.042  1.00  0.00     0.006 C 
BRANCH  21  22
ATOM     22  C   UNL     1     136.021 -20.651 164.762  1.00  0.00    -0.026 A 
ATOM     23  C   UNL     1     136.461 -20.769 163.438  1.00  0.00     0.008 A 
ATOM     24  C   UNL     1     136.719 -21.327 165.770  1.00  0.00     0.008 A 
ATOM     25  C   UNL     1     137.594 -21.528 163.131  1.00  0.00     0.001 A 
ATOM     26  C   UNL     1     137.850 -22.086 165.463  1.00  0.00     0.001 A 
ATOM     27  C   UNL     1     138.289 -22.184 164.144  1.00  0.00     0.000 A 
ENDBRANCH  21  22
ENDBRANCH   1  20
BRANCH   1  28
ATOM     28  N   UNL     1     132.307 -18.646 165.803  1.00  0.00    -0.345 N 
ATOM     29  C   UNL     1     131.154 -18.942 166.497  1.00  0.00     0.251 C 
ATOM     30  O   UNL     1     131.094 -19.009 167.719  1.00  0.00    -0.269 OA
ATOM     31  H   UNL     1     132.261 -18.540 164.798  1.00  0.00     0.164 HD
BRANCH  29  32
ATOM     32  C   UNL     1     129.946 -19.214 165.671  1.00  0.00     0.039 A 
ATOM     33  C   UNL     1     128.905 -20.030 166.125  1.00  0.00     0.014 A 
ATOM     34  C   UNL     1     129.877 -18.652 164.392  1.00  0.00     0.014 A 
ATOM     35  C   UNL     1     127.788 -20.253 165.314  1.00  0.00     0.010 A 
ATOM     36  C   UNL     1     128.757 -18.878 163.586  1.00  0.00     0.010 A 
ATOM     37  C   UNL     1     127.695 -19.679 164.034  1.00  0.00    -0.015 A 
BRANCH  37  38
ATOM     38  C   UNL     1     126.507 -19.907 163.190  1.00  0.00     0.024 A 
ATOM     39  C   UNL     1     126.424 -21.094 162.438  1.00  0.00     0.012 A 
ATOM     40  C   UNL     1     125.445 -18.977 163.111  1.00  0.00     0.126 A 
ATOM     41  C   UNL     1     125.318 -21.359 161.629  1.00  0.00     0.001 A 
ATOM     42  C   UNL     1     124.341 -19.253 162.295  1.00  0.00     0.047 A 
ATOM     43  C   UNL     1     124.279 -20.439 161.559  1.00  0.00     0.004 A 
BRANCH  40  44
ATOM     44  O   UNL     1     125.585 -17.832 163.855  1.00  0.00    -0.496 OA
ATOM     45  C   UNL     1     125.724 -16.602 163.159  1.00  0.00     0.278 C 
ENDBRANCH  40  44
ENDBRANCH  37  38
ENDBRANCH  29  32
ENDBRANCH   1  28
TORSDOF 12
ENDMDL
