MODEL 1
REMARK VINA RESULT:    -8.353      0.000      0.000
REMARK INTER + INTRA:         -10.219
REMARK INTER:                  -9.330
REMARK INTRA:                  -0.889
REMARK UNBOUND:                -0.889
REMARK SMILES Cc1cc(N2CC[C@H]3CCN(c4ncnc5[nH]ccc45)C[C@@]3(C)C2)ncc1Br
REMARK SMILES IDX 5 1 6 2 7 3 8 4 9 5 10 6 11 7 21 8 22 9 23 10 24 11 4 12
REMARK SMILES IDX 2 13 3 14 27 15 26 16 25 17 1 18 28 19 12 20 13 21 20 22
REMARK SMILES IDX 14 23 19 24 16 25 15 26 18 27 17 28
REMARK H PARENT 17 29
ROOT
ATOM      1  N   UNL     1      -2.751  23.078 -28.037  1.00  0.00    -0.356 N 
ATOM      2  C   UNL     1      -2.616  21.733 -27.484  1.00  0.00     0.118 C 
ATOM      3  C   UNL     1      -1.488  21.715 -26.460  1.00  0.00     0.026 C 
ATOM      4  C   UNL     1      -1.695  22.775 -25.361  1.00  0.00     0.002 C 
ATOM      5  C   UNL     1      -0.510  22.771 -24.379  1.00  0.00     0.026 C 
ATOM      6  C   UNL     1       0.757  23.396 -24.967  1.00  0.00     0.118 C 
ATOM      7  N   UNL     1       0.457  24.705 -25.539  1.00  0.00    -0.355 N 
ATOM      8  C   UNL     1      -0.614  24.758 -26.544  1.00  0.00     0.127 C 
ATOM      9  C   UNL     1      -1.932  24.191 -25.958  1.00  0.00     0.006 C 
ATOM     10  C   UNL     1      -2.450  25.156 -24.864  1.00  0.00     0.015 C 
ATOM     11  C   UNL     1      -3.011  24.147 -27.069  1.00  0.00     0.126 C 
ENDROOT
BRANCH   1  12
ATOM     12  C   UNL     1      -3.430  23.192 -29.252  1.00  0.00     0.128 A 
ATOM     13  C   UNL     1      -4.353  24.582 -31.035  1.00  0.00    -0.032 A 
ATOM     14  C   UNL     1      -3.665  24.450 -29.817  1.00  0.00     0.051 A 
ATOM     15  C   UNL     1      -4.803  23.418 -31.655  1.00  0.00     0.039 A 
ATOM     16  C   UNL     1      -4.550  22.207 -31.031  1.00  0.00     0.129 A 
ATOM     17  N   UNL     1      -3.886  22.076 -29.858  1.00  0.00    -0.238 NA
ATOM     18  C   UNL     1      -4.590  25.949 -31.606  1.00  0.00     0.046 C 
ATOM     19  Br  UNL     1      -5.747  23.424 -33.294  1.00  0.00    -0.049 Br
ENDBRANCH   1  12
BRANCH   7  20
ATOM     20  C   UNL     1       1.565  25.514 -25.802  1.00  0.00     0.141 A 
ATOM     21  N   UNL     1       2.584  25.029 -26.563  1.00  0.00    -0.219 NA
ATOM     22  C   UNL     1       1.684  26.845 -25.344  1.00  0.00     0.061 A 
ATOM     23  C   UNL     1       3.655  25.807 -26.807  1.00  0.00     0.226 A 
ATOM     24  C   UNL     1       0.878  27.768 -24.613  1.00  0.00     0.033 A 
ATOM     25  C   UNL     1       2.846  27.526 -25.677  1.00  0.00     0.142 A 
ATOM     26  N   UNL     1       3.879  27.065 -26.396  1.00  0.00    -0.218 NA
ATOM     27  C   UNL     1       1.579  28.951 -24.500  1.00  0.00     0.085 A 
ATOM     28  N   UNL     1       2.775  28.785 -25.149  1.00  0.00    -0.346 N 
ATOM     29  H   UNL     1       3.503  29.478 -25.254  1.00  0.00     0.167 HD
ENDBRANCH   7  20
TORSDOF 2
ENDMDL
MODEL 2
REMARK VINA RESULT:    -8.154      1.576      2.033
REMARK INTER + INTRA:          -9.997
REMARK INTER:                  -9.242
REMARK INTRA:                  -0.755
REMARK UNBOUND:                -0.889
REMARK SMILES Cc1cc(N2CC[C@H]3CCN(c4ncnc5[nH]ccc45)C[C@@]3(C)C2)ncc1Br
REMARK SMILES IDX 5 1 6 2 7 3 8 4 9 5 10 6 11 7 21 8 22 9 23 10 24 11 4 12
REMARK SMILES IDX 2 13 3 14 27 15 26 16 25 17 1 18 28 19 12 20 13 21 20 22
REMARK SMILES IDX 14 23 19 24 16 25 15 26 18 27 17 28
REMARK H PARENT 17 29
ROOT
ATOM      1  N   UNL     1      -2.584  23.436 -27.739  1.00  0.00    -0.356 N 
ATOM      2  C   UNL     1      -2.668  22.034 -27.339  1.00  0.00     0.118 C 
ATOM      3  C   UNL     1      -1.545  21.716 -26.360  1.00  0.00     0.026 C 
ATOM      4  C   UNL     1      -1.556  22.665 -25.147  1.00  0.00     0.002 C 
ATOM      5  C   UNL     1      -0.374  22.355 -24.211  1.00  0.00     0.026 C 
ATOM      6  C   UNL     1       0.971  22.823 -24.768  1.00  0.00     0.118 C 
ATOM      7  N   UNL     1       0.887  24.220 -25.185  1.00  0.00    -0.355 N 
ATOM      8  C   UNL     1      -0.173  24.562 -26.144  1.00  0.00     0.127 C 
ATOM      9  C   UNL     1      -1.560  24.159 -25.579  1.00  0.00     0.006 C 
ATOM     10  C   UNL     1      -1.892  25.068 -24.371  1.00  0.00     0.015 C 
ATOM     11  C   UNL     1      -2.646  24.418 -26.653  1.00  0.00     0.126 C 
ENDROOT
BRANCH   1  12
ATOM     12  C   UNL     1      -3.250  23.797 -28.911  1.00  0.00     0.128 A 
ATOM     13  C   UNL     1      -4.425  23.163 -30.956  1.00  0.00    -0.032 A 
ATOM     14  C   UNL     1      -3.758  22.815 -29.769  1.00  0.00     0.051 A 
ATOM     15  C   UNL     1      -4.555  24.518 -31.255  1.00  0.00     0.039 A 
ATOM     16  C   UNL     1      -4.014  25.436 -30.368  1.00  0.00     0.129 A 
ATOM     17  N   UNL     1      -3.371  25.105 -29.223  1.00  0.00    -0.238 NA
ATOM     18  C   UNL     1      -4.950  22.081 -31.853  1.00  0.00     0.046 C 
ATOM     19  Br  UNL     1      -5.421  25.150 -32.813  1.00  0.00    -0.049 Br
ENDBRANCH   1  12
BRANCH   7  20
ATOM     20  C   UNL     1       2.111  24.859 -25.395  1.00  0.00     0.141 A 
ATOM     21  N   UNL     1       2.461  25.244 -26.653  1.00  0.00    -0.219 NA
ATOM     22  C   UNL     1       3.018  25.167 -24.357  1.00  0.00     0.061 A 
ATOM     23  C   UNL     1       3.645  25.850 -26.855  1.00  0.00     0.226 A 
ATOM     24  C   UNL     1       3.054  25.035 -22.936  1.00  0.00     0.033 A 
ATOM     25  C   UNL     1       4.200  25.797 -24.716  1.00  0.00     0.142 A 
ATOM     26  N   UNL     1       4.585  26.158 -25.948  1.00  0.00    -0.218 NA
ATOM     27  C   UNL     1       4.252  25.554 -22.489  1.00  0.00     0.085 A 
ATOM     28  N   UNL     1       4.939  26.009 -23.585  1.00  0.00    -0.346 N 
ATOM     29  H   UNL     1       5.845  26.455 -23.583  1.00  0.00     0.167 HD
ENDBRANCH   7  20
TORSDOF 2
ENDMDL
MODEL 3
REMARK VINA RESULT:    -7.692      1.352      2.282
REMARK INTER + INTRA:          -9.480
REMARK INTER:                  -8.715
REMARK INTRA:                  -0.765
REMARK UNBOUND:                -0.889
REMARK SMILES Cc1cc(N2CC[C@H]3CCN(c4ncnc5[nH]ccc45)C[C@@]3(C)C2)ncc1Br
REMARK SMILES IDX 5 1 6 2 7 3 8 4 9 5 10 6 11 7 21 8 22 9 23 10 24 11 4 12
REMARK SMILES IDX 2 13 3 14 27 15 26 16 25 17 1 18 28 19 12 20 13 21 20 22
REMARK SMILES IDX 14 23 19 24 16 25 15 26 18 27 17 28
REMARK H PARENT 17 29
ROOT
ATOM      1  N   UNL     1      -2.509  24.160 -27.619  1.00  0.00    -0.356 N 
ATOM      2  C   UNL     1      -2.238  22.730 -27.494  1.00  0.00     0.118 C 
ATOM      3  C   UNL     1      -1.110  22.512 -26.492  1.00  0.00     0.026 C 
ATOM      4  C   UNL     1      -1.419  23.163 -25.131  1.00  0.00     0.002 C 
ATOM      5  C   UNL     1      -0.236  22.975 -24.165  1.00  0.00     0.026 C 
ATOM      6  C   UNL     1       0.960  23.868 -24.502  1.00  0.00     0.118 C 
ATOM      7  N   UNL     1       0.528  25.254 -24.659  1.00  0.00    -0.355 N 
ATOM      8  C   UNL     1      -0.545  25.506 -25.630  1.00  0.00     0.127 C 
ATOM      9  C   UNL     1      -1.798  24.664 -25.279  1.00  0.00     0.006 C 
ATOM     10  C   UNL     1      -2.406  25.197 -23.958  1.00  0.00     0.015 C 
ATOM     11  C   UNL     1      -2.871  24.855 -26.380  1.00  0.00     0.126 C 
ENDROOT
BRANCH   1  12
ATOM     12  C   UNL     1      -3.200  24.571 -28.760  1.00  0.00     0.128 A 
ATOM     13  C   UNL     1      -4.345  24.031 -30.848  1.00  0.00    -0.032 A 
ATOM     14  C   UNL     1      -3.655  23.631 -29.691  1.00  0.00     0.051 A 
ATOM     15  C   UNL     1      -4.552  25.396 -31.041  1.00  0.00     0.039 A 
ATOM     16  C   UNL     1      -4.061  26.272 -30.087  1.00  0.00     0.129 A 
ATOM     17  N   UNL     1      -3.395  25.890 -28.970  1.00  0.00    -0.238 NA
ATOM     18  C   UNL     1      -4.812  22.993 -31.825  1.00  0.00     0.046 C 
ATOM     19  Br  UNL     1      -5.459  26.096 -32.546  1.00  0.00    -0.049 Br
ENDBRANCH   1  12
BRANCH   7  20
ATOM     20  C   UNL     1       1.549  26.207 -24.635  1.00  0.00     0.141 A 
ATOM     21  N   UNL     1       1.675  27.030 -23.557  1.00  0.00    -0.219 NA
ATOM     22  C   UNL     1       2.501  26.355 -25.667  1.00  0.00     0.061 A 
ATOM     23  C   UNL     1       2.653  27.954 -23.541  1.00  0.00     0.226 A 
ATOM     24  C   UNL     1       2.807  25.704 -26.901  1.00  0.00     0.033 A 
ATOM     25  C   UNL     1       3.454  27.351 -25.511  1.00  0.00     0.142 A 
ATOM     26  N   UNL     1       3.583  28.196 -24.478  1.00  0.00    -0.218 NA
ATOM     27  C   UNL     1       3.899  26.336 -27.458  1.00  0.00     0.085 A 
ATOM     28  N   UNL     1       4.278  27.337 -26.602  1.00  0.00    -0.346 N 
ATOM     29  H   UNL     1       5.055  27.971 -26.725  1.00  0.00     0.167 HD
ENDBRANCH   7  20
TORSDOF 2
ENDMDL
MODEL 4
REMARK VINA RESULT:    -7.423      3.273      8.118
REMARK INTER + INTRA:          -9.180
REMARK INTER:                  -8.867
REMARK INTRA:                  -0.313
REMARK UNBOUND:                -0.889
REMARK SMILES Cc1cc(N2CC[C@H]3CCN(c4ncnc5[nH]ccc45)C[C@@]3(C)C2)ncc1Br
REMARK SMILES IDX 5 1 6 2 7 3 8 4 9 5 10 6 11 7 21 8 22 9 23 10 24 11 4 12
REMARK SMILES IDX 2 13 3 14 27 15 26 16 25 17 1 18 28 19 12 20 13 21 20 22
REMARK SMILES IDX 14 23 19 24 16 25 15 26 18 27 17 28
REMARK H PARENT 17 29
ROOT
ATOM      1  N   UNL     1      -2.077  23.479 -27.489  1.00  0.00    -0.356 N 
ATOM      2  C   UNL     1      -2.825  22.555 -26.641  1.00  0.00     0.118 C 
ATOM      3  C   UNL     1      -3.946  21.915 -27.452  1.00  0.00     0.026 C 
ATOM      4  C   UNL     1      -3.413  21.230 -28.725  1.00  0.00     0.002 C 
ATOM      5  C   UNL     1      -4.576  20.649 -29.549  1.00  0.00     0.026 C 
ATOM      6  C   UNL     1      -5.393  21.721 -30.273  1.00  0.00     0.118 C 
ATOM      7  N   UNL     1      -4.510  22.607 -31.026  1.00  0.00    -0.355 N 
ATOM      8  C   UNL     1      -3.428  23.257 -30.273  1.00  0.00     0.127 C 
ATOM      9  C   UNL     1      -2.540  22.193 -29.579  1.00  0.00     0.006 C 
ATOM     10  C   UNL     1      -1.768  21.400 -30.662  1.00  0.00     0.015 C 
ATOM     11  C   UNL     1      -1.481  22.903 -28.698  1.00  0.00     0.126 C 
ENDROOT
BRANCH   1  12
ATOM     12  C   UNL     1      -1.301  24.440 -26.839  1.00  0.00     0.128 A 
ATOM     13  C   UNL     1       0.489  25.010 -25.279  1.00  0.00    -0.032 A 
ATOM     14  C   UNL     1      -0.295  24.054 -25.947  1.00  0.00     0.051 A 
ATOM     15  C   UNL     1       0.225  26.355 -25.528  1.00  0.00     0.039 A 
ATOM     16  C   UNL     1      -0.797  26.666 -26.412  1.00  0.00     0.129 A 
ATOM     17  N   UNL     1      -1.554  25.748 -27.058  1.00  0.00    -0.238 NA
ATOM     18  C   UNL     1       1.555  24.556 -24.325  1.00  0.00     0.046 C 
ATOM     19  Br  UNL     1       1.187  27.762 -24.709  1.00  0.00    -0.049 Br
ENDBRANCH   1  12
BRANCH   7  20
ATOM     20  C   UNL     1      -5.137  23.408 -31.983  1.00  0.00     0.141 A 
ATOM     21  N   UNL     1      -5.740  22.824 -33.055  1.00  0.00    -0.219 NA
ATOM     22  C   UNL     1      -5.215  24.815 -31.892  1.00  0.00     0.061 A 
ATOM     23  C   UNL     1      -6.335  23.598 -33.982  1.00  0.00     0.226 A 
ATOM     24  C   UNL     1      -4.818  25.820 -30.958  1.00  0.00     0.033 A 
ATOM     25  C   UNL     1      -5.863  25.480 -32.922  1.00  0.00     0.142 A 
ATOM     26  N   UNL     1      -6.436  24.936 -34.005  1.00  0.00    -0.218 NA
ATOM     27  C   UNL     1      -5.205  27.045 -31.460  1.00  0.00     0.085 A 
ATOM     28  N   UNL     1      -5.835  26.821 -32.657  1.00  0.00    -0.346 N 
ATOM     29  H   UNL     1      -6.244  27.520 -33.261  1.00  0.00     0.167 HD
ENDBRANCH   7  20
TORSDOF 2
ENDMDL
MODEL 5
REMARK VINA RESULT:    -7.421      5.288      6.775
REMARK INTER + INTRA:          -9.177
REMARK INTER:                  -8.482
REMARK INTRA:                  -0.695
REMARK UNBOUND:                -0.889
REMARK SMILES Cc1cc(N2CC[C@H]3CCN(c4ncnc5[nH]ccc45)C[C@@]3(C)C2)ncc1Br
REMARK SMILES IDX 5 1 6 2 7 3 8 4 9 5 10 6 11 7 21 8 22 9 23 10 24 11 4 12
REMARK SMILES IDX 2 13 3 14 27 15 26 16 25 17 1 18 28 19 12 20 13 21 20 22
REMARK SMILES IDX 14 23 19 24 16 25 15 26 18 27 17 28
REMARK H PARENT 17 29
ROOT
ATOM      1  N   UNL     1      -3.830  28.770 -29.434  1.00  0.00    -0.356 N 
ATOM      2  C   UNL     1      -3.735  28.302 -28.054  1.00  0.00     0.118 C 
ATOM      3  C   UNL     1      -2.746  29.173 -27.288  1.00  0.00     0.026 C 
ATOM      4  C   UNL     1      -3.115  30.666 -27.369  1.00  0.00     0.002 C 
ATOM      5  C   UNL     1      -2.063  31.520 -26.638  1.00  0.00     0.026 C 
ATOM      6  C   UNL     1      -0.747  31.638 -27.408  1.00  0.00     0.118 C 
ATOM      7  N   UNL     1      -1.002  32.051 -28.785  1.00  0.00    -0.355 N 
ATOM      8  C   UNL     1      -1.938  31.225 -29.561  1.00  0.00     0.127 C 
ATOM      9  C   UNL     1      -3.306  31.138 -28.838  1.00  0.00     0.006 C 
ATOM     10  C   UNL     1      -3.980  32.532 -28.872  1.00  0.00     0.015 C 
ATOM     11  C   UNL     1      -4.235  30.168 -29.612  1.00  0.00     0.126 C 
ENDROOT
BRANCH   1  12
ATOM     12  C   UNL     1      -4.352  27.873 -30.368  1.00  0.00     0.128 A 
ATOM     13  C   UNL     1      -4.536  25.601 -31.242  1.00  0.00    -0.032 A 
ATOM     14  C   UNL     1      -4.025  26.514 -30.305  1.00  0.00     0.051 A 
ATOM     15  C   UNL     1      -5.372  26.095 -32.242  1.00  0.00     0.039 A 
ATOM     16  C   UNL     1      -5.642  27.455 -32.253  1.00  0.00     0.129 A 
ATOM     17  N   UNL     1      -5.151  28.339 -31.351  1.00  0.00    -0.238 NA
ATOM     18  C   UNL     1      -4.157  24.152 -31.145  1.00  0.00     0.046 C 
ATOM     19  Br  UNL     1      -6.139  24.999 -33.579  1.00  0.00    -0.049 Br
ENDBRANCH   1  12
BRANCH   7  20
ATOM     20  C   UNL     1       0.111  32.515 -29.489  1.00  0.00     0.141 A 
ATOM     21  N   UNL     1       0.133  33.798 -29.943  1.00  0.00    -0.219 NA
ATOM     22  C   UNL     1       1.258  31.729 -29.739  1.00  0.00     0.061 A 
ATOM     23  C   UNL     1       1.203  34.240 -30.629  1.00  0.00     0.226 A 
ATOM     24  C   UNL     1       1.709  30.415 -29.410  1.00  0.00     0.033 A 
ATOM     25  C   UNL     1       2.286  32.320 -30.458  1.00  0.00     0.142 A 
ATOM     26  N   UNL     1       2.321  33.569 -30.945  1.00  0.00    -0.218 NA
ATOM     27  C   UNL     1       2.963  30.244 -29.959  1.00  0.00     0.085 A 
ATOM     28  N   UNL     1       3.297  31.411 -30.597  1.00  0.00    -0.346 N 
ATOM     29  H   UNL     1       4.160  31.602 -31.085  1.00  0.00     0.167 HD
ENDBRANCH   7  20
TORSDOF 2
ENDMDL
MODEL 6
REMARK VINA RESULT:    -7.102      4.178      8.012
REMARK INTER + INTRA:          -8.821
REMARK INTER:                  -8.326
REMARK INTRA:                  -0.495
REMARK UNBOUND:                -0.889
REMARK SMILES Cc1cc(N2CC[C@H]3CCN(c4ncnc5[nH]ccc45)C[C@@]3(C)C2)ncc1Br
REMARK SMILES IDX 5 1 6 2 7 3 8 4 9 5 10 6 11 7 21 8 22 9 23 10 24 11 4 12
REMARK SMILES IDX 2 13 3 14 27 15 26 16 25 17 1 18 28 19 12 20 13 21 20 22
REMARK SMILES IDX 14 23 19 24 16 25 15 26 18 27 17 28
REMARK H PARENT 17 29
ROOT
ATOM      1  N   UNL     1      -2.272  22.107 -27.207  1.00  0.00    -0.356 N 
ATOM      2  C   UNL     1      -3.275  21.047 -27.264  1.00  0.00     0.118 C 
ATOM      3  C   UNL     1      -4.277  21.354 -28.370  1.00  0.00     0.026 C 
ATOM      4  C   UNL     1      -3.584  21.569 -29.729  1.00  0.00     0.002 C 
ATOM      5  C   UNL     1      -4.618  21.936 -30.808  1.00  0.00     0.026 C 
ATOM      6  C   UNL     1      -5.145  23.366 -30.670  1.00  0.00     0.118 C 
ATOM      7  N   UNL     1      -4.034  24.307 -30.559  1.00  0.00    -0.355 N 
ATOM      8  C   UNL     1      -3.057  24.052 -29.492  1.00  0.00     0.127 C 
ATOM      9  C   UNL     1      -2.453  22.633 -29.641  1.00  0.00     0.006 C 
ATOM     10  C   UNL     1      -1.576  22.592 -30.917  1.00  0.00     0.015 C 
ATOM     11  C   UNL     1      -1.517  22.344 -28.440  1.00  0.00     0.126 C 
ENDROOT
BRANCH   1  12
ATOM     12  C   UNL     1      -1.537  22.213 -26.025  1.00  0.00     0.128 A 
ATOM     13  C   UNL     1      -0.049  21.216 -24.365  1.00  0.00    -0.032 A 
ATOM     14  C   UNL     1      -0.788  21.128 -25.557  1.00  0.00     0.051 A 
ATOM     15  C   UNL     1      -0.094  22.418 -23.660  1.00  0.00     0.039 A 
ATOM     16  C   UNL     1      -0.869  23.446 -24.174  1.00  0.00     0.129 A 
ATOM     17  N   UNL     1      -1.582  23.364 -25.323  1.00  0.00    -0.238 NA
ATOM     18  C   UNL     1       0.738  20.029 -23.892  1.00  0.00     0.046 C 
ATOM     19  Br  UNL     1       0.841  22.698 -22.040  1.00  0.00    -0.049 Br
ENDBRANCH   1  12
BRANCH   7  20
ATOM     20  C   UNL     1      -4.361  25.649 -30.763  1.00  0.00     0.141 A 
ATOM     21  N   UNL     1      -3.873  26.595 -29.915  1.00  0.00    -0.219 NA
ATOM     22  C   UNL     1      -5.158  26.102 -31.838  1.00  0.00     0.061 A 
ATOM     23  C   UNL     1      -4.198  27.887 -30.108  1.00  0.00     0.226 A 
ATOM     24  C   UNL     1      -5.801  25.521 -32.972  1.00  0.00     0.033 A 
ATOM     25  C   UNL     1      -5.407  27.465 -31.910  1.00  0.00     0.142 A 
ATOM     26  N   UNL     1      -4.968  28.415 -31.072  1.00  0.00    -0.218 NA
ATOM     27  C   UNL     1      -6.434  26.530 -33.667  1.00  0.00     0.085 A 
ATOM     28  N   UNL     1      -6.188  27.705 -33.006  1.00  0.00    -0.346 N 
ATOM     29  H   UNL     1      -6.507  28.625 -33.276  1.00  0.00     0.167 HD
ENDBRANCH   7  20
TORSDOF 2
ENDMDL
MODEL 7
REMARK VINA RESULT:    -7.084      5.578      6.932
REMARK INTER + INTRA:          -8.801
REMARK INTER:                  -7.951
REMARK INTRA:                  -0.850
REMARK UNBOUND:                -0.889
REMARK SMILES Cc1cc(N2CC[C@H]3CCN(c4ncnc5[nH]ccc45)C[C@@]3(C)C2)ncc1Br
REMARK SMILES IDX 5 1 6 2 7 3 8 4 9 5 10 6 11 7 21 8 22 9 23 10 24 11 4 12
REMARK SMILES IDX 2 13 3 14 27 15 26 16 25 17 1 18 28 19 12 20 13 21 20 22
REMARK SMILES IDX 14 23 19 24 16 25 15 26 18 27 17 28
REMARK H PARENT 17 29
ROOT
ATOM      1  N   UNL     1      -3.764  28.985 -29.479  1.00  0.00    -0.356 N 
ATOM      2  C   UNL     1      -3.809  28.510 -28.098  1.00  0.00     0.118 C 
ATOM      3  C   UNL     1      -2.747  29.232 -27.277  1.00  0.00     0.026 C 
ATOM      4  C   UNL     1      -2.894  30.762 -27.368  1.00  0.00     0.002 C 
ATOM      5  C   UNL     1      -1.771  31.458 -26.579  1.00  0.00     0.026 C 
ATOM      6  C   UNL     1      -0.413  31.386 -27.279  1.00  0.00     0.118 C 
ATOM      7  N   UNL     1      -0.534  31.829 -28.665  1.00  0.00    -0.355 N 
ATOM      8  C   UNL     1      -1.536  31.143 -29.493  1.00  0.00     0.127 C 
ATOM      9  C   UNL     1      -2.939  31.254 -28.843  1.00  0.00     0.006 C 
ATOM     10  C   UNL     1      -3.404  32.730 -28.904  1.00  0.00     0.015 C 
ATOM     11  C   UNL     1      -3.955  30.425 -29.669  1.00  0.00     0.126 C 
ENDROOT
BRANCH   1  12
ATOM     12  C   UNL     1      -4.359  28.170 -30.443  1.00  0.00     0.128 A 
ATOM     13  C   UNL     1      -4.724  25.956 -31.408  1.00  0.00    -0.032 A 
ATOM     14  C   UNL     1      -4.137  26.788 -30.439  1.00  0.00     0.051 A 
ATOM     15  C   UNL     1      -5.525  26.554 -32.378  1.00  0.00     0.039 A 
ATOM     16  C   UNL     1      -5.689  27.930 -32.331  1.00  0.00     0.129 A 
ATOM     17  N   UNL     1      -5.126  28.735 -31.399  1.00  0.00    -0.238 NA
ATOM     18  C   UNL     1      -4.457  24.480 -31.373  1.00  0.00     0.046 C 
ATOM     19  Br  UNL     1      -6.383  25.576 -33.751  1.00  0.00    -0.049 Br
ENDBRANCH   1  12
BRANCH   7  20
ATOM     20  C   UNL     1       0.670  32.127 -29.308  1.00  0.00     0.141 A 
ATOM     21  N   UNL     1       1.626  31.165 -29.422  1.00  0.00    -0.219 NA
ATOM     22  C   UNL     1       0.952  33.383 -29.889  1.00  0.00     0.061 A 
ATOM     23  C   UNL     1       2.789  31.457 -30.033  1.00  0.00     0.226 A 
ATOM     24  C   UNL     1       0.263  34.618 -30.080  1.00  0.00     0.033 A 
ATOM     25  C   UNL     1       2.194  33.537 -30.489  1.00  0.00     0.142 A 
ATOM     26  N   UNL     1       3.167  32.620 -30.587  1.00  0.00    -0.218 NA
ATOM     27  C   UNL     1       1.107  35.479 -30.750  1.00  0.00     0.085 A 
ATOM     28  N   UNL     1       2.279  34.807 -30.988  1.00  0.00    -0.346 N 
ATOM     29  H   UNL     1       3.089  35.165 -31.473  1.00  0.00     0.167 HD
ENDBRANCH   7  20
TORSDOF 2
ENDMDL
MODEL 8
REMARK VINA RESULT:    -7.076      3.863      8.292
REMARK INTER + INTRA:          -8.793
REMARK INTER:                  -8.645
REMARK INTRA:                  -0.148
REMARK UNBOUND:                -0.889
REMARK SMILES Cc1cc(N2CC[C@H]3CCN(c4ncnc5[nH]ccc45)C[C@@]3(C)C2)ncc1Br
REMARK SMILES IDX 5 1 6 2 7 3 8 4 9 5 10 6 11 7 21 8 22 9 23 10 24 11 4 12
REMARK SMILES IDX 2 13 3 14 27 15 26 16 25 17 1 18 28 19 12 20 13 21 20 22
REMARK SMILES IDX 14 23 19 24 16 25 15 26 18 27 17 28
REMARK H PARENT 17 29
ROOT
ATOM      1  N   UNL     1       1.070  22.971 -24.316  1.00  0.00    -0.356 N 
ATOM      2  C   UNL     1       1.913  24.051 -24.823  1.00  0.00     0.118 C 
ATOM      3  C   UNL     1       1.161  24.817 -25.904  1.00  0.00     0.026 C 
ATOM      4  C   UNL     1      -0.200  25.333 -25.400  1.00  0.00     0.002 C 
ATOM      5  C   UNL     1      -0.958  26.049 -26.533  1.00  0.00     0.026 C 
ATOM      6  C   UNL     1      -1.529  25.084 -27.574  1.00  0.00     0.118 C 
ATOM      7  N   UNL     1      -2.291  24.025 -26.919  1.00  0.00    -0.355 N 
ATOM      8  C   UNL     1      -1.592  23.252 -25.882  1.00  0.00     0.127 C 
ATOM      9  C   UNL     1      -1.057  24.195 -24.775  1.00  0.00     0.006 C 
ATOM     10  C   UNL     1      -2.258  24.790 -23.999  1.00  0.00     0.015 C 
ATOM     11  C   UNL     1      -0.224  23.374 -23.759  1.00  0.00     0.126 C 
ENDROOT
BRANCH   1  12
ATOM     12  C   UNL     1       1.716  21.935 -23.639  1.00  0.00     0.128 A 
ATOM     13  C   UNL     1       1.870  19.572 -23.042  1.00  0.00    -0.032 A 
ATOM     14  C   UNL     1       1.235  20.624 -23.724  1.00  0.00     0.051 A 
ATOM     15  C   UNL     1       2.989  19.880 -22.271  1.00  0.00     0.039 A 
ATOM     16  C   UNL     1       3.401  21.202 -22.219  1.00  0.00     0.129 A 
ATOM     17  N   UNL     1       2.792  22.219 -22.875  1.00  0.00    -0.238 NA
ATOM     18  C   UNL     1       1.321  18.180 -23.154  1.00  0.00     0.046 C 
ATOM     19  Br  UNL     1       3.954  18.582 -21.291  1.00  0.00    -0.049 Br
ENDBRANCH   1  12
BRANCH   7  20
ATOM     20  C   UNL     1      -3.130  23.285 -27.754  1.00  0.00     0.141 A 
ATOM     21  N   UNL     1      -3.670  22.119 -27.301  1.00  0.00    -0.219 NA
ATOM     22  C   UNL     1      -3.489  23.692 -29.058  1.00  0.00     0.061 A 
ATOM     23  C   UNL     1      -4.470  21.402 -28.111  1.00  0.00     0.226 A 
ATOM     24  C   UNL     1      -3.247  24.821 -29.897  1.00  0.00     0.033 A 
ATOM     25  C   UNL     1      -4.326  22.850 -29.775  1.00  0.00     0.142 A 
ATOM     26  N   UNL     1      -4.845  21.683 -29.369  1.00  0.00    -0.218 NA
ATOM     27  C   UNL     1      -3.908  24.616 -31.090  1.00  0.00     0.085 A 
ATOM     28  N   UNL     1      -4.557  23.411 -31.001  1.00  0.00    -0.346 N 
ATOM     29  H   UNL     1      -5.138  22.988 -31.710  1.00  0.00     0.167 HD
ENDBRANCH   7  20
TORSDOF 2
ENDMDL
MODEL 9
REMARK VINA RESULT:    -6.344      5.322      8.182
REMARK INTER + INTRA:          -7.975
REMARK INTER:                  -7.094
REMARK INTRA:                  -0.881
REMARK UNBOUND:                -0.889
REMARK SMILES Cc1cc(N2CC[C@H]3CCN(c4ncnc5[nH]ccc45)C[C@@]3(C)C2)ncc1Br
REMARK SMILES IDX 5 1 6 2 7 3 8 4 9 5 10 6 11 7 21 8 22 9 23 10 24 11 4 12
REMARK SMILES IDX 2 13 3 14 27 15 26 16 25 17 1 18 28 19 12 20 13 21 20 22
REMARK SMILES IDX 14 23 19 24 16 25 15 26 18 27 17 28
REMARK H PARENT 17 29
ROOT
ATOM      1  N   UNL     1       1.013  27.797 -26.570  1.00  0.00    -0.356 N 
ATOM      2  C   UNL     1       2.147  28.035 -27.460  1.00  0.00     0.118 C 
ATOM      3  C   UNL     1       1.849  29.234 -28.353  1.00  0.00     0.026 C 
ATOM      4  C   UNL     1       1.485  30.485 -27.532  1.00  0.00     0.002 C 
ATOM      5  C   UNL     1       1.133  31.657 -28.465  1.00  0.00     0.026 C 
ATOM      6  C   UNL     1      -0.235  31.501 -29.132  1.00  0.00     0.118 C 
ATOM      7  N   UNL     1      -1.256  31.203 -28.131  1.00  0.00    -0.355 N 
ATOM      8  C   UNL     1      -1.011  30.043 -27.263  1.00  0.00     0.127 C 
ATOM      9  C   UNL     1       0.339  30.201 -26.519  1.00  0.00     0.006 C 
ATOM     10  C   UNL     1       0.220  31.363 -25.504  1.00  0.00     0.015 C 
ATOM     11  C   UNL     1       0.631  28.916 -25.704  1.00  0.00     0.126 C 
ENDROOT
BRANCH   1  12
ATOM     12  C   UNL     1       0.927  26.532 -25.987  1.00  0.00     0.128 A 
ATOM     13  C   UNL     1      -0.389  24.801 -24.876  1.00  0.00    -0.032 A 
ATOM     14  C   UNL     1      -0.289  26.069 -25.473  1.00  0.00     0.051 A 
ATOM     15  C   UNL     1       0.766  24.025 -24.803  1.00  0.00     0.039 A 
ATOM     16  C   UNL     1       1.940  24.552 -25.317  1.00  0.00     0.129 A 
ATOM     17  N   UNL     1       2.040  25.774 -25.894  1.00  0.00    -0.238 NA
ATOM     18  C   UNL     1      -1.710  24.342 -24.332  1.00  0.00     0.046 C 
ATOM     19  Br  UNL     1       0.800  22.300 -24.028  1.00  0.00    -0.049 Br
ENDBRANCH   1  12
BRANCH   7  20
ATOM     20  C   UNL     1      -2.577  31.367 -28.553  1.00  0.00     0.141 A 
ATOM     21  N   UNL     1      -2.946  30.930 -29.789  1.00  0.00    -0.219 NA
ATOM     22  C   UNL     1      -3.587  31.941 -27.750  1.00  0.00     0.061 A 
ATOM     23  C   UNL     1      -4.217  31.098 -30.198  1.00  0.00     0.226 A 
ATOM     24  C   UNL     1      -3.692  32.451 -26.420  1.00  0.00     0.033 A 
ATOM     25  C   UNL     1      -4.853  32.045 -28.304  1.00  0.00     0.142 A 
ATOM     26  N   UNL     1      -5.238  31.655 -29.528  1.00  0.00    -0.218 NA
ATOM     27  C   UNL     1      -4.992  32.870 -26.226  1.00  0.00     0.085 A 
ATOM     28  N   UNL     1      -5.684  32.620 -27.383  1.00  0.00    -0.346 N 
ATOM     29  H   UNL     1      -6.663  32.805 -27.549  1.00  0.00     0.167 HD
ENDBRANCH   7  20
TORSDOF 2
ENDMDL
