MODEL 6
REMARK VINA RESULT:    -7.210      3.722      7.311
REMARK INTER + INTRA:         -10.638
REMARK INTER:                  -9.808
REMARK INTRA:                  -0.830
REMARK UNBOUND:                -0.899
REMARK SMILES Cn1cc(Nc2ncc(Cl)c(N[C@H]3C[C@@H]4CN(C(=O)CC#N)C[C@@H]4C3)n2)cn1
REMARK SMILES IDX 6 1 7 2 8 3 9 4 10 5 11 6 26 7 5 8 4 10 2 11 3 12 28 13
REMARK SMILES IDX 27 14 1 15 12 16 13 18 14 19 25 20 15 21 24 22 16 23 23 24
REMARK SMILES IDX 17 25 18 26 19 27 20 28 21 29 22 30
REMARK H PARENT 5 9 12 17
ROOT
ATOM      1  C   UNL     1      -3.147  23.825 -28.400  1.00  0.00     0.229 A 
ATOM      2  N   UNL     1      -3.399  24.642 -29.433  1.00  0.00    -0.220 NA
ATOM      3  C   UNL     1      -3.485  25.960 -29.167  1.00  0.00     0.139 A 
ATOM      4  C   UNL     1      -3.314  26.502 -27.915  1.00  0.00     0.101 A 
ATOM      5  Cl  UNL     1      -3.525  28.190 -27.679  1.00  0.00    -0.079 Cl
ATOM      6  C   UNL     1      -3.032  25.589 -26.908  1.00  0.00     0.150 A 
ATOM      7  N   UNL     1      -2.964  24.261 -27.141  1.00  0.00    -0.194 NA
ENDROOT
BRANCH   1   8
ATOM      8  N   UNL     1      -3.052  22.445 -28.572  1.00  0.00    -0.321 N 
ATOM      9  H   UNL     1      -2.510  22.071 -27.803  1.00  0.00     0.170 HD
BRANCH   8  10
ATOM     10  C   UNL     1      -3.558  21.637 -29.522  1.00  0.00     0.079 A 
ATOM     11  N   UNL     1      -4.916  20.778 -31.005  1.00  0.00    -0.274 N 
ATOM     12  C   UNL     1      -4.798  21.789 -30.094  1.00  0.00     0.134 A 
ATOM     13  N   UNL     1      -3.839  19.974 -31.063  1.00  0.00    -0.180 NA
ATOM     14  C   UNL     1      -3.009  20.502 -30.154  1.00  0.00     0.161 A 
ATOM     15  C   UNL     1      -6.038  20.523 -31.876  1.00  0.00     0.173 C 
ENDBRANCH   8  10
ENDBRANCH   1   8
BRANCH   6  16
ATOM     16  N   UNL     1      -2.811  25.939 -25.566  1.00  0.00    -0.366 N 
ATOM     17  H   UNL     1      -3.693  25.707 -25.108  1.00  0.00     0.162 HD
BRANCH  16  18
ATOM     18  C   UNL     1      -1.713  25.211 -24.930  1.00  0.00     0.081 C 
ATOM     19  C   UNL     1      -0.373  25.764 -25.415  1.00  0.00     0.030 C 
ATOM     20  C   UNL     1      -1.624  25.460 -23.426  1.00  0.00     0.030 C 
ATOM     21  C   UNL     1       0.642  25.312 -24.358  1.00  0.00     0.015 C 
ATOM     22  C   UNL     1      -0.177  25.103 -23.060  1.00  0.00     0.015 C 
ATOM     23  C   UNL     1       1.264  23.954 -24.681  1.00  0.00     0.123 C 
ATOM     24  C   UNL     1      -0.009  23.627 -22.699  1.00  0.00     0.123 C 
ATOM     25  N   UNL     1       0.512  22.999 -23.894  1.00  0.00    -0.341 N 
BRANCH  25  26
ATOM     26  C   UNL     1       0.576  21.617 -23.988  1.00  0.00     0.236 C 
ATOM     27  O   UNL     1       1.406  20.975 -23.344  1.00  0.00    -0.274 OA
BRANCH  26  28
ATOM     28  C   UNL     1      -0.444  20.962 -24.899  1.00  0.00     0.220 C 
ATOM     29  C   UNL     1      -0.282  19.509 -24.963  1.00  0.00     0.072 C 
ATOM     30  N   UNL     1      -0.206  18.355 -25.067  1.00  0.00    -0.198 NA
ENDBRANCH  26  28
ENDBRANCH  25  26
ENDBRANCH  16  18
ENDBRANCH   6  16
TORSDOF 6
ENDMDL
