REMARK SMILES Cc1cc(C#N)ccc1NC[C@H]1CC[C@H](c2nnn3cnc4[nH]ccc4c23)CC1
REMARK SMILES IDX 11 1 10 2 9 4 2 5 3 6 4 7 8 8 5 9 7 10 6 11 1 12 12 13 13 14
REMARK SMILES IDX 29 15 14 16 28 17 15 18 16 19 17 20 27 21 18 22 26 23 19 24
REMARK SMILES IDX 25 25 22 26 20 27 24 28 21 29 23 30
REMARK H PARENT 10 3 23 31
REMARK INDEX MAP 11 1 10 2 36 3 9 4 2 5 3 6 4 7 8 8 5 9 7 10 6 11 1 12 12 13
REMARK INDEX MAP 13 14 29 15 14 16 28 17 15 18 16 19 17 20 27 21 18 22 26 23
REMARK INDEX MAP 19 24 25 25 22 26 20 27 24 28 21 29 23 30 46 31
ROOT
ATOM      1  C   UNL     1      -4.989  21.157 -31.477  1.00  0.00     0.116 C 
ENDROOT
BRANCH   1   2
ATOM      2  N   UNL     1      -4.902  22.155 -32.530  1.00  0.00    -0.385 N 
ATOM      3  H   UNL     1      -4.757  21.825 -33.495  1.00  0.00     0.160 HD
BRANCH   2   4
ATOM      4  C   UNL     1      -5.001  23.521 -32.322  1.00  0.00     0.037 A 
ATOM      5  C   UNL     1      -5.946  24.284 -33.044  1.00  0.00    -0.027 A 
ATOM      6  C   UNL     1      -6.033  25.676 -32.845  1.00  0.00     0.025 A 
ATOM      7  C   UNL     1      -5.185  26.325 -31.946  1.00  0.00     0.052 A 
ATOM      8  C   UNL     1      -4.153  24.200 -31.434  1.00  0.00     0.027 A 
ATOM      9  C   UNL     1      -5.282  27.742 -31.753  1.00  0.00     0.099 C 
ATOM     10  C   UNL     1      -4.242  25.583 -31.241  1.00  0.00     0.021 A 
ATOM     11  N   UNL     1      -5.360  28.890 -31.597  1.00  0.00    -0.192 NA
ATOM     12  C   UNL     1      -6.883  23.645 -34.035  1.00  0.00     0.046 C 
ENDBRANCH   2   4
ENDBRANCH   1   2
BRANCH   1  13
ATOM     13  C   UNL     1      -4.217  21.618 -30.226  1.00  0.00     0.008 C 
ATOM     14  C   UNL     1      -2.769  21.109 -30.284  1.00  0.00     0.006 C 
ATOM     15  C   UNL     1      -4.898  21.141 -28.932  1.00  0.00     0.006 C 
ATOM     16  C   UNL     1      -1.973  21.515 -29.045  1.00  0.00     0.010 C 
ATOM     17  C   UNL     1      -4.104  21.546 -27.691  1.00  0.00     0.010 C 
ATOM     18  C   UNL     1      -2.654  21.044 -27.752  1.00  0.00     0.042 C 
BRANCH  18  19
ATOM     19  C   UNL     1      -1.882  21.461 -26.545  1.00  0.00     0.094 A 
ATOM     20  N   UNL     1      -1.257  20.531 -25.730  1.00  0.00    -0.134 NA
ATOM     21  C   UNL     1      -1.637  22.700 -26.024  1.00  0.00     0.103 A 
ATOM     22  N   UNL     1      -0.644  21.171 -24.733  1.00  0.00    -0.061 NA
ATOM     23  C   UNL     1      -1.959  24.150 -26.323  1.00  0.00     0.047 A 
ATOM     24  N   UNL     1      -0.874  22.482 -24.912  1.00  0.00    -0.201 N 
ATOM     25  C   UNL     1      -2.666  24.861 -27.294  1.00  0.00     0.032 A 
ATOM     26  C   UNL     1      -1.415  25.025 -25.400  1.00  0.00     0.141 A 
ATOM     27  C   UNL     1      -0.399  23.498 -24.074  1.00  0.00     0.228 A 
ATOM     28  C   UNL     1      -2.543  26.194 -26.944  1.00  0.00     0.085 A 
ATOM     29  N   UNL     1      -0.653  24.771 -24.293  1.00  0.00    -0.218 NA
ATOM     30  N   UNL     1      -1.784  26.282 -25.796  1.00  0.00    -0.346 N 
ATOM     31  H   UNL     1      -1.534  27.156 -25.312  1.00  0.00     0.167 HD
ENDBRANCH  18  19
ENDBRANCH   1  13
TORSDOF 4
