MODEL 9
REMARK VINA RESULT:    -8.223      1.553      2.570
REMARK INTER + INTRA:         -16.262
REMARK INTER:                 -13.805
REMARK INTRA:                  -2.457
REMARK UNBOUND:                -2.750
REMARK SMILES CC1=C(C2=C(C)C(=O)c3c(cc(O)c(O)c3CCCc3ccccc3)C2=O)C(=O)c2cc(O)c(O)c(CCCc3ccccc3)c2C1=O
REMARK SMILES IDX 1 1 2 2 3 3 28 4 29 5 30 6 31 7 32 8 34 9 36 10 46 11 47 12
REMARK SMILES IDX 48 13 4 14 5 15 26 16 7 17 10 18 27 19 8 20 9 21 11 22 16 23
REMARK SMILES IDX 12 24 14 25 6 26 17 27 18 28 19 29 20 30 21 31 25 32 22 33
REMARK SMILES IDX 24 34 23 35 13 36 15 38 37 40 38 41 39 42 40 43 41 44 45 45
REMARK SMILES IDX 42 46 44 47 43 48 35 49 33 51
REMARK H PARENT 13 37 15 39 35 50 33 52
ROOT
ATOM      1  C   UNL     1     -16.542   7.566  19.740  1.00  0.00     0.049 C 
ATOM      2  C   UNL     1     -17.531   7.972  20.800  1.00  0.00     0.009 C 
ATOM      3  C   UNL     1     -17.704   7.345  21.977  1.00  0.00     0.041 C 
ATOM      4  C   UNL     1     -18.700   7.845  22.961  1.00  0.00     0.195 C 
ATOM      5  O   UNL     1     -18.741   7.386  24.100  1.00  0.00    -0.289 OA
ATOM      6  C   UNL     1     -19.628   8.911  22.545  1.00  0.00     0.038 A 
ATOM      7  C   UNL     1     -20.646   9.264  23.434  1.00  0.00     0.063 A 
ATOM      8  C   UNL     1     -21.527  10.268  23.082  1.00  0.00     0.158 A 
ATOM      9  C   UNL     1     -21.431  10.914  21.852  1.00  0.00     0.161 A 
ATOM     10  C   UNL     1     -20.444  10.554  20.916  1.00  0.00     0.010 A 
ATOM     11  C   UNL     1     -19.501   9.553  21.302  1.00  0.00     0.040 A 
ATOM     12  C   UNL     1     -18.341   9.174  20.445  1.00  0.00     0.190 C 
ATOM     13  O   UNL     1     -18.018   9.832  19.464  1.00  0.00    -0.289 OA
ENDROOT
BRANCH   3  14
ATOM     14  C   UNL     1     -16.960   6.146  22.362  1.00  0.00     0.041 C 
ATOM     15  C   UNL     1     -17.375   4.895  22.099  1.00  0.00     0.009 C 
ATOM     16  C   UNL     1     -15.668   6.383  23.057  1.00  0.00     0.195 C 
ATOM     17  C   UNL     1     -16.551   3.711  22.485  1.00  0.00     0.190 C 
ATOM     18  C   UNL     1     -14.905   5.223  23.554  1.00  0.00     0.038 A 
ATOM     19  O   UNL     1     -15.256   7.523  23.249  1.00  0.00    -0.289 OA
ATOM     20  O   UNL     1     -16.911   2.602  22.111  1.00  0.00    -0.289 OA
ATOM     21  C   UNL     1     -15.323   3.904  23.309  1.00  0.00     0.040 A 
ATOM     22  C   UNL     1     -13.751   5.500  24.307  1.00  0.00     0.063 A 
ATOM     23  C   UNL     1     -14.568   2.825  23.845  1.00  0.00     0.010 A 
ATOM     24  C   UNL     1     -13.019   4.452  24.826  1.00  0.00     0.158 A 
ATOM     25  C   UNL     1     -13.422   3.139  24.602  1.00  0.00     0.161 A 
ATOM     26  C   UNL     1     -18.653   4.547  21.378  1.00  0.00     0.049 C 
BRANCH  23  27
ATOM     27  C   UNL     1     -14.897   1.353  23.665  1.00  0.00     0.041 C 
BRANCH  27  28
ATOM     28  C   UNL     1     -14.301   0.730  22.392  1.00  0.00     0.010 C 
BRANCH  28  29
ATOM     29  C   UNL     1     -13.177  -0.271  22.659  1.00  0.00     0.036 C 
BRANCH  29  30
ATOM     30  C   UNL     1     -13.686  -1.692  22.610  1.00  0.00    -0.048 A 
ATOM     31  C   UNL     1     -13.904  -2.327  21.380  1.00  0.00     0.004 A 
ATOM     32  C   UNL     1     -13.971  -2.385  23.794  1.00  0.00     0.004 A 
ATOM     33  C   UNL     1     -14.387  -3.637  21.336  1.00  0.00     0.000 A 
ATOM     34  C   UNL     1     -14.456  -3.693  23.747  1.00  0.00     0.000 A 
ATOM     35  C   UNL     1     -14.661  -4.318  22.519  1.00  0.00     0.000 A 
ENDBRANCH  29  30
ENDBRANCH  28  29
ENDBRANCH  27  28
ENDBRANCH  23  27
BRANCH  24  36
ATOM     36  O   UNL     1     -11.893   4.655  25.574  1.00  0.00    -0.504 OA
ATOM     37  H   UNL     1     -11.475   3.794  25.747  1.00  0.00     0.293 HD
ENDBRANCH  24  36
BRANCH  25  38
ATOM     38  O   UNL     1     -12.662   2.139  25.153  1.00  0.00    -0.504 OA
ATOM     39  H   UNL     1     -12.036   2.592  25.754  1.00  0.00     0.293 HD
ENDBRANCH  25  38
ENDBRANCH   3  14
BRANCH  10  40
ATOM     40  C   UNL     1     -20.416  11.217  19.553  1.00  0.00     0.041 C 
BRANCH  40  41
ATOM     41  C   UNL     1     -21.093  10.367  18.475  1.00  0.00     0.010 C 
BRANCH  41  42
ATOM     42  C   UNL     1     -22.150  11.180  17.727  1.00  0.00     0.036 C 
BRANCH  42  43
ATOM     43  C   UNL     1     -23.437  11.278  18.506  1.00  0.00    -0.048 A 
ATOM     44  C   UNL     1     -23.994  10.135  19.094  1.00  0.00     0.004 A 
ATOM     45  C   UNL     1     -24.104  12.504  18.639  1.00  0.00     0.004 A 
ATOM     46  C   UNL     1     -25.185  10.217  19.817  1.00  0.00     0.000 A 
ATOM     47  C   UNL     1     -25.296  12.583  19.361  1.00  0.00     0.000 A 
ATOM     48  C   UNL     1     -25.836  11.442  19.954  1.00  0.00     0.000 A 
ENDBRANCH  42  43
ENDBRANCH  41  42
ENDBRANCH  40  41
ENDBRANCH  10  40
BRANCH   9  49
ATOM     49  O   UNL     1     -22.364  11.903  21.652  1.00  0.00    -0.504 OA
ATOM     50  H   UNL     1     -22.831  11.765  20.815  1.00  0.00     0.293 HD
ENDBRANCH   9  49
BRANCH   8  51
ATOM     51  O   UNL     1     -22.516  10.615  23.956  1.00  0.00    -0.504 OA
ATOM     52  H   UNL     1     -22.894  11.443  23.596  1.00  0.00     0.293 HD
ENDBRANCH   8  51
TORSDOF 13
ENDMDL
