MODEL 9
REMARK VINA RESULT:    -9.345      2.213      3.381
REMARK INTER + INTRA:         -14.965
REMARK INTER:                 -14.241
REMARK INTRA:                  -0.724
REMARK UNBOUND:                -0.977
REMARK SMILES C[C@]1(C(=O)O)CCc2ccc(OCCCOc3ccc(C4CCCC4)cc3Cl)cc2O1
REMARK SMILES IDX 13 1 12 2 11 3 2 4 6 5 31 6 7 7 30 8 8 9 29 10 9 11 10 12
REMARK SMILES IDX 1 13 3 14 4 15 5 16 14 18 15 19 16 20 17 21 18 22 27 23
REMARK SMILES IDX 19 24 26 25 20 26 28 27 21 28 22 29 25 30 23 31 24 32
REMARK H PARENT 5 17
ROOT
ATOM      1  C   UNL     1      36.584   2.088 131.941  1.00  0.00     0.233 C 
ENDROOT
BRANCH   1   2
ATOM      2  O   UNL     1      37.635   2.727 131.215  1.00  0.00    -0.493 OA
BRANCH   2   3
ATOM      3  C   UNL     1      38.757   1.987 130.959  1.00  0.00     0.123 A 
ATOM      4  C   UNL     1      43.277   1.234 132.437  1.00  0.00     0.203 C 
ATOM      5  C   UNL     1      43.252  -0.162 131.800  1.00  0.00     0.065 C 
ATOM      6  O   UNL     1      41.950   1.732 132.681  1.00  0.00    -0.475 OA
ATOM      7  C   UNL     1      42.467  -0.158 130.499  1.00  0.00     0.044 C 
ATOM      8  C   UNL     1      41.002   1.479 131.728  1.00  0.00     0.127 A 
ATOM      9  C   UNL     1      41.177   0.585 130.671  1.00  0.00    -0.005 A 
ATOM     10  C   UNL     1      39.795   2.164 131.875  1.00  0.00     0.093 A 
ATOM     11  C   UNL     1      40.140   0.415 129.746  1.00  0.00     0.011 A 
ATOM     12  C   UNL     1      38.935   1.109 129.890  1.00  0.00     0.047 A 
ATOM     13  C   UNL     1      44.044   2.274 131.608  1.00  0.00     0.069 C 
BRANCH   4  14
ATOM     14  C   UNL     1      43.957   1.124 133.810  1.00  0.00     0.347 C 
ATOM     15  O   UNL     1      44.567   0.171 134.270  1.00  0.00    -0.248 OA
BRANCH  14  16
ATOM     16  O   UNL     1      43.837   2.246 134.559  1.00  0.00    -0.478 OA
ATOM     17  H   UNL     1      44.467   2.091 135.295  1.00  0.00     0.296 HD
ENDBRANCH  14  16
ENDBRANCH   4  14
ENDBRANCH   2   3
ENDBRANCH   1   2
BRANCH   1  18
ATOM     18  C   UNL     1      36.773   2.390 133.427  1.00  0.00     0.083 C 
BRANCH  18  19
ATOM     19  C   UNL     1      36.956   1.117 134.255  1.00  0.00     0.233 C 
BRANCH  19  20
ATOM     20  O   UNL     1      35.890   0.937 135.186  1.00  0.00    -0.492 OA
BRANCH  20  21
ATOM     21  C   UNL     1      35.933   1.556 136.406  1.00  0.00     0.137 A 
ATOM     22  C   UNL     1      36.796   2.602 136.741  1.00  0.00     0.048 A 
ATOM     23  C   UNL     1      35.029   1.099 137.378  1.00  0.00     0.083 A 
ATOM     24  C   UNL     1      36.759   3.175 138.021  1.00  0.00     0.008 A 
ATOM     25  C   UNL     1      34.995   1.671 138.654  1.00  0.00     0.028 A 
ATOM     26  C   UNL     1      35.857   2.723 138.992  1.00  0.00    -0.043 A 
ATOM     27  Cl  UNL     1      33.936  -0.202 137.048  1.00  0.00    -0.080 Cl
BRANCH  26  28
ATOM     28  C   UNL     1      35.851   3.353 140.367  1.00  0.00     0.019 C 
ATOM     29  C   UNL     1      35.980   2.353 141.535  1.00  0.00     0.008 C 
ATOM     30  C   UNL     1      36.999   4.360 140.554  1.00  0.00     0.008 C 
ATOM     31  C   UNL     1      37.279   2.714 142.247  1.00  0.00     0.001 C 
ATOM     32  C   UNL     1      37.416   4.207 142.008  1.00  0.00     0.001 C 
ENDBRANCH  26  28
ENDBRANCH  20  21
ENDBRANCH  19  20
ENDBRANCH  18  19
ENDBRANCH   1  18
TORSDOF 9
ENDMDL
