MODEL 9
REMARK VINA RESULT:    -9.833      2.286      3.310
REMARK INTER + INTRA:         -14.586
REMARK INTER:                 -13.713
REMARK INTRA:                  -0.874
REMARK UNBOUND:                -0.730
REMARK SMILES C[C@H](C(=O)Nc1cccc2c(-c3nc(Nc4cccc(S(C)(=O)=O)c4F)ncc3F)c[nH]c12)N1C[C@H](C)N[C@@H](C)C1
REMARK SMILES IDX 6 1 7 2 8 3 9 4 10 5 11 6 31 7 32 8 33 9 5 11 3 12 4 13 2 15
REMARK SMILES IDX 1 16 34 17 35 18 41 19 36 20 39 21 38 22 37 23 40 24 12 26
REMARK SMILES IDX 13 27 29 28 14 29 28 30 27 31 30 32 15 33 16 35 17 36 25 37
REMARK SMILES IDX 18 38 20 39 19 40 26 41 21 42 23 43 24 44 22 45
REMARK H PARENT 32 10 5 14 38 25 15 34
ROOT
ATOM      1  C   UNL     1       9.375 -25.124  24.092  1.00  0.00     0.065 A 
ATOM      2  C   UNL     1       9.513 -23.774  23.724  1.00  0.00     0.028 A 
ATOM      3  C   UNL     1       8.510 -23.091  23.042  1.00  0.00     0.003 A 
ATOM      4  C   UNL     1       7.325 -23.741  22.701  1.00  0.00     0.011 A 
ATOM      5  C   UNL     1       7.144 -25.101  23.037  1.00  0.00     0.011 A 
ATOM      6  C   UNL     1       6.072 -26.041  22.838  1.00  0.00     0.029 A 
ATOM      7  C   UNL     1       6.494 -27.235  23.390  1.00  0.00     0.094 A 
ATOM      8  N   UNL     1       7.739 -27.047  23.921  1.00  0.00    -0.359 N 
ATOM      9  C   UNL     1       8.175 -25.757  23.725  1.00  0.00     0.070 A 
ATOM     10  H   UNL     1       8.304 -27.755  24.383  1.00  0.00     0.166 HD
ENDROOT
BRANCH   1  11
ATOM     11  N   UNL     1      10.444 -25.693  24.804  1.00  0.00    -0.323 N 
ATOM     12  C   UNL     1      10.456 -26.356  26.021  1.00  0.00     0.241 C 
ATOM     13  O   UNL     1       9.480 -26.598  26.726  1.00  0.00    -0.273 OA
ATOM     14  H   UNL     1      11.356 -25.687  24.353  1.00  0.00     0.170 HD
BRANCH  12  15
ATOM     15  C   UNL     1      11.905 -26.706  26.462  1.00  0.00     0.143 C 
ATOM     16  C   UNL     1      12.505 -27.797  25.575  1.00  0.00     0.035 C 
BRANCH  15  17
ATOM     17  N   UNL     1      12.705 -25.464  26.594  1.00  0.00    -0.289 NA
ATOM     18  C   UNL     1      14.168 -25.645  26.636  1.00  0.00     0.104 C 
ATOM     19  C   UNL     1      12.209 -24.556  27.634  1.00  0.00     0.104 C 
ATOM     20  C   UNL     1      14.920 -25.064  27.868  1.00  0.00     0.064 C 
ATOM     21  C   UNL     1      13.140 -23.343  27.892  1.00  0.00     0.064 C 
ATOM     22  N   UNL     1      14.529 -23.691  28.238  1.00  0.00    -0.309 NA
ATOM     23  C   UNL     1      14.835 -25.992  29.087  1.00  0.00     0.026 C 
ATOM     24  C   UNL     1      13.167 -22.387  26.695  1.00  0.00     0.026 C 
ATOM     25  H   UNL     1      14.687 -23.540  29.233  1.00  0.00     0.123 HD
ENDBRANCH  15  17
ENDBRANCH  12  15
ENDBRANCH   1  11
BRANCH   6  26
ATOM     26  C   UNL     1       4.784 -25.856  22.172  1.00  0.00     0.114 A 
ATOM     27  N   UNL     1       4.617 -24.661  21.551  1.00  0.00    -0.210 NA
ATOM     28  C   UNL     1       3.796 -26.818  22.175  1.00  0.00     0.167 A 
ATOM     29  C   UNL     1       3.453 -24.425  20.926  1.00  0.00     0.228 A 
ATOM     30  C   UNL     1       2.644 -26.491  21.510  1.00  0.00     0.156 A 
ATOM     31  N   UNL     1       2.448 -25.313  20.884  1.00  0.00    -0.218 NA
ATOM     32  F   UNL     1       3.906 -28.001  22.790  1.00  0.00    -0.203 F 
BRANCH  29  33
ATOM     33  N   UNL     1       3.351 -23.176  20.329  1.00  0.00    -0.322 N 
ATOM     34  H   UNL     1       2.481 -23.107  19.815  1.00  0.00     0.170 HD
BRANCH  33  35
ATOM     35  C   UNL     1       4.189 -22.055  20.250  1.00  0.00     0.078 A 
ATOM     36  C   UNL     1       5.526 -22.103  19.843  1.00  0.00     0.029 A 
ATOM     37  C   UNL     1       3.660 -20.799  20.591  1.00  0.00     0.165 A 
ATOM     38  C   UNL     1       6.306 -20.942  19.779  1.00  0.00     0.004 A 
ATOM     39  C   UNL     1       4.429 -19.639  20.523  1.00  0.00     0.104 A 
ATOM     40  C   UNL     1       5.761 -19.703  20.117  1.00  0.00     0.023 A 
ATOM     41  F   UNL     1       2.378 -20.740  20.987  1.00  0.00    -0.203 F 
BRANCH  39  42
ATOM     42  S   UNL     1       3.635 -18.126  20.954  1.00  0.00     0.178 S 
ATOM     43  O   UNL     1       3.571 -18.083  22.402  1.00  0.00    -0.224 OA
ATOM     44  O   UNL     1       2.445 -18.022  20.131  1.00  0.00    -0.224 OA
ATOM     45  C   UNL     1       4.706 -16.809  20.449  1.00  0.00     0.164 C 
ENDBRANCH  39  42
ENDBRANCH  33  35
ENDBRANCH  29  33
ENDBRANCH   6  26
TORSDOF 7
ENDMDL
