REMARK VINA RESULT:    -8.078      4.580      7.791
REMARK INTER + INTRA:         -10.691
REMARK INTER:                  -9.880
REMARK INTRA:                  -0.811
REMARK UNBOUND:                -0.725
REMARK SMILES C/C=C/C(=O)Nc1ccc2ncnc(Nc3cccc(Br)c3)c2c1
REMARK SMILES IDX 7 1 8 2 9 3 10 4 11 5 12 6 13 7 14 8 23 9 24 10 6 11 4 12
REMARK SMILES IDX 5 13 3 15 2 16 1 17 15 18 16 20 17 21 22 22 18 23 20 24
REMARK SMILES IDX 19 25 21 26
REMARK H PARENT 6 14 15 19
ROOT
ATOM      1  C   UNL     1      14.121   0.794  28.368  1.00  0.00     0.042 A 
ATOM      2  C   UNL     1      14.556  -0.527  28.440  1.00  0.00     0.028 A 
ATOM      3  C   UNL     1      15.698  -0.934  27.741  1.00  0.00     0.031 A 
ATOM      4  C   UNL     1      16.433  -0.054  26.959  1.00  0.00     0.076 A 
ATOM      5  N   UNL     1      17.511  -0.520  26.327  1.00  0.00    -0.236 NA
ATOM      6  C   UNL     1      18.199   0.360  25.595  1.00  0.00     0.224 A 
ATOM      7  N   UNL     1      17.905   1.652  25.431  1.00  0.00    -0.219 NA
ATOM      8  C   UNL     1      16.806   2.114  26.056  1.00  0.00     0.141 A 
ATOM      9  C   UNL     1      16.012   1.280  26.872  1.00  0.00     0.045 A 
ATOM     10  C   UNL     1      14.857   1.691  27.595  1.00  0.00     0.040 A 
ENDROOT
BRANCH   1  11
ATOM     11  N   UNL     1      12.961   1.138  29.094  1.00  0.00    -0.322 N 
ATOM     12  C   UNL     1      12.903   1.770  30.321  1.00  0.00     0.248 C 
ATOM     13  O   UNL     1      13.847   2.178  30.984  1.00  0.00    -0.270 OA
ATOM     14  H   UNL     1      12.082   0.910  28.648  1.00  0.00     0.170 HD
BRANCH  12  15
ATOM     15  C   UNL     1      11.496   1.940  30.791  1.00  0.00     0.067 C 
ATOM     16  C   UNL     1      11.131   1.521  32.012  1.00  0.00    -0.025 C 
ATOM     17  C   UNL     1       9.748   1.647  32.561  1.00  0.00     0.036 C 
ENDBRANCH  12  15
ENDBRANCH   1  11
BRANCH   8  18
ATOM     18  N   UNL     1      16.452   3.473  25.898  1.00  0.00    -0.340 N 
ATOM     19  H   UNL     1      16.873   4.071  26.597  1.00  0.00     0.168 HD
BRANCH  18  20
ATOM     20  C   UNL     1      15.417   4.083  25.166  1.00  0.00     0.041 A 
ATOM     21  C   UNL     1      14.900   3.416  24.043  1.00  0.00     0.026 A 
ATOM     22  C   UNL     1      14.839   5.306  25.526  1.00  0.00     0.041 A 
ATOM     23  C   UNL     1      13.857   3.961  23.288  1.00  0.00     0.003 A 
ATOM     24  C   UNL     1      13.798   5.851  24.771  1.00  0.00     0.020 A 
ATOM     25  C   UNL     1      13.306   5.186  23.651  1.00  0.00     0.016 A 
ATOM     26  Br  UNL     1      13.041   7.509  25.279  1.00  0.00    -0.051 Br
ENDBRANCH  18  20
ENDBRANCH   8  18
TORSDOF 4
