REMARK VINA RESULT:    -8.216      6.881     10.156
REMARK INTER + INTRA:         -10.861
REMARK INTER:                 -10.075
REMARK INTRA:                  -0.787
REMARK UNBOUND:                -0.725
REMARK SMILES C/C=C/C(=O)Nc1ccc2ncnc(Nc3cccc(Br)c3)c2c1
REMARK SMILES IDX 7 1 8 2 9 3 10 4 11 5 12 6 13 7 14 8 23 9 24 10 6 11 4 12
REMARK SMILES IDX 5 13 3 15 2 16 1 17 15 18 16 20 17 21 22 22 18 23 20 24
REMARK SMILES IDX 19 25 21 26
REMARK H PARENT 6 14 15 19
ROOT
ATOM      1  C   UNL     1      17.737   1.821  25.361  1.00  0.00     0.042 A 
ATOM      2  C   UNL     1      18.284   0.545  25.470  1.00  0.00     0.028 A 
ATOM      3  C   UNL     1      17.668  -0.420  26.275  1.00  0.00     0.031 A 
ATOM      4  C   UNL     1      16.508  -0.152  26.986  1.00  0.00     0.076 A 
ATOM      5  N   UNL     1      15.982  -1.128  27.728  1.00  0.00    -0.236 NA
ATOM      6  C   UNL     1      14.857  -0.836  28.387  1.00  0.00     0.224 A 
ATOM      7  N   UNL     1      14.221   0.338  28.380  1.00  0.00    -0.219 NA
ATOM      8  C   UNL     1      14.765   1.325  27.645  1.00  0.00     0.141 A 
ATOM      9  C   UNL     1      15.941   1.126  26.891  1.00  0.00     0.045 A 
ATOM     10  C   UNL     1      16.564   2.100  26.061  1.00  0.00     0.040 A 
ENDROOT
BRANCH   1  11
ATOM     11  N   UNL     1      18.409   2.749  24.536  1.00  0.00    -0.322 N 
ATOM     12  C   UNL     1      17.979   3.247  23.322  1.00  0.00     0.248 C 
ATOM     13  O   UNL     1      16.921   3.001  22.758  1.00  0.00    -0.270 OA
ATOM     14  H   UNL     1      19.290   3.094  24.894  1.00  0.00     0.170 HD
BRANCH  12  15
ATOM     15  C   UNL     1      18.973   4.187  22.725  1.00  0.00     0.067 C 
ATOM     16  C   UNL     1      19.290   4.108  21.424  1.00  0.00    -0.025 C 
ATOM     17  C   UNL     1      20.275   5.003  20.747  1.00  0.00     0.036 C 
ENDBRANCH  12  15
ENDBRANCH   1  11
BRANCH   8  18
ATOM     18  N   UNL     1      14.130   2.588  27.621  1.00  0.00    -0.340 N 
ATOM     19  H   UNL     1      14.078   3.018  28.535  1.00  0.00     0.168 HD
BRANCH  18  20
ATOM     20  C   UNL     1      13.312   3.196  26.652  1.00  0.00     0.041 A 
ATOM     21  C   UNL     1      12.678   2.383  25.697  1.00  0.00     0.026 A 
ATOM     22  C   UNL     1      13.057   4.571  26.614  1.00  0.00     0.041 A 
ATOM     23  C   UNL     1      11.836   2.926  24.722  1.00  0.00     0.003 A 
ATOM     24  C   UNL     1      12.217   5.114  25.639  1.00  0.00     0.020 A 
ATOM     25  C   UNL     1      11.608   4.298  24.690  1.00  0.00     0.016 A 
ATOM     26  Br  UNL     1      11.897   6.979  25.611  1.00  0.00    -0.051 Br
ENDBRANCH  18  20
ENDBRANCH   8  18
TORSDOF 4
