MODEL 9
REMARK minimizedAffinity -10.0970316
REMARK CNNscore 0.261530966
REMARK CNNaffinity 7.13402176
REMARK SMILES CN1CCN([C@H]2CC[C@H](n3nc(-c4ccc(Nc5nc6cccc(Cl)c6o5)cc4)c4c(N)ncnc43)CC2)CC1
REMARK SMILES IDX 10 1 11 2 12 3 30 4 31 5 33 6 34 7 35 8 36 9 9 10 6 11 38 12
REMARK SMILES IDX 7 13 37 14 8 15 5 16 2 17 3 18 40 19 4 20 39 21 1 22 13 23
REMARK SMILES IDX 14 24 29 25 15 26 28 27 16 28 17 29 18 31 19 32 27 33 20 34
REMARK SMILES IDX 26 35 21 36 24 37 22 38 23 39 25 40 32 41
REMARK H PARENT 17 30 32 42 32 43
ROOT
ATOM      1  N   UNL     1      20.450  34.241  15.638  1.00  0.00    -0.243 N 
ATOM      2  N   UNL     1      20.311  34.036  14.310  1.00  0.00    -0.170 NA
ATOM      3  C   UNL     1      18.981  34.015  14.114  1.00  0.00     0.106 A 
ATOM      4  C   UNL     1      18.264  34.199  15.331  1.00  0.00     0.089 A 
ATOM      5  C   UNL     1      16.936  34.265  15.769  1.00  0.00     0.138 A 
ATOM      6  N   UNL     1      16.699  34.401  17.089  1.00  0.00    -0.219 NA
ATOM      7  C   UNL     1      17.750  34.486  17.930  1.00  0.00     0.226 A 
ATOM      8  N   UNL     1      19.059  34.452  17.624  1.00  0.00    -0.217 NA
ATOM      9  C   UNL     1      19.248  34.305  16.301  1.00  0.00     0.164 A 
ENDROOT
BRANCH   1  10
ATOM     10  C   UNL     1      21.772  34.399  16.245  1.00  0.00     0.110 C 
ATOM     11  C   UNL     1      22.362  34.867  19.211  1.00  0.00     0.057 C 
ATOM     12  C   UNL     1      21.614  35.884  18.309  1.00  0.00     0.021 C 
ATOM     13  C   UNL     1      22.981  33.712  18.391  1.00  0.00     0.021 C 
ATOM     14  C   UNL     1      22.037  35.800  16.842  1.00  0.00     0.029 C 
ATOM     15  C   UNL     1      22.038  33.274  17.270  1.00  0.00     0.029 C 
BRANCH  11  16
ATOM     16  N   UNL     1      23.273  35.538  20.157  1.00  0.00    -0.298 NA
ATOM     17  N   UNL     1      25.529  37.159  21.175  1.00  0.00    -0.304 NA
ATOM     18  C   UNL     1      24.127  37.607  21.269  1.00  0.00     0.099 C 
ATOM     19  C   UNL     1      25.570  35.684  21.152  1.00  0.00     0.099 C 
ATOM     20  C   UNL     1      23.239  37.012  20.148  1.00  0.00     0.100 C 
ATOM     21  C   UNL     1      24.672  35.083  20.040  1.00  0.00     0.100 C 
ATOM     22  C   UNL     1      26.317  37.684  22.289  1.00  0.00     0.105 C 
ENDBRANCH  11  16
ENDBRANCH   1  10
BRANCH   3  23
ATOM     23  C   UNL     1      18.426  33.764  12.796  1.00  0.00     0.003 A 
ATOM     24  C   UNL     1      17.268  34.438  12.396  1.00  0.00     0.012 A 
ATOM     25  C   UNL     1      19.061  32.899  11.906  1.00  0.00     0.012 A 
ATOM     26  C   UNL     1      16.782  34.278  11.095  1.00  0.00     0.027 A 
ATOM     27  C   UNL     1      18.553  32.729  10.611  1.00  0.00     0.027 A 
ATOM     28  C   UNL     1      17.429  33.440  10.173  1.00  0.00     0.042 A 
BRANCH  28  29
ATOM     29  N   UNL     1      16.876  33.329   8.886  1.00  0.00    -0.309 N 
ATOM     30  H   UNL     1      17.012  34.155   8.314  1.00  0.00     0.171 HD
BRANCH  29  31
ATOM     31  C   UNL     1      16.533  32.226   8.200  1.00  0.00     0.300 A 
ATOM     32  N   UNL     1      15.340  31.662   8.173  1.00  0.00    -0.193 NA
ATOM     33  O   UNL     1      17.496  31.555   7.503  1.00  0.00    -0.422 OA
ATOM     34  C   UNL     1      15.533  30.529   7.427  1.00  0.00     0.113 A 
ATOM     35  C   UNL     1      16.858  30.447   7.025  1.00  0.00     0.175 A 
ATOM     36  C   UNL     1      14.647  29.504   7.069  1.00  0.00     0.032 A 
ATOM     37  C   UNL     1      17.372  29.405   6.262  1.00  0.00     0.086 A 
ATOM     38  C   UNL     1      15.138  28.430   6.308  1.00  0.00     0.004 A 
ATOM     39  C   UNL     1      16.482  28.383   5.914  1.00  0.00     0.024 A 
ATOM     40  Cl  UNL     1      19.015  29.354   5.773  1.00  0.00    -0.080 Cl
ENDBRANCH  29  31
ENDBRANCH  28  29
ENDBRANCH   3  23
BRANCH   5  41
ATOM     41  N   UNL     1      15.831  34.195  14.941  1.00  0.00    -0.383 N 
ATOM     42  H   UNL     1      14.977  33.971  15.435  1.00  0.00     0.158 HD
ATOM     43  H   UNL     1      15.955  33.805  14.012  1.00  0.00     0.158 HD
ENDBRANCH   5  41
TORSDOF 6
ENDMDL
