MODEL 8
REMARK VINA RESULT:    -8.696      2.339      3.426
REMARK INTER + INTRA:         -22.433
REMARK INTER:                 -18.916
REMARK INTRA:                  -3.516
REMARK UNBOUND:                -3.824
REMARK SMILES Cc1cc(C(=O)NS(=O)(=O)c2ccc(N[C@H](CCN(C)C)CSc3ccccc3)c([N+](=O)[O-])c2)cc(C)c1-c1cccc2c(CCCOc3cccc4ccccc34)c(C(=O)O)nn12
REMARK SMILES IDX 5 1 6 2 7 3 4 5 2 6 3 7 38 8 36 9 35 10 1 11 37 12 39 13
REMARK SMILES IDX 40 14 64 15 41 16 63 17 43 18 42 19 59 20 44 21 60 22 61 23
REMARK SMILES IDX 62 24 45 26 46 27 47 28 48 29 49 30 50 31 58 32 51 33 57 34
REMARK SMILES IDX 53 35 52 36 56 37 54 38 55 39 8 40 9 41 10 42 11 43 12 44
REMARK SMILES IDX 34 45 13 46 30 47 14 48 31 49 32 50 33 51 15 52 16 54 17 55
REMARK SMILES IDX 18 56 19 57 20 58 21 59 22 60 23 61 24 62 25 63 29 64 26 65
REMARK SMILES IDX 28 66 27 67
REMARK H PARENT 7 4 62 25 15 53
ROOT
ATOM      1  C   UNL     1      34.569   9.855 -47.875  1.00  0.00     0.265 C 
ATOM      2  O   UNL     1      33.912   9.557 -48.859  1.00  0.00    -0.268 OA
ATOM      3  N   UNL     1      34.258   9.447 -46.574  1.00  0.00    -0.245 N 
ATOM      4  H   UNL     1      34.636   9.935 -45.768  1.00  0.00     0.183 HD
ENDROOT
BRANCH   1   5
ATOM      5  C   UNL     1      35.782  10.703 -47.991  1.00  0.00     0.041 A 
ATOM      6  C   UNL     1      37.425  12.217 -47.020  1.00  0.00    -0.041 A 
ATOM      7  C   UNL     1      36.226  11.490 -46.924  1.00  0.00     0.018 A 
ATOM      8  C   UNL     1      38.174  12.177 -48.222  1.00  0.00     0.006 A 
ATOM      9  C   UNL     1      37.699  11.416 -49.319  1.00  0.00    -0.041 A 
ATOM     10  C   UNL     1      36.517  10.667 -49.180  1.00  0.00     0.018 A 
ATOM     11  C   UNL     1      37.886  13.009 -45.819  1.00  0.00     0.045 C 
ATOM     12  C   UNL     1      38.445  11.334 -50.624  1.00  0.00     0.045 C 
BRANCH   8  13
ATOM     13  C   UNL     1      39.498  12.838 -48.291  1.00  0.00     0.073 A 
ATOM     14  C   UNL     1      39.557  14.112 -48.735  1.00  0.00     0.029 A 
ATOM     15  N   UNL     1      40.700  12.176 -47.944  1.00  0.00    -0.232 N 
ATOM     16  C   UNL     1      40.839  14.778 -48.836  1.00  0.00     0.004 A 
ATOM     17  N   UNL     1      40.849  10.907 -47.491  1.00  0.00    -0.160 NA
ATOM     18  C   UNL     1      41.944  12.801 -48.055  1.00  0.00     0.071 A 
ATOM     19  C   UNL     1      41.981  14.151 -48.510  1.00  0.00     0.029 A 
ATOM     20  C   UNL     1      42.174  10.692 -47.379  1.00  0.00     0.174 A 
ATOM     21  C   UNL     1      42.910  11.886 -47.678  1.00  0.00     0.013 A 
BRANCH  20  22
ATOM     22  C   UNL     1      42.668   9.358 -46.998  1.00  0.00     0.356 C 
ATOM     23  O   UNL     1      43.620   8.767 -47.498  1.00  0.00    -0.244 OA
BRANCH  22  24
ATOM     24  O   UNL     1      42.022   8.785 -45.956  1.00  0.00    -0.476 OA
ATOM     25  H   UNL     1      41.082   8.973 -46.153  1.00  0.00     0.297 HD
ENDBRANCH  22  24
ENDBRANCH  20  22
BRANCH  21  26
ATOM     26  C   UNL     1      44.387  12.129 -47.628  1.00  0.00     0.044 C 
BRANCH  26  27
ATOM     27  C   UNL     1      44.833  12.991 -46.439  1.00  0.00     0.046 C 
BRANCH  27  28
ATOM     28  C   UNL     1      45.546  12.218 -45.327  1.00  0.00     0.230 C 
BRANCH  28  29
ATOM     29  O   UNL     1      45.215  12.709 -44.031  1.00  0.00    -0.493 OA
BRANCH  29  30
ATOM     30  C   UNL     1      45.867  13.808 -43.527  1.00  0.00     0.127 A 
ATOM     31  C   UNL     1      47.121  14.251 -43.958  1.00  0.00     0.047 A 
ATOM     32  C   UNL     1      45.191  14.508 -42.493  1.00  0.00     0.024 A 
ATOM     33  C   UNL     1      47.719  15.367 -43.371  1.00  0.00     0.004 A 
ATOM     34  C   UNL     1      43.911  14.134 -42.028  1.00  0.00     0.012 A 
ATOM     35  C   UNL     1      45.810  15.634 -41.896  1.00  0.00    -0.015 A 
ATOM     36  C   UNL     1      47.070  16.051 -42.347  1.00  0.00     0.009 A 
ATOM     37  C   UNL     1      43.270  14.836 -41.006  1.00  0.00     0.001 A 
ATOM     38  C   UNL     1      45.155  16.329 -40.865  1.00  0.00     0.009 A 
ATOM     39  C   UNL     1      43.895  15.930 -40.421  1.00  0.00     0.001 A 
ENDBRANCH  29  30
ENDBRANCH  28  29
ENDBRANCH  27  28
ENDBRANCH  26  27
ENDBRANCH  21  26
ENDBRANCH   8  13
ENDBRANCH   1   5
BRANCH   3  40
ATOM     40  S   UNL     1      33.143   8.287 -46.173  1.00  0.00     0.264 S 
ATOM     41  O   UNL     1      33.489   7.866 -44.832  1.00  0.00    -0.201 OA
ATOM     42  O   UNL     1      33.077   7.324 -47.248  1.00  0.00    -0.201 OA
BRANCH  40  43
ATOM     43  C   UNL     1      31.589   9.135 -46.070  1.00  0.00     0.094 A 
ATOM     44  C   UNL     1      30.402   8.453 -46.332  1.00  0.00     0.025 A 
ATOM     45  C   UNL     1      31.565  10.503 -45.807  1.00  0.00     0.110 A 
ATOM     46  C   UNL     1      29.180   9.141 -46.311  1.00  0.00     0.034 A 
ATOM     47  C   UNL     1      30.332  11.178 -45.784  1.00  0.00     0.293 A 
ATOM     48  C   UNL     1      29.107  10.524 -46.065  1.00  0.00     0.113 A 
BRANCH  47  49
ATOM     49  N   UNL     1      30.371  12.616 -45.501  1.00  0.00     0.065 N 
ATOM     50  O   UNL     1      30.245  13.397 -46.459  1.00  0.00    -0.258 OA
ATOM     51  O   UNL     1      30.553  12.968 -44.328  1.00  0.00    -0.258 OA
ENDBRANCH  47  49
BRANCH  48  52
ATOM     52  N   UNL     1      27.870  11.175 -45.974  1.00  0.00    -0.376 N 
ATOM     53  H   UNL     1      27.395  11.251 -46.885  1.00  0.00     0.161 HD
BRANCH  52  54
ATOM     54  C   UNL     1      26.871  10.866 -44.927  1.00  0.00     0.091 C 
BRANCH  54  55
ATOM     55  C   UNL     1      25.546  11.607 -45.215  1.00  0.00     0.041 C 
BRANCH  55  56
ATOM     56  C   UNL     1      25.588  12.401 -46.532  1.00  0.00     0.086 C 
BRANCH  56  57
ATOM     57  N   UNL     1      25.720  13.861 -46.426  1.00  0.00    -0.309 NA
ATOM     58  C   UNL     1      25.620  14.336 -45.048  1.00  0.00     0.104 C 
ATOM     59  C   UNL     1      26.923  14.381 -47.067  1.00  0.00     0.104 C 
ENDBRANCH  56  57
ENDBRANCH  55  56
ENDBRANCH  54  55
BRANCH  54  60
ATOM     60  C   UNL     1      27.492  11.184 -43.540  1.00  0.00     0.099 C 
BRANCH  60  61
ATOM     61  S   UNL     1      26.295  11.667 -42.231  1.00  0.00    -0.124 SA
BRANCH  61  62
ATOM     62  C   UNL     1      27.164  12.982 -41.402  1.00  0.00     0.007 A 
ATOM     63  C   UNL     1      27.902  13.896 -42.162  1.00  0.00     0.015 A 
ATOM     64  C   UNL     1      27.199  13.070 -40.006  1.00  0.00     0.015 A 
ATOM     65  C   UNL     1      28.637  14.905 -41.538  1.00  0.00     0.001 A 
ATOM     66  C   UNL     1      27.939  14.074 -39.382  1.00  0.00     0.001 A 
ATOM     67  C   UNL     1      28.657  14.992 -40.147  1.00  0.00     0.000 A 
ENDBRANCH  61  62
ENDBRANCH  60  61
ENDBRANCH  54  60
ENDBRANCH  52  54
ENDBRANCH  48  52
ENDBRANCH  40  43
ENDBRANCH   3  40
TORSDOF 20
ENDMDL
