MODEL 1
REMARK VINA RESULT:    -9.162      0.000      0.000
REMARK INTER + INTRA:         -11.738
REMARK INTER:                 -11.305
REMARK INTRA:                  -0.433
REMARK UNBOUND:                -0.433
REMARK SMILES CC(=O)Nc1cc2c(-c3cccc(S(=O)(=O)N(C)C)n3)cn(C)c2cn1
REMARK SMILES IDX 9 1 10 2 11 3 12 4 13 5 20 6 8 7 5 8 6 9 26 10 7 11 25 12
REMARK SMILES IDX 24 13 21 14 22 15 23 16 4 17 2 18 3 19 1 20 14 22 15 23
REMARK SMILES IDX 16 24 17 25 18 26 19 27
REMARK H PARENT 4 21
ROOT
ATOM      1  C   UNL     1       5.886 -23.360  21.619  1.00  0.00     0.074 A 
ATOM      2  C   UNL     1       7.224 -23.288  21.238  1.00  0.00     0.029 A 
ATOM      3  C   UNL     1       7.835 -22.037  21.130  1.00  0.00     0.005 A 
ATOM      4  C   UNL     1       7.101 -20.893  21.410  1.00  0.00     0.042 A 
ATOM      5  C   UNL     1       5.780 -21.063  21.796  1.00  0.00     0.171 A 
ATOM      6  N   UNL     1       5.148 -22.262  21.903  1.00  0.00    -0.235 NA
ENDROOT
BRANCH   1   7
ATOM      7  C   UNL     1       5.197 -24.636  21.746  1.00  0.00     0.026 A 
ATOM      8  C   UNL     1       6.639 -27.505  23.770  1.00  0.00     0.133 A 
ATOM      9  C   UNL     1       6.657 -26.227  23.230  1.00  0.00     0.058 A 
ATOM     10  N   UNL     1       5.632 -28.381  23.573  1.00  0.00    -0.237 NA
ATOM     11  C   UNL     1       5.554 -25.831  22.452  1.00  0.00     0.014 A 
ATOM     12  C   UNL     1       4.570 -28.025  22.816  1.00  0.00     0.140 A 
ATOM     13  C   UNL     1       4.526 -26.755  22.252  1.00  0.00     0.067 A 
ATOM     14  C   UNL     1       3.984 -24.883  21.127  1.00  0.00     0.096 A 
ATOM     15  N   UNL     1       3.587 -26.152  21.446  1.00  0.00    -0.349 N 
ATOM     16  C   UNL     1       2.358 -26.767  20.993  1.00  0.00     0.149 C 
BRANCH   8  17
ATOM     17  N   UNL     1       7.657 -28.025  24.572  1.00  0.00    -0.311 N 
ATOM     18  C   UNL     1       8.641 -27.346  25.250  1.00  0.00     0.222 C 
ATOM     19  O   UNL     1       8.795 -26.131  25.299  1.00  0.00    -0.275 OA
ATOM     20  C   UNL     1       9.557 -28.276  26.004  1.00  0.00     0.114 C 
ATOM     21  H   UNL     1       7.610 -29.032  24.637  1.00  0.00     0.171 HD
ENDBRANCH   8  17
ENDBRANCH   1   7
BRANCH   5  22
ATOM     22  S   UNL     1       4.748 -19.633  22.132  1.00  0.00     0.260 S 
ATOM     23  O   UNL     1       5.577 -18.459  21.930  1.00  0.00    -0.205 OA
ATOM     24  O   UNL     1       4.092 -19.856  23.405  1.00  0.00    -0.205 OA
BRANCH  22  25
ATOM     25  N   UNL     1       3.566 -19.623  20.896  1.00  0.00    -0.203 NA
ATOM     26  C   UNL     1       4.061 -19.601  19.506  1.00  0.00     0.124 C 
ATOM     27  C   UNL     1       2.420 -18.721  21.109  1.00  0.00     0.124 C 
ENDBRANCH  22  25
ENDBRANCH   5  22
TORSDOF 4
ENDMDL
MODEL 2
REMARK VINA RESULT:    -8.968      2.256      2.863
REMARK INTER + INTRA:         -11.498
REMARK INTER:                 -11.276
REMARK INTRA:                  -0.222
REMARK UNBOUND:                -0.433
REMARK SMILES CC(=O)Nc1cc2c(-c3cccc(S(=O)(=O)N(C)C)n3)cn(C)c2cn1
REMARK SMILES IDX 9 1 10 2 11 3 12 4 13 5 20 6 8 7 5 8 6 9 26 10 7 11 25 12
REMARK SMILES IDX 24 13 21 14 22 15 23 16 4 17 2 18 3 19 1 20 14 22 15 23
REMARK SMILES IDX 16 24 17 25 18 26 19 27
REMARK H PARENT 4 21
ROOT
ATOM      1  C   UNL     1       4.718 -24.254  21.200  1.00  0.00     0.074 A 
ATOM      2  C   UNL     1       3.901 -23.359  20.515  1.00  0.00     0.029 A 
ATOM      3  C   UNL     1       4.370 -22.068  20.260  1.00  0.00     0.005 A 
ATOM      4  C   UNL     1       5.641 -21.708  20.686  1.00  0.00     0.042 A 
ATOM      5  C   UNL     1       6.387 -22.671  21.347  1.00  0.00     0.171 A 
ATOM      6  N   UNL     1       5.962 -23.932  21.623  1.00  0.00    -0.235 NA
ENDROOT
BRANCH   1   7
ATOM      7  C   UNL     1       4.281 -25.611  21.496  1.00  0.00     0.026 A 
ATOM      8  C   UNL     1       6.307 -27.939  23.706  1.00  0.00     0.133 A 
ATOM      9  C   UNL     1       6.068 -26.745  23.041  1.00  0.00     0.058 A 
ATOM     10  N   UNL     1       5.470 -28.996  23.658  1.00  0.00    -0.237 NA
ATOM     11  C   UNL     1       4.879 -26.639  22.295  1.00  0.00     0.014 A 
ATOM     12  C   UNL     1       4.330 -28.920  22.935  1.00  0.00     0.140 A 
ATOM     13  C   UNL     1       4.031 -27.748  22.252  1.00  0.00     0.067 A 
ATOM     14  C   UNL     1       3.109 -26.137  20.980  1.00  0.00     0.096 A 
ATOM     15  N   UNL     1       2.965 -27.414  21.447  1.00  0.00    -0.349 N 
ATOM     16  C   UNL     1       1.852 -28.283  21.133  1.00  0.00     0.149 C 
BRANCH   8  17
ATOM     17  N   UNL     1       7.436 -28.178  24.492  1.00  0.00    -0.311 N 
ATOM     18  C   UNL     1       8.359 -27.273  24.959  1.00  0.00     0.222 C 
ATOM     19  O   UNL     1       8.348 -26.060  24.789  1.00  0.00    -0.275 OA
ATOM     20  C   UNL     1       9.440 -27.934  25.776  1.00  0.00     0.114 C 
ATOM     21  H   UNL     1       7.531 -29.155  24.730  1.00  0.00     0.171 HD
ENDBRANCH   8  17
ENDBRANCH   1   7
BRANCH   5  22
ATOM     22  S   UNL     1       8.023 -22.272  21.971  1.00  0.00     0.260 S 
ATOM     23  O   UNL     1       8.978 -22.930  21.099  1.00  0.00    -0.205 OA
ATOM     24  O   UNL     1       8.025 -22.540  23.396  1.00  0.00    -0.205 OA
BRANCH  22  25
ATOM     25  N   UNL     1       8.206 -20.588  21.727  1.00  0.00    -0.203 NA
ATOM     26  C   UNL     1       9.246 -20.168  20.768  1.00  0.00     0.124 C 
ATOM     27  C   UNL     1       8.178 -19.756  22.942  1.00  0.00     0.124 C 
ENDBRANCH  22  25
ENDBRANCH   5  22
TORSDOF 4
ENDMDL
MODEL 3
REMARK VINA RESULT:    -8.583      2.038      2.930
REMARK INTER + INTRA:         -11.023
REMARK INTER:                 -10.547
REMARK INTRA:                  -0.476
REMARK UNBOUND:                -0.433
REMARK SMILES CC(=O)Nc1cc2c(-c3cccc(S(=O)(=O)N(C)C)n3)cn(C)c2cn1
REMARK SMILES IDX 9 1 10 2 11 3 12 4 13 5 20 6 8 7 5 8 6 9 26 10 7 11 25 12
REMARK SMILES IDX 24 13 21 14 22 15 23 16 4 17 2 18 3 19 1 20 14 22 15 23
REMARK SMILES IDX 16 24 17 25 18 26 19 27
REMARK H PARENT 4 21
ROOT
ATOM      1  C   UNL     1       5.151 -24.368  21.753  1.00  0.00     0.074 A 
ATOM      2  C   UNL     1       4.187 -24.365  20.749  1.00  0.00     0.029 A 
ATOM      3  C   UNL     1       3.845 -23.157  20.138  1.00  0.00     0.005 A 
ATOM      4  C   UNL     1       4.477 -21.987  20.537  1.00  0.00     0.042 A 
ATOM      5  C   UNL     1       5.434 -22.090  21.534  1.00  0.00     0.171 A 
ATOM      6  N   UNL     1       5.787 -23.244  22.160  1.00  0.00    -0.235 NA
ENDROOT
BRANCH   1   7
ATOM      7  C   UNL     1       5.546 -25.597  22.427  1.00  0.00     0.026 A 
ATOM      8  C   UNL     1       8.569 -25.751  24.718  1.00  0.00     0.133 A 
ATOM      9  C   UNL     1       7.694 -25.115  23.849  1.00  0.00     0.058 A 
ATOM     10  N   UNL     1       8.458 -27.050  25.065  1.00  0.00    -0.237 NA
ATOM     11  C   UNL     1       6.631 -25.872  23.322  1.00  0.00     0.014 A 
ATOM     12  C   UNL     1       7.452 -27.799  24.558  1.00  0.00     0.140 A 
ATOM     13  C   UNL     1       6.540 -27.218  23.687  1.00  0.00     0.067 A 
ATOM     14  C   UNL     1       4.852 -26.783  22.262  1.00  0.00     0.096 A 
ATOM     15  N   UNL     1       5.450 -27.744  23.029  1.00  0.00    -0.349 N 
ATOM     16  C   UNL     1       5.000 -29.116  23.127  1.00  0.00     0.149 C 
BRANCH   8  17
ATOM     17  N   UNL     1       9.656 -25.121  25.325  1.00  0.00    -0.311 N 
ATOM     18  C   UNL     1      10.996 -25.375  25.153  1.00  0.00     0.222 C 
ATOM     19  O   UNL     1      11.495 -26.204  24.400  1.00  0.00    -0.275 OA
ATOM     20  C   UNL     1      11.859 -24.473  25.998  1.00  0.00     0.114 C 
ATOM     21  H   UNL     1       9.365 -24.383  25.951  1.00  0.00     0.171 HD
ENDBRANCH   8  17
ENDBRANCH   1   7
BRANCH   5  22
ATOM     22  S   UNL     1       6.265 -20.619  22.141  1.00  0.00     0.260 S 
ATOM     23  O   UNL     1       7.508 -21.058  22.748  1.00  0.00    -0.205 OA
ATOM     24  O   UNL     1       5.301 -19.858  22.911  1.00  0.00    -0.205 OA
BRANCH  22  25
ATOM     25  N   UNL     1       6.685 -19.724  20.744  1.00  0.00    -0.203 NA
ATOM     26  C   UNL     1       8.122 -19.633  20.423  1.00  0.00     0.124 C 
ATOM     27  C   UNL     1       5.977 -18.444  20.564  1.00  0.00     0.124 C 
ENDBRANCH  22  25
ENDBRANCH   5  22
TORSDOF 4
ENDMDL
MODEL 4
REMARK VINA RESULT:    -8.566      2.986      5.553
REMARK INTER + INTRA:         -11.003
REMARK INTER:                 -10.343
REMARK INTRA:                  -0.660
REMARK UNBOUND:                -0.433
REMARK SMILES CC(=O)Nc1cc2c(-c3cccc(S(=O)(=O)N(C)C)n3)cn(C)c2cn1
REMARK SMILES IDX 9 1 10 2 11 3 12 4 13 5 20 6 8 7 5 8 6 9 26 10 7 11 25 12
REMARK SMILES IDX 24 13 21 14 22 15 23 16 4 17 2 18 3 19 1 20 14 22 15 23
REMARK SMILES IDX 16 24 17 25 18 26 19 27
REMARK H PARENT 4 21
ROOT
ATOM      1  C   UNL     1       5.774 -26.180  22.826  1.00  0.00     0.074 A 
ATOM      2  C   UNL     1       4.797 -27.154  23.013  1.00  0.00     0.029 A 
ATOM      3  C   UNL     1       3.616 -27.084  22.271  1.00  0.00     0.005 A 
ATOM      4  C   UNL     1       3.442 -26.051  21.360  1.00  0.00     0.042 A 
ATOM      5  C   UNL     1       4.476 -25.136  21.232  1.00  0.00     0.171 A 
ATOM      6  N   UNL     1       5.634 -25.164  21.942  1.00  0.00    -0.235 NA
ENDROOT
BRANCH   1   7
ATOM      7  C   UNL     1       7.024 -26.201  23.573  1.00  0.00     0.026 A 
ATOM      8  C   UNL     1       9.389 -23.233  23.617  1.00  0.00     0.133 A 
ATOM      9  C   UNL     1       8.242 -23.907  23.225  1.00  0.00     0.058 A 
ATOM     10  N   UNL     1      10.321 -23.765  24.435  1.00  0.00    -0.237 NA
ATOM     11  C   UNL     1       8.044 -25.207  23.727  1.00  0.00     0.014 A 
ATOM     12  C   UNL     1      10.157 -25.018  24.916  1.00  0.00     0.140 A 
ATOM     13  C   UNL     1       9.025 -25.743  24.565  1.00  0.00     0.067 A 
ATOM     14  C   UNL     1       7.429 -27.307  24.299  1.00  0.00     0.096 A 
ATOM     15  N   UNL     1       8.624 -27.017  24.897  1.00  0.00    -0.349 N 
ATOM     16  C   UNL     1       9.358 -27.927  25.750  1.00  0.00     0.149 C 
BRANCH   8  17
ATOM     17  N   UNL     1       9.706 -21.936  23.209  1.00  0.00    -0.311 N 
ATOM     18  C   UNL     1       9.946 -21.476  21.936  1.00  0.00     0.222 C 
ATOM     19  O   UNL     1       9.901 -22.128  20.899  1.00  0.00    -0.275 OA
ATOM     20  C   UNL     1      10.261 -20.001  21.914  1.00  0.00     0.114 C 
ATOM     21  H   UNL     1       9.737 -21.292  23.986  1.00  0.00     0.171 HD
ENDBRANCH   8  17
ENDBRANCH   1   7
BRANCH   5  22
ATOM     22  S   UNL     1       4.312 -23.745  20.109  1.00  0.00     0.260 S 
ATOM     23  O   UNL     1       2.896 -23.443  20.016  1.00  0.00    -0.205 OA
ATOM     24  O   UNL     1       5.077 -24.052  18.917  1.00  0.00    -0.205 OA
BRANCH  22  25
ATOM     25  N   UNL     1       5.048 -22.424  20.911  1.00  0.00    -0.203 NA
ATOM     26  C   UNL     1       4.209 -21.230  21.128  1.00  0.00     0.124 C 
ATOM     27  C   UNL     1       6.416 -22.089  20.476  1.00  0.00     0.124 C 
ENDBRANCH  22  25
ENDBRANCH   5  22
TORSDOF 4
ENDMDL
MODEL 5
REMARK VINA RESULT:    -8.397      3.327      7.891
REMARK INTER + INTRA:         -10.793
REMARK INTER:                 -10.240
REMARK INTRA:                  -0.554
REMARK UNBOUND:                -0.433
REMARK SMILES CC(=O)Nc1cc2c(-c3cccc(S(=O)(=O)N(C)C)n3)cn(C)c2cn1
REMARK SMILES IDX 9 1 10 2 11 3 12 4 13 5 20 6 8 7 5 8 6 9 26 10 7 11 25 12
REMARK SMILES IDX 24 13 21 14 22 15 23 16 4 17 2 18 3 19 1 20 14 22 15 23
REMARK SMILES IDX 16 24 17 25 18 26 19 27
REMARK H PARENT 4 21
ROOT
ATOM      1  C   UNL     1       8.522 -26.006  24.386  1.00  0.00     0.074 A 
ATOM      2  C   UNL     1       9.213 -24.918  23.860  1.00  0.00     0.029 A 
ATOM      3  C   UNL     1      10.408 -24.516  24.459  1.00  0.00     0.005 A 
ATOM      4  C   UNL     1      10.887 -25.213  25.561  1.00  0.00     0.042 A 
ATOM      5  C   UNL     1      10.138 -26.293  26.005  1.00  0.00     0.171 A 
ATOM      6  N   UNL     1       8.966 -26.707  25.455  1.00  0.00    -0.235 NA
ENDROOT
BRANCH   1   7
ATOM      7  C   UNL     1       7.269 -26.468  23.804  1.00  0.00     0.026 A 
ATOM      8  C   UNL     1       5.029 -24.170  21.776  1.00  0.00     0.133 A 
ATOM      9  C   UNL     1       6.148 -24.463  22.541  1.00  0.00     0.058 A 
ATOM     10  N   UNL     1       4.073 -25.076  21.481  1.00  0.00    -0.237 NA
ATOM     11  C   UNL     1       6.291 -25.782  23.013  1.00  0.00     0.014 A 
ATOM     12  C   UNL     1       4.184 -26.343  21.937  1.00  0.00     0.140 A 
ATOM     13  C   UNL     1       5.286 -26.701  22.704  1.00  0.00     0.067 A 
ATOM     14  C   UNL     1       6.817 -27.765  23.964  1.00  0.00     0.096 A 
ATOM     15  N   UNL     1       5.632 -27.896  23.293  1.00  0.00    -0.349 N 
ATOM     16  C   UNL     1       4.859 -29.117  23.221  1.00  0.00     0.149 C 
BRANCH   8  17
ATOM     17  N   UNL     1       4.767 -22.911  21.232  1.00  0.00    -0.311 N 
ATOM     18  C   UNL     1       5.005 -22.467  19.954  1.00  0.00     0.222 C 
ATOM     19  O   UNL     1       5.480 -23.115  19.028  1.00  0.00    -0.275 OA
ATOM     20  C   UNL     1       4.581 -21.033  19.762  1.00  0.00     0.114 C 
ATOM     21  H   UNL     1       4.335 -22.292  21.903  1.00  0.00     0.171 HD
ENDBRANCH   8  17
ENDBRANCH   1   7
BRANCH   5  22
ATOM     22  S   UNL     1      10.663 -27.219  27.450  1.00  0.00     0.260 S 
ATOM     23  O   UNL     1       9.952 -28.484  27.421  1.00  0.00    -0.205 OA
ATOM     24  O   UNL     1      10.550 -26.340  28.598  1.00  0.00    -0.205 OA
BRANCH  22  25
ATOM     25  N   UNL     1      12.317 -27.574  27.189  1.00  0.00    -0.203 NA
ATOM     26  C   UNL     1      12.657 -28.245  25.920  1.00  0.00     0.124 C 
ATOM     27  C   UNL     1      13.045 -28.130  28.343  1.00  0.00     0.124 C 
ENDBRANCH  22  25
ENDBRANCH   5  22
TORSDOF 4
ENDMDL
MODEL 6
REMARK VINA RESULT:    -8.309      2.931      4.950
REMARK INTER + INTRA:         -10.686
REMARK INTER:                 -10.001
REMARK INTRA:                  -0.685
REMARK UNBOUND:                -0.433
REMARK SMILES CC(=O)Nc1cc2c(-c3cccc(S(=O)(=O)N(C)C)n3)cn(C)c2cn1
REMARK SMILES IDX 9 1 10 2 11 3 12 4 13 5 20 6 8 7 5 8 6 9 26 10 7 11 25 12
REMARK SMILES IDX 24 13 21 14 22 15 23 16 4 17 2 18 3 19 1 20 14 22 15 23
REMARK SMILES IDX 16 24 17 25 18 26 19 27
REMARK H PARENT 4 21
ROOT
ATOM      1  C   UNL     1       5.093 -20.095  21.718  1.00  0.00     0.074 A 
ATOM      2  C   UNL     1       4.431 -19.995  22.939  1.00  0.00     0.029 A 
ATOM      3  C   UNL     1       3.253 -19.250  23.015  1.00  0.00     0.005 A 
ATOM      4  C   UNL     1       2.762 -18.631  21.872  1.00  0.00     0.042 A 
ATOM      5  C   UNL     1       3.481 -18.800  20.699  1.00  0.00     0.171 A 
ATOM      6  N   UNL     1       4.636 -19.508  20.588  1.00  0.00    -0.235 NA
ENDROOT
BRANCH   1   7
ATOM      7  C   UNL     1       6.327 -20.857  21.581  1.00  0.00     0.026 A 
ATOM      8  C   UNL     1       6.492 -24.570  22.353  1.00  0.00     0.133 A 
ATOM      9  C   UNL     1       5.852 -23.343  22.261  1.00  0.00     0.058 A 
ATOM     10  N   UNL     1       7.794 -24.752  22.049  1.00  0.00    -0.237 NA
ATOM     11  C   UNL     1       6.607 -22.243  21.811  1.00  0.00     0.014 A 
ATOM     12  C   UNL     1       8.541 -23.706  21.630  1.00  0.00     0.140 A 
ATOM     13  C   UNL     1       7.955 -22.452  21.511  1.00  0.00     0.067 A 
ATOM     14  C   UNL     1       7.512 -20.271  21.173  1.00  0.00     0.096 A 
ATOM     15  N   UNL     1       8.478 -21.238  21.125  1.00  0.00    -0.349 N 
ATOM     16  C   UNL     1       9.851 -21.009  20.731  1.00  0.00     0.149 C 
BRANCH   8  17
ATOM     17  N   UNL     1       5.865 -25.745  22.770  1.00  0.00    -0.311 N 
ATOM     18  C   UNL     1       4.750 -26.352  22.242  1.00  0.00     0.222 C 
ATOM     19  O   UNL     1       4.102 -25.978  21.271  1.00  0.00    -0.275 OA
ATOM     20  C   UNL     1       4.384 -27.612  22.983  1.00  0.00     0.114 C 
ATOM     21  H   UNL     1       6.340 -26.169  23.554  1.00  0.00     0.171 HD
ENDBRANCH   8  17
ENDBRANCH   1   7
BRANCH   5  22
ATOM     22  S   UNL     1       2.939 -17.997  19.188  1.00  0.00     0.260 S 
ATOM     23  O   UNL     1       1.494 -18.123  19.138  1.00  0.00    -0.205 OA
ATOM     24  O   UNL     1       3.758 -18.505  18.104  1.00  0.00    -0.205 OA
BRANCH  22  25
ATOM     25  N   UNL     1       3.284 -16.335  19.406  1.00  0.00    -0.203 NA
ATOM     26  C   UNL     1       4.679 -15.985  19.734  1.00  0.00     0.124 C 
ATOM     27  C   UNL     1       2.302 -15.574  20.199  1.00  0.00     0.124 C 
ENDBRANCH  22  25
ENDBRANCH   5  22
TORSDOF 4
ENDMDL
MODEL 7
REMARK VINA RESULT:    -8.097      1.948      4.069
REMARK INTER + INTRA:         -10.424
REMARK INTER:                 -10.011
REMARK INTRA:                  -0.412
REMARK UNBOUND:                -0.433
REMARK SMILES CC(=O)Nc1cc2c(-c3cccc(S(=O)(=O)N(C)C)n3)cn(C)c2cn1
REMARK SMILES IDX 9 1 10 2 11 3 12 4 13 5 20 6 8 7 5 8 6 9 26 10 7 11 25 12
REMARK SMILES IDX 24 13 21 14 22 15 23 16 4 17 2 18 3 19 1 20 14 22 15 23
REMARK SMILES IDX 16 24 17 25 18 26 19 27
REMARK H PARENT 4 21
ROOT
ATOM      1  C   UNL     1       7.907 -22.097  22.031  1.00  0.00     0.074 A 
ATOM      2  C   UNL     1       8.826 -21.617  21.101  1.00  0.00     0.029 A 
ATOM      3  C   UNL     1       8.556 -20.422  20.432  1.00  0.00     0.005 A 
ATOM      4  C   UNL     1       7.383 -19.733  20.711  1.00  0.00     0.042 A 
ATOM      5  C   UNL     1       6.537 -20.279  21.663  1.00  0.00     0.171 A 
ATOM      6  N   UNL     1       6.759 -21.444  22.327  1.00  0.00    -0.235 NA
ENDROOT
BRANCH   1   7
ATOM      7  C   UNL     1       8.135 -23.338  22.757  1.00  0.00     0.026 A 
ATOM      8  C   UNL     1       5.590 -26.155  22.770  1.00  0.00     0.133 A 
ATOM      9  C   UNL     1       6.051 -24.893  22.425  1.00  0.00     0.058 A 
ATOM     10  N   UNL     1       6.289 -27.017  23.537  1.00  0.00    -0.237 NA
ATOM     11  C   UNL     1       7.324 -24.512  22.891  1.00  0.00     0.014 A 
ATOM     12  C   UNL     1       7.506 -26.664  24.008  1.00  0.00     0.140 A 
ATOM     13  C   UNL     1       8.026 -25.416  23.691  1.00  0.00     0.067 A 
ATOM     14  C   UNL     1       9.284 -23.560  23.495  1.00  0.00     0.096 A 
ATOM     15  N   UNL     1       9.213 -24.811  24.042  1.00  0.00    -0.349 N 
ATOM     16  C   UNL     1      10.238 -25.405  24.871  1.00  0.00     0.149 C 
BRANCH   8  17
ATOM     17  N   UNL     1       4.356 -26.668  22.367  1.00  0.00    -0.311 N 
ATOM     18  C   UNL     1       3.447 -26.121  21.492  1.00  0.00     0.222 C 
ATOM     19  O   UNL     1       3.566 -25.070  20.873  1.00  0.00    -0.275 OA
ATOM     20  C   UNL     1       2.227 -26.990  21.323  1.00  0.00     0.114 C 
ATOM     21  H   UNL     1       4.162 -27.564  22.791  1.00  0.00     0.171 HD
ENDBRANCH   8  17
ENDBRANCH   1   7
BRANCH   5  22
ATOM     22  S   UNL     1       4.979 -19.475  22.050  1.00  0.00     0.260 S 
ATOM     23  O   UNL     1       5.204 -18.046  21.938  1.00  0.00    -0.205 OA
ATOM     24  O   UNL     1       4.487 -20.046  23.289  1.00  0.00    -0.205 OA
BRANCH  22  25
ATOM     25  N   UNL     1       3.914 -19.910  20.783  1.00  0.00    -0.203 NA
ATOM     26  C   UNL     1       2.497 -19.534  20.950  1.00  0.00     0.124 C 
ATOM     27  C   UNL     1       4.085 -21.268  20.237  1.00  0.00     0.124 C 
ENDBRANCH  22  25
ENDBRANCH   5  22
TORSDOF 4
ENDMDL
MODEL 8
REMARK VINA RESULT:    -7.995      3.431      7.439
REMARK INTER + INTRA:         -10.298
REMARK INTER:                 -10.044
REMARK INTRA:                  -0.255
REMARK UNBOUND:                -0.433
REMARK SMILES CC(=O)Nc1cc2c(-c3cccc(S(=O)(=O)N(C)C)n3)cn(C)c2cn1
REMARK SMILES IDX 9 1 10 2 11 3 12 4 13 5 20 6 8 7 5 8 6 9 26 10 7 11 25 12
REMARK SMILES IDX 24 13 21 14 22 15 23 16 4 17 2 18 3 19 1 20 14 22 15 23
REMARK SMILES IDX 16 24 17 25 18 26 19 27
REMARK H PARENT 4 21
ROOT
ATOM      1  C   UNL     1       7.910 -26.819  24.420  1.00  0.00     0.074 A 
ATOM      2  C   UNL     1       7.779 -28.133  24.860  1.00  0.00     0.029 A 
ATOM      3  C   UNL     1       8.694 -28.635  25.787  1.00  0.00     0.005 A 
ATOM      4  C   UNL     1       9.710 -27.813  26.257  1.00  0.00     0.042 A 
ATOM      5  C   UNL     1       9.752 -26.515  25.774  1.00  0.00     0.171 A 
ATOM      6  N   UNL     1       8.887 -25.993  24.864  1.00  0.00    -0.235 NA
ENDROOT
BRANCH   1   7
ATOM      7  C   UNL     1       6.986 -26.243  23.453  1.00  0.00     0.026 A 
ATOM      8  C   UNL     1       7.964 -23.323  21.232  1.00  0.00     0.133 A 
ATOM      9  C   UNL     1       8.189 -24.262  22.229  1.00  0.00     0.058 A 
ATOM     10  N   UNL     1       6.800 -23.222  20.557  1.00  0.00    -0.237 NA
ATOM     11  C   UNL     1       7.147 -25.160  22.528  1.00  0.00     0.014 A 
ATOM     12  C   UNL     1       5.782 -24.064  20.841  1.00  0.00     0.140 A 
ATOM     13  C   UNL     1       5.948 -25.032  21.824  1.00  0.00     0.067 A 
ATOM     14  C   UNL     1       5.696 -26.716  23.295  1.00  0.00     0.096 A 
ATOM     15  N   UNL     1       5.087 -25.990  22.310  1.00  0.00    -0.349 N 
ATOM     16  C   UNL     1       3.730 -26.201  21.853  1.00  0.00     0.149 C 
BRANCH   8  17
ATOM     17  N   UNL     1       8.910 -22.383  20.822  1.00  0.00    -0.311 N 
ATOM     18  C   UNL     1       9.687 -21.558  21.600  1.00  0.00     0.222 C 
ATOM     19  O   UNL     1       9.711 -21.511  22.825  1.00  0.00    -0.275 OA
ATOM     20  C   UNL     1      10.588 -20.678  20.772  1.00  0.00     0.114 C 
ATOM     21  H   UNL     1       9.006 -22.356  19.817  1.00  0.00     0.171 HD
ENDBRANCH   8  17
ENDBRANCH   1   7
BRANCH   5  22
ATOM     22  S   UNL     1      11.060 -25.401  26.296  1.00  0.00     0.260 S 
ATOM     23  O   UNL     1      10.850 -25.138  27.708  1.00  0.00    -0.205 OA
ATOM     24  O   UNL     1      11.109 -24.307  25.346  1.00  0.00    -0.205 OA
BRANCH  22  25
ATOM     25  N   UNL     1      12.507 -26.306  26.170  1.00  0.00    -0.203 NA
ATOM     26  C   UNL     1      12.652 -27.159  24.975  1.00  0.00     0.124 C 
ATOM     27  C   UNL     1      12.958 -26.971  27.405  1.00  0.00     0.124 C 
ENDBRANCH  22  25
ENDBRANCH   5  22
TORSDOF 4
ENDMDL
MODEL 9
REMARK VINA RESULT:    -7.712      4.687     10.544
REMARK INTER + INTRA:          -9.949
REMARK INTER:                  -9.184
REMARK INTRA:                  -0.766
REMARK UNBOUND:                -0.433
REMARK SMILES CC(=O)Nc1cc2c(-c3cccc(S(=O)(=O)N(C)C)n3)cn(C)c2cn1
REMARK SMILES IDX 9 1 10 2 11 3 12 4 13 5 20 6 8 7 5 8 6 9 26 10 7 11 25 12
REMARK SMILES IDX 24 13 21 14 22 15 23 16 4 17 2 18 3 19 1 20 14 22 15 23
REMARK SMILES IDX 16 24 17 25 18 26 19 27
REMARK H PARENT 4 21
ROOT
ATOM      1  C   UNL     1       3.572 -18.084  20.365  1.00  0.00     0.074 A 
ATOM      2  C   UNL     1       3.025 -17.951  21.639  1.00  0.00     0.029 A 
ATOM      3  C   UNL     1       3.351 -18.889  22.620  1.00  0.00     0.005 A 
ATOM      4  C   UNL     1       4.217 -19.929  22.309  1.00  0.00     0.042 A 
ATOM      5  C   UNL     1       4.723 -19.971  21.019  1.00  0.00     0.171 A 
ATOM      6  N   UNL     1       4.422 -19.084  20.034  1.00  0.00    -0.235 NA
ENDROOT
BRANCH   1   7
ATOM      7  C   UNL     1       3.266 -17.137  19.302  1.00  0.00     0.026 A 
ATOM      8  C   UNL     1      -0.304 -16.344  18.282  1.00  0.00     0.133 A 
ATOM      9  C   UNL     1       0.663 -17.005  19.026  1.00  0.00     0.058 A 
ATOM     10  N   UNL     1      -0.014 -15.441  17.322  1.00  0.00    -0.237 NA
ATOM     11  C   UNL     1       2.012 -16.695  18.768  1.00  0.00     0.014 A 
ATOM     12  C   UNL     1       1.276 -15.141  17.049  1.00  0.00     0.140 A 
ATOM     13  C   UNL     1       2.290 -15.764  17.765  1.00  0.00     0.067 A 
ATOM     14  C   UNL     1       4.256 -16.480  18.593  1.00  0.00     0.096 A 
ATOM     15  N   UNL     1       3.660 -15.653  17.682  1.00  0.00    -0.349 N 
ATOM     16  C   UNL     1       4.373 -14.792  16.763  1.00  0.00     0.149 C 
BRANCH   8  17
ATOM     17  N   UNL     1      -1.677 -16.542  18.441  1.00  0.00    -0.311 N 
ATOM     18  C   UNL     1      -2.501 -16.056  19.427  1.00  0.00     0.222 C 
ATOM     19  O   UNL     1      -2.182 -15.322  20.355  1.00  0.00    -0.275 OA
ATOM     20  C   UNL     1      -3.930 -16.502  19.245  1.00  0.00     0.114 C 
ATOM     21  H   UNL     1      -2.064 -17.111  17.702  1.00  0.00     0.171 HD
ENDBRANCH   8  17
ENDBRANCH   1   7
BRANCH   5  22
ATOM     22  S   UNL     1       5.812 -21.309  20.522  1.00  0.00     0.260 S 
ATOM     23  O   UNL     1       6.225 -21.989  21.736  1.00  0.00    -0.205 OA
ATOM     24  O   UNL     1       6.802 -20.755  19.619  1.00  0.00    -0.205 OA
BRANCH  22  25
ATOM     25  N   UNL     1       4.824 -22.403  19.653  1.00  0.00    -0.203 NA
ATOM     26  C   UNL     1       3.658 -22.955  20.370  1.00  0.00     0.124 C 
ATOM     27  C   UNL     1       5.536 -23.416  18.854  1.00  0.00     0.124 C 
ENDBRANCH  22  25
ENDBRANCH   5  22
TORSDOF 4
ENDMDL
