MODEL 1
REMARK VINA RESULT:    -8.548      0.000      0.000
REMARK INTER + INTRA:         -12.333
REMARK INTER:                 -11.546
REMARK INTRA:                  -0.787
REMARK UNBOUND:                -0.787
REMARK SMILES COc1ncc(Nc2ncc(C(C)(C)O)cc2-c2nc(C)nc(N)n2)cc1F
REMARK SMILES IDX 8 1 9 2 10 3 11 4 16 5 17 6 7 7 6 9 3 10 4 11 27 12 5 13
REMARK SMILES IDX 26 14 28 15 2 16 1 17 18 18 19 19 25 20 20 21 23 22 22 23
REMARK SMILES IDX 21 24 24 25 12 28 13 29 14 30 15 31
REMARK H PARENT 7 8 24 26 24 27 15 32
ROOT
ATOM      1  C   UNL     1      52.028  -0.265 -45.375  1.00  0.00     0.141 A 
ATOM      2  N   UNL     1      50.958  -0.719 -46.071  1.00  0.00    -0.238 NA
ATOM      3  C   UNL     1      50.878  -0.475 -47.400  1.00  0.00     0.120 A 
ATOM      4  C   UNL     1      51.833   0.214 -48.127  1.00  0.00     0.002 A 
ATOM      5  C   UNL     1      52.936   0.673 -47.397  1.00  0.00     0.024 A 
ATOM      6  C   UNL     1      53.069   0.451 -46.004  1.00  0.00     0.063 A 
ENDROOT
BRANCH   1   7
ATOM      7  N   UNL     1      52.102  -0.567 -43.999  1.00  0.00    -0.338 N 
ATOM      8  H   UNL     1      52.914  -0.136 -43.562  1.00  0.00     0.168 HD
BRANCH   7   9
ATOM      9  C   UNL     1      51.202  -1.179 -43.117  1.00  0.00     0.061 A 
ATOM     10  C   UNL     1      49.422  -2.328 -41.331  1.00  0.00     0.250 A 
ATOM     11  N   UNL     1      50.275  -3.145 -41.986  1.00  0.00    -0.217 NA
ATOM     12  C   UNL     1      49.406  -0.954 -41.511  1.00  0.00     0.187 A 
ATOM     13  C   UNL     1      51.137  -2.550 -42.856  1.00  0.00     0.141 A 
ATOM     14  C   UNL     1      50.302  -0.378 -42.406  1.00  0.00     0.072 A 
ATOM     15  F   UNL     1      48.549  -0.169 -40.842  1.00  0.00    -0.201 F 
BRANCH  10  16
ATOM     16  O   UNL     1      48.517  -2.860 -40.433  1.00  0.00    -0.479 OA
ATOM     17  C   UNL     1      47.781  -3.957 -40.963  1.00  0.00     0.280 C 
ENDBRANCH  10  16
ENDBRANCH   7   9
ENDBRANCH   1   7
BRANCH   6  18
ATOM     18  C   UNL     1      54.258   0.970 -45.293  1.00  0.00     0.168 A 
ATOM     19  N   UNL     1      54.368   0.733 -43.980  1.00  0.00    -0.213 NA
ATOM     20  N   UNL     1      55.143   1.674 -46.005  1.00  0.00    -0.193 NA
ATOM     21  C   UNL     1      55.457   1.244 -43.402  1.00  0.00     0.131 A 
ATOM     22  C   UNL     1      56.182   2.137 -45.328  1.00  0.00     0.223 A 
ATOM     23  N   UNL     1      56.385   1.957 -44.033  1.00  0.00    -0.198 NA
ATOM     24  C   UNL     1      55.623   1.036 -41.929  1.00  0.00     0.090 C 
BRANCH  22  25
ATOM     25  N   UNL     1      57.114   2.857 -46.016  1.00  0.00    -0.368 N 
ATOM     26  H   UNL     1      56.819   3.706 -46.466  1.00  0.00     0.159 HD
ATOM     27  H   UNL     1      58.066   2.537 -46.017  1.00  0.00     0.159 HD
ENDBRANCH  22  25
ENDBRANCH   6  18
BRANCH   4  28
ATOM     28  C   UNL     1      51.695   0.457 -49.619  1.00  0.00     0.086 C 
ATOM     29  C   UNL     1      53.062   0.728 -50.261  1.00  0.00     0.047 C 
ATOM     30  C   UNL     1      50.728   1.613 -49.901  1.00  0.00     0.047 C 
BRANCH  28  31
ATOM     31  O   UNL     1      51.157  -0.709 -50.252  1.00  0.00    -0.386 OA
ATOM     32  H   UNL     1      51.873  -1.140 -50.747  1.00  0.00     0.211 HD
ENDBRANCH  28  31
ENDBRANCH   4  28
TORSDOF 7
ENDMDL
MODEL 2
REMARK VINA RESULT:    -8.504      0.585      1.545
REMARK INTER + INTRA:         -12.274
REMARK INTER:                 -11.522
REMARK INTRA:                  -0.752
REMARK UNBOUND:                -0.787
REMARK SMILES COc1ncc(Nc2ncc(C(C)(C)O)cc2-c2nc(C)nc(N)n2)cc1F
REMARK SMILES IDX 8 1 9 2 10 3 11 4 16 5 17 6 7 7 6 9 3 10 4 11 27 12 5 13
REMARK SMILES IDX 26 14 28 15 2 16 1 17 18 18 19 19 25 20 20 21 23 22 22 23
REMARK SMILES IDX 21 24 24 25 12 28 13 29 14 30 15 31
REMARK H PARENT 7 8 24 26 24 27 15 32
ROOT
ATOM      1  C   UNL     1      51.892  -0.368 -45.448  1.00  0.00     0.141 A 
ATOM      2  N   UNL     1      50.853  -0.838 -46.179  1.00  0.00    -0.238 NA
ATOM      3  C   UNL     1      50.796  -0.565 -47.504  1.00  0.00     0.120 A 
ATOM      4  C   UNL     1      51.745   0.170 -48.192  1.00  0.00     0.002 A 
ATOM      5  C   UNL     1      52.816   0.646 -47.426  1.00  0.00     0.024 A 
ATOM      6  C   UNL     1      52.924   0.395 -46.036  1.00  0.00     0.063 A 
ENDROOT
BRANCH   1   7
ATOM      7  N   UNL     1      51.945  -0.700 -44.078  1.00  0.00    -0.338 N 
ATOM      8  H   UNL     1      52.779  -0.324 -43.631  1.00  0.00     0.168 HD
BRANCH   7   9
ATOM      9  C   UNL     1      51.008  -1.276 -43.210  1.00  0.00     0.061 A 
ATOM     10  C   UNL     1      49.166  -2.357 -41.445  1.00  0.00     0.250 A 
ATOM     11  N   UNL     1      49.883  -3.209 -42.210  1.00  0.00    -0.217 NA
ATOM     12  C   UNL     1      49.318  -0.981 -41.504  1.00  0.00     0.187 A 
ATOM     13  C   UNL     1      50.780  -2.646 -43.067  1.00  0.00     0.141 A 
ATOM     14  C   UNL     1      50.245  -0.439 -42.387  1.00  0.00     0.072 A 
ATOM     15  F   UNL     1      48.594  -0.162 -40.726  1.00  0.00    -0.201 F 
BRANCH  10  16
ATOM     16  O   UNL     1      48.236  -2.854 -40.553  1.00  0.00    -0.479 OA
ATOM     17  C   UNL     1      47.886  -4.211 -40.807  1.00  0.00     0.280 C 
ENDBRANCH  10  16
ENDBRANCH   7   9
ENDBRANCH   1   7
BRANCH   6  18
ATOM     18  C   UNL     1      54.080   0.934 -45.286  1.00  0.00     0.168 A 
ATOM     19  N   UNL     1      54.939   1.734 -45.930  1.00  0.00    -0.213 NA
ATOM     20  N   UNL     1      54.214   0.563 -44.010  1.00  0.00    -0.193 NA
ATOM     21  C   UNL     1      55.965   2.170 -45.197  1.00  0.00     0.131 A 
ATOM     22  C   UNL     1      55.271   1.051 -43.381  1.00  0.00     0.223 A 
ATOM     23  N   UNL     1      56.175   1.850 -43.923  1.00  0.00    -0.198 NA
ATOM     24  C   UNL     1      56.976   3.048 -45.868  1.00  0.00     0.090 C 
BRANCH  22  25
ATOM     25  N   UNL     1      55.443   0.703 -42.073  1.00  0.00    -0.368 N 
ATOM     26  H   UNL     1      55.349  -0.267 -41.825  1.00  0.00     0.159 HD
ATOM     27  H   UNL     1      55.696   1.417 -41.413  1.00  0.00     0.159 HD
ENDBRANCH  22  25
ENDBRANCH   6  18
BRANCH   4  28
ATOM     28  C   UNL     1      51.633   0.444 -49.681  1.00  0.00     0.086 C 
ATOM     29  C   UNL     1      53.019   0.625 -50.313  1.00  0.00     0.047 C 
ATOM     30  C   UNL     1      50.752   1.670 -49.951  1.00  0.00     0.047 C 
BRANCH  28  31
ATOM     31  O   UNL     1      51.016  -0.672 -50.333  1.00  0.00    -0.386 OA
ATOM     32  H   UNL     1      50.804  -0.408 -51.244  1.00  0.00     0.211 HD
ENDBRANCH  28  31
ENDBRANCH   4  28
TORSDOF 7
ENDMDL
MODEL 3
REMARK VINA RESULT:    -8.155      1.290      2.021
REMARK INTER + INTRA:         -11.802
REMARK INTER:                 -11.054
REMARK INTRA:                  -0.748
REMARK UNBOUND:                -0.787
REMARK SMILES COc1ncc(Nc2ncc(C(C)(C)O)cc2-c2nc(C)nc(N)n2)cc1F
REMARK SMILES IDX 8 1 9 2 10 3 11 4 16 5 17 6 7 7 6 9 3 10 4 11 27 12 5 13
REMARK SMILES IDX 26 14 28 15 2 16 1 17 18 18 19 19 25 20 20 21 23 22 22 23
REMARK SMILES IDX 21 24 24 25 12 28 13 29 14 30 15 31
REMARK H PARENT 7 8 24 26 24 27 15 32
ROOT
ATOM      1  C   UNL     1      51.458  -0.459 -45.862  1.00  0.00     0.141 A 
ATOM      2  N   UNL     1      50.444  -0.829 -46.681  1.00  0.00    -0.238 NA
ATOM      3  C   UNL     1      50.472  -0.458 -47.982  1.00  0.00     0.120 A 
ATOM      4  C   UNL     1      51.487   0.282 -48.563  1.00  0.00     0.002 A 
ATOM      5  C   UNL     1      52.531   0.654 -47.707  1.00  0.00     0.024 A 
ATOM      6  C   UNL     1      52.551   0.299 -46.336  1.00  0.00     0.063 A 
ENDROOT
BRANCH   1   7
ATOM      7  N   UNL     1      51.420  -0.892 -44.520  1.00  0.00    -0.338 N 
ATOM      8  H   UNL     1      52.133  -0.433 -43.956  1.00  0.00     0.168 HD
BRANCH   7   9
ATOM      9  C   UNL     1      50.503  -1.673 -43.805  1.00  0.00     0.061 A 
ATOM     10  C   UNL     1      48.669  -3.157 -42.353  1.00  0.00     0.250 A 
ATOM     11  N   UNL     1      49.769  -3.790 -42.815  1.00  0.00    -0.217 NA
ATOM     12  C   UNL     1      48.427  -1.810 -42.569  1.00  0.00     0.187 A 
ATOM     13  C   UNL     1      50.651  -3.033 -43.525  1.00  0.00     0.141 A 
ATOM     14  C   UNL     1      49.350  -1.064 -43.296  1.00  0.00     0.072 A 
ATOM     15  F   UNL     1      47.327  -1.209 -42.092  1.00  0.00    -0.201 F 
BRANCH  10  16
ATOM     16  O   UNL     1      47.728  -3.860 -41.625  1.00  0.00    -0.479 OA
ATOM     17  C   UNL     1      48.210  -4.290 -40.356  1.00  0.00     0.280 C 
ENDBRANCH  10  16
ENDBRANCH   7   9
ENDBRANCH   1   7
BRANCH   6  18
ATOM     18  C   UNL     1      53.683   0.731 -45.487  1.00  0.00     0.168 A 
ATOM     19  N   UNL     1      54.646   1.478 -46.043  1.00  0.00    -0.213 NA
ATOM     20  N   UNL     1      53.691   0.322 -44.216  1.00  0.00    -0.193 NA
ATOM     21  C   UNL     1      55.643   1.818 -45.223  1.00  0.00     0.131 A 
ATOM     22  C   UNL     1      54.730   0.714 -43.496  1.00  0.00     0.223 A 
ATOM     23  N   UNL     1      55.731   1.454 -43.947  1.00  0.00    -0.198 NA
ATOM     24  C   UNL     1      56.764   2.630 -45.792  1.00  0.00     0.090 C 
BRANCH  22  25
ATOM     25  N   UNL     1      54.776   0.325 -42.190  1.00  0.00    -0.368 N 
ATOM     26  H   UNL     1      55.372   0.838 -41.563  1.00  0.00     0.159 HD
ATOM     27  H   UNL     1      54.187  -0.432 -41.891  1.00  0.00     0.159 HD
ENDBRANCH  22  25
ENDBRANCH   6  18
BRANCH   4  28
ATOM     28  C   UNL     1      51.470   0.668 -50.030  1.00  0.00     0.086 C 
ATOM     29  C   UNL     1      50.376  -0.096 -50.788  1.00  0.00     0.047 C 
ATOM     30  C   UNL     1      52.840   0.434 -50.678  1.00  0.00     0.047 C 
BRANCH  28  31
ATOM     31  O   UNL     1      51.174   2.064 -50.160  1.00  0.00    -0.386 OA
ATOM     32  H   UNL     1      51.998   2.559 -50.022  1.00  0.00     0.211 HD
ENDBRANCH  28  31
ENDBRANCH   4  28
TORSDOF 7
ENDMDL
MODEL 4
REMARK VINA RESULT:    -8.013      3.655      6.598
REMARK INTER + INTRA:         -11.611
REMARK INTER:                 -10.375
REMARK INTRA:                  -1.236
REMARK UNBOUND:                -0.787
REMARK SMILES COc1ncc(Nc2ncc(C(C)(C)O)cc2-c2nc(C)nc(N)n2)cc1F
REMARK SMILES IDX 8 1 9 2 10 3 11 4 16 5 17 6 7 7 6 9 3 10 4 11 27 12 5 13
REMARK SMILES IDX 26 14 28 15 2 16 1 17 18 18 19 19 25 20 20 21 23 22 22 23
REMARK SMILES IDX 21 24 24 25 12 28 13 29 14 30 15 31
REMARK H PARENT 7 8 24 26 24 27 15 32
ROOT
ATOM      1  C   UNL     1      49.711  -1.720 -47.216  1.00  0.00     0.141 A 
ATOM      2  N   UNL     1      50.892  -1.076 -47.057  1.00  0.00    -0.238 NA
ATOM      3  C   UNL     1      51.381  -0.323 -48.070  1.00  0.00     0.120 A 
ATOM      4  C   UNL     1      50.749  -0.146 -49.288  1.00  0.00     0.002 A 
ATOM      5  C   UNL     1      49.526  -0.813 -49.438  1.00  0.00     0.024 A 
ATOM      6  C   UNL     1      48.970  -1.618 -48.414  1.00  0.00     0.063 A 
ENDROOT
BRANCH   1   7
ATOM      7  N   UNL     1      49.209  -2.466 -46.130  1.00  0.00    -0.338 N 
ATOM      8  H   UNL     1      49.011  -3.430 -46.394  1.00  0.00     0.168 HD
BRANCH   7   9
ATOM      9  C   UNL     1      49.103  -2.187 -44.761  1.00  0.00     0.061 A 
ATOM     10  C   UNL     1      48.836  -1.594 -42.068  1.00  0.00     0.250 A 
ATOM     11  N   UNL     1      50.077  -1.845 -42.538  1.00  0.00    -0.217 NA
ATOM     12  C   UNL     1      47.707  -1.615 -42.870  1.00  0.00     0.187 A 
ATOM     13  C   UNL     1      50.175  -2.134 -43.866  1.00  0.00     0.141 A 
ATOM     14  C   UNL     1      47.842  -1.910 -44.223  1.00  0.00     0.072 A 
ATOM     15  F   UNL     1      46.489  -1.355 -42.373  1.00  0.00    -0.201 F 
BRANCH  10  16
ATOM     16  O   UNL     1      48.658  -1.295 -40.731  1.00  0.00    -0.479 OA
ATOM     17  C   UNL     1      49.117   0.007 -40.383  1.00  0.00     0.280 C 
ENDBRANCH  10  16
ENDBRANCH   7   9
ENDBRANCH   1   7
BRANCH   6  18
ATOM     18  C   UNL     1      47.677  -2.299 -48.643  1.00  0.00     0.168 A 
ATOM     19  N   UNL     1      46.744  -2.232 -47.684  1.00  0.00    -0.213 NA
ATOM     20  N   UNL     1      47.528  -2.969 -49.789  1.00  0.00    -0.193 NA
ATOM     21  C   UNL     1      45.610  -2.882 -47.952  1.00  0.00     0.131 A 
ATOM     22  C   UNL     1      46.365  -3.580 -49.947  1.00  0.00     0.223 A 
ATOM     23  N   UNL     1      45.378  -3.574 -49.065  1.00  0.00    -0.198 NA
ATOM     24  C   UNL     1      44.538  -2.867 -46.908  1.00  0.00     0.090 C 
BRANCH  22  25
ATOM     25  N   UNL     1      46.166  -4.271 -51.106  1.00  0.00    -0.368 N 
ATOM     26  H   UNL     1      45.448  -4.975 -51.120  1.00  0.00     0.159 HD
ATOM     27  H   UNL     1      46.714  -4.028 -51.912  1.00  0.00     0.159 HD
ENDBRANCH  22  25
ENDBRANCH   6  18
BRANCH   4  28
ATOM     28  C   UNL     1      51.340   0.713 -50.390  1.00  0.00     0.086 C 
ATOM     29  C   UNL     1      50.826   0.272 -51.767  1.00  0.00     0.047 C 
ATOM     30  C   UNL     1      52.873   0.681 -50.350  1.00  0.00     0.047 C 
BRANCH  28  31
ATOM     31  O   UNL     1      50.941   2.076 -50.208  1.00  0.00    -0.386 OA
ATOM     32  H   UNL     1      50.990   2.521 -51.070  1.00  0.00     0.211 HD
ENDBRANCH  28  31
ENDBRANCH   4  28
TORSDOF 7
ENDMDL
MODEL 5
REMARK VINA RESULT:    -7.958      5.120      7.447
REMARK INTER + INTRA:         -11.536
REMARK INTER:                 -10.348
REMARK INTRA:                  -1.189
REMARK UNBOUND:                -0.787
REMARK SMILES COc1ncc(Nc2ncc(C(C)(C)O)cc2-c2nc(C)nc(N)n2)cc1F
REMARK SMILES IDX 8 1 9 2 10 3 11 4 16 5 17 6 7 7 6 9 3 10 4 11 27 12 5 13
REMARK SMILES IDX 26 14 28 15 2 16 1 17 18 18 19 19 25 20 20 21 23 22 22 23
REMARK SMILES IDX 21 24 24 25 12 28 13 29 14 30 15 31
REMARK H PARENT 7 8 24 26 24 27 15 32
ROOT
ATOM      1  C   UNL     1      48.533  -2.037 -48.701  1.00  0.00     0.141 A 
ATOM      2  N   UNL     1      48.545  -1.623 -49.991  1.00  0.00    -0.238 NA
ATOM      3  C   UNL     1      49.415  -0.658 -50.371  1.00  0.00     0.120 A 
ATOM      4  C   UNL     1      50.326  -0.050 -49.525  1.00  0.00     0.002 A 
ATOM      5  C   UNL     1      50.306  -0.491 -48.196  1.00  0.00     0.024 A 
ATOM      6  C   UNL     1      49.414  -1.492 -47.742  1.00  0.00     0.063 A 
ENDROOT
BRANCH   1   7
ATOM      7  N   UNL     1      47.642  -3.070 -48.344  1.00  0.00    -0.338 N 
ATOM      8  H   UNL     1      47.635  -3.231 -47.338  1.00  0.00     0.168 HD
BRANCH   7   9
ATOM      9  C   UNL     1      46.666  -3.768 -49.067  1.00  0.00     0.061 A 
ATOM     10  C   UNL     1      44.685  -5.126 -50.450  1.00  0.00     0.250 A 
ATOM     11  N   UNL     1      45.938  -5.629 -50.486  1.00  0.00    -0.217 NA
ATOM     12  C   UNL     1      44.354  -3.975 -49.752  1.00  0.00     0.187 A 
ATOM     13  C   UNL     1      46.889  -4.939 -49.796  1.00  0.00     0.141 A 
ATOM     14  C   UNL     1      45.348  -3.295 -49.056  1.00  0.00     0.072 A 
ATOM     15  F   UNL     1      43.099  -3.504 -49.732  1.00  0.00    -0.201 F 
BRANCH  10  16
ATOM     16  O   UNL     1      43.668  -5.771 -51.126  1.00  0.00    -0.479 OA
ATOM     17  C   UNL     1      43.613  -5.433 -52.508  1.00  0.00     0.280 C 
ENDBRANCH  10  16
ENDBRANCH   7   9
ENDBRANCH   1   7
BRANCH   6  18
ATOM     18  C   UNL     1      49.443  -1.906 -46.322  1.00  0.00     0.168 A 
ATOM     19  N   UNL     1      49.411  -0.953 -45.381  1.00  0.00    -0.213 NA
ATOM     20  N   UNL     1      49.530  -3.214 -46.063  1.00  0.00    -0.193 NA
ATOM     21  C   UNL     1      49.456  -1.398 -44.124  1.00  0.00     0.131 A 
ATOM     22  C   UNL     1      49.573  -3.540 -44.781  1.00  0.00     0.223 A 
ATOM     23  N   UNL     1      49.545  -2.679 -43.777  1.00  0.00    -0.198 NA
ATOM     24  C   UNL     1      49.451  -0.380 -43.026  1.00  0.00     0.090 C 
BRANCH  22  25
ATOM     25  N   UNL     1      49.656  -4.866 -44.470  1.00  0.00    -0.368 N 
ATOM     26  H   UNL     1      49.611  -5.128 -43.500  1.00  0.00     0.159 HD
ATOM     27  H   UNL     1      49.718  -5.534 -45.217  1.00  0.00     0.159 HD
ENDBRANCH  22  25
ENDBRANCH   6  18
BRANCH   4  28
ATOM     28  C   UNL     1      51.283   1.026 -50.005  1.00  0.00     0.086 C 
ATOM     29  C   UNL     1      52.707   0.760 -49.501  1.00  0.00     0.047 C 
ATOM     30  C   UNL     1      50.808   2.419 -49.571  1.00  0.00     0.047 C 
BRANCH  28  31
ATOM     31  O   UNL     1      51.335   1.024 -51.436  1.00  0.00    -0.386 OA
ATOM     32  H   UNL     1      52.049   0.424 -51.709  1.00  0.00     0.211 HD
ENDBRANCH  28  31
ENDBRANCH   4  28
TORSDOF 7
ENDMDL
MODEL 6
REMARK VINA RESULT:    -7.855      3.823      5.450
REMARK INTER + INTRA:         -11.397
REMARK INTER:                 -10.464
REMARK INTRA:                  -0.933
REMARK UNBOUND:                -0.787
REMARK SMILES COc1ncc(Nc2ncc(C(C)(C)O)cc2-c2nc(C)nc(N)n2)cc1F
REMARK SMILES IDX 8 1 9 2 10 3 11 4 16 5 17 6 7 7 6 9 3 10 4 11 27 12 5 13
REMARK SMILES IDX 26 14 28 15 2 16 1 17 18 18 19 19 25 20 20 21 23 22 22 23
REMARK SMILES IDX 21 24 24 25 12 28 13 29 14 30 15 31
REMARK H PARENT 7 8 24 26 24 27 15 32
ROOT
ATOM      1  C   UNL     1      47.714  -1.484 -47.097  1.00  0.00     0.141 A 
ATOM      2  N   UNL     1      46.596  -2.232 -46.937  1.00  0.00    -0.238 NA
ATOM      3  C   UNL     1      46.244  -3.115 -47.901  1.00  0.00     0.120 A 
ATOM      4  C   UNL     1      46.959  -3.326 -49.067  1.00  0.00     0.002 A 
ATOM      5  C   UNL     1      48.115  -2.549 -49.217  1.00  0.00     0.024 A 
ATOM      6  C   UNL     1      48.528  -1.608 -48.243  1.00  0.00     0.063 A 
ENDROOT
BRANCH   1   7
ATOM      7  N   UNL     1      48.076  -0.600 -46.059  1.00  0.00    -0.338 N 
ATOM      8  H   UNL     1      48.062   0.370 -46.368  1.00  0.00     0.168 HD
BRANCH   7   9
ATOM      9  C   UNL     1      48.269  -0.788 -44.684  1.00  0.00     0.061 A 
ATOM     10  C   UNL     1      48.578  -1.174 -41.957  1.00  0.00     0.250 A 
ATOM     11  N   UNL     1      49.391  -0.282 -42.564  1.00  0.00    -0.217 NA
ATOM     12  C   UNL     1      47.604  -1.891 -42.635  1.00  0.00     0.187 A 
ATOM     13  C   UNL     1      49.213  -0.115 -43.905  1.00  0.00     0.141 A 
ATOM     14  C   UNL     1      47.447  -1.694 -44.003  1.00  0.00     0.072 A 
ATOM     15  F   UNL     1      46.810  -2.766 -42.002  1.00  0.00    -0.201 F 
BRANCH  10  16
ATOM     16  O   UNL     1      48.700  -1.399 -40.600  1.00  0.00    -0.479 OA
ATOM     17  C   UNL     1      49.762  -2.288 -40.272  1.00  0.00     0.280 C 
ENDBRANCH  10  16
ENDBRANCH   7   9
ENDBRANCH   1   7
BRANCH   6  18
ATOM     18  C   UNL     1      49.757  -0.816 -48.470  1.00  0.00     0.168 A 
ATOM     19  N   UNL     1      50.642  -0.715 -47.470  1.00  0.00    -0.213 NA
ATOM     20  N   UNL     1      49.897  -0.221 -49.658  1.00  0.00    -0.193 NA
ATOM     21  C   UNL     1      51.719   0.026 -47.739  1.00  0.00     0.131 A 
ATOM     22  C   UNL     1      51.000   0.493 -49.813  1.00  0.00     0.223 A 
ATOM     23  N   UNL     1      51.936   0.654 -48.892  1.00  0.00    -0.198 NA
ATOM     24  C   UNL     1      52.733   0.199 -46.652  1.00  0.00     0.090 C 
BRANCH  22  25
ATOM     25  N   UNL     1      51.187   1.113 -51.013  1.00  0.00    -0.368 N 
ATOM     26  H   UNL     1      51.954   0.810 -51.588  1.00  0.00     0.159 HD
ATOM     27  H   UNL     1      50.534   1.821 -51.297  1.00  0.00     0.159 HD
ENDBRANCH  22  25
ENDBRANCH   6  18
BRANCH   4  28
ATOM     28  C   UNL     1      46.521  -4.332 -50.115  1.00  0.00     0.086 C 
ATOM     29  C   UNL     1      45.460  -3.730 -51.046  1.00  0.00     0.047 C 
ATOM     30  C   UNL     1      45.998  -5.617 -49.461  1.00  0.00     0.047 C 
BRANCH  28  31
ATOM     31  O   UNL     1      47.639  -4.698 -50.932  1.00  0.00    -0.386 OA
ATOM     32  H   UNL     1      47.709  -4.050 -51.652  1.00  0.00     0.211 HD
ENDBRANCH  28  31
ENDBRANCH   4  28
TORSDOF 7
ENDMDL
MODEL 7
REMARK VINA RESULT:    -7.708      4.466      6.725
REMARK INTER + INTRA:         -11.199
REMARK INTER:                 -10.439
REMARK INTRA:                  -0.760
REMARK UNBOUND:                -0.787
REMARK SMILES COc1ncc(Nc2ncc(C(C)(C)O)cc2-c2nc(C)nc(N)n2)cc1F
REMARK SMILES IDX 8 1 9 2 10 3 11 4 16 5 17 6 7 7 6 9 3 10 4 11 27 12 5 13
REMARK SMILES IDX 26 14 28 15 2 16 1 17 18 18 19 19 25 20 20 21 23 22 22 23
REMARK SMILES IDX 21 24 24 25 12 28 13 29 14 30 15 31
REMARK H PARENT 7 8 24 26 24 27 15 32
ROOT
ATOM      1  C   UNL     1      49.933  -0.802 -47.128  1.00  0.00     0.141 A 
ATOM      2  N   UNL     1      49.973  -0.878 -45.776  1.00  0.00    -0.238 NA
ATOM      3  C   UNL     1      51.104  -0.520 -45.124  1.00  0.00     0.120 A 
ATOM      4  C   UNL     1      52.253  -0.063 -45.745  1.00  0.00     0.002 A 
ATOM      5  C   UNL     1      52.197   0.015 -47.142  1.00  0.00     0.024 A 
ATOM      6  C   UNL     1      51.042  -0.350 -47.876  1.00  0.00     0.063 A 
ENDROOT
BRANCH   1   7
ATOM      7  N   UNL     1      48.729  -1.145 -47.778  1.00  0.00    -0.338 N 
ATOM      8  H   UNL     1      48.483  -0.468 -48.498  1.00  0.00     0.168 HD
BRANCH   7   9
ATOM      9  C   UNL     1      47.930  -2.296 -47.741  1.00  0.00     0.061 A 
ATOM     10  C   UNL     1      46.338  -4.564 -47.740  1.00  0.00     0.250 A 
ATOM     11  N   UNL     1      46.399  -3.835 -46.604  1.00  0.00    -0.217 NA
ATOM     12  C   UNL     1      47.028  -4.223 -48.892  1.00  0.00     0.187 A 
ATOM     13  C   UNL     1      47.190  -2.726 -46.637  1.00  0.00     0.141 A 
ATOM     14  C   UNL     1      47.825  -3.083 -48.893  1.00  0.00     0.072 A 
ATOM     15  F   UNL     1      46.943  -4.966 -50.006  1.00  0.00    -0.201 F 
BRANCH  10  16
ATOM     16  O   UNL     1      45.557  -5.702 -47.782  1.00  0.00    -0.479 OA
ATOM     17  C   UNL     1      45.599  -6.455 -46.574  1.00  0.00     0.280 C 
ENDBRANCH  10  16
ENDBRANCH   7   9
ENDBRANCH   1   7
BRANCH   6  18
ATOM     18  C   UNL     1      51.054  -0.249 -49.352  1.00  0.00     0.168 A 
ATOM     19  N   UNL     1      50.037  -0.789 -50.035  1.00  0.00    -0.213 NA
ATOM     20  N   UNL     1      52.102   0.354 -49.920  1.00  0.00    -0.193 NA
ATOM     21  C   UNL     1      50.121  -0.673 -51.362  1.00  0.00     0.131 A 
ATOM     22  C   UNL     1      52.084   0.407 -51.242  1.00  0.00     0.223 A 
ATOM     23  N   UNL     1      51.128  -0.092 -52.008  1.00  0.00    -0.198 NA
ATOM     24  C   UNL     1      49.027  -1.281 -52.183  1.00  0.00     0.090 C 
BRANCH  22  25
ATOM     25  N   UNL     1      53.132   1.019 -51.864  1.00  0.00    -0.368 N 
ATOM     26  H   UNL     1      53.941   1.248 -51.313  1.00  0.00     0.159 HD
ATOM     27  H   UNL     1      53.076   1.185 -52.853  1.00  0.00     0.159 HD
ENDBRANCH  22  25
ENDBRANCH   6  18
BRANCH   4  28
ATOM     28  C   UNL     1      53.494   0.328 -44.964  1.00  0.00     0.086 C 
ATOM     29  C   UNL     1      53.130   1.185 -43.745  1.00  0.00     0.047 C 
ATOM     30  C   UNL     1      54.500   1.062 -45.859  1.00  0.00     0.047 C 
BRANCH  28  31
ATOM     31  O   UNL     1      54.146  -0.848 -44.471  1.00  0.00    -0.386 OA
ATOM     32  H   UNL     1      53.512  -1.583 -44.514  1.00  0.00     0.211 HD
ENDBRANCH  28  31
ENDBRANCH   4  28
TORSDOF 7
ENDMDL
MODEL 8
REMARK VINA RESULT:    -7.666      3.224      6.334
REMARK INTER + INTRA:         -11.141
REMARK INTER:                  -9.973
REMARK INTRA:                  -1.168
REMARK UNBOUND:                -0.787
REMARK SMILES COc1ncc(Nc2ncc(C(C)(C)O)cc2-c2nc(C)nc(N)n2)cc1F
REMARK SMILES IDX 8 1 9 2 10 3 11 4 16 5 17 6 7 7 6 9 3 10 4 11 27 12 5 13
REMARK SMILES IDX 26 14 28 15 2 16 1 17 18 18 19 19 25 20 20 21 23 22 22 23
REMARK SMILES IDX 21 24 24 25 12 28 13 29 14 30 15 31
REMARK H PARENT 7 8 24 26 24 27 15 32
ROOT
ATOM      1  C   UNL     1      50.019  -1.267 -46.672  1.00  0.00     0.141 A 
ATOM      2  N   UNL     1      51.130  -0.495 -46.598  1.00  0.00    -0.238 NA
ATOM      3  C   UNL     1      51.573   0.140 -47.708  1.00  0.00     0.120 A 
ATOM      4  C   UNL     1      50.959   0.069 -48.946  1.00  0.00     0.002 A 
ATOM      5  C   UNL     1      49.810  -0.728 -49.008  1.00  0.00     0.024 A 
ATOM      6  C   UNL     1      49.305  -1.419 -47.880  1.00  0.00     0.063 A 
ENDROOT
BRANCH   1   7
ATOM      7  N   UNL     1      49.561  -1.886 -45.490  1.00  0.00    -0.338 N 
ATOM      8  H   UNL     1      48.955  -2.679 -45.691  1.00  0.00     0.168 HD
BRANCH   7   9
ATOM      9  C   UNL     1      49.915  -1.729 -44.144  1.00  0.00     0.061 A 
ATOM     10  C   UNL     1      50.593  -1.350 -41.484  1.00  0.00     0.250 A 
ATOM     11  N   UNL     1      51.298  -2.259 -42.191  1.00  0.00    -0.217 NA
ATOM     12  C   UNL     1      49.561  -0.604 -42.031  1.00  0.00     0.187 A 
ATOM     13  C   UNL     1      50.940  -2.423 -43.495  1.00  0.00     0.141 A 
ATOM     14  C   UNL     1      49.223  -0.793 -43.367  1.00  0.00     0.072 A 
ATOM     15  F   UNL     1      48.884   0.296 -41.303  1.00  0.00    -0.201 F 
BRANCH  10  16
ATOM     16  O   UNL     1      50.898  -1.130 -40.155  1.00  0.00    -0.479 OA
ATOM     17  C   UNL     1      52.226  -1.514 -39.814  1.00  0.00     0.280 C 
ENDBRANCH  10  16
ENDBRANCH   7   9
ENDBRANCH   1   7
BRANCH   6  18
ATOM     18  C   UNL     1      48.088  -2.250 -48.017  1.00  0.00     0.168 A 
ATOM     19  N   UNL     1      48.001  -3.082 -49.063  1.00  0.00    -0.213 NA
ATOM     20  N   UNL     1      47.130  -2.097 -47.099  1.00  0.00    -0.193 NA
ATOM     21  C   UNL     1      46.870  -3.788 -49.132  1.00  0.00     0.131 A 
ATOM     22  C   UNL     1      46.051  -2.843 -47.269  1.00  0.00     0.223 A 
ATOM     23  N   UNL     1      45.867  -3.696 -48.263  1.00  0.00    -0.198 NA
ATOM     24  C   UNL     1      46.701  -4.716 -50.293  1.00  0.00     0.090 C 
BRANCH  22  25
ATOM     25  N   UNL     1      45.050  -2.724 -46.350  1.00  0.00    -0.368 N 
ATOM     26  H   UNL     1      45.003  -3.402 -45.610  1.00  0.00     0.159 HD
ATOM     27  H   UNL     1      44.420  -1.945 -46.422  1.00  0.00     0.159 HD
ENDBRANCH  22  25
ENDBRANCH   6  18
BRANCH   4  28
ATOM     28  C   UNL     1      51.497   0.805 -50.160  1.00  0.00     0.086 C 
ATOM     29  C   UNL     1      50.861   0.275 -51.451  1.00  0.00     0.047 C 
ATOM     30  C   UNL     1      53.026   0.707 -50.231  1.00  0.00     0.047 C 
BRANCH  28  31
ATOM     31  O   UNL     1      51.166   2.196 -50.068  1.00  0.00    -0.386 OA
ATOM     32  H   UNL     1      51.963   2.709 -50.279  1.00  0.00     0.211 HD
ENDBRANCH  28  31
ENDBRANCH   4  28
TORSDOF 7
ENDMDL
