MODEL 7
REMARK VINA RESULT:    -6.030      3.010      4.461
REMARK INTER + INTRA:          -9.115
REMARK INTER:                  -8.013
REMARK INTRA:                  -1.102
REMARK UNBOUND:                -1.146
REMARK SMILES CCC(CC)n1cnc2c(-c3cnc(N)cn3)nc(N3C[C@H]4CC[C@@H](C3)O4)nc21
REMARK SMILES IDX 6 1 7 2 8 3 9 4 10 5 18 6 19 7 28 8 29 9 3 10 2 11 1 12 4 13
REMARK SMILES IDX 5 14 11 15 17 16 12 17 16 18 13 19 14 20 15 21 20 24 21 25
REMARK SMILES IDX 26 26 22 27 25 28 23 29 27 30 24 31
REMARK H PARENT 15 22 15 23
ROOT
ATOM      1  N   UNL     1      35.401  47.982  42.037  1.00  0.00    -0.312 N 
ATOM      2  C   UNL     1      36.771  47.977  41.867  1.00  0.00     0.202 A 
ATOM      3  N   UNL     1      37.180  47.482  40.727  1.00  0.00    -0.233 NA
ATOM      4  C   UNL     1      36.025  47.123  40.083  1.00  0.00     0.136 A 
ATOM      5  C   UNL     1      35.774  46.542  38.822  1.00  0.00     0.124 A 
ATOM      6  N   UNL     1      34.484  46.300  38.447  1.00  0.00    -0.209 NA
ATOM      7  C   UNL     1      33.471  46.610  39.306  1.00  0.00     0.228 A 
ATOM      8  N   UNL     1      33.623  47.206  40.526  1.00  0.00    -0.193 NA
ATOM      9  C   UNL     1      34.893  47.427  40.876  1.00  0.00     0.166 A 
ENDROOT
BRANCH   1  10
ATOM     10  C   UNL     1      34.677  48.492  43.211  1.00  0.00     0.090 C 
BRANCH  10  11
ATOM     11  C   UNL     1      35.609  49.321  44.131  1.00  0.00     0.022 C 
ATOM     12  C   UNL     1      35.147  49.416  45.595  1.00  0.00     0.006 C 
ENDBRANCH  10  11
BRANCH  10  13
ATOM     13  C   UNL     1      33.978  47.337  43.972  1.00  0.00     0.022 C 
ATOM     14  C   UNL     1      32.442  47.428  44.005  1.00  0.00     0.006 C 
ENDBRANCH  10  13
ENDBRANCH   1  10
BRANCH   5  15
ATOM     15  C   UNL     1      36.846  46.164  37.852  1.00  0.00     0.110 A 
ATOM     16  N   UNL     1      36.965  46.926  36.724  1.00  0.00    -0.249 NA
ATOM     17  C   UNL     1      37.713  45.081  38.063  1.00  0.00     0.144 A 
ATOM     18  C   UNL     1      37.938  46.601  35.833  1.00  0.00     0.158 A 
ATOM     19  N   UNL     1      38.686  44.755  37.171  1.00  0.00    -0.236 NA
ATOM     20  C   UNL     1      38.794  45.521  36.055  1.00  0.00     0.141 A 
BRANCH  20  21
ATOM     21  N   UNL     1      39.788  45.201  35.133  1.00  0.00    -0.382 N 
ATOM     22  H   UNL     1      40.256  45.939  34.627  1.00  0.00     0.158 HD
ATOM     23  H   UNL     1      40.031  44.232  34.984  1.00  0.00     0.158 HD
ENDBRANCH  20  21
ENDBRANCH   5  15
BRANCH   7  24
ATOM     24  N   UNL     1      32.163  46.378  38.866  1.00  0.00    -0.336 N 
ATOM     25  C   UNL     1      31.752  45.125  38.193  1.00  0.00     0.151 C 
ATOM     26  C   UNL     1      30.968  46.916  39.554  1.00  0.00     0.151 C 
ATOM     27  C   UNL     1      31.032  44.147  39.171  1.00  0.00     0.138 C 
ATOM     28  C   UNL     1      30.286  45.850  40.463  1.00  0.00     0.138 C 
ATOM     29  C   UNL     1      31.729  43.914  40.524  1.00  0.00     0.037 C 
ATOM     30  O   UNL     1      29.842  44.784  39.629  1.00  0.00    -0.371 OA
ATOM     31  C   UNL     1      31.222  45.064  41.398  1.00  0.00     0.037 C 
ENDBRANCH   7  24
TORSDOF 6
ENDMDL
