REMARK VINA RESULT:    -8.568      1.874      2.479
REMARK INTER + INTRA:         -11.751
REMARK INTER:                 -11.140
REMARK INTRA:                  -0.612
REMARK UNBOUND:                -0.679
REMARK SMILES Fc1cccc(COc2ccc(Nc3ccncn3)cc2Cl)c1
REMARK SMILES IDX 8 1 7 2 6 3 2 4 3 5 23 6 4 7 5 8 1 9 9 10 10 11 21 12 11 13
REMARK SMILES IDX 20 14 12 15 22 16 13 17 14 19 15 20 19 21 16 22 18 23 17 24
REMARK H PARENT 13 18
ROOT
ATOM      1  O   UNL     1      17.860  34.471  13.431  1.00  0.00    -0.487 OA
ENDROOT
BRANCH   1   2
ATOM      2  C   UNL     1      17.683  33.666  14.595  1.00  0.00     0.265 C 
BRANCH   2   3
ATOM      3  C   UNL     1      16.560  34.230  15.437  1.00  0.00    -0.008 A 
ATOM      4  C   UNL     1      15.817  35.503  17.356  1.00  0.00     0.123 A 
ATOM      5  C   UNL     1      14.489  35.359  16.971  1.00  0.00     0.039 A 
ATOM      6  C   UNL     1      16.849  34.953  16.603  1.00  0.00     0.046 A 
ATOM      7  C   UNL     1      14.188  34.654  15.808  1.00  0.00     0.003 A 
ATOM      8  C   UNL     1      15.218  34.098  15.042  1.00  0.00     0.007 A 
ATOM      9  F   UNL     1      16.108  36.188  18.470  1.00  0.00    -0.207 F 
ENDBRANCH   2   3
ENDBRANCH   1   2
BRANCH   1  10
ATOM     10  C   UNL     1      17.634  33.894  12.211  1.00  0.00     0.138 A 
ATOM     11  C   UNL     1      16.429  33.957  11.511  1.00  0.00     0.050 A 
ATOM     12  C   UNL     1      18.706  33.201  11.629  1.00  0.00     0.085 A 
ATOM     13  C   UNL     1      16.303  33.338  10.260  1.00  0.00     0.030 A 
ATOM     14  C   UNL     1      18.574  32.585  10.378  1.00  0.00     0.050 A 
ATOM     15  C   UNL     1      17.370  32.642   9.675  1.00  0.00     0.041 A 
ATOM     16  Cl  UNL     1      20.231  33.066  12.436  1.00  0.00    -0.080 Cl
BRANCH  15  17
ATOM     17  N   UNL     1      17.186  32.085   8.404  1.00  0.00    -0.340 N 
ATOM     18  H   UNL     1      17.613  32.593   7.637  1.00  0.00     0.168 HD
BRANCH  17  19
ATOM     19  C   UNL     1      16.399  31.056   7.890  1.00  0.00     0.133 A 
ATOM     20  C   UNL     1      15.038  31.163   7.685  1.00  0.00     0.067 A 
ATOM     21  N   UNL     1      17.057  29.909   7.639  1.00  0.00    -0.219 NA
ATOM     22  C   UNL     1      14.396  30.053   7.183  1.00  0.00     0.116 A 
ATOM     23  C   UNL     1      16.336  28.890   7.146  1.00  0.00     0.224 A 
ATOM     24  N   UNL     1      15.022  28.901   6.897  1.00  0.00    -0.245 NA
ENDBRANCH  17  19
ENDBRANCH  15  17
ENDBRANCH   1  10
TORSDOF 5
