MODEL 7
REMARK VINA RESULT:    -8.370      2.067      7.035
REMARK INTER + INTRA:          -9.316
REMARK INTER:                  -8.994
REMARK INTRA:                  -0.322
REMARK UNBOUND:                 0.521
REMARK SMILES c1ccc(CN2CCC(n3cnc4cnc5[nH]ccc5c43)CC2)cc1
REMARK SMILES IDX 6 1 7 2 8 3 9 4 22 5 23 6 5 7 4 8 1 9 2 10 25 11 3 12 24 13
REMARK SMILES IDX 10 14 11 15 21 16 12 17 20 18 13 19 19 20 16 21 14 22 18 23
REMARK SMILES IDX 15 24 17 25
REMARK H PARENT 17 26
ROOT
ATOM      1  N   UNL     1      -2.379  24.421 -25.588  1.00  0.00    -0.299 NA
ATOM      2  C   UNL     1      -2.923  25.387 -26.554  1.00  0.00     0.087 C 
ATOM      3  C   UNL     1      -3.620  24.685 -27.716  1.00  0.00     0.041 C 
ATOM      4  C   UNL     1      -2.600  23.857 -28.522  1.00  0.00     0.091 C 
ATOM      5  C   UNL     1      -1.450  23.332 -27.647  1.00  0.00     0.041 C 
ATOM      6  C   UNL     1      -1.885  23.177 -26.193  1.00  0.00     0.087 C 
ENDROOT
BRANCH   1   7
ATOM      7  C   UNL     1      -1.373  25.035 -24.703  1.00  0.00     0.120 C 
BRANCH   7   8
ATOM      8  C   UNL     1      -0.130  25.507 -25.430  1.00  0.00    -0.034 A 
ATOM      9  C   UNL     1       2.173  26.398 -26.761  1.00  0.00     0.000 A 
ATOM     10  C   UNL     1       1.001  27.150 -26.819  1.00  0.00     0.000 A 
ATOM     11  C   UNL     1       2.200  25.205 -26.042  1.00  0.00     0.000 A 
ATOM     12  C   UNL     1      -0.145  26.708 -26.155  1.00  0.00     0.005 A 
ATOM     13  C   UNL     1       1.055  24.761 -25.378  1.00  0.00     0.005 A 
ENDBRANCH   7   8
ENDBRANCH   1   7
BRANCH   4  14
ATOM     14  N   UNL     1      -3.191  22.793 -29.327  1.00  0.00    -0.327 N 
ATOM     15  C   UNL     1      -3.058  21.444 -29.071  1.00  0.00     0.200 A 
ATOM     16  C   UNL     1      -3.930  22.879 -30.452  1.00  0.00     0.081 A 
ATOM     17  N   UNL     1      -3.740  20.700 -29.918  1.00  0.00    -0.235 NA
ATOM     18  C   UNL     1      -4.327  23.922 -31.230  1.00  0.00     0.045 A 
ATOM     19  C   UNL     1      -4.299  21.590 -30.800  1.00  0.00     0.108 A 
ATOM     20  C   UNL     1      -4.054  25.309 -31.166  1.00  0.00     0.032 A 
ATOM     21  C   UNL     1      -5.120  23.658 -32.324  1.00  0.00     0.139 A 
ATOM     22  C   UNL     1      -5.114  21.405 -31.931  1.00  0.00     0.144 A 
ATOM     23  C   UNL     1      -4.729  25.865 -32.241  1.00  0.00     0.085 A 
ATOM     24  N   UNL     1      -5.547  22.443 -32.712  1.00  0.00    -0.236 NA
ATOM     25  N   UNL     1      -5.375  24.857 -32.928  1.00  0.00    -0.346 N 
ATOM     26  H   UNL     1      -5.938  24.959 -33.760  1.00  0.00     0.167 HD
ENDBRANCH   4  14
TORSDOF 3
ENDMDL
