MODEL 7
REMARK VINA RESULT:    -7.376      4.648     10.585
REMARK INTER + INTRA:         -11.427
REMARK INTER:                 -10.230
REMARK INTRA:                  -1.197
REMARK UNBOUND:                -1.248
REMARK SMILES Cc1cc(N2C[C@H](CNC(=O)c3ccc(Cl)s3)OC2=O)ccc1-n1cccc(CO)c1=O
REMARK SMILES IDX 1 1 2 2 3 3 4 4 21 5 22 6 23 7 24 8 25 9 31 10 26 11 28 12
REMARK SMILES IDX 32 13 27 14 29 15 30 16 5 18 6 19 19 20 7 21 18 22 20 23
REMARK SMILES IDX 8 24 9 25 10 26 11 27 12 29 13 30 17 31 14 32 15 33 16 34
REMARK H PARENT 30 17 9 28
ROOT
ATOM      1  C   UNL     1     128.543 -18.355 162.825  1.00  0.00     0.047 C 
ATOM      2  C   UNL     1     129.761 -17.519 163.119  1.00  0.00    -0.025 A 
ATOM      3  C   UNL     1     130.883 -18.188 163.662  1.00  0.00     0.032 A 
ATOM      4  C   UNL     1     132.097 -17.536 163.916  1.00  0.00     0.048 A 
ATOM      5  C   UNL     1     132.166 -16.172 163.615  1.00  0.00     0.028 A 
ATOM      6  C   UNL     1     131.063 -15.487 163.090  1.00  0.00     0.029 A 
ATOM      7  C   UNL     1     129.841 -16.140 162.862  1.00  0.00     0.052 A 
ENDROOT
BRANCH   7   8
ATOM      8  N   UNL     1     128.738 -15.372 162.358  1.00  0.00    -0.284 N 
ATOM      9  C   UNL     1     128.627 -15.119 160.994  1.00  0.00     0.095 A 
ATOM     10  C   UNL     1     127.839 -14.789 163.274  1.00  0.00     0.260 A 
ATOM     11  C   UNL     1     127.633 -14.381 160.488  1.00  0.00     0.019 A 
ATOM     12  C   UNL     1     126.696 -14.011 162.686  1.00  0.00     0.043 A 
ATOM     13  O   UNL     1     127.934 -14.831 164.502  1.00  0.00    -0.269 OA
ATOM     14  C   UNL     1     126.631 -13.831 161.358  1.00  0.00     0.013 A 
BRANCH  12  15
ATOM     15  C   UNL     1     125.679 -13.490 163.652  1.00  0.00     0.197 C 
BRANCH  15  16
ATOM     16  O   UNL     1     126.226 -12.431 164.428  1.00  0.00    -0.391 OA
ATOM     17  H   UNL     1     125.828 -12.526 165.317  1.00  0.00     0.211 HD
ENDBRANCH  15  16
ENDBRANCH  12  15
ENDBRANCH   7   8
BRANCH   4  18
ATOM     18  N   UNL     1     133.214 -18.216 164.468  1.00  0.00    -0.274 N 
ATOM     19  C   UNL     1     133.741 -17.931 165.768  1.00  0.00     0.176 C 
ATOM     20  C   UNL     1     134.037 -19.137 163.833  1.00  0.00     0.414 C 
ATOM     21  C   UNL     1     134.719 -19.060 166.003  1.00  0.00     0.217 C 
ATOM     22  O   UNL     1     135.010 -19.566 164.698  1.00  0.00    -0.442 OA
ATOM     23  O   UNL     1     133.989 -19.538 162.681  1.00  0.00    -0.224 OA
BRANCH  21  24
ATOM     24  C   UNL     1     135.993 -18.636 166.743  1.00  0.00     0.163 C 
BRANCH  24  25
ATOM     25  N   UNL     1     135.918 -18.808 168.186  1.00  0.00    -0.348 N 
ATOM     26  C   UNL     1     136.359 -19.971 168.802  1.00  0.00     0.261 C 
ATOM     27  O   UNL     1     136.716 -20.939 168.135  1.00  0.00    -0.268 OA
ATOM     28  H   UNL     1     135.606 -18.038 168.757  1.00  0.00     0.163 HD
BRANCH  26  29
ATOM     29  C   UNL     1     136.343 -19.948 170.262  1.00  0.00     0.093 A 
ATOM     30  C   UNL     1     136.669 -18.941 171.161  1.00  0.00     0.027 A 
ATOM     31  S   UNL     1     135.854 -21.374 171.101  1.00  0.00    -0.118 S 
ATOM     32  C   UNL     1     136.509 -19.346 172.523  1.00  0.00     0.033 A 
ATOM     33  C   UNL     1     136.074 -20.641 172.605  1.00  0.00     0.094 A 
ATOM     34  Cl  UNL     1     135.754 -21.522 174.043  1.00  0.00    -0.072 Cl
ENDBRANCH  26  29
ENDBRANCH  24  25
ENDBRANCH  21  24
ENDBRANCH   4  18
TORSDOF 7
ENDMDL
