REMARK VINA RESULT:    -9.729      4.824      7.066
REMARK INTER + INTRA:         -15.061
REMARK INTER:                 -15.160
REMARK INTRA:                   0.100
REMARK UNBOUND:                -0.498
REMARK SMILES CCc1oc(-c2ccccc2)nc1CCc1noc2cc(OC(C)(C)C(=O)O)ccc12
REMARK SMILES IDX 16 1 17 2 18 3 19 4 20 5 21 6 29 7 30 8 31 9 15 10 14 11
REMARK SMILES IDX 13 12 3 13 4 14 5 15 12 16 2 17 1 18 6 19 7 20 11 21 8 22
REMARK SMILES IDX 10 23 9 24 22 25 23 26 24 27 25 28 26 29 27 30 28 31
REMARK H PARENT 28 32
ROOT
ATOM      1  C   UNL     1      45.648 -41.443 107.269  1.00  0.00     0.092 A 
ATOM      2  N   UNL     1      46.570 -42.240 107.827  1.00  0.00    -0.084 NA
ATOM      3  O   UNL     1      47.430 -41.397 108.514  1.00  0.00    -0.356 OA
ATOM      4  C   UNL     1      47.018 -40.109 108.367  1.00  0.00     0.170 A 
ATOM      5  C   UNL     1      47.627 -38.985 108.919  1.00  0.00     0.097 A 
ATOM      6  C   UNL     1      47.025 -37.761 108.619  1.00  0.00     0.124 A 
ATOM      7  C   UNL     1      45.850 -37.687 107.865  1.00  0.00     0.047 A 
ATOM      8  C   UNL     1      45.265 -38.841 107.325  1.00  0.00     0.018 A 
ATOM      9  C   UNL     1      45.879 -40.078 107.583  1.00  0.00     0.045 A 
ENDROOT
BRANCH   1  10
ATOM     10  C   UNL     1      44.545 -42.030 106.455  1.00  0.00     0.067 C 
BRANCH  10  11
ATOM     11  C   UNL     1      45.023 -42.573 105.108  1.00  0.00     0.066 C 
BRANCH  11  12
ATOM     12  C   UNL     1      44.350 -41.924 103.951  1.00  0.00     0.083 A 
ATOM     13  C   UNL     1      43.394 -40.931 103.932  1.00  0.00     0.127 A 
ATOM     14  O   UNL     1      43.099 -40.658 102.627  1.00  0.00    -0.441 OA
ATOM     15  C   UNL     1      43.905 -41.504 101.910  1.00  0.00     0.226 A 
ATOM     16  N   UNL     1      44.672 -42.275 102.659  1.00  0.00    -0.214 NA
BRANCH  13  17
ATOM     17  C   UNL     1      42.683 -40.142 104.965  1.00  0.00     0.074 C 
ATOM     18  C   UNL     1      42.088 -38.870 104.383  1.00  0.00     0.012 C 
ENDBRANCH  13  17
BRANCH  15  19
ATOM     19  C   UNL     1      43.823 -41.419 100.454  1.00  0.00     0.037 A 
ATOM     20  C   UNL     1      44.739 -42.075  99.617  1.00  0.00     0.014 A 
ATOM     21  C   UNL     1      42.795 -40.670  99.861  1.00  0.00     0.014 A 
ATOM     22  C   UNL     1      44.627 -41.987  98.227  1.00  0.00     0.001 A 
ATOM     23  C   UNL     1      42.683 -40.582  98.471  1.00  0.00     0.001 A 
ATOM     24  C   UNL     1      43.600 -41.241  97.655  1.00  0.00     0.000 A 
ENDBRANCH  15  19
ENDBRANCH  11  12
ENDBRANCH  10  11
ENDBRANCH   1  10
BRANCH   6  25
ATOM     25  O   UNL     1      47.517 -36.600 109.149  1.00  0.00    -0.476 OA
BRANCH  25  26
ATOM     26  C   UNL     1      48.399 -35.861 108.287  1.00  0.00     0.199 C 
ATOM     27  C   UNL     1      49.582 -36.808 108.019  1.00  0.00     0.069 C 
ATOM     28  C   UNL     1      47.686 -35.625 106.945  1.00  0.00     0.069 C 
BRANCH  26  29
ATOM     29  C   UNL     1      48.985 -34.519 108.793  1.00  0.00     0.347 C 
ATOM     30  O   UNL     1      49.811 -33.821 108.225  1.00  0.00    -0.248 OA
BRANCH  29  31
ATOM     31  O   UNL     1      48.496 -34.126 109.990  1.00  0.00    -0.478 OA
ATOM     32  H   UNL     1      48.931 -33.261 110.148  1.00  0.00     0.296 HD
ENDBRANCH  29  31
ENDBRANCH  26  29
ENDBRANCH  25  26
ENDBRANCH   6  25
TORSDOF 9
