MODEL 2
REMARK VINA RESULT:   -10.593      1.860      2.103
REMARK INTER + INTRA:         -17.995
REMARK INTER:                 -16.549
REMARK INTRA:                  -1.447
REMARK UNBOUND:                -1.520
REMARK SMILES COC(=O)C[C@]1(C(=O)Nc2ccc(-c3ccccc3S(N)(=O)=O)cc2F)CC(c2cccc(C(=N)N)c2)=NO1
REMARK SMILES IDX 7 1 8 2 9 3 6 5 27 6 39 7 28 8 38 9 5 10 3 11 4 12 2 13 1 14
REMARK SMILES IDX 29 15 30 16 37 17 31 18 33 19 32 20 34 21 35 22 36 23 10 27
REMARK SMILES IDX 11 28 25 29 12 30 24 31 13 32 26 33 14 34 15 35 19 36 16 37
REMARK SMILES IDX 18 38 17 39 20 40 22 41 23 42 21 43
REMARK H PARENT 9 4 35 24 36 25 36 26 21 44 21 45
ROOT
ATOM      1  C   UNL     1     129.208 -15.773 162.350  1.00  0.00     0.272 C 
ATOM      2  O   UNL     1     129.009 -16.974 162.169  1.00  0.00    -0.270 OA
ATOM      3  N   UNL     1     130.156 -15.246 163.202  1.00  0.00    -0.320 N 
ATOM      4  H   UNL     1     130.315 -14.235 163.144  1.00  0.00     0.170 HD
ENDROOT
BRANCH   1   5
ATOM      5  C   UNL     1     128.419 -14.709 161.540  1.00  0.00     0.231 C 
ATOM      6  C   UNL     1     126.963 -14.689 162.002  1.00  0.00     0.123 C 
ATOM      7  O   UNL     1     128.864 -13.374 161.781  1.00  0.00    -0.378 OA
ATOM      8  C   UNL     1     127.072 -13.591 163.004  1.00  0.00     0.092 C 
ATOM      9  N   UNL     1     128.120 -12.843 162.859  1.00  0.00    -0.089 NA
BRANCH   5  10
ATOM     10  C   UNL     1     128.484 -15.027 160.043  1.00  0.00     0.185 C 
BRANCH  10  11
ATOM     11  C   UNL     1     128.455 -13.803 159.161  1.00  0.00     0.310 C 
ATOM     12  O   UNL     1     127.454 -13.275 158.702  1.00  0.00    -0.252 OA
BRANCH  11  13
ATOM     13  O   UNL     1     129.734 -13.369 158.955  1.00  0.00    -0.469 OA
ATOM     14  C   UNL     1     130.050 -13.121 157.582  1.00  0.00     0.282 C 
ENDBRANCH  11  13
ENDBRANCH  10  11
ENDBRANCH   5  10
BRANCH   8  15
ATOM     15  C   UNL     1     126.052 -13.367 164.053  1.00  0.00     0.000 A 
ATOM     16  C   UNL     1     125.101 -14.367 164.294  1.00  0.00     0.010 A 
ATOM     17  C   UNL     1     126.018 -12.183 164.799  1.00  0.00     0.022 A 
ATOM     18  C   UNL     1     124.124 -14.190 165.275  1.00  0.00     0.001 A 
ATOM     19  C   UNL     1     125.027 -12.000 165.773  1.00  0.00     0.017 A 
ATOM     20  C   UNL     1     124.089 -13.009 166.015  1.00  0.00     0.012 A 
BRANCH  19  21
ATOM     21  C   UNL     1     124.961 -10.733 166.561  1.00  0.00     0.122 C 
ATOM     22  N   UNL     1     126.033 -10.031 166.725  1.00  0.00    -0.284 NA
ATOM     23  N   UNL     1     123.782 -10.323 167.119  1.00  0.00    -0.384 N 
ATOM     24  H   UNL     1     125.821  -9.184 167.256  1.00  0.00     0.189 HD
ATOM     25  H   UNL     1     123.874  -9.648 167.870  1.00  0.00     0.158 HD
ATOM     26  H   UNL     1     123.139 -11.065 167.377  1.00  0.00     0.158 HD
ENDBRANCH  19  21
ENDBRANCH   8  15
ENDBRANCH   1   5
BRANCH   3  27
ATOM     27  C   UNL     1     130.986 -15.932 164.113  1.00  0.00     0.077 A 
ATOM     28  C   UNL     1     130.517 -16.700 165.177  1.00  0.00     0.030 A 
ATOM     29  C   UNL     1     132.369 -15.816 163.939  1.00  0.00     0.147 A 
ATOM     30  C   UNL     1     131.418 -17.346 166.035  1.00  0.00     0.011 A 
ATOM     31  C   UNL     1     133.273 -16.456 164.786  1.00  0.00     0.050 A 
ATOM     32  C   UNL     1     132.806 -17.233 165.852  1.00  0.00    -0.014 A 
ATOM     33  F   UNL     1     132.852 -15.077 162.926  1.00  0.00    -0.205 F 
BRANCH  32  34
ATOM     34  C   UNL     1     133.738 -17.937 166.740  1.00  0.00     0.002 A 
ATOM     35  C   UNL     1     134.152 -17.291 167.921  1.00  0.00     0.010 A 
ATOM     36  C   UNL     1     134.247 -19.227 166.484  1.00  0.00     0.090 A 
ATOM     37  C   UNL     1     135.029 -17.904 168.819  1.00  0.00     0.001 A 
ATOM     38  C   UNL     1     135.122 -19.846 167.390  1.00  0.00     0.022 A 
ATOM     39  C   UNL     1     135.510 -19.182 168.555  1.00  0.00     0.001 A 
BRANCH  36  40
ATOM     40  S   UNL     1     133.800 -20.066 164.988  1.00  0.00     0.238 S 
ATOM     41  O   UNL     1     132.391 -20.383 165.035  1.00  0.00    -0.207 OA
ATOM     42  O   UNL     1     134.432 -19.408 163.869  1.00  0.00    -0.207 OA
BRANCH  40  43
ATOM     43  N   UNL     1     134.573 -21.561 165.079  1.00  0.00    -0.225 NA
ATOM     44  H   UNL     1     135.567 -21.427 164.876  1.00  0.00     0.137 HD
ATOM     45  H   UNL     1     134.405 -21.959 166.005  1.00  0.00     0.137 HD
ENDBRANCH  40  43
ENDBRANCH  36  40
ENDBRANCH  32  34
ENDBRANCH   3  27
TORSDOF 10
ENDMDL
