MODEL 1
REMARK VINA RESULT:    -7.188      0.000      0.000
REMARK INTER + INTRA:         -14.145
REMARK INTER:                 -13.281
REMARK INTRA:                  -0.864
REMARK UNBOUND:                -0.864
REMARK SMILES N=C(N)[C@@H]1CCC[C@H](NC(=O)CN2CCCC[C@H](NS(=O)(=O)Cc3ccccc3)C2=O)[C@@H]1O
REMARK SMILES IDX 30 1 31 2 13 3 12 4 10 5 9 6 11 7 8 9 4 10 5 11 32 12 6 13
REMARK SMILES IDX 7 14 2 15 1 16 3 17 33 21 14 23 18 25 17 26 16 27 15 28
REMARK SMILES IDX 19 30 20 32 21 33 22 34 23 35 24 36 25 37 29 38 26 39 28 40
REMARK SMILES IDX 27 41
REMARK H PARENT 9 8 1 18 3 19 3 20 33 22 19 31
REMARK Flexibility Score:  147.900
ROOT
ATOM      1  C   UNL     1     129.558 -19.041 163.832  1.00  0.00     0.241 C 
ATOM      2  O   UNL     1     129.432 -18.638 164.989  1.00  0.00    -0.273 OA
ENDROOT
BRANCH   1   3
ATOM      3  N   UNL     1     128.510 -19.035 162.923  1.00  0.00    -0.332 N 
BRANCH   3   4
ATOM      4  C   UNL     1     128.415 -17.947 161.946  1.00  0.00     0.219 C 
BRANCH   4   5
ATOM      5  C   UNL     1     128.324 -16.550 162.577  1.00  0.00     0.239 C 
ATOM      6  N   UNL     1     127.069 -16.148 162.988  1.00  0.00    -0.349 N 
ATOM      7  O   UNL     1     129.300 -15.802 162.608  1.00  0.00    -0.273 OA
ATOM      8  H   UNL     1     126.270 -16.738 162.761  1.00  0.00     0.163 HD
BRANCH   6   9
ATOM      9  C   UNL     1     126.816 -14.789 163.476  1.00  0.00     0.111 C 
ATOM     10  C   UNL     1     125.371 -13.323 164.946  1.00  0.00     0.085 C 
ATOM     11  C   UNL     1     125.075 -12.397 163.762  1.00  0.00     0.014 C 
ATOM     12  C   UNL     1     125.639 -14.764 164.484  1.00  0.00     0.147 C 
ATOM     13  C   UNL     1     126.215 -12.429 162.746  1.00  0.00     0.003 C 
ATOM     14  C   UNL     1     126.536 -13.851 162.291  1.00  0.00     0.028 C 
BRANCH  10  15
ATOM     15  C   UNL     1     124.247 -13.238 165.971  1.00  0.00     0.096 C 
ATOM     16  N   UNL     1     123.954 -12.089 166.481  1.00  0.00    -0.288 NA
ATOM     17  N   UNL     1     123.563 -14.360 166.307  1.00  0.00    -0.387 N 
ATOM     18  H   UNL     1     123.179 -12.201 167.139  1.00  0.00     0.189 HD
ATOM     19  H   UNL     1     123.884 -15.250 165.924  1.00  0.00     0.157 HD
ATOM     20  H   UNL     1     122.818 -14.369 166.985  1.00  0.00     0.157 HD
ENDBRANCH  10  15
BRANCH  12  21
ATOM     21  O   UNL     1     124.471 -15.325 163.840  1.00  0.00    -0.390 OA
ATOM     22  H   UNL     1     124.833 -15.863 163.111  1.00  0.00     0.211 HD
ENDBRANCH  12  21
ENDBRANCH   6   9
ENDBRANCH   4   5
ENDBRANCH   3   4
BRANCH   3  23
ATOM     23  C   UNL     1     127.528 -20.110 162.856  1.00  0.00     0.120 CG0
ATOM     24  G   UNL     1     128.139 -21.503 162.646  1.00  0.00     0.000 G0
ENDBRANCH   3  23
ENDBRANCH   1   3
BRANCH   1  25
ATOM     25  C   UNL     1     130.893 -19.602 163.316  1.00  0.00     0.158 C 
BRANCH  25  26
ATOM     26  C   UNL     1     130.673 -20.951 162.634  1.00  0.00     0.030 C 
BRANCH  26  27
ATOM     27  C   UNL     1     129.522 -21.786 163.205  1.00  0.00     0.004 C 
BRANCH  27  28
ATOM     28  C   UNL     1     128.127 -21.527 162.624  1.00  0.00     0.022 CG0
ATOM     29  G   UNL     1     127.525 -20.130 162.842  1.00  0.00     0.000 G0
ENDBRANCH  27  28
ENDBRANCH  26  27
ENDBRANCH  25  26
BRANCH  25  30
ATOM     30  N   UNL     1     131.839 -19.749 164.444  1.00  0.00    -0.202 NA
ATOM     31  H   UNL     1     131.434 -19.503 165.353  1.00  0.00     0.141 HD
BRANCH  30  32
ATOM     32  S   UNL     1     133.310 -18.932 164.282  1.00  0.00     0.216 S 
ATOM     33  O   UNL     1     133.822 -19.279 162.975  1.00  0.00    -0.212 OA
ATOM     34  O   UNL     1     134.086 -19.187 165.482  1.00  0.00    -0.212 OA
BRANCH  32  35
ATOM     35  C   UNL     1     132.830 -17.197 164.283  1.00  0.00     0.189 C 
BRANCH  35  36
ATOM     36  C   UNL     1     133.200 -16.522 165.579  1.00  0.00    -0.032 A 
ATOM     37  C   UNL     1     132.314 -16.542 166.668  1.00  0.00     0.005 A 
ATOM     38  C   UNL     1     134.435 -15.874 165.726  1.00  0.00     0.005 A 
ATOM     39  C   UNL     1     132.654 -15.921 167.871  1.00  0.00     0.000 A 
ATOM     40  C   UNL     1     134.774 -15.255 166.930  1.00  0.00     0.000 A 
ATOM     41  C   UNL     1     133.884 -15.279 168.001  1.00  0.00     0.000 A 
ENDBRANCH  35  36
ENDBRANCH  32  35
ENDBRANCH  30  32
ENDBRANCH  25  30
ENDBRANCH   1  25
TORSDOF 9
ENDMDL
MODEL 2
REMARK VINA RESULT:    -6.882      1.376      2.061
REMARK INTER + INTRA:         -13.581
REMARK INTER:                 -12.672
REMARK INTRA:                  -0.909
REMARK UNBOUND:                -0.864
REMARK SMILES N=C(N)[C@@H]1CCC[C@H](NC(=O)CN2CCCC[C@H](NS(=O)(=O)Cc3ccccc3)C2=O)[C@@H]1O
REMARK SMILES IDX 30 1 31 2 13 3 12 4 10 5 9 6 11 7 8 9 4 10 5 11 32 12 6 13
REMARK SMILES IDX 7 14 2 15 1 16 3 17 33 21 14 23 18 25 17 26 16 27 15 28
REMARK SMILES IDX 19 30 20 32 21 33 22 34 23 35 24 36 25 37 29 38 26 39 28 40
REMARK SMILES IDX 27 41
REMARK H PARENT 9 8 1 18 3 19 3 20 33 22 19 31
REMARK Flexibility Score:  147.900
ROOT
ATOM      1  C   UNL     1     128.918 -19.877 162.166  1.00  0.00     0.241 C 
ATOM      2  O   UNL     1     129.494 -20.608 161.360  1.00  0.00    -0.273 OA
ENDROOT
BRANCH   1   3
ATOM      3  N   UNL     1     127.826 -19.096 161.818  1.00  0.00    -0.332 N 
BRANCH   3   4
ATOM      4  C   UNL     1     128.045 -17.833 161.107  1.00  0.00     0.219 C 
BRANCH   4   5
ATOM      5  C   UNL     1     128.089 -16.602 162.023  1.00  0.00     0.239 C 
ATOM      6  N   UNL     1     126.869 -16.054 162.366  1.00  0.00    -0.349 N 
ATOM      7  O   UNL     1     129.158 -16.080 162.336  1.00  0.00    -0.273 OA
ATOM      8  H   UNL     1     126.029 -16.419 161.920  1.00  0.00     0.163 HD
BRANCH   6   9
ATOM      9  C   UNL     1     126.771 -14.799 163.117  1.00  0.00     0.111 C 
ATOM     10  C   UNL     1     125.446 -13.464 164.808  1.00  0.00     0.085 C 
ATOM     11  C   UNL     1     125.354 -12.287 163.832  1.00  0.00     0.014 C 
ATOM     12  C   UNL     1     125.546 -14.806 164.066  1.00  0.00     0.147 C 
ATOM     13  C   UNL     1     126.542 -12.279 162.873  1.00  0.00     0.003 C 
ATOM     14  C   UNL     1     126.697 -13.611 162.144  1.00  0.00     0.028 C 
BRANCH  10  15
ATOM     15  C   UNL     1     124.280 -13.425 165.788  1.00  0.00     0.096 C 
ATOM     16  N   UNL     1     123.546 -14.479 165.926  1.00  0.00    -0.288 NA
ATOM     17  N   UNL     1     124.051 -12.301 166.510  1.00  0.00    -0.387 N 
ATOM     18  H   UNL     1     122.819 -14.293 166.621  1.00  0.00     0.189 HD
ATOM     19  H   UNL     1     124.620 -11.477 166.308  1.00  0.00     0.157 HD
ATOM     20  H   UNL     1     123.291 -12.211 167.165  1.00  0.00     0.157 HD
ENDBRANCH  10  15
BRANCH  12  21
ATOM     21  O   UNL     1     124.357 -15.051 163.279  1.00  0.00    -0.390 OA
ATOM     22  H   UNL     1     124.286 -14.270 162.699  1.00  0.00     0.211 HD
ENDBRANCH  12  21
ENDBRANCH   6   9
ENDBRANCH   4   5
ENDBRANCH   3   4
BRANCH   3  23
ATOM     23  C   UNL     1     126.453 -19.513 162.074  1.00  0.00     0.120 CG0
ATOM     24  G   UNL     1     126.013 -19.348 163.537  1.00  0.00     0.000 G0
ENDBRANCH   3  23
ENDBRANCH   1   3
BRANCH   1  25
ATOM     25  C   UNL     1     129.386 -19.763 163.626  1.00  0.00     0.158 C 
BRANCH  25  26
ATOM     26  C   UNL     1     128.253 -20.141 164.577  1.00  0.00     0.030 C 
BRANCH  26  27
ATOM     27  C   UNL     1     127.075 -19.161 164.603  1.00  0.00     0.004 C 
BRANCH  27  28
ATOM     28  C   UNL     1     125.990 -19.360 163.539  1.00  0.00     0.022 CG0
ATOM     29  G   UNL     1     126.455 -19.534 162.085  1.00  0.00     0.000 G0
ENDBRANCH  27  28
ENDBRANCH  26  27
ENDBRANCH  25  26
BRANCH  25  30
ATOM     30  N   UNL     1     129.840 -18.380 163.896  1.00  0.00    -0.202 NA
ATOM     31  H   UNL     1     130.167 -17.886 163.059  1.00  0.00     0.141 HD
BRANCH  30  32
ATOM     32  S   UNL     1     131.013 -18.212 165.102  1.00  0.00     0.216 S 
ATOM     33  O   UNL     1     132.146 -19.001 164.674  1.00  0.00    -0.212 OA
ATOM     34  O   UNL     1     130.367 -18.459 166.377  1.00  0.00    -0.212 OA
BRANCH  32  35
ATOM     35  C   UNL     1     131.449 -16.467 165.023  1.00  0.00     0.189 C 
BRANCH  35  36
ATOM     36  C   UNL     1     132.619 -16.150 165.919  1.00  0.00    -0.032 A 
ATOM     37  C   UNL     1     133.919 -16.083 165.391  1.00  0.00     0.005 A 
ATOM     38  C   UNL     1     132.433 -15.906 167.287  1.00  0.00     0.005 A 
ATOM     39  C   UNL     1     135.005 -15.787 166.217  1.00  0.00     0.000 A 
ATOM     40  C   UNL     1     133.520 -15.609 168.110  1.00  0.00     0.000 A 
ATOM     41  C   UNL     1     134.805 -15.549 167.575  1.00  0.00     0.000 A 
ENDBRANCH  35  36
ENDBRANCH  32  35
ENDBRANCH  30  32
ENDBRANCH  25  30
ENDBRANCH   1  25
TORSDOF 9
ENDMDL
MODEL 3
REMARK VINA RESULT:    -6.824      2.949      6.500
REMARK INTER + INTRA:         -13.472
REMARK INTER:                 -11.614
REMARK INTRA:                  -1.858
REMARK UNBOUND:                -0.864
REMARK SMILES N=C(N)[C@@H]1CCC[C@H](NC(=O)CN2CCCC[C@H](NS(=O)(=O)Cc3ccccc3)C2=O)[C@@H]1O
REMARK SMILES IDX 30 1 31 2 13 3 12 4 10 5 9 6 11 7 8 9 4 10 5 11 32 12 6 13
REMARK SMILES IDX 7 14 2 15 1 16 3 17 33 21 14 23 18 25 17 26 16 27 15 28
REMARK SMILES IDX 19 30 20 32 21 33 22 34 23 35 24 36 25 37 29 38 26 39 28 40
REMARK SMILES IDX 27 41
REMARK H PARENT 9 8 1 18 3 19 3 20 33 22 19 31
REMARK Flexibility Score:  147.900
ROOT
ATOM      1  C   UNL     1     126.575 -14.315 162.438  1.00  0.00     0.241 C 
ATOM      2  O   UNL     1     126.607 -14.257 161.208  1.00  0.00    -0.273 OA
ENDROOT
BRANCH   1   3
ATOM      3  N   UNL     1     125.694 -15.139 163.123  1.00  0.00    -0.332 N 
BRANCH   3   4
ATOM      4  C   UNL     1     125.205 -16.360 162.477  1.00  0.00     0.219 C 
BRANCH   4   5
ATOM      5  C   UNL     1     125.863 -17.646 162.997  1.00  0.00     0.239 C 
ATOM      6  N   UNL     1     127.233 -17.732 162.849  1.00  0.00    -0.349 N 
ATOM      7  O   UNL     1     125.186 -18.582 163.419  1.00  0.00    -0.273 OA
ATOM      8  H   UNL     1     127.712 -17.004 162.320  1.00  0.00     0.163 HD
BRANCH   6   9
ATOM      9  C   UNL     1     127.969 -18.957 163.173  1.00  0.00     0.111 C 
ATOM     10  C   UNL     1     129.193 -20.257 164.964  1.00  0.00     0.085 C 
ATOM     11  C   UNL     1     130.428 -20.370 164.064  1.00  0.00     0.014 C 
ATOM     12  C   UNL     1     128.389 -18.983 164.665  1.00  0.00     0.147 C 
ATOM     13  C   UNL     1     130.034 -20.321 162.589  1.00  0.00     0.003 C 
ATOM     14  C   UNL     1     129.200 -19.085 162.260  1.00  0.00     0.028 C 
BRANCH  10  15
ATOM     15  C   UNL     1     129.602 -20.359 166.429  1.00  0.00     0.096 C 
ATOM     16  N   UNL     1     130.626 -19.688 166.838  1.00  0.00    -0.288 NA
ATOM     17  N   UNL     1     128.872 -21.127 167.275  1.00  0.00    -0.387 N 
ATOM     18  H   UNL     1     130.760 -19.857 167.838  1.00  0.00     0.189 HD
ATOM     19  H   UNL     1     128.116 -21.689 166.880  1.00  0.00     0.157 HD
ATOM     20  H   UNL     1     129.098 -21.243 168.249  1.00  0.00     0.157 HD
ENDBRANCH  10  15
BRANCH  12  21
ATOM     21  O   UNL     1     129.174 -17.800 164.942  1.00  0.00    -0.390 OA
ATOM     22  H   UNL     1     129.994 -17.929 164.428  1.00  0.00     0.211 HD
ENDBRANCH  12  21
ENDBRANCH   6   9
ENDBRANCH   4   5
ENDBRANCH   3   4
BRANCH   3  23
ATOM     23  C   UNL     1     125.279 -14.871 164.494  1.00  0.00     0.120 CG0
ATOM     24  G   UNL     1     124.776 -13.438 164.726  1.00  0.00     0.000 G0
ENDBRANCH   3  23
ENDBRANCH   1   3
BRANCH   1  25
ATOM     25  C   UNL     1     127.506 -13.457 163.309  1.00  0.00     0.158 C 
BRANCH  25  26
ATOM     26  C   UNL     1     126.802 -12.168 163.728  1.00  0.00     0.030 C 
BRANCH  26  27
ATOM     27  C   UNL     1     125.791 -12.325 164.869  1.00  0.00     0.004 C 
BRANCH  27  28
ATOM     28  C   UNL     1     124.752 -13.442 164.721  1.00  0.00     0.022 CG0
ATOM     29  G   UNL     1     125.282 -14.867 164.495  1.00  0.00     0.000 G0
ENDBRANCH  27  28
ENDBRANCH  26  27
ENDBRANCH  25  26
BRANCH  25  30
ATOM     30  N   UNL     1     128.741 -13.141 162.555  1.00  0.00    -0.202 NA
ATOM     31  H   UNL     1     128.566 -12.665 161.663  1.00  0.00     0.141 HD
BRANCH  30  32
ATOM     32  S   UNL     1     129.778 -14.443 162.263  1.00  0.00     0.216 S 
ATOM     33  O   UNL     1     130.141 -14.366 160.866  1.00  0.00    -0.212 OA
ATOM     34  O   UNL     1     129.151 -15.633 162.810  1.00  0.00    -0.212 OA
BRANCH  32  35
ATOM     35  C   UNL     1     131.224 -14.061 163.267  1.00  0.00     0.189 C 
BRANCH  35  36
ATOM     36  C   UNL     1     131.829 -15.307 163.860  1.00  0.00    -0.032 A 
ATOM     37  C   UNL     1     131.850 -15.492 165.252  1.00  0.00     0.005 A 
ATOM     38  C   UNL     1     132.371 -16.306 163.039  1.00  0.00     0.005 A 
ATOM     39  C   UNL     1     132.407 -16.646 165.806  1.00  0.00     0.000 A 
ATOM     40  C   UNL     1     132.926 -17.459 163.595  1.00  0.00     0.000 A 
ATOM     41  C   UNL     1     132.943 -17.629 164.978  1.00  0.00     0.000 A 
ENDBRANCH  35  36
ENDBRANCH  32  35
ENDBRANCH  30  32
ENDBRANCH  25  30
ENDBRANCH   1  25
TORSDOF 9
ENDMDL
MODEL 4
REMARK VINA RESULT:    -6.485      2.453      7.480
REMARK INTER + INTRA:         -12.847
REMARK INTER:                 -12.517
REMARK INTRA:                  -0.330
REMARK UNBOUND:                -0.864
REMARK SMILES N=C(N)[C@@H]1CCC[C@H](NC(=O)CN2CCCC[C@H](NS(=O)(=O)Cc3ccccc3)C2=O)[C@@H]1O
REMARK SMILES IDX 30 1 31 2 13 3 12 4 10 5 9 6 11 7 8 9 4 10 5 11 32 12 6 13
REMARK SMILES IDX 7 14 2 15 1 16 3 17 33 21 14 23 18 25 17 26 16 27 15 28
REMARK SMILES IDX 19 30 20 32 21 33 22 34 23 35 24 36 25 37 29 38 26 39 28 40
REMARK SMILES IDX 27 41
REMARK H PARENT 9 8 1 18 3 19 3 20 33 22 19 31
REMARK Flexibility Score:  147.900
ROOT
ATOM      1  C   UNL     1     127.905 -18.359 161.924  1.00  0.00     0.241 C 
ATOM      2  O   UNL     1     128.040 -18.418 160.701  1.00  0.00    -0.273 OA
ENDROOT
BRANCH   1   3
ATOM      3  N   UNL     1     128.324 -19.375 162.770  1.00  0.00    -0.332 N 
BRANCH   3   4
ATOM      4  C   UNL     1     129.757 -19.557 163.016  1.00  0.00     0.219 C 
BRANCH   4   5
ATOM      5  C   UNL     1     130.467 -18.297 163.530  1.00  0.00     0.239 C 
ATOM      6  N   UNL     1     131.318 -18.473 164.603  1.00  0.00    -0.349 N 
ATOM      7  O   UNL     1     130.202 -17.187 163.073  1.00  0.00    -0.273 OA
ATOM      8  H   UNL     1     131.349 -19.385 165.056  1.00  0.00     0.163 HD
BRANCH   6   9
ATOM      9  C   UNL     1     131.951 -17.337 165.279  1.00  0.00     0.111 C 
ATOM     10  C   UNL     1     134.104 -16.371 166.190  1.00  0.00     0.085 C 
ATOM     11  C   UNL     1     133.450 -16.159 167.559  1.00  0.00     0.014 C 
ATOM     12  C   UNL     1     133.476 -17.557 165.442  1.00  0.00     0.147 C 
ATOM     13  C   UNL     1     131.942 -15.964 167.419  1.00  0.00     0.003 C 
ATOM     14  C   UNL     1     131.287 -17.106 166.647  1.00  0.00     0.028 C 
BRANCH  10  15
ATOM     15  C   UNL     1     135.613 -16.513 166.346  1.00  0.00     0.096 C 
ATOM     16  N   UNL     1     136.286 -15.519 166.822  1.00  0.00    -0.288 NA
ATOM     17  N   UNL     1     136.214 -17.680 166.008  1.00  0.00    -0.387 N 
ATOM     18  H   UNL     1     137.275 -15.775 166.871  1.00  0.00     0.189 HD
ATOM     19  H   UNL     1     135.642 -18.405 165.571  1.00  0.00     0.157 HD
ATOM     20  H   UNL     1     137.207 -17.830 166.077  1.00  0.00     0.157 HD
ENDBRANCH  10  15
BRANCH  12  21
ATOM     21  O   UNL     1     133.687 -18.793 166.164  1.00  0.00    -0.390 OA
ATOM     22  H   UNL     1     134.598 -19.056 165.931  1.00  0.00     0.211 HD
ENDBRANCH  12  21
ENDBRANCH   6   9
ENDBRANCH   4   5
ENDBRANCH   3   4
BRANCH   3  23
ATOM     23  C   UNL     1     127.387 -20.235 163.482  1.00  0.00     0.120 CG0
ATOM     24  G   UNL     1     126.175 -19.492 164.065  1.00  0.00     0.000 G0
ENDBRANCH   3  23
ENDBRANCH   1   3
BRANCH   1  25
ATOM     25  C   UNL     1     127.239 -17.151 162.602  1.00  0.00     0.158 C 
BRANCH  25  26
ATOM     26  C   UNL     1     125.725 -17.342 162.659  1.00  0.00     0.030 C 
BRANCH  26  27
ATOM     27  C   UNL     1     125.264 -18.738 163.091  1.00  0.00     0.004 C 
BRANCH  27  28
ATOM     28  C   UNL     1     126.178 -19.496 164.060  1.00  0.00     0.022 CG0
ATOM     29  G   UNL     1     127.384 -20.232 163.457  1.00  0.00     0.000 G0
ENDBRANCH  27  28
ENDBRANCH  26  27
ENDBRANCH  25  26
BRANCH  25  30
ATOM     30  N   UNL     1     127.570 -15.916 161.855  1.00  0.00    -0.202 NA
ATOM     31  H   UNL     1     128.369 -16.024 161.221  1.00  0.00     0.141 HD
BRANCH  30  32
ATOM     32  S   UNL     1     127.822 -14.533 162.793  1.00  0.00     0.216 S 
ATOM     33  O   UNL     1     128.925 -13.827 162.182  1.00  0.00    -0.212 OA
ATOM     34  O   UNL     1     127.877 -14.951 164.182  1.00  0.00    -0.212 OA
BRANCH  32  35
ATOM     35  C   UNL     1     126.311 -13.582 162.553  1.00  0.00     0.189 C 
BRANCH  35  36
ATOM     36  C   UNL     1     125.610 -13.321 163.861  1.00  0.00    -0.032 A 
ATOM     37  C   UNL     1     125.802 -12.106 164.539  1.00  0.00     0.005 A 
ATOM     38  C   UNL     1     124.749 -14.277 164.420  1.00  0.00     0.005 A 
ATOM     39  C   UNL     1     125.152 -11.859 165.750  1.00  0.00     0.000 A 
ATOM     40  C   UNL     1     124.100 -14.026 165.630  1.00  0.00     0.000 A 
ATOM     41  C   UNL     1     124.301 -12.818 166.293  1.00  0.00     0.000 A 
ENDBRANCH  35  36
ENDBRANCH  32  35
ENDBRANCH  30  32
ENDBRANCH  25  30
ENDBRANCH   1  25
TORSDOF 9
ENDMDL
MODEL 5
REMARK VINA RESULT:    -6.434      2.460      3.561
REMARK INTER + INTRA:         -12.752
REMARK INTER:                 -11.569
REMARK INTRA:                  -1.183
REMARK UNBOUND:                -0.864
REMARK SMILES N=C(N)[C@@H]1CCC[C@H](NC(=O)CN2CCCC[C@H](NS(=O)(=O)Cc3ccccc3)C2=O)[C@@H]1O
REMARK SMILES IDX 30 1 31 2 13 3 12 4 10 5 9 6 11 7 8 9 4 10 5 11 32 12 6 13
REMARK SMILES IDX 7 14 2 15 1 16 3 17 33 21 14 23 18 25 17 26 16 27 15 28
REMARK SMILES IDX 19 30 20 32 21 33 22 34 23 35 24 36 25 37 29 38 26 39 28 40
REMARK SMILES IDX 27 41
REMARK H PARENT 9 8 1 18 3 19 3 20 33 22 19 31
REMARK Flexibility Score:  147.900
ROOT
ATOM      1  C   UNL     1     130.208 -20.362 165.709  1.00  0.00     0.241 C 
ATOM      2  O   UNL     1     129.927 -19.250 166.158  1.00  0.00    -0.273 OA
ENDROOT
BRANCH   1   3
ATOM      3  N   UNL     1     129.256 -21.200 165.147  1.00  0.00    -0.332 N 
BRANCH   3   4
ATOM      4  C   UNL     1     127.853 -20.780 165.126  1.00  0.00     0.219 C 
BRANCH   4   5
ATOM      5  C   UNL     1     127.497 -19.851 163.958  1.00  0.00     0.239 C 
ATOM      6  N   UNL     1     127.664 -18.499 164.183  1.00  0.00    -0.349 N 
ATOM      7  O   UNL     1     126.991 -20.289 162.926  1.00  0.00    -0.273 OA
ATOM      8  H   UNL     1     127.906 -18.188 165.123  1.00  0.00     0.163 HD
BRANCH   6   9
ATOM      9  C   UNL     1     127.232 -17.495 163.206  1.00  0.00     0.111 C 
ATOM     10  C   UNL     1     127.750 -15.275 162.110  1.00  0.00     0.085 C 
ATOM     11  C   UNL     1     126.368 -14.740 162.499  1.00  0.00     0.014 C 
ATOM     12  C   UNL     1     128.249 -16.330 163.109  1.00  0.00     0.147 C 
ATOM     13  C   UNL     1     125.357 -15.879 162.623  1.00  0.00     0.003 C 
ATOM     14  C   UNL     1     125.837 -16.967 163.581  1.00  0.00     0.028 C 
BRANCH  10  15
ATOM     15  C   UNL     1     128.730 -14.120 161.942  1.00  0.00     0.096 C 
ATOM     16  N   UNL     1     129.606 -14.180 160.995  1.00  0.00    -0.288 NA
ATOM     17  N   UNL     1     128.649 -13.048 162.768  1.00  0.00    -0.387 N 
ATOM     18  H   UNL     1     130.176 -13.331 161.011  1.00  0.00     0.189 HD
ATOM     19  H   UNL     1     127.983 -13.088 163.541  1.00  0.00     0.157 HD
ATOM     20  H   UNL     1     129.275 -12.261 162.713  1.00  0.00     0.157 HD
ENDBRANCH  10  15
BRANCH  12  21
ATOM     21  O   UNL     1     128.417 -15.755 164.426  1.00  0.00    -0.390 OA
ATOM     22  H   UNL     1     128.207 -16.487 165.037  1.00  0.00     0.211 HD
ENDBRANCH  12  21
ENDBRANCH   6   9
ENDBRANCH   4   5
ENDBRANCH   3   4
BRANCH   3  23
ATOM     23  C   UNL     1     129.606 -22.465 164.512  1.00  0.00     0.120 CG0
ATOM     24  G   UNL     1     130.195 -23.506 165.476  1.00  0.00     0.000 G0
ENDBRANCH   3  23
ENDBRANCH   1   3
BRANCH   1  25
ATOM     25  C   UNL     1     131.642 -20.911 165.758  1.00  0.00     0.158 C 
BRANCH  25  26
ATOM     26  C   UNL     1     131.772 -21.959 166.861  1.00  0.00     0.030 C 
BRANCH  26  27
ATOM     27  C   UNL     1     130.693 -23.047 166.852  1.00  0.00     0.004 C 
BRANCH  27  28
ATOM     28  C   UNL     1     130.215 -23.531 165.479  1.00  0.00     0.022 CG0
ATOM     29  G   UNL     1     129.639 -22.475 164.523  1.00  0.00     0.000 G0
ENDBRANCH  27  28
ENDBRANCH  26  27
ENDBRANCH  25  26
BRANCH  25  30
ATOM     30  N   UNL     1     132.592 -19.800 165.994  1.00  0.00    -0.202 NA
ATOM     31  H   UNL     1     132.177 -19.006 166.494  1.00  0.00     0.141 HD
BRANCH  30  32
ATOM     32  S   UNL     1     133.385 -19.206 164.625  1.00  0.00     0.216 S 
ATOM     33  O   UNL     1     132.891 -19.977 163.506  1.00  0.00    -0.212 OA
ATOM     34  O   UNL     1     134.803 -19.153 164.930  1.00  0.00    -0.212 OA
BRANCH  32  35
ATOM     35  C   UNL     1     132.779 -17.516 164.488  1.00  0.00     0.189 C 
BRANCH  35  36
ATOM     36  C   UNL     1     133.126 -16.704 165.709  1.00  0.00    -0.032 A 
ATOM     37  C   UNL     1     134.303 -15.938 165.740  1.00  0.00     0.005 A 
ATOM     38  C   UNL     1     132.281 -16.689 166.828  1.00  0.00     0.005 A 
ATOM     39  C   UNL     1     134.628 -15.182 166.869  1.00  0.00     0.000 A 
ATOM     40  C   UNL     1     132.608 -15.932 167.954  1.00  0.00     0.000 A 
ATOM     41  C   UNL     1     133.780 -15.179 167.974  1.00  0.00     0.000 A 
ENDBRANCH  35  36
ENDBRANCH  32  35
ENDBRANCH  30  32
ENDBRANCH  25  30
ENDBRANCH   1  25
TORSDOF 9
ENDMDL
MODEL 6
REMARK VINA RESULT:    -6.390      2.416      3.408
REMARK INTER + INTRA:         -12.671
REMARK INTER:                 -11.976
REMARK INTRA:                  -0.694
REMARK UNBOUND:                -0.864
REMARK SMILES N=C(N)[C@@H]1CCC[C@H](NC(=O)CN2CCCC[C@H](NS(=O)(=O)Cc3ccccc3)C2=O)[C@@H]1O
REMARK SMILES IDX 30 1 31 2 13 3 12 4 10 5 9 6 11 7 8 9 4 10 5 11 32 12 6 13
REMARK SMILES IDX 7 14 2 15 1 16 3 17 33 21 14 23 18 25 17 26 16 27 15 28
REMARK SMILES IDX 19 30 20 32 21 33 22 34 23 35 24 36 25 37 29 38 26 39 28 40
REMARK SMILES IDX 27 41
REMARK H PARENT 9 8 1 18 3 19 3 20 33 22 19 31
REMARK Flexibility Score:  147.900
ROOT
ATOM      1  C   UNL     1     128.525 -20.386 163.939  1.00  0.00     0.241 C 
ATOM      2  O   UNL     1     128.999 -19.853 162.935  1.00  0.00    -0.273 OA
ENDROOT
BRANCH   1   3
ATOM      3  N   UNL     1     127.292 -21.022 163.933  1.00  0.00    -0.332 N 
BRANCH   3   4
ATOM      4  C   UNL     1     126.071 -20.217 163.843  1.00  0.00     0.219 C 
BRANCH   4   5
ATOM      5  C   UNL     1     126.264 -18.868 163.137  1.00  0.00     0.239 C 
ATOM      6  N   UNL     1     126.270 -17.751 163.950  1.00  0.00    -0.349 N 
ATOM      7  O   UNL     1     126.301 -18.790 161.910  1.00  0.00    -0.273 OA
ATOM      8  H   UNL     1     126.046 -17.866 164.937  1.00  0.00     0.163 HD
BRANCH   6   9
ATOM      9  C   UNL     1     126.306 -16.394 163.396  1.00  0.00     0.111 C 
ATOM     10  C   UNL     1     127.769 -14.476 162.638  1.00  0.00     0.085 C 
ATOM     11  C   UNL     1     127.031 -13.518 163.577  1.00  0.00     0.014 C 
ATOM     12  C   UNL     1     127.763 -15.914 163.178  1.00  0.00     0.147 C 
ATOM     13  C   UNL     1     125.599 -13.990 163.823  1.00  0.00     0.003 C 
ATOM     14  C   UNL     1     125.550 -15.431 164.326  1.00  0.00     0.028 C 
BRANCH  10  15
ATOM     15  C   UNL     1     129.177 -13.961 162.365  1.00  0.00     0.096 C 
ATOM     16  N   UNL     1     129.512 -13.676 161.151  1.00  0.00    -0.288 NA
ATOM     17  N   UNL     1     130.038 -13.789 163.398  1.00  0.00    -0.387 N 
ATOM     18  H   UNL     1     130.477 -13.338 161.140  1.00  0.00     0.189 HD
ATOM     19  H   UNL     1     129.742 -14.097 164.326  1.00  0.00     0.157 HD
ATOM     20  H   UNL     1     130.984 -13.463 163.280  1.00  0.00     0.157 HD
ENDBRANCH  10  15
BRANCH  12  21
ATOM     21  O   UNL     1     128.467 -15.995 164.440  1.00  0.00    -0.390 OA
ATOM     22  H   UNL     1     129.233 -16.570 164.252  1.00  0.00     0.211 HD
ENDBRANCH  12  21
ENDBRANCH   6   9
ENDBRANCH   4   5
ENDBRANCH   3   4
BRANCH   3  23
ATOM     23  C   UNL     1     127.161 -22.473 163.950  1.00  0.00     0.120 CG0
ATOM     24  G   UNL     1     128.147 -23.179 164.893  1.00  0.00     0.000 G0
ENDBRANCH   3  23
ENDBRANCH   1   3
BRANCH   1  25
ATOM     25  C   UNL     1     129.265 -20.368 165.286  1.00  0.00     0.158 C 
BRANCH  25  26
ATOM     26  C   UNL     1     128.412 -21.025 166.369  1.00  0.00     0.030 C 
BRANCH  26  27
ATOM     27  C   UNL     1     128.335 -22.554 166.292  1.00  0.00     0.004 C 
BRANCH  27  28
ATOM     28  C   UNL     1     128.162 -23.167 164.898  1.00  0.00     0.022 CG0
ATOM     29  G   UNL     1     127.165 -22.484 163.950  1.00  0.00     0.000 G0
ENDBRANCH  27  28
ENDBRANCH  26  27
ENDBRANCH  25  26
BRANCH  25  30
ATOM     30  N   UNL     1     129.578 -18.970 165.662  1.00  0.00    -0.202 NA
ATOM     31  H   UNL     1     128.945 -18.282 165.242  1.00  0.00     0.141 HD
BRANCH  30  32
ATOM     32  S   UNL     1     131.168 -18.470 165.376  1.00  0.00     0.216 S 
ATOM     33  O   UNL     1     131.077 -17.145 164.805  1.00  0.00    -0.212 OA
ATOM     34  O   UNL     1     131.844 -19.544 164.672  1.00  0.00    -0.212 OA
BRANCH  32  35
ATOM     35  C   UNL     1     131.874 -18.351 167.028  1.00  0.00     0.189 C 
BRANCH  35  36
ATOM     36  C   UNL     1     132.927 -17.275 167.101  1.00  0.00    -0.032 A 
ATOM     37  C   UNL     1     134.190 -17.478 166.522  1.00  0.00     0.005 A 
ATOM     38  C   UNL     1     132.665 -16.053 167.737  1.00  0.00     0.005 A 
ATOM     39  C   UNL     1     135.168 -16.484 166.585  1.00  0.00     0.000 A 
ATOM     40  C   UNL     1     133.644 -15.060 167.797  1.00  0.00     0.000 A 
ATOM     41  C   UNL     1     134.894 -15.276 167.222  1.00  0.00     0.000 A 
ENDBRANCH  35  36
ENDBRANCH  32  35
ENDBRANCH  30  32
ENDBRANCH  25  30
ENDBRANCH   1  25
TORSDOF 9
ENDMDL
MODEL 7
REMARK VINA RESULT:    -6.336      3.151      7.195
REMARK INTER + INTRA:         -12.571
REMARK INTER:                 -11.415
REMARK INTRA:                  -1.156
REMARK UNBOUND:                -0.864
REMARK SMILES N=C(N)[C@@H]1CCC[C@H](NC(=O)CN2CCCC[C@H](NS(=O)(=O)Cc3ccccc3)C2=O)[C@@H]1O
REMARK SMILES IDX 30 1 31 2 13 3 12 4 10 5 9 6 11 7 8 9 4 10 5 11 32 12 6 13
REMARK SMILES IDX 7 14 2 15 1 16 3 17 33 21 14 23 18 25 17 26 16 27 15 28
REMARK SMILES IDX 19 30 20 32 21 33 22 34 23 35 24 36 25 37 29 38 26 39 28 40
REMARK SMILES IDX 27 41
REMARK H PARENT 9 8 1 18 3 19 3 20 33 22 19 31
REMARK Flexibility Score:  147.900
ROOT
ATOM      1  C   UNL     1     130.342 -16.306 164.959  1.00  0.00     0.241 C 
ATOM      2  O   UNL     1     130.101 -15.994 166.125  1.00  0.00    -0.273 OA
ENDROOT
BRANCH   1   3
ATOM      3  N   UNL     1     131.483 -17.008 164.596  1.00  0.00    -0.332 N 
BRANCH   3   4
ATOM      4  C   UNL     1     131.576 -18.436 164.910  1.00  0.00     0.219 C 
BRANCH   4   5
ATOM      5  C   UNL     1     130.785 -19.338 163.952  1.00  0.00     0.239 C 
ATOM      6  N   UNL     1     129.460 -19.554 164.274  1.00  0.00    -0.349 N 
ATOM      7  O   UNL     1     131.339 -19.915 163.018  1.00  0.00    -0.273 OA
ATOM      8  H   UNL     1     129.111 -19.201 165.164  1.00  0.00     0.163 HD
BRANCH   6   9
ATOM      9  C   UNL     1     128.629 -20.503 163.526  1.00  0.00     0.111 C 
ATOM     10  C   UNL     1     126.347 -20.968 162.540  1.00  0.00     0.085 C 
ATOM     11  C   UNL     1     126.269 -22.295 163.301  1.00  0.00     0.014 C 
ATOM     12  C   UNL     1     127.206 -19.937 163.288  1.00  0.00     0.147 C 
ATOM     13  C   UNL     1     127.665 -22.855 163.567  1.00  0.00     0.003 C 
ATOM     14  C   UNL     1     128.562 -21.843 164.277  1.00  0.00     0.028 C 
BRANCH  10  15
ATOM     15  C   UNL     1     124.945 -20.453 162.240  1.00  0.00     0.096 C 
ATOM     16  N   UNL     1     124.684 -19.204 162.442  1.00  0.00    -0.288 NA
ATOM     17  N   UNL     1     124.011 -21.303 161.746  1.00  0.00    -0.387 N 
ATOM     18  H   UNL     1     123.712 -19.019 162.186  1.00  0.00     0.189 HD
ATOM     19  H   UNL     1     124.254 -22.292 161.674  1.00  0.00     0.157 HD
ATOM     20  H   UNL     1     123.066 -21.024 161.539  1.00  0.00     0.157 HD
ENDBRANCH  10  15
BRANCH  12  21
ATOM     21  O   UNL     1     126.621 -19.610 164.569  1.00  0.00    -0.390 OA
ATOM     22  H   UNL     1     125.674 -19.473 164.375  1.00  0.00     0.211 HD
ENDBRANCH  12  21
ENDBRANCH   6   9
ENDBRANCH   4   5
ENDBRANCH   3   4
BRANCH   3  23
ATOM     23  C   UNL     1     132.575 -16.394 163.852  1.00  0.00     0.120 CG0
ATOM     24  G   UNL     1     132.116 -15.415 162.761  1.00  0.00     0.000 G0
ENDBRANCH   3  23
ENDBRANCH   1   3
BRANCH   1  25
ATOM     25  C   UNL     1     129.398 -15.920 163.810  1.00  0.00     0.158 C 
BRANCH  25  26
ATOM     26  C   UNL     1     129.747 -14.531 163.280  1.00  0.00     0.030 C 
BRANCH  26  27
ATOM     27  C   UNL     1     131.247 -14.245 163.151  1.00  0.00     0.004 C 
BRANCH  27  28
ATOM     28  C   UNL     1     132.140 -15.420 162.739  1.00  0.00     0.022 CG0
ATOM     29  G   UNL     1     132.580 -16.389 163.847  1.00  0.00     0.000 G0
ENDBRANCH  27  28
ENDBRANCH  26  27
ENDBRANCH  25  26
BRANCH  25  30
ATOM     30  N   UNL     1     127.997 -15.947 164.288  1.00  0.00    -0.202 NA
ATOM     31  H   UNL     1     127.828 -16.642 165.022  1.00  0.00     0.141 HD
BRANCH  30  32
ATOM     32  S   UNL     1     126.815 -16.141 163.095  1.00  0.00     0.216 S 
ATOM     33  O   UNL     1     125.682 -16.760 163.746  1.00  0.00    -0.212 OA
ATOM     34  O   UNL     1     127.451 -16.761 161.947  1.00  0.00    -0.212 OA
BRANCH  32  35
ATOM     35  C   UNL     1     126.385 -14.449 162.651  1.00  0.00     0.189 C 
BRANCH  35  36
ATOM     36  C   UNL     1     125.800 -13.703 163.822  1.00  0.00    -0.032 A 
ATOM     37  C   UNL     1     124.814 -14.301 164.623  1.00  0.00     0.005 A 
ATOM     38  C   UNL     1     126.234 -12.408 164.140  1.00  0.00     0.005 A 
ATOM     39  C   UNL     1     124.271 -13.614 165.711  1.00  0.00     0.000 A 
ATOM     40  C   UNL     1     125.691 -11.725 165.229  1.00  0.00     0.000 A 
ATOM     41  C   UNL     1     124.710 -12.328 166.013  1.00  0.00     0.000 A 
ENDBRANCH  35  36
ENDBRANCH  32  35
ENDBRANCH  30  32
ENDBRANCH  25  30
ENDBRANCH   1  25
TORSDOF 9
ENDMDL
MODEL 8
REMARK VINA RESULT:    -6.319      3.766      9.438
REMARK INTER + INTRA:         -12.540
REMARK INTER:                 -11.846
REMARK INTRA:                  -0.695
REMARK UNBOUND:                -0.864
REMARK SMILES N=C(N)[C@@H]1CCC[C@H](NC(=O)CN2CCCC[C@H](NS(=O)(=O)Cc3ccccc3)C2=O)[C@@H]1O
REMARK SMILES IDX 30 1 31 2 13 3 12 4 10 5 9 6 11 7 8 9 4 10 5 11 32 12 6 13
REMARK SMILES IDX 7 14 2 15 1 16 3 17 33 21 14 23 18 25 17 26 16 27 15 28
REMARK SMILES IDX 19 30 20 32 21 33 22 34 23 35 24 36 25 37 29 38 26 39 28 40
REMARK SMILES IDX 27 41
REMARK H PARENT 9 8 1 18 3 19 3 20 33 22 19 31
REMARK Flexibility Score:  147.900
ROOT
ATOM      1  C   UNL     1     130.662 -16.535 164.762  1.00  0.00     0.241 C 
ATOM      2  O   UNL     1     130.191 -17.380 165.524  1.00  0.00    -0.273 OA
ENDROOT
BRANCH   1   3
ATOM      3  N   UNL     1     131.960 -16.060 164.886  1.00  0.00    -0.332 N 
BRANCH   3   4
ATOM      4  C   UNL     1     132.425 -15.575 166.188  1.00  0.00     0.219 C 
BRANCH   4   5
ATOM      5  C   UNL     1     133.798 -16.122 166.603  1.00  0.00     0.239 C 
ATOM      6  N   UNL     1     133.841 -17.458 166.951  1.00  0.00    -0.349 N 
ATOM      7  O   UNL     1     134.770 -15.379 166.719  1.00  0.00    -0.273 OA
ATOM      8  H   UNL     1     132.964 -17.973 167.016  1.00  0.00     0.163 HD
BRANCH   6   9
ATOM      9  C   UNL     1     135.054 -18.073 167.498  1.00  0.00     0.111 C 
ATOM     10  C   UNL     1     137.387 -18.914 167.003  1.00  0.00     0.085 C 
ATOM     11  C   UNL     1     137.043 -20.279 167.607  1.00  0.00     0.014 C 
ATOM     12  C   UNL     1     136.146 -18.229 166.410  1.00  0.00     0.147 C 
ATOM     13  C   UNL     1     135.949 -20.147 168.666  1.00  0.00     0.003 C 
ATOM     14  C   UNL     1     134.711 -19.436 168.124  1.00  0.00     0.028 C 
BRANCH  10  15
ATOM     15  C   UNL     1     138.514 -19.060 165.987  1.00  0.00     0.096 C 
ATOM     16  N   UNL     1     139.357 -20.027 166.127  1.00  0.00    -0.288 NA
ATOM     17  N   UNL     1     138.594 -18.192 164.949  1.00  0.00    -0.387 N 
ATOM     18  H   UNL     1     140.039 -19.991 165.366  1.00  0.00     0.189 HD
ATOM     19  H   UNL     1     137.942 -17.406 164.929  1.00  0.00     0.157 HD
ATOM     20  H   UNL     1     139.321 -18.230 164.253  1.00  0.00     0.157 HD
ENDBRANCH  10  15
BRANCH  12  21
ATOM     21  O   UNL     1     135.599 -19.006 165.319  1.00  0.00    -0.390 OA
ATOM     22  H   UNL     1     135.914 -18.548 164.516  1.00  0.00     0.211 HD
ENDBRANCH  12  21
ENDBRANCH   6   9
ENDBRANCH   4   5
ENDBRANCH   3   4
BRANCH   3  23
ATOM     23  C   UNL     1     132.909 -16.083 163.780  1.00  0.00     0.120 CG0
ATOM     24  G   UNL     1     132.427 -15.336 162.527  1.00  0.00     0.000 G0
ENDBRANCH   3  23
ENDBRANCH   1   3
BRANCH   1  25
ATOM     25  C   UNL     1     129.831 -15.928 163.621  1.00  0.00     0.158 C 
BRANCH  25  26
ATOM     26  C   UNL     1     130.150 -14.443 163.464  1.00  0.00     0.030 C 
BRANCH  26  27
ATOM     27  C   UNL     1     131.477 -14.136 162.760  1.00  0.00     0.004 C 
BRANCH  27  28
ATOM     28  C   UNL     1     132.417 -15.322 162.515  1.00  0.00     0.022 CG0
ATOM     29  G   UNL     1     132.919 -16.087 163.749  1.00  0.00     0.000 G0
ENDBRANCH  27  28
ENDBRANCH  26  27
ENDBRANCH  25  26
BRANCH  25  30
ATOM     30  N   UNL     1     128.389 -16.113 163.904  1.00  0.00    -0.202 NA
ATOM     31  H   UNL     1     128.205 -16.698 164.725  1.00  0.00     0.141 HD
BRANCH  30  32
ATOM     32  S   UNL     1     127.456 -16.694 162.620  1.00  0.00     0.216 S 
ATOM     33  O   UNL     1     126.420 -17.510 163.212  1.00  0.00    -0.212 OA
ATOM     34  O   UNL     1     128.366 -17.241 161.630  1.00  0.00    -0.212 OA
BRANCH  32  35
ATOM     35  C   UNL     1     126.711 -15.205 161.933  1.00  0.00     0.189 C 
BRANCH  35  36
ATOM     36  C   UNL     1     126.198 -14.294 163.018  1.00  0.00    -0.032 A 
ATOM     37  C   UNL     1     126.757 -13.018 163.196  1.00  0.00     0.005 A 
ATOM     38  C   UNL     1     125.152 -14.696 163.860  1.00  0.00     0.005 A 
ATOM     39  C   UNL     1     126.284 -12.170 164.199  1.00  0.00     0.000 A 
ATOM     40  C   UNL     1     124.679 -13.845 164.861  1.00  0.00     0.000 A 
ATOM     41  C   UNL     1     125.245 -12.583 165.029  1.00  0.00     0.000 A 
ENDBRANCH  35  36
ENDBRANCH  32  35
ENDBRANCH  30  32
ENDBRANCH  25  30
ENDBRANCH   1  25
TORSDOF 9
ENDMDL
MODEL 9
REMARK VINA RESULT:    -6.154      2.796      3.863
REMARK INTER + INTRA:         -12.234
REMARK INTER:                 -10.763
REMARK INTRA:                  -1.471
REMARK UNBOUND:                -0.864
REMARK SMILES N=C(N)[C@@H]1CCC[C@H](NC(=O)CN2CCCC[C@H](NS(=O)(=O)Cc3ccccc3)C2=O)[C@@H]1O
REMARK SMILES IDX 30 1 31 2 13 3 12 4 10 5 9 6 11 7 8 9 4 10 5 11 32 12 6 13
REMARK SMILES IDX 7 14 2 15 1 16 3 17 33 21 14 23 18 25 17 26 16 27 15 28
REMARK SMILES IDX 19 30 20 32 21 33 22 34 23 35 24 36 25 37 29 38 26 39 28 40
REMARK SMILES IDX 27 41
REMARK H PARENT 9 8 1 18 3 19 3 20 33 22 19 31
REMARK Flexibility Score:  147.900
ROOT
ATOM      1  C   UNL     1     127.985 -20.627 165.135  1.00  0.00     0.241 C 
ATOM      2  O   UNL     1     127.308 -19.653 165.466  1.00  0.00    -0.273 OA
ENDROOT
BRANCH   1   3
ATOM      3  N   UNL     1     127.548 -21.555 164.200  1.00  0.00    -0.332 N 
BRANCH   3   4
ATOM      4  C   UNL     1     127.927 -21.390 162.795  1.00  0.00     0.219 C 
BRANCH   4   5
ATOM      5  C   UNL     1     127.326 -20.144 162.129  1.00  0.00     0.239 C 
ATOM      6  N   UNL     1     127.881 -18.933 162.493  1.00  0.00    -0.349 N 
ATOM      7  O   UNL     1     126.339 -20.225 161.401  1.00  0.00    -0.273 OA
ATOM      8  H   UNL     1     128.569 -18.918 163.244  1.00  0.00     0.163 HD
BRANCH   6   9
ATOM      9  C   UNL     1     127.314 -17.659 162.042  1.00  0.00     0.111 C 
ATOM     10  C   UNL     1     127.798 -15.273 161.354  1.00  0.00     0.085 C 
ATOM     11  C   UNL     1     126.808 -14.752 162.400  1.00  0.00     0.014 C 
ATOM     12  C   UNL     1     128.424 -16.609 161.784  1.00  0.00     0.147 C 
ATOM     13  C   UNL     1     125.720 -15.785 162.685  1.00  0.00     0.003 C 
ATOM     14  C   UNL     1     126.305 -17.139 163.080  1.00  0.00     0.028 C 
BRANCH  10  15
ATOM     15  C   UNL     1     128.845 -14.210 161.047  1.00  0.00     0.096 C 
ATOM     16  N   UNL     1     129.402 -13.582 162.029  1.00  0.00    -0.288 NA
ATOM     17  N   UNL     1     129.189 -13.962 159.760  1.00  0.00    -0.387 N 
ATOM     18  H   UNL     1     130.082 -12.914 161.658  1.00  0.00     0.189 HD
ATOM     19  H   UNL     1     128.666 -14.438 159.023  1.00  0.00     0.157 HD
ATOM     20  H   UNL     1     129.865 -13.264 159.494  1.00  0.00     0.157 HD
ENDBRANCH  10  15
BRANCH  12  21
ATOM     21  O   UNL     1     129.196 -16.450 162.997  1.00  0.00    -0.390 OA
ATOM     22  H   UNL     1     130.120 -16.386 162.689  1.00  0.00     0.211 HD
ENDBRANCH  12  21
ENDBRANCH   6   9
ENDBRANCH   4   5
ENDBRANCH   3   4
BRANCH   3  23
ATOM     23  C   UNL     1     126.773 -22.733 164.572  1.00  0.00     0.120 CG0
ATOM     24  G   UNL     1     127.237 -23.399 165.876  1.00  0.00     0.000 G0
ENDBRANCH   3  23
ENDBRANCH   1   3
BRANCH   1  25
ATOM     25  C   UNL     1     129.366 -20.896 165.753  1.00  0.00     0.158 C 
BRANCH  25  26
ATOM     26  C   UNL     1     129.283 -22.043 166.758  1.00  0.00     0.030 C 
BRANCH  26  27
ATOM     27  C   UNL     1     128.745 -23.362 166.192  1.00  0.00     0.004 C 
BRANCH  27  28
ATOM     28  C   UNL     1     127.245 -23.419 165.883  1.00  0.00     0.022 CG0
ATOM     29  G   UNL     1     126.769 -22.741 164.589  1.00  0.00     0.000 G0
ENDBRANCH  27  28
ENDBRANCH  26  27
ENDBRANCH  25  26
BRANCH  25  30
ATOM     30  N   UNL     1     129.859 -19.669 166.419  1.00  0.00    -0.202 NA
ATOM     31  H   UNL     1     129.112 -19.017 166.681  1.00  0.00     0.141 HD
BRANCH  30  32
ATOM     32  S   UNL     1     131.047 -18.804 165.583  1.00  0.00     0.216 S 
ATOM     33  O   UNL     1     130.650 -18.817 164.192  1.00  0.00    -0.212 OA
ATOM     34  O   UNL     1     132.338 -19.321 165.998  1.00  0.00    -0.212 OA
BRANCH  32  35
ATOM     35  C   UNL     1     130.879 -17.131 166.226  1.00  0.00     0.189 C 
BRANCH  35  36
ATOM     36  C   UNL     1     132.224 -16.503 166.489  1.00  0.00    -0.032 A 
ATOM     37  C   UNL     1     133.050 -16.122 165.420  1.00  0.00     0.005 A 
ATOM     38  C   UNL     1     132.670 -16.279 167.800  1.00  0.00     0.005 A 
ATOM     39  C   UNL     1     134.296 -15.539 165.658  1.00  0.00     0.000 A 
ATOM     40  C   UNL     1     133.915 -15.694 168.035  1.00  0.00     0.000 A 
ATOM     41  C   UNL     1     134.727 -15.324 166.965  1.00  0.00     0.000 A 
ENDBRANCH  35  36
ENDBRANCH  32  35
ENDBRANCH  30  32
ENDBRANCH  25  30
ENDBRANCH   1  25
TORSDOF 9
ENDMDL
