MODEL 8
REMARK minimizedAffinity -8.5730896
REMARK CNNscore 0.299174964
REMARK CNNaffinity 7.02438927
REMARK SMILES O=C(NCCN1CCCC1)c1cc2cnnc(Nc3ccc(OCc4cccc(F)c4)c(Cl)c3)c2[nH]1
REMARK SMILES IDX 18 1 17 3 11 4 12 5 36 6 13 7 35 8 14 9 15 10 16 11 2 13
REMARK SMILES IDX 1 14 3 15 4 17 5 18 6 19 7 20 10 21 8 22 9 23 19 24 20 25
REMARK SMILES IDX 34 26 21 27 32 28 22 29 33 30 23 31 24 32 25 33 26 34 31 35
REMARK SMILES IDX 27 36 29 37 28 38 30 39
REMARK H PARENT 18 2 36 12 3 16
ROOT
ATOM      1  N   UNL     1      14.787  34.383  15.030  1.00  0.00    -0.337 N 
ATOM      2  H   UNL     1      14.471  33.427  15.078  1.00  0.00     0.168 HD
ENDROOT
BRANCH   1   3
ATOM      3  C   UNL     1      15.217  34.901  16.259  1.00  0.00     0.177 A 
ATOM      4  C   UNL     1      18.822  34.541  16.752  1.00  0.00     0.105 A 
ATOM      5  C   UNL     1      18.432  35.175  17.916  1.00  0.00     0.044 A 
ATOM      6  N   UNL     1      17.674  34.355  16.011  1.00  0.00    -0.347 N 
ATOM      7  C   UNL     1      17.021  35.384  17.863  1.00  0.00     0.024 A 
ATOM      8  C   UNL     1      16.566  34.864  16.652  1.00  0.00     0.093 A 
ATOM      9  C   UNL     1      16.103  35.966  18.735  1.00  0.00     0.146 A 
ATOM     10  N   UNL     1      14.809  36.007  18.375  1.00  0.00    -0.156 NA
ATOM     11  N   UNL     1      14.385  35.484  17.158  1.00  0.00    -0.130 NA
ATOM     12  H   UNL     1      17.681  33.901  15.109  1.00  0.00     0.167 HD
BRANCH   4  13
ATOM     13  C   UNL     1      20.103  34.089  16.253  1.00  0.00     0.267 C 
ATOM     14  O   UNL     1      20.795  33.305  16.897  1.00  0.00    -0.268 OA
ATOM     15  N   UNL     1      20.470  34.597  15.030  1.00  0.00    -0.349 N 
ATOM     16  H   UNL     1      19.770  35.088  14.497  1.00  0.00     0.163 HD
BRANCH  15  17
ATOM     17  C   UNL     1      21.602  34.065  14.292  1.00  0.00     0.131 C 
BRANCH  17  18
ATOM     18  C   UNL     1      22.931  34.761  14.665  1.00  0.00     0.105 C 
BRANCH  18  19
ATOM     19  N   UNL     1      24.051  33.837  14.933  1.00  0.00    -0.302 NA
ATOM     20  C   UNL     1      24.270  32.914  13.808  1.00  0.00     0.084 C 
ATOM     21  C   UNL     1      25.339  34.537  15.067  1.00  0.00     0.084 C 
ATOM     22  C   UNL     1      25.152  33.661  12.820  1.00  0.00     0.017 C 
ATOM     23  C   UNL     1      25.876  34.709  13.653  1.00  0.00     0.017 C 
ENDBRANCH  18  19
ENDBRANCH  17  18
ENDBRANCH  15  17
ENDBRANCH   4  13
ENDBRANCH   1   3
BRANCH   1  24
ATOM     24  C   UNL     1      14.725  34.942  13.741  1.00  0.00     0.041 A 
ATOM     25  C   UNL     1      13.732  35.901  13.480  1.00  0.00     0.030 A 
ATOM     26  C   UNL     1      15.578  34.594  12.691  1.00  0.00     0.050 A 
ATOM     27  C   UNL     1      13.599  36.501  12.220  1.00  0.00     0.050 A 
ATOM     28  C   UNL     1      15.451  35.190  11.428  1.00  0.00     0.085 A 
ATOM     29  C   UNL     1      14.471  36.161  11.186  1.00  0.00     0.138 A 
ATOM     30  Cl  UNL     1      16.553  34.708  10.184  1.00  0.00    -0.080 Cl
BRANCH  29  31
ATOM     31  O   UNL     1      14.390  36.682   9.922  1.00  0.00    -0.487 OA
BRANCH  31  32
ATOM     32  C   UNL     1      14.953  37.979   9.707  1.00  0.00     0.265 C 
BRANCH  32  33
ATOM     33  C   UNL     1      13.955  38.949   9.119  1.00  0.00    -0.008 A 
ATOM     34  C   UNL     1      12.593  38.622   9.014  1.00  0.00     0.007 A 
ATOM     35  C   UNL     1      14.392  40.184   8.615  1.00  0.00     0.046 A 
ATOM     36  C   UNL     1      11.684  39.519   8.444  1.00  0.00     0.003 A 
ATOM     37  C   UNL     1      13.477  41.068   8.051  1.00  0.00     0.123 A 
ATOM     38  C   UNL     1      12.128  40.748   7.962  1.00  0.00     0.039 A 
ATOM     39  F   UNL     1      13.907  42.248   7.585  1.00  0.00    -0.207 F 
ENDBRANCH  32  33
ENDBRANCH  31  32
ENDBRANCH  29  31
ENDBRANCH   1  24
TORSDOF 9
ENDMDL
