REMARK SMILES CCC(CC)n1cc(-c2nc(-c3cnn(CCN[C@H]4CCN(C)C4=O)c3)cn3nccc23)cn1
REMARK SMILES IDX 12 1 13 2 14 3 15 4 26 5 11 6 9 7 10 8 32 9 31 10 28 11
REMARK SMILES IDX 27 12 30 13 29 14 8 15 6 16 7 17 34 18 33 19 3 20 2 21 1 22
REMARK SMILES IDX 4 23 5 24 16 25 17 26 18 27 19 29 20 30 24 31 21 32 22 33
REMARK SMILES IDX 25 34 23 35
REMARK H PARENT 18 28
REMARK INDEX MAP 12 1 13 2 14 3 15 4 26 5 11 6 9 7 10 8 32 9 31 10 28 11 27 12
REMARK INDEX MAP 30 13 29 14 8 15 6 16 7 17 34 18 33 19 3 20 2 21 1 22 4 23
REMARK INDEX MAP 5 24 16 25 17 26 18 27 52 28 19 29 20 30 24 31 21 32 22 33
REMARK INDEX MAP 25 34 23 35
ROOT
ATOM      1  C   UNL     1       4.272 -19.402  19.697  1.00  0.00     0.040 A 
ATOM      2  C   UNL     1       3.007 -19.349  20.327  1.00  0.00     0.145 A 
ATOM      3  N   UNL     1       2.132 -18.585  19.667  1.00  0.00    -0.181 NA
ATOM      4  N   UNL     1       2.839 -18.135  18.615  1.00  0.00    -0.271 N 
ATOM      5  C   UNL     1       4.123 -18.605  18.580  1.00  0.00     0.119 A 
ENDROOT
BRANCH   1   6
ATOM      6  C   UNL     1       5.439 -20.115  20.121  1.00  0.00     0.092 A 
ATOM      7  C   UNL     1       6.161 -22.071  21.132  1.00  0.00     0.100 A 
ATOM      8  N   UNL     1       5.170 -21.345  20.698  1.00  0.00    -0.244 NA
ATOM      9  C   UNL     1       7.532 -21.654  20.997  1.00  0.00     0.093 A 
ATOM     10  C   UNL     1       8.770 -22.202  21.247  1.00  0.00     0.052 A 
ATOM     11  N   UNL     1       7.756 -20.414  20.430  1.00  0.00    -0.237 N 
ATOM     12  C   UNL     1       6.693 -19.646  19.994  1.00  0.00     0.142 A 
ATOM     13  C   UNL     1       9.682 -21.210  20.851  1.00  0.00     0.136 A 
ATOM     14  N   UNL     1       9.077 -20.123  20.370  1.00  0.00    -0.176 NA
BRANCH   7  15
ATOM     15  C   UNL     1       5.837 -23.334  21.764  1.00  0.00     0.040 A 
ATOM     16  N   UNL     1       5.023 -25.359  22.109  1.00  0.00    -0.269 N 
ATOM     17  C   UNL     1       5.120 -24.364  21.180  1.00  0.00     0.119 A 
ATOM     18  N   UNL     1       5.614 -25.045  23.277  1.00  0.00    -0.181 NA
ATOM     19  C   UNL     1       6.090 -23.816  23.068  1.00  0.00     0.145 A 
BRANCH  16  20
ATOM     20  C   UNL     1       4.347 -26.648  21.937  1.00  0.00     0.107 C 
BRANCH  20  21
ATOM     21  C   UNL     1       2.886 -26.412  21.507  1.00  0.00     0.024 C 
ATOM     22  C   UNL     1       2.163 -27.683  21.084  1.00  0.00     0.006 C 
ENDBRANCH  20  21
BRANCH  20  23
ATOM     23  C   UNL     1       4.475 -27.542  23.185  1.00  0.00     0.024 C 
ATOM     24  C   UNL     1       5.316 -28.790  22.946  1.00  0.00     0.006 C 
ENDBRANCH  20  23
ENDBRANCH  16  20
ENDBRANCH   7  15
ENDBRANCH   1   6
BRANCH   4  25
ATOM     25  C   UNL     1       2.218 -17.236  17.660  1.00  0.00     0.159 C 
BRANCH  25  26
ATOM     26  C   UNL     1       0.796 -16.858  18.086  1.00  0.00     0.105 C 
BRANCH  26  27
ATOM     27  N   UNL     1       0.822 -15.777  19.088  1.00  0.00    -0.304 NA
ATOM     28  H   UNL     1       0.661 -16.182  20.021  1.00  0.00     0.123 HD
BRANCH  27  29
ATOM     29  C   UNL     1      -0.215 -14.766  18.819  1.00  0.00     0.145 C 
ATOM     30  C   UNL     1      -0.730 -14.888  17.380  1.00  0.00     0.050 C 
ATOM     31  C   UNL     1      -1.508 -14.963  19.625  1.00  0.00     0.239 C 
ATOM     32  C   UNL     1      -2.122 -14.286  17.456  1.00  0.00     0.121 C 
ATOM     33  N   UNL     1      -2.566 -14.661  18.774  1.00  0.00    -0.344 N 
ATOM     34  O   UNL     1      -1.596 -15.293  20.796  1.00  0.00    -0.273 OA
ATOM     35  C   UNL     1      -3.951 -14.598  19.172  1.00  0.00     0.146 C 
ENDBRANCH  27  29
ENDBRANCH  26  27
ENDBRANCH  25  26
ENDBRANCH   4  25
TORSDOF 9
