MODEL 2
REMARK VINA RESULT:    -8.826      0.739      1.713
REMARK INTER + INTRA:         -11.278
REMARK INTER:                 -10.790
REMARK INTRA:                  -0.488
REMARK UNBOUND:                -0.388
REMARK SMILES CN(c1ncnc2[nH]ccc12)[C@H]1CN(C(=O)Nc2ccc(Cl)cc2Cl)CC12CC2
REMARK SMILES IDX 12 1 13 2 14 3 26 4 27 5 28 6 29 7 2 8 1 9 3 10 4 11 11 12
REMARK SMILES IDX 5 13 10 14 7 15 6 16 9 17 8 18 15 20 16 21 17 22 18 24 19 25
REMARK SMILES IDX 24 26 20 27 23 28 21 29 25 30 22 31
REMARK H PARENT 8 19 17 23
ROOT
ATOM      1  C   UNL     1       7.428 -19.715  21.615  1.00  0.00     0.111 C 
ATOM      2  C   UNL     1       6.903 -21.087  21.125  1.00  0.00     0.147 C 
ATOM      3  N   UNL     1       7.906 -22.056  21.535  1.00  0.00    -0.322 N 
ATOM      4  C   UNL     1       9.210 -21.434  21.627  1.00  0.00     0.130 C 
ATOM      5  C   UNL     1       8.947 -19.946  21.530  1.00  0.00     0.010 C 
ATOM      6  C   UNL     1       9.939 -19.000  22.182  1.00  0.00     0.012 C 
ATOM      7  C   UNL     1       9.878 -19.095  20.683  1.00  0.00     0.012 C 
ENDROOT
BRANCH   1   8
ATOM      8  N   UNL     1       6.946 -18.556  20.831  1.00  0.00    -0.354 N 
ATOM      9  C   UNL     1       7.094 -17.241  21.459  1.00  0.00     0.145 C 
BRANCH   8  10
ATOM     10  C   UNL     1       5.607 -18.686  20.402  1.00  0.00     0.141 A 
ATOM     11  N   UNL     1       5.388 -18.595  19.066  1.00  0.00    -0.219 NA
ATOM     12  C   UNL     1       4.485 -18.899  21.234  1.00  0.00     0.061 A 
ATOM     13  C   UNL     1       4.133 -18.717  18.596  1.00  0.00     0.226 A 
ATOM     14  C   UNL     1       4.236 -19.055  22.630  1.00  0.00     0.033 A 
ATOM     15  C   UNL     1       3.254 -19.005  20.606  1.00  0.00     0.142 A 
ATOM     16  N   UNL     1       3.003 -18.922  19.292  1.00  0.00    -0.218 NA
ATOM     17  C   UNL     1       2.881 -19.249  22.801  1.00  0.00     0.085 A 
ATOM     18  N   UNL     1       2.297 -19.218  21.560  1.00  0.00    -0.346 N 
ATOM     19  H   UNL     1       1.316 -19.336  21.353  1.00  0.00     0.167 HD
ENDBRANCH   8  10
ENDBRANCH   1   8
BRANCH   3  20
ATOM     20  C   UNL     1       7.622 -23.406  21.481  1.00  0.00     0.321 C 
ATOM     21  O   UNL     1       8.183 -24.136  20.666  1.00  0.00    -0.248 OA
ATOM     22  N   UNL     1       6.679 -23.824  22.387  1.00  0.00    -0.306 N 
ATOM     23  H   UNL     1       6.191 -23.107  22.902  1.00  0.00     0.171 HD
BRANCH  22  24
ATOM     24  C   UNL     1       6.210 -25.138  22.628  1.00  0.00     0.061 A 
ATOM     25  C   UNL     1       6.907 -26.078  23.392  1.00  0.00     0.029 A 
ATOM     26  C   UNL     1       4.967 -25.512  22.079  1.00  0.00     0.066 A 
ATOM     27  C   UNL     1       6.383 -27.359  23.595  1.00  0.00     0.023 A 
ATOM     28  C   UNL     1       4.440 -26.790  22.281  1.00  0.00     0.043 A 
ATOM     29  C   UNL     1       5.156 -27.708  23.039  1.00  0.00     0.042 A 
ATOM     30  Cl  UNL     1       4.043 -24.394  21.129  1.00  0.00    -0.082 Cl
ATOM     31  Cl  UNL     1       4.519 -29.286  23.296  1.00  0.00    -0.084 Cl
ENDBRANCH  22  24
ENDBRANCH   3  20
TORSDOF 4
ENDMDL
