MODEL 1
REMARK minimizedAffinity -12.4334307
REMARK CNNscore 0.944316566
REMARK CNNaffinity 7.34038782
REMARK SMILES Nc1ccc2oc(C(=O)NCCC3CCN(Cc4ccccc4)CC3)cc(=O)c2c1
REMARK SMILES IDX 11 1 10 2 8 3 9 4 7 6 2 7 3 8 30 9 4 10 29 11 5 12 27 13
REMARK SMILES IDX 6 14 26 15 28 16 1 17 12 20 13 21 14 22 25 23 15 24 24 25
REMARK SMILES IDX 16 26 17 27 18 28 19 29 23 30 20 31 22 32 21 33
REMARK H PARENT 10 5 1 18 1 19
ROOT
ATOM      1  C   UNL     1     -13.839 -43.712  26.551  1.00  0.00     0.116 C 
ENDROOT
BRANCH   1   2
ATOM      2  N   UNL     1     -15.145 -43.207  26.183  1.00  0.00    -0.349 N 
ATOM      3  C   UNL     1     -15.577 -43.170  24.879  1.00  0.00     0.287 C 
ATOM      4  O   UNL     1     -14.906 -43.546  23.925  1.00  0.00    -0.266 OA
ATOM      5  H   UNL     1     -15.771 -42.886  26.912  1.00  0.00     0.163 HD
BRANCH   3   6
ATOM      6  C   UNL     1     -16.964 -42.624  24.728  1.00  0.00     0.195 A 
ATOM      7  C   UNL     1     -21.568 -40.839  25.604  1.00  0.00     0.032 A 
ATOM      8  C   UNL     1     -20.965 -41.085  26.842  1.00  0.00     0.029 A 
ATOM      9  C   UNL     1     -20.847 -41.100  24.438  1.00  0.00     0.041 A 
ATOM     10  C   UNL     1     -19.664 -41.595  26.919  1.00  0.00     0.050 A 
ATOM     11  C   UNL     1     -19.546 -41.611  24.516  1.00  0.00     0.067 A 
ATOM     12  C   UNL     1     -18.955 -41.859  25.750  1.00  0.00     0.139 A 
ATOM     13  C   UNL     1     -18.776 -41.893  23.295  1.00  0.00     0.193 A 
ATOM     14  O   UNL     1     -17.685 -42.359  25.883  1.00  0.00    -0.451 OA
ATOM     15  C   UNL     1     -17.420 -42.426  23.483  1.00  0.00     0.105 A 
ATOM     16  O   UNL     1     -19.231 -41.697  22.176  1.00  0.00    -0.289 OA
BRANCH   7  17
ATOM     17  N   UNL     1     -22.846 -40.319  25.537  1.00  0.00    -0.399 N 
ATOM     18  H   UNL     1     -23.387 -40.157  26.376  1.00  0.00     0.156 HD
ATOM     19  H   UNL     1     -23.295 -40.169  24.643  1.00  0.00     0.156 HD
ENDBRANCH   7  17
ENDBRANCH   3   6
ENDBRANCH   1   2
BRANCH   1  20
ATOM     20  C   UNL     1     -13.808 -45.240  26.526  1.00  0.00     0.025 C 
BRANCH  20  21
ATOM     21  C   UNL     1     -13.192 -45.861  27.792  1.00  0.00    -0.007 C 
ATOM     22  C   UNL     1     -11.663 -45.962  27.719  1.00  0.00     0.019 C 
ATOM     23  C   UNL     1     -13.590 -45.039  29.026  1.00  0.00     0.019 C 
ATOM     24  C   UNL     1     -11.069 -46.460  29.039  1.00  0.00     0.085 C 
ATOM     25  C   UNL     1     -12.930 -45.572  30.299  1.00  0.00     0.085 C 
ATOM     26  N   UNL     1     -11.466 -45.601  30.163  1.00  0.00    -0.299 NA
BRANCH  26  27
ATOM     27  C   UNL     1     -10.821 -46.069  31.406  1.00  0.00     0.120 C 
BRANCH  27  28
ATOM     28  C   UNL     1      -9.550 -45.319  31.750  1.00  0.00    -0.034 A 
ATOM     29  C   UNL     1      -8.295 -45.911  31.540  1.00  0.00     0.005 A 
ATOM     30  C   UNL     1      -9.608 -44.034  32.307  1.00  0.00     0.005 A 
ATOM     31  C   UNL     1      -7.124 -45.228  31.872  1.00  0.00     0.000 A 
ATOM     32  C   UNL     1      -8.435 -43.353  32.639  1.00  0.00     0.000 A 
ATOM     33  C   UNL     1      -7.195 -43.950  32.422  1.00  0.00     0.000 A 
ENDBRANCH  27  28
ENDBRANCH  26  27
ENDBRANCH  20  21
ENDBRANCH   1  20
TORSDOF 7
ENDMDL
MODEL 2
REMARK minimizedAffinity -12.17733
REMARK CNNscore 0.872709692
REMARK CNNaffinity 7.07953024
REMARK SMILES Nc1ccc2oc(C(=O)NCCC3CCN(Cc4ccccc4)CC3)cc(=O)c2c1
REMARK SMILES IDX 11 1 10 2 8 3 9 4 7 6 2 7 3 8 30 9 4 10 29 11 5 12 27 13
REMARK SMILES IDX 6 14 26 15 28 16 1 17 12 20 13 21 14 22 25 23 15 24 24 25
REMARK SMILES IDX 16 26 17 27 18 28 19 29 23 30 20 31 22 32 21 33
REMARK H PARENT 10 5 1 18 1 19
ROOT
ATOM      1  C   UNL     1     -13.752 -43.645  26.143  1.00  0.00     0.116 C 
ENDROOT
BRANCH   1   2
ATOM      2  N   UNL     1     -15.080 -43.140  25.862  1.00  0.00    -0.349 N 
ATOM      3  C   UNL     1     -15.607 -43.127  24.593  1.00  0.00     0.287 C 
ATOM      4  O   UNL     1     -15.010 -43.526  23.600  1.00  0.00    -0.266 OA
ATOM      5  H   UNL     1     -15.648 -42.801  26.628  1.00  0.00     0.163 HD
BRANCH   3   6
ATOM      6  C   UNL     1     -16.999 -42.577  24.533  1.00  0.00     0.195 A 
ATOM      7  C   UNL     1     -21.552 -40.836  25.709  1.00  0.00     0.032 A 
ATOM      8  C   UNL     1     -20.889 -41.131  26.904  1.00  0.00     0.029 A 
ATOM      9  C   UNL     1     -20.890 -41.047  24.499  1.00  0.00     0.041 A 
ATOM     10  C   UNL     1     -19.587 -41.643  26.896  1.00  0.00     0.050 A 
ATOM     11  C   UNL     1     -19.588 -41.559  24.491  1.00  0.00     0.067 A 
ATOM     12  C   UNL     1     -18.936 -41.857  25.683  1.00  0.00     0.139 A 
ATOM     13  C   UNL     1     -18.879 -41.789  23.223  1.00  0.00     0.193 A 
ATOM     14  O   UNL     1     -17.662 -42.361  25.733  1.00  0.00    -0.451 OA
ATOM     15  C   UNL     1     -17.516 -42.328  23.321  1.00  0.00     0.105 A 
ATOM     16  O   UNL     1     -19.388 -41.548  22.137  1.00  0.00    -0.289 OA
BRANCH   7  17
ATOM     17  N   UNL     1     -22.832 -40.315  25.727  1.00  0.00    -0.399 N 
ATOM     18  H   UNL     1     -23.330 -40.188  26.597  1.00  0.00     0.156 HD
ATOM     19  H   UNL     1     -23.324 -40.128  24.864  1.00  0.00     0.156 HD
ENDBRANCH   7  17
ENDBRANCH   3   6
ENDBRANCH   1   2
BRANCH   1  20
ATOM     20  C   UNL     1     -13.811 -45.011  26.823  1.00  0.00     0.025 C 
BRANCH  20  21
ATOM     21  C   UNL     1     -12.965 -45.094  28.105  1.00  0.00    -0.007 C 
ATOM     22  C   UNL     1     -11.919 -43.975  28.200  1.00  0.00     0.019 C 
ATOM     23  C   UNL     1     -13.876 -45.044  29.340  1.00  0.00     0.019 C 
ATOM     24  C   UNL     1     -11.184 -44.004  29.542  1.00  0.00     0.085 C 
ATOM     25  C   UNL     1     -13.071 -45.039  30.641  1.00  0.00     0.085 C 
ATOM     26  N   UNL     1     -12.122 -43.916  30.669  1.00  0.00    -0.299 NA
BRANCH  26  27
ATOM     27  C   UNL     1     -11.376 -43.877  31.943  1.00  0.00     0.120 C 
BRANCH  27  28
ATOM     28  C   UNL     1      -9.989 -44.480  31.852  1.00  0.00    -0.034 A 
ATOM     29  C   UNL     1      -8.855 -43.706  32.140  1.00  0.00     0.005 A 
ATOM     30  C   UNL     1      -9.815 -45.813  31.453  1.00  0.00     0.005 A 
ATOM     31  C   UNL     1      -7.576 -44.255  32.041  1.00  0.00     0.000 A 
ATOM     32  C   UNL     1      -8.534 -46.360  31.353  1.00  0.00     0.000 A 
ATOM     33  C   UNL     1      -7.416 -45.582  31.648  1.00  0.00     0.000 A 
ENDBRANCH  27  28
ENDBRANCH  26  27
ENDBRANCH  20  21
ENDBRANCH   1  20
TORSDOF 7
ENDMDL
MODEL 3
REMARK minimizedAffinity -11.6740227
REMARK CNNscore 0.866229415
REMARK CNNaffinity 7.27154303
REMARK SMILES Nc1ccc2oc(C(=O)NCCC3CCN(Cc4ccccc4)CC3)cc(=O)c2c1
REMARK SMILES IDX 11 1 10 2 8 3 9 4 7 6 2 7 3 8 30 9 4 10 29 11 5 12 27 13
REMARK SMILES IDX 6 14 26 15 28 16 1 17 12 20 13 21 14 22 25 23 15 24 24 25
REMARK SMILES IDX 16 26 17 27 18 28 19 29 23 30 20 31 22 32 21 33
REMARK H PARENT 10 5 1 18 1 19
ROOT
ATOM      1  C   UNL     1     -13.717 -43.620  26.239  1.00  0.00     0.116 C 
ENDROOT
BRANCH   1   2
ATOM      2  N   UNL     1     -15.039 -43.109  25.941  1.00  0.00    -0.349 N 
ATOM      3  C   UNL     1     -15.586 -43.180  24.682  1.00  0.00     0.287 C 
ATOM      4  O   UNL     1     -15.014 -43.665  23.713  1.00  0.00    -0.266 OA
ATOM      5  H   UNL     1     -15.588 -42.702  26.688  1.00  0.00     0.163 HD
BRANCH   3   6
ATOM      6  C   UNL     1     -16.968 -42.605  24.602  1.00  0.00     0.195 A 
ATOM      7  C   UNL     1     -21.519 -40.816  25.709  1.00  0.00     0.032 A 
ATOM      8  C   UNL     1     -20.890 -41.149  26.912  1.00  0.00     0.029 A 
ATOM      9  C   UNL     1     -20.831 -41.011  24.510  1.00  0.00     0.041 A 
ATOM     10  C   UNL     1     -19.596 -41.682  26.924  1.00  0.00     0.050 A 
ATOM     11  C   UNL     1     -19.538 -41.544  24.522  1.00  0.00     0.067 A 
ATOM     12  C   UNL     1     -18.920 -41.880  25.722  1.00  0.00     0.139 A 
ATOM     13  C   UNL     1     -18.803 -41.758  23.265  1.00  0.00     0.193 A 
ATOM     14  O   UNL     1     -17.655 -42.405  25.790  1.00  0.00    -0.451 OA
ATOM     15  C   UNL     1     -17.451 -42.322  23.384  1.00  0.00     0.105 A 
ATOM     16  O   UNL     1     -19.281 -41.484  22.174  1.00  0.00    -0.289 OA
BRANCH   7  17
ATOM     17  N   UNL     1     -22.790 -40.274  25.708  1.00  0.00    -0.399 N 
ATOM     18  H   UNL     1     -23.308 -40.159  26.569  1.00  0.00     0.156 HD
ATOM     19  H   UNL     1     -23.259 -40.060  24.837  1.00  0.00     0.156 HD
ENDBRANCH   7  17
ENDBRANCH   3   6
ENDBRANCH   1   2
BRANCH   1  20
ATOM     20  C   UNL     1     -13.793 -44.917  27.043  1.00  0.00     0.025 C 
BRANCH  20  21
ATOM     21  C   UNL     1     -12.864 -44.932  28.270  1.00  0.00    -0.007 C 
ATOM     22  C   UNL     1     -12.249 -46.313  28.532  1.00  0.00     0.019 C 
ATOM     23  C   UNL     1     -11.741 -43.901  28.091  1.00  0.00     0.019 C 
ATOM     24  C   UNL     1     -11.231 -46.268  29.674  1.00  0.00     0.085 C 
ATOM     25  C   UNL     1     -10.743 -43.939  29.250  1.00  0.00     0.085 C 
ATOM     26  N   UNL     1     -10.172 -45.286  29.409  1.00  0.00    -0.299 NA
BRANCH  26  27
ATOM     27  C   UNL     1      -9.173 -45.318  30.496  1.00  0.00     0.120 C 
BRANCH  27  28
ATOM     28  C   UNL     1      -9.481 -44.364  31.631  1.00  0.00    -0.034 A 
ATOM     29  C   UNL     1     -10.808 -44.104  32.005  1.00  0.00     0.005 A 
ATOM     30  C   UNL     1      -8.445 -43.705  32.310  1.00  0.00     0.005 A 
ATOM     31  C   UNL     1     -11.093 -43.212  33.039  1.00  0.00     0.000 A 
ATOM     32  C   UNL     1      -8.734 -42.812  33.344  1.00  0.00     0.000 A 
ATOM     33  C   UNL     1     -10.056 -42.567  33.709  1.00  0.00     0.000 A 
ENDBRANCH  27  28
ENDBRANCH  26  27
ENDBRANCH  20  21
ENDBRANCH   1  20
TORSDOF 7
ENDMDL
MODEL 4
REMARK minimizedAffinity -12.0709248
REMARK CNNscore 0.837631822
REMARK CNNaffinity 7.09880018
REMARK SMILES Nc1ccc2oc(C(=O)NCCC3CCN(Cc4ccccc4)CC3)cc(=O)c2c1
REMARK SMILES IDX 11 1 10 2 8 3 9 4 7 6 2 7 3 8 30 9 4 10 29 11 5 12 27 13
REMARK SMILES IDX 6 14 26 15 28 16 1 17 12 20 13 21 14 22 25 23 15 24 24 25
REMARK SMILES IDX 16 26 17 27 18 28 19 29 23 30 20 31 22 32 21 33
REMARK H PARENT 10 5 1 18 1 19
ROOT
ATOM      1  C   UNL     1     -13.810 -43.464  26.521  1.00  0.00     0.116 C 
ENDROOT
BRANCH   1   2
ATOM      2  N   UNL     1     -14.892 -42.842  25.786  1.00  0.00    -0.349 N 
ATOM      3  C   UNL     1     -15.205 -43.202  24.497  1.00  0.00     0.287 C 
ATOM      4  O   UNL     1     -14.604 -44.059  23.861  1.00  0.00    -0.266 OA
ATOM      5  H   UNL     1     -15.449 -42.130  26.242  1.00  0.00     0.163 HD
BRANCH   3   6
ATOM      6  C   UNL     1     -16.367 -42.442  23.934  1.00  0.00     0.195 A 
ATOM      7  C   UNL     1     -20.900 -40.448  23.144  1.00  0.00     0.032 A 
ATOM      8  C   UNL     1     -20.970 -41.213  24.313  1.00  0.00     0.029 A 
ATOM      9  C   UNL     1     -19.685 -40.368  22.462  1.00  0.00     0.041 A 
ATOM     10  C   UNL     1     -19.849 -41.901  24.791  1.00  0.00     0.050 A 
ATOM     11  C   UNL     1     -18.564 -41.056  22.939  1.00  0.00     0.067 A 
ATOM     12  C   UNL     1     -18.643 -41.820  24.098  1.00  0.00     0.139 A 
ATOM     13  C   UNL     1     -17.279 -40.982  22.228  1.00  0.00     0.193 A 
ATOM     14  O   UNL     1     -17.576 -42.514  24.610  1.00  0.00    -0.451 OA
ATOM     15  C   UNL     1     -16.162 -41.739  22.811  1.00  0.00     0.105 A 
ATOM     16  O   UNL     1     -17.135 -40.328  21.205  1.00  0.00    -0.289 OA
BRANCH   7  17
ATOM     17  N   UNL     1     -22.007 -39.759  22.689  1.00  0.00    -0.399 N 
ATOM     18  H   UNL     1     -22.899 -39.836  23.159  1.00  0.00     0.156 HD
ATOM     19  H   UNL     1     -21.966 -39.229  21.828  1.00  0.00     0.156 HD
ENDBRANCH   7  17
ENDBRANCH   3   6
ENDBRANCH   1   2
BRANCH   1  20
ATOM     20  C   UNL     1     -13.930 -44.987  26.501  1.00  0.00     0.025 C 
BRANCH  20  21
ATOM     21  C   UNL     1     -13.344 -45.665  27.752  1.00  0.00    -0.007 C 
ATOM     22  C   UNL     1     -11.839 -45.935  27.631  1.00  0.00     0.019 C 
ATOM     23  C   UNL     1     -13.607 -44.797  28.991  1.00  0.00     0.019 C 
ATOM     24  C   UNL     1     -11.259 -46.487  28.936  1.00  0.00     0.085 C 
ATOM     25  C   UNL     1     -12.968 -45.391  30.247  1.00  0.00     0.085 C 
ATOM     26  N   UNL     1     -11.521 -45.582  30.063  1.00  0.00    -0.299 NA
BRANCH  26  27
ATOM     27  C   UNL     1     -10.891 -46.111  31.289  1.00  0.00     0.120 C 
BRANCH  27  28
ATOM     28  C   UNL     1      -9.635 -45.367  31.695  1.00  0.00    -0.034 A 
ATOM     29  C   UNL     1      -9.717 -44.096  32.283  1.00  0.00     0.005 A 
ATOM     30  C   UNL     1      -8.369 -45.926  31.465  1.00  0.00     0.005 A 
ATOM     31  C   UNL     1      -8.561 -43.403  32.641  1.00  0.00     0.000 A 
ATOM     32  C   UNL     1      -7.213 -45.230  31.824  1.00  0.00     0.000 A 
ATOM     33  C   UNL     1      -7.309 -43.970  32.412  1.00  0.00     0.000 A 
ENDBRANCH  27  28
ENDBRANCH  26  27
ENDBRANCH  20  21
ENDBRANCH   1  20
TORSDOF 7
ENDMDL
MODEL 5
REMARK minimizedAffinity -11.9539795
REMARK CNNscore 0.830190897
REMARK CNNaffinity 7.02981758
REMARK SMILES Nc1ccc2oc(C(=O)NCCC3CCN(Cc4ccccc4)CC3)cc(=O)c2c1
REMARK SMILES IDX 11 1 10 2 8 3 9 4 7 6 2 7 3 8 30 9 4 10 29 11 5 12 27 13
REMARK SMILES IDX 6 14 26 15 28 16 1 17 12 20 13 21 14 22 25 23 15 24 24 25
REMARK SMILES IDX 16 26 17 27 18 28 19 29 23 30 20 31 22 32 21 33
REMARK H PARENT 10 5 1 18 1 19
ROOT
ATOM      1  C   UNL     1     -13.953 -43.704  26.685  1.00  0.00     0.116 C 
ENDROOT
BRANCH   1   2
ATOM      2  N   UNL     1     -15.258 -43.259  26.240  1.00  0.00    -0.349 N 
ATOM      3  C   UNL     1     -16.229 -42.840  27.117  1.00  0.00     0.287 C 
ATOM      4  O   UNL     1     -16.086 -42.812  28.334  1.00  0.00    -0.266 OA
ATOM      5  H   UNL     1     -15.457 -43.239  25.247  1.00  0.00     0.163 HD
BRANCH   3   6
ATOM      6  C   UNL     1     -17.495 -42.410  26.440  1.00  0.00     0.195 A 
ATOM      7  C   UNL     1     -20.961 -41.153  23.042  1.00  0.00     0.032 A 
ATOM      8  C   UNL     1     -19.795 -41.497  22.352  1.00  0.00     0.029 A 
ATOM      9  C   UNL     1     -20.966 -41.221  24.436  1.00  0.00     0.041 A 
ATOM     10  C   UNL     1     -18.642 -41.893  23.039  1.00  0.00     0.050 A 
ATOM     11  C   UNL     1     -19.813 -41.616  25.124  1.00  0.00     0.067 A 
ATOM     12  C   UNL     1     -18.654 -41.951  24.431  1.00  0.00     0.139 A 
ATOM     13  C   UNL     1     -19.803 -41.689  26.593  1.00  0.00     0.193 A 
ATOM     14  O   UNL     1     -17.498 -42.344  25.054  1.00  0.00    -0.451 OA
ATOM     15  C   UNL     1     -18.545 -42.116  27.220  1.00  0.00     0.105 A 
ATOM     16  O   UNL     1     -20.785 -41.413  27.267  1.00  0.00    -0.289 OA
BRANCH   7  17
ATOM     17  N   UNL     1     -22.100 -40.780  22.354  1.00  0.00    -0.399 N 
ATOM     18  H   UNL     1     -22.096 -40.698  21.346  1.00  0.00     0.156 HD
ATOM     19  H   UNL     1     -22.935 -40.502  22.852  1.00  0.00     0.156 HD
ENDBRANCH   7  17
ENDBRANCH   3   6
ENDBRANCH   1   2
BRANCH   1  20
ATOM     20  C   UNL     1     -13.811 -45.220  26.556  1.00  0.00     0.025 C 
BRANCH  20  21
ATOM     21  C   UNL     1     -13.157 -45.880  27.782  1.00  0.00    -0.007 C 
ATOM     22  C   UNL     1     -11.633 -46.007  27.646  1.00  0.00     0.019 C 
ATOM     23  C   UNL     1     -13.489 -45.081  29.049  1.00  0.00     0.019 C 
ATOM     24  C   UNL     1     -10.997 -46.545  28.929  1.00  0.00     0.085 C 
ATOM     25  C   UNL     1     -12.790 -45.653  30.283  1.00  0.00     0.085 C 
ATOM     26  N   UNL     1     -11.332 -45.705  30.087  1.00  0.00    -0.299 NA
BRANCH  26  27
ATOM     27  C   UNL     1     -10.647 -46.212  31.292  1.00  0.00     0.120 C 
BRANCH  27  28
ATOM     28  C   UNL     1      -9.456 -45.375  31.711  1.00  0.00    -0.034 A 
ATOM     29  C   UNL     1      -8.150 -45.860  31.543  1.00  0.00     0.005 A 
ATOM     30  C   UNL     1      -9.641 -44.114  32.297  1.00  0.00     0.005 A 
ATOM     31  C   UNL     1      -7.053 -45.097  31.944  1.00  0.00     0.000 A 
ATOM     32  C   UNL     1      -8.541 -43.353  32.698  1.00  0.00     0.000 A 
ATOM     33  C   UNL     1      -7.249 -43.844  32.521  1.00  0.00     0.000 A 
ENDBRANCH  27  28
ENDBRANCH  26  27
ENDBRANCH  20  21
ENDBRANCH   1  20
TORSDOF 7
ENDMDL
MODEL 6
REMARK minimizedAffinity -11.6922359
REMARK CNNscore 0.825758398
REMARK CNNaffinity 7.41236639
REMARK SMILES Nc1ccc2oc(C(=O)NCCC3CCN(Cc4ccccc4)CC3)cc(=O)c2c1
REMARK SMILES IDX 11 1 10 2 8 3 9 4 7 6 2 7 3 8 30 9 4 10 29 11 5 12 27 13
REMARK SMILES IDX 6 14 26 15 28 16 1 17 12 20 13 21 14 22 25 23 15 24 24 25
REMARK SMILES IDX 16 26 17 27 18 28 19 29 23 30 20 31 22 32 21 33
REMARK H PARENT 10 5 1 18 1 19
ROOT
ATOM      1  C   UNL     1     -12.993 -45.434  27.150  1.00  0.00     0.116 C 
ENDROOT
BRANCH   1   2
ATOM      2  N   UNL     1     -14.209 -44.803  26.680  1.00  0.00    -0.349 N 
ATOM      3  C   UNL     1     -14.305 -43.445  26.493  1.00  0.00     0.287 C 
ATOM      4  O   UNL     1     -13.391 -42.657  26.710  1.00  0.00    -0.266 OA
ATOM      5  H   UNL     1     -15.011 -45.382  26.464  1.00  0.00     0.163 HD
BRANCH   3   6
ATOM      6  C   UNL     1     -15.646 -43.008  25.988  1.00  0.00     0.195 A 
ATOM      7  C   UNL     1     -20.414 -41.491  25.652  1.00  0.00     0.032 A 
ATOM      8  C   UNL     1     -20.100 -41.606  27.009  1.00  0.00     0.029 A 
ATOM      9  C   UNL     1     -19.432 -41.782  24.704  1.00  0.00     0.041 A 
ATOM     10  C   UNL     1     -18.827 -42.018  27.421  1.00  0.00     0.050 A 
ATOM     11  C   UNL     1     -18.159 -42.195  25.115  1.00  0.00     0.067 A 
ATOM     12  C   UNL     1     -17.856 -42.313  26.467  1.00  0.00     0.139 A 
ATOM     13  C   UNL     1     -17.116 -42.508  24.127  1.00  0.00     0.193 A 
ATOM     14  O   UNL     1     -16.626 -42.713  26.925  1.00  0.00    -0.451 OA
ATOM     15  C   UNL     1     -15.814 -42.931  24.660  1.00  0.00     0.105 A 
ATOM     16  O   UNL     1     -17.310 -42.423  22.923  1.00  0.00    -0.289 OA
BRANCH   7  17
ATOM     17  N   UNL     1     -21.668 -41.067  25.255  1.00  0.00    -0.399 N 
ATOM     18  H   UNL     1     -22.394 -40.884  25.934  1.00  0.00     0.156 HD
ATOM     19  H   UNL     1     -21.906 -41.012  24.274  1.00  0.00     0.156 HD
ENDBRANCH   7  17
ENDBRANCH   3   6
ENDBRANCH   1   2
BRANCH   1  20
ATOM     20  C   UNL     1     -13.163 -45.977  28.568  1.00  0.00     0.025 C 
BRANCH  20  21
ATOM     21  C   UNL     1     -12.272 -45.271  29.605  1.00  0.00    -0.007 C 
ATOM     22  C   UNL     1     -11.620 -46.250  30.591  1.00  0.00     0.019 C 
ATOM     23  C   UNL     1     -11.178 -44.463  28.894  1.00  0.00     0.019 C 
ATOM     24  C   UNL     1     -10.640 -45.537  31.526  1.00  0.00     0.085 C 
ATOM     25  C   UNL     1     -10.215 -43.811  29.888  1.00  0.00     0.085 C 
ATOM     26  N   UNL     1      -9.605 -44.819  30.769  1.00  0.00    -0.299 NA
BRANCH  26  27
ATOM     27  C   UNL     1      -8.639 -44.202  31.699  1.00  0.00     0.120 C 
BRANCH  27  28
ATOM     28  C   UNL     1      -9.286 -43.330  32.756  1.00  0.00    -0.034 A 
ATOM     29  C   UNL     1      -8.522 -42.797  33.806  1.00  0.00     0.005 A 
ATOM     30  C   UNL     1     -10.662 -43.063  32.716  1.00  0.00     0.005 A 
ATOM     31  C   UNL     1      -9.120 -42.008  34.789  1.00  0.00     0.000 A 
ATOM     32  C   UNL     1     -11.258 -42.273  33.701  1.00  0.00     0.000 A 
ATOM     33  C   UNL     1     -10.488 -41.746  34.736  1.00  0.00     0.000 A 
ENDBRANCH  27  28
ENDBRANCH  26  27
ENDBRANCH  20  21
ENDBRANCH   1  20
TORSDOF 7
ENDMDL
MODEL 7
REMARK minimizedAffinity -10.7168121
REMARK CNNscore 0.784368098
REMARK CNNaffinity 7.05742884
REMARK SMILES Nc1ccc2oc(C(=O)NCCC3CCN(Cc4ccccc4)CC3)cc(=O)c2c1
REMARK SMILES IDX 11 1 10 2 8 3 9 4 7 6 2 7 3 8 30 9 4 10 29 11 5 12 27 13
REMARK SMILES IDX 6 14 26 15 28 16 1 17 12 20 13 21 14 22 25 23 15 24 24 25
REMARK SMILES IDX 16 26 17 27 18 28 19 29 23 30 20 31 22 32 21 33
REMARK H PARENT 10 5 1 18 1 19
ROOT
ATOM      1  C   UNL     1     -14.318 -43.070  26.243  1.00  0.00     0.116 C 
ENDROOT
BRANCH   1   2
ATOM      2  N   UNL     1     -13.120 -43.189  27.048  1.00  0.00    -0.349 N 
ATOM      3  C   UNL     1     -12.680 -44.396  27.535  1.00  0.00     0.287 C 
ATOM      4  O   UNL     1     -13.255 -45.462  27.344  1.00  0.00    -0.266 OA
ATOM      5  H   UNL     1     -12.576 -42.358  27.244  1.00  0.00     0.163 HD
BRANCH   3   6
ATOM      6  C   UNL     1     -11.413 -44.291  28.329  1.00  0.00     0.195 A 
ATOM      7  C   UNL     1      -7.562 -45.197  31.410  1.00  0.00     0.032 A 
ATOM      8  C   UNL     1      -8.400 -46.316  31.437  1.00  0.00     0.029 A 
ATOM      9  C   UNL     1      -7.904 -44.117  30.595  1.00  0.00     0.041 A 
ATOM     10  C   UNL     1      -9.571 -46.357  30.672  1.00  0.00     0.050 A 
ATOM     11  C   UNL     1      -9.075 -44.157  29.830  1.00  0.00     0.067 A 
ATOM     12  C   UNL     1      -9.907 -45.271  29.866  1.00  0.00     0.139 A 
ATOM     13  C   UNL     1      -9.449 -43.025  28.969  1.00  0.00     0.193 A 
ATOM     14  O   UNL     1     -11.066 -45.363  29.138  1.00  0.00    -0.451 OA
ATOM     15  C   UNL     1     -10.696 -43.165  28.205  1.00  0.00     0.105 A 
ATOM     16  O   UNL     1      -8.765 -42.015  28.885  1.00  0.00    -0.289 OA
BRANCH   7  17
ATOM     17  N   UNL     1      -6.400 -45.172  32.156  1.00  0.00    -0.399 N 
ATOM     18  H   UNL     1      -6.160 -45.937  32.772  1.00  0.00     0.156 HD
ATOM     19  H   UNL     1      -5.808 -44.352  32.161  1.00  0.00     0.156 HD
ENDBRANCH   7  17
ENDBRANCH   3   6
ENDBRANCH   1   2
BRANCH   1  20
ATOM     20  C   UNL     1     -15.576 -43.204  27.101  1.00  0.00     0.025 C 
BRANCH  20  21
ATOM     21  C   UNL     1     -16.763 -42.376  26.579  1.00  0.00    -0.007 C 
ATOM     22  C   UNL     1     -17.237 -42.825  25.191  1.00  0.00     0.019 C 
ATOM     23  C   UNL     1     -17.935 -42.458  27.567  1.00  0.00     0.019 C 
ATOM     24  C   UNL     1     -18.497 -42.074  24.755  1.00  0.00     0.085 C 
ATOM     25  C   UNL     1     -19.169 -41.717  27.050  1.00  0.00     0.085 C 
ATOM     26  N   UNL     1     -19.581 -42.233  25.735  1.00  0.00    -0.299 NA
BRANCH  26  27
ATOM     27  C   UNL     1     -20.799 -41.554  25.251  1.00  0.00     0.120 C 
BRANCH  27  28
ATOM     28  C   UNL     1     -21.949 -41.595  26.237  1.00  0.00    -0.034 A 
ATOM     29  C   UNL     1     -22.526 -42.819  26.608  1.00  0.00     0.005 A 
ATOM     30  C   UNL     1     -22.471 -40.409  26.773  1.00  0.00     0.005 A 
ATOM     31  C   UNL     1     -23.596 -42.857  27.503  1.00  0.00     0.000 A 
ATOM     32  C   UNL     1     -23.543 -40.450  27.668  1.00  0.00     0.000 A 
ATOM     33  C   UNL     1     -24.104 -41.672  28.033  1.00  0.00     0.000 A 
ENDBRANCH  27  28
ENDBRANCH  26  27
ENDBRANCH  20  21
ENDBRANCH   1  20
TORSDOF 7
ENDMDL
MODEL 8
REMARK minimizedAffinity -11.1588116
REMARK CNNscore 0.756686151
REMARK CNNaffinity 7.19066
REMARK SMILES Nc1ccc2oc(C(=O)NCCC3CCN(Cc4ccccc4)CC3)cc(=O)c2c1
REMARK SMILES IDX 11 1 10 2 8 3 9 4 7 6 2 7 3 8 30 9 4 10 29 11 5 12 27 13
REMARK SMILES IDX 6 14 26 15 28 16 1 17 12 20 13 21 14 22 25 23 15 24 24 25
REMARK SMILES IDX 16 26 17 27 18 28 19 29 23 30 20 31 22 32 21 33
REMARK H PARENT 10 5 1 18 1 19
ROOT
ATOM      1  C   UNL     1     -12.967 -45.537  26.826  1.00  0.00     0.116 C 
ENDROOT
BRANCH   1   2
ATOM      2  N   UNL     1     -14.221 -44.881  26.519  1.00  0.00    -0.349 N 
ATOM      3  C   UNL     1     -14.359 -43.514  26.546  1.00  0.00     0.287 C 
ATOM      4  O   UNL     1     -13.454 -42.740  26.835  1.00  0.00    -0.266 OA
ATOM      5  H   UNL     1     -15.020 -45.446  26.259  1.00  0.00     0.163 HD
BRANCH   3   6
ATOM      6  C   UNL     1     -15.736 -43.049  26.182  1.00  0.00     0.195 A 
ATOM      7  C   UNL     1     -19.859 -41.675  23.681  1.00  0.00     0.032 A 
ATOM      8  C   UNL     1     -18.891 -42.035  22.738  1.00  0.00     0.029 A 
ATOM      9  C   UNL     1     -19.545 -41.761  25.038  1.00  0.00     0.041 A 
ATOM     10  C   UNL     1     -17.621 -42.463  23.140  1.00  0.00     0.050 A 
ATOM     11  C   UNL     1     -18.275 -42.189  25.439  1.00  0.00     0.067 A 
ATOM     12  C   UNL     1     -17.315 -42.539  24.496  1.00  0.00     0.139 A 
ATOM     13  C   UNL     1     -17.931 -42.281  26.866  1.00  0.00     0.193 A 
ATOM     14  O   UNL     1     -16.056 -42.965  24.835  1.00  0.00    -0.451 OA
ATOM     15  C   UNL     1     -16.572 -42.742  27.184  1.00  0.00     0.105 A 
ATOM     16  O   UNL     1     -18.725 -41.993  27.750  1.00  0.00    -0.289 OA
BRANCH   7  17
ATOM     17  N   UNL     1     -21.116 -41.269  23.275  1.00  0.00    -0.399 N 
ATOM     18  H   UNL     1     -21.342 -41.174  22.295  1.00  0.00     0.156 HD
ATOM     19  H   UNL     1     -21.808 -40.980  23.955  1.00  0.00     0.156 HD
ENDBRANCH   7  17
ENDBRANCH   3   6
ENDBRANCH   1   2
BRANCH   1  20
ATOM     20  C   UNL     1     -13.066 -46.345  28.119  1.00  0.00     0.025 C 
BRANCH  20  21
ATOM     21  C   UNL     1     -12.130 -45.840  29.230  1.00  0.00    -0.007 C 
ATOM     22  C   UNL     1     -11.620 -44.416  28.975  1.00  0.00     0.019 C 
ATOM     23  C   UNL     1     -12.850 -45.887  30.585  1.00  0.00     0.019 C 
ATOM     24  C   UNL     1     -10.799 -43.892  30.155  1.00  0.00     0.085 C 
ATOM     25  C   UNL     1     -11.985 -45.314  31.709  1.00  0.00     0.085 C 
ATOM     26  N   UNL     1     -11.570 -43.935  31.405  1.00  0.00    -0.299 NA
BRANCH  26  27
ATOM     27  C   UNL     1     -10.775 -43.360  32.507  1.00  0.00     0.120 C 
BRANCH  27  28
ATOM     28  C   UNL     1      -9.323 -43.791  32.497  1.00  0.00    -0.034 A 
ATOM     29  C   UNL     1      -8.336 -42.985  33.084  1.00  0.00     0.005 A 
ATOM     30  C   UNL     1      -8.938 -44.988  31.877  1.00  0.00     0.005 A 
ATOM     31  C   UNL     1      -6.995 -43.373  33.060  1.00  0.00     0.000 A 
ATOM     32  C   UNL     1      -7.596 -45.374  31.853  1.00  0.00     0.000 A 
ATOM     33  C   UNL     1      -6.626 -44.567  32.445  1.00  0.00     0.000 A 
ENDBRANCH  27  28
ENDBRANCH  26  27
ENDBRANCH  20  21
ENDBRANCH   1  20
TORSDOF 7
ENDMDL
MODEL 9
REMARK minimizedAffinity -11.736701
REMARK CNNscore 0.747785747
REMARK CNNaffinity 6.92558479
REMARK SMILES Nc1ccc2oc(C(=O)NCCC3CCN(Cc4ccccc4)CC3)cc(=O)c2c1
REMARK SMILES IDX 11 1 10 2 8 3 9 4 7 6 2 7 3 8 30 9 4 10 29 11 5 12 27 13
REMARK SMILES IDX 6 14 26 15 28 16 1 17 12 20 13 21 14 22 25 23 15 24 24 25
REMARK SMILES IDX 16 26 17 27 18 28 19 29 23 30 20 31 22 32 21 33
REMARK H PARENT 10 5 1 18 1 19
ROOT
ATOM      1  C   UNL     1     -14.075 -43.234  26.146  1.00  0.00     0.116 C 
ENDROOT
BRANCH   1   2
ATOM      2  N   UNL     1     -15.441 -42.765  26.040  1.00  0.00    -0.349 N 
ATOM      3  C   UNL     1     -16.178 -42.906  24.889  1.00  0.00     0.287 C 
ATOM      4  O   UNL     1     -15.753 -43.425  23.863  1.00  0.00    -0.266 OA
ATOM      5  H   UNL     1     -15.876 -42.334  26.846  1.00  0.00     0.163 HD
BRANCH   3   6
ATOM      6  C   UNL     1     -17.571 -42.365  25.004  1.00  0.00     0.195 A 
ATOM      7  C   UNL     1     -22.044 -40.314  24.041  1.00  0.00     0.032 A 
ATOM      8  C   UNL     1     -21.325 -40.347  22.843  1.00  0.00     0.029 A 
ATOM      9  C   UNL     1     -21.452 -40.822  25.198  1.00  0.00     0.041 A 
ATOM     10  C   UNL     1     -20.027 -40.866  22.797  1.00  0.00     0.050 A 
ATOM     11  C   UNL     1     -20.153 -41.342  25.152  1.00  0.00     0.067 A 
ATOM     12  C   UNL     1     -19.441 -41.365  23.958  1.00  0.00     0.139 A 
ATOM     13  C   UNL     1     -19.516 -41.878  26.365  1.00  0.00     0.193 A 
ATOM     14  O   UNL     1     -18.167 -41.861  23.857  1.00  0.00    -0.451 OA
ATOM     15  C   UNL     1     -18.152 -42.401  26.212  1.00  0.00     0.105 A 
ATOM     16  O   UNL     1     -20.083 -41.893  27.448  1.00  0.00    -0.289 OA
BRANCH   7  17
ATOM     17  N   UNL     1     -23.332 -39.814  24.074  1.00  0.00    -0.399 N 
ATOM     18  H   UNL     1     -23.757 -39.416  23.248  1.00  0.00     0.156 HD
ATOM     19  H   UNL     1     -23.843 -39.763  24.945  1.00  0.00     0.156 HD
ENDBRANCH   7  17
ENDBRANCH   3   6
ENDBRANCH   1   2
BRANCH   1  20
ATOM     20  C   UNL     1     -14.025 -44.725  26.475  1.00  0.00     0.025 C 
BRANCH  20  21
ATOM     21  C   UNL     1     -13.294 -45.037  27.792  1.00  0.00    -0.007 C 
ATOM     22  C   UNL     1     -12.073 -44.137  28.021  1.00  0.00     0.019 C 
ATOM     23  C   UNL     1     -14.260 -44.894  28.976  1.00  0.00     0.019 C 
ATOM     24  C   UNL     1     -11.444 -44.380  29.395  1.00  0.00     0.085 C 
ATOM     25  C   UNL     1     -13.555 -45.113  30.316  1.00  0.00     0.085 C 
ATOM     26  N   UNL     1     -12.423 -44.187  30.474  1.00  0.00    -0.299 NA
BRANCH  26  27
ATOM     27  C   UNL     1     -11.767 -44.362  31.785  1.00  0.00     0.120 C 
BRANCH  27  28
ATOM     28  C   UNL     1     -10.349 -44.886  31.689  1.00  0.00    -0.034 A 
ATOM     29  C   UNL     1     -10.103 -46.205  31.279  1.00  0.00     0.005 A 
ATOM     30  C   UNL     1      -9.262 -44.070  32.035  1.00  0.00     0.005 A 
ATOM     31  C   UNL     1      -8.798 -46.694  31.207  1.00  0.00     0.000 A 
ATOM     32  C   UNL     1      -7.957 -44.562  31.963  1.00  0.00     0.000 A 
ATOM     33  C   UNL     1      -7.726 -45.872  31.549  1.00  0.00     0.000 A 
ENDBRANCH  27  28
ENDBRANCH  26  27
ENDBRANCH  20  21
ENDBRANCH   1  20
TORSDOF 7
ENDMDL
