MODEL 8
REMARK VINA RESULT:    -7.874      2.891      4.202
REMARK INTER + INTRA:         -12.037
REMARK INTER:                 -11.173
REMARK INTRA:                  -0.864
REMARK UNBOUND:                -1.172
REMARK SMILES N=C(N)c1ccc(O)c(CN2CC[C@H](NS(=O)(=O)c3cc4ncccc4s3)C2=O)c1
REMARK SMILES IDX 11 1 12 2 13 3 14 4 28 5 29 6 10 7 9 8 4 9 5 10 30 11 6 12
REMARK SMILES IDX 7 13 2 14 1 15 3 16 8 20 15 22 16 24 17 25 18 26 19 27 20 28
REMARK SMILES IDX 27 29 21 30 26 31 22 32 25 33 23 34 24 35
REMARK H PARENT 1 17 3 18 3 19 8 21 15 23
ROOT
ATOM      1  N   UNL     1     129.329 -15.306 163.287  1.00  0.00    -0.337 N 
ATOM      2  C   UNL     1     130.255 -15.151 162.193  1.00  0.00     0.122 C 
ATOM      3  C   UNL     1     131.515 -14.648 162.869  1.00  0.00     0.051 C 
ATOM      4  C   UNL     1     131.479 -15.302 164.250  1.00  0.00     0.161 C 
ATOM      5  C   UNL     1     129.989 -15.504 164.491  1.00  0.00     0.241 C 
ATOM      6  O   UNL     1     129.484 -15.876 165.538  1.00  0.00    -0.273 OA
ENDROOT
BRANCH   1   7
ATOM      7  C   UNL     1     127.942 -15.678 163.069  1.00  0.00     0.159 C 
BRANCH   7   8
ATOM      8  C   UNL     1     126.997 -14.514 163.253  1.00  0.00     0.014 A 
ATOM      9  C   UNL     1     125.266 -13.411 164.570  1.00  0.00     0.017 A 
ATOM     10  C   UNL     1     125.182 -12.398 163.606  1.00  0.00     0.016 A 
ATOM     11  C   UNL     1     126.171 -14.463 164.391  1.00  0.00     0.021 A 
ATOM     12  C   UNL     1     125.997 -12.438 162.472  1.00  0.00     0.047 A 
ATOM     13  C   UNL     1     126.894 -13.492 162.303  1.00  0.00     0.120 A 
BRANCH   9  14
ATOM     14  C   UNL     1     124.390 -13.345 165.772  1.00  0.00     0.122 C 
ATOM     15  N   UNL     1     123.492 -14.233 166.052  1.00  0.00    -0.284 NA
ATOM     16  N   UNL     1     124.508 -12.313 166.655  1.00  0.00    -0.384 N 
ATOM     17  H   UNL     1     123.433 -14.969 165.344  1.00  0.00     0.189 HD
ATOM     18  H   UNL     1     125.459 -12.040 166.876  1.00  0.00     0.158 HD
ATOM     19  H   UNL     1     123.973 -12.517 167.495  1.00  0.00     0.158 HD
ENDBRANCH   9  14
BRANCH  13  20
ATOM     20  O   UNL     1     127.682 -13.542 161.189  1.00  0.00    -0.508 OA
ATOM     21  H   UNL     1     128.551 -13.156 161.398  1.00  0.00     0.293 HD
ENDBRANCH  13  20
ENDBRANCH   7   8
ENDBRANCH   1   7
BRANCH   4  22
ATOM     22  N   UNL     1     132.157 -16.613 164.202  1.00  0.00    -0.198 NA
ATOM     23  H   UNL     1     131.602 -17.381 163.820  1.00  0.00     0.142 HD
BRANCH  22  24
ATOM     24  S   UNL     1     133.003 -17.095 165.572  1.00  0.00     0.250 S 
ATOM     25  O   UNL     1     132.997 -15.998 166.514  1.00  0.00    -0.206 OA
ATOM     26  O   UNL     1     134.234 -17.679 165.088  1.00  0.00    -0.206 OA
BRANCH  24  27
ATOM     27  C   UNL     1     132.139 -18.454 166.319  1.00  0.00     0.137 A 
ATOM     28  C   UNL     1     130.850 -18.919 166.141  1.00  0.00     0.062 A 
ATOM     29  S   UNL     1     132.989 -19.388 167.470  1.00  0.00    -0.121 S 
ATOM     30  C   UNL     1     130.552 -20.034 166.971  1.00  0.00     0.082 A 
ATOM     31  C   UNL     1     131.637 -20.401 167.766  1.00  0.00     0.054 A 
ATOM     32  N   UNL     1     129.358 -20.684 167.005  1.00  0.00    -0.255 NA
ATOM     33  C   UNL     1     131.523 -21.478 168.656  1.00  0.00     0.023 A 
ATOM     34  C   UNL     1     129.278 -21.711 167.871  1.00  0.00     0.112 A 
ATOM     35  C   UNL     1     130.301 -22.140 168.700  1.00  0.00     0.022 A 
ENDBRANCH  24  27
ENDBRANCH  22  24
ENDBRANCH   4  22
TORSDOF 7
ENDMDL
