MODEL 1
REMARK VINA RESULT:    -9.772      0.000      0.000
REMARK INTER + INTRA:         -13.805
REMARK INTER:                 -13.200
REMARK INTRA:                  -0.605
REMARK UNBOUND:                -0.605
REMARK SMILES Fc1ccc(C[n+]2ccc(CCNc3nc4ccc(F)cc4s3)cc2)cc1
REMARK SMILES IDX 11 1 10 2 7 3 8 4 25 5 9 6 24 7 6 8 5 9 2 10 3 11 27 12 4 13
REMARK SMILES IDX 26 14 1 15 12 16 13 17 14 19 15 20 23 21 16 22 22 23 17 24
REMARK SMILES IDX 21 25 18 26 19 27 20 28
REMARK H PARENT 13 18
ROOT
ATOM      1  C   UNL     1     -13.304 -42.909  26.578  1.00  0.00     0.057 C 
ENDROOT
BRANCH   1   2
ATOM      2  C   UNL     1     -12.736 -42.991  27.977  1.00  0.00    -0.034 A 
ATOM      3  N   UNL     1     -11.753 -43.027  30.570  1.00  0.00    -0.201 N 
ATOM      4  C   UNL     1     -12.916 -43.656  30.285  1.00  0.00     0.308 A 
ATOM      5  C   UNL     1     -11.065 -42.381  29.601  1.00  0.00     0.308 A 
ATOM      6  C   UNL     1     -13.424 -43.658  28.991  1.00  0.00     0.074 A 
ATOM      7  C   UNL     1     -11.539 -42.350  28.295  1.00  0.00     0.074 A 
BRANCH   3   8
ATOM      8  C   UNL     1     -11.220 -43.063  31.953  1.00  0.00     0.393 C 
BRANCH   8   9
ATOM      9  C   UNL     1      -9.895 -43.781  32.015  1.00  0.00     0.017 A 
ATOM     10  C   UNL     1      -7.439 -45.115  32.096  1.00  0.00     0.123 A 
ATOM     11  C   UNL     1      -7.524 -43.805  32.552  1.00  0.00     0.040 A 
ATOM     12  C   UNL     1      -8.557 -45.769  31.597  1.00  0.00     0.040 A 
ATOM     13  C   UNL     1      -8.750 -43.137  32.516  1.00  0.00     0.013 A 
ATOM     14  C   UNL     1      -9.784 -45.106  31.552  1.00  0.00     0.013 A 
ATOM     15  F   UNL     1      -6.265 -45.755  32.142  1.00  0.00    -0.207 F 
ENDBRANCH   8   9
ENDBRANCH   3   8
ENDBRANCH   1   2
BRANCH   1  16
ATOM     16  C   UNL     1     -14.396 -43.949  26.282  1.00  0.00     0.120 C 
BRANCH  16  17
ATOM     17  N   UNL     1     -14.825 -43.894  24.896  1.00  0.00    -0.361 N 
ATOM     18  H   UNL     1     -14.361 -44.506  24.235  1.00  0.00     0.162 HD
BRANCH  17  19
ATOM     19  C   UNL     1     -15.931 -43.216  24.524  1.00  0.00     0.183 A 
ATOM     20  N   UNL     1     -17.031 -43.113  25.233  1.00  0.00    -0.220 NA
ATOM     21  S   UNL     1     -15.954 -42.382  23.021  1.00  0.00    -0.097 S 
ATOM     22  C   UNL     1     -17.998 -42.418  24.527  1.00  0.00     0.084 A 
ATOM     23  C   UNL     1     -17.587 -41.920  23.288  1.00  0.00     0.059 A 
ATOM     24  C   UNL     1     -19.323 -42.183  24.952  1.00  0.00     0.033 A 
ATOM     25  C   UNL     1     -18.448 -41.181  22.462  1.00  0.00     0.060 A 
ATOM     26  C   UNL     1     -20.193 -41.457  24.131  1.00  0.00     0.041 A 
ATOM     27  C   UNL     1     -19.749 -40.967  22.912  1.00  0.00     0.124 A 
ATOM     28  F   UNL     1     -20.591 -40.261  22.147  1.00  0.00    -0.207 F 
ENDBRANCH  17  19
ENDBRANCH  16  17
ENDBRANCH   1  16
TORSDOF 6
ENDMDL
MODEL 2
REMARK VINA RESULT:    -9.411      1.841      2.541
REMARK INTER + INTRA:         -13.317
REMARK INTER:                 -13.257
REMARK INTRA:                  -0.059
REMARK UNBOUND:                -0.605
REMARK SMILES Fc1ccc(C[n+]2ccc(CCNc3nc4ccc(F)cc4s3)cc2)cc1
REMARK SMILES IDX 11 1 10 2 7 3 8 4 25 5 9 6 24 7 6 8 5 9 2 10 3 11 27 12 4 13
REMARK SMILES IDX 26 14 1 15 12 16 13 17 14 19 15 20 23 21 16 22 22 23 17 24
REMARK SMILES IDX 21 25 18 26 19 27 20 28
REMARK H PARENT 13 18
ROOT
ATOM      1  C   UNL     1     -12.851 -42.701  27.020  1.00  0.00     0.057 C 
ENDROOT
BRANCH   1   2
ATOM      2  C   UNL     1     -11.810 -42.943  28.090  1.00  0.00    -0.034 A 
ATOM      3  N   UNL     1      -9.857 -43.487  29.982  1.00  0.00    -0.201 N 
ATOM      4  C   UNL     1      -9.617 -42.572  29.014  1.00  0.00     0.308 A 
ATOM      5  C   UNL     1     -11.041 -44.138  30.035  1.00  0.00     0.308 A 
ATOM      6  C   UNL     1     -10.585 -42.278  28.060  1.00  0.00     0.074 A 
ATOM      7  C   UNL     1     -12.034 -43.882  29.098  1.00  0.00     0.074 A 
BRANCH   3   8
ATOM      8  C   UNL     1      -8.818 -43.762  31.003  1.00  0.00     0.393 C 
BRANCH   8   9
ATOM      9  C   UNL     1      -9.193 -43.180  32.343  1.00  0.00     0.017 A 
ATOM     10  C   UNL     1      -9.870 -42.073  34.819  1.00  0.00     0.123 A 
ATOM     11  C   UNL     1     -10.870 -42.345  33.893  1.00  0.00     0.040 A 
ATOM     12  C   UNL     1      -8.539 -42.341  34.530  1.00  0.00     0.040 A 
ATOM     13  C   UNL     1     -10.535 -42.901  32.656  1.00  0.00     0.013 A 
ATOM     14  C   UNL     1      -8.197 -42.890  33.294  1.00  0.00     0.013 A 
ATOM     15  F   UNL     1     -10.195 -41.551  36.007  1.00  0.00    -0.207 F 
ENDBRANCH   8   9
ENDBRANCH   3   8
ENDBRANCH   1   2
BRANCH   1  16
ATOM     16  C   UNL     1     -13.768 -43.905  26.754  1.00  0.00     0.120 C 
BRANCH  16  17
ATOM     17  N   UNL     1     -14.266 -43.908  25.390  1.00  0.00    -0.361 N 
ATOM     18  H   UNL     1     -13.763 -44.463  24.707  1.00  0.00     0.162 HD
BRANCH  17  19
ATOM     19  C   UNL     1     -15.461 -43.369  25.072  1.00  0.00     0.183 A 
ATOM     20  N   UNL     1     -16.456 -43.185  25.907  1.00  0.00    -0.220 NA
ATOM     21  S   UNL     1     -15.755 -42.838  23.463  1.00  0.00    -0.097 S 
ATOM     22  C   UNL     1     -17.561 -42.686  25.240  1.00  0.00     0.084 A 
ATOM     23  C   UNL     1     -17.365 -42.415  23.884  1.00  0.00     0.059 A 
ATOM     24  C   UNL     1     -18.828 -42.439  25.809  1.00  0.00     0.033 A 
ATOM     25  C   UNL     1     -18.385 -41.889  23.076  1.00  0.00     0.060 A 
ATOM     26  C   UNL     1     -19.857 -41.926  25.011  1.00  0.00     0.041 A 
ATOM     27  C   UNL     1     -19.624 -41.656  23.670  1.00  0.00     0.124 A 
ATOM     28  F   UNL     1     -20.616 -41.151  22.924  1.00  0.00    -0.207 F 
ENDBRANCH  17  19
ENDBRANCH  16  17
ENDBRANCH   1  16
TORSDOF 6
ENDMDL
MODEL 3
REMARK VINA RESULT:    -9.345      2.547     10.937
REMARK INTER + INTRA:         -13.228
REMARK INTER:                 -12.991
REMARK INTRA:                  -0.237
REMARK UNBOUND:                -0.605
REMARK SMILES Fc1ccc(C[n+]2ccc(CCNc3nc4ccc(F)cc4s3)cc2)cc1
REMARK SMILES IDX 11 1 10 2 7 3 8 4 25 5 9 6 24 7 6 8 5 9 2 10 3 11 27 12 4 13
REMARK SMILES IDX 26 14 1 15 12 16 13 17 14 19 15 20 23 21 16 22 22 23 17 24
REMARK SMILES IDX 21 25 18 26 19 27 20 28
REMARK H PARENT 13 18
ROOT
ATOM      1  C   UNL     1     -12.775 -43.138  29.761  1.00  0.00     0.057 C 
ENDROOT
BRANCH   1   2
ATOM      2  C   UNL     1     -13.305 -43.328  28.357  1.00  0.00    -0.034 A 
ATOM      3  N   UNL     1     -14.178 -43.758  25.761  1.00  0.00    -0.201 N 
ATOM      4  C   UNL     1     -14.687 -44.500  26.771  1.00  0.00     0.308 A 
ATOM      5  C   UNL     1     -13.248 -42.808  26.006  1.00  0.00     0.308 A 
ATOM      6  C   UNL     1     -14.270 -44.296  28.082  1.00  0.00     0.074 A 
ATOM      7  C   UNL     1     -12.795 -42.575  27.299  1.00  0.00     0.074 A 
BRANCH   3   8
ATOM      8  C   UNL     1     -14.660 -43.977  24.376  1.00  0.00     0.393 C 
BRANCH   8   9
ATOM      9  C   UNL     1     -15.916 -43.190  24.098  1.00  0.00     0.017 A 
ATOM     10  C   UNL     1     -18.249 -41.749  23.553  1.00  0.00     0.123 A 
ATOM     11  C   UNL     1     -18.176 -42.528  24.702  1.00  0.00     0.040 A 
ATOM     12  C   UNL     1     -17.180 -41.680  22.670  1.00  0.00     0.040 A 
ATOM     13  C   UNL     1     -17.010 -43.246  24.978  1.00  0.00     0.013 A 
ATOM     14  C   UNL     1     -16.015 -42.401  22.937  1.00  0.00     0.013 A 
ATOM     15  F   UNL     1     -19.363 -41.054  23.297  1.00  0.00    -0.207 F 
ENDBRANCH   8   9
ENDBRANCH   3   8
ENDBRANCH   1   2
BRANCH   1  16
ATOM     16  C   UNL     1     -13.734 -43.613  30.863  1.00  0.00     0.120 C 
BRANCH  16  17
ATOM     17  N   UNL     1     -13.023 -44.274  31.943  1.00  0.00    -0.361 N 
ATOM     18  H   UNL     1     -13.525 -44.972  32.480  1.00  0.00     0.162 HD
BRANCH  17  19
ATOM     19  C   UNL     1     -11.691 -44.128  32.107  1.00  0.00     0.183 A 
ATOM     20  N   UNL     1     -10.777 -44.947  31.643  1.00  0.00    -0.220 NA
ATOM     21  S   UNL     1     -11.082 -42.768  32.964  1.00  0.00    -0.097 S 
ATOM     22  C   UNL     1      -9.517 -44.550  32.057  1.00  0.00     0.084 A 
ATOM     23  C   UNL     1      -9.478 -43.359  32.786  1.00  0.00     0.059 A 
ATOM     24  C   UNL     1      -8.310 -45.236  31.806  1.00  0.00     0.033 A 
ATOM     25  C   UNL     1      -8.274 -42.817  33.261  1.00  0.00     0.060 A 
ATOM     26  C   UNL     1      -7.105 -44.712  32.285  1.00  0.00     0.041 A 
ATOM     27  C   UNL     1      -7.101 -43.520  32.995  1.00  0.00     0.124 A 
ATOM     28  F   UNL     1      -5.936 -43.025  33.433  1.00  0.00    -0.207 F 
ENDBRANCH  17  19
ENDBRANCH  16  17
ENDBRANCH   1  16
TORSDOF 6
ENDMDL
MODEL 4
REMARK VINA RESULT:    -9.253      2.191     11.586
REMARK INTER + INTRA:         -13.104
REMARK INTER:                 -12.828
REMARK INTRA:                  -0.276
REMARK UNBOUND:                -0.605
REMARK SMILES Fc1ccc(C[n+]2ccc(CCNc3nc4ccc(F)cc4s3)cc2)cc1
REMARK SMILES IDX 11 1 10 2 7 3 8 4 25 5 9 6 24 7 6 8 5 9 2 10 3 11 27 12 4 13
REMARK SMILES IDX 26 14 1 15 12 16 13 17 14 19 15 20 23 21 16 22 22 23 17 24
REMARK SMILES IDX 21 25 18 26 19 27 20 28
REMARK H PARENT 13 18
ROOT
ATOM      1  C   UNL     1     -14.122 -43.174  25.465  1.00  0.00     0.057 C 
ENDROOT
BRANCH   1   2
ATOM      2  C   UNL     1     -15.592 -42.973  25.170  1.00  0.00    -0.034 A 
ATOM      3  N   UNL     1     -18.297 -42.733  24.605  1.00  0.00    -0.201 N 
ATOM      4  C   UNL     1     -17.891 -42.909  25.884  1.00  0.00     0.308 A 
ATOM      5  C   UNL     1     -17.394 -42.673  23.600  1.00  0.00     0.308 A 
ATOM      6  C   UNL     1     -16.540 -43.024  26.192  1.00  0.00     0.074 A 
ATOM      7  C   UNL     1     -16.034 -42.791  23.859  1.00  0.00     0.074 A 
BRANCH   3   8
ATOM      8  C   UNL     1     -19.741 -42.586  24.308  1.00  0.00     0.393 C 
BRANCH   8   9
ATOM      9  C   UNL     1     -19.965 -41.876  22.997  1.00  0.00     0.017 A 
ATOM     10  C   UNL     1     -20.349 -40.549  20.565  1.00  0.00     0.123 A 
ATOM     11  C   UNL     1     -20.517 -41.928  20.629  1.00  0.00     0.040 A 
ATOM     12  C   UNL     1     -19.988 -39.823  21.692  1.00  0.00     0.040 A 
ATOM     13  C   UNL     1     -20.330 -42.592  21.843  1.00  0.00     0.013 A 
ATOM     14  C   UNL     1     -19.793 -40.482  22.907  1.00  0.00     0.013 A 
ATOM     15  F   UNL     1     -20.540 -39.914  19.403  1.00  0.00    -0.207 F 
ENDBRANCH   8   9
ENDBRANCH   3   8
ENDBRANCH   1   2
BRANCH   1  16
ATOM     16  C   UNL     1     -13.826 -43.615  26.907  1.00  0.00     0.120 C 
BRANCH  16  17
ATOM     17  N   UNL     1     -13.007 -42.642  27.606  1.00  0.00    -0.361 N 
ATOM     18  H   UNL     1     -13.265 -41.664  27.526  1.00  0.00     0.162 HD
BRANCH  17  19
ATOM     19  C   UNL     1     -12.065 -43.018  28.496  1.00  0.00     0.183 A 
ATOM     20  N   UNL     1     -12.252 -43.857  29.488  1.00  0.00    -0.220 NA
ATOM     21  S   UNL     1     -10.466 -42.401  28.357  1.00  0.00    -0.097 S 
ATOM     22  C   UNL     1     -11.105 -43.961  30.256  1.00  0.00     0.084 A 
ATOM     23  C   UNL     1     -10.005 -43.242  29.782  1.00  0.00     0.059 A 
ATOM     24  C   UNL     1     -10.969 -44.715  31.440  1.00  0.00     0.033 A 
ATOM     25  C   UNL     1      -8.766 -43.259  30.441  1.00  0.00     0.060 A 
ATOM     26  C   UNL     1      -9.741 -44.731  32.112  1.00  0.00     0.041 A 
ATOM     27  C   UNL     1      -8.666 -44.014  31.608  1.00  0.00     0.124 A 
ATOM     28  F   UNL     1      -7.494 -44.054  32.255  1.00  0.00    -0.207 F 
ENDBRANCH  17  19
ENDBRANCH  16  17
ENDBRANCH   1  16
TORSDOF 6
ENDMDL
MODEL 5
REMARK VINA RESULT:    -9.234      2.481      3.794
REMARK INTER + INTRA:         -13.078
REMARK INTER:                 -13.061
REMARK INTRA:                  -0.017
REMARK UNBOUND:                -0.605
REMARK SMILES Fc1ccc(C[n+]2ccc(CCNc3nc4ccc(F)cc4s3)cc2)cc1
REMARK SMILES IDX 11 1 10 2 7 3 8 4 25 5 9 6 24 7 6 8 5 9 2 10 3 11 27 12 4 13
REMARK SMILES IDX 26 14 1 15 12 16 13 17 14 19 15 20 23 21 16 22 22 23 17 24
REMARK SMILES IDX 21 25 18 26 19 27 20 28
REMARK H PARENT 13 18
ROOT
ATOM      1  C   UNL     1     -15.647 -42.510  31.678  1.00  0.00     0.057 C 
ENDROOT
BRANCH   1   2
ATOM      2  C   UNL     1     -14.224 -42.419  32.183  1.00  0.00    -0.034 A 
ATOM      3  N   UNL     1     -11.615 -42.383  33.122  1.00  0.00    -0.201 N 
ATOM      4  C   UNL     1     -11.849 -42.395  31.789  1.00  0.00     0.308 A 
ATOM      5  C   UNL     1     -12.643 -42.388  34.000  1.00  0.00     0.308 A 
ATOM      6  C   UNL     1     -13.149 -42.405  31.296  1.00  0.00     0.074 A 
ATOM      7  C   UNL     1     -13.959 -42.407  33.553  1.00  0.00     0.074 A 
BRANCH   3   8
ATOM      8  C   UNL     1     -10.220 -42.345  33.621  1.00  0.00     0.393 C 
BRANCH   8   9
ATOM      9  C   UNL     1      -9.354 -43.358  32.916  1.00  0.00     0.017 A 
ATOM     10  C   UNL     1      -7.732 -45.244  31.639  1.00  0.00     0.123 A 
ATOM     11  C   UNL     1      -9.112 -45.411  31.636  1.00  0.00     0.040 A 
ATOM     12  C   UNL     1      -7.148 -44.155  32.271  1.00  0.00     0.040 A 
ATOM     13  C   UNL     1      -9.924 -44.468  32.270  1.00  0.00     0.013 A 
ATOM     14  C   UNL     1      -7.954 -43.213  32.912  1.00  0.00     0.013 A 
ATOM     15  F   UNL     1      -6.957 -46.142  31.021  1.00  0.00    -0.207 F 
ENDBRANCH   8   9
ENDBRANCH   3   8
ENDBRANCH   1   2
BRANCH   1  16
ATOM     16  C   UNL     1     -15.861 -43.581  30.596  1.00  0.00     0.120 C 
BRANCH  16  17
ATOM     17  N   UNL     1     -16.835 -43.156  29.608  1.00  0.00    -0.361 N 
ATOM     18  H   UNL     1     -17.670 -42.686  29.941  1.00  0.00     0.162 HD
BRANCH  17  19
ATOM     19  C   UNL     1     -16.564 -43.190  28.286  1.00  0.00     0.183 A 
ATOM     20  N   UNL     1     -15.409 -43.520  27.758  1.00  0.00    -0.220 NA
ATOM     21  S   UNL     1     -17.798 -42.804  27.153  1.00  0.00    -0.097 S 
ATOM     22  C   UNL     1     -15.447 -43.374  26.382  1.00  0.00     0.084 A 
ATOM     23  C   UNL     1     -16.686 -43.000  25.858  1.00  0.00     0.059 A 
ATOM     24  C   UNL     1     -14.364 -43.569  25.500  1.00  0.00     0.033 A 
ATOM     25  C   UNL     1     -16.889 -42.828  24.480  1.00  0.00     0.060 A 
ATOM     26  C   UNL     1     -14.551 -43.390  24.125  1.00  0.00     0.041 A 
ATOM     27  C   UNL     1     -15.798 -43.029  23.637  1.00  0.00     0.124 A 
ATOM     28  F   UNL     1     -15.963 -42.877  22.316  1.00  0.00    -0.207 F 
ENDBRANCH  17  19
ENDBRANCH  16  17
ENDBRANCH   1  16
TORSDOF 6
ENDMDL
MODEL 6
REMARK VINA RESULT:    -9.212      2.923      4.138
REMARK INTER + INTRA:         -13.048
REMARK INTER:                 -12.992
REMARK INTRA:                  -0.056
REMARK UNBOUND:                -0.605
REMARK SMILES Fc1ccc(C[n+]2ccc(CCNc3nc4ccc(F)cc4s3)cc2)cc1
REMARK SMILES IDX 11 1 10 2 7 3 8 4 25 5 9 6 24 7 6 8 5 9 2 10 3 11 27 12 4 13
REMARK SMILES IDX 26 14 1 15 12 16 13 17 14 19 15 20 23 21 16 22 22 23 17 24
REMARK SMILES IDX 21 25 18 26 19 27 20 28
REMARK H PARENT 13 18
ROOT
ATOM      1  C   UNL     1     -15.602 -41.981  32.222  1.00  0.00     0.057 C 
ENDROOT
BRANCH   1   2
ATOM      2  C   UNL     1     -14.356 -42.830  32.099  1.00  0.00    -0.034 A 
ATOM      3  N   UNL     1     -12.125 -44.443  31.769  1.00  0.00    -0.201 N 
ATOM      4  C   UNL     1     -12.138 -43.199  31.237  1.00  0.00     0.308 A 
ATOM      5  C   UNL     1     -13.191 -44.906  32.461  1.00  0.00     0.308 A 
ATOM      6  C   UNL     1     -13.243 -42.370  31.398  1.00  0.00     0.074 A 
ATOM      7  C   UNL     1     -14.320 -44.116  32.638  1.00  0.00     0.074 A 
BRANCH   3   8
ATOM      8  C   UNL     1     -10.924 -45.297  31.607  1.00  0.00     0.393 C 
BRANCH   8   9
ATOM      9  C   UNL     1      -9.679 -44.593  32.085  1.00  0.00     0.017 A 
ATOM     10  C   UNL     1      -7.361 -43.283  32.939  1.00  0.00     0.123 A 
ATOM     11  C   UNL     1      -8.605 -42.784  33.304  1.00  0.00     0.040 A 
ATOM     12  C   UNL     1      -7.253 -44.422  32.151  1.00  0.00     0.040 A 
ATOM     13  C   UNL     1      -9.765 -43.439  32.882  1.00  0.00     0.013 A 
ATOM     14  C   UNL     1      -8.408 -45.077  31.721  1.00  0.00     0.013 A 
ATOM     15  F   UNL     1      -6.252 -42.660  33.353  1.00  0.00    -0.207 F 
ENDBRANCH   8   9
ENDBRANCH   3   8
ENDBRANCH   1   2
BRANCH   1  16
ATOM     16  C   UNL     1     -16.556 -42.090  31.022  1.00  0.00     0.120 C 
BRANCH  16  17
ATOM     17  N   UNL     1     -16.384 -43.346  30.315  1.00  0.00    -0.361 N 
ATOM     18  H   UNL     1     -16.657 -44.197  30.794  1.00  0.00     0.162 HD
BRANCH  17  19
ATOM     19  C   UNL     1     -16.073 -43.383  29.003  1.00  0.00     0.183 A 
ATOM     20  N   UNL     1     -16.804 -42.880  28.036  1.00  0.00    -0.220 NA
ATOM     21  S   UNL     1     -14.601 -44.113  28.496  1.00  0.00    -0.097 S 
ATOM     22  C   UNL     1     -16.236 -43.160  26.805  1.00  0.00     0.084 A 
ATOM     23  C   UNL     1     -15.007 -43.822  26.853  1.00  0.00     0.059 A 
ATOM     24  C   UNL     1     -16.788 -42.836  25.547  1.00  0.00     0.033 A 
ATOM     25  C   UNL     1     -14.299 -44.160  25.690  1.00  0.00     0.060 A 
ATOM     26  C   UNL     1     -16.096 -43.179  24.380  1.00  0.00     0.041 A 
ATOM     27  C   UNL     1     -14.872 -43.826  24.464  1.00  0.00     0.124 A 
ATOM     28  F   UNL     1     -14.217 -44.132  23.337  1.00  0.00    -0.207 F 
ENDBRANCH  17  19
ENDBRANCH  16  17
ENDBRANCH   1  16
TORSDOF 6
ENDMDL
MODEL 7
REMARK VINA RESULT:    -8.885      3.259     11.259
REMARK INTER + INTRA:         -12.607
REMARK INTER:                 -12.212
REMARK INTRA:                  -0.395
REMARK UNBOUND:                -0.605
REMARK SMILES Fc1ccc(C[n+]2ccc(CCNc3nc4ccc(F)cc4s3)cc2)cc1
REMARK SMILES IDX 11 1 10 2 7 3 8 4 25 5 9 6 24 7 6 8 5 9 2 10 3 11 27 12 4 13
REMARK SMILES IDX 26 14 1 15 12 16 13 17 14 19 15 20 23 21 16 22 22 23 17 24
REMARK SMILES IDX 21 25 18 26 19 27 20 28
REMARK H PARENT 13 18
ROOT
ATOM      1  C   UNL     1     -14.640 -42.825  25.543  1.00  0.00     0.057 C 
ENDROOT
BRANCH   1   2
ATOM      2  C   UNL     1     -16.068 -42.776  25.047  1.00  0.00    -0.034 A 
ATOM      3  N   UNL     1     -18.691 -42.559  24.172  1.00  0.00    -0.201 N 
ATOM      4  C   UNL     1     -17.675 -42.395  23.294  1.00  0.00     0.308 A 
ATOM      5  C   UNL     1     -18.438 -42.827  25.473  1.00  0.00     0.308 A 
ATOM      6  C   UNL     1     -16.353 -42.508  23.709  1.00  0.00     0.074 A 
ATOM      7  C   UNL     1     -17.133 -42.940  25.934  1.00  0.00     0.074 A 
BRANCH   3   8
ATOM      8  C   UNL     1     -20.092 -42.461  23.699  1.00  0.00     0.393 C 
BRANCH   8   9
ATOM      9  C   UNL     1     -20.217 -41.506  22.538  1.00  0.00     0.017 A 
ATOM     10  C   UNL     1     -20.417 -39.725  20.392  1.00  0.00     0.123 A 
ATOM     11  C   UNL     1     -20.534 -41.091  20.164  1.00  0.00     0.040 A 
ATOM     12  C   UNL     1     -20.198 -39.233  21.672  1.00  0.00     0.040 A 
ATOM     13  C   UNL     1     -20.438 -41.983  21.234  1.00  0.00     0.013 A 
ATOM     14  C   UNL     1     -20.095 -40.119  22.745  1.00  0.00     0.013 A 
ATOM     15  F   UNL     1     -20.521 -38.873  19.366  1.00  0.00    -0.207 F 
ENDBRANCH   8   9
ENDBRANCH   3   8
ENDBRANCH   1   2
BRANCH   1  16
ATOM     16  C   UNL     1     -14.301 -44.085  26.355  1.00  0.00     0.120 C 
BRANCH  16  17
ATOM     17  N   UNL     1     -13.111 -43.896  27.164  1.00  0.00    -0.361 N 
ATOM     18  H   UNL     1     -12.226 -43.785  26.681  1.00  0.00     0.162 HD
BRANCH  17  19
ATOM     19  C   UNL     1     -13.186 -43.669  28.492  1.00  0.00     0.183 A 
ATOM     20  N   UNL     1     -14.241 -43.893  29.240  1.00  0.00    -0.220 NA
ATOM     21  S   UNL     1     -11.815 -43.061  29.332  1.00  0.00    -0.097 S 
ATOM     22  C   UNL     1     -14.009 -43.478  30.539  1.00  0.00     0.084 A 
ATOM     23  C   UNL     1     -12.721 -43.002  30.791  1.00  0.00     0.059 A 
ATOM     24  C   UNL     1     -14.947 -43.499  31.594  1.00  0.00     0.033 A 
ATOM     25  C   UNL     1     -12.326 -42.559  32.063  1.00  0.00     0.060 A 
ATOM     26  C   UNL     1     -14.568 -43.050  32.864  1.00  0.00     0.041 A 
ATOM     27  C   UNL     1     -13.276 -42.594  33.082  1.00  0.00     0.124 A 
ATOM     28  F   UNL     1     -12.928 -42.183  34.308  1.00  0.00    -0.207 F 
ENDBRANCH  17  19
ENDBRANCH  16  17
ENDBRANCH   1  16
TORSDOF 6
ENDMDL
MODEL 8
REMARK VINA RESULT:    -8.884      2.313     11.509
REMARK INTER + INTRA:         -12.605
REMARK INTER:                 -12.063
REMARK INTRA:                  -0.542
REMARK UNBOUND:                -0.605
REMARK SMILES Fc1ccc(C[n+]2ccc(CCNc3nc4ccc(F)cc4s3)cc2)cc1
REMARK SMILES IDX 11 1 10 2 7 3 8 4 25 5 9 6 24 7 6 8 5 9 2 10 3 11 27 12 4 13
REMARK SMILES IDX 26 14 1 15 12 16 13 17 14 19 15 20 23 21 16 22 22 23 17 24
REMARK SMILES IDX 21 25 18 26 19 27 20 28
REMARK H PARENT 13 18
ROOT
ATOM      1  C   UNL     1     -13.718 -42.616  26.676  1.00  0.00     0.057 C 
ENDROOT
BRANCH   1   2
ATOM      2  C   UNL     1     -14.886 -42.810  25.735  1.00  0.00    -0.034 A 
ATOM      3  N   UNL     1     -17.048 -43.036  24.013  1.00  0.00    -0.201 N 
ATOM      4  C   UNL     1     -15.795 -42.941  23.510  1.00  0.00     0.308 A 
ATOM      5  C   UNL     1     -17.254 -43.022  25.349  1.00  0.00     0.308 A 
ATOM      6  C   UNL     1     -14.696 -42.835  24.354  1.00  0.00     0.074 A 
ATOM      7  C   UNL     1     -16.187 -42.909  26.231  1.00  0.00     0.074 A 
BRANCH   3   8
ATOM      8  C   UNL     1     -18.199 -43.176  23.091  1.00  0.00     0.393 C 
BRANCH   8   9
ATOM      9  C   UNL     1     -18.829 -41.839  22.787  1.00  0.00     0.017 A 
ATOM     10  C   UNL     1     -20.000 -39.371  22.193  1.00  0.00     0.123 A 
ATOM     11  C   UNL     1     -20.617 -40.222  23.103  1.00  0.00     0.040 A 
ATOM     12  C   UNL     1     -18.812 -39.733  21.572  1.00  0.00     0.040 A 
ATOM     13  C   UNL     1     -20.032 -41.454  23.404  1.00  0.00     0.013 A 
ATOM     14  C   UNL     1     -18.226 -40.965  21.864  1.00  0.00     0.013 A 
ATOM     15  F   UNL     1     -20.557 -38.187  21.914  1.00  0.00    -0.207 F 
ENDBRANCH   8   9
ENDBRANCH   3   8
ENDBRANCH   1   2
BRANCH   1  16
ATOM     16  C   UNL     1     -13.394 -43.847  27.536  1.00  0.00     0.120 C 
BRANCH  16  17
ATOM     17  N   UNL     1     -13.292 -43.505  28.943  1.00  0.00    -0.361 N 
ATOM     18  H   UNL     1     -14.150 -43.474  29.484  1.00  0.00     0.162 HD
BRANCH  17  19
ATOM     19  C   UNL     1     -12.099 -43.431  29.570  1.00  0.00     0.183 A 
ATOM     20  N   UNL     1     -10.948 -43.203  28.982  1.00  0.00    -0.220 NA
ATOM     21  S   UNL     1     -12.019 -43.620  31.277  1.00  0.00    -0.097 S 
ATOM     22  C   UNL     1      -9.915 -43.271  29.900  1.00  0.00     0.084 A 
ATOM     23  C   UNL     1     -10.308 -43.479  31.224  1.00  0.00     0.059 A 
ATOM     24  C   UNL     1      -8.540 -43.149  29.608  1.00  0.00     0.033 A 
ATOM     25  C   UNL     1      -9.378 -43.555  32.273  1.00  0.00     0.060 A 
ATOM     26  C   UNL     1      -7.603 -43.235  30.643  1.00  0.00     0.041 A 
ATOM     27  C   UNL     1      -8.029 -43.430  31.949  1.00  0.00     0.124 A 
ATOM     28  F   UNL     1      -7.118 -43.494  32.929  1.00  0.00    -0.207 F 
ENDBRANCH  17  19
ENDBRANCH  16  17
ENDBRANCH   1  16
TORSDOF 6
ENDMDL
MODEL 9
REMARK VINA RESULT:    -8.829      4.193      8.575
REMARK INTER + INTRA:         -12.531
REMARK INTER:                 -11.917
REMARK INTRA:                  -0.614
REMARK UNBOUND:                -0.605
REMARK SMILES Fc1ccc(C[n+]2ccc(CCNc3nc4ccc(F)cc4s3)cc2)cc1
REMARK SMILES IDX 11 1 10 2 7 3 8 4 25 5 9 6 24 7 6 8 5 9 2 10 3 11 27 12 4 13
REMARK SMILES IDX 26 14 1 15 12 16 13 17 14 19 15 20 23 21 16 22 22 23 17 24
REMARK SMILES IDX 21 25 18 26 19 27 20 28
REMARK H PARENT 13 18
ROOT
ATOM      1  C   UNL     1     -13.653 -42.501  34.186  1.00  0.00     0.057 C 
ENDROOT
BRANCH   1   2
ATOM      2  C   UNL     1     -14.520 -42.792  32.981  1.00  0.00    -0.034 A 
ATOM      3  N   UNL     1     -16.019 -43.269  30.698  1.00  0.00    -0.201 N 
ATOM      4  C   UNL     1     -15.173 -44.220  31.155  1.00  0.00     0.308 A 
ATOM      5  C   UNL     1     -16.141 -42.088  31.345  1.00  0.00     0.308 A 
ATOM      6  C   UNL     1     -14.417 -44.006  32.303  1.00  0.00     0.074 A 
ATOM      7  C   UNL     1     -15.399 -41.826  32.491  1.00  0.00     0.074 A 
BRANCH   3   8
ATOM      8  C   UNL     1     -16.834 -43.533  29.488  1.00  0.00     0.393 C 
BRANCH   8   9
ATOM      9  C   UNL     1     -15.994 -43.487  28.236  1.00  0.00     0.017 A 
ATOM     10  C   UNL     1     -14.438 -43.435  25.914  1.00  0.00     0.123 A 
ATOM     11  C   UNL     1     -15.683 -42.817  25.920  1.00  0.00     0.040 A 
ATOM     12  C   UNL     1     -13.958 -44.081  27.045  1.00  0.00     0.040 A 
ATOM     13  C   UNL     1     -16.461 -42.839  27.080  1.00  0.00     0.013 A 
ATOM     14  C   UNL     1     -14.733 -44.111  28.205  1.00  0.00     0.013 A 
ATOM     15  F   UNL     1     -13.691 -43.404  24.805  1.00  0.00    -0.207 F 
ENDBRANCH   8   9
ENDBRANCH   3   8
ENDBRANCH   1   2
BRANCH   1  16
ATOM     16  C   UNL     1     -12.226 -42.050  33.837  1.00  0.00     0.120 C 
BRANCH  16  17
ATOM     17  N   UNL     1     -11.505 -43.076  33.105  1.00  0.00    -0.361 N 
ATOM     18  H   UNL     1     -11.513 -44.017  33.483  1.00  0.00     0.162 HD
BRANCH  17  19
ATOM     19  C   UNL     1     -11.013 -42.851  31.869  1.00  0.00     0.183 A 
ATOM     20  N   UNL     1     -11.682 -42.318  30.873  1.00  0.00    -0.220 NA
ATOM     21  S   UNL     1      -9.379 -43.251  31.516  1.00  0.00    -0.097 S 
ATOM     22  C   UNL     1     -10.909 -42.303  29.725  1.00  0.00     0.084 A 
ATOM     23  C   UNL     1      -9.600 -42.764  29.883  1.00  0.00     0.059 A 
ATOM     24  C   UNL     1     -11.331 -41.869  28.451  1.00  0.00     0.033 A 
ATOM     25  C   UNL     1      -8.689 -42.795  28.816  1.00  0.00     0.060 A 
ATOM     26  C   UNL     1     -10.435 -41.906  27.377  1.00  0.00     0.041 A 
ATOM     27  C   UNL     1      -9.138 -42.359  27.571  1.00  0.00     0.124 A 
ATOM     28  F   UNL     1      -8.289 -42.373  26.535  1.00  0.00    -0.207 F 
ENDBRANCH  17  19
ENDBRANCH  16  17
ENDBRANCH   1  16
TORSDOF 6
ENDMDL
