MODEL 1
REMARK minimizedAffinity -11.0906782
REMARK CNNscore 0.678704381
REMARK CNNaffinity 8.65218735
REMARK SMILES O=C(Nc1ccc(-c2cc3c(Nc4ccc(Oc5cccc(C(F)(F)F)c5)c(Cl)c4)ncnc3s2)cc1)NC1CC1
REMARK SMILES IDX 13 1 14 2 15 3 16 4 28 5 29 6 30 7 12 8 11 10 8 11 9 12
REMARK SMILES IDX 35 13 10 14 34 15 33 16 31 17 32 18 7 19 4 20 5 21 37 22
REMARK SMILES IDX 6 23 36 24 3 25 1 26 2 27 38 28 39 31 40 32 41 33 17 34
REMARK SMILES IDX 18 35 19 36 27 37 20 38 22 39 21 40 23 41 24 42 25 43 26 44
REMARK H PARENT 12 9 3 29 38 30
ROOT
ATOM      1  C   UNL     1      19.500  36.207  17.747  1.00  0.00     0.041 A 
ATOM      2  C   UNL     1      19.948  36.713  16.524  1.00  0.00     0.030 A 
ATOM      3  C   UNL     1      21.199  36.362  16.002  1.00  0.00     0.051 A 
ATOM      4  C   UNL     1      22.041  35.508  16.717  1.00  0.00     0.146 A 
ATOM      5  C   UNL     1      21.607  34.982  17.934  1.00  0.00     0.085 A 
ATOM      6  Cl  UNL     1      22.596  33.904  18.851  1.00  0.00    -0.080 Cl
ATOM      7  C   UNL     1      20.354  35.336  18.446  1.00  0.00     0.050 A 
ENDROOT
BRANCH   1   8
ATOM      8  N   UNL     1      18.261  36.537  18.325  1.00  0.00    -0.340 N 
ATOM      9  H   UNL     1      18.327  37.140  19.133  1.00  0.00     0.168 HD
BRANCH   8  10
ATOM     10  C   UNL     1      16.942  36.181  18.000  1.00  0.00     0.142 A 
ATOM     11  C   UNL     1      16.722  34.427  14.693  1.00  0.00     0.037 A 
ATOM     12  C   UNL     1      17.450  35.060  15.686  1.00  0.00     0.034 A 
ATOM     13  S   UNL     1      15.058  34.375  15.102  1.00  0.00    -0.115 S 
ATOM     14  C   UNL     1      16.645  35.503  16.794  1.00  0.00     0.055 A 
ATOM     15  C   UNL     1      15.317  35.179  16.579  1.00  0.00     0.129 A 
ATOM     16  N   UNL     1      14.286  35.438  17.398  1.00  0.00    -0.225 NA
ATOM     17  N   UNL     1      15.913  36.452  18.838  1.00  0.00    -0.219 NA
ATOM     18  C   UNL     1      14.670  36.075  18.504  1.00  0.00     0.225 A 
BRANCH  11  19
ATOM     19  C   UNL     1      17.198  33.878  13.416  1.00  0.00    -0.008 A 
ATOM     20  C   UNL     1      18.140  32.776  10.980  1.00  0.00     0.042 A 
ATOM     21  C   UNL     1      18.661  32.349  12.200  1.00  0.00     0.027 A 
ATOM     22  C   UNL     1      17.143  33.758  10.984  1.00  0.00     0.027 A 
ATOM     23  C   UNL     1      18.194  32.893  13.405  1.00  0.00     0.012 A 
ATOM     24  C   UNL     1      16.674  34.300  12.187  1.00  0.00     0.012 A 
BRANCH  20  25
ATOM     25  N   UNL     1      18.561  32.288   9.727  1.00  0.00    -0.308 N 
ATOM     26  O   UNL     1      16.572  31.535   8.779  1.00  0.00    -0.248 OA
ATOM     27  C   UNL     1      17.785  31.697   8.748  1.00  0.00     0.319 C 
ATOM     28  N   UNL     1      18.561  31.288   7.675  1.00  0.00    -0.335 N 
ATOM     29  H   UNL     1      19.535  32.413   9.506  1.00  0.00     0.171 HD
ATOM     30  H   UNL     1      19.564  31.361   7.734  1.00  0.00     0.165 HD
BRANCH  28  31
ATOM     31  C   UNL     1      17.995  30.678   6.514  1.00  0.00     0.084 C 
ATOM     32  C   UNL     1      18.810  29.734   5.675  1.00  0.00     0.027 C 
ATOM     33  C   UNL     1      17.672  29.208   6.499  1.00  0.00     0.027 C 
ENDBRANCH  28  31
ENDBRANCH  20  25
ENDBRANCH  11  19
ENDBRANCH   8  10
ENDBRANCH   1   8
BRANCH   4  34
ATOM     34  O   UNL     1      23.257  35.112  16.208  1.00  0.00    -0.456 OA
BRANCH  34  35
ATOM     35  C   UNL     1      23.342  34.946  14.844  1.00  0.00     0.128 A 
ATOM     36  C   UNL     1      23.341  33.636  14.366  1.00  0.00     0.047 A 
ATOM     37  C   UNL     1      23.495  36.019  13.961  1.00  0.00     0.060 A 
ATOM     38  C   UNL     1      23.452  33.395  12.998  1.00  0.00     0.004 A 
ATOM     39  C   UNL     1      23.617  35.786  12.582  1.00  0.00     0.059 A 
ATOM     40  C   UNL     1      23.581  34.464  12.109  1.00  0.00     0.013 A 
BRANCH  39  41
ATOM     41  C   UNL     1      23.753  36.945  11.624  1.00  0.00     0.416 C 
ATOM     42  F   UNL     1      23.455  38.137  12.209  1.00  0.00    -0.166 F 
ATOM     43  F   UNL     1      22.932  36.844  10.541  1.00  0.00    -0.166 F 
ATOM     44  F   UNL     1      25.012  37.077  11.124  1.00  0.00    -0.166 F 
ENDBRANCH  39  41
ENDBRANCH  34  35
ENDBRANCH   4  34
TORSDOF 8
ENDMDL
MODEL 2
REMARK minimizedAffinity -10.6463451
REMARK CNNscore 0.476122618
REMARK CNNaffinity 8.2631979
REMARK SMILES O=C(Nc1ccc(-c2cc3c(Nc4ccc(Oc5cccc(C(F)(F)F)c5)c(Cl)c4)ncnc3s2)cc1)NC1CC1
REMARK SMILES IDX 13 1 14 2 15 3 16 4 28 5 29 6 30 7 12 8 11 10 8 11 9 12
REMARK SMILES IDX 35 13 10 14 34 15 33 16 31 17 32 18 7 19 4 20 5 21 37 22
REMARK SMILES IDX 6 23 36 24 3 25 1 26 2 27 38 28 39 31 40 32 41 33 17 34
REMARK SMILES IDX 18 35 19 36 27 37 20 38 22 39 21 40 23 41 24 42 25 43 26 44
REMARK H PARENT 12 9 3 29 38 30
ROOT
ATOM      1  C   UNL     1      16.300  33.893  14.341  1.00  0.00     0.041 A 
ATOM      2  C   UNL     1      15.676  34.239  13.138  1.00  0.00     0.030 A 
ATOM      3  C   UNL     1      16.354  34.160  11.915  1.00  0.00     0.051 A 
ATOM      4  C   UNL     1      17.688  33.752  11.880  1.00  0.00     0.146 A 
ATOM      5  C   UNL     1      18.324  33.390  13.067  1.00  0.00     0.085 A 
ATOM      6  Cl  UNL     1      19.966  32.857  13.080  1.00  0.00    -0.080 Cl
ATOM      7  C   UNL     1      17.638  33.469  14.284  1.00  0.00     0.050 A 
ENDROOT
BRANCH   1   8
ATOM      8  N   UNL     1      15.673  33.967  15.597  1.00  0.00    -0.340 N 
ATOM      9  H   UNL     1      14.963  33.265  15.750  1.00  0.00     0.168 HD
BRANCH   8  10
ATOM     10  C   UNL     1      15.837  34.841  16.685  1.00  0.00     0.142 A 
ATOM     11  C   UNL     1      19.324  36.204  16.894  1.00  0.00     0.037 A 
ATOM     12  C   UNL     1      18.365  35.406  16.291  1.00  0.00     0.034 A 
ATOM     13  S   UNL     1      18.665  37.026  18.246  1.00  0.00    -0.115 S 
ATOM     14  C   UNL     1      17.080  35.469  16.936  1.00  0.00     0.055 A 
ATOM     15  C   UNL     1      17.130  36.328  18.020  1.00  0.00     0.129 A 
ATOM     16  N   UNL     1      16.121  36.628  18.852  1.00  0.00    -0.225 NA
ATOM     17  N   UNL     1      14.807  35.132  17.515  1.00  0.00    -0.219 NA
ATOM     18  C   UNL     1      14.997  35.989  18.530  1.00  0.00     0.225 A 
BRANCH  11  19
ATOM     19  C   UNL     1      20.739  36.368  16.533  1.00  0.00    -0.008 A 
ATOM     20  C   UNL     1      23.453  36.694  15.785  1.00  0.00     0.042 A 
ATOM     21  C   UNL     1      22.465  36.531  14.816  1.00  0.00     0.027 A 
ATOM     22  C   UNL     1      23.076  36.693  17.133  1.00  0.00     0.027 A 
ATOM     23  C   UNL     1      21.123  36.371  15.186  1.00  0.00     0.012 A 
ATOM     24  C   UNL     1      21.735  36.536  17.503  1.00  0.00     0.012 A 
BRANCH  20  25
ATOM     25  N   UNL     1      24.824  36.851  15.498  1.00  0.00    -0.308 N 
ATOM     26  O   UNL     1      25.668  34.710  15.848  1.00  0.00    -0.248 OA
ATOM     27  C   UNL     1      25.816  35.892  15.567  1.00  0.00     0.319 C 
ATOM     28  N   UNL     1      27.056  36.433  15.268  1.00  0.00    -0.335 N 
ATOM     29  H   UNL     1      25.108  37.761  15.174  1.00  0.00     0.171 HD
ATOM     30  H   UNL     1      27.142  37.428  15.131  1.00  0.00     0.165 HD
BRANCH  28  31
ATOM     31  C   UNL     1      28.245  35.642  15.237  1.00  0.00     0.084 C 
ATOM     32  C   UNL     1      28.713  35.019  13.951  1.00  0.00     0.027 C 
ATOM     33  C   UNL     1      29.488  36.149  14.559  1.00  0.00     0.027 C 
ENDBRANCH  28  31
ENDBRANCH  20  25
ENDBRANCH  11  19
ENDBRANCH   8  10
ENDBRANCH   1   8
BRANCH   4  34
ATOM     34  O   UNL     1      18.364  33.624  10.687  1.00  0.00    -0.456 OA
BRANCH  34  35
ATOM     35  C   UNL     1      17.615  33.336   9.569  1.00  0.00     0.128 A 
ATOM     36  C   UNL     1      16.685  34.294   9.168  1.00  0.00     0.047 A 
ATOM     37  C   UNL     1      17.712  32.118   8.889  1.00  0.00     0.060 A 
ATOM     38  C   UNL     1      15.874  34.055   8.060  1.00  0.00     0.004 A 
ATOM     39  C   UNL     1      16.893  31.864   7.777  1.00  0.00     0.059 A 
ATOM     40  C   UNL     1      15.983  32.850   7.363  1.00  0.00     0.013 A 
BRANCH  39  41
ATOM     41  C   UNL     1      17.016  30.562   7.024  1.00  0.00     0.416 C 
ATOM     42  F   UNL     1      16.191  30.511   5.942  1.00  0.00    -0.166 F 
ATOM     43  F   UNL     1      16.706  29.473   7.782  1.00  0.00    -0.166 F 
ATOM     44  F   UNL     1      18.272  30.338   6.549  1.00  0.00    -0.166 F 
ENDBRANCH  39  41
ENDBRANCH  34  35
ENDBRANCH   4  34
TORSDOF 8
ENDMDL
MODEL 3
REMARK minimizedAffinity -9.50915337
REMARK CNNscore 0.416971445
REMARK CNNaffinity 8.10992718
REMARK SMILES O=C(Nc1ccc(-c2cc3c(Nc4ccc(Oc5cccc(C(F)(F)F)c5)c(Cl)c4)ncnc3s2)cc1)NC1CC1
REMARK SMILES IDX 13 1 14 2 15 3 16 4 28 5 29 6 30 7 12 8 11 10 8 11 9 12
REMARK SMILES IDX 35 13 10 14 34 15 33 16 31 17 32 18 7 19 4 20 5 21 37 22
REMARK SMILES IDX 6 23 36 24 3 25 1 26 2 27 38 28 39 31 40 32 41 33 17 34
REMARK SMILES IDX 18 35 19 36 27 37 20 38 22 39 21 40 23 41 24 42 25 43 26 44
REMARK H PARENT 12 9 3 29 38 30
ROOT
ATOM      1  C   UNL     1      18.146  33.576  12.629  1.00  0.00     0.041 A 
ATOM      2  C   UNL     1      18.800  32.865  11.618  1.00  0.00     0.030 A 
ATOM      3  C   UNL     1      20.115  32.411  11.779  1.00  0.00     0.051 A 
ATOM      4  C   UNL     1      20.811  32.685  12.957  1.00  0.00     0.146 A 
ATOM      5  C   UNL     1      20.172  33.381  13.983  1.00  0.00     0.085 A 
ATOM      6  Cl  UNL     1      20.976  33.729  15.471  1.00  0.00    -0.080 Cl
ATOM      7  C   UNL     1      18.856  33.828  13.815  1.00  0.00     0.050 A 
ENDROOT
BRANCH   1   8
ATOM      8  N   UNL     1      16.834  34.068  12.516  1.00  0.00    -0.340 N 
ATOM      9  H   UNL     1      16.648  34.561  11.654  1.00  0.00     0.168 HD
BRANCH   8  10
ATOM     10  C   UNL     1      15.727  34.016  13.379  1.00  0.00     0.142 A 
ATOM     11  C   UNL     1      16.592  35.110  16.860  1.00  0.00     0.037 A 
ATOM     12  C   UNL     1      16.943  34.852  15.545  1.00  0.00     0.034 A 
ATOM     13  S   UNL     1      14.927  34.795  17.116  1.00  0.00    -0.115 S 
ATOM     14  C   UNL     1      15.843  34.397  14.738  1.00  0.00     0.055 A 
ATOM     15  C   UNL     1      14.688  34.328  15.498  1.00  0.00     0.129 A 
ATOM     16  N   UNL     1      13.473  33.944  15.077  1.00  0.00    -0.225 NA
ATOM     17  N   UNL     1      14.508  33.625  12.938  1.00  0.00    -0.219 NA
ATOM     18  C   UNL     1      13.469  33.610  13.787  1.00  0.00     0.225 A 
BRANCH  11  19
ATOM     19  C   UNL     1      17.451  35.556  17.966  1.00  0.00    -0.008 A 
ATOM     20  C   UNL     1      19.068  36.451  20.115  1.00  0.00     0.042 A 
ATOM     21  C   UNL     1      17.972  37.201  19.692  1.00  0.00     0.027 A 
ATOM     22  C   UNL     1      19.351  35.249  19.458  1.00  0.00     0.027 A 
ATOM     23  C   UNL     1      17.172  36.758  18.630  1.00  0.00     0.012 A 
ATOM     24  C   UNL     1      18.551  34.804  18.399  1.00  0.00     0.012 A 
BRANCH  20  25
ATOM     25  N   UNL     1      19.926  36.831  21.167  1.00  0.00    -0.308 N 
ATOM     26  O   UNL     1      21.536  38.110  20.075  1.00  0.00    -0.248 OA
ATOM     27  C   UNL     1      21.078  37.588  21.084  1.00  0.00     0.319 C 
ATOM     28  N   UNL     1      21.691  37.704  22.321  1.00  0.00    -0.335 N 
ATOM     29  H   UNL     1      19.650  36.543  22.091  1.00  0.00     0.171 HD
ATOM     30  H   UNL     1      21.326  37.184  23.104  1.00  0.00     0.165 HD
BRANCH  28  31
ATOM     31  C   UNL     1      22.883  38.467  22.513  1.00  0.00     0.084 C 
ATOM     32  C   UNL     1      24.124  37.817  23.060  1.00  0.00     0.027 C 
ATOM     33  C   UNL     1      24.080  38.258  21.626  1.00  0.00     0.027 C 
ENDBRANCH  28  31
ENDBRANCH  20  25
ENDBRANCH  11  19
ENDBRANCH   8  10
ENDBRANCH   1   8
BRANCH   4  34
ATOM     34  O   UNL     1      22.089  32.213  13.159  1.00  0.00    -0.456 OA
BRANCH  34  35
ATOM     35  C   UNL     1      23.097  33.146  13.243  1.00  0.00     0.128 A 
ATOM     36  C   UNL     1      24.163  32.850  14.091  1.00  0.00     0.047 A 
ATOM     37  C   UNL     1      23.046  34.373  12.575  1.00  0.00     0.060 A 
ATOM     38  C   UNL     1      25.204  33.763  14.244  1.00  0.00     0.004 A 
ATOM     39  C   UNL     1      24.086  35.304  12.730  1.00  0.00     0.059 A 
ATOM     40  C   UNL     1      25.171  34.980  13.561  1.00  0.00     0.013 A 
BRANCH  39  41
ATOM     41  C   UNL     1      24.048  36.618  11.988  1.00  0.00     0.416 C 
ATOM     42  F   UNL     1      24.953  37.512  12.473  1.00  0.00    -0.166 F 
ATOM     43  F   UNL     1      22.837  37.238  12.058  1.00  0.00    -0.166 F 
ATOM     44  F   UNL     1      24.323  36.488  10.661  1.00  0.00    -0.166 F 
ENDBRANCH  39  41
ENDBRANCH  34  35
ENDBRANCH   4  34
TORSDOF 8
ENDMDL
MODEL 4
REMARK minimizedAffinity -9.58856392
REMARK CNNscore 0.37452516
REMARK CNNaffinity 8.23631668
REMARK SMILES O=C(Nc1ccc(-c2cc3c(Nc4ccc(Oc5cccc(C(F)(F)F)c5)c(Cl)c4)ncnc3s2)cc1)NC1CC1
REMARK SMILES IDX 13 1 14 2 15 3 16 4 28 5 29 6 30 7 12 8 11 10 8 11 9 12
REMARK SMILES IDX 35 13 10 14 34 15 33 16 31 17 32 18 7 19 4 20 5 21 37 22
REMARK SMILES IDX 6 23 36 24 3 25 1 26 2 27 38 28 39 31 40 32 41 33 17 34
REMARK SMILES IDX 18 35 19 36 27 37 20 38 22 39 21 40 23 41 24 42 25 43 26 44
REMARK H PARENT 12 9 3 29 38 30
ROOT
ATOM      1  C   UNL     1      16.669  34.073  11.341  1.00  0.00     0.041 A 
ATOM      2  C   UNL     1      17.641  33.083  11.516  1.00  0.00     0.030 A 
ATOM      3  C   UNL     1      18.226  32.432  10.422  1.00  0.00     0.051 A 
ATOM      4  C   UNL     1      17.826  32.750   9.124  1.00  0.00     0.146 A 
ATOM      5  C   UNL     1      16.868  33.744   8.927  1.00  0.00     0.085 A 
ATOM      6  Cl  UNL     1      16.352  34.194   7.342  1.00  0.00    -0.080 Cl
ATOM      7  C   UNL     1      16.291  34.391  10.025  1.00  0.00     0.050 A 
ENDROOT
BRANCH   1   8
ATOM      8  N   UNL     1      16.038  34.747  12.401  1.00  0.00    -0.340 N 
ATOM      9  H   UNL     1      15.661  35.651  12.154  1.00  0.00     0.168 HD
BRANCH   8  10
ATOM     10  C   UNL     1      15.838  34.409  13.750  1.00  0.00     0.142 A 
ATOM     11  C   UNL     1      18.865  35.105  15.850  1.00  0.00     0.037 A 
ATOM     12  C   UNL     1      18.209  35.093  14.630  1.00  0.00     0.034 A 
ATOM     13  S   UNL     1      17.843  34.515  17.093  1.00  0.00    -0.115 S 
ATOM     14  C   UNL     1      16.859  34.602  14.710  1.00  0.00     0.055 A 
ATOM     15  C   UNL     1      16.553  34.256  16.015  1.00  0.00     0.129 A 
ATOM     16  N   UNL     1      15.388  33.762  16.461  1.00  0.00    -0.225 NA
ATOM     17  N   UNL     1      14.655  33.910  14.182  1.00  0.00    -0.219 NA
ATOM     18  C   UNL     1      14.494  33.620  15.482  1.00  0.00     0.225 A 
BRANCH  11  19
ATOM     19  C   UNL     1      20.248  35.508  16.143  1.00  0.00    -0.008 A 
ATOM     20  C   UNL     1      22.914  36.253  16.753  1.00  0.00     0.042 A 
ATOM     21  C   UNL     1      22.115  35.628  17.710  1.00  0.00     0.027 A 
ATOM     22  C   UNL     1      22.371  36.503  15.488  1.00  0.00     0.027 A 
ATOM     23  C   UNL     1      20.797  35.259  17.407  1.00  0.00     0.012 A 
ATOM     24  C   UNL     1      21.056  36.132  15.184  1.00  0.00     0.012 A 
BRANCH  20  25
ATOM     25  N   UNL     1      24.243  36.664  16.980  1.00  0.00    -0.308 N 
ATOM     26  O   UNL     1      24.025  38.130  18.775  1.00  0.00    -0.248 OA
ATOM     27  C   UNL     1      24.699  37.562  17.925  1.00  0.00     0.319 C 
ATOM     28  N   UNL     1      26.065  37.761  17.807  1.00  0.00    -0.335 N 
ATOM     29  H   UNL     1      24.946  36.228  16.405  1.00  0.00     0.171 HD
ATOM     30  H   UNL     1      26.561  37.342  17.037  1.00  0.00     0.165 HD
BRANCH  28  31
ATOM     31  C   UNL     1      26.789  38.620  18.690  1.00  0.00     0.084 C 
ATOM     32  C   UNL     1      26.344  40.039  18.908  1.00  0.00     0.027 C 
ATOM     33  C   UNL     1      26.203  39.033  20.012  1.00  0.00     0.027 C 
ENDBRANCH  28  31
ENDBRANCH  20  25
ENDBRANCH  11  19
ENDBRANCH   8  10
ENDBRANCH   1   8
BRANCH   4  34
ATOM     34  O   UNL     1      18.416  32.157   8.029  1.00  0.00    -0.456 OA
BRANCH  34  35
ATOM     35  C   UNL     1      17.813  31.026   7.528  1.00  0.00     0.128 A 
ATOM     36  C   UNL     1      18.584  30.217   6.694  1.00  0.00     0.047 A 
ATOM     37  C   UNL     1      16.472  30.715   7.769  1.00  0.00     0.060 A 
ATOM     38  C   UNL     1      18.028  29.071   6.129  1.00  0.00     0.004 A 
ATOM     39  C   UNL     1      15.900  29.568   7.197  1.00  0.00     0.059 A 
ATOM     40  C   UNL     1      16.696  28.742   6.385  1.00  0.00     0.013 A 
BRANCH  39  41
ATOM     41  C   UNL     1      14.460  29.214   7.479  1.00  0.00     0.416 C 
ATOM     42  F   UNL     1      13.993  28.243   6.646  1.00  0.00    -0.166 F 
ATOM     43  F   UNL     1      13.610  30.270   7.335  1.00  0.00    -0.166 F 
ATOM     44  F   UNL     1      14.264  28.749   8.743  1.00  0.00    -0.166 F 
ENDBRANCH  39  41
ENDBRANCH  34  35
ENDBRANCH   4  34
TORSDOF 8
ENDMDL
MODEL 5
REMARK minimizedAffinity -11.0152416
REMARK CNNscore 0.316112131
REMARK CNNaffinity 8.16763687
REMARK SMILES O=C(Nc1ccc(-c2cc3c(Nc4ccc(Oc5cccc(C(F)(F)F)c5)c(Cl)c4)ncnc3s2)cc1)NC1CC1
REMARK SMILES IDX 13 1 14 2 15 3 16 4 28 5 29 6 30 7 12 8 11 10 8 11 9 12
REMARK SMILES IDX 35 13 10 14 34 15 33 16 31 17 32 18 7 19 4 20 5 21 37 22
REMARK SMILES IDX 6 23 36 24 3 25 1 26 2 27 38 28 39 31 40 32 41 33 17 34
REMARK SMILES IDX 18 35 19 36 27 37 20 38 22 39 21 40 23 41 24 42 25 43 26 44
REMARK H PARENT 12 9 3 29 38 30
ROOT
ATOM      1  C   UNL     1      19.662  36.249  17.742  1.00  0.00     0.041 A 
ATOM      2  C   UNL     1      19.708  36.429  16.356  1.00  0.00     0.030 A 
ATOM      3  C   UNL     1      20.921  36.623  15.685  1.00  0.00     0.051 A 
ATOM      4  C   UNL     1      22.119  36.664  16.401  1.00  0.00     0.146 A 
ATOM      5  C   UNL     1      22.095  36.473  17.782  1.00  0.00     0.085 A 
ATOM      6  Cl  UNL     1      23.547  36.491  18.717  1.00  0.00    -0.080 Cl
ATOM      7  C   UNL     1      20.879  36.276  18.445  1.00  0.00     0.050 A 
ENDROOT
BRANCH   1   8
ATOM      8  N   UNL     1      18.472  36.065  18.468  1.00  0.00    -0.340 N 
ATOM      9  H   UNL     1      18.598  36.032  19.470  1.00  0.00     0.168 HD
BRANCH   8  10
ATOM     10  C   UNL     1      17.135  35.909  18.068  1.00  0.00     0.142 A 
ATOM     11  C   UNL     1      16.847  34.374  14.659  1.00  0.00     0.037 A 
ATOM     12  C   UNL     1      17.603  34.849  15.717  1.00  0.00     0.034 A 
ATOM     13  S   UNL     1      15.173  34.527  14.994  1.00  0.00    -0.115 S 
ATOM     14  C   UNL     1      16.811  35.340  16.813  1.00  0.00     0.055 A 
ATOM     15  C   UNL     1      15.463  35.211  16.524  1.00  0.00     0.129 A 
ATOM     16  N   UNL     1      14.436  35.565  17.312  1.00  0.00    -0.225 NA
ATOM     17  N   UNL     1      16.111  36.273  18.877  1.00  0.00    -0.219 NA
ATOM     18  C   UNL     1      14.847  36.087  18.469  1.00  0.00     0.225 A 
BRANCH  11  19
ATOM     19  C   UNL     1      17.308  33.831  13.373  1.00  0.00    -0.008 A 
ATOM     20  C   UNL     1      18.250  32.787  10.913  1.00  0.00     0.042 A 
ATOM     21  C   UNL     1      19.126  33.410  11.800  1.00  0.00     0.027 A 
ATOM     22  C   UNL     1      16.899  32.688  11.263  1.00  0.00     0.027 A 
ATOM     23  C   UNL     1      18.660  33.925  13.018  1.00  0.00     0.012 A 
ATOM     24  C   UNL     1      16.433  33.200  12.480  1.00  0.00     0.012 A 
BRANCH  20  25
ATOM     25  N   UNL     1      18.636  32.252   9.667  1.00  0.00    -0.308 N 
ATOM     26  O   UNL     1      16.603  31.595   8.742  1.00  0.00    -0.248 OA
ATOM     27  C   UNL     1      17.823  31.688   8.703  1.00  0.00     0.319 C 
ATOM     28  N   UNL     1      18.568  31.217   7.634  1.00  0.00    -0.335 N 
ATOM     29  H   UNL     1      19.615  32.318   9.440  1.00  0.00     0.171 HD
ATOM     30  H   UNL     1      19.575  31.234   7.687  1.00  0.00     0.165 HD
BRANCH  28  31
ATOM     31  C   UNL     1      17.962  30.617   6.488  1.00  0.00     0.084 C 
ATOM     32  C   UNL     1      18.673  29.530   5.730  1.00  0.00     0.027 C 
ATOM     33  C   UNL     1      17.453  29.203   6.539  1.00  0.00     0.027 C 
ENDBRANCH  28  31
ENDBRANCH  20  25
ENDBRANCH  11  19
ENDBRANCH   8  10
ENDBRANCH   1   8
BRANCH   4  34
ATOM     34  O   UNL     1      23.329  36.810  15.761  1.00  0.00    -0.456 OA
BRANCH  34  35
ATOM     35  C   UNL     1      23.433  36.296  14.489  1.00  0.00     0.128 A 
ATOM     36  C   UNL     1      23.428  37.211  13.436  1.00  0.00     0.047 A 
ATOM     37  C   UNL     1      23.470  34.923  14.230  1.00  0.00     0.060 A 
ATOM     38  C   UNL     1      23.503  36.757  12.121  1.00  0.00     0.004 A 
ATOM     39  C   UNL     1      23.535  34.455  12.908  1.00  0.00     0.059 A 
ATOM     40  C   UNL     1      23.564  35.387  11.857  1.00  0.00     0.013 A 
BRANCH  39  41
ATOM     41  C   UNL     1      23.605  32.974  12.627  1.00  0.00     0.416 C 
ATOM     42  F   UNL     1      24.547  32.668  11.693  1.00  0.00    -0.166 F 
ATOM     43  F   UNL     1      22.433  32.461  12.158  1.00  0.00    -0.166 F 
ATOM     44  F   UNL     1      23.917  32.237  13.729  1.00  0.00    -0.166 F 
ENDBRANCH  39  41
ENDBRANCH  34  35
ENDBRANCH   4  34
TORSDOF 8
ENDMDL
MODEL 6
REMARK minimizedAffinity -12.0101395
REMARK CNNscore 0.302692384
REMARK CNNaffinity 8.0495882
REMARK SMILES O=C(Nc1ccc(-c2cc3c(Nc4ccc(Oc5cccc(C(F)(F)F)c5)c(Cl)c4)ncnc3s2)cc1)NC1CC1
REMARK SMILES IDX 13 1 14 2 15 3 16 4 28 5 29 6 30 7 12 8 11 10 8 11 9 12
REMARK SMILES IDX 35 13 10 14 34 15 33 16 31 17 32 18 7 19 4 20 5 21 37 22
REMARK SMILES IDX 6 23 36 24 3 25 1 26 2 27 38 28 39 31 40 32 41 33 17 34
REMARK SMILES IDX 18 35 19 36 27 37 20 38 22 39 21 40 23 41 24 42 25 43 26 44
REMARK H PARENT 12 9 3 29 38 30
ROOT
ATOM      1  C   UNL     1      16.842  33.755  11.452  1.00  0.00     0.041 A 
ATOM      2  C   UNL     1      17.845  32.782  11.415  1.00  0.00     0.030 A 
ATOM      3  C   UNL     1      18.319  32.267  10.202  1.00  0.00     0.051 A 
ATOM      4  C   UNL     1      17.772  32.706   8.995  1.00  0.00     0.146 A 
ATOM      5  C   UNL     1      16.780  33.685   9.010  1.00  0.00     0.085 A 
ATOM      6  Cl  UNL     1      16.083  34.282   7.547  1.00  0.00    -0.080 Cl
ATOM      7  C   UNL     1      16.314  34.197  10.227  1.00  0.00     0.050 A 
ENDROOT
BRANCH   1   8
ATOM      8  N   UNL     1      16.318  34.295  12.641  1.00  0.00    -0.340 N 
ATOM      9  H   UNL     1      15.480  34.845  12.513  1.00  0.00     0.168 HD
BRANCH   8  10
ATOM     10  C   UNL     1      16.744  34.226  13.977  1.00  0.00     0.142 A 
ATOM     11  C   UNL     1      20.480  34.145  14.273  1.00  0.00     0.037 A 
ATOM     12  C   UNL     1      19.323  34.190  13.515  1.00  0.00     0.034 A 
ATOM     13  S   UNL     1      20.108  34.102  15.946  1.00  0.00    -0.115 S 
ATOM     14  C   UNL     1      18.120  34.194  14.305  1.00  0.00     0.055 A 
ATOM     15  C   UNL     1      18.433  34.147  15.652  1.00  0.00     0.129 A 
ATOM     16  N   UNL     1      17.567  34.135  16.677  1.00  0.00    -0.225 NA
ATOM     17  N   UNL     1      15.854  34.214  14.999  1.00  0.00    -0.219 NA
ATOM     18  C   UNL     1      16.299  34.171  16.264  1.00  0.00     0.225 A 
BRANCH  11  19
ATOM     19  C   UNL     1      21.876  34.098  13.814  1.00  0.00    -0.008 A 
ATOM     20  C   UNL     1      24.555  34.046  12.891  1.00  0.00     0.042 A 
ATOM     21  C   UNL     1      23.553  34.642  12.127  1.00  0.00     0.027 A 
ATOM     22  C   UNL     1      24.210  33.477  14.121  1.00  0.00     0.027 A 
ATOM     23  C   UNL     1      22.228  34.668  12.584  1.00  0.00     0.012 A 
ATOM     24  C   UNL     1      22.888  33.505  14.580  1.00  0.00     0.012 A 
BRANCH  20  25
ATOM     25  N   UNL     1      25.907  33.969  12.499  1.00  0.00    -0.308 N 
ATOM     26  O   UNL     1      26.150  31.723  11.940  1.00  0.00    -0.248 OA
ATOM     27  C   UNL     1      26.603  32.850  12.086  1.00  0.00     0.319 C 
ATOM     28  N   UNL     1      27.933  33.152  11.840  1.00  0.00    -0.335 N 
ATOM     29  H   UNL     1      26.416  34.838  12.489  1.00  0.00     0.171 HD
ATOM     30  H   UNL     1      28.281  34.072  12.060  1.00  0.00     0.165 HD
BRANCH  28  31
ATOM     31  C   UNL     1      28.861  32.174  11.368  1.00  0.00     0.084 C 
ATOM     32  C   UNL     1      29.153  30.943  12.182  1.00  0.00     0.027 C 
ATOM     33  C   UNL     1      28.386  30.826  10.898  1.00  0.00     0.027 C 
ENDBRANCH  28  31
ENDBRANCH  20  25
ENDBRANCH  11  19
ENDBRANCH   8  10
ENDBRANCH   1   8
BRANCH   4  34
ATOM     34  O   UNL     1      18.249  32.249   7.787  1.00  0.00    -0.456 OA
BRANCH  34  35
ATOM     35  C   UNL     1      17.769  31.038   7.340  1.00  0.00     0.128 A 
ATOM     36  C   UNL     1      18.614  30.286   6.525  1.00  0.00     0.047 A 
ATOM     37  C   UNL     1      16.473  30.592   7.616  1.00  0.00     0.060 A 
ATOM     38  C   UNL     1      18.181  29.063   6.016  1.00  0.00     0.004 A 
ATOM     39  C   UNL     1      16.024  29.366   7.100  1.00  0.00     0.059 A 
ATOM     40  C   UNL     1      16.896  28.601   6.308  1.00  0.00     0.013 A 
BRANCH  39  41
ATOM     41  C   UNL     1      14.636  28.868   7.420  1.00  0.00     0.416 C 
ATOM     42  F   UNL     1      14.154  28.029   6.463  1.00  0.00    -0.166 F 
ATOM     43  F   UNL     1      13.720  29.870   7.535  1.00  0.00    -0.166 F 
ATOM     44  F   UNL     1      14.576  28.174   8.590  1.00  0.00    -0.166 F 
ENDBRANCH  39  41
ENDBRANCH  34  35
ENDBRANCH   4  34
TORSDOF 8
ENDMDL
MODEL 7
REMARK minimizedAffinity -9.80158901
REMARK CNNscore 0.295324922
REMARK CNNaffinity 7.99339437
REMARK SMILES O=C(Nc1ccc(-c2cc3c(Nc4ccc(Oc5cccc(C(F)(F)F)c5)c(Cl)c4)ncnc3s2)cc1)NC1CC1
REMARK SMILES IDX 13 1 14 2 15 3 16 4 28 5 29 6 30 7 12 8 11 10 8 11 9 12
REMARK SMILES IDX 35 13 10 14 34 15 33 16 31 17 32 18 7 19 4 20 5 21 37 22
REMARK SMILES IDX 6 23 36 24 3 25 1 26 2 27 38 28 39 31 40 32 41 33 17 34
REMARK SMILES IDX 18 35 19 36 27 37 20 38 22 39 21 40 23 41 24 42 25 43 26 44
REMARK H PARENT 12 9 3 29 38 30
ROOT
ATOM      1  C   UNL     1      16.718  34.088  11.319  1.00  0.00     0.041 A 
ATOM      2  C   UNL     1      17.676  33.082  11.481  1.00  0.00     0.030 A 
ATOM      3  C   UNL     1      18.235  32.422  10.380  1.00  0.00     0.051 A 
ATOM      4  C   UNL     1      17.822  32.746   9.086  1.00  0.00     0.146 A 
ATOM      5  C   UNL     1      16.877  33.755   8.903  1.00  0.00     0.085 A 
ATOM      6  Cl  UNL     1      16.345  34.213   7.326  1.00  0.00    -0.080 Cl
ATOM      7  C   UNL     1      16.326  34.412  10.009  1.00  0.00     0.050 A 
ENDROOT
BRANCH   1   8
ATOM      8  N   UNL     1      16.113  34.772  12.389  1.00  0.00    -0.340 N 
ATOM      9  H   UNL     1      15.774  35.694  12.153  1.00  0.00     0.168 HD
BRANCH   8  10
ATOM     10  C   UNL     1      15.896  34.423  13.732  1.00  0.00     0.142 A 
ATOM     11  C   UNL     1      19.084  34.311  15.701  1.00  0.00     0.037 A 
ATOM     12  C   UNL     1      18.395  34.508  14.516  1.00  0.00     0.034 A 
ATOM     13  S   UNL     1      18.006  33.909  16.971  1.00  0.00    -0.115 S 
ATOM     14  C   UNL     1      16.972  34.332  14.646  1.00  0.00     0.055 A 
ATOM     15  C   UNL     1      16.648  34.001  15.950  1.00  0.00     0.129 A 
ATOM     16  N   UNL     1      15.420  33.764  16.436  1.00  0.00    -0.225 NA
ATOM     17  N   UNL     1      14.649  34.185  14.204  1.00  0.00    -0.219 NA
ATOM     18  C   UNL     1      14.479  33.877  15.499  1.00  0.00     0.225 A 
BRANCH  11  19
ATOM     19  C   UNL     1      20.534  34.375  15.939  1.00  0.00    -0.008 A 
ATOM     20  C   UNL     1      23.321  34.468  16.442  1.00  0.00     0.042 A 
ATOM     21  C   UNL     1      22.433  34.066  17.439  1.00  0.00     0.027 A 
ATOM     22  C   UNL     1      22.807  34.823  15.190  1.00  0.00     0.027 A 
ATOM     23  C   UNL     1      21.055  34.019  17.189  1.00  0.00     0.012 A 
ATOM     24  C   UNL     1      21.431  34.773  14.939  1.00  0.00     0.012 A 
BRANCH  20  25
ATOM     25  N   UNL     1      24.718  34.551  16.615  1.00  0.00    -0.308 N 
ATOM     26  O   UNL     1      25.448  35.275  14.527  1.00  0.00    -0.248 OA
ATOM     27  C   UNL     1      25.664  34.912  15.676  1.00  0.00     0.319 C 
ATOM     28  N   UNL     1      26.945  34.820  16.196  1.00  0.00    -0.335 N 
ATOM     29  H   UNL     1      25.063  34.354  17.541  1.00  0.00     0.171 HD
ATOM     30  H   UNL     1      27.078  34.432  17.117  1.00  0.00     0.165 HD
BRANCH  28  31
ATOM     31  C   UNL     1      28.103  35.171  15.437  1.00  0.00     0.084 C 
ATOM     32  C   UNL     1      28.347  34.552  14.088  1.00  0.00     0.027 C 
ATOM     33  C   UNL     1      27.981  36.004  14.190  1.00  0.00     0.027 C 
ENDBRANCH  28  31
ENDBRANCH  20  25
ENDBRANCH  11  19
ENDBRANCH   8  10
ENDBRANCH   1   8
BRANCH   4  34
ATOM     34  O   UNL     1      18.387  32.143   7.984  1.00  0.00    -0.456 OA
BRANCH  34  35
ATOM     35  C   UNL     1      17.779  31.002   7.513  1.00  0.00     0.128 A 
ATOM     36  C   UNL     1      18.549  30.164   6.707  1.00  0.00     0.047 A 
ATOM     37  C   UNL     1      16.435  30.707   7.757  1.00  0.00     0.060 A 
ATOM     38  C   UNL     1      17.988  29.005   6.173  1.00  0.00     0.004 A 
ATOM     39  C   UNL     1      15.858  29.546   7.216  1.00  0.00     0.059 A 
ATOM     40  C   UNL     1      16.652  28.693   6.433  1.00  0.00     0.013 A 
BRANCH  39  41
ATOM     41  C   UNL     1      14.414  29.210   7.502  1.00  0.00     0.416 C 
ATOM     42  F   UNL     1      13.944  28.221   6.693  1.00  0.00    -0.166 F 
ATOM     43  F   UNL     1      13.573  30.267   7.327  1.00  0.00    -0.166 F 
ATOM     44  F   UNL     1      14.210  28.780   8.777  1.00  0.00    -0.166 F 
ENDBRANCH  39  41
ENDBRANCH  34  35
ENDBRANCH   4  34
TORSDOF 8
ENDMDL
MODEL 8
REMARK minimizedAffinity -12.3082457
REMARK CNNscore 0.24548246
REMARK CNNaffinity 7.45732498
REMARK SMILES O=C(Nc1ccc(-c2cc3c(Nc4ccc(Oc5cccc(C(F)(F)F)c5)c(Cl)c4)ncnc3s2)cc1)NC1CC1
REMARK SMILES IDX 13 1 14 2 15 3 16 4 28 5 29 6 30 7 12 8 11 10 8 11 9 12
REMARK SMILES IDX 35 13 10 14 34 15 33 16 31 17 32 18 7 19 4 20 5 21 37 22
REMARK SMILES IDX 6 23 36 24 3 25 1 26 2 27 38 28 39 31 40 32 41 33 17 34
REMARK SMILES IDX 18 35 19 36 27 37 20 38 22 39 21 40 23 41 24 42 25 43 26 44
REMARK H PARENT 12 9 3 29 38 30
ROOT
ATOM      1  C   UNL     1      17.350  33.418  12.103  1.00  0.00     0.041 A 
ATOM      2  C   UNL     1      18.185  32.419  11.595  1.00  0.00     0.030 A 
ATOM      3  C   UNL     1      18.296  32.189  10.218  1.00  0.00     0.051 A 
ATOM      4  C   UNL     1      17.545  32.949   9.320  1.00  0.00     0.146 A 
ATOM      5  C   UNL     1      16.716  33.960   9.806  1.00  0.00     0.085 A 
ATOM      6  Cl  UNL     1      15.781  34.946   8.740  1.00  0.00    -0.080 Cl
ATOM      7  C   UNL     1      16.614  34.184  11.183  1.00  0.00     0.050 A 
ENDROOT
BRANCH   1   8
ATOM      8  N   UNL     1      17.188  33.681  13.475  1.00  0.00    -0.340 N 
ATOM      9  H   UNL     1      16.477  33.122  13.924  1.00  0.00     0.168 HD
BRANCH   8  10
ATOM     10  C   UNL     1      17.822  34.583  14.345  1.00  0.00     0.142 A 
ATOM     11  C   UNL     1      21.541  34.633  13.872  1.00  0.00     0.037 A 
ATOM     12  C   UNL     1      20.283  34.152  13.553  1.00  0.00     0.034 A 
ATOM     13  S   UNL     1      21.442  35.818  15.107  1.00  0.00    -0.115 S 
ATOM     14  C   UNL     1      19.226  34.757  14.320  1.00  0.00     0.055 A 
ATOM     15  C   UNL     1      19.749  35.686  15.204  1.00  0.00     0.129 A 
ATOM     16  N   UNL     1      19.061  36.440  16.075  1.00  0.00    -0.225 NA
ATOM     17  N   UNL     1      17.111  35.335  15.219  1.00  0.00    -0.219 NA
ATOM     18  C   UNL     1      17.750  36.204  16.018  1.00  0.00     0.225 A 
BRANCH  11  19
ATOM     19  C   UNL     1      22.843  34.230  13.322  1.00  0.00    -0.008 A 
ATOM     20  C   UNL     1      25.351  33.407  12.289  1.00  0.00     0.042 A 
ATOM     21  C   UNL     1      24.806  32.782  13.410  1.00  0.00     0.027 A 
ATOM     22  C   UNL     1      24.634  34.446  11.686  1.00  0.00     0.027 A 
ATOM     23  C   UNL     1      23.565  33.189  13.920  1.00  0.00     0.012 A 
ATOM     24  C   UNL     1      23.394  34.851  12.193  1.00  0.00     0.012 A 
BRANCH  20  25
ATOM     25  N   UNL     1      26.595  33.065  11.721  1.00  0.00    -0.308 N 
ATOM     26  O   UNL     1      27.147  31.103  12.846  1.00  0.00    -0.248 OA
ATOM     27  C   UNL     1      27.400  31.988  12.039  1.00  0.00     0.319 C 
ATOM     28  N   UNL     1      28.578  32.013  11.310  1.00  0.00    -0.335 N 
ATOM     29  H   UNL     1      26.920  33.658  10.975  1.00  0.00     0.171 HD
ATOM     30  H   UNL     1      28.781  32.808  10.725  1.00  0.00     0.165 HD
BRANCH  28  31
ATOM     31  C   UNL     1      29.569  30.990  11.428  1.00  0.00     0.084 C 
ATOM     32  C   UNL     1      29.245  29.569  11.058  1.00  0.00     0.027 C 
ATOM     33  C   UNL     1      30.182  30.370  10.203  1.00  0.00     0.027 C 
ENDBRANCH  28  31
ENDBRANCH  20  25
ENDBRANCH  11  19
ENDBRANCH   8  10
ENDBRANCH   1   8
BRANCH   4  34
ATOM     34  O   UNL     1      17.668  32.774   7.959  1.00  0.00    -0.456 OA
BRANCH  34  35
ATOM     35  C   UNL     1      17.454  31.507   7.468  1.00  0.00     0.128 A 
ATOM     36  C   UNL     1      18.489  30.933   6.731  1.00  0.00     0.047 A 
ATOM     37  C   UNL     1      16.241  30.831   7.626  1.00  0.00     0.060 A 
ATOM     38  C   UNL     1      18.329  29.662   6.181  1.00  0.00     0.004 A 
ATOM     39  C   UNL     1      16.067  29.554   7.067  1.00  0.00     0.059 A 
ATOM     40  C   UNL     1      17.128  28.972   6.355  1.00  0.00     0.013 A 
BRANCH  39  41
ATOM     41  C   UNL     1      14.768  28.810   7.260  1.00  0.00     0.416 C 
ATOM     42  F   UNL     1      13.735  29.643   7.567  1.00  0.00    -0.166 F 
ATOM     43  F   UNL     1      14.819  27.893   8.266  1.00  0.00    -0.166 F 
ATOM     44  F   UNL     1      14.378  28.123   6.152  1.00  0.00    -0.166 F 
ENDBRANCH  39  41
ENDBRANCH  34  35
ENDBRANCH   4  34
TORSDOF 8
ENDMDL
MODEL 9
REMARK minimizedAffinity -11.1396046
REMARK CNNscore 0.238907814
REMARK CNNaffinity 8.04473972
REMARK SMILES O=C(Nc1ccc(-c2cc3c(Nc4ccc(Oc5cccc(C(F)(F)F)c5)c(Cl)c4)ncnc3s2)cc1)NC1CC1
REMARK SMILES IDX 13 1 14 2 15 3 16 4 28 5 29 6 30 7 12 8 11 10 8 11 9 12
REMARK SMILES IDX 35 13 10 14 34 15 33 16 31 17 32 18 7 19 4 20 5 21 37 22
REMARK SMILES IDX 6 23 36 24 3 25 1 26 2 27 38 28 39 31 40 32 41 33 17 34
REMARK SMILES IDX 18 35 19 36 27 37 20 38 22 39 21 40 23 41 24 42 25 43 26 44
REMARK H PARENT 12 9 3 29 38 30
ROOT
ATOM      1  C   UNL     1      16.104  33.829  12.433  1.00  0.00     0.041 A 
ATOM      2  C   UNL     1      15.678  34.639  11.377  1.00  0.00     0.030 A 
ATOM      3  C   UNL     1      16.222  34.511  10.093  1.00  0.00     0.051 A 
ATOM      4  C   UNL     1      17.229  33.576   9.850  1.00  0.00     0.146 A 
ATOM      5  C   UNL     1      17.659  32.749  10.888  1.00  0.00     0.085 A 
ATOM      6  Cl  UNL     1      18.886  31.559  10.640  1.00  0.00    -0.080 Cl
ATOM      7  C   UNL     1      17.108  32.882  12.167  1.00  0.00     0.050 A 
ENDROOT
BRANCH   1   8
ATOM      8  N   UNL     1      15.605  33.925  13.744  1.00  0.00    -0.340 N 
ATOM      9  H   UNL     1      14.711  33.474  13.883  1.00  0.00     0.168 HD
BRANCH   8  10
ATOM     10  C   UNL     1      16.105  34.540  14.904  1.00  0.00     0.142 A 
ATOM     11  C   UNL     1      19.830  34.959  14.790  1.00  0.00     0.037 A 
ATOM     12  C   UNL     1      18.638  34.530  14.230  1.00  0.00     0.034 A 
ATOM     13  S   UNL     1      19.555  35.681  16.320  1.00  0.00    -0.115 S 
ATOM     14  C   UNL     1      17.489  34.796  15.055  1.00  0.00     0.055 A 
ATOM     15  C   UNL     1      17.876  35.424  16.226  1.00  0.00     0.129 A 
ATOM     16  N   UNL     1      17.075  35.819  17.227  1.00  0.00    -0.225 NA
ATOM     17  N   UNL     1      15.281  34.931  15.905  1.00  0.00    -0.219 NA
ATOM     18  C   UNL     1      15.794  35.536  16.987  1.00  0.00     0.225 A 
BRANCH  11  19
ATOM     19  C   UNL     1      21.193  34.831  14.254  1.00  0.00    -0.008 A 
ATOM     20  C   UNL     1      23.840  34.602  13.269  1.00  0.00     0.042 A 
ATOM     21  C   UNL     1      23.570  35.361  14.406  1.00  0.00     0.027 A 
ATOM     22  C   UNL     1      22.778  33.957  12.626  1.00  0.00     0.027 A 
ATOM     23  C   UNL     1      22.260  35.473  14.894  1.00  0.00     0.012 A 
ATOM     24  C   UNL     1      21.470  34.066  13.114  1.00  0.00     0.012 A 
BRANCH  20  25
ATOM     25  N   UNL     1      25.125  34.447  12.710  1.00  0.00    -0.308 N 
ATOM     26  O   UNL     1      25.560  32.186  13.050  1.00  0.00    -0.248 OA
ATOM     27  C   UNL     1      25.889  33.297  12.657  1.00  0.00     0.319 C 
ATOM     28  N   UNL     1      27.125  33.545  12.084  1.00  0.00    -0.335 N 
ATOM     29  H   UNL     1      25.518  35.263  12.269  1.00  0.00     0.171 HD
ATOM     30  H   UNL     1      27.385  34.492  11.858  1.00  0.00     0.165 HD
BRANCH  28  31
ATOM     31  C   UNL     1      28.092  32.513  11.882  1.00  0.00     0.084 C 
ATOM     32  C   UNL     1      27.903  31.158  12.507  1.00  0.00     0.027 C 
ATOM     33  C   UNL     1      27.775  31.321  11.021  1.00  0.00     0.027 C 
ENDBRANCH  28  31
ENDBRANCH  20  25
ENDBRANCH  11  19
ENDBRANCH   8  10
ENDBRANCH   1   8
BRANCH   4  34
ATOM     34  O   UNL     1      17.751  33.399   8.588  1.00  0.00    -0.456 OA
BRANCH  34  35
ATOM     35  C   UNL     1      17.485  32.202   7.961  1.00  0.00     0.128 A 
ATOM     36  C   UNL     1      18.543  31.594   7.286  1.00  0.00     0.047 A 
ATOM     37  C   UNL     1      16.207  31.635   7.927  1.00  0.00     0.060 A 
ATOM     38  C   UNL     1      18.337  30.395   6.607  1.00  0.00     0.004 A 
ATOM     39  C   UNL     1      15.988  30.432   7.237  1.00  0.00     0.059 A 
ATOM     40  C   UNL     1      17.069  29.812   6.589  1.00  0.00     0.013 A 
BRANCH  39  41
ATOM     41  C   UNL     1      14.616  29.803   7.223  1.00  0.00     0.416 C 
ATOM     42  F   UNL     1      14.404  28.999   8.301  1.00  0.00    -0.166 F 
ATOM     43  F   UNL     1      14.394  29.025   6.128  1.00  0.00    -0.166 F 
ATOM     44  F   UNL     1      13.610  30.720   7.237  1.00  0.00    -0.166 F 
ENDBRANCH  39  41
ENDBRANCH  34  35
ENDBRANCH   4  34
TORSDOF 8
ENDMDL
