MODEL 9
REMARK VINA RESULT:    -6.898      4.659      7.383
REMARK INTER + INTRA:         -10.818
REMARK INTER:                 -10.076
REMARK INTRA:                  -0.743
REMARK UNBOUND:                -1.098
REMARK SMILES CCOC(=O)c1cn2ncnc(NCc3ccccc3)c2c1CC
REMARK SMILES IDX 6 1 7 2 8 3 9 4 10 5 11 6 12 7 21 8 22 9 4 10 5 11 3 12 2 13
REMARK SMILES IDX 1 14 23 15 24 16 13 17 14 19 15 20 20 21 16 22 19 23 17 24
REMARK SMILES IDX 18 25
REMARK H PARENT 13 18
ROOT
ATOM      1  C   UNL     1      14.320  40.976   8.584  1.00  0.00     0.083 A 
ATOM      2  C   UNL     1      14.819  41.851   7.613  1.00  0.00     0.129 A 
ATOM      3  N   UNL     1      16.063  41.438   7.225  1.00  0.00    -0.235 N 
ATOM      4  N   UNL     1      16.822  42.044   6.294  1.00  0.00    -0.156 NA
ATOM      5  C   UNL     1      18.007  41.424   6.090  1.00  0.00     0.247 A 
ATOM      6  N   UNL     1      18.465  40.312   6.708  1.00  0.00    -0.215 NA
ATOM      7  C   UNL     1      17.660  39.736   7.646  1.00  0.00     0.154 A 
ATOM      8  C   UNL     1      16.393  40.281   7.961  1.00  0.00     0.111 A 
ATOM      9  C   UNL     1      15.300  39.993   8.841  1.00  0.00    -0.003 A 
ENDROOT
BRANCH   1  10
ATOM     10  C   UNL     1      12.992  41.081   9.209  1.00  0.00     0.340 C 
ATOM     11  O   UNL     1      12.731  41.828  10.154  1.00  0.00    -0.246 OA
BRANCH  10  12
ATOM     12  O   UNL     1      12.102  40.242   8.622  1.00  0.00    -0.462 OA
BRANCH  12  13
ATOM     13  C   UNL     1      10.775  40.124   9.117  1.00  0.00     0.230 C 
ATOM     14  C   UNL     1       9.835  40.973   8.257  1.00  0.00     0.049 C 
ENDBRANCH  12  13
ENDBRANCH  10  12
ENDBRANCH   1  10
BRANCH   9  15
ATOM     15  C   UNL     1      15.255  38.829   9.822  1.00  0.00     0.035 C 
ATOM     16  C   UNL     1      14.323  37.708   9.346  1.00  0.00     0.009 C 
ENDBRANCH   9  15
BRANCH   7  17
ATOM     17  N   UNL     1      18.091  38.570   8.301  1.00  0.00    -0.364 N 
ATOM     18  H   UNL     1      18.779  38.660   9.035  1.00  0.00     0.162 HD
BRANCH  17  19
ATOM     19  C   UNL     1      17.765  37.225   7.830  1.00  0.00     0.150 C 
BRANCH  19  20
ATOM     20  C   UNL     1      18.972  36.548   7.193  1.00  0.00    -0.029 A 
ATOM     21  C   UNL     1      19.516  37.060   6.012  1.00  0.00     0.005 A 
ATOM     22  C   UNL     1      19.539  35.417   7.791  1.00  0.00     0.005 A 
ATOM     23  C   UNL     1      20.617  36.441   5.426  1.00  0.00     0.000 A 
ATOM     24  C   UNL     1      20.640  34.798   7.205  1.00  0.00     0.000 A 
ATOM     25  C   UNL     1      21.173  35.313   6.025  1.00  0.00     0.000 A 
ENDBRANCH  19  20
ENDBRANCH  17  19
ENDBRANCH   7  17
TORSDOF 7
ENDMDL
