REMARK SMILES Nc1ccc(-c2ccc3ncc4ccc(=O)n(-c5cccc(C(F)(F)F)c5)c4c3c2)cn1
REMARK SMILES IDX 6 1 7 2 8 3 9 4 10 5 11 6 12 7 13 8 14 9 15 10 16 11 17 12
REMARK SMILES IDX 28 13 29 14 30 15 5 16 2 17 3 18 32 19 4 20 31 21 1 22 18 25
REMARK SMILES IDX 19 26 27 27 20 28 22 29 21 30 23 31 24 32 25 33 26 34
REMARK H PARENT 1 23 1 24
REMARK INDEX MAP 6 1 7 2 8 3 9 4 10 5 11 6 12 7 13 8 14 9 15 10 16 11 17 12
REMARK INDEX MAP 28 13 29 14 30 15 5 16 2 17 3 18 32 19 4 20 31 21 1 22 33 23
REMARK INDEX MAP 34 24 18 25 19 26 27 27 20 28 22 29 21 30 23 31 24 32 25 33
REMARK INDEX MAP 26 34
ROOT
ATOM      1  C   UNL     1      49.780  -1.637 -46.518  1.00  0.00    -0.016 A 
ATOM      2  C   UNL     1      50.328  -1.030 -45.391  1.00  0.00     0.011 A 
ATOM      3  C   UNL     1      50.121  -1.578 -44.123  1.00  0.00     0.029 A 
ATOM      4  C   UNL     1      49.352  -2.714 -43.927  1.00  0.00     0.072 A 
ATOM      5  N   UNL     1      49.298  -3.196 -42.680  1.00  0.00    -0.255 NA
ATOM      6  C   UNL     1      48.652  -4.358 -42.479  1.00  0.00     0.122 A 
ATOM      7  C   UNL     1      47.956  -5.038 -43.464  1.00  0.00     0.018 A 
ATOM      8  C   UNL     1      47.371  -6.339 -43.179  1.00  0.00     0.017 A 
ATOM      9  C   UNL     1      46.731  -6.999 -44.145  1.00  0.00     0.073 A 
ATOM     10  C   UNL     1      46.483  -6.397 -45.476  1.00  0.00     0.255 A 
ATOM     11  O   UNL     1      45.797  -7.052 -46.259  1.00  0.00    -0.269 OA
ATOM     12  N   UNL     1      46.986  -5.104 -45.693  1.00  0.00    -0.276 N 
ATOM     13  C   UNL     1      47.874  -4.463 -44.740  1.00  0.00     0.067 A 
ATOM     14  C   UNL     1      48.702  -3.322 -45.024  1.00  0.00     0.026 A 
ATOM     15  C   UNL     1      48.990  -2.783 -46.314  1.00  0.00     0.021 A 
ENDROOT
BRANCH   1  16
ATOM     16  C   UNL     1      50.020  -1.109 -47.868  1.00  0.00     0.000 A 
ATOM     17  C   UNL     1      50.554  -0.062 -50.382  1.00  0.00     0.123 A 
ATOM     18  C   UNL     1      49.338  -0.685 -50.152  1.00  0.00     0.047 A 
ATOM     19  N   UNL     1      51.501   0.035 -49.436  1.00  0.00    -0.239 NA
ATOM     20  C   UNL     1      49.068  -1.206 -48.886  1.00  0.00     0.014 A 
ATOM     21  C   UNL     1      51.215  -0.478 -48.214  1.00  0.00     0.122 A 
BRANCH  17  22
ATOM     22  N   UNL     1      50.874   0.434 -51.627  1.00  0.00    -0.384 N 
ATOM     23  H   UNL     1      51.783   0.894 -51.780  1.00  0.00     0.158 HD
ATOM     24  H   UNL     1      50.205   0.344 -52.405  1.00  0.00     0.158 HD
ENDBRANCH  17  22
ENDBRANCH   1  16
BRANCH  12  25
ATOM     25  C   UNL     1      46.398  -4.335 -46.749  1.00  0.00     0.050 A 
ATOM     26  C   UNL     1      45.354  -3.432 -46.487  1.00  0.00     0.027 A 
ATOM     27  C   UNL     1      46.802  -4.519 -48.080  1.00  0.00     0.039 A 
ATOM     28  C   UNL     1      44.757  -2.708 -47.520  1.00  0.00     0.003 A 
ATOM     29  C   UNL     1      46.217  -3.787 -49.128  1.00  0.00     0.058 A 
ATOM     30  C   UNL     1      45.188  -2.882 -48.834  1.00  0.00     0.013 A 
BRANCH  29  31
ATOM     31  C   UNL     1      46.666  -4.012 -50.551  1.00  0.00     0.416 C 
ATOM     32  F   UNL     1      46.785  -2.855 -51.261  1.00  0.00    -0.166 F 
ATOM     33  F   UNL     1      47.879  -4.625 -50.625  1.00  0.00    -0.166 F 
ATOM     34  F   UNL     1      45.810  -4.796 -51.265  1.00  0.00    -0.166 F 
ENDBRANCH  29  31
ENDBRANCH  12  25
TORSDOF 4
