REMARK SMILES COC(=O)C(Cc1ccc(OCCN2CCC(C)(C)c3cc(/C(=N\O)c4ccccc4)ccc32)cc1)C(=O)OC
REMARK SMILES IDX 11 1 10 2 7 3 8 4 36 5 9 6 35 7 6 8 5 9 3 10 4 11 2 12 1 13
REMARK SMILES IDX 37 14 38 15 39 16 40 17 12 18 13 19 14 20 15 21 34 22 16 23
REMARK SMILES IDX 33 24 20 25 17 26 32 27 21 28 22 29 18 30 19 31 23 32 24 33
REMARK SMILES IDX 26 34 27 35 31 36 28 37 30 38 29 39 25 40
REMARK H PARENT 25 41
REMARK INDEX MAP 11 1 10 2 7 3 8 4 36 5 9 6 35 7 6 8 5 9 3 10 4 11 2 12 1 13
REMARK INDEX MAP 37 14 38 15 39 16 40 17 12 18 13 19 14 20 15 21 34 22 16 23
REMARK INDEX MAP 33 24 20 25 17 26 32 27 21 28 22 29 18 30 19 31 23 32 24 33
REMARK INDEX MAP 26 34 27 35 31 36 28 37 30 38 29 39 25 40 64 41
ROOT
ATOM      1  O   UNL     1       6.666   9.592  -6.131  1.00  0.00    -0.492 OA
ENDROOT
BRANCH   1   2
ATOM      2  C   UNL     1       5.722   8.784  -5.567  1.00  0.00     0.119 A 
ATOM      3  C   UNL     1       3.675   7.366  -4.251  1.00  0.00    -0.046 A 
ATOM      4  C   UNL     1       3.753   8.760  -4.148  1.00  0.00     0.007 A 
ATOM      5  C   UNL     1       4.626   6.692  -5.030  1.00  0.00     0.007 A 
ATOM      6  C   UNL     1       4.769   9.460  -4.801  1.00  0.00     0.047 A 
ATOM      7  C   UNL     1       5.643   7.398  -5.686  1.00  0.00     0.047 A 
BRANCH   3   8
ATOM      8  C   UNL     1       2.601   6.601  -3.508  1.00  0.00     0.062 C 
BRANCH   8   9
ATOM      9  C   UNL     1       2.929   6.404  -2.020  1.00  0.00     0.213 C 
BRANCH   9  10
ATOM     10  C   UNL     1       4.036   7.313  -1.536  1.00  0.00     0.320 C 
ATOM     11  O   UNL     1       5.230   7.078  -1.664  1.00  0.00    -0.251 OA
BRANCH  10  12
ATOM     12  O   UNL     1       3.547   8.382  -0.851  1.00  0.00    -0.468 OA
ATOM     13  C   UNL     1       2.361   8.110  -0.102  1.00  0.00     0.282 C 
ENDBRANCH  10  12
ENDBRANCH   9  10
BRANCH   9  14
ATOM     14  C   UNL     1       3.320   4.967  -1.773  1.00  0.00     0.320 C 
ATOM     15  O   UNL     1       3.397   4.108  -2.643  1.00  0.00    -0.251 OA
BRANCH  14  16
ATOM     16  O   UNL     1       3.571   4.764  -0.448  1.00  0.00    -0.468 OA
ATOM     17  C   UNL     1       4.747   3.999  -0.189  1.00  0.00     0.282 C 
ENDBRANCH  14  16
ENDBRANCH   9  14
ENDBRANCH   8   9
ENDBRANCH   3   8
ENDBRANCH   1   2
BRANCH   1  18
ATOM     18  C   UNL     1       7.263  10.586  -5.299  1.00  0.00     0.251 C 
BRANCH  18  19
ATOM     19  C   UNL     1       8.748  10.239  -5.143  1.00  0.00     0.158 C 
BRANCH  19  20
ATOM     20  N   UNL     1       9.612  11.095  -5.965  1.00  0.00    -0.368 N 
ATOM     21  C   UNL     1      10.369  12.132  -5.273  1.00  0.00     0.117 C 
ATOM     22  C   UNL     1       9.897  10.835  -7.302  1.00  0.00     0.041 A 
ATOM     23  C   UNL     1      10.496  13.359  -6.154  1.00  0.00     0.032 C 
ATOM     24  C   UNL     1       9.418   9.673  -7.944  1.00  0.00     0.027 A 
ATOM     25  C   UNL     1      10.668  11.741  -8.081  1.00  0.00    -0.018 A 
ATOM     26  C   UNL     1      11.229  13.032  -7.471  1.00  0.00    -0.007 C 
ATOM     27  C   UNL     1       9.683   9.394  -9.287  1.00  0.00     0.012 A 
ATOM     28  C   UNL     1      10.944  11.444  -9.434  1.00  0.00     0.017 A 
ATOM     29  C   UNL     1      10.444  10.286 -10.028  1.00  0.00     0.005 A 
ATOM     30  C   UNL     1      12.739  12.846  -7.214  1.00  0.00     0.016 C 
ATOM     31  C   UNL     1      11.036  14.252  -8.403  1.00  0.00     0.016 C 
BRANCH  29  32
ATOM     32  C   UNL     1      10.706  10.022 -11.468  1.00  0.00     0.117 C 
ATOM     33  N   UNL     1      10.557  10.920 -12.403  1.00  0.00    -0.088 NA
BRANCH  32  34
ATOM     34  C   UNL     1      11.166   8.647 -11.861  1.00  0.00     0.004 A 
ATOM     35  C   UNL     1      10.451   7.495 -11.501  1.00  0.00     0.010 A 
ATOM     36  C   UNL     1      12.337   8.514 -12.624  1.00  0.00     0.010 A 
ATOM     37  C   UNL     1      10.908   6.233 -11.887  1.00  0.00     0.001 A 
ATOM     38  C   UNL     1      12.788   7.250 -13.011  1.00  0.00     0.001 A 
ATOM     39  C   UNL     1      12.075   6.111 -12.641  1.00  0.00     0.000 A 
ENDBRANCH  32  34
BRANCH  33  40
ATOM     40  O   UNL     1      10.130  12.156 -11.901  1.00  0.00    -0.410 OA
ATOM     41  H   UNL     1       9.982  12.916 -12.518  1.00  0.00     0.330 HD
ENDBRANCH  33  40
ENDBRANCH  29  32
ENDBRANCH  19  20
ENDBRANCH  18  19
ENDBRANCH   1  18
TORSDOF 13
