REMARK SMILES COC(=O)C(Cc1ccc(OCCN2CCC(C)(C)c3cc(/C(=N\O)c4ccccc4)ccc32)cc1)C(=O)OC
REMARK SMILES IDX 11 1 10 2 7 3 8 4 36 5 9 6 35 7 6 8 5 9 3 10 4 11 2 12 1 13
REMARK SMILES IDX 37 14 38 15 39 16 40 17 12 18 13 19 14 20 15 21 34 22 16 23
REMARK SMILES IDX 33 24 20 25 17 26 32 27 21 28 22 29 18 30 19 31 23 32 24 33
REMARK SMILES IDX 26 34 27 35 31 36 28 37 30 38 29 39 25 40
REMARK H PARENT 25 41
REMARK INDEX MAP 11 1 10 2 7 3 8 4 36 5 9 6 35 7 6 8 5 9 3 10 4 11 2 12 1 13
REMARK INDEX MAP 37 14 38 15 39 16 40 17 12 18 13 19 14 20 15 21 34 22 16 23
REMARK INDEX MAP 33 24 20 25 17 26 32 27 21 28 22 29 18 30 19 31 23 32 24 33
REMARK INDEX MAP 26 34 27 35 31 36 28 37 30 38 29 39 25 40 64 41
ROOT
ATOM      1  O   UNL     1       7.478   5.487  -7.157  1.00  0.00    -0.492 OA
ENDROOT
BRANCH   1   2
ATOM      2  C   UNL     1       6.483   6.113  -6.462  1.00  0.00     0.119 A 
ATOM      3  C   UNL     1       4.323   7.124  -4.964  1.00  0.00    -0.046 A 
ATOM      4  C   UNL     1       4.588   5.749  -4.990  1.00  0.00     0.007 A 
ATOM      5  C   UNL     1       5.159   7.986  -5.687  1.00  0.00     0.007 A 
ATOM      6  C   UNL     1       5.659   5.251  -5.734  1.00  0.00     0.047 A 
ATOM      7  C   UNL     1       6.234   7.484  -6.430  1.00  0.00     0.047 A 
BRANCH   3   8
ATOM      8  C   UNL     1       3.136   7.661  -4.195  1.00  0.00     0.062 C 
BRANCH   8   9
ATOM      9  C   UNL     1       3.440   7.886  -2.706  1.00  0.00     0.213 C 
BRANCH   9  10
ATOM     10  C   UNL     1       4.918   8.025  -2.423  1.00  0.00     0.320 C 
ATOM     11  O   UNL     1       5.622   7.138  -1.958  1.00  0.00    -0.251 OA
BRANCH  10  12
ATOM     12  O   UNL     1       5.359   9.292  -2.656  1.00  0.00    -0.468 OA
ATOM     13  C   UNL     1       6.588   9.617  -2.006  1.00  0.00     0.282 C 
ENDBRANCH  10  12
ENDBRANCH   9  10
BRANCH   9  14
ATOM     14  C   UNL     1       2.883   6.741  -1.895  1.00  0.00     0.320 C 
ATOM     15  O   UNL     1       2.607   5.638  -2.350  1.00  0.00    -0.251 OA
BRANCH  14  16
ATOM     16  O   UNL     1       2.732   7.111  -0.592  1.00  0.00    -0.468 OA
ATOM     17  C   UNL     1       2.990   6.065   0.344  1.00  0.00     0.282 C 
ENDBRANCH  14  16
ENDBRANCH   9  14
ENDBRANCH   8   9
ENDBRANCH   3   8
ENDBRANCH   1   2
BRANCH   1  18
ATOM     18  C   UNL     1       8.301   4.567  -6.440  1.00  0.00     0.251 C 
BRANCH  18  19
ATOM     19  C   UNL     1       9.764   4.945  -6.698  1.00  0.00     0.158 C 
BRANCH  19  20
ATOM     20  N   UNL     1      10.041   5.168  -8.121  1.00  0.00    -0.368 N 
ATOM     21  C   UNL     1      10.003   4.002  -8.996  1.00  0.00     0.117 C 
ATOM     22  C   UNL     1      10.125   6.434  -8.695  1.00  0.00     0.041 A 
ATOM     23  C   UNL     1      11.036   4.142 -10.095  1.00  0.00     0.032 C 
ATOM     24  C   UNL     1       9.878   7.601  -7.941  1.00  0.00     0.027 A 
ATOM     25  C   UNL     1      10.483   6.602 -10.061  1.00  0.00    -0.018 A 
ATOM     26  C   UNL     1      10.773   5.393 -10.959  1.00  0.00    -0.007 C 
ATOM     27  C   UNL     1       9.965   8.882  -8.491  1.00  0.00     0.012 A 
ATOM     28  C   UNL     1      10.554   7.900 -10.613  1.00  0.00     0.017 A 
ATOM     29  C   UNL     1      10.308   9.025  -9.828  1.00  0.00     0.005 A 
ATOM     30  C   UNL     1       9.562   5.159 -11.886  1.00  0.00     0.016 C 
ATOM     31  C   UNL     1      12.031   5.601 -11.835  1.00  0.00     0.016 C 
BRANCH  29  32
ATOM     32  C   UNL     1      10.438  10.383 -10.420  1.00  0.00     0.117 C 
ATOM     33  N   UNL     1      10.423  11.480  -9.714  1.00  0.00    -0.088 NA
BRANCH  32  34
ATOM     34  C   UNL     1      10.597  10.492 -11.910  1.00  0.00     0.004 A 
ATOM     35  C   UNL     1      11.834  10.291 -12.541  1.00  0.00     0.010 A 
ATOM     36  C   UNL     1       9.472  10.789 -12.694  1.00  0.00     0.010 A 
ATOM     37  C   UNL     1      11.944  10.398 -13.929  1.00  0.00     0.001 A 
ATOM     38  C   UNL     1       9.585  10.892 -14.083  1.00  0.00     0.001 A 
ATOM     39  C   UNL     1      10.820  10.699 -14.698  1.00  0.00     0.000 A 
ENDBRANCH  32  34
BRANCH  33  40
ATOM     40  O   UNL     1      10.274  11.237  -8.343  1.00  0.00    -0.410 OA
ATOM     41  H   UNL     1      10.249  11.994  -7.706  1.00  0.00     0.330 HD
ENDBRANCH  33  40
ENDBRANCH  29  32
ENDBRANCH  19  20
ENDBRANCH  18  19
ENDBRANCH   1  18
TORSDOF 13
