REMARK SMILES COC(=O)C(Cc1ccc(OCCN2CCC(C)(C)c3cc(/C(=N\O)c4ccccc4)ccc32)cc1)C(=O)OC
REMARK SMILES IDX 11 1 10 2 7 3 8 4 36 5 9 6 35 7 6 8 5 9 3 10 4 11 2 12 1 13
REMARK SMILES IDX 37 14 38 15 39 16 40 17 12 18 13 19 14 20 15 21 34 22 16 23
REMARK SMILES IDX 33 24 20 25 17 26 32 27 21 28 22 29 18 30 19 31 23 32 24 33
REMARK SMILES IDX 26 34 27 35 31 36 28 37 30 38 29 39 25 40
REMARK H PARENT 25 41
REMARK INDEX MAP 11 1 10 2 7 3 8 4 36 5 9 6 35 7 6 8 5 9 3 10 4 11 2 12 1 13
REMARK INDEX MAP 37 14 38 15 39 16 40 17 12 18 13 19 14 20 15 21 34 22 16 23
REMARK INDEX MAP 33 24 20 25 17 26 32 27 21 28 22 29 18 30 19 31 23 32 24 33
REMARK INDEX MAP 26 34 27 35 31 36 28 37 30 38 29 39 25 40 64 41
ROOT
ATOM      1  O   UNL     1       9.757   5.334  -7.857  1.00  0.00    -0.492 OA
ENDROOT
BRANCH   1   2
ATOM      2  C   UNL     1       8.588   5.586  -7.200  1.00  0.00     0.119 A 
ATOM      3  C   UNL     1       6.167   5.807  -5.776  1.00  0.00    -0.046 A 
ATOM      4  C   UNL     1       6.890   4.608  -5.767  1.00  0.00     0.007 A 
ATOM      5  C   UNL     1       6.677   6.897  -6.495  1.00  0.00     0.007 A 
ATOM      6  C   UNL     1       8.089   4.502  -6.474  1.00  0.00     0.047 A 
ATOM      7  C   UNL     1       7.882   6.788  -7.201  1.00  0.00     0.047 A 
BRANCH   3   8
ATOM      8  C   UNL     1       4.846   5.911  -5.047  1.00  0.00     0.062 C 
BRANCH   8   9
ATOM      9  C   UNL     1       4.871   6.940  -3.906  1.00  0.00     0.213 C 
BRANCH   9  10
ATOM     10  C   UNL     1       4.498   6.343  -2.568  1.00  0.00     0.320 C 
ATOM     11  O   UNL     1       5.303   5.905  -1.757  1.00  0.00    -0.251 OA
BRANCH  10  12
ATOM     12  O   UNL     1       3.149   6.260  -2.411  1.00  0.00    -0.468 OA
ATOM     13  C   UNL     1       2.650   4.926  -2.301  1.00  0.00     0.282 C 
ENDBRANCH  10  12
ENDBRANCH   9  10
BRANCH   9  14
ATOM     14  C   UNL     1       3.928   8.075  -4.226  1.00  0.00     0.320 C 
ATOM     15  O   UNL     1       2.972   7.990  -4.987  1.00  0.00    -0.251 OA
BRANCH  14  16
ATOM     16  O   UNL     1       4.294   9.201  -3.550  1.00  0.00    -0.468 OA
ATOM     17  C   UNL     1       5.196  10.043  -4.267  1.00  0.00     0.282 C 
ENDBRANCH  14  16
ENDBRANCH   9  14
ENDBRANCH   8   9
ENDBRANCH   3   8
ENDBRANCH   1   2
BRANCH   1  18
ATOM     18  C   UNL     1      10.369   6.421  -8.549  1.00  0.00     0.251 C 
BRANCH  18  19
ATOM     19  C   UNL     1      10.103   6.233 -10.048  1.00  0.00     0.158 C 
BRANCH  19  20
ATOM     20  N   UNL     1      10.270   7.478 -10.806  1.00  0.00    -0.368 N 
ATOM     21  C   UNL     1      10.078   7.407 -12.250  1.00  0.00     0.117 C 
ATOM     22  C   UNL     1      10.387   8.729 -10.206  1.00  0.00     0.041 A 
ATOM     23  C   UNL     1      11.019   8.368 -12.947  1.00  0.00     0.032 C 
ATOM     24  C   UNL     1      10.284   8.887  -8.808  1.00  0.00     0.027 A 
ATOM     25  C   UNL     1      10.636   9.896 -10.978  1.00  0.00    -0.018 A 
ATOM     26  C   UNL     1      10.765   9.824 -12.505  1.00  0.00    -0.007 C 
ATOM     27  C   UNL     1      10.408  10.129  -8.181  1.00  0.00     0.012 A 
ATOM     28  C   UNL     1      10.744  11.151 -10.339  1.00  0.00     0.017 A 
ATOM     29  C   UNL     1      10.642  11.258  -8.953  1.00  0.00     0.005 A 
ATOM     30  C   UNL     1       9.466  10.360 -13.141  1.00  0.00     0.016 C 
ATOM     31  C   UNL     1      11.954  10.663 -13.033  1.00  0.00     0.016 C 
BRANCH  29  32
ATOM     32  C   UNL     1      10.811  12.583  -8.299  1.00  0.00     0.117 C 
ATOM     33  N   UNL     1      11.785  12.860  -7.476  1.00  0.00    -0.088 NA
BRANCH  32  34
ATOM     34  C   UNL     1       9.805  13.655  -8.606  1.00  0.00     0.004 A 
ATOM     35  C   UNL     1       9.368  14.563  -7.629  1.00  0.00     0.010 A 
ATOM     36  C   UNL     1       9.300  13.762  -9.911  1.00  0.00     0.010 A 
ATOM     37  C   UNL     1       8.433  15.549  -7.951  1.00  0.00     0.001 A 
ATOM     38  C   UNL     1       8.368  14.752 -10.230  1.00  0.00     0.001 A 
ATOM     39  C   UNL     1       7.933  15.643  -9.250  1.00  0.00     0.000 A 
ENDBRANCH  32  34
BRANCH  33  40
ATOM     40  O   UNL     1      12.651  11.777  -7.281  1.00  0.00    -0.410 OA
ATOM     41  H   UNL     1      13.429  11.868  -6.676  1.00  0.00     0.330 HD
ENDBRANCH  33  40
ENDBRANCH  29  32
ENDBRANCH  19  20
ENDBRANCH  18  19
ENDBRANCH   1  18
TORSDOF 13
