REMARK SMILES N=C(N)c1cccc(N2CCCCN(C3CCN(S(=O)(=O)c4ccc(N)cc4)CC3)C2=O)c1
REMARK SMILES IDX 15 1 16 2 17 3 18 4 29 5 30 6 14 7 9 8 10 9 31 10 11 11
REMARK SMILES IDX 32 12 12 13 13 14 8 15 4 16 5 17 33 18 6 19 7 20 2 21 1 22
REMARK SMILES IDX 3 23 19 27 20 28 21 29 22 30 23 31 28 32 24 33 27 34 25 35
REMARK SMILES IDX 26 36
REMARK H PARENT 1 24 3 25 3 26 26 37 26 38
REMARK INDEX MAP 15 1 16 2 17 3 18 4 29 5 30 6 14 7 9 8 10 9 31 10 11 11 32 12
REMARK INDEX MAP 12 13 13 14 8 15 4 16 5 17 33 18 6 19 7 20 2 21 1 22 3 23
REMARK INDEX MAP 34 24 35 25 36 26 19 27 20 28 21 29 22 30 23 31 28 32 24 33
REMARK INDEX MAP 27 34 25 35 26 36 55 37 56 38
ROOT
ATOM      1  C   UNL     1      -4.011  12.300  21.611  1.00  0.00     0.089 C 
ATOM      2  C   UNL     1      -3.983  13.271  20.421  1.00  0.00     0.042 C 
ATOM      3  C   UNL     1      -4.270  12.547  19.107  1.00  0.00     0.104 C 
ATOM      4  N   UNL     1      -5.325  11.518  19.257  1.00  0.00    -0.198 NA
ATOM      5  C   UNL     1      -6.184  11.679  20.446  1.00  0.00     0.104 C 
ATOM      6  C   UNL     1      -5.320  11.494  21.688  1.00  0.00     0.042 C 
ENDROOT
BRANCH   1   7
ATOM      7  N   UNL     1      -3.687  12.958  22.891  1.00  0.00    -0.321 N 
ATOM      8  N   UNL     1      -2.967  11.877  24.855  1.00  0.00    -0.294 N 
ATOM      9  C   UNL     1      -4.276  12.233  25.401  1.00  0.00     0.127 C 
ATOM     10  C   UNL     1      -2.606  12.504  23.656  1.00  0.00     0.324 C 
ATOM     11  C   UNL     1      -4.479  13.729  25.581  1.00  0.00     0.024 C 
ATOM     12  O   UNL     1      -1.442  12.636  23.281  1.00  0.00    -0.248 OA
ATOM     13  C   UNL     1      -5.127  14.369  24.354  1.00  0.00     0.023 C 
ATOM     14  C   UNL     1      -4.235  14.298  23.121  1.00  0.00     0.122 C 
BRANCH   8  15
ATOM     15  C   UNL     1      -2.178  10.821  25.436  1.00  0.00     0.046 A 
ATOM     16  C   UNL     1      -1.906   9.024  27.072  1.00  0.00     0.018 A 
ATOM     17  C   UNL     1      -0.654   8.701  26.553  1.00  0.00     0.012 A 
ATOM     18  C   UNL     1      -2.661  10.069  26.520  1.00  0.00     0.038 A 
ATOM     19  C   UNL     1      -0.170   9.412  25.463  1.00  0.00     0.003 A 
ATOM     20  C   UNL     1      -0.925  10.455  24.909  1.00  0.00     0.026 A 
BRANCH  16  21
ATOM     21  C   UNL     1      -2.450   8.236  28.208  1.00  0.00     0.122 C 
ATOM     22  N   UNL     1      -1.757   7.313  28.795  1.00  0.00    -0.284 NA
ATOM     23  N   UNL     1      -3.702   8.477  28.662  1.00  0.00    -0.384 N 
ATOM     24  H   UNL     1      -0.801   7.104  28.474  1.00  0.00     0.189 HD
ATOM     25  H   UNL     1      -4.280   9.204  28.217  1.00  0.00     0.158 HD
ATOM     26  H   UNL     1      -4.077   7.933  29.452  1.00  0.00     0.158 HD
ENDBRANCH  16  21
ENDBRANCH   8  15
ENDBRANCH   1   7
BRANCH   4  27
ATOM     27  S   UNL     1      -6.044  10.936  17.833  1.00  0.00     0.243 S 
ATOM     28  O   UNL     1      -5.164  11.238  16.724  1.00  0.00    -0.207 OA
ATOM     29  O   UNL     1      -7.426  11.372  17.826  1.00  0.00    -0.207 OA
BRANCH  27  30
ATOM     30  C   UNL     1      -6.038   9.170  18.052  1.00  0.00     0.082 A 
ATOM     31  C   UNL     1      -5.138   8.386  17.326  1.00  0.00     0.024 A 
ATOM     32  C   UNL     1      -6.980   8.569  18.889  1.00  0.00     0.024 A 
ATOM     33  C   UNL     1      -5.161   6.996  17.472  1.00  0.00     0.027 A 
ATOM     34  C   UNL     1      -6.996   7.178  19.021  1.00  0.00     0.027 A 
ATOM     35  C   UNL     1      -6.094   6.379  18.309  1.00  0.00     0.031 A 
BRANCH  35  36
ATOM     36  N   UNL     1      -6.100   5.007  18.466  1.00  0.00    -0.399 N 
ATOM     37  H   UNL     1      -6.792   4.563  19.086  1.00  0.00     0.156 HD
ATOM     38  H   UNL     1      -5.412   4.428  17.963  1.00  0.00     0.156 HD
ENDBRANCH  35  36
ENDBRANCH  27  30
ENDBRANCH   4  27
TORSDOF 6
