MODEL 6
REMARK VINA RESULT:    -8.104      4.614      7.021
REMARK INTER + INTRA:         -14.566
REMARK INTER:                 -13.583
REMARK INTRA:                  -0.984
REMARK UNBOUND:                -0.541
REMARK SMILES CCCn1c(CCCc2ccc(OC(C)(C)C(=O)O)cc2)nn(Cc2cccc(OC)c2)c1=O
REMARK SMILES IDX 7 1 6 2 5 3 4 4 33 5 22 6 23 7 34 8 3 9 2 10 1 11 24 12
REMARK SMILES IDX 25 13 26 14 32 15 27 16 29 17 28 18 30 19 31 20 8 21 9 22
REMARK SMILES IDX 10 23 21 24 11 25 20 26 12 27 13 28 14 29 15 30 16 31 17 32
REMARK SMILES IDX 18 33 19 34
REMARK H PARENT 19 35
ROOT
ATOM      1  C   UNL     1       9.215   4.414  -6.521  1.00  0.00     0.013 C 
ENDROOT
BRANCH   1   2
ATOM      2  C   UNL     1       8.295   3.686  -5.539  1.00  0.00     0.078 C 
BRANCH   2   3
ATOM      3  C   UNL     1       9.002   2.825  -4.526  1.00  0.00     0.133 A 
ATOM      4  N   UNL     1       8.992   3.137  -3.212  1.00  0.00    -0.279 N 
ATOM      5  C   UNL     1       9.771   2.186  -2.595  1.00  0.00     0.346 A 
ATOM      6  N   UNL     1       9.689   1.760  -4.825  1.00  0.00    -0.155 NA
ATOM      7  N   UNL     1      10.165   1.321  -3.611  1.00  0.00    -0.209 N 
ATOM      8  O   UNL     1      10.058   2.121  -1.409  1.00  0.00    -0.246 OA
BRANCH   4   9
ATOM      9  C   UNL     1       8.396   4.265  -2.522  1.00  0.00     0.128 C 
BRANCH   9  10
ATOM     10  C   UNL     1       7.066   3.921  -1.846  1.00  0.00     0.019 C 
ATOM     11  C   UNL     1       6.023   5.020  -1.983  1.00  0.00     0.006 C 
ENDBRANCH   9  10
ENDBRANCH   4   9
BRANCH   7  12
ATOM     12  C   UNL     1      11.092   0.225  -3.473  1.00  0.00     0.185 C 
BRANCH  12  13
ATOM     13  C   UNL     1      12.529   0.685  -3.473  1.00  0.00    -0.023 A 
ATOM     14  C   UNL     1      13.322   0.542  -4.618  1.00  0.00     0.006 A 
ATOM     15  C   UNL     1      13.084   1.293  -2.338  1.00  0.00     0.052 A 
ATOM     16  C   UNL     1      14.646   0.977  -4.616  1.00  0.00     0.004 A 
ATOM     17  C   UNL     1      14.414   1.729  -2.328  1.00  0.00     0.119 A 
ATOM     18  C   UNL     1      15.194   1.566  -3.472  1.00  0.00     0.046 A 
BRANCH  17  19
ATOM     19  O   UNL     1      14.823   2.291  -1.149  1.00  0.00    -0.497 OA
ATOM     20  C   UNL     1      16.224   2.372  -0.928  1.00  0.00     0.278 C 
ENDBRANCH  17  19
ENDBRANCH  12  13
ENDBRANCH   7  12
ENDBRANCH   2   3
ENDBRANCH   1   2
BRANCH   1  21
ATOM     21  C   UNL     1       9.332   3.756  -7.903  1.00  0.00     0.036 C 
BRANCH  21  22
ATOM     22  C   UNL     1       9.991   4.623  -8.947  1.00  0.00    -0.048 A 
ATOM     23  C   UNL     1      10.333   5.946  -8.653  1.00  0.00     0.007 A 
ATOM     24  C   UNL     1      10.270   4.128 -10.225  1.00  0.00     0.007 A 
ATOM     25  C   UNL     1      10.950   6.746  -9.618  1.00  0.00     0.047 A 
ATOM     26  C   UNL     1      10.888   4.933 -11.190  1.00  0.00     0.047 A 
ATOM     27  C   UNL     1      11.230   6.249 -10.894  1.00  0.00     0.121 A 
BRANCH  27  28
ATOM     28  O   UNL     1      11.833   7.154 -11.717  1.00  0.00    -0.476 OA
BRANCH  28  29
ATOM     29  C   UNL     1      11.094   8.065 -12.533  1.00  0.00     0.199 C 
ATOM     30  C   UNL     1       9.951   7.328 -13.249  1.00  0.00     0.069 C 
ATOM     31  C   UNL     1      12.090   8.519 -13.617  1.00  0.00     0.069 C 
BRANCH  29  32
ATOM     32  C   UNL     1      10.593   9.356 -11.853  1.00  0.00     0.347 C 
ATOM     33  O   UNL     1       9.665   9.449 -11.063  1.00  0.00    -0.248 OA
BRANCH  32  34
ATOM     34  O   UNL     1      11.294  10.457 -12.199  1.00  0.00    -0.478 OA
ATOM     35  H   UNL     1      12.059  10.116 -12.707  1.00  0.00     0.296 HD
ENDBRANCH  32  34
ENDBRANCH  29  32
ENDBRANCH  28  29
ENDBRANCH  27  28
ENDBRANCH  21  22
ENDBRANCH   1  21
TORSDOF 13
ENDMDL
