MODEL 3
REMARK minimizedAffinity -8.77860355
REMARK CNNscore 0.952839851
REMARK CNNaffinity 7.25518036
REMARK SMILES CC(C)n1nc(-c2ccc3oc(N)nc3c2)c2c(N)ncnc21
REMARK SMILES IDX 4 1 5 2 6 3 17 4 18 5 20 6 21 7 22 8 23 9 2 10 1 11 3 12
REMARK SMILES IDX 7 13 8 14 16 15 9 16 15 17 10 18 14 19 11 20 12 21 13 22
REMARK SMILES IDX 19 25
REMARK H PARENT 13 23 13 24 19 26 19 27
ROOT
ATOM      1  N   UNL     1      54.521   0.841 -45.212  1.00  0.00    -0.244 N 
ATOM      2  N   UNL     1      54.367   0.980 -46.547  1.00  0.00    -0.170 NA
ATOM      3  C   UNL     1      53.148   0.471 -46.797  1.00  0.00     0.106 A 
ATOM      4  C   UNL     1      52.499   0.061 -45.594  1.00  0.00     0.089 A 
ATOM      5  C   UNL     1      51.267  -0.470 -45.189  1.00  0.00     0.138 A 
ATOM      6  N   UNL     1      51.074  -0.733 -43.879  1.00  0.00    -0.219 NA
ATOM      7  C   UNL     1      52.070  -0.468 -43.014  1.00  0.00     0.226 A 
ATOM      8  N   UNL     1      53.275   0.058 -43.281  1.00  0.00    -0.217 NA
ATOM      9  C   UNL     1      53.426   0.302 -44.594  1.00  0.00     0.164 A 
ENDROOT
BRANCH   1  10
ATOM     10  C   UNL     1      55.772   1.268 -44.596  1.00  0.00     0.103 C 
ATOM     11  C   UNL     1      55.566   1.773 -43.167  1.00  0.00     0.033 C 
ATOM     12  C   UNL     1      56.516   2.290 -45.455  1.00  0.00     0.033 C 
ENDBRANCH   1  10
BRANCH   3  13
ATOM     13  C   UNL     1      52.657   0.411 -48.174  1.00  0.00     0.005 A 
ATOM     14  C   UNL     1      53.440   0.951 -49.213  1.00  0.00     0.014 A 
ATOM     15  C   UNL     1      51.424  -0.206 -48.462  1.00  0.00     0.043 A 
ATOM     16  C   UNL     1      53.025   0.917 -50.551  1.00  0.00     0.050 A 
ATOM     17  C   UNL     1      50.995  -0.244 -49.796  1.00  0.00     0.112 A 
ATOM     18  C   UNL     1      51.798   0.311 -50.779  1.00  0.00     0.156 A 
ATOM     19  N   UNL     1      49.859  -0.761 -50.364  1.00  0.00    -0.194 NA
ATOM     20  O   UNL     1      51.164   0.144 -51.975  1.00  0.00    -0.424 OA
ATOM     21  C   UNL     1      50.007  -0.496 -51.640  1.00  0.00     0.292 A 
BRANCH  21  22
ATOM     22  N   UNL     1      49.187  -0.794 -52.647  1.00  0.00    -0.353 N 
ATOM     23  H   UNL     1      48.523  -1.535 -52.454  1.00  0.00     0.161 HD
ATOM     24  H   UNL     1      49.611  -0.857 -53.564  1.00  0.00     0.161 HD
ENDBRANCH  21  22
ENDBRANCH   3  13
BRANCH   5  25
ATOM     25  N   UNL     1      50.198  -0.735 -46.031  1.00  0.00    -0.383 N 
ATOM     26  H   UNL     1      50.114  -0.131 -46.838  1.00  0.00     0.158 HD
ATOM     27  H   UNL     1      49.348  -0.875 -45.496  1.00  0.00     0.158 HD
ENDBRANCH   5  25
TORSDOF 4
ENDMDL
