MODEL 1
REMARK VINA RESULT:    -8.785      0.000      0.000
REMARK INTER + INTRA:         -11.536
REMARK INTER:                 -11.867
REMARK INTRA:                   0.330
REMARK UNBOUND:                 0.330
REMARK SMILES C[C@@H]1OCC[C@@H]1N(C)S(=O)(=O)C[C@H]1C[C@@H](N(C)c2ncnc3[nH]ccc23)C1
REMARK SMILES IDX 12 1 9 2 10 3 11 4 7 5 8 6 6 7 2 8 3 9 4 10 5 11 1 12 13 13
REMARK SMILES IDX 14 14 27 15 15 16 16 17 17 18 18 19 19 20 26 21 20 22 25 23
REMARK SMILES IDX 22 24 21 25 24 26 23 27
REMARK H PARENT 23 28
ROOT
ATOM      1  C   UNL     1       4.281 -21.191  20.782  1.00  0.00     0.158 C 
ENDROOT
BRANCH   1   2
ATOM      2  S   UNL     1       5.465 -19.952  21.317  1.00  0.00     0.214 S 
ATOM      3  O   UNL     1       6.735 -20.250  20.688  1.00  0.00    -0.212 OA
ATOM      4  O   UNL     1       5.359 -19.810  22.752  1.00  0.00    -0.212 OA
BRANCH   2   5
ATOM      5  N   UNL     1       4.840 -18.527  20.611  1.00  0.00    -0.199 NA
ATOM      6  C   UNL     1       5.598 -17.290  20.897  1.00  0.00     0.124 C 
BRANCH   5   7
ATOM      7  C   UNL     1       3.355 -18.392  20.546  1.00  0.00     0.103 C 
ATOM      8  C   UNL     1       2.755 -18.488  19.130  1.00  0.00     0.133 C 
ATOM      9  O   UNL     1       1.484 -17.794  19.188  1.00  0.00    -0.377 OA
ATOM     10  C   UNL     1       1.424 -17.050  20.408  1.00  0.00     0.162 C 
ATOM     11  C   UNL     1       2.820 -17.043  20.989  1.00  0.00     0.051 C 
ATOM     12  C   UNL     1       3.575 -17.824  18.025  1.00  0.00     0.040 C 
ENDBRANCH   5   7
ENDBRANCH   2   5
ENDBRANCH   1   2
BRANCH   1  13
ATOM     13  C   UNL     1       4.959 -22.545  20.662  1.00  0.00     0.009 C 
ATOM     14  C   UNL     1       5.009 -23.436  21.930  1.00  0.00     0.029 C 
ATOM     15  C   UNL     1       4.094 -23.664  20.033  1.00  0.00     0.029 C 
ATOM     16  C   UNL     1       4.800 -24.662  20.997  1.00  0.00     0.084 C 
BRANCH  16  17
ATOM     17  N   UNL     1       3.933 -25.668  21.542  1.00  0.00    -0.356 N 
ATOM     18  C   UNL     1       2.484 -25.543  21.410  1.00  0.00     0.145 C 
BRANCH  17  19
ATOM     19  C   UNL     1       4.327 -26.904  22.103  1.00  0.00     0.141 A 
ATOM     20  N   UNL     1       3.552 -28.002  21.855  1.00  0.00    -0.219 NA
ATOM     21  C   UNL     1       5.478 -27.104  22.901  1.00  0.00     0.061 A 
ATOM     22  C   UNL     1       3.880 -29.187  22.404  1.00  0.00     0.226 A 
ATOM     23  C   UNL     1       6.591 -26.331  23.352  1.00  0.00     0.033 A 
ATOM     24  C   UNL     1       5.686 -28.387  23.393  1.00  0.00     0.142 A 
ATOM     25  N   UNL     1       4.925 -29.470  23.193  1.00  0.00    -0.218 NA
ATOM     26  C   UNL     1       7.400 -27.143  24.119  1.00  0.00     0.085 A 
ATOM     27  N   UNL     1       6.831 -28.388  24.140  1.00  0.00    -0.346 N 
ATOM     28  H   UNL     1       7.191 -29.204  24.613  1.00  0.00     0.167 HD
ENDBRANCH  17  19
ENDBRANCH  16  17
ENDBRANCH   1  13
TORSDOF 6
ENDMDL
MODEL 2
REMARK VINA RESULT:    -8.609      1.142      2.416
REMARK INTER + INTRA:         -11.299
REMARK INTER:                 -11.557
REMARK INTRA:                   0.258
REMARK UNBOUND:                 0.330
REMARK SMILES C[C@@H]1OCC[C@@H]1N(C)S(=O)(=O)C[C@H]1C[C@@H](N(C)c2ncnc3[nH]ccc23)C1
REMARK SMILES IDX 12 1 9 2 10 3 11 4 7 5 8 6 6 7 2 8 3 9 4 10 5 11 1 12 13 13
REMARK SMILES IDX 14 14 27 15 15 16 16 17 17 18 18 19 19 20 26 21 20 22 25 23
REMARK SMILES IDX 22 24 21 25 24 26 23 27
REMARK H PARENT 23 28
ROOT
ATOM      1  C   UNL     1       5.908 -20.831  21.175  1.00  0.00     0.158 C 
ENDROOT
BRANCH   1   2
ATOM      2  S   UNL     1       5.692 -19.297  22.083  1.00  0.00     0.214 S 
ATOM      3  O   UNL     1       7.001 -18.832  22.489  1.00  0.00    -0.212 OA
ATOM      4  O   UNL     1       4.635 -19.486  23.052  1.00  0.00    -0.212 OA
BRANCH   2   5
ATOM      5  N   UNL     1       5.100 -18.243  20.876  1.00  0.00    -0.199 NA
ATOM      6  C   UNL     1       5.839 -16.971  20.722  1.00  0.00     0.124 C 
BRANCH   5   7
ATOM      7  C   UNL     1       3.620 -18.173  20.696  1.00  0.00     0.103 C 
ATOM      8  C   UNL     1       3.094 -18.785  19.384  1.00  0.00     0.133 C 
ATOM      9  O   UNL     1       1.820 -18.145  19.128  1.00  0.00    -0.377 OA
ATOM     10  C   UNL     1       1.694 -17.013  19.992  1.00  0.00     0.162 C 
ATOM     11  C   UNL     1       3.058 -16.766  20.596  1.00  0.00     0.051 C 
ATOM     12  C   UNL     1       3.968 -18.547  18.154  1.00  0.00     0.040 C 
ENDBRANCH   5   7
ENDBRANCH   2   5
ENDBRANCH   1   2
BRANCH   1  13
ATOM     13  C   UNL     1       5.128 -21.949  21.844  1.00  0.00     0.009 C 
ATOM     14  C   UNL     1       5.051 -23.310  21.104  1.00  0.00     0.029 C 
ATOM     15  C   UNL     1       5.887 -22.711  22.957  1.00  0.00     0.029 C 
ATOM     16  C   UNL     1       5.139 -23.997  22.497  1.00  0.00     0.084 C 
BRANCH  16  17
ATOM     17  N   UNL     1       5.946 -25.185  22.511  1.00  0.00    -0.356 N 
ATOM     18  C   UNL     1       7.402 -25.086  22.546  1.00  0.00     0.145 C 
BRANCH  17  19
ATOM     19  C   UNL     1       5.483 -26.514  22.640  1.00  0.00     0.141 A 
ATOM     20  N   UNL     1       6.252 -27.400  23.341  1.00  0.00    -0.219 NA
ATOM     21  C   UNL     1       4.269 -27.007  22.107  1.00  0.00     0.061 A 
ATOM     22  C   UNL     1       5.857 -28.682  23.452  1.00  0.00     0.226 A 
ATOM     23  C   UNL     1       3.141 -26.484  21.405  1.00  0.00     0.033 A 
ATOM     24  C   UNL     1       3.996 -28.354  22.307  1.00  0.00     0.142 A 
ATOM     25  N   UNL     1       4.747 -29.250  22.960  1.00  0.00    -0.218 NA
ATOM     26  C   UNL     1       2.257 -27.517  21.173  1.00  0.00     0.085 A 
ATOM     27  N   UNL     1       2.797 -28.650  21.722  1.00  0.00    -0.346 N 
ATOM     28  H   UNL     1       2.383 -29.571  21.724  1.00  0.00     0.167 HD
ENDBRANCH  17  19
ENDBRANCH  16  17
ENDBRANCH   1  13
TORSDOF 6
ENDMDL
MODEL 3
REMARK VINA RESULT:    -8.445      2.415      4.062
REMARK INTER + INTRA:         -11.078
REMARK INTER:                 -11.036
REMARK INTRA:                  -0.042
REMARK UNBOUND:                 0.330
REMARK SMILES C[C@@H]1OCC[C@@H]1N(C)S(=O)(=O)C[C@H]1C[C@@H](N(C)c2ncnc3[nH]ccc23)C1
REMARK SMILES IDX 12 1 9 2 10 3 11 4 7 5 8 6 6 7 2 8 3 9 4 10 5 11 1 12 13 13
REMARK SMILES IDX 14 14 27 15 15 16 16 17 17 18 18 19 19 20 26 21 20 22 25 23
REMARK SMILES IDX 22 24 21 25 24 26 23 27
REMARK H PARENT 23 28
ROOT
ATOM      1  C   UNL     1       4.732 -21.007  21.158  1.00  0.00     0.158 C 
ENDROOT
BRANCH   1   2
ATOM      2  S   UNL     1       5.871 -19.713  20.653  1.00  0.00     0.214 S 
ATOM      3  O   UNL     1       5.357 -18.452  21.145  1.00  0.00    -0.212 OA
ATOM      4  O   UNL     1       6.178 -19.898  19.252  1.00  0.00    -0.212 OA
BRANCH   2   5
ATOM      5  N   UNL     1       7.277 -20.102  21.543  1.00  0.00    -0.199 NA
ATOM      6  C   UNL     1       7.423 -19.406  22.839  1.00  0.00     0.124 C 
BRANCH   5   7
ATOM      7  C   UNL     1       8.533 -20.330  20.769  1.00  0.00     0.103 C 
ATOM      8  C   UNL     1       9.058 -21.779  20.793  1.00  0.00     0.133 C 
ATOM      9  O   UNL     1      10.477 -21.693  20.518  1.00  0.00    -0.377 OA
ATOM     10  C   UNL     1      10.885 -20.326  20.635  1.00  0.00     0.162 C 
ATOM     11  C   UNL     1       9.746 -19.582  21.293  1.00  0.00     0.051 C 
ATOM     12  C   UNL     1       8.905 -22.508  22.126  1.00  0.00     0.040 C 
ENDBRANCH   5   7
ENDBRANCH   2   5
ENDBRANCH   1   2
BRANCH   1  13
ATOM     13  C   UNL     1       5.389 -22.369  21.008  1.00  0.00     0.009 C 
ATOM     14  C   UNL     1       5.296 -23.345  22.209  1.00  0.00     0.029 C 
ATOM     15  C   UNL     1       4.565 -23.417  20.222  1.00  0.00     0.029 C 
ATOM     16  C   UNL     1       5.151 -24.498  21.176  1.00  0.00     0.084 C 
BRANCH  16  17
ATOM     17  N   UNL     1       4.213 -25.514  21.564  1.00  0.00    -0.356 N 
ATOM     18  C   UNL     1       2.794 -25.362  21.257  1.00  0.00     0.145 C 
BRANCH  17  19
ATOM     19  C   UNL     1       4.522 -26.778  22.114  1.00  0.00     0.141 A 
ATOM     20  N   UNL     1       3.696 -27.827  21.826  1.00  0.00    -0.219 NA
ATOM     21  C   UNL     1       5.636 -27.054  22.942  1.00  0.00     0.061 A 
ATOM     22  C   UNL     1       3.942 -29.037  22.364  1.00  0.00     0.226 A 
ATOM     23  C   UNL     1       6.776 -26.350  23.437  1.00  0.00     0.033 A 
ATOM     24  C   UNL     1       5.759 -28.353  23.417  1.00  0.00     0.142 A 
ATOM     25  N   UNL     1       4.946 -29.390  23.177  1.00  0.00    -0.218 NA
ATOM     26  C   UNL     1       7.516 -27.217  24.214  1.00  0.00     0.085 A 
ATOM     27  N   UNL     1       6.879 -28.429  24.198  1.00  0.00    -0.346 N 
ATOM     28  H   UNL     1       7.180 -29.271  24.667  1.00  0.00     0.167 HD
ENDBRANCH  17  19
ENDBRANCH  16  17
ENDBRANCH   1  13
TORSDOF 6
ENDMDL
MODEL 4
REMARK VINA RESULT:    -8.229      1.537      2.708
REMARK INTER + INTRA:         -10.785
REMARK INTER:                 -11.026
REMARK INTRA:                   0.241
REMARK UNBOUND:                 0.330
REMARK SMILES C[C@@H]1OCC[C@@H]1N(C)S(=O)(=O)C[C@H]1C[C@@H](N(C)c2ncnc3[nH]ccc23)C1
REMARK SMILES IDX 12 1 9 2 10 3 11 4 7 5 8 6 6 7 2 8 3 9 4 10 5 11 1 12 13 13
REMARK SMILES IDX 14 14 27 15 15 16 16 17 17 18 18 19 19 20 26 21 20 22 25 23
REMARK SMILES IDX 22 24 21 25 24 26 23 27
REMARK H PARENT 23 28
ROOT
ATOM      1  C   UNL     1       5.018 -20.446  20.833  1.00  0.00     0.158 C 
ENDROOT
BRANCH   1   2
ATOM      2  S   UNL     1       5.110 -18.877  21.701  1.00  0.00     0.214 S 
ATOM      3  O   UNL     1       6.508 -18.557  21.894  1.00  0.00    -0.212 OA
ATOM      4  O   UNL     1       4.194 -18.921  22.819  1.00  0.00    -0.212 OA
BRANCH   2   5
ATOM      5  N   UNL     1       4.466 -17.790  20.551  1.00  0.00    -0.199 NA
ATOM      6  C   UNL     1       5.219 -16.530  20.374  1.00  0.00     0.124 C 
BRANCH   5   7
ATOM      7  C   UNL     1       2.979 -17.689  20.465  1.00  0.00     0.103 C 
ATOM      8  C   UNL     1       2.368 -18.191  19.143  1.00  0.00     0.133 C 
ATOM      9  O   UNL     1       1.092 -17.517  19.012  1.00  0.00    -0.377 OA
ATOM     10  C   UNL     1       1.035 -16.454  19.967  1.00  0.00     0.162 C 
ATOM     11  C   UNL     1       2.436 -16.272  20.507  1.00  0.00     0.051 C 
ATOM     12  C   UNL     1       3.173 -17.868  17.886  1.00  0.00     0.040 C 
ENDBRANCH   5   7
ENDBRANCH   2   5
ENDBRANCH   1   2
BRANCH   1  13
ATOM     13  C   UNL     1       4.902 -21.588  21.828  1.00  0.00     0.009 C 
ATOM     14  C   UNL     1       5.124 -23.028  21.294  1.00  0.00     0.029 C 
ATOM     15  C   UNL     1       6.153 -21.829  22.707  1.00  0.00     0.029 C 
ATOM     16  C   UNL     1       5.824 -23.349  22.645  1.00  0.00     0.084 C 
BRANCH  16  17
ATOM     17  N   UNL     1       6.975 -24.198  22.518  1.00  0.00    -0.356 N 
ATOM     18  C   UNL     1       8.082 -23.811  21.648  1.00  0.00     0.145 C 
BRANCH  17  19
ATOM     19  C   UNL     1       7.252 -25.359  23.274  1.00  0.00     0.141 A 
ATOM     20  N   UNL     1       8.309 -25.330  24.139  1.00  0.00    -0.219 NA
ATOM     21  C   UNL     1       6.510 -26.562  23.217  1.00  0.00     0.061 A 
ATOM     22  C   UNL     1       8.622 -26.431  24.847  1.00  0.00     0.226 A 
ATOM     23  C   UNL     1       5.332 -27.039  22.566  1.00  0.00     0.033 A 
ATOM     24  C   UNL     1       6.953 -27.612  24.011  1.00  0.00     0.142 A 
ATOM     25  N   UNL     1       8.004 -27.620  24.841  1.00  0.00    -0.218 NA
ATOM     26  C   UNL     1       5.125 -28.348  22.948  1.00  0.00     0.085 A 
ATOM     27  N   UNL     1       6.125 -28.683  23.821  1.00  0.00    -0.346 N 
ATOM     28  H   UNL     1       6.245 -29.573  24.283  1.00  0.00     0.167 HD
ENDBRANCH  17  19
ENDBRANCH  16  17
ENDBRANCH   1  13
TORSDOF 6
ENDMDL
MODEL 5
REMARK VINA RESULT:    -8.175      1.780      3.060
REMARK INTER + INTRA:         -10.713
REMARK INTER:                 -10.818
REMARK INTRA:                   0.105
REMARK UNBOUND:                 0.330
REMARK SMILES C[C@@H]1OCC[C@@H]1N(C)S(=O)(=O)C[C@H]1C[C@@H](N(C)c2ncnc3[nH]ccc23)C1
REMARK SMILES IDX 12 1 9 2 10 3 11 4 7 5 8 6 6 7 2 8 3 9 4 10 5 11 1 12 13 13
REMARK SMILES IDX 14 14 27 15 15 16 16 17 17 18 18 19 19 20 26 21 20 22 25 23
REMARK SMILES IDX 22 24 21 25 24 26 23 27
REMARK H PARENT 23 28
ROOT
ATOM      1  C   UNL     1       6.478 -20.008  21.470  1.00  0.00     0.158 C 
ENDROOT
BRANCH   1   2
ATOM      2  S   UNL     1       5.278 -18.697  21.733  1.00  0.00     0.214 S 
ATOM      3  O   UNL     1       5.973 -17.432  21.632  1.00  0.00    -0.212 OA
ATOM      4  O   UNL     1       4.493 -19.026  22.901  1.00  0.00    -0.212 OA
BRANCH   2   5
ATOM      5  N   UNL     1       4.262 -18.859  20.369  1.00  0.00    -0.199 NA
ATOM      6  C   UNL     1       4.410 -20.120  19.611  1.00  0.00     0.124 C 
BRANCH   5   7
ATOM      7  C   UNL     1       3.999 -17.630  19.563  1.00  0.00     0.103 C 
ATOM      8  C   UNL     1       2.859 -16.738  20.090  1.00  0.00     0.133 C 
ATOM      9  O   UNL     1       2.389 -15.978  18.950  1.00  0.00    -0.377 OA
ATOM     10  C   UNL     1       2.934 -16.553  17.759  1.00  0.00     0.162 C 
ATOM     11  C   UNL     1       3.521 -17.891  18.146  1.00  0.00     0.051 C 
ATOM     12  C   UNL     1       1.653 -17.484  20.657  1.00  0.00     0.040 C 
ENDBRANCH   5   7
ENDBRANCH   2   5
ENDBRANCH   1   2
BRANCH   1  13
ATOM     13  C   UNL     1       6.332 -21.073  22.543  1.00  0.00     0.009 C 
ATOM     14  C   UNL     1       5.602 -22.385  22.154  1.00  0.00     0.029 C 
ATOM     15  C   UNL     1       7.582 -21.955  22.775  1.00  0.00     0.029 C 
ATOM     16  C   UNL     1       6.614 -23.139  23.064  1.00  0.00     0.084 C 
BRANCH  16  17
ATOM     17  N   UNL     1       7.049 -24.399  22.532  1.00  0.00    -0.356 N 
ATOM     18  C   UNL     1       8.301 -24.492  21.787  1.00  0.00     0.145 C 
BRANCH  17  19
ATOM     19  C   UNL     1       6.457 -25.661  22.767  1.00  0.00     0.141 A 
ATOM     20  N   UNL     1       7.153 -26.573  23.508  1.00  0.00    -0.219 NA
ATOM     21  C   UNL     1       5.182 -26.059  22.301  1.00  0.00     0.061 A 
ATOM     22  C   UNL     1       6.633 -27.797  23.720  1.00  0.00     0.226 A 
ATOM     23  C   UNL     1       4.091 -25.469  21.593  1.00  0.00     0.033 A 
ATOM     24  C   UNL     1       4.779 -27.354  22.603  1.00  0.00     0.142 A 
ATOM     25  N   UNL     1       5.455 -28.277  23.298  1.00  0.00    -0.218 NA
ATOM     26  C   UNL     1       3.099 -26.418  21.457  1.00  0.00     0.085 A 
ATOM     27  N   UNL     1       3.537 -27.561  22.071  1.00  0.00    -0.346 N 
ATOM     28  H   UNL     1       3.032 -28.432  22.148  1.00  0.00     0.167 HD
ENDBRANCH  17  19
ENDBRANCH  16  17
ENDBRANCH   1  13
TORSDOF 6
ENDMDL
MODEL 6
REMARK VINA RESULT:    -8.112      2.170      3.484
REMARK INTER + INTRA:         -10.627
REMARK INTER:                 -10.760
REMARK INTRA:                   0.133
REMARK UNBOUND:                 0.330
REMARK SMILES C[C@@H]1OCC[C@@H]1N(C)S(=O)(=O)C[C@H]1C[C@@H](N(C)c2ncnc3[nH]ccc23)C1
REMARK SMILES IDX 12 1 9 2 10 3 11 4 7 5 8 6 6 7 2 8 3 9 4 10 5 11 1 12 13 13
REMARK SMILES IDX 14 14 27 15 15 16 16 17 17 18 18 19 19 20 26 21 20 22 25 23
REMARK SMILES IDX 22 24 21 25 24 26 23 27
REMARK H PARENT 23 28
ROOT
ATOM      1  C   UNL     1       3.934 -18.819  19.989  1.00  0.00     0.158 C 
ENDROOT
BRANCH   1   2
ATOM      2  S   UNL     1       4.455 -17.756  18.638  1.00  0.00     0.214 S 
ATOM      3  O   UNL     1       4.306 -18.499  17.405  1.00  0.00    -0.212 OA
ATOM      4  O   UNL     1       5.719 -17.151  18.997  1.00  0.00    -0.212 OA
BRANCH   2   5
ATOM      5  N   UNL     1       3.270 -16.526  18.669  1.00  0.00    -0.199 NA
ATOM      6  C   UNL     1       3.746 -15.193  19.099  1.00  0.00     0.124 C 
BRANCH   5   7
ATOM      7  C   UNL     1       1.897 -16.911  19.109  1.00  0.00     0.103 C 
ATOM      8  C   UNL     1       0.899 -17.184  17.967  1.00  0.00     0.133 C 
ATOM      9  O   UNL     1      -0.419 -16.973  18.530  1.00  0.00    -0.377 OA
ATOM     10  C   UNL     1      -0.278 -16.316  19.793  1.00  0.00     0.162 C 
ATOM     11  C   UNL     1       1.153 -15.837  19.883  1.00  0.00     0.051 C 
ATOM     12  C   UNL     1       1.021 -16.259  16.757  1.00  0.00     0.040 C 
ENDBRANCH   5   7
ENDBRANCH   2   5
ENDBRANCH   1   2
BRANCH   1  13
ATOM     13  C   UNL     1       4.330 -20.257  19.706  1.00  0.00     0.009 C 
ATOM     14  C   UNL     1       5.708 -20.737  20.231  1.00  0.00     0.029 C 
ATOM     15  C   UNL     1       3.713 -21.313  20.654  1.00  0.00     0.029 C 
ATOM     16  C   UNL     1       5.043 -22.112  20.525  1.00  0.00     0.084 C 
BRANCH  16  17
ATOM     17  N   UNL     1       5.484 -22.724  21.746  1.00  0.00    -0.356 N 
ATOM     18  C   UNL     1       5.848 -21.898  22.894  1.00  0.00     0.145 C 
BRANCH  17  19
ATOM     19  C   UNL     1       5.482 -24.105  22.044  1.00  0.00     0.141 A 
ATOM     20  N   UNL     1       6.558 -24.626  22.705  1.00  0.00    -0.219 NA
ATOM     21  C   UNL     1       4.439 -25.004  21.720  1.00  0.00     0.061 A 
ATOM     22  C   UNL     1       6.603 -25.945  22.972  1.00  0.00     0.226 A 
ATOM     23  C   UNL     1       3.137 -24.936  21.135  1.00  0.00     0.033 A 
ATOM     24  C   UNL     1       4.628 -26.337  22.064  1.00  0.00     0.142 A 
ATOM     25  N   UNL     1       5.686 -26.877  22.681  1.00  0.00    -0.218 NA
ATOM     26  C   UNL     1       2.607 -26.209  21.108  1.00  0.00     0.085 A 
ATOM     27  N   UNL     1       3.531 -27.051  21.670  1.00  0.00    -0.346 N 
ATOM     28  H   UNL     1       3.433 -28.047  21.802  1.00  0.00     0.167 HD
ENDBRANCH  17  19
ENDBRANCH  16  17
ENDBRANCH   1  13
TORSDOF 6
ENDMDL
MODEL 7
REMARK VINA RESULT:    -8.104      1.619      2.465
REMARK INTER + INTRA:         -10.616
REMARK INTER:                 -10.850
REMARK INTRA:                   0.233
REMARK UNBOUND:                 0.330
REMARK SMILES C[C@@H]1OCC[C@@H]1N(C)S(=O)(=O)C[C@H]1C[C@@H](N(C)c2ncnc3[nH]ccc23)C1
REMARK SMILES IDX 12 1 9 2 10 3 11 4 7 5 8 6 6 7 2 8 3 9 4 10 5 11 1 12 13 13
REMARK SMILES IDX 14 14 27 15 15 16 16 17 17 18 18 19 19 20 26 21 20 22 25 23
REMARK SMILES IDX 22 24 21 25 24 26 23 27
REMARK H PARENT 23 28
ROOT
ATOM      1  C   UNL     1       6.331 -19.590  21.013  1.00  0.00     0.158 C 
ENDROOT
BRANCH   1   2
ATOM      2  S   UNL     1       6.302 -18.378  19.688  1.00  0.00     0.214 S 
ATOM      3  O   UNL     1       6.874 -18.994  18.509  1.00  0.00    -0.212 OA
ATOM      4  O   UNL     1       6.816 -17.129  20.202  1.00  0.00    -0.212 OA
BRANCH   2   5
ATOM      5  N   UNL     1       4.626 -18.173  19.423  1.00  0.00    -0.199 NA
ATOM      6  C   UNL     1       4.154 -18.486  18.058  1.00  0.00     0.124 C 
BRANCH   5   7
ATOM      7  C   UNL     1       3.963 -17.023  20.105  1.00  0.00     0.103 C 
ATOM      8  C   UNL     1       3.117 -17.397  21.338  1.00  0.00     0.133 C 
ATOM      9  O   UNL     1       2.150 -16.330  21.496  1.00  0.00    -0.377 OA
ATOM     10  C   UNL     1       2.151 -15.531  20.309  1.00  0.00     0.162 C 
ATOM     11  C   UNL     1       2.929 -16.297  19.264  1.00  0.00     0.051 C 
ATOM     12  C   UNL     1       2.329 -18.700  21.220  1.00  0.00     0.040 C 
ENDBRANCH   5   7
ENDBRANCH   2   5
ENDBRANCH   1   2
BRANCH   1  13
ATOM     13  C   UNL     1       5.953 -20.960  20.477  1.00  0.00     0.009 C 
ATOM     14  C   UNL     1       6.811 -22.169  20.934  1.00  0.00     0.029 C 
ATOM     15  C   UNL     1       4.773 -21.652  21.202  1.00  0.00     0.029 C 
ATOM     16  C   UNL     1       5.500 -23.006  20.955  1.00  0.00     0.084 C 
BRANCH  16  17
ATOM     17  N   UNL     1       5.416 -23.929  22.052  1.00  0.00    -0.356 N 
ATOM     18  C   UNL     1       5.885 -23.541  23.379  1.00  0.00     0.145 C 
BRANCH  17  19
ATOM     19  C   UNL     1       4.775 -25.188  22.044  1.00  0.00     0.141 A 
ATOM     20  N   UNL     1       3.566 -25.293  21.417  1.00  0.00    -0.219 NA
ATOM     21  C   UNL     1       5.293 -26.367  22.630  1.00  0.00     0.061 A 
ATOM     22  C   UNL     1       2.912 -26.470  21.423  1.00  0.00     0.226 A 
ATOM     23  C   UNL     1       6.491 -26.771  23.294  1.00  0.00     0.033 A 
ATOM     24  C   UNL     1       4.503 -27.507  22.551  1.00  0.00     0.142 A 
ATOM     25  N   UNL     1       3.302 -27.628  21.973  1.00  0.00    -0.218 NA
ATOM     26  C   UNL     1       6.375 -28.105  23.624  1.00  0.00     0.085 A 
ATOM     27  N   UNL     1       5.156 -28.536  23.172  1.00  0.00    -0.346 N 
ATOM     28  H   UNL     1       4.781 -29.469  23.255  1.00  0.00     0.167 HD
ENDBRANCH  17  19
ENDBRANCH  16  17
ENDBRANCH   1  13
TORSDOF 6
ENDMDL
MODEL 8
REMARK VINA RESULT:    -7.808      2.104      3.299
REMARK INTER + INTRA:         -10.216
REMARK INTER:                 -10.356
REMARK INTRA:                   0.139
REMARK UNBOUND:                 0.330
REMARK SMILES C[C@@H]1OCC[C@@H]1N(C)S(=O)(=O)C[C@H]1C[C@@H](N(C)c2ncnc3[nH]ccc23)C1
REMARK SMILES IDX 12 1 9 2 10 3 11 4 7 5 8 6 6 7 2 8 3 9 4 10 5 11 1 12 13 13
REMARK SMILES IDX 14 14 27 15 15 16 16 17 17 18 18 19 19 20 26 21 20 22 25 23
REMARK SMILES IDX 22 24 21 25 24 26 23 27
REMARK H PARENT 23 28
ROOT
ATOM      1  C   UNL     1       5.012 -19.101  19.443  1.00  0.00     0.158 C 
ENDROOT
BRANCH   1   2
ATOM      2  S   UNL     1       5.140 -17.404  20.019  1.00  0.00     0.214 S 
ATOM      3  O   UNL     1       6.058 -16.706  19.144  1.00  0.00    -0.212 OA
ATOM      4  O   UNL     1       5.342 -17.423  21.450  1.00  0.00    -0.212 OA
BRANCH   2   5
ATOM      5  N   UNL     1       3.566 -16.806  19.730  1.00  0.00    -0.199 NA
ATOM      6  C   UNL     1       2.594 -17.017  20.824  1.00  0.00     0.124 C 
BRANCH   5   7
ATOM      7  C   UNL     1       3.034 -16.925  18.340  1.00  0.00     0.103 C 
ATOM      8  C   UNL     1       3.259 -15.688  17.449  1.00  0.00     0.133 C 
ATOM      9  O   UNL     1       2.239 -15.746  16.422  1.00  0.00    -0.377 OA
ATOM     10  C   UNL     1       1.263 -16.722  16.800  1.00  0.00     0.162 C 
ATOM     11  C   UNL     1       1.526 -17.069  18.248  1.00  0.00     0.051 C 
ATOM     12  C   UNL     1       3.109 -14.340  18.151  1.00  0.00     0.040 C 
ENDBRANCH   5   7
ENDBRANCH   2   5
ENDBRANCH   1   2
BRANCH   1  13
ATOM     13  C   UNL     1       5.030 -20.056  20.624  1.00  0.00     0.009 C 
ATOM     14  C   UNL     1       4.080 -21.280  20.569  1.00  0.00     0.029 C 
ATOM     15  C   UNL     1       6.189 -21.082  20.627  1.00  0.00     0.029 C 
ATOM     16  C   UNL     1       5.201 -22.098  21.271  1.00  0.00     0.084 C 
BRANCH  16  17
ATOM     17  N   UNL     1       5.335 -23.442  20.782  1.00  0.00    -0.356 N 
ATOM     18  C   UNL     1       5.517 -23.692  19.356  1.00  0.00     0.145 C 
BRANCH  17  19
ATOM     19  C   UNL     1       5.458 -24.613  21.564  1.00  0.00     0.141 A 
ATOM     20  N   UNL     1       6.591 -24.775  22.310  1.00  0.00    -0.219 NA
ATOM     21  C   UNL     1       4.488 -25.640  21.647  1.00  0.00     0.061 A 
ATOM     22  C   UNL     1       6.756 -25.896  23.037  1.00  0.00     0.226 A 
ATOM     23  C   UNL     1       3.173 -25.885  21.149  1.00  0.00     0.033 A 
ATOM     24  C   UNL     1       4.800 -26.734  22.444  1.00  0.00     0.142 A 
ATOM     25  N   UNL     1       5.915 -26.933  23.157  1.00  0.00    -0.218 NA
ATOM     26  C   UNL     1       2.753 -27.112  21.618  1.00  0.00     0.085 A 
ATOM     27  N   UNL     1       3.758 -27.619  22.397  1.00  0.00    -0.346 N 
ATOM     28  H   UNL     1       3.750 -28.501  22.889  1.00  0.00     0.167 HD
ENDBRANCH  17  19
ENDBRANCH  16  17
ENDBRANCH   1  13
TORSDOF 6
ENDMDL
MODEL 9
REMARK VINA RESULT:    -7.758      1.858      2.987
REMARK INTER + INTRA:         -10.150
REMARK INTER:                 -10.029
REMARK INTRA:                  -0.121
REMARK UNBOUND:                 0.330
REMARK SMILES C[C@@H]1OCC[C@@H]1N(C)S(=O)(=O)C[C@H]1C[C@@H](N(C)c2ncnc3[nH]ccc23)C1
REMARK SMILES IDX 12 1 9 2 10 3 11 4 7 5 8 6 6 7 2 8 3 9 4 10 5 11 1 12 13 13
REMARK SMILES IDX 14 14 27 15 15 16 16 17 17 18 18 19 19 20 26 21 20 22 25 23
REMARK SMILES IDX 22 24 21 25 24 26 23 27
REMARK H PARENT 23 28
ROOT
ATOM      1  C   UNL     1       7.778 -20.633  21.162  1.00  0.00     0.158 C 
ENDROOT
BRANCH   1   2
ATOM      2  S   UNL     1       7.543 -18.925  21.666  1.00  0.00     0.214 S 
ATOM      3  O   UNL     1       8.700 -18.171  21.233  1.00  0.00    -0.212 OA
ATOM      4  O   UNL     1       7.120 -18.913  23.049  1.00  0.00    -0.212 OA
BRANCH   2   5
ATOM      5  N   UNL     1       6.207 -18.448  20.715  1.00  0.00    -0.199 NA
ATOM      6  C   UNL     1       6.491 -17.430  19.682  1.00  0.00     0.124 C 
BRANCH   5   7
ATOM      7  C   UNL     1       4.884 -18.345  21.399  1.00  0.00     0.103 C 
ATOM      8  C   UNL     1       3.956 -19.560  21.210  1.00  0.00     0.133 C 
ATOM      9  O   UNL     1       2.609 -19.070  21.421  1.00  0.00    -0.377 OA
ATOM     10  C   UNL     1       2.636 -17.640  21.416  1.00  0.00     0.162 C 
ATOM     11  C   UNL     1       3.992 -17.227  20.890  1.00  0.00     0.051 C 
ATOM     12  C   UNL     1       3.987 -20.197  19.822  1.00  0.00     0.040 C 
ENDBRANCH   5   7
ENDBRANCH   2   5
ENDBRANCH   1   2
BRANCH   1  13
ATOM     13  C   UNL     1       6.838 -21.540  21.936  1.00  0.00     0.009 C 
ATOM     14  C   UNL     1       6.336 -22.825  21.226  1.00  0.00     0.029 C 
ATOM     15  C   UNL     1       7.520 -22.489  22.952  1.00  0.00     0.029 C 
ATOM     16  C   UNL     1       6.428 -23.542  22.603  1.00  0.00     0.084 C 
BRANCH  16  17
ATOM     17  N   UNL     1       6.913 -24.891  22.527  1.00  0.00    -0.356 N 
ATOM     18  C   UNL     1       8.342 -25.153  22.377  1.00  0.00     0.145 C 
BRANCH  17  19
ATOM     19  C   UNL     1       6.159 -26.069  22.726  1.00  0.00     0.141 A 
ATOM     20  N   UNL     1       6.716 -27.076  23.462  1.00  0.00    -0.219 NA
ATOM     21  C   UNL     1       4.852 -26.291  22.231  1.00  0.00     0.061 A 
ATOM     22  C   UNL     1       6.038 -28.226  23.640  1.00  0.00     0.226 A 
ATOM     23  C   UNL     1       3.861 -25.552  21.516  1.00  0.00     0.033 A 
ATOM     24  C   UNL     1       4.280 -27.527  22.501  1.00  0.00     0.142 A 
ATOM     25  N   UNL     1       4.817 -28.542  23.189  1.00  0.00    -0.218 NA
ATOM     26  C   UNL     1       2.758 -26.362  21.344  1.00  0.00     0.085 A 
ATOM     27  N   UNL     1       3.032 -27.563  21.943  1.00  0.00    -0.346 N 
ATOM     28  H   UNL     1       2.417 -28.362  21.994  1.00  0.00     0.167 HD
ENDBRANCH  17  19
ENDBRANCH  16  17
ENDBRANCH   1  13
TORSDOF 6
ENDMDL
