MODEL 4
REMARK VINA RESULT:    -9.388      2.052      3.557
REMARK INTER + INTRA:         -16.895
REMARK INTER:                 -15.310
REMARK INTRA:                  -1.585
REMARK UNBOUND:                -1.745
REMARK SMILES CC(C)(O)CC(=O)NCCn1ccc2ncnc(Nc3ccc(Oc4cccc(C(F)(F)F)c4)c(Cl)c3)c21
REMARK SMILES IDX 11 1 12 2 13 3 14 4 15 5 16 6 17 7 18 8 38 9 10 10 9 11 8 12
REMARK SMILES IDX 6 13 7 14 5 16 2 17 1 18 3 19 4 20 19 22 20 24 37 25 21 26
REMARK SMILES IDX 35 27 22 28 23 29 36 30 24 31 25 32 34 33 26 34 29 35 27 36
REMARK SMILES IDX 28 37 30 38 31 39 32 40 33 41
REMARK H PARENT 8 15 4 21 19 23
ROOT
ATOM      1  N   UNL     1      13.081   4.775  24.032  1.00  0.00    -0.341 N 
ATOM      2  C   UNL     1      13.376   5.811  23.170  1.00  0.00     0.088 A 
ATOM      3  C   UNL     1      14.731   6.066  23.166  1.00  0.00     0.048 A 
ATOM      4  C   UNL     1      15.317   5.123  24.061  1.00  0.00     0.094 A 
ATOM      5  N   UNL     1      16.597   4.944  24.406  1.00  0.00    -0.235 NA
ATOM      6  C   UNL     1      16.821   3.938  25.289  1.00  0.00     0.225 A 
ATOM      7  N   UNL     1      15.898   3.113  25.841  1.00  0.00    -0.217 NA
ATOM      8  C   UNL     1      14.593   3.279  25.495  1.00  0.00     0.158 A 
ATOM      9  C   UNL     1      14.267   4.309  24.590  1.00  0.00     0.110 A 
ENDROOT
BRANCH   1  10
ATOM     10  C   UNL     1      11.740   4.236  24.249  1.00  0.00     0.143 C 
BRANCH  10  11
ATOM     11  C   UNL     1      10.967   5.000  25.355  1.00  0.00     0.137 C 
BRANCH  11  12
ATOM     12  N   UNL     1       9.833   5.785  24.876  1.00  0.00    -0.354 N 
ATOM     13  C   UNL     1       9.536   7.026  25.296  1.00  0.00     0.222 C 
ATOM     14  O   UNL     1      10.204   7.623  26.143  1.00  0.00    -0.275 OA
ATOM     15  H   UNL     1       9.233   5.344  24.193  1.00  0.00     0.163 HD
BRANCH  13  16
ATOM     16  C   UNL     1       8.285   7.672  24.669  1.00  0.00     0.134 C 
BRANCH  16  17
ATOM     17  C   UNL     1       8.223   9.230  24.619  1.00  0.00     0.068 C 
ATOM     18  C   UNL     1       6.808   9.685  24.205  1.00  0.00     0.042 C 
ATOM     19  C   UNL     1       9.271   9.847  23.664  1.00  0.00     0.042 C 
BRANCH  17  20
ATOM     20  O   UNL     1       8.440   9.766  25.913  1.00  0.00    -0.390 OA
ATOM     21  H   UNL     1       9.371   9.661  26.130  1.00  0.00     0.211 HD
ENDBRANCH  17  20
ENDBRANCH  16  17
ENDBRANCH  13  16
ENDBRANCH  11  12
ENDBRANCH  10  11
ENDBRANCH   1  10
BRANCH   8  22
ATOM     22  N   UNL     1      13.611   2.447  26.058  1.00  0.00    -0.338 N 
ATOM     23  H   UNL     1      13.281   1.739  25.419  1.00  0.00     0.168 HD
BRANCH  22  24
ATOM     24  C   UNL     1      12.996   2.378  27.321  1.00  0.00     0.041 A 
ATOM     25  C   UNL     1      13.825   2.477  28.442  1.00  0.00     0.050 A 
ATOM     26  C   UNL     1      11.613   2.246  27.511  1.00  0.00     0.030 A 
ATOM     27  C   UNL     1      13.295   2.425  29.732  1.00  0.00     0.085 A 
ATOM     28  C   UNL     1      11.080   2.192  28.799  1.00  0.00     0.051 A 
ATOM     29  C   UNL     1      11.916   2.274  29.913  1.00  0.00     0.146 A 
ATOM     30  Cl  UNL     1      14.357   2.539  31.091  1.00  0.00    -0.080 Cl
BRANCH  29  31
ATOM     31  O   UNL     1      11.378   2.219  31.178  1.00  0.00    -0.456 OA
BRANCH  31  32
ATOM     32  C   UNL     1      10.172   1.586  31.409  1.00  0.00     0.128 A 
ATOM     33  C   UNL     1      10.182   0.189  31.441  1.00  0.00     0.060 A 
ATOM     34  C   UNL     1       8.952   2.258  31.598  1.00  0.00     0.047 A 
ATOM     35  C   UNL     1       9.007  -0.542  31.659  1.00  0.00     0.059 A 
ATOM     36  C   UNL     1       7.778   1.542  31.817  1.00  0.00     0.004 A 
ATOM     37  C   UNL     1       7.803   0.148  31.849  1.00  0.00     0.013 A 
BRANCH  35  38
ATOM     38  C   UNL     1       9.058  -2.069  31.683  1.00  0.00     0.416 C 
ATOM     39  F   UNL     1       8.906  -2.554  30.450  1.00  0.00    -0.166 F 
ATOM     40  F   UNL     1      10.242  -2.461  32.155  1.00  0.00    -0.166 F 
ATOM     41  F   UNL     1       8.107  -2.596  32.454  1.00  0.00    -0.166 F 
ENDBRANCH  35  38
ENDBRANCH  31  32
ENDBRANCH  29  31
ENDBRANCH  22  24
ENDBRANCH   8  22
TORSDOF 11
ENDMDL
