MODEL 1
REMARK VINA RESULT:   -11.694      0.000      0.000
REMARK INTER + INTRA:         -16.298
REMARK INTER:                 -16.480
REMARK INTRA:                   0.182
REMARK UNBOUND:                 0.182
REMARK SMILES C[C@@H]1CN(C)CCN1[C@@H](C)C(=O)Nc1cccc2c(-c3nc(Nc4cccc(S(C)(=O)=O)c4F)ncc3F)c[nH]c12
REMARK SMILES IDX 14 1 15 2 16 3 17 4 18 5 19 6 39 7 40 8 41 9 13 11 11 12
REMARK SMILES IDX 12 13 9 15 10 16 8 17 2 18 3 19 4 20 7 21 6 22 1 23 5 24
REMARK SMILES IDX 20 25 21 26 37 27 22 28 36 29 35 30 38 31 23 32 24 34 25 35
REMARK SMILES IDX 33 36 26 37 28 38 27 39 34 40 29 41 31 42 32 43 30 44
REMARK H PARENT 40 10 13 14 23 33
ROOT
ATOM      1  C   UNL     1       4.833 -22.149  20.146  1.00  0.00     0.065 A 
ATOM      2  C   UNL     1       6.234 -22.124  20.253  1.00  0.00     0.028 A 
ATOM      3  C   UNL     1       6.951 -23.210  20.751  1.00  0.00     0.003 A 
ATOM      4  C   UNL     1       6.291 -24.373  21.145  1.00  0.00     0.011 A 
ATOM      5  C   UNL     1       4.887 -24.452  21.039  1.00  0.00     0.011 A 
ATOM      6  C   UNL     1       3.923 -25.470  21.359  1.00  0.00     0.029 A 
ATOM      7  C   UNL     1       2.686 -24.951  21.030  1.00  0.00     0.094 A 
ATOM      8  N   UNL     1       2.858 -23.674  20.583  1.00  0.00    -0.359 N 
ATOM      9  C   UNL     1       4.195 -23.336  20.547  1.00  0.00     0.070 A 
ATOM     10  H   UNL     1       2.121 -23.020  20.327  1.00  0.00     0.166 HD
ENDROOT
BRANCH   1  11
ATOM     11  N   UNL     1       4.210 -20.985  19.663  1.00  0.00    -0.323 N 
ATOM     12  C   UNL     1       4.585 -19.657  19.793  1.00  0.00     0.241 C 
ATOM     13  O   UNL     1       5.575 -19.229  20.381  1.00  0.00    -0.273 OA
ATOM     14  H   UNL     1       3.402 -21.113  19.057  1.00  0.00     0.170 HD
BRANCH  12  15
ATOM     15  C   UNL     1       3.566 -18.688  19.143  1.00  0.00     0.144 C 
ATOM     16  C   UNL     1       4.069 -18.492  17.702  1.00  0.00     0.035 C 
BRANCH  15  17
ATOM     17  N   UNL     1       3.468 -17.434  19.959  1.00  0.00    -0.287 NA
ATOM     18  C   UNL     1       2.277 -17.405  20.880  1.00  0.00     0.068 C 
ATOM     19  C   UNL     1       0.913 -17.211  20.148  1.00  0.00     0.103 C 
ATOM     20  N   UNL     1       0.898 -16.021  19.279  1.00  0.00    -0.304 NA
ATOM     21  C   UNL     1       3.382 -16.200  19.134  1.00  0.00     0.101 C 
ATOM     22  C   UNL     1       2.051 -16.029  18.365  1.00  0.00     0.100 C 
ATOM     23  C   UNL     1       2.168 -18.575  21.863  1.00  0.00     0.026 C 
ATOM     24  C   UNL     1      -0.361 -15.926  18.545  1.00  0.00     0.105 C 
ENDBRANCH  15  17
ENDBRANCH  12  15
ENDBRANCH   1  11
BRANCH   6  25
ATOM     25  C   UNL     1       4.113 -26.809  21.907  1.00  0.00     0.114 A 
ATOM     26  N   UNL     1       5.148 -26.948  22.778  1.00  0.00    -0.210 NA
ATOM     27  C   UNL     1       3.312 -27.870  21.542  1.00  0.00     0.167 A 
ATOM     28  C   UNL     1       5.397 -28.174  23.266  1.00  0.00     0.228 A 
ATOM     29  C   UNL     1       3.625 -29.074  22.109  1.00  0.00     0.156 A 
ATOM     30  N   UNL     1       4.655 -29.249  22.964  1.00  0.00    -0.218 NA
ATOM     31  F   UNL     1       2.280 -27.767  20.693  1.00  0.00    -0.203 F 
BRANCH  28  32
ATOM     32  N   UNL     1       6.525 -28.281  24.074  1.00  0.00    -0.322 N 
ATOM     33  H   UNL     1       6.436 -29.081  24.692  1.00  0.00     0.170 HD
BRANCH  32  34
ATOM     34  C   UNL     1       7.598 -27.416  24.346  1.00  0.00     0.078 A 
ATOM     35  C   UNL     1       7.725 -26.129  23.802  1.00  0.00     0.029 A 
ATOM     36  C   UNL     1       8.592 -27.839  25.244  1.00  0.00     0.165 A 
ATOM     37  C   UNL     1       8.764 -25.275  24.185  1.00  0.00     0.004 A 
ATOM     38  C   UNL     1       9.622 -26.988  25.634  1.00  0.00     0.104 A 
ATOM     39  C   UNL     1       9.707 -25.694  25.120  1.00  0.00     0.023 A 
ATOM     40  F   UNL     1       8.537 -29.095  25.714  1.00  0.00    -0.203 F 
BRANCH  38  41
ATOM     41  S   UNL     1      10.760 -27.536  26.863  1.00  0.00     0.178 S 
ATOM     42  O   UNL     1       9.982 -28.226  27.879  1.00  0.00    -0.224 OA
ATOM     43  O   UNL     1      11.836 -28.226  26.183  1.00  0.00    -0.224 OA
ATOM     44  C   UNL     1      11.386 -26.041  27.582  1.00  0.00     0.164 C 
ENDBRANCH  38  41
ENDBRANCH  32  34
ENDBRANCH  28  32
ENDBRANCH   6  25
TORSDOF 7
ENDMDL
MODEL 2
REMARK VINA RESULT:   -10.838      2.114      2.903
REMARK INTER + INTRA:         -15.092
REMARK INTER:                 -14.156
REMARK INTRA:                  -0.936
REMARK UNBOUND:                 0.182
REMARK SMILES C[C@@H]1CN(C)CCN1[C@@H](C)C(=O)Nc1cccc2c(-c3nc(Nc4cccc(S(C)(=O)=O)c4F)ncc3F)c[nH]c12
REMARK SMILES IDX 14 1 15 2 16 3 17 4 18 5 19 6 39 7 40 8 41 9 13 11 11 12
REMARK SMILES IDX 12 13 9 15 10 16 8 17 2 18 3 19 4 20 7 21 6 22 1 23 5 24
REMARK SMILES IDX 20 25 21 26 37 27 22 28 36 29 35 30 38 31 23 32 24 34 25 35
REMARK SMILES IDX 33 36 26 37 28 38 27 39 34 40 29 41 31 42 32 43 30 44
REMARK H PARENT 40 10 13 14 23 33
ROOT
ATOM      1  C   UNL     1       4.725 -22.219  19.920  1.00  0.00     0.065 A 
ATOM      2  C   UNL     1       4.851 -23.090  18.823  1.00  0.00     0.028 A 
ATOM      3  C   UNL     1       5.432 -24.349  18.950  1.00  0.00     0.003 A 
ATOM      4  C   UNL     1       5.895 -24.794  20.188  1.00  0.00     0.011 A 
ATOM      5  C   UNL     1       5.773 -23.964  21.321  1.00  0.00     0.011 A 
ATOM      6  C   UNL     1       6.148 -24.107  22.702  1.00  0.00     0.029 A 
ATOM      7  C   UNL     1       5.765 -22.939  23.331  1.00  0.00     0.094 A 
ATOM      8  N   UNL     1       5.235 -22.099  22.398  1.00  0.00    -0.359 N 
ATOM      9  C   UNL     1       5.196 -22.696  21.156  1.00  0.00     0.070 A 
ATOM     10  H   UNL     1       4.923 -21.142  22.554  1.00  0.00     0.166 HD
ENDROOT
BRANCH   1  11
ATOM     11  N   UNL     1       4.153 -20.960  19.670  1.00  0.00    -0.323 N 
ATOM     12  C   UNL     1       4.756 -19.716  19.569  1.00  0.00     0.241 C 
ATOM     13  O   UNL     1       5.954 -19.470  19.681  1.00  0.00    -0.273 OA
ATOM     14  H   UNL     1       3.159 -20.940  19.452  1.00  0.00     0.170 HD
BRANCH  12  15
ATOM     15  C   UNL     1       3.729 -18.578  19.338  1.00  0.00     0.144 C 
ATOM     16  C   UNL     1       4.067 -18.015  17.946  1.00  0.00     0.035 C 
BRANCH  15  17
ATOM     17  N   UNL     1       3.808 -17.589  20.462  1.00  0.00    -0.287 NA
ATOM     18  C   UNL     1       2.662 -17.688  21.434  1.00  0.00     0.068 C 
ATOM     19  C   UNL     1       1.305 -17.162  20.871  1.00  0.00     0.103 C 
ATOM     20  N   UNL     1       1.399 -15.787  20.352  1.00  0.00    -0.304 NA
ATOM     21  C   UNL     1       3.838 -16.176  20.001  1.00  0.00     0.101 C 
ATOM     22  C   UNL     1       2.509 -15.666  19.395  1.00  0.00     0.100 C 
ATOM     23  C   UNL     1       2.451 -19.063  22.076  1.00  0.00     0.026 C 
ATOM     24  C   UNL     1       0.134 -15.367  19.754  1.00  0.00     0.105 C 
ENDBRANCH  15  17
ENDBRANCH  12  15
ENDBRANCH   1  11
BRANCH   6  25
ATOM     25  C   UNL     1       6.788 -25.221  23.393  1.00  0.00     0.114 A 
ATOM     26  N   UNL     1       7.932 -24.920  24.064  1.00  0.00    -0.210 NA
ATOM     27  C   UNL     1       6.280 -26.502  23.345  1.00  0.00     0.167 A 
ATOM     28  C   UNL     1       8.588 -25.923  24.670  1.00  0.00     0.228 A 
ATOM     29  C   UNL     1       7.001 -27.453  24.012  1.00  0.00     0.156 A 
ATOM     30  N   UNL     1       8.148 -27.190  24.674  1.00  0.00    -0.218 NA
ATOM     31  F   UNL     1       5.153 -26.833  22.701  1.00  0.00    -0.203 F 
BRANCH  28  32
ATOM     32  N   UNL     1       9.801 -25.579  25.258  1.00  0.00    -0.322 N 
ATOM     33  H   UNL     1       9.917 -24.571  25.254  1.00  0.00     0.170 HD
BRANCH  32  34
ATOM     34  C   UNL     1      10.934 -26.323  25.629  1.00  0.00     0.078 A 
ATOM     35  C   UNL     1      11.940 -26.716  24.734  1.00  0.00     0.029 A 
ATOM     36  C   UNL     1      11.100 -26.667  26.980  1.00  0.00     0.165 A 
ATOM     37  C   UNL     1      13.095 -27.370  25.177  1.00  0.00     0.004 A 
ATOM     38  C   UNL     1      12.252 -27.309  27.425  1.00  0.00     0.104 A 
ATOM     39  C   UNL     1      13.266 -27.651  26.529  1.00  0.00     0.023 A 
ATOM     40  F   UNL     1      10.112 -26.374  27.841  1.00  0.00    -0.203 F 
BRANCH  38  41
ATOM     41  S   UNL     1      12.455 -27.594  29.153  1.00  0.00     0.178 S 
ATOM     42  O   UNL     1      12.018 -26.385  29.832  1.00  0.00    -0.224 OA
ATOM     43  O   UNL     1      11.830 -28.863  29.460  1.00  0.00    -0.224 OA
ATOM     44  C   UNL     1      14.208 -27.735  29.373  1.00  0.00     0.164 C 
ENDBRANCH  38  41
ENDBRANCH  32  34
ENDBRANCH  28  32
ENDBRANCH   6  25
TORSDOF 7
ENDMDL
MODEL 3
REMARK VINA RESULT:   -10.805      3.841      5.741
REMARK INTER + INTRA:         -15.045
REMARK INTER:                 -14.796
REMARK INTRA:                  -0.249
REMARK UNBOUND:                 0.182
REMARK SMILES C[C@@H]1CN(C)CCN1[C@@H](C)C(=O)Nc1cccc2c(-c3nc(Nc4cccc(S(C)(=O)=O)c4F)ncc3F)c[nH]c12
REMARK SMILES IDX 14 1 15 2 16 3 17 4 18 5 19 6 39 7 40 8 41 9 13 11 11 12
REMARK SMILES IDX 12 13 9 15 10 16 8 17 2 18 3 19 4 20 7 21 6 22 1 23 5 24
REMARK SMILES IDX 20 25 21 26 37 27 22 28 36 29 35 30 38 31 23 32 24 34 25 35
REMARK SMILES IDX 33 36 26 37 28 38 27 39 34 40 29 41 31 42 32 43 30 44
REMARK H PARENT 40 10 13 14 23 33
ROOT
ATOM      1  C   UNL     1       3.185 -18.686  20.674  1.00  0.00     0.065 A 
ATOM      2  C   UNL     1       2.862 -18.546  22.035  1.00  0.00     0.028 A 
ATOM      3  C   UNL     1       3.551 -19.238  23.027  1.00  0.00     0.003 A 
ATOM      4  C   UNL     1       4.606 -20.087  22.696  1.00  0.00     0.011 A 
ATOM      5  C   UNL     1       4.980 -20.246  21.345  1.00  0.00     0.011 A 
ATOM      6  C   UNL     1       5.984 -21.030  20.679  1.00  0.00     0.029 A 
ATOM      7  C   UNL     1       5.855 -20.762  19.330  1.00  0.00     0.094 A 
ATOM      8  N   UNL     1       4.806 -19.908  19.158  1.00  0.00    -0.359 N 
ATOM      9  C   UNL     1       4.256 -19.545  20.370  1.00  0.00     0.070 A 
ATOM     10  H   UNL     1       4.433 -19.581  18.269  1.00  0.00     0.166 HD
ENDROOT
BRANCH   1  11
ATOM     11  N   UNL     1       2.402 -17.966  19.755  1.00  0.00    -0.323 N 
ATOM     12  C   UNL     1       2.765 -16.954  18.880  1.00  0.00     0.241 C 
ATOM     13  O   UNL     1       3.888 -16.477  18.736  1.00  0.00    -0.273 OA
ATOM     14  H   UNL     1       1.436 -18.264  19.640  1.00  0.00     0.170 HD
BRANCH  12  15
ATOM     15  C   UNL     1       1.557 -16.400  18.083  1.00  0.00     0.144 C 
ATOM     16  C   UNL     1       1.730 -16.963  16.661  1.00  0.00     0.035 C 
BRANCH  15  17
ATOM     17  N   UNL     1       1.531 -14.905  18.176  1.00  0.00    -0.287 NA
ATOM     18  C   UNL     1       1.063 -14.393  19.513  1.00  0.00     0.068 C 
ATOM     19  C   UNL     1      -0.465 -14.583  19.766  1.00  0.00     0.103 C 
ATOM     20  N   UNL     1      -1.295 -14.005  18.694  1.00  0.00    -0.304 NA
ATOM     21  C   UNL     1       0.655 -14.266  17.159  1.00  0.00     0.101 C 
ATOM     22  C   UNL     1      -0.860 -14.494  17.377  1.00  0.00     0.100 C 
ATOM     23  C   UNL     1       1.848 -14.893  20.730  1.00  0.00     0.026 C 
ATOM     24  C   UNL     1      -2.711 -14.283  18.922  1.00  0.00     0.105 C 
ENDBRANCH  15  17
ENDBRANCH  12  15
ENDBRANCH   1  11
BRANCH   6  25
ATOM     25  C   UNL     1       6.987 -21.937  21.226  1.00  0.00     0.114 A 
ATOM     26  N   UNL     1       6.506 -22.973  21.964  1.00  0.00    -0.210 NA
ATOM     27  C   UNL     1       8.338 -21.740  21.029  1.00  0.00     0.167 A 
ATOM     28  C   UNL     1       7.394 -23.804  22.534  1.00  0.00     0.228 A 
ATOM     29  C   UNL     1       9.164 -22.651  21.627  1.00  0.00     0.156 A 
ATOM     30  N   UNL     1       8.720 -23.680  22.379  1.00  0.00    -0.218 NA
ATOM     31  F   UNL     1       8.846 -20.736  20.302  1.00  0.00    -0.203 F 
BRANCH  28  32
ATOM     32  N   UNL     1       6.854 -24.786  23.358  1.00  0.00    -0.322 N 
ATOM     33  H   UNL     1       7.172 -24.654  24.313  1.00  0.00     0.170 HD
BRANCH  32  34
ATOM     34  C   UNL     1       6.176 -25.990  23.102  1.00  0.00     0.078 A 
ATOM     35  C   UNL     1       6.648 -27.253  23.489  1.00  0.00     0.029 A 
ATOM     36  C   UNL     1       4.931 -25.936  22.453  1.00  0.00     0.165 A 
ATOM     37  C   UNL     1       5.883 -28.408  23.295  1.00  0.00     0.004 A 
ATOM     38  C   UNL     1       4.164 -27.083  22.266  1.00  0.00     0.104 A 
ATOM     39  C   UNL     1       4.627 -28.325  22.700  1.00  0.00     0.023 A 
ATOM     40  F   UNL     1       4.497 -24.749  22.000  1.00  0.00    -0.203 F 
BRANCH  38  41
ATOM     41  S   UNL     1       2.555 -26.926  21.564  1.00  0.00     0.178 S 
ATOM     42  O   UNL     1       1.677 -26.458  22.624  1.00  0.00    -0.224 OA
ATOM     43  O   UNL     1       2.687 -26.159  20.343  1.00  0.00    -0.224 OA
ATOM     44  C   UNL     1       2.085 -28.587  21.164  1.00  0.00     0.164 C 
ENDBRANCH  38  41
ENDBRANCH  32  34
ENDBRANCH  28  32
ENDBRANCH   6  25
TORSDOF 7
ENDMDL
MODEL 4
REMARK VINA RESULT:   -10.791      1.699      2.208
REMARK INTER + INTRA:         -15.025
REMARK INTER:                 -15.299
REMARK INTRA:                   0.274
REMARK UNBOUND:                 0.182
REMARK SMILES C[C@@H]1CN(C)CCN1[C@@H](C)C(=O)Nc1cccc2c(-c3nc(Nc4cccc(S(C)(=O)=O)c4F)ncc3F)c[nH]c12
REMARK SMILES IDX 14 1 15 2 16 3 17 4 18 5 19 6 39 7 40 8 41 9 13 11 11 12
REMARK SMILES IDX 12 13 9 15 10 16 8 17 2 18 3 19 4 20 7 21 6 22 1 23 5 24
REMARK SMILES IDX 20 25 21 26 37 27 22 28 36 29 35 30 38 31 23 32 24 34 25 35
REMARK SMILES IDX 33 36 26 37 28 38 27 39 34 40 29 41 31 42 32 43 30 44
REMARK H PARENT 40 10 13 14 23 33
ROOT
ATOM      1  C   UNL     1       5.926 -20.294  21.033  1.00  0.00     0.065 A 
ATOM      2  C   UNL     1       7.011 -20.336  21.926  1.00  0.00     0.028 A 
ATOM      3  C   UNL     1       7.309 -21.478  22.665  1.00  0.00     0.003 A 
ATOM      4  C   UNL     1       6.540 -22.633  22.525  1.00  0.00     0.011 A 
ATOM      5  C   UNL     1       5.453 -22.646  21.627  1.00  0.00     0.011 A 
ATOM      6  C   UNL     1       4.478 -23.638  21.262  1.00  0.00     0.029 A 
ATOM      7  C   UNL     1       3.657 -23.048  20.322  1.00  0.00     0.094 A 
ATOM      8  N   UNL     1       4.057 -21.756  20.148  1.00  0.00    -0.359 N 
ATOM      9  C   UNL     1       5.171 -21.475  20.909  1.00  0.00     0.070 A 
ATOM     10  H   UNL     1       3.603 -21.058  19.563  1.00  0.00     0.166 HD
ENDROOT
BRANCH   1  11
ATOM     11  N   UNL     1       5.697 -19.079  20.365  1.00  0.00    -0.323 N 
ATOM     12  C   UNL     1       4.979 -17.965  20.769  1.00  0.00     0.241 C 
ATOM     13  O   UNL     1       4.382 -17.824  21.833  1.00  0.00    -0.273 OA
ATOM     14  H   UNL     1       6.184 -18.940  19.482  1.00  0.00     0.170 HD
BRANCH  12  15
ATOM     15  C   UNL     1       4.940 -16.860  19.683  1.00  0.00     0.144 C 
ATOM     16  C   UNL     1       6.248 -16.071  19.875  1.00  0.00     0.035 C 
BRANCH  15  17
ATOM     17  N   UNL     1       3.684 -16.054  19.825  1.00  0.00    -0.287 NA
ATOM     18  C   UNL     1       2.578 -16.496  18.905  1.00  0.00     0.068 C 
ATOM     19  C   UNL     1       2.816 -16.134  17.406  1.00  0.00     0.103 C 
ATOM     20  N   UNL     1       3.088 -14.700  17.203  1.00  0.00    -0.304 NA
ATOM     21  C   UNL     1       3.883 -14.604  19.566  1.00  0.00     0.101 C 
ATOM     22  C   UNL     1       4.171 -14.245  18.088  1.00  0.00     0.100 C 
ATOM     23  C   UNL     1       2.167 -17.968  19.016  1.00  0.00     0.026 C 
ATOM     24  C   UNL     1       3.394 -14.420  15.802  1.00  0.00     0.105 C 
ENDBRANCH  15  17
ENDBRANCH  12  15
ENDBRANCH   1  11
BRANCH   6  25
ATOM     25  C   UNL     1       4.317 -25.013  21.722  1.00  0.00     0.114 A 
ATOM     26  N   UNL     1       5.359 -25.524  22.430  1.00  0.00    -0.210 NA
ATOM     27  C   UNL     1       3.190 -25.754  21.433  1.00  0.00     0.167 A 
ATOM     28  C   UNL     1       5.281 -26.805  22.828  1.00  0.00     0.228 A 
ATOM     29  C   UNL     1       3.189 -27.039  21.901  1.00  0.00     0.156 A 
ATOM     30  N   UNL     1       4.214 -27.582  22.592  1.00  0.00    -0.218 NA
ATOM     31  F   UNL     1       2.143 -25.281  20.746  1.00  0.00    -0.203 F 
BRANCH  28  32
ATOM     32  N   UNL     1       6.412 -27.307  23.462  1.00  0.00    -0.322 N 
ATOM     33  H   UNL     1       6.221 -28.231  23.837  1.00  0.00     0.170 HD
BRANCH  32  34
ATOM     34  C   UNL     1       7.629 -26.728  23.860  1.00  0.00     0.078 A 
ATOM     35  C   UNL     1       8.185 -25.586  23.263  1.00  0.00     0.029 A 
ATOM     36  C   UNL     1       8.321 -27.293  24.943  1.00  0.00     0.165 A 
ATOM     37  C   UNL     1       9.349 -24.996  23.765  1.00  0.00     0.004 A 
ATOM     38  C   UNL     1       9.475 -26.702  25.450  1.00  0.00     0.104 A 
ATOM     39  C   UNL     1       9.989 -25.540  24.876  1.00  0.00     0.023 A 
ATOM     40  F   UNL     1       7.852 -28.432  25.478  1.00  0.00    -0.203 F 
BRANCH  38  41
ATOM     41  S   UNL     1      10.219 -27.389  26.893  1.00  0.00     0.178 S 
ATOM     42  O   UNL     1      10.074 -26.403  27.952  1.00  0.00    -0.224 OA
ATOM     43  O   UNL     1       9.681 -28.722  27.067  1.00  0.00    -0.224 OA
ATOM     44  C   UNL     1      11.942 -27.500  26.489  1.00  0.00     0.164 C 
ENDBRANCH  38  41
ENDBRANCH  32  34
ENDBRANCH  28  32
ENDBRANCH   6  25
TORSDOF 7
ENDMDL
MODEL 5
REMARK VINA RESULT:   -10.718      4.001     11.921
REMARK INTER + INTRA:         -14.923
REMARK INTER:                 -14.077
REMARK INTRA:                  -0.846
REMARK UNBOUND:                 0.182
REMARK SMILES C[C@@H]1CN(C)CCN1[C@@H](C)C(=O)Nc1cccc2c(-c3nc(Nc4cccc(S(C)(=O)=O)c4F)ncc3F)c[nH]c12
REMARK SMILES IDX 14 1 15 2 16 3 17 4 18 5 19 6 39 7 40 8 41 9 13 11 11 12
REMARK SMILES IDX 12 13 9 15 10 16 8 17 2 18 3 19 4 20 7 21 6 22 1 23 5 24
REMARK SMILES IDX 20 25 21 26 37 27 22 28 36 29 35 30 38 31 23 32 24 34 25 35
REMARK SMILES IDX 33 36 26 37 28 38 27 39 34 40 29 41 31 42 32 43 30 44
REMARK H PARENT 40 10 13 14 23 33
ROOT
ATOM      1  C   UNL     1       7.220 -27.461  24.093  1.00  0.00     0.065 A 
ATOM      2  C   UNL     1       6.100 -28.298  23.949  1.00  0.00     0.028 A 
ATOM      3  C   UNL     1       4.977 -27.902  23.227  1.00  0.00     0.003 A 
ATOM      4  C   UNL     1       4.938 -26.655  22.604  1.00  0.00     0.011 A 
ATOM      5  C   UNL     1       6.046 -25.788  22.704  1.00  0.00     0.011 A 
ATOM      6  C   UNL     1       6.320 -24.466  22.208  1.00  0.00     0.029 A 
ATOM      7  C   UNL     1       7.590 -24.143  22.644  1.00  0.00     0.094 A 
ATOM      8  N   UNL     1       8.059 -25.171  23.408  1.00  0.00    -0.359 N 
ATOM      9  C   UNL     1       7.155 -26.211  23.450  1.00  0.00     0.070 A 
ATOM     10  H   UNL     1       8.941 -25.192  23.916  1.00  0.00     0.166 HD
ENDROOT
BRANCH   1  11
ATOM     11  N   UNL     1       8.284 -27.948  24.871  1.00  0.00    -0.323 N 
ATOM     12  C   UNL     1       9.196 -27.263  25.658  1.00  0.00     0.241 C 
ATOM     13  O   UNL     1       9.247 -26.048  25.832  1.00  0.00    -0.273 OA
ATOM     14  H   UNL     1       8.374 -28.960  24.946  1.00  0.00     0.170 HD
BRANCH  12  15
ATOM     15  C   UNL     1      10.246 -28.203  26.303  1.00  0.00     0.144 C 
ATOM     16  C   UNL     1       9.438 -29.111  27.247  1.00  0.00     0.035 C 
BRANCH  15  17
ATOM     17  N   UNL     1      11.317 -27.389  26.964  1.00  0.00    -0.287 NA
ATOM     18  C   UNL     1      12.638 -27.433  26.243  1.00  0.00     0.068 C 
ATOM     19  C   UNL     1      13.388 -28.795  26.373  1.00  0.00     0.103 C 
ATOM     20  N   UNL     1      13.572 -29.211  27.774  1.00  0.00    -0.304 NA
ATOM     21  C   UNL     1      11.595 -27.808  28.363  1.00  0.00     0.101 C 
ATOM     22  C   UNL     1      12.293 -29.182  28.499  1.00  0.00     0.100 C 
ATOM     23  C   UNL     1      12.608 -27.004  24.772  1.00  0.00     0.026 C 
ATOM     24  C   UNL     1      14.195 -30.531  27.849  1.00  0.00     0.105 C 
ENDBRANCH  15  17
ENDBRANCH  12  15
ENDBRANCH   1  11
BRANCH   6  25
ATOM     25  C   UNL     1       5.500 -23.578  21.391  1.00  0.00     0.114 A 
ATOM     26  N   UNL     1       5.373 -22.305  21.850  1.00  0.00    -0.210 NA
ATOM     27  C   UNL     1       4.872 -24.011  20.243  1.00  0.00     0.167 A 
ATOM     28  C   UNL     1       4.583 -21.464  21.162  1.00  0.00     0.228 A 
ATOM     29  C   UNL     1       4.109 -23.079  19.595  1.00  0.00     0.156 A 
ATOM     30  N   UNL     1       3.950 -21.812  20.033  1.00  0.00    -0.218 NA
ATOM     31  F   UNL     1       4.980 -25.255  19.758  1.00  0.00    -0.203 F 
BRANCH  28  32
ATOM     32  N   UNL     1       4.410 -20.205  21.727  1.00  0.00    -0.322 N 
ATOM     33  H   UNL     1       4.152 -20.294  22.705  1.00  0.00     0.170 HD
BRANCH  32  34
ATOM     34  C   UNL     1       4.305 -18.913  21.183  1.00  0.00     0.078 A 
ATOM     35  C   UNL     1       5.390 -18.039  21.026  1.00  0.00     0.029 A 
ATOM     36  C   UNL     1       3.049 -18.474  20.732  1.00  0.00     0.165 A 
ATOM     37  C   UNL     1       5.243 -16.802  20.388  1.00  0.00     0.004 A 
ATOM     38  C   UNL     1       2.902 -17.248  20.089  1.00  0.00     0.104 A 
ATOM     39  C   UNL     1       4.001 -16.410  19.897  1.00  0.00     0.023 A 
ATOM     40  F   UNL     1       1.982 -19.259  20.946  1.00  0.00    -0.203 F 
BRANCH  38  41
ATOM     41  S   UNL     1       1.325 -16.816  19.431  1.00  0.00     0.178 S 
ATOM     42  O   UNL     1       0.988 -17.829  18.445  1.00  0.00    -0.224 OA
ATOM     43  O   UNL     1       0.439 -16.572  20.550  1.00  0.00    -0.224 OA
ATOM     44  C   UNL     1       1.610 -15.294  18.568  1.00  0.00     0.164 C 
ENDBRANCH  38  41
ENDBRANCH  32  34
ENDBRANCH  28  32
ENDBRANCH   6  25
TORSDOF 7
ENDMDL
MODEL 6
REMARK VINA RESULT:   -10.616      2.479      3.704
REMARK INTER + INTRA:         -14.779
REMARK INTER:                 -14.749
REMARK INTRA:                  -0.030
REMARK UNBOUND:                 0.182
REMARK SMILES C[C@@H]1CN(C)CCN1[C@@H](C)C(=O)Nc1cccc2c(-c3nc(Nc4cccc(S(C)(=O)=O)c4F)ncc3F)c[nH]c12
REMARK SMILES IDX 14 1 15 2 16 3 17 4 18 5 19 6 39 7 40 8 41 9 13 11 11 12
REMARK SMILES IDX 12 13 9 15 10 16 8 17 2 18 3 19 4 20 7 21 6 22 1 23 5 24
REMARK SMILES IDX 20 25 21 26 37 27 22 28 36 29 35 30 38 31 23 32 24 34 25 35
REMARK SMILES IDX 33 36 26 37 28 38 27 39 34 40 29 41 31 42 32 43 30 44
REMARK H PARENT 40 10 13 14 23 33
ROOT
ATOM      1  C   UNL     1       4.461 -22.561  20.950  1.00  0.00     0.065 A 
ATOM      2  C   UNL     1       3.639 -23.536  20.360  1.00  0.00     0.028 A 
ATOM      3  C   UNL     1       3.778 -24.890  20.656  1.00  0.00     0.003 A 
ATOM      4  C   UNL     1       4.738 -25.319  21.571  1.00  0.00     0.011 A 
ATOM      5  C   UNL     1       5.574 -24.376  22.204  1.00  0.00     0.011 A 
ATOM      6  C   UNL     1       6.644 -24.480  23.159  1.00  0.00     0.029 A 
ATOM      7  C   UNL     1       7.081 -23.192  23.395  1.00  0.00     0.094 A 
ATOM      8  N   UNL     1       6.370 -22.342  22.600  1.00  0.00    -0.359 N 
ATOM      9  C   UNL     1       5.417 -23.022  21.872  1.00  0.00     0.070 A 
ATOM     10  H   UNL     1       6.513 -21.338  22.510  1.00  0.00     0.166 HD
ENDROOT
BRANCH   1  11
ATOM     11  N   UNL     1       4.255 -21.228  20.552  1.00  0.00    -0.323 N 
ATOM     12  C   UNL     1       4.187 -20.075  21.316  1.00  0.00     0.241 C 
ATOM     13  O   UNL     1       4.299 -19.995  22.537  1.00  0.00    -0.273 OA
ATOM     14  H   UNL     1       4.226 -21.046  19.551  1.00  0.00     0.170 HD
BRANCH  12  15
ATOM     15  C   UNL     1       3.888 -18.816  20.462  1.00  0.00     0.144 C 
ATOM     16  C   UNL     1       2.380 -18.892  20.161  1.00  0.00     0.035 C 
BRANCH  15  17
ATOM     17  N   UNL     1       4.778 -18.799  19.256  1.00  0.00    -0.287 NA
ATOM     18  C   UNL     1       5.951 -17.865  19.388  1.00  0.00     0.068 C 
ATOM     19  C   UNL     1       5.572 -16.353  19.312  1.00  0.00     0.103 C 
ATOM     20  N   UNL     1       4.805 -16.019  18.100  1.00  0.00    -0.304 NA
ATOM     21  C   UNL     1       4.072 -18.402  18.009  1.00  0.00     0.101 C 
ATOM     22  C   UNL     1       3.648 -16.915  17.952  1.00  0.00     0.100 C 
ATOM     23  C   UNL     1       6.861 -18.104  20.598  1.00  0.00     0.026 C 
ATOM     24  C   UNL     1       4.393 -14.618  18.112  1.00  0.00     0.105 C 
ENDBRANCH  15  17
ENDBRANCH  12  15
ENDBRANCH   1  11
BRANCH   6  25
ATOM     25  C   UNL     1       7.210 -25.654  23.814  1.00  0.00     0.114 A 
ATOM     26  N   UNL     1       8.370 -25.450  24.492  1.00  0.00    -0.210 NA
ATOM     27  C   UNL     1       6.619 -26.897  23.727  1.00  0.00     0.167 A 
ATOM     28  C   UNL     1       8.959 -26.511  25.066  1.00  0.00     0.228 A 
ATOM     29  C   UNL     1       7.277 -27.913  24.364  1.00  0.00     0.156 A 
ATOM     30  N   UNL     1       8.438 -27.747  25.032  1.00  0.00    -0.218 NA
ATOM     31  F   UNL     1       5.474 -27.134  23.075  1.00  0.00    -0.203 F 
BRANCH  28  32
ATOM     32  N   UNL     1      10.192 -26.266  25.662  1.00  0.00    -0.322 N 
ATOM     33  H   UNL     1      10.337 -25.266  25.764  1.00  0.00     0.170 HD
BRANCH  32  34
ATOM     34  C   UNL     1      11.310 -27.075  25.927  1.00  0.00     0.078 A 
ATOM     35  C   UNL     1      12.452 -27.123  25.115  1.00  0.00     0.029 A 
ATOM     36  C   UNL     1      11.311 -27.859  27.092  1.00  0.00     0.165 A 
ATOM     37  C   UNL     1      13.575 -27.872  25.481  1.00  0.00     0.004 A 
ATOM     38  C   UNL     1      12.431 -28.599  27.463  1.00  0.00     0.104 A 
ATOM     39  C   UNL     1      13.578 -28.598  26.669  1.00  0.00     0.023 A 
ATOM     40  F   UNL     1      10.198 -27.893  27.842  1.00  0.00    -0.203 F 
BRANCH  38  41
ATOM     41  S   UNL     1      12.413 -29.455  29.004  1.00  0.00     0.178 S 
ATOM     42  O   UNL     1      12.192 -28.458  30.038  1.00  0.00    -0.224 OA
ATOM     43  O   UNL     1      11.501 -30.572  28.869  1.00  0.00    -0.224 OA
ATOM     44  C   UNL     1      14.066 -30.068  29.186  1.00  0.00     0.164 C 
ENDBRANCH  38  41
ENDBRANCH  32  34
ENDBRANCH  28  32
ENDBRANCH   6  25
TORSDOF 7
ENDMDL
MODEL 7
REMARK VINA RESULT:   -10.410      4.356      6.835
REMARK INTER + INTRA:         -14.488
REMARK INTER:                 -13.651
REMARK INTRA:                  -0.837
REMARK UNBOUND:                 0.182
REMARK SMILES C[C@@H]1CN(C)CCN1[C@@H](C)C(=O)Nc1cccc2c(-c3nc(Nc4cccc(S(C)(=O)=O)c4F)ncc3F)c[nH]c12
REMARK SMILES IDX 14 1 15 2 16 3 17 4 18 5 19 6 39 7 40 8 41 9 13 11 11 12
REMARK SMILES IDX 12 13 9 15 10 16 8 17 2 18 3 19 4 20 7 21 6 22 1 23 5 24
REMARK SMILES IDX 20 25 21 26 37 27 22 28 36 29 35 30 38 31 23 32 24 34 25 35
REMARK SMILES IDX 33 36 26 37 28 38 27 39 34 40 29 41 31 42 32 43 30 44
REMARK H PARENT 40 10 13 14 23 33
ROOT
ATOM      1  C   UNL     1       3.564 -17.789  21.124  1.00  0.00     0.065 A 
ATOM      2  C   UNL     1       3.001 -18.558  22.157  1.00  0.00     0.028 A 
ATOM      3  C   UNL     1       3.770 -19.426  22.929  1.00  0.00     0.003 A 
ATOM      4  C   UNL     1       5.141 -19.545  22.706  1.00  0.00     0.011 A 
ATOM      5  C   UNL     1       5.755 -18.780  21.692  1.00  0.00     0.011 A 
ATOM      6  C   UNL     1       7.104 -18.676  21.207  1.00  0.00     0.029 A 
ATOM      7  C   UNL     1       7.079 -17.749  20.183  1.00  0.00     0.094 A 
ATOM      8  N   UNL     1       5.790 -17.339  20.004  1.00  0.00    -0.359 N 
ATOM      9  C   UNL     1       4.949 -17.926  20.925  1.00  0.00     0.070 A 
ATOM     10  H   UNL     1       5.454 -16.707  19.280  1.00  0.00     0.166 HD
ENDROOT
BRANCH   1  11
ATOM     11  N   UNL     1       2.688 -16.973  20.387  1.00  0.00    -0.323 N 
ATOM     12  C   UNL     1       2.833 -15.656  19.981  1.00  0.00     0.241 C 
ATOM     13  O   UNL     1       3.795 -14.923  20.196  1.00  0.00    -0.273 OA
ATOM     14  H   UNL     1       1.848 -17.413  20.019  1.00  0.00     0.170 HD
BRANCH  12  15
ATOM     15  C   UNL     1       1.585 -15.128  19.229  1.00  0.00     0.144 C 
ATOM     16  C   UNL     1       1.028 -14.007  20.126  1.00  0.00     0.035 C 
BRANCH  15  17
ATOM     17  N   UNL     1       0.638 -16.259  18.962  1.00  0.00    -0.287 NA
ATOM     18  C   UNL     1       0.166 -16.324  17.534  1.00  0.00     0.068 C 
ATOM     19  C   UNL     1      -0.840 -15.196  17.146  1.00  0.00     0.103 C 
ATOM     20  N   UNL     1      -2.001 -15.132  18.051  1.00  0.00    -0.304 NA
ATOM     21  C   UNL     1      -0.588 -16.211  19.801  1.00  0.00     0.101 C 
ATOM     22  C   UNL     1      -1.564 -15.063  19.453  1.00  0.00     0.100 C 
ATOM     23  C   UNL     1       1.266 -16.415  16.472  1.00  0.00     0.026 C 
ATOM     24  C   UNL     1      -2.870 -14.009  17.708  1.00  0.00     0.105 C 
ENDBRANCH  15  17
ENDBRANCH  12  15
ENDBRANCH   1  11
BRANCH   6  25
ATOM     25  C   UNL     1       8.319 -19.354  21.648  1.00  0.00     0.114 A 
ATOM     26  N   UNL     1       8.356 -20.696  21.435  1.00  0.00    -0.210 NA
ATOM     27  C   UNL     1       9.350 -18.679  22.266  1.00  0.00     0.167 A 
ATOM     28  C   UNL     1       9.430 -21.373  21.873  1.00  0.00     0.228 A 
ATOM     29  C   UNL     1      10.413 -19.446  22.656  1.00  0.00     0.156 A 
ATOM     30  N   UNL     1      10.474 -20.783  22.473  1.00  0.00    -0.218 NA
ATOM     31  F   UNL     1       9.351 -17.357  22.486  1.00  0.00    -0.203 F 
BRANCH  28  32
ATOM     32  N   UNL     1       9.374 -22.754  21.718  1.00  0.00    -0.322 N 
ATOM     33  H   UNL     1      10.110 -23.064  21.092  1.00  0.00     0.170 HD
BRANCH  32  34
ATOM     34  C   UNL     1       8.414 -23.722  22.059  1.00  0.00     0.078 A 
ATOM     35  C   UNL     1       8.547 -24.611  23.135  1.00  0.00     0.029 A 
ATOM     36  C   UNL     1       7.230 -23.787  21.307  1.00  0.00     0.165 A 
ATOM     37  C   UNL     1       7.515 -25.488  23.487  1.00  0.00     0.004 A 
ATOM     38  C   UNL     1       6.198 -24.652  21.661  1.00  0.00     0.104 A 
ATOM     39  C   UNL     1       6.326 -25.498  22.764  1.00  0.00     0.023 A 
ATOM     40  F   UNL     1       7.115 -23.003  20.224  1.00  0.00    -0.203 F 
BRANCH  38  41
ATOM     41  S   UNL     1       4.687 -24.590  20.755  1.00  0.00     0.178 S 
ATOM     42  O   UNL     1       4.053 -23.324  21.081  1.00  0.00    -0.224 OA
ATOM     43  O   UNL     1       4.993 -24.914  19.378  1.00  0.00    -0.224 OA
ATOM     44  C   UNL     1       3.700 -25.886  21.455  1.00  0.00     0.164 C 
ENDBRANCH  38  41
ENDBRANCH  32  34
ENDBRANCH  28  32
ENDBRANCH   6  25
TORSDOF 7
ENDMDL
MODEL 8
REMARK VINA RESULT:   -10.331      4.217      6.632
REMARK INTER + INTRA:         -14.377
REMARK INTER:                 -13.780
REMARK INTRA:                  -0.597
REMARK UNBOUND:                 0.182
REMARK SMILES C[C@@H]1CN(C)CCN1[C@@H](C)C(=O)Nc1cccc2c(-c3nc(Nc4cccc(S(C)(=O)=O)c4F)ncc3F)c[nH]c12
REMARK SMILES IDX 14 1 15 2 16 3 17 4 18 5 19 6 39 7 40 8 41 9 13 11 11 12
REMARK SMILES IDX 12 13 9 15 10 16 8 17 2 18 3 19 4 20 7 21 6 22 1 23 5 24
REMARK SMILES IDX 20 25 21 26 37 27 22 28 36 29 35 30 38 31 23 32 24 34 25 35
REMARK SMILES IDX 33 36 26 37 28 38 27 39 34 40 29 41 31 42 32 43 30 44
REMARK H PARENT 40 10 13 14 23 33
ROOT
ATOM      1  C   UNL     1       5.765 -16.525  20.373  1.00  0.00     0.065 A 
ATOM      2  C   UNL     1       6.868 -15.783  19.916  1.00  0.00     0.028 A 
ATOM      3  C   UNL     1       8.175 -16.136  20.240  1.00  0.00     0.003 A 
ATOM      4  C   UNL     1       8.431 -17.260  21.023  1.00  0.00     0.011 A 
ATOM      5  C   UNL     1       7.358 -18.048  21.490  1.00  0.00     0.011 A 
ATOM      6  C   UNL     1       7.275 -19.229  22.306  1.00  0.00     0.029 A 
ATOM      7  C   UNL     1       5.932 -19.529  22.420  1.00  0.00     0.094 A 
ATOM      8  N   UNL     1       5.218 -18.570  21.764  1.00  0.00    -0.359 N 
ATOM      9  C   UNL     1       6.054 -17.656  21.157  1.00  0.00     0.070 A 
ATOM     10  H   UNL     1       4.204 -18.492  21.728  1.00  0.00     0.166 HD
ENDROOT
BRANCH   1  11
ATOM     11  N   UNL     1       4.489 -16.058  20.014  1.00  0.00    -0.323 N 
ATOM     12  C   UNL     1       3.932 -15.876  18.758  1.00  0.00     0.241 C 
ATOM     13  O   UNL     1       4.471 -16.097  17.677  1.00  0.00    -0.273 OA
ATOM     14  H   UNL     1       3.827 -15.896  20.771  1.00  0.00     0.170 HD
BRANCH  12  15
ATOM     15  C   UNL     1       2.501 -15.283  18.826  1.00  0.00     0.144 C 
ATOM     16  C   UNL     1       2.504 -14.383  20.075  1.00  0.00     0.035 C 
BRANCH  15  17
ATOM     17  N   UNL     1       1.493 -16.392  18.843  1.00  0.00    -0.287 NA
ATOM     18  C   UNL     1       0.651 -16.460  17.597  1.00  0.00     0.068 C 
ATOM     19  C   UNL     1      -0.397 -15.311  17.475  1.00  0.00     0.103 C 
ATOM     20  N   UNL     1      -1.269 -15.209  18.658  1.00  0.00    -0.304 NA
ATOM     21  C   UNL     1       0.541 -16.305  19.981  1.00  0.00     0.101 C 
ATOM     22  C   UNL     1      -0.468 -15.136  19.890  1.00  0.00     0.100 C 
ATOM     23  C   UNL     1       1.422 -16.591  16.279  1.00  0.00     0.026 C 
ATOM     24  C   UNL     1      -2.173 -14.067  18.544  1.00  0.00     0.105 C 
ENDBRANCH  15  17
ENDBRANCH  12  15
ENDBRANCH   1  11
BRANCH   6  25
ATOM     25  C   UNL     1       8.333 -20.026  22.919  1.00  0.00     0.114 A 
ATOM     26  N   UNL     1       8.346 -21.344  22.585  1.00  0.00    -0.210 NA
ATOM     27  C   UNL     1       9.243 -19.482  23.800  1.00  0.00     0.167 A 
ATOM     28  C   UNL     1       9.267 -22.131  23.166  1.00  0.00     0.228 A 
ATOM     29  C   UNL     1      10.158 -20.353  24.322  1.00  0.00     0.156 A 
ATOM     30  N   UNL     1      10.189 -21.670  24.024  1.00  0.00    -0.218 NA
ATOM     31  F   UNL     1       9.264 -18.188  24.145  1.00  0.00    -0.203 F 
BRANCH  28  32
ATOM     32  N   UNL     1       9.175 -23.486  22.867  1.00  0.00    -0.322 N 
ATOM     33  H   UNL     1      10.040 -23.810  22.446  1.00  0.00     0.170 HD
BRANCH  32  34
ATOM     34  C   UNL     1       8.101 -24.391  22.827  1.00  0.00     0.078 A 
ATOM     35  C   UNL     1       7.955 -25.473  23.708  1.00  0.00     0.029 A 
ATOM     36  C   UNL     1       7.086 -24.189  21.877  1.00  0.00     0.165 A 
ATOM     37  C   UNL     1       6.815 -26.284  23.684  1.00  0.00     0.004 A 
ATOM     38  C   UNL     1       5.946 -24.988  21.857  1.00  0.00     0.104 A 
ATOM     39  C   UNL     1       5.794 -26.032  22.771  1.00  0.00     0.023 A 
ATOM     40  F   UNL     1       7.243 -23.211  20.972  1.00  0.00    -0.203 F 
BRANCH  38  41
ATOM     41  S   UNL     1       4.652 -24.598  20.726  1.00  0.00     0.178 S 
ATOM     42  O   UNL     1       4.145 -23.289  21.102  1.00  0.00    -0.224 OA
ATOM     43  O   UNL     1       5.163 -24.820  19.389  1.00  0.00    -0.224 OA
ATOM     44  C   UNL     1       3.387 -25.790  21.075  1.00  0.00     0.164 C 
ENDBRANCH  38  41
ENDBRANCH  32  34
ENDBRANCH  28  32
ENDBRANCH   6  25
TORSDOF 7
ENDMDL
MODEL 9
REMARK VINA RESULT:   -10.229      3.618     11.172
REMARK INTER + INTRA:         -14.234
REMARK INTER:                 -13.844
REMARK INTRA:                  -0.390
REMARK UNBOUND:                 0.182
REMARK SMILES C[C@@H]1CN(C)CCN1[C@@H](C)C(=O)Nc1cccc2c(-c3nc(Nc4cccc(S(C)(=O)=O)c4F)ncc3F)c[nH]c12
REMARK SMILES IDX 14 1 15 2 16 3 17 4 18 5 19 6 39 7 40 8 41 9 13 11 11 12
REMARK SMILES IDX 12 13 9 15 10 16 8 17 2 18 3 19 4 20 7 21 6 22 1 23 5 24
REMARK SMILES IDX 20 25 21 26 37 27 22 28 36 29 35 30 38 31 23 32 24 34 25 35
REMARK SMILES IDX 33 36 26 37 28 38 27 39 34 40 29 41 31 42 32 43 30 44
REMARK H PARENT 40 10 13 14 23 33
ROOT
ATOM      1  C   UNL     1       9.407 -25.394  24.379  1.00  0.00     0.065 A 
ATOM      2  C   UNL     1       9.636 -24.067  23.975  1.00  0.00     0.028 A 
ATOM      3  C   UNL     1       8.716 -23.368  23.198  1.00  0.00     0.003 A 
ATOM      4  C   UNL     1       7.518 -23.967  22.808  1.00  0.00     0.011 A 
ATOM      5  C   UNL     1       7.235 -25.290  23.205  1.00  0.00     0.011 A 
ATOM      6  C   UNL     1       6.132 -26.182  22.971  1.00  0.00     0.029 A 
ATOM      7  C   UNL     1       6.439 -27.359  23.625  1.00  0.00     0.094 A 
ATOM      8  N   UNL     1       7.675 -27.232  24.185  1.00  0.00    -0.359 N 
ATOM      9  C   UNL     1       8.189 -25.971  23.975  1.00  0.00     0.070 A 
ATOM     10  H   UNL     1       8.192 -27.959  24.678  1.00  0.00     0.166 HD
ENDROOT
BRANCH   1  11
ATOM     11  N   UNL     1      10.418 -26.015  25.132  1.00  0.00    -0.323 N 
ATOM     12  C   UNL     1      10.494 -26.245  26.497  1.00  0.00     0.241 C 
ATOM     13  O   UNL     1       9.656 -25.937  27.340  1.00  0.00    -0.273 OA
ATOM     14  H   UNL     1      11.186 -26.436  24.614  1.00  0.00     0.170 HD
BRANCH  12  15
ATOM     15  C   UNL     1      11.828 -26.917  26.910  1.00  0.00     0.144 C 
ATOM     16  C   UNL     1      12.165 -27.873  25.752  1.00  0.00     0.035 C 
BRANCH  15  17
ATOM     17  N   UNL     1      11.673 -27.570  28.250  1.00  0.00    -0.287 NA
ATOM     18  C   UNL     1      12.520 -26.945  29.327  1.00  0.00     0.068 C 
ATOM     19  C   UNL     1      14.044 -27.248  29.192  1.00  0.00     0.103 C 
ATOM     20  N   UNL     1      14.332 -28.691  29.108  1.00  0.00    -0.304 NA
ATOM     21  C   UNL     1      12.015 -29.017  28.243  1.00  0.00     0.101 C 
ATOM     22  C   UNL     1      13.520 -29.324  28.058  1.00  0.00     0.100 C 
ATOM     23  C   UNL     1      12.314 -25.442  29.547  1.00  0.00     0.026 C 
ATOM     24  C   UNL     1      15.757 -28.927  28.892  1.00  0.00     0.105 C 
ENDBRANCH  15  17
ENDBRANCH  12  15
ENDBRANCH   1  11
BRANCH   6  25
ATOM     25  C   UNL     1       4.894 -25.974  22.226  1.00  0.00     0.114 A 
ATOM     26  N   UNL     1       4.797 -24.793  21.561  1.00  0.00    -0.210 NA
ATOM     27  C   UNL     1       3.878 -26.906  22.221  1.00  0.00     0.167 A 
ATOM     28  C   UNL     1       3.655 -24.532  20.906  1.00  0.00     0.228 A 
ATOM     29  C   UNL     1       2.763 -26.565  21.506  1.00  0.00     0.156 A 
ATOM     30  N   UNL     1       2.629 -25.393  20.849  1.00  0.00    -0.218 NA
ATOM     31  F   UNL     1       3.942 -28.083  22.858  1.00  0.00    -0.203 F 
BRANCH  28  32
ATOM     32  N   UNL     1       3.569 -23.270  20.326  1.00  0.00    -0.322 N 
ATOM     33  H   UNL     1       2.792 -23.239  19.673  1.00  0.00     0.170 HD
BRANCH  32  34
ATOM     34  C   UNL     1       4.435 -22.164  20.297  1.00  0.00     0.078 A 
ATOM     35  C   UNL     1       5.788 -22.238  19.934  1.00  0.00     0.029 A 
ATOM     36  C   UNL     1       3.918 -20.897  20.613  1.00  0.00     0.165 A 
ATOM     37  C   UNL     1       6.578 -21.088  19.830  1.00  0.00     0.004 A 
ATOM     38  C   UNL     1       4.699 -19.750  20.501  1.00  0.00     0.104 A 
ATOM     39  C   UNL     1       6.031 -19.835  20.092  1.00  0.00     0.023 A 
ATOM     40  F   UNL     1       2.649 -20.813  21.042  1.00  0.00    -0.203 F 
BRANCH  38  41
ATOM     41  S   UNL     1       3.951 -18.179  20.785  1.00  0.00     0.178 S 
ATOM     42  O   UNL     1       2.846 -18.064  19.848  1.00  0.00    -0.224 OA
ATOM     43  O   UNL     1       3.709 -18.065  22.207  1.00  0.00    -0.224 OA
ATOM     44  C   UNL     1       5.192 -17.008  20.305  1.00  0.00     0.164 C 
ENDBRANCH  38  41
ENDBRANCH  32  34
ENDBRANCH  28  32
ENDBRANCH   6  25
TORSDOF 7
ENDMDL
