REMARK VINA RESULT:    -9.792      2.343      3.165
REMARK INTER + INTRA:         -16.627
REMARK INTER:                 -14.267
REMARK INTRA:                  -2.360
REMARK UNBOUND:                -1.110
REMARK SMILES N#Cc1cnc(NCC(F)(F)c2ccccc2)c(=O)n1CC(=O)NCCONC(=N)N
REMARK SMILES IDX 22 1 23 2 24 3 21 5 20 6 1 7 2 8 3 9 4 10 5 11 18 12 6 13
REMARK SMILES IDX 19 14 7 15 8 17 9 18 10 19 11 20 12 21 13 22 17 23 14 24
REMARK SMILES IDX 16 25 15 26 25 27 26 28 27 29 28 30 29 31 30 32 31 33
REMARK H PARENT 24 4 7 16 28 34 30 35 31 36 31 37
ROOT
ATOM      1  C   UNL     1      -0.586  10.752  23.385  1.00  0.00     0.240 C 
ATOM      2  O   UNL     1      -0.303  11.862  23.833  1.00  0.00    -0.273 OA
ATOM      3  N   UNL     1      -0.623   9.631  24.187  1.00  0.00    -0.352 N 
ATOM      4  H   UNL     1      -0.630   8.716  23.749  1.00  0.00     0.163 HD
ENDROOT
BRANCH   1   5
ATOM      5  C   UNL     1      -0.708  10.502  21.876  1.00  0.00     0.226 C 
BRANCH   5   6
ATOM      6  N   UNL     1      -1.567  11.436  21.147  1.00  0.00    -0.286 N 
ATOM      7  N   UNL     1       1.487  13.033  20.382  1.00  0.00    -0.191 NA
ATOM      8  C   UNL     1       0.346  12.815  20.421  1.00  0.00     0.119 C 
ATOM      9  C   UNL     1      -1.053  12.511  20.427  1.00  0.00     0.142 A 
ATOM     10  C   UNL     1      -1.887  13.290  19.715  1.00  0.00     0.151 A 
ATOM     11  N   UNL     1      -3.244  13.125  19.594  1.00  0.00    -0.231 NA
ATOM     12  C   UNL     1      -2.940  11.242  21.188  1.00  0.00     0.294 A 
ATOM     13  C   UNL     1      -3.790  12.163  20.282  1.00  0.00     0.193 A 
ATOM     14  O   UNL     1      -3.516  10.419  21.893  1.00  0.00    -0.265 OA
BRANCH  13  15
ATOM     15  N   UNL     1      -5.143  11.903  20.232  1.00  0.00    -0.359 N 
ATOM     16  H   UNL     1      -5.702  12.183  21.036  1.00  0.00     0.162 HD
BRANCH  15  17
ATOM     17  C   UNL     1      -5.769  11.032  19.244  1.00  0.00     0.196 C 
BRANCH  17  18
ATOM     18  C   UNL     1      -6.616   9.893  19.859  1.00  0.00     0.290 C 
ATOM     19  F   UNL     1      -6.524  10.010  21.224  1.00  0.00    -0.199 F 
ATOM     20  F   UNL     1      -7.931  10.166  19.581  1.00  0.00    -0.199 F 
BRANCH  18  21
ATOM     21  C   UNL     1      -6.225   8.510  19.377  1.00  0.00     0.023 A 
ATOM     22  C   UNL     1      -4.920   8.252  18.928  1.00  0.00     0.010 A 
ATOM     23  C   UNL     1      -7.164   7.468  19.363  1.00  0.00     0.010 A 
ATOM     24  C   UNL     1      -4.566   6.983  18.467  1.00  0.00     0.001 A 
ATOM     25  C   UNL     1      -6.808   6.200  18.901  1.00  0.00     0.001 A 
ATOM     26  C   UNL     1      -5.510   5.959  18.453  1.00  0.00     0.000 A 
ENDBRANCH  18  21
ENDBRANCH  17  18
ENDBRANCH  15  17
ENDBRANCH  13  15
ENDBRANCH   5   6
ENDBRANCH   1   5
BRANCH   3  27
ATOM     27  C   UNL     1      -0.419   9.713  25.625  1.00  0.00     0.147 C 
BRANCH  27  28
ATOM     28  C   UNL     1      -1.724   9.694  26.427  1.00  0.00     0.215 C 
BRANCH  28  29
ATOM     29  O   UNL     1      -2.303  11.008  26.400  1.00  0.00    -0.272 OA
BRANCH  29  30
ATOM     30  N   UNL     1      -3.525  10.909  25.739  1.00  0.00    -0.235 N 
ATOM     31  C   UNL     1      -3.828  11.919  24.889  1.00  0.00     0.210 C 
ATOM     32  N   UNL     1      -3.057  12.928  24.654  1.00  0.00    -0.268 NA
ATOM     33  N   UNL     1      -5.025  11.828  24.291  1.00  0.00    -0.368 N 
ATOM     34  H   UNL     1      -3.954   9.996  25.666  1.00  0.00     0.199 HD
ATOM     35  H   UNL     1      -2.220  12.736  25.224  1.00  0.00     0.191 HD
ATOM     36  H   UNL     1      -5.767  11.251  24.653  1.00  0.00     0.159 HD
ATOM     37  H   UNL     1      -5.286  12.595  23.683  1.00  0.00     0.159 HD
ENDBRANCH  29  30
ENDBRANCH  28  29
ENDBRANCH  27  28
ENDBRANCH   3  27
TORSDOF 10
