MODEL 6
REMARK VINA RESULT:    -8.626      1.812      2.503
REMARK INTER + INTRA:         -11.388
REMARK INTER:                 -10.398
REMARK INTRA:                  -0.989
REMARK UNBOUND:                -0.744
REMARK SMILES N#C[C@H]1CCCC[C@H]1n1cc(C(N)=O)c(Nc2ccc3c(c2)C=CS3(=O)=O)n1
REMARK SMILES IDX 9 1 10 2 11 3 15 4 28 5 8 6 1 7 2 8 3 9 4 10 5 11 7 12 6 13
REMARK SMILES IDX 12 14 13 15 14 16 16 19 17 21 18 22 22 23 19 24 21 25 20 26
REMARK SMILES IDX 23 27 25 28 24 29 26 30 27 31
REMARK H PARENT 13 17 13 18 16 20
ROOT
ATOM      1  N   UNL     1     -13.609  15.705  19.838  1.00  0.00    -0.265 N 
ATOM      2  C   UNL     1     -13.381  16.884  19.191  1.00  0.00     0.125 A 
ATOM      3  C   UNL     1     -14.128  17.838  19.860  1.00  0.00     0.101 A 
ATOM      4  C   UNL     1     -14.775  17.116  20.911  1.00  0.00     0.165 A 
ATOM      5  N   UNL     1     -14.443  15.822  20.870  1.00  0.00    -0.154 NA
ENDROOT
BRANCH   1   6
ATOM      6  C   UNL     1     -13.064  14.398  19.493  1.00  0.00     0.124 C 
ATOM      7  N   UNL     1      -9.827  15.355  20.692  1.00  0.00    -0.198 NA
ATOM      8  C   UNL     1     -10.644  14.984  19.955  1.00  0.00     0.068 C 
ATOM      9  C   UNL     1     -11.615  14.456  18.971  1.00  0.00     0.117 C 
ATOM     10  C   UNL     1     -11.176  13.050  18.523  1.00  0.00     0.021 C 
ATOM     11  C   UNL     1     -11.362  11.993  19.617  1.00  0.00     0.002 C 
ATOM     12  C   UNL     1     -13.243  13.364  20.618  1.00  0.00     0.029 C 
ATOM     13  C   UNL     1     -12.787  11.979  20.163  1.00  0.00     0.002 C 
ENDBRANCH   1   6
BRANCH   3  14
ATOM     14  C   UNL     1     -14.249  19.256  19.581  1.00  0.00     0.254 C 
ATOM     15  N   UNL     1     -14.217  19.624  18.267  1.00  0.00    -0.365 N 
ATOM     16  O   UNL     1     -14.353  20.105  20.462  1.00  0.00    -0.269 OA
ATOM     17  H   UNL     1     -14.200  20.616  18.072  1.00  0.00     0.159 HD
ATOM     18  H   UNL     1     -13.987  18.983  17.524  1.00  0.00     0.159 HD
ENDBRANCH   3  14
BRANCH   4  19
ATOM     19  N   UNL     1     -15.616  17.719  21.789  1.00  0.00    -0.338 N 
ATOM     20  H   UNL     1     -15.226  17.946  22.705  1.00  0.00     0.168 HD
BRANCH  19  21
ATOM     21  C   UNL     1     -17.002  17.988  21.717  1.00  0.00     0.040 A 
ATOM     22  C   UNL     1     -17.828  17.541  22.778  1.00  0.00     0.027 A 
ATOM     23  C   UNL     1     -17.584  18.727  20.672  1.00  0.00     0.035 A 
ATOM     24  C   UNL     1     -19.202  17.800  22.800  1.00  0.00     0.023 A 
ATOM     25  C   UNL     1     -18.947  18.982  20.683  1.00  0.00    -0.004 A 
ATOM     26  C   UNL     1     -19.718  18.515  21.741  1.00  0.00     0.078 A 
ATOM     27  C   UNL     1     -19.723  19.712  19.686  1.00  0.00     0.022 C 
ATOM     28  S   UNL     1     -21.383  18.978  21.499  1.00  0.00     0.200 S 
ATOM     29  C   UNL     1     -21.027  19.780  19.996  1.00  0.00     0.112 C 
ATOM     30  O   UNL     1     -21.736  19.947  22.514  1.00  0.00    -0.219 OA
ATOM     31  O   UNL     1     -22.156  17.778  21.257  1.00  0.00    -0.219 OA
ENDBRANCH  19  21
ENDBRANCH   4  19
TORSDOF 4
ENDMDL
