MODEL 7
REMARK VINA RESULT:   -10.288      4.582      8.899
REMARK INTER + INTRA:         -18.242
REMARK INTER:                 -16.921
REMARK INTRA:                  -1.321
REMARK UNBOUND:                -1.038
REMARK SMILES Cc1cc(OCc2nc(-c3ccc(N4CCCCC4)cc3)c(-c3ccc(OC(F)(F)F)cc3)s2)ccc1OCC(=O)O
REMARK SMILES IDX 5 1 4 2 2 3 3 4 37 5 36 6 35 7 1 8 38 9 39 10 40 11 41 12
REMARK SMILES IDX 42 13 6 15 7 16 8 17 34 18 9 19 22 20 10 21 11 22 21 23
REMARK SMILES IDX 12 24 20 25 13 26 14 27 15 28 19 29 16 30 18 31 17 32 23 33
REMARK SMILES IDX 24 34 33 35 25 36 32 37 26 38 27 39 28 40 29 41 30 42 31 43
REMARK H PARENT 42 14
ROOT
ATOM      1  O   UNL     1      38.435   5.434 134.624  1.00  0.00    -0.486 OA
ENDROOT
BRANCH   1   2
ATOM      2  C   UNL     1      37.989   4.707 135.692  1.00  0.00     0.120 A 
ATOM      3  C   UNL     1      36.815   2.671 136.345  1.00  0.00    -0.005 A 
ATOM      4  C   UNL     1      37.335   3.520 135.356  1.00  0.00     0.053 A 
ATOM      5  C   UNL     1      36.959   3.015 137.699  1.00  0.00     0.123 A 
ATOM      6  C   UNL     1      37.619   4.202 138.032  1.00  0.00     0.050 A 
ATOM      7  C   UNL     1      38.129   5.044 137.035  1.00  0.00     0.050 A 
ATOM      8  C   UNL     1      36.121   1.398 135.941  1.00  0.00     0.048 C 
BRANCH   5   9
ATOM      9  O   UNL     1      36.423   2.128 138.593  1.00  0.00    -0.482 OA
BRANCH   9  10
ATOM     10  C   UNL     1      35.294   2.527 139.354  1.00  0.00     0.351 C 
BRANCH  10  11
ATOM     11  C   UNL     1      35.603   3.042 140.749  1.00  0.00     0.341 C 
ATOM     12  O   UNL     1      35.009   3.939 141.327  1.00  0.00    -0.248 OA
BRANCH  11  13
ATOM     13  O   UNL     1      36.644   2.420 141.337  1.00  0.00    -0.479 OA
ATOM     14  H   UNL     1      37.012   3.083 141.957  1.00  0.00     0.296 HD
ENDBRANCH  11  13
ENDBRANCH  10  11
ENDBRANCH   9  10
ENDBRANCH   5   9
ENDBRANCH   1   2
BRANCH   1  15
ATOM     15  C   UNL     1      39.820   5.318 134.294  1.00  0.00     0.297 C 
BRANCH  15  16
ATOM     16  C   UNL     1      39.963   4.133 133.387  1.00  0.00     0.132 A 
ATOM     17  N   UNL     1      38.996   3.654 132.635  1.00  0.00    -0.237 NA
ATOM     18  S   UNL     1      41.467   3.316 133.256  1.00  0.00    -0.115 S 
ATOM     19  C   UNL     1      39.446   2.557 131.912  1.00  0.00     0.090 A 
ATOM     20  C   UNL     1      40.771   2.201 132.140  1.00  0.00     0.063 A 
BRANCH  19  21
ATOM     21  C   UNL     1      38.523   1.854 131.028  1.00  0.00     0.002 A 
ATOM     22  C   UNL     1      37.885   0.673 131.405  1.00  0.00     0.012 A 
ATOM     23  C   UNL     1      38.287   2.355 129.747  1.00  0.00     0.012 A 
ATOM     24  C   UNL     1      36.992   0.039 130.528  1.00  0.00     0.026 A 
ATOM     25  C   UNL     1      37.395   1.709 128.876  1.00  0.00     0.026 A 
ATOM     26  C   UNL     1      36.700   0.550 129.251  1.00  0.00     0.037 A 
BRANCH  26  27
ATOM     27  N   UNL     1      35.802  -0.112 128.411  1.00  0.00    -0.372 N 
ATOM     28  C   UNL     1      34.586  -0.678 129.021  1.00  0.00     0.116 C 
ATOM     29  C   UNL     1      35.603   0.330 127.022  1.00  0.00     0.116 C 
ATOM     30  C   UNL     1      33.464   0.363 129.009  1.00  0.00     0.021 C 
ATOM     31  C   UNL     1      34.484   1.371 126.933  1.00  0.00     0.021 C 
ATOM     32  C   UNL     1      33.200   0.869 127.590  1.00  0.00     0.004 C 
ENDBRANCH  26  27
ENDBRANCH  19  21
BRANCH  20  33
ATOM     33  C   UNL     1      41.579   1.078 131.654  1.00  0.00    -0.006 A 
ATOM     34  C   UNL     1      42.693   0.643 132.386  1.00  0.00     0.013 A 
ATOM     35  C   UNL     1      41.260   0.418 130.460  1.00  0.00     0.013 A 
ATOM     36  C   UNL     1      43.464  -0.438 131.946  1.00  0.00     0.047 A 
ATOM     37  C   UNL     1      42.034  -0.658 130.015  1.00  0.00     0.047 A 
ATOM     38  C   UNL     1      43.119  -1.102 130.771  1.00  0.00     0.129 A 
BRANCH  38  39
ATOM     39  O   UNL     1      43.832  -2.146 130.255  1.00  0.00    -0.406 OA
BRANCH  39  40
ATOM     40  C   UNL     1      44.089  -3.185 131.193  1.00  0.00     0.573 C 
ATOM     41  F   UNL     1      45.286  -3.015 131.796  1.00  0.00    -0.132 F 
ATOM     42  F   UNL     1      43.115  -3.259 132.130  1.00  0.00    -0.132 F 
ATOM     43  F   UNL     1      44.121  -4.363 130.532  1.00  0.00    -0.132 F 
ENDBRANCH  39  40
ENDBRANCH  38  39
ENDBRANCH  20  33
ENDBRANCH  15  16
ENDBRANCH   1  15
TORSDOF 12
ENDMDL
