MODEL 9
REMARK VINA RESULT:    -6.987      6.329      7.236
REMARK INTER + INTRA:         -10.245
REMARK INTER:                  -9.681
REMARK INTRA:                  -0.564
REMARK UNBOUND:                -0.602
REMARK SMILES O=C(O)Cc1csc2cc(OCc3cc(-c4ccc(Cl)cc4)on3)ccc12
REMARK SMILES IDX 5 1 6 2 7 3 8 4 9 5 10 6 25 7 26 8 27 9 4 10 2 11 1 12 3 13
REMARK SMILES IDX 11 15 12 16 13 17 14 18 24 19 15 20 23 21 16 22 17 23 22 24
REMARK SMILES IDX 18 25 21 26 19 27 20 28
REMARK H PARENT 3 14
ROOT
ATOM      1  C   UNL     1      10.832   1.910  -2.360  1.00  0.00    -0.018 A 
ATOM      2  C   UNL     1      10.116   2.640  -1.431  1.00  0.00     0.070 A 
ATOM      3  S   UNL     1       9.061   3.769  -2.144  1.00  0.00    -0.143 S 
ATOM      4  C   UNL     1       9.527   3.310  -3.734  1.00  0.00     0.038 A 
ATOM      5  C   UNL     1       9.041   3.845  -4.944  1.00  0.00     0.066 A 
ATOM      6  C   UNL     1       9.525   3.357  -6.161  1.00  0.00     0.121 A 
ATOM      7  C   UNL     1      10.483   2.353  -6.169  1.00  0.00     0.047 A 
ATOM      8  C   UNL     1      10.965   1.824  -4.962  1.00  0.00     0.014 A 
ATOM      9  C   UNL     1      10.490   2.298  -3.713  1.00  0.00    -0.004 A 
ENDROOT
BRANCH   1  10
ATOM     10  C   UNL     1      11.841   0.855  -1.999  1.00  0.00     0.159 C 
BRANCH  10  11
ATOM     11  C   UNL     1      13.248   1.225  -2.405  1.00  0.00     0.307 C 
ATOM     12  O   UNL     1      13.872   0.868  -3.389  1.00  0.00    -0.252 OA
BRANCH  11  13
ATOM     13  O   UNL     1      13.835   2.035  -1.495  1.00  0.00    -0.481 OA
ATOM     14  H   UNL     1      14.674   1.574  -1.280  1.00  0.00     0.296 HD
ENDBRANCH  11  13
ENDBRANCH  10  11
ENDBRANCH   1  10
BRANCH   6  15
ATOM     15  O   UNL     1       8.975   3.952  -7.264  1.00  0.00    -0.487 OA
BRANCH  15  16
ATOM     16  C   UNL     1       9.773   3.994  -8.454  1.00  0.00     0.289 C 
BRANCH  16  17
ATOM     17  C   UNL     1       9.987   5.396  -8.922  1.00  0.00     0.122 A 
ATOM     18  C   UNL     1      10.110   5.880 -10.247  1.00  0.00     0.081 A 
ATOM     19  N   UNL     1      10.107   6.391  -8.034  1.00  0.00    -0.081 NA
ATOM     20  C   UNL     1      10.299   7.237 -10.111  1.00  0.00     0.167 A 
ATOM     21  O   UNL     1      10.297   7.539  -8.780  1.00  0.00    -0.356 OA
BRANCH  20  22
ATOM     22  C   UNL     1      10.491   8.349 -11.037  1.00  0.00     0.020 A 
ATOM     23  C   UNL     1      10.697   8.108 -12.405  1.00  0.00     0.013 A 
ATOM     24  C   UNL     1      10.469   9.682 -10.594  1.00  0.00     0.013 A 
ATOM     25  C   UNL     1      10.878   9.167 -13.302  1.00  0.00     0.021 A 
ATOM     26  C   UNL     1      10.648  10.741 -11.489  1.00  0.00     0.021 A 
ATOM     27  C   UNL     1      10.850  10.479 -12.839  1.00  0.00     0.041 A 
ATOM     28  Cl  UNL     1      11.067  11.781 -13.942  1.00  0.00    -0.084 Cl
ENDBRANCH  20  22
ENDBRANCH  16  17
ENDBRANCH  15  16
ENDBRANCH   6  15
TORSDOF 7
ENDMDL
