REMARK VINA RESULT:   -10.713      2.296      3.194
REMARK INTER + INTRA:         -15.975
REMARK INTER:                 -14.931
REMARK INTRA:                  -1.044
REMARK UNBOUND:                -0.878
REMARK SMILES N#CC(C#N)=CNc1ccc2ncnc(Nc3ccc(OCc4cccc(F)c4)c(Cl)c3)c2c1
REMARK SMILES IDX 17 1 18 2 19 3 20 4 30 5 31 6 32 7 16 8 15 10 8 11 9 12
REMARK SMILES IDX 34 13 10 14 33 15 11 16 12 17 14 18 13 19 7 20 6 22 1 23
REMARK SMILES IDX 2 24 3 25 4 26 5 27 21 28 22 29 23 30 24 31 29 32 25 33
REMARK SMILES IDX 27 34 26 35 28 36
REMARK H PARENT 16 9 7 21
ROOT
ATOM      1  C   UNL     1      12.817   1.895  28.901  1.00  0.00     0.041 A 
ATOM      2  C   UNL     1      11.506   1.891  28.415  1.00  0.00     0.030 A 
ATOM      3  C   UNL     1      10.405   1.759  29.275  1.00  0.00     0.050 A 
ATOM      4  C   UNL     1      10.594   1.615  30.650  1.00  0.00     0.138 A 
ATOM      5  C   UNL     1      11.906   1.597  31.142  1.00  0.00     0.085 A 
ATOM      6  Cl  UNL     1      12.231   1.405  32.832  1.00  0.00    -0.080 Cl
ATOM      7  C   UNL     1      13.002   1.730  30.279  1.00  0.00     0.050 A 
ENDROOT
BRANCH   1   8
ATOM      8  N   UNL     1      13.944   2.003  28.065  1.00  0.00    -0.340 N 
ATOM      9  H   UNL     1      13.895   2.756  27.392  1.00  0.00     0.168 HD
BRANCH   8  10
ATOM     10  C   UNL     1      14.938   1.053  27.740  1.00  0.00     0.141 A 
ATOM     11  C   UNL     1      17.036   2.867  25.155  1.00  0.00     0.039 A 
ATOM     12  C   UNL     1      17.918   1.820  24.879  1.00  0.00     0.028 A 
ATOM     13  C   UNL     1      16.034   2.627  26.101  1.00  0.00     0.040 A 
ATOM     14  C   UNL     1      17.812   0.593  25.543  1.00  0.00     0.031 A 
ATOM     15  C   UNL     1      15.914   1.375  26.773  1.00  0.00     0.045 A 
ATOM     16  C   UNL     1      16.830   0.356  26.490  1.00  0.00     0.076 A 
ATOM     17  N   UNL     1      16.805  -0.836  27.090  1.00  0.00    -0.236 NA
ATOM     18  N   UNL     1      14.920  -0.138  28.367  1.00  0.00    -0.219 NA
ATOM     19  C   UNL     1      15.852  -1.024  28.007  1.00  0.00     0.224 A 
BRANCH  11  20
ATOM     20  N   UNL     1      17.181   4.074  24.449  1.00  0.00    -0.360 N 
ATOM     21  H   UNL     1      16.337   4.380  23.965  1.00  0.00     0.166 HD
BRANCH  20  22
ATOM     22  C   UNL     1      18.294   4.877  24.323  1.00  0.00     0.114 C 
ATOM     23  N   UNL     1      18.990   3.347  21.297  1.00  0.00    -0.192 NA
ATOM     24  C   UNL     1      19.101   4.071  22.197  1.00  0.00     0.112 C 
ATOM     25  C   UNL     1      19.197   4.930  23.324  1.00  0.00     0.145 C 
ATOM     26  C   UNL     1      20.272   5.858  23.398  1.00  0.00     0.112 C 
ATOM     27  N   UNL     1      21.140   6.621  23.499  1.00  0.00    -0.192 NA
ENDBRANCH  20  22
ENDBRANCH  11  20
ENDBRANCH   8  10
ENDBRANCH   1   8
BRANCH   4  28
ATOM     28  O   UNL     1       9.587   1.491  31.569  1.00  0.00    -0.487 OA
BRANCH  28  29
ATOM     29  C   UNL     1       8.243   1.609  31.108  1.00  0.00     0.265 C 
BRANCH  29  30
ATOM     30  C   UNL     1       7.773   3.034  31.295  1.00  0.00    -0.008 A 
ATOM     31  C   UNL     1       7.904   3.682  32.535  1.00  0.00     0.007 A 
ATOM     32  C   UNL     1       7.147   3.717  30.242  1.00  0.00     0.046 A 
ATOM     33  C   UNL     1       7.443   4.989  32.711  1.00  0.00     0.003 A 
ATOM     34  C   UNL     1       6.692   5.018  30.429  1.00  0.00     0.123 A 
ATOM     35  C   UNL     1       6.835   5.661  31.652  1.00  0.00     0.039 A 
ATOM     36  F   UNL     1       6.102   5.660  29.412  1.00  0.00    -0.207 F 
ENDBRANCH  29  30
ENDBRANCH  28  29
ENDBRANCH   4  28
TORSDOF 7
