REMARK VINA RESULT:    -7.120      3.205      6.855
REMARK INTER + INTRA:         -11.826
REMARK INTER:                 -10.118
REMARK INTRA:                  -1.708
REMARK UNBOUND:                -2.000
REMARK SMILES Cc1cc(N2C[C@H](CNC(=O)c3ccc(Cl)s3)OC2=O)ccc1-n1cccc(CO)c1=O
REMARK SMILES IDX 1 1 2 2 3 3 4 4 21 5 22 6 23 7 24 8 25 9 31 10 26 11 28 12
REMARK SMILES IDX 32 13 27 14 29 15 30 16 5 18 6 19 19 20 7 21 18 22 20 23
REMARK SMILES IDX 8 24 9 25 10 26 11 27 12 29 13 30 17 31 14 32 15 33 16 34
REMARK H PARENT 30 17 9 28
ROOT
ATOM      1  C   UNL     1     130.593 -16.555 163.510  1.00  0.00     0.047 C 
ATOM      2  C   UNL     1     129.451 -17.526 163.661  1.00  0.00    -0.025 A 
ATOM      3  C   UNL     1     129.718 -18.725 164.364  1.00  0.00     0.032 A 
ATOM      4  C   UNL     1     128.720 -19.665 164.652  1.00  0.00     0.048 A 
ATOM      5  C   UNL     1     127.424 -19.377 164.216  1.00  0.00     0.028 A 
ATOM      6  C   UNL     1     127.143 -18.207 163.498  1.00  0.00     0.029 A 
ATOM      7  C   UNL     1     128.147 -17.277 163.187  1.00  0.00     0.052 A 
ENDROOT
BRANCH   7   8
ATOM      8  N   UNL     1     127.810 -16.136 162.376  1.00  0.00    -0.284 N 
ATOM      9  C   UNL     1     128.007 -16.164 160.999  1.00  0.00     0.095 A 
ATOM     10  C   UNL     1     127.238 -15.002 162.995  1.00  0.00     0.260 A 
ATOM     11  C   UNL     1     127.701 -15.125 160.214  1.00  0.00     0.019 A 
ATOM     12  C   UNL     1     126.897 -13.846 162.099  1.00  0.00     0.043 A 
ATOM     13  O   UNL     1     127.030 -14.871 164.204  1.00  0.00    -0.269 OA
ATOM     14  C   UNL     1     127.139 -13.933 160.783  1.00  0.00     0.013 A 
BRANCH  12  15
ATOM     15  C   UNL     1     126.274 -12.655 162.755  1.00  0.00     0.197 C 
BRANCH  15  16
ATOM     16  O   UNL     1     125.887 -11.693 161.782  1.00  0.00    -0.391 OA
ATOM     17  H   UNL     1     124.924 -11.818 161.654  1.00  0.00     0.211 HD
ENDBRANCH  15  16
ENDBRANCH  12  15
ENDBRANCH   7   8
BRANCH   4  18
ATOM     18  N   UNL     1     128.994 -20.859 165.369  1.00  0.00    -0.274 N 
ATOM     19  C   UNL     1     128.679 -21.033 166.756  1.00  0.00     0.176 C 
ATOM     20  C   UNL     1     129.488 -22.052 164.860  1.00  0.00     0.414 C 
ATOM     21  C   UNL     1     129.428 -22.295 167.125  1.00  0.00     0.217 C 
ATOM     22  O   UNL     1     129.604 -22.973 165.872  1.00  0.00    -0.442 OA
ATOM     23  O   UNL     1     129.786 -22.334 163.711  1.00  0.00    -0.224 OA
BRANCH  21  24
ATOM     24  C   UNL     1     130.804 -22.002 167.737  1.00  0.00     0.163 C 
BRANCH  24  25
ATOM     25  N   UNL     1     131.072 -20.577 167.811  1.00  0.00    -0.348 N 
ATOM     26  C   UNL     1     132.060 -19.978 167.060  1.00  0.00     0.261 C 
ATOM     27  O   UNL     1     132.763 -20.641 166.299  1.00  0.00    -0.268 OA
ATOM     28  H   UNL     1     130.478 -19.991 168.388  1.00  0.00     0.163 HD
BRANCH  26  29
ATOM     29  C   UNL     1     132.201 -18.536 167.211  1.00  0.00     0.093 A 
ATOM     30  C   UNL     1     131.174 -17.608 167.286  1.00  0.00     0.027 A 
ATOM     31  S   UNL     1     133.732 -17.765 167.322  1.00  0.00    -0.118 S 
ATOM     32  C   UNL     1     131.649 -16.272 167.436  1.00  0.00     0.033 A 
ATOM     33  C   UNL     1     133.018 -16.240 167.465  1.00  0.00     0.094 A 
ATOM     34  Cl  UNL     1     134.007 -14.847 167.629  1.00  0.00    -0.072 Cl
ENDBRANCH  26  29
ENDBRANCH  24  25
ENDBRANCH  21  24
ENDBRANCH   4  18
TORSDOF 7
