REMARK VINA RESULT:    -8.008      1.672      2.704
REMARK INTER + INTRA:         -10.801
REMARK INTER:                 -10.016
REMARK INTRA:                  -0.784
REMARK UNBOUND:                -0.920
REMARK SMILES CN(c1ncnc2[nH]ccc12)[C@H]1CN(C(=O)c2ccncc2)CC12CC2
REMARK SMILES IDX 12 1 13 2 14 3 23 4 24 5 25 6 26 7 2 8 1 9 3 10 4 11 11 12
REMARK SMILES IDX 5 13 10 14 7 15 6 16 9 17 8 18 15 20 16 21 17 22 18 23 22 24
REMARK SMILES IDX 19 25 21 26 20 27
REMARK H PARENT 8 19
ROOT
ATOM      1  C   UNL     1       4.563 -23.501  20.760  1.00  0.00     0.111 C 
ATOM      2  C   UNL     1       3.893 -22.139  21.008  1.00  0.00     0.145 C 
ATOM      3  N   UNL     1       4.831 -21.138  20.499  1.00  0.00    -0.336 N 
ATOM      4  C   UNL     1       5.782 -21.710  19.567  1.00  0.00     0.129 C 
ATOM      5  C   UNL     1       5.572 -23.202  19.659  1.00  0.00     0.010 C 
ATOM      6  C   UNL     1       5.536 -24.015  18.374  1.00  0.00     0.012 C 
ATOM      7  C   UNL     1       6.692 -24.169  19.311  1.00  0.00     0.012 C 
ENDROOT
BRANCH   1   8
ATOM      8  N   UNL     1       5.187 -24.040  21.978  1.00  0.00    -0.354 N 
ATOM      9  C   UNL     1       5.656 -23.168  23.039  1.00  0.00     0.145 C 
BRANCH   8  10
ATOM     10  C   UNL     1       4.984 -25.393  22.243  1.00  0.00     0.141 A 
ATOM     11  N   UNL     1       3.824 -25.963  21.800  1.00  0.00    -0.219 NA
ATOM     12  C   UNL     1       5.877 -26.244  22.943  1.00  0.00     0.061 A 
ATOM     13  C   UNL     1       3.572 -27.262  22.053  1.00  0.00     0.226 A 
ATOM     14  C   UNL     1       7.172 -26.149  23.541  1.00  0.00     0.033 A 
ATOM     15  C   UNL     1       5.477 -27.562  23.126  1.00  0.00     0.142 A 
ATOM     16  N   UNL     1       4.340 -28.136  22.714  1.00  0.00    -0.218 NA
ATOM     17  C   UNL     1       7.497 -27.379  24.074  1.00  0.00     0.085 A 
ATOM     18  N   UNL     1       6.454 -28.227  23.816  1.00  0.00    -0.346 N 
ATOM     19  H   UNL     1       6.393 -29.201  24.072  1.00  0.00     0.167 HD
ENDBRANCH   8  10
ENDBRANCH   1   8
BRANCH   3  20
ATOM     20  C   UNL     1       4.916 -19.806  20.845  1.00  0.00     0.254 C 
ATOM     21  O   UNL     1       5.866 -19.329  21.461  1.00  0.00    -0.269 OA
BRANCH  20  22
ATOM     22  C   UNL     1       3.803 -18.905  20.482  1.00  0.00     0.043 A 
ATOM     23  C   UNL     1       3.398 -18.761  19.157  1.00  0.00     0.034 A 
ATOM     24  C   UNL     1       3.207 -18.147  21.486  1.00  0.00     0.034 A 
ATOM     25  C   UNL     1       2.367 -17.879  18.898  1.00  0.00     0.112 A 
ATOM     26  C   UNL     1       2.185 -17.293  21.121  1.00  0.00     0.112 A 
ATOM     27  N   UNL     1       1.745 -17.150  19.851  1.00  0.00    -0.265 NA
ENDBRANCH  20  22
ENDBRANCH   3  20
TORSDOF 4
