REMARK SMILES CN(c1ncnc2[nH]ccc12)[C@H]1C[C@@H](NS(=O)(=O)c2cccc(C(C)(C)O)c2)C1
REMARK SMILES IDX 16 1 17 2 18 3 15 4 14 6 12 7 13 8 29 9 2 10 1 11 3 12 4 13
REMARK SMILES IDX 11 14 5 15 10 16 7 17 6 18 9 19 8 20 19 22 20 23 28 24 21 25
REMARK SMILES IDX 23 26 22 27 24 28 25 29 26 30 27 31
REMARK H PARENT 15 5 8 21 27 32
REMARK INDEX MAP 16 1 17 2 18 3 15 4 41 5 14 6 12 7 13 8 29 9 2 10 1 11 3 12
REMARK INDEX MAP 4 13 11 14 5 15 10 16 7 17 6 18 9 19 8 20 34 21 19 22 20 23
REMARK INDEX MAP 28 24 21 25 23 26 22 27 24 28 25 29 26 30 27 31 51 32
ROOT
ATOM      1  S   UNL     1     -17.890  17.843  22.150  1.00  0.00     0.240 S 
ATOM      2  O   UNL     1     -17.669  16.846  21.126  1.00  0.00    -0.207 OA
ATOM      3  O   UNL     1     -17.545  17.610  23.534  1.00  0.00    -0.207 OA
ENDROOT
BRANCH   1   4
ATOM      4  N   UNL     1     -17.093  19.242  21.633  1.00  0.00    -0.208 NA
ATOM      5  H   UNL     1     -17.263  19.949  22.362  1.00  0.00     0.141 HD
BRANCH   4   6
ATOM      6  C   UNL     1     -15.632  19.294  21.347  1.00  0.00     0.074 C 
ATOM      7  C   UNL     1     -13.951  18.445  20.331  1.00  0.00     0.086 C 
ATOM      8  C   UNL     1     -15.208  19.235  19.864  1.00  0.00     0.045 C 
ATOM      9  C   UNL     1     -14.827  17.988  21.532  1.00  0.00     0.045 C 
BRANCH   7  10
ATOM     10  N   UNL     1     -13.558  17.376  19.457  1.00  0.00    -0.356 N 
ATOM     11  C   UNL     1     -12.280  17.425  18.755  1.00  0.00     0.145 C 
BRANCH  10  12
ATOM     12  C   UNL     1     -14.240  16.151  19.272  1.00  0.00     0.141 A 
ATOM     13  N   UNL     1     -15.423  16.167  18.588  1.00  0.00    -0.219 NA
ATOM     14  C   UNL     1     -13.790  14.893  19.733  1.00  0.00     0.061 A 
ATOM     15  C   UNL     1     -16.117  15.025  18.429  1.00  0.00     0.226 A 
ATOM     16  C   UNL     1     -12.637  14.365  20.392  1.00  0.00     0.033 A 
ATOM     17  C   UNL     1     -14.614  13.801  19.487  1.00  0.00     0.142 A 
ATOM     18  N   UNL     1     -15.792  13.797  18.851  1.00  0.00    -0.218 NA
ATOM     19  C   UNL     1     -12.814  13.007  20.555  1.00  0.00     0.085 A 
ATOM     20  N   UNL     1     -14.025  12.681  20.006  1.00  0.00    -0.346 N 
ATOM     21  H   UNL     1     -14.431  11.735  19.987  1.00  0.00     0.167 HD
ENDBRANCH  10  12
ENDBRANCH   7  10
ENDBRANCH   4   6
ENDBRANCH   1   4
BRANCH   1  22
ATOM     22  C   UNL     1     -19.584  18.356  22.063  1.00  0.00     0.082 A 
ATOM     23  C   UNL     1     -20.427  18.161  23.156  1.00  0.00     0.022 A 
ATOM     24  C   UNL     1     -20.069  18.923  20.878  1.00  0.00     0.028 A 
ATOM     25  C   UNL     1     -21.759  18.556  23.065  1.00  0.00     0.002 A 
ATOM     26  C   UNL     1     -21.417  19.319  20.768  1.00  0.00    -0.016 A 
ATOM     27  C   UNL     1     -22.247  19.133  21.887  1.00  0.00     0.007 A 
BRANCH  26  28
ATOM     28  C   UNL     1     -21.911  19.957  19.471  1.00  0.00     0.084 C 
ATOM     29  C   UNL     1     -21.796  21.482  19.556  1.00  0.00     0.047 C 
ATOM     30  C   UNL     1     -23.340  19.571  19.067  1.00  0.00     0.047 C 
BRANCH  28  31
ATOM     31  O   UNL     1     -21.070  19.525  18.393  1.00  0.00    -0.386 OA
ATOM     32  H   UNL     1     -20.252  19.105  18.760  1.00  0.00     0.211 HD
ENDBRANCH  28  31
ENDBRANCH  26  28
ENDBRANCH   1  22
TORSDOF 7
