MODEL 1
REMARK VINA RESULT:    -9.168      0.000      0.000
REMARK INTER + INTRA:         -14.599
REMARK INTER:                 -13.992
REMARK INTRA:                  -0.607
REMARK UNBOUND:                -0.607
REMARK SMILES CCC(CC)n1cc(-c2nc(-c3cnn(C[C@H](N)C(C)(C)O)c3)cn3nccc23)cn1
REMARK SMILES IDX 12 1 13 2 14 3 15 4 23 5 11 6 9 7 10 8 29 9 28 10 25 11
REMARK SMILES IDX 24 12 27 13 26 14 8 15 6 16 7 17 31 18 30 19 3 20 2 21 1 22
REMARK SMILES IDX 4 23 5 24 16 25 17 26 18 27 19 30 20 31 21 32 22 33
REMARK H PARENT 18 28 18 29 22 34
ROOT
ATOM      1  C   UNL     1     -18.251  18.198  21.083  1.00  0.00     0.040 A 
ATOM      2  C   UNL     1     -18.755  17.446  22.168  1.00  0.00     0.145 A 
ATOM      3  N   UNL     1     -20.032  17.729  22.447  1.00  0.00    -0.181 NA
ATOM      4  N   UNL     1     -20.354  18.660  21.526  1.00  0.00    -0.270 N 
ATOM      5  C   UNL     1     -19.317  18.979  20.692  1.00  0.00     0.119 A 
ENDROOT
BRANCH   1   6
ATOM      6  C   UNL     1     -16.935  18.159  20.517  1.00  0.00     0.092 A 
ATOM      7  C   UNL     1     -15.168  16.753  20.001  1.00  0.00     0.100 A 
ATOM      8  N   UNL     1     -16.368  16.895  20.491  1.00  0.00    -0.244 NA
ATOM      9  C   UNL     1     -14.427  17.858  19.455  1.00  0.00     0.093 A 
ATOM     10  C   UNL     1     -13.226  18.028  18.801  1.00  0.00     0.052 A 
ATOM     11  N   UNL     1     -15.022  19.102  19.515  1.00  0.00    -0.237 N 
ATOM     12  C   UNL     1     -16.287  19.242  20.053  1.00  0.00     0.142 A 
ATOM     13  C   UNL     1     -13.154  19.408  18.550  1.00  0.00     0.136 A 
ATOM     14  N   UNL     1     -14.228  20.064  18.989  1.00  0.00    -0.176 NA
BRANCH   7  15
ATOM     15  C   UNL     1     -14.592  15.424  20.017  1.00  0.00     0.040 A 
ATOM     16  N   UNL     1     -13.125  13.770  20.043  1.00  0.00    -0.269 N 
ATOM     17  C   UNL     1     -13.240  15.130  20.056  1.00  0.00     0.119 A 
ATOM     18  N   UNL     1     -14.317  13.146  19.987  1.00  0.00    -0.181 NA
ATOM     19  C   UNL     1     -15.198  14.149  19.951  1.00  0.00     0.145 A 
BRANCH  16  20
ATOM     20  C   UNL     1     -11.897  12.979  20.077  1.00  0.00     0.107 C 
BRANCH  20  21
ATOM     21  C   UNL     1     -12.159  11.494  19.759  1.00  0.00     0.024 C 
ATOM     22  C   UNL     1     -11.934  11.148  18.292  1.00  0.00     0.006 C 
ENDBRANCH  20  21
BRANCH  20  23
ATOM     23  C   UNL     1     -10.821  13.552  19.131  1.00  0.00     0.024 C 
ATOM     24  C   UNL     1      -9.426  13.547  19.743  1.00  0.00     0.006 C 
ENDBRANCH  20  23
ENDBRANCH  16  20
ENDBRANCH   7  15
ENDBRANCH   1   6
BRANCH   4  25
ATOM     25  C   UNL     1     -21.697  19.229  21.503  1.00  0.00     0.165 C 
BRANCH  25  26
ATOM     26  C   UNL     1     -21.825  20.405  20.505  1.00  0.00     0.104 C 
BRANCH  26  27
ATOM     27  N   UNL     1     -21.428  21.674  21.180  1.00  0.00    -0.324 NA
ATOM     28  H   UNL     1     -21.839  21.658  22.127  1.00  0.00     0.119 HD
ATOM     29  H   UNL     1     -20.420  21.664  21.343  1.00  0.00     0.119 HD
ENDBRANCH  26  27
BRANCH  26  30
ATOM     30  C   UNL     1     -23.279  20.577  19.954  1.00  0.00     0.076 C 
ATOM     31  C   UNL     1     -23.694  19.387  19.072  1.00  0.00     0.043 C 
ATOM     32  C   UNL     1     -24.328  20.757  21.056  1.00  0.00     0.043 C 
BRANCH  30  33
ATOM     33  O   UNL     1     -23.306  21.751  19.132  1.00  0.00    -0.389 OA
ATOM     34  H   UNL     1     -22.483  22.233  19.367  1.00  0.00     0.211 HD
ENDBRANCH  30  33
ENDBRANCH  26  30
ENDBRANCH  25  26
ENDBRANCH   4  25
TORSDOF 10
ENDMDL
MODEL 2
REMARK VINA RESULT:    -9.100      1.405      2.310
REMARK INTER + INTRA:         -14.496
REMARK INTER:                 -13.241
REMARK INTRA:                  -1.254
REMARK UNBOUND:                -0.607
REMARK SMILES CCC(CC)n1cc(-c2nc(-c3cnn(C[C@H](N)C(C)(C)O)c3)cn3nccc23)cn1
REMARK SMILES IDX 12 1 13 2 14 3 15 4 23 5 11 6 9 7 10 8 29 9 28 10 25 11
REMARK SMILES IDX 24 12 27 13 26 14 8 15 6 16 7 17 31 18 30 19 3 20 2 21 1 22
REMARK SMILES IDX 4 23 5 24 16 25 17 26 18 27 19 30 20 31 21 32 22 33
REMARK H PARENT 18 28 18 29 22 34
ROOT
ATOM      1  C   UNL     1     -17.712  19.805  19.948  1.00  0.00     0.040 A 
ATOM      2  C   UNL     1     -18.575  20.836  19.512  1.00  0.00     0.145 A 
ATOM      3  N   UNL     1     -19.842  20.648  19.896  1.00  0.00    -0.181 NA
ATOM      4  N   UNL     1     -19.790  19.495  20.594  1.00  0.00    -0.270 N 
ATOM      5  C   UNL     1     -18.536  18.950  20.647  1.00  0.00     0.119 A 
ENDROOT
BRANCH   1   6
ATOM      6  C   UNL     1     -16.303  19.678  19.720  1.00  0.00     0.092 A 
ATOM      7  C   UNL     1     -14.523  18.199  19.819  1.00  0.00     0.100 A 
ATOM      8  N   UNL     1     -15.797  18.417  19.989  1.00  0.00    -0.244 NA
ATOM      9  C   UNL     1     -13.630  19.216  19.330  1.00  0.00     0.093 A 
ATOM     10  C   UNL     1     -12.304  19.286  18.964  1.00  0.00     0.052 A 
ATOM     11  N   UNL     1     -14.172  20.462  19.091  1.00  0.00    -0.237 N 
ATOM     12  C   UNL     1     -15.520  20.685  19.291  1.00  0.00     0.142 A 
ATOM     13  C   UNL     1     -12.119  20.620  18.565  1.00  0.00     0.136 A 
ATOM     14  N   UNL     1     -13.237  21.339  18.651  1.00  0.00    -0.176 NA
BRANCH   7  15
ATOM     15  C   UNL     1     -14.022  16.878  20.139  1.00  0.00     0.040 A 
ATOM     16  N   UNL     1     -13.506  14.734  19.985  1.00  0.00    -0.269 N 
ATOM     17  C   UNL     1     -14.063  15.776  19.302  1.00  0.00     0.119 A 
ATOM     18  N   UNL     1     -13.110  15.075  21.227  1.00  0.00    -0.181 NA
ATOM     19  C   UNL     1     -13.443  16.365  21.321  1.00  0.00     0.145 A 
BRANCH  16  20
ATOM     20  C   UNL     1     -13.319  13.362  19.520  1.00  0.00     0.107 C 
BRANCH  20  21
ATOM     21  C   UNL     1     -11.867  12.881  19.712  1.00  0.00     0.024 C 
ATOM     22  C   UNL     1     -11.578  11.558  19.013  1.00  0.00     0.006 C 
ENDBRANCH  20  21
BRANCH  20  23
ATOM     23  C   UNL     1     -14.304  12.387  20.198  1.00  0.00     0.024 C 
ATOM     24  C   UNL     1     -15.763  12.723  19.918  1.00  0.00     0.006 C 
ENDBRANCH  20  23
ENDBRANCH  16  20
ENDBRANCH   7  15
ENDBRANCH   1   6
BRANCH   4  25
ATOM     25  C   UNL     1     -21.004  18.949  21.190  1.00  0.00     0.165 C 
BRANCH  25  26
ATOM     26  C   UNL     1     -21.848  20.028  21.910  1.00  0.00     0.104 C 
BRANCH  26  27
ATOM     27  N   UNL     1     -22.255  19.525  23.254  1.00  0.00    -0.324 NA
ATOM     28  H   UNL     1     -21.418  19.102  23.688  1.00  0.00     0.119 HD
ATOM     29  H   UNL     1     -22.475  20.320  23.855  1.00  0.00     0.119 HD
ENDBRANCH  26  27
BRANCH  26  30
ATOM     30  C   UNL     1     -23.140  20.415  21.119  1.00  0.00     0.076 C 
ATOM     31  C   UNL     1     -23.573  19.292  20.160  1.00  0.00     0.043 C 
ATOM     32  C   UNL     1     -24.324  20.766  22.025  1.00  0.00     0.043 C 
BRANCH  30  33
ATOM     33  O   UNL     1     -22.845  21.570  20.323  1.00  0.00    -0.389 OA
ATOM     34  H   UNL     1     -21.866  21.645  20.356  1.00  0.00     0.211 HD
ENDBRANCH  30  33
ENDBRANCH  26  30
ENDBRANCH  25  26
ENDBRANCH   4  25
TORSDOF 10
ENDMDL
MODEL 3
REMARK VINA RESULT:    -8.676      2.642      5.579
REMARK INTER + INTRA:         -13.848
REMARK INTER:                 -12.934
REMARK INTRA:                  -0.915
REMARK UNBOUND:                -0.607
REMARK SMILES CCC(CC)n1cc(-c2nc(-c3cnn(C[C@H](N)C(C)(C)O)c3)cn3nccc23)cn1
REMARK SMILES IDX 12 1 13 2 14 3 15 4 23 5 11 6 9 7 10 8 29 9 28 10 25 11
REMARK SMILES IDX 24 12 27 13 26 14 8 15 6 16 7 17 31 18 30 19 3 20 2 21 1 22
REMARK SMILES IDX 4 23 5 24 16 25 17 26 18 27 19 30 20 31 21 32 22 33
REMARK H PARENT 18 28 18 29 22 34
ROOT
ATOM      1  C   UNL     1     -14.679  15.948  20.641  1.00  0.00     0.040 A 
ATOM      2  C   UNL     1     -14.220  17.183  21.153  1.00  0.00     0.145 A 
ATOM      3  N   UNL     1     -15.212  18.048  21.389  1.00  0.00    -0.181 NA
ATOM      4  N   UNL     1     -16.318  17.359  21.039  1.00  0.00    -0.270 N 
ATOM      5  C   UNL     1     -16.047  16.099  20.578  1.00  0.00     0.119 A 
ENDROOT
BRANCH   1   6
ATOM      6  C   UNL     1     -13.902  14.802  20.274  1.00  0.00     0.092 A 
ATOM      7  C   UNL     1     -11.738  14.037  19.961  1.00  0.00     0.100 A 
ATOM      8  N   UNL     1     -12.534  15.017  20.287  1.00  0.00    -0.244 NA
ATOM      9  C   UNL     1     -12.232  12.729  19.622  1.00  0.00     0.093 A 
ATOM     10  C   UNL     1     -11.682  11.499  19.335  1.00  0.00     0.052 A 
ATOM     11  N   UNL     1     -13.602  12.562  19.607  1.00  0.00    -0.237 N 
ATOM     12  C   UNL     1     -14.434  13.614  19.937  1.00  0.00     0.142 A 
ATOM     13  C   UNL     1     -12.788  10.663  19.110  1.00  0.00     0.136 A 
ATOM     14  N   UNL     1     -13.949  11.300  19.259  1.00  0.00    -0.176 NA
BRANCH   7  15
ATOM     15  C   UNL     1     -10.315  14.305  19.955  1.00  0.00     0.040 A 
ATOM     16  N   UNL     1      -8.375  15.357  20.089  1.00  0.00    -0.269 N 
ATOM     17  C   UNL     1      -9.723  15.530  20.211  1.00  0.00     0.119 A 
ATOM     18  N   UNL     1      -8.038  14.097  19.757  1.00  0.00    -0.181 NA
ATOM     19  C   UNL     1      -9.213  13.471  19.657  1.00  0.00     0.145 A 
BRANCH  16  20
ATOM     20  C   UNL     1      -7.328  16.360  20.270  1.00  0.00     0.107 C 
BRANCH  20  21
ATOM     21  C   UNL     1      -7.721  17.720  19.660  1.00  0.00     0.024 C 
ATOM     22  C   UNL     1      -7.093  17.965  18.292  1.00  0.00     0.006 C 
ENDBRANCH  20  21
BRANCH  20  23
ATOM     23  C   UNL     1      -6.944  16.526  21.755  1.00  0.00     0.024 C 
ATOM     24  C   UNL     1      -7.145  17.947  22.268  1.00  0.00     0.006 C 
ENDBRANCH  20  23
ENDBRANCH  16  20
ENDBRANCH   7  15
ENDBRANCH   1   6
BRANCH   4  25
ATOM     25  C   UNL     1     -17.632  17.979  21.159  1.00  0.00     0.165 C 
BRANCH  25  26
ATOM     26  C   UNL     1     -18.212  18.409  19.790  1.00  0.00     0.104 C 
BRANCH  26  27
ATOM     27  N   UNL     1     -17.190  19.198  19.044  1.00  0.00    -0.324 NA
ATOM     28  H   UNL     1     -16.416  19.394  19.700  1.00  0.00     0.119 HD
ATOM     29  H   UNL     1     -16.767  18.605  18.328  1.00  0.00     0.119 HD
ENDBRANCH  26  27
BRANCH  26  30
ATOM     30  C   UNL     1     -19.502  19.283  19.926  1.00  0.00     0.076 C 
ATOM     31  C   UNL     1     -20.385  18.809  21.093  1.00  0.00     0.043 C 
ATOM     32  C   UNL     1     -19.208  20.775  20.110  1.00  0.00     0.043 C 
BRANCH  30  33
ATOM     33  O   UNL     1     -20.266  19.136  18.721  1.00  0.00    -0.389 OA
ATOM     34  H   UNL     1     -20.436  20.057  18.426  1.00  0.00     0.211 HD
ENDBRANCH  30  33
ENDBRANCH  26  30
ENDBRANCH  25  26
ENDBRANCH   4  25
TORSDOF 10
ENDMDL
MODEL 4
REMARK VINA RESULT:    -8.628      2.178      3.985
REMARK INTER + INTRA:         -13.775
REMARK INTER:                 -12.932
REMARK INTRA:                  -0.843
REMARK UNBOUND:                -0.607
REMARK SMILES CCC(CC)n1cc(-c2nc(-c3cnn(C[C@H](N)C(C)(C)O)c3)cn3nccc23)cn1
REMARK SMILES IDX 12 1 13 2 14 3 15 4 23 5 11 6 9 7 10 8 29 9 28 10 25 11
REMARK SMILES IDX 24 12 27 13 26 14 8 15 6 16 7 17 31 18 30 19 3 20 2 21 1 22
REMARK SMILES IDX 4 23 5 24 16 25 17 26 18 27 19 30 20 31 21 32 22 33
REMARK H PARENT 18 28 18 29 22 34
ROOT
ATOM      1  C   UNL     1     -17.296  17.161  20.667  1.00  0.00     0.040 A 
ATOM      2  C   UNL     1     -18.045  17.377  21.846  1.00  0.00     0.145 A 
ATOM      3  N   UNL     1     -18.863  18.431  21.755  1.00  0.00    -0.181 NA
ATOM      4  N   UNL     1     -18.647  18.888  20.504  1.00  0.00    -0.270 N 
ATOM      5  C   UNL     1     -17.711  18.164  19.817  1.00  0.00     0.119 A 
ENDROOT
BRANCH   1   6
ATOM      6  C   UNL     1     -16.328  16.136  20.411  1.00  0.00     0.092 A 
ATOM      7  C   UNL     1     -14.114  15.760  19.844  1.00  0.00     0.100 A 
ATOM      8  N   UNL     1     -15.066  16.613  20.101  1.00  0.00    -0.244 NA
ATOM      9  C   UNL     1     -14.323  14.338  19.906  1.00  0.00     0.093 A 
ATOM     10  C   UNL     1     -13.542  13.209  19.789  1.00  0.00     0.052 A 
ATOM     11  N   UNL     1     -15.600  13.905  20.203  1.00  0.00    -0.237 N 
ATOM     12  C   UNL     1     -16.603  14.820  20.455  1.00  0.00     0.142 A 
ATOM     13  C   UNL     1     -14.434  12.142  19.980  1.00  0.00     0.136 A 
ATOM     14  N   UNL     1     -15.680  12.553  20.216  1.00  0.00    -0.176 NA
BRANCH   7  15
ATOM     15  C   UNL     1     -12.814  16.293  19.493  1.00  0.00     0.040 A 
ATOM     16  N   UNL     1     -10.630  16.632  19.429  1.00  0.00    -0.269 N 
ATOM     17  C   UNL     1     -11.601  15.864  20.003  1.00  0.00     0.119 A 
ATOM     18  N   UNL     1     -11.127  17.552  18.579  1.00  0.00    -0.181 NA
ATOM     19  C   UNL     1     -12.446  17.356  18.638  1.00  0.00     0.145 A 
BRANCH  16  20
ATOM     20  C   UNL     1      -9.188  16.555  19.646  1.00  0.00     0.107 C 
BRANCH  20  21
ATOM     21  C   UNL     1      -8.617  17.874  20.203  1.00  0.00     0.024 C 
ATOM     22  C   UNL     1      -7.432  17.665  21.138  1.00  0.00     0.006 C 
ENDBRANCH  20  21
BRANCH  20  23
ATOM     23  C   UNL     1      -8.809  15.373  20.562  1.00  0.00     0.024 C 
ATOM     24  C   UNL     1      -8.286  14.166  19.794  1.00  0.00     0.006 C 
ENDBRANCH  20  23
ENDBRANCH  16  20
ENDBRANCH   7  15
ENDBRANCH   1   6
BRANCH   4  25
ATOM     25  C   UNL     1     -19.375  20.055  20.019  1.00  0.00     0.165 C 
BRANCH  25  26
ATOM     26  C   UNL     1     -20.855  19.737  19.695  1.00  0.00     0.104 C 
BRANCH  26  27
ATOM     27  N   UNL     1     -21.128  20.047  18.262  1.00  0.00    -0.324 NA
ATOM     28  H   UNL     1     -22.116  19.809  18.081  1.00  0.00     0.119 HD
ATOM     29  H   UNL     1     -21.083  21.057  18.124  1.00  0.00     0.119 HD
ENDBRANCH  26  27
BRANCH  26  30
ATOM     30  C   UNL     1     -21.856  20.558  20.573  1.00  0.00     0.076 C 
ATOM     31  C   UNL     1     -23.134  20.910  19.792  1.00  0.00     0.043 C 
ATOM     32  C   UNL     1     -22.256  19.842  21.867  1.00  0.00     0.043 C 
BRANCH  30  33
ATOM     33  O   UNL     1     -21.221  21.791  20.936  1.00  0.00    -0.389 OA
ATOM     34  H   UNL     1     -21.170  22.296  20.096  1.00  0.00     0.211 HD
ENDBRANCH  30  33
ENDBRANCH  26  30
ENDBRANCH  25  26
ENDBRANCH   4  25
TORSDOF 10
ENDMDL
MODEL 5
REMARK VINA RESULT:    -8.581      1.749      2.344
REMARK INTER + INTRA:         -13.703
REMARK INTER:                 -12.891
REMARK INTRA:                  -0.813
REMARK UNBOUND:                -0.607
REMARK SMILES CCC(CC)n1cc(-c2nc(-c3cnn(C[C@H](N)C(C)(C)O)c3)cn3nccc23)cn1
REMARK SMILES IDX 12 1 13 2 14 3 15 4 23 5 11 6 9 7 10 8 29 9 28 10 25 11
REMARK SMILES IDX 24 12 27 13 26 14 8 15 6 16 7 17 31 18 30 19 3 20 2 21 1 22
REMARK SMILES IDX 4 23 5 24 16 25 17 26 18 27 19 30 20 31 21 32 22 33
REMARK H PARENT 18 28 18 29 22 34
ROOT
ATOM      1  C   UNL     1     -17.192  20.531  19.423  1.00  0.00     0.040 A 
ATOM      2  C   UNL     1     -17.847  21.588  18.751  1.00  0.00     0.145 A 
ATOM      3  N   UNL     1     -19.150  21.661  19.046  1.00  0.00    -0.181 NA
ATOM      4  N   UNL     1     -19.330  20.652  19.923  1.00  0.00    -0.270 N 
ATOM      5  C   UNL     1     -18.187  19.942  20.174  1.00  0.00     0.119 A 
ENDROOT
BRANCH   1   6
ATOM      6  C   UNL     1     -15.811  20.157  19.345  1.00  0.00     0.092 A 
ATOM      7  C   UNL     1     -14.365  18.348  19.348  1.00  0.00     0.100 A 
ATOM      8  N   UNL     1     -15.590  18.792  19.404  1.00  0.00    -0.244 NA
ATOM      9  C   UNL     1     -13.238  19.227  19.192  1.00  0.00     0.093 A 
ATOM     10  C   UNL     1     -11.880  19.085  19.010  1.00  0.00     0.052 A 
ATOM     11  N   UNL     1     -13.502  20.582  19.152  1.00  0.00    -0.237 N 
ATOM     12  C   UNL     1     -14.802  21.040  19.231  1.00  0.00     0.142 A 
ATOM     13  C   UNL     1     -11.397  20.400  18.922  1.00  0.00     0.136 A 
ATOM     14  N   UNL     1     -12.367  21.309  19.020  1.00  0.00    -0.176 NA
BRANCH   7  15
ATOM     15  C   UNL     1     -14.168  16.916  19.444  1.00  0.00     0.040 A 
ATOM     16  N   UNL     1     -13.220  14.942  19.750  1.00  0.00    -0.269 N 
ATOM     17  C   UNL     1     -12.986  16.286  19.793  1.00  0.00     0.119 A 
ATOM     18  N   UNL     1     -14.481  14.643  19.382  1.00  0.00    -0.181 NA
ATOM     19  C   UNL     1     -15.042  15.838  19.180  1.00  0.00     0.145 A 
BRANCH  16  20
ATOM     20  C   UNL     1     -12.279  13.864  20.043  1.00  0.00     0.107 C 
BRANCH  20  21
ATOM     21  C   UNL     1     -12.901  12.474  19.801  1.00  0.00     0.024 C 
ATOM     22  C   UNL     1     -11.885  11.436  19.341  1.00  0.00     0.006 C 
ENDBRANCH  20  21
BRANCH  20  23
ATOM     23  C   UNL     1     -10.968  14.014  19.244  1.00  0.00     0.024 C 
ATOM     24  C   UNL     1      -9.823  14.577  20.077  1.00  0.00     0.006 C 
ENDBRANCH  20  23
ENDBRANCH  16  20
ENDBRANCH   7  15
ENDBRANCH   1   6
BRANCH   4  25
ATOM     25  C   UNL     1     -20.651  20.404  20.488  1.00  0.00     0.165 C 
BRANCH  25  26
ATOM     26  C   UNL     1     -21.498  19.445  19.617  1.00  0.00     0.104 C 
BRANCH  26  27
ATOM     27  N   UNL     1     -21.158  19.649  18.179  1.00  0.00    -0.324 NA
ATOM     28  H   UNL     1     -21.379  18.769  17.685  1.00  0.00     0.119 HD
ATOM     29  H   UNL     1     -21.803  20.332  17.777  1.00  0.00     0.119 HD
ENDBRANCH  26  27
BRANCH  26  30
ATOM     30  C   UNL     1     -23.036  19.666  19.793  1.00  0.00     0.076 C 
ATOM     31  C   UNL     1     -23.541  19.088  21.126  1.00  0.00     0.043 C 
ATOM     32  C   UNL     1     -23.452  21.137  19.710  1.00  0.00     0.043 C 
BRANCH  30  33
ATOM     33  O   UNL     1     -23.709  18.964  18.738  1.00  0.00    -0.389 OA
ATOM     34  H   UNL     1     -23.304  18.070  18.743  1.00  0.00     0.211 HD
ENDBRANCH  30  33
ENDBRANCH  26  30
ENDBRANCH  25  26
ENDBRANCH   4  25
TORSDOF 10
ENDMDL
MODEL 6
REMARK VINA RESULT:    -8.560      3.292      9.875
REMARK INTER + INTRA:         -13.671
REMARK INTER:                 -12.791
REMARK INTRA:                  -0.880
REMARK UNBOUND:                -0.607
REMARK SMILES CCC(CC)n1cc(-c2nc(-c3cnn(C[C@H](N)C(C)(C)O)c3)cn3nccc23)cn1
REMARK SMILES IDX 12 1 13 2 14 3 15 4 23 5 11 6 9 7 10 8 29 9 28 10 25 11
REMARK SMILES IDX 24 12 27 13 26 14 8 15 6 16 7 17 31 18 30 19 3 20 2 21 1 22
REMARK SMILES IDX 4 23 5 24 16 25 17 26 18 27 19 30 20 31 21 32 22 33
REMARK H PARENT 18 28 18 29 22 34
ROOT
ATOM      1  C   UNL     1     -16.080  16.219  19.704  1.00  0.00     0.040 A 
ATOM      2  C   UNL     1     -16.556  15.004  19.160  1.00  0.00     0.145 A 
ATOM      3  N   UNL     1     -15.658  14.016  19.236  1.00  0.00    -0.181 NA
ATOM      4  N   UNL     1     -14.603  14.596  19.845  1.00  0.00    -0.270 N 
ATOM      5  C   UNL     1     -14.807  15.917  20.137  1.00  0.00     0.119 A 
ENDROOT
BRANCH   1   6
ATOM      6  C   UNL     1     -16.764  17.475  19.788  1.00  0.00     0.092 A 
ATOM      7  C   UNL     1     -18.544  18.567  20.790  1.00  0.00     0.100 A 
ATOM      8  N   UNL     1     -17.850  17.472  20.648  1.00  0.00    -0.244 NA
ATOM      9  C   UNL     1     -18.200  19.786  20.111  1.00  0.00     0.093 A 
ATOM     10  C   UNL     1     -18.647  21.090  20.113  1.00  0.00     0.052 A 
ATOM     11  N   UNL     1     -17.121  19.741  19.251  1.00  0.00    -0.237 N 
ATOM     12  C   UNL     1     -16.404  18.571  19.096  1.00  0.00     0.142 A 
ATOM     13  C   UNL     1     -17.817  21.748  19.192  1.00  0.00     0.136 A 
ATOM     14  N   UNL     1     -16.903  20.939  18.658  1.00  0.00    -0.176 NA
BRANCH   7  15
ATOM     15  C   UNL     1     -19.692  18.520  21.673  1.00  0.00     0.040 A 
ATOM     16  N   UNL     1     -21.717  18.831  22.504  1.00  0.00    -0.269 N 
ATOM     17  C   UNL     1     -20.928  19.090  21.421  1.00  0.00     0.119 A 
ATOM     18  N   UNL     1     -21.076  18.136  23.463  1.00  0.00    -0.181 NA
ATOM     19  C   UNL     1     -19.848  17.969  22.965  1.00  0.00     0.145 A 
BRANCH  16  20
ATOM     20  C   UNL     1     -23.109  19.224  22.707  1.00  0.00     0.107 C 
BRANCH  20  21
ATOM     21  C   UNL     1     -23.459  20.520  21.949  1.00  0.00     0.024 C 
ATOM     22  C   UNL     1     -24.157  20.265  20.619  1.00  0.00     0.006 C 
ENDBRANCH  20  21
BRANCH  20  23
ATOM     23  C   UNL     1     -24.086  18.094  22.321  1.00  0.00     0.024 C 
ATOM     24  C   UNL     1     -24.555  17.275  23.517  1.00  0.00     0.006 C 
ENDBRANCH  20  23
ENDBRANCH  16  20
ENDBRANCH   7  15
ENDBRANCH   1   6
BRANCH   4  25
ATOM     25  C   UNL     1     -13.398  13.820  20.113  1.00  0.00     0.165 C 
BRANCH  25  26
ATOM     26  C   UNL     1     -13.267  12.589  19.184  1.00  0.00     0.104 C 
BRANCH  26  27
ATOM     27  N   UNL     1     -14.190  11.515  19.649  1.00  0.00    -0.324 NA
ATOM     28  H   UNL     1     -14.945  11.972  20.186  1.00  0.00     0.119 HD
ATOM     29  H   UNL     1     -14.665  11.110  18.841  1.00  0.00     0.119 HD
ENDBRANCH  26  27
BRANCH  26  30
ATOM     30  C   UNL     1     -11.815  12.008  19.149  1.00  0.00     0.076 C 
ATOM     31  C   UNL     1     -10.770  13.077  19.511  1.00  0.00     0.043 C 
ATOM     32  C   UNL     1     -11.622  10.803  20.074  1.00  0.00     0.043 C 
BRANCH  30  33
ATOM     33  O   UNL     1     -11.542  11.577  17.809  1.00  0.00    -0.389 OA
ATOM     34  H   UNL     1     -11.180  10.670  17.914  1.00  0.00     0.211 HD
ENDBRANCH  30  33
ENDBRANCH  26  30
ENDBRANCH  25  26
ENDBRANCH   4  25
TORSDOF 10
ENDMDL
MODEL 7
REMARK VINA RESULT:    -8.469      3.866      6.432
REMARK INTER + INTRA:         -13.532
REMARK INTER:                 -12.390
REMARK INTRA:                  -1.143
REMARK UNBOUND:                -0.607
REMARK SMILES CCC(CC)n1cc(-c2nc(-c3cnn(C[C@H](N)C(C)(C)O)c3)cn3nccc23)cn1
REMARK SMILES IDX 12 1 13 2 14 3 15 4 23 5 11 6 9 7 10 8 29 9 28 10 25 11
REMARK SMILES IDX 24 12 27 13 26 14 8 15 6 16 7 17 31 18 30 19 3 20 2 21 1 22
REMARK SMILES IDX 4 23 5 24 16 25 17 26 18 27 19 30 20 31 21 32 22 33
REMARK H PARENT 18 28 18 29 22 34
ROOT
ATOM      1  C   UNL     1     -15.024  15.575  20.260  1.00  0.00     0.040 A 
ATOM      2  C   UNL     1     -16.434  15.556  20.347  1.00  0.00     0.145 A 
ATOM      3  N   UNL     1     -16.954  16.760  20.609  1.00  0.00    -0.181 NA
ATOM      4  N   UNL     1     -15.871  17.560  20.679  1.00  0.00    -0.270 N 
ATOM      5  C   UNL     1     -14.692  16.894  20.484  1.00  0.00     0.119 A 
ENDROOT
BRANCH   1   6
ATOM      6  C   UNL     1     -14.140  14.478  19.998  1.00  0.00     0.092 A 
ATOM      7  C   UNL     1     -11.909  13.875  19.846  1.00  0.00     0.100 A 
ATOM      8  N   UNL     1     -12.796  14.803  20.075  1.00  0.00    -0.244 NA
ATOM      9  C   UNL     1     -12.279  12.517  19.551  1.00  0.00     0.093 A 
ATOM     10  C   UNL     1     -11.620  11.322  19.360  1.00  0.00     0.052 A 
ATOM     11  N   UNL     1     -13.629  12.240  19.468  1.00  0.00    -0.237 N 
ATOM     12  C   UNL     1     -14.558  13.236  19.695  1.00  0.00     0.142 A 
ATOM     13  C   UNL     1     -12.642  10.390  19.119  1.00  0.00     0.136 A 
ATOM     14  N   UNL     1     -13.856  10.939  19.169  1.00  0.00    -0.176 NA
BRANCH   7  15
ATOM     15  C   UNL     1     -10.512  14.256  19.905  1.00  0.00     0.040 A 
ATOM     16  N   UNL     1      -8.671  15.463  20.109  1.00  0.00    -0.269 N 
ATOM     17  C   UNL     1     -10.033  15.530  20.158  1.00  0.00     0.119 A 
ATOM     18  N   UNL     1      -8.219  14.226  19.827  1.00  0.00    -0.181 NA
ATOM     19  C   UNL     1      -9.335  13.506  19.685  1.00  0.00     0.145 A 
BRANCH  16  20
ATOM     20  C   UNL     1      -7.717  16.550  20.316  1.00  0.00     0.107 C 
BRANCH  20  21
ATOM     21  C   UNL     1      -6.265  16.038  20.383  1.00  0.00     0.024 C 
ATOM     22  C   UNL     1      -5.695  16.038  21.796  1.00  0.00     0.006 C 
ENDBRANCH  20  21
BRANCH  20  23
ATOM     23  C   UNL     1      -7.854  17.645  19.239  1.00  0.00     0.024 C 
ATOM     24  C   UNL     1      -6.575  17.861  18.441  1.00  0.00     0.006 C 
ENDBRANCH  20  23
ENDBRANCH  16  20
ENDBRANCH   7  15
ENDBRANCH   1   6
BRANCH   4  25
ATOM     25  C   UNL     1     -16.033  18.983  20.954  1.00  0.00     0.165 C 
BRANCH  25  26
ATOM     26  C   UNL     1     -16.142  19.827  19.661  1.00  0.00     0.104 C 
BRANCH  26  27
ATOM     27  N   UNL     1     -16.638  18.968  18.547  1.00  0.00    -0.324 NA
ATOM     28  H   UNL     1     -16.909  18.061  18.959  1.00  0.00     0.119 HD
ATOM     29  H   UNL     1     -17.513  19.355  18.191  1.00  0.00     0.119 HD
ENDBRANCH  26  27
BRANCH  26  30
ATOM     30  C   UNL     1     -14.775  20.452  19.227  1.00  0.00     0.076 C 
ATOM     31  C   UNL     1     -14.965  21.838  18.588  1.00  0.00     0.043 C 
ATOM     32  C   UNL     1     -13.773  20.578  20.378  1.00  0.00     0.043 C 
BRANCH  30  33
ATOM     33  O   UNL     1     -14.192  19.598  18.234  1.00  0.00    -0.389 OA
ATOM     34  H   UNL     1     -13.541  19.056  18.730  1.00  0.00     0.211 HD
ENDBRANCH  30  33
ENDBRANCH  26  30
ENDBRANCH  25  26
ENDBRANCH   4  25
TORSDOF 10
ENDMDL
MODEL 8
REMARK VINA RESULT:    -8.399      4.678     11.056
REMARK INTER + INTRA:         -13.426
REMARK INTER:                 -12.182
REMARK INTRA:                  -1.243
REMARK UNBOUND:                -0.607
REMARK SMILES CCC(CC)n1cc(-c2nc(-c3cnn(C[C@H](N)C(C)(C)O)c3)cn3nccc23)cn1
REMARK SMILES IDX 12 1 13 2 14 3 15 4 23 5 11 6 9 7 10 8 29 9 28 10 25 11
REMARK SMILES IDX 24 12 27 13 26 14 8 15 6 16 7 17 31 18 30 19 3 20 2 21 1 22
REMARK SMILES IDX 4 23 5 24 16 25 17 26 18 27 19 30 20 31 21 32 22 33
REMARK H PARENT 18 28 18 29 22 34
ROOT
ATOM      1  C   UNL     1     -10.523  14.228  19.906  1.00  0.00     0.040 A 
ATOM      2  C   UNL     1      -9.669  13.156  19.560  1.00  0.00     0.145 A 
ATOM      3  N   UNL     1      -8.377  13.500  19.564  1.00  0.00    -0.181 NA
ATOM      4  N   UNL     1      -8.400  14.799  19.927  1.00  0.00    -0.270 N 
ATOM      5  C   UNL     1      -9.663  15.281  20.135  1.00  0.00     0.119 A 
ENDROOT
BRANCH   1   6
ATOM      6  C   UNL     1     -11.953  14.223  19.999  1.00  0.00     0.092 A 
ATOM      7  C   UNL     1     -13.815  15.589  20.183  1.00  0.00     0.100 A 
ATOM      8  N   UNL     1     -12.518  15.484  20.087  1.00  0.00    -0.244 NA
ATOM      9  C   UNL     1     -14.679  14.439  20.166  1.00  0.00     0.093 A 
ATOM     10  C   UNL     1     -16.038  14.214  20.153  1.00  0.00     0.052 A 
ATOM     11  N   UNL     1     -14.074  13.201  20.092  1.00  0.00    -0.237 N 
ATOM     12  C   UNL     1     -12.698  13.104  20.009  1.00  0.00     0.142 A 
ATOM     13  C   UNL     1     -16.163  12.815  20.123  1.00  0.00     0.136 A 
ATOM     14  N   UNL     1     -14.983  12.197  20.100  1.00  0.00    -0.176 NA
BRANCH   7  15
ATOM     15  C   UNL     1     -14.371  16.920  20.304  1.00  0.00     0.040 A 
ATOM     16  N   UNL     1     -15.370  18.832  19.818  1.00  0.00    -0.269 N 
ATOM     17  C   UNL     1     -15.016  17.621  19.299  1.00  0.00     0.119 A 
ATOM     18  N   UNL     1     -14.988  18.982  21.101  1.00  0.00    -0.181 NA
ATOM     19  C   UNL     1     -14.369  17.833  21.383  1.00  0.00     0.145 A 
BRANCH  16  20
ATOM     20  C   UNL     1     -16.076  19.919  19.144  1.00  0.00     0.107 C 
BRANCH  20  21
ATOM     21  C   UNL     1     -17.419  20.245  19.828  1.00  0.00     0.024 C 
ATOM     22  C   UNL     1     -18.378  19.061  19.858  1.00  0.00     0.006 C 
ENDBRANCH  20  21
BRANCH  20  23
ATOM     23  C   UNL     1     -15.205  21.187  19.032  1.00  0.00     0.024 C 
ATOM     24  C   UNL     1     -13.885  20.943  18.312  1.00  0.00     0.006 C 
ENDBRANCH  20  23
ENDBRANCH  16  20
ENDBRANCH   7  15
ENDBRANCH   1   6
BRANCH   4  25
ATOM     25  C   UNL     1      -7.152  15.544  20.048  1.00  0.00     0.165 C 
BRANCH  25  26
ATOM     26  C   UNL     1      -6.015  14.938  19.190  1.00  0.00     0.104 C 
BRANCH  26  27
ATOM     27  N   UNL     1      -5.208  14.002  20.026  1.00  0.00    -0.324 NA
ATOM     28  H   UNL     1      -4.307  14.468  20.221  1.00  0.00     0.119 HD
ATOM     29  H   UNL     1      -5.647  13.910  20.943  1.00  0.00     0.119 HD
ENDBRANCH  26  27
BRANCH  26  30
ATOM     30  C   UNL     1      -5.054  16.023  18.603  1.00  0.00     0.076 C 
ATOM     31  C   UNL     1      -5.836  17.204  18.002  1.00  0.00     0.043 C 
ATOM     32  C   UNL     1      -4.056  16.569  19.628  1.00  0.00     0.043 C 
BRANCH  30  33
ATOM     33  O   UNL     1      -4.301  15.422  17.541  1.00  0.00    -0.389 OA
ATOM     34  H   UNL     1      -3.704  14.787  17.994  1.00  0.00     0.211 HD
ENDBRANCH  30  33
ENDBRANCH  26  30
ENDBRANCH  25  26
ENDBRANCH   4  25
TORSDOF 10
ENDMDL
MODEL 9
REMARK VINA RESULT:    -8.335      4.786     11.105
REMARK INTER + INTRA:         -13.327
REMARK INTER:                 -12.279
REMARK INTRA:                  -1.048
REMARK UNBOUND:                -0.607
REMARK SMILES CCC(CC)n1cc(-c2nc(-c3cnn(C[C@H](N)C(C)(C)O)c3)cn3nccc23)cn1
REMARK SMILES IDX 12 1 13 2 14 3 15 4 23 5 11 6 9 7 10 8 29 9 28 10 25 11
REMARK SMILES IDX 24 12 27 13 26 14 8 15 6 16 7 17 31 18 30 19 3 20 2 21 1 22
REMARK SMILES IDX 4 23 5 24 16 25 17 26 18 27 19 30 20 31 21 32 22 33
REMARK H PARENT 18 28 18 29 22 34
ROOT
ATOM      1  C   UNL     1     -10.403  15.764  19.792  1.00  0.00     0.040 A 
ATOM      2  C   UNL     1     -10.140  17.105  19.433  1.00  0.00     0.145 A 
ATOM      3  N   UNL     1      -8.846  17.426  19.542  1.00  0.00    -0.181 NA
ATOM      4  N   UNL     1      -8.273  16.279  19.962  1.00  0.00    -0.270 N 
ATOM      5  C   UNL     1      -9.167  15.258  20.133  1.00  0.00     0.119 A 
ENDROOT
BRANCH   1   6
ATOM      6  C   UNL     1     -11.665  15.083  19.798  1.00  0.00     0.092 A 
ATOM      7  C   UNL     1     -13.958  15.405  19.748  1.00  0.00     0.100 A 
ATOM      8  N   UNL     1     -12.762  15.926  19.740  1.00  0.00    -0.244 NA
ATOM      9  C   UNL     1     -14.174  13.983  19.780  1.00  0.00     0.093 A 
ATOM     10  C   UNL     1     -15.259  13.138  19.705  1.00  0.00     0.052 A 
ATOM     11  N   UNL     1     -13.054  13.181  19.853  1.00  0.00    -0.237 N 
ATOM     12  C   UNL     1     -11.793  13.746  19.862  1.00  0.00     0.142 A 
ATOM     13  C   UNL     1     -14.709  11.849  19.791  1.00  0.00     0.136 A 
ATOM     14  N   UNL     1     -13.380  11.867  19.894  1.00  0.00    -0.176 NA
BRANCH   7  15
ATOM     15  C   UNL     1     -15.084  16.315  19.718  1.00  0.00     0.040 A 
ATOM     16  N   UNL     1     -16.794  17.564  20.356  1.00  0.00    -0.269 N 
ATOM     17  C   UNL     1     -15.821  16.724  20.816  1.00  0.00     0.119 A 
ATOM     18  N   UNL     1     -16.754  17.726  19.020  1.00  0.00    -0.181 NA
ATOM     19  C   UNL     1     -15.733  16.955  18.638  1.00  0.00     0.145 A 
BRANCH  16  20
ATOM     20  C   UNL     1     -17.817  18.254  21.137  1.00  0.00     0.107 C 
BRANCH  20  21
ATOM     21  C   UNL     1     -18.979  18.751  20.253  1.00  0.00     0.024 C 
ATOM     22  C   UNL     1     -19.005  20.266  20.096  1.00  0.00     0.006 C 
ENDBRANCH  20  21
BRANCH  20  23
ATOM     23  C   UNL     1     -18.351  17.375  22.286  1.00  0.00     0.024 C 
ATOM     24  C   UNL     1     -19.639  17.912  22.899  1.00  0.00     0.006 C 
ENDBRANCH  20  23
ENDBRANCH  16  20
ENDBRANCH   7  15
ENDBRANCH   1   6
BRANCH   4  25
ATOM     25  C   UNL     1      -6.835  16.227  20.199  1.00  0.00     0.165 C 
BRANCH  25  26
ATOM     26  C   UNL     1      -6.091  15.378  19.140  1.00  0.00     0.104 C 
BRANCH  26  27
ATOM     27  N   UNL     1      -5.496  14.177  19.794  1.00  0.00    -0.324 NA
ATOM     28  H   UNL     1      -6.021  13.355  19.457  1.00  0.00     0.119 HD
ATOM     29  H   UNL     1      -4.551  14.036  19.435  1.00  0.00     0.119 HD
ENDBRANCH  26  27
BRANCH  26  30
ATOM     30  C   UNL     1      -4.943  16.168  18.428  1.00  0.00     0.076 C 
ATOM     31  C   UNL     1      -5.495  17.331  17.587  1.00  0.00     0.043 C 
ATOM     32  C   UNL     1      -3.895  16.721  19.398  1.00  0.00     0.043 C 
BRANCH  30  33
ATOM     33  O   UNL     1      -4.275  15.269  17.533  1.00  0.00    -0.389 OA
ATOM     34  H   UNL     1      -4.942  14.573  17.344  1.00  0.00     0.211 HD
ENDBRANCH  30  33
ENDBRANCH  26  30
ENDBRANCH  25  26
ENDBRANCH   4  25
TORSDOF 10
ENDMDL
