MODEL 1
REMARK VINA RESULT:    -7.593      0.000      0.000
REMARK INTER + INTRA:         -10.178
REMARK INTER:                  -9.812
REMARK INTRA:                  -0.365
REMARK UNBOUND:                -0.365
REMARK SMILES Cc1cnc(NC2CCOCC2)nc1-c1cnn(CCC#N)c1
REMARK SMILES IDX 1 1 2 2 3 3 4 4 5 5 13 6 14 7 15 8 16 9 23 10 17 11 18 12
REMARK SMILES IDX 19 13 20 14 21 15 22 16 6 17 7 19 8 20 12 21 9 22 11 23
REMARK SMILES IDX 10 24
REMARK H PARENT 6 18
ROOT
ATOM      1  C   UNL     1       4.581 -26.743  22.244  1.00  0.00     0.048 C 
ATOM      2  C   UNL     1       4.503 -25.368  21.668  1.00  0.00    -0.006 A 
ATOM      3  C   UNL     1       3.358 -24.942  21.028  1.00  0.00     0.120 A 
ATOM      4  N   UNL     1       3.196 -23.717  20.499  1.00  0.00    -0.221 NA
ATOM      5  C   UNL     1       4.218 -22.867  20.615  1.00  0.00     0.223 A 
ATOM      6  N   UNL     1       5.378 -23.180  21.196  1.00  0.00    -0.213 NA
ATOM      7  C   UNL     1       5.516 -24.426  21.699  1.00  0.00     0.082 A 
ENDROOT
BRANCH   7   8
ATOM      8  C   UNL     1       6.822 -24.657  22.290  1.00  0.00     0.039 A 
ATOM      9  C   UNL     1       8.100 -24.558  21.692  1.00  0.00     0.145 A 
ATOM     10  C   UNL     1       7.082 -25.145  23.555  1.00  0.00     0.119 A 
ATOM     11  N   UNL     1       9.088 -24.887  22.529  1.00  0.00    -0.181 NA
ATOM     12  N   UNL     1       8.440 -25.258  23.647  1.00  0.00    -0.271 N 
BRANCH  12  13
ATOM     13  C   UNL     1       9.201 -25.733  24.787  1.00  0.00     0.159 C 
BRANCH  13  14
ATOM     14  C   UNL     1      10.593 -25.122  24.830  1.00  0.00     0.144 C 
ATOM     15  C   UNL     1      11.595 -26.169  25.041  1.00  0.00     0.064 C 
ATOM     16  N   UNL     1      12.372 -27.011  25.224  1.00  0.00    -0.198 NA
ENDBRANCH  13  14
ENDBRANCH  12  13
ENDBRANCH   7   8
BRANCH   5  17
ATOM     17  N   UNL     1       4.006 -21.603  20.081  1.00  0.00    -0.351 N 
ATOM     18  H   UNL     1       4.698 -21.525  19.341  1.00  0.00     0.163 HD
BRANCH  17  19
ATOM     19  C   UNL     1       3.987 -20.499  21.041  1.00  0.00     0.086 C 
ATOM     20  C   UNL     1       4.937 -19.406  20.547  1.00  0.00     0.053 C 
ATOM     21  C   UNL     1       2.567 -19.929  21.191  1.00  0.00     0.053 C 
ATOM     22  C   UNL     1       4.932 -18.213  21.498  1.00  0.00     0.162 C 
ATOM     23  C   UNL     1       2.571 -18.423  21.417  1.00  0.00     0.162 C 
ATOM     24  O   UNL     1       3.699 -18.054  22.201  1.00  0.00    -0.381 OA
ENDBRANCH  17  19
ENDBRANCH   5  17
TORSDOF 5
ENDMDL
