MODEL 5
REMARK VINA RESULT:    -8.739      1.690      5.908
REMARK INTER + INTRA:         -10.592
REMARK INTER:                 -10.504
REMARK INTRA:                  -0.088
REMARK UNBOUND:                -0.576
REMARK SMILES Oc1cccc(-c2nc(N3CCOCC3)c3oc4ncccc4c3n2)c1
REMARK SMILES IDX 2 1 3 2 4 3 5 4 6 5 26 6 1 7 7 9 25 10 8 11 24 12 9 13 16 14
REMARK SMILES IDX 23 15 17 16 18 17 22 18 19 19 21 20 20 21 10 22 15 23 11 24
REMARK SMILES IDX 14 25 12 26 13 27
REMARK H PARENT 1 8
ROOT
ATOM      1  C   UNL     1      47.506  -1.829 -43.430  1.00  0.00     0.116 A 
ATOM      2  C   UNL     1      46.556  -2.390 -44.279  1.00  0.00     0.046 A 
ATOM      3  C   UNL     1      46.797  -2.439 -45.649  1.00  0.00     0.005 A 
ATOM      4  C   UNL     1      47.986  -1.929 -46.168  1.00  0.00     0.012 A 
ATOM      5  C   UNL     1      48.966  -1.355 -45.335  1.00  0.00     0.023 A 
ATOM      6  C   UNL     1      48.695  -1.319 -43.953  1.00  0.00     0.058 A 
ENDROOT
BRANCH   1   7
ATOM      7  O   UNL     1      47.272  -1.779 -42.081  1.00  0.00    -0.508 OA
ATOM      8  H   UNL     1      47.403  -0.903 -41.711  1.00  0.00     0.293 HD
ENDBRANCH   1   7
BRANCH   5   9
ATOM      9  C   UNL     1      50.249  -0.804 -45.898  1.00  0.00     0.162 A 
ATOM     10  N   UNL     1      51.225  -0.449 -45.008  1.00  0.00    -0.224 NA
ATOM     11  N   UNL     1      50.342  -0.696 -47.256  1.00  0.00    -0.207 NA
ATOM     12  C   UNL     1      52.349   0.043 -45.537  1.00  0.00     0.125 A 
ATOM     13  C   UNL     1      51.489  -0.215 -47.817  1.00  0.00     0.176 A 
ATOM     14  C   UNL     1      52.520   0.182 -46.937  1.00  0.00     0.198 A 
ATOM     15  C   UNL     1      53.528   0.503 -44.941  1.00  0.00     0.067 A 
ATOM     16  O   UNL     1      53.761   0.708 -47.212  1.00  0.00    -0.432 OA
ATOM     17  C   UNL     1      54.372   0.905 -45.999  1.00  0.00     0.229 A 
ATOM     18  C   UNL     1      54.013   0.643 -43.629  1.00  0.00     0.018 A 
ATOM     19  N   UNL     1      55.600   1.410 -45.889  1.00  0.00    -0.221 NA
ATOM     20  C   UNL     1      55.300   1.170 -43.474  1.00  0.00     0.021 A 
ATOM     21  C   UNL     1      56.041   1.532 -44.605  1.00  0.00     0.115 A 
BRANCH  13  22
ATOM     22  N   UNL     1      51.531  -0.064 -49.209  1.00  0.00    -0.349 N 
ATOM     23  C   UNL     1      50.312   0.179 -50.005  1.00  0.00     0.146 C 
ATOM     24  C   UNL     1      52.709   0.572 -49.842  1.00  0.00     0.146 C 
ATOM     25  C   UNL     1      50.493   0.030 -51.531  1.00  0.00     0.181 C 
ATOM     26  C   UNL     1      52.797   0.384 -51.370  1.00  0.00     0.181 C 
ATOM     27  O   UNL     1      51.589   0.807 -51.978  1.00  0.00    -0.378 OA
ENDBRANCH  13  22
ENDBRANCH   5   9
TORSDOF 3
ENDMDL
