MODEL 5
REMARK VINA RESULT:    -8.623      4.623      5.463
REMARK INTER + INTRA:         -12.708
REMARK INTER:                 -12.039
REMARK INTRA:                  -0.669
REMARK UNBOUND:                -0.809
REMARK SMILES Nc1ccc2[nH]c(-c3cc(CC(=O)O)cc(-c4cccc([N+](=O)[O-])c4)c3O)cc2n1
REMARK SMILES IDX 8 1 9 2 10 3 15 4 16 5 26 6 7 7 2 8 3 9 30 10 4 11 29 12
REMARK SMILES IDX 5 13 28 14 6 15 1 17 27 20 11 22 12 23 13 24 14 25 17 27
REMARK SMILES IDX 18 28 25 29 19 30 21 31 20 32 22 33 23 34 24 35
REMARK H PARENT 6 16 1 18 1 19 27 21 14 26
ROOT
ATOM      1  C   UNL     1     128.627 -15.958 163.770  1.00  0.00     0.041 A 
ATOM      2  C   UNL     1     128.054 -14.702 163.515  1.00  0.00     0.018 A 
ATOM      3  C   UNL     1     126.769 -14.588 162.968  1.00  0.00    -0.035 A 
ATOM      4  C   UNL     1     126.057 -15.756 162.660  1.00  0.00     0.017 A 
ATOM      5  C   UNL     1     126.600 -17.033 162.890  1.00  0.00     0.025 A 
ATOM      6  C   UNL     1     127.889 -17.115 163.457  1.00  0.00     0.132 A 
ENDROOT
BRANCH   1   7
ATOM      7  C   UNL     1     129.974 -16.022 164.345  1.00  0.00     0.052 A 
ATOM      8  C   UNL     1     134.235 -16.141 165.783  1.00  0.00     0.124 A 
ATOM      9  C   UNL     1     133.649 -16.431 167.012  1.00  0.00     0.049 A 
ATOM     10  N   UNL     1     133.553 -15.937 164.645  1.00  0.00    -0.230 NA
ATOM     11  C   UNL     1     132.262 -16.514 167.125  1.00  0.00     0.032 A 
ATOM     12  C   UNL     1     132.205 -16.019 164.753  1.00  0.00     0.091 A 
ATOM     13  C   UNL     1     131.553 -16.294 165.948  1.00  0.00     0.065 A 
ATOM     14  C   UNL     1     131.218 -15.857 163.756  1.00  0.00     0.057 A 
ATOM     15  N   UNL     1     130.207 -16.302 165.676  1.00  0.00    -0.353 N 
ATOM     16  H   UNL     1     129.485 -16.507 166.352  1.00  0.00     0.167 HD
BRANCH   8  17
ATOM     17  N   UNL     1     135.628 -16.072 165.683  1.00  0.00    -0.384 N 
ATOM     18  H   UNL     1     135.981 -16.069 166.637  1.00  0.00     0.158 HD
ATOM     19  H   UNL     1     135.995 -16.852 165.151  1.00  0.00     0.158 HD
ENDBRANCH   8  17
ENDBRANCH   1   7
BRANCH   6  20
ATOM     20  O   UNL     1     128.455 -18.336 163.745  1.00  0.00    -0.507 OA
ATOM     21  H   UNL     1     127.759 -18.998 163.874  1.00  0.00     0.293 HD
ENDBRANCH   6  20
BRANCH   3  22
ATOM     22  C   UNL     1     126.172 -13.230 162.680  1.00  0.00     0.158 C 
BRANCH  22  23
ATOM     23  C   UNL     1     126.612 -12.153 163.641  1.00  0.00     0.307 C 
ATOM     24  O   UNL     1     126.276 -11.993 164.802  1.00  0.00    -0.252 OA
BRANCH  23  25
ATOM     25  O   UNL     1     127.511 -11.317 163.078  1.00  0.00    -0.481 OA
ATOM     26  H   UNL     1     127.471 -11.538 162.122  1.00  0.00     0.296 HD
ENDBRANCH  23  25
ENDBRANCH  22  23
ENDBRANCH   3  22
BRANCH   5  27
ATOM     27  C   UNL     1     125.814 -18.220 162.519  1.00  0.00    -0.008 A 
ATOM     28  C   UNL     1     124.993 -18.205 161.377  1.00  0.00     0.009 A 
ATOM     29  C   UNL     1     125.859 -19.385 163.300  1.00  0.00     0.094 A 
ATOM     30  C   UNL     1     124.241 -19.326 161.015  1.00  0.00     0.008 A 
ATOM     31  C   UNL     1     125.099 -20.506 162.935  1.00  0.00     0.270 A 
ATOM     32  C   UNL     1     124.291 -20.482 161.792  1.00  0.00     0.085 A 
BRANCH  31  33
ATOM     33  N   UNL     1     125.151 -21.718 163.763  1.00  0.00     0.062 N 
ATOM     34  O   UNL     1     124.667 -22.758 163.293  1.00  0.00    -0.258 OA
ATOM     35  O   UNL     1     125.674 -21.629 164.882  1.00  0.00    -0.258 OA
ENDBRANCH  31  33
ENDBRANCH   5  27
TORSDOF 8
ENDMDL
