MODEL 1
REMARK VINA RESULT:   -10.525      0.000      0.000
REMARK INTER + INTRA:         -17.499
REMARK INTER:                 -16.370
REMARK INTRA:                  -1.129
REMARK UNBOUND:                -1.129
REMARK SMILES Cc1cccc(-c2ccc(OCCCOc3ccc4c(c3)CC[C@H]4CC(=O)O)cc2)n1
REMARK SMILES IDX 14 1 13 2 12 3 11 4 10 5 7 6 8 7 30 8 9 9 29 10 6 11 2 12
REMARK SMILES IDX 3 13 31 14 4 15 5 16 1 17 15 18 16 19 17 20 21 21 18 22
REMARK SMILES IDX 20 23 19 24 22 25 24 26 23 27 25 28 26 29 27 30 28 31
REMARK H PARENT 28 32
ROOT
ATOM      1  C   UNL     1      45.527 -42.270 108.457  1.00  0.00     0.233 C 
ENDROOT
BRANCH   1   2
ATOM      2  C   UNL     1      45.161 -43.616 107.845  1.00  0.00     0.083 C 
BRANCH   2   3
ATOM      3  C   UNL     1      44.790 -43.496 106.369  1.00  0.00     0.233 C 
BRANCH   3   4
ATOM      4  O   UNL     1      44.435 -42.134 106.122  1.00  0.00    -0.493 OA
BRANCH   4   5
ATOM      5  C   UNL     1      44.164 -41.787 104.828  1.00  0.00     0.119 A 
ATOM      6  C   UNL     1      43.775 -41.283 102.056  1.00  0.00     0.000 A 
ATOM      7  C   UNL     1      43.123 -40.521 103.042  1.00  0.00     0.014 A 
ATOM      8  C   UNL     1      44.640 -42.296 102.503  1.00  0.00     0.014 A 
ATOM      9  C   UNL     1      43.311 -40.769 104.410  1.00  0.00     0.047 A 
ATOM     10  C   UNL     1      44.830 -42.547 103.867  1.00  0.00     0.047 A 
BRANCH   6  11
ATOM     11  C   UNL     1      43.582 -41.040 100.610  1.00  0.00     0.070 A 
ATOM     12  C   UNL     1      44.168 -41.671  98.440  1.00  0.00     0.038 A 
ATOM     13  C   UNL     1      43.331 -40.714  97.884  1.00  0.00     0.023 A 
ATOM     14  N   UNL     1      44.295 -41.842  99.777  1.00  0.00    -0.253 NA
ATOM     15  C   UNL     1      42.595 -39.900  98.735  1.00  0.00     0.004 A 
ATOM     16  C   UNL     1      42.719 -40.063 100.112  1.00  0.00     0.029 A 
ATOM     17  C   UNL     1      44.976 -42.573  97.554  1.00  0.00     0.067 C 
ENDBRANCH   6  11
ENDBRANCH   4   5
ENDBRANCH   3   4
ENDBRANCH   2   3
ENDBRANCH   1   2
BRANCH   1  18
ATOM     18  O   UNL     1      46.936 -42.083 108.354  1.00  0.00    -0.493 OA
BRANCH  18  19
ATOM     19  C   UNL     1      47.389 -40.796 108.234  1.00  0.00     0.119 A 
ATOM     20  C   UNL     1      46.910 -39.919 109.221  1.00  0.00     0.047 A 
ATOM     21  C   UNL     1      48.257 -40.324 107.247  1.00  0.00     0.050 A 
ATOM     22  C   UNL     1      47.284 -38.572 109.242  1.00  0.00     0.008 A 
ATOM     23  C   UNL     1      48.614 -38.982 107.266  1.00  0.00    -0.041 A 
ATOM     24  C   UNL     1      48.133 -38.109 108.251  1.00  0.00    -0.041 A 
ATOM     25  C   UNL     1      49.552 -38.277 106.336  1.00  0.00     0.036 C 
ATOM     26  C   UNL     1      48.714 -36.729 108.067  1.00  0.00     0.031 C 
ATOM     27  C   UNL     1      49.173 -36.814 106.592  1.00  0.00     0.014 C 
BRANCH  26  28
ATOM     28  C   UNL     1      47.730 -35.588 108.321  1.00  0.00     0.131 C 
BRANCH  28  29
ATOM     29  C   UNL     1      48.416 -34.370 108.875  1.00  0.00     0.303 C 
ATOM     30  O   UNL     1      48.602 -34.090 110.046  1.00  0.00    -0.252 OA
BRANCH  29  31
ATOM     31  O   UNL     1      48.822 -33.535 107.899  1.00  0.00    -0.481 OA
ATOM     32  H   UNL     1      48.057 -33.486 107.289  1.00  0.00     0.296 HD
ENDBRANCH  29  31
ENDBRANCH  28  29
ENDBRANCH  26  28
ENDBRANCH  18  19
ENDBRANCH   1  18
TORSDOF 10
ENDMDL
MODEL 2
REMARK VINA RESULT:   -10.211      3.599      5.052
REMARK INTER + INTRA:         -17.011
REMARK INTER:                 -15.584
REMARK INTRA:                  -1.426
REMARK UNBOUND:                -1.129
REMARK SMILES Cc1cccc(-c2ccc(OCCCOc3ccc4c(c3)CC[C@H]4CC(=O)O)cc2)n1
REMARK SMILES IDX 14 1 13 2 12 3 11 4 10 5 7 6 8 7 30 8 9 9 29 10 6 11 2 12
REMARK SMILES IDX 3 13 31 14 4 15 5 16 1 17 15 18 16 19 17 20 21 21 18 22
REMARK SMILES IDX 20 23 19 24 22 25 24 26 23 27 25 28 26 29 27 30 28 31
REMARK H PARENT 28 32
ROOT
ATOM      1  C   UNL     1      46.600 -40.808 107.212  1.00  0.00     0.233 C 
ENDROOT
BRANCH   1   2
ATOM      2  C   UNL     1      46.050 -42.211 107.437  1.00  0.00     0.083 C 
BRANCH   2   3
ATOM      3  C   UNL     1      45.490 -42.823 106.156  1.00  0.00     0.233 C 
BRANCH   3   4
ATOM      4  O   UNL     1      44.262 -42.154 105.858  1.00  0.00    -0.493 OA
BRANCH   4   5
ATOM      5  C   UNL     1      44.038 -41.819 104.552  1.00  0.00     0.119 A 
ATOM      6  C   UNL     1      43.762 -41.329 101.764  1.00  0.00     0.000 A 
ATOM      7  C   UNL     1      43.015 -40.611 102.715  1.00  0.00     0.014 A 
ATOM      8  C   UNL     1      44.663 -42.289 102.255  1.00  0.00     0.014 A 
ATOM      9  C   UNL     1      43.147 -40.853 104.091  1.00  0.00     0.047 A 
ATOM     10  C   UNL     1      44.797 -42.533 103.626  1.00  0.00     0.047 A 
BRANCH   6  11
ATOM     11  C   UNL     1      43.630 -41.092 100.310  1.00  0.00     0.070 A 
ATOM     12  C   UNL     1      44.282 -41.756  98.167  1.00  0.00     0.038 A 
ATOM     13  C   UNL     1      43.491 -40.782  97.574  1.00  0.00     0.023 A 
ATOM     14  N   UNL     1      44.354 -41.918  99.510  1.00  0.00    -0.253 NA
ATOM     15  C   UNL     1      42.744 -39.943  98.391  1.00  0.00     0.004 A 
ATOM     16  C   UNL     1      42.812 -40.099  99.773  1.00  0.00     0.029 A 
ATOM     17  C   UNL     1      45.099 -42.684  97.319  1.00  0.00     0.067 C 
ENDBRANCH   6  11
ENDBRANCH   4   5
ENDBRANCH   3   4
ENDBRANCH   2   3
ENDBRANCH   1   2
BRANCH   1  18
ATOM     18  O   UNL     1      46.193 -39.972 108.293  1.00  0.00    -0.493 OA
BRANCH  18  19
ATOM     19  C   UNL     1      44.874 -39.606 108.337  1.00  0.00     0.119 A 
ATOM     20  C   UNL     1      44.331 -39.551 109.632  1.00  0.00     0.047 A 
ATOM     21  C   UNL     1      44.075 -39.294 107.235  1.00  0.00     0.050 A 
ATOM     22  C   UNL     1      42.999 -39.186 109.847  1.00  0.00     0.008 A 
ATOM     23  C   UNL     1      42.749 -38.947 107.456  1.00  0.00    -0.041 A 
ATOM     24  C   UNL     1      42.210 -38.894 108.748  1.00  0.00    -0.041 A 
ATOM     25  C   UNL     1      41.733 -38.542 106.434  1.00  0.00     0.036 C 
ATOM     26  C   UNL     1      40.771 -38.443 108.705  1.00  0.00     0.031 C 
ATOM     27  C   UNL     1      40.432 -38.731 107.223  1.00  0.00     0.014 C 
BRANCH  26  28
ATOM     28  C   UNL     1      39.849 -39.172 109.681  1.00  0.00     0.131 C 
BRANCH  28  29
ATOM     29  C   UNL     1      38.839 -38.243 110.297  1.00  0.00     0.303 C 
ATOM     30  O   UNL     1      38.203 -37.364 109.744  1.00  0.00    -0.252 OA
BRANCH  29  31
ATOM     31  O   UNL     1      38.697 -38.462 111.619  1.00  0.00    -0.481 OA
ATOM     32  H   UNL     1      38.797 -39.432 111.715  1.00  0.00     0.296 HD
ENDBRANCH  29  31
ENDBRANCH  28  29
ENDBRANCH  26  28
ENDBRANCH  18  19
ENDBRANCH   1  18
TORSDOF 10
ENDMDL
MODEL 3
REMARK VINA RESULT:   -10.104      1.693      2.465
REMARK INTER + INTRA:         -16.845
REMARK INTER:                 -15.686
REMARK INTRA:                  -1.159
REMARK UNBOUND:                -1.129
REMARK SMILES Cc1cccc(-c2ccc(OCCCOc3ccc4c(c3)CC[C@H]4CC(=O)O)cc2)n1
REMARK SMILES IDX 14 1 13 2 12 3 11 4 10 5 7 6 8 7 30 8 9 9 29 10 6 11 2 12
REMARK SMILES IDX 3 13 31 14 4 15 5 16 1 17 15 18 16 19 17 20 21 21 18 22
REMARK SMILES IDX 20 23 19 24 22 25 24 26 23 27 25 28 26 29 27 30 28 31
REMARK H PARENT 28 32
ROOT
ATOM      1  C   UNL     1      43.913 -40.694 107.302  1.00  0.00     0.233 C 
ENDROOT
BRANCH   1   2
ATOM      2  C   UNL     1      42.714 -39.756 107.233  1.00  0.00     0.083 C 
BRANCH   2   3
ATOM      3  C   UNL     1      42.877 -38.691 106.152  1.00  0.00     0.233 C 
BRANCH   3   4
ATOM      4  O   UNL     1      41.910 -38.957 105.134  1.00  0.00    -0.493 OA
BRANCH   4   5
ATOM      5  C   UNL     1      42.365 -39.523 103.976  1.00  0.00     0.119 A 
ATOM      6  C   UNL     1      43.279 -40.439 101.444  1.00  0.00     0.000 A 
ATOM      7  C   UNL     1      43.228 -41.292 102.561  1.00  0.00     0.014 A 
ATOM      8  C   UNL     1      42.843 -39.117 101.631  1.00  0.00     0.014 A 
ATOM      9  C   UNL     1      42.780 -40.842 103.812  1.00  0.00     0.047 A 
ATOM     10  C   UNL     1      42.396 -38.664 102.878  1.00  0.00     0.047 A 
BRANCH   6  11
ATOM     11  C   UNL     1      43.755 -40.896 100.120  1.00  0.00     0.070 A 
ATOM     12  C   UNL     1      43.699 -40.549  97.811  1.00  0.00     0.038 A 
ATOM     13  C   UNL     1      44.554 -41.618  97.581  1.00  0.00     0.023 A 
ATOM     14  N   UNL     1      43.304 -40.184  99.053  1.00  0.00    -0.253 NA
ATOM     15  C   UNL     1      45.023 -42.340  98.671  1.00  0.00     0.004 A 
ATOM     16  C   UNL     1      44.622 -41.976  99.955  1.00  0.00     0.029 A 
ATOM     17  C   UNL     1      43.175 -39.743  96.660  1.00  0.00     0.067 C 
ENDBRANCH   6  11
ENDBRANCH   4   5
ENDBRANCH   3   4
ENDBRANCH   2   3
ENDBRANCH   1   2
BRANCH   1  18
ATOM     18  O   UNL     1      44.683 -40.376 108.459  1.00  0.00    -0.493 OA
BRANCH  18  19
ATOM     19  C   UNL     1      45.700 -39.473 108.305  1.00  0.00     0.119 A 
ATOM     20  C   UNL     1      45.535 -38.284 109.036  1.00  0.00     0.047 A 
ATOM     21  C   UNL     1      46.837 -39.649 107.512  1.00  0.00     0.050 A 
ATOM     22  C   UNL     1      46.490 -37.264 108.990  1.00  0.00     0.008 A 
ATOM     23  C   UNL     1      47.774 -38.626 107.461  1.00  0.00    -0.041 A 
ATOM     24  C   UNL     1      47.606 -37.441 108.190  1.00  0.00    -0.041 A 
ATOM     25  C   UNL     1      49.071 -38.617 106.714  1.00  0.00     0.036 C 
ATOM     26  C   UNL     1      48.789 -36.526 107.995  1.00  0.00     0.031 C 
ATOM     27  C   UNL     1      49.389 -37.117 106.697  1.00  0.00     0.014 C 
BRANCH  26  28
ATOM     28  C   UNL     1      48.431 -35.046 107.866  1.00  0.00     0.131 C 
BRANCH  28  29
ATOM     29  C   UNL     1      48.742 -34.283 109.123  1.00  0.00     0.303 C 
ATOM     30  O   UNL     1      48.072 -34.218 110.139  1.00  0.00    -0.252 OA
BRANCH  29  31
ATOM     31  O   UNL     1      49.901 -33.604 109.025  1.00  0.00    -0.481 OA
ATOM     32  H   UNL     1      49.627 -32.666 108.948  1.00  0.00     0.296 HD
ENDBRANCH  29  31
ENDBRANCH  28  29
ENDBRANCH  26  28
ENDBRANCH  18  19
ENDBRANCH   1  18
TORSDOF 10
ENDMDL
MODEL 4
REMARK VINA RESULT:    -9.848      4.468      6.482
REMARK INTER + INTRA:         -16.445
REMARK INTER:                 -14.962
REMARK INTRA:                  -1.484
REMARK UNBOUND:                -1.129
REMARK SMILES Cc1cccc(-c2ccc(OCCCOc3ccc4c(c3)CC[C@H]4CC(=O)O)cc2)n1
REMARK SMILES IDX 14 1 13 2 12 3 11 4 10 5 7 6 8 7 30 8 9 9 29 10 6 11 2 12
REMARK SMILES IDX 3 13 31 14 4 15 5 16 1 17 15 18 16 19 17 20 21 21 18 22
REMARK SMILES IDX 20 23 19 24 22 25 24 26 23 27 25 28 26 29 27 30 28 31
REMARK H PARENT 28 32
ROOT
ATOM      1  C   UNL     1      45.740 -42.409 108.023  1.00  0.00     0.233 C 
ENDROOT
BRANCH   1   2
ATOM      2  C   UNL     1      45.598 -42.269 106.513  1.00  0.00     0.083 C 
BRANCH   2   3
ATOM      3  C   UNL     1      44.326 -41.523 106.120  1.00  0.00     0.233 C 
BRANCH   3   4
ATOM      4  O   UNL     1      44.400 -40.213 106.687  1.00  0.00    -0.493 OA
BRANCH   4   5
ATOM      5  C   UNL     1      43.310 -39.774 107.385  1.00  0.00     0.119 A 
ATOM      6  C   UNL     1      40.885 -38.921 108.600  1.00  0.00     0.000 A 
ATOM      7  C   UNL     1      42.104 -38.904 109.300  1.00  0.00     0.014 A 
ATOM      8  C   UNL     1      40.921 -39.364 107.267  1.00  0.00     0.014 A 
ATOM      9  C   UNL     1      43.302 -39.327 108.704  1.00  0.00     0.047 A 
ATOM     10  C   UNL     1      42.114 -39.787 106.670  1.00  0.00     0.047 A 
BRANCH   6  11
ATOM     11  C   UNL     1      39.612 -38.485 109.216  1.00  0.00     0.070 A 
ATOM     12  C   UNL     1      37.433 -37.732 108.844  1.00  0.00     0.038 A 
ATOM     13  C   UNL     1      37.176 -37.654 110.206  1.00  0.00     0.023 A 
ATOM     14  N   UNL     1      38.624 -38.143 108.348  1.00  0.00    -0.253 NA
ATOM     15  C   UNL     1      38.183 -38.013 111.093  1.00  0.00     0.004 A 
ATOM     16  C   UNL     1      39.414 -38.434 110.595  1.00  0.00     0.029 A 
ATOM     17  C   UNL     1      36.370 -37.358 107.854  1.00  0.00     0.067 C 
ENDBRANCH   6  11
ENDBRANCH   4   5
ENDBRANCH   3   4
ENDBRANCH   2   3
ENDBRANCH   1   2
BRANCH   1  18
ATOM     18  O   UNL     1      47.088 -42.121 108.389  1.00  0.00    -0.493 OA
BRANCH  18  19
ATOM     19  C   UNL     1      47.508 -40.824 108.256  1.00  0.00     0.119 A 
ATOM     20  C   UNL     1      46.974 -39.941 109.210  1.00  0.00     0.047 A 
ATOM     21  C   UNL     1      48.393 -40.347 107.287  1.00  0.00     0.050 A 
ATOM     22  C   UNL     1      47.310 -38.585 109.214  1.00  0.00     0.008 A 
ATOM     23  C   UNL     1      48.711 -38.995 107.289  1.00  0.00    -0.041 A 
ATOM     24  C   UNL     1      48.176 -38.117 108.240  1.00  0.00    -0.041 A 
ATOM     25  C   UNL     1      49.658 -38.283 106.373  1.00  0.00     0.036 C 
ATOM     26  C   UNL     1      48.724 -36.725 108.046  1.00  0.00     0.031 C 
ATOM     27  C   UNL     1      49.230 -36.826 106.587  1.00  0.00     0.014 C 
BRANCH  26  28
ATOM     28  C   UNL     1      47.701 -35.608 108.246  1.00  0.00     0.131 C 
BRANCH  28  29
ATOM     29  C   UNL     1      48.263 -34.473 109.057  1.00  0.00     0.303 C 
ATOM     30  O   UNL     1      48.164 -34.297 110.258  1.00  0.00    -0.252 OA
BRANCH  29  31
ATOM     31  O   UNL     1      48.920 -33.583 108.287  1.00  0.00    -0.481 OA
ATOM     32  H   UNL     1      48.339 -33.464 107.507  1.00  0.00     0.296 HD
ENDBRANCH  29  31
ENDBRANCH  28  29
ENDBRANCH  26  28
ENDBRANCH  18  19
ENDBRANCH   1  18
TORSDOF 10
ENDMDL
MODEL 5
REMARK VINA RESULT:    -9.838      1.964      2.899
REMARK INTER + INTRA:         -16.430
REMARK INTER:                 -15.138
REMARK INTRA:                  -1.292
REMARK UNBOUND:                -1.129
REMARK SMILES Cc1cccc(-c2ccc(OCCCOc3ccc4c(c3)CC[C@H]4CC(=O)O)cc2)n1
REMARK SMILES IDX 14 1 13 2 12 3 11 4 10 5 7 6 8 7 30 8 9 9 29 10 6 11 2 12
REMARK SMILES IDX 3 13 31 14 4 15 5 16 1 17 15 18 16 19 17 20 21 21 18 22
REMARK SMILES IDX 20 23 19 24 22 25 24 26 23 27 25 28 26 29 27 30 28 31
REMARK H PARENT 28 32
ROOT
ATOM      1  C   UNL     1      42.072 -38.662 108.673  1.00  0.00     0.233 C 
ENDROOT
BRANCH   1   2
ATOM      2  C   UNL     1      41.600 -39.622 107.588  1.00  0.00     0.083 C 
BRANCH   2   3
ATOM      3  C   UNL     1      42.124 -39.233 106.208  1.00  0.00     0.233 C 
BRANCH   3   4
ATOM      4  O   UNL     1      43.061 -40.233 105.803  1.00  0.00    -0.493 OA
BRANCH   4   5
ATOM      5  C   UNL     1      43.191 -40.458 104.461  1.00  0.00     0.119 A 
ATOM      6  C   UNL     1      43.357 -40.656 101.629  1.00  0.00     0.000 A 
ATOM      7  C   UNL     1      43.769 -41.708 102.466  1.00  0.00     0.014 A 
ATOM      8  C   UNL     1      42.844 -39.507 102.255  1.00  0.00     0.014 A 
ATOM      9  C   UNL     1      43.691 -41.612 103.863  1.00  0.00     0.047 A 
ATOM     10  C   UNL     1      42.765 -39.408 103.649  1.00  0.00     0.047 A 
BRANCH   6  11
ATOM     11  C   UNL     1      43.439 -40.737 100.154  1.00  0.00     0.070 A 
ATOM     12  C   UNL     1      44.412 -41.807  98.320  1.00  0.00     0.038 A 
ATOM     13  C   UNL     1      43.704 -41.019  97.424  1.00  0.00     0.023 A 
ATOM     14  N   UNL     1      44.286 -41.680  99.662  1.00  0.00    -0.253 NA
ATOM     15  C   UNL     1      42.831 -40.062  97.926  1.00  0.00     0.004 A 
ATOM     16  C   UNL     1      42.695 -39.919  99.305  1.00  0.00     0.029 A 
ATOM     17  C   UNL     1      45.361 -42.854  97.817  1.00  0.00     0.067 C 
ENDBRANCH   6  11
ENDBRANCH   4   5
ENDBRANCH   3   4
ENDBRANCH   2   3
ENDBRANCH   1   2
BRANCH   1  18
ATOM     18  O   UNL     1      43.003 -39.339 109.515  1.00  0.00    -0.493 OA
BRANCH  18  19
ATOM     19  C   UNL     1      44.324 -39.278 109.162  1.00  0.00     0.119 A 
ATOM     20  C   UNL     1      44.763 -38.000 108.776  1.00  0.00     0.047 A 
ATOM     21  C   UNL     1      45.222 -40.348 109.166  1.00  0.00     0.050 A 
ATOM     22  C   UNL     1      46.087 -37.770 108.393  1.00  0.00     0.008 A 
ATOM     23  C   UNL     1      46.533 -40.114 108.770  1.00  0.00    -0.041 A 
ATOM     24  C   UNL     1      46.966 -38.840 108.385  1.00  0.00    -0.041 A 
ATOM     25  C   UNL     1      47.660 -41.099 108.734  1.00  0.00     0.036 C 
ATOM     26  C   UNL     1      48.438 -38.856 108.055  1.00  0.00     0.031 C 
ATOM     27  C   UNL     1      48.655 -40.371 107.822  1.00  0.00     0.014 C 
BRANCH  26  28
ATOM     28  C   UNL     1      48.827 -38.006 106.847  1.00  0.00     0.131 C 
BRANCH  28  29
ATOM     29  C   UNL     1      49.136 -36.587 107.237  1.00  0.00     0.303 C 
ATOM     30  O   UNL     1      49.899 -36.204 108.106  1.00  0.00    -0.252 OA
BRANCH  29  31
ATOM     31  O   UNL     1      48.431 -35.701 106.507  1.00  0.00    -0.481 OA
ATOM     32  H   UNL     1      47.928 -36.255 105.875  1.00  0.00     0.296 HD
ENDBRANCH  29  31
ENDBRANCH  28  29
ENDBRANCH  26  28
ENDBRANCH  18  19
ENDBRANCH   1  18
TORSDOF 10
ENDMDL
MODEL 6
REMARK VINA RESULT:    -9.810      4.687      6.840
REMARK INTER + INTRA:         -16.387
REMARK INTER:                 -15.168
REMARK INTRA:                  -1.219
REMARK UNBOUND:                -1.129
REMARK SMILES Cc1cccc(-c2ccc(OCCCOc3ccc4c(c3)CC[C@H]4CC(=O)O)cc2)n1
REMARK SMILES IDX 14 1 13 2 12 3 11 4 10 5 7 6 8 7 30 8 9 9 29 10 6 11 2 12
REMARK SMILES IDX 3 13 31 14 4 15 5 16 1 17 15 18 16 19 17 20 21 21 18 22
REMARK SMILES IDX 20 23 19 24 22 25 24 26 23 27 25 28 26 29 27 30 28 31
REMARK H PARENT 28 32
ROOT
ATOM      1  C   UNL     1      44.234 -40.310 108.301  1.00  0.00     0.233 C 
ENDROOT
BRANCH   1   2
ATOM      2  C   UNL     1      45.324 -40.270 107.237  1.00  0.00     0.083 C 
BRANCH   2   3
ATOM      3  C   UNL     1      45.559 -41.638 106.601  1.00  0.00     0.233 C 
BRANCH   3   4
ATOM      4  O   UNL     1      44.319 -42.072 106.039  1.00  0.00    -0.493 OA
BRANCH   4   5
ATOM      5  C   UNL     1      44.083 -41.753 104.731  1.00  0.00     0.119 A 
ATOM      6  C   UNL     1      43.790 -41.293 101.940  1.00  0.00     0.000 A 
ATOM      7  C   UNL     1      43.030 -40.584 102.887  1.00  0.00     0.014 A 
ATOM      8  C   UNL     1      44.712 -42.230 102.436  1.00  0.00     0.014 A 
ATOM      9  C   UNL     1      43.171 -40.810 104.264  1.00  0.00     0.047 A 
ATOM     10  C   UNL     1      44.855 -42.459 103.809  1.00  0.00     0.047 A 
BRANCH   6  11
ATOM     11  C   UNL     1      43.649 -41.071 100.484  1.00  0.00     0.070 A 
ATOM     12  C   UNL     1      44.289 -41.756  98.345  1.00  0.00     0.038 A 
ATOM     13  C   UNL     1      43.493 -40.790  97.745  1.00  0.00     0.023 A 
ATOM     14  N   UNL     1      44.369 -41.905  99.688  1.00  0.00    -0.253 NA
ATOM     15  C   UNL     1      42.749 -39.944  98.558  1.00  0.00     0.004 A 
ATOM     16  C   UNL     1      42.826 -40.085  99.942  1.00  0.00     0.029 A 
ATOM     17  C   UNL     1      45.103 -42.691  97.501  1.00  0.00     0.067 C 
ENDBRANCH   6  11
ENDBRANCH   4   5
ENDBRANCH   3   4
ENDBRANCH   2   3
ENDBRANCH   1   2
BRANCH   1  18
ATOM     18  O   UNL     1      43.671 -39.007 108.435  1.00  0.00    -0.493 OA
BRANCH  18  19
ATOM     19  C   UNL     1      42.307 -38.921 108.507  1.00  0.00     0.119 A 
ATOM     20  C   UNL     1      41.650 -39.074 107.274  1.00  0.00     0.047 A 
ATOM     21  C   UNL     1      41.561 -38.708 109.669  1.00  0.00     0.050 A 
ATOM     22  C   UNL     1      40.256 -39.019 107.180  1.00  0.00     0.008 A 
ATOM     23  C   UNL     1      40.178 -38.640 109.565  1.00  0.00    -0.041 A 
ATOM     24  C   UNL     1      39.526 -38.791 108.335  1.00  0.00    -0.041 A 
ATOM     25  C   UNL     1      39.191 -38.458 110.676  1.00  0.00     0.036 C 
ATOM     26  C   UNL     1      38.030 -38.726 108.514  1.00  0.00     0.031 C 
ATOM     27  C   UNL     1      37.945 -38.029 109.893  1.00  0.00     0.014 C 
BRANCH  26  28
ATOM     28  C   UNL     1      37.293 -37.964 107.414  1.00  0.00     0.131 C 
BRANCH  28  29
ATOM     29  C   UNL     1      35.904 -38.498 107.197  1.00  0.00     0.303 C 
ATOM     30  O   UNL     1      35.340 -39.378 107.822  1.00  0.00    -0.252 OA
BRANCH  29  31
ATOM     31  O   UNL     1      35.291 -37.896 106.159  1.00  0.00    -0.481 OA
ATOM     32  H   UNL     1      35.914 -37.190 105.887  1.00  0.00     0.296 HD
ENDBRANCH  29  31
ENDBRANCH  28  29
ENDBRANCH  26  28
ENDBRANCH  18  19
ENDBRANCH   1  18
TORSDOF 10
ENDMDL
MODEL 7
REMARK VINA RESULT:    -9.748      3.763      9.161
REMARK INTER + INTRA:         -16.290
REMARK INTER:                 -15.098
REMARK INTRA:                  -1.192
REMARK UNBOUND:                -1.129
REMARK SMILES Cc1cccc(-c2ccc(OCCCOc3ccc4c(c3)CC[C@H]4CC(=O)O)cc2)n1
REMARK SMILES IDX 14 1 13 2 12 3 11 4 10 5 7 6 8 7 30 8 9 9 29 10 6 11 2 12
REMARK SMILES IDX 3 13 31 14 4 15 5 16 1 17 15 18 16 19 17 20 21 21 18 22
REMARK SMILES IDX 20 23 19 24 22 25 24 26 23 27 25 28 26 29 27 30 28 31
REMARK H PARENT 28 32
ROOT
ATOM      1  C   UNL     1      40.491 -39.490 105.606  1.00  0.00     0.233 C 
ENDROOT
BRANCH   1   2
ATOM      2  C   UNL     1      40.117 -39.562 107.081  1.00  0.00     0.083 C 
BRANCH   2   3
ATOM      3  C   UNL     1      40.843 -38.507 107.912  1.00  0.00     0.233 C 
BRANCH   3   4
ATOM      4  O   UNL     1      41.729 -39.191 108.800  1.00  0.00    -0.493 OA
BRANCH   4   5
ATOM      5  C   UNL     1      43.067 -38.951 108.650  1.00  0.00     0.119 A 
ATOM      6  C   UNL     1      45.777 -38.268 108.125  1.00  0.00     0.000 A 
ATOM      7  C   UNL     1      45.430 -39.176 109.142  1.00  0.00     0.014 A 
ATOM      8  C   UNL     1      44.725 -37.725 107.370  1.00  0.00     0.014 A 
ATOM      9  C   UNL     1      44.094 -39.513 109.404  1.00  0.00     0.047 A 
ATOM     10  C   UNL     1      43.390 -38.058 107.629  1.00  0.00     0.047 A 
BRANCH   6  11
ATOM     11  C   UNL     1      47.180 -37.897 107.840  1.00  0.00     0.070 A 
ATOM     12  C   UNL     1      48.658 -36.178 107.275  1.00  0.00     0.038 A 
ATOM     13  C   UNL     1      49.743 -37.043 107.288  1.00  0.00     0.023 A 
ATOM     14  N   UNL     1      47.396 -36.587 107.549  1.00  0.00    -0.253 NA
ATOM     15  C   UNL     1      49.525 -38.379 107.594  1.00  0.00     0.004 A 
ATOM     16  C   UNL     1      48.231 -38.813 107.875  1.00  0.00     0.029 A 
ATOM     17  C   UNL     1      48.853 -34.726 106.954  1.00  0.00     0.067 C 
ENDBRANCH   6  11
ENDBRANCH   4   5
ENDBRANCH   3   4
ENDBRANCH   2   3
ENDBRANCH   1   2
BRANCH   1  18
ATOM     18  O   UNL     1      41.840 -39.923 105.450  1.00  0.00    -0.493 OA
BRANCH  18  19
ATOM     19  C   UNL     1      42.309 -40.061 104.171  1.00  0.00     0.119 A 
ATOM     20  C   UNL     1      41.928 -39.026 103.300  1.00  0.00     0.047 A 
ATOM     21  C   UNL     1      43.105 -41.107 103.700  1.00  0.00     0.050 A 
ATOM     22  C   UNL     1      42.331 -39.016 101.961  1.00  0.00     0.008 A 
ATOM     23  C   UNL     1      43.490 -41.097 102.365  1.00  0.00    -0.041 A 
ATOM     24  C   UNL     1      43.107 -40.065 101.499  1.00  0.00    -0.041 A 
ATOM     25  C   UNL     1      44.365 -42.089 101.665  1.00  0.00     0.036 C 
ATOM     26  C   UNL     1      43.700 -40.275 100.128  1.00  0.00     0.031 C 
ATOM     27  C   UNL     1      44.038 -41.783 100.198  1.00  0.00     0.014 C 
BRANCH  26  28
ATOM     28  C   UNL     1      42.764 -39.927  98.972  1.00  0.00     0.131 C 
BRANCH  28  29
ATOM     29  C   UNL     1      43.264 -40.470  97.663  1.00  0.00     0.303 C 
ATOM     30  O   UNL     1      42.757 -41.339  96.976  1.00  0.00    -0.252 OA
BRANCH  29  31
ATOM     31  O   UNL     1      44.421 -39.891  97.288  1.00  0.00    -0.481 OA
ATOM     32  H   UNL     1      44.522 -39.134  97.902  1.00  0.00     0.296 HD
ENDBRANCH  29  31
ENDBRANCH  28  29
ENDBRANCH  26  28
ENDBRANCH  18  19
ENDBRANCH   1  18
TORSDOF 10
ENDMDL
MODEL 8
REMARK VINA RESULT:    -9.717      6.874      9.583
REMARK INTER + INTRA:         -16.242
REMARK INTER:                 -14.665
REMARK INTRA:                  -1.578
REMARK UNBOUND:                -1.129
REMARK SMILES Cc1cccc(-c2ccc(OCCCOc3ccc4c(c3)CC[C@H]4CC(=O)O)cc2)n1
REMARK SMILES IDX 14 1 13 2 12 3 11 4 10 5 7 6 8 7 30 8 9 9 29 10 6 11 2 12
REMARK SMILES IDX 3 13 31 14 4 15 5 16 1 17 15 18 16 19 17 20 21 21 18 22
REMARK SMILES IDX 20 23 19 24 22 25 24 26 23 27 25 28 26 29 27 30 28 31
REMARK H PARENT 28 32
ROOT
ATOM      1  C   UNL     1      37.520 -38.574 110.752  1.00  0.00     0.233 C 
ENDROOT
BRANCH   1   2
ATOM      2  C   UNL     1      38.835 -37.841 110.515  1.00  0.00     0.083 C 
BRANCH   2   3
ATOM      3  C   UNL     1      39.945 -38.783 110.056  1.00  0.00     0.233 C 
BRANCH   3   4
ATOM      4  O   UNL     1      40.877 -38.013 109.294  1.00  0.00    -0.493 OA
BRANCH   4   5
ATOM      5  C   UNL     1      41.094 -38.401 108.001  1.00  0.00     0.119 A 
ATOM      6  C   UNL     1      41.785 -39.045 105.318  1.00  0.00     0.000 A 
ATOM      7  C   UNL     1      40.647 -39.592 105.937  1.00  0.00     0.014 A 
ATOM      8  C   UNL     1      42.558 -38.153 106.081  1.00  0.00     0.014 A 
ATOM      9  C   UNL     1      40.305 -39.278 107.261  1.00  0.00     0.047 A 
ATOM     10  C   UNL     1      42.220 -37.838 107.402  1.00  0.00     0.047 A 
BRANCH   6  11
ATOM     11  C   UNL     1      42.163 -39.370 103.926  1.00  0.00     0.070 A 
ATOM     12  C   UNL     1      41.943 -38.803 101.671  1.00  0.00     0.038 A 
ATOM     13  C   UNL     1      42.776 -39.843 101.279  1.00  0.00     0.023 A 
ATOM     14  N   UNL     1      41.640 -38.561 102.968  1.00  0.00    -0.253 NA
ATOM     15  C   UNL     1      43.318 -40.664 102.258  1.00  0.00     0.004 A 
ATOM     16  C   UNL     1      43.011 -40.427 103.596  1.00  0.00     0.029 A 
ATOM     17  C   UNL     1      41.342 -37.891 100.644  1.00  0.00     0.067 C 
ENDBRANCH   6  11
ENDBRANCH   4   5
ENDBRANCH   3   4
ENDBRANCH   2   3
ENDBRANCH   1   2
BRANCH   1  18
ATOM     18  O   UNL     1      36.442 -37.729 110.358  1.00  0.00    -0.493 OA
BRANCH  18  19
ATOM     19  C   UNL     1      36.299 -37.482 109.019  1.00  0.00     0.119 A 
ATOM     20  C   UNL     1      36.462 -38.612 108.200  1.00  0.00     0.047 A 
ATOM     21  C   UNL     1      36.011 -36.243 108.442  1.00  0.00     0.050 A 
ATOM     22  C   UNL     1      36.341 -38.527 106.810  1.00  0.00     0.008 A 
ATOM     23  C   UNL     1      35.906 -36.164 107.060  1.00  0.00    -0.041 A 
ATOM     24  C   UNL     1      36.070 -37.292 106.246  1.00  0.00    -0.041 A 
ATOM     25  C   UNL     1      35.569 -34.956 106.241  1.00  0.00     0.036 C 
ATOM     26  C   UNL     1      35.854 -36.937 104.796  1.00  0.00     0.031 C 
ATOM     27  C   UNL     1      36.044 -35.402 104.853  1.00  0.00     0.014 C 
BRANCH  26  28
ATOM     28  C   UNL     1      36.817 -37.621 103.826  1.00  0.00     0.131 C 
BRANCH  28  29
ATOM     29  C   UNL     1      36.842 -36.938 102.487  1.00  0.00     0.303 C 
ATOM     30  O   UNL     1      35.892 -36.656 101.778  1.00  0.00    -0.252 OA
BRANCH  29  31
ATOM     31  O   UNL     1      38.098 -36.659 102.089  1.00  0.00    -0.481 OA
ATOM     32  H   UNL     1      38.212 -35.708 102.296  1.00  0.00     0.296 HD
ENDBRANCH  29  31
ENDBRANCH  28  29
ENDBRANCH  26  28
ENDBRANCH  18  19
ENDBRANCH   1  18
TORSDOF 10
ENDMDL
MODEL 9
REMARK VINA RESULT:    -9.710      5.169      9.431
REMARK INTER + INTRA:         -16.232
REMARK INTER:                 -14.893
REMARK INTRA:                  -1.338
REMARK UNBOUND:                -1.129
REMARK SMILES Cc1cccc(-c2ccc(OCCCOc3ccc4c(c3)CC[C@H]4CC(=O)O)cc2)n1
REMARK SMILES IDX 14 1 13 2 12 3 11 4 10 5 7 6 8 7 30 8 9 9 29 10 6 11 2 12
REMARK SMILES IDX 3 13 31 14 4 15 5 16 1 17 15 18 16 19 17 20 21 21 18 22
REMARK SMILES IDX 20 23 19 24 22 25 24 26 23 27 25 28 26 29 27 30 28 31
REMARK H PARENT 28 32
ROOT
ATOM      1  C   UNL     1      45.702 -42.290 105.299  1.00  0.00     0.233 C 
ENDROOT
BRANCH   1   2
ATOM      2  C   UNL     1      45.950 -41.543 106.604  1.00  0.00     0.083 C 
BRANCH   2   3
ATOM      3  C   UNL     1      44.685 -41.426 107.450  1.00  0.00     0.233 C 
BRANCH   3   4
ATOM      4  O   UNL     1      44.362 -40.038 107.554  1.00  0.00    -0.493 OA
BRANCH   4   5
ATOM      5  C   UNL     1      43.059 -39.721 107.819  1.00  0.00     0.119 A 
ATOM      6  C   UNL     1      40.434 -38.996 108.641  1.00  0.00     0.000 A 
ATOM      7  C   UNL     1      40.703 -39.422 107.328  1.00  0.00     0.014 A 
ATOM      8  C   UNL     1      41.519 -38.959 109.534  1.00  0.00     0.014 A 
ATOM      9  C   UNL     1      41.998 -39.778 106.919  1.00  0.00     0.047 A 
ATOM     10  C   UNL     1      42.811 -39.313 109.129  1.00  0.00     0.047 A 
BRANCH   6  11
ATOM     11  C   UNL     1      39.078 -38.610 109.086  1.00  0.00     0.070 A 
ATOM     12  C   UNL     1      36.871 -38.186 108.448  1.00  0.00     0.038 A 
ATOM     13  C   UNL     1      36.497 -37.907 109.755  1.00  0.00     0.023 A 
ATOM     14  N   UNL     1      38.135 -38.536 108.110  1.00  0.00    -0.253 NA
ATOM     15  C   UNL     1      37.457 -37.991 110.754  1.00  0.00     0.004 A 
ATOM     16  C   UNL     1      38.761 -38.347 110.419  1.00  0.00     0.029 A 
ATOM     17  C   UNL     1      35.862 -38.111 107.341  1.00  0.00     0.067 C 
ENDBRANCH   6  11
ENDBRANCH   4   5
ENDBRANCH   3   4
ENDBRANCH   2   3
ENDBRANCH   1   2
BRANCH   1  18
ATOM     18  O   UNL     1      44.307 -42.256 105.006  1.00  0.00    -0.493 OA
BRANCH  18  19
ATOM     19  C   UNL     1      43.936 -41.746 103.791  1.00  0.00     0.119 A 
ATOM     20  C   UNL     1      44.447 -42.450 102.687  1.00  0.00     0.047 A 
ATOM     21  C   UNL     1      43.119 -40.632 103.586  1.00  0.00     0.050 A 
ATOM     22  C   UNL     1      44.155 -42.059 101.377  1.00  0.00     0.008 A 
ATOM     23  C   UNL     1      42.844 -40.242 102.282  1.00  0.00    -0.041 A 
ATOM     24  C   UNL     1      43.357 -40.944 101.184  1.00  0.00    -0.041 A 
ATOM     25  C   UNL     1      41.971 -39.112 101.836  1.00  0.00     0.036 C 
ATOM     26  C   UNL     1      42.865 -40.342  99.892  1.00  0.00     0.031 C 
ATOM     27  C   UNL     1      42.432 -38.940 100.384  1.00  0.00     0.014 C 
BRANCH  26  28
ATOM     28  C   UNL     1      43.911 -40.286  98.779  1.00  0.00     0.131 C 
BRANCH  28  29
ATOM     29  C   UNL     1      43.636 -41.297  97.701  1.00  0.00     0.303 C 
ATOM     30  O   UNL     1      42.652 -41.375  96.988  1.00  0.00    -0.252 OA
BRANCH  29  31
ATOM     31  O   UNL     1      44.632 -42.197  97.591  1.00  0.00    -0.481 OA
ATOM     32  H   UNL     1      45.258 -41.954  98.305  1.00  0.00     0.296 HD
ENDBRANCH  29  31
ENDBRANCH  28  29
ENDBRANCH  26  28
ENDBRANCH  18  19
ENDBRANCH   1  18
TORSDOF 10
ENDMDL
