MODEL 1
REMARK VINA RESULT:    -7.112      0.000      0.000
REMARK INTER + INTRA:         -10.092
REMARK INTER:                 -10.231
REMARK INTRA:                   0.139
REMARK UNBOUND:                 0.139
REMARK SMILES Cc1cc(CN2CCN(c3ccc(C(C)C)cc3)C2=O)cc(C)c1OC(C)(C)C(=O)O
REMARK SMILES IDX 1 1 2 2 3 3 4 4 21 5 22 6 23 7 24 8 25 9 26 10 27 11 28 12
REMARK SMILES IDX 29 13 30 14 31 15 5 17 6 18 7 19 19 20 8 21 9 22 20 23 10 24
REMARK SMILES IDX 11 25 18 26 12 27 17 28 13 29 14 30 15 31 16 32
REMARK H PARENT 31 16
ROOT
ATOM      1  C   UNL     1      10.089  11.745 -12.239  1.00  0.00     0.048 C 
ATOM      2  C   UNL     1      10.261  10.850 -11.046  1.00  0.00    -0.008 A 
ATOM      3  C   UNL     1      10.345  11.442  -9.776  1.00  0.00     0.012 A 
ATOM      4  C   UNL     1      10.466  10.664  -8.619  1.00  0.00    -0.028 A 
ATOM      5  C   UNL     1      10.482   9.269  -8.743  1.00  0.00     0.012 A 
ATOM      6  C   UNL     1      10.403   8.651 -10.002  1.00  0.00    -0.008 A 
ATOM      7  C   UNL     1      10.406   7.153 -10.066  1.00  0.00     0.048 C 
ATOM      8  C   UNL     1      10.363   9.455 -11.153  1.00  0.00     0.126 A 
ENDROOT
BRANCH   8   9
ATOM      9  O   UNL     1      10.322   8.853 -12.385  1.00  0.00    -0.476 OA
BRANCH   9  10
ATOM     10  C   UNL     1      11.581   8.751 -13.071  1.00  0.00     0.200 C 
ATOM     11  C   UNL     1      12.460   9.894 -12.526  1.00  0.00     0.069 C 
ATOM     12  C   UNL     1      11.322   9.079 -14.554  1.00  0.00     0.069 C 
BRANCH  10  13
ATOM     13  C   UNL     1      12.408   7.439 -12.996  1.00  0.00     0.347 C 
ATOM     14  O   UNL     1      11.968   6.299 -12.987  1.00  0.00    -0.248 OA
BRANCH  13  15
ATOM     15  O   UNL     1      13.744   7.633 -12.943  1.00  0.00    -0.478 OA
ATOM     16  H   UNL     1      13.963   7.978 -13.834  1.00  0.00     0.296 HD
ENDBRANCH  13  15
ENDBRANCH  10  13
ENDBRANCH   9  10
ENDBRANCH   8   9
BRANCH   4  17
ATOM     17  C   UNL     1      10.543  11.323  -7.264  1.00  0.00     0.157 C 
BRANCH  17  18
ATOM     18  N   UNL     1      11.366  12.514  -7.276  1.00  0.00    -0.318 N 
ATOM     19  C   UNL     1      10.852  13.832  -7.014  1.00  0.00     0.144 C 
ATOM     20  C   UNL     1      12.760  12.503  -7.355  1.00  0.00     0.324 C 
ATOM     21  C   UNL     1      12.062  14.735  -7.179  1.00  0.00     0.149 C 
ATOM     22  N   UNL     1      13.200  13.841  -7.253  1.00  0.00    -0.293 N 
ATOM     23  O   UNL     1      13.422  11.486  -7.484  1.00  0.00    -0.248 OA
BRANCH  22  24
ATOM     24  C   UNL     1      14.542  14.305  -7.274  1.00  0.00     0.045 A 
ATOM     25  C   UNL     1      15.420  13.990  -8.315  1.00  0.00     0.027 A 
ATOM     26  C   UNL     1      15.040  15.101  -6.231  1.00  0.00     0.027 A 
ATOM     27  C   UNL     1      16.746  14.449  -8.317  1.00  0.00     0.006 A 
ATOM     28  C   UNL     1      16.364  15.558  -6.229  1.00  0.00     0.006 A 
ATOM     29  C   UNL     1      17.237  15.235  -7.272  1.00  0.00    -0.045 A 
BRANCH  29  30
ATOM     30  C   UNL     1      18.666  15.744  -7.253  1.00  0.00     0.013 C 
ATOM     31  C   UNL     1      19.360  15.505  -8.597  1.00  0.00     0.012 C 
ATOM     32  C   UNL     1      19.473  15.131  -6.106  1.00  0.00     0.012 C 
ENDBRANCH  29  30
ENDBRANCH  22  24
ENDBRANCH  17  18
ENDBRANCH   4  17
TORSDOF 8
ENDMDL
MODEL 2
REMARK VINA RESULT:    -7.006      5.711      9.431
REMARK INTER + INTRA:          -9.939
REMARK INTER:                 -10.075
REMARK INTRA:                   0.136
REMARK UNBOUND:                 0.139
REMARK SMILES Cc1cc(CN2CCN(c3ccc(C(C)C)cc3)C2=O)cc(C)c1OC(C)(C)C(=O)O
REMARK SMILES IDX 1 1 2 2 3 3 4 4 21 5 22 6 23 7 24 8 25 9 26 10 27 11 28 12
REMARK SMILES IDX 29 13 30 14 31 15 5 17 6 18 7 19 19 20 8 21 9 22 20 23 10 24
REMARK SMILES IDX 11 25 18 26 12 27 17 28 13 29 14 30 15 31 16 32
REMARK H PARENT 31 16
ROOT
ATOM      1  C   UNL     1      10.121  10.559 -10.607  1.00  0.00     0.048 C 
ATOM      2  C   UNL     1      10.274   9.092 -10.889  1.00  0.00    -0.008 A 
ATOM      3  C   UNL     1      10.560   8.234  -9.816  1.00  0.00     0.012 A 
ATOM      4  C   UNL     1      10.675   6.852 -10.003  1.00  0.00    -0.028 A 
ATOM      5  C   UNL     1      10.479   6.326 -11.285  1.00  0.00     0.012 A 
ATOM      6  C   UNL     1      10.195   7.163 -12.377  1.00  0.00    -0.008 A 
ATOM      7  C   UNL     1       9.978   6.536 -13.723  1.00  0.00     0.048 C 
ATOM      8  C   UNL     1      10.163   8.553 -12.180  1.00  0.00     0.126 A 
ENDROOT
BRANCH   8   9
ATOM      9  O   UNL     1       9.922   9.373 -13.251  1.00  0.00    -0.476 OA
BRANCH   9  10
ATOM     10  C   UNL     1      11.087   9.928 -13.887  1.00  0.00     0.200 C 
ATOM     11  C   UNL     1      10.887  11.456 -13.889  1.00  0.00     0.069 C 
ATOM     12  C   UNL     1      11.055   9.489 -15.364  1.00  0.00     0.069 C 
BRANCH  10  13
ATOM     13  C   UNL     1      12.501   9.635 -13.319  1.00  0.00     0.347 C 
ATOM     14  O   UNL     1      13.171   8.632 -13.512  1.00  0.00    -0.248 OA
BRANCH  13  15
ATOM     15  O   UNL     1      12.999  10.623 -12.545  1.00  0.00    -0.478 OA
ATOM     16  H   UNL     1      12.750  10.354 -11.636  1.00  0.00     0.296 HD
ENDBRANCH  13  15
ENDBRANCH  10  13
ENDBRANCH   9  10
ENDBRANCH   8   9
BRANCH   4  17
ATOM     17  C   UNL     1      10.971   5.948  -8.831  1.00  0.00     0.157 C 
BRANCH  17  18
ATOM     18  N   UNL     1       9.767   5.481  -8.176  1.00  0.00    -0.318 N 
ATOM     19  C   UNL     1       9.513   4.094  -7.889  1.00  0.00     0.144 C 
ATOM     20  C   UNL     1       8.819   6.320  -7.589  1.00  0.00     0.324 C 
ATOM     21  C   UNL     1       8.135   4.102  -7.248  1.00  0.00     0.149 C 
ATOM     22  N   UNL     1       7.844   5.496  -6.983  1.00  0.00    -0.293 N 
ATOM     23  O   UNL     1       8.879   7.538  -7.623  1.00  0.00    -0.248 OA
BRANCH  22  24
ATOM     24  C   UNL     1       6.696   5.918  -6.260  1.00  0.00     0.045 A 
ATOM     25  C   UNL     1       6.168   7.205  -6.392  1.00  0.00     0.027 A 
ATOM     26  C   UNL     1       6.050   5.045  -5.373  1.00  0.00     0.027 A 
ATOM     27  C   UNL     1       5.039   7.610  -5.665  1.00  0.00     0.006 A 
ATOM     28  C   UNL     1       4.923   5.447  -4.643  1.00  0.00     0.006 A 
ATOM     29  C   UNL     1       4.403   6.738  -4.777  1.00  0.00    -0.045 A 
BRANCH  29  30
ATOM     30  C   UNL     1       3.180   7.152  -3.981  1.00  0.00     0.013 C 
ATOM     31  C   UNL     1       3.457   8.407  -3.149  1.00  0.00     0.012 C 
ATOM     32  C   UNL     1       2.665   6.013  -3.097  1.00  0.00     0.012 C 
ENDBRANCH  29  30
ENDBRANCH  22  24
ENDBRANCH  17  18
ENDBRANCH   4  17
TORSDOF 8
ENDMDL
MODEL 3
REMARK VINA RESULT:    -6.975      0.673      2.059
REMARK INTER + INTRA:          -9.894
REMARK INTER:                  -9.506
REMARK INTRA:                  -0.388
REMARK UNBOUND:                 0.139
REMARK SMILES Cc1cc(CN2CCN(c3ccc(C(C)C)cc3)C2=O)cc(C)c1OC(C)(C)C(=O)O
REMARK SMILES IDX 1 1 2 2 3 3 4 4 21 5 22 6 23 7 24 8 25 9 26 10 27 11 28 12
REMARK SMILES IDX 29 13 30 14 31 15 5 17 6 18 7 19 19 20 8 21 9 22 20 23 10 24
REMARK SMILES IDX 11 25 18 26 12 27 17 28 13 29 14 30 15 31 16 32
REMARK H PARENT 31 16
ROOT
ATOM      1  C   UNL     1      10.126   7.095 -10.593  1.00  0.00     0.048 C 
ATOM      2  C   UNL     1      10.223   8.580 -10.393  1.00  0.00    -0.008 A 
ATOM      3  C   UNL     1      10.435   9.066  -9.093  1.00  0.00     0.012 A 
ATOM      4  C   UNL     1      10.574  10.436  -8.844  1.00  0.00    -0.028 A 
ATOM      5  C   UNL     1      10.518  11.327  -9.923  1.00  0.00     0.012 A 
ATOM      6  C   UNL     1      10.302  10.868 -11.233  1.00  0.00    -0.008 A 
ATOM      7  C   UNL     1      10.272  11.872 -12.348  1.00  0.00     0.048 C 
ATOM      8  C   UNL     1      10.087   9.497 -11.448  1.00  0.00     0.126 A 
ENDROOT
BRANCH   8   9
ATOM      9  O   UNL     1       9.842   9.052 -12.721  1.00  0.00    -0.476 OA
BRANCH   9  10
ATOM     10  C   UNL     1      10.993   8.603 -13.456  1.00  0.00     0.200 C 
ATOM     11  C   UNL     1      10.889   9.249 -14.851  1.00  0.00     0.069 C 
ATOM     12  C   UNL     1      10.834   7.085 -13.673  1.00  0.00     0.069 C 
BRANCH  10  13
ATOM     13  C   UNL     1      12.422   8.872 -12.913  1.00  0.00     0.347 C 
ATOM     14  O   UNL     1      13.040   9.924 -12.977  1.00  0.00    -0.248 OA
BRANCH  13  15
ATOM     15  O   UNL     1      12.993   7.805 -12.313  1.00  0.00    -0.478 OA
ATOM     16  H   UNL     1      13.819   8.169 -11.931  1.00  0.00     0.296 HD
ENDBRANCH  13  15
ENDBRANCH  10  13
ENDBRANCH   9  10
ENDBRANCH   8   9
BRANCH   4  17
ATOM     17  C   UNL     1      10.812  10.932  -7.440  1.00  0.00     0.157 C 
BRANCH  17  18
ATOM     18  N   UNL     1      11.553  12.177  -7.413  1.00  0.00    -0.318 N 
ATOM     19  C   UNL     1      10.945  13.452  -7.143  1.00  0.00     0.144 C 
ATOM     20  C   UNL     1      12.946  12.260  -7.457  1.00  0.00     0.324 C 
ATOM     21  C   UNL     1      12.095  14.437  -7.264  1.00  0.00     0.149 C 
ATOM     22  N   UNL     1      13.292  13.623  -7.323  1.00  0.00    -0.293 N 
ATOM     23  O   UNL     1      13.678  11.292  -7.585  1.00  0.00    -0.248 OA
BRANCH  22  24
ATOM     24  C   UNL     1      14.600  14.176  -7.303  1.00  0.00     0.045 A 
ATOM     25  C   UNL     1      15.053  14.975  -6.250  1.00  0.00     0.027 A 
ATOM     26  C   UNL     1      15.492  13.941  -8.360  1.00  0.00     0.027 A 
ATOM     27  C   UNL     1      16.345  15.521  -6.249  1.00  0.00     0.006 A 
ATOM     28  C   UNL     1      16.782  14.486  -8.364  1.00  0.00     0.006 A 
ATOM     29  C   UNL     1      17.226  15.288  -7.308  1.00  0.00    -0.045 A 
BRANCH  29  30
ATOM     30  C   UNL     1      18.628  15.866  -7.328  1.00  0.00     0.013 C 
ATOM     31  C   UNL     1      19.319  15.603  -8.669  1.00  0.00     0.012 C 
ATOM     32  C   UNL     1      19.476  15.343  -6.166  1.00  0.00     0.012 C 
ENDBRANCH  29  30
ENDBRANCH  22  24
ENDBRANCH  17  18
ENDBRANCH   4  17
TORSDOF 8
ENDMDL
MODEL 4
REMARK VINA RESULT:    -6.869      5.665      9.294
REMARK INTER + INTRA:          -9.742
REMARK INTER:                 -10.332
REMARK INTRA:                   0.589
REMARK UNBOUND:                 0.139
REMARK SMILES Cc1cc(CN2CCN(c3ccc(C(C)C)cc3)C2=O)cc(C)c1OC(C)(C)C(=O)O
REMARK SMILES IDX 1 1 2 2 3 3 4 4 21 5 22 6 23 7 24 8 25 9 26 10 27 11 28 12
REMARK SMILES IDX 29 13 30 14 31 15 5 17 6 18 7 19 19 20 8 21 9 22 20 23 10 24
REMARK SMILES IDX 11 25 18 26 12 27 17 28 13 29 14 30 15 31 16 32
REMARK H PARENT 31 16
ROOT
ATOM      1  C   UNL     1       6.380  10.181  -1.212  1.00  0.00     0.048 C 
ATOM      2  C   UNL     1       6.678  10.200  -2.684  1.00  0.00    -0.008 A 
ATOM      3  C   UNL     1       7.951  10.617  -3.101  1.00  0.00     0.012 A 
ATOM      4  C   UNL     1       8.307  10.621  -4.455  1.00  0.00    -0.028 A 
ATOM      5  C   UNL     1       7.372  10.179  -5.399  1.00  0.00     0.012 A 
ATOM      6  C   UNL     1       6.089   9.760  -5.008  1.00  0.00    -0.008 A 
ATOM      7  C   UNL     1       5.139   9.280  -6.066  1.00  0.00     0.048 C 
ATOM      8  C   UNL     1       5.729   9.840  -3.653  1.00  0.00     0.126 A 
ENDROOT
BRANCH   8   9
ATOM      9  O   UNL     1       4.466   9.465  -3.276  1.00  0.00    -0.476 OA
BRANCH   9  10
ATOM     10  C   UNL     1       4.318   8.092  -2.873  1.00  0.00     0.200 C 
ATOM     11  C   UNL     1       5.634   7.389  -3.256  1.00  0.00     0.069 C 
ATOM     12  C   UNL     1       3.224   7.470  -3.762  1.00  0.00     0.069 C 
BRANCH  10  13
ATOM     13  C   UNL     1       4.005   7.741  -1.393  1.00  0.00     0.347 C 
ATOM     14  O   UNL     1       4.351   6.735  -0.793  1.00  0.00    -0.248 OA
BRANCH  13  15
ATOM     15  O   UNL     1       3.278   8.679  -0.747  1.00  0.00    -0.478 OA
ATOM     16  H   UNL     1       2.443   8.215  -0.529  1.00  0.00     0.296 HD
ENDBRANCH  13  15
ENDBRANCH  10  13
ENDBRANCH   9  10
ENDBRANCH   8   9
BRANCH   4  17
ATOM     17  C   UNL     1       9.686  11.063  -4.877  1.00  0.00     0.157 C 
BRANCH  17  18
ATOM     18  N   UNL     1       9.756  11.377  -6.289  1.00  0.00    -0.318 N 
ATOM     19  C   UNL     1       9.713  12.720  -6.802  1.00  0.00     0.144 C 
ATOM     20  C   UNL     1      10.058  10.446  -7.285  1.00  0.00     0.324 C 
ATOM     21  C   UNL     1       9.776  12.537  -8.309  1.00  0.00     0.149 C 
ATOM     22  N   UNL     1      10.117  11.144  -8.512  1.00  0.00    -0.293 N 
ATOM     23  O   UNL     1      10.233   9.258  -7.069  1.00  0.00    -0.248 OA
BRANCH  22  24
ATOM     24  C   UNL     1      10.404  10.600  -9.792  1.00  0.00     0.045 A 
ATOM     25  C   UNL     1      10.879  11.389 -10.843  1.00  0.00     0.027 A 
ATOM     26  C   UNL     1      10.211   9.235 -10.049  1.00  0.00     0.027 A 
ATOM     27  C   UNL     1      11.150  10.840 -12.105  1.00  0.00     0.006 A 
ATOM     28  C   UNL     1      10.478   8.683 -11.309  1.00  0.00     0.006 A 
ATOM     29  C   UNL     1      10.950   9.480 -12.357  1.00  0.00    -0.045 A 
BRANCH  29  30
ATOM     30  C   UNL     1      11.237   8.863 -13.712  1.00  0.00     0.013 C 
ATOM     31  C   UNL     1      12.534   8.049 -13.689  1.00  0.00     0.012 C 
ATOM     32  C   UNL     1      11.275   9.918 -14.821  1.00  0.00     0.012 C 
ENDBRANCH  29  30
ENDBRANCH  22  24
ENDBRANCH  17  18
ENDBRANCH   4  17
TORSDOF 8
ENDMDL
MODEL 5
REMARK VINA RESULT:    -6.818      5.645      9.316
REMARK INTER + INTRA:          -9.668
REMARK INTER:                  -9.803
REMARK INTRA:                   0.135
REMARK UNBOUND:                 0.139
REMARK SMILES Cc1cc(CN2CCN(c3ccc(C(C)C)cc3)C2=O)cc(C)c1OC(C)(C)C(=O)O
REMARK SMILES IDX 1 1 2 2 3 3 4 4 21 5 22 6 23 7 24 8 25 9 26 10 27 11 28 12
REMARK SMILES IDX 29 13 30 14 31 15 5 17 6 18 7 19 19 20 8 21 9 22 20 23 10 24
REMARK SMILES IDX 11 25 18 26 12 27 17 28 13 29 14 30 15 31 16 32
REMARK H PARENT 31 16
ROOT
ATOM      1  C   UNL     1       5.097   9.494  -6.056  1.00  0.00     0.048 C 
ATOM      2  C   UNL     1       6.098   9.847  -4.993  1.00  0.00    -0.008 A 
ATOM      3  C   UNL     1       7.392  10.219  -5.393  1.00  0.00     0.012 A 
ATOM      4  C   UNL     1       8.360  10.597  -4.457  1.00  0.00    -0.028 A 
ATOM      5  C   UNL     1       8.014  10.621  -3.101  1.00  0.00     0.012 A 
ATOM      6  C   UNL     1       6.728  10.250  -2.673  1.00  0.00    -0.008 A 
ATOM      7  C   UNL     1       6.414  10.315  -1.207  1.00  0.00     0.048 C 
ATOM      8  C   UNL     1       5.798   9.798  -3.623  1.00  0.00     0.126 A 
ENDROOT
BRANCH   8   9
ATOM      9  O   UNL     1       4.555   9.403  -3.204  1.00  0.00    -0.476 OA
BRANCH   9  10
ATOM     10  C   UNL     1       4.433   8.019  -2.831  1.00  0.00     0.200 C 
ATOM     11  C   UNL     1       5.765   7.351  -3.225  1.00  0.00     0.069 C 
ATOM     12  C   UNL     1       3.355   7.394  -3.739  1.00  0.00     0.069 C 
BRANCH  10  13
ATOM     13  C   UNL     1       4.123   7.629  -1.362  1.00  0.00     0.347 C 
ATOM     14  O   UNL     1       4.446   6.594  -0.797  1.00  0.00    -0.248 OA
BRANCH  13  15
ATOM     15  O   UNL     1       3.429   8.565  -0.679  1.00  0.00    -0.478 OA
ATOM     16  H   UNL     1       2.524   8.192  -0.630  1.00  0.00     0.296 HD
ENDBRANCH  13  15
ENDBRANCH  10  13
ENDBRANCH   9  10
ENDBRANCH   8   9
BRANCH   4  17
ATOM     17  C   UNL     1       9.740  11.004  -4.913  1.00  0.00     0.157 C 
BRANCH  17  18
ATOM     18  N   UNL     1       9.775  11.359  -6.316  1.00  0.00    -0.318 N 
ATOM     19  C   UNL     1       9.797  12.718  -6.786  1.00  0.00     0.144 C 
ATOM     20  C   UNL     1       9.978  10.444  -7.351  1.00  0.00     0.324 C 
ATOM     21  C   UNL     1       9.789  12.581  -8.299  1.00  0.00     0.149 C 
ATOM     22  N   UNL     1      10.033  11.177  -8.558  1.00  0.00    -0.293 N 
ATOM     23  O   UNL     1      10.085   9.241  -7.179  1.00  0.00    -0.248 OA
BRANCH  22  24
ATOM     24  C   UNL     1      10.236  10.659  -9.865  1.00  0.00     0.045 A 
ATOM     25  C   UNL     1      10.634  11.470 -10.931  1.00  0.00     0.027 A 
ATOM     26  C   UNL     1      10.033   9.297 -10.134  1.00  0.00     0.027 A 
ATOM     27  C   UNL     1      10.821  10.946 -12.218  1.00  0.00     0.006 A 
ATOM     28  C   UNL     1      10.217   8.770 -11.419  1.00  0.00     0.006 A 
ATOM     29  C   UNL     1      10.611   9.590 -12.481  1.00  0.00    -0.045 A 
BRANCH  29  30
ATOM     30  C   UNL     1      10.809   8.999 -13.864  1.00  0.00     0.013 C 
ATOM     31  C   UNL     1      11.559   7.666 -13.798  1.00  0.00     0.012 C 
ATOM     32  C   UNL     1      11.518   9.978 -14.804  1.00  0.00     0.012 C 
ENDBRANCH  29  30
ENDBRANCH  22  24
ENDBRANCH  17  18
ENDBRANCH   4  17
TORSDOF 8
ENDMDL
MODEL 6
REMARK VINA RESULT:    -6.786      5.744      9.439
REMARK INTER + INTRA:          -9.623
REMARK INTER:                 -10.290
REMARK INTRA:                   0.667
REMARK UNBOUND:                 0.139
REMARK SMILES Cc1cc(CN2CCN(c3ccc(C(C)C)cc3)C2=O)cc(C)c1OC(C)(C)C(=O)O
REMARK SMILES IDX 1 1 2 2 3 3 4 4 21 5 22 6 23 7 24 8 25 9 26 10 27 11 28 12
REMARK SMILES IDX 29 13 30 14 31 15 5 17 6 18 7 19 19 20 8 21 9 22 20 23 10 24
REMARK SMILES IDX 11 25 18 26 12 27 17 28 13 29 14 30 15 31 16 32
REMARK H PARENT 31 16
ROOT
ATOM      1  C   UNL     1      10.514   6.511 -13.834  1.00  0.00     0.048 C 
ATOM      2  C   UNL     1      10.487   7.113 -12.459  1.00  0.00    -0.008 A 
ATOM      3  C   UNL     1      10.723   6.274 -11.359  1.00  0.00     0.012 A 
ATOM      4  C   UNL     1      10.752   6.779 -10.054  1.00  0.00    -0.028 A 
ATOM      5  C   UNL     1      10.558   8.152  -9.857  1.00  0.00     0.012 A 
ATOM      6  C   UNL     1      10.316   9.013 -10.940  1.00  0.00    -0.008 A 
ATOM      7  C   UNL     1      10.135  10.477 -10.666  1.00  0.00     0.048 C 
ATOM      8  C   UNL     1      10.213   8.471 -12.232  1.00  0.00     0.126 A 
ENDROOT
BRANCH   8   9
ATOM      9  O   UNL     1       9.942   9.305 -13.286  1.00  0.00    -0.476 OA
BRANCH   9  10
ATOM     10  C   UNL     1      11.085   9.921 -13.903  1.00  0.00     0.200 C 
ATOM     11  C   UNL     1      10.817  11.438 -13.883  1.00  0.00     0.069 C 
ATOM     12  C   UNL     1      11.082   9.505 -15.388  1.00  0.00     0.069 C 
BRANCH  10  13
ATOM     13  C   UNL     1      12.507   9.682 -13.330  1.00  0.00     0.347 C 
ATOM     14  O   UNL     1      13.231   8.723 -13.550  1.00  0.00    -0.248 OA
BRANCH  13  15
ATOM     15  O   UNL     1      12.945  10.667 -12.516  1.00  0.00    -0.478 OA
ATOM     16  H   UNL     1      12.334  11.410 -12.701  1.00  0.00     0.296 HD
ENDBRANCH  13  15
ENDBRANCH  10  13
ENDBRANCH   9  10
ENDBRANCH   8   9
BRANCH   4  17
ATOM     17  C   UNL     1      11.019   5.859  -8.889  1.00  0.00     0.157 C 
BRANCH  17  18
ATOM     18  N   UNL     1       9.801   5.428  -8.234  1.00  0.00    -0.318 N 
ATOM     19  C   UNL     1       9.494   4.048  -7.966  1.00  0.00     0.144 C 
ATOM     20  C   UNL     1       8.888   6.294  -7.631  1.00  0.00     0.324 C 
ATOM     21  C   UNL     1       8.121   4.100  -7.319  1.00  0.00     0.149 C 
ATOM     22  N   UNL     1       7.885   5.500  -7.032  1.00  0.00    -0.293 N 
ATOM     23  O   UNL     1       8.995   7.509  -7.647  1.00  0.00    -0.248 OA
BRANCH  22  24
ATOM     24  C   UNL     1       6.758   5.955  -6.297  1.00  0.00     0.045 A 
ATOM     25  C   UNL     1       6.254   7.251  -6.438  1.00  0.00     0.027 A 
ATOM     26  C   UNL     1       6.108   5.107  -5.387  1.00  0.00     0.027 A 
ATOM     27  C   UNL     1       5.145   7.688  -5.699  1.00  0.00     0.006 A 
ATOM     28  C   UNL     1       5.001   5.542  -4.646  1.00  0.00     0.006 A 
ATOM     29  C   UNL     1       4.506   6.841  -4.790  1.00  0.00    -0.045 A 
BRANCH  29  30
ATOM     30  C   UNL     1       3.304   7.291  -3.980  1.00  0.00     0.013 C 
ATOM     31  C   UNL     1       3.651   8.483  -3.085  1.00  0.00     0.012 C 
ATOM     32  C   UNL     1       2.712   6.144  -3.157  1.00  0.00     0.012 C 
ENDBRANCH  29  30
ENDBRANCH  22  24
ENDBRANCH  17  18
ENDBRANCH   4  17
TORSDOF 8
ENDMDL
MODEL 7
REMARK VINA RESULT:    -6.057      4.091      7.866
REMARK INTER + INTRA:          -8.574
REMARK INTER:                 -11.012
REMARK INTRA:                   2.437
REMARK UNBOUND:                 0.139
REMARK SMILES Cc1cc(CN2CCN(c3ccc(C(C)C)cc3)C2=O)cc(C)c1OC(C)(C)C(=O)O
REMARK SMILES IDX 1 1 2 2 3 3 4 4 21 5 22 6 23 7 24 8 25 9 26 10 27 11 28 12
REMARK SMILES IDX 29 13 30 14 31 15 5 17 6 18 7 19 19 20 8 21 9 22 20 23 10 24
REMARK SMILES IDX 11 25 18 26 12 27 17 28 13 29 14 30 15 31 16 32
REMARK H PARENT 31 16
ROOT
ATOM      1  C   UNL     1       9.884  10.970 -12.508  1.00  0.00     0.048 C 
ATOM      2  C   UNL     1      10.238  10.414 -11.158  1.00  0.00    -0.008 A 
ATOM      3  C   UNL     1      10.522  11.315 -10.120  1.00  0.00     0.012 A 
ATOM      4  C   UNL     1      10.820  10.864  -8.829  1.00  0.00    -0.028 A 
ATOM      5  C   UNL     1      10.811   9.486  -8.577  1.00  0.00     0.012 A 
ATOM      6  C   UNL     1      10.534   8.563  -9.599  1.00  0.00    -0.008 A 
ATOM      7  C   UNL     1      10.522   7.102  -9.260  1.00  0.00     0.048 C 
ATOM      8  C   UNL     1      10.317   9.036 -10.903  1.00  0.00     0.126 A 
ENDROOT
BRANCH   8   9
ATOM      9  O   UNL     1      10.081   8.134 -11.909  1.00  0.00    -0.476 OA
BRANCH   9  10
ATOM     10  C   UNL     1      11.211   7.820 -12.741  1.00  0.00     0.200 C 
ATOM     11  C   UNL     1      10.685   6.873 -13.838  1.00  0.00     0.069 C 
ATOM     12  C   UNL     1      12.189   6.987 -11.889  1.00  0.00     0.069 C 
BRANCH  10  13
ATOM     13  C   UNL     1      12.010   8.954 -13.437  1.00  0.00     0.347 C 
ATOM     14  O   UNL     1      13.027   9.489 -13.023  1.00  0.00    -0.248 OA
BRANCH  13  15
ATOM     15  O   UNL     1      11.489   9.349 -14.618  1.00  0.00    -0.478 OA
ATOM     16  H   UNL     1      11.594  10.324 -14.604  1.00  0.00     0.296 HD
ENDBRANCH  13  15
ENDBRANCH  10  13
ENDBRANCH   9  10
ENDBRANCH   8   9
BRANCH   4  17
ATOM     17  C   UNL     1      11.110  11.852  -7.727  1.00  0.00     0.157 C 
BRANCH  17  18
ATOM     18  N   UNL     1      10.412  11.531  -6.499  1.00  0.00    -0.318 N 
ATOM     19  C   UNL     1      10.832  12.001  -5.206  1.00  0.00     0.144 C 
ATOM     20  C   UNL     1       9.169  10.898  -6.448  1.00  0.00     0.324 C 
ATOM     21  C   UNL     1       9.829  11.379  -4.249  1.00  0.00     0.149 C 
ATOM     22  N   UNL     1       8.781  10.838  -5.091  1.00  0.00    -0.293 N 
ATOM     23  O   UNL     1       8.573  10.496  -7.434  1.00  0.00    -0.248 OA
BRANCH  22  24
ATOM     24  C   UNL     1       7.581  10.287  -4.567  1.00  0.00     0.045 A 
ATOM     25  C   UNL     1       7.314  10.260  -3.196  1.00  0.00     0.027 A 
ATOM     26  C   UNL     1       6.614   9.738  -5.422  1.00  0.00     0.027 A 
ATOM     27  C   UNL     1       6.128   9.705  -2.693  1.00  0.00     0.006 A 
ATOM     28  C   UNL     1       5.430   9.180  -4.923  1.00  0.00     0.006 A 
ATOM     29  C   UNL     1       5.172   9.154  -3.549  1.00  0.00    -0.045 A 
BRANCH  29  30
ATOM     30  C   UNL     1       3.881   8.549  -3.029  1.00  0.00     0.013 C 
ATOM     31  C   UNL     1       4.009   8.146  -1.557  1.00  0.00     0.012 C 
ATOM     32  C   UNL     1       3.426   7.362  -3.882  1.00  0.00     0.012 C 
ENDBRANCH  29  30
ENDBRANCH  22  24
ENDBRANCH  17  18
ENDBRANCH   4  17
TORSDOF 8
ENDMDL
MODEL 8
REMARK VINA RESULT:    -5.760      3.914      6.378
REMARK INTER + INTRA:          -8.146
REMARK INTER:                  -8.000
REMARK INTRA:                  -0.146
REMARK UNBOUND:                 0.139
REMARK SMILES Cc1cc(CN2CCN(c3ccc(C(C)C)cc3)C2=O)cc(C)c1OC(C)(C)C(=O)O
REMARK SMILES IDX 1 1 2 2 3 3 4 4 21 5 22 6 23 7 24 8 25 9 26 10 27 11 28 12
REMARK SMILES IDX 29 13 30 14 31 15 5 17 6 18 7 19 19 20 8 21 9 22 20 23 10 24
REMARK SMILES IDX 11 25 18 26 12 27 17 28 13 29 14 30 15 31 16 32
REMARK H PARENT 31 16
ROOT
ATOM      1  C   UNL     1      10.767  15.176  -7.996  1.00  0.00     0.048 C 
ATOM      2  C   UNL     1      11.026  14.572  -6.646  1.00  0.00    -0.008 A 
ATOM      3  C   UNL     1      11.836  15.280  -5.744  1.00  0.00     0.012 A 
ATOM      4  C   UNL     1      12.085  14.793  -4.455  1.00  0.00    -0.028 A 
ATOM      5  C   UNL     1      11.493  13.586  -4.065  1.00  0.00     0.012 A 
ATOM      6  C   UNL     1      10.683  12.855  -4.949  1.00  0.00    -0.008 A 
ATOM      7  C   UNL     1      10.063  11.578  -4.464  1.00  0.00     0.048 C 
ATOM      8  C   UNL     1      10.512  13.324  -6.262  1.00  0.00     0.126 A 
ENDROOT
BRANCH   8   9
ATOM      9  O   UNL     1       9.749  12.594  -7.137  1.00  0.00    -0.476 OA
BRANCH   9  10
ATOM     10  C   UNL     1      10.431  11.526  -7.817  1.00  0.00     0.200 C 
ATOM     11  C   UNL     1      11.903  11.604  -7.369  1.00  0.00     0.069 C 
ATOM     12  C   UNL     1      10.422  11.862  -9.321  1.00  0.00     0.069 C 
BRANCH  10  13
ATOM     13  C   UNL     1       9.958  10.059  -7.640  1.00  0.00     0.347 C 
ATOM     14  O   UNL     1       8.875   9.688  -7.213  1.00  0.00    -0.248 OA
BRANCH  13  15
ATOM     15  O   UNL     1      10.871   9.137  -8.015  1.00  0.00    -0.478 OA
ATOM     16  H   UNL     1      11.632   9.674  -8.317  1.00  0.00     0.296 HD
ENDBRANCH  13  15
ENDBRANCH  10  13
ENDBRANCH   9  10
ENDBRANCH   8   9
BRANCH   4  17
ATOM     17  C   UNL     1      12.949  15.578  -3.500  1.00  0.00     0.157 C 
BRANCH  17  18
ATOM     18  N   UNL     1      14.361  15.321  -3.694  1.00  0.00    -0.318 N 
ATOM     19  C   UNL     1      15.066  15.658  -4.901  1.00  0.00     0.144 C 
ATOM     20  C   UNL     1      15.226  14.896  -2.684  1.00  0.00     0.324 C 
ATOM     21  C   UNL     1      16.481  15.166  -4.646  1.00  0.00     0.149 C 
ATOM     22  N   UNL     1      16.525  14.840  -3.236  1.00  0.00    -0.293 N 
ATOM     23  O   UNL     1      14.864  14.641  -1.547  1.00  0.00    -0.248 OA
BRANCH  22  24
ATOM     24  C   UNL     1      17.723  14.468  -2.569  1.00  0.00     0.045 A 
ATOM     25  C   UNL     1      18.263  15.233  -1.532  1.00  0.00     0.027 A 
ATOM     26  C   UNL     1      18.417  13.307  -2.941  1.00  0.00     0.027 A 
ATOM     27  C   UNL     1      19.452  14.858  -0.889  1.00  0.00     0.006 A 
ATOM     28  C   UNL     1      19.606  12.930  -2.302  1.00  0.00     0.006 A 
ATOM     29  C   UNL     1      20.141  13.704  -1.268  1.00  0.00    -0.045 A 
BRANCH  29  30
ATOM     30  C   UNL     1      21.428  13.276  -0.587  1.00  0.00     0.013 C 
ATOM     31  C   UNL     1      21.745  11.805  -0.868  1.00  0.00     0.012 C 
ATOM     32  C   UNL     1      21.391  13.548   0.920  1.00  0.00     0.012 C 
ENDBRANCH  29  30
ENDBRANCH  22  24
ENDBRANCH  17  18
ENDBRANCH   4  17
TORSDOF 8
ENDMDL
MODEL 9
REMARK VINA RESULT:    -5.737      4.271      9.874
REMARK INTER + INTRA:          -8.114
REMARK INTER:                  -7.698
REMARK INTRA:                  -0.416
REMARK UNBOUND:                 0.139
REMARK SMILES Cc1cc(CN2CCN(c3ccc(C(C)C)cc3)C2=O)cc(C)c1OC(C)(C)C(=O)O
REMARK SMILES IDX 1 1 2 2 3 3 4 4 21 5 22 6 23 7 24 8 25 9 26 10 27 11 28 12
REMARK SMILES IDX 29 13 30 14 31 15 5 17 6 18 7 19 19 20 8 21 9 22 20 23 10 24
REMARK SMILES IDX 11 25 18 26 12 27 17 28 13 29 14 30 15 31 16 32
REMARK H PARENT 31 16
ROOT
ATOM      1  C   UNL     1      13.430  12.456  -7.973  1.00  0.00     0.048 C 
ATOM      2  C   UNL     1      12.097  11.837  -7.669  1.00  0.00    -0.008 A 
ATOM      3  C   UNL     1      11.519  10.992  -8.629  1.00  0.00     0.012 A 
ATOM      4  C   UNL     1      10.297  10.352  -8.392  1.00  0.00    -0.028 A 
ATOM      5  C   UNL     1       9.659  10.552  -7.162  1.00  0.00     0.012 A 
ATOM      6  C   UNL     1      10.213  11.396  -6.186  1.00  0.00    -0.008 A 
ATOM      7  C   UNL     1       9.489  11.554  -4.881  1.00  0.00     0.048 C 
ATOM      8  C   UNL     1      11.399  12.089  -6.477  1.00  0.00     0.126 A 
ENDROOT
BRANCH   8   9
ATOM      9  O   UNL     1      11.922  12.940  -5.539  1.00  0.00    -0.476 OA
BRANCH   9  10
ATOM     10  C   UNL     1      11.601  14.331  -5.710  1.00  0.00     0.200 C 
ATOM     11  C   UNL     1      12.944  15.086  -5.698  1.00  0.00     0.069 C 
ATOM     12  C   UNL     1      10.842  14.784  -4.447  1.00  0.00     0.069 C 
BRANCH  10  13
ATOM     13  C   UNL     1      10.802  14.801  -6.955  1.00  0.00     0.347 C 
ATOM     14  O   UNL     1       9.617  14.607  -7.178  1.00  0.00    -0.248 OA
BRANCH  13  15
ATOM     15  O   UNL     1      11.538  15.497  -7.850  1.00  0.00    -0.478 OA
ATOM     16  H   UNL     1      11.533  14.927  -8.647  1.00  0.00     0.296 HD
ENDBRANCH  13  15
ENDBRANCH  10  13
ENDBRANCH   9  10
ENDBRANCH   8   9
BRANCH   4  17
ATOM     17  C   UNL     1       9.702   9.439  -9.436  1.00  0.00     0.157 C 
BRANCH  17  18
ATOM     18  N   UNL     1       9.995   8.044  -9.180  1.00  0.00    -0.318 N 
ATOM     19  C   UNL     1      11.035   7.318  -9.859  1.00  0.00     0.144 C 
ATOM     20  C   UNL     1       9.440   7.307  -8.132  1.00  0.00     0.324 C 
ATOM     21  C   UNL     1      10.928   5.913  -9.291  1.00  0.00     0.149 C 
ATOM     22  N   UNL     1      10.030   6.024  -8.160  1.00  0.00    -0.293 N 
ATOM     23  O   UNL     1       8.603   7.749  -7.362  1.00  0.00    -0.248 OA
BRANCH  22  24
ATOM     24  C   UNL     1       9.774   4.944  -7.273  1.00  0.00     0.045 A 
ATOM     25  C   UNL     1       8.953   3.871  -7.626  1.00  0.00     0.027 A 
ATOM     26  C   UNL     1      10.342   4.924  -5.990  1.00  0.00     0.027 A 
ATOM     27  C   UNL     1       8.702   2.817  -6.736  1.00  0.00     0.006 A 
ATOM     28  C   UNL     1      10.093   3.874  -5.097  1.00  0.00     0.006 A 
ATOM     29  C   UNL     1       9.266   2.806  -5.457  1.00  0.00    -0.045 A 
BRANCH  29  30
ATOM     30  C   UNL     1       9.012   1.676  -4.477  1.00  0.00     0.013 C 
ATOM     31  C   UNL     1       8.616   2.213  -3.099  1.00  0.00     0.012 C 
ATOM     32  C   UNL     1      10.214   0.734  -4.371  1.00  0.00     0.012 C 
ENDBRANCH  29  30
ENDBRANCH  22  24
ENDBRANCH  17  18
ENDBRANCH   4  17
TORSDOF 8
ENDMDL
