MODEL 7
REMARK VINA RESULT:    -7.483      2.956      7.649
REMARK INTER + INTRA:         -10.429
REMARK INTER:                 -11.029
REMARK INTRA:                   0.600
REMARK UNBOUND:                -0.977
REMARK SMILES CC(C)[C@H](C)n1cc(-c2cc(C3CCOCC3)n(C)n2)c2[nH]nc(N)c2c1=O
REMARK SMILES IDX 6 1 7 2 8 3 21 4 22 5 23 6 24 7 26 8 27 9 28 10 4 12 5 13
REMARK SMILES IDX 2 14 1 15 3 16 9 17 10 18 20 19 11 20 18 21 19 22 12 23
REMARK SMILES IDX 13 24 17 25 14 26 16 27 15 28 25 29
REMARK H PARENT 22 11 25 30 25 31
ROOT
ATOM      1  N   UNL     1     -12.243  14.077  20.147  1.00  0.00    -0.311 N 
ATOM      2  C   UNL     1     -13.038  15.205  20.448  1.00  0.00     0.102 A 
ATOM      3  C   UNL     1     -14.394  15.209  20.490  1.00  0.00     0.044 A 
ATOM      4  C   UNL     1     -14.945  13.951  20.146  1.00  0.00     0.084 A 
ATOM      5  N   UNL     1     -16.261  13.655  19.985  1.00  0.00    -0.275 N 
ATOM      6  N   UNL     1     -16.470  12.359  19.676  1.00  0.00    -0.157 NA
ATOM      7  C   UNL     1     -15.241  11.851  19.554  1.00  0.00     0.158 A 
ATOM      8  C   UNL     1     -14.251  12.806  19.838  1.00  0.00     0.110 A 
ATOM      9  C   UNL     1     -12.807  12.806  19.848  1.00  0.00     0.264 A 
ATOM     10  O   UNL     1     -12.152  11.791  19.626  1.00  0.00    -0.268 OA
ATOM     11  H   UNL     1     -17.067  14.266  20.064  1.00  0.00     0.190 HD
ENDROOT
BRANCH   1  12
ATOM     12  C   UNL     1     -10.766  14.201  20.154  1.00  0.00     0.090 C 
ATOM     13  C   UNL     1     -10.163  13.475  18.943  1.00  0.00     0.032 C 
BRANCH  12  14
ATOM     14  C   UNL     1     -10.297  15.680  20.287  1.00  0.00     0.005 C 
ATOM     15  C   UNL     1     -10.648  16.511  19.048  1.00  0.00     0.009 C 
ATOM     16  C   UNL     1      -8.784  15.764  20.527  1.00  0.00     0.009 C 
ENDBRANCH  12  14
ENDBRANCH   1  12
BRANCH   3  17
ATOM     17  C   UNL     1     -15.127  16.396  20.859  1.00  0.00     0.096 A 
ATOM     18  C   UNL     1     -16.540  16.515  20.877  1.00  0.00     0.054 A 
ATOM     19  N   UNL     1     -14.553  17.536  21.265  1.00  0.00    -0.173 NA
ATOM     20  C   UNL     1     -16.810  17.803  21.296  1.00  0.00     0.042 A 
ATOM     21  N   UNL     1     -15.578  18.376  21.496  1.00  0.00    -0.272 N 
ATOM     22  C   UNL     1     -15.291  19.727  21.923  1.00  0.00     0.174 C 
BRANCH  20  23
ATOM     23  C   UNL     1     -18.112  18.522  21.514  1.00  0.00     0.042 C 
ATOM     24  C   UNL     1     -19.139  17.657  22.249  1.00  0.00     0.038 C 
ATOM     25  C   UNL     1     -18.697  19.021  20.182  1.00  0.00     0.038 C 
ATOM     26  C   UNL     1     -20.424  18.446  22.498  1.00  0.00     0.161 C 
ATOM     27  C   UNL     1     -20.216  19.155  20.243  1.00  0.00     0.161 C 
ATOM     28  O   UNL     1     -20.621  19.508  21.561  1.00  0.00    -0.381 OA
ENDBRANCH  20  23
ENDBRANCH   3  17
BRANCH   7  29
ATOM     29  N   UNL     1     -15.001  10.584  19.202  1.00  0.00    -0.382 N 
ATOM     30  H   UNL     1     -15.654  10.134  18.573  1.00  0.00     0.158 HD
ATOM     31  H   UNL     1     -14.521   9.958  19.843  1.00  0.00     0.158 HD
ENDBRANCH   7  29
TORSDOF 5
ENDMDL
