MODEL 7
REMARK minimizedAffinity -10.1890306
REMARK CNNscore 0.174336866
REMARK CNNaffinity 6.29342794
REMARK SMILES O=C(NCC[NH+]1CCCCC1)Nc1ccc2ncnc(Nc3ccc(OCc4cccc(F)c4)c(Cl)c3)c2c1
REMARK SMILES IDX 13 1 14 2 15 3 16 4 17 5 18 6 19 7 20 8 38 9 39 10 12 11
REMARK SMILES IDX 1 12 2 13 3 14 4 17 5 18 6 19 11 20 7 21 10 22 8 23 9 24
REMARK SMILES IDX 21 26 22 28 37 29 23 30 35 31 24 32 25 33 36 34 26 35 27 36
REMARK SMILES IDX 28 37 34 38 29 39 32 40 30 41 31 42 33 43
REMARK H PARENT 3 15 12 16 6 25 21 27
ROOT
ATOM      1  C   UNL     1      12.750  40.886   8.414  1.00  0.00     0.043 A 
ATOM      2  C   UNL     1      11.691  41.182   7.545  1.00  0.00     0.028 A 
ATOM      3  C   UNL     1      10.397  40.749   7.818  1.00  0.00     0.031 A 
ATOM      4  C   UNL     1      10.128  39.993   8.981  1.00  0.00     0.076 A 
ATOM      5  N   UNL     1       8.849  39.583   9.218  1.00  0.00    -0.236 NA
ATOM      6  C   UNL     1       8.644  38.855  10.342  1.00  0.00     0.224 A 
ATOM      7  N   UNL     1       9.574  38.494  11.254  1.00  0.00    -0.219 NA
ATOM      8  C   UNL     1      10.849  38.904  11.026  1.00  0.00     0.141 A 
ATOM      9  C   UNL     1      11.198  39.672   9.873  1.00  0.00     0.045 A 
ATOM     10  C   UNL     1      12.509  40.128   9.562  1.00  0.00     0.040 A 
ENDROOT
BRANCH   1  11
ATOM     11  N   UNL     1      14.085  41.277   8.201  1.00  0.00    -0.308 N 
ATOM     12  O   UNL     1      14.545  40.446   6.110  1.00  0.00    -0.249 OA
ATOM     13  C   UNL     1      14.879  41.035   7.139  1.00  0.00     0.319 C 
ATOM     14  N   UNL     1      16.104  41.553   7.330  1.00  0.00    -0.332 N 
ATOM     15  H   UNL     1      16.321  41.952   8.231  1.00  0.00     0.165 HD
ATOM     16  H   UNL     1      14.468  41.867   8.924  1.00  0.00     0.171 HD
BRANCH  14  17
ATOM     17  C   UNL     1      17.185  41.555   6.341  1.00  0.00     0.179 C 
BRANCH  17  18
ATOM     18  C   UNL     1      17.853  40.175   6.117  1.00  0.00     0.283 C 
BRANCH  18  19
ATOM     19  N   UNL     1      19.363  40.198   6.465  1.00  0.00    -0.333 N 
ATOM     20  C   UNL     1      19.925  38.756   6.413  1.00  0.00     0.262 C 
ATOM     21  C   UNL     1      20.152  41.145   5.526  1.00  0.00     0.262 C 
ATOM     22  C   UNL     1      21.409  38.774   6.821  1.00  0.00     0.062 C 
ATOM     23  C   UNL     1      21.637  41.144   5.934  1.00  0.00     0.062 C 
ATOM     24  C   UNL     1      22.235  39.728   5.943  1.00  0.00     0.012 C 
ATOM     25  H   UNL     1      19.470  40.531   7.413  1.00  0.00     0.348 HD
ENDBRANCH  18  19
ENDBRANCH  17  18
ENDBRANCH  14  17
ENDBRANCH   1  11
BRANCH   8  26
ATOM     26  N   UNL     1      11.845  38.531  11.949  1.00  0.00    -0.340 N 
ATOM     27  H   UNL     1      11.965  39.193  12.701  1.00  0.00     0.168 HD
BRANCH  26  28
ATOM     28  C   UNL     1      12.692  37.413  12.049  1.00  0.00     0.041 A 
ATOM     29  C   UNL     1      12.534  36.410  13.014  1.00  0.00     0.050 A 
ATOM     30  C   UNL     1      13.767  37.329  11.163  1.00  0.00     0.030 A 
ATOM     31  C   UNL     1      13.423  35.337  13.078  1.00  0.00     0.085 A 
ATOM     32  C   UNL     1      14.658  36.259  11.223  1.00  0.00     0.050 A 
ATOM     33  C   UNL     1      14.497  35.246  12.184  1.00  0.00     0.138 A 
ATOM     34  Cl  UNL     1      13.183  34.125  14.289  1.00  0.00    -0.080 Cl
BRANCH  33  35
ATOM     35  O   UNL     1      15.345  34.160  12.309  1.00  0.00    -0.487 OA
BRANCH  35  36
ATOM     36  C   UNL     1      16.328  34.148  13.342  1.00  0.00     0.265 C 
BRANCH  36  37
ATOM     37  C   UNL     1      17.668  33.677  12.792  1.00  0.00    -0.008 A 
ATOM     38  C   UNL     1      18.871  34.175  13.307  1.00  0.00     0.046 A 
ATOM     39  C   UNL     1      17.704  32.752  11.742  1.00  0.00     0.007 A 
ATOM     40  C   UNL     1      20.092  33.745  12.787  1.00  0.00     0.123 A 
ATOM     41  C   UNL     1      18.925  32.322  11.222  1.00  0.00     0.003 A 
ATOM     42  C   UNL     1      20.120  32.818  11.745  1.00  0.00     0.039 A 
ATOM     43  F   UNL     1      21.250  34.228  13.292  1.00  0.00    -0.207 F 
ENDBRANCH  36  37
ENDBRANCH  35  36
ENDBRANCH  33  35
ENDBRANCH  26  28
ENDBRANCH   8  26
TORSDOF 9
ENDMDL
