MODEL 9
REMARK VINA RESULT:   -10.304      2.250      4.410
REMARK INTER + INTRA:         -14.555
REMARK INTER:                 -13.339
REMARK INTRA:                  -1.216
REMARK UNBOUND:                -0.335
REMARK SMILES COc1ccc2ccn(S(=O)(=O)c3cccc(C(=O)Nc4ccc(C)cc4C(=O)O)c3)c2c1
REMARK SMILES IDX 13 1 14 2 15 3 16 4 17 5 31 6 10 7 11 8 12 9 9 10 3 11 4 12
REMARK SMILES IDX 33 13 5 14 32 15 6 16 7 17 8 18 2 19 1 20 18 21 19 22 20 23
REMARK SMILES IDX 21 25 22 26 27 27 23 28 26 29 24 30 25 31 28 32 29 33 30 34
REMARK H PARENT 20 24 30 35
ROOT
ATOM      1  C   UNL     1      40.497   4.674 131.687  1.00  0.00     0.089 A 
ATOM      2  C   UNL     1      40.156   5.932 131.182  1.00  0.00     0.022 A 
ATOM      3  C   UNL     1      39.481   6.839 131.998  1.00  0.00     0.002 A 
ATOM      4  C   UNL     1      39.148   6.492 133.310  1.00  0.00     0.014 A 
ATOM      5  C   UNL     1      39.484   5.226 133.815  1.00  0.00     0.041 A 
ATOM      6  C   UNL     1      40.177   4.320 133.001  1.00  0.00     0.036 A 
ENDROOT
BRANCH   1   7
ATOM      7  S   UNL     1      41.362   3.521 130.657  1.00  0.00     0.268 S 
ATOM      8  O   UNL     1      41.024   3.777 129.270  1.00  0.00    -0.201 OA
ATOM      9  O   UNL     1      42.736   3.458 131.114  1.00  0.00    -0.201 OA
BRANCH   7  10
ATOM     10  N   UNL     1      40.656   2.016 131.033  1.00  0.00    -0.241 N 
ATOM     11  C   UNL     1      37.338   1.407 129.370  1.00  0.00     0.121 A 
ATOM     12  C   UNL     1      37.073   0.206 130.023  1.00  0.00     0.047 A 
ATOM     13  C   UNL     1      38.520   2.109 129.636  1.00  0.00     0.074 A 
ATOM     14  C   UNL     1      37.984  -0.320 130.950  1.00  0.00     0.014 A 
ATOM     15  C   UNL     1      39.433   1.579 130.566  1.00  0.00     0.068 A 
ATOM     16  C   UNL     1      39.178   0.372 131.231  1.00  0.00     0.001 A 
ATOM     17  C   UNL     1      40.273   0.118 132.106  1.00  0.00     0.029 A 
ATOM     18  C   UNL     1      41.162   1.162 131.978  1.00  0.00     0.105 A 
BRANCH  11  19
ATOM     19  O   UNL     1      36.523   2.013 128.450  1.00  0.00    -0.497 OA
ATOM     20  C   UNL     1      35.607   1.180 127.751  1.00  0.00     0.278 C 
ENDBRANCH  11  19
ENDBRANCH   7  10
ENDBRANCH   1   7
BRANCH   5  21
ATOM     21  C   UNL     1      39.167   4.814 135.215  1.00  0.00     0.255 C 
ATOM     22  O   UNL     1      40.016   5.008 136.078  1.00  0.00    -0.269 OA
ATOM     23  N   UNL     1      37.938   4.210 135.394  1.00  0.00    -0.321 N 
ATOM     24  H   UNL     1      37.404   3.985 134.554  1.00  0.00     0.170 HD
BRANCH  23  25
ATOM     25  C   UNL     1      37.335   3.778 136.605  1.00  0.00     0.056 A 
ATOM     26  C   UNL     1      37.353   4.560 137.766  1.00  0.00     0.027 A 
ATOM     27  C   UNL     1      36.672   2.529 136.649  1.00  0.00     0.083 A 
ATOM     28  C   UNL     1      36.742   4.120 138.945  1.00  0.00     0.005 A 
ATOM     29  C   UNL     1      36.064   2.093 137.841  1.00  0.00     0.021 A 
ATOM     30  C   UNL     1      36.105   2.880 138.998  1.00  0.00    -0.050 A 
ATOM     31  C   UNL     1      35.419   2.428 140.253  1.00  0.00     0.044 C 
BRANCH  27  32
ATOM     32  C   UNL     1      36.602   1.672 135.433  1.00  0.00     0.337 C 
ATOM     33  O   UNL     1      37.469   1.580 134.580  1.00  0.00    -0.246 OA
BRANCH  32  34
ATOM     34  O   UNL     1      35.461   0.967 135.335  1.00  0.00    -0.478 OA
ATOM     35  H   UNL     1      35.737   0.090 134.994  1.00  0.00     0.297 HD
ENDBRANCH  32  34
ENDBRANCH  27  32
ENDBRANCH  23  25
ENDBRANCH   5  21
TORSDOF 7
ENDMDL
