MODEL 4
REMARK VINA RESULT:    -7.940      2.086      2.617
REMARK INTER + INTRA:         -18.036
REMARK INTER:                 -16.687
REMARK INTRA:                  -1.350
REMARK UNBOUND:                -4.063
REMARK SMILES CC(C)c1cc(C(C)C)c(S(=O)(=O)N[C@@H](Cc2cccc(C(=N)N)c2)C(=O)N2CCC(CCN=C(N)N)CC2)c(C(C)C)c1
REMARK SMILES IDX 15 1 14 2 11 4 12 5 13 6 10 7 4 8 5 9 44 10 6 11 40 12 2 13
REMARK SMILES IDX 1 14 3 15 7 16 8 17 9 18 41 19 42 20 43 21 16 22 17 23 18 24
REMARK SMILES IDX 25 25 19 26 21 27 20 28 22 29 23 30 24 31 26 35 27 36 28 37
REMARK SMILES IDX 29 38 39 39 30 40 38 41 31 42 32 43 33 44 34 45 35 46 36 47
REMARK SMILES IDX 37 48
REMARK H PARENT 14 3 23 32 24 33 24 34 36 49 36 50 37 51 37 52
ROOT
ATOM      1  C   UNL     1      -5.913  11.989  21.677  1.00  0.00     0.163 C 
ENDROOT
BRANCH   1   2
ATOM      2  N   UNL     1      -7.028  11.092  21.356  1.00  0.00    -0.198 NA
ATOM      3  H   UNL     1      -7.987  11.333  21.587  1.00  0.00     0.142 HD
BRANCH   2   4
ATOM      4  S   UNL     1      -6.749   9.488  20.988  1.00  0.00     0.241 S 
ATOM      5  O   UNL     1      -5.323   9.264  20.993  1.00  0.00    -0.207 OA
ATOM      6  O   UNL     1      -7.570   8.730  21.909  1.00  0.00    -0.207 OA
BRANCH   4   7
ATOM      7  C   UNL     1      -7.444   9.345  19.320  1.00  0.00     0.089 A 
ATOM      8  C   UNL     1      -8.172   9.288  16.571  1.00  0.00    -0.045 A 
ATOM      9  C   UNL     1      -8.635  10.297  17.418  1.00  0.00     0.009 A 
ATOM     10  C   UNL     1      -7.403   8.268  17.128  1.00  0.00     0.009 A 
ATOM     11  C   UNL     1      -8.310  10.348  18.794  1.00  0.00    -0.025 A 
ATOM     12  C   UNL     1      -7.042   8.250  18.494  1.00  0.00    -0.025 A 
BRANCH   8  13
ATOM     13  C   UNL     1      -8.506   9.263  15.089  1.00  0.00     0.013 C 
ATOM     14  C   UNL     1      -7.248   9.407  14.232  1.00  0.00     0.012 C 
ATOM     15  C   UNL     1      -9.293   8.010  14.694  1.00  0.00     0.012 C 
ENDBRANCH   8  13
BRANCH  11  16
ATOM     16  C   UNL     1      -8.928  11.496  19.596  1.00  0.00     0.014 C 
ATOM     17  C   UNL     1     -10.329  11.171  20.146  1.00  0.00     0.012 C 
ATOM     18  C   UNL     1      -8.968  12.781  18.766  1.00  0.00     0.012 C 
ENDBRANCH  11  16
BRANCH  12  19
ATOM     19  C   UNL     1      -6.245   7.037  18.979  1.00  0.00     0.014 C 
ATOM     20  C   UNL     1      -6.854   5.700  18.518  1.00  0.00     0.012 C 
ATOM     21  C   UNL     1      -4.782   7.121  18.530  1.00  0.00     0.012 C 
ENDBRANCH  12  19
ENDBRANCH   4   7
ENDBRANCH   2   4
ENDBRANCH   1   2
BRANCH   1  22
ATOM     22  C   UNL     1      -6.105  13.360  21.001  1.00  0.00     0.065 C 
BRANCH  22  23
ATOM     23  C   UNL     1      -5.033  13.700  19.986  1.00  0.00    -0.045 A 
ATOM     24  C   UNL     1      -5.367  14.337  18.783  1.00  0.00     0.004 A 
ATOM     25  C   UNL     1      -3.684  13.418  20.250  1.00  0.00     0.015 A 
ATOM     26  C   UNL     1      -4.376  14.683  17.860  1.00  0.00     0.001 A 
ATOM     27  C   UNL     1      -2.696  13.753  19.319  1.00  0.00     0.016 A 
ATOM     28  C   UNL     1      -3.039  14.390  18.125  1.00  0.00     0.012 A 
BRANCH  27  29
ATOM     29  C   UNL     1      -1.277  13.441  19.625  1.00  0.00     0.122 C 
ATOM     30  N   UNL     1      -0.371  14.364  19.683  1.00  0.00    -0.284 NA
ATOM     31  N   UNL     1      -0.883  12.161  19.852  1.00  0.00    -0.384 N 
ATOM     32  H   UNL     1      -0.778  15.294  19.534  1.00  0.00     0.189 HD
ATOM     33  H   UNL     1       0.040  12.095  20.267  1.00  0.00     0.158 HD
ATOM     34  H   UNL     1      -1.552  11.481  20.180  1.00  0.00     0.158 HD
ENDBRANCH  27  29
ENDBRANCH  22  23
ENDBRANCH   1  22
BRANCH   1  35
ATOM     35  C   UNL     1      -5.591  12.211  23.161  1.00  0.00     0.241 C 
ATOM     36  O   UNL     1      -6.536  12.438  23.927  1.00  0.00    -0.273 OA
ATOM     37  N   UNL     1      -4.295  12.030  23.642  1.00  0.00    -0.341 N 
ATOM     38  C   UNL     1      -3.094  12.048  22.811  1.00  0.00     0.120 C 
ATOM     39  C   UNL     1      -4.067  12.200  25.074  1.00  0.00     0.120 C 
ATOM     40  C   UNL     1      -1.800  11.812  23.595  1.00  0.00     0.025 C 
ATOM     41  C   UNL     1      -3.115  11.137  25.632  1.00  0.00     0.025 C 
ATOM     42  C   UNL     1      -2.004  10.717  24.649  1.00  0.00    -0.006 C 
BRANCH  42  43
ATOM     43  C   UNL     1      -0.672  10.379  25.349  1.00  0.00     0.027 C 
BRANCH  43  44
ATOM     44  C   UNL     1      -0.584   8.943  25.872  1.00  0.00     0.146 C 
BRANCH  44  45
ATOM     45  N   UNL     1      -1.297   8.793  27.135  1.00  0.00    -0.254 NA
ATOM     46  C   UNL     1      -1.401   7.643  27.681  1.00  0.00     0.185 C 
ATOM     47  N   UNL     1      -2.090   7.509  28.835  1.00  0.00    -0.370 N 
ATOM     48  N   UNL     1      -0.913   6.444  27.296  1.00  0.00    -0.370 N 
ATOM     49  H   UNL     1      -2.745   6.739  28.801  1.00  0.00     0.159 HD
ATOM     50  H   UNL     1      -2.579   8.377  29.039  1.00  0.00     0.159 HD
ATOM     51  H   UNL     1      -0.166   6.498  26.616  1.00  0.00     0.159 HD
ATOM     52  H   UNL     1      -0.638   5.873  28.088  1.00  0.00     0.159 HD
ENDBRANCH  44  45
ENDBRANCH  43  44
ENDBRANCH  42  43
ENDBRANCH   1  35
TORSDOF 13
ENDMDL
