MODEL 1
REMARK VINA RESULT:    -8.475      0.000      0.000
REMARK INTER + INTRA:         -16.427
REMARK INTER:                 -15.164
REMARK INTRA:                  -1.262
REMARK UNBOUND:                -1.262
REMARK SMILES CCCC[C@@H](Sc1ccc(OCCCOc2cccc(C(C)C)c2)cc1)C(=O)O
REMARK SMILES IDX 11 1 10 2 7 3 8 4 26 5 9 6 25 7 6 8 5 9 4 10 3 11 2 12 1 13
REMARK SMILES IDX 27 14 28 15 29 16 12 18 13 19 14 20 15 21 16 22 17 23 24 24
REMARK SMILES IDX 18 25 20 26 19 27 21 28 22 29 23 30
REMARK H PARENT 29 17
ROOT
ATOM      1  O   UNL     1       7.442   5.022  -6.961  1.00  0.00    -0.493 OA
ENDROOT
BRANCH   1   2
ATOM      2  C   UNL     1       6.587   5.842  -6.279  1.00  0.00     0.119 A 
ATOM      3  C   UNL     1       4.738   7.297  -4.739  1.00  0.00     0.008 A 
ATOM      4  C   UNL     1       5.563   7.949  -5.659  1.00  0.00     0.019 A 
ATOM      5  C   UNL     1       4.828   5.910  -4.607  1.00  0.00     0.019 A 
ATOM      6  C   UNL     1       6.488   7.227  -6.421  1.00  0.00     0.047 A 
ATOM      7  C   UNL     1       5.750   5.190  -5.372  1.00  0.00     0.047 A 
BRANCH   3   8
ATOM      8  S   UNL     1       3.543   8.193  -3.770  1.00  0.00    -0.111 SA
BRANCH   8   9
ATOM      9  C   UNL     1       3.616   7.247  -2.189  1.00  0.00     0.161 C 
BRANCH   9  10
ATOM     10  C   UNL     1       2.495   6.201  -2.089  1.00  0.00     0.027 C 
BRANCH  10  11
ATOM     11  C   UNL     1       3.011   4.768  -1.899  1.00  0.00     0.001 C 
BRANCH  11  12
ATOM     12  C   UNL     1       3.868   4.644  -0.637  1.00  0.00    -0.003 C 
ATOM     13  C   UNL     1       5.254   4.097  -0.950  1.00  0.00     0.004 C 
ENDBRANCH  11  12
ENDBRANCH  10  11
ENDBRANCH   9  10
BRANCH   9  14
ATOM     14  C   UNL     1       3.482   8.239  -1.045  1.00  0.00     0.316 C 
ATOM     15  O   UNL     1       2.450   8.696  -0.572  1.00  0.00    -0.251 OA
BRANCH  14  16
ATOM     16  O   UNL     1       4.682   8.613  -0.532  1.00  0.00    -0.480 OA
ATOM     17  H   UNL     1       5.303   8.482  -1.282  1.00  0.00     0.296 HD
ENDBRANCH  14  16
ENDBRANCH   9  14
ENDBRANCH   8   9
ENDBRANCH   3   8
ENDBRANCH   1   2
BRANCH   1  18
ATOM     18  C   UNL     1       8.285   4.174  -6.177  1.00  0.00     0.233 C 
BRANCH  18  19
ATOM     19  C   UNL     1       9.732   4.584  -6.438  1.00  0.00     0.083 C 
BRANCH  19  20
ATOM     20  C   UNL     1       9.914   5.189  -7.824  1.00  0.00     0.233 C 
BRANCH  20  21
ATOM     21  O   UNL     1      10.184   6.584  -7.684  1.00  0.00    -0.493 OA
BRANCH  21  22
ATOM     22  C   UNL     1      10.228   7.332  -8.829  1.00  0.00     0.119 A 
ATOM     23  C   UNL     1       9.974   8.693  -8.641  1.00  0.00     0.046 A 
ATOM     24  C   UNL     1      10.504   6.856 -10.113  1.00  0.00     0.050 A 
ATOM     25  C   UNL     1       9.987   9.571  -9.724  1.00  0.00     0.004 A 
ATOM     26  C   UNL     1      10.525   7.730 -11.215  1.00  0.00    -0.042 A 
ATOM     27  C   UNL     1      10.262   9.092 -11.004  1.00  0.00     0.004 A 
BRANCH  26  28
ATOM     28  C   UNL     1      10.837   7.188 -12.601  1.00  0.00     0.013 C 
ATOM     29  C   UNL     1      11.987   6.177 -12.559  1.00  0.00     0.012 C 
ATOM     30  C   UNL     1      11.133   8.315 -13.594  1.00  0.00     0.012 C 
ENDBRANCH  26  28
ENDBRANCH  21  22
ENDBRANCH  20  21
ENDBRANCH  19  20
ENDBRANCH  18  19
ENDBRANCH   1  18
TORSDOF 14
ENDMDL
MODEL 2
REMARK VINA RESULT:    -8.307      1.413      2.458
REMARK INTER + INTRA:         -16.126
REMARK INTER:                 -14.964
REMARK INTRA:                  -1.161
REMARK UNBOUND:                -1.262
REMARK SMILES CCCC[C@@H](Sc1ccc(OCCCOc2cccc(C(C)C)c2)cc1)C(=O)O
REMARK SMILES IDX 11 1 10 2 7 3 8 4 26 5 9 6 25 7 6 8 5 9 4 10 3 11 2 12 1 13
REMARK SMILES IDX 27 14 28 15 29 16 12 18 13 19 14 20 15 21 16 22 17 23 24 24
REMARK SMILES IDX 18 25 20 26 19 27 21 28 22 29 23 30
REMARK H PARENT 29 17
ROOT
ATOM      1  O   UNL     1       8.520   6.352  -7.269  1.00  0.00    -0.493 OA
ENDROOT
BRANCH   1   2
ATOM      2  C   UNL     1       7.303   6.409  -6.649  1.00  0.00     0.119 A 
ATOM      3  C   UNL     1       4.808   6.807  -5.416  1.00  0.00     0.008 A 
ATOM      4  C   UNL     1       5.338   5.521  -5.543  1.00  0.00     0.019 A 
ATOM      5  C   UNL     1       5.541   7.897  -5.890  1.00  0.00     0.019 A 
ATOM      6  C   UNL     1       6.577   5.321  -6.162  1.00  0.00     0.047 A 
ATOM      7  C   UNL     1       6.780   7.695  -6.506  1.00  0.00     0.047 A 
BRANCH   3   8
ATOM      8  S   UNL     1       3.242   7.088  -4.618  1.00  0.00    -0.111 SA
BRANCH   8   9
ATOM      9  C   UNL     1       3.706   6.801  -2.856  1.00  0.00     0.161 C 
BRANCH   9  10
ATOM     10  C   UNL     1       2.561   6.167  -2.053  1.00  0.00     0.027 C 
BRANCH  10  11
ATOM     11  C   UNL     1       2.807   4.694  -1.695  1.00  0.00     0.001 C 
BRANCH  11  12
ATOM     12  C   UNL     1       4.301   4.362  -1.690  1.00  0.00    -0.003 C 
ATOM     13  C   UNL     1       4.834   4.185  -0.274  1.00  0.00     0.004 C 
ENDBRANCH  11  12
ENDBRANCH  10  11
ENDBRANCH   9  10
BRANCH   9  14
ATOM     14  C   UNL     1       4.066   8.145  -2.244  1.00  0.00     0.316 C 
ATOM     15  O   UNL     1       4.528   8.357  -1.131  1.00  0.00    -0.251 OA
BRANCH  14  16
ATOM     16  O   UNL     1       3.830   9.185  -3.086  1.00  0.00    -0.480 OA
ATOM     17  H   UNL     1       4.575   9.799  -2.907  1.00  0.00     0.296 HD
ENDBRANCH  14  16
ENDBRANCH   9  14
ENDBRANCH   8   9
ENDBRANCH   3   8
ENDBRANCH   1   2
BRANCH   1  18
ATOM     18  C   UNL     1       9.299   5.173  -7.053  1.00  0.00     0.233 C 
BRANCH  18  19
ATOM     19  C   UNL     1       9.966   4.804  -8.375  1.00  0.00     0.083 C 
BRANCH  19  20
ATOM     20  C   UNL     1      10.494   6.030  -9.111  1.00  0.00     0.233 C 
BRANCH  20  21
ATOM     21  O   UNL     1      10.415   5.791 -10.516  1.00  0.00    -0.493 OA
BRANCH  21  22
ATOM     22  C   UNL     1      10.930   6.750 -11.345  1.00  0.00     0.119 A 
ATOM     23  C   UNL     1      12.116   6.385 -11.985  1.00  0.00     0.046 A 
ATOM     24  C   UNL     1      10.374   8.008 -11.593  1.00  0.00     0.050 A 
ATOM     25  C   UNL     1      12.750   7.268 -12.859  1.00  0.00     0.004 A 
ATOM     26  C   UNL     1      10.999   8.909 -12.474  1.00  0.00    -0.042 A 
ATOM     27  C   UNL     1      12.193   8.524 -13.102  1.00  0.00     0.004 A 
BRANCH  26  28
ATOM     28  C   UNL     1      10.370  10.269 -12.734  1.00  0.00     0.013 C 
ATOM     29  C   UNL     1       8.928  10.131 -13.231  1.00  0.00     0.012 C 
ATOM     30  C   UNL     1      11.209  11.102 -13.707  1.00  0.00     0.012 C 
ENDBRANCH  26  28
ENDBRANCH  21  22
ENDBRANCH  20  21
ENDBRANCH  19  20
ENDBRANCH  18  19
ENDBRANCH   1  18
TORSDOF 14
ENDMDL
MODEL 3
REMARK VINA RESULT:    -8.265      2.189      3.278
REMARK INTER + INTRA:         -16.050
REMARK INTER:                 -15.029
REMARK INTRA:                  -1.021
REMARK UNBOUND:                -1.262
REMARK SMILES CCCC[C@@H](Sc1ccc(OCCCOc2cccc(C(C)C)c2)cc1)C(=O)O
REMARK SMILES IDX 11 1 10 2 7 3 8 4 26 5 9 6 25 7 6 8 5 9 4 10 3 11 2 12 1 13
REMARK SMILES IDX 27 14 28 15 29 16 12 18 13 19 14 20 15 21 16 22 17 23 24 24
REMARK SMILES IDX 18 25 20 26 19 27 21 28 22 29 23 30
REMARK H PARENT 29 17
ROOT
ATOM      1  O   UNL     1       8.722  10.619  -5.128  1.00  0.00    -0.493 OA
ENDROOT
BRANCH   1   2
ATOM      2  C   UNL     1       7.504  10.166  -4.705  1.00  0.00     0.119 A 
ATOM      3  C   UNL     1       4.956   9.141  -4.100  1.00  0.00     0.008 A 
ATOM      4  C   UNL     1       5.731   9.746  -3.107  1.00  0.00     0.019 A 
ATOM      5  C   UNL     1       5.453   9.070  -5.403  1.00  0.00     0.019 A 
ATOM      6  C   UNL     1       7.002  10.251  -3.406  1.00  0.00     0.047 A 
ATOM      7  C   UNL     1       6.722   9.577  -5.700  1.00  0.00     0.047 A 
BRANCH   3   8
ATOM      8  S   UNL     1       3.331   8.507  -3.748  1.00  0.00    -0.111 SA
BRANCH   8   9
ATOM      9  C   UNL     1       3.704   7.401  -2.321  1.00  0.00     0.161 C 
BRANCH   9  10
ATOM     10  C   UNL     1       2.860   6.118  -2.348  1.00  0.00     0.027 C 
BRANCH  10  11
ATOM     11  C   UNL     1       3.697   4.833  -2.293  1.00  0.00     0.001 C 
BRANCH  11  12
ATOM     12  C   UNL     1       4.304   4.620  -0.904  1.00  0.00    -0.003 C 
ATOM     13  C   UNL     1       5.762   4.187  -0.988  1.00  0.00     0.004 C 
ENDBRANCH  11  12
ENDBRANCH  10  11
ENDBRANCH   9  10
BRANCH   9  14
ATOM     14  C   UNL     1       3.409   8.171  -1.043  1.00  0.00     0.316 C 
ATOM     15  O   UNL     1       2.377   8.759  -0.750  1.00  0.00    -0.251 OA
BRANCH  14  16
ATOM     16  O   UNL     1       4.450   8.157  -0.171  1.00  0.00    -0.480 OA
ATOM     17  H   UNL     1       4.669   7.203  -0.090  1.00  0.00     0.296 HD
ENDBRANCH  14  16
ENDBRANCH   9  14
ENDBRANCH   8   9
ENDBRANCH   3   8
ENDBRANCH   1   2
BRANCH   1  18
ATOM     18  C   UNL     1       8.808  11.072  -6.481  1.00  0.00     0.233 C 
BRANCH  18  19
ATOM     19  C   UNL     1      10.267  11.416  -6.768  1.00  0.00     0.083 C 
BRANCH  19  20
ATOM     20  C   UNL     1      10.932  10.382  -7.668  1.00  0.00     0.233 C 
BRANCH  20  21
ATOM     21  O   UNL     1       9.953   9.422  -8.066  1.00  0.00    -0.493 OA
BRANCH  21  22
ATOM     22  C   UNL     1      10.125   8.819  -9.282  1.00  0.00     0.119 A 
ATOM     23  C   UNL     1      10.284   7.433  -9.223  1.00  0.00     0.046 A 
ATOM     24  C   UNL     1      10.142   9.460 -10.523  1.00  0.00     0.050 A 
ATOM     25  C   UNL     1      10.468   6.691 -10.389  1.00  0.00     0.004 A 
ATOM     26  C   UNL     1      10.323   8.726 -11.710  1.00  0.00    -0.042 A 
ATOM     27  C   UNL     1      10.486   7.335 -11.626  1.00  0.00     0.004 A 
BRANCH  26  28
ATOM     28  C   UNL     1      10.329   9.446 -13.049  1.00  0.00     0.013 C 
ATOM     29  C   UNL     1      11.602  10.278 -13.230  1.00  0.00     0.012 C 
ATOM     30  C   UNL     1       9.078  10.309 -13.231  1.00  0.00     0.012 C 
ENDBRANCH  26  28
ENDBRANCH  21  22
ENDBRANCH  20  21
ENDBRANCH  19  20
ENDBRANCH  18  19
ENDBRANCH   1  18
TORSDOF 14
ENDMDL
MODEL 4
REMARK VINA RESULT:    -8.054      2.111      3.264
REMARK INTER + INTRA:         -15.672
REMARK INTER:                 -14.561
REMARK INTRA:                  -1.111
REMARK UNBOUND:                -1.262
REMARK SMILES CCCC[C@@H](Sc1ccc(OCCCOc2cccc(C(C)C)c2)cc1)C(=O)O
REMARK SMILES IDX 11 1 10 2 7 3 8 4 26 5 9 6 25 7 6 8 5 9 4 10 3 11 2 12 1 13
REMARK SMILES IDX 27 14 28 15 29 16 12 18 13 19 14 20 15 21 16 22 17 23 24 24
REMARK SMILES IDX 18 25 20 26 19 27 21 28 22 29 23 30
REMARK H PARENT 29 17
ROOT
ATOM      1  O   UNL     1       8.256   9.810  -6.526  1.00  0.00    -0.493 OA
ENDROOT
BRANCH   1   2
ATOM      2  C   UNL     1       7.119   9.406  -5.883  1.00  0.00     0.119 A 
ATOM      3  C   UNL     1       4.804   8.811  -4.404  1.00  0.00     0.008 A 
ATOM      4  C   UNL     1       5.229   7.960  -5.426  1.00  0.00     0.019 A 
ATOM      5  C   UNL     1       5.554   9.951  -4.110  1.00  0.00     0.019 A 
ATOM      6  C   UNL     1       6.378   8.258  -6.167  1.00  0.00     0.047 A 
ATOM      7  C   UNL     1       6.702  10.246  -4.849  1.00  0.00     0.047 A 
BRANCH   3   8
ATOM      8  S   UNL     1       3.355   8.443  -3.437  1.00  0.00    -0.111 SA
BRANCH   8   9
ATOM      9  C   UNL     1       4.068   7.286  -2.190  1.00  0.00     0.161 C 
BRANCH   9  10
ATOM     10  C   UNL     1       3.081   6.174  -1.804  1.00  0.00     0.027 C 
BRANCH  10  11
ATOM     11  C   UNL     1       3.576   4.766  -2.161  1.00  0.00     0.001 C 
BRANCH  11  12
ATOM     12  C   UNL     1       4.202   4.069  -0.949  1.00  0.00    -0.003 C 
ATOM     13  C   UNL     1       5.723   4.130  -0.989  1.00  0.00     0.004 C 
ENDBRANCH  11  12
ENDBRANCH  10  11
ENDBRANCH   9  10
BRANCH   9  14
ATOM     14  C   UNL     1       4.424   8.095  -0.953  1.00  0.00     0.316 C 
ATOM     15  O   UNL     1       5.222   9.019  -0.872  1.00  0.00    -0.251 OA
BRANCH  14  16
ATOM     16  O   UNL     1       3.738   7.697   0.149  1.00  0.00    -0.480 OA
ATOM     17  H   UNL     1       3.048   7.099  -0.214  1.00  0.00     0.296 HD
ENDBRANCH  14  16
ENDBRANCH   9  14
ENDBRANCH   8   9
ENDBRANCH   3   8
ENDBRANCH   1   2
BRANCH   1  18
ATOM     18  C   UNL     1       8.909  10.973  -6.013  1.00  0.00     0.233 C 
BRANCH  18  19
ATOM     19  C   UNL     1       9.745  11.576  -7.139  1.00  0.00     0.083 C 
BRANCH  19  20
ATOM     20  C   UNL     1      10.158  10.529  -8.167  1.00  0.00     0.233 C 
BRANCH  20  21
ATOM     21  O   UNL     1      10.520  11.193  -9.378  1.00  0.00    -0.493 OA
BRANCH  21  22
ATOM     22  C   UNL     1      10.497  10.454 -10.529  1.00  0.00     0.119 A 
ATOM     23  C   UNL     1      10.479  11.210 -11.703  1.00  0.00     0.046 A 
ATOM     24  C   UNL     1      10.500   9.059 -10.611  1.00  0.00     0.050 A 
ATOM     25  C   UNL     1      10.455  10.584 -12.948  1.00  0.00     0.004 A 
ATOM     26  C   UNL     1      10.480   8.412 -11.860  1.00  0.00    -0.042 A 
ATOM     27  C   UNL     1      10.456   9.192 -13.026  1.00  0.00     0.004 A 
BRANCH  26  28
ATOM     28  C   UNL     1      10.493   6.892 -11.923  1.00  0.00     0.013 C 
ATOM     29  C   UNL     1      10.444   6.275 -10.522  1.00  0.00     0.012 C 
ATOM     30  C   UNL     1      11.698   6.370 -12.710  1.00  0.00     0.012 C 
ENDBRANCH  26  28
ENDBRANCH  21  22
ENDBRANCH  20  21
ENDBRANCH  19  20
ENDBRANCH  18  19
ENDBRANCH   1  18
TORSDOF 14
ENDMDL
MODEL 5
REMARK VINA RESULT:    -8.016      3.139     10.589
REMARK INTER + INTRA:         -15.605
REMARK INTER:                 -14.460
REMARK INTRA:                  -1.145
REMARK UNBOUND:                -1.262
REMARK SMILES CCCC[C@@H](Sc1ccc(OCCCOc2cccc(C(C)C)c2)cc1)C(=O)O
REMARK SMILES IDX 11 1 10 2 7 3 8 4 26 5 9 6 25 7 6 8 5 9 4 10 3 11 2 12 1 13
REMARK SMILES IDX 27 14 28 15 29 16 12 18 13 19 14 20 15 21 16 22 17 23 24 24
REMARK SMILES IDX 18 25 20 26 19 27 21 28 22 29 23 30
REMARK H PARENT 29 17
ROOT
ATOM      1  O   UNL     1      10.136   5.809  -7.278  1.00  0.00    -0.493 OA
ENDROOT
BRANCH   1   2
ATOM      2  C   UNL     1      10.191   6.247  -8.572  1.00  0.00     0.119 A 
ATOM      3  C   UNL     1      10.318   6.874 -11.310  1.00  0.00     0.008 A 
ATOM      4  C   UNL     1      10.209   7.888 -10.355  1.00  0.00     0.019 A 
ATOM      5  C   UNL     1      10.384   5.545 -10.888  1.00  0.00     0.019 A 
ATOM      6  C   UNL     1      10.140   7.577  -8.993  1.00  0.00     0.047 A 
ATOM      7  C   UNL     1      10.317   5.236  -9.527  1.00  0.00     0.047 A 
BRANCH   3   8
ATOM      8  S   UNL     1      10.424   7.247 -13.047  1.00  0.00    -0.111 SA
BRANCH   8   9
ATOM      9  C   UNL     1      11.661   8.614 -13.023  1.00  0.00     0.161 C 
BRANCH   9  10
ATOM     10  C   UNL     1      11.566   9.502 -14.272  1.00  0.00     0.027 C 
BRANCH  10  11
ATOM     11  C   UNL     1      11.236  10.968 -13.957  1.00  0.00     0.001 C 
BRANCH  11  12
ATOM     12  C   UNL     1       9.955  11.087 -13.127  1.00  0.00    -0.003 C 
ATOM     13  C   UNL     1      10.217  11.750 -11.781  1.00  0.00     0.004 C 
ENDBRANCH  11  12
ENDBRANCH  10  11
ENDBRANCH   9  10
BRANCH   9  14
ATOM     14  C   UNL     1      13.046   7.989 -12.954  1.00  0.00     0.316 C 
ATOM     15  O   UNL     1      13.379   6.983 -12.342  1.00  0.00    -0.251 OA
BRANCH  14  16
ATOM     16  O   UNL     1      13.965   8.672 -13.683  1.00  0.00    -0.480 OA
ATOM     17  H   UNL     1      13.419   9.232 -14.277  1.00  0.00     0.296 HD
ENDBRANCH  14  16
ENDBRANCH   9  14
ENDBRANCH   8   9
ENDBRANCH   3   8
ENDBRANCH   1   2
BRANCH   1  18
ATOM     18  C   UNL     1       9.628   4.490  -7.065  1.00  0.00     0.233 C 
BRANCH  18  19
ATOM     19  C   UNL     1       8.417   4.599  -6.142  1.00  0.00     0.083 C 
BRANCH  19  20
ATOM     20  C   UNL     1       7.292   5.414  -6.769  1.00  0.00     0.233 C 
BRANCH  20  21
ATOM     21  O   UNL     1       6.050   4.991  -6.206  1.00  0.00    -0.493 OA
BRANCH  21  22
ATOM     22  C   UNL     1       5.332   5.919  -5.503  1.00  0.00     0.119 A 
ATOM     23  C   UNL     1       5.487   7.233  -5.952  1.00  0.00     0.046 A 
ATOM     24  C   UNL     1       4.486   5.658  -4.422  1.00  0.00     0.050 A 
ATOM     25  C   UNL     1       4.812   8.279  -5.326  1.00  0.00     0.004 A 
ATOM     26  C   UNL     1       3.795   6.703  -3.781  1.00  0.00    -0.042 A 
ATOM     27  C   UNL     1       3.970   8.015  -4.246  1.00  0.00     0.004 A 
BRANCH  26  28
ATOM     28  C   UNL     1       2.873   6.392  -2.613  1.00  0.00     0.013 C 
ATOM     29  C   UNL     1       3.460   6.893  -1.290  1.00  0.00     0.012 C 
ATOM     30  C   UNL     1       2.542   4.900  -2.536  1.00  0.00     0.012 C 
ENDBRANCH  26  28
ENDBRANCH  21  22
ENDBRANCH  20  21
ENDBRANCH  19  20
ENDBRANCH  18  19
ENDBRANCH   1  18
TORSDOF 14
ENDMDL
MODEL 6
REMARK VINA RESULT:    -7.917      5.202     10.691
REMARK INTER + INTRA:         -15.428
REMARK INTER:                 -14.327
REMARK INTRA:                  -1.101
REMARK UNBOUND:                -1.262
REMARK SMILES CCCC[C@@H](Sc1ccc(OCCCOc2cccc(C(C)C)c2)cc1)C(=O)O
REMARK SMILES IDX 11 1 10 2 7 3 8 4 26 5 9 6 25 7 6 8 5 9 4 10 3 11 2 12 1 13
REMARK SMILES IDX 27 14 28 15 29 16 12 18 13 19 14 20 15 21 16 22 17 23 24 24
REMARK SMILES IDX 18 25 20 26 19 27 21 28 22 29 23 30
REMARK H PARENT 29 17
ROOT
ATOM      1  O   UNL     1      10.189   5.974  -7.389  1.00  0.00    -0.493 OA
ENDROOT
BRANCH   1   2
ATOM      2  C   UNL     1      10.292   6.145  -8.741  1.00  0.00     0.119 A 
ATOM      3  C   UNL     1      10.494   6.778 -11.473  1.00  0.00     0.008 A 
ATOM      4  C   UNL     1      10.516   5.447 -11.051  1.00  0.00     0.019 A 
ATOM      5  C   UNL     1      10.349   7.792 -10.524  1.00  0.00     0.019 A 
ATOM      6  C   UNL     1      10.422   5.131  -9.691  1.00  0.00     0.047 A 
ATOM      7  C   UNL     1      10.253   7.475  -9.166  1.00  0.00     0.047 A 
BRANCH   3   8
ATOM      8  S   UNL     1      10.595   7.203 -13.199  1.00  0.00    -0.111 SA
BRANCH   8   9
ATOM      9  C   UNL     1      11.699   8.677 -13.118  1.00  0.00     0.161 C 
BRANCH   9  10
ATOM     10  C   UNL     1      11.563   9.570 -14.360  1.00  0.00     0.027 C 
BRANCH  10  11
ATOM     11  C   UNL     1      10.722  10.831 -14.119  1.00  0.00     0.001 C 
BRANCH  11  12
ATOM     12  C   UNL     1       9.794  10.662 -12.913  1.00  0.00    -0.003 C 
ATOM     13  C   UNL     1       8.376  10.305 -13.339  1.00  0.00     0.004 C 
ENDBRANCH  11  12
ENDBRANCH  10  11
ENDBRANCH   9  10
BRANCH   9  14
ATOM     14  C   UNL     1      13.132   8.182 -13.008  1.00  0.00     0.316 C 
ATOM     15  O   UNL     1      13.527   7.160 -12.462  1.00  0.00    -0.251 OA
BRANCH  14  16
ATOM     16  O   UNL     1      14.021   9.012 -13.611  1.00  0.00    -0.480 OA
ATOM     17  H   UNL     1      13.465   9.764 -13.913  1.00  0.00     0.296 HD
ENDBRANCH  14  16
ENDBRANCH   9  14
ENDBRANCH   8   9
ENDBRANCH   3   8
ENDBRANCH   1   2
BRANCH   1  18
ATOM     18  C   UNL     1       9.124   5.142  -6.924  1.00  0.00     0.233 C 
BRANCH  18  19
ATOM     19  C   UNL     1       9.684   4.232  -5.833  1.00  0.00     0.083 C 
BRANCH  19  20
ATOM     20  C   UNL     1       8.715   3.113  -5.469  1.00  0.00     0.233 C 
BRANCH  20  21
ATOM     21  O   UNL     1       9.438   1.884  -5.399  1.00  0.00    -0.493 OA
BRANCH  21  22
ATOM     22  C   UNL     1      10.276   1.710  -4.332  1.00  0.00     0.119 A 
ATOM     23  C   UNL     1       9.638   1.708  -3.089  1.00  0.00     0.046 A 
ATOM     24  C   UNL     1      11.661   1.534  -4.394  1.00  0.00     0.050 A 
ATOM     25  C   UNL     1      10.374   1.540  -1.917  1.00  0.00     0.004 A 
ATOM     26  C   UNL     1      12.417   1.359  -3.220  1.00  0.00    -0.042 A 
ATOM     27  C   UNL     1      11.756   1.366  -1.982  1.00  0.00     0.004 A 
BRANCH  26  28
ATOM     28  C   UNL     1      13.921   1.160  -3.314  1.00  0.00     0.013 C 
ATOM     29  C   UNL     1      14.680   2.392  -2.813  1.00  0.00     0.012 C 
ATOM     30  C   UNL     1      14.354   0.789  -4.735  1.00  0.00     0.012 C 
ENDBRANCH  26  28
ENDBRANCH  21  22
ENDBRANCH  20  21
ENDBRANCH  19  20
ENDBRANCH  18  19
ENDBRANCH   1  18
TORSDOF 14
ENDMDL
MODEL 7
REMARK VINA RESULT:    -7.874      4.613      6.375
REMARK INTER + INTRA:         -15.350
REMARK INTER:                 -13.944
REMARK INTRA:                  -1.405
REMARK UNBOUND:                -1.262
REMARK SMILES CCCC[C@@H](Sc1ccc(OCCCOc2cccc(C(C)C)c2)cc1)C(=O)O
REMARK SMILES IDX 11 1 10 2 7 3 8 4 26 5 9 6 25 7 6 8 5 9 4 10 3 11 2 12 1 13
REMARK SMILES IDX 27 14 28 15 29 16 12 18 13 19 14 20 15 21 16 22 17 23 24 24
REMARK SMILES IDX 18 25 20 26 19 27 21 28 22 29 23 30
REMARK H PARENT 29 17
ROOT
ATOM      1  O   UNL     1      11.275   4.803 -11.055  1.00  0.00    -0.493 OA
ENDROOT
BRANCH   1   2
ATOM      2  C   UNL     1      10.657   4.737  -9.837  1.00  0.00     0.119 A 
ATOM      3  C   UNL     1       9.283   4.351  -7.414  1.00  0.00     0.008 A 
ATOM      4  C   UNL     1      10.053   5.499  -7.617  1.00  0.00     0.019 A 
ATOM      5  C   UNL     1       9.186   3.406  -8.438  1.00  0.00     0.019 A 
ATOM      6  C   UNL     1      10.742   5.689  -8.820  1.00  0.00     0.047 A 
ATOM      7  C   UNL     1       9.873   3.599  -9.640  1.00  0.00     0.047 A 
BRANCH   3   8
ATOM      8  S   UNL     1       8.385   4.095  -5.899  1.00  0.00    -0.111 SA
BRANCH   8   9
ATOM      9  C   UNL     1       9.711   3.374  -4.840  1.00  0.00     0.161 C 
BRANCH   9  10
ATOM     10  C   UNL     1       9.819   1.851  -5.007  1.00  0.00     0.027 C 
BRANCH  10  11
ATOM     11  C   UNL     1      11.255   1.323  -4.884  1.00  0.00     0.001 C 
BRANCH  11  12
ATOM     12  C   UNL     1      11.384   0.316  -3.737  1.00  0.00    -0.003 C 
ATOM     13  C   UNL     1      11.827   0.990  -2.445  1.00  0.00     0.004 C 
ENDBRANCH  11  12
ENDBRANCH  10  11
ENDBRANCH   9  10
BRANCH   9  14
ATOM     14  C   UNL     1       9.380   3.700  -3.392  1.00  0.00     0.316 C 
ATOM     15  O   UNL     1       8.330   3.486  -2.802  1.00  0.00    -0.251 OA
BRANCH  14  16
ATOM     16  O   UNL     1      10.416   4.286  -2.738  1.00  0.00    -0.480 OA
ATOM     17  H   UNL     1      10.545   3.712  -1.951  1.00  0.00     0.296 HD
ENDBRANCH  14  16
ENDBRANCH   9  14
ENDBRANCH   8   9
ENDBRANCH   3   8
ENDBRANCH   1   2
BRANCH   1  18
ATOM     18  C   UNL     1      12.061   5.967 -11.317  1.00  0.00     0.233 C 
BRANCH  18  19
ATOM     19  C   UNL     1      12.049   6.209 -12.824  1.00  0.00     0.083 C 
BRANCH  19  20
ATOM     20  C   UNL     1      10.814   6.985 -13.269  1.00  0.00     0.233 C 
BRANCH  20  21
ATOM     21  O   UNL     1      11.229   8.248 -13.789  1.00  0.00    -0.493 OA
BRANCH  21  22
ATOM     22  C   UNL     1      10.964   9.356 -13.030  1.00  0.00     0.119 A 
ATOM     23  C   UNL     1      10.949  10.556 -13.743  1.00  0.00     0.046 A 
ATOM     24  C   UNL     1      10.711   9.370 -11.656  1.00  0.00     0.050 A 
ATOM     25  C   UNL     1      10.692  11.762 -13.094  1.00  0.00     0.004 A 
ATOM     26  C   UNL     1      10.446  10.578 -10.986  1.00  0.00    -0.042 A 
ATOM     27  C   UNL     1      10.441  11.773 -11.722  1.00  0.00     0.004 A 
BRANCH  26  28
ATOM     28  C   UNL     1      10.164  10.566  -9.492  1.00  0.00     0.013 C 
ATOM     29  C   UNL     1      11.240  11.330  -8.715  1.00  0.00     0.012 C 
ATOM     30  C   UNL     1      10.009   9.140  -8.958  1.00  0.00     0.012 C 
ENDBRANCH  26  28
ENDBRANCH  21  22
ENDBRANCH  20  21
ENDBRANCH  19  20
ENDBRANCH  18  19
ENDBRANCH   1  18
TORSDOF 14
ENDMDL
MODEL 8
REMARK VINA RESULT:    -7.827      3.448     10.562
REMARK INTER + INTRA:         -15.266
REMARK INTER:                 -14.170
REMARK INTRA:                  -1.095
REMARK UNBOUND:                -1.262
REMARK SMILES CCCC[C@@H](Sc1ccc(OCCCOc2cccc(C(C)C)c2)cc1)C(=O)O
REMARK SMILES IDX 11 1 10 2 7 3 8 4 26 5 9 6 25 7 6 8 5 9 4 10 3 11 2 12 1 13
REMARK SMILES IDX 27 14 28 15 29 16 12 18 13 19 14 20 15 21 16 22 17 23 24 24
REMARK SMILES IDX 18 25 20 26 19 27 21 28 22 29 23 30
REMARK H PARENT 29 17
ROOT
ATOM      1  O   UNL     1       8.959  10.625  -5.856  1.00  0.00    -0.493 OA
ENDROOT
BRANCH   1   2
ATOM      2  C   UNL     1       9.492  10.741  -7.109  1.00  0.00     0.119 A 
ATOM      3  C   UNL     1      10.532  10.703  -9.721  1.00  0.00     0.008 A 
ATOM      4  C   UNL     1      10.509  11.890  -8.985  1.00  0.00     0.019 A 
ATOM      5  C   UNL     1      10.051   9.529  -9.137  1.00  0.00     0.019 A 
ATOM      6  C   UNL     1       9.986  11.911  -7.687  1.00  0.00     0.047 A 
ATOM      7  C   UNL     1       9.531   9.552  -7.840  1.00  0.00     0.047 A 
BRANCH   3   8
ATOM      8  S   UNL     1      11.208  10.648 -11.367  1.00  0.00    -0.111 SA
BRANCH   8   9
ATOM      9  C   UNL     1      10.003   9.519 -12.187  1.00  0.00     0.161 C 
BRANCH   9  10
ATOM     10  C   UNL     1      10.683   8.268 -12.764  1.00  0.00     0.027 C 
BRANCH  10  11
ATOM     11  C   UNL     1      10.042   6.953 -12.299  1.00  0.00     0.001 C 
BRANCH  11  12
ATOM     12  C   UNL     1      10.737   6.402 -11.052  1.00  0.00    -0.003 C 
ATOM     13  C   UNL     1      10.755   4.879 -11.045  1.00  0.00     0.004 C 
ENDBRANCH  11  12
ENDBRANCH  10  11
ENDBRANCH   9  10
BRANCH   9  14
ATOM     14  C   UNL     1       9.331  10.290 -13.312  1.00  0.00     0.316 C 
ATOM     15  O   UNL     1       9.872  10.945 -14.192  1.00  0.00    -0.251 OA
BRANCH  14  16
ATOM     16  O   UNL     1       7.977  10.191 -13.279  1.00  0.00    -0.480 OA
ATOM     17  H   UNL     1       7.770  10.189 -12.319  1.00  0.00     0.296 HD
ENDBRANCH  14  16
ENDBRANCH   9  14
ENDBRANCH   8   9
ENDBRANCH   3   8
ENDBRANCH   1   2
BRANCH   1  18
ATOM     18  C   UNL     1       7.603  10.180  -5.770  1.00  0.00     0.233 C 
BRANCH  18  19
ATOM     19  C   UNL     1       7.180  10.248  -4.305  1.00  0.00     0.083 C 
BRANCH  19  20
ATOM     20  C   UNL     1       5.667  10.159  -4.141  1.00  0.00     0.233 C 
BRANCH  20  21
ATOM     21  O   UNL     1       5.377   9.454  -2.935  1.00  0.00    -0.493 OA
BRANCH  21  22
ATOM     22  C   UNL     1       4.673   8.286  -3.046  1.00  0.00     0.119 A 
ATOM     23  C   UNL     1       4.272   7.972  -4.346  1.00  0.00     0.046 A 
ATOM     24  C   UNL     1       4.350   7.418  -1.999  1.00  0.00     0.050 A 
ATOM     25  C   UNL     1       3.547   6.809  -4.602  1.00  0.00     0.004 A 
ATOM     26  C   UNL     1       3.622   6.239  -2.242  1.00  0.00    -0.042 A 
ATOM     27  C   UNL     1       3.225   5.947  -3.555  1.00  0.00     0.004 A 
BRANCH  26  28
ATOM     28  C   UNL     1       3.291   5.306  -1.087  1.00  0.00     0.013 C 
ATOM     29  C   UNL     1       2.980   6.089   0.192  1.00  0.00     0.012 C 
ATOM     30  C   UNL     1       4.406   4.284  -0.849  1.00  0.00     0.012 C 
ENDBRANCH  26  28
ENDBRANCH  21  22
ENDBRANCH  20  21
ENDBRANCH  19  20
ENDBRANCH  18  19
ENDBRANCH   1  18
TORSDOF 14
ENDMDL
MODEL 9
REMARK VINA RESULT:    -7.697      3.213      6.017
REMARK INTER + INTRA:         -15.034
REMARK INTER:                 -13.920
REMARK INTRA:                  -1.114
REMARK UNBOUND:                -1.262
REMARK SMILES CCCC[C@@H](Sc1ccc(OCCCOc2cccc(C(C)C)c2)cc1)C(=O)O
REMARK SMILES IDX 11 1 10 2 7 3 8 4 26 5 9 6 25 7 6 8 5 9 4 10 3 11 2 12 1 13
REMARK SMILES IDX 27 14 28 15 29 16 12 18 13 19 14 20 15 21 16 22 17 23 24 24
REMARK SMILES IDX 18 25 20 26 19 27 21 28 22 29 23 30
REMARK H PARENT 29 17
ROOT
ATOM      1  O   UNL     1       7.386   5.213  -7.205  1.00  0.00    -0.493 OA
ENDROOT
BRANCH   1   2
ATOM      2  C   UNL     1       6.483   5.805  -6.367  1.00  0.00     0.119 A 
ATOM      3  C   UNL     1       4.702   7.271  -4.759  1.00  0.00     0.008 A 
ATOM      4  C   UNL     1       4.764   5.879  -4.661  1.00  0.00     0.019 A 
ATOM      5  C   UNL     1       5.550   7.929  -5.652  1.00  0.00     0.019 A 
ATOM      6  C   UNL     1       5.645   5.148  -5.465  1.00  0.00     0.047 A 
ATOM      7  C   UNL     1       6.432   7.197  -6.452  1.00  0.00     0.047 A 
BRANCH   3   8
ATOM      8  S   UNL     1       3.601   8.223  -3.735  1.00  0.00    -0.111 SA
BRANCH   8   9
ATOM      9  C   UNL     1       3.686   7.261  -2.164  1.00  0.00     0.161 C 
BRANCH   9  10
ATOM     10  C   UNL     1       2.589   6.190  -2.082  1.00  0.00     0.027 C 
BRANCH  10  11
ATOM     11  C   UNL     1       3.100   4.827  -1.595  1.00  0.00     0.001 C 
BRANCH  11  12
ATOM     12  C   UNL     1       4.309   4.981  -0.669  1.00  0.00    -0.003 C 
ATOM     13  C   UNL     1       5.521   4.222  -1.196  1.00  0.00     0.004 C 
ENDBRANCH  11  12
ENDBRANCH  10  11
ENDBRANCH   9  10
BRANCH   9  14
ATOM     14  C   UNL     1       3.525   8.238  -1.010  1.00  0.00     0.316 C 
ATOM     15  O   UNL     1       2.481   8.637  -0.514  1.00  0.00    -0.251 OA
BRANCH  14  16
ATOM     16  O   UNL     1       4.715   8.669  -0.518  1.00  0.00    -0.480 OA
ATOM     17  H   UNL     1       4.509   8.898   0.414  1.00  0.00     0.296 HD
ENDBRANCH  14  16
ENDBRANCH   9  14
ENDBRANCH   8   9
ENDBRANCH   3   8
ENDBRANCH   1   2
BRANCH   1  18
ATOM     18  C   UNL     1       8.769   5.371  -6.878  1.00  0.00     0.233 C 
BRANCH  18  19
ATOM     19  C   UNL     1       9.376   3.979  -6.725  1.00  0.00     0.083 C 
BRANCH  19  20
ATOM     20  C   UNL     1       9.178   3.420  -5.320  1.00  0.00     0.233 C 
BRANCH  20  21
ATOM     21  O   UNL     1       9.726   2.103  -5.269  1.00  0.00    -0.493 OA
BRANCH  21  22
ATOM     22  C   UNL     1      10.554   1.809  -4.221  1.00  0.00     0.119 A 
ATOM     23  C   UNL     1       9.900   1.621  -3.001  1.00  0.00     0.046 A 
ATOM     24  C   UNL     1      11.944   1.680  -4.281  1.00  0.00     0.050 A 
ATOM     25  C   UNL     1      10.623   1.316  -1.849  1.00  0.00     0.004 A 
ATOM     26  C   UNL     1      12.688   1.368  -3.129  1.00  0.00    -0.042 A 
ATOM     27  C   UNL     1      12.010   1.190  -1.913  1.00  0.00     0.004 A 
BRANCH  26  28
ATOM     28  C   UNL     1      14.199   1.224  -3.223  1.00  0.00     0.013 C 
ATOM     29  C   UNL     1      14.905   2.558  -2.959  1.00  0.00     0.012 C 
ATOM     30  C   UNL     1      14.627   0.632  -4.568  1.00  0.00     0.012 C 
ENDBRANCH  26  28
ENDBRANCH  21  22
ENDBRANCH  20  21
ENDBRANCH  19  20
ENDBRANCH  18  19
ENDBRANCH   1  18
TORSDOF 14
ENDMDL
