REMARK VINA RESULT:    -8.511      2.942      3.785
REMARK INTER + INTRA:         -13.938
REMARK INTER:                 -13.114
REMARK INTRA:                  -0.825
REMARK UNBOUND:                -0.701
REMARK SMILES CCC(C)(C)c1ccc(OCCCOc2ccc3c(c2)O[C@@](C)(C(=O)O)CC3)c(Cl)c1
REMARK SMILES IDX 12 1 11 2 10 3 9 4 6 5 7 6 31 7 8 8 29 9 30 10 3 11 4 12
REMARK SMILES IDX 5 13 2 14 1 15 13 16 14 17 15 18 16 19 20 20 17 21 19 22
REMARK SMILES IDX 18 23 21 24 28 25 22 26 27 27 23 28 24 29 25 30 26 31
REMARK H PARENT 26 32
ROOT
ATOM      1  C   UNL     1       9.636   4.538  -6.266  1.00  0.00     0.083 C 
ENDROOT
BRANCH   1   2
ATOM      2  C   UNL     1       9.278   5.541  -7.356  1.00  0.00     0.233 C 
BRANCH   2   3
ATOM      3  O   UNL     1      10.333   5.579  -8.313  1.00  0.00    -0.492 OA
BRANCH   3   4
ATOM      4  C   UNL     1      10.337   6.601  -9.224  1.00  0.00     0.137 A 
ATOM      5  C   UNL     1      10.370   8.589 -11.272  1.00  0.00    -0.041 A 
ATOM      6  C   UNL     1      10.121   8.916  -9.926  1.00  0.00     0.008 A 
ATOM      7  C   UNL     1      10.603   7.236 -11.566  1.00  0.00     0.028 A 
ATOM      8  C   UNL     1      10.105   7.941  -8.917  1.00  0.00     0.048 A 
ATOM      9  C   UNL     1      10.587   6.259 -10.560  1.00  0.00     0.083 A 
ATOM     10  Cl  UNL     1      10.894   4.618 -11.024  1.00  0.00    -0.080 Cl
BRANCH   5  11
ATOM     11  C   UNL     1      10.374   9.688 -12.351  1.00  0.00    -0.011 C 
ATOM     12  C   UNL     1      10.868  11.006 -11.704  1.00  0.00     0.016 C 
ATOM     13  C   UNL     1       8.974   9.990 -12.940  1.00  0.00     0.016 C 
BRANCH  11  14
ATOM     14  C   UNL     1      11.343   9.329 -13.519  1.00  0.00     0.008 C 
ATOM     15  C   UNL     1      11.230  10.217 -14.755  1.00  0.00     0.005 C 
ENDBRANCH  11  14
ENDBRANCH   5  11
ENDBRANCH   3   4
ENDBRANCH   2   3
ENDBRANCH   1   2
BRANCH   1  16
ATOM     16  C   UNL     1       8.430   3.726  -5.802  1.00  0.00     0.233 C 
BRANCH  16  17
ATOM     17  O   UNL     1       8.050   4.216  -4.515  1.00  0.00    -0.493 OA
BRANCH  17  18
ATOM     18  C   UNL     1       6.817   4.798  -4.407  1.00  0.00     0.123 A 
ATOM     19  C   UNL     1       6.024   5.241  -5.464  1.00  0.00     0.047 A 
ATOM     20  C   UNL     1       6.352   4.946  -3.099  1.00  0.00     0.093 A 
ATOM     21  C   UNL     1       4.774   5.817  -5.211  1.00  0.00     0.011 A 
ATOM     22  C   UNL     1       5.110   5.527  -2.844  1.00  0.00     0.127 A 
ATOM     23  C   UNL     1       4.302   5.950  -3.901  1.00  0.00    -0.005 A 
ATOM     24  O   UNL     1       4.748   5.615  -1.527  1.00  0.00    -0.475 OA
ATOM     25  C   UNL     1       2.959   6.566  -3.644  1.00  0.00     0.044 C 
ATOM     26  C   UNL     1       3.631   6.466  -1.230  1.00  0.00     0.203 C 
ATOM     27  C   UNL     1       2.489   6.245  -2.232  1.00  0.00     0.065 C 
ATOM     28  C   UNL     1       3.164   6.056   0.173  1.00  0.00     0.069 C 
BRANCH  26  29
ATOM     29  C   UNL     1       4.062   7.943  -1.145  1.00  0.00     0.347 C 
ATOM     30  O   UNL     1       5.105   8.438  -1.538  1.00  0.00    -0.248 OA
BRANCH  29  31
ATOM     31  O   UNL     1       3.154   8.732  -0.525  1.00  0.00    -0.478 OA
ATOM     32  H   UNL     1       3.685   9.512  -0.256  1.00  0.00     0.296 HD
ENDBRANCH  29  31
ENDBRANCH  26  29
ENDBRANCH  17  18
ENDBRANCH  16  17
ENDBRANCH   1  16
TORSDOF 10
