MODEL 1
REMARK VINA RESULT:    -9.968      0.000      0.000
REMARK INTER + INTRA:         -17.761
REMARK INTER:                 -16.379
REMARK INTRA:                  -1.383
REMARK UNBOUND:                -1.383
REMARK SMILES CCCc1cc(Oc2ccc(F)c(C)c2)ccc1OCCCOc1cccc([C@H]2SC(=O)NC2=O)c1
REMARK SMILES IDX 20 1 19 2 18 3 4 4 5 5 6 6 17 7 16 8 3 9 2 10 1 11 7 12 8 13
REMARK SMILES IDX 9 14 15 15 10 16 13 17 11 18 14 19 12 20 21 21 22 22 23 23
REMARK SMILES IDX 24 24 25 25 36 26 26 27 28 28 27 29 29 30 30 31 34 32 31 33
REMARK SMILES IDX 33 34 35 35 32 36
REMARK H PARENT 33 37
ROOT
ATOM      1  C   UNL     1       8.578   4.336  -7.220  1.00  0.00     0.233 C 
ENDROOT
BRANCH   1   2
ATOM      2  O   UNL     1       9.720   5.179  -7.380  1.00  0.00    -0.493 OA
BRANCH   2   3
ATOM      3  C   UNL     1      10.118   5.470  -8.658  1.00  0.00     0.122 A 
ATOM      4  C   UNL     1      10.128   6.835  -9.002  1.00  0.00    -0.002 A 
ATOM      5  C   UNL     1      10.543   7.220 -10.288  1.00  0.00     0.054 A 
ATOM      6  C   UNL     1      10.905   6.257 -11.232  1.00  0.00     0.127 A 
ATOM      7  C   UNL     1      10.495   4.514  -9.607  1.00  0.00     0.050 A 
ATOM      8  C   UNL     1      10.892   4.908 -10.888  1.00  0.00     0.051 A 
BRANCH   4   9
ATOM      9  C   UNL     1       9.740   7.906  -8.006  1.00  0.00     0.039 C 
BRANCH   9  10
ATOM     10  C   UNL     1       9.763   9.301  -8.631  1.00  0.00     0.001 C 
ATOM     11  C   UNL     1      10.741  10.215  -7.911  1.00  0.00     0.004 C 
ENDBRANCH   9  10
ENDBRANCH   4   9
BRANCH   6  12
ATOM     12  O   UNL     1      11.352   6.564 -12.499  1.00  0.00    -0.457 OA
BRANCH  12  13
ATOM     13  C   UNL     1      11.288   7.879 -12.897  1.00  0.00     0.127 A 
ATOM     14  C   UNL     1      12.490   8.503 -13.233  1.00  0.00     0.050 A 
ATOM     15  C   UNL     1      10.071   8.559 -13.030  1.00  0.00     0.053 A 
ATOM     16  C   UNL     1      12.482   9.829 -13.661  1.00  0.00     0.043 A 
ATOM     17  C   UNL     1      10.056   9.889 -13.472  1.00  0.00    -0.012 A 
ATOM     18  C   UNL     1      11.273  10.511 -13.768  1.00  0.00     0.126 A 
ATOM     19  C   UNL     1       8.770  10.650 -13.578  1.00  0.00     0.047 C 
ATOM     20  F   UNL     1      11.286  11.789 -14.169  1.00  0.00    -0.207 F 
ENDBRANCH  12  13
ENDBRANCH   6  12
ENDBRANCH   2   3
ENDBRANCH   1   2
BRANCH   1  21
ATOM     21  C   UNL     1       7.824   4.819  -5.983  1.00  0.00     0.083 C 
BRANCH  21  22
ATOM     22  C   UNL     1       6.411   5.285  -6.309  1.00  0.00     0.233 C 
BRANCH  22  23
ATOM     23  O   UNL     1       6.386   6.711  -6.321  1.00  0.00    -0.493 OA
BRANCH  23  24
ATOM     24  C   UNL     1       5.256   7.320  -5.849  1.00  0.00     0.119 A 
ATOM     25  C   UNL     1       4.570   8.366  -6.462  1.00  0.00     0.046 A 
ATOM     26  C   UNL     1       4.789   6.814  -4.631  1.00  0.00     0.051 A 
ATOM     27  C   UNL     1       3.430   8.900  -5.860  1.00  0.00     0.004 A 
ATOM     28  C   UNL     1       3.634   7.329  -4.018  1.00  0.00    -0.021 A 
ATOM     29  C   UNL     1       2.964   8.390  -4.646  1.00  0.00     0.006 A 
BRANCH  28  30
ATOM     30  C   UNL     1       3.176   6.753  -2.696  1.00  0.00     0.176 C 
ATOM     31  S   UNL     1       3.044   4.936  -2.762  1.00  0.00    -0.046 SA
ATOM     32  C   UNL     1       4.096   7.045  -1.523  1.00  0.00     0.245 C 
ATOM     33  C   UNL     1       4.056   4.714  -1.361  1.00  0.00     0.286 C 
ATOM     34  N   UNL     1       4.487   5.905  -0.887  1.00  0.00    -0.286 N 
ATOM     35  O   UNL     1       4.464   8.157  -1.164  1.00  0.00    -0.273 OA
ATOM     36  O   UNL     1       4.333   3.626  -0.887  1.00  0.00    -0.261 OA
ATOM     37  H   UNL     1       5.093   5.941  -0.082  1.00  0.00     0.173 HD
ENDBRANCH  28  30
ENDBRANCH  23  24
ENDBRANCH  22  23
ENDBRANCH  21  22
ENDBRANCH   1  21
TORSDOF 11
ENDMDL
MODEL 2
REMARK VINA RESULT:    -9.909      4.905     11.222
REMARK INTER + INTRA:         -17.665
REMARK INTER:                 -16.654
REMARK INTRA:                  -1.010
REMARK UNBOUND:                -1.383
REMARK SMILES CCCc1cc(Oc2ccc(F)c(C)c2)ccc1OCCCOc1cccc([C@H]2SC(=O)NC2=O)c1
REMARK SMILES IDX 20 1 19 2 18 3 4 4 5 5 6 6 17 7 16 8 3 9 2 10 1 11 7 12 8 13
REMARK SMILES IDX 9 14 15 15 10 16 13 17 11 18 14 19 12 20 21 21 22 22 23 23
REMARK SMILES IDX 24 24 25 25 36 26 26 27 28 28 27 29 29 30 30 31 34 32 31 33
REMARK SMILES IDX 33 34 35 35 32 36
REMARK H PARENT 33 37
ROOT
ATOM      1  C   UNL     1       8.747  10.622  -5.648  1.00  0.00     0.233 C 
ENDROOT
BRANCH   1   2
ATOM      2  O   UNL     1       7.692   9.878  -6.261  1.00  0.00    -0.493 OA
BRANCH   2   3
ATOM      3  C   UNL     1       6.650   9.484  -5.465  1.00  0.00     0.122 A 
ATOM      4  C   UNL     1       6.162   8.183  -5.692  1.00  0.00    -0.002 A 
ATOM      5  C   UNL     1       5.107   7.694  -4.904  1.00  0.00     0.054 A 
ATOM      6  C   UNL     1       4.517   8.503  -3.930  1.00  0.00     0.127 A 
ATOM      7  C   UNL     1       6.061  10.281  -4.479  1.00  0.00     0.050 A 
ATOM      8  C   UNL     1       5.002   9.789  -3.710  1.00  0.00     0.051 A 
BRANCH   4   9
ATOM      9  C   UNL     1       6.775   7.279  -6.740  1.00  0.00     0.039 C 
BRANCH   9  10
ATOM     10  C   UNL     1       6.491   5.804  -6.456  1.00  0.00     0.001 C 
ATOM     11  C   UNL     1       7.771   4.984  -6.451  1.00  0.00     0.004 C 
ENDBRANCH   9  10
ENDBRANCH   4   9
BRANCH   6  12
ATOM     12  O   UNL     1       3.503   8.077  -3.101  1.00  0.00    -0.457 OA
BRANCH  12  13
ATOM     13  C   UNL     1       3.781   7.053  -2.226  1.00  0.00     0.127 A 
ATOM     14  C   UNL     1       2.836   6.789  -1.234  1.00  0.00     0.050 A 
ATOM     15  C   UNL     1       4.924   6.255  -2.352  1.00  0.00     0.053 A 
ATOM     16  C   UNL     1       3.057   5.749  -0.332  1.00  0.00     0.043 A 
ATOM     17  C   UNL     1       5.145   5.201  -1.455  1.00  0.00    -0.012 A 
ATOM     18  C   UNL     1       4.208   4.974  -0.443  1.00  0.00     0.126 A 
ATOM     19  C   UNL     1       6.384   4.363  -1.542  1.00  0.00     0.047 C 
ATOM     20  F   UNL     1       4.409   3.987   0.441  1.00  0.00    -0.207 F 
ENDBRANCH  12  13
ENDBRANCH   6  12
ENDBRANCH   2   3
ENDBRANCH   1   2
BRANCH   1  21
ATOM     21  C   UNL     1       9.564  11.264  -6.768  1.00  0.00     0.083 C 
BRANCH  21  22
ATOM     22  C   UNL     1      10.312  10.233  -7.604  1.00  0.00     0.233 C 
BRANCH  22  23
ATOM     23  O   UNL     1       9.363   9.398  -8.264  1.00  0.00    -0.493 OA
BRANCH  23  24
ATOM     24  C   UNL     1       9.853   8.338  -8.975  1.00  0.00     0.119 A 
ATOM     25  C   UNL     1      10.139   7.071  -8.470  1.00  0.00     0.046 A 
ATOM     26  C   UNL     1      10.080   8.601 -10.331  1.00  0.00     0.051 A 
ATOM     27  C   UNL     1      10.647   6.081  -9.312  1.00  0.00     0.004 A 
ATOM     28  C   UNL     1      10.577   7.612 -11.197  1.00  0.00    -0.021 A 
ATOM     29  C   UNL     1      10.868   6.348 -10.665  1.00  0.00     0.006 A 
BRANCH  28  30
ATOM     30  C   UNL     1      10.814   7.953 -12.652  1.00  0.00     0.176 C 
ATOM     31  S   UNL     1       9.872   9.428 -13.162  1.00  0.00    -0.046 SA
ATOM     32  C   UNL     1      12.260   8.258 -13.007  1.00  0.00     0.245 C 
ATOM     33  C   UNL     1      11.285  10.234 -13.786  1.00  0.00     0.286 C 
ATOM     34  N   UNL     1      12.389   9.475 -13.608  1.00  0.00    -0.286 N 
ATOM     35  O   UNL     1      13.217   7.526 -12.792  1.00  0.00    -0.273 OA
ATOM     36  O   UNL     1      11.265  11.337 -14.306  1.00  0.00    -0.261 OA
ATOM     37  H   UNL     1      13.291   9.811 -13.908  1.00  0.00     0.173 HD
ENDBRANCH  28  30
ENDBRANCH  23  24
ENDBRANCH  22  23
ENDBRANCH  21  22
ENDBRANCH   1  21
TORSDOF 11
ENDMDL
MODEL 3
REMARK VINA RESULT:    -9.464      5.001     11.164
REMARK INTER + INTRA:         -16.933
REMARK INTER:                 -15.670
REMARK INTRA:                  -1.263
REMARK UNBOUND:                -1.383
REMARK SMILES CCCc1cc(Oc2ccc(F)c(C)c2)ccc1OCCCOc1cccc([C@H]2SC(=O)NC2=O)c1
REMARK SMILES IDX 20 1 19 2 18 3 4 4 5 5 6 6 17 7 16 8 3 9 2 10 1 11 7 12 8 13
REMARK SMILES IDX 9 14 15 15 10 16 13 17 11 18 14 19 12 20 21 21 22 22 23 23
REMARK SMILES IDX 24 24 25 25 36 26 26 27 28 28 27 29 29 30 30 31 34 32 31 33
REMARK SMILES IDX 33 34 35 35 32 36
REMARK H PARENT 33 37
ROOT
ATOM      1  C   UNL     1       8.534  10.293  -5.799  1.00  0.00     0.233 C 
ENDROOT
BRANCH   1   2
ATOM      2  O   UNL     1       7.143  10.236  -6.121  1.00  0.00    -0.493 OA
BRANCH   2   3
ATOM      3  C   UNL     1       6.460   9.100  -5.777  1.00  0.00     0.122 A 
ATOM      4  C   UNL     1       5.748   9.155  -4.563  1.00  0.00    -0.002 A 
ATOM      5  C   UNL     1       5.004   8.038  -4.148  1.00  0.00     0.054 A 
ATOM      6  C   UNL     1       5.000   6.868  -4.910  1.00  0.00     0.127 A 
ATOM      7  C   UNL     1       6.439   7.928  -6.538  1.00  0.00     0.050 A 
ATOM      8  C   UNL     1       5.706   6.818  -6.108  1.00  0.00     0.051 A 
BRANCH   4   9
ATOM      9  C   UNL     1       5.732  10.406  -3.711  1.00  0.00     0.039 C 
BRANCH   9  10
ATOM     10  C   UNL     1       6.839  10.392  -2.657  1.00  0.00     0.001 C 
ATOM     11  C   UNL     1       6.417   9.617  -1.420  1.00  0.00     0.004 C 
ENDBRANCH   9  10
ENDBRANCH   4   9
BRANCH   6  12
ATOM     12  O   UNL     1       4.268   5.749  -4.580  1.00  0.00    -0.457 OA
BRANCH  12  13
ATOM     13  C   UNL     1       3.845   5.624  -3.277  1.00  0.00     0.127 A 
ATOM     14  C   UNL     1       2.585   6.134  -2.964  1.00  0.00     0.050 A 
ATOM     15  C   UNL     1       4.604   4.956  -2.308  1.00  0.00     0.053 A 
ATOM     16  C   UNL     1       2.097   6.018  -1.664  1.00  0.00     0.043 A 
ATOM     17  C   UNL     1       4.113   4.826  -1.002  1.00  0.00    -0.012 A 
ATOM     18  C   UNL     1       2.865   5.377  -0.696  1.00  0.00     0.126 A 
ATOM     19  C   UNL     1       4.927   4.156   0.063  1.00  0.00     0.047 C 
ATOM     20  F   UNL     1       2.386   5.286   0.552  1.00  0.00    -0.207 F 
ENDBRANCH  12  13
ENDBRANCH   6  12
ENDBRANCH   2   3
ENDBRANCH   1   2
BRANCH   1  21
ATOM     21  C   UNL     1       9.224  11.099  -6.897  1.00  0.00     0.083 C 
BRANCH  21  22
ATOM     22  C   UNL     1      10.016  10.217  -7.855  1.00  0.00     0.233 C 
BRANCH  22  23
ATOM     23  O   UNL     1       9.330   8.976  -8.012  1.00  0.00    -0.493 OA
BRANCH  23  24
ATOM     24  C   UNL     1       9.893   8.055  -8.852  1.00  0.00     0.119 A 
ATOM     25  C   UNL     1      10.333   6.782  -8.498  1.00  0.00     0.046 A 
ATOM     26  C   UNL     1      10.025   8.481 -10.178  1.00  0.00     0.051 A 
ATOM     27  C   UNL     1      10.900   5.946  -9.461  1.00  0.00     0.004 A 
ATOM     28  C   UNL     1      10.579   7.647 -11.164  1.00  0.00    -0.021 A 
ATOM     29  C   UNL     1      11.026   6.374 -10.784  1.00  0.00     0.006 A 
BRANCH  28  30
ATOM     30  C   UNL     1      10.708   8.160 -12.582  1.00  0.00     0.176 C 
ATOM     31  S   UNL     1       9.681   9.641 -12.860  1.00  0.00    -0.046 SA
ATOM     32  C   UNL     1      12.114   8.568 -12.986  1.00  0.00     0.245 C 
ATOM     33  C   UNL     1      11.018  10.574 -13.471  1.00  0.00     0.286 C 
ATOM     34  N   UNL     1      12.160   9.849 -13.449  1.00  0.00    -0.286 N 
ATOM     35  O   UNL     1      13.111   7.859 -12.916  1.00  0.00    -0.273 OA
ATOM     36  O   UNL     1      10.924  11.727 -13.857  1.00  0.00    -0.261 OA
ATOM     37  H   UNL     1      13.026  10.257 -13.763  1.00  0.00     0.173 HD
ENDBRANCH  28  30
ENDBRANCH  23  24
ENDBRANCH  22  23
ENDBRANCH  21  22
ENDBRANCH   1  21
TORSDOF 11
ENDMDL
MODEL 4
REMARK VINA RESULT:    -9.351      1.222      2.581
REMARK INTER + INTRA:         -16.748
REMARK INTER:                 -15.743
REMARK INTRA:                  -1.005
REMARK UNBOUND:                -1.383
REMARK SMILES CCCc1cc(Oc2ccc(F)c(C)c2)ccc1OCCCOc1cccc([C@H]2SC(=O)NC2=O)c1
REMARK SMILES IDX 20 1 19 2 18 3 4 4 5 5 6 6 17 7 16 8 3 9 2 10 1 11 7 12 8 13
REMARK SMILES IDX 9 14 15 15 10 16 13 17 11 18 14 19 12 20 21 21 22 22 23 23
REMARK SMILES IDX 24 24 25 25 36 26 26 27 28 28 27 29 29 30 30 31 34 32 31 33
REMARK SMILES IDX 33 34 35 35 32 36
REMARK H PARENT 33 37
ROOT
ATOM      1  C   UNL     1       9.379   4.727  -6.333  1.00  0.00     0.233 C 
ENDROOT
BRANCH   1   2
ATOM      2  O   UNL     1      10.137   4.874  -7.535  1.00  0.00    -0.493 OA
BRANCH   2   3
ATOM      3  C   UNL     1      10.033   6.063  -8.207  1.00  0.00     0.122 A 
ATOM      4  C   UNL     1      10.595   6.089  -9.497  1.00  0.00    -0.002 A 
ATOM      5  C   UNL     1      10.514   7.265 -10.262  1.00  0.00     0.054 A 
ATOM      6  C   UNL     1       9.918   8.412  -9.734  1.00  0.00     0.127 A 
ATOM      7  C   UNL     1       9.428   7.214  -7.692  1.00  0.00     0.050 A 
ATOM      8  C   UNL     1       9.365   8.382  -8.456  1.00  0.00     0.051 A 
BRANCH   4   9
ATOM      9  C   UNL     1      11.251   4.866 -10.101  1.00  0.00     0.039 C 
BRANCH   9  10
ATOM     10  C   UNL     1      10.320   4.143 -11.075  1.00  0.00     0.001 C 
ATOM     11  C   UNL     1       9.470   3.105 -10.361  1.00  0.00     0.004 C 
ENDBRANCH   9  10
ENDBRANCH   4   9
BRANCH   6  12
ATOM     12  O   UNL     1       9.775   9.588 -10.438  1.00  0.00    -0.457 OA
BRANCH  12  13
ATOM     13  C   UNL     1      10.277   9.630 -11.718  1.00  0.00     0.127 A 
ATOM     14  C   UNL     1       9.484  10.234 -12.694  1.00  0.00     0.050 A 
ATOM     15  C   UNL     1      11.555   9.153 -12.033  1.00  0.00     0.053 A 
ATOM     16  C   UNL     1       9.952  10.323 -14.004  1.00  0.00     0.043 A 
ATOM     17  C   UNL     1      12.035   9.250 -13.346  1.00  0.00    -0.012 A 
ATOM     18  C   UNL     1      11.213   9.824 -14.320  1.00  0.00     0.126 A 
ATOM     19  C   UNL     1      13.381   8.705 -13.716  1.00  0.00     0.047 C 
ATOM     20  F   UNL     1      11.640   9.906 -15.587  1.00  0.00    -0.207 F 
ENDBRANCH  12  13
ENDBRANCH   6  12
ENDBRANCH   2   3
ENDBRANCH   1   2
BRANCH   1  21
ATOM     21  C   UNL     1       7.956   4.344  -6.734  1.00  0.00     0.083 C 
BRANCH  21  22
ATOM     22  C   UNL     1       6.906   4.993  -5.841  1.00  0.00     0.233 C 
BRANCH  22  23
ATOM     23  O   UNL     1       6.279   6.052  -6.563  1.00  0.00    -0.493 OA
BRANCH  23  24
ATOM     24  C   UNL     1       5.639   7.013  -5.830  1.00  0.00     0.119 A 
ATOM     25  C   UNL     1       5.667   8.385  -6.072  1.00  0.00     0.046 A 
ATOM     26  C   UNL     1       4.907   6.524  -4.743  1.00  0.00     0.051 A 
ATOM     27  C   UNL     1       4.972   9.256  -5.232  1.00  0.00     0.004 A 
ATOM     28  C   UNL     1       4.189   7.385  -3.896  1.00  0.00    -0.021 A 
ATOM     29  C   UNL     1       4.240   8.763  -4.150  1.00  0.00     0.006 A 
BRANCH  28  30
ATOM     30  C   UNL     1       3.421   6.806  -2.727  1.00  0.00     0.176 C 
ATOM     31  S   UNL     1       3.298   4.990  -2.835  1.00  0.00    -0.046 SA
ATOM     32  C   UNL     1       4.031   7.086  -1.364  1.00  0.00     0.245 C 
ATOM     33  C   UNL     1       3.939   4.754  -1.233  1.00  0.00     0.286 C 
ATOM     34  N   UNL     1       4.249   5.939  -0.660  1.00  0.00    -0.286 N 
ATOM     35  O   UNL     1       4.308   8.192  -0.920  1.00  0.00    -0.273 OA
ATOM     36  O   UNL     1       4.086   3.661  -0.713  1.00  0.00    -0.261 OA
ATOM     37  H   UNL     1       4.643   5.967   0.267  1.00  0.00     0.173 HD
ENDBRANCH  28  30
ENDBRANCH  23  24
ENDBRANCH  22  23
ENDBRANCH  21  22
ENDBRANCH   1  21
TORSDOF 11
ENDMDL
MODEL 5
REMARK VINA RESULT:    -9.267      2.875      5.513
REMARK INTER + INTRA:         -16.610
REMARK INTER:                 -15.780
REMARK INTRA:                  -0.830
REMARK UNBOUND:                -1.383
REMARK SMILES CCCc1cc(Oc2ccc(F)c(C)c2)ccc1OCCCOc1cccc([C@H]2SC(=O)NC2=O)c1
REMARK SMILES IDX 20 1 19 2 18 3 4 4 5 5 6 6 17 7 16 8 3 9 2 10 1 11 7 12 8 13
REMARK SMILES IDX 9 14 15 15 10 16 13 17 11 18 14 19 12 20 21 21 22 22 23 23
REMARK SMILES IDX 24 24 25 25 36 26 26 27 28 28 27 29 29 30 30 31 34 32 31 33
REMARK SMILES IDX 33 34 35 35 32 36
REMARK H PARENT 33 37
ROOT
ATOM      1  C   UNL     1       9.138   4.239  -2.323  1.00  0.00     0.233 C 
ENDROOT
BRANCH   1   2
ATOM      2  O   UNL     1       8.444   3.389  -3.238  1.00  0.00    -0.493 OA
BRANCH   2   3
ATOM      3  C   UNL     1       8.728   3.526  -4.571  1.00  0.00     0.122 A 
ATOM      4  C   UNL     1       9.868   2.840  -5.030  1.00  0.00    -0.002 A 
ATOM      5  C   UNL     1      10.218   2.912  -6.388  1.00  0.00     0.054 A 
ATOM      6  C   UNL     1       9.467   3.691  -7.271  1.00  0.00     0.127 A 
ATOM      7  C   UNL     1       7.976   4.294  -5.466  1.00  0.00     0.050 A 
ATOM      8  C   UNL     1       8.341   4.370  -6.812  1.00  0.00     0.051 A 
BRANCH   4   9
ATOM      9  C   UNL     1      10.707   1.988  -4.101  1.00  0.00     0.039 C 
BRANCH   9  10
ATOM     10  C   UNL     1      10.205   0.545  -4.042  1.00  0.00     0.001 C 
ATOM     11  C   UNL     1      11.326  -0.444  -4.315  1.00  0.00     0.004 C 
ENDBRANCH   9  10
ENDBRANCH   4   9
BRANCH   6  12
ATOM     12  O   UNL     1       9.733   3.781  -8.620  1.00  0.00    -0.457 OA
BRANCH  12  13
ATOM     13  C   UNL     1       9.952   5.033  -9.145  1.00  0.00     0.127 A 
ATOM     14  C   UNL     1      10.103   6.086  -8.242  1.00  0.00     0.050 A 
ATOM     15  C   UNL     1      10.090   5.250 -10.521  1.00  0.00     0.053 A 
ATOM     16  C   UNL     1      10.346   7.373  -8.718  1.00  0.00     0.043 A 
ATOM     17  C   UNL     1      10.346   6.540 -11.005  1.00  0.00    -0.012 A 
ATOM     18  C   UNL     1      10.456   7.590 -10.088  1.00  0.00     0.126 A 
ATOM     19  C   UNL     1      10.451   6.805 -12.476  1.00  0.00     0.047 C 
ATOM     20  F   UNL     1      10.678   8.837 -10.528  1.00  0.00    -0.207 F 
ENDBRANCH  12  13
ENDBRANCH   6  12
ENDBRANCH   2   3
ENDBRANCH   1   2
BRANCH   1  21
ATOM     21  C   UNL     1       8.157   4.616  -1.215  1.00  0.00     0.083 C 
BRANCH  21  22
ATOM     22  C   UNL     1       6.733   4.174  -1.526  1.00  0.00     0.233 C 
BRANCH  22  23
ATOM     23  O   UNL     1       5.824   5.114  -0.955  1.00  0.00    -0.493 OA
BRANCH  23  24
ATOM     24  C   UNL     1       4.670   5.364  -1.646  1.00  0.00     0.119 A 
ATOM     25  C   UNL     1       3.532   4.560  -1.662  1.00  0.00     0.046 A 
ATOM     26  C   UNL     1       4.686   6.544  -2.396  1.00  0.00     0.051 A 
ATOM     27  C   UNL     1       2.424   4.935  -2.422  1.00  0.00     0.004 A 
ATOM     28  C   UNL     1       3.574   6.944  -3.157  1.00  0.00    -0.021 A 
ATOM     29  C   UNL     1       2.442   6.116  -3.167  1.00  0.00     0.006 A 
BRANCH  28  30
ATOM     30  C   UNL     1       3.646   8.225  -3.959  1.00  0.00     0.176 C 
ATOM     31  S   UNL     1       5.207   9.120  -3.662  1.00  0.00    -0.046 SA
ATOM     32  C   UNL     1       3.573   8.038  -5.465  1.00  0.00     0.245 C 
ATOM     33  C   UNL     1       5.586   9.220  -5.359  1.00  0.00     0.286 C 
ATOM     34  N   UNL     1       4.634   8.609  -6.101  1.00  0.00    -0.286 N 
ATOM     35  O   UNL     1       2.685   7.449  -6.068  1.00  0.00    -0.273 OA
ATOM     36  O   UNL     1       6.582   9.765  -5.803  1.00  0.00    -0.261 OA
ATOM     37  H   UNL     1       4.718   8.573  -7.105  1.00  0.00     0.173 HD
ENDBRANCH  28  30
ENDBRANCH  23  24
ENDBRANCH  22  23
ENDBRANCH  21  22
ENDBRANCH   1  21
TORSDOF 11
ENDMDL
MODEL 6
REMARK VINA RESULT:    -9.220      3.915      6.094
REMARK INTER + INTRA:         -16.532
REMARK INTER:                 -14.941
REMARK INTRA:                  -1.591
REMARK UNBOUND:                -1.383
REMARK SMILES CCCc1cc(Oc2ccc(F)c(C)c2)ccc1OCCCOc1cccc([C@H]2SC(=O)NC2=O)c1
REMARK SMILES IDX 20 1 19 2 18 3 4 4 5 5 6 6 17 7 16 8 3 9 2 10 1 11 7 12 8 13
REMARK SMILES IDX 9 14 15 15 10 16 13 17 11 18 14 19 12 20 21 21 22 22 23 23
REMARK SMILES IDX 24 24 25 25 36 26 26 27 28 28 27 29 29 30 30 31 34 32 31 33
REMARK SMILES IDX 33 34 35 35 32 36
REMARK H PARENT 33 37
ROOT
ATOM      1  C   UNL     1      10.091   5.187 -11.589  1.00  0.00     0.233 C 
ENDROOT
BRANCH   1   2
ATOM      2  O   UNL     1      10.952   6.317 -11.442  1.00  0.00    -0.493 OA
BRANCH   2   3
ATOM      3  C   UNL     1      10.595   7.271 -10.526  1.00  0.00     0.122 A 
ATOM      4  C   UNL     1      10.526   8.591 -11.009  1.00  0.00    -0.002 A 
ATOM      5  C   UNL     1      10.147   9.626 -10.138  1.00  0.00     0.054 A 
ATOM      6  C   UNL     1       9.881   9.358  -8.794  1.00  0.00     0.127 A 
ATOM      7  C   UNL     1      10.315   7.011  -9.180  1.00  0.00     0.050 A 
ATOM      8  C   UNL     1       9.953   8.051  -8.320  1.00  0.00     0.051 A 
BRANCH   4   9
ATOM      9  C   UNL     1      10.810   8.919 -12.459  1.00  0.00     0.039 C 
BRANCH   9  10
ATOM     10  C   UNL     1       9.780   9.893 -13.035  1.00  0.00     0.001 C 
ATOM     11  C   UNL     1      10.452  11.015 -13.809  1.00  0.00     0.004 C 
ENDBRANCH   9  10
ENDBRANCH   4   9
BRANCH   6  12
ATOM     12  O   UNL     1       9.473  10.317  -7.894  1.00  0.00    -0.457 OA
BRANCH  12  13
ATOM     13  C   UNL     1      10.317  11.380  -7.667  1.00  0.00     0.127 A 
ATOM     14  C   UNL     1      11.672  11.093  -7.502  1.00  0.00     0.050 A 
ATOM     15  C   UNL     1       9.864  12.704  -7.667  1.00  0.00     0.053 A 
ATOM     16  C   UNL     1      12.576  12.133  -7.289  1.00  0.00     0.043 A 
ATOM     17  C   UNL     1      10.769  13.755  -7.465  1.00  0.00    -0.012 A 
ATOM     18  C   UNL     1      12.118  13.448  -7.263  1.00  0.00     0.126 A 
ATOM     19  C   UNL     1      10.300  15.177  -7.415  1.00  0.00     0.047 C 
ATOM     20  F   UNL     1      13.000  14.433  -7.044  1.00  0.00    -0.207 F 
ENDBRANCH  12  13
ENDBRANCH   6  12
ENDBRANCH   2   3
ENDBRANCH   1   2
BRANCH   1  21
ATOM     21  C   UNL     1      10.669   4.058 -10.739  1.00  0.00     0.083 C 
BRANCH  21  22
ATOM     22  C   UNL     1       9.658   3.506  -9.741  1.00  0.00     0.233 C 
BRANCH  22  23
ATOM     23  O   UNL     1      10.209   3.596  -8.428  1.00  0.00    -0.493 OA
BRANCH  23  24
ATOM     24  C   UNL     1       9.340   3.851  -7.403  1.00  0.00     0.119 A 
ATOM     25  C   UNL     1       8.285   4.760  -7.428  1.00  0.00     0.046 A 
ATOM     26  C   UNL     1       9.579   3.109  -6.241  1.00  0.00     0.051 A 
ATOM     27  C   UNL     1       7.480   4.926  -6.300  1.00  0.00     0.004 A 
ATOM     28  C   UNL     1       8.769   3.252  -5.101  1.00  0.00    -0.021 A 
ATOM     29  C   UNL     1       7.720   4.181  -5.143  1.00  0.00     0.006 A 
BRANCH  28  30
ATOM     30  C   UNL     1       9.077   2.433  -3.867  1.00  0.00     0.176 C 
ATOM     31  S   UNL     1       9.918   0.871  -4.285  1.00  0.00    -0.046 SA
ATOM     32  C   UNL     1       9.983   3.118  -2.858  1.00  0.00     0.245 C 
ATOM     33  C   UNL     1      11.234   1.172  -3.185  1.00  0.00     0.286 C 
ATOM     34  N   UNL     1      11.078   2.363  -2.563  1.00  0.00    -0.286 N 
ATOM     35  O   UNL     1       9.787   4.216  -2.352  1.00  0.00    -0.273 OA
ATOM     36  O   UNL     1      12.166   0.405  -3.012  1.00  0.00    -0.261 OA
ATOM     37  H   UNL     1      11.767   2.684  -1.902  1.00  0.00     0.173 HD
ENDBRANCH  28  30
ENDBRANCH  23  24
ENDBRANCH  22  23
ENDBRANCH  21  22
ENDBRANCH   1  21
TORSDOF 11
ENDMDL
MODEL 7
REMARK VINA RESULT:    -8.998      2.576      3.795
REMARK INTER + INTRA:         -16.168
REMARK INTER:                 -16.501
REMARK INTRA:                   0.333
REMARK UNBOUND:                -1.383
REMARK SMILES CCCc1cc(Oc2ccc(F)c(C)c2)ccc1OCCCOc1cccc([C@H]2SC(=O)NC2=O)c1
REMARK SMILES IDX 20 1 19 2 18 3 4 4 5 5 6 6 17 7 16 8 3 9 2 10 1 11 7 12 8 13
REMARK SMILES IDX 9 14 15 15 10 16 13 17 11 18 14 19 12 20 21 21 22 22 23 23
REMARK SMILES IDX 24 24 25 25 36 26 26 27 28 28 27 29 29 30 30 31 34 32 31 33
REMARK SMILES IDX 33 34 35 35 32 36
REMARK H PARENT 33 37
ROOT
ATOM      1  C   UNL     1       8.028  10.528  -5.716  1.00  0.00     0.233 C 
ENDROOT
BRANCH   1   2
ATOM      2  O   UNL     1       9.405  10.677  -6.063  1.00  0.00    -0.493 OA
BRANCH   2   3
ATOM      3  C   UNL     1       9.737  10.594  -7.389  1.00  0.00     0.122 A 
ATOM      4  C   UNL     1      10.104  11.804  -8.008  1.00  0.00    -0.002 A 
ATOM      5  C   UNL     1      10.478  11.802  -9.362  1.00  0.00     0.054 A 
ATOM      6  C   UNL     1      10.449  10.618 -10.102  1.00  0.00     0.127 A 
ATOM      7  C   UNL     1       9.723   9.412  -8.136  1.00  0.00     0.050 A 
ATOM      8  C   UNL     1      10.085   9.424  -9.486  1.00  0.00     0.051 A 
BRANCH   4   9
ATOM      9  C   UNL     1      10.145  13.107  -7.238  1.00  0.00     0.039 C 
BRANCH   9  10
ATOM     10  C   UNL     1       9.545  14.262  -8.039  1.00  0.00     0.001 C 
ATOM     11  C   UNL     1      10.446  15.485  -8.009  1.00  0.00     0.004 C 
ENDBRANCH   9  10
ENDBRANCH   4   9
BRANCH   6  12
ATOM     12  O   UNL     1      10.834  10.537 -11.422  1.00  0.00    -0.457 OA
BRANCH  12  13
ATOM     13  C   UNL     1      11.137   9.293 -11.924  1.00  0.00     0.127 A 
ATOM     14  C   UNL     1      12.239   9.200 -12.775  1.00  0.00     0.050 A 
ATOM     15  C   UNL     1      10.424   8.146 -11.554  1.00  0.00     0.053 A 
ATOM     16  C   UNL     1      12.604   7.961 -13.297  1.00  0.00     0.043 A 
ATOM     17  C   UNL     1      10.794   6.896 -12.066  1.00  0.00    -0.012 A 
ATOM     18  C   UNL     1      11.877   6.826 -12.948  1.00  0.00     0.126 A 
ATOM     19  C   UNL     1      10.017   5.662 -11.721  1.00  0.00     0.047 C 
ATOM     20  F   UNL     1      12.234   5.645 -13.470  1.00  0.00    -0.207 F 
ENDBRANCH  12  13
ENDBRANCH   6  12
ENDBRANCH   2   3
ENDBRANCH   1   2
BRANCH   1  21
ATOM     21  C   UNL     1       7.932  10.573  -4.193  1.00  0.00     0.083 C 
BRANCH  21  22
ATOM     22  C   UNL     1       6.541  10.212  -3.687  1.00  0.00     0.233 C 
BRANCH  22  23
ATOM     23  O   UNL     1       5.615  10.321  -4.767  1.00  0.00    -0.493 OA
BRANCH  23  24
ATOM     24  C   UNL     1       4.733   9.290  -4.938  1.00  0.00     0.119 A 
ATOM     25  C   UNL     1       4.209   8.850  -6.152  1.00  0.00     0.046 A 
ATOM     26  C   UNL     1       4.344   8.654  -3.754  1.00  0.00     0.051 A 
ATOM     27  C   UNL     1       3.306   7.787  -6.179  1.00  0.00     0.004 A 
ATOM     28  C   UNL     1       3.447   7.573  -3.763  1.00  0.00    -0.021 A 
ATOM     29  C   UNL     1       2.923   7.153  -4.994  1.00  0.00     0.006 A 
BRANCH  28  30
ATOM     30  C   UNL     1       3.051   6.927  -2.453  1.00  0.00     0.176 C 
ATOM     31  S   UNL     1       2.863   5.121  -2.620  1.00  0.00    -0.046 SA
ATOM     32  C   UNL     1       4.046   7.123  -1.322  1.00  0.00     0.245 C 
ATOM     33  C   UNL     1       3.948   4.788  -1.300  1.00  0.00     0.286 C 
ATOM     34  N   UNL     1       4.441   5.935  -0.781  1.00  0.00    -0.286 N 
ATOM     35  O   UNL     1       4.467   8.200  -0.919  1.00  0.00    -0.273 OA
ATOM     36  O   UNL     1       4.221   3.665  -0.910  1.00  0.00    -0.261 OA
ATOM     37  H   UNL     1       5.094   5.907  -0.014  1.00  0.00     0.173 HD
ENDBRANCH  28  30
ENDBRANCH  23  24
ENDBRANCH  22  23
ENDBRANCH  21  22
ENDBRANCH   1  21
TORSDOF 11
ENDMDL
MODEL 8
REMARK VINA RESULT:    -8.934      4.201     10.337
REMARK INTER + INTRA:         -16.062
REMARK INTER:                 -15.013
REMARK INTRA:                  -1.048
REMARK UNBOUND:                -1.383
REMARK SMILES CCCc1cc(Oc2ccc(F)c(C)c2)ccc1OCCCOc1cccc([C@H]2SC(=O)NC2=O)c1
REMARK SMILES IDX 20 1 19 2 18 3 4 4 5 5 6 6 17 7 16 8 3 9 2 10 1 11 7 12 8 13
REMARK SMILES IDX 9 14 15 15 10 16 13 17 11 18 14 19 12 20 21 21 22 22 23 23
REMARK SMILES IDX 24 24 25 25 36 26 26 27 28 28 27 29 29 30 30 31 34 32 31 33
REMARK SMILES IDX 33 34 35 35 32 36
REMARK H PARENT 33 37
ROOT
ATOM      1  C   UNL     1       8.833  10.561  -5.871  1.00  0.00     0.233 C 
ENDROOT
BRANCH   1   2
ATOM      2  O   UNL     1       7.724   9.774  -6.309  1.00  0.00    -0.493 OA
BRANCH   2   3
ATOM      3  C   UNL     1       6.727   9.525  -5.403  1.00  0.00     0.122 A 
ATOM      4  C   UNL     1       6.021   8.320  -5.583  1.00  0.00    -0.002 A 
ATOM      5  C   UNL     1       4.996   7.980  -4.684  1.00  0.00     0.054 A 
ATOM      6  C   UNL     1       4.651   8.846  -3.644  1.00  0.00     0.127 A 
ATOM      7  C   UNL     1       6.382  10.379  -4.351  1.00  0.00     0.050 A 
ATOM      8  C   UNL     1       5.351  10.036  -3.472  1.00  0.00     0.051 A 
BRANCH   4   9
ATOM      9  C   UNL     1       6.366   7.359  -6.700  1.00  0.00     0.039 C 
BRANCH   9  10
ATOM     10  C   UNL     1       6.749   5.979  -6.165  1.00  0.00     0.001 C 
ATOM     11  C   UNL     1       5.599   4.995  -6.297  1.00  0.00     0.004 C 
ENDBRANCH   9  10
ENDBRANCH   4   9
BRANCH   6  12
ATOM     12  O   UNL     1       3.680   8.561  -2.709  1.00  0.00    -0.457 OA
BRANCH  12  13
ATOM     13  C   UNL     1       3.846   7.433  -1.940  1.00  0.00     0.127 A 
ATOM     14  C   UNL     1       2.892   7.189  -0.951  1.00  0.00     0.050 A 
ATOM     15  C   UNL     1       4.884   6.521  -2.169  1.00  0.00     0.053 A 
ATOM     16  C   UNL     1       3.000   6.051  -0.155  1.00  0.00     0.043 A 
ATOM     17  C   UNL     1       4.990   5.369  -1.379  1.00  0.00    -0.012 A 
ATOM     18  C   UNL     1       4.048   5.159  -0.368  1.00  0.00     0.126 A 
ATOM     19  C   UNL     1       6.118   4.402  -1.575  1.00  0.00     0.047 C 
ATOM     20  F   UNL     1       4.142   4.076   0.416  1.00  0.00    -0.207 F 
ENDBRANCH  12  13
ENDBRANCH   6  12
ENDBRANCH   2   3
ENDBRANCH   1   2
BRANCH   1  21
ATOM     21  C   UNL     1       9.447  11.213  -7.107  1.00  0.00     0.083 C 
BRANCH  21  22
ATOM     22  C   UNL     1      10.206  10.216  -7.974  1.00  0.00     0.233 C 
BRANCH  22  23
ATOM     23  O   UNL     1       9.755  10.340  -9.322  1.00  0.00    -0.493 OA
BRANCH  23  24
ATOM     24  C   UNL     1      10.021   9.298 -10.166  1.00  0.00     0.119 A 
ATOM     25  C   UNL     1       9.988   9.340 -11.558  1.00  0.00     0.046 A 
ATOM     26  C   UNL     1      10.342   8.097  -9.524  1.00  0.00     0.051 A 
ATOM     27  C   UNL     1      10.273   8.192 -12.299  1.00  0.00     0.004 A 
ATOM     28  C   UNL     1      10.647   6.934 -10.254  1.00  0.00    -0.021 A 
ATOM     29  C   UNL     1      10.598   6.996 -11.654  1.00  0.00     0.006 A 
BRANCH  28  30
ATOM     30  C   UNL     1      10.978   5.659  -9.510  1.00  0.00     0.176 C 
ATOM     31  S   UNL     1      10.195   5.613  -7.865  1.00  0.00    -0.046 SA
ATOM     32  C   UNL     1      10.529   4.384 -10.203  1.00  0.00     0.245 C 
ATOM     33  C   UNL     1       9.454   4.064  -8.153  1.00  0.00     0.286 C 
ATOM     34  N   UNL     1       9.744   3.616  -9.396  1.00  0.00    -0.286 N 
ATOM     35  O   UNL     1      10.815   4.054 -11.347  1.00  0.00    -0.273 OA
ATOM     36  O   UNL     1       8.765   3.476  -7.336  1.00  0.00    -0.261 OA
ATOM     37  H   UNL     1       9.377   2.734  -9.716  1.00  0.00     0.173 HD
ENDBRANCH  28  30
ENDBRANCH  23  24
ENDBRANCH  22  23
ENDBRANCH  21  22
ENDBRANCH   1  21
TORSDOF 11
ENDMDL
MODEL 9
REMARK VINA RESULT:    -8.706      2.073      2.797
REMARK INTER + INTRA:         -15.688
REMARK INTER:                 -14.218
REMARK INTRA:                  -1.470
REMARK UNBOUND:                -1.383
REMARK SMILES CCCc1cc(Oc2ccc(F)c(C)c2)ccc1OCCCOc1cccc([C@H]2SC(=O)NC2=O)c1
REMARK SMILES IDX 20 1 19 2 18 3 4 4 5 5 6 6 17 7 16 8 3 9 2 10 1 11 7 12 8 13
REMARK SMILES IDX 9 14 15 15 10 16 13 17 11 18 14 19 12 20 21 21 22 22 23 23
REMARK SMILES IDX 24 24 25 25 36 26 26 27 28 28 27 29 29 30 30 31 34 32 31 33
REMARK SMILES IDX 33 34 35 35 32 36
REMARK H PARENT 33 37
ROOT
ATOM      1  C   UNL     1       8.634   4.446  -6.666  1.00  0.00     0.233 C 
ENDROOT
BRANCH   1   2
ATOM      2  O   UNL     1       9.605   5.456  -6.944  1.00  0.00    -0.493 OA
BRANCH   2   3
ATOM      3  C   UNL     1       9.999   5.614  -8.247  1.00  0.00     0.122 A 
ATOM      4  C   UNL     1      10.040   6.939  -8.719  1.00  0.00    -0.002 A 
ATOM      5  C   UNL     1      10.454   7.189 -10.038  1.00  0.00     0.054 A 
ATOM      6  C   UNL     1      10.783   6.132 -10.889  1.00  0.00     0.127 A 
ATOM      7  C   UNL     1      10.343   4.563  -9.103  1.00  0.00     0.050 A 
ATOM      8  C   UNL     1      10.740   4.823 -10.417  1.00  0.00     0.051 A 
BRANCH   4   9
ATOM      9  C   UNL     1       9.688   8.110  -7.827  1.00  0.00     0.039 C 
BRANCH   9  10
ATOM     10  C   UNL     1       9.833   9.446  -8.556  1.00  0.00     0.001 C 
ATOM     11  C   UNL     1      10.743  10.396  -7.796  1.00  0.00     0.004 C 
ENDBRANCH   9  10
ENDBRANCH   4   9
BRANCH   6  12
ATOM     12  O   UNL     1      11.228   6.307 -12.181  1.00  0.00    -0.457 OA
BRANCH  12  13
ATOM     13  C   UNL     1      11.267   7.589 -12.675  1.00  0.00     0.127 A 
ATOM     14  C   UNL     1      12.503   8.065 -13.115  1.00  0.00     0.050 A 
ATOM     15  C   UNL     1      10.115   8.375 -12.802  1.00  0.00     0.053 A 
ATOM     16  C   UNL     1      12.597   9.352 -13.643  1.00  0.00     0.043 A 
ATOM     17  C   UNL     1      10.202   9.665 -13.343  1.00  0.00    -0.012 A 
ATOM     18  C   UNL     1      11.454  10.140 -13.744  1.00  0.00     0.126 A 
ATOM     19  C   UNL     1       8.991  10.540 -13.446  1.00  0.00     0.047 C 
ATOM     20  F   UNL     1      11.567  11.379 -14.242  1.00  0.00    -0.207 F 
ENDBRANCH  12  13
ENDBRANCH   6  12
ENDBRANCH   2   3
ENDBRANCH   1   2
BRANCH   1  21
ATOM     21  C   UNL     1       7.285   4.959  -7.165  1.00  0.00     0.083 C 
BRANCH  21  22
ATOM     22  C   UNL     1       6.560   5.796  -6.119  1.00  0.00     0.233 C 
BRANCH  22  23
ATOM     23  O   UNL     1       5.363   5.121  -5.735  1.00  0.00    -0.493 OA
BRANCH  23  24
ATOM     24  C   UNL     1       4.637   5.669  -4.715  1.00  0.00     0.119 A 
ATOM     25  C   UNL     1       3.619   5.041  -4.001  1.00  0.00     0.046 A 
ATOM     26  C   UNL     1       4.981   6.989  -4.400  1.00  0.00     0.051 A 
ATOM     27  C   UNL     1       2.952   5.727  -2.985  1.00  0.00     0.004 A 
ATOM     28  C   UNL     1       4.330   7.690  -3.371  1.00  0.00    -0.021 A 
ATOM     29  C   UNL     1       3.301   7.043  -2.672  1.00  0.00     0.006 A 
BRANCH  28  30
ATOM     30  C   UNL     1       4.733   9.119  -3.078  1.00  0.00     0.176 C 
ATOM     31  S   UNL     1       6.276   9.200  -2.111  1.00  0.00    -0.046 SA
ATOM     32  C   UNL     1       4.986   9.973  -4.308  1.00  0.00     0.245 C 
ATOM     33  C   UNL     1       7.044  10.277  -3.244  1.00  0.00     0.286 C 
ATOM     34  N   UNL     1       6.224  10.543  -4.286  1.00  0.00    -0.286 N 
ATOM     35  O   UNL     1       4.198  10.150  -5.229  1.00  0.00    -0.273 OA
ATOM     36  O   UNL     1       8.172  10.720  -3.105  1.00  0.00    -0.261 OA
ATOM     37  H   UNL     1       6.531  11.145  -5.033  1.00  0.00     0.173 HD
ENDBRANCH  28  30
ENDBRANCH  23  24
ENDBRANCH  22  23
ENDBRANCH  21  22
ENDBRANCH   1  21
TORSDOF 11
ENDMDL
