REMARK SMILES N[C@@H](C(=O)N1CCC[C@H]1C(=O)NC[C@H]1CC[C@@H](N)CC1)C(C1CCCCC1)C1CCCCC1
REMARK SMILES IDX 9 1 8 2 7 3 6 4 5 5 10 6 12 7 11 8 13 10 14 11 17 12 16 13
REMARK SMILES IDX 19 14 15 15 20 16 18 17 3 20 4 21 2 22 1 23 21 26 22 27
REMARK SMILES IDX 23 28 27 29 24 30 26 31 25 32 28 33 29 34 33 35 30 36 32 37
REMARK SMILES IDX 31 38
REMARK H PARENT 12 9 18 18 18 19 1 24 1 25
REMARK INDEX MAP 10 1 11 2 12 3 13 4 14 5 8 6 7 7 9 8 44 9 6 10 5 11 2 12 3 13
REMARK INDEX MAP 33 14 4 15 32 16 1 17 34 18 35 19 15 20 16 21 17 22 18 23
REMARK INDEX MAP 53 24 54 25 19 26 20 27 21 28 25 29 22 30 24 31 23 32 26 33
REMARK INDEX MAP 27 34 31 35 28 36 30 37 29 38
ROOT
ATOM      1  C   UNL     1     128.784 -17.762 162.325  1.00  0.00     0.174 C 
ATOM      2  C   UNL     1     127.824 -18.444 161.336  1.00  0.00     0.037 C 
ATOM      3  C   UNL     1     127.366 -19.692 162.082  1.00  0.00     0.024 C 
ATOM      4  C   UNL     1     128.628 -20.123 162.804  1.00  0.00     0.120 C 
ATOM      5  N   UNL     1     129.313 -18.883 163.123  1.00  0.00    -0.329 N 
ENDROOT
BRANCH   1   6
ATOM      6  C   UNL     1     128.017 -16.670 163.090  1.00  0.00     0.242 C 
ATOM      7  N   UNL     1     127.994 -15.425 162.496  1.00  0.00    -0.354 N 
ATOM      8  O   UNL     1     127.588 -16.864 164.226  1.00  0.00    -0.273 OA
ATOM      9  H   UNL     1     128.300 -15.326 161.518  1.00  0.00     0.163 HD
BRANCH   7  10
ATOM     10  C   UNL     1     127.546 -14.252 163.225  1.00  0.00     0.119 C 
BRANCH  10  11
ATOM     11  C   UNL     1     126.135 -13.789 162.815  1.00  0.00     0.008 C 
ATOM     12  C   UNL     1     124.603 -12.860 165.211  1.00  0.00     0.050 C 
ATOM     13  C   UNL     1     125.710 -11.995 164.603  1.00  0.00     0.019 C 
ATOM     14  C   UNL     1     124.880 -14.349 164.974  1.00  0.00     0.019 C 
ATOM     15  C   UNL     1     125.908 -12.300 163.116  1.00  0.00     0.007 C 
ATOM     16  C   UNL     1     125.047 -14.645 163.484  1.00  0.00     0.007 C 
BRANCH  12  17
ATOM     17  N   UNL     1     124.483 -12.583 166.641  1.00  0.00    -0.328 NA
ATOM     18  H   UNL     1     124.832 -13.390 167.178  1.00  0.00     0.119 HD
ATOM     19  H   UNL     1     125.038 -11.748 166.877  1.00  0.00     0.119 HD
ENDBRANCH  12  17
ENDBRANCH  10  11
ENDBRANCH   7  10
ENDBRANCH   1   6
BRANCH   5  20
ATOM     20  C   UNL     1     130.544 -18.930 163.763  1.00  0.00     0.240 C 
ATOM     21  O   UNL     1     131.550 -19.287 163.149  1.00  0.00    -0.273 OA
BRANCH  20  22
ATOM     22  C   UNL     1     130.598 -18.502 165.264  1.00  0.00     0.145 C 
BRANCH  22  23
ATOM     23  N   UNL     1     129.239 -18.743 165.805  1.00  0.00    -0.320 NA
ATOM     24  H   UNL     1     129.273 -18.737 166.834  1.00  0.00     0.119 HD
ATOM     25  H   UNL     1     128.603 -18.002 165.478  1.00  0.00     0.119 HD
ENDBRANCH  22  23
BRANCH  22  26
ATOM     26  C   UNL     1     131.074 -17.011 165.511  1.00  0.00     0.022 C 
BRANCH  26  27
ATOM     27  C   UNL     1     131.469 -16.260 164.178  1.00  0.00    -0.006 C 
ATOM     28  C   UNL     1     131.037 -14.786 164.099  1.00  0.00     0.004 C 
ATOM     29  C   UNL     1     132.936 -16.402 163.740  1.00  0.00     0.004 C 
ATOM     30  C   UNL     1     131.272 -14.197 162.707  1.00  0.00     0.000 C 
ATOM     31  C   UNL     1     133.168 -15.813 162.347  1.00  0.00     0.000 C 
ATOM     32  C   UNL     1     132.722 -14.359 162.267  1.00  0.00     0.000 C 
ENDBRANCH  26  27
BRANCH  26  33
ATOM     33  C   UNL     1     132.106 -16.954 166.705  1.00  0.00    -0.006 C 
ATOM     34  C   UNL     1     133.224 -18.006 166.660  1.00  0.00     0.004 C 
ATOM     35  C   UNL     1     132.684 -15.547 166.970  1.00  0.00     0.004 C 
ATOM     36  C   UNL     1     134.072 -17.976 167.934  1.00  0.00     0.000 C 
ATOM     37  C   UNL     1     133.539 -15.527 168.239  1.00  0.00     0.000 C 
ATOM     38  C   UNL     1     134.640 -16.584 168.197  1.00  0.00     0.000 C 
ENDBRANCH  26  33
ENDBRANCH  22  26
ENDBRANCH  20  22
ENDBRANCH   5  20
TORSDOF 10
