REMARK SMILES CC(C)S(=O)(=O)N1CC[C@@H](N(C)c2ncnc3[nH]ccc23)C1
REMARK SMILES IDX 7 1 8 2 9 3 10 4 22 5 4 6 5 7 6 8 2 9 1 10 3 11 11 12 12 13
REMARK SMILES IDX 13 14 14 15 21 16 15 17 20 18 17 19 16 20 19 21 18 22
REMARK H PARENT 18 23
REMARK INDEX MAP 7 1 8 2 9 3 10 4 22 5 4 6 5 7 6 8 2 9 1 10 3 11 11 12 12 13
REMARK INDEX MAP 13 14 14 15 21 16 15 17 20 18 17 19 16 20 19 21 18 22 39 23
ROOT
ATOM      1  N   UNL     1       4.663 -20.826  21.414  1.00  0.00    -0.200 NA
ATOM      2  C   UNL     1       4.481 -21.423  20.060  1.00  0.00     0.104 C 
ATOM      3  C   UNL     1       5.297 -22.703  20.057  1.00  0.00     0.043 C 
ATOM      4  C   UNL     1       5.166 -23.186  21.492  1.00  0.00     0.100 C 
ATOM      5  C   UNL     1       5.270 -21.879  22.295  1.00  0.00     0.127 C 
ENDROOT
BRANCH   1   6
ATOM      6  S   UNL     1       5.424 -19.316  21.504  1.00  0.00     0.216 S 
ATOM      7  O   UNL     1       6.071 -19.096  20.229  1.00  0.00    -0.212 OA
ATOM      8  O   UNL     1       6.186 -19.291  22.735  1.00  0.00    -0.212 OA
BRANCH   6   9
ATOM      9  C   UNL     1       4.028 -18.176  21.666  1.00  0.00     0.118 C 
ATOM     10  C   UNL     1       2.855 -18.895  22.328  1.00  0.00     0.026 C 
ATOM     11  C   UNL     1       3.616 -17.601  20.317  1.00  0.00     0.026 C 
ENDBRANCH   6   9
ENDBRANCH   1   6
BRANCH   4  12
ATOM     12  N   UNL     1       6.162 -24.208  21.831  1.00  0.00    -0.355 N 
ATOM     13  C   UNL     1       7.571 -24.003  21.554  1.00  0.00     0.145 C 
BRANCH  12  14
ATOM     14  C   UNL     1       5.699 -25.459  22.228  1.00  0.00     0.141 A 
ATOM     15  N   UNL     1       4.477 -25.863  21.771  1.00  0.00    -0.219 NA
ATOM     16  C   UNL     1       6.385 -26.371  23.073  1.00  0.00     0.061 A 
ATOM     17  C   UNL     1       3.996 -27.074  22.106  1.00  0.00     0.226 A 
ATOM     18  C   UNL     1       7.607 -26.407  23.814  1.00  0.00     0.033 A 
ATOM     19  C   UNL     1       5.759 -27.585  23.332  1.00  0.00     0.142 A 
ATOM     20  N   UNL     1       4.570 -28.004  22.878  1.00  0.00    -0.218 NA
ATOM     21  C   UNL     1       7.690 -27.622  24.462  1.00  0.00     0.085 A 
ATOM     22  N   UNL     1       6.558 -28.328  24.155  1.00  0.00    -0.346 N 
ATOM     23  H   UNL     1       6.341 -29.276  24.493  1.00  0.00     0.167 HD
ENDBRANCH  12  14
ENDBRANCH   4  12
TORSDOF 4
