MODEL 1
REMARK VINA RESULT:    -9.107      0.000      0.000
REMARK INTER + INTRA:         -13.378
REMARK INTER:                 -13.632
REMARK INTRA:                   0.254
REMARK UNBOUND:                 0.254
REMARK SMILES Cc1oc(-c2ccccc2)nc1CCOc1ccc(C[C@@]2(C(=O)O)C=CC=CO2)cc1
REMARK SMILES IDX 16 1 17 2 18 3 19 4 30 5 31 6 15 7 14 8 13 9 12 10 2 11 3 12
REMARK SMILES IDX 4 13 11 14 1 15 5 16 6 17 10 18 7 19 9 20 8 21 20 22 21 23
REMARK SMILES IDX 25 24 29 25 26 26 28 27 27 28 22 29 23 30 24 31
REMARK H PARENT 24 32
ROOT
ATOM      1  C   UNL     1      -8.779  -8.391 -22.179  1.00  0.00     0.119 A 
ATOM      2  C   UNL     1      -8.554  -7.617 -23.318  1.00  0.00     0.047 A 
ATOM      3  C   UNL     1      -9.484  -7.591 -24.361  1.00  0.00     0.008 A 
ATOM      4  C   UNL     1     -10.660  -8.343 -24.277  1.00  0.00    -0.043 A 
ATOM      5  C   UNL     1     -10.883  -9.120 -23.132  1.00  0.00     0.008 A 
ATOM      6  C   UNL     1      -9.950  -9.144 -22.090  1.00  0.00     0.047 A 
ENDROOT
BRANCH   1   7
ATOM      7  O   UNL     1      -7.791  -8.324 -21.238  1.00  0.00    -0.493 OA
BRANCH   7   8
ATOM      8  C   UNL     1      -6.722  -7.403 -21.477  1.00  0.00     0.236 C 
BRANCH   8   9
ATOM      9  C   UNL     1      -6.579  -6.490 -20.260  1.00  0.00     0.101 C 
BRANCH   9  10
ATOM     10  C   UNL     1      -5.422  -5.562 -20.380  1.00  0.00     0.086 A 
ATOM     11  C   UNL     1      -4.089  -5.771 -20.098  1.00  0.00     0.125 A 
ATOM     12  O   UNL     1      -3.417  -4.613 -20.364  1.00  0.00    -0.441 OA
ATOM     13  C   UNL     1      -4.387  -3.747 -20.802  1.00  0.00     0.226 A 
ATOM     14  N   UNL     1      -5.599  -4.271 -20.827  1.00  0.00    -0.214 NA
ATOM     15  C   UNL     1      -3.298  -6.903 -19.587  1.00  0.00     0.090 C 
BRANCH  13  16
ATOM     16  C   UNL     1      -3.954  -2.402 -21.167  1.00  0.00     0.037 A 
ATOM     17  C   UNL     1      -4.482  -1.294 -20.484  1.00  0.00     0.014 A 
ATOM     18  C   UNL     1      -3.019  -2.171 -22.188  1.00  0.00     0.014 A 
ATOM     19  C   UNL     1      -4.088   0.005 -20.812  1.00  0.00     0.001 A 
ATOM     20  C   UNL     1      -2.623  -0.871 -22.517  1.00  0.00     0.001 A 
ATOM     21  C   UNL     1      -3.159   0.216 -21.828  1.00  0.00     0.000 A 
ENDBRANCH  13  16
ENDBRANCH   9  10
ENDBRANCH   8   9
ENDBRANCH   7   8
ENDBRANCH   1   7
BRANCH   4  22
ATOM     22  C   UNL     1     -11.676  -8.313 -25.401  1.00  0.00     0.101 C 
BRANCH  22  23
ATOM     23  C   UNL     1     -11.166  -7.739 -26.747  1.00  0.00     0.226 C 
ATOM     24  C   UNL     1      -9.645  -7.742 -26.839  1.00  0.00     0.033 C 
ATOM     25  O   UNL     1     -11.841  -8.434 -27.825  1.00  0.00    -0.479 OA
ATOM     26  C   UNL     1      -8.992  -8.318 -27.854  1.00  0.00     0.004 C 
ATOM     27  C   UNL     1     -11.084  -8.985 -28.822  1.00  0.00     0.189 C 
ATOM     28  C   UNL     1      -9.750  -8.960 -28.887  1.00  0.00     0.038 C 
BRANCH  23  29
ATOM     29  C   UNL     1     -11.630  -6.262 -26.779  1.00  0.00     0.352 C 
ATOM     30  O   UNL     1     -12.275  -5.675 -25.919  1.00  0.00    -0.247 OA
BRANCH  29  31
ATOM     31  O   UNL     1     -11.329  -5.609 -27.925  1.00  0.00    -0.478 OA
ATOM     32  H   UNL     1     -10.883  -4.791 -27.624  1.00  0.00     0.296 HD
ENDBRANCH  29  31
ENDBRANCH  23  29
ENDBRANCH  22  23
ENDBRANCH   4  22
TORSDOF 9
ENDMDL
MODEL 2
REMARK VINA RESULT:    -9.023      2.665      5.003
REMARK INTER + INTRA:         -13.253
REMARK INTER:                 -12.019
REMARK INTRA:                  -1.234
REMARK UNBOUND:                 0.254
REMARK SMILES Cc1oc(-c2ccccc2)nc1CCOc1ccc(C[C@@]2(C(=O)O)C=CC=CO2)cc1
REMARK SMILES IDX 16 1 17 2 18 3 19 4 30 5 31 6 15 7 14 8 13 9 12 10 2 11 3 12
REMARK SMILES IDX 4 13 11 14 1 15 5 16 6 17 10 18 7 19 9 20 8 21 20 22 21 23
REMARK SMILES IDX 25 24 29 25 26 26 28 27 27 28 22 29 23 30 24 31
REMARK H PARENT 24 32
ROOT
ATOM      1  C   UNL     1      -9.395  -8.171 -25.505  1.00  0.00     0.119 A 
ATOM      2  C   UNL     1     -10.408  -8.491 -26.410  1.00  0.00     0.047 A 
ATOM      3  C   UNL     1     -10.104  -8.855 -27.725  1.00  0.00     0.008 A 
ATOM      4  C   UNL     1      -8.774  -8.906 -28.155  1.00  0.00    -0.043 A 
ATOM      5  C   UNL     1      -7.759  -8.583 -27.243  1.00  0.00     0.008 A 
ATOM      6  C   UNL     1      -8.067  -8.218 -25.927  1.00  0.00     0.047 A 
ENDROOT
BRANCH   1   7
ATOM      7  O   UNL     1      -9.832  -7.834 -24.255  1.00  0.00    -0.493 OA
BRANCH   7   8
ATOM      8  C   UNL     1     -10.702  -8.759 -23.596  1.00  0.00     0.236 C 
BRANCH   8   9
ATOM      9  C   UNL     1     -10.239  -8.922 -22.148  1.00  0.00     0.101 C 
BRANCH   9  10
ATOM     10  C   UNL     1      -8.795  -8.608 -21.976  1.00  0.00     0.086 A 
ATOM     11  C   UNL     1      -7.683  -9.339 -22.334  1.00  0.00     0.125 A 
ATOM     12  O   UNL     1      -6.577  -8.632 -21.960  1.00  0.00    -0.441 OA
ATOM     13  C   UNL     1      -7.078  -7.490 -21.389  1.00  0.00     0.226 A 
ATOM     14  N   UNL     1      -8.397  -7.433 -21.376  1.00  0.00    -0.214 NA
ATOM     15  C   UNL     1      -7.458 -10.645 -22.976  1.00  0.00     0.090 C 
BRANCH  13  16
ATOM     16  C   UNL     1      -6.106  -6.523 -20.885  1.00  0.00     0.037 A 
ATOM     17  C   UNL     1      -4.776  -6.921 -20.678  1.00  0.00     0.014 A 
ATOM     18  C   UNL     1      -6.457  -5.195 -20.598  1.00  0.00     0.014 A 
ATOM     19  C   UNL     1      -3.824  -6.018 -20.196  1.00  0.00     0.001 A 
ATOM     20  C   UNL     1      -5.505  -4.291 -20.117  1.00  0.00     0.001 A 
ATOM     21  C   UNL     1      -4.190  -4.704 -19.916  1.00  0.00     0.000 A 
ENDBRANCH  13  16
ENDBRANCH   9  10
ENDBRANCH   8   9
ENDBRANCH   7   8
ENDBRANCH   1   7
BRANCH   4  22
ATOM     22  C   UNL     1      -8.437  -9.306 -29.576  1.00  0.00     0.101 C 
BRANCH  22  23
ATOM     23  C   UNL     1      -9.122  -8.470 -30.686  1.00  0.00     0.226 C 
ATOM     24  C   UNL     1     -10.468  -9.052 -31.102  1.00  0.00     0.033 C 
ATOM     25  O   UNL     1      -9.166  -7.088 -30.255  1.00  0.00    -0.479 OA
ATOM     26  C   UNL     1     -11.593  -8.328 -31.096  1.00  0.00     0.004 C 
ATOM     27  C   UNL     1     -10.365  -6.429 -30.292  1.00  0.00     0.189 C 
ATOM     28  C   UNL     1     -11.529  -6.959 -30.676  1.00  0.00     0.038 C 
BRANCH  23  29
ATOM     29  C   UNL     1      -8.183  -8.549 -31.914  1.00  0.00     0.352 C 
ATOM     30  O   UNL     1      -8.404  -9.121 -32.974  1.00  0.00    -0.247 OA
BRANCH  29  31
ATOM     31  O   UNL     1      -6.974  -7.969 -31.729  1.00  0.00    -0.478 OA
ATOM     32  H   UNL     1      -6.582  -7.941 -32.626  1.00  0.00     0.296 HD
ENDBRANCH  29  31
ENDBRANCH  23  29
ENDBRANCH  22  23
ENDBRANCH   4  22
TORSDOF 9
ENDMDL
MODEL 3
REMARK VINA RESULT:    -8.976      6.463      8.887
REMARK INTER + INTRA:         -13.182
REMARK INTER:                 -10.635
REMARK INTRA:                  -2.547
REMARK UNBOUND:                 0.254
REMARK SMILES Cc1oc(-c2ccccc2)nc1CCOc1ccc(C[C@@]2(C(=O)O)C=CC=CO2)cc1
REMARK SMILES IDX 16 1 17 2 18 3 19 4 30 5 31 6 15 7 14 8 13 9 12 10 2 11 3 12
REMARK SMILES IDX 4 13 11 14 1 15 5 16 6 17 10 18 7 19 9 20 8 21 20 22 21 23
REMARK SMILES IDX 25 24 29 25 26 26 28 27 27 28 22 29 23 30 24 31
REMARK H PARENT 24 32
ROOT
ATOM      1  C   UNL     1      -9.091  -8.752 -27.358  1.00  0.00     0.119 A 
ATOM      2  C   UNL     1     -10.317  -8.854 -28.016  1.00  0.00     0.047 A 
ATOM      3  C   UNL     1     -11.480  -8.327 -27.448  1.00  0.00     0.008 A 
ATOM      4  C   UNL     1     -11.431  -7.686 -26.205  1.00  0.00    -0.043 A 
ATOM      5  C   UNL     1     -10.198  -7.586 -25.547  1.00  0.00     0.008 A 
ATOM      6  C   UNL     1      -9.036  -8.115 -26.119  1.00  0.00     0.047 A 
ENDROOT
BRANCH   1   7
ATOM      7  O   UNL     1      -8.036  -9.309 -28.026  1.00  0.00    -0.493 OA
BRANCH   7   8
ATOM      8  C   UNL     1      -7.279  -8.450 -28.884  1.00  0.00     0.236 C 
BRANCH   8   9
ATOM      9  C   UNL     1      -7.441  -8.930 -30.326  1.00  0.00     0.101 C 
BRANCH   9  10
ATOM     10  C   UNL     1      -8.063  -7.900 -31.200  1.00  0.00     0.086 A 
ATOM     11  C   UNL     1      -7.970  -7.727 -32.565  1.00  0.00     0.125 A 
ATOM     12  O   UNL     1      -8.717  -6.635 -32.901  1.00  0.00    -0.441 OA
ATOM     13  C   UNL     1      -9.236  -6.195 -31.710  1.00  0.00     0.226 A 
ATOM     14  N   UNL     1      -8.872  -6.920 -30.668  1.00  0.00    -0.214 NA
ATOM     15  C   UNL     1      -7.265  -8.419 -33.657  1.00  0.00     0.090 C 
BRANCH  13  16
ATOM     16  C   UNL     1     -10.095  -5.015 -31.760  1.00  0.00     0.037 A 
ATOM     17  C   UNL     1      -9.671  -3.823 -31.152  1.00  0.00     0.014 A 
ATOM     18  C   UNL     1     -11.344  -5.029 -32.400  1.00  0.00     0.014 A 
ATOM     19  C   UNL     1     -10.471  -2.678 -31.183  1.00  0.00     0.001 A 
ATOM     20  C   UNL     1     -12.145  -3.884 -32.431  1.00  0.00     0.001 A 
ATOM     21  C   UNL     1     -11.708  -2.710 -31.822  1.00  0.00     0.000 A 
ENDBRANCH  13  16
ENDBRANCH   9  10
ENDBRANCH   8   9
ENDBRANCH   7   8
ENDBRANCH   1   7
BRANCH   4  22
ATOM     22  C   UNL     1     -12.687  -7.106 -25.588  1.00  0.00     0.101 C 
BRANCH  22  23
ATOM     23  C   UNL     1     -13.345  -5.945 -26.375  1.00  0.00     0.226 C 
ATOM     24  C   UNL     1     -12.316  -4.973 -26.941  1.00  0.00     0.033 C 
ATOM     25  O   UNL     1     -14.247  -6.512 -27.357  1.00  0.00    -0.479 OA
ATOM     26  C   UNL     1     -12.275  -4.651 -28.238  1.00  0.00     0.004 C 
ATOM     27  C   UNL     1     -14.130  -6.114 -28.660  1.00  0.00     0.189 C 
ATOM     28  C   UNL     1     -13.227  -5.247 -29.127  1.00  0.00     0.038 C 
BRANCH  23  29
ATOM     29  C   UNL     1     -14.201  -5.168 -25.346  1.00  0.00     0.352 C 
ATOM     30  O   UNL     1     -14.246  -3.954 -25.194  1.00  0.00    -0.247 OA
BRANCH  29  31
ATOM     31  O   UNL     1     -14.906  -5.955 -24.500  1.00  0.00    -0.478 OA
ATOM     32  H   UNL     1     -15.833  -5.663 -24.619  1.00  0.00     0.296 HD
ENDBRANCH  29  31
ENDBRANCH  23  29
ENDBRANCH  22  23
ENDBRANCH   4  22
TORSDOF 9
ENDMDL
MODEL 4
REMARK VINA RESULT:    -8.963      3.524      6.276
REMARK INTER + INTRA:         -13.163
REMARK INTER:                 -12.034
REMARK INTRA:                  -1.129
REMARK UNBOUND:                 0.254
REMARK SMILES Cc1oc(-c2ccccc2)nc1CCOc1ccc(C[C@@]2(C(=O)O)C=CC=CO2)cc1
REMARK SMILES IDX 16 1 17 2 18 3 19 4 30 5 31 6 15 7 14 8 13 9 12 10 2 11 3 12
REMARK SMILES IDX 4 13 11 14 1 15 5 16 6 17 10 18 7 19 9 20 8 21 20 22 21 23
REMARK SMILES IDX 25 24 29 25 26 26 28 27 27 28 22 29 23 30 24 31
REMARK H PARENT 24 32
ROOT
ATOM      1  C   UNL     1      -8.299  -8.970 -25.249  1.00  0.00     0.119 A 
ATOM      2  C   UNL     1      -7.265  -9.625 -25.918  1.00  0.00     0.047 A 
ATOM      3  C   UNL     1      -6.988  -9.341 -27.258  1.00  0.00     0.008 A 
ATOM      4  C   UNL     1      -7.746  -8.391 -27.951  1.00  0.00    -0.043 A 
ATOM      5  C   UNL     1      -8.785  -7.736 -27.276  1.00  0.00     0.008 A 
ATOM      6  C   UNL     1      -9.060  -8.023 -25.933  1.00  0.00     0.047 A 
ENDROOT
BRANCH   1   7
ATOM      7  O   UNL     1      -8.460  -9.342 -23.943  1.00  0.00    -0.493 OA
BRANCH   7   8
ATOM      8  C   UNL     1      -8.943  -8.347 -23.035  1.00  0.00     0.236 C 
BRANCH   8   9
ATOM      9  C   UNL     1      -7.755  -7.766 -22.269  1.00  0.00     0.101 C 
BRANCH   9  10
ATOM     10  C   UNL     1      -8.157  -7.171 -20.966  1.00  0.00     0.086 A 
ATOM     11  C   UNL     1      -7.538  -6.199 -20.210  1.00  0.00     0.125 A 
ATOM     12  O   UNL     1      -8.290  -5.996 -19.089  1.00  0.00    -0.441 OA
ATOM     13  C   UNL     1      -9.344  -6.864 -19.222  1.00  0.00     0.226 A 
ATOM     14  N   UNL     1      -9.305  -7.586 -20.327  1.00  0.00    -0.214 NA
ATOM     15  C   UNL     1      -6.307  -5.401 -20.344  1.00  0.00     0.090 C 
BRANCH  13  16
ATOM     16  C   UNL     1     -10.335  -6.869 -18.149  1.00  0.00     0.037 A 
ATOM     17  C   UNL     1     -11.118  -8.015 -17.935  1.00  0.00     0.014 A 
ATOM     18  C   UNL     1     -10.536  -5.759 -17.315  1.00  0.00     0.014 A 
ATOM     19  C   UNL     1     -12.074  -8.049 -16.917  1.00  0.00     0.001 A 
ATOM     20  C   UNL     1     -11.492  -5.793 -16.296  1.00  0.00     0.001 A 
ATOM     21  C   UNL     1     -12.261  -6.939 -16.098  1.00  0.00     0.000 A 
ENDBRANCH  13  16
ENDBRANCH   9  10
ENDBRANCH   8   9
ENDBRANCH   7   8
ENDBRANCH   1   7
BRANCH   4  22
ATOM     22  C   UNL     1      -7.446  -8.074 -29.401  1.00  0.00     0.101 C 
BRANCH  22  23
ATOM     23  C   UNL     1      -8.635  -8.236 -30.381  1.00  0.00     0.226 C 
ATOM     24  C   UNL     1      -9.528  -9.417 -30.018  1.00  0.00     0.033 C 
ATOM     25  O   UNL     1      -9.322  -6.964 -30.479  1.00  0.00    -0.479 OA
ATOM     26  C   UNL     1     -10.846  -9.287 -29.836  1.00  0.00     0.004 C 
ATOM     27  C   UNL     1     -10.675  -6.935 -30.282  1.00  0.00     0.189 C 
ATOM     28  C   UNL     1     -11.437  -7.989 -29.980  1.00  0.00     0.038 C 
BRANCH  23  29
ATOM     29  C   UNL     1      -8.006  -8.537 -31.763  1.00  0.00     0.352 C 
ATOM     30  O   UNL     1      -8.436  -9.303 -32.616  1.00  0.00    -0.247 OA
BRANCH  29  31
ATOM     31  O   UNL     1      -6.822  -7.918 -31.983  1.00  0.00    -0.478 OA
ATOM     32  H   UNL     1      -6.175  -8.652 -32.034  1.00  0.00     0.296 HD
ENDBRANCH  29  31
ENDBRANCH  23  29
ENDBRANCH  22  23
ENDBRANCH   4  22
TORSDOF 9
ENDMDL
MODEL 5
REMARK VINA RESULT:    -8.894      2.702      4.967
REMARK INTER + INTRA:         -13.060
REMARK INTER:                 -11.917
REMARK INTRA:                  -1.143
REMARK UNBOUND:                 0.254
REMARK SMILES Cc1oc(-c2ccccc2)nc1CCOc1ccc(C[C@@]2(C(=O)O)C=CC=CO2)cc1
REMARK SMILES IDX 16 1 17 2 18 3 19 4 30 5 31 6 15 7 14 8 13 9 12 10 2 11 3 12
REMARK SMILES IDX 4 13 11 14 1 15 5 16 6 17 10 18 7 19 9 20 8 21 20 22 21 23
REMARK SMILES IDX 25 24 29 25 26 26 28 27 27 28 22 29 23 30 24 31
REMARK H PARENT 24 32
ROOT
ATOM      1  C   UNL     1      -9.530  -8.212 -25.563  1.00  0.00     0.119 A 
ATOM      2  C   UNL     1      -8.172  -8.176 -25.885  1.00  0.00     0.047 A 
ATOM      3  C   UNL     1      -7.737  -8.473 -27.179  1.00  0.00     0.008 A 
ATOM      4  C   UNL     1      -8.658  -8.810 -28.176  1.00  0.00    -0.043 A 
ATOM      5  C   UNL     1     -10.021  -8.846 -27.849  1.00  0.00     0.008 A 
ATOM      6  C   UNL     1     -10.454  -8.548 -26.552  1.00  0.00     0.047 A 
ENDROOT
BRANCH   1   7
ATOM      7  O   UNL     1      -9.817  -7.900 -24.264  1.00  0.00    -0.493 OA
BRANCH   7   8
ATOM      8  C   UNL     1     -10.781  -8.717 -23.594  1.00  0.00     0.236 C 
BRANCH   8   9
ATOM      9  C   UNL     1     -10.252  -9.059 -22.201  1.00  0.00     0.101 C 
BRANCH   9  10
ATOM     10  C   UNL     1      -8.813  -8.717 -22.042  1.00  0.00     0.086 A 
ATOM     11  C   UNL     1      -7.690  -9.410 -22.441  1.00  0.00     0.125 A 
ATOM     12  O   UNL     1      -6.595  -8.689 -22.061  1.00  0.00    -0.441 OA
ATOM     13  C   UNL     1      -7.112  -7.578 -21.445  1.00  0.00     0.226 A 
ATOM     14  N   UNL     1      -8.432  -7.552 -21.410  1.00  0.00    -0.214 NA
ATOM     15  C   UNL     1      -7.446 -10.689 -23.129  1.00  0.00     0.090 C 
BRANCH  13  16
ATOM     16  C   UNL     1      -6.155  -6.605 -20.926  1.00  0.00     0.037 A 
ATOM     17  C   UNL     1      -6.585  -5.302 -20.628  1.00  0.00     0.014 A 
ATOM     18  C   UNL     1      -4.807  -6.927 -20.712  1.00  0.00     0.014 A 
ATOM     19  C   UNL     1      -5.693  -4.349 -20.131  1.00  0.00     0.001 A 
ATOM     20  C   UNL     1      -3.913  -5.974 -20.214  1.00  0.00     0.001 A 
ATOM     21  C   UNL     1      -4.357  -4.686 -19.924  1.00  0.00     0.000 A 
ENDBRANCH  13  16
ENDBRANCH   9  10
ENDBRANCH   8   9
ENDBRANCH   7   8
ENDBRANCH   1   7
BRANCH   4  22
ATOM     22  C   UNL     1      -8.192  -9.126 -29.582  1.00  0.00     0.101 C 
BRANCH  22  23
ATOM     23  C   UNL     1      -8.794  -8.239 -30.701  1.00  0.00     0.226 C 
ATOM     24  C   UNL     1     -10.008  -8.882 -31.360  1.00  0.00     0.033 C 
ATOM     25  O   UNL     1      -9.029  -6.916 -30.158  1.00  0.00    -0.479 OA
ATOM     26  C   UNL     1     -11.187  -8.257 -31.453  1.00  0.00     0.004 C 
ATOM     27  C   UNL     1     -10.268  -6.357 -30.310  1.00  0.00     0.189 C 
ATOM     28  C   UNL     1     -11.312  -6.938 -30.907  1.00  0.00     0.038 C 
BRANCH  23  29
ATOM     29  C   UNL     1      -7.692  -8.113 -31.780  1.00  0.00     0.352 C 
ATOM     30  O   UNL     1      -6.820  -8.934 -32.040  1.00  0.00    -0.247 OA
BRANCH  29  31
ATOM     31  O   UNL     1      -7.685  -6.928 -32.434  1.00  0.00    -0.478 OA
ATOM     32  H   UNL     1      -8.616  -6.801 -32.708  1.00  0.00     0.296 HD
ENDBRANCH  29  31
ENDBRANCH  23  29
ENDBRANCH  22  23
ENDBRANCH   4  22
TORSDOF 9
ENDMDL
MODEL 6
REMARK VINA RESULT:    -8.827      3.404      6.055
REMARK INTER + INTRA:         -12.959
REMARK INTER:                 -11.890
REMARK INTRA:                  -1.069
REMARK UNBOUND:                 0.254
REMARK SMILES Cc1oc(-c2ccccc2)nc1CCOc1ccc(C[C@@]2(C(=O)O)C=CC=CO2)cc1
REMARK SMILES IDX 16 1 17 2 18 3 19 4 30 5 31 6 15 7 14 8 13 9 12 10 2 11 3 12
REMARK SMILES IDX 4 13 11 14 1 15 5 16 6 17 10 18 7 19 9 20 8 21 20 22 21 23
REMARK SMILES IDX 25 24 29 25 26 26 28 27 27 28 22 29 23 30 24 31
REMARK H PARENT 24 32
ROOT
ATOM      1  C   UNL     1      -9.290  -7.701 -25.332  1.00  0.00     0.119 A 
ATOM      2  C   UNL     1      -8.609  -8.604 -26.148  1.00  0.00     0.047 A 
ATOM      3  C   UNL     1      -9.190  -9.085 -27.324  1.00  0.00     0.008 A 
ATOM      4  C   UNL     1     -10.469  -8.664 -27.704  1.00  0.00    -0.043 A 
ATOM      5  C   UNL     1     -11.151  -7.757 -26.882  1.00  0.00     0.008 A 
ATOM      6  C   UNL     1     -10.566  -7.278 -25.704  1.00  0.00     0.047 A 
ENDROOT
BRANCH   1   7
ATOM      7  O   UNL     1      -8.607  -7.312 -24.214  1.00  0.00    -0.493 OA
BRANCH   7   8
ATOM      8  C   UNL     1      -8.852  -8.046 -23.011  1.00  0.00     0.236 C 
BRANCH   8   9
ATOM      9  C   UNL     1      -7.688  -7.811 -22.048  1.00  0.00     0.101 C 
BRANCH   9  10
ATOM     10  C   UNL     1      -8.133  -7.236 -20.750  1.00  0.00     0.086 A 
ATOM     11  C   UNL     1      -7.525  -6.297 -19.945  1.00  0.00     0.125 A 
ATOM     12  O   UNL     1      -8.322  -6.101 -18.854  1.00  0.00    -0.441 OA
ATOM     13  C   UNL     1      -9.389  -6.939 -19.053  1.00  0.00     0.226 A 
ATOM     14  N   UNL     1      -9.319  -7.637 -20.172  1.00  0.00    -0.214 NA
ATOM     15  C   UNL     1      -6.271  -5.528 -20.007  1.00  0.00     0.090 C 
BRANCH  13  16
ATOM     16  C   UNL     1     -10.426  -6.943 -18.025  1.00  0.00     0.037 A 
ATOM     17  C   UNL     1     -11.218  -8.089 -17.845  1.00  0.00     0.014 A 
ATOM     18  C   UNL     1     -10.663  -5.833 -17.201  1.00  0.00     0.014 A 
ATOM     19  C   UNL     1     -12.218  -8.123 -16.871  1.00  0.00     0.001 A 
ATOM     20  C   UNL     1     -11.664  -5.866 -16.225  1.00  0.00     0.001 A 
ATOM     21  C   UNL     1     -12.441  -7.011 -16.062  1.00  0.00     0.000 A 
ENDBRANCH  13  16
ENDBRANCH   9  10
ENDBRANCH   8   9
ENDBRANCH   7   8
ENDBRANCH   1   7
BRANCH   4  22
ATOM     22  C   UNL     1     -11.100  -9.176 -28.982  1.00  0.00     0.101 C 
BRANCH  22  23
ATOM     23  C   UNL     1     -10.352  -8.814 -30.290  1.00  0.00     0.226 C 
ATOM     24  C   UNL     1      -9.556  -7.520 -30.162  1.00  0.00     0.033 C 
ATOM     25  O   UNL     1      -9.576  -9.965 -30.705  1.00  0.00    -0.479 OA
ATOM     26  C   UNL     1      -8.250  -7.454 -30.442  1.00  0.00     0.004 C 
ATOM     27  C   UNL     1      -8.246  -9.794 -30.976  1.00  0.00     0.189 C 
ATOM     28  C   UNL     1      -7.575  -8.644 -30.870  1.00  0.00     0.038 C 
BRANCH  23  29
ATOM     29  C   UNL     1     -11.450  -8.580 -31.355  1.00  0.00     0.352 C 
ATOM     30  O   UNL     1     -12.498  -9.202 -31.480  1.00  0.00    -0.247 OA
BRANCH  29  31
ATOM     31  O   UNL     1     -11.149  -7.625 -32.265  1.00  0.00    -0.478 OA
ATOM     32  H   UNL     1     -11.998  -7.453 -32.721  1.00  0.00     0.296 HD
ENDBRANCH  29  31
ENDBRANCH  23  29
ENDBRANCH  22  23
ENDBRANCH   4  22
TORSDOF 9
ENDMDL
MODEL 7
REMARK VINA RESULT:    -8.761      4.983     11.326
REMARK INTER + INTRA:         -12.860
REMARK INTER:                 -11.841
REMARK INTRA:                  -1.019
REMARK UNBOUND:                 0.254
REMARK SMILES Cc1oc(-c2ccccc2)nc1CCOc1ccc(C[C@@]2(C(=O)O)C=CC=CO2)cc1
REMARK SMILES IDX 16 1 17 2 18 3 19 4 30 5 31 6 15 7 14 8 13 9 12 10 2 11 3 12
REMARK SMILES IDX 4 13 11 14 1 15 5 16 6 17 10 18 7 19 9 20 8 21 20 22 21 23
REMARK SMILES IDX 25 24 29 25 26 26 28 27 27 28 22 29 23 30 24 31
REMARK H PARENT 24 32
ROOT
ATOM      1  C   UNL     1      -8.712  -9.200 -28.284  1.00  0.00     0.119 A 
ATOM      2  C   UNL     1      -7.599  -8.937 -27.485  1.00  0.00     0.047 A 
ATOM      3  C   UNL     1      -7.747  -8.379 -26.213  1.00  0.00     0.008 A 
ATOM      4  C   UNL     1      -9.020  -8.074 -25.718  1.00  0.00    -0.043 A 
ATOM      5  C   UNL     1     -10.136  -8.339 -26.524  1.00  0.00     0.008 A 
ATOM      6  C   UNL     1      -9.984  -8.898 -27.798  1.00  0.00     0.047 A 
ENDROOT
BRANCH   1   7
ATOM      7  O   UNL     1      -8.424  -9.747 -29.503  1.00  0.00    -0.493 OA
BRANCH   7   8
ATOM      8  C   UNL     1      -8.151  -8.842 -30.577  1.00  0.00     0.236 C 
BRANCH   8   9
ATOM      9  C   UNL     1      -8.961  -9.274 -31.800  1.00  0.00     0.101 C 
BRANCH   9  10
ATOM     10  C   UNL     1     -10.388  -9.534 -31.472  1.00  0.00     0.086 A 
ATOM     11  C   UNL     1     -11.380  -8.657 -31.089  1.00  0.00     0.125 A 
ATOM     12  O   UNL     1     -12.524  -9.376 -30.894  1.00  0.00    -0.441 OA
ATOM     13  C   UNL     1     -12.167 -10.670 -31.176  1.00  0.00     0.226 A 
ATOM     14  N   UNL     1     -10.901 -10.812 -31.524  1.00  0.00    -0.214 NA
ATOM     15  C   UNL     1     -11.451  -7.206 -30.845  1.00  0.00     0.090 C 
BRANCH  13  16
ATOM     16  C   UNL     1     -13.210 -11.685 -31.051  1.00  0.00     0.037 A 
ATOM     17  C   UNL     1     -14.560 -11.302 -31.109  1.00  0.00     0.014 A 
ATOM     18  C   UNL     1     -12.910 -13.044 -30.874  1.00  0.00     0.014 A 
ATOM     19  C   UNL     1     -15.579 -12.249 -30.992  1.00  0.00     0.001 A 
ATOM     20  C   UNL     1     -13.930 -13.993 -30.757  1.00  0.00     0.001 A 
ATOM     21  C   UNL     1     -15.264 -13.594 -30.816  1.00  0.00     0.000 A 
ENDBRANCH  13  16
ENDBRANCH   9  10
ENDBRANCH   8   9
ENDBRANCH   7   8
ENDBRANCH   1   7
BRANCH   4  22
ATOM     22  C   UNL     1      -9.188  -7.475 -24.337  1.00  0.00     0.101 C 
BRANCH  22  23
ATOM     23  C   UNL     1      -8.940  -8.444 -23.154  1.00  0.00     0.226 C 
ATOM     24  C   UNL     1      -8.019  -9.598 -23.533  1.00  0.00     0.033 C 
ATOM     25  O   UNL     1      -8.501  -7.667 -22.012  1.00  0.00    -0.479 OA
ATOM     26  C   UNL     1      -6.910  -9.883 -22.843  1.00  0.00     0.004 C 
ATOM     27  C   UNL     1      -7.354  -8.044 -21.368  1.00  0.00     0.189 C 
ATOM     28  C   UNL     1      -6.573  -9.070 -21.713  1.00  0.00     0.038 C 
BRANCH  23  29
ATOM     29  C   UNL     1     -10.322  -9.048 -22.806  1.00  0.00     0.352 C 
ATOM     30  O   UNL     1     -11.394  -8.787 -23.338  1.00  0.00    -0.247 OA
BRANCH  29  31
ATOM     31  O   UNL     1     -10.309  -9.896 -21.751  1.00  0.00    -0.478 OA
ATOM     32  H   UNL     1     -10.087 -10.765 -22.146  1.00  0.00     0.296 HD
ENDBRANCH  29  31
ENDBRANCH  23  29
ENDBRANCH  22  23
ENDBRANCH   4  22
TORSDOF 9
ENDMDL
MODEL 8
REMARK VINA RESULT:    -8.752      4.908      9.196
REMARK INTER + INTRA:         -12.846
REMARK INTER:                 -11.591
REMARK INTRA:                  -1.254
REMARK UNBOUND:                 0.254
REMARK SMILES Cc1oc(-c2ccccc2)nc1CCOc1ccc(C[C@@]2(C(=O)O)C=CC=CO2)cc1
REMARK SMILES IDX 16 1 17 2 18 3 19 4 30 5 31 6 15 7 14 8 13 9 12 10 2 11 3 12
REMARK SMILES IDX 4 13 11 14 1 15 5 16 6 17 10 18 7 19 9 20 8 21 20 22 21 23
REMARK SMILES IDX 25 24 29 25 26 26 28 27 27 28 22 29 23 30 24 31
REMARK H PARENT 24 32
ROOT
ATOM      1  C   UNL     1      -8.342  -9.176 -28.659  1.00  0.00     0.119 A 
ATOM      2  C   UNL     1      -7.294  -8.729 -27.853  1.00  0.00     0.047 A 
ATOM      3  C   UNL     1      -7.545  -8.181 -26.593  1.00  0.00     0.008 A 
ATOM      4  C   UNL     1      -8.856  -8.073 -26.117  1.00  0.00    -0.043 A 
ATOM      5  C   UNL     1      -9.906  -8.522 -26.929  1.00  0.00     0.008 A 
ATOM      6  C   UNL     1      -9.652  -9.070 -28.191  1.00  0.00     0.047 A 
ENDROOT
BRANCH   1   7
ATOM      7  O   UNL     1      -7.956  -9.689 -29.865  1.00  0.00    -0.493 OA
BRANCH   7   8
ATOM      8  C   UNL     1      -8.993 -10.060 -30.779  1.00  0.00     0.236 C 
BRANCH   8   9
ATOM      9  C   UNL     1      -8.910  -9.156 -32.009  1.00  0.00     0.101 C 
BRANCH   9  10
ATOM     10  C   UNL     1      -9.551  -7.833 -31.785  1.00  0.00     0.086 A 
ATOM     11  C   UNL     1     -10.851  -7.529 -31.443  1.00  0.00     0.125 A 
ATOM     12  O   UNL     1     -10.955  -6.170 -31.359  1.00  0.00    -0.441 OA
ATOM     13  C   UNL     1      -9.697  -5.711 -31.655  1.00  0.00     0.226 A 
ATOM     14  N   UNL     1      -8.827  -6.668 -31.916  1.00  0.00    -0.214 NA
ATOM     15  C   UNL     1     -12.071  -8.311 -31.185  1.00  0.00     0.090 C 
BRANCH  13  16
ATOM     16  C   UNL     1      -9.502  -4.263 -31.641  1.00  0.00     0.037 A 
ATOM     17  C   UNL     1     -10.317  -3.462 -30.825  1.00  0.00     0.014 A 
ATOM     18  C   UNL     1      -8.521  -3.637 -32.423  1.00  0.00     0.014 A 
ATOM     19  C   UNL     1     -10.155  -2.075 -30.792  1.00  0.00     0.001 A 
ATOM     20  C   UNL     1      -8.357  -2.248 -32.390  1.00  0.00     0.001 A 
ATOM     21  C   UNL     1      -9.175  -1.469 -31.575  1.00  0.00     0.000 A 
ENDBRANCH  13  16
ENDBRANCH   9  10
ENDBRANCH   8   9
ENDBRANCH   7   8
ENDBRANCH   1   7
BRANCH   4  22
ATOM     22  C   UNL     1      -9.133  -7.486 -24.748  1.00  0.00     0.101 C 
BRANCH  22  23
ATOM     23  C   UNL     1      -8.991  -8.469 -23.558  1.00  0.00     0.226 C 
ATOM     24  C   UNL     1      -8.113  -9.667 -23.899  1.00  0.00     0.033 C 
ATOM     25  O   UNL     1      -8.566  -7.717 -22.394  1.00  0.00    -0.479 OA
ATOM     26  C   UNL     1      -7.052 -10.010 -23.159  1.00  0.00     0.004 C 
ATOM     27  C   UNL     1      -7.472  -8.153 -21.698  1.00  0.00     0.189 C 
ATOM     28  C   UNL     1      -6.728  -9.217 -22.011  1.00  0.00     0.038 C 
BRANCH  23  29
ATOM     29  C   UNL     1     -10.416  -9.002 -23.278  1.00  0.00     0.352 C 
ATOM     30  O   UNL     1     -11.449  -8.677 -23.849  1.00  0.00    -0.247 OA
BRANCH  29  31
ATOM     31  O   UNL     1     -10.493  -9.866 -22.238  1.00  0.00    -0.478 OA
ATOM     32  H   UNL     1      -9.781 -10.515 -22.414  1.00  0.00     0.296 HD
ENDBRANCH  29  31
ENDBRANCH  23  29
ENDBRANCH  22  23
ENDBRANCH   4  22
TORSDOF 9
ENDMDL
MODEL 9
REMARK VINA RESULT:    -8.690      2.949      9.300
REMARK INTER + INTRA:         -12.754
REMARK INTER:                 -12.203
REMARK INTRA:                  -0.550
REMARK UNBOUND:                 0.254
REMARK SMILES Cc1oc(-c2ccccc2)nc1CCOc1ccc(C[C@@]2(C(=O)O)C=CC=CO2)cc1
REMARK SMILES IDX 16 1 17 2 18 3 19 4 30 5 31 6 15 7 14 8 13 9 12 10 2 11 3 12
REMARK SMILES IDX 4 13 11 14 1 15 5 16 6 17 10 18 7 19 9 20 8 21 20 22 21 23
REMARK SMILES IDX 25 24 29 25 26 26 28 27 27 28 22 29 23 30 24 31
REMARK H PARENT 24 32
ROOT
ATOM      1  C   UNL     1      -6.427  -6.952 -20.659  1.00  0.00     0.119 A 
ATOM      2  C   UNL     1      -5.100  -7.146 -21.044  1.00  0.00     0.047 A 
ATOM      3  C   UNL     1      -4.133  -6.168 -20.795  1.00  0.00     0.008 A 
ATOM      4  C   UNL     1      -4.483  -4.976 -20.152  1.00  0.00    -0.043 A 
ATOM      5  C   UNL     1      -5.817  -4.784 -19.768  1.00  0.00     0.008 A 
ATOM      6  C   UNL     1      -6.783  -5.765 -20.019  1.00  0.00     0.047 A 
ENDROOT
BRANCH   1   7
ATOM      7  O   UNL     1      -7.267  -7.986 -20.963  1.00  0.00    -0.493 OA
BRANCH   7   8
ATOM      8  C   UNL     1      -7.922  -7.945 -22.235  1.00  0.00     0.236 C 
BRANCH   8   9
ATOM      9  C   UNL     1      -8.103  -9.376 -22.740  1.00  0.00     0.101 C 
BRANCH   9  10
ATOM     10  C   UNL     1      -7.712  -9.529 -24.166  1.00  0.00     0.086 A 
ATOM     11  C   UNL     1      -6.632 -10.183 -24.721  1.00  0.00     0.125 A 
ATOM     12  O   UNL     1      -6.703 -10.035 -26.077  1.00  0.00    -0.441 OA
ATOM     13  C   UNL     1      -7.838  -9.292 -26.281  1.00  0.00     0.226 A 
ATOM     14  N   UNL     1      -8.472  -8.967 -25.169  1.00  0.00    -0.214 NA
ATOM     15  C   UNL     1      -5.487 -10.940 -24.188  1.00  0.00     0.090 C 
BRANCH  13  16
ATOM     16  C   UNL     1      -8.176  -8.971 -27.665  1.00  0.00     0.037 A 
ATOM     17  C   UNL     1      -7.158  -8.908 -28.630  1.00  0.00     0.014 A 
ATOM     18  C   UNL     1      -9.496  -8.720 -28.070  1.00  0.00     0.014 A 
ATOM     19  C   UNL     1      -7.452  -8.603 -29.961  1.00  0.00     0.001 A 
ATOM     20  C   UNL     1      -9.790  -8.415 -29.403  1.00  0.00     0.001 A 
ATOM     21  C   UNL     1      -8.767  -8.357 -30.347  1.00  0.00     0.000 A 
ENDBRANCH  13  16
ENDBRANCH   9  10
ENDBRANCH   8   9
ENDBRANCH   7   8
ENDBRANCH   1   7
BRANCH   4  22
ATOM     22  C   UNL     1      -3.437  -3.916 -19.872  1.00  0.00     0.101 C 
BRANCH  22  23
ATOM     23  C   UNL     1      -3.714  -2.524 -20.492  1.00  0.00     0.226 C 
ATOM     24  C   UNL     1      -2.431  -1.792 -20.869  1.00  0.00     0.033 C 
ATOM     25  O   UNL     1      -4.660  -2.687 -21.578  1.00  0.00    -0.479 OA
ATOM     26  C   UNL     1      -2.215  -1.314 -22.099  1.00  0.00     0.004 C 
ATOM     27  C   UNL     1      -4.351  -2.156 -22.800  1.00  0.00     0.189 C 
ATOM     28  C   UNL     1      -3.224  -1.505 -23.099  1.00  0.00     0.038 C 
BRANCH  23  29
ATOM     29  C   UNL     1      -4.411  -1.699 -19.384  1.00  0.00     0.352 C 
ATOM     30  O   UNL     1      -4.761  -2.097 -18.280  1.00  0.00    -0.247 OA
BRANCH  29  31
ATOM     31  O   UNL     1      -4.708  -0.427 -19.740  1.00  0.00    -0.478 OA
ATOM     32  H   UNL     1      -3.877   0.066 -19.582  1.00  0.00     0.296 HD
ENDBRANCH  29  31
ENDBRANCH  23  29
ENDBRANCH  22  23
ENDBRANCH   4  22
TORSDOF 9
ENDMDL
