MODEL 1
REMARK VINA RESULT:    -8.130      0.000      0.000
REMARK INTER + INTRA:         -10.230
REMARK INTER:                 -10.506
REMARK INTRA:                   0.276
REMARK UNBOUND:                 0.276
REMARK SMILES CN1CCN(S(=O)(=O)C[C@H]2C[C@@H](N(C)c3ncnc4[nH]ccc34)C2)CC1
REMARK SMILES IDX 10 1 11 2 12 3 24 4 9 5 6 6 7 7 8 8 5 9 2 10 3 11 26 12 4 13
REMARK SMILES IDX 25 14 1 15 13 16 14 17 15 18 16 19 23 20 17 21 22 22 19 23
REMARK SMILES IDX 18 24 21 25 20 26
REMARK H PARENT 20 27
ROOT
ATOM      1  C   UNL     1      -1.745  23.865 -27.664  1.00  0.00     0.009 C 
ATOM      2  C   UNL     1      -1.921  22.733 -28.707  1.00  0.00     0.029 C 
ATOM      3  C   UNL     1      -2.812  23.714 -29.522  1.00  0.00     0.084 C 
ATOM      4  C   UNL     1      -3.115  24.396 -28.156  1.00  0.00     0.029 C 
ENDROOT
BRANCH   1   5
ATOM      5  C   UNL     1      -1.696  23.480 -26.195  1.00  0.00     0.158 C 
BRANCH   5   6
ATOM      6  S   UNL     1      -1.419  24.935 -25.184  1.00  0.00     0.214 S 
ATOM      7  O   UNL     1      -0.849  25.965 -26.026  1.00  0.00    -0.212 OA
ATOM      8  O   UNL     1      -2.599  25.190 -24.386  1.00  0.00    -0.212 OA
BRANCH   6   9
ATOM      9  N   UNL     1      -0.192  24.401 -24.128  1.00  0.00    -0.199 NA
ATOM     10  N   UNL     1       2.131  22.861 -23.069  1.00  0.00    -0.304 NA
ATOM     11  C   UNL     1       2.226  24.273 -23.492  1.00  0.00     0.101 C 
ATOM     12  C   UNL     1       0.730  22.557 -22.707  1.00  0.00     0.101 C 
ATOM     13  C   UNL     1       1.207  24.706 -24.569  1.00  0.00     0.117 C 
ATOM     14  C   UNL     1      -0.325  22.953 -23.760  1.00  0.00     0.117 C 
ATOM     15  C   UNL     1       2.635  21.950 -24.095  1.00  0.00     0.105 C 
ENDBRANCH   6   9
ENDBRANCH   5   6
ENDBRANCH   1   5
BRANCH   3  16
ATOM     16  N   UNL     1      -3.966  23.116 -30.134  1.00  0.00    -0.356 N 
ATOM     17  C   UNL     1      -4.482  21.841 -29.643  1.00  0.00     0.145 C 
BRANCH  16  18
ATOM     18  C   UNL     1      -4.644  23.584 -31.281  1.00  0.00     0.141 A 
ATOM     19  N   UNL     1      -5.012  22.676 -32.233  1.00  0.00    -0.219 NA
ATOM     20  C   UNL     1      -4.974  24.937 -31.534  1.00  0.00     0.061 A 
ATOM     21  C   UNL     1      -5.691  23.085 -33.320  1.00  0.00     0.226 A 
ATOM     22  C   UNL     1      -4.750  26.206 -30.917  1.00  0.00     0.033 A 
ATOM     23  C   UNL     1      -5.673  25.206 -32.704  1.00  0.00     0.142 A 
ATOM     24  N   UNL     1      -6.072  24.330 -33.635  1.00  0.00    -0.218 NA
ATOM     25  C   UNL     1      -5.340  27.178 -31.697  1.00  0.00     0.085 A 
ATOM     26  N   UNL     1      -5.901  26.552 -32.779  1.00  0.00    -0.346 N 
ATOM     27  H   UNL     1      -6.395  26.994 -33.540  1.00  0.00     0.167 HD
ENDBRANCH  16  18
ENDBRANCH   3  16
TORSDOF 5
ENDMDL
MODEL 2
REMARK VINA RESULT:    -7.859      1.630      2.309
REMARK INTER + INTRA:          -9.880
REMARK INTER:                 -10.175
REMARK INTRA:                   0.295
REMARK UNBOUND:                 0.276
REMARK SMILES CN1CCN(S(=O)(=O)C[C@H]2C[C@@H](N(C)c3ncnc4[nH]ccc34)C2)CC1
REMARK SMILES IDX 10 1 11 2 12 3 24 4 9 5 6 6 7 7 8 8 5 9 2 10 3 11 26 12 4 13
REMARK SMILES IDX 25 14 1 15 13 16 14 17 15 18 16 19 23 20 17 21 22 22 19 23
REMARK SMILES IDX 18 24 21 25 20 26
REMARK H PARENT 20 27
ROOT
ATOM      1  C   UNL     1      -2.034  23.704 -27.841  1.00  0.00     0.009 C 
ATOM      2  C   UNL     1      -2.030  22.961 -29.200  1.00  0.00     0.029 C 
ATOM      3  C   UNL     1      -3.087  23.992 -29.691  1.00  0.00     0.084 C 
ATOM      4  C   UNL     1      -3.482  24.131 -28.192  1.00  0.00     0.029 C 
ENDROOT
BRANCH   1   5
ATOM      5  C   UNL     1      -1.899  22.876 -26.575  1.00  0.00     0.158 C 
BRANCH   5   6
ATOM      6  S   UNL     1      -1.410  23.921 -25.202  1.00  0.00     0.214 S 
ATOM      7  O   UNL     1      -2.498  24.834 -24.922  1.00  0.00    -0.212 OA
ATOM      8  O   UNL     1      -0.839  23.097 -24.158  1.00  0.00    -0.212 OA
BRANCH   6   9
ATOM      9  N   UNL     1      -0.143  24.832 -25.887  1.00  0.00    -0.199 NA
ATOM     10  N   UNL     1       2.119  26.758 -26.136  1.00  0.00    -0.304 NA
ATOM     11  C   UNL     1       2.302  25.293 -26.161  1.00  0.00     0.101 C 
ATOM     12  C   UNL     1       0.737  27.081 -26.550  1.00  0.00     0.101 C 
ATOM     13  C   UNL     1       1.230  24.483 -25.400  1.00  0.00     0.117 C 
ATOM     14  C   UNL     1      -0.372  26.312 -25.804  1.00  0.00     0.117 C 
ATOM     15  C   UNL     1       2.438  27.324 -24.827  1.00  0.00     0.105 C 
ENDBRANCH   6   9
ENDBRANCH   5   6
ENDBRANCH   1   5
BRANCH   3  16
ATOM     16  N   UNL     1      -4.131  23.443 -30.510  1.00  0.00    -0.356 N 
ATOM     17  C   UNL     1      -4.470  22.025 -30.421  1.00  0.00     0.145 C 
BRANCH  16  18
ATOM     18  C   UNL     1      -4.845  24.120 -31.523  1.00  0.00     0.141 A 
ATOM     19  N   UNL     1      -5.319  23.396 -32.580  1.00  0.00    -0.219 NA
ATOM     20  C   UNL     1      -5.111  25.511 -31.538  1.00  0.00     0.061 A 
ATOM     21  C   UNL     1      -6.034  24.006 -33.542  1.00  0.00     0.226 A 
ATOM     22  C   UNL     1      -4.781  26.652 -30.744  1.00  0.00     0.033 A 
ATOM     23  C   UNL     1      -5.860  25.997 -32.603  1.00  0.00     0.142 A 
ATOM     24  N   UNL     1      -6.361  25.302 -33.631  1.00  0.00    -0.218 NA
ATOM     25  C   UNL     1      -5.358  27.764 -31.322  1.00  0.00     0.085 A 
ATOM     26  N   UNL     1      -6.014  27.347 -32.449  1.00  0.00    -0.346 N 
ATOM     27  H   UNL     1      -6.525  27.928 -33.097  1.00  0.00     0.167 HD
ENDBRANCH  16  18
ENDBRANCH   3  16
TORSDOF 5
ENDMDL
MODEL 3
REMARK VINA RESULT:    -7.841      1.224      1.601
REMARK INTER + INTRA:          -9.857
REMARK INTER:                 -10.120
REMARK INTRA:                   0.263
REMARK UNBOUND:                 0.276
REMARK SMILES CN1CCN(S(=O)(=O)C[C@H]2C[C@@H](N(C)c3ncnc4[nH]ccc34)C2)CC1
REMARK SMILES IDX 10 1 11 2 12 3 24 4 9 5 6 6 7 7 8 8 5 9 2 10 3 11 26 12 4 13
REMARK SMILES IDX 25 14 1 15 13 16 14 17 15 18 16 19 23 20 17 21 22 22 19 23
REMARK SMILES IDX 18 24 21 25 20 26
REMARK H PARENT 20 27
ROOT
ATOM      1  C   UNL     1      -1.562  22.799 -26.718  1.00  0.00     0.009 C 
ATOM      2  C   UNL     1      -2.118  21.493 -27.338  1.00  0.00     0.029 C 
ATOM      3  C   UNL     1      -2.741  22.371 -28.462  1.00  0.00     0.084 C 
ATOM      4  C   UNL     1      -2.752  23.515 -27.406  1.00  0.00     0.029 C 
ENDROOT
BRANCH   1   5
ATOM      5  C   UNL     1      -1.533  22.913 -25.203  1.00  0.00     0.158 C 
BRANCH   5   6
ATOM      6  S   UNL     1      -0.887  24.513 -24.716  1.00  0.00     0.214 S 
ATOM      7  O   UNL     1      -0.230  25.101 -25.864  1.00  0.00    -0.212 OA
ATOM      8  O   UNL     1      -1.909  25.236 -23.989  1.00  0.00    -0.212 OA
BRANCH   6   9
ATOM      9  N   UNL     1       0.326  24.078 -23.600  1.00  0.00    -0.199 NA
ATOM     10  N   UNL     1       2.623  22.632 -22.367  1.00  0.00    -0.304 NA
ATOM     11  C   UNL     1       2.736  23.992 -22.933  1.00  0.00     0.101 C 
ATOM     12  C   UNL     1       1.216  22.381 -21.989  1.00  0.00     0.101 C 
ATOM     13  C   UNL     1       1.731  24.322 -24.057  1.00  0.00     0.117 C 
ATOM     14  C   UNL     1       0.174  22.677 -23.086  1.00  0.00     0.117 C 
ATOM     15  C   UNL     1       3.124  21.615 -23.289  1.00  0.00     0.105 C 
ENDBRANCH   6   9
ENDBRANCH   5   6
ENDBRANCH   1   5
BRANCH   3  16
ATOM     16  N   UNL     1      -4.054  21.969 -28.885  1.00  0.00    -0.356 N 
ATOM     17  C   UNL     1      -4.954  21.295 -27.953  1.00  0.00     0.145 C 
BRANCH  16  18
ATOM     18  C   UNL     1      -4.576  22.059 -30.194  1.00  0.00     0.141 A 
ATOM     19  N   UNL     1      -5.070  20.926 -30.775  1.00  0.00    -0.219 NA
ATOM     20  C   UNL     1      -4.627  23.243 -30.968  1.00  0.00     0.061 A 
ATOM     21  C   UNL     1      -5.608  20.986 -32.007  1.00  0.00     0.226 A 
ATOM     22  C   UNL     1      -4.191  24.598 -30.846  1.00  0.00     0.033 A 
ATOM     23  C   UNL     1      -5.208  23.147 -32.226  1.00  0.00     0.142 A 
ATOM     24  N   UNL     1      -5.727  22.056 -32.804  1.00  0.00    -0.218 NA
ATOM     25  C   UNL     1      -4.547  25.274 -31.994  1.00  0.00     0.085 A 
ATOM     26  N   UNL     1      -5.169  24.377 -32.822  1.00  0.00    -0.346 N 
ATOM     27  H   UNL     1      -5.534  24.563 -33.744  1.00  0.00     0.167 HD
ENDBRANCH  16  18
ENDBRANCH   3  16
TORSDOF 5
ENDMDL
MODEL 4
REMARK VINA RESULT:    -7.745      2.025      2.907
REMARK INTER + INTRA:          -9.733
REMARK INTER:                  -9.956
REMARK INTRA:                   0.224
REMARK UNBOUND:                 0.276
REMARK SMILES CN1CCN(S(=O)(=O)C[C@H]2C[C@@H](N(C)c3ncnc4[nH]ccc34)C2)CC1
REMARK SMILES IDX 10 1 11 2 12 3 24 4 9 5 6 6 7 7 8 8 5 9 2 10 3 11 26 12 4 13
REMARK SMILES IDX 25 14 1 15 13 16 14 17 15 18 16 19 23 20 17 21 22 22 19 23
REMARK SMILES IDX 18 24 21 25 20 26
REMARK H PARENT 20 27
ROOT
ATOM      1  C   UNL     1      -2.463  23.521 -26.776  1.00  0.00     0.009 C 
ATOM      2  C   UNL     1      -2.673  23.884 -28.267  1.00  0.00     0.029 C 
ATOM      3  C   UNL     1      -3.618  22.651 -28.365  1.00  0.00     0.084 C 
ATOM      4  C   UNL     1      -2.786  22.062 -27.188  1.00  0.00     0.029 C 
ENDROOT
BRANCH   1   5
ATOM      5  C   UNL     1      -1.081  23.727 -26.179  1.00  0.00     0.158 C 
BRANCH   5   6
ATOM      6  S   UNL     1      -1.203  24.641 -24.641  1.00  0.00     0.214 S 
ATOM      7  O   UNL     1      -2.562  25.120 -24.508  1.00  0.00    -0.212 OA
ATOM      8  O   UNL     1      -0.573  23.878 -23.585  1.00  0.00    -0.212 OA
BRANCH   6   9
ATOM      9  N   UNL     1      -0.213  25.993 -24.956  1.00  0.00    -0.199 NA
ATOM     10  N   UNL     1       1.928  27.693 -26.145  1.00  0.00    -0.304 NA
ATOM     11  C   UNL     1       0.495  27.866 -26.458  1.00  0.00     0.101 C 
ATOM     12  C   UNL     1       2.061  27.034 -24.829  1.00  0.00     0.101 C 
ATOM     13  C   UNL     1      -0.366  26.592 -26.321  1.00  0.00     0.117 C 
ATOM     14  C   UNL     1       1.234  25.745 -24.649  1.00  0.00     0.117 C 
ATOM     15  C   UNL     1       2.628  26.952 -27.193  1.00  0.00     0.105 C 
ENDBRANCH   6   9
ENDBRANCH   5   6
ENDBRANCH   1   5
BRANCH   3  16
ATOM     16  N   UNL     1      -3.504  21.898 -29.582  1.00  0.00    -0.356 N 
ATOM     17  C   UNL     1      -2.338  21.051 -29.818  1.00  0.00     0.145 C 
BRANCH  16  18
ATOM     18  C   UNL     1      -4.381  21.955 -30.688  1.00  0.00     0.141 A 
ATOM     19  N   UNL     1      -5.031  20.812 -31.060  1.00  0.00    -0.219 NA
ATOM     20  C   UNL     1      -4.642  23.113 -31.458  1.00  0.00     0.061 A 
ATOM     21  C   UNL     1      -5.901  20.842 -32.086  1.00  0.00     0.226 A 
ATOM     22  C   UNL     1      -4.177  24.463 -31.517  1.00  0.00     0.033 A 
ATOM     23  C   UNL     1      -5.562  22.987 -32.491  1.00  0.00     0.142 A 
ATOM     24  N   UNL     1      -6.235  21.887 -32.854  1.00  0.00    -0.218 NA
ATOM     25  C   UNL     1      -4.843  25.107 -32.539  1.00  0.00     0.085 A 
ATOM     26  N   UNL     1      -5.685  24.196 -33.119  1.00  0.00    -0.346 N 
ATOM     27  H   UNL     1      -6.299  24.358 -33.903  1.00  0.00     0.167 HD
ENDBRANCH  16  18
ENDBRANCH   3  16
TORSDOF 5
ENDMDL
MODEL 5
REMARK VINA RESULT:    -7.677      1.548      2.133
REMARK INTER + INTRA:          -9.645
REMARK INTER:                 -10.291
REMARK INTRA:                   0.646
REMARK UNBOUND:                 0.276
REMARK SMILES CN1CCN(S(=O)(=O)C[C@H]2C[C@@H](N(C)c3ncnc4[nH]ccc34)C2)CC1
REMARK SMILES IDX 10 1 11 2 12 3 24 4 9 5 6 6 7 7 8 8 5 9 2 10 3 11 26 12 4 13
REMARK SMILES IDX 25 14 1 15 13 16 14 17 15 18 16 19 23 20 17 21 22 22 19 23
REMARK SMILES IDX 18 24 21 25 20 26
REMARK H PARENT 20 27
ROOT
ATOM      1  C   UNL     1      -2.795  24.165 -27.325  1.00  0.00     0.009 C 
ATOM      2  C   UNL     1      -3.727  25.055 -28.183  1.00  0.00     0.029 C 
ATOM      3  C   UNL     1      -3.851  23.858 -29.170  1.00  0.00     0.084 C 
ATOM      4  C   UNL     1      -2.452  23.425 -28.643  1.00  0.00     0.029 C 
ENDROOT
BRANCH   1   5
ATOM      5  C   UNL     1      -1.614  24.826 -26.634  1.00  0.00     0.158 C 
BRANCH   5   6
ATOM      6  S   UNL     1      -1.586  24.382 -24.897  1.00  0.00     0.214 S 
ATOM      7  O   UNL     1      -2.607  25.151 -24.219  1.00  0.00    -0.212 OA
ATOM      8  O   UNL     1      -1.533  22.940 -24.778  1.00  0.00    -0.212 OA
BRANCH   6   9
ATOM      9  N   UNL     1      -0.073  24.992 -24.402  1.00  0.00    -0.199 NA
ATOM     10  N   UNL     1       2.823  25.698 -24.444  1.00  0.00    -0.304 NA
ATOM     11  C   UNL     1       1.748  26.700 -24.586  1.00  0.00     0.101 C 
ATOM     12  C   UNL     1       2.292  24.515 -23.734  1.00  0.00     0.101 C 
ATOM     13  C   UNL     1       0.428  26.167 -25.185  1.00  0.00     0.117 C 
ATOM     14  C   UNL     1       0.984  23.933 -24.307  1.00  0.00     0.117 C 
ATOM     15  C   UNL     1       3.406  25.337 -25.735  1.00  0.00     0.105 C 
ENDBRANCH   6   9
ENDBRANCH   5   6
ENDBRANCH   1   5
BRANCH   3  16
ATOM     16  N   UNL     1      -3.854  24.220 -30.560  1.00  0.00    -0.356 N 
ATOM     17  C   UNL     1      -2.942  25.247 -31.057  1.00  0.00     0.145 C 
BRANCH  16  18
ATOM     18  C   UNL     1      -4.749  23.750 -31.546  1.00  0.00     0.141 A 
ATOM     19  N   UNL     1      -4.922  22.401 -31.676  1.00  0.00    -0.219 NA
ATOM     20  C   UNL     1      -5.489  24.572 -32.429  1.00  0.00     0.061 A 
ATOM     21  C   UNL     1      -5.796  21.923 -32.581  1.00  0.00     0.226 A 
ATOM     22  C   UNL     1      -5.593  25.965 -32.728  1.00  0.00     0.033 A 
ATOM     23  C   UNL     1      -6.348  23.932 -33.314  1.00  0.00     0.142 A 
ATOM     24  N   UNL     1      -6.558  22.616 -33.437  1.00  0.00    -0.218 NA
ATOM     25  C   UNL     1      -6.519  26.124 -33.738  1.00  0.00     0.085 A 
ATOM     26  N   UNL     1      -6.972  24.878 -34.080  1.00  0.00    -0.346 N 
ATOM     27  H   UNL     1      -7.647  24.659 -34.797  1.00  0.00     0.167 HD
ENDBRANCH  16  18
ENDBRANCH   3  16
TORSDOF 5
ENDMDL
MODEL 6
REMARK VINA RESULT:    -7.610      6.057      8.407
REMARK INTER + INTRA:          -9.559
REMARK INTER:                 -10.053
REMARK INTRA:                   0.494
REMARK UNBOUND:                 0.276
REMARK SMILES CN1CCN(S(=O)(=O)C[C@H]2C[C@@H](N(C)c3ncnc4[nH]ccc34)C2)CC1
REMARK SMILES IDX 10 1 11 2 12 3 24 4 9 5 6 6 7 7 8 8 5 9 2 10 3 11 26 12 4 13
REMARK SMILES IDX 25 14 1 15 13 16 14 17 15 18 16 19 23 20 17 21 22 22 19 23
REMARK SMILES IDX 18 24 21 25 20 26
REMARK H PARENT 20 27
ROOT
ATOM      1  C   UNL     1      -4.356  30.759 -30.323  1.00  0.00     0.009 C 
ATOM      2  C   UNL     1      -3.436  29.697 -29.669  1.00  0.00     0.029 C 
ATOM      3  C   UNL     1      -4.031  28.664 -30.670  1.00  0.00     0.084 C 
ATOM      4  C   UNL     1      -5.290  29.578 -30.691  1.00  0.00     0.029 C 
ENDROOT
BRANCH   1   5
ATOM      5  C   UNL     1      -4.979  31.813 -29.424  1.00  0.00     0.158 C 
BRANCH   5   6
ATOM      6  S   UNL     1      -3.947  33.279 -29.385  1.00  0.00     0.214 S 
ATOM      7  O   UNL     1      -2.564  32.857 -29.450  1.00  0.00    -0.212 OA
ATOM      8  O   UNL     1      -4.475  34.256 -30.313  1.00  0.00    -0.212 OA
BRANCH   6   9
ATOM      9  N   UNL     1      -4.228  33.865 -27.808  1.00  0.00    -0.199 NA
ATOM     10  N   UNL     1      -5.629  34.503 -25.255  1.00  0.00    -0.304 NA
ATOM     11  C   UNL     1      -4.600  33.450 -25.369  1.00  0.00     0.101 C 
ATOM     12  C   UNL     1      -5.428  35.494 -26.333  1.00  0.00     0.101 C 
ATOM     13  C   UNL     1      -4.462  32.813 -26.768  1.00  0.00     0.117 C 
ATOM     14  C   UNL     1      -5.304  34.908 -27.754  1.00  0.00     0.117 C 
ATOM     15  C   UNL     1      -6.981  33.948 -25.276  1.00  0.00     0.105 C 
ENDBRANCH   6   9
ENDBRANCH   5   6
ENDBRANCH   1   5
BRANCH   3  16
ATOM     16  N   UNL     1      -4.277  27.361 -30.117  1.00  0.00    -0.356 N 
ATOM     17  C   UNL     1      -4.187  27.142 -28.676  1.00  0.00     0.145 C 
BRANCH  16  18
ATOM     18  C   UNL     1      -4.509  26.173 -30.844  1.00  0.00     0.141 A 
ATOM     19  N   UNL     1      -3.931  25.017 -30.402  1.00  0.00    -0.219 NA
ATOM     20  C   UNL     1      -5.300  26.079 -32.015  1.00  0.00     0.061 A 
ATOM     21  C   UNL     1      -4.163  23.862 -31.052  1.00  0.00     0.226 A 
ATOM     22  C   UNL     1      -6.015  26.969 -32.874  1.00  0.00     0.033 A 
ATOM     23  C   UNL     1      -5.444  24.817 -32.577  1.00  0.00     0.142 A 
ATOM     24  N   UNL     1      -4.913  23.666 -32.144  1.00  0.00    -0.218 NA
ATOM     25  C   UNL     1      -6.587  26.228 -33.887  1.00  0.00     0.085 A 
ATOM     26  N   UNL     1      -6.233  24.920 -33.689  1.00  0.00    -0.346 N 
ATOM     27  H   UNL     1      -6.484  24.134 -34.271  1.00  0.00     0.167 HD
ENDBRANCH  16  18
ENDBRANCH   3  16
TORSDOF 5
ENDMDL
MODEL 7
REMARK VINA RESULT:    -7.609      1.655      2.622
REMARK INTER + INTRA:          -9.557
REMARK INTER:                  -9.993
REMARK INTRA:                   0.436
REMARK UNBOUND:                 0.276
REMARK SMILES CN1CCN(S(=O)(=O)C[C@H]2C[C@@H](N(C)c3ncnc4[nH]ccc34)C2)CC1
REMARK SMILES IDX 10 1 11 2 12 3 24 4 9 5 6 6 7 7 8 8 5 9 2 10 3 11 26 12 4 13
REMARK SMILES IDX 25 14 1 15 13 16 14 17 15 18 16 19 23 20 17 21 22 22 19 23
REMARK SMILES IDX 18 24 21 25 20 26
REMARK H PARENT 20 27
ROOT
ATOM      1  C   UNL     1      -3.074  25.305 -27.109  1.00  0.00     0.009 C 
ATOM      2  C   UNL     1      -3.468  26.318 -28.213  1.00  0.00     0.029 C 
ATOM      3  C   UNL     1      -4.109  25.128 -28.983  1.00  0.00     0.084 C 
ATOM      4  C   UNL     1      -3.082  24.234 -28.229  1.00  0.00     0.029 C 
ENDROOT
BRANCH   1   5
ATOM      5  C   UNL     1      -1.737  25.495 -26.412  1.00  0.00     0.158 C 
BRANCH   5   6
ATOM      6  S   UNL     1      -1.703  24.566 -24.878  1.00  0.00     0.214 S 
ATOM      7  O   UNL     1      -2.630  25.188 -23.956  1.00  0.00    -0.212 OA
ATOM      8  O   UNL     1      -1.782  23.153 -25.178  1.00  0.00    -0.212 OA
BRANCH   6   9
ATOM      9  N   UNL     1      -0.127  24.882 -24.310  1.00  0.00    -0.199 NA
ATOM     10  N   UNL     1       2.849  25.018 -24.209  1.00  0.00    -0.304 NA
ATOM     11  C   UNL     1       1.995  26.206 -24.410  1.00  0.00     0.101 C 
ATOM     12  C   UNL     1       2.067  23.969 -23.521  1.00  0.00     0.101 C 
ATOM     13  C   UNL     1       0.628  25.928 -25.072  1.00  0.00     0.117 C 
ATOM     14  C   UNL     1       0.700  23.641 -24.157  1.00  0.00     0.117 C 
ATOM     15  C   UNL     1       3.413  24.533 -25.467  1.00  0.00     0.105 C 
ENDBRANCH   6   9
ENDBRANCH   5   6
ENDBRANCH   1   5
BRANCH   3  16
ATOM     16  N   UNL     1      -3.913  25.153 -30.405  1.00  0.00    -0.356 N 
ATOM     17  C   UNL     1      -2.662  24.672 -30.986  1.00  0.00     0.145 C 
BRANCH  16  18
ATOM     18  C   UNL     1      -4.788  25.712 -31.362  1.00  0.00     0.141 A 
ATOM     19  N   UNL     1      -4.970  27.065 -31.365  1.00  0.00    -0.219 NA
ATOM     20  C   UNL     1      -5.510  24.973 -32.331  1.00  0.00     0.061 A 
ATOM     21  C   UNL     1      -5.769  27.631 -32.288  1.00  0.00     0.226 A 
ATOM     22  C   UNL     1      -5.711  23.600 -32.669  1.00  0.00     0.033 A 
ATOM     23  C   UNL     1      -6.301  25.698 -33.214  1.00  0.00     0.142 A 
ATOM     24  N   UNL     1      -6.469  27.026 -33.256  1.00  0.00    -0.218 NA
ATOM     25  C   UNL     1      -6.570  23.540 -33.747  1.00  0.00     0.085 A 
ATOM     26  N   UNL     1      -6.916  24.825 -34.068  1.00  0.00    -0.346 N 
ATOM     27  H   UNL     1      -7.543  25.114 -34.805  1.00  0.00     0.167 HD
ENDBRANCH  16  18
ENDBRANCH   3  16
TORSDOF 5
ENDMDL
MODEL 8
REMARK VINA RESULT:    -7.505      5.287      7.528
REMARK INTER + INTRA:          -9.423
REMARK INTER:                  -9.699
REMARK INTRA:                   0.276
REMARK UNBOUND:                 0.276
REMARK SMILES CN1CCN(S(=O)(=O)C[C@H]2C[C@@H](N(C)c3ncnc4[nH]ccc34)C2)CC1
REMARK SMILES IDX 10 1 11 2 12 3 24 4 9 5 6 6 7 7 8 8 5 9 2 10 3 11 26 12 4 13
REMARK SMILES IDX 25 14 1 15 13 16 14 17 15 18 16 19 23 20 17 21 22 22 19 23
REMARK SMILES IDX 18 24 21 25 20 26
REMARK H PARENT 20 27
ROOT
ATOM      1  C   UNL     1      -3.633  28.786 -29.598  1.00  0.00     0.009 C 
ATOM      2  C   UNL     1      -4.123  27.375 -29.190  1.00  0.00     0.029 C 
ATOM      3  C   UNL     1      -4.119  27.009 -30.703  1.00  0.00     0.084 C 
ATOM      4  C   UNL     1      -4.336  28.529 -30.955  1.00  0.00     0.029 C 
ENDROOT
BRANCH   1   5
ATOM      5  C   UNL     1      -4.161  29.978 -28.817  1.00  0.00     0.158 C 
BRANCH   5   6
ATOM      6  S   UNL     1      -3.525  31.504 -29.514  1.00  0.00     0.214 S 
ATOM      7  O   UNL     1      -2.131  31.299 -29.848  1.00  0.00    -0.212 OA
ATOM      8  O   UNL     1      -4.463  32.003 -30.496  1.00  0.00    -0.212 OA
BRANCH   6   9
ATOM      9  N   UNL     1      -3.581  32.553 -28.172  1.00  0.00    -0.199 NA
ATOM     10  N   UNL     1      -4.478  33.809 -25.621  1.00  0.00    -0.304 NA
ATOM     11  C   UNL     1      -3.266  32.971 -25.724  1.00  0.00     0.101 C 
ATOM     12  C   UNL     1      -4.791  34.374 -26.951  1.00  0.00     0.101 C 
ATOM     13  C   UNL     1      -3.292  31.913 -26.849  1.00  0.00     0.117 C 
ATOM     14  C   UNL     1      -4.848  33.353 -28.106  1.00  0.00     0.117 C 
ATOM     15  C   UNL     1      -5.609  33.064 -25.070  1.00  0.00     0.105 C 
ENDBRANCH   6   9
ENDBRANCH   5   6
ENDBRANCH   1   5
BRANCH   3  16
ATOM     16  N   UNL     1      -5.221  26.193 -31.130  1.00  0.00    -0.356 N 
ATOM     17  C   UNL     1      -6.587  26.703 -31.058  1.00  0.00     0.145 C 
BRANCH  16  18
ATOM     18  C   UNL     1      -5.154  24.844 -31.541  1.00  0.00     0.141 A 
ATOM     19  N   UNL     1      -5.775  24.488 -32.704  1.00  0.00    -0.219 NA
ATOM     20  C   UNL     1      -4.492  23.811 -30.834  1.00  0.00     0.061 A 
ATOM     21  C   UNL     1      -5.699  23.218 -33.142  1.00  0.00     0.226 A 
ATOM     22  C   UNL     1      -3.798  23.665 -29.593  1.00  0.00     0.033 A 
ATOM     23  C   UNL     1      -4.504  22.547 -31.409  1.00  0.00     0.142 A 
ATOM     24  N   UNL     1      -5.077  22.182 -32.563  1.00  0.00    -0.218 NA
ATOM     25  C   UNL     1      -3.389  22.353 -29.477  1.00  0.00     0.085 A 
ATOM     26  N   UNL     1      -3.823  21.688 -30.592  1.00  0.00    -0.346 N 
ATOM     27  H   UNL     1      -3.692  20.708 -30.797  1.00  0.00     0.167 HD
ENDBRANCH  16  18
ENDBRANCH   3  16
TORSDOF 5
ENDMDL
MODEL 9
REMARK VINA RESULT:    -7.449      2.035      3.412
REMARK INTER + INTRA:          -9.350
REMARK INTER:                  -9.906
REMARK INTRA:                   0.556
REMARK UNBOUND:                 0.276
REMARK SMILES CN1CCN(S(=O)(=O)C[C@H]2C[C@@H](N(C)c3ncnc4[nH]ccc34)C2)CC1
REMARK SMILES IDX 10 1 11 2 12 3 24 4 9 5 6 6 7 7 8 8 5 9 2 10 3 11 26 12 4 13
REMARK SMILES IDX 25 14 1 15 13 16 14 17 15 18 16 19 23 20 17 21 22 22 19 23
REMARK SMILES IDX 18 24 21 25 20 26
REMARK H PARENT 20 27
ROOT
ATOM      1  C   UNL     1      -2.887  25.958 -27.385  1.00  0.00     0.009 C 
ATOM      2  C   UNL     1      -3.771  27.163 -27.790  1.00  0.00     0.029 C 
ATOM      3  C   UNL     1      -4.282  26.303 -28.982  1.00  0.00     0.084 C 
ATOM      4  C   UNL     1      -2.918  25.560 -28.883  1.00  0.00     0.029 C 
ENDROOT
BRANCH   1   5
ATOM      5  C   UNL     1      -1.503  26.244 -26.826  1.00  0.00     0.158 C 
BRANCH   5   6
ATOM      6  S   UNL     1      -0.960  24.881 -25.795  1.00  0.00     0.214 S 
ATOM      7  O   UNL     1      -1.148  25.261 -24.411  1.00  0.00    -0.212 OA
ATOM      8  O   UNL     1      -1.510  23.647 -26.313  1.00  0.00    -0.212 OA
BRANCH   6   9
ATOM      9  N   UNL     1       0.718  24.860 -26.097  1.00  0.00    -0.199 NA
ATOM     10  N   UNL     1       3.632  25.418 -25.809  1.00  0.00    -0.304 NA
ATOM     11  C   UNL     1       3.027  24.110 -25.488  1.00  0.00     0.101 C 
ATOM     12  C   UNL     1       2.768  26.128 -26.776  1.00  0.00     0.101 C 
ATOM     13  C   UNL     1       1.544  24.159 -25.062  1.00  0.00     0.117 C 
ATOM     14  C   UNL     1       1.279  26.221 -26.385  1.00  0.00     0.117 C 
ATOM     15  C   UNL     1       3.871  26.218 -24.609  1.00  0.00     0.105 C 
ENDBRANCH   6   9
ENDBRANCH   5   6
ENDBRANCH   1   5
BRANCH   3  16
ATOM     16  N   UNL     1      -4.456  27.020 -30.214  1.00  0.00    -0.356 N 
ATOM     17  C   UNL     1      -4.062  28.423 -30.312  1.00  0.00     0.145 C 
BRANCH  16  18
ATOM     18  C   UNL     1      -5.090  26.540 -31.381  1.00  0.00     0.141 A 
ATOM     19  N   UNL     1      -5.754  27.433 -32.174  1.00  0.00    -0.219 NA
ATOM     20  C   UNL     1      -5.099  25.189 -31.803  1.00  0.00     0.061 A 
ATOM     21  C   UNL     1      -6.337  27.013 -33.311  1.00  0.00     0.226 A 
ATOM     22  C   UNL     1      -4.639  23.930 -31.307  1.00  0.00     0.033 A 
ATOM     23  C   UNL     1      -5.748  24.907 -32.999  1.00  0.00     0.142 A 
ATOM     24  N   UNL     1      -6.378  25.769 -33.807  1.00  0.00    -0.218 NA
ATOM     25  C   UNL     1      -4.985  22.953 -32.216  1.00  0.00     0.085 A 
ATOM     26  N   UNL     1      -5.655  23.564 -33.242  1.00  0.00    -0.346 N 
ATOM     27  H   UNL     1      -6.049  23.115 -34.056  1.00  0.00     0.167 HD
ENDBRANCH  16  18
ENDBRANCH   3  16
TORSDOF 5
ENDMDL
