MODEL 1
REMARK VINA RESULT:    -9.991      0.000      0.000
REMARK INTER + INTRA:         -18.332
REMARK INTER:                 -16.416
REMARK INTRA:                  -1.915
REMARK UNBOUND:                -1.915
REMARK SMILES COc1cc([C@H](Nc2ccc(C(=N)N)cc2)C(=O)NCc2ccccc2)ccc1OCc1ccccc1
REMARK SMILES IDX 6 1 5 2 3 3 4 4 29 5 28 6 27 7 2 8 1 9 30 10 31 11 32 12
REMARK SMILES IDX 33 13 37 14 34 15 36 16 35 17 7 18 8 20 9 21 16 22 10 23
REMARK SMILES IDX 15 24 11 25 12 26 13 27 14 28 17 32 18 33 19 34 20 36 21 37
REMARK SMILES IDX 22 38 26 39 23 40 25 41 24 42
REMARK H PARENT 7 19 13 29 14 30 14 31 19 35
ROOT
ATOM      1  C   UNL     1      13.605 -13.213  20.181  1.00  0.00     0.200 C 
ENDROOT
BRANCH   1   2
ATOM      2  C   UNL     1      14.912 -13.581  20.874  1.00  0.00    -0.012 A 
ATOM      3  C   UNL     1      17.219 -13.076  21.492  1.00  0.00     0.161 A 
ATOM      4  C   UNL     1      16.007 -12.700  20.899  1.00  0.00     0.056 A 
ATOM      5  C   UNL     1      17.360 -14.360  22.051  1.00  0.00     0.161 A 
ATOM      6  C   UNL     1      16.276 -15.242  22.019  1.00  0.00     0.051 A 
ATOM      7  C   UNL     1      15.066 -14.857  21.435  1.00  0.00     0.010 A 
BRANCH   3   8
ATOM      8  O   UNL     1      18.330 -12.269  21.527  1.00  0.00    -0.493 OA
ATOM      9  C   UNL     1      18.920 -11.954  20.272  1.00  0.00     0.278 C 
ENDBRANCH   3   8
BRANCH   5  10
ATOM     10  O   UNL     1      18.584 -14.647  22.597  1.00  0.00    -0.485 OA
BRANCH  10  11
ATOM     11  C   UNL     1      18.615 -15.284  23.873  1.00  0.00     0.265 C 
BRANCH  11  12
ATOM     12  C   UNL     1      19.424 -14.448  24.838  1.00  0.00    -0.011 A 
ATOM     13  C   UNL     1      20.107 -13.307  24.389  1.00  0.00     0.007 A 
ATOM     14  C   UNL     1      19.462 -14.763  26.204  1.00  0.00     0.007 A 
ATOM     15  C   UNL     1      20.828 -12.514  25.284  1.00  0.00     0.000 A 
ATOM     16  C   UNL     1      20.182 -13.968  27.097  1.00  0.00     0.000 A 
ATOM     17  C   UNL     1      20.865 -12.845  26.636  1.00  0.00     0.000 A 
ENDBRANCH  11  12
ENDBRANCH  10  11
ENDBRANCH   5  10
ENDBRANCH   1   2
BRANCH   1  18
ATOM     18  N   UNL     1      12.588 -13.000  21.229  1.00  0.00    -0.370 N 
ATOM     19  H   UNL     1      12.132 -13.842  21.568  1.00  0.00     0.161 HD
BRANCH  18  20
ATOM     20  C   UNL     1      12.462 -11.858  21.998  1.00  0.00     0.035 A 
ATOM     21  C   UNL     1      13.155 -10.670  21.742  1.00  0.00     0.026 A 
ATOM     22  C   UNL     1      11.542 -11.861  23.057  1.00  0.00     0.026 A 
ATOM     23  C   UNL     1      12.962  -9.530  22.533  1.00  0.00     0.014 A 
ATOM     24  C   UNL     1      11.340 -10.730  23.855  1.00  0.00     0.014 A 
ATOM     25  C   UNL     1      12.056  -9.562  23.594  1.00  0.00     0.016 A 
BRANCH  25  26
ATOM     26  C   UNL     1      11.846  -8.353  24.431  1.00  0.00     0.122 C 
ATOM     27  N   UNL     1      12.822  -7.579  24.785  1.00  0.00    -0.284 NA
ATOM     28  N   UNL     1      10.603  -8.025  24.860  1.00  0.00    -0.384 N 
ATOM     29  H   UNL     1      13.708  -7.894  24.379  1.00  0.00     0.189 HD
ATOM     30  H   UNL     1      10.521  -7.202  25.443  1.00  0.00     0.158 HD
ATOM     31  H   UNL     1       9.799  -8.622  24.747  1.00  0.00     0.158 HD
ENDBRANCH  25  26
ENDBRANCH  18  20
ENDBRANCH   1  18
BRANCH   1  32
ATOM     32  C   UNL     1      13.173 -14.289  19.145  1.00  0.00     0.247 C 
ATOM     33  O   UNL     1      13.814 -14.523  18.122  1.00  0.00    -0.272 OA
ATOM     34  N   UNL     1      12.036 -14.987  19.493  1.00  0.00    -0.350 N 
ATOM     35  H   UNL     1      11.567 -14.692  20.344  1.00  0.00     0.163 HD
BRANCH  34  36
ATOM     36  C   UNL     1      11.520 -16.089  18.725  1.00  0.00     0.151 C 
BRANCH  36  37
ATOM     37  C   UNL     1      11.699 -17.388  19.468  1.00  0.00    -0.029 A 
ATOM     38  C   UNL     1      11.240 -18.596  18.924  1.00  0.00     0.005 A 
ATOM     39  C   UNL     1      12.299 -17.399  20.734  1.00  0.00     0.005 A 
ATOM     40  C   UNL     1      11.401 -19.793  19.626  1.00  0.00     0.000 A 
ATOM     41  C   UNL     1      12.462 -18.597  21.432  1.00  0.00     0.000 A 
ATOM     42  C   UNL     1      12.014 -19.794  20.877  1.00  0.00     0.000 A 
ENDBRANCH  36  37
ENDBRANCH  34  36
ENDBRANCH   1  32
TORSDOF 11
ENDMDL
MODEL 2
REMARK VINA RESULT:    -9.858      0.913      2.073
REMARK INTER + INTRA:         -18.112
REMARK INTER:                 -16.233
REMARK INTRA:                  -1.879
REMARK UNBOUND:                -1.915
REMARK SMILES COc1cc([C@H](Nc2ccc(C(=N)N)cc2)C(=O)NCc2ccccc2)ccc1OCc1ccccc1
REMARK SMILES IDX 6 1 5 2 3 3 4 4 29 5 28 6 27 7 2 8 1 9 30 10 31 11 32 12
REMARK SMILES IDX 33 13 37 14 34 15 36 16 35 17 7 18 8 20 9 21 16 22 10 23
REMARK SMILES IDX 15 24 11 25 12 26 13 27 14 28 17 32 18 33 19 34 20 36 21 37
REMARK SMILES IDX 22 38 26 39 23 40 25 41 24 42
REMARK H PARENT 7 19 13 29 14 30 14 31 19 35
ROOT
ATOM      1  C   UNL     1      13.500 -13.450  20.290  1.00  0.00     0.200 C 
ENDROOT
BRANCH   1   2
ATOM      2  C   UNL     1      14.743 -13.954  21.013  1.00  0.00    -0.012 A 
ATOM      3  C   UNL     1      16.023 -15.745  22.069  1.00  0.00     0.161 A 
ATOM      4  C   UNL     1      14.899 -15.309  21.355  1.00  0.00     0.056 A 
ATOM      5  C   UNL     1      17.001 -14.819  22.475  1.00  0.00     0.161 A 
ATOM      6  C   UNL     1      16.845 -13.470  22.144  1.00  0.00     0.051 A 
ATOM      7  C   UNL     1      15.727 -13.042  21.423  1.00  0.00     0.010 A 
BRANCH   3   8
ATOM      8  O   UNL     1      16.219 -17.050  22.452  1.00  0.00    -0.493 OA
ATOM      9  C   UNL     1      15.203 -17.630  23.261  1.00  0.00     0.278 C 
ENDBRANCH   3   8
BRANCH   5  10
ATOM     10  O   UNL     1      18.059 -15.333  23.180  1.00  0.00    -0.485 OA
BRANCH  10  11
ATOM     11  C   UNL     1      19.337 -14.724  23.007  1.00  0.00     0.265 C 
BRANCH  11  12
ATOM     12  C   UNL     1      19.799 -14.136  24.321  1.00  0.00    -0.011 A 
ATOM     13  C   UNL     1      19.400 -14.712  25.536  1.00  0.00     0.007 A 
ATOM     14  C   UNL     1      20.678 -13.042  24.349  1.00  0.00     0.007 A 
ATOM     15  C   UNL     1      19.853 -14.192  26.751  1.00  0.00     0.000 A 
ATOM     16  C   UNL     1      21.129 -12.525  25.564  1.00  0.00     0.000 A 
ATOM     17  C   UNL     1      20.717 -13.099  26.764  1.00  0.00     0.000 A 
ENDBRANCH  11  12
ENDBRANCH  10  11
ENDBRANCH   5  10
ENDBRANCH   1   2
BRANCH   1  18
ATOM     18  N   UNL     1      12.469 -13.175  21.309  1.00  0.00    -0.370 N 
ATOM     19  H   UNL     1      11.977 -13.992  21.659  1.00  0.00     0.161 HD
BRANCH  18  20
ATOM     20  C   UNL     1      12.367 -12.010  22.046  1.00  0.00     0.035 A 
ATOM     21  C   UNL     1      13.050 -10.830  21.731  1.00  0.00     0.026 A 
ATOM     22  C   UNL     1      11.480 -11.980  23.132  1.00  0.00     0.026 A 
ATOM     23  C   UNL     1      12.880  -9.666  22.492  1.00  0.00     0.014 A 
ATOM     24  C   UNL     1      11.302 -10.824  23.901  1.00  0.00     0.014 A 
ATOM     25  C   UNL     1      12.009  -9.665  23.582  1.00  0.00     0.016 A 
BRANCH  25  26
ATOM     26  C   UNL     1      11.823  -8.430  24.387  1.00  0.00     0.122 C 
ATOM     27  N   UNL     1      12.819  -7.683  24.744  1.00  0.00    -0.284 NA
ATOM     28  N   UNL     1      10.584  -8.050  24.781  1.00  0.00    -0.384 N 
ATOM     29  H   UNL     1      13.701  -8.038  24.364  1.00  0.00     0.189 HD
ATOM     30  H   UNL     1      10.520  -7.212  25.345  1.00  0.00     0.158 HD
ATOM     31  H   UNL     1       9.762  -8.622  24.665  1.00  0.00     0.158 HD
ENDBRANCH  25  26
ENDBRANCH  18  20
ENDBRANCH   1  18
BRANCH   1  32
ATOM     32  C   UNL     1      13.011 -14.452  19.207  1.00  0.00     0.247 C 
ATOM     33  O   UNL     1      13.638 -14.671  18.171  1.00  0.00    -0.272 OA
ATOM     34  N   UNL     1      11.840 -15.107  19.526  1.00  0.00    -0.350 N 
ATOM     35  H   UNL     1      11.388 -14.828  20.392  1.00  0.00     0.163 HD
BRANCH  34  36
ATOM     36  C   UNL     1      11.266 -16.143  18.710  1.00  0.00     0.151 C 
BRANCH  36  37
ATOM     37  C   UNL     1      11.441 -17.492  19.358  1.00  0.00    -0.029 A 
ATOM     38  C   UNL     1      11.949 -17.604  20.660  1.00  0.00     0.005 A 
ATOM     39  C   UNL     1      11.129 -18.660  18.650  1.00  0.00     0.005 A 
ATOM     40  C   UNL     1      12.118 -18.860  21.247  1.00  0.00     0.000 A 
ATOM     41  C   UNL     1      11.296 -19.914  19.240  1.00  0.00     0.000 A 
ATOM     42  C   UNL     1      11.789 -20.013  20.539  1.00  0.00     0.000 A 
ENDBRANCH  36  37
ENDBRANCH  34  36
ENDBRANCH   1  32
TORSDOF 11
ENDMDL
MODEL 3
REMARK VINA RESULT:    -9.689      1.864      2.208
REMARK INTER + INTRA:         -17.835
REMARK INTER:                 -16.172
REMARK INTRA:                  -1.663
REMARK UNBOUND:                -1.915
REMARK SMILES COc1cc([C@H](Nc2ccc(C(=N)N)cc2)C(=O)NCc2ccccc2)ccc1OCc1ccccc1
REMARK SMILES IDX 6 1 5 2 3 3 4 4 29 5 28 6 27 7 2 8 1 9 30 10 31 11 32 12
REMARK SMILES IDX 33 13 37 14 34 15 36 16 35 17 7 18 8 20 9 21 16 22 10 23
REMARK SMILES IDX 15 24 11 25 12 26 13 27 14 28 17 32 18 33 19 34 20 36 21 37
REMARK SMILES IDX 22 38 26 39 23 40 25 41 24 42
REMARK H PARENT 7 19 13 29 14 30 14 31 19 35
ROOT
ATOM      1  C   UNL     1      14.311 -12.547  19.364  1.00  0.00     0.200 C 
ENDROOT
BRANCH   1   2
ATOM      2  C   UNL     1      15.588 -12.607  20.195  1.00  0.00    -0.012 A 
ATOM      3  C   UNL     1      17.966 -12.144  20.494  1.00  0.00     0.161 A 
ATOM      4  C   UNL     1      16.788 -12.032  19.743  1.00  0.00     0.056 A 
ATOM      5  C   UNL     1      17.962 -12.861  21.705  1.00  0.00     0.161 A 
ATOM      6  C   UNL     1      16.772 -13.442  22.152  1.00  0.00     0.051 A 
ATOM      7  C   UNL     1      15.598 -13.318  21.404  1.00  0.00     0.010 A 
BRANCH   3   8
ATOM      8  O   UNL     1      19.173 -11.625  20.094  1.00  0.00    -0.493 OA
ATOM      9  C   UNL     1      19.930 -12.415  19.185  1.00  0.00     0.278 C 
ENDBRANCH   3   8
BRANCH   5  10
ATOM     10  O   UNL     1      19.161 -12.930  22.366  1.00  0.00    -0.485 OA
BRANCH  10  11
ATOM     11  C   UNL     1      19.504 -14.159  23.002  1.00  0.00     0.265 C 
BRANCH  11  12
ATOM     12  C   UNL     1      19.838 -13.903  24.454  1.00  0.00    -0.011 A 
ATOM     13  C   UNL     1      19.389 -14.781  25.452  1.00  0.00     0.007 A 
ATOM     14  C   UNL     1      20.646 -12.817  24.824  1.00  0.00     0.007 A 
ATOM     15  C   UNL     1      19.725 -14.565  26.790  1.00  0.00     0.000 A 
ATOM     16  C   UNL     1      20.981 -12.604  26.162  1.00  0.00     0.000 A 
ATOM     17  C   UNL     1      20.520 -13.477  27.144  1.00  0.00     0.000 A 
ENDBRANCH  11  12
ENDBRANCH  10  11
ENDBRANCH   5  10
ENDBRANCH   1   2
BRANCH   1  18
ATOM     18  N   UNL     1      13.169 -12.533  20.300  1.00  0.00    -0.370 N 
ATOM     19  H   UNL     1      12.687 -13.420  20.410  1.00  0.00     0.161 HD
BRANCH  18  20
ATOM     20  C   UNL     1      12.933 -11.561  21.254  1.00  0.00     0.035 A 
ATOM     21  C   UNL     1      13.517 -10.289  21.228  1.00  0.00     0.026 A 
ATOM     22  C   UNL     1      12.007 -11.832  22.272  1.00  0.00     0.026 A 
ATOM     23  C   UNL     1      13.213  -9.329  22.203  1.00  0.00     0.014 A 
ATOM     24  C   UNL     1      11.696 -10.883  23.252  1.00  0.00     0.014 A 
ATOM     25  C   UNL     1      12.305  -9.629  23.218  1.00  0.00     0.016 A 
BRANCH  25  26
ATOM     26  C   UNL     1      11.977  -8.610  24.249  1.00  0.00     0.122 C 
ATOM     27  N   UNL     1      12.868  -7.805  24.733  1.00  0.00    -0.284 NA
ATOM     28  N   UNL     1      10.713  -8.499  24.724  1.00  0.00    -0.384 N 
ATOM     29  H   UNL     1      13.777  -7.947  24.281  1.00  0.00     0.189 HD
ATOM     30  H   UNL     1      10.551  -7.802  25.440  1.00  0.00     0.158 HD
ATOM     31  H   UNL     1       9.977  -9.154  24.509  1.00  0.00     0.158 HD
ENDBRANCH  25  26
ENDBRANCH  18  20
ENDBRANCH   1  18
BRANCH   1  32
ATOM     32  C   UNL     1      14.226 -13.717  18.344  1.00  0.00     0.247 C 
ATOM     33  O   UNL     1      14.667 -13.634  17.198  1.00  0.00    -0.272 OA
ATOM     34  N   UNL     1      13.655 -14.868  18.845  1.00  0.00    -0.350 N 
ATOM     35  H   UNL     1      13.296 -14.818  19.793  1.00  0.00     0.163 HD
BRANCH  34  36
ATOM     36  C   UNL     1      13.567 -16.096  18.100  1.00  0.00     0.151 C 
BRANCH  36  37
ATOM     37  C   UNL     1      14.710 -17.014  18.447  1.00  0.00    -0.029 A 
ATOM     38  C   UNL     1      15.234 -17.902  17.497  1.00  0.00     0.005 A 
ATOM     39  C   UNL     1      15.244 -17.016  19.743  1.00  0.00     0.005 A 
ATOM     40  C   UNL     1      16.286 -18.756  17.833  1.00  0.00     0.000 A 
ATOM     41  C   UNL     1      16.298 -17.869  20.075  1.00  0.00     0.000 A 
ATOM     42  C   UNL     1      16.820 -18.738  19.120  1.00  0.00     0.000 A 
ENDBRANCH  36  37
ENDBRANCH  34  36
ENDBRANCH   1  32
TORSDOF 11
ENDMDL
MODEL 4
REMARK VINA RESULT:    -9.563      2.711      4.566
REMARK INTER + INTRA:         -17.629
REMARK INTER:                 -15.876
REMARK INTRA:                  -1.753
REMARK UNBOUND:                -1.915
REMARK SMILES COc1cc([C@H](Nc2ccc(C(=N)N)cc2)C(=O)NCc2ccccc2)ccc1OCc1ccccc1
REMARK SMILES IDX 6 1 5 2 3 3 4 4 29 5 28 6 27 7 2 8 1 9 30 10 31 11 32 12
REMARK SMILES IDX 33 13 37 14 34 15 36 16 35 17 7 18 8 20 9 21 16 22 10 23
REMARK SMILES IDX 15 24 11 25 12 26 13 27 14 28 17 32 18 33 19 34 20 36 21 37
REMARK SMILES IDX 22 38 26 39 23 40 25 41 24 42
REMARK H PARENT 7 19 13 29 14 30 14 31 19 35
ROOT
ATOM      1  C   UNL     1      14.495 -12.916  20.177  1.00  0.00     0.200 C 
ENDROOT
BRANCH   1   2
ATOM      2  C   UNL     1      15.480 -13.650  21.079  1.00  0.00    -0.012 A 
ATOM      3  C   UNL     1      16.238 -15.673  22.216  1.00  0.00     0.161 A 
ATOM      4  C   UNL     1      15.356 -15.025  21.342  1.00  0.00     0.056 A 
ATOM      5  C   UNL     1      17.250 -14.941  22.863  1.00  0.00     0.161 A 
ATOM      6  C   UNL     1      17.371 -13.571  22.612  1.00  0.00     0.051 A 
ATOM      7  C   UNL     1      16.494 -12.932  21.730  1.00  0.00     0.010 A 
BRANCH   3   8
ATOM      8  O   UNL     1      16.153 -17.007  22.529  1.00  0.00    -0.493 OA
ATOM      9  C   UNL     1      15.364 -17.811  21.660  1.00  0.00     0.278 C 
ENDBRANCH   3   8
BRANCH   5  10
ATOM     10  O   UNL     1      18.059 -15.653  23.711  1.00  0.00    -0.485 OA
BRANCH  10  11
ATOM     11  C   UNL     1      19.470 -15.488  23.586  1.00  0.00     0.265 C 
BRANCH  11  12
ATOM     12  C   UNL     1      19.972 -14.573  24.680  1.00  0.00    -0.011 A 
ATOM     13  C   UNL     1      20.727 -13.434  24.361  1.00  0.00     0.007 A 
ATOM     14  C   UNL     1      19.646 -14.812  26.023  1.00  0.00     0.007 A 
ATOM     15  C   UNL     1      21.163 -12.568  25.366  1.00  0.00     0.000 A 
ATOM     16  C   UNL     1      20.083 -13.946  27.025  1.00  0.00     0.000 A 
ATOM     17  C   UNL     1      20.841 -12.824  26.697  1.00  0.00     0.000 A 
ENDBRANCH  11  12
ENDBRANCH  10  11
ENDBRANCH   5  10
ENDBRANCH   1   2
BRANCH   1  18
ATOM     18  N   UNL     1      13.208 -12.831  20.896  1.00  0.00    -0.370 N 
ATOM     19  H   UNL     1      12.698 -13.706  20.975  1.00  0.00     0.161 HD
BRANCH  18  20
ATOM     20  C   UNL     1      12.829 -11.798  21.732  1.00  0.00     0.035 A 
ATOM     21  C   UNL     1      11.835 -11.916  22.711  1.00  0.00     0.026 A 
ATOM     22  C   UNL     1      13.517 -10.579  21.645  1.00  0.00     0.026 A 
ATOM     23  C   UNL     1      11.516 -10.845  23.556  1.00  0.00     0.014 A 
ATOM     24  C   UNL     1      13.207  -9.501  22.483  1.00  0.00     0.014 A 
ATOM     25  C   UNL     1      12.200  -9.635  23.438  1.00  0.00     0.016 A 
BRANCH  25  26
ATOM     26  C   UNL     1      11.867  -8.499  24.337  1.00  0.00     0.122 C 
ATOM     27  N   UNL     1      12.764  -7.665  24.757  1.00  0.00    -0.284 NA
ATOM     28  N   UNL     1      10.592  -8.307  24.754  1.00  0.00    -0.384 N 
ATOM     29  H   UNL     1      13.682  -7.877  24.355  1.00  0.00     0.189 HD
ATOM     30  H   UNL     1      10.427  -7.531  25.381  1.00  0.00     0.158 HD
ATOM     31  H   UNL     1       9.847  -8.965  24.588  1.00  0.00     0.158 HD
ENDBRANCH  25  26
ENDBRANCH  18  20
ENDBRANCH   1  18
BRANCH   1  32
ATOM     32  C   UNL     1      14.355 -13.601  18.789  1.00  0.00     0.247 C 
ATOM     33  O   UNL     1      13.363 -14.254  18.466  1.00  0.00    -0.272 OA
ATOM     34  N   UNL     1      15.415 -13.377  17.936  1.00  0.00    -0.350 N 
ATOM     35  H   UNL     1      16.196 -12.851  18.314  1.00  0.00     0.163 HD
BRANCH  34  36
ATOM     36  C   UNL     1      15.443 -13.838  16.573  1.00  0.00     0.151 C 
BRANCH  36  37
ATOM     37  C   UNL     1      15.723 -12.697  15.629  1.00  0.00    -0.029 A 
ATOM     38  C   UNL     1      15.872 -12.921  14.254  1.00  0.00     0.005 A 
ATOM     39  C   UNL     1      15.872 -11.394  16.123  1.00  0.00     0.005 A 
ATOM     40  C   UNL     1      16.142 -11.858  13.389  1.00  0.00     0.000 A 
ATOM     41  C   UNL     1      16.139 -10.333  15.257  1.00  0.00     0.000 A 
ATOM     42  C   UNL     1      16.273 -10.565  13.890  1.00  0.00     0.000 A 
ENDBRANCH  36  37
ENDBRANCH  34  36
ENDBRANCH   1  32
TORSDOF 11
ENDMDL
MODEL 5
REMARK VINA RESULT:    -9.503      4.221      8.873
REMARK INTER + INTRA:         -17.529
REMARK INTER:                 -15.024
REMARK INTRA:                  -2.505
REMARK UNBOUND:                -1.915
REMARK SMILES COc1cc([C@H](Nc2ccc(C(=N)N)cc2)C(=O)NCc2ccccc2)ccc1OCc1ccccc1
REMARK SMILES IDX 6 1 5 2 3 3 4 4 29 5 28 6 27 7 2 8 1 9 30 10 31 11 32 12
REMARK SMILES IDX 33 13 37 14 34 15 36 16 35 17 7 18 8 20 9 21 16 22 10 23
REMARK SMILES IDX 15 24 11 25 12 26 13 27 14 28 17 32 18 33 19 34 20 36 21 37
REMARK SMILES IDX 22 38 26 39 23 40 25 41 24 42
REMARK H PARENT 7 19 13 29 14 30 14 31 19 35
ROOT
ATOM      1  C   UNL     1      17.911 -15.421  21.032  1.00  0.00     0.200 C 
ENDROOT
BRANCH   1   2
ATOM      2  C   UNL     1      17.006 -14.205  20.880  1.00  0.00    -0.012 A 
ATOM      3  C   UNL     1      16.360 -12.152  19.728  1.00  0.00     0.161 A 
ATOM      4  C   UNL     1      17.165 -13.294  19.821  1.00  0.00     0.056 A 
ATOM      5  C   UNL     1      15.393 -11.891  20.716  1.00  0.00     0.161 A 
ATOM      6  C   UNL     1      15.238 -12.789  21.776  1.00  0.00     0.051 A 
ATOM      7  C   UNL     1      16.038 -13.933  21.858  1.00  0.00     0.010 A 
BRANCH   3   8
ATOM      8  O   UNL     1      16.484 -11.216  18.731  1.00  0.00    -0.493 OA
ATOM      9  C   UNL     1      16.324 -11.687  17.398  1.00  0.00     0.278 C 
ENDBRANCH   3   8
BRANCH   5  10
ATOM     10  O   UNL     1      14.660 -10.744  20.552  1.00  0.00    -0.485 OA
BRANCH  10  11
ATOM     11  C   UNL     1      13.247 -10.868  20.409  1.00  0.00     0.265 C 
BRANCH  11  12
ATOM     12  C   UNL     1      12.583 -10.689  21.756  1.00  0.00    -0.011 A 
ATOM     13  C   UNL     1      12.722  -9.484  22.461  1.00  0.00     0.007 A 
ATOM     14  C   UNL     1      11.775 -11.699  22.297  1.00  0.00     0.007 A 
ATOM     15  C   UNL     1      12.083  -9.303  23.689  1.00  0.00     0.000 A 
ATOM     16  C   UNL     1      11.136 -11.516  23.525  1.00  0.00     0.000 A 
ATOM     17  C   UNL     1      11.291 -10.319  24.220  1.00  0.00     0.000 A 
ENDBRANCH  11  12
ENDBRANCH  10  11
ENDBRANCH   5  10
ENDBRANCH   1   2
BRANCH   1  18
ATOM     18  N   UNL     1      17.283 -16.328  22.013  1.00  0.00    -0.370 N 
ATOM     19  H   UNL     1      16.501 -16.872  21.661  1.00  0.00     0.161 HD
BRANCH  18  20
ATOM     20  C   UNL     1      17.858 -16.738  23.201  1.00  0.00     0.035 A 
ATOM     21  C   UNL     1      17.599 -16.137  24.438  1.00  0.00     0.026 A 
ATOM     22  C   UNL     1      18.698 -17.861  23.185  1.00  0.00     0.026 A 
ATOM     23  C   UNL     1      18.183 -16.619  25.617  1.00  0.00     0.014 A 
ATOM     24  C   UNL     1      19.288 -18.352  24.356  1.00  0.00     0.014 A 
ATOM     25  C   UNL     1      19.032 -17.725  25.575  1.00  0.00     0.016 A 
BRANCH  25  26
ATOM     26  C   UNL     1      19.648 -18.240  26.825  1.00  0.00     0.122 C 
ATOM     27  N   UNL     1      18.971 -18.382  27.920  1.00  0.00    -0.284 NA
ATOM     28  N   UNL     1      20.960 -18.576  26.854  1.00  0.00    -0.384 N 
ATOM     29  H   UNL     1      17.986 -18.138  27.780  1.00  0.00     0.189 HD
ATOM     30  H   UNL     1      21.330 -18.902  27.737  1.00  0.00     0.158 HD
ATOM     31  H   UNL     1      21.601 -18.387  26.099  1.00  0.00     0.158 HD
ENDBRANCH  25  26
ENDBRANCH  18  20
ENDBRANCH   1  18
BRANCH   1  32
ATOM     32  C   UNL     1      19.358 -15.023  21.435  1.00  0.00     0.247 C 
ATOM     33  O   UNL     1      20.355 -15.581  20.979  1.00  0.00    -0.272 OA
ATOM     34  N   UNL     1      19.431 -13.961  22.314  1.00  0.00    -0.350 N 
ATOM     35  H   UNL     1      18.547 -13.594  22.652  1.00  0.00     0.163 HD
BRANCH  34  36
ATOM     36  C   UNL     1      20.672 -13.371  22.739  1.00  0.00     0.151 C 
BRANCH  36  37
ATOM     37  C   UNL     1      20.916 -13.636  24.201  1.00  0.00    -0.029 A 
ATOM     38  C   UNL     1      21.419 -14.871  24.635  1.00  0.00     0.005 A 
ATOM     39  C   UNL     1      20.610 -12.657  25.156  1.00  0.00     0.005 A 
ATOM     40  C   UNL     1      21.631 -15.109  25.995  1.00  0.00     0.000 A 
ATOM     41  C   UNL     1      20.826 -12.896  26.514  1.00  0.00     0.000 A 
ATOM     42  C   UNL     1      21.338 -14.122  26.933  1.00  0.00     0.000 A 
ENDBRANCH  36  37
ENDBRANCH  34  36
ENDBRANCH   1  32
TORSDOF 11
ENDMDL
MODEL 6
REMARK VINA RESULT:    -9.498      3.214      6.280
REMARK INTER + INTRA:         -17.520
REMARK INTER:                 -16.032
REMARK INTRA:                  -1.488
REMARK UNBOUND:                -1.915
REMARK SMILES COc1cc([C@H](Nc2ccc(C(=N)N)cc2)C(=O)NCc2ccccc2)ccc1OCc1ccccc1
REMARK SMILES IDX 6 1 5 2 3 3 4 4 29 5 28 6 27 7 2 8 1 9 30 10 31 11 32 12
REMARK SMILES IDX 33 13 37 14 34 15 36 16 35 17 7 18 8 20 9 21 16 22 10 23
REMARK SMILES IDX 15 24 11 25 12 26 13 27 14 28 17 32 18 33 19 34 20 36 21 37
REMARK SMILES IDX 22 38 26 39 23 40 25 41 24 42
REMARK H PARENT 7 19 13 29 14 30 14 31 19 35
ROOT
ATOM      1  C   UNL     1      15.655 -14.427  19.752  1.00  0.00     0.200 C 
ENDROOT
BRANCH   1   2
ATOM      2  C   UNL     1      16.971 -14.729  20.461  1.00  0.00    -0.012 A 
ATOM      3  C   UNL     1      19.275 -14.153  21.027  1.00  0.00     0.161 A 
ATOM      4  C   UNL     1      18.055 -13.835  20.416  1.00  0.00     0.056 A 
ATOM      5  C   UNL     1      19.434 -15.392  21.674  1.00  0.00     0.161 A 
ATOM      6  C   UNL     1      18.362 -16.287  21.712  1.00  0.00     0.051 A 
ATOM      7  C   UNL     1      17.143 -15.960  21.110  1.00  0.00     0.010 A 
BRANCH   3   8
ATOM      8  O   UNL     1      20.375 -13.331  20.997  1.00  0.00    -0.493 OA
ATOM      9  C   UNL     1      20.273 -12.170  20.183  1.00  0.00     0.278 C 
ENDBRANCH   3   8
BRANCH   5  10
ATOM     10  O   UNL     1      20.665 -15.624  22.232  1.00  0.00    -0.485 OA
BRANCH  10  11
ATOM     11  C   UNL     1      20.711 -16.154  23.555  1.00  0.00     0.265 C 
BRANCH  11  12
ATOM     12  C   UNL     1      20.771 -15.021  24.554  1.00  0.00    -0.011 A 
ATOM     13  C   UNL     1      21.523 -13.869  24.276  1.00  0.00     0.007 A 
ATOM     14  C   UNL     1      20.035 -15.075  25.746  1.00  0.00     0.007 A 
ATOM     15  C   UNL     1      21.553 -12.806  25.181  1.00  0.00     0.000 A 
ATOM     16  C   UNL     1      20.066 -14.012  26.650  1.00  0.00     0.000 A 
ATOM     17  C   UNL     1      20.825 -12.878  26.367  1.00  0.00     0.000 A 
ENDBRANCH  11  12
ENDBRANCH  10  11
ENDBRANCH   5  10
ENDBRANCH   1   2
BRANCH   1  18
ATOM     18  N   UNL     1      15.749 -13.062  19.197  1.00  0.00    -0.370 N 
ATOM     19  H   UNL     1      15.939 -12.331  19.874  1.00  0.00     0.161 HD
BRANCH  18  20
ATOM     20  C   UNL     1      15.942 -12.757  17.863  1.00  0.00     0.035 A 
ATOM     21  C   UNL     1      16.639 -11.627  17.418  1.00  0.00     0.026 A 
ATOM     22  C   UNL     1      15.475 -13.657  16.894  1.00  0.00     0.026 A 
ATOM     23  C   UNL     1      16.838 -11.386  16.052  1.00  0.00     0.014 A 
ATOM     24  C   UNL     1      15.665 -13.427  15.527  1.00  0.00     0.014 A 
ATOM     25  C   UNL     1      16.345 -12.285  15.106  1.00  0.00     0.016 A 
BRANCH  25  26
ATOM     26  C   UNL     1      16.559 -12.033  13.657  1.00  0.00     0.122 C 
ATOM     27  N   UNL     1      17.154 -12.889  12.888  1.00  0.00    -0.284 NA
ATOM     28  N   UNL     1      16.135 -10.876  13.093  1.00  0.00    -0.384 N 
ATOM     29  H   UNL     1      17.398 -13.740  13.403  1.00  0.00     0.189 HD
ATOM     30  H   UNL     1      16.326 -10.750  12.107  1.00  0.00     0.158 HD
ATOM     31  H   UNL     1      15.777 -10.097  13.622  1.00  0.00     0.158 HD
ENDBRANCH  25  26
ENDBRANCH  18  20
ENDBRANCH   1  18
BRANCH   1  32
ATOM     32  C   UNL     1      14.433 -14.600  20.697  1.00  0.00     0.247 C 
ATOM     33  O   UNL     1      14.177 -15.659  21.267  1.00  0.00    -0.272 OA
ATOM     34  N   UNL     1      13.687 -13.454  20.875  1.00  0.00    -0.350 N 
ATOM     35  H   UNL     1      13.967 -12.643  20.332  1.00  0.00     0.163 HD
BRANCH  34  36
ATOM     36  C   UNL     1      12.573 -13.369  21.783  1.00  0.00     0.151 C 
BRANCH  36  37
ATOM     37  C   UNL     1      12.425 -11.969  22.317  1.00  0.00    -0.029 A 
ATOM     38  C   UNL     1      11.471 -11.671  23.301  1.00  0.00     0.005 A 
ATOM     39  C   UNL     1      13.221 -10.933  21.811  1.00  0.00     0.005 A 
ATOM     40  C   UNL     1      11.334 -10.367  23.781  1.00  0.00     0.000 A 
ATOM     41  C   UNL     1      13.085  -9.631  22.295  1.00  0.00     0.000 A 
ATOM     42  C   UNL     1      12.142  -9.349  23.281  1.00  0.00     0.000 A 
ENDBRANCH  36  37
ENDBRANCH  34  36
ENDBRANCH   1  32
TORSDOF 11
ENDMDL
MODEL 7
REMARK VINA RESULT:    -9.175      3.172      6.302
REMARK INTER + INTRA:         -16.990
REMARK INTER:                 -15.336
REMARK INTRA:                  -1.654
REMARK UNBOUND:                -1.915
REMARK SMILES COc1cc([C@H](Nc2ccc(C(=N)N)cc2)C(=O)NCc2ccccc2)ccc1OCc1ccccc1
REMARK SMILES IDX 6 1 5 2 3 3 4 4 29 5 28 6 27 7 2 8 1 9 30 10 31 11 32 12
REMARK SMILES IDX 33 13 37 14 34 15 36 16 35 17 7 18 8 20 9 21 16 22 10 23
REMARK SMILES IDX 15 24 11 25 12 26 13 27 14 28 17 32 18 33 19 34 20 36 21 37
REMARK SMILES IDX 22 38 26 39 23 40 25 41 24 42
REMARK H PARENT 7 19 13 29 14 30 14 31 19 35
ROOT
ATOM      1  C   UNL     1      15.532 -14.278  19.647  1.00  0.00     0.200 C 
ENDROOT
BRANCH   1   2
ATOM      2  C   UNL     1      16.555 -14.836  20.629  1.00  0.00    -0.012 A 
ATOM      3  C   UNL     1      17.238 -16.478  22.302  1.00  0.00     0.161 A 
ATOM      4  C   UNL     1      16.310 -16.010  21.363  1.00  0.00     0.056 A 
ATOM      5  C   UNL     1      18.423 -15.757  22.539  1.00  0.00     0.161 A 
ATOM      6  C   UNL     1      18.665 -14.584  21.819  1.00  0.00     0.051 A 
ATOM      7  C   UNL     1      17.741 -14.127  20.875  1.00  0.00     0.010 A 
BRANCH   3   8
ATOM      8  O   UNL     1      17.044 -17.604  23.064  1.00  0.00    -0.493 OA
ATOM      9  C   UNL     1      15.941 -17.576  23.961  1.00  0.00     0.278 C 
ENDBRANCH   3   8
BRANCH   5  10
ATOM     10  O   UNL     1      19.266 -16.281  23.485  1.00  0.00    -0.485 OA
BRANCH  10  11
ATOM     11  C   UNL     1      20.580 -15.737  23.584  1.00  0.00     0.265 C 
BRANCH  11  12
ATOM     12  C   UNL     1      20.613 -14.686  24.669  1.00  0.00    -0.011 A 
ATOM     13  C   UNL     1      20.229 -15.006  25.980  1.00  0.00     0.007 A 
ATOM     14  C   UNL     1      21.079 -13.390  24.400  1.00  0.00     0.007 A 
ATOM     15  C   UNL     1      20.291 -14.046  26.992  1.00  0.00     0.000 A 
ATOM     16  C   UNL     1      21.140 -12.433  25.413  1.00  0.00     0.000 A 
ATOM     17  C   UNL     1      20.746 -12.761  26.708  1.00  0.00     0.000 A 
ENDBRANCH  11  12
ENDBRANCH  10  11
ENDBRANCH   5  10
ENDBRANCH   1   2
BRANCH   1  18
ATOM     18  N   UNL     1      15.940 -12.900  19.311  1.00  0.00    -0.370 N 
ATOM     19  H   UNL     1      16.474 -12.419  20.027  1.00  0.00     0.161 HD
BRANCH  18  20
ATOM     20  C   UNL     1      15.961 -12.364  18.037  1.00  0.00     0.035 A 
ATOM     21  C   UNL     1      14.810 -12.097  17.287  1.00  0.00     0.026 A 
ATOM     22  C   UNL     1      17.198 -12.002  17.483  1.00  0.00     0.026 A 
ATOM     23  C   UNL     1      14.889 -11.518  16.013  1.00  0.00     0.014 A 
ATOM     24  C   UNL     1      17.291 -11.424  16.212  1.00  0.00     0.014 A 
ATOM     25  C   UNL     1      16.132 -11.186  15.474  1.00  0.00     0.016 A 
BRANCH  25  26
ATOM     26  C   UNL     1      16.218 -10.567  14.126  1.00  0.00     0.122 C 
ATOM     27  N   UNL     1      17.163  -9.742  13.804  1.00  0.00    -0.284 NA
ATOM     28  N   UNL     1      15.288 -10.849  13.182  1.00  0.00    -0.384 N 
ATOM     29  H   UNL     1      17.830  -9.627  14.572  1.00  0.00     0.189 HD
ATOM     30  H   UNL     1      15.385 -10.383  12.289  1.00  0.00     0.158 HD
ATOM     31  H   UNL     1      14.448 -11.376  13.367  1.00  0.00     0.158 HD
ENDBRANCH  25  26
ENDBRANCH  18  20
ENDBRANCH   1  18
BRANCH   1  32
ATOM     32  C   UNL     1      14.086 -14.348  20.211  1.00  0.00     0.247 C 
ATOM     33  O   UNL     1      13.347 -15.315  20.033  1.00  0.00    -0.272 OA
ATOM     34  N   UNL     1      13.717 -13.253  20.965  1.00  0.00    -0.350 N 
ATOM     35  H   UNL     1      14.392 -12.496  21.023  1.00  0.00     0.163 HD
BRANCH  34  36
ATOM     36  C   UNL     1      12.460 -13.158  21.659  1.00  0.00     0.151 C 
BRANCH  36  37
ATOM     37  C   UNL     1      12.318 -11.815  22.326  1.00  0.00    -0.029 A 
ATOM     38  C   UNL     1      11.409 -11.625  23.376  1.00  0.00     0.005 A 
ATOM     39  C   UNL     1      13.074 -10.723  21.879  1.00  0.00     0.005 A 
ATOM     40  C   UNL     1      11.277 -10.373  23.980  1.00  0.00     0.000 A 
ATOM     41  C   UNL     1      12.943  -9.473  22.487  1.00  0.00     0.000 A 
ATOM     42  C   UNL     1      12.046  -9.299  23.538  1.00  0.00     0.000 A 
ENDBRANCH  36  37
ENDBRANCH  34  36
ENDBRANCH   1  32
TORSDOF 11
ENDMDL
MODEL 8
REMARK VINA RESULT:    -9.096      3.070      8.338
REMARK INTER + INTRA:         -16.860
REMARK INTER:                 -15.455
REMARK INTRA:                  -1.405
REMARK UNBOUND:                -1.915
REMARK SMILES COc1cc([C@H](Nc2ccc(C(=N)N)cc2)C(=O)NCc2ccccc2)ccc1OCc1ccccc1
REMARK SMILES IDX 6 1 5 2 3 3 4 4 29 5 28 6 27 7 2 8 1 9 30 10 31 11 32 12
REMARK SMILES IDX 33 13 37 14 34 15 36 16 35 17 7 18 8 20 9 21 16 22 10 23
REMARK SMILES IDX 15 24 11 25 12 26 13 27 14 28 17 32 18 33 19 34 20 36 21 37
REMARK SMILES IDX 22 38 26 39 23 40 25 41 24 42
REMARK H PARENT 7 19 13 29 14 30 14 31 19 35
ROOT
ATOM      1  C   UNL     1      17.845 -15.434  20.798  1.00  0.00     0.200 C 
ENDROOT
BRANCH   1   2
ATOM      2  C   UNL     1      16.958 -14.196  20.737  1.00  0.00    -0.012 A 
ATOM      3  C   UNL     1      16.240 -12.132  19.648  1.00  0.00     0.161 A 
ATOM      4  C   UNL     1      17.024 -13.293  19.662  1.00  0.00     0.056 A 
ATOM      5  C   UNL     1      15.391 -11.845  20.733  1.00  0.00     0.161 A 
ATOM      6  C   UNL     1      15.330 -12.735  21.808  1.00  0.00     0.051 A 
ATOM      7  C   UNL     1      16.107 -13.898  21.811  1.00  0.00     0.010 A 
BRANCH   3   8
ATOM      8  O   UNL     1      16.278 -11.203  18.638  1.00  0.00    -0.493 OA
ATOM      9  C   UNL     1      16.671 -11.679  17.357  1.00  0.00     0.278 C 
ENDBRANCH   3   8
BRANCH   5  10
ATOM     10  O   UNL     1      14.672 -10.681  20.641  1.00  0.00    -0.485 OA
BRANCH  10  11
ATOM     11  C   UNL     1      13.258 -10.779  20.484  1.00  0.00     0.265 C 
BRANCH  11  12
ATOM     12  C   UNL     1      12.585 -10.602  21.826  1.00  0.00    -0.011 A 
ATOM     13  C   UNL     1      12.723  -9.400  22.536  1.00  0.00     0.007 A 
ATOM     14  C   UNL     1      11.768 -11.611  22.358  1.00  0.00     0.007 A 
ATOM     15  C   UNL     1      12.075  -9.221  23.760  1.00  0.00     0.000 A 
ATOM     16  C   UNL     1      11.121 -11.429  23.581  1.00  0.00     0.000 A 
ATOM     17  C   UNL     1      11.274 -10.235  24.281  1.00  0.00     0.000 A 
ENDBRANCH  11  12
ENDBRANCH  10  11
ENDBRANCH   5  10
ENDBRANCH   1   2
BRANCH   1  18
ATOM     18  N   UNL     1      17.088 -16.494  21.492  1.00  0.00    -0.370 N 
ATOM     19  H   UNL     1      17.351 -16.651  22.460  1.00  0.00     0.161 HD
BRANCH  18  20
ATOM     20  C   UNL     1      15.880 -17.017  21.070  1.00  0.00     0.035 A 
ATOM     21  C   UNL     1      15.654 -17.502  19.777  1.00  0.00     0.026 A 
ATOM     22  C   UNL     1      14.838 -17.132  22.002  1.00  0.00     0.026 A 
ATOM     23  C   UNL     1      14.419 -18.056  19.414  1.00  0.00     0.014 A 
ATOM     24  C   UNL     1      13.600 -17.682  21.652  1.00  0.00     0.014 A 
ATOM     25  C   UNL     1      13.389 -18.141  20.352  1.00  0.00     0.016 A 
BRANCH  25  26
ATOM     26  C   UNL     1      12.081 -18.733  19.971  1.00  0.00     0.122 C 
ATOM     27  N   UNL     1      11.512 -19.662  20.672  1.00  0.00    -0.284 NA
ATOM     28  N   UNL     1      11.439 -18.314  18.854  1.00  0.00    -0.384 N 
ATOM     29  H   UNL     1      12.059 -19.877  21.511  1.00  0.00     0.189 HD
ATOM     30  H   UNL     1      10.562 -18.767  18.632  1.00  0.00     0.158 HD
ATOM     31  H   UNL     1      11.850 -17.692  18.175  1.00  0.00     0.158 HD
ENDBRANCH  25  26
ENDBRANCH  18  20
ENDBRANCH   1  18
BRANCH   1  32
ATOM     32  C   UNL     1      19.211 -15.137  21.480  1.00  0.00     0.247 C 
ATOM     33  O   UNL     1      20.188 -15.875  21.363  1.00  0.00    -0.272 OA
ATOM     34  N   UNL     1      19.246 -13.955  22.190  1.00  0.00    -0.350 N 
ATOM     35  H   UNL     1      18.374 -13.437  22.249  1.00  0.00     0.163 HD
BRANCH  34  36
ATOM     36  C   UNL     1      20.436 -13.444  22.816  1.00  0.00     0.151 C 
BRANCH  36  37
ATOM     37  C   UNL     1      20.348 -13.568  24.314  1.00  0.00    -0.029 A 
ATOM     38  C   UNL     1      21.123 -12.753  25.151  1.00  0.00     0.005 A 
ATOM     39  C   UNL     1      19.509 -14.529  24.894  1.00  0.00     0.005 A 
ATOM     40  C   UNL     1      21.041 -12.884  26.539  1.00  0.00     0.000 A 
ATOM     41  C   UNL     1      19.427 -14.656  26.282  1.00  0.00     0.000 A 
ATOM     42  C   UNL     1      20.192 -13.832  27.104  1.00  0.00     0.000 A 
ENDBRANCH  36  37
ENDBRANCH  34  36
ENDBRANCH   1  32
TORSDOF 11
ENDMDL
MODEL 9
REMARK VINA RESULT:    -9.031      1.653      2.368
REMARK INTER + INTRA:         -16.754
REMARK INTER:                 -15.056
REMARK INTRA:                  -1.698
REMARK UNBOUND:                -1.915
REMARK SMILES COc1cc([C@H](Nc2ccc(C(=N)N)cc2)C(=O)NCc2ccccc2)ccc1OCc1ccccc1
REMARK SMILES IDX 6 1 5 2 3 3 4 4 29 5 28 6 27 7 2 8 1 9 30 10 31 11 32 12
REMARK SMILES IDX 33 13 37 14 34 15 36 16 35 17 7 18 8 20 9 21 16 22 10 23
REMARK SMILES IDX 15 24 11 25 12 26 13 27 14 28 17 32 18 33 19 34 20 36 21 37
REMARK SMILES IDX 22 38 26 39 23 40 25 41 24 42
REMARK H PARENT 7 19 13 29 14 30 14 31 19 35
ROOT
ATOM      1  C   UNL     1      14.508 -13.949  19.100  1.00  0.00     0.200 C 
ENDROOT
BRANCH   1   2
ATOM      2  C   UNL     1      15.670 -13.557  20.005  1.00  0.00    -0.012 A 
ATOM      3  C   UNL     1      17.835 -12.486  20.361  1.00  0.00     0.161 A 
ATOM      4  C   UNL     1      16.749 -12.791  19.530  1.00  0.00     0.056 A 
ATOM      5  C   UNL     1      17.867 -12.969  21.682  1.00  0.00     0.161 A 
ATOM      6  C   UNL     1      16.800 -13.739  22.155  1.00  0.00     0.051 A 
ATOM      7  C   UNL     1      15.714 -14.031  21.324  1.00  0.00     0.010 A 
BRANCH   3   8
ATOM      8  O   UNL     1      18.927 -11.763  19.947  1.00  0.00    -0.493 OA
ATOM      9  C   UNL     1      19.925 -12.480  19.231  1.00  0.00     0.278 C 
ENDBRANCH   3   8
BRANCH   5  10
ATOM     10  O   UNL     1      18.973 -12.633  22.418  1.00  0.00    -0.485 OA
BRANCH  10  11
ATOM     11  C   UNL     1      19.879 -13.674  22.778  1.00  0.00     0.265 C 
BRANCH  11  12
ATOM     12  C   UNL     1      20.016 -13.728  24.283  1.00  0.00    -0.011 A 
ATOM     13  C   UNL     1      20.715 -12.724  24.969  1.00  0.00     0.007 A 
ATOM     14  C   UNL     1      19.403 -14.750  25.023  1.00  0.00     0.007 A 
ATOM     15  C   UNL     1      20.814 -12.753  26.361  1.00  0.00     0.000 A 
ATOM     16  C   UNL     1      19.503 -14.777  26.415  1.00  0.00     0.000 A 
ATOM     17  C   UNL     1      20.209 -13.779  27.083  1.00  0.00     0.000 A 
ENDBRANCH  11  12
ENDBRANCH  10  11
ENDBRANCH   5  10
ENDBRANCH   1   2
BRANCH   1  18
ATOM     18  N   UNL     1      13.532 -12.842  19.119  1.00  0.00    -0.370 N 
ATOM     19  H   UNL     1      12.934 -12.778  18.301  1.00  0.00     0.161 HD
BRANCH  18  20
ATOM     20  C   UNL     1      13.143 -12.143  20.246  1.00  0.00     0.035 A 
ATOM     21  C   UNL     1      13.573 -10.844  20.541  1.00  0.00     0.026 A 
ATOM     22  C   UNL     1      12.214 -12.734  21.114  1.00  0.00     0.026 A 
ATOM     23  C   UNL     1      13.116 -10.168  21.680  1.00  0.00     0.014 A 
ATOM     24  C   UNL     1      11.751 -12.070  22.255  1.00  0.00     0.014 A 
ATOM     25  C   UNL     1      12.208 -10.784  22.541  1.00  0.00     0.016 A 
BRANCH  25  26
ATOM     26  C   UNL     1      11.718 -10.067  23.746  1.00  0.00     0.122 C 
ATOM     27  N   UNL     1      12.207  -8.926  24.117  1.00  0.00    -0.284 NA
ATOM     28  N   UNL     1      10.733 -10.601  24.507  1.00  0.00    -0.384 N 
ATOM     29  H   UNL     1      12.916  -8.596  23.455  1.00  0.00     0.189 HD
ATOM     30  H   UNL     1      10.453 -10.078  25.328  1.00  0.00     0.158 HD
ATOM     31  H   UNL     1      10.373 -11.534  24.380  1.00  0.00     0.158 HD
ENDBRANCH  25  26
ENDBRANCH  18  20
ENDBRANCH   1  18
BRANCH   1  32
ATOM     32  C   UNL     1      13.875 -15.305  19.521  1.00  0.00     0.247 C 
ATOM     33  O   UNL     1      12.691 -15.419  19.833  1.00  0.00    -0.272 OA
ATOM     34  N   UNL     1      14.743 -16.376  19.473  1.00  0.00    -0.350 N 
ATOM     35  H   UNL     1      15.707 -16.166  19.233  1.00  0.00     0.163 HD
BRANCH  34  36
ATOM     36  C   UNL     1      14.338 -17.733  19.729  1.00  0.00     0.151 C 
BRANCH  36  37
ATOM     37  C   UNL     1      14.531 -18.083  21.181  1.00  0.00    -0.029 A 
ATOM     38  C   UNL     1      15.573 -17.513  21.926  1.00  0.00     0.005 A 
ATOM     39  C   UNL     1      13.688 -19.016  21.799  1.00  0.00     0.005 A 
ATOM     40  C   UNL     1      15.750 -17.853  23.269  1.00  0.00     0.000 A 
ATOM     41  C   UNL     1      13.865 -19.352  23.143  1.00  0.00     0.000 A 
ATOM     42  C   UNL     1      14.895 -18.769  23.877  1.00  0.00     0.000 A 
ENDBRANCH  36  37
ENDBRANCH  34  36
ENDBRANCH   1  32
TORSDOF 11
ENDMDL
