MODEL 7
REMARK VINA RESULT:    -7.578      3.469      8.166
REMARK INTER + INTRA:          -9.518
REMARK INTER:                  -8.875
REMARK INTRA:                  -0.644
REMARK UNBOUND:                -0.389
REMARK SMILES CNC(=O)c1nc(-c2nc(-c3cnc4ccccn34)c(C)nc2N)n(C)n1
REMARK SMILES IDX 8 1 9 2 10 3 20 4 21 5 22 6 23 7 7 8 5 9 6 10 27 11 25 12
REMARK SMILES IDX 26 13 3 14 2 15 4 16 1 17 24 19 11 22 12 23 19 24 13 25
REMARK SMILES IDX 18 26 14 27 17 28 15 29 16 30
REMARK H PARENT 2 18 24 20 24 21
ROOT
ATOM      1  C   UNL     1      -1.139  -7.827  17.097  1.00  0.00     0.150 A 
ATOM      2  N   UNL     1      -1.247  -8.753  18.084  1.00  0.00    -0.237 NA
ATOM      3  C   UNL     1      -1.585  -8.286  19.311  1.00  0.00     0.111 A 
ATOM      4  C   UNL     1      -1.820  -6.932  19.552  1.00  0.00     0.068 A 
ATOM      5  C   UNL     1      -2.207  -6.402  20.898  1.00  0.00     0.069 C 
ATOM      6  N   UNL     1      -1.712  -6.014  18.555  1.00  0.00    -0.232 NA
ATOM      7  C   UNL     1      -1.380  -6.456  17.323  1.00  0.00     0.153 A 
ENDROOT
BRANCH   1   8
ATOM      8  C   UNL     1      -0.782  -8.353  15.775  1.00  0.00     0.181 A 
ATOM      9  C   UNL     1       0.033  -8.613  13.809  1.00  0.00     0.239 A 
ATOM     10  N   UNL     1       0.005  -7.760  14.891  1.00  0.00    -0.201 NA
ATOM     11  N   UNL     1      -0.698  -9.730  13.989  1.00  0.00    -0.145 NA
ATOM     12  N   UNL     1      -1.198  -9.545  15.229  1.00  0.00    -0.247 N 
ATOM     13  C   UNL     1      -2.033 -10.569  15.807  1.00  0.00     0.176 C 
BRANCH   9  14
ATOM     14  C   UNL     1       0.799  -8.346  12.571  1.00  0.00     0.290 C 
ATOM     15  N   UNL     1       0.377  -9.101  11.492  1.00  0.00    -0.352 N 
ATOM     16  O   UNL     1       1.727  -7.544  12.511  1.00  0.00    -0.266 OA
ATOM     17  C   UNL     1       1.074  -9.098  10.236  1.00  0.00     0.143 C 
ATOM     18  H   UNL     1      -0.323  -9.808  11.696  1.00  0.00     0.163 HD
ENDBRANCH   9  14
ENDBRANCH   1   8
BRANCH   7  19
ATOM     19  N   UNL     1      -1.252  -5.474  16.328  1.00  0.00    -0.382 N 
ATOM     20  H   UNL     1      -1.077  -4.575  16.771  1.00  0.00     0.158 HD
ATOM     21  H   UNL     1      -0.394  -5.655  15.803  1.00  0.00     0.158 HD
ENDBRANCH   7  19
BRANCH   3  22
ATOM     22  C   UNL     1      -1.656  -9.325  20.321  1.00  0.00     0.093 A 
ATOM     23  C   UNL     1      -0.712  -9.753  21.237  1.00  0.00     0.142 A 
ATOM     24  N   UNL     1      -2.754 -10.140  20.545  1.00  0.00    -0.298 N 
ATOM     25  N   UNL     1      -1.182 -10.778  22.014  1.00  0.00    -0.236 NA
ATOM     26  C   UNL     1      -4.010 -10.167  19.929  1.00  0.00     0.093 A 
ATOM     27  C   UNL     1      -2.405 -11.001  21.586  1.00  0.00     0.137 A 
ATOM     28  C   UNL     1      -4.927 -11.060  20.337  1.00  0.00     0.018 A 
ATOM     29  C   UNL     1      -3.382 -11.947  22.010  1.00  0.00     0.048 A 
ATOM     30  C   UNL     1      -4.590 -11.977  21.414  1.00  0.00     0.005 A 
ENDBRANCH   3  22
TORSDOF 4
ENDMDL
