MODEL 3
REMARK VINA RESULT:    -7.798      3.281      7.186
REMARK INTER + INTRA:          -9.783
REMARK INTER:                  -9.923
REMARK INTRA:                   0.140
REMARK UNBOUND:                -0.389
REMARK SMILES CNC(=O)c1nc(-c2nc(-c3cnc4ccccn34)c(C)nc2N)n(C)n1
REMARK SMILES IDX 8 1 9 2 10 3 20 4 21 5 22 6 23 7 7 8 5 9 6 10 27 11 25 12
REMARK SMILES IDX 26 13 3 14 2 15 4 16 1 17 24 19 11 22 12 23 19 24 13 25
REMARK SMILES IDX 18 26 14 27 17 28 15 29 16 30
REMARK H PARENT 2 18 24 20 24 21
ROOT
ATOM      1  C   UNL     1      -1.647  -9.493  16.049  1.00  0.00     0.150 A 
ATOM      2  N   UNL     1      -2.101  -9.747  17.304  1.00  0.00    -0.237 NA
ATOM      3  C   UNL     1      -2.817 -10.888  17.462  1.00  0.00     0.111 A 
ATOM      4  C   UNL     1      -3.070 -11.760  16.404  1.00  0.00     0.068 A 
ATOM      5  C   UNL     1      -3.849 -13.029  16.566  1.00  0.00     0.069 C 
ATOM      6  N   UNL     1      -2.609 -11.496  15.153  1.00  0.00    -0.232 NA
ATOM      7  C   UNL     1      -1.889 -10.368  14.971  1.00  0.00     0.153 A 
ENDROOT
BRANCH   1   8
ATOM      8  C   UNL     1      -0.866  -8.261  15.899  1.00  0.00     0.181 A 
ATOM      9  C   UNL     1       0.584  -6.795  15.313  1.00  0.00     0.239 A 
ATOM     10  N   UNL     1       0.179  -8.096  15.105  1.00  0.00    -0.201 NA
ATOM     11  N   UNL     1      -0.180  -6.131  16.201  1.00  0.00    -0.145 NA
ATOM     12  N   UNL     1      -1.084  -7.070  16.553  1.00  0.00    -0.247 N 
ATOM     13  C   UNL     1      -2.122  -6.724  17.494  1.00  0.00     0.176 C 
BRANCH   9  14
ATOM     14  C   UNL     1       1.736  -6.173  14.623  1.00  0.00     0.290 C 
ATOM     15  N   UNL     1       2.187  -6.905  13.540  1.00  0.00    -0.352 N 
ATOM     16  O   UNL     1       2.250  -5.117  14.983  1.00  0.00    -0.266 OA
ATOM     17  C   UNL     1       3.378  -6.552  12.819  1.00  0.00     0.143 C 
ATOM     18  H   UNL     1       1.752  -7.814  13.411  1.00  0.00     0.163 HD
ENDBRANCH   9  14
ENDBRANCH   1   8
BRANCH   7  19
ATOM     19  N   UNL     1      -1.454 -10.118  13.659  1.00  0.00    -0.382 N 
ATOM     20  H   UNL     1      -1.339 -11.005  13.174  1.00  0.00     0.158 HD
ATOM     21  H   UNL     1      -2.211  -9.659  13.148  1.00  0.00     0.158 HD
ENDBRANCH   7  19
BRANCH   3  22
ATOM     22  C   UNL     1      -3.292 -11.082  18.820  1.00  0.00     0.093 A 
ATOM     23  C   UNL     1      -4.509 -11.545  19.288  1.00  0.00     0.142 A 
ATOM     24  N   UNL     1      -2.563 -10.800  19.963  1.00  0.00    -0.298 N 
ATOM     25  N   UNL     1      -4.554 -11.569  20.656  1.00  0.00    -0.236 NA
ATOM     26  C   UNL     1      -1.260 -10.315  20.117  1.00  0.00     0.093 A 
ATOM     27  C   UNL     1      -3.383 -11.117  21.047  1.00  0.00     0.137 A 
ATOM     28  C   UNL     1      -0.764 -10.131  21.352  1.00  0.00     0.018 A 
ATOM     29  C   UNL     1      -2.851 -10.915  22.353  1.00  0.00     0.048 A 
ATOM     30  C   UNL     1      -1.598 -10.444  22.501  1.00  0.00     0.005 A 
ENDBRANCH   3  22
TORSDOF 4
ENDMDL
