MODEL 1
REMARK VINA RESULT:    -7.988      0.000      0.000
REMARK INTER + INTRA:         -10.012
REMARK INTER:                  -9.622
REMARK INTRA:                  -0.389
REMARK UNBOUND:                -0.389
REMARK SMILES CNC(=O)c1nc(-c2nc(-c3cnc4ccccn34)c(C)nc2N)n(C)n1
REMARK SMILES IDX 8 1 9 2 10 3 20 4 21 5 22 6 23 7 7 8 5 9 6 10 27 11 25 12
REMARK SMILES IDX 26 13 3 14 2 15 4 16 1 17 24 19 11 22 12 23 19 24 13 25
REMARK SMILES IDX 18 26 14 27 17 28 15 29 16 30
REMARK H PARENT 2 18 24 20 24 21
ROOT
ATOM      1  C   UNL     1      -3.307 -10.596  20.132  1.00  0.00     0.150 A 
ATOM      2  N   UNL     1      -2.504 -10.226  19.101  1.00  0.00    -0.237 NA
ATOM      3  C   UNL     1      -2.782 -10.782  17.896  1.00  0.00     0.111 A 
ATOM      4  C   UNL     1      -3.837 -11.677  17.715  1.00  0.00     0.068 A 
ATOM      5  C   UNL     1      -4.164 -12.289  16.388  1.00  0.00     0.069 C 
ATOM      6  N   UNL     1      -4.635 -12.037  18.754  1.00  0.00    -0.232 NA
ATOM      7  C   UNL     1      -4.381 -11.494  19.964  1.00  0.00     0.153 A 
ENDROOT
BRANCH   1   8
ATOM      8  C   UNL     1      -2.997  -9.977  21.425  1.00  0.00     0.181 A 
ATOM      9  C   UNL     1      -3.019  -8.755  23.187  1.00  0.00     0.239 A 
ATOM     10  N   UNL     1      -3.695  -9.021  22.015  1.00  0.00    -0.201 NA
ATOM     11  N   UNL     1      -1.926  -9.522  23.360  1.00  0.00    -0.145 NA
ATOM     12  N   UNL     1      -1.934 -10.282  22.244  1.00  0.00    -0.247 N 
ATOM     13  C   UNL     1      -0.906 -11.279  22.069  1.00  0.00     0.176 C 
BRANCH   9  14
ATOM     14  C   UNL     1      -3.449  -7.738  24.172  1.00  0.00     0.290 C 
ATOM     15  N   UNL     1      -3.854  -6.550  23.591  1.00  0.00    -0.352 N 
ATOM     16  O   UNL     1      -3.437  -7.925  25.385  1.00  0.00    -0.266 OA
ATOM     17  C   UNL     1      -4.177  -5.388  24.371  1.00  0.00     0.143 C 
ATOM     18  H   UNL     1      -3.714  -6.480  22.588  1.00  0.00     0.163 HD
ENDBRANCH   9  14
ENDBRANCH   1   8
BRANCH   7  19
ATOM     19  N   UNL     1      -5.210 -11.913  21.017  1.00  0.00    -0.382 N 
ATOM     20  H   UNL     1      -5.885 -11.179  21.219  1.00  0.00     0.158 HD
ATOM     21  H   UNL     1      -5.788 -12.688  20.686  1.00  0.00     0.158 HD
ENDBRANCH   7  19
BRANCH   3  22
ATOM     22  C   UNL     1      -1.870 -10.364  16.847  1.00  0.00     0.093 A 
ATOM     23  C   UNL     1      -1.203 -11.105  15.889  1.00  0.00     0.142 A 
ATOM     24  N   UNL     1      -1.467  -9.058  16.621  1.00  0.00    -0.298 N 
ATOM     25  N   UNL     1      -0.423 -10.317  15.085  1.00  0.00    -0.236 NA
ATOM     26  C   UNL     1      -1.820  -7.869  17.270  1.00  0.00     0.093 A 
ATOM     27  C   UNL     1      -0.589  -9.093  15.538  1.00  0.00     0.137 A 
ATOM     28  C   UNL     1      -1.293  -6.706  16.852  1.00  0.00     0.018 A 
ATOM     29  C   UNL     1      -0.032  -7.857  15.104  1.00  0.00     0.048 A 
ATOM     30  C   UNL     1      -0.368  -6.713  15.731  1.00  0.00     0.005 A 
ENDBRANCH   3  22
TORSDOF 4
ENDMDL
MODEL 2
REMARK VINA RESULT:    -7.967      3.614      6.029
REMARK INTER + INTRA:          -9.986
REMARK INTER:                  -8.984
REMARK INTRA:                  -1.002
REMARK UNBOUND:                -0.389
REMARK SMILES CNC(=O)c1nc(-c2nc(-c3cnc4ccccn34)c(C)nc2N)n(C)n1
REMARK SMILES IDX 8 1 9 2 10 3 20 4 21 5 22 6 23 7 7 8 5 9 6 10 27 11 25 12
REMARK SMILES IDX 26 13 3 14 2 15 4 16 1 17 24 19 11 22 12 23 19 24 13 25
REMARK SMILES IDX 18 26 14 27 17 28 15 29 16 30
REMARK H PARENT 2 18 24 20 24 21
ROOT
ATOM      1  C   UNL     1      -1.883  -6.905  20.549  1.00  0.00     0.150 A 
ATOM      2  N   UNL     1      -2.699  -7.889  20.090  1.00  0.00    -0.237 NA
ATOM      3  C   UNL     1      -2.346  -9.158  20.411  1.00  0.00     0.111 A 
ATOM      4  C   UNL     1      -1.216  -9.445  21.176  1.00  0.00     0.068 A 
ATOM      5  C   UNL     1      -0.820 -10.841  21.550  1.00  0.00     0.069 C 
ATOM      6  N   UNL     1      -0.408  -8.452  21.632  1.00  0.00    -0.232 NA
ATOM      7  C   UNL     1      -0.741  -7.179  21.329  1.00  0.00     0.153 A 
ENDROOT
BRANCH   1   8
ATOM      8  C   UNL     1      -2.286  -5.539  20.200  1.00  0.00     0.181 A 
ATOM      9  C   UNL     1      -2.432  -3.594  19.307  1.00  0.00     0.239 A 
ATOM     10  N   UNL     1      -1.741  -4.787  19.257  1.00  0.00    -0.201 NA
ATOM     11  N   UNL     1      -3.403  -3.577  20.241  1.00  0.00    -0.145 NA
ATOM     12  N   UNL     1      -3.293  -4.808  20.786  1.00  0.00    -0.247 N 
ATOM     13  C   UNL     1      -4.207  -5.193  21.834  1.00  0.00     0.176 C 
BRANCH   9  14
ATOM     14  C   UNL     1      -2.153  -2.445  18.419  1.00  0.00     0.290 C 
ATOM     15  N   UNL     1      -0.821  -2.338  18.063  1.00  0.00    -0.352 N 
ATOM     16  O   UNL     1      -3.016  -1.655  18.044  1.00  0.00    -0.266 OA
ATOM     17  C   UNL     1      -0.314  -1.216  17.323  1.00  0.00     0.143 C 
ATOM     18  H   UNL     1      -0.188  -2.984  18.526  1.00  0.00     0.163 HD
ENDBRANCH   9  14
ENDBRANCH   1   8
BRANCH   7  19
ATOM     19  N   UNL     1       0.133  -6.183  21.795  1.00  0.00    -0.382 N 
ATOM     20  H   UNL     1       0.906  -6.626  22.287  1.00  0.00     0.158 HD
ATOM     21  H   UNL     1       0.581  -5.742  20.989  1.00  0.00     0.158 HD
ENDBRANCH   7  19
BRANCH   3  22
ATOM     22  C   UNL     1      -3.246 -10.159  19.867  1.00  0.00     0.093 A 
ATOM     23  C   UNL     1      -4.370 -10.748  20.416  1.00  0.00     0.142 A 
ATOM     24  N   UNL     1      -3.113 -10.752  18.623  1.00  0.00    -0.298 N 
ATOM     25  N   UNL     1      -4.935 -11.662  19.567  1.00  0.00    -0.236 NA
ATOM     26  C   UNL     1      -2.168 -10.549  17.612  1.00  0.00     0.093 A 
ATOM     27  C   UNL     1      -4.169 -11.656  18.497  1.00  0.00     0.137 A 
ATOM     28  C   UNL     1      -2.259 -11.252  16.470  1.00  0.00     0.018 A 
ATOM     29  C   UNL     1      -4.256 -12.399  17.285  1.00  0.00     0.048 A 
ATOM     30  C   UNL     1      -3.343 -12.207  16.314  1.00  0.00     0.005 A 
ENDBRANCH   3  22
TORSDOF 4
ENDMDL
MODEL 3
REMARK VINA RESULT:    -7.798      3.281      7.186
REMARK INTER + INTRA:          -9.783
REMARK INTER:                  -9.923
REMARK INTRA:                   0.140
REMARK UNBOUND:                -0.389
REMARK SMILES CNC(=O)c1nc(-c2nc(-c3cnc4ccccn34)c(C)nc2N)n(C)n1
REMARK SMILES IDX 8 1 9 2 10 3 20 4 21 5 22 6 23 7 7 8 5 9 6 10 27 11 25 12
REMARK SMILES IDX 26 13 3 14 2 15 4 16 1 17 24 19 11 22 12 23 19 24 13 25
REMARK SMILES IDX 18 26 14 27 17 28 15 29 16 30
REMARK H PARENT 2 18 24 20 24 21
ROOT
ATOM      1  C   UNL     1      -1.647  -9.493  16.049  1.00  0.00     0.150 A 
ATOM      2  N   UNL     1      -2.101  -9.747  17.304  1.00  0.00    -0.237 NA
ATOM      3  C   UNL     1      -2.817 -10.888  17.462  1.00  0.00     0.111 A 
ATOM      4  C   UNL     1      -3.070 -11.760  16.404  1.00  0.00     0.068 A 
ATOM      5  C   UNL     1      -3.849 -13.029  16.566  1.00  0.00     0.069 C 
ATOM      6  N   UNL     1      -2.609 -11.496  15.153  1.00  0.00    -0.232 NA
ATOM      7  C   UNL     1      -1.889 -10.368  14.971  1.00  0.00     0.153 A 
ENDROOT
BRANCH   1   8
ATOM      8  C   UNL     1      -0.866  -8.261  15.899  1.00  0.00     0.181 A 
ATOM      9  C   UNL     1       0.584  -6.795  15.313  1.00  0.00     0.239 A 
ATOM     10  N   UNL     1       0.179  -8.096  15.105  1.00  0.00    -0.201 NA
ATOM     11  N   UNL     1      -0.180  -6.131  16.201  1.00  0.00    -0.145 NA
ATOM     12  N   UNL     1      -1.084  -7.070  16.553  1.00  0.00    -0.247 N 
ATOM     13  C   UNL     1      -2.122  -6.724  17.494  1.00  0.00     0.176 C 
BRANCH   9  14
ATOM     14  C   UNL     1       1.736  -6.173  14.623  1.00  0.00     0.290 C 
ATOM     15  N   UNL     1       2.187  -6.905  13.540  1.00  0.00    -0.352 N 
ATOM     16  O   UNL     1       2.250  -5.117  14.983  1.00  0.00    -0.266 OA
ATOM     17  C   UNL     1       3.378  -6.552  12.819  1.00  0.00     0.143 C 
ATOM     18  H   UNL     1       1.752  -7.814  13.411  1.00  0.00     0.163 HD
ENDBRANCH   9  14
ENDBRANCH   1   8
BRANCH   7  19
ATOM     19  N   UNL     1      -1.454 -10.118  13.659  1.00  0.00    -0.382 N 
ATOM     20  H   UNL     1      -1.339 -11.005  13.174  1.00  0.00     0.158 HD
ATOM     21  H   UNL     1      -2.211  -9.659  13.148  1.00  0.00     0.158 HD
ENDBRANCH   7  19
BRANCH   3  22
ATOM     22  C   UNL     1      -3.292 -11.082  18.820  1.00  0.00     0.093 A 
ATOM     23  C   UNL     1      -4.509 -11.545  19.288  1.00  0.00     0.142 A 
ATOM     24  N   UNL     1      -2.563 -10.800  19.963  1.00  0.00    -0.298 N 
ATOM     25  N   UNL     1      -4.554 -11.569  20.656  1.00  0.00    -0.236 NA
ATOM     26  C   UNL     1      -1.260 -10.315  20.117  1.00  0.00     0.093 A 
ATOM     27  C   UNL     1      -3.383 -11.117  21.047  1.00  0.00     0.137 A 
ATOM     28  C   UNL     1      -0.764 -10.131  21.352  1.00  0.00     0.018 A 
ATOM     29  C   UNL     1      -2.851 -10.915  22.353  1.00  0.00     0.048 A 
ATOM     30  C   UNL     1      -1.598 -10.444  22.501  1.00  0.00     0.005 A 
ENDBRANCH   3  22
TORSDOF 4
ENDMDL
MODEL 4
REMARK VINA RESULT:    -7.733      2.675      5.560
REMARK INTER + INTRA:          -9.704
REMARK INTER:                  -8.690
REMARK INTRA:                  -1.014
REMARK UNBOUND:                -0.389
REMARK SMILES CNC(=O)c1nc(-c2nc(-c3cnc4ccccn34)c(C)nc2N)n(C)n1
REMARK SMILES IDX 8 1 9 2 10 3 20 4 21 5 22 6 23 7 7 8 5 9 6 10 27 11 25 12
REMARK SMILES IDX 26 13 3 14 2 15 4 16 1 17 24 19 11 22 12 23 19 24 13 25
REMARK SMILES IDX 18 26 14 27 17 28 15 29 16 30
REMARK H PARENT 2 18 24 20 24 21
ROOT
ATOM      1  C   UNL     1      -3.290  -7.174  22.912  1.00  0.00     0.150 A 
ATOM      2  N   UNL     1      -3.820  -8.140  22.117  1.00  0.00    -0.237 NA
ATOM      3  C   UNL     1      -3.183  -9.337  22.123  1.00  0.00     0.111 A 
ATOM      4  C   UNL     1      -2.053  -9.574  22.905  1.00  0.00     0.068 A 
ATOM      5  C   UNL     1      -1.346 -10.895  22.932  1.00  0.00     0.069 C 
ATOM      6  N   UNL     1      -1.533  -8.600  23.698  1.00  0.00    -0.232 NA
ATOM      7  C   UNL     1      -2.152  -7.401  23.712  1.00  0.00     0.153 A 
ENDROOT
BRANCH   1   8
ATOM      8  C   UNL     1      -3.998  -5.890  22.899  1.00  0.00     0.181 A 
ATOM      9  C   UNL     1      -5.195  -4.188  23.416  1.00  0.00     0.239 A 
ATOM     10  N   UNL     1      -4.721  -5.392  23.890  1.00  0.00    -0.201 NA
ATOM     11  N   UNL     1      -4.783  -3.904  22.165  1.00  0.00    -0.145 NA
ATOM     12  N   UNL     1      -4.032  -4.985  21.863  1.00  0.00    -0.247 N 
ATOM     13  C   UNL     1      -3.374  -5.043  20.580  1.00  0.00     0.176 C 
BRANCH   9  14
ATOM     14  C   UNL     1      -6.062  -3.280  24.201  1.00  0.00     0.290 C 
ATOM     15  N   UNL     1      -6.933  -3.947  25.042  1.00  0.00    -0.352 N 
ATOM     16  O   UNL     1      -6.021  -2.057  24.105  1.00  0.00    -0.266 OA
ATOM     17  C   UNL     1      -7.954  -3.262  25.786  1.00  0.00     0.143 C 
ATOM     18  H   UNL     1      -6.949  -4.958  24.950  1.00  0.00     0.163 HD
ENDBRANCH   9  14
ENDBRANCH   1   8
BRANCH   7  19
ATOM     19  N   UNL     1      -1.568  -6.413  24.522  1.00  0.00    -0.382 N 
ATOM     20  H   UNL     1      -0.662  -6.159  24.133  1.00  0.00     0.158 HD
ATOM     21  H   UNL     1      -2.117  -5.556  24.436  1.00  0.00     0.158 HD
ENDBRANCH   7  19
BRANCH   3  22
ATOM     22  C   UNL     1      -3.787 -10.312  21.234  1.00  0.00     0.093 A 
ATOM     23  C   UNL     1      -4.722 -11.300  21.486  1.00  0.00     0.142 A 
ATOM     24  N   UNL     1      -3.496 -10.444  19.886  1.00  0.00    -0.298 N 
ATOM     25  N   UNL     1      -5.022 -12.018  20.361  1.00  0.00    -0.236 NA
ATOM     26  C   UNL     1      -2.629  -9.714  19.065  1.00  0.00     0.093 A 
ATOM     27  C   UNL     1      -4.278 -11.497  19.410  1.00  0.00     0.137 A 
ATOM     28  C   UNL     1      -2.526 -10.033  17.764  1.00  0.00     0.018 A 
ATOM     29  C   UNL     1      -4.159 -11.831  18.031  1.00  0.00     0.048 A 
ATOM     30  C   UNL     1      -3.322 -11.131  17.241  1.00  0.00     0.005 A 
ENDBRANCH   3  22
TORSDOF 4
ENDMDL
MODEL 5
REMARK VINA RESULT:    -7.717      3.764      6.821
REMARK INTER + INTRA:          -9.685
REMARK INTER:                  -8.930
REMARK INTRA:                  -0.755
REMARK UNBOUND:                -0.389
REMARK SMILES CNC(=O)c1nc(-c2nc(-c3cnc4ccccn34)c(C)nc2N)n(C)n1
REMARK SMILES IDX 8 1 9 2 10 3 20 4 21 5 22 6 23 7 7 8 5 9 6 10 27 11 25 12
REMARK SMILES IDX 26 13 3 14 2 15 4 16 1 17 24 19 11 22 12 23 19 24 13 25
REMARK SMILES IDX 18 26 14 27 17 28 15 29 16 30
REMARK H PARENT 2 18 24 20 24 21
ROOT
ATOM      1  C   UNL     1      -1.847  -7.278  21.101  1.00  0.00     0.150 A 
ATOM      2  N   UNL     1      -2.751  -8.273  20.905  1.00  0.00    -0.237 NA
ATOM      3  C   UNL     1      -2.355  -9.521  21.257  1.00  0.00     0.111 A 
ATOM      4  C   UNL     1      -1.095  -9.776  21.797  1.00  0.00     0.068 A 
ATOM      5  C   UNL     1      -0.647 -11.147  22.203  1.00  0.00     0.069 C 
ATOM      6  N   UNL     1      -0.199  -8.772  21.991  1.00  0.00    -0.232 NA
ATOM      7  C   UNL     1      -0.572  -7.520  21.652  1.00  0.00     0.153 A 
ENDROOT
BRANCH   1   8
ATOM      8  C   UNL     1      -2.297  -5.934  20.723  1.00  0.00     0.181 A 
ATOM      9  C   UNL     1      -2.522  -4.023  19.778  1.00  0.00     0.239 A 
ATOM     10  N   UNL     1      -1.801  -5.198  19.742  1.00  0.00    -0.201 NA
ATOM     11  N   UNL     1      -3.464  -4.002  20.740  1.00  0.00    -0.145 NA
ATOM     12  N   UNL     1      -3.305  -5.212  21.318  1.00  0.00    -0.247 N 
ATOM     13  C   UNL     1      -4.177  -5.589  22.404  1.00  0.00     0.176 C 
BRANCH   9  14
ATOM     14  C   UNL     1      -2.301  -2.894  18.847  1.00  0.00     0.290 C 
ATOM     15  N   UNL     1      -1.078  -2.946  18.203  1.00  0.00    -0.352 N 
ATOM     16  O   UNL     1      -3.117  -1.993  18.672  1.00  0.00    -0.266 OA
ATOM     17  C   UNL     1      -0.607  -1.878  17.366  1.00  0.00     0.143 C 
ATOM     18  H   UNL     1      -0.447  -3.678  18.515  1.00  0.00     0.163 HD
ENDBRANCH   9  14
ENDBRANCH   1   8
BRANCH   7  19
ATOM     19  N   UNL     1       0.391  -6.515  21.840  1.00  0.00    -0.382 N 
ATOM     20  H   UNL     1       0.106  -5.683  21.329  1.00  0.00     0.158 HD
ATOM     21  H   UNL     1       0.364  -6.219  22.818  1.00  0.00     0.158 HD
ENDBRANCH   7  19
BRANCH   3  22
ATOM     22  C   UNL     1      -3.359 -10.536  20.998  1.00  0.00     0.093 A 
ATOM     23  C   UNL     1      -3.880 -10.999  19.803  1.00  0.00     0.142 A 
ATOM     24  N   UNL     1      -4.032 -11.253  21.973  1.00  0.00    -0.298 N 
ATOM     25  N   UNL     1      -4.826 -11.968  20.000  1.00  0.00    -0.236 NA
ATOM     26  C   UNL     1      -3.920 -11.224  23.368  1.00  0.00     0.093 A 
ATOM     27  C   UNL     1      -4.909 -12.108  21.306  1.00  0.00     0.137 A 
ATOM     28  C   UNL     1      -4.688 -12.038  24.111  1.00  0.00     0.018 A 
ATOM     29  C   UNL     1      -5.723 -12.965  22.101  1.00  0.00     0.048 A 
ATOM     30  C   UNL     1      -5.618 -12.933  23.443  1.00  0.00     0.005 A 
ENDBRANCH   3  22
TORSDOF 4
ENDMDL
MODEL 6
REMARK VINA RESULT:    -7.607      3.786      8.082
REMARK INTER + INTRA:          -9.553
REMARK INTER:                  -9.371
REMARK INTRA:                  -0.182
REMARK UNBOUND:                -0.389
REMARK SMILES CNC(=O)c1nc(-c2nc(-c3cnc4ccccn34)c(C)nc2N)n(C)n1
REMARK SMILES IDX 8 1 9 2 10 3 20 4 21 5 22 6 23 7 7 8 5 9 6 10 27 11 25 12
REMARK SMILES IDX 26 13 3 14 2 15 4 16 1 17 24 19 11 22 12 23 19 24 13 25
REMARK SMILES IDX 18 26 14 27 17 28 15 29 16 30
REMARK H PARENT 2 18 24 20 24 21
ROOT
ATOM      1  C   UNL     1      -1.471  -9.362  16.063  1.00  0.00     0.150 A 
ATOM      2  N   UNL     1      -1.328  -8.699  17.240  1.00  0.00    -0.237 NA
ATOM      3  C   UNL     1      -2.065  -9.160  18.280  1.00  0.00     0.111 A 
ATOM      4  C   UNL     1      -2.917 -10.257  18.159  1.00  0.00     0.068 A 
ATOM      5  C   UNL     1      -3.728 -10.787  19.303  1.00  0.00     0.069 C 
ATOM      6  N   UNL     1      -3.050 -10.914  16.977  1.00  0.00    -0.232 NA
ATOM      7  C   UNL     1      -2.323 -10.476  15.927  1.00  0.00     0.153 A 
ENDROOT
BRANCH   1   8
ATOM      8  C   UNL     1      -0.659  -8.855  14.952  1.00  0.00     0.181 A 
ATOM      9  C   UNL     1       0.400  -8.638  13.100  1.00  0.00     0.239 A 
ATOM     10  N   UNL     1      -0.408  -9.492  13.820  1.00  0.00    -0.201 NA
ATOM     11  N   UNL     1       0.654  -7.478  13.735  1.00  0.00    -0.145 NA
ATOM     12  N   UNL     1      -0.022  -7.636  14.893  1.00  0.00    -0.247 N 
ATOM     13  C   UNL     1      -0.017  -6.564  15.858  1.00  0.00     0.176 C 
BRANCH   9  14
ATOM     14  C   UNL     1       0.931  -8.948  11.753  1.00  0.00     0.290 C 
ATOM     15  N   UNL     1       1.077  -7.831  10.951  1.00  0.00    -0.352 N 
ATOM     16  O   UNL     1       1.202 -10.086  11.380  1.00  0.00    -0.266 OA
ATOM     17  C   UNL     1       1.443  -7.926   9.566  1.00  0.00     0.143 C 
ATOM     18  H   UNL     1       0.714  -6.963  11.335  1.00  0.00     0.163 HD
ENDBRANCH   9  14
ENDBRANCH   1   8
BRANCH   7  19
ATOM     19  N   UNL     1      -2.509 -11.164  14.716  1.00  0.00    -0.382 N 
ATOM     20  H   UNL     1      -3.503 -11.192  14.501  1.00  0.00     0.158 HD
ATOM     21  H   UNL     1      -2.114 -10.602  13.959  1.00  0.00     0.158 HD
ENDBRANCH   7  19
BRANCH   3  22
ATOM     22  C   UNL     1      -1.883  -8.391  19.497  1.00  0.00     0.093 A 
ATOM     23  C   UNL     1      -2.256  -7.095  19.804  1.00  0.00     0.142 A 
ATOM     24  N   UNL     1      -1.241  -8.848  20.636  1.00  0.00    -0.298 N 
ATOM     25  N   UNL     1      -1.884  -6.744  21.074  1.00  0.00    -0.236 NA
ATOM     26  C   UNL     1      -0.660 -10.089  20.919  1.00  0.00     0.093 A 
ATOM     27  C   UNL     1      -1.273  -7.803  21.559  1.00  0.00     0.137 A 
ATOM     28  C   UNL     1      -0.097 -10.297  22.122  1.00  0.00     0.018 A 
ATOM     29  C   UNL     1      -0.672  -8.030  22.830  1.00  0.00     0.048 A 
ATOM     30  C   UNL     1      -0.108  -9.223  23.101  1.00  0.00     0.005 A 
ENDBRANCH   3  22
TORSDOF 4
ENDMDL
MODEL 7
REMARK VINA RESULT:    -7.578      3.469      8.166
REMARK INTER + INTRA:          -9.518
REMARK INTER:                  -8.875
REMARK INTRA:                  -0.644
REMARK UNBOUND:                -0.389
REMARK SMILES CNC(=O)c1nc(-c2nc(-c3cnc4ccccn34)c(C)nc2N)n(C)n1
REMARK SMILES IDX 8 1 9 2 10 3 20 4 21 5 22 6 23 7 7 8 5 9 6 10 27 11 25 12
REMARK SMILES IDX 26 13 3 14 2 15 4 16 1 17 24 19 11 22 12 23 19 24 13 25
REMARK SMILES IDX 18 26 14 27 17 28 15 29 16 30
REMARK H PARENT 2 18 24 20 24 21
ROOT
ATOM      1  C   UNL     1      -1.139  -7.827  17.097  1.00  0.00     0.150 A 
ATOM      2  N   UNL     1      -1.247  -8.753  18.084  1.00  0.00    -0.237 NA
ATOM      3  C   UNL     1      -1.585  -8.286  19.311  1.00  0.00     0.111 A 
ATOM      4  C   UNL     1      -1.820  -6.932  19.552  1.00  0.00     0.068 A 
ATOM      5  C   UNL     1      -2.207  -6.402  20.898  1.00  0.00     0.069 C 
ATOM      6  N   UNL     1      -1.712  -6.014  18.555  1.00  0.00    -0.232 NA
ATOM      7  C   UNL     1      -1.380  -6.456  17.323  1.00  0.00     0.153 A 
ENDROOT
BRANCH   1   8
ATOM      8  C   UNL     1      -0.782  -8.353  15.775  1.00  0.00     0.181 A 
ATOM      9  C   UNL     1       0.033  -8.613  13.809  1.00  0.00     0.239 A 
ATOM     10  N   UNL     1       0.005  -7.760  14.891  1.00  0.00    -0.201 NA
ATOM     11  N   UNL     1      -0.698  -9.730  13.989  1.00  0.00    -0.145 NA
ATOM     12  N   UNL     1      -1.198  -9.545  15.229  1.00  0.00    -0.247 N 
ATOM     13  C   UNL     1      -2.033 -10.569  15.807  1.00  0.00     0.176 C 
BRANCH   9  14
ATOM     14  C   UNL     1       0.799  -8.346  12.571  1.00  0.00     0.290 C 
ATOM     15  N   UNL     1       0.377  -9.101  11.492  1.00  0.00    -0.352 N 
ATOM     16  O   UNL     1       1.727  -7.544  12.511  1.00  0.00    -0.266 OA
ATOM     17  C   UNL     1       1.074  -9.098  10.236  1.00  0.00     0.143 C 
ATOM     18  H   UNL     1      -0.323  -9.808  11.696  1.00  0.00     0.163 HD
ENDBRANCH   9  14
ENDBRANCH   1   8
BRANCH   7  19
ATOM     19  N   UNL     1      -1.252  -5.474  16.328  1.00  0.00    -0.382 N 
ATOM     20  H   UNL     1      -1.077  -4.575  16.771  1.00  0.00     0.158 HD
ATOM     21  H   UNL     1      -0.394  -5.655  15.803  1.00  0.00     0.158 HD
ENDBRANCH   7  19
BRANCH   3  22
ATOM     22  C   UNL     1      -1.656  -9.325  20.321  1.00  0.00     0.093 A 
ATOM     23  C   UNL     1      -0.712  -9.753  21.237  1.00  0.00     0.142 A 
ATOM     24  N   UNL     1      -2.754 -10.140  20.545  1.00  0.00    -0.298 N 
ATOM     25  N   UNL     1      -1.182 -10.778  22.014  1.00  0.00    -0.236 NA
ATOM     26  C   UNL     1      -4.010 -10.167  19.929  1.00  0.00     0.093 A 
ATOM     27  C   UNL     1      -2.405 -11.001  21.586  1.00  0.00     0.137 A 
ATOM     28  C   UNL     1      -4.927 -11.060  20.337  1.00  0.00     0.018 A 
ATOM     29  C   UNL     1      -3.382 -11.947  22.010  1.00  0.00     0.048 A 
ATOM     30  C   UNL     1      -4.590 -11.977  21.414  1.00  0.00     0.005 A 
ENDBRANCH   3  22
TORSDOF 4
ENDMDL
MODEL 8
REMARK VINA RESULT:    -7.551      3.705      8.381
REMARK INTER + INTRA:          -9.486
REMARK INTER:                  -9.224
REMARK INTRA:                  -0.261
REMARK UNBOUND:                -0.389
REMARK SMILES CNC(=O)c1nc(-c2nc(-c3cnc4ccccn34)c(C)nc2N)n(C)n1
REMARK SMILES IDX 8 1 9 2 10 3 20 4 21 5 22 6 23 7 7 8 5 9 6 10 27 11 25 12
REMARK SMILES IDX 26 13 3 14 2 15 4 16 1 17 24 19 11 22 12 23 19 24 13 25
REMARK SMILES IDX 18 26 14 27 17 28 15 29 16 30
REMARK H PARENT 2 18 24 20 24 21
ROOT
ATOM      1  C   UNL     1      -0.941  -7.691  16.391  1.00  0.00     0.150 A 
ATOM      2  N   UNL     1      -1.235  -8.690  17.263  1.00  0.00    -0.237 NA
ATOM      3  C   UNL     1      -1.710  -8.308  18.474  1.00  0.00     0.111 A 
ATOM      4  C   UNL     1      -1.898  -6.967  18.809  1.00  0.00     0.068 A 
ATOM      5  C   UNL     1      -2.435  -6.529  20.137  1.00  0.00     0.069 C 
ATOM      6  N   UNL     1      -1.603  -5.976  17.927  1.00  0.00    -0.232 NA
ATOM      7  C   UNL     1      -1.132  -6.333  16.712  1.00  0.00     0.153 A 
ENDROOT
BRANCH   1   8
ATOM      8  C   UNL     1      -0.437  -8.125  15.083  1.00  0.00     0.181 A 
ATOM      9  C   UNL     1       0.560  -8.234  13.188  1.00  0.00     0.239 A 
ATOM     10  N   UNL     1       0.382  -7.441  14.302  1.00  0.00    -0.201 NA
ATOM     11  N   UNL     1      -0.110  -9.401  13.250  1.00  0.00    -0.145 NA
ATOM     12  N   UNL     1      -0.725  -9.311  14.448  1.00  0.00    -0.247 N 
ATOM     13  C   UNL     1      -1.539 -10.413  14.901  1.00  0.00     0.176 C 
BRANCH   9  14
ATOM     14  C   UNL     1       1.411  -7.856  12.038  1.00  0.00     0.290 C 
ATOM     15  N   UNL     1       0.897  -8.263  10.820  1.00  0.00    -0.352 N 
ATOM     16  O   UNL     1       2.474  -7.253  12.153  1.00  0.00    -0.266 OA
ATOM     17  C   UNL     1       1.632  -8.122   9.593  1.00  0.00     0.143 C 
ATOM     18  H   UNL     1       0.069  -8.850  10.864  1.00  0.00     0.163 HD
ENDBRANCH   9  14
ENDBRANCH   1   8
BRANCH   7  19
ATOM     19  N   UNL     1      -0.813  -5.279  15.840  1.00  0.00    -0.382 N 
ATOM     20  H   UNL     1      -0.301  -5.653  15.043  1.00  0.00     0.158 HD
ATOM     21  H   UNL     1      -1.679  -4.927  15.427  1.00  0.00     0.158 HD
ENDBRANCH   7  19
BRANCH   3  22
ATOM     22  C   UNL     1      -1.978  -9.423  19.364  1.00  0.00     0.093 A 
ATOM     23  C   UNL     1      -2.917 -10.434  19.278  1.00  0.00     0.142 A 
ATOM     24  N   UNL     1      -1.302  -9.673  20.547  1.00  0.00    -0.298 N 
ATOM     25  N   UNL     1      -2.842 -11.292  20.342  1.00  0.00    -0.236 NA
ATOM     26  C   UNL     1      -0.239  -8.993  21.152  1.00  0.00     0.093 A 
ATOM     27  C   UNL     1      -1.872 -10.822  21.096  1.00  0.00     0.137 A 
ATOM     28  C   UNL     1       0.259  -9.445  22.314  1.00  0.00     0.018 A 
ATOM     29  C   UNL     1      -1.340 -11.293  22.330  1.00  0.00     0.048 A 
ATOM     30  C   UNL     1      -0.320 -10.636  22.915  1.00  0.00     0.005 A 
ENDBRANCH   3  22
TORSDOF 4
ENDMDL
MODEL 9
REMARK VINA RESULT:    -7.502      3.085      7.500
REMARK INTER + INTRA:          -9.427
REMARK INTER:                  -8.526
REMARK INTRA:                  -0.901
REMARK UNBOUND:                -0.389
REMARK SMILES CNC(=O)c1nc(-c2nc(-c3cnc4ccccn34)c(C)nc2N)n(C)n1
REMARK SMILES IDX 8 1 9 2 10 3 20 4 21 5 22 6 23 7 7 8 5 9 6 10 27 11 25 12
REMARK SMILES IDX 26 13 3 14 2 15 4 16 1 17 24 19 11 22 12 23 19 24 13 25
REMARK SMILES IDX 18 26 14 27 17 28 15 29 16 30
REMARK H PARENT 2 18 24 20 24 21
ROOT
ATOM      1  C   UNL     1      -1.660  -9.316  17.658  1.00  0.00     0.150 A 
ATOM      2  N   UNL     1      -1.252  -9.018  18.919  1.00  0.00    -0.237 NA
ATOM      3  C   UNL     1      -1.783  -9.771  19.914  1.00  0.00     0.111 A 
ATOM      4  C   UNL     1      -2.691 -10.800  19.664  1.00  0.00     0.068 A 
ATOM      5  C   UNL     1      -3.277 -11.649  20.751  1.00  0.00     0.069 C 
ATOM      6  N   UNL     1      -3.090 -11.090  18.397  1.00  0.00    -0.232 NA
ATOM      7  C   UNL     1      -2.571 -10.356  17.389  1.00  0.00     0.153 A 
ENDROOT
BRANCH   1   8
ATOM      8  C   UNL     1      -1.067  -8.497  16.595  1.00  0.00     0.181 A 
ATOM      9  C   UNL     1      -0.056  -7.827  14.827  1.00  0.00     0.239 A 
ATOM     10  N   UNL     1      -0.453  -8.953  15.516  1.00  0.00    -0.201 NA
ATOM     11  N   UNL     1      -0.414  -6.677  15.430  1.00  0.00    -0.145 NA
ATOM     12  N   UNL     1      -1.048  -7.122  16.536  1.00  0.00    -0.247 N 
ATOM     13  C   UNL     1      -1.618  -6.163  17.450  1.00  0.00     0.176 C 
BRANCH   9  14
ATOM     14  C   UNL     1       0.678  -7.865  13.542  1.00  0.00     0.290 C 
ATOM     15  N   UNL     1       0.140  -8.754  12.630  1.00  0.00    -0.352 N 
ATOM     16  O   UNL     1       1.674  -7.184  13.313  1.00  0.00    -0.266 OA
ATOM     17  C   UNL     1       0.780  -9.047  11.378  1.00  0.00     0.143 C 
ATOM     18  H   UNL     1      -0.615  -9.339  12.977  1.00  0.00     0.163 HD
ENDBRANCH   9  14
ENDBRANCH   1   8
BRANCH   7  19
ATOM     19  N   UNL     1      -3.030 -10.668  16.099  1.00  0.00    -0.382 N 
ATOM     20  H   UNL     1      -4.048 -10.666  16.099  1.00  0.00     0.158 HD
ATOM     21  H   UNL     1      -2.787  -9.898  15.473  1.00  0.00     0.158 HD
ENDBRANCH   7  19
BRANCH   3  22
ATOM     22  C   UNL     1      -1.324  -9.383  21.235  1.00  0.00     0.093 A 
ATOM     23  C   UNL     1      -0.168  -9.715  21.917  1.00  0.00     0.142 A 
ATOM     24  N   UNL     1      -2.025  -8.570  22.111  1.00  0.00    -0.298 N 
ATOM     25  N   UNL     1      -0.123  -9.138  23.158  1.00  0.00    -0.236 NA
ATOM     26  C   UNL     1      -3.258  -7.924  21.968  1.00  0.00     0.093 A 
ATOM     27  C   UNL     1      -1.244  -8.457  23.261  1.00  0.00     0.137 A 
ATOM     28  C   UNL     1      -3.730  -7.169  22.973  1.00  0.00     0.018 A 
ATOM     29  C   UNL     1      -1.753  -7.658  24.324  1.00  0.00     0.048 A 
ATOM     30  C   UNL     1      -2.943  -7.040  24.188  1.00  0.00     0.005 A 
ENDBRANCH   3  22
TORSDOF 4
ENDMDL
