MODEL 1
REMARK VINA RESULT:    -7.682      0.000      0.000
REMARK INTER + INTRA:         -11.393
REMARK INTER:                 -10.826
REMARK INTRA:                  -0.567
REMARK UNBOUND:                -0.567
REMARK SMILES Cc1cnc(NCCN2CCOCC2)nc1-c1cnn(CCC#N)c1
REMARK SMILES IDX 1 1 2 2 3 3 4 4 5 5 15 6 16 7 17 8 18 9 25 10 19 11 20 12
REMARK SMILES IDX 21 13 22 14 23 15 24 16 6 17 7 19 8 20 9 21 10 22 14 23
REMARK SMILES IDX 11 24 13 25 12 26
REMARK H PARENT 6 18
ROOT
ATOM      1  C   UNL     1       8.186 -21.309  20.751  1.00  0.00     0.048 C 
ATOM      2  C   UNL     1       6.836 -20.804  20.366  1.00  0.00    -0.006 A 
ATOM      3  C   UNL     1       6.706 -19.644  19.631  1.00  0.00     0.120 A 
ATOM      4  N   UNL     1       5.531 -19.127  19.233  1.00  0.00    -0.221 NA
ATOM      5  C   UNL     1       4.426 -19.794  19.576  1.00  0.00     0.223 A 
ATOM      6  N   UNL     1       4.434 -20.919  20.296  1.00  0.00    -0.213 NA
ATOM      7  C   UNL     1       5.633 -21.404  20.694  1.00  0.00     0.082 A 
ENDROOT
BRANCH   7   8
ATOM      8  C   UNL     1       5.539 -22.615  21.493  1.00  0.00     0.039 A 
ATOM      9  C   UNL     1       5.870 -22.887  22.839  1.00  0.00     0.145 A 
ATOM     10  C   UNL     1       5.013 -23.806  21.033  1.00  0.00     0.119 A 
ATOM     11  N   UNL     1       5.609 -24.150  23.190  1.00  0.00    -0.181 NA
ATOM     12  N   UNL     1       5.083 -24.684  22.072  1.00  0.00    -0.271 N 
BRANCH  12  13
ATOM     13  C   UNL     1       4.641 -26.064  22.079  1.00  0.00     0.159 C 
BRANCH  13  14
ATOM     14  C   UNL     1       5.386 -26.882  23.123  1.00  0.00     0.144 C 
ATOM     15  C   UNL     1       5.036 -28.299  22.993  1.00  0.00     0.064 C 
ATOM     16  N   UNL     1       4.739 -29.415  22.883  1.00  0.00    -0.198 NA
ENDBRANCH  13  14
ENDBRANCH  12  13
ENDBRANCH   7   8
BRANCH   5  17
ATOM     17  N   UNL     1       3.245 -19.259  19.156  1.00  0.00    -0.353 N 
ATOM     18  H   UNL     1       2.467 -19.899  19.065  1.00  0.00     0.163 HD
BRANCH  17  19
ATOM     19  C   UNL     1       3.165 -17.959  18.541  1.00  0.00     0.131 C 
BRANCH  19  20
ATOM     20  C   UNL     1       1.723 -17.408  18.647  1.00  0.00     0.106 C 
BRANCH  20  21
ATOM     21  N   UNL     1       1.235 -17.220  20.033  1.00  0.00    -0.297 NA
ATOM     22  C   UNL     1       2.188 -16.420  20.835  1.00  0.00     0.113 C 
ATOM     23  C   UNL     1      -0.089 -16.563  20.102  1.00  0.00     0.113 C 
ATOM     24  C   UNL     1       2.180 -14.917  20.502  1.00  0.00     0.175 C 
ATOM     25  C   UNL     1      -0.061 -15.060  19.778  1.00  0.00     0.175 C 
ATOM     26  O   UNL     1       0.865 -14.362  20.619  1.00  0.00    -0.379 OA
ENDBRANCH  20  21
ENDBRANCH  19  20
ENDBRANCH  17  19
ENDBRANCH   5  17
TORSDOF 7
ENDMDL
MODEL 2
REMARK VINA RESULT:    -7.670      1.999      2.655
REMARK INTER + INTRA:         -11.375
REMARK INTER:                 -10.525
REMARK INTRA:                  -0.851
REMARK UNBOUND:                -0.567
REMARK SMILES Cc1cnc(NCCN2CCOCC2)nc1-c1cnn(CCC#N)c1
REMARK SMILES IDX 1 1 2 2 3 3 4 4 5 5 15 6 16 7 17 8 18 9 25 10 19 11 20 12
REMARK SMILES IDX 21 13 22 14 23 15 24 16 6 17 7 19 8 20 9 21 10 22 14 23
REMARK SMILES IDX 11 24 13 25 12 26
REMARK H PARENT 6 18
ROOT
ATOM      1  C   UNL     1       8.319 -21.383  21.860  1.00  0.00     0.048 C 
ATOM      2  C   UNL     1       6.988 -20.806  22.211  1.00  0.00    -0.006 A 
ATOM      3  C   UNL     1       6.773 -19.447  22.131  1.00  0.00     0.120 A 
ATOM      4  N   UNL     1       5.604 -18.847  22.417  1.00  0.00    -0.221 NA
ATOM      5  C   UNL     1       4.594 -19.633  22.800  1.00  0.00     0.223 A 
ATOM      6  N   UNL     1       4.696 -20.959  22.924  1.00  0.00    -0.213 NA
ATOM      7  C   UNL     1       5.890 -21.530  22.644  1.00  0.00     0.082 A 
ENDROOT
BRANCH   7   8
ATOM      8  C   UNL     1       5.911 -22.971  22.832  1.00  0.00     0.039 A 
ATOM      9  C   UNL     1       6.610 -23.794  23.742  1.00  0.00     0.145 A 
ATOM     10  C   UNL     1       5.134 -23.856  22.111  1.00  0.00     0.119 A 
ATOM     11  N   UNL     1       6.327 -25.091  23.587  1.00  0.00    -0.181 NA
ATOM     12  N   UNL     1       5.423 -25.098  22.591  1.00  0.00    -0.271 N 
BRANCH  12  13
ATOM     13  C   UNL     1       4.848 -26.356  22.155  1.00  0.00     0.159 C 
BRANCH  13  14
ATOM     14  C   UNL     1       5.388 -27.524  22.965  1.00  0.00     0.144 C 
ATOM     15  C   UNL     1       4.760 -28.772  22.524  1.00  0.00     0.064 C 
ATOM     16  N   UNL     1       4.246 -29.750  22.171  1.00  0.00    -0.198 NA
ENDBRANCH  13  14
ENDBRANCH  12  13
ENDBRANCH   7   8
BRANCH   5  17
ATOM     17  N   UNL     1       3.415 -19.008  23.077  1.00  0.00    -0.353 N 
ATOM     18  H   UNL     1       3.331 -18.588  23.992  1.00  0.00     0.163 HD
BRANCH  17  19
ATOM     19  C   UNL     1       2.230 -19.219  22.285  1.00  0.00     0.131 C 
BRANCH  19  20
ATOM     20  C   UNL     1       2.107 -18.114  21.208  1.00  0.00     0.106 C 
BRANCH  20  21
ATOM     21  N   UNL     1       2.130 -18.609  19.812  1.00  0.00    -0.297 NA
ATOM     22  C   UNL     1       1.657 -17.573  18.866  1.00  0.00     0.113 C 
ATOM     23  C   UNL     1       3.471 -19.056  19.373  1.00  0.00     0.113 C 
ATOM     24  C   UNL     1       2.675 -16.448  18.608  1.00  0.00     0.175 C 
ATOM     25  C   UNL     1       4.459 -17.907  19.111  1.00  0.00     0.175 C 
ATOM     26  O   UNL     1       3.932 -16.970  18.164  1.00  0.00    -0.379 OA
ENDBRANCH  20  21
ENDBRANCH  19  20
ENDBRANCH  17  19
ENDBRANCH   5  17
TORSDOF 7
ENDMDL
MODEL 3
REMARK VINA RESULT:    -7.635      3.546      6.129
REMARK INTER + INTRA:         -11.326
REMARK INTER:                 -10.993
REMARK INTRA:                  -0.333
REMARK UNBOUND:                -0.567
REMARK SMILES Cc1cnc(NCCN2CCOCC2)nc1-c1cnn(CCC#N)c1
REMARK SMILES IDX 1 1 2 2 3 3 4 4 5 5 15 6 16 7 17 8 18 9 25 10 19 11 20 12
REMARK SMILES IDX 21 13 22 14 23 15 24 16 6 17 7 19 8 20 9 21 10 22 14 23
REMARK SMILES IDX 11 24 13 25 12 26
REMARK H PARENT 6 18
ROOT
ATOM      1  C   UNL     1       5.067 -28.450  23.291  1.00  0.00     0.048 C 
ATOM      2  C   UNL     1       4.644 -27.244  22.521  1.00  0.00    -0.006 A 
ATOM      3  C   UNL     1       3.430 -27.223  21.866  1.00  0.00     0.120 A 
ATOM      4  N   UNL     1       2.968 -26.176  21.161  1.00  0.00    -0.221 NA
ATOM      5  C   UNL     1       3.745 -25.092  21.102  1.00  0.00     0.223 A 
ATOM      6  N   UNL     1       4.943 -25.007  21.687  1.00  0.00    -0.213 NA
ATOM      7  C   UNL     1       5.386 -26.085  22.376  1.00  0.00     0.082 A 
ENDROOT
BRANCH   7   8
ATOM      8  C   UNL     1       6.707 -25.908  22.954  1.00  0.00     0.039 A 
ATOM      9  C   UNL     1       7.826 -25.151  22.542  1.00  0.00     0.145 A 
ATOM     10  C   UNL     1       7.110 -26.472  24.149  1.00  0.00     0.119 A 
ATOM     11  N   UNL     1       8.859 -25.254  23.383  1.00  0.00    -0.181 NA
ATOM     12  N   UNL     1       8.392 -26.061  24.354  1.00  0.00    -0.271 N 
BRANCH  12  13
ATOM     13  C   UNL     1       9.241 -26.384  25.484  1.00  0.00     0.159 C 
BRANCH  13  14
ATOM     14  C   UNL     1       9.341 -27.887  25.693  1.00  0.00     0.144 C 
ATOM     15  C   UNL     1      10.013 -28.173  26.963  1.00  0.00     0.064 C 
ATOM     16  N   UNL     1      10.556 -28.382  27.966  1.00  0.00    -0.198 NA
ENDBRANCH  13  14
ENDBRANCH  12  13
ENDBRANCH   7   8
BRANCH   5  17
ATOM     17  N   UNL     1       3.256 -24.037  20.391  1.00  0.00    -0.353 N 
ATOM     18  H   UNL     1       2.267 -24.054  20.181  1.00  0.00     0.163 HD
BRANCH  17  19
ATOM     19  C   UNL     1       4.115 -23.131  19.672  1.00  0.00     0.131 C 
BRANCH  19  20
ATOM     20  C   UNL     1       4.068 -21.727  20.321  1.00  0.00     0.106 C 
BRANCH  20  21
ATOM     21  N   UNL     1       5.327 -20.955  20.210  1.00  0.00    -0.297 NA
ATOM     22  C   UNL     1       5.143 -19.557  20.663  1.00  0.00     0.113 C 
ATOM     23  C   UNL     1       6.444 -21.545  20.982  1.00  0.00     0.113 C 
ATOM     24  C   UNL     1       5.043 -19.401  22.191  1.00  0.00     0.175 C 
ATOM     25  C   UNL     1       6.320 -21.360  22.503  1.00  0.00     0.175 C 
ATOM     26  O   UNL     1       6.175 -19.978  22.852  1.00  0.00    -0.379 OA
ENDBRANCH  20  21
ENDBRANCH  19  20
ENDBRANCH  17  19
ENDBRANCH   5  17
TORSDOF 7
ENDMDL
MODEL 4
REMARK VINA RESULT:    -7.493      3.372      5.699
REMARK INTER + INTRA:         -11.126
REMARK INTER:                 -10.967
REMARK INTRA:                  -0.159
REMARK UNBOUND:                -0.567
REMARK SMILES Cc1cnc(NCCN2CCOCC2)nc1-c1cnn(CCC#N)c1
REMARK SMILES IDX 1 1 2 2 3 3 4 4 5 5 15 6 16 7 17 8 18 9 25 10 19 11 20 12
REMARK SMILES IDX 21 13 22 14 23 15 24 16 6 17 7 19 8 20 9 21 10 22 14 23
REMARK SMILES IDX 11 24 13 25 12 26
REMARK H PARENT 6 18
ROOT
ATOM      1  C   UNL     1       5.478 -28.419  23.351  1.00  0.00     0.048 C 
ATOM      2  C   UNL     1       5.036 -27.164  22.677  1.00  0.00    -0.006 A 
ATOM      3  C   UNL     1       3.807 -27.100  22.055  1.00  0.00     0.120 A 
ATOM      4  N   UNL     1       3.327 -26.006  21.437  1.00  0.00    -0.221 NA
ATOM      5  C   UNL     1       4.102 -24.919  21.434  1.00  0.00     0.223 A 
ATOM      6  N   UNL     1       5.314 -24.874  21.994  1.00  0.00    -0.213 NA
ATOM      7  C   UNL     1       5.774 -25.996  22.595  1.00  0.00     0.082 A 
ENDROOT
BRANCH   7   8
ATOM      8  C   UNL     1       7.110 -25.858  23.151  1.00  0.00     0.039 A 
ATOM      9  C   UNL     1       8.257 -25.173  22.694  1.00  0.00     0.145 A 
ATOM     10  C   UNL     1       7.501 -26.389  24.365  1.00  0.00     0.119 A 
ATOM     11  N   UNL     1       9.295 -25.289  23.528  1.00  0.00    -0.181 NA
ATOM     12  N   UNL     1       8.803 -26.030  24.539  1.00  0.00    -0.271 N 
BRANCH  12  13
ATOM     13  C   UNL     1       9.650 -26.344  25.672  1.00  0.00     0.159 C 
BRANCH  13  14
ATOM     14  C   UNL     1       9.663 -27.837  25.960  1.00  0.00     0.144 C 
ATOM     15  C   UNL     1      10.340 -28.097  27.233  1.00  0.00     0.064 C 
ATOM     16  N   UNL     1      10.889 -28.286  28.237  1.00  0.00    -0.198 NA
ENDBRANCH  13  14
ENDBRANCH  12  13
ENDBRANCH   7   8
BRANCH   5  17
ATOM     17  N   UNL     1       3.595 -23.819  20.810  1.00  0.00    -0.353 N 
ATOM     18  H   UNL     1       2.612 -23.844  20.579  1.00  0.00     0.163 HD
BRANCH  17  19
ATOM     19  C   UNL     1       4.441 -22.828  20.194  1.00  0.00     0.131 C 
BRANCH  19  20
ATOM     20  C   UNL     1       4.470 -21.543  21.056  1.00  0.00     0.106 C 
BRANCH  20  21
ATOM     21  N   UNL     1       3.817 -20.369  20.433  1.00  0.00    -0.297 NA
ATOM     22  C   UNL     1       2.603 -19.968  21.180  1.00  0.00     0.113 C 
ATOM     23  C   UNL     1       4.706 -19.189  20.335  1.00  0.00     0.113 C 
ATOM     24  C   UNL     1       2.893 -19.250  22.510  1.00  0.00     0.175 C 
ATOM     25  C   UNL     1       4.965 -18.487  21.678  1.00  0.00     0.175 C 
ATOM     26  O   UNL     1       3.739 -18.110  22.316  1.00  0.00    -0.379 OA
ENDBRANCH  20  21
ENDBRANCH  19  20
ENDBRANCH  17  19
ENDBRANCH   5  17
TORSDOF 7
ENDMDL
MODEL 5
REMARK VINA RESULT:    -7.399      5.185     10.844
REMARK INTER + INTRA:         -10.994
REMARK INTER:                 -10.781
REMARK INTRA:                  -0.213
REMARK UNBOUND:                -0.567
REMARK SMILES Cc1cnc(NCCN2CCOCC2)nc1-c1cnn(CCC#N)c1
REMARK SMILES IDX 1 1 2 2 3 3 4 4 5 5 15 6 16 7 17 8 18 9 25 10 19 11 20 12
REMARK SMILES IDX 21 13 22 14 23 15 24 16 6 17 7 19 8 20 9 21 10 22 14 23
REMARK SMILES IDX 11 24 13 25 12 26
REMARK H PARENT 6 18
ROOT
ATOM      1  C   UNL     1       2.954 -26.904  21.441  1.00  0.00     0.048 C 
ATOM      2  C   UNL     1       4.169 -27.241  22.239  1.00  0.00    -0.006 A 
ATOM      3  C   UNL     1       4.363 -28.523  22.708  1.00  0.00     0.120 A 
ATOM      4  N   UNL     1       5.433 -28.914  23.422  1.00  0.00    -0.221 NA
ATOM      5  C   UNL     1       6.359 -27.990  23.686  1.00  0.00     0.223 A 
ATOM      6  N   UNL     1       6.266 -26.716  23.293  1.00  0.00    -0.213 NA
ATOM      7  C   UNL     1       5.170 -26.352  22.589  1.00  0.00     0.082 A 
ENDROOT
BRANCH   7   8
ATOM      8  C   UNL     1       5.145 -24.944  22.228  1.00  0.00     0.039 A 
ATOM      9  C   UNL     1       4.541 -24.254  21.155  1.00  0.00     0.145 A 
ATOM     10  C   UNL     1       5.728 -23.943  22.981  1.00  0.00     0.119 A 
ATOM     11  N   UNL     1       4.753 -22.935  21.204  1.00  0.00    -0.181 NA
ATOM     12  N   UNL     1       5.473 -22.775  22.329  1.00  0.00    -0.271 N 
BRANCH  12  13
ATOM     13  C   UNL     1       5.873 -21.443  22.737  1.00  0.00     0.159 C 
BRANCH  13  14
ATOM     14  C   UNL     1       5.159 -20.374  21.925  1.00  0.00     0.144 C 
ATOM     15  C   UNL     1       4.241 -19.622  22.785  1.00  0.00     0.064 C 
ATOM     16  N   UNL     1       3.511 -19.044  23.476  1.00  0.00    -0.198 NA
ENDBRANCH  13  14
ENDBRANCH  12  13
ENDBRANCH   7   8
BRANCH   5  17
ATOM     17  N   UNL     1       7.440 -28.407  24.404  1.00  0.00    -0.353 N 
ATOM     18  H   UNL     1       7.437 -29.372  24.705  1.00  0.00     0.163 HD
BRANCH  17  19
ATOM     19  C   UNL     1       8.364 -27.481  25.009  1.00  0.00     0.131 C 
BRANCH  19  20
ATOM     20  C   UNL     1       9.405 -28.248  25.859  1.00  0.00     0.106 C 
BRANCH  20  21
ATOM     21  N   UNL     1      10.171 -27.404  26.804  1.00  0.00    -0.297 NA
ATOM     22  C   UNL     1      11.403 -28.087  27.259  1.00  0.00     0.113 C 
ATOM     23  C   UNL     1      10.555 -26.092  26.236  1.00  0.00     0.113 C 
ATOM     24  C   UNL     1      12.523 -28.128  26.205  1.00  0.00     0.175 C 
ATOM     25  C   UNL     1      11.685 -26.166  25.197  1.00  0.00     0.175 C 
ATOM     26  O   UNL     1      12.846 -26.816  25.731  1.00  0.00    -0.379 OA
ENDBRANCH  20  21
ENDBRANCH  19  20
ENDBRANCH  17  19
ENDBRANCH   5  17
TORSDOF 7
ENDMDL
MODEL 6
REMARK VINA RESULT:    -7.241      5.618     10.718
REMARK INTER + INTRA:         -10.771
REMARK INTER:                 -10.085
REMARK INTRA:                  -0.686
REMARK UNBOUND:                -0.567
REMARK SMILES Cc1cnc(NCCN2CCOCC2)nc1-c1cnn(CCC#N)c1
REMARK SMILES IDX 1 1 2 2 3 3 4 4 5 5 15 6 16 7 17 8 18 9 25 10 19 11 20 12
REMARK SMILES IDX 21 13 22 14 23 15 24 16 6 17 7 19 8 20 9 21 10 22 14 23
REMARK SMILES IDX 11 24 13 25 12 26
REMARK H PARENT 6 18
ROOT
ATOM      1  C   UNL     1       3.485 -25.784  21.366  1.00  0.00     0.048 C 
ATOM      2  C   UNL     1       4.620 -26.296  22.188  1.00  0.00    -0.006 A 
ATOM      3  C   UNL     1       4.636 -27.606  22.619  1.00  0.00     0.120 A 
ATOM      4  N   UNL     1       5.623 -28.151  23.351  1.00  0.00    -0.221 NA
ATOM      5  C   UNL     1       6.650 -27.360  23.672  1.00  0.00     0.223 A 
ATOM      6  N   UNL     1       6.732 -26.074  23.319  1.00  0.00    -0.213 NA
ATOM      7  C   UNL     1       5.714 -25.553  22.595  1.00  0.00     0.082 A 
ENDROOT
BRANCH   7   8
ATOM      8  C   UNL     1       5.879 -24.143  22.282  1.00  0.00     0.039 A 
ATOM      9  C   UNL     1       5.743 -22.978  23.068  1.00  0.00     0.145 A 
ATOM     10  C   UNL     1       6.286 -23.668  21.050  1.00  0.00     0.119 A 
ATOM     11  N   UNL     1       6.005 -21.860  22.384  1.00  0.00    -0.181 NA
ATOM     12  N   UNL     1       6.338 -22.311  21.161  1.00  0.00    -0.271 N 
BRANCH  12  13
ATOM     13  C   UNL     1       6.724 -21.367  20.131  1.00  0.00     0.159 C 
BRANCH  13  14
ATOM     14  C   UNL     1       7.861 -20.470  20.596  1.00  0.00     0.144 C 
ATOM     15  C   UNL     1       9.105 -21.240  20.676  1.00  0.00     0.064 C 
ATOM     16  N   UNL     1      10.079 -21.867  20.744  1.00  0.00    -0.198 NA
ENDBRANCH  13  14
ENDBRANCH  12  13
ENDBRANCH   7   8
BRANCH   5  17
ATOM     17  N   UNL     1       7.645 -27.932  24.407  1.00  0.00    -0.353 N 
ATOM     18  H   UNL     1       7.592 -28.933  24.536  1.00  0.00     0.163 HD
BRANCH  17  19
ATOM     19  C   UNL     1       8.523 -27.156  25.246  1.00  0.00     0.131 C 
BRANCH  19  20
ATOM     20  C   UNL     1       9.666 -28.048  25.787  1.00  0.00     0.106 C 
BRANCH  20  21
ATOM     21  N   UNL     1      10.974 -27.365  25.911  1.00  0.00    -0.297 NA
ATOM     22  C   UNL     1      10.817 -25.992  26.442  1.00  0.00     0.113 C 
ATOM     23  C   UNL     1      11.931 -28.087  26.780  1.00  0.00     0.113 C 
ATOM     24  C   UNL     1      10.511 -25.934  27.950  1.00  0.00     0.175 C 
ATOM     25  C   UNL     1      11.605 -27.999  28.279  1.00  0.00     0.175 C 
ATOM     26  O   UNL     1      11.499 -26.637  28.712  1.00  0.00    -0.379 OA
ENDBRANCH  20  21
ENDBRANCH  19  20
ENDBRANCH  17  19
ENDBRANCH   5  17
TORSDOF 7
ENDMDL
MODEL 7
REMARK VINA RESULT:    -7.200      1.921      2.958
REMARK INTER + INTRA:         -10.713
REMARK INTER:                 -10.265
REMARK INTRA:                  -0.448
REMARK UNBOUND:                -0.567
REMARK SMILES Cc1cnc(NCCN2CCOCC2)nc1-c1cnn(CCC#N)c1
REMARK SMILES IDX 1 1 2 2 3 3 4 4 5 5 15 6 16 7 17 8 18 9 25 10 19 11 20 12
REMARK SMILES IDX 21 13 22 14 23 15 24 16 6 17 7 19 8 20 9 21 10 22 14 23
REMARK SMILES IDX 11 24 13 25 12 26
REMARK H PARENT 6 18
ROOT
ATOM      1  C   UNL     1       3.637 -19.458  23.164  1.00  0.00     0.048 C 
ATOM      2  C   UNL     1       3.443 -19.092  21.731  1.00  0.00    -0.006 A 
ATOM      3  C   UNL     1       2.767 -17.940  21.389  1.00  0.00     0.120 A 
ATOM      4  N   UNL     1       2.559 -17.530  20.126  1.00  0.00    -0.221 NA
ATOM      5  C   UNL     1       3.046 -18.298  19.149  1.00  0.00     0.223 A 
ATOM      6  N   UNL     1       3.704 -19.441  19.365  1.00  0.00    -0.213 NA
ATOM      7  C   UNL     1       3.883 -19.833  20.648  1.00  0.00     0.082 A 
ENDROOT
BRANCH   7   8
ATOM      8  C   UNL     1       4.586 -21.098  20.782  1.00  0.00     0.039 A 
ATOM      9  C   UNL     1       5.859 -21.422  21.300  1.00  0.00     0.145 A 
ATOM     10  C   UNL     1       4.048 -22.322  20.434  1.00  0.00     0.119 A 
ATOM     11  N   UNL     1       6.119 -22.731  21.251  1.00  0.00    -0.181 NA
ATOM     12  N   UNL     1       4.997 -23.254  20.724  1.00  0.00    -0.271 N 
BRANCH  12  13
ATOM     13  C   UNL     1       4.894 -24.689  20.543  1.00  0.00     0.159 C 
BRANCH  13  14
ATOM     14  C   UNL     1       4.400 -25.375  21.807  1.00  0.00     0.144 C 
ATOM     15  C   UNL     1       3.269 -26.252  21.492  1.00  0.00     0.064 C 
ATOM     16  N   UNL     1       2.369 -26.934  21.227  1.00  0.00    -0.198 NA
ENDBRANCH  13  14
ENDBRANCH  12  13
ENDBRANCH   7   8
BRANCH   5  17
ATOM     17  N   UNL     1       2.833 -17.863  17.875  1.00  0.00    -0.353 N 
ATOM     18  H   UNL     1       3.404 -18.281  17.154  1.00  0.00     0.163 HD
BRANCH  17  19
ATOM     19  C   UNL     1       2.110 -16.650  17.589  1.00  0.00     0.131 C 
BRANCH  19  20
ATOM     20  C   UNL     1       0.590 -16.938  17.531  1.00  0.00     0.106 C 
BRANCH  20  21
ATOM     21  N   UNL     1      -0.268 -15.731  17.580  1.00  0.00    -0.297 NA
ATOM     22  C   UNL     1      -1.596 -16.039  18.156  1.00  0.00     0.113 C 
ATOM     23  C   UNL     1       0.327 -14.623  18.362  1.00  0.00     0.113 C 
ATOM     24  C   UNL     1      -1.588 -16.239  19.682  1.00  0.00     0.175 C 
ATOM     25  C   UNL     1       0.308 -14.848  19.882  1.00  0.00     0.175 C 
ATOM     26  O   UNL     1      -1.019 -15.110  20.356  1.00  0.00    -0.379 OA
ENDBRANCH  20  21
ENDBRANCH  19  20
ENDBRANCH  17  19
ENDBRANCH   5  17
TORSDOF 7
ENDMDL
MODEL 8
REMARK VINA RESULT:    -7.196      2.132      3.153
REMARK INTER + INTRA:         -10.708
REMARK INTER:                  -9.913
REMARK INTRA:                  -0.795
REMARK UNBOUND:                -0.567
REMARK SMILES Cc1cnc(NCCN2CCOCC2)nc1-c1cnn(CCC#N)c1
REMARK SMILES IDX 1 1 2 2 3 3 4 4 5 5 15 6 16 7 17 8 18 9 25 10 19 11 20 12
REMARK SMILES IDX 21 13 22 14 23 15 24 16 6 17 7 19 8 20 9 21 10 22 14 23
REMARK SMILES IDX 11 24 13 25 12 26
REMARK H PARENT 6 18
ROOT
ATOM      1  C   UNL     1       8.689 -24.010  21.853  1.00  0.00     0.048 C 
ATOM      2  C   UNL     1       7.998 -22.693  21.978  1.00  0.00    -0.006 A 
ATOM      3  C   UNL     1       8.696 -21.573  22.377  1.00  0.00     0.120 A 
ATOM      4  N   UNL     1       8.154 -20.349  22.504  1.00  0.00    -0.221 NA
ATOM      5  C   UNL     1       6.856 -20.226  22.220  1.00  0.00     0.223 A 
ATOM      6  N   UNL     1       6.082 -21.245  21.837  1.00  0.00    -0.213 NA
ATOM      7  C   UNL     1       6.655 -22.467  21.734  1.00  0.00     0.082 A 
ENDROOT
BRANCH   7   8
ATOM      8  C   UNL     1       5.731 -23.517  21.338  1.00  0.00     0.039 A 
ATOM      9  C   UNL     1       5.182 -23.869  20.085  1.00  0.00     0.145 A 
ATOM     10  C   UNL     1       5.224 -24.468  22.201  1.00  0.00     0.119 A 
ATOM     11  N   UNL     1       4.371 -24.928  20.155  1.00  0.00    -0.181 NA
ATOM     12  N   UNL     1       4.420 -25.275  21.454  1.00  0.00    -0.271 N 
BRANCH  12  13
ATOM     13  C   UNL     1       3.672 -26.428  21.916  1.00  0.00     0.159 C 
BRANCH  13  14
ATOM     14  C   UNL     1       4.470 -27.242  22.922  1.00  0.00     0.144 C 
ATOM     15  C   UNL     1       4.409 -28.665  22.577  1.00  0.00     0.064 C 
ATOM     16  N   UNL     1       4.341 -29.788  22.296  1.00  0.00    -0.198 NA
ENDBRANCH  13  14
ENDBRANCH  12  13
ENDBRANCH   7   8
BRANCH   5  17
ATOM     17  N   UNL     1       6.327 -18.976  22.346  1.00  0.00    -0.353 N 
ATOM     18  H   UNL     1       5.632 -18.851  23.069  1.00  0.00     0.163 HD
BRANCH  17  19
ATOM     19  C   UNL     1       6.461 -17.977  21.316  1.00  0.00     0.131 C 
BRANCH  19  20
ATOM     20  C   UNL     1       5.080 -17.666  20.692  1.00  0.00     0.106 C 
BRANCH  20  21
ATOM     21  N   UNL     1       4.582 -18.698  19.753  1.00  0.00    -0.297 NA
ATOM     22  C   UNL     1       3.456 -19.460  20.337  1.00  0.00     0.113 C 
ATOM     23  C   UNL     1       4.136 -18.140  18.456  1.00  0.00     0.113 C 
ATOM     24  C   UNL     1       2.127 -18.685  20.376  1.00  0.00     0.175 C 
ATOM     25  C   UNL     1       2.800 -17.384  18.526  1.00  0.00     0.175 C 
ATOM     26  O   UNL     1       1.762 -18.205  19.076  1.00  0.00    -0.379 OA
ENDBRANCH  20  21
ENDBRANCH  19  20
ENDBRANCH  17  19
ENDBRANCH   5  17
TORSDOF 7
ENDMDL
MODEL 9
REMARK VINA RESULT:    -7.191      3.376      9.158
REMARK INTER + INTRA:         -10.701
REMARK INTER:                  -9.918
REMARK INTRA:                  -0.784
REMARK UNBOUND:                -0.567
REMARK SMILES Cc1cnc(NCCN2CCOCC2)nc1-c1cnn(CCC#N)c1
REMARK SMILES IDX 1 1 2 2 3 3 4 4 5 5 15 6 16 7 17 8 18 9 25 10 19 11 20 12
REMARK SMILES IDX 21 13 22 14 23 15 24 16 6 17 7 19 8 20 9 21 10 22 14 23
REMARK SMILES IDX 11 24 13 25 12 26
REMARK H PARENT 6 18
ROOT
ATOM      1  C   UNL     1       6.552 -18.926  21.077  1.00  0.00     0.048 C 
ATOM      2  C   UNL     1       5.955 -20.248  20.726  1.00  0.00    -0.006 A 
ATOM      3  C   UNL     1       6.547 -21.418  21.153  1.00  0.00     0.120 A 
ATOM      4  N   UNL     1       6.069 -22.647  20.892  1.00  0.00    -0.221 NA
ATOM      5  C   UNL     1       4.946 -22.724  20.175  1.00  0.00     0.223 A 
ATOM      6  N   UNL     1       4.297 -21.657  19.700  1.00  0.00    -0.213 NA
ATOM      7  C   UNL     1       4.813 -20.435  19.967  1.00  0.00     0.082 A 
ENDROOT
BRANCH   7   8
ATOM      8  C   UNL     1       4.054 -19.339  19.388  1.00  0.00     0.039 A 
ATOM      9  C   UNL     1       4.263 -18.548  18.237  1.00  0.00     0.145 A 
ATOM     10  C   UNL     1       2.855 -18.876  19.895  1.00  0.00     0.119 A 
ATOM     11  N   UNL     1       3.300 -17.640  18.051  1.00  0.00    -0.181 NA
ATOM     12  N   UNL     1       2.454 -17.867  19.072  1.00  0.00    -0.271 N 
BRANCH  12  13
ATOM     13  C   UNL     1       1.245 -17.076  19.188  1.00  0.00     0.159 C 
BRANCH  13  14
ATOM     14  C   UNL     1       1.499 -15.618  18.840  1.00  0.00     0.144 C 
ATOM     15  C   UNL     1       1.790 -14.856  20.058  1.00  0.00     0.064 C 
ATOM     16  N   UNL     1       2.006 -14.266  21.033  1.00  0.00    -0.198 NA
ENDBRANCH  13  14
ENDBRANCH  12  13
ENDBRANCH   7   8
BRANCH   5  17
ATOM     17  N   UNL     1       4.472 -23.978  19.928  1.00  0.00    -0.353 N 
ATOM     18  H   UNL     1       4.482 -24.282  18.964  1.00  0.00     0.163 HD
BRANCH  17  19
ATOM     19  C   UNL     1       3.682 -24.703  20.890  1.00  0.00     0.131 C 
BRANCH  19  20
ATOM     20  C   UNL     1       4.411 -26.004  21.304  1.00  0.00     0.106 C 
BRANCH  20  21
ATOM     21  N   UNL     1       4.550 -26.194  22.767  1.00  0.00    -0.297 NA
ATOM     22  C   UNL     1       4.655 -27.629  23.116  1.00  0.00     0.113 C 
ATOM     23  C   UNL     1       5.724 -25.495  23.338  1.00  0.00     0.113 C 
ATOM     24  C   UNL     1       6.020 -28.257  22.786  1.00  0.00     0.175 C 
ATOM     25  C   UNL     1       7.071 -26.155  23.001  1.00  0.00     0.175 C 
ATOM     26  O   UNL     1       7.093 -27.531  23.398  1.00  0.00    -0.379 OA
ENDBRANCH  20  21
ENDBRANCH  19  20
ENDBRANCH  17  19
ENDBRANCH   5  17
TORSDOF 7
ENDMDL
