MODEL 1
REMARK minimizedAffinity -9.43163872
REMARK CNNscore 0.359012127
REMARK CNNaffinity 6.55193186
REMARK SMILES N=C(N)c1ccc2nc(Cc3nc4ccc(C(=N)N)cc4[nH]3)[nH]c2c1
REMARK SMILES IDX 10 1 9 2 4 3 5 4 25 5 6 6 24 7 7 8 23 9 8 10 2 12 1 13 3 14
REMARK SMILES IDX 11 18 12 19 22 20 13 21 21 22 14 23 20 24 15 25 16 26 17 28
REMARK SMILES IDX 18 29 19 30
REMARK H PARENT 23 11 1 15 3 16 3 17 22 27 18 31 19 32 19 33
ROOT
ATOM      1  C   UNL     1     127.935 -14.418 161.510  1.00  0.00     0.150 C 
ENDROOT
BRANCH   1   2
ATOM      2  C   UNL     1     127.058 -13.907 162.605  1.00  0.00     0.114 A 
ATOM      3  C   UNL     1     124.937 -11.591 165.878  1.00  0.00     0.018 A 
ATOM      4  C   UNL     1     124.181 -12.770 165.885  1.00  0.00     0.014 A 
ATOM      5  C   UNL     1     126.018 -11.419 164.998  1.00  0.00     0.040 A 
ATOM      6  C   UNL     1     124.487 -13.821 165.009  1.00  0.00     0.031 A 
ATOM      7  C   UNL     1     126.295 -12.484 164.137  1.00  0.00     0.066 A 
ATOM      8  C   UNL     1     125.562 -13.666 164.120  1.00  0.00     0.089 A 
ATOM      9  N   UNL     1     127.242 -12.661 163.163  1.00  0.00    -0.342 N 
ATOM     10  N   UNL     1     126.047 -14.534 163.174  1.00  0.00    -0.233 NA
ATOM     11  H   UNL     1     127.938 -11.993 162.857  1.00  0.00     0.168 HD
BRANCH   3  12
ATOM     12  C   UNL     1     124.579 -10.491 166.812  1.00  0.00     0.122 C 
ATOM     13  N   UNL     1     125.444  -9.606 167.197  1.00  0.00    -0.284 NA
ATOM     14  N   UNL     1     123.315 -10.382 167.288  1.00  0.00    -0.384 N 
ATOM     15  H   UNL     1     126.369  -9.807 166.809  1.00  0.00     0.189 HD
ATOM     16  H   UNL     1     122.550 -10.960 166.973  1.00  0.00     0.158 HD
ATOM     17  H   UNL     1     123.121  -9.606 167.907  1.00  0.00     0.158 HD
ENDBRANCH   3  12
ENDBRANCH   1   2
BRANCH   1  18
ATOM     18  C   UNL     1     129.329 -14.671 161.985  1.00  0.00     0.114 A 
ATOM     19  N   UNL     1     130.440 -14.245 161.414  1.00  0.00    -0.233 NA
ATOM     20  N   UNL     1     129.604 -15.440 163.089  1.00  0.00    -0.342 N 
ATOM     21  C   UNL     1     131.462 -14.737 162.189  1.00  0.00     0.089 A 
ATOM     22  C   UNL     1     130.965 -15.494 163.242  1.00  0.00     0.066 A 
ATOM     23  C   UNL     1     132.848 -14.580 162.053  1.00  0.00     0.031 A 
ATOM     24  C   UNL     1     131.781 -16.123 164.186  1.00  0.00     0.040 A 
ATOM     25  C   UNL     1     133.694 -15.198 162.988  1.00  0.00     0.014 A 
ATOM     26  C   UNL     1     133.171 -15.968 164.036  1.00  0.00     0.018 A 
ATOM     27  H   UNL     1     128.925 -15.896 163.683  1.00  0.00     0.168 HD
BRANCH  26  28
ATOM     28  C   UNL     1     134.072 -16.631 165.031  1.00  0.00     0.122 C 
ATOM     29  N   UNL     1     134.938 -15.916 165.674  1.00  0.00    -0.284 NA
ATOM     30  N   UNL     1     133.989 -17.965 165.278  1.00  0.00    -0.384 N 
ATOM     31  H   UNL     1     135.471 -16.511 166.309  1.00  0.00     0.189 HD
ATOM     32  H   UNL     1     134.600 -18.411 165.947  1.00  0.00     0.158 HD
ATOM     33  H   UNL     1     133.250 -18.536 164.894  1.00  0.00     0.158 HD
ENDBRANCH  26  28
ENDBRANCH   1  18
TORSDOF 4
ENDMDL
MODEL 2
REMARK minimizedAffinity -9.46371174
REMARK CNNscore 0.320405245
REMARK CNNaffinity 6.51161623
REMARK SMILES N=C(N)c1ccc2nc(Cc3nc4ccc(C(=N)N)cc4[nH]3)[nH]c2c1
REMARK SMILES IDX 10 1 9 2 4 3 5 4 25 5 6 6 24 7 7 8 23 9 8 10 2 12 1 13 3 14
REMARK SMILES IDX 11 18 12 19 22 20 13 21 21 22 14 23 20 24 15 25 16 26 17 28
REMARK SMILES IDX 18 29 19 30
REMARK H PARENT 23 11 1 15 3 16 3 17 22 27 18 31 19 32 19 33
ROOT
ATOM      1  C   UNL     1     127.939 -14.470 161.521  1.00  0.00     0.150 C 
ENDROOT
BRANCH   1   2
ATOM      2  C   UNL     1     129.338 -14.717 161.979  1.00  0.00     0.114 A 
ATOM      3  C   UNL     1     133.175 -15.956 164.057  1.00  0.00     0.018 A 
ATOM      4  C   UNL     1     133.703 -15.208 162.996  1.00  0.00     0.014 A 
ATOM      5  C   UNL     1     131.790 -16.123 164.217  1.00  0.00     0.040 A 
ATOM      6  C   UNL     1     132.856 -14.600 162.060  1.00  0.00     0.031 A 
ATOM      7  C   UNL     1     130.974 -15.506 163.265  1.00  0.00     0.066 A 
ATOM      8  C   UNL     1     131.469 -14.759 162.201  1.00  0.00     0.089 A 
ATOM      9  N   UNL     1     129.614 -15.465 163.102  1.00  0.00    -0.342 N 
ATOM     10  N   UNL     1     130.448 -14.277 161.421  1.00  0.00    -0.233 NA
ATOM     11  H   UNL     1     128.916 -15.930 163.668  1.00  0.00     0.168 HD
BRANCH   3  12
ATOM     12  C   UNL     1     134.101 -16.597 165.028  1.00  0.00     0.122 C 
ATOM     13  N   UNL     1     134.974 -15.917 165.700  1.00  0.00    -0.284 NA
ATOM     14  N   UNL     1     134.048 -17.935 165.241  1.00  0.00    -0.384 N 
ATOM     15  H   UNL     1     134.952 -14.929 165.433  1.00  0.00     0.189 HD
ATOM     16  H   UNL     1     133.341 -18.534 164.842  1.00  0.00     0.158 HD
ATOM     17  H   UNL     1     134.689 -18.318 165.924  1.00  0.00     0.158 HD
ENDBRANCH   3  12
ENDBRANCH   1   2
BRANCH   1  18
ATOM     18  C   UNL     1     127.074 -13.958 162.627  1.00  0.00     0.114 A 
ATOM     19  N   UNL     1     126.061 -14.595 163.188  1.00  0.00    -0.233 NA
ATOM     20  N   UNL     1     127.227 -12.704 163.166  1.00  0.00    -0.342 N 
ATOM     21  C   UNL     1     125.563 -13.730 164.132  1.00  0.00     0.089 A 
ATOM     22  C   UNL     1     126.273 -12.537 164.134  1.00  0.00     0.066 A 
ATOM     23  C   UNL     1     124.499 -13.897 165.029  1.00  0.00     0.031 A 
ATOM     24  C   UNL     1     125.978 -11.472 164.990  1.00  0.00     0.040 A 
ATOM     25  C   UNL     1     124.180 -12.845 165.903  1.00  0.00     0.014 A 
ATOM     26  C   UNL     1     124.903 -11.643 165.880  1.00  0.00     0.018 A 
ATOM     27  H   UNL     1     127.917 -12.018 162.891  1.00  0.00     0.168 HD
BRANCH  26  28
ATOM     28  C   UNL     1     124.560 -10.519 166.807  1.00  0.00     0.122 C 
ATOM     29  N   UNL     1     125.480  -9.671 167.138  1.00  0.00    -0.284 NA
ATOM     30  N   UNL     1     123.302 -10.367 167.297  1.00  0.00    -0.384 N 
ATOM     31  H   UNL     1     125.090  -8.972 167.772  1.00  0.00     0.189 HD
ATOM     32  H   UNL     1     123.074  -9.610 167.925  1.00  0.00     0.158 HD
ATOM     33  H   UNL     1     122.528 -10.928 166.970  1.00  0.00     0.158 HD
ENDBRANCH  26  28
ENDBRANCH   1  18
TORSDOF 4
ENDMDL
MODEL 3
REMARK minimizedAffinity -8.78464031
REMARK CNNscore 0.309116721
REMARK CNNaffinity 6.28166437
REMARK SMILES N=C(N)c1ccc2nc(Cc3nc4ccc(C(=N)N)cc4[nH]3)[nH]c2c1
REMARK SMILES IDX 10 1 9 2 4 3 5 4 25 5 6 6 24 7 7 8 23 9 8 10 2 12 1 13 3 14
REMARK SMILES IDX 11 18 12 19 22 20 13 21 21 22 14 23 20 24 15 25 16 26 17 28
REMARK SMILES IDX 18 29 19 30
REMARK H PARENT 23 11 1 15 3 16 3 17 22 27 18 31 19 32 19 33
ROOT
ATOM      1  C   UNL     1     130.227 -14.827 161.735  1.00  0.00     0.150 C 
ENDROOT
BRANCH   1   2
ATOM      2  C   UNL     1     128.957 -14.287 162.304  1.00  0.00     0.114 A 
ATOM      3  C   UNL     1     125.174 -13.366 164.631  1.00  0.00     0.018 A 
ATOM      4  C   UNL     1     125.144 -12.323 163.696  1.00  0.00     0.014 A 
ATOM      5  C   UNL     1     126.206 -14.319 164.634  1.00  0.00     0.040 A 
ATOM      6  C   UNL     1     126.151 -12.202 162.728  1.00  0.00     0.031 A 
ATOM      7  C   UNL     1     127.195 -14.168 163.658  1.00  0.00     0.066 A 
ATOM      8  C   UNL     1     127.193 -13.143 162.718  1.00  0.00     0.089 A 
ATOM      9  N   UNL     1     128.328 -14.883 163.374  1.00  0.00    -0.342 N 
ATOM     10  N   UNL     1     128.283 -13.232 161.889  1.00  0.00    -0.233 NA
ATOM     11  H   UNL     1     128.685 -15.688 163.875  1.00  0.00     0.168 HD
BRANCH   3  12
ATOM     12  C   UNL     1     124.096 -13.460 165.651  1.00  0.00     0.122 C 
ATOM     13  N   UNL     1     123.380 -14.529 165.799  1.00  0.00    -0.284 NA
ATOM     14  N   UNL     1     123.837 -12.412 166.470  1.00  0.00    -0.384 N 
ATOM     15  H   UNL     1     123.634 -15.238 165.107  1.00  0.00     0.189 HD
ATOM     16  H   UNL     1     124.402 -11.576 166.500  1.00  0.00     0.158 HD
ATOM     17  H   UNL     1     123.105 -12.534 167.158  1.00  0.00     0.158 HD
ENDBRANCH   3  12
ENDBRANCH   1   2
BRANCH   1  18
ATOM     18  C   UNL     1     131.029 -15.559 162.762  1.00  0.00     0.114 A 
ATOM     19  N   UNL     1     130.709 -16.706 163.333  1.00  0.00    -0.233 NA
ATOM     20  N   UNL     1     132.211 -15.070 163.263  1.00  0.00    -0.342 N 
ATOM     21  C   UNL     1     131.729 -16.973 164.214  1.00  0.00     0.089 A 
ATOM     22  C   UNL     1     132.679 -15.961 164.193  1.00  0.00     0.066 A 
ATOM     23  C   UNL     1     131.911 -18.067 165.071  1.00  0.00     0.031 A 
ATOM     24  C   UNL     1     133.824 -15.967 164.995  1.00  0.00     0.040 A 
ATOM     25  C   UNL     1     133.053 -18.103 165.888  1.00  0.00     0.014 A 
ATOM     26  C   UNL     1     133.994 -17.063 165.860  1.00  0.00     0.018 A 
ATOM     27  H   UNL     1     132.655 -14.201 163.001  1.00  0.00     0.168 HD
BRANCH  26  28
ATOM     28  C   UNL     1     135.208 -17.099 166.734  1.00  0.00     0.122 C 
ATOM     29  N   UNL     1     135.068 -17.322 168.001  1.00  0.00    -0.284 NA
ATOM     30  N   UNL     1     136.453 -16.912 166.221  1.00  0.00    -0.384 N 
ATOM     31  H   UNL     1     135.983 -17.314 168.454  1.00  0.00     0.189 HD
ATOM     32  H   UNL     1     137.271 -16.934 166.813  1.00  0.00     0.158 HD
ATOM     33  H   UNL     1     136.620 -16.859 165.226  1.00  0.00     0.158 HD
ENDBRANCH  26  28
ENDBRANCH   1  18
TORSDOF 4
ENDMDL
MODEL 4
REMARK minimizedAffinity -8.78467369
REMARK CNNscore 0.255344898
REMARK CNNaffinity 6.20375443
REMARK SMILES N=C(N)c1ccc2nc(Cc3nc4ccc(C(=N)N)cc4[nH]3)[nH]c2c1
REMARK SMILES IDX 10 1 9 2 4 3 5 4 25 5 6 6 24 7 7 8 23 9 8 10 2 12 1 13 3 14
REMARK SMILES IDX 11 18 12 19 22 20 13 21 21 22 14 23 20 24 15 25 16 26 17 28
REMARK SMILES IDX 18 29 19 30
REMARK H PARENT 23 11 1 15 3 16 3 17 22 27 18 31 19 32 19 33
ROOT
ATOM      1  C   UNL     1     129.885 -15.156 161.692  1.00  0.00     0.150 C 
ENDROOT
BRANCH   1   2
ATOM      2  C   UNL     1     130.792 -15.741 162.722  1.00  0.00     0.114 A 
ATOM      3  C   UNL     1     134.011 -16.707 165.769  1.00  0.00     0.018 A 
ATOM      4  C   UNL     1     133.257 -17.886 165.830  1.00  0.00     0.014 A 
ATOM      5  C   UNL     1     133.659 -15.655 164.907  1.00  0.00     0.040 A 
ATOM      6  C   UNL     1     132.123 -18.051 165.023  1.00  0.00     0.031 A 
ATOM      7  C   UNL     1     132.521 -15.851 164.120  1.00  0.00     0.066 A 
ATOM      8  C   UNL     1     131.752 -17.009 164.159  1.00  0.00     0.089 A 
ATOM      9  N   UNL     1     131.889 -15.058 163.198  1.00  0.00    -0.342 N 
ATOM     10  N   UNL     1     130.694 -16.927 163.289  1.00  0.00    -0.233 NA
ATOM     11  H   UNL     1     132.140 -14.115 162.928  1.00  0.00     0.168 HD
BRANCH   3  12
ATOM     12  C   UNL     1     135.204 -16.559 166.645  1.00  0.00     0.122 C 
ATOM     13  N   UNL     1     135.134 -16.687 167.932  1.00  0.00    -0.284 NA
ATOM     14  N   UNL     1     136.417 -16.286 166.106  1.00  0.00    -0.384 N 
ATOM     15  H   UNL     1     134.169 -16.852 168.230  1.00  0.00     0.189 HD
ATOM     16  H   UNL     1     136.593 -16.265 165.113  1.00  0.00     0.158 HD
ATOM     17  H   UNL     1     137.199 -16.212 166.745  1.00  0.00     0.158 HD
ENDBRANCH   3  12
ENDBRANCH   1   2
BRANCH   1  18
ATOM     18  C   UNL     1     128.676 -14.528 162.307  1.00  0.00     0.114 A 
ATOM     19  N   UNL     1     128.092 -13.409 161.918  1.00  0.00    -0.233 NA
ATOM     20  N   UNL     1     128.051 -15.054 163.410  1.00  0.00    -0.342 N 
ATOM     21  C   UNL     1     127.044 -13.222 162.787  1.00  0.00     0.089 A 
ATOM     22  C   UNL     1     127.000 -14.237 163.734  1.00  0.00     0.066 A 
ATOM     23  C   UNL     1     126.083 -12.203 162.829  1.00  0.00     0.031 A 
ATOM     24  C   UNL     1     126.039 -14.297 164.747  1.00  0.00     0.040 A 
ATOM     25  C   UNL     1     125.104 -12.238 163.834  1.00  0.00     0.014 A 
ATOM     26  C   UNL     1     125.085 -13.265 164.788  1.00  0.00     0.018 A 
ATOM     27  H   UNL     1     128.321 -15.893 163.905  1.00  0.00     0.168 HD
BRANCH  26  28
ATOM     28  C   UNL     1     124.044 -13.300 165.864  1.00  0.00     0.122 C 
ATOM     29  N   UNL     1     123.905 -12.275 166.641  1.00  0.00    -0.284 NA
ATOM     30  N   UNL     1     123.238 -14.382 166.031  1.00  0.00    -0.384 N 
ATOM     31  H   UNL     1     123.160 -12.455 167.316  1.00  0.00     0.189 HD
ATOM     32  H   UNL     1     122.538 -14.404 166.759  1.00  0.00     0.158 HD
ATOM     33  H   UNL     1     123.227 -15.148 165.373  1.00  0.00     0.158 HD
ENDBRANCH  26  28
ENDBRANCH   1  18
TORSDOF 4
ENDMDL
MODEL 5
REMARK minimizedAffinity -7.81472731
REMARK CNNscore 0.223835379
REMARK CNNaffinity 5.87886047
REMARK SMILES N=C(N)c1ccc2nc(Cc3nc4ccc(C(=N)N)cc4[nH]3)[nH]c2c1
REMARK SMILES IDX 10 1 9 2 4 3 5 4 25 5 6 6 24 7 7 8 23 9 8 10 2 12 1 13 3 14
REMARK SMILES IDX 11 18 12 19 22 20 13 21 21 22 14 23 20 24 15 25 16 26 17 28
REMARK SMILES IDX 18 29 19 30
REMARK H PARENT 23 11 1 15 3 16 3 17 22 27 18 31 19 32 19 33
ROOT
ATOM      1  C   UNL     1     128.131 -16.195 160.521  1.00  0.00     0.150 C 
ENDROOT
BRANCH   1   2
ATOM      2  C   UNL     1     127.797 -17.625 160.790  1.00  0.00     0.114 A 
ATOM      3  C   UNL     1     126.418 -21.633 162.404  1.00  0.00     0.018 A 
ATOM      4  C   UNL     1     126.985 -22.042 161.190  1.00  0.00     0.014 A 
ATOM      5  C   UNL     1     126.411 -20.283 162.792  1.00  0.00     0.040 A 
ATOM      6  C   UNL     1     127.567 -21.107 160.323  1.00  0.00     0.031 A 
ATOM      7  C   UNL     1     126.996 -19.377 161.903  1.00  0.00     0.066 A 
ATOM      8  C   UNL     1     127.565 -19.753 160.691  1.00  0.00     0.089 A 
ATOM      9  N   UNL     1     127.156 -18.017 161.943  1.00  0.00    -0.342 N 
ATOM     10  N   UNL     1     128.057 -18.662 160.019  1.00  0.00    -0.233 NA
ATOM     11  H   UNL     1     126.830 -17.384 162.663  1.00  0.00     0.168 HD
BRANCH   3  12
ATOM     12  C   UNL     1     125.800 -22.648 163.298  1.00  0.00     0.122 C 
ATOM     13  N   UNL     1     126.459 -23.214 164.258  1.00  0.00    -0.284 NA
ATOM     14  N   UNL     1     124.504 -23.008 163.129  1.00  0.00    -0.384 N 
ATOM     15  H   UNL     1     127.433 -22.898 164.269  1.00  0.00     0.189 HD
ATOM     16  H   UNL     1     123.881 -22.556 162.476  1.00  0.00     0.158 HD
ATOM     17  H   UNL     1     124.128 -23.690 163.775  1.00  0.00     0.158 HD
ENDBRANCH   3  12
ENDBRANCH   1   2
BRANCH   1  18
ATOM     18  C   UNL     1     127.522 -15.281 161.535  1.00  0.00     0.114 A 
ATOM     19  N   UNL     1     127.864 -14.026 161.763  1.00  0.00    -0.233 NA
ATOM     20  N   UNL     1     126.531 -15.687 162.395  1.00  0.00    -0.342 N 
ATOM     21  C   UNL     1     127.052 -13.606 162.788  1.00  0.00     0.089 A 
ATOM     22  C   UNL     1     126.211 -14.630 163.205  1.00  0.00     0.066 A 
ATOM     23  C   UNL     1     126.975 -12.356 163.418  1.00  0.00     0.031 A 
ATOM     24  C   UNL     1     125.282 -14.485 164.239  1.00  0.00     0.040 A 
ATOM     25  C   UNL     1     126.050 -12.180 164.459  1.00  0.00     0.014 A 
ATOM     26  C   UNL     1     125.219 -13.231 164.872  1.00  0.00     0.018 A 
ATOM     27  H   UNL     1     126.115 -16.607 162.432  1.00  0.00     0.168 HD
BRANCH  26  28
ATOM     28  C   UNL     1     124.235 -13.045 165.986  1.00  0.00     0.122 C 
ATOM     29  N   UNL     1     123.494 -14.042 166.346  1.00  0.00    -0.284 NA
ATOM     30  N   UNL     1     124.116 -11.854 166.630  1.00  0.00    -0.384 N 
ATOM     31  H   UNL     1     122.881 -13.755 167.111  1.00  0.00     0.189 HD
ATOM     32  H   UNL     1     123.450 -11.730 167.380  1.00  0.00     0.158 HD
ATOM     33  H   UNL     1     124.757 -11.091 166.468  1.00  0.00     0.158 HD
ENDBRANCH  26  28
ENDBRANCH   1  18
TORSDOF 4
ENDMDL
MODEL 6
REMARK minimizedAffinity -7.10091162
REMARK CNNscore 0.201764986
REMARK CNNaffinity 5.7940712
REMARK SMILES N=C(N)c1ccc2nc(Cc3nc4ccc(C(=N)N)cc4[nH]3)[nH]c2c1
REMARK SMILES IDX 10 1 9 2 4 3 5 4 25 5 6 6 24 7 7 8 23 9 8 10 2 12 1 13 3 14
REMARK SMILES IDX 11 18 12 19 22 20 13 21 21 22 14 23 20 24 15 25 16 26 17 28
REMARK SMILES IDX 18 29 19 30
REMARK H PARENT 23 11 1 15 3 16 3 17 22 27 18 31 19 32 19 33
ROOT
ATOM      1  C   UNL     1     131.066 -14.739 162.384  1.00  0.00     0.150 C 
ENDROOT
BRANCH   1   2
ATOM      2  C   UNL     1     131.442 -15.964 163.149  1.00  0.00     0.114 A 
ATOM      3  C   UNL     1     131.769 -19.543 165.917  1.00  0.00     0.018 A 
ATOM      4  C   UNL     1     132.965 -19.679 165.202  1.00  0.00     0.014 A 
ATOM      5  C   UNL     1     130.876 -18.489 165.661  1.00  0.00     0.040 A 
ATOM      6  C   UNL     1     133.309 -18.757 164.203  1.00  0.00     0.031 A 
ATOM      7  C   UNL     1     131.248 -17.590 164.657  1.00  0.00     0.066 A 
ATOM      8  C   UNL     1     132.428 -17.699 163.930  1.00  0.00     0.089 A 
ATOM      9  N   UNL     1     130.637 -16.477 164.142  1.00  0.00    -0.342 N 
ATOM     10  N   UNL     1     132.534 -16.688 163.007  1.00  0.00    -0.233 NA
ATOM     11  H   UNL     1     129.732 -16.102 164.398  1.00  0.00     0.168 HD
BRANCH   3  12
ATOM     12  C   UNL     1     131.428 -20.543 166.963  1.00  0.00     0.122 C 
ATOM     13  N   UNL     1     131.624 -21.812 166.793  1.00  0.00    -0.284 NA
ATOM     14  N   UNL     1     130.898 -20.143 168.145  1.00  0.00    -0.384 N 
ATOM     15  H   UNL     1     131.989 -22.003 165.856  1.00  0.00     0.189 HD
ATOM     16  H   UNL     1     130.799 -19.174 168.411  1.00  0.00     0.158 HD
ATOM     17  H   UNL     1     130.700 -20.862 168.828  1.00  0.00     0.158 HD
ENDBRANCH   3  12
ENDBRANCH   1   2
BRANCH   1  18
ATOM     18  C   UNL     1     129.688 -14.270 162.726  1.00  0.00     0.114 A 
ATOM     19  N   UNL     1     129.071 -13.219 162.219  1.00  0.00    -0.233 NA
ATOM     20  N   UNL     1     128.911 -14.890 163.673  1.00  0.00    -0.342 N 
ATOM     21  C   UNL     1     127.848 -13.175 162.844  1.00  0.00     0.089 A 
ATOM     22  C   UNL     1     127.726 -14.209 163.764  1.00  0.00     0.066 A 
ATOM     23  C   UNL     1     126.786 -12.276 162.678  1.00  0.00     0.031 A 
ATOM     24  C   UNL     1     126.587 -14.403 164.550  1.00  0.00     0.040 A 
ATOM     25  C   UNL     1     125.628 -12.447 163.452  1.00  0.00     0.014 A 
ATOM     26  C   UNL     1     125.530 -13.491 164.384  1.00  0.00     0.018 A 
ATOM     27  H   UNL     1     129.168 -15.703 164.216  1.00  0.00     0.168 HD
BRANCH  26  28
ATOM     28  C   UNL     1     124.297 -13.671 165.213  1.00  0.00     0.122 C 
ATOM     29  N   UNL     1     123.573 -14.731 165.047  1.00  0.00    -0.284 NA
ATOM     30  N   UNL     1     123.932 -12.750 166.144  1.00  0.00    -0.384 N 
ATOM     31  H   UNL     1     122.774 -14.704 165.683  1.00  0.00     0.189 HD
ATOM     32  H   UNL     1     123.098 -12.872 166.701  1.00  0.00     0.158 HD
ATOM     33  H   UNL     1     124.529 -11.975 166.393  1.00  0.00     0.158 HD
ENDBRANCH  26  28
ENDBRANCH   1  18
TORSDOF 4
ENDMDL
MODEL 7
REMARK minimizedAffinity -8.05351162
REMARK CNNscore 0.147776082
REMARK CNNaffinity 5.23979616
REMARK SMILES N=C(N)c1ccc2nc(Cc3nc4ccc(C(=N)N)cc4[nH]3)[nH]c2c1
REMARK SMILES IDX 10 1 9 2 4 3 5 4 25 5 6 6 24 7 7 8 23 9 8 10 2 12 1 13 3 14
REMARK SMILES IDX 11 18 12 19 22 20 13 21 21 22 14 23 20 24 15 25 16 26 17 28
REMARK SMILES IDX 18 29 19 30
REMARK H PARENT 23 11 1 15 3 16 3 17 22 27 18 31 19 32 19 33
ROOT
ATOM      1  C   UNL     1     127.776 -15.157 161.355  1.00  0.00     0.150 C 
ENDROOT
BRANCH   1   2
ATOM      2  C   UNL     1     128.288 -16.512 161.715  1.00  0.00     0.114 A 
ATOM      3  C   UNL     1     129.285 -20.920 162.111  1.00  0.00     0.018 A 
ATOM      4  C   UNL     1     130.092 -20.396 163.129  1.00  0.00     0.014 A 
ATOM      5  C   UNL     1     128.470 -20.092 161.322  1.00  0.00     0.040 A 
ATOM      6  C   UNL     1     130.106 -19.019 163.392  1.00  0.00     0.031 A 
ATOM      7  C   UNL     1     128.510 -18.724 161.608  1.00  0.00     0.066 A 
ATOM      8  C   UNL     1     129.302 -18.175 162.611  1.00  0.00     0.089 A 
ATOM      9  N   UNL     1     127.874 -17.646 161.051  1.00  0.00    -0.342 N 
ATOM     10  N   UNL     1     129.151 -16.812 162.666  1.00  0.00    -0.233 NA
ATOM     11  H   UNL     1     127.241 -17.650 160.261  1.00  0.00     0.168 HD
BRANCH   3  12
ATOM     12  C   UNL     1     129.300 -22.384 161.851  1.00  0.00     0.122 C 
ATOM     13  N   UNL     1     128.884 -23.243 162.726  1.00  0.00    -0.284 NA
ATOM     14  N   UNL     1     129.752 -22.862 160.666  1.00  0.00    -0.384 N 
ATOM     15  H   UNL     1     128.603 -22.776 163.592  1.00  0.00     0.189 HD
ATOM     16  H   UNL     1     130.004 -22.273 159.887  1.00  0.00     0.158 HD
ATOM     17  H   UNL     1     129.726 -23.865 160.534  1.00  0.00     0.158 HD
ENDBRANCH   3  12
ENDBRANCH   1   2
BRANCH   1  18
ATOM     18  C   UNL     1     127.001 -14.541 162.474  1.00  0.00     0.114 A 
ATOM     19  N   UNL     1     125.996 -15.094 163.128  1.00  0.00    -0.233 NA
ATOM     20  N   UNL     1     127.241 -13.265 162.924  1.00  0.00    -0.342 N 
ATOM     21  C   UNL     1     125.592 -14.153 164.044  1.00  0.00     0.089 A 
ATOM     22  C   UNL     1     126.353 -12.996 163.932  1.00  0.00     0.066 A 
ATOM     23  C   UNL     1     124.576 -14.215 165.007  1.00  0.00     0.031 A 
ATOM     24  C   UNL     1     126.156 -11.870 164.736  1.00  0.00     0.040 A 
ATOM     25  C   UNL     1     124.356 -13.099 165.831  1.00  0.00     0.014 A 
ATOM     26  C   UNL     1     125.128 -11.937 165.693  1.00  0.00     0.018 A 
ATOM     27  H   UNL     1     127.943 -12.631 162.570  1.00  0.00     0.168 HD
BRANCH  26  28
ATOM     28  C   UNL     1     124.891 -10.745 166.567  1.00  0.00     0.122 C 
ATOM     29  N   UNL     1     125.882  -9.964 166.853  1.00  0.00    -0.284 NA
ATOM     30  N   UNL     1     123.654 -10.463 167.055  1.00  0.00    -0.384 N 
ATOM     31  H   UNL     1     125.558  -9.205 167.454  1.00  0.00     0.189 HD
ATOM     32  H   UNL     1     123.496  -9.659 167.646  1.00  0.00     0.158 HD
ATOM     33  H   UNL     1     122.832 -10.970 166.758  1.00  0.00     0.158 HD
ENDBRANCH  26  28
ENDBRANCH   1  18
TORSDOF 4
ENDMDL
MODEL 8
REMARK minimizedAffinity -7.46075964
REMARK CNNscore 0.137279063
REMARK CNNaffinity 4.92099142
REMARK SMILES N=C(N)c1ccc2nc(Cc3nc4ccc(C(=N)N)cc4[nH]3)[nH]c2c1
REMARK SMILES IDX 10 1 9 2 4 3 5 4 25 5 6 6 24 7 7 8 23 9 8 10 2 12 1 13 3 14
REMARK SMILES IDX 11 18 12 19 22 20 13 21 21 22 14 23 20 24 15 25 16 26 17 28
REMARK SMILES IDX 18 29 19 30
REMARK H PARENT 23 11 1 15 3 16 3 17 22 27 18 31 19 32 19 33
ROOT
ATOM      1  C   UNL     1     134.091 -17.008 166.993  1.00  0.00     0.150 C 
ENDROOT
BRANCH   1   2
ATOM      2  C   UNL     1     133.461 -16.395 165.786  1.00  0.00     0.114 A 
ATOM      3  C   UNL     1     130.784 -14.483 162.663  1.00  0.00     0.018 A 
ATOM      4  C   UNL     1     131.971 -14.598 161.928  1.00  0.00     0.014 A 
ATOM      5  C   UNL     1     130.700 -14.923 163.995  1.00  0.00     0.040 A 
ATOM      6  C   UNL     1     133.117 -15.162 162.506  1.00  0.00     0.031 A 
ATOM      7  C   UNL     1     131.862 -15.477 164.541  1.00  0.00     0.066 A 
ATOM      8  C   UNL     1     133.054 -15.604 163.836  1.00  0.00     0.089 A 
ATOM      9  N   UNL     1     132.146 -15.988 165.780  1.00  0.00    -0.342 N 
ATOM     10  N   UNL     1     134.029 -16.175 164.617  1.00  0.00    -0.233 NA
ATOM     11  H   UNL     1     131.528 -16.030 166.581  1.00  0.00     0.168 HD
BRANCH   3  12
ATOM     12  C   UNL     1     129.589 -13.870 162.026  1.00  0.00     0.122 C 
ATOM     13  N   UNL     1     129.359 -13.969 160.755  1.00  0.00    -0.284 NA
ATOM     14  N   UNL     1     128.690 -13.185 162.774  1.00  0.00    -0.384 N 
ATOM     15  H   UNL     1     130.117 -14.471 160.284  1.00  0.00     0.189 HD
ATOM     16  H   UNL     1     128.728 -13.136 163.782  1.00  0.00     0.158 HD
ATOM     17  H   UNL     1     127.886 -12.802 162.293  1.00  0.00     0.158 HD
ENDBRANCH   3  12
ENDBRANCH   1   2
BRANCH   1  18
ATOM     18  C   UNL     1     133.405 -18.272 167.398  1.00  0.00     0.114 A 
ATOM     19  N   UNL     1     133.980 -19.347 167.905  1.00  0.00    -0.233 NA
ATOM     20  N   UNL     1     132.054 -18.463 167.238  1.00  0.00    -0.342 N 
ATOM     21  C   UNL     1     132.962 -20.250 168.097  1.00  0.00     0.089 A 
ATOM     22  C   UNL     1     131.747 -19.722 167.682  1.00  0.00     0.066 A 
ATOM     23  C   UNL     1     133.002 -21.548 168.625  1.00  0.00     0.031 A 
ATOM     24  C   UNL     1     130.541 -20.425 167.756  1.00  0.00     0.040 A 
ATOM     25  C   UNL     1     131.806 -22.279 168.713  1.00  0.00     0.014 A 
ATOM     26  C   UNL     1     130.591 -21.730 168.276  1.00  0.00     0.018 A 
ATOM     27  H   UNL     1     131.400 -17.797 166.851  1.00  0.00     0.168 HD
BRANCH  26  28
ATOM     28  C   UNL     1     129.317 -22.510 168.365  1.00  0.00     0.122 C 
ATOM     29  N   UNL     1     128.833 -23.053 167.295  1.00  0.00    -0.284 NA
ATOM     30  N   UNL     1     128.667 -22.668 169.549  1.00  0.00    -0.384 N 
ATOM     31  H   UNL     1     127.967 -23.546 167.521  1.00  0.00     0.189 HD
ATOM     32  H   UNL     1     127.806 -23.193 169.606  1.00  0.00     0.158 HD
ATOM     33  H   UNL     1     129.071 -22.370 170.425  1.00  0.00     0.158 HD
ENDBRANCH  26  28
ENDBRANCH   1  18
TORSDOF 4
ENDMDL
MODEL 9
REMARK minimizedAffinity -8.13267422
REMARK CNNscore 0.137267098
REMARK CNNaffinity 5.39110899
REMARK SMILES N=C(N)c1ccc2nc(Cc3nc4ccc(C(=N)N)cc4[nH]3)[nH]c2c1
REMARK SMILES IDX 10 1 9 2 4 3 5 4 25 5 6 6 24 7 7 8 23 9 8 10 2 12 1 13 3 14
REMARK SMILES IDX 11 18 12 19 22 20 13 21 21 22 14 23 20 24 15 25 16 26 17 28
REMARK SMILES IDX 18 29 19 30
REMARK H PARENT 23 11 1 15 3 16 3 17 22 27 18 31 19 32 19 33
ROOT
ATOM      1  C   UNL     1     132.023 -15.855 162.988  1.00  0.00     0.150 C 
ENDROOT
BRANCH   1   2
ATOM      2  C   UNL     1     130.545 -15.672 163.080  1.00  0.00     0.114 A 
ATOM      3  C   UNL     1     126.275 -14.257 163.669  1.00  0.00     0.018 A 
ATOM      4  C   UNL     1     126.039 -15.555 163.198  1.00  0.00     0.014 A 
ATOM      5  C   UNL     1     127.580 -13.763 163.833  1.00  0.00     0.040 A 
ATOM      6  C   UNL     1     127.106 -16.405 162.878  1.00  0.00     0.031 A 
ATOM      7  C   UNL     1     128.621 -14.635 163.501  1.00  0.00     0.066 A 
ATOM      8  C   UNL     1     128.417 -15.928 163.031  1.00  0.00     0.089 A 
ATOM      9  N   UNL     1     129.984 -14.495 163.524  1.00  0.00    -0.342 N 
ATOM     10  N   UNL     1     129.612 -16.555 162.780  1.00  0.00    -0.233 NA
ATOM     11  H   UNL     1     130.510 -13.668 163.776  1.00  0.00     0.168 HD
BRANCH   3  12
ATOM     12  C   UNL     1     125.121 -13.377 163.990  1.00  0.00     0.122 C 
ATOM     13  N   UNL     1     124.924 -12.250 163.382  1.00  0.00    -0.284 NA
ATOM     14  N   UNL     1     124.227 -13.742 164.941  1.00  0.00    -0.384 N 
ATOM     15  H   UNL     1     125.676 -12.058 162.715  1.00  0.00     0.189 HD
ATOM     16  H   UNL     1     124.238 -14.641 165.399  1.00  0.00     0.158 HD
ATOM     17  H   UNL     1     123.451 -13.114 165.109  1.00  0.00     0.158 HD
ENDBRANCH   3  12
ENDBRANCH   1   2
BRANCH   1  18
ATOM     18  C   UNL     1     132.626 -16.194 164.313  1.00  0.00     0.114 A 
ATOM     19  N   UNL     1     132.663 -15.415 165.378  1.00  0.00    -0.233 NA
ATOM     20  N   UNL     1     133.263 -17.387 164.552  1.00  0.00    -0.342 N 
ATOM     21  C   UNL     1     133.327 -16.139 166.339  1.00  0.00     0.089 A 
ATOM     22  C   UNL     1     133.718 -17.376 165.844  1.00  0.00     0.066 A 
ATOM     23  C   UNL     1     133.635 -15.802 167.664  1.00  0.00     0.031 A 
ATOM     24  C   UNL     1     134.419 -18.317 166.602  1.00  0.00     0.040 A 
ATOM     25  C   UNL     1     134.337 -16.728 168.452  1.00  0.00     0.014 A 
ATOM     26  C   UNL     1     134.733 -17.967 167.928  1.00  0.00     0.018 A 
ATOM     27  H   UNL     1     133.386 -18.140 163.889  1.00  0.00     0.168 HD
BRANCH  26  28
ATOM     28  C   UNL     1     135.485 -18.954 168.765  1.00  0.00     0.122 C 
ATOM     29  N   UNL     1     135.732 -20.131 168.286  1.00  0.00    -0.284 NA
ATOM     30  N   UNL     1     135.923 -18.633 170.011  1.00  0.00    -0.384 N 
ATOM     31  H   UNL     1     136.248 -20.680 168.975  1.00  0.00     0.189 HD
ATOM     32  H   UNL     1     136.428 -19.301 170.576  1.00  0.00     0.158 HD
ATOM     33  H   UNL     1     135.863 -17.693 170.374  1.00  0.00     0.158 HD
ENDBRANCH  26  28
ENDBRANCH   1  18
TORSDOF 4
ENDMDL
