MODEL 8
REMARK VINA RESULT:    -6.902      5.204      7.833
REMARK INTER + INTRA:          -8.644
REMARK INTER:                  -7.897
REMARK INTRA:                  -0.747
REMARK UNBOUND:                -0.330
REMARK SMILES CC1(C)C(=O)N([C@H]2CCc3c(O)cccc32)c2nc(Nc3ccccc3)ncc21
REMARK SMILES IDX 1 1 2 2 3 3 4 4 5 5 6 6 17 7 18 8 19 9 27 10 28 11 29 12
REMARK SMILES IDX 7 13 8 14 16 15 9 16 15 17 10 18 14 19 11 20 13 21 12 22
REMARK SMILES IDX 20 24 21 26 22 27 26 28 23 29 25 30 24 31
REMARK H PARENT 12 23 20 25
ROOT
ATOM      1  C   UNL     1      -3.105  35.016 -27.482  1.00  0.00     0.027 C 
ATOM      2  C   UNL     1      -2.877  33.533 -27.195  1.00  0.00     0.074 C 
ATOM      3  C   UNL     1      -3.214  33.181 -25.747  1.00  0.00     0.027 C 
ATOM      4  C   UNL     1      -1.405  33.162 -27.494  1.00  0.00     0.239 C 
ATOM      5  O   UNL     1      -0.440  33.628 -26.908  1.00  0.00    -0.273 OA
ATOM      6  N   UNL     1      -1.411  32.240 -28.541  1.00  0.00    -0.288 N 
ATOM      7  C   UNL     1      -2.721  31.928 -28.919  1.00  0.00     0.145 A 
ATOM      8  N   UNL     1      -3.070  31.048 -29.859  1.00  0.00    -0.195 NA
ATOM      9  C   UNL     1      -4.393  30.905 -30.057  1.00  0.00     0.229 A 
ATOM     10  N   UNL     1      -5.328  31.588 -29.363  1.00  0.00    -0.221 NA
ATOM     11  C   UNL     1      -4.921  32.460 -28.423  1.00  0.00     0.123 A 
ATOM     12  C   UNL     1      -3.602  32.661 -28.167  1.00  0.00     0.029 A 
ENDROOT
BRANCH   6  13
ATOM     13  C   UNL     1      -0.276  31.515 -29.085  1.00  0.00     0.123 C 
ATOM     14  C   UNL     1       0.742  32.367 -29.875  1.00  0.00     0.035 C 
ATOM     15  C   UNL     1       0.593  30.904 -28.019  1.00  0.00    -0.018 A 
ATOM     16  C   UNL     1       1.948  32.636 -28.959  1.00  0.00     0.042 C 
ATOM     17  C   UNL     1       0.275  29.863 -27.157  1.00  0.00     0.006 A 
ATOM     18  C   UNL     1       1.847  31.520 -27.968  1.00  0.00    -0.001 A 
ATOM     19  C   UNL     1       1.234  29.447 -26.231  1.00  0.00     0.004 A 
ATOM     20  C   UNL     1       2.793  31.113 -27.046  1.00  0.00     0.119 A 
ATOM     21  C   UNL     1       2.491  30.069 -26.173  1.00  0.00     0.046 A 
BRANCH  20  22
ATOM     22  O   UNL     1       3.999  31.742 -27.014  1.00  0.00    -0.508 OA
ATOM     23  H   UNL     1       4.280  31.917 -27.926  1.00  0.00     0.293 HD
ENDBRANCH  20  22
ENDBRANCH   6  13
BRANCH   9  24
ATOM     24  N   UNL     1      -4.734  29.984 -31.043  1.00  0.00    -0.324 N 
ATOM     25  H   UNL     1      -4.986  30.480 -31.884  1.00  0.00     0.170 HD
BRANCH  24  26
ATOM     26  C   UNL     1      -4.810  28.588 -31.091  1.00  0.00     0.041 A 
ATOM     27  C   UNL     1      -5.537  27.992 -32.137  1.00  0.00     0.026 A 
ATOM     28  C   UNL     1      -4.203  27.737 -30.161  1.00  0.00     0.026 A 
ATOM     29  C   UNL     1      -5.653  26.603 -32.248  1.00  0.00     0.002 A 
ATOM     30  C   UNL     1      -4.316  26.346 -30.267  1.00  0.00     0.002 A 
ATOM     31  C   UNL     1      -5.042  25.779 -31.311  1.00  0.00     0.000 A 
ENDBRANCH  24  26
ENDBRANCH   9  24
TORSDOF 4
ENDMDL
