MODEL 8
REMARK VINA RESULT:    -7.604      6.116     10.473
REMARK INTER + INTRA:         -13.746
REMARK INTER:                 -11.791
REMARK INTRA:                  -1.955
REMARK UNBOUND:                -1.030
REMARK SMILES CCO[C@@H](Cc1ccc(OCCc2nc(-c3ccc(-c4ccccc4)s3)oc2C)cc1)C(=O)O
REMARK SMILES IDX 6 1 7 2 8 3 9 4 30 5 31 6 5 7 4 8 3 9 2 10 1 11 32 12 33 13
REMARK SMILES IDX 34 14 10 16 11 17 12 18 13 19 14 20 28 21 15 22 27 23 29 24
REMARK SMILES IDX 16 25 17 26 26 27 18 28 19 29 20 30 21 31 25 32 22 33 24 34
REMARK SMILES IDX 23 35
REMARK H PARENT 34 15
ROOT
ATOM      1  C   UNL     1     -11.903  -6.225 -31.044  1.00  0.00    -0.045 A 
ATOM      2  C   UNL     1     -11.157  -5.316 -30.286  1.00  0.00     0.007 A 
ATOM      3  C   UNL     1     -11.801  -4.357 -29.501  1.00  0.00     0.047 A 
ATOM      4  C   UNL     1     -13.195  -4.290 -29.458  1.00  0.00     0.119 A 
ATOM      5  C   UNL     1     -13.943  -5.195 -30.209  1.00  0.00     0.047 A 
ATOM      6  C   UNL     1     -13.301  -6.159 -30.995  1.00  0.00     0.007 A 
ENDROOT
BRANCH   1   7
ATOM      7  C   UNL     1     -11.211  -7.281 -31.879  1.00  0.00     0.079 C 
BRANCH   7   8
ATOM      8  C   UNL     1     -10.488  -8.323 -31.011  1.00  0.00     0.231 C 
BRANCH   8   9
ATOM      9  O   UNL     1      -9.302  -8.730 -31.701  1.00  0.00    -0.366 OA
BRANCH   9  10
ATOM     10  C   UNL     1      -8.174  -7.917 -31.386  1.00  0.00     0.158 C 
ATOM     11  C   UNL     1      -7.025  -8.331 -32.284  1.00  0.00     0.035 C 
ENDBRANCH   9  10
ENDBRANCH   8   9
BRANCH   8  12
ATOM     12  C   UNL     1     -11.481  -9.455 -30.723  1.00  0.00     0.333 C 
ATOM     13  O   UNL     1     -12.196  -9.540 -29.736  1.00  0.00    -0.249 OA
BRANCH  12  14
ATOM     14  O   UNL     1     -11.539 -10.412 -31.672  1.00  0.00    -0.479 OA
ATOM     15  H   UNL     1     -10.603 -10.617 -31.870  1.00  0.00     0.296 HD
ENDBRANCH  12  14
ENDBRANCH   8  12
ENDBRANCH   7   8
ENDBRANCH   1   7
BRANCH   4  16
ATOM     16  O   UNL     1     -13.694  -3.307 -28.649  1.00  0.00    -0.493 OA
BRANCH  16  17
ATOM     17  C   UNL     1     -14.722  -3.678 -27.726  1.00  0.00     0.236 C 
BRANCH  17  18
ATOM     18  C   UNL     1     -14.115  -3.763 -26.326  1.00  0.00     0.101 C 
BRANCH  18  19
ATOM     19  C   UNL     1     -13.570  -5.115 -26.025  1.00  0.00     0.086 A 
ATOM     20  N   UNL     1     -12.277  -5.442 -26.364  1.00  0.00    -0.213 NA
ATOM     21  C   UNL     1     -14.171  -6.196 -25.421  1.00  0.00     0.125 A 
ATOM     22  C   UNL     1     -12.124  -6.695 -25.965  1.00  0.00     0.236 A 
ATOM     23  O   UNL     1     -13.259  -7.211 -25.377  1.00  0.00    -0.440 OA
ATOM     24  C   UNL     1     -15.506  -6.470 -24.864  1.00  0.00     0.090 C 
BRANCH  22  25
ATOM     25  C   UNL     1     -10.917  -7.462 -26.114  1.00  0.00     0.090 A 
ATOM     26  C   UNL     1     -10.355  -7.893 -27.299  1.00  0.00     0.026 A 
ATOM     27  S   UNL     1      -9.980  -7.957 -24.770  1.00  0.00    -0.130 S 
ATOM     28  C   UNL     1      -9.154  -8.634 -27.095  1.00  0.00     0.021 A 
ATOM     29  C   UNL     1      -8.828  -8.759 -25.757  1.00  0.00     0.035 A 
BRANCH  29  30
ATOM     30  C   UNL     1      -7.669  -9.432 -25.158  1.00  0.00    -0.008 A 
ATOM     31  C   UNL     1      -6.647  -9.932 -25.978  1.00  0.00     0.009 A 
ATOM     32  C   UNL     1      -7.560  -9.611 -23.770  1.00  0.00     0.009 A 
ATOM     33  C   UNL     1      -5.541 -10.586 -25.427  1.00  0.00     0.001 A 
ATOM     34  C   UNL     1      -6.457 -10.266 -23.220  1.00  0.00     0.001 A 
ATOM     35  C   UNL     1      -5.448 -10.753 -24.047  1.00  0.00     0.000 A 
ENDBRANCH  29  30
ENDBRANCH  22  25
ENDBRANCH  18  19
ENDBRANCH  17  18
ENDBRANCH  16  17
ENDBRANCH   4  16
TORSDOF 12
ENDMDL
