MODEL 1
REMARK VINA RESULT:   -10.827      0.000      0.000
REMARK INTER + INTRA:         -17.672
REMARK INTER:                 -16.840
REMARK INTRA:                  -0.832
REMARK UNBOUND:                -0.832
REMARK SMILES COc1cc(CCC(=O)NCCC2CCN(Cc3ccccc3)CC2)ccc1O
REMARK SMILES IDX 8 1 9 2 10 3 7 5 6 6 5 7 3 8 4 9 28 10 27 11 26 12 2 13 1 14
REMARK SMILES IDX 29 15 11 17 12 18 13 19 14 20 25 21 15 22 24 23 16 24 17 25
REMARK SMILES IDX 18 26 19 27 23 28 20 29 22 30 21 31
REMARK H PARENT 10 4 29 16
ROOT
ATOM      1  C   UNL     1     -14.982 -42.973  24.104  1.00  0.00     0.220 C 
ATOM      2  O   UNL     1     -14.563 -44.009  23.601  1.00  0.00    -0.275 OA
ATOM      3  N   UNL     1     -14.615 -42.533  25.358  1.00  0.00    -0.356 N 
ATOM      4  H   UNL     1     -15.010 -41.674  25.719  1.00  0.00     0.163 HD
ENDROOT
BRANCH   1   5
ATOM      5  C   UNL     1     -15.949 -42.036  23.412  1.00  0.00     0.105 C 
BRANCH   5   6
ATOM      6  C   UNL     1     -17.322 -42.676  23.230  1.00  0.00     0.045 C 
BRANCH   6   7
ATOM      7  C   UNL     1     -18.280 -42.244  24.315  1.00  0.00    -0.044 A 
ATOM      8  C   UNL     1     -18.883 -42.134  26.669  1.00  0.00     0.160 A 
ATOM      9  C   UNL     1     -17.990 -42.514  25.665  1.00  0.00     0.054 A 
ATOM     10  C   UNL     1     -20.072 -41.491  26.304  1.00  0.00     0.157 A 
ATOM     11  C   UNL     1     -20.377 -41.221  24.977  1.00  0.00     0.050 A 
ATOM     12  C   UNL     1     -19.478 -41.599  23.980  1.00  0.00     0.008 A 
BRANCH   8  13
ATOM     13  O   UNL     1     -18.722 -42.332  28.016  1.00  0.00    -0.493 OA
ATOM     14  C   UNL     1     -17.384 -42.448  28.486  1.00  0.00     0.278 C 
ENDBRANCH   8  13
BRANCH  10  15
ATOM     15  O   UNL     1     -20.970 -41.111  27.265  1.00  0.00    -0.504 OA
ATOM     16  H   UNL     1     -21.168 -41.930  27.758  1.00  0.00     0.293 HD
ENDBRANCH  10  15
ENDBRANCH   6   7
ENDBRANCH   5   6
ENDBRANCH   1   5
BRANCH   3  17
ATOM     17  C   UNL     1     -13.701 -43.282  26.196  1.00  0.00     0.116 C 
BRANCH  17  18
ATOM     18  C   UNL     1     -14.454 -44.193  27.164  1.00  0.00     0.025 C 
BRANCH  18  19
ATOM     19  C   UNL     1     -13.530 -45.107  27.987  1.00  0.00    -0.007 C 
ATOM     20  C   UNL     1     -13.902 -45.029  29.475  1.00  0.00     0.019 C 
ATOM     21  C   UNL     1     -12.046 -44.758  27.818  1.00  0.00     0.019 C 
ATOM     22  C   UNL     1     -12.953 -45.861  30.339  1.00  0.00     0.085 C 
ATOM     23  C   UNL     1     -11.157 -45.594  28.744  1.00  0.00     0.085 C 
ATOM     24  N   UNL     1     -11.557 -45.440  30.151  1.00  0.00    -0.299 NA
BRANCH  24  25
ATOM     25  C   UNL     1     -10.676 -46.213  31.047  1.00  0.00     0.120 C 
BRANCH  25  26
ATOM     26  C   UNL     1      -9.486 -45.424  31.554  1.00  0.00    -0.034 A 
ATOM     27  C   UNL     1      -9.667 -44.179  32.172  1.00  0.00     0.005 A 
ATOM     28  C   UNL     1      -8.186 -45.939  31.438  1.00  0.00     0.005 A 
ATOM     29  C   UNL     1      -8.573 -43.459  32.656  1.00  0.00     0.000 A 
ATOM     30  C   UNL     1      -7.093 -45.219  31.921  1.00  0.00     0.000 A 
ATOM     31  C   UNL     1      -7.286 -43.980  32.530  1.00  0.00     0.000 A 
ENDBRANCH  25  26
ENDBRANCH  24  25
ENDBRANCH  18  19
ENDBRANCH  17  18
ENDBRANCH   3  17
TORSDOF 10
ENDMDL
MODEL 2
REMARK VINA RESULT:   -10.694      0.701      2.052
REMARK INTER + INTRA:         -17.465
REMARK INTER:                 -16.680
REMARK INTRA:                  -0.785
REMARK UNBOUND:                -0.832
REMARK SMILES COc1cc(CCC(=O)NCCC2CCN(Cc3ccccc3)CC2)ccc1O
REMARK SMILES IDX 8 1 9 2 10 3 7 5 6 6 5 7 3 8 4 9 28 10 27 11 26 12 2 13 1 14
REMARK SMILES IDX 29 15 11 17 12 18 13 19 14 20 25 21 15 22 24 23 16 24 17 25
REMARK SMILES IDX 18 26 19 27 23 28 20 29 22 30 21 31
REMARK H PARENT 10 4 29 16
ROOT
ATOM      1  C   UNL     1     -15.039 -43.081  24.201  1.00  0.00     0.220 C 
ATOM      2  O   UNL     1     -14.760 -44.169  23.712  1.00  0.00    -0.275 OA
ATOM      3  N   UNL     1     -14.555 -42.647  25.417  1.00  0.00    -0.356 N 
ATOM      4  H   UNL     1     -14.837 -41.741  25.769  1.00  0.00     0.163 HD
ENDROOT
BRANCH   1   5
ATOM      5  C   UNL     1     -15.944 -42.068  23.532  1.00  0.00     0.105 C 
BRANCH   5   6
ATOM      6  C   UNL     1     -17.327 -42.646  23.248  1.00  0.00     0.045 C 
BRANCH   6   7
ATOM      7  C   UNL     1     -18.325 -42.232  24.304  1.00  0.00    -0.044 A 
ATOM      8  C   UNL     1     -20.440 -41.195  24.909  1.00  0.00     0.160 A 
ATOM      9  C   UNL     1     -19.525 -41.598  23.935  1.00  0.00     0.054 A 
ATOM     10  C   UNL     1     -20.134 -41.425  26.255  1.00  0.00     0.157 A 
ATOM     11  C   UNL     1     -18.953 -42.045  26.640  1.00  0.00     0.050 A 
ATOM     12  C   UNL     1     -18.046 -42.449  25.661  1.00  0.00     0.008 A 
BRANCH   8  13
ATOM     13  O   UNL     1     -21.642 -40.573  24.687  1.00  0.00    -0.493 OA
ATOM     14  C   UNL     1     -22.302 -40.885  23.466  1.00  0.00     0.278 C 
ENDBRANCH   8  13
BRANCH  10  15
ATOM     15  O   UNL     1     -21.008 -41.036  27.235  1.00  0.00    -0.504 OA
ATOM     16  H   UNL     1     -20.989 -41.763  27.888  1.00  0.00     0.293 HD
ENDBRANCH  10  15
ENDBRANCH   6   7
ENDBRANCH   5   6
ENDBRANCH   1   5
BRANCH   3  17
ATOM     17  C   UNL     1     -13.675 -43.463  26.228  1.00  0.00     0.116 C 
BRANCH  17  18
ATOM     18  C   UNL     1     -14.463 -44.288  27.244  1.00  0.00     0.025 C 
BRANCH  18  19
ATOM     19  C   UNL     1     -13.576 -45.200  28.110  1.00  0.00    -0.007 C 
ATOM     20  C   UNL     1     -13.917 -45.007  29.595  1.00  0.00     0.019 C 
ATOM     21  C   UNL     1     -12.079 -44.947  27.897  1.00  0.00     0.019 C 
ATOM     22  C   UNL     1     -12.999 -45.836  30.496  1.00  0.00     0.085 C 
ATOM     23  C   UNL     1     -11.221 -45.772  28.861  1.00  0.00     0.085 C 
ATOM     24  N   UNL     1     -11.586 -45.507  30.261  1.00  0.00    -0.299 NA
BRANCH  24  25
ATOM     25  C   UNL     1     -10.733 -46.270  31.192  1.00  0.00     0.120 C 
BRANCH  25  26
ATOM     26  C   UNL     1      -9.477 -45.532  31.607  1.00  0.00    -0.034 A 
ATOM     27  C   UNL     1      -8.214 -46.109  31.415  1.00  0.00     0.005 A 
ATOM     28  C   UNL     1      -9.556 -44.247  32.164  1.00  0.00     0.005 A 
ATOM     29  C   UNL     1      -7.055 -45.422  31.780  1.00  0.00     0.000 A 
ATOM     30  C   UNL     1      -8.397 -43.561  32.529  1.00  0.00     0.000 A 
ATOM     31  C   UNL     1      -7.147 -44.149  32.337  1.00  0.00     0.000 A 
ENDBRANCH  25  26
ENDBRANCH  24  25
ENDBRANCH  18  19
ENDBRANCH  17  18
ENDBRANCH   3  17
TORSDOF 10
ENDMDL
MODEL 3
REMARK VINA RESULT:   -10.546      3.239     10.326
REMARK INTER + INTRA:         -17.235
REMARK INTER:                 -16.321
REMARK INTRA:                  -0.915
REMARK UNBOUND:                -0.832
REMARK SMILES COc1cc(CCC(=O)NCCC2CCN(Cc3ccccc3)CC2)ccc1O
REMARK SMILES IDX 8 1 9 2 10 3 7 5 6 6 5 7 3 8 4 9 28 10 27 11 26 12 2 13 1 14
REMARK SMILES IDX 29 15 11 17 12 18 13 19 14 20 25 21 15 22 24 23 16 24 17 25
REMARK SMILES IDX 18 26 19 27 23 28 20 29 22 30 21 31
REMARK H PARENT 10 4 29 16
ROOT
ATOM      1  C   UNL     1     -13.420 -45.295  29.391  1.00  0.00     0.220 C 
ATOM      2  O   UNL     1     -14.446 -44.681  29.657  1.00  0.00    -0.275 OA
ATOM      3  N   UNL     1     -12.977 -45.514  28.104  1.00  0.00    -0.356 N 
ATOM      4  H   UNL     1     -12.127 -46.043  27.954  1.00  0.00     0.163 HD
ENDROOT
BRANCH   1   5
ATOM      5  C   UNL     1     -12.500 -45.886  30.438  1.00  0.00     0.105 C 
BRANCH   5   6
ATOM      6  C   UNL     1     -11.177 -46.345  29.833  1.00  0.00     0.045 C 
BRANCH   6   7
ATOM      7  C   UNL     1     -10.036 -45.454  30.264  1.00  0.00    -0.044 A 
ATOM      8  C   UNL     1      -8.627 -43.508  29.886  1.00  0.00     0.160 A 
ATOM      9  C   UNL     1      -9.694 -44.322  29.502  1.00  0.00     0.054 A 
ATOM     10  C   UNL     1      -7.901 -43.846  31.034  1.00  0.00     0.157 A 
ATOM     11  C   UNL     1      -8.221 -44.961  31.796  1.00  0.00     0.050 A 
ATOM     12  C   UNL     1      -9.291 -45.768  31.409  1.00  0.00     0.008 A 
BRANCH   8  13
ATOM     13  O   UNL     1      -8.193 -42.379  29.239  1.00  0.00    -0.493 OA
ATOM     14  C   UNL     1      -8.554 -42.254  27.869  1.00  0.00     0.278 C 
ENDBRANCH   8  13
BRANCH  10  15
ATOM     15  O   UNL     1      -6.846 -43.070  31.434  1.00  0.00    -0.504 OA
ATOM     16  H   UNL     1      -6.839 -43.144  32.408  1.00  0.00     0.293 HD
ENDBRANCH  10  15
ENDBRANCH   6   7
ENDBRANCH   5   6
ENDBRANCH   1   5
BRANCH   3  17
ATOM     17  C   UNL     1     -13.710 -45.039  26.949  1.00  0.00     0.116 C 
BRANCH  17  18
ATOM     18  C   UNL     1     -13.383 -43.577  26.647  1.00  0.00     0.025 C 
BRANCH  18  19
ATOM     19  C   UNL     1     -14.572 -42.792  26.066  1.00  0.00    -0.007 C 
ATOM     20  C   UNL     1     -15.840 -43.079  26.883  1.00  0.00     0.019 C 
ATOM     21  C   UNL     1     -14.835 -43.119  24.590  1.00  0.00     0.019 C 
ATOM     22  C   UNL     1     -17.065 -42.382  26.288  1.00  0.00     0.085 C 
ATOM     23  C   UNL     1     -16.099 -42.425  24.073  1.00  0.00     0.085 C 
ATOM     24  N   UNL     1     -17.273 -42.777  24.887  1.00  0.00    -0.299 NA
BRANCH  24  25
ATOM     25  C   UNL     1     -18.498 -42.143  24.365  1.00  0.00     0.120 C 
BRANCH  25  26
ATOM     26  C   UNL     1     -19.711 -42.347  25.249  1.00  0.00    -0.034 A 
ATOM     27  C   UNL     1     -20.341 -41.253  25.859  1.00  0.00     0.005 A 
ATOM     28  C   UNL     1     -20.239 -43.631  25.450  1.00  0.00     0.005 A 
ATOM     29  C   UNL     1     -21.470 -41.439  26.659  1.00  0.00     0.000 A 
ATOM     30  C   UNL     1     -21.367 -43.815  26.251  1.00  0.00     0.000 A 
ATOM     31  C   UNL     1     -21.982 -42.720  26.855  1.00  0.00     0.000 A 
ENDBRANCH  25  26
ENDBRANCH  24  25
ENDBRANCH  18  19
ENDBRANCH  17  18
ENDBRANCH   3  17
TORSDOF 10
ENDMDL
MODEL 4
REMARK VINA RESULT:   -10.540      3.454     10.712
REMARK INTER + INTRA:         -17.225
REMARK INTER:                 -16.418
REMARK INTRA:                  -0.807
REMARK UNBOUND:                -0.832
REMARK SMILES COc1cc(CCC(=O)NCCC2CCN(Cc3ccccc3)CC2)ccc1O
REMARK SMILES IDX 8 1 9 2 10 3 7 5 6 6 5 7 3 8 4 9 28 10 27 11 26 12 2 13 1 14
REMARK SMILES IDX 29 15 11 17 12 18 13 19 14 20 25 21 15 22 24 23 16 24 17 25
REMARK SMILES IDX 18 26 19 27 23 28 20 29 22 30 21 31
REMARK H PARENT 10 4 29 16
ROOT
ATOM      1  C   UNL     1     -12.947 -45.549  30.214  1.00  0.00     0.220 C 
ATOM      2  O   UNL     1     -14.160 -45.406  30.313  1.00  0.00    -0.275 OA
ATOM      3  N   UNL     1     -12.264 -45.458  29.020  1.00  0.00    -0.356 N 
ATOM      4  H   UNL     1     -11.263 -45.601  29.007  1.00  0.00     0.163 HD
ENDROOT
BRANCH   1   5
ATOM      5  C   UNL     1     -12.037 -45.836  31.390  1.00  0.00     0.105 C 
BRANCH   5   6
ATOM      6  C   UNL     1     -10.674 -46.350  30.938  1.00  0.00     0.045 C 
BRANCH   6   7
ATOM      7  C   UNL     1      -9.553 -45.512  31.507  1.00  0.00    -0.044 A 
ATOM      8  C   UNL     1      -8.803 -43.522  32.688  1.00  0.00     0.160 A 
ATOM      9  C   UNL     1      -9.838 -44.309  32.179  1.00  0.00     0.054 A 
ATOM     10  C   UNL     1      -7.482 -43.949  32.508  1.00  0.00     0.157 A 
ATOM     11  C   UNL     1      -7.181 -45.130  31.844  1.00  0.00     0.050 A 
ATOM     12  C   UNL     1      -8.220 -45.913  31.342  1.00  0.00     0.008 A 
BRANCH   8  13
ATOM     13  O   UNL     1      -8.941 -42.337  33.363  1.00  0.00    -0.493 OA
ATOM     14  C   UNL     1     -10.044 -42.239  34.256  1.00  0.00     0.278 C 
ENDBRANCH   8  13
BRANCH  10  15
ATOM     15  O   UNL     1      -6.445 -43.197  32.991  1.00  0.00    -0.504 OA
ATOM     16  H   UNL     1      -5.983 -42.870  32.195  1.00  0.00     0.293 HD
ENDBRANCH  10  15
ENDBRANCH   6   7
ENDBRANCH   5   6
ENDBRANCH   1   5
BRANCH   3  17
ATOM     17  C   UNL     1     -12.943 -45.195  27.767  1.00  0.00     0.116 C 
BRANCH  17  18
ATOM     18  C   UNL     1     -12.789 -43.733  27.349  1.00  0.00     0.025 C 
BRANCH  18  19
ATOM     19  C   UNL     1     -13.481 -43.404  26.014  1.00  0.00    -0.007 C 
ATOM     20  C   UNL     1     -14.516 -42.289  26.220  1.00  0.00     0.019 C 
ATOM     21  C   UNL     1     -14.167 -44.623  25.385  1.00  0.00     0.019 C 
ATOM     22  C   UNL     1     -15.285 -41.989  24.932  1.00  0.00     0.085 C 
ATOM     23  C   UNL     1     -14.955 -44.244  24.127  1.00  0.00     0.085 C 
ATOM     24  N   UNL     1     -15.947 -43.195  24.414  1.00  0.00    -0.299 NA
BRANCH  24  25
ATOM     25  C   UNL     1     -16.735 -42.859  23.214  1.00  0.00     0.120 C 
BRANCH  25  26
ATOM     26  C   UNL     1     -18.035 -42.145  23.523  1.00  0.00    -0.034 A 
ATOM     27  C   UNL     1     -18.615 -41.282  22.582  1.00  0.00     0.005 A 
ATOM     28  C   UNL     1     -18.693 -42.357  24.743  1.00  0.00     0.005 A 
ATOM     29  C   UNL     1     -19.822 -40.637  22.858  1.00  0.00     0.000 A 
ATOM     30  C   UNL     1     -19.899 -41.711  25.018  1.00  0.00     0.000 A 
ATOM     31  C   UNL     1     -20.463 -40.852  24.076  1.00  0.00     0.000 A 
ENDBRANCH  25  26
ENDBRANCH  24  25
ENDBRANCH  18  19
ENDBRANCH  17  18
ENDBRANCH   3  17
TORSDOF 10
ENDMDL
MODEL 5
REMARK VINA RESULT:   -10.405      1.492      1.921
REMARK INTER + INTRA:         -17.016
REMARK INTER:                 -16.091
REMARK INTRA:                  -0.925
REMARK UNBOUND:                -0.832
REMARK SMILES COc1cc(CCC(=O)NCCC2CCN(Cc3ccccc3)CC2)ccc1O
REMARK SMILES IDX 8 1 9 2 10 3 7 5 6 6 5 7 3 8 4 9 28 10 27 11 26 12 2 13 1 14
REMARK SMILES IDX 29 15 11 17 12 18 13 19 14 20 25 21 15 22 24 23 16 24 17 25
REMARK SMILES IDX 18 26 19 27 23 28 20 29 22 30 21 31
REMARK H PARENT 10 4 29 16
ROOT
ATOM      1  C   UNL     1     -15.548 -42.861  23.900  1.00  0.00     0.220 C 
ATOM      2  O   UNL     1     -14.780 -41.955  23.597  1.00  0.00    -0.275 OA
ATOM      3  N   UNL     1     -15.298 -43.763  24.912  1.00  0.00    -0.356 N 
ATOM      4  H   UNL     1     -15.969 -44.497  25.101  1.00  0.00     0.163 HD
ENDROOT
BRANCH   1   5
ATOM      5  C   UNL     1     -16.874 -43.103  23.211  1.00  0.00     0.105 C 
BRANCH   5   6
ATOM      6  C   UNL     1     -17.916 -42.063  23.611  1.00  0.00     0.045 C 
BRANCH   6   7
ATOM      7  C   UNL     1     -18.689 -42.501  24.833  1.00  0.00    -0.044 A 
ATOM      8  C   UNL     1     -20.545 -43.722  25.824  1.00  0.00     0.160 A 
ATOM      9  C   UNL     1     -19.816 -43.333  24.698  1.00  0.00     0.054 A 
ATOM     10  C   UNL     1     -20.139 -43.261  27.081  1.00  0.00     0.157 A 
ATOM     11  C   UNL     1     -19.033 -42.436  27.233  1.00  0.00     0.050 A 
ATOM     12  C   UNL     1     -18.307 -42.055  26.105  1.00  0.00     0.008 A 
BRANCH   8  13
ATOM     13  O   UNL     1     -21.654 -44.528  25.834  1.00  0.00    -0.493 OA
ATOM     14  C   UNL     1     -21.627 -45.656  24.967  1.00  0.00     0.278 C 
ENDBRANCH   8  13
BRANCH  10  15
ATOM     15  O   UNL     1     -20.835 -43.621  28.204  1.00  0.00    -0.504 OA
ATOM     16  H   UNL     1     -21.758 -43.726  27.900  1.00  0.00     0.293 HD
ENDBRANCH  10  15
ENDBRANCH   6   7
ENDBRANCH   5   6
ENDBRANCH   1   5
BRANCH   3  17
ATOM     17  C   UNL     1     -14.082 -43.717  25.698  1.00  0.00     0.116 C 
BRANCH  17  18
ATOM     18  C   UNL     1     -14.382 -43.833  27.192  1.00  0.00     0.025 C 
BRANCH  18  19
ATOM     19  C   UNL     1     -13.424 -44.781  27.935  1.00  0.00    -0.007 C 
ATOM     20  C   UNL     1     -13.947 -45.052  29.353  1.00  0.00     0.019 C 
ATOM     21  C   UNL     1     -11.994 -44.232  28.020  1.00  0.00     0.019 C 
ATOM     22  C   UNL     1     -12.980 -45.925  30.154  1.00  0.00     0.085 C 
ATOM     23  C   UNL     1     -11.091 -45.129  28.873  1.00  0.00     0.085 C 
ATOM     24  N   UNL     1     -11.645 -45.313  30.224  1.00  0.00    -0.299 NA
BRANCH  24  25
ATOM     25  C   UNL     1     -10.757 -46.142  31.060  1.00  0.00     0.120 C 
BRANCH  25  26
ATOM     26  C   UNL     1      -9.509 -45.418  31.521  1.00  0.00    -0.034 A 
ATOM     27  C   UNL     1      -9.600 -44.160  32.132  1.00  0.00     0.005 A 
ATOM     28  C   UNL     1      -8.245 -46.007  31.371  1.00  0.00     0.005 A 
ATOM     29  C   UNL     1      -8.453 -43.499  32.575  1.00  0.00     0.000 A 
ATOM     30  C   UNL     1      -7.099 -45.346  31.813  1.00  0.00     0.000 A 
ATOM     31  C   UNL     1      -7.202 -44.093  32.414  1.00  0.00     0.000 A 
ENDBRANCH  25  26
ENDBRANCH  24  25
ENDBRANCH  18  19
ENDBRANCH  17  18
ENDBRANCH   3  17
TORSDOF 10
ENDMDL
MODEL 6
REMARK VINA RESULT:   -10.343      3.543     10.711
REMARK INTER + INTRA:         -16.920
REMARK INTER:                 -16.222
REMARK INTRA:                  -0.698
REMARK UNBOUND:                -0.832
REMARK SMILES COc1cc(CCC(=O)NCCC2CCN(Cc3ccccc3)CC2)ccc1O
REMARK SMILES IDX 8 1 9 2 10 3 7 5 6 6 5 7 3 8 4 9 28 10 27 11 26 12 2 13 1 14
REMARK SMILES IDX 29 15 11 17 12 18 13 19 14 20 25 21 15 22 24 23 16 24 17 25
REMARK SMILES IDX 18 26 19 27 23 28 20 29 22 30 21 31
REMARK H PARENT 10 4 29 16
ROOT
ATOM      1  C   UNL     1     -12.062 -45.799  29.174  1.00  0.00     0.220 C 
ATOM      2  O   UNL     1     -11.405 -46.430  28.355  1.00  0.00    -0.275 OA
ATOM      3  N   UNL     1     -13.186 -45.069  28.849  1.00  0.00    -0.356 N 
ATOM      4  H   UNL     1     -13.674 -44.559  29.574  1.00  0.00     0.163 HD
ENDROOT
BRANCH   1   5
ATOM      5  C   UNL     1     -11.732 -45.742  30.651  1.00  0.00     0.105 C 
BRANCH   5   6
ATOM      6  C   UNL     1     -10.457 -46.515  30.974  1.00  0.00     0.045 C 
BRANCH   6   7
ATOM      7  C   UNL     1      -9.390 -45.606  31.537  1.00  0.00    -0.044 A 
ATOM      8  C   UNL     1      -8.755 -43.519  32.614  1.00  0.00     0.160 A 
ATOM      9  C   UNL     1      -9.741 -44.371  32.111  1.00  0.00     0.054 A 
ATOM     10  C   UNL     1      -7.416 -43.914  32.525  1.00  0.00     0.157 A 
ATOM     11  C   UNL     1      -7.049 -45.127  31.959  1.00  0.00     0.050 A 
ATOM     12  C   UNL     1      -8.039 -45.975  31.463  1.00  0.00     0.008 A 
BRANCH   8  13
ATOM     13  O   UNL     1      -8.961 -42.296  33.198  1.00  0.00    -0.493 OA
ATOM     14  C   UNL     1      -9.461 -42.304  34.530  1.00  0.00     0.278 C 
ENDBRANCH   8  13
BRANCH  10  15
ATOM     15  O   UNL     1      -6.426 -43.099  33.004  1.00  0.00    -0.504 OA
ATOM     16  H   UNL     1      -6.589 -42.234  32.581  1.00  0.00     0.293 HD
ENDBRANCH  10  15
ENDBRANCH   6   7
ENDBRANCH   5   6
ENDBRANCH   1   5
BRANCH   3  17
ATOM     17  C   UNL     1     -13.676 -44.983  27.489  1.00  0.00     0.116 C 
BRANCH  17  18
ATOM     18  C   UNL     1     -13.246 -43.675  26.825  1.00  0.00     0.025 C 
BRANCH  18  19
ATOM     19  C   UNL     1     -14.404 -42.923  26.147  1.00  0.00    -0.007 C 
ATOM     20  C   UNL     1     -15.693 -43.099  26.963  1.00  0.00     0.019 C 
ATOM     21  C   UNL     1     -14.650 -43.387  24.706  1.00  0.00     0.019 C 
ATOM     22  C   UNL     1     -16.889 -42.435  26.279  1.00  0.00     0.085 C 
ATOM     23  C   UNL     1     -15.887 -42.718  24.098  1.00  0.00     0.085 C 
ATOM     24  N   UNL     1     -17.083 -42.960  24.919  1.00  0.00    -0.299 NA
BRANCH  24  25
ATOM     25  C   UNL     1     -18.282 -42.352  24.313  1.00  0.00     0.120 C 
BRANCH  25  26
ATOM     26  C   UNL     1     -19.519 -42.457  25.181  1.00  0.00    -0.034 A 
ATOM     27  C   UNL     1     -20.110 -41.307  25.722  1.00  0.00     0.005 A 
ATOM     28  C   UNL     1     -20.110 -43.704  25.434  1.00  0.00     0.005 A 
ATOM     29  C   UNL     1     -21.261 -41.400  26.507  1.00  0.00     0.000 A 
ATOM     30  C   UNL     1     -21.260 -43.797  26.219  1.00  0.00     0.000 A 
ATOM     31  C   UNL     1     -21.835 -42.646  26.755  1.00  0.00     0.000 A 
ENDBRANCH  25  26
ENDBRANCH  24  25
ENDBRANCH  18  19
ENDBRANCH  17  18
ENDBRANCH   3  17
TORSDOF 10
ENDMDL
MODEL 7
REMARK VINA RESULT:   -10.314      3.221     10.365
REMARK INTER + INTRA:         -16.874
REMARK INTER:                 -15.830
REMARK INTRA:                  -1.043
REMARK UNBOUND:                -0.832
REMARK SMILES COc1cc(CCC(=O)NCCC2CCN(Cc3ccccc3)CC2)ccc1O
REMARK SMILES IDX 8 1 9 2 10 3 7 5 6 6 5 7 3 8 4 9 28 10 27 11 26 12 2 13 1 14
REMARK SMILES IDX 29 15 11 17 12 18 13 19 14 20 25 21 15 22 24 23 16 24 17 25
REMARK SMILES IDX 18 26 19 27 23 28 20 29 22 30 21 31
REMARK H PARENT 10 4 29 16
ROOT
ATOM      1  C   UNL     1     -13.107 -45.333  30.458  1.00  0.00     0.220 C 
ATOM      2  O   UNL     1     -12.916 -46.490  30.100  1.00  0.00    -0.275 OA
ATOM      3  N   UNL     1     -13.608 -44.352  29.629  1.00  0.00    -0.356 N 
ATOM      4  H   UNL     1     -13.727 -43.413  29.986  1.00  0.00     0.163 HD
ENDROOT
BRANCH   1   5
ATOM      5  C   UNL     1     -12.826 -44.832  31.859  1.00  0.00     0.105 C 
BRANCH   5   6
ATOM      6  C   UNL     1     -12.057 -43.514  31.844  1.00  0.00     0.045 C 
BRANCH   6   7
ATOM      7  C   UNL     1     -10.615 -43.723  31.445  1.00  0.00    -0.044 A 
ATOM      8  C   UNL     1      -8.769 -43.292  29.920  1.00  0.00     0.160 A 
ATOM      9  C   UNL     1     -10.096 -43.085  30.303  1.00  0.00     0.054 A 
ATOM     10  C   UNL     1      -7.974 -44.151  30.687  1.00  0.00     0.157 A 
ATOM     11  C   UNL     1      -8.469 -44.792  31.814  1.00  0.00     0.050 A 
ATOM     12  C   UNL     1      -9.794 -44.577  32.193  1.00  0.00     0.008 A 
BRANCH   8  13
ATOM     13  O   UNL     1      -8.140 -42.732  28.838  1.00  0.00    -0.493 OA
ATOM     14  C   UNL     1      -8.903 -42.633  27.641  1.00  0.00     0.278 C 
ENDBRANCH   8  13
BRANCH  10  15
ATOM     15  O   UNL     1      -6.670 -44.378  30.335  1.00  0.00    -0.504 OA
ATOM     16  H   UNL     1      -6.449 -43.653  29.718  1.00  0.00     0.293 HD
ENDBRANCH  10  15
ENDBRANCH   6   7
ENDBRANCH   5   6
ENDBRANCH   1   5
BRANCH   3  17
ATOM     17  C   UNL     1     -13.940 -44.616  28.244  1.00  0.00     0.116 C 
BRANCH  17  18
ATOM     18  C   UNL     1     -12.978 -43.901  27.296  1.00  0.00     0.025 C 
BRANCH  18  19
ATOM     19  C   UNL     1     -13.622 -43.506  25.955  1.00  0.00    -0.007 C 
ATOM     20  C   UNL     1     -14.629 -42.368  26.171  1.00  0.00     0.019 C 
ATOM     21  C   UNL     1     -14.326 -44.682  25.266  1.00  0.00     0.019 C 
ATOM     22  C   UNL     1     -15.353 -42.001  24.874  1.00  0.00     0.085 C 
ATOM     23  C   UNL     1     -15.068 -44.237  24.002  1.00  0.00     0.085 C 
ATOM     24  N   UNL     1     -16.035 -43.169  24.298  1.00  0.00    -0.299 NA
BRANCH  24  25
ATOM     25  C   UNL     1     -16.779 -42.769  23.088  1.00  0.00     0.120 C 
BRANCH  25  26
ATOM     26  C   UNL     1     -18.097 -42.084  23.387  1.00  0.00    -0.034 A 
ATOM     27  C   UNL     1     -18.765 -42.321  24.596  1.00  0.00     0.005 A 
ATOM     28  C   UNL     1     -18.655 -41.181  22.470  1.00  0.00     0.005 A 
ATOM     29  C   UNL     1     -19.971 -41.677  24.880  1.00  0.00     0.000 A 
ATOM     30  C   UNL     1     -19.860 -40.538  22.755  1.00  0.00     0.000 A 
ATOM     31  C   UNL     1     -20.517 -40.785  23.959  1.00  0.00     0.000 A 
ENDBRANCH  25  26
ENDBRANCH  24  25
ENDBRANCH  18  19
ENDBRANCH  17  18
ENDBRANCH   3  17
TORSDOF 10
ENDMDL
MODEL 8
REMARK VINA RESULT:   -10.262      3.628     11.361
REMARK INTER + INTRA:         -16.792
REMARK INTER:                 -16.077
REMARK INTRA:                  -0.715
REMARK UNBOUND:                -0.832
REMARK SMILES COc1cc(CCC(=O)NCCC2CCN(Cc3ccccc3)CC2)ccc1O
REMARK SMILES IDX 8 1 9 2 10 3 7 5 6 6 5 7 3 8 4 9 28 10 27 11 26 12 2 13 1 14
REMARK SMILES IDX 29 15 11 17 12 18 13 19 14 20 25 21 15 22 24 23 16 24 17 25
REMARK SMILES IDX 18 26 19 27 23 28 20 29 22 30 21 31
REMARK H PARENT 10 4 29 16
ROOT
ATOM      1  C   UNL     1     -13.234 -44.861  28.403  1.00  0.00     0.220 C 
ATOM      2  O   UNL     1     -13.838 -44.683  29.454  1.00  0.00    -0.275 OA
ATOM      3  N   UNL     1     -13.636 -44.333  27.195  1.00  0.00    -0.356 N 
ATOM      4  H   UNL     1     -13.097 -44.531  26.362  1.00  0.00     0.163 HD
ENDROOT
BRANCH   1   5
ATOM      5  C   UNL     1     -11.963 -45.677  28.294  1.00  0.00     0.105 C 
BRANCH   5   6
ATOM      6  C   UNL     1     -11.479 -46.152  29.660  1.00  0.00     0.045 C 
BRANCH   6   7
ATOM      7  C   UNL     1     -10.304 -45.335  30.143  1.00  0.00    -0.044 A 
ATOM      8  C   UNL     1      -8.716 -43.524  29.801  1.00  0.00     0.160 A 
ATOM      9  C   UNL     1      -9.816 -44.268  29.367  1.00  0.00     0.054 A 
ATOM     10  C   UNL     1      -8.108 -43.867  31.013  1.00  0.00     0.157 A 
ATOM     11  C   UNL     1      -8.572 -44.919  31.791  1.00  0.00     0.050 A 
ATOM     12  C   UNL     1      -9.673 -45.655  31.354  1.00  0.00     0.008 A 
BRANCH   8  13
ATOM     13  O   UNL     1      -8.145 -42.463  29.146  1.00  0.00    -0.493 OA
ATOM     14  C   UNL     1      -8.517 -42.282  27.785  1.00  0.00     0.278 C 
ENDBRANCH   8  13
BRANCH  10  15
ATOM     15  O   UNL     1      -7.025 -43.160  31.463  1.00  0.00    -0.504 OA
ATOM     16  H   UNL     1      -7.098 -43.187  32.437  1.00  0.00     0.293 HD
ENDBRANCH  10  15
ENDBRANCH   6   7
ENDBRANCH   5   6
ENDBRANCH   1   5
BRANCH   3  17
ATOM     17  C   UNL     1     -14.831 -43.523  27.071  1.00  0.00     0.116 C 
BRANCH  17  18
ATOM     18  C   UNL     1     -14.879 -42.804  25.724  1.00  0.00     0.025 C 
BRANCH  18  19
ATOM     19  C   UNL     1     -16.166 -43.081  24.928  1.00  0.00    -0.007 C 
ATOM     20  C   UNL     1     -16.115 -42.355  23.576  1.00  0.00     0.019 C 
ATOM     21  C   UNL     1     -17.433 -42.659  25.683  1.00  0.00     0.019 C 
ATOM     22  C   UNL     1     -17.413 -42.538  22.788  1.00  0.00     0.085 C 
ATOM     23  C   UNL     1     -18.689 -42.824  24.821  1.00  0.00     0.085 C 
ATOM     24  N   UNL     1     -18.574 -42.073  23.561  1.00  0.00    -0.299 NA
BRANCH  24  25
ATOM     25  C   UNL     1     -19.799 -42.198  22.749  1.00  0.00     0.120 C 
BRANCH  25  26
ATOM     26  C   UNL     1     -20.093 -40.976  21.903  1.00  0.00    -0.034 A 
ATOM     27  C   UNL     1     -20.278 -39.722  22.503  1.00  0.00     0.005 A 
ATOM     28  C   UNL     1     -20.157 -41.074  20.506  1.00  0.00     0.005 A 
ATOM     29  C   UNL     1     -20.531 -38.592  21.724  1.00  0.00     0.000 A 
ATOM     30  C   UNL     1     -20.410 -39.943  19.728  1.00  0.00     0.000 A 
ATOM     31  C   UNL     1     -20.597 -38.703  20.337  1.00  0.00     0.000 A 
ENDBRANCH  25  26
ENDBRANCH  24  25
ENDBRANCH  18  19
ENDBRANCH  17  18
ENDBRANCH   3  17
TORSDOF 10
ENDMDL
MODEL 9
REMARK VINA RESULT:   -10.144      1.651      2.640
REMARK INTER + INTRA:         -16.610
REMARK INTER:                 -15.788
REMARK INTRA:                  -0.822
REMARK UNBOUND:                -0.832
REMARK SMILES COc1cc(CCC(=O)NCCC2CCN(Cc3ccccc3)CC2)ccc1O
REMARK SMILES IDX 8 1 9 2 10 3 7 5 6 6 5 7 3 8 4 9 28 10 27 11 26 12 2 13 1 14
REMARK SMILES IDX 29 15 11 17 12 18 13 19 14 20 25 21 15 22 24 23 16 24 17 25
REMARK SMILES IDX 18 26 19 27 23 28 20 29 22 30 21 31
REMARK H PARENT 10 4 29 16
ROOT
ATOM      1  C   UNL     1     -16.305 -42.791  26.799  1.00  0.00     0.220 C 
ATOM      2  O   UNL     1     -16.179 -42.621  28.006  1.00  0.00    -0.275 OA
ATOM      3  N   UNL     1     -15.303 -43.285  25.992  1.00  0.00    -0.356 N 
ATOM      4  H   UNL     1     -15.470 -43.387  24.999  1.00  0.00     0.163 HD
ENDROOT
BRANCH   1   5
ATOM      5  C   UNL     1     -17.579 -42.489  26.038  1.00  0.00     0.105 C 
BRANCH   5   6
ATOM      6  C   UNL     1     -18.701 -42.041  26.969  1.00  0.00     0.045 C 
BRANCH   6   7
ATOM      7  C   UNL     1     -19.875 -41.493  26.193  1.00  0.00    -0.044 A 
ATOM      8  C   UNL     1     -22.124 -40.568  26.153  1.00  0.00     0.160 A 
ATOM      9  C   UNL     1     -21.029 -41.056  26.869  1.00  0.00     0.054 A 
ATOM     10  C   UNL     1     -22.054 -40.533  24.756  1.00  0.00     0.157 A 
ATOM     11  C   UNL     1     -20.925 -40.964  24.071  1.00  0.00     0.050 A 
ATOM     12  C   UNL     1     -19.833 -41.446  24.793  1.00  0.00     0.008 A 
BRANCH   8  13
ATOM     13  O   UNL     1     -23.302 -40.109  26.684  1.00  0.00    -0.493 OA
ATOM     14  C   UNL     1     -24.117 -41.069  27.347  1.00  0.00     0.278 C 
ENDBRANCH   8  13
BRANCH  10  15
ATOM     15  O   UNL     1     -23.113 -40.065  24.025  1.00  0.00    -0.504 OA
ATOM     16  H   UNL     1     -23.332 -40.792  23.411  1.00  0.00     0.293 HD
ENDBRANCH  10  15
ENDBRANCH   6   7
ENDBRANCH   5   6
ENDBRANCH   1   5
BRANCH   3  17
ATOM     17  C   UNL     1     -13.999 -43.634  26.515  1.00  0.00     0.116 C 
BRANCH  17  18
ATOM     18  C   UNL     1     -13.760 -45.143  26.451  1.00  0.00     0.025 C 
BRANCH  18  19
ATOM     19  C   UNL     1     -13.212 -45.731  27.763  1.00  0.00    -0.007 C 
ATOM     20  C   UNL     1     -13.432 -44.740  28.915  1.00  0.00     0.019 C 
ATOM     21  C   UNL     1     -11.722 -46.086  27.677  1.00  0.00     0.019 C 
ATOM     22  C   UNL     1     -12.827 -45.253  30.223  1.00  0.00     0.085 C 
ATOM     23  C   UNL     1     -11.171 -46.548  29.030  1.00  0.00     0.085 C 
ATOM     24  N   UNL     1     -11.392 -45.532  30.071  1.00  0.00    -0.299 NA
BRANCH  24  25
ATOM     25  C   UNL     1     -10.824 -45.957  31.365  1.00  0.00     0.120 C 
BRANCH  25  26
ATOM     26  C   UNL     1      -9.575 -45.196  31.758  1.00  0.00    -0.034 A 
ATOM     27  C   UNL     1      -9.670 -43.952  32.399  1.00  0.00     0.005 A 
ATOM     28  C   UNL     1      -8.303 -45.735  31.513  1.00  0.00     0.005 A 
ATOM     29  C   UNL     1      -8.520 -43.258  32.778  1.00  0.00     0.000 A 
ATOM     30  C   UNL     1      -7.155 -45.039  31.892  1.00  0.00     0.000 A 
ATOM     31  C   UNL     1      -7.263 -43.802  32.525  1.00  0.00     0.000 A 
ENDBRANCH  25  26
ENDBRANCH  24  25
ENDBRANCH  18  19
ENDBRANCH  17  18
ENDBRANCH   3  17
TORSDOF 10
ENDMDL
