REMARK VINA RESULT:    -8.606      3.627     10.006
REMARK INTER + INTRA:         -15.042
REMARK INTER:                 -13.897
REMARK INTRA:                  -1.145
REMARK UNBOUND:                -1.154
REMARK SMILES CCCc1cc(C#N)ccc1OCCCOc1ccc2c(c1)CC[C@H]2CC(=O)O
REMARK SMILES IDX 14 1 13 2 12 3 11 4 4 5 5 6 6 7 10 8 7 9 9 10 8 11 3 12 2 13
REMARK SMILES IDX 1 14 15 15 16 16 17 17 18 18 22 19 19 20 21 21 20 22 23 23
REMARK SMILES IDX 25 24 24 25 26 26 27 27 28 28 29 29
REMARK H PARENT 29 30
ROOT
ATOM      1  C   UNL     1       6.850   6.241  -6.506  1.00  0.00     0.083 C 
ENDROOT
BRANCH   1   2
ATOM      2  C   UNL     1       5.642   5.698  -5.747  1.00  0.00     0.233 C 
BRANCH   2   3
ATOM      3  O   UNL     1       4.743   6.782  -5.477  1.00  0.00    -0.493 OA
BRANCH   3   4
ATOM      4  C   UNL     1       4.370   6.825  -4.161  1.00  0.00     0.122 A 
ATOM      5  C   UNL     1       4.174   8.066  -3.540  1.00  0.00    -0.005 A 
ATOM      6  C   UNL     1       3.751   8.086  -2.199  1.00  0.00     0.027 A 
ATOM      7  C   UNL     1       3.503   6.893  -1.507  1.00  0.00     0.053 A 
ATOM      8  C   UNL     1       4.099   5.634  -3.482  1.00  0.00     0.048 A 
ATOM      9  C   UNL     1       3.068   6.932  -0.141  1.00  0.00     0.099 C 
ATOM     10  C   UNL     1       3.674   5.667  -2.153  1.00  0.00     0.023 A 
ATOM     11  N   UNL     1       2.716   6.966   0.964  1.00  0.00    -0.192 NA
BRANCH   5  12
ATOM     12  C   UNL     1       4.426   9.369  -4.260  1.00  0.00     0.039 C 
BRANCH  12  13
ATOM     13  C   UNL     1       5.793   9.957  -3.905  1.00  0.00     0.001 C 
ATOM     14  C   UNL     1       6.712   9.998  -5.117  1.00  0.00     0.004 C 
ENDBRANCH  12  13
ENDBRANCH   5  12
ENDBRANCH   3   4
ENDBRANCH   2   3
ENDBRANCH   1   2
BRANCH   1  15
ATOM     15  C   UNL     1       7.855   5.143  -6.849  1.00  0.00     0.233 C 
BRANCH  15  16
ATOM     16  O   UNL     1       9.163   5.719  -6.870  1.00  0.00    -0.493 OA
BRANCH  16  17
ATOM     17  C   UNL     1       9.693   6.015  -8.097  1.00  0.00     0.119 A 
ATOM     18  C   UNL     1       9.811   7.392  -8.358  1.00  0.00     0.047 A 
ATOM     19  C   UNL     1      10.098   5.085  -9.057  1.00  0.00     0.050 A 
ATOM     20  C   UNL     1      10.339   7.857  -9.565  1.00  0.00     0.008 A 
ATOM     21  C   UNL     1      10.634   5.555 -10.247  1.00  0.00    -0.041 A 
ATOM     22  C   UNL     1      10.749   6.926 -10.503  1.00  0.00    -0.041 A 
ATOM     23  C   UNL     1      11.109   4.753 -11.418  1.00  0.00     0.036 C 
ATOM     24  C   UNL     1      11.323   7.180 -11.871  1.00  0.00     0.031 C 
ATOM     25  C   UNL     1      11.946   5.796 -12.171  1.00  0.00     0.014 C 
BRANCH  24  26
ATOM     26  C   UNL     1      10.234   7.580 -12.864  1.00  0.00     0.131 C 
BRANCH  26  27
ATOM     27  C   UNL     1      10.241   9.063 -13.089  1.00  0.00     0.303 C 
ATOM     28  O   UNL     1       9.464   9.869 -12.607  1.00  0.00    -0.252 OA
BRANCH  27  29
ATOM     29  O   UNL     1      11.214   9.460 -13.931  1.00  0.00    -0.481 OA
ATOM     30  H   UNL     1      10.894  10.318 -14.281  1.00  0.00     0.296 HD
ENDBRANCH  27  29
ENDBRANCH  26  27
ENDBRANCH  24  26
ENDBRANCH  16  17
ENDBRANCH  15  16
ENDBRANCH   1  15
TORSDOF 11
