REMARK VINA RESULT:    -8.397      1.843      3.158
REMARK INTER + INTRA:         -14.705
REMARK INTER:                 -13.651
REMARK INTRA:                  -1.054
REMARK UNBOUND:                -1.154
REMARK SMILES CCCc1cc(C#N)ccc1OCCCOc1ccc2c(c1)CC[C@H]2CC(=O)O
REMARK SMILES IDX 14 1 13 2 12 3 11 4 4 5 5 6 6 7 10 8 7 9 9 10 8 11 3 12 2 13
REMARK SMILES IDX 1 14 15 15 16 16 17 17 18 18 22 19 19 20 21 21 20 22 23 23
REMARK SMILES IDX 25 24 24 25 26 26 27 27 28 28 29 29
REMARK H PARENT 29 30
ROOT
ATOM      1  C   UNL     1       8.985  11.249  -6.849  1.00  0.00     0.083 C 
ENDROOT
BRANCH   1   2
ATOM      2  C   UNL     1      10.136  10.452  -7.458  1.00  0.00     0.233 C 
BRANCH   2   3
ATOM      3  O   UNL     1       9.688   9.112  -7.703  1.00  0.00    -0.493 OA
BRANCH   3   4
ATOM      4  C   UNL     1      10.012   8.684  -8.963  1.00  0.00     0.122 A 
ATOM      5  C   UNL     1      10.254   7.322  -9.188  1.00  0.00    -0.005 A 
ATOM      6  C   UNL     1      10.543   6.900 -10.497  1.00  0.00     0.027 A 
ATOM      7  C   UNL     1      10.560   7.813 -11.559  1.00  0.00     0.053 A 
ATOM      8  C   UNL     1      10.002   9.595 -10.023  1.00  0.00     0.048 A 
ATOM      9  C   UNL     1      10.854   7.363 -12.888  1.00  0.00     0.099 C 
ATOM     10  C   UNL     1      10.285   9.161 -11.320  1.00  0.00     0.023 A 
ATOM     11  N   UNL     1      11.091   6.998 -13.964  1.00  0.00    -0.192 NA
BRANCH   5  12
ATOM     12  C   UNL     1      10.236   6.312  -8.066  1.00  0.00     0.039 C 
BRANCH  12  13
ATOM     13  C   UNL     1       9.962   4.897  -8.581  1.00  0.00     0.001 C 
ATOM     14  C   UNL     1       9.404   4.004  -7.484  1.00  0.00     0.004 C 
ENDBRANCH  12  13
ENDBRANCH   5  12
ENDBRANCH   3   4
ENDBRANCH   2   3
ENDBRANCH   1   2
BRANCH   1  15
ATOM     15  C   UNL     1       8.351  10.526  -5.661  1.00  0.00     0.233 C 
BRANCH  15  16
ATOM     16  O   UNL     1       6.931  10.569  -5.813  1.00  0.00    -0.493 OA
BRANCH  16  17
ATOM     17  C   UNL     1       6.201   9.663  -5.093  1.00  0.00     0.119 A 
ATOM     18  C   UNL     1       6.200   9.893  -3.705  1.00  0.00     0.047 A 
ATOM     19  C   UNL     1       5.498   8.577  -5.621  1.00  0.00     0.050 A 
ATOM     20  C   UNL     1       5.496   9.059  -2.833  1.00  0.00     0.008 A 
ATOM     21  C   UNL     1       4.790   7.762  -4.749  1.00  0.00    -0.041 A 
ATOM     22  C   UNL     1       4.793   7.995  -3.370  1.00  0.00    -0.041 A 
ATOM     23  C   UNL     1       3.992   6.541  -5.083  1.00  0.00     0.036 C 
ATOM     24  C   UNL     1       3.986   6.955  -2.639  1.00  0.00     0.031 C 
ATOM     25  C   UNL     1       3.151   6.381  -3.808  1.00  0.00     0.014 C 
BRANCH  24  26
ATOM     26  C   UNL     1       4.888   5.918  -1.974  1.00  0.00     0.131 C 
BRANCH  26  27
ATOM     27  C   UNL     1       4.089   5.011  -1.088  1.00  0.00     0.303 C 
ATOM     28  O   UNL     1       4.131   3.792  -1.077  1.00  0.00    -0.252 OA
BRANCH  27  29
ATOM     29  O   UNL     1       3.254   5.680  -0.270  1.00  0.00    -0.481 OA
ATOM     30  H   UNL     1       3.613   6.592  -0.253  1.00  0.00     0.296 HD
ENDBRANCH  27  29
ENDBRANCH  26  27
ENDBRANCH  24  26
ENDBRANCH  16  17
ENDBRANCH  15  16
ENDBRANCH   1  15
TORSDOF 11
