REMARK SMILES CC1=C[C@H]2Cc3nc4cc(Cl)ccc4c(NCCCCCCCCCNC(=O)c4ccc[nH]c4=O)c3[C@@H](C1)C2
REMARK SMILES IDX 21 1 20 2 19 3 18 4 17 5 16 6 15 8 2 9 3 10 38 11 4 12 37 13
REMARK SMILES IDX 5 14 39 15 36 16 6 17 7 18 14 19 8 20 13 21 9 22 12 23 10 24
REMARK SMILES IDX 1 25 11 26 22 27 23 28 24 29 25 30 26 31 27 32 28 33 29 35
REMARK SMILES IDX 30 36 34 37 31 38 33 39 35 40 32 41
REMARK H PARENT 16 7 26 34 33 42
REMARK INDEX MAP 21 1 20 2 19 3 18 4 17 5 16 6 50 7 15 8 2 9 3 10 38 11 4 12
REMARK INDEX MAP 37 13 5 14 39 15 36 16 6 17 7 18 14 19 8 20 13 21 9 22 12 23
REMARK INDEX MAP 10 24 1 25 11 26 22 27 23 28 24 29 25 30 26 31 27 32 28 33
REMARK INDEX MAP 69 34 29 35 30 36 34 37 31 38 33 39 35 40 32 41 73 42
ROOT
ATOM      1  C   UNL     1     138.127 108.887  38.600  1.00  0.00     0.000 C 
ENDROOT
BRANCH   1   2
ATOM      2  C   UNL     1     138.176 109.827  37.393  1.00  0.00     0.000 C 
BRANCH   2   3
ATOM      3  C   UNL     1     138.392 111.276  37.834  1.00  0.00     0.002 C 
BRANCH   3   4
ATOM      4  C   UNL     1     137.145 111.842  38.520  1.00  0.00     0.021 C 
BRANCH   4   5
ATOM      5  C   UNL     1     137.042 113.362  38.391  1.00  0.00     0.113 C 
BRANCH   5   6
ATOM      6  N   UNL     1     136.311 113.922  39.522  1.00  0.00    -0.384 N 
ATOM      7  H   UNL     1     135.497 113.445  39.936  1.00  0.00     0.160 HD
BRANCH   6   8
ATOM      8  C   UNL     1     136.785 115.154  40.014  1.00  0.00     0.049 A 
ATOM      9  C   UNL     1     133.134 116.968  41.258  1.00  0.00    -0.076 C 
ATOM     10  C   UNL     1     133.485 118.244  41.016  1.00  0.00    -0.024 C 
ATOM     11  C   UNL     1     133.567 115.840  40.341  1.00  0.00     0.039 C 
ATOM     12  C   UNL     1     134.303 118.661  39.811  1.00  0.00     0.018 C 
ATOM     13  C   UNL     1     134.599 116.263  39.267  1.00  0.00     0.028 C 
ATOM     14  C   UNL     1     135.782 118.830  40.183  1.00  0.00     0.064 C 
ATOM     15  C   UNL     1     134.197 117.625  38.689  1.00  0.00     0.017 C 
ATOM     16  C   UNL     1     136.006 116.315  39.851  1.00  0.00     0.001 A 
ATOM     17  C   UNL     1     136.531 117.523  40.327  1.00  0.00     0.047 A 
ATOM     18  N   UNL     1     137.752 117.622  40.907  1.00  0.00    -0.252 NA
ATOM     19  C   UNL     1     138.058 115.243  40.640  1.00  0.00     0.024 A 
ATOM     20  C   UNL     1     138.488 116.516  41.066  1.00  0.00     0.074 A 
ATOM     21  C   UNL     1     138.911 114.132  40.851  1.00  0.00     0.014 A 
ATOM     22  C   UNL     1     139.726 116.646  41.677  1.00  0.00     0.049 A 
ATOM     23  C   UNL     1     140.152 114.284  41.469  1.00  0.00     0.021 A 
ATOM     24  C   UNL     1     140.552 115.545  41.880  1.00  0.00     0.043 A 
ATOM     25  C   UNL     1     132.308 116.572  42.446  1.00  0.00     0.039 C 
ATOM     26  Cl  UNL     1     142.083 115.749  42.643  1.00  0.00    -0.084 Cl
ENDBRANCH   6   8
ENDBRANCH   5   6
ENDBRANCH   4   5
ENDBRANCH   3   4
ENDBRANCH   2   3
ENDBRANCH   1   2
BRANCH   1  27
ATOM     27  C   UNL     1     136.734 108.315  38.874  1.00  0.00     0.000 C 
BRANCH  27  28
ATOM     28  C   UNL     1     136.145 108.757  40.217  1.00  0.00     0.002 C 
BRANCH  28  29
ATOM     29  C   UNL     1     137.204 108.926  41.311  1.00  0.00     0.021 C 
BRANCH  29  30
ATOM     30  C   UNL     1     136.988 110.164  42.179  1.00  0.00     0.116 C 
BRANCH  30  31
ATOM     31  N   UNL     1     135.635 110.665  42.059  1.00  0.00    -0.352 N 
ATOM     32  C   UNL     1     135.325 111.994  42.205  1.00  0.00     0.256 C 
ATOM     33  O   UNL     1     136.168 112.851  42.462  1.00  0.00    -0.269 OA
ATOM     34  H   UNL     1     134.876 109.999  41.856  1.00  0.00     0.163 HD
BRANCH  32  35
ATOM     35  C   UNL     1     133.883 112.342  42.031  1.00  0.00     0.104 A 
ATOM     36  C   UNL     1     133.181 112.702  43.123  1.00  0.00     0.021 A 
ATOM     37  C   UNL     1     133.172 112.321  40.715  1.00  0.00     0.260 A 
ATOM     38  C   UNL     1     131.782 113.060  43.044  1.00  0.00     0.019 A 
ATOM     39  N   UNL     1     131.839 112.676  40.732  1.00  0.00    -0.328 N 
ATOM     40  O   UNL     1     133.731 112.005  39.667  1.00  0.00    -0.269 OA
ATOM     41  C   UNL     1     131.156 113.038  41.862  1.00  0.00     0.086 A 
ATOM     42  H   UNL     1     131.326 112.668  39.839  1.00  0.00     0.169 HD
ENDBRANCH  32  35
ENDBRANCH  30  31
ENDBRANCH  29  30
ENDBRANCH  28  29
ENDBRANCH  27  28
ENDBRANCH   1  27
TORSDOF 12
