REMARK SMILES CCCCOc1ccc(-c2c(C)ncc(C(=O)O)c2C)cc1CNC(=O)c1ccc(C(F)(F)F)cc1F
REMARK SMILES IDX 6 1 7 2 8 3 9 4 21 5 22 6 5 7 4 8 3 9 2 10 1 11 23 12 24 13
REMARK SMILES IDX 25 14 26 15 27 17 28 18 36 19 29 20 35 21 30 22 37 23 31 24
REMARK SMILES IDX 32 25 33 26 34 27 10 28 11 29 19 30 13 31 15 32 14 33 12 34
REMARK SMILES IDX 20 35 16 36 17 37 18 38
REMARK H PARENT 24 16 18 39
REMARK INDEX MAP 6 1 7 2 8 3 9 4 21 5 22 6 5 7 4 8 3 9 2 10 1 11 23 12 24 13
REMARK INDEX MAP 25 14 26 15 60 16 27 17 28 18 36 19 29 20 35 21 30 22 37 23
REMARK INDEX MAP 31 24 32 25 33 26 34 27 10 28 11 29 19 30 13 31 15 32 14 33
REMARK INDEX MAP 12 34 20 35 16 36 17 37 18 38 53 39
ROOT
ATOM      1  C   UNL     1      42.998 -38.352 107.531  1.00  0.00     0.124 A 
ATOM      2  C   UNL     1      42.271 -37.278 108.048  1.00  0.00     0.047 A 
ATOM      3  C   UNL     1      40.881 -37.360 108.180  1.00  0.00     0.012 A 
ATOM      4  C   UNL     1      40.187 -38.513 107.796  1.00  0.00    -0.016 A 
ATOM      5  C   UNL     1      40.923 -39.592 107.286  1.00  0.00     0.018 A 
ATOM      6  C   UNL     1      42.323 -39.527 107.158  1.00  0.00     0.014 A 
ENDROOT
BRANCH   1   7
ATOM      7  O   UNL     1      44.355 -38.359 107.339  1.00  0.00    -0.493 OA
BRANCH   7   8
ATOM      8  C   UNL     1      45.188 -38.105 108.469  1.00  0.00     0.229 C 
BRANCH   8   9
ATOM      9  C   UNL     1      46.196 -39.246 108.600  1.00  0.00     0.041 C 
BRANCH   9  10
ATOM     10  C   UNL     1      45.597 -40.471 109.294  1.00  0.00     0.000 C 
ATOM     11  C   UNL     1      45.948 -41.755 108.559  1.00  0.00     0.004 C 
ENDBRANCH   9  10
ENDBRANCH   8   9
ENDBRANCH   7   8
ENDBRANCH   1   7
BRANCH   6  12
ATOM     12  C   UNL     1      43.055 -40.707 106.568  1.00  0.00     0.156 C 
BRANCH  12  13
ATOM     13  N   UNL     1      43.140 -40.584 105.130  1.00  0.00    -0.348 N 
ATOM     14  C   UNL     1      43.823 -41.484 104.350  1.00  0.00     0.254 C 
ATOM     15  O   UNL     1      44.453 -42.428 104.816  1.00  0.00    -0.269 OA
ATOM     16  H   UNL     1      42.670 -39.790 104.673  1.00  0.00     0.164 HD
BRANCH  14  17
ATOM     17  C   UNL     1      43.772 -41.290 102.873  1.00  0.00     0.075 A 
ATOM     18  C   UNL     1      44.279 -42.307 102.050  1.00  0.00     0.017 A 
ATOM     19  C   UNL     1      43.245 -40.147 102.268  1.00  0.00     0.136 A 
ATOM     20  C   UNL     1      44.255 -42.179 100.657  1.00  0.00     0.014 A 
ATOM     21  C   UNL     1      43.217 -40.012 100.880  1.00  0.00     0.053 A 
ATOM     22  C   UNL     1      43.716 -41.031 100.057  1.00  0.00     0.058 A 
ATOM     23  F   UNL     1      42.748 -39.139 103.003  1.00  0.00    -0.206 F 
BRANCH  22  24
ATOM     24  C   UNL     1      43.708 -40.888  98.553  1.00  0.00     0.416 C 
ATOM     25  F   UNL     1      42.496 -40.515  98.056  1.00  0.00    -0.166 F 
ATOM     26  F   UNL     1      44.033 -42.045  97.913  1.00  0.00    -0.166 F 
ATOM     27  F   UNL     1      44.597 -39.953  98.119  1.00  0.00    -0.166 F 
ENDBRANCH  22  24
ENDBRANCH  14  17
ENDBRANCH  12  13
ENDBRANCH   6  12
BRANCH   4  28
ATOM     28  C   UNL     1      38.721 -38.585 107.917  1.00  0.00     0.007 A 
ATOM     29  C   UNL     1      37.911 -38.645 106.763  1.00  0.00     0.045 A 
ATOM     30  C   UNL     1      38.079 -38.579 109.184  1.00  0.00    -0.025 A 
ATOM     31  N   UNL     1      36.556 -38.682 106.808  1.00  0.00    -0.260 NA
ATOM     32  C   UNL     1      36.668 -38.590 109.227  1.00  0.00     0.081 A 
ATOM     33  C   UNL     1      35.972 -38.649 108.026  1.00  0.00     0.127 A 
ATOM     34  C   UNL     1      38.503 -38.670 105.380  1.00  0.00     0.067 C 
ATOM     35  C   UNL     1      38.879 -38.537 110.465  1.00  0.00     0.046 C 
BRANCH  32  36
ATOM     36  C   UNL     1      35.902 -38.500 110.493  1.00  0.00     0.337 C 
ATOM     37  O   UNL     1      35.565 -37.487 111.076  1.00  0.00    -0.246 OA
BRANCH  36  38
ATOM     38  O   UNL     1      35.595 -39.711 110.993  1.00  0.00    -0.478 OA
ATOM     39  H   UNL     1      35.084 -39.783 111.838  1.00  0.00     0.297 HD
ENDBRANCH  36  38
ENDBRANCH  32  36
ENDBRANCH   4  28
TORSDOF 11
