MODEL 1
REMARK VINA RESULT:   -11.259      0.000      0.000
REMARK INTER + INTRA:         -21.233
REMARK INTER:                 -18.828
REMARK INTRA:                  -2.405
REMARK UNBOUND:                -2.405
REMARK SMILES CCCOc1cc(F)c(C[C@H](CC)C(=O)O)cc1CNC(=O)c1ccc([C@]23C[C@H]4C[C@H](C[C@H](C4)C2)C3)cc1F
REMARK SMILES IDX 5 1 6 2 7 3 8 4 9 5 17 6 18 7 4 8 3 9 2 10 1 11 19 12 20 13
REMARK SMILES IDX 21 14 22 15 23 17 24 18 38 19 25 20 37 21 26 22 39 23 27 24
REMARK SMILES IDX 36 25 35 26 28 27 31 28 33 29 29 30 30 31 32 32 34 33 10 34
REMARK SMILES IDX 11 35 12 36 13 37 14 38 15 39 16 40
REMARK H PARENT 20 16 16 41
ROOT
ATOM      1  C   UNL     1      41.067   3.513 130.857  1.00  0.00     0.127 A 
ATOM      2  C   UNL     1      42.443   3.366 130.674  1.00  0.00     0.086 A 
ATOM      3  C   UNL     1      43.039   2.137 130.923  1.00  0.00     0.130 A 
ATOM      4  F   UNL     1      44.361   2.013 130.737  1.00  0.00    -0.207 F 
ATOM      5  C   UNL     1      42.293   1.049 131.379  1.00  0.00    -0.011 A 
ATOM      6  C   UNL     1      40.912   1.219 131.578  1.00  0.00     0.016 A 
ATOM      7  C   UNL     1      40.277   2.448 131.314  1.00  0.00     0.014 A 
ENDROOT
BRANCH   1   8
ATOM      8  O   UNL     1      40.519   4.754 130.669  1.00  0.00    -0.493 OA
BRANCH   8   9
ATOM      9  C   UNL     1      40.988   5.672 131.669  1.00  0.00     0.229 C 
BRANCH   9  10
ATOM     10  C   UNL     1      39.785   6.181 132.460  1.00  0.00     0.038 C 
ATOM     11  C   UNL     1      39.858   5.790 133.931  1.00  0.00     0.007 C 
ENDBRANCH   9  10
ENDBRANCH   8   9
ENDBRANCH   1   8
BRANCH   7  12
ATOM     12  C   UNL     1      38.801   2.633 131.583  1.00  0.00     0.156 C 
BRANCH  12  13
ATOM     13  N   UNL     1      38.503   2.822 132.988  1.00  0.00    -0.348 N 
ATOM     14  C   UNL     1      37.228   2.692 133.490  1.00  0.00     0.254 C 
ATOM     15  O   UNL     1      36.248   2.490 132.779  1.00  0.00    -0.269 OA
ATOM     16  H   UNL     1      39.280   2.950 133.624  1.00  0.00     0.164 HD
BRANCH  14  17
ATOM     17  C   UNL     1      37.058   2.805 134.967  1.00  0.00     0.075 A 
ATOM     18  C   UNL     1      37.205   4.063 135.561  1.00  0.00     0.017 A 
ATOM     19  C   UNL     1      36.757   1.722 135.789  1.00  0.00     0.136 A 
ATOM     20  C   UNL     1      37.052   4.229 136.946  1.00  0.00     0.005 A 
ATOM     21  C   UNL     1      36.609   1.883 137.170  1.00  0.00     0.044 A 
ATOM     22  C   UNL     1      36.749   3.143 137.783  1.00  0.00    -0.039 A 
ATOM     23  F   UNL     1      36.590   0.490 135.282  1.00  0.00    -0.206 F 
BRANCH  22  24
ATOM     24  C   UNL     1      36.576   3.287 139.306  1.00  0.00    -0.004 C 
ATOM     25  C   UNL     1      37.096   4.678 139.779  1.00  0.00     0.015 C 
ATOM     26  C   UNL     1      35.069   3.173 139.680  1.00  0.00     0.015 C 
ATOM     27  C   UNL     1      37.340   2.206 140.131  1.00  0.00     0.015 C 
ATOM     28  C   UNL     1      36.877   4.869 141.291  1.00  0.00    -0.010 C 
ATOM     29  C   UNL     1      34.856   3.368 141.193  1.00  0.00    -0.010 C 
ATOM     30  C   UNL     1      37.130   2.395 141.643  1.00  0.00    -0.010 C 
ATOM     31  C   UNL     1      37.643   3.781 142.057  1.00  0.00     0.007 C 
ATOM     32  C   UNL     1      35.376   4.755 141.605  1.00  0.00     0.007 C 
ATOM     33  C   UNL     1      35.632   2.287 141.961  1.00  0.00     0.007 C 
ENDBRANCH  22  24
ENDBRANCH  14  17
ENDBRANCH  12  13
ENDBRANCH   7  12
BRANCH   5  34
ATOM     34  C   UNL     1      42.953  -0.275 131.678  1.00  0.00     0.054 C 
BRANCH  34  35
ATOM     35  C   UNL     1      43.254  -0.482 133.174  1.00  0.00     0.103 C 
BRANCH  35  36
ATOM     36  C   UNL     1      44.540   0.201 133.673  1.00  0.00     0.012 C 
ATOM     37  C   UNL     1      44.330   1.266 134.742  1.00  0.00     0.005 C 
ENDBRANCH  35  36
BRANCH  35  38
ATOM     38  C   UNL     1      43.286  -1.964 133.484  1.00  0.00     0.306 C 
ATOM     39  O   UNL     1      43.110  -2.886 132.706  1.00  0.00    -0.252 OA
BRANCH  38  40
ATOM     40  O   UNL     1      43.541  -2.212 134.785  1.00  0.00    -0.481 OA
ATOM     41  H   UNL     1      44.513  -2.108 134.862  1.00  0.00     0.296 HD
ENDBRANCH  38  40
ENDBRANCH  35  38
ENDBRANCH  34  35
ENDBRANCH   5  34
TORSDOF 12
ENDMDL
