MODEL 4
REMARK VINA RESULT:    -6.324      2.051      3.754
REMARK INTER + INTRA:          -9.484
REMARK INTER:                  -9.675
REMARK INTRA:                   0.191
REMARK UNBOUND:                 1.091
REMARK SMILES CCCCN(c1cccc(-c2ccc(Cl)cc2)c1C)S(=O)(=O)c1ccc(O[C@@H](C)C(=O)O)c(OC)c1Cl
REMARK SMILES IDX 23 1 24 2 25 3 26 4 33 5 36 6 37 7 20 8 21 9 22 10 5 11 4 12
REMARK SMILES IDX 3 13 2 14 1 15 6 16 7 17 18 18 8 19 10 20 9 21 19 22 11 23
REMARK SMILES IDX 12 24 17 25 13 26 16 27 14 28 15 29 34 30 35 31 27 32 28 33
REMARK SMILES IDX 29 34 30 35 31 36 32 37
REMARK H PARENT 32 38
ROOT
ATOM      1  C   UNL     1      10.142  10.672  -9.250  1.00  0.00     0.110 A 
ATOM      2  C   UNL     1      10.020   9.427  -8.607  1.00  0.00     0.028 A 
ATOM      3  C   UNL     1      10.076   8.244  -9.343  1.00  0.00     0.052 A 
ATOM      4  C   UNL     1      10.268   8.300 -10.721  1.00  0.00     0.164 A 
ATOM      5  C   UNL     1      10.354   9.536 -11.373  1.00  0.00     0.180 A 
ATOM      6  C   UNL     1      10.298  10.735 -10.638  1.00  0.00     0.107 A 
ATOM      7  Cl  UNL     1      10.436  12.225 -11.508  1.00  0.00    -0.079 Cl
ENDROOT
BRANCH   1   8
ATOM      8  S   UNL     1      10.050  12.140  -8.247  1.00  0.00     0.265 S 
ATOM      9  O   UNL     1      10.074  13.268  -9.151  1.00  0.00    -0.201 OA
ATOM     10  O   UNL     1       8.929  11.960  -7.344  1.00  0.00    -0.201 OA
BRANCH   8  11
ATOM     11  N   UNL     1      11.488  12.089  -7.305  1.00  0.00    -0.266 N 
BRANCH  11  12
ATOM     12  C   UNL     1      11.446  11.366  -6.004  1.00  0.00     0.136 C 
BRANCH  12  13
ATOM     13  C   UNL     1      10.553  12.064  -4.977  1.00  0.00     0.022 C 
BRANCH  13  14
ATOM     14  C   UNL     1      11.326  12.820  -3.896  1.00  0.00    -0.002 C 
ATOM     15  C   UNL     1      10.961  14.297  -3.885  1.00  0.00     0.004 C 
ENDBRANCH  13  14
ENDBRANCH  12  13
ENDBRANCH  11  12
BRANCH  11  16
ATOM     16  C   UNL     1      12.237  13.333  -7.319  1.00  0.00     0.055 A 
ATOM     17  C   UNL     1      11.469  14.487  -7.117  1.00  0.00     0.027 A 
ATOM     18  C   UNL     1      13.637  13.434  -7.496  1.00  0.00    -0.019 A 
ATOM     19  C   UNL     1      12.057  15.745  -7.084  1.00  0.00     0.003 A 
ATOM     20  C   UNL     1      14.238  14.724  -7.448  1.00  0.00    -0.013 A 
ATOM     21  C   UNL     1      13.432  15.860  -7.246  1.00  0.00     0.009 A 
ATOM     22  C   UNL     1      14.523  12.225  -7.675  1.00  0.00     0.047 C 
BRANCH  20  23
ATOM     23  C   UNL     1      15.687  14.935  -7.599  1.00  0.00    -0.018 A 
ATOM     24  C   UNL     1      16.240  15.200  -8.862  1.00  0.00     0.010 A 
ATOM     25  C   UNL     1      16.541  14.915  -6.483  1.00  0.00     0.010 A 
ATOM     26  C   UNL     1      17.611  15.429  -9.010  1.00  0.00     0.021 A 
ATOM     27  C   UNL     1      17.913  15.131  -6.633  1.00  0.00     0.021 A 
ATOM     28  C   UNL     1      18.441  15.387  -7.896  1.00  0.00     0.041 A 
ATOM     29  Cl  UNL     1      20.128  15.657  -8.078  1.00  0.00    -0.084 Cl
ENDBRANCH  20  23
ENDBRANCH  11  16
ENDBRANCH   8  11
ENDBRANCH   1   8
BRANCH   5  30
ATOM     30  O   UNL     1      10.597   9.587 -12.723  1.00  0.00    -0.491 OA
ATOM     31  C   UNL     1      11.997   9.523 -12.999  1.00  0.00     0.278 C 
ENDBRANCH   5  30
BRANCH   4  32
ATOM     32  O   UNL     1      10.306   7.129 -11.430  1.00  0.00    -0.475 OA
BRANCH  32  33
ATOM     33  C   UNL     1      10.422   5.987 -10.573  1.00  0.00     0.279 C 
ATOM     34  C   UNL     1       9.744   4.818 -11.288  1.00  0.00     0.066 C 
BRANCH  33  35
ATOM     35  C   UNL     1      11.889   5.636 -10.320  1.00  0.00     0.344 C 
ATOM     36  O   UNL     1      12.367   5.002  -9.393  1.00  0.00    -0.248 OA
BRANCH  35  37
ATOM     37  O   UNL     1      12.706   6.111 -11.292  1.00  0.00    -0.479 OA
ATOM     38  H   UNL     1      12.728   7.076 -11.115  1.00  0.00     0.296 HD
ENDBRANCH  35  37
ENDBRANCH  33  35
ENDBRANCH  32  33
ENDBRANCH   4  32
TORSDOF 12
ENDMDL
