REMARK SMILES CO[C@@H](C)Cn1c(=O)n(C)c2cnc3ccc(-c4cncc(C(C)(C)O)c4)cc3c21
REMARK SMILES IDX 6 1 7 2 8 3 9 4 10 5 11 6 12 7 13 8 14 9 15 10 16 11 17 12
REMARK SMILES IDX 28 13 29 14 30 15 5 16 3 17 4 18 2 19 1 20 18 21 19 22 27 23
REMARK SMILES IDX 20 24 22 25 21 26 23 27 24 28 25 29 26 30
REMARK H PARENT 26 31
REMARK INDEX MAP 6 1 7 2 8 3 9 4 10 5 11 6 12 7 13 8 14 9 15 10 16 11 17 12
REMARK INDEX MAP 28 13 29 14 30 15 5 16 3 17 4 18 2 19 1 20 18 21 19 22 27 23
REMARK INDEX MAP 20 24 22 25 21 26 23 27 24 28 25 29 26 30 54 31
ROOT
ATOM      1  N   UNL     1      52.266  -0.074 -46.867  1.00  0.00    -0.289 N 
ATOM      2  C   UNL     1      53.557   0.432 -46.577  1.00  0.00     0.328 A 
ATOM      3  O   UNL     1      54.451   0.647 -47.379  1.00  0.00    -0.248 OA
ATOM      4  N   UNL     1      53.604   0.627 -45.192  1.00  0.00    -0.293 N 
ATOM      5  C   UNL     1      54.726   1.129 -44.453  1.00  0.00     0.155 C 
ATOM      6  C   UNL     1      52.383   0.231 -44.641  1.00  0.00     0.088 A 
ATOM      7  C   UNL     1      51.965   0.231 -43.339  1.00  0.00     0.140 A 
ATOM      8  N   UNL     1      50.735  -0.203 -42.998  1.00  0.00    -0.254 NA
ATOM      9  C   UNL     1      49.910  -0.653 -43.968  1.00  0.00     0.072 A 
ATOM     10  C   UNL     1      48.662  -1.103 -43.573  1.00  0.00     0.029 A 
ATOM     11  C   UNL     1      47.728  -1.608 -44.482  1.00  0.00     0.011 A 
ATOM     12  C   UNL     1      48.025  -1.677 -45.844  1.00  0.00    -0.016 A 
ATOM     13  C   UNL     1      49.286  -1.209 -46.253  1.00  0.00     0.021 A 
ATOM     14  C   UNL     1      50.249  -0.696 -45.345  1.00  0.00     0.027 A 
ATOM     15  C   UNL     1      51.537  -0.221 -45.657  1.00  0.00     0.080 A 
ENDROOT
BRANCH   1  16
ATOM     16  C   UNL     1      51.878  -0.398 -48.219  1.00  0.00     0.159 C 
BRANCH  16  17
ATOM     17  C   UNL     1      51.426   0.840 -49.019  1.00  0.00     0.134 C 
ATOM     18  C   UNL     1      50.034   0.609 -49.598  1.00  0.00     0.040 C 
BRANCH  17  19
ATOM     19  O   UNL     1      52.341   1.058 -50.101  1.00  0.00    -0.380 OA
ATOM     20  C   UNL     1      51.993   0.337 -51.276  1.00  0.00     0.195 C 
ENDBRANCH  17  19
ENDBRANCH  16  17
ENDBRANCH   1  16
BRANCH  12  21
ATOM     21  C   UNL     1      47.064  -2.226 -46.814  1.00  0.00     0.000 A 
ATOM     22  C   UNL     1      45.736  -2.485 -46.474  1.00  0.00     0.119 A 
ATOM     23  C   UNL     1      47.430  -2.520 -48.137  1.00  0.00     0.018 A 
ATOM     24  N   UNL     1      44.806  -2.992 -47.318  1.00  0.00    -0.264 NA
ATOM     25  C   UNL     1      46.505  -3.040 -49.056  1.00  0.00     0.002 A 
ATOM     26  C   UNL     1      45.214  -3.256 -48.579  1.00  0.00     0.117 A 
BRANCH  25  27
ATOM     27  C   UNL     1      46.882  -3.372 -50.492  1.00  0.00     0.086 C 
ATOM     28  C   UNL     1      47.951  -2.412 -51.028  1.00  0.00     0.047 C 
ATOM     29  C   UNL     1      45.643  -3.361 -51.394  1.00  0.00     0.047 C 
BRANCH  27  30
ATOM     30  O   UNL     1      47.439  -4.692 -50.551  1.00  0.00    -0.386 OA
ATOM     31  H   UNL     1      47.582  -5.031 -49.632  1.00  0.00     0.211 HD
ENDBRANCH  27  30
ENDBRANCH  25  27
ENDBRANCH  12  21
TORSDOF 6
