MODEL 1
REMARK VINA RESULT:   -11.774      0.000      0.000
REMARK INTER + INTRA:         -18.643
REMARK INTER:                 -16.592
REMARK INTRA:                  -2.051
REMARK UNBOUND:                -2.051
REMARK SMILES COc1cc(O[C@@H]2CCN(C)CC2(F)F)c2c(Nc3ccc(Oc4ccn5ccnc5c4)c(C)c3)ncnc2c1
REMARK SMILES IDX 3 1 4 2 5 3 16 4 17 5 36 6 37 7 38 8 39 9 40 10 2 11 1 12
REMARK SMILES IDX 6 13 7 14 8 15 13 16 9 17 12 18 10 19 14 20 15 21 11 22
REMARK SMILES IDX 18 23 19 25 20 26 35 27 21 28 33 29 22 30 34 31 23 32 24 33
REMARK SMILES IDX 25 34 32 35 26 36 31 37 27 38 30 39 28 40 29 41
REMARK H PARENT 18 24
ROOT
ATOM      1  C   UNL     1      16.477  36.261  18.208  1.00  0.00     0.124 A 
ATOM      2  C   UNL     1      17.627  36.184  17.431  1.00  0.00     0.093 A 
ATOM      3  C   UNL     1      17.593  35.576  16.173  1.00  0.00     0.136 A 
ATOM      4  C   UNL     1      16.372  35.011  15.677  1.00  0.00     0.085 A 
ATOM      5  C   UNL     1      16.165  34.350  14.432  1.00  0.00     0.145 A 
ATOM      6  N   UNL     1      14.961  33.861  14.076  1.00  0.00    -0.218 NA
ATOM      7  C   UNL     1      13.960  34.010  14.940  1.00  0.00     0.224 A 
ATOM      8  N   UNL     1      14.034  34.609  16.129  1.00  0.00    -0.236 NA
ATOM      9  C   UNL     1      15.224  35.098  16.483  1.00  0.00     0.083 A 
ATOM     10  C   UNL     1      15.292  35.718  17.723  1.00  0.00     0.075 A 
ENDROOT
BRANCH   1  11
ATOM     11  O   UNL     1      16.644  36.882  19.415  1.00  0.00    -0.497 OA
ATOM     12  C   UNL     1      17.894  37.521  19.649  1.00  0.00     0.278 C 
ENDBRANCH   1  11
BRANCH   3  13
ATOM     13  O   UNL     1      18.699  35.451  15.366  1.00  0.00    -0.483 OA
BRANCH  13  14
ATOM     14  C   UNL     1      19.971  35.078  15.930  1.00  0.00     0.245 C 
ATOM     15  C   UNL     1      21.039  36.115  15.571  1.00  0.00     0.067 C 
ATOM     16  C   UNL     1      20.376  33.711  15.360  1.00  0.00     0.296 C 
ATOM     17  C   UNL     1      22.422  35.681  16.059  1.00  0.00     0.088 C 
ATOM     18  C   UNL     1      21.806  33.339  15.782  1.00  0.00     0.165 C 
ATOM     19  N   UNL     1      22.804  34.388  15.485  1.00  0.00    -0.300 NA
ATOM     20  F   UNL     1      19.517  32.754  15.804  1.00  0.00    -0.201 F 
ATOM     21  F   UNL     1      20.278  33.713  14.004  1.00  0.00    -0.201 F 
ATOM     22  C   UNL     1      24.135  33.982  15.939  1.00  0.00     0.105 C 
ENDBRANCH  13  14
ENDBRANCH   3  13
BRANCH   5  23
ATOM     23  N   UNL     1      17.245  34.211  13.531  1.00  0.00    -0.339 N 
ATOM     24  H   UNL     1      18.143  34.254  14.001  1.00  0.00     0.168 HD
BRANCH  23  25
ATOM     25  C   UNL     1      17.326  33.924  12.158  1.00  0.00     0.040 A 
ATOM     26  C   UNL     1      18.192  32.975  11.608  1.00  0.00     0.030 A 
ATOM     27  C   UNL     1      16.494  34.642  11.277  1.00  0.00     0.033 A 
ATOM     28  C   UNL     1      18.224  32.737  10.231  1.00  0.00     0.049 A 
ATOM     29  C   UNL     1      16.519  34.429   9.890  1.00  0.00    -0.006 A 
ATOM     30  C   UNL     1      17.373  33.445   9.384  1.00  0.00     0.130 A 
ATOM     31  C   UNL     1      15.607  35.213   8.991  1.00  0.00     0.048 C 
BRANCH  30  32
ATOM     32  O   UNL     1      17.431  33.213   8.033  1.00  0.00    -0.457 OA
BRANCH  32  33
ATOM     33  C   UNL     1      17.101  31.955   7.525  1.00  0.00     0.132 A 
ATOM     34  C   UNL     1      18.130  31.062   6.980  1.00  0.00     0.065 A 
ATOM     35  C   UNL     1      15.811  31.565   7.570  1.00  0.00     0.094 A 
ATOM     36  C   UNL     1      17.770  29.852   6.513  1.00  0.00     0.096 A 
ATOM     37  C   UNL     1      15.426  30.286   7.078  1.00  0.00     0.140 A 
ATOM     38  N   UNL     1      16.432  29.476   6.563  1.00  0.00    -0.307 N 
ATOM     39  N   UNL     1      14.252  29.691   7.013  1.00  0.00    -0.237 NA
ATOM     40  C   UNL     1      15.832  28.312   6.156  1.00  0.00     0.113 A 
ATOM     41  C   UNL     1      14.495  28.468   6.443  1.00  0.00     0.132 A 
ENDBRANCH  32  33
ENDBRANCH  30  32
ENDBRANCH  23  25
ENDBRANCH   5  23
TORSDOF 7
ENDMDL
MODEL 2
REMARK VINA RESULT:   -11.233      1.329      1.730
REMARK INTER + INTRA:         -17.880
REMARK INTER:                 -16.089
REMARK INTRA:                  -1.791
REMARK UNBOUND:                -2.051
REMARK SMILES COc1cc(O[C@@H]2CCN(C)CC2(F)F)c2c(Nc3ccc(Oc4ccn5ccnc5c4)c(C)c3)ncnc2c1
REMARK SMILES IDX 3 1 4 2 5 3 16 4 17 5 36 6 37 7 38 8 39 9 40 10 2 11 1 12
REMARK SMILES IDX 6 13 7 14 8 15 13 16 9 17 12 18 10 19 14 20 15 21 11 22
REMARK SMILES IDX 18 23 19 25 20 26 35 27 21 28 33 29 22 30 34 31 23 32 24 33
REMARK SMILES IDX 25 34 32 35 26 36 31 37 27 38 30 39 28 40 29 41
REMARK H PARENT 18 24
ROOT
ATOM      1  C   UNL     1      17.826  35.412  19.081  1.00  0.00     0.124 A 
ATOM      2  C   UNL     1      18.852  34.911  18.288  1.00  0.00     0.093 A 
ATOM      3  C   UNL     1      18.597  34.492  16.980  1.00  0.00     0.136 A 
ATOM      4  C   UNL     1      17.267  34.560  16.446  1.00  0.00     0.085 A 
ATOM      5  C   UNL     1      16.833  34.166  15.148  1.00  0.00     0.145 A 
ATOM      6  N   UNL     1      15.548  34.284  14.760  1.00  0.00    -0.218 NA
ATOM      7  C   UNL     1      14.684  34.776  15.644  1.00  0.00     0.224 A 
ATOM      8  N   UNL     1      14.974  35.177  16.883  1.00  0.00    -0.236 NA
ATOM      9  C   UNL     1      16.246  35.066  17.269  1.00  0.00     0.083 A 
ATOM     10  C   UNL     1      16.538  35.483  18.560  1.00  0.00     0.075 A 
ENDROOT
BRANCH   1  11
ATOM     11  O   UNL     1      18.207  35.789  20.339  1.00  0.00    -0.497 OA
ATOM     12  C   UNL     1      19.350  36.631  20.445  1.00  0.00     0.278 C 
ENDBRANCH   1  11
BRANCH   3  13
ATOM     13  O   UNL     1      19.564  33.970  16.153  1.00  0.00    -0.483 OA
BRANCH  13  14
ATOM     14  C   UNL     1      20.772  34.709  15.892  1.00  0.00     0.245 C 
ATOM     15  C   UNL     1      20.468  35.946  15.043  1.00  0.00     0.067 C 
ATOM     16  C   UNL     1      21.749  33.798  15.136  1.00  0.00     0.296 C 
ATOM     17  C   UNL     1      21.751  36.683  14.654  1.00  0.00     0.088 C 
ATOM     18  C   UNL     1      22.985  34.581  14.670  1.00  0.00     0.165 C 
ATOM     19  N   UNL     1      22.661  35.806  13.910  1.00  0.00    -0.300 NA
ATOM     20  F   UNL     1      22.146  32.777  15.944  1.00  0.00    -0.201 F 
ATOM     21  F   UNL     1      21.133  33.222  14.069  1.00  0.00    -0.201 F 
ATOM     22  C   UNL     1      23.880  36.517  13.524  1.00  0.00     0.105 C 
ENDBRANCH  13  14
ENDBRANCH   3  13
BRANCH   5  23
ATOM     23  N   UNL     1      17.773  33.653  14.227  1.00  0.00    -0.339 N 
ATOM     24  H   UNL     1      18.588  33.262  14.690  1.00  0.00     0.168 HD
BRANCH  23  25
ATOM     25  C   UNL     1      17.763  33.476  12.833  1.00  0.00     0.040 A 
ATOM     26  C   UNL     1      18.506  32.501  12.163  1.00  0.00     0.030 A 
ATOM     27  C   UNL     1      16.965  34.341  12.058  1.00  0.00     0.033 A 
ATOM     28  C   UNL     1      18.451  32.378  10.771  1.00  0.00     0.049 A 
ATOM     29  C   UNL     1      16.905  34.245  10.659  1.00  0.00    -0.006 A 
ATOM     30  C   UNL     1      17.635  33.232  10.031  1.00  0.00     0.130 A 
ATOM     31  C   UNL     1      16.033  35.183   9.876  1.00  0.00     0.048 C 
BRANCH  30  32
ATOM     32  O   UNL     1      17.608  33.110   8.664  1.00  0.00    -0.457 OA
BRANCH  32  33
ATOM     33  C   UNL     1      16.990  32.007   8.072  1.00  0.00     0.132 A 
ATOM     34  C   UNL     1      15.533  31.946   7.914  1.00  0.00     0.065 A 
ATOM     35  C   UNL     1      17.769  31.003   7.621  1.00  0.00     0.094 A 
ATOM     36  C   UNL     1      14.980  30.869   7.325  1.00  0.00     0.096 A 
ATOM     37  C   UNL     1      17.189  29.863   6.997  1.00  0.00     0.140 A 
ATOM     38  N   UNL     1      15.805  29.844   6.876  1.00  0.00    -0.307 N 
ATOM     39  N   UNL     1      17.730  28.776   6.486  1.00  0.00    -0.237 NA
ATOM     40  C   UNL     1      15.479  28.666   6.253  1.00  0.00     0.113 A 
ATOM     41  C   UNL     1      16.677  28.029   6.023  1.00  0.00     0.132 A 
ENDBRANCH  32  33
ENDBRANCH  30  32
ENDBRANCH  23  25
ENDBRANCH   5  23
TORSDOF 7
ENDMDL
MODEL 3
REMARK VINA RESULT:   -10.990      1.777      2.144
REMARK INTER + INTRA:         -17.539
REMARK INTER:                 -15.411
REMARK INTRA:                  -2.128
REMARK UNBOUND:                -2.051
REMARK SMILES COc1cc(O[C@@H]2CCN(C)CC2(F)F)c2c(Nc3ccc(Oc4ccn5ccnc5c4)c(C)c3)ncnc2c1
REMARK SMILES IDX 3 1 4 2 5 3 16 4 17 5 36 6 37 7 38 8 39 9 40 10 2 11 1 12
REMARK SMILES IDX 6 13 7 14 8 15 13 16 9 17 12 18 10 19 14 20 15 21 11 22
REMARK SMILES IDX 18 23 19 25 20 26 35 27 21 28 33 29 22 30 34 31 23 32 24 33
REMARK SMILES IDX 25 34 32 35 26 36 31 37 27 38 30 39 28 40 29 41
REMARK H PARENT 18 24
ROOT
ATOM      1  C   UNL     1      19.576  36.471  17.974  1.00  0.00     0.124 A 
ATOM      2  C   UNL     1      20.303  35.690  17.084  1.00  0.00     0.093 A 
ATOM      3  C   UNL     1      19.648  34.880  16.152  1.00  0.00     0.136 A 
ATOM      4  C   UNL     1      18.215  34.836  16.116  1.00  0.00     0.085 A 
ATOM      5  C   UNL     1      17.393  34.063  15.247  1.00  0.00     0.145 A 
ATOM      6  N   UNL     1      16.048  34.110  15.308  1.00  0.00    -0.218 NA
ATOM      7  C   UNL     1      15.504  34.906  16.226  1.00  0.00     0.224 A 
ATOM      8  N   UNL     1      16.170  35.674  17.090  1.00  0.00    -0.236 NA
ATOM      9  C   UNL     1      17.502  35.632  17.029  1.00  0.00     0.083 A 
ATOM     10  C   UNL     1      18.187  36.433  17.933  1.00  0.00     0.075 A 
ENDROOT
BRANCH   1  11
ATOM     11  O   UNL     1      20.336  37.219  18.831  1.00  0.00    -0.497 OA
ATOM     12  C   UNL     1      21.727  36.923  18.891  1.00  0.00     0.278 C 
ENDBRANCH   1  11
BRANCH   3  13
ATOM     13  O   UNL     1      20.309  34.071  15.259  1.00  0.00    -0.483 OA
BRANCH  13  14
ATOM     14  C   UNL     1      21.551  34.502  14.671  1.00  0.00     0.245 C 
ATOM     15  C   UNL     1      21.448  34.499  13.144  1.00  0.00     0.067 C 
ATOM     16  C   UNL     1      22.661  33.534  15.109  1.00  0.00     0.296 C 
ATOM     17  C   UNL     1      22.790  34.840  12.494  1.00  0.00     0.088 C 
ATOM     18  C   UNL     1      23.975  33.833  14.371  1.00  0.00     0.165 C 
ATOM     19  N   UNL     1      23.832  33.892  12.902  1.00  0.00    -0.300 NA
ATOM     20  F   UNL     1      22.866  33.646  16.449  1.00  0.00    -0.201 F 
ATOM     21  F   UNL     1      22.285  32.247  14.886  1.00  0.00    -0.201 F 
ATOM     22  C   UNL     1      25.111  34.209  12.267  1.00  0.00     0.105 C 
ENDBRANCH  13  14
ENDBRANCH   3  13
BRANCH   5  23
ATOM     23  N   UNL     1      17.996  33.231  14.277  1.00  0.00    -0.339 N 
ATOM     24  H   UNL     1      18.532  32.479  14.699  1.00  0.00     0.168 HD
BRANCH  23  25
ATOM     25  C   UNL     1      17.920  33.169  12.876  1.00  0.00     0.040 A 
ATOM     26  C   UNL     1      18.628  32.251  12.094  1.00  0.00     0.030 A 
ATOM     27  C   UNL     1      17.090  34.093  12.212  1.00  0.00     0.033 A 
ATOM     28  C   UNL     1      18.507  32.242  10.701  1.00  0.00     0.049 A 
ATOM     29  C   UNL     1      16.963  34.111  10.814  1.00  0.00    -0.006 A 
ATOM     30  C   UNL     1      17.660  33.153  10.072  1.00  0.00     0.130 A 
ATOM     31  C   UNL     1      16.060  35.110  10.152  1.00  0.00     0.048 C 
BRANCH  30  32
ATOM     32  O   UNL     1      17.568  33.143   8.703  1.00  0.00    -0.457 OA
BRANCH  32  33
ATOM     33  C   UNL     1      17.154  31.987   8.038  1.00  0.00     0.132 A 
ATOM     34  C   UNL     1      18.076  31.231   7.182  1.00  0.00     0.065 A 
ATOM     35  C   UNL     1      15.888  31.560   8.223  1.00  0.00     0.094 A 
ATOM     36  C   UNL     1      17.640  30.114   6.571  1.00  0.00     0.096 A 
ATOM     37  C   UNL     1      15.423  30.380   7.579  1.00  0.00     0.140 A 
ATOM     38  N   UNL     1      16.327  29.701   6.770  1.00  0.00    -0.307 N 
ATOM     39  N   UNL     1      14.253  29.775   7.601  1.00  0.00    -0.237 NA
ATOM     40  C   UNL     1      15.665  28.612   6.265  1.00  0.00     0.113 A 
ATOM     41  C   UNL     1      14.394  28.679   6.790  1.00  0.00     0.132 A 
ENDBRANCH  32  33
ENDBRANCH  30  32
ENDBRANCH  23  25
ENDBRANCH   5  23
TORSDOF 7
ENDMDL
MODEL 4
REMARK VINA RESULT:   -10.327      1.890      4.754
REMARK INTER + INTRA:         -16.604
REMARK INTER:                 -15.231
REMARK INTRA:                  -1.373
REMARK UNBOUND:                -2.051
REMARK SMILES COc1cc(O[C@@H]2CCN(C)CC2(F)F)c2c(Nc3ccc(Oc4ccn5ccnc5c4)c(C)c3)ncnc2c1
REMARK SMILES IDX 3 1 4 2 5 3 16 4 17 5 36 6 37 7 38 8 39 9 40 10 2 11 1 12
REMARK SMILES IDX 6 13 7 14 8 15 13 16 9 17 12 18 10 19 14 20 15 21 11 22
REMARK SMILES IDX 18 23 19 25 20 26 35 27 21 28 33 29 22 30 34 31 23 32 24 33
REMARK SMILES IDX 25 34 32 35 26 36 31 37 27 38 30 39 28 40 29 41
REMARK H PARENT 18 24
ROOT
ATOM      1  C   UNL     1      22.816  34.991  17.047  1.00  0.00     0.124 A 
ATOM      2  C   UNL     1      21.481  34.607  16.992  1.00  0.00     0.093 A 
ATOM      3  C   UNL     1      20.895  34.251  15.775  1.00  0.00     0.136 A 
ATOM      4  C   UNL     1      21.663  34.293  14.564  1.00  0.00     0.085 A 
ATOM      5  C   UNL     1      21.224  33.977  13.247  1.00  0.00     0.145 A 
ATOM      6  N   UNL     1      22.047  34.052  12.183  1.00  0.00    -0.218 NA
ATOM      7  C   UNL     1      23.299  34.446  12.404  1.00  0.00     0.224 A 
ATOM      8  N   UNL     1      23.821  34.766  13.589  1.00  0.00    -0.236 NA
ATOM      9  C   UNL     1      23.010  34.689  14.645  1.00  0.00     0.083 A 
ATOM     10  C   UNL     1      23.561  35.025  15.874  1.00  0.00     0.075 A 
ENDROOT
BRANCH   1  11
ATOM     11  O   UNL     1      23.268  35.312  18.298  1.00  0.00    -0.497 OA
ATOM     12  C   UNL     1      23.103  34.334  19.317  1.00  0.00     0.278 C 
ENDBRANCH   1  11
BRANCH   3  13
ATOM     13  O   UNL     1      19.577  33.881  15.652  1.00  0.00    -0.483 OA
BRANCH  13  14
ATOM     14  C   UNL     1      18.541  34.673  16.264  1.00  0.00     0.245 C 
ATOM     15  C   UNL     1      18.042  34.000  17.545  1.00  0.00     0.067 C 
ATOM     16  C   UNL     1      17.377  34.806  15.271  1.00  0.00     0.296 C 
ATOM     17  C   UNL     1      16.861  34.762  18.150  1.00  0.00     0.088 C 
ATOM     18  C   UNL     1      16.167  35.487  15.929  1.00  0.00     0.165 C 
ATOM     19  N   UNL     1      15.749  34.857  17.200  1.00  0.00    -0.300 NA
ATOM     20  F   UNL     1      17.771  35.541  14.196  1.00  0.00    -0.201 F 
ATOM     21  F   UNL     1      17.020  33.586  14.790  1.00  0.00    -0.201 F 
ATOM     22  C   UNL     1      14.615  35.571  17.785  1.00  0.00     0.105 C 
ENDBRANCH  13  14
ENDBRANCH   3  13
BRANCH   5  23
ATOM     23  N   UNL     1      19.891  33.555  13.042  1.00  0.00    -0.339 N 
ATOM     24  H   UNL     1      19.399  33.402  13.917  1.00  0.00     0.168 HD
BRANCH  23  25
ATOM     25  C   UNL     1      19.089  33.410  11.897  1.00  0.00     0.040 A 
ATOM     26  C   UNL     1      19.197  32.348  10.995  1.00  0.00     0.030 A 
ATOM     27  C   UNL     1      18.122  34.400  11.633  1.00  0.00     0.033 A 
ATOM     28  C   UNL     1      18.366  32.264   9.874  1.00  0.00     0.049 A 
ATOM     29  C   UNL     1      17.286  34.342  10.507  1.00  0.00    -0.006 A 
ATOM     30  C   UNL     1      17.402  33.244   9.649  1.00  0.00     0.130 A 
ATOM     31  C   UNL     1      16.264  35.416  10.271  1.00  0.00     0.048 C 
BRANCH  30  32
ATOM     32  O   UNL     1      16.608  33.156   8.533  1.00  0.00    -0.457 OA
BRANCH  32  33
ATOM     33  C   UNL     1      16.466  31.935   7.871  1.00  0.00     0.132 A 
ATOM     34  C   UNL     1      17.583  31.338   7.131  1.00  0.00     0.065 A 
ATOM     35  C   UNL     1      15.280  31.299   7.949  1.00  0.00     0.094 A 
ATOM     36  C   UNL     1      17.407  30.152   6.518  1.00  0.00     0.096 A 
ATOM     37  C   UNL     1      15.089  30.045   7.303  1.00  0.00     0.140 A 
ATOM     38  N   UNL     1      16.171  29.521   6.606  1.00  0.00    -0.307 N 
ATOM     39  N   UNL     1      14.043  29.247   7.235  1.00  0.00    -0.237 NA
ATOM     40  C   UNL     1      15.758  28.325   6.076  1.00  0.00     0.113 A 
ATOM     41  C   UNL     1      14.449  28.179   6.476  1.00  0.00     0.132 A 
ENDBRANCH  32  33
ENDBRANCH  30  32
ENDBRANCH  23  25
ENDBRANCH   5  23
TORSDOF 7
ENDMDL
MODEL 5
REMARK VINA RESULT:   -10.139      3.697      8.230
REMARK INTER + INTRA:         -16.339
REMARK INTER:                 -14.457
REMARK INTRA:                  -1.881
REMARK UNBOUND:                -2.051
REMARK SMILES COc1cc(O[C@@H]2CCN(C)CC2(F)F)c2c(Nc3ccc(Oc4ccn5ccnc5c4)c(C)c3)ncnc2c1
REMARK SMILES IDX 3 1 4 2 5 3 16 4 17 5 36 6 37 7 38 8 39 9 40 10 2 11 1 12
REMARK SMILES IDX 6 13 7 14 8 15 13 16 9 17 12 18 10 19 14 20 15 21 11 22
REMARK SMILES IDX 18 23 19 25 20 26 35 27 21 28 33 29 22 30 34 31 23 32 24 33
REMARK SMILES IDX 25 34 32 35 26 36 31 37 27 38 30 39 28 40 29 41
REMARK H PARENT 18 24
ROOT
ATOM      1  C   UNL     1      14.917  34.184  15.397  1.00  0.00     0.124 A 
ATOM      2  C   UNL     1      15.678  34.146  14.234  1.00  0.00     0.093 A 
ATOM      3  C   UNL     1      17.073  34.194  14.297  1.00  0.00     0.136 A 
ATOM      4  C   UNL     1      17.735  34.298  15.565  1.00  0.00     0.085 A 
ATOM      5  C   UNL     1      19.136  34.370  15.808  1.00  0.00     0.145 A 
ATOM      6  N   UNL     1      19.641  34.463  17.054  1.00  0.00    -0.218 NA
ATOM      7  C   UNL     1      18.774  34.496  18.064  1.00  0.00     0.224 A 
ATOM      8  N   UNL     1      17.446  34.436  17.958  1.00  0.00    -0.236 NA
ATOM      9  C   UNL     1      16.944  34.339  16.726  1.00  0.00     0.083 A 
ATOM     10  C   UNL     1      15.561  34.279  16.626  1.00  0.00     0.075 A 
ENDROOT
BRANCH   1  11
ATOM     11  O   UNL     1      13.565  34.128  15.198  1.00  0.00    -0.497 OA
ATOM     12  C   UNL     1      13.115  33.662  13.931  1.00  0.00     0.278 C 
ENDBRANCH   1  11
BRANCH   3  13
ATOM     13  O   UNL     1      17.879  34.179  13.184  1.00  0.00    -0.483 OA
BRANCH  13  14
ATOM     14  C   UNL     1      17.588  33.290  12.088  1.00  0.00     0.245 C 
ATOM     15  C   UNL     1      18.849  32.528  11.670  1.00  0.00     0.067 C 
ATOM     16  C   UNL     1      17.080  34.124  10.903  1.00  0.00     0.296 C 
ATOM     17  C   UNL     1      18.593  31.665  10.434  1.00  0.00     0.088 C 
ATOM     18  C   UNL     1      16.923  33.256   9.646  1.00  0.00     0.165 C 
ATOM     19  N   UNL     1      18.134  32.479   9.305  1.00  0.00    -0.300 NA
ATOM     20  F   UNL     1      15.877  34.679  11.214  1.00  0.00    -0.201 F 
ATOM     21  F   UNL     1      17.925  35.158  10.652  1.00  0.00    -0.201 F 
ATOM     22  C   UNL     1      17.905  31.655   8.118  1.00  0.00     0.105 C 
ENDBRANCH  13  14
ENDBRANCH   3  13
BRANCH   5  23
ATOM     23  N   UNL     1      20.034  34.326  14.718  1.00  0.00    -0.339 N 
ATOM     24  H   UNL     1      19.562  34.454  13.828  1.00  0.00     0.168 HD
BRANCH  23  25
ATOM     25  C   UNL     1      21.434  34.250  14.621  1.00  0.00     0.040 A 
ATOM     26  C   UNL     1      22.184  33.130  14.990  1.00  0.00     0.030 A 
ATOM     27  C   UNL     1      22.129  35.374  14.132  1.00  0.00     0.033 A 
ATOM     28  C   UNL     1      23.576  33.120  14.868  1.00  0.00     0.049 A 
ATOM     29  C   UNL     1      23.527  35.390  14.014  1.00  0.00    -0.006 A 
ATOM     30  C   UNL     1      24.237  34.237  14.360  1.00  0.00     0.130 A 
ATOM     31  C   UNL     1      24.224  36.608  13.480  1.00  0.00     0.048 C 
BRANCH  30  32
ATOM     32  O   UNL     1      25.606  34.217  14.265  1.00  0.00    -0.457 OA
BRANCH  32  33
ATOM     33  C   UNL     1      26.234  33.315  13.404  1.00  0.00     0.132 A 
ATOM     34  C   UNL     1      25.768  33.129  12.025  1.00  0.00     0.065 A 
ATOM     35  C   UNL     1      27.304  32.633  13.861  1.00  0.00     0.094 A 
ATOM     36  C   UNL     1      26.411  32.259  11.224  1.00  0.00     0.096 A 
ATOM     37  C   UNL     1      27.987  31.713  13.018  1.00  0.00     0.140 A 
ATOM     38  N   UNL     1      27.506  31.562  11.723  1.00  0.00    -0.307 N 
ATOM     39  N   UNL     1      29.036  30.943  13.231  1.00  0.00    -0.237 NA
ATOM     40  C   UNL     1      28.311  30.639  11.106  1.00  0.00     0.113 A 
ATOM     41  C   UNL     1      29.242  30.274  12.053  1.00  0.00     0.132 A 
ENDBRANCH  32  33
ENDBRANCH  30  32
ENDBRANCH  23  25
ENDBRANCH   5  23
TORSDOF 7
ENDMDL
MODEL 6
REMARK VINA RESULT:   -10.056      3.686      8.506
REMARK INTER + INTRA:         -16.221
REMARK INTER:                 -14.269
REMARK INTRA:                  -1.952
REMARK UNBOUND:                -2.051
REMARK SMILES COc1cc(O[C@@H]2CCN(C)CC2(F)F)c2c(Nc3ccc(Oc4ccn5ccnc5c4)c(C)c3)ncnc2c1
REMARK SMILES IDX 3 1 4 2 5 3 16 4 17 5 36 6 37 7 38 8 39 9 40 10 2 11 1 12
REMARK SMILES IDX 6 13 7 14 8 15 13 16 9 17 12 18 10 19 14 20 15 21 11 22
REMARK SMILES IDX 18 23 19 25 20 26 35 27 21 28 33 29 22 30 34 31 23 32 24 33
REMARK SMILES IDX 25 34 32 35 26 36 31 37 27 38 30 39 28 40 29 41
REMARK H PARENT 18 24
ROOT
ATOM      1  C   UNL     1      15.653  34.094  15.883  1.00  0.00     0.124 A 
ATOM      2  C   UNL     1      16.038  34.208  14.552  1.00  0.00     0.093 A 
ATOM      3  C   UNL     1      17.388  34.333  14.212  1.00  0.00     0.136 A 
ATOM      4  C   UNL     1      18.391  34.361  15.237  1.00  0.00     0.085 A 
ATOM      5  C   UNL     1      19.799  34.493  15.069  1.00  0.00     0.145 A 
ATOM      6  N   UNL     1      20.645  34.502  16.119  1.00  0.00    -0.218 NA
ATOM      7  C   UNL     1      20.113  34.391  17.334  1.00  0.00     0.224 A 
ATOM      8  N   UNL     1      18.816  34.261  17.612  1.00  0.00    -0.236 NA
ATOM      9  C   UNL     1      17.976  34.248  16.576  1.00  0.00     0.083 A 
ATOM     10  C   UNL     1      16.627  34.114  16.875  1.00  0.00     0.075 A 
ENDROOT
BRANCH   1  11
ATOM     11  O   UNL     1      14.305  33.976  16.080  1.00  0.00    -0.497 OA
ATOM     12  C   UNL     1      13.465  34.160  14.946  1.00  0.00     0.278 C 
ENDBRANCH   1  11
BRANCH   3  13
ATOM     13  O   UNL     1      17.831  34.469  12.918  1.00  0.00    -0.483 OA
BRANCH  13  14
ATOM     14  C   UNL     1      17.521  33.462  11.935  1.00  0.00     0.245 C 
ATOM     15  C   UNL     1      18.807  32.846  11.378  1.00  0.00     0.067 C 
ATOM     16  C   UNL     1      16.734  34.120  10.792  1.00  0.00     0.296 C 
ATOM     17  C   UNL     1      18.507  31.858  10.250  1.00  0.00     0.088 C 
ATOM     18  C   UNL     1      16.530  33.140   9.628  1.00  0.00     0.165 C 
ATOM     19  N   UNL     1      17.780  32.509   9.156  1.00  0.00    -0.300 NA
ATOM     20  F   UNL     1      15.520  34.532  11.247  1.00  0.00    -0.201 F 
ATOM     21  F   UNL     1      17.376  35.236  10.354  1.00  0.00    -0.201 F 
ATOM     22  C   UNL     1      17.509  31.567   8.069  1.00  0.00     0.105 C 
ENDBRANCH  13  14
ENDBRANCH   3  13
BRANCH   5  23
ATOM     23  N   UNL     1      20.336  34.603  13.767  1.00  0.00    -0.339 N 
ATOM     24  H   UNL     1      19.697  35.064  13.127  1.00  0.00     0.168 HD
BRANCH  23  25
ATOM     25  C   UNL     1      21.593  34.309  13.213  1.00  0.00     0.040 A 
ATOM     26  C   UNL     1      22.119  33.018  13.110  1.00  0.00     0.030 A 
ATOM     27  C   UNL     1      22.379  35.378  12.740  1.00  0.00     0.033 A 
ATOM     28  C   UNL     1      23.379  32.793  12.546  1.00  0.00     0.049 A 
ATOM     29  C   UNL     1      23.652  35.177  12.183  1.00  0.00    -0.006 A 
ATOM     30  C   UNL     1      24.126  33.867  12.065  1.00  0.00     0.130 A 
ATOM     31  C   UNL     1      24.450  36.347  11.686  1.00  0.00     0.048 C 
BRANCH  30  32
ATOM     32  O   UNL     1      25.368  33.630  11.533  1.00  0.00    -0.457 OA
BRANCH  32  33
ATOM     33  C   UNL     1      26.369  33.056  12.320  1.00  0.00     0.132 A 
ATOM     34  C   UNL     1      27.229  31.989  11.796  1.00  0.00     0.065 A 
ATOM     35  C   UNL     1      26.548  33.526  13.571  1.00  0.00     0.094 A 
ATOM     36  C   UNL     1      28.190  31.473  12.584  1.00  0.00     0.096 A 
ATOM     37  C   UNL     1      27.563  32.984  14.407  1.00  0.00     0.140 A 
ATOM     38  N   UNL     1      28.349  31.969  13.874  1.00  0.00    -0.307 N 
ATOM     39  N   UNL     1      27.924  33.269  15.642  1.00  0.00    -0.237 NA
ATOM     40  C   UNL     1      29.245  31.610  14.847  1.00  0.00     0.113 A 
ATOM     41  C   UNL     1      28.965  32.423  15.922  1.00  0.00     0.132 A 
ENDBRANCH  32  33
ENDBRANCH  30  32
ENDBRANCH  23  25
ENDBRANCH   5  23
TORSDOF 7
ENDMDL
MODEL 7
REMARK VINA RESULT:    -9.720      3.812      8.113
REMARK INTER + INTRA:         -15.748
REMARK INTER:                 -13.524
REMARK INTRA:                  -2.225
REMARK UNBOUND:                -2.051
REMARK SMILES COc1cc(O[C@@H]2CCN(C)CC2(F)F)c2c(Nc3ccc(Oc4ccn5ccnc5c4)c(C)c3)ncnc2c1
REMARK SMILES IDX 3 1 4 2 5 3 16 4 17 5 36 6 37 7 38 8 39 9 40 10 2 11 1 12
REMARK SMILES IDX 6 13 7 14 8 15 13 16 9 17 12 18 10 19 14 20 15 21 11 22
REMARK SMILES IDX 18 23 19 25 20 26 35 27 21 28 33 29 22 30 34 31 23 32 24 33
REMARK SMILES IDX 25 34 32 35 26 36 31 37 27 38 30 39 28 40 29 41
REMARK H PARENT 18 24
ROOT
ATOM      1  C   UNL     1      15.305  33.630  13.156  1.00  0.00     0.124 A 
ATOM      2  C   UNL     1      16.070  34.340  14.074  1.00  0.00     0.093 A 
ATOM      3  C   UNL     1      17.465  34.321  14.001  1.00  0.00     0.136 A 
ATOM      4  C   UNL     1      18.124  33.554  12.983  1.00  0.00     0.085 A 
ATOM      5  C   UNL     1      19.526  33.416  12.773  1.00  0.00     0.145 A 
ATOM      6  N   UNL     1      20.026  32.664  11.772  1.00  0.00    -0.218 NA
ATOM      7  C   UNL     1      19.156  32.040  10.982  1.00  0.00     0.224 A 
ATOM      8  N   UNL     1      17.827  32.096  11.082  1.00  0.00    -0.236 NA
ATOM      9  C   UNL     1      17.329  32.842  12.068  1.00  0.00     0.083 A 
ATOM     10  C   UNL     1      15.945  32.893  12.166  1.00  0.00     0.075 A 
ENDROOT
BRANCH   1  11
ATOM     11  O   UNL     1      13.953  33.734  13.337  1.00  0.00    -0.497 OA
ATOM     12  C   UNL     1      13.495  34.013  14.654  1.00  0.00     0.278 C 
ENDBRANCH   1  11
BRANCH   3  13
ATOM     13  O   UNL     1      18.277  34.985  14.889  1.00  0.00    -0.483 OA
BRANCH  13  14
ATOM     14  C   UNL     1      18.034  34.888  16.306  1.00  0.00     0.245 C 
ATOM     15  C   UNL     1      17.613  36.248  16.870  1.00  0.00     0.067 C 
ATOM     16  C   UNL     1      19.328  34.430  16.994  1.00  0.00     0.296 C 
ATOM     17  C   UNL     1      17.463  36.198  18.391  1.00  0.00     0.088 C 
ATOM     18  C   UNL     1      19.188  34.481  18.523  1.00  0.00     0.165 C 
ATOM     19  N   UNL     1      18.714  35.785  19.033  1.00  0.00    -0.300 NA
ATOM     20  F   UNL     1      19.625  33.158  16.615  1.00  0.00    -0.201 F 
ATOM     21  F   UNL     1      20.376  35.201  16.597  1.00  0.00    -0.201 F 
ATOM     22  C   UNL     1      18.575  35.753  20.489  1.00  0.00     0.105 C 
ENDBRANCH  13  14
ENDBRANCH   3  13
BRANCH   5  23
ATOM     23  N   UNL     1      20.426  34.095  13.623  1.00  0.00    -0.339 N 
ATOM     24  H   UNL     1      19.963  34.486  14.437  1.00  0.00     0.168 HD
BRANCH  23  25
ATOM     25  C   UNL     1      21.823  34.245  13.628  1.00  0.00     0.040 A 
ATOM     26  C   UNL     1      22.662  33.731  14.621  1.00  0.00     0.030 A 
ATOM     27  C   UNL     1      22.419  34.967  12.575  1.00  0.00     0.033 A 
ATOM     28  C   UNL     1      24.046  33.917  14.567  1.00  0.00     0.049 A 
ATOM     29  C   UNL     1      23.806  35.177  12.507  1.00  0.00    -0.006 A 
ATOM     30  C   UNL     1      24.612  34.615  13.501  1.00  0.00     0.130 A 
ATOM     31  C   UNL     1      24.396  35.947  11.362  1.00  0.00     0.048 C 
BRANCH  30  32
ATOM     32  O   UNL     1      25.970  34.805  13.474  1.00  0.00    -0.457 OA
BRANCH  32  33
ATOM     33  C   UNL     1      26.824  33.720  13.260  1.00  0.00     0.132 A 
ATOM     34  C   UNL     1      27.765  33.278  14.295  1.00  0.00     0.065 A 
ATOM     35  C   UNL     1      26.745  33.066  12.083  1.00  0.00     0.094 A 
ATOM     36  C   UNL     1      28.560  32.219  14.052  1.00  0.00     0.096 A 
ATOM     37  C   UNL     1      27.583  31.946  11.823  1.00  0.00     0.140 A 
ATOM     38  N   UNL     1      28.465  31.567  12.828  1.00  0.00    -0.307 N 
ATOM     39  N   UNL     1      27.690  31.160  10.771  1.00  0.00    -0.237 NA
ATOM     40  C   UNL     1      29.157  30.481  12.358  1.00  0.00     0.113 A 
ATOM     41  C   UNL     1      28.663  30.250  11.094  1.00  0.00     0.132 A 
ENDBRANCH  32  33
ENDBRANCH  30  32
ENDBRANCH  23  25
ENDBRANCH   5  23
TORSDOF 7
ENDMDL
MODEL 8
REMARK VINA RESULT:    -9.400      3.243      8.125
REMARK INTER + INTRA:         -15.298
REMARK INTER:                 -13.594
REMARK INTRA:                  -1.704
REMARK UNBOUND:                -2.051
REMARK SMILES COc1cc(O[C@@H]2CCN(C)CC2(F)F)c2c(Nc3ccc(Oc4ccn5ccnc5c4)c(C)c3)ncnc2c1
REMARK SMILES IDX 3 1 4 2 5 3 16 4 17 5 36 6 37 7 38 8 39 9 40 10 2 11 1 12
REMARK SMILES IDX 6 13 7 14 8 15 13 16 9 17 12 18 10 19 14 20 15 21 11 22
REMARK SMILES IDX 18 23 19 25 20 26 35 27 21 28 33 29 22 30 34 31 23 32 24 33
REMARK SMILES IDX 25 34 32 35 26 36 31 37 27 38 30 39 28 40 29 41
REMARK H PARENT 18 24
ROOT
ATOM      1  C   UNL     1      15.258  34.741  16.272  1.00  0.00     0.124 A 
ATOM      2  C   UNL     1      16.064  34.131  15.318  1.00  0.00     0.093 A 
ATOM      3  C   UNL     1      17.421  33.914  15.569  1.00  0.00     0.136 A 
ATOM      4  C   UNL     1      18.001  34.334  16.812  1.00  0.00     0.085 A 
ATOM      5  C   UNL     1      19.358  34.202  17.223  1.00  0.00     0.145 A 
ATOM      6  N   UNL     1      19.784  34.636  18.426  1.00  0.00    -0.218 NA
ATOM      7  C   UNL     1      18.885  35.208  19.224  1.00  0.00     0.224 A 
ATOM      8  N   UNL     1      17.592  35.384  18.947  1.00  0.00    -0.236 NA
ATOM      9  C   UNL     1      17.167  34.952  17.759  1.00  0.00     0.083 A 
ATOM     10  C   UNL     1      15.820  35.142  17.479  1.00  0.00     0.075 A 
ENDROOT
BRANCH   1  11
ATOM     11  O   UNL     1      13.950  34.893  15.904  1.00  0.00    -0.497 OA
ATOM     12  C   UNL     1      13.504  34.149  14.776  1.00  0.00     0.278 C 
ENDBRANCH   1  11
BRANCH   3  13
ATOM     13  O   UNL     1      18.273  33.334  14.660  1.00  0.00    -0.483 OA
BRANCH  13  14
ATOM     14  C   UNL     1      18.046  33.496  13.246  1.00  0.00     0.245 C 
ATOM     15  C   UNL     1      16.892  32.601  12.785  1.00  0.00     0.067 C 
ATOM     16  C   UNL     1      19.327  33.102  12.497  1.00  0.00     0.296 C 
ATOM     17  C   UNL     1      16.709  32.668  11.268  1.00  0.00     0.088 C 
ATOM     18  C   UNL     1      19.093  33.080  10.979  1.00  0.00     0.165 C 
ATOM     19  N   UNL     1      17.932  32.263  10.569  1.00  0.00    -0.300 NA
ATOM     20  F   UNL     1      20.318  33.990  12.782  1.00  0.00    -0.201 F 
ATOM     21  F   UNL     1      19.770  31.888  12.917  1.00  0.00    -0.201 F 
ATOM     22  C   UNL     1      17.750  32.311   9.118  1.00  0.00     0.105 C 
ENDBRANCH  13  14
ENDBRANCH   3  13
BRANCH   5  23
ATOM     23  N   UNL     1      20.290  33.586  16.359  1.00  0.00    -0.339 N 
ATOM     24  H   UNL     1      19.890  32.790  15.871  1.00  0.00     0.168 HD
BRANCH  23  25
ATOM     25  C   UNL     1      21.599  33.906  15.963  1.00  0.00     0.040 A 
ATOM     26  C   UNL     1      22.716  33.112  16.240  1.00  0.00     0.030 A 
ATOM     27  C   UNL     1      21.806  35.104  15.252  1.00  0.00     0.033 A 
ATOM     28  C   UNL     1      23.994  33.489  15.816  1.00  0.00     0.049 A 
ATOM     29  C   UNL     1      23.082  35.509  14.829  1.00  0.00    -0.006 A 
ATOM     30  C   UNL     1      24.167  34.669  15.094  1.00  0.00     0.130 A 
ATOM     31  C   UNL     1      23.251  36.791  14.067  1.00  0.00     0.048 C 
BRANCH  30  32
ATOM     32  O   UNL     1      25.430  35.033  14.703  1.00  0.00    -0.457 OA
BRANCH  32  33
ATOM     33  C   UNL     1      26.284  34.088  14.129  1.00  0.00     0.132 A 
ATOM     34  C   UNL     1      27.477  33.612  14.839  1.00  0.00     0.065 A 
ATOM     35  C   UNL     1      25.973  33.600  12.912  1.00  0.00     0.094 A 
ATOM     36  C   UNL     1      28.266  32.691  14.255  1.00  0.00     0.096 A 
ATOM     37  C   UNL     1      26.803  32.625  12.291  1.00  0.00     0.140 A 
ATOM     38  N   UNL     1      27.927  32.209  12.995  1.00  0.00    -0.307 N 
ATOM     39  N   UNL     1      26.711  32.010  11.129  1.00  0.00    -0.237 NA
ATOM     40  C   UNL     1      28.563  31.281  12.211  1.00  0.00     0.113 A 
ATOM     41  C   UNL     1      27.798  31.176  11.072  1.00  0.00     0.132 A 
ENDBRANCH  32  33
ENDBRANCH  30  32
ENDBRANCH  23  25
ENDBRANCH   5  23
TORSDOF 7
ENDMDL
MODEL 9
REMARK VINA RESULT:    -9.312      3.542      8.286
REMARK INTER + INTRA:         -15.174
REMARK INTER:                 -13.052
REMARK INTRA:                  -2.122
REMARK UNBOUND:                -2.051
REMARK SMILES COc1cc(O[C@@H]2CCN(C)CC2(F)F)c2c(Nc3ccc(Oc4ccn5ccnc5c4)c(C)c3)ncnc2c1
REMARK SMILES IDX 3 1 4 2 5 3 16 4 17 5 36 6 37 7 38 8 39 9 40 10 2 11 1 12
REMARK SMILES IDX 6 13 7 14 8 15 13 16 9 17 12 18 10 19 14 20 15 21 11 22
REMARK SMILES IDX 18 23 19 25 20 26 35 27 21 28 33 29 22 30 34 31 23 32 24 33
REMARK SMILES IDX 25 34 32 35 26 36 31 37 27 38 30 39 28 40 29 41
REMARK H PARENT 18 24
ROOT
ATOM      1  C   UNL     1      15.463  33.993  13.940  1.00  0.00     0.124 A 
ATOM      2  C   UNL     1      16.517  34.663  14.551  1.00  0.00     0.093 A 
ATOM      3  C   UNL     1      17.815  34.556  14.044  1.00  0.00     0.136 A 
ATOM      4  C   UNL     1      18.075  33.740  12.893  1.00  0.00     0.085 A 
ATOM      5  C   UNL     1      19.329  33.513  12.258  1.00  0.00     0.145 A 
ATOM      6  N   UNL     1      19.446  32.722  11.173  1.00  0.00    -0.218 NA
ATOM      7  C   UNL     1      18.338  32.145  10.714  1.00  0.00     0.224 A 
ATOM      8  N   UNL     1      17.113  32.285  11.224  1.00  0.00    -0.236 NA
ATOM      9  C   UNL     1      16.994  33.070  12.295  1.00  0.00     0.083 A 
ATOM     10  C   UNL     1      15.716  33.208  12.821  1.00  0.00     0.075 A 
ENDROOT
BRANCH   1  11
ATOM     11  O   UNL     1      14.245  34.182  14.533  1.00  0.00    -0.497 OA
ATOM     12  C   UNL     1      14.238  34.781  15.823  1.00  0.00     0.278 C 
ENDBRANCH   1  11
BRANCH   3  13
ATOM     13  O   UNL     1      18.901  35.177  14.613  1.00  0.00    -0.483 OA
BRANCH  13  14
ATOM     14  C   UNL     1      19.001  35.295  16.046  1.00  0.00     0.245 C 
ATOM     15  C   UNL     1      19.257  36.750  16.445  1.00  0.00     0.067 C 
ATOM     16  C   UNL     1      20.168  34.421  16.527  1.00  0.00     0.296 C 
ATOM     17  C   UNL     1      19.483  36.882  17.952  1.00  0.00     0.088 C 
ATOM     18  C   UNL     1      20.442  34.642  18.022  1.00  0.00     0.165 C 
ATOM     19  N   UNL     1      20.617  36.063  18.391  1.00  0.00    -0.300 NA
ATOM     20  F   UNL     1      19.878  33.109  16.316  1.00  0.00    -0.201 F 
ATOM     21  F   UNL     1      21.289  34.686  15.805  1.00  0.00    -0.201 F 
ATOM     22  C   UNL     1      20.844  36.203  19.829  1.00  0.00     0.105 C 
ENDBRANCH  13  14
ENDBRANCH   3  13
BRANCH   5  23
ATOM     23  N   UNL     1      20.488  34.143  12.762  1.00  0.00    -0.339 N 
ATOM     24  H   UNL     1      20.272  34.810  13.497  1.00  0.00     0.168 HD
BRANCH  23  25
ATOM     25  C   UNL     1      21.863  33.962  12.535  1.00  0.00     0.040 A 
ATOM     26  C   UNL     1      22.506  32.722  12.575  1.00  0.00     0.030 A 
ATOM     27  C   UNL     1      22.648  35.100  12.261  1.00  0.00     0.033 A 
ATOM     28  C   UNL     1      23.879  32.611  12.339  1.00  0.00     0.049 A 
ATOM     29  C   UNL     1      24.031  35.013  12.034  1.00  0.00    -0.006 A 
ATOM     30  C   UNL     1      24.628  33.749  12.047  1.00  0.00     0.130 A 
ATOM     31  C   UNL     1      24.824  36.252  11.738  1.00  0.00     0.048 C 
BRANCH  30  32
ATOM     32  O   UNL     1      25.978  33.625  11.838  1.00  0.00    -0.457 OA
BRANCH  32  33
ATOM     33  C   UNL     1      26.807  33.173  12.867  1.00  0.00     0.132 A 
ATOM     34  C   UNL     1      27.847  32.167  12.619  1.00  0.00     0.065 A 
ATOM     35  C   UNL     1      26.649  33.705  14.096  1.00  0.00     0.094 A 
ATOM     36  C   UNL     1      28.633  31.770  13.637  1.00  0.00     0.096 A 
ATOM     37  C   UNL     1      27.478  33.288  15.174  1.00  0.00     0.140 A 
ATOM     38  N   UNL     1      28.444  32.328  14.897  1.00  0.00    -0.307 N 
ATOM     39  N   UNL     1      27.515  33.652  16.440  1.00  0.00    -0.237 NA
ATOM     40  C   UNL     1      29.112  32.088  16.070  1.00  0.00     0.113 A 
ATOM     41  C   UNL     1      28.524  32.913  17.002  1.00  0.00     0.132 A 
ENDBRANCH  32  33
ENDBRANCH  30  32
ENDBRANCH  23  25
ENDBRANCH   5  23
TORSDOF 7
ENDMDL
