MODEL 7
REMARK VINA RESULT:    -8.899      2.213      3.148
REMARK INTER + INTRA:         -11.981
REMARK INTER:                 -11.118
REMARK INTRA:                  -0.863
REMARK UNBOUND:                -0.481
REMARK SMILES CS(=O)(=O)N1CC(CC#N)(n2ccc(-c3nc(-c4ccn5ccnc5c4)cc4ncccc34)n2)C1
REMARK SMILES IDX 11 1 12 2 13 3 14 4 34 5 7 6 5 7 6 8 35 9 2 10 3 11 4 12
REMARK SMILES IDX 1 13 8 14 9 15 10 16 15 17 16 18 33 19 17 20 32 21 28 22
REMARK SMILES IDX 27 23 31 24 29 25 30 26 18 27 19 28 26 29 20 30 25 31 21 32
REMARK SMILES IDX 24 33 22 34 23 35
REMARK H PARENT
ROOT
ATOM      1  N   UNL     1      -0.275  24.851 -25.632  1.00  0.00    -0.262 N 
ATOM      2  C   UNL     1      -1.351  24.606 -24.827  1.00  0.00     0.110 A 
ATOM      3  C   UNL     1      -2.403  24.347 -25.671  1.00  0.00     0.052 A 
ATOM      4  C   UNL     1      -1.880  24.464 -26.987  1.00  0.00     0.111 A 
ATOM      5  N   UNL     1      -0.565  24.743 -26.941  1.00  0.00    -0.171 NA
ENDROOT
BRANCH   1   6
ATOM      6  C   UNL     1       1.115  25.150 -25.176  1.00  0.00     0.103 C 
ATOM      7  N   UNL     1       1.994  23.576 -24.018  1.00  0.00    -0.197 NA
ATOM      8  C   UNL     1       2.067  23.958 -25.448  1.00  0.00     0.135 C 
ATOM      9  C   UNL     1       1.350  24.864 -23.670  1.00  0.00     0.135 C 
BRANCH   7  10
ATOM     10  S   UNL     1       3.018  22.617 -23.118  1.00  0.00     0.211 S 
ATOM     11  O   UNL     1       3.594  23.449 -22.085  1.00  0.00    -0.213 OA
ATOM     12  O   UNL     1       3.841  21.872 -24.045  1.00  0.00    -0.213 OA
ATOM     13  C   UNL     1       1.891  21.479 -22.343  1.00  0.00     0.176 C 
ENDBRANCH   7  10
BRANCH   6  14
ATOM     14  C   UNL     1       1.640  26.494 -25.677  1.00  0.00     0.153 C 
ATOM     15  C   UNL     1       2.569  26.327 -26.804  1.00  0.00     0.065 C 
ATOM     16  N   UNL     1       3.270  26.182 -27.717  1.00  0.00    -0.198 NA
ENDBRANCH   6  14
ENDBRANCH   1   6
BRANCH   4  17
ATOM     17  C   UNL     1      -2.622  24.252 -28.240  1.00  0.00     0.101 A 
ATOM     18  N   UNL     1      -3.107  25.403 -28.775  1.00  0.00    -0.245 NA
ATOM     19  C   UNL     1      -2.809  22.982 -28.832  1.00  0.00     0.028 A 
ATOM     20  C   UNL     1      -3.831  25.323 -29.909  1.00  0.00     0.073 A 
ATOM     21  C   UNL     1      -2.287  21.746 -28.377  1.00  0.00     0.014 A 
ATOM     22  C   UNL     1      -3.577  22.943 -30.009  1.00  0.00     0.075 A 
ATOM     23  C   UNL     1      -4.087  24.113 -30.532  1.00  0.00     0.058 A 
ATOM     24  C   UNL     1      -2.553  20.566 -29.061  1.00  0.00     0.021 A 
ATOM     25  N   UNL     1      -3.840  21.803 -30.673  1.00  0.00    -0.256 NA
ATOM     26  C   UNL     1      -3.333  20.646 -30.195  1.00  0.00     0.112 A 
BRANCH  20  27
ATOM     27  C   UNL     1      -4.351  26.600 -30.460  1.00  0.00     0.005 A 
ATOM     28  C   UNL     1      -5.270  26.656 -31.610  1.00  0.00     0.029 A 
ATOM     29  C   UNL     1      -3.935  27.757 -29.885  1.00  0.00     0.058 A 
ATOM     30  C   UNL     1      -5.703  27.844 -32.067  1.00  0.00     0.093 A 
ATOM     31  C   UNL     1      -4.396  29.016 -30.363  1.00  0.00     0.137 A 
ATOM     32  N   UNL     1      -5.268  29.007 -31.443  1.00  0.00    -0.307 N 
ATOM     33  N   UNL     1      -4.148  30.245 -29.960  1.00  0.00    -0.237 NA
ATOM     34  C   UNL     1      -5.568  30.315 -31.723  1.00  0.00     0.113 A 
ATOM     35  C   UNL     1      -4.869  31.056 -30.799  1.00  0.00     0.132 A 
ENDBRANCH  20  27
ENDBRANCH   4  17
TORSDOF 5
ENDMDL
