REMARK SMILES CCC(CC)n1cc(-c2nc(-c3cnn(CCCS(C)(=O)=O)c3)cn3nccc23)cn1
REMARK SMILES IDX 12 1 13 2 14 3 15 4 23 5 11 6 9 7 10 8 29 9 28 10 25 11
REMARK SMILES IDX 24 12 27 13 26 14 8 15 6 16 7 17 31 18 30 19 3 20 2 21 1 22
REMARK SMILES IDX 4 23 5 24 16 25 17 26 18 27 19 28 21 29 22 30 20 31
REMARK H PARENT
REMARK INDEX MAP 12 1 13 2 14 3 15 4 23 5 11 6 9 7 10 8 29 9 28 10 25 11 24 12
REMARK INDEX MAP 27 13 26 14 8 15 6 16 7 17 31 18 30 19 3 20 2 21 1 22 4 23
REMARK INDEX MAP 5 24 16 25 17 26 18 27 19 28 21 29 22 30 20 31
ROOT
ATOM      1  C   UNL     1     -18.520  18.355  21.561  1.00  0.00     0.040 A 
ATOM      2  C   UNL     1     -19.248  17.693  22.576  1.00  0.00     0.145 A 
ATOM      3  N   UNL     1     -20.569  17.858  22.456  1.00  0.00    -0.181 NA
ATOM      4  N   UNL     1     -20.691  18.649  21.372  1.00  0.00    -0.272 N 
ATOM      5  C   UNL     1     -19.495  18.965  20.798  1.00  0.00     0.119 A 
ENDROOT
BRANCH   1   6
ATOM      6  C   UNL     1     -17.105  18.406  21.335  1.00  0.00     0.092 A 
ATOM      7  C   UNL     1     -15.229  17.116  20.895  1.00  0.00     0.100 A 
ATOM      8  N   UNL     1     -16.513  17.174  21.104  1.00  0.00    -0.244 NA
ATOM      9  C   UNL     1     -14.396  18.290  20.937  1.00  0.00     0.093 A 
ATOM     10  C   UNL     1     -13.047  18.561  20.872  1.00  0.00     0.052 A 
ATOM     11  N   UNL     1     -15.029  19.499  21.145  1.00  0.00    -0.237 N 
ATOM     12  C   UNL     1     -16.395  19.546  21.343  1.00  0.00     0.142 A 
ATOM     13  C   UNL     1     -12.959  19.958  20.994  1.00  0.00     0.136 A 
ATOM     14  N   UNL     1     -14.152  20.532  21.147  1.00  0.00    -0.176 NA
BRANCH   7  15
ATOM     15  C   UNL     1     -14.668  15.807  20.620  1.00  0.00     0.040 A 
ATOM     16  N   UNL     1     -13.366  14.052  20.285  1.00  0.00    -0.269 N 
ATOM     17  C   UNL     1     -13.359  15.369  20.663  1.00  0.00     0.119 A 
ATOM     18  N   UNL     1     -14.594  13.598  19.988  1.00  0.00    -0.181 NA
ATOM     19  C   UNL     1     -15.376  14.663  20.172  1.00  0.00     0.145 A 
BRANCH  16  20
ATOM     20  C   UNL     1     -12.196  13.179  20.185  1.00  0.00     0.107 C 
BRANCH  20  21
ATOM     21  C   UNL     1     -12.543  11.724  19.812  1.00  0.00     0.024 C 
ATOM     22  C   UNL     1     -11.829  11.244  18.553  1.00  0.00     0.006 C 
ENDBRANCH  20  21
BRANCH  20  23
ATOM     23  C   UNL     1     -11.111  13.791  19.275  1.00  0.00     0.024 C 
ATOM     24  C   UNL     1      -9.754  14.016  19.928  1.00  0.00     0.006 C 
ENDBRANCH  20  23
ENDBRANCH  16  20
ENDBRANCH   7  15
ENDBRANCH   1   6
BRANCH   4  25
ATOM     25  C   UNL     1     -22.008  19.056  20.913  1.00  0.00     0.145 C 
BRANCH  25  26
ATOM     26  C   UNL     1     -22.224  20.569  20.997  1.00  0.00     0.040 C 
BRANCH  26  27
ATOM     27  C   UNL     1     -22.137  21.297  19.657  1.00  0.00     0.138 C 
BRANCH  27  28
ATOM     28  S   UNL     1     -20.702  22.353  19.538  1.00  0.00     0.147 S 
ATOM     29  O   UNL     1     -20.343  22.814  20.864  1.00  0.00    -0.229 OA
ATOM     30  O   UNL     1     -19.727  21.679  18.703  1.00  0.00    -0.229 OA
ATOM     31  C   UNL     1     -21.314  23.751  18.628  1.00  0.00     0.158 C 
ENDBRANCH  27  28
ENDBRANCH  26  27
ENDBRANCH  25  26
ENDBRANCH   4  25
TORSDOF 9
