REMARK VINA RESULT:    -9.670      2.822      6.731
REMARK INTER + INTRA:         -14.918
REMARK INTER:                 -13.315
REMARK INTRA:                  -1.603
REMARK UNBOUND:                -1.856
REMARK SMILES Cc1cc(Nc2ncnc3cccc(O[C@@H]4CCN(C)CC4(F)F)c23)ccc1Oc1ccc2ccnn2c1
REMARK SMILES IDX 6 1 7 2 8 3 9 4 10 5 11 6 12 7 13 8 14 9 25 10 5 11 4 13
REMARK SMILES IDX 2 14 3 15 28 16 27 17 26 18 1 19 29 20 30 21 31 22 38 23
REMARK SMILES IDX 32 24 37 25 33 26 36 27 34 28 35 29 15 30 16 31 17 32 22 33
REMARK SMILES IDX 18 34 21 35 19 36 23 37 24 38 20 39
REMARK H PARENT 5 12
ROOT
ATOM      1  C   UNL     1      15.750   2.608  26.291  1.00  0.00     0.145 A 
ATOM      2  N   UNL     1      16.757   2.949  25.462  1.00  0.00    -0.218 NA
ATOM      3  C   UNL     1      17.710   2.045  25.251  1.00  0.00     0.224 A 
ATOM      4  N   UNL     1      17.757   0.819  25.776  1.00  0.00    -0.236 NA
ATOM      5  C   UNL     1      16.761   0.483  26.596  1.00  0.00     0.080 A 
ATOM      6  C   UNL     1      16.810  -0.793  27.137  1.00  0.00     0.029 A 
ATOM      7  C   UNL     1      15.830  -1.264  28.006  1.00  0.00     0.006 A 
ATOM      8  C   UNL     1      14.771  -0.439  28.360  1.00  0.00     0.047 A 
ATOM      9  C   UNL     1      14.692   0.857  27.842  1.00  0.00     0.133 A 
ATOM     10  C   UNL     1      15.694   1.337  26.927  1.00  0.00     0.085 A 
ENDROOT
BRANCH   1  11
ATOM     11  N   UNL     1      14.709   3.539  26.502  1.00  0.00    -0.339 N 
ATOM     12  H   UNL     1      14.295   3.450  27.425  1.00  0.00     0.168 HD
BRANCH  11  13
ATOM     13  C   UNL     1      14.222   4.620  25.748  1.00  0.00     0.040 A 
ATOM     14  C   UNL     1      14.287   6.946  24.969  1.00  0.00    -0.006 A 
ATOM     15  C   UNL     1      14.814   5.889  25.733  1.00  0.00     0.033 A 
ATOM     16  C   UNL     1      13.116   6.722  24.237  1.00  0.00     0.130 A 
ATOM     17  C   UNL     1      12.524   5.462  24.209  1.00  0.00     0.049 A 
ATOM     18  C   UNL     1      13.074   4.424  24.963  1.00  0.00     0.030 A 
ATOM     19  C   UNL     1      14.954   8.291  24.989  1.00  0.00     0.048 C 
BRANCH  16  20
ATOM     20  O   UNL     1      12.559   7.726  23.483  1.00  0.00    -0.455 OA
BRANCH  20  21
ATOM     21  C   UNL     1      11.284   8.159  23.803  1.00  0.00     0.145 A 
ATOM     22  C   UNL     1      11.035   8.243  25.236  1.00  0.00     0.051 A 
ATOM     23  C   UNL     1      10.292   8.497  22.955  1.00  0.00     0.160 A 
ATOM     24  C   UNL     1       9.845   8.634  25.730  1.00  0.00     0.032 A 
ATOM     25  N   UNL     1       9.058   8.909  23.458  1.00  0.00    -0.237 N 
ATOM     26  C   UNL     1       8.800   8.985  24.831  1.00  0.00     0.066 A 
ATOM     27  N   UNL     1       7.962   9.282  22.744  1.00  0.00    -0.176 NA
ATOM     28  C   UNL     1       7.504   9.416  24.976  1.00  0.00     0.050 A 
ATOM     29  C   UNL     1       7.042   9.581  23.662  1.00  0.00     0.136 A 
ENDBRANCH  20  21
ENDBRANCH  16  20
ENDBRANCH  11  13
ENDBRANCH   1  11
BRANCH   9  30
ATOM     30  O   UNL     1      13.696   1.746  28.167  1.00  0.00    -0.483 OA
BRANCH  30  31
ATOM     31  C   UNL     1      12.673   1.399  29.116  1.00  0.00     0.245 C 
ATOM     32  C   UNL     1      11.309   1.883  28.615  1.00  0.00     0.067 C 
ATOM     33  C   UNL     1      12.995   2.079  30.454  1.00  0.00     0.296 C 
ATOM     34  C   UNL     1      10.217   1.629  29.655  1.00  0.00     0.088 C 
ATOM     35  C   UNL     1      11.843   1.902  31.454  1.00  0.00     0.165 C 
ATOM     36  N   UNL     1      10.524   2.301  30.921  1.00  0.00    -0.300 NA
ATOM     37  F   UNL     1      13.249   3.401  30.267  1.00  0.00    -0.201 F 
ATOM     38  F   UNL     1      14.129   1.543  30.979  1.00  0.00    -0.201 F 
ATOM     39  C   UNL     1       9.471   2.076  31.909  1.00  0.00     0.105 C 
ENDBRANCH  30  31
ENDBRANCH   9  30
TORSDOF 6
