REMARK SMILES CCC(C)(C)NC[C@@H](O)c1cc(O)cc(OC(=O)N(C)C)c1
REMARK SMILES IDX 7 1 6 2 3 4 4 5 5 6 2 7 1 8 8 9 9 10 10 12 11 13 22 14 12 15
REMARK SMILES IDX 15 16 14 17 13 18 16 20 17 21 18 22 19 23 20 24 21 25
REMARK H PARENT 6 3 9 11 13 19
REMARK INDEX MAP 7 1 6 2 34 3 3 4 4 5 5 6 2 7 1 8 8 9 9 10 38 11 10 12 11 13
REMARK INDEX MAP 22 14 12 15 15 16 14 17 13 18 40 19 16 20 17 21 18 22 19 23
REMARK INDEX MAP 20 24 21 25
ROOT
ATOM      1  C   UNL     1     138.350 111.721  39.476  1.00  0.00     0.118 C 
ENDROOT
BRANCH   1   2
ATOM      2  N   UNL     1     138.528 110.766  40.590  1.00  0.00    -0.309 NA
ATOM      3  H   UNL     1     138.988 111.266  41.364  1.00  0.00     0.123 HD
BRANCH   2   4
ATOM      4  C   UNL     1     137.289 110.154  41.118  1.00  0.00     0.012 C 
ATOM      5  C   UNL     1     136.182 110.125  40.047  1.00  0.00     0.028 C 
ATOM      6  C   UNL     1     137.537 108.717  41.626  1.00  0.00     0.028 C 
BRANCH   4   7
ATOM      7  C   UNL     1     136.829 111.000  42.343  1.00  0.00     0.018 C 
ATOM      8  C   UNL     1     135.439 111.622  42.250  1.00  0.00     0.006 C 
ENDBRANCH   4   7
ENDBRANCH   2   4
ENDBRANCH   1   2
BRANCH   1   9
ATOM      9  C   UNL     1     139.682 112.475  39.224  1.00  0.00     0.158 C 
BRANCH   9  10
ATOM     10  O   UNL     1     139.664 112.970  37.875  1.00  0.00    -0.387 OA
ATOM     11  H   UNL     1     139.628 113.959  37.887  1.00  0.00     0.211 HD
ENDBRANCH   9  10
BRANCH   9  12
ATOM     12  C   UNL     1     139.911 113.596  40.218  1.00  0.00    -0.011 A 
ATOM     13  C   UNL     1     141.141 113.768  40.873  1.00  0.00     0.052 A 
ATOM     14  C   UNL     1     138.869 114.495  40.506  1.00  0.00     0.054 A 
ATOM     15  C   UNL     1     141.318 114.812  41.781  1.00  0.00     0.119 A 
ATOM     16  C   UNL     1     139.062 115.526  41.426  1.00  0.00     0.136 A 
ATOM     17  C   UNL     1     140.290 115.701  42.056  1.00  0.00     0.093 A 
BRANCH  15  18
ATOM     18  O   UNL     1     142.507 114.994  42.425  1.00  0.00    -0.508 OA
ATOM     19  H   UNL     1     142.613 115.741  43.066  1.00  0.00     0.293 HD
ENDBRANCH  15  18
BRANCH  16  20
ATOM     20  O   UNL     1     138.076 116.495  41.705  1.00  0.00    -0.410 OA
BRANCH  20  21
ATOM     21  C   UNL     1     137.481 117.237  40.682  1.00  0.00     0.414 C 
ATOM     22  O   UNL     1     138.088 118.014  39.952  1.00  0.00    -0.224 OA
ATOM     23  N   UNL     1     136.116 116.998  40.579  1.00  0.00    -0.314 N 
ATOM     24  C   UNL     1     135.340 117.699  39.573  1.00  0.00     0.150 C 
ATOM     25  C   UNL     1     135.392 116.074  41.436  1.00  0.00     0.150 C 
ENDBRANCH  20  21
ENDBRANCH  16  20
ENDBRANCH   9  12
ENDBRANCH   1   9
TORSDOF 9
