MODEL 1
REMARK minimizedAffinity -9.93050766
REMARK CNNscore 0.724148691
REMARK CNNaffinity 7.92626143
REMARK SMILES COc1ccc(CN(C)[C@@H](C)[C@H]2[C@H](O)C[C@@]3(C)[C@@H]4CC[C@H]5[C@]6(C)CSC(C(C)C)=N[C@H]6CC[C@@]56C[C@@]46C(=O)C[C@]23C)cc1
REMARK SMILES IDX 8 1 9 2 7 3 6 4 3 5 4 6 43 7 5 8 42 9 2 10 1 11 10 12 11 13
REMARK SMILES IDX 12 14 13 15 40 16 15 17 39 18 16 19 37 20 18 21 36 22 38 23
REMARK SMILES IDX 19 24 35 25 34 26 20 27 33 28 21 29 32 30 22 31 31 32 24 33
REMARK SMILES IDX 30 34 25 35 26 36 41 37 17 38 23 39 14 40 27 42 28 43 29 44
REMARK H PARENT 14 41
ROOT
ATOM      1  N   UNL     1     142.839 105.943  37.824  1.00  0.00    -0.299 NA
ATOM      2  C   UNL     1     143.301 104.719  38.495  1.00  0.00     0.106 C 
ENDROOT
BRANCH   1   3
ATOM      3  C   UNL     1     141.666 105.660  36.972  1.00  0.00     0.120 C 
BRANCH   3   4
ATOM      4  C   UNL     1     141.494 106.677  35.863  1.00  0.00    -0.034 A 
ATOM      5  C   UNL     1     141.162 108.562  33.794  1.00  0.00     0.118 A 
ATOM      6  C   UNL     1     140.064 108.121  34.534  1.00  0.00     0.047 A 
ATOM      7  C   UNL     1     142.429 108.059  34.090  1.00  0.00     0.047 A 
ATOM      8  C   UNL     1     140.224 107.186  35.558  1.00  0.00     0.009 A 
ATOM      9  C   UNL     1     142.593 107.122  35.118  1.00  0.00     0.009 A 
BRANCH   5  10
ATOM     10  O   UNL     1     140.865 109.475  32.819  1.00  0.00    -0.497 OA
ATOM     11  C   UNL     1     139.580 110.081  32.877  1.00  0.00     0.278 C 
ENDBRANCH   5  10
ENDBRANCH   3   4
ENDBRANCH   1   3
BRANCH   1  12
ATOM     12  C   UNL     1     142.591 107.086  38.747  1.00  0.00     0.059 C 
ATOM     13  C   UNL     1     143.186 108.411  38.250  1.00  0.00     0.025 C 
BRANCH  12  14
ATOM     14  C   UNL     1     141.061 107.175  39.044  1.00  0.00     0.042 C 
ATOM     15  C   UNL     1     140.700 106.424  40.359  1.00  0.00     0.120 C 
ATOM     16  C   UNL     1     140.375 108.561  39.256  1.00  0.00    -0.013 C 
ATOM     17  C   UNL     1     139.443 107.091  40.944  1.00  0.00     0.039 C 
ATOM     18  C   UNL     1     140.099 109.363  37.981  1.00  0.00     0.084 C 
ATOM     19  C   UNL     1     138.996 108.118  39.882  1.00  0.00    -0.020 C 
ATOM     20  C   UNL     1     138.873 110.261  38.061  1.00  0.00     0.140 C 
ATOM     21  C   UNL     1     138.270 109.366  40.460  1.00  0.00     0.010 C 
ATOM     22  C   UNL     1     138.241 110.531  39.429  1.00  0.00     0.039 C 
ATOM     23  O   UNL     1     138.412 110.747  37.032  1.00  0.00    -0.299 OA
ATOM     24  C   UNL     1     136.878 109.075  41.026  1.00  0.00     0.005 C 
ATOM     25  C   UNL     1     138.522 111.892  40.062  1.00  0.00     0.024 C 
ATOM     26  C   UNL     1     137.129 111.632  39.560  1.00  0.00    -0.012 C 
ATOM     27  C   UNL     1     136.275 110.345  41.616  1.00  0.00     0.005 C 
ATOM     28  C   UNL     1     136.703 112.487  38.373  1.00  0.00     0.010 C 
ATOM     29  C   UNL     1     135.942 111.346  40.498  1.00  0.00     0.005 C 
ATOM     30  C   UNL     1     136.026 113.774  38.829  1.00  0.00     0.028 C 
ATOM     31  C   UNL     1     135.230 112.664  40.995  1.00  0.00     0.003 C 
ATOM     32  C   UNL     1     134.836 113.495  39.751  1.00  0.00     0.113 C 
ATOM     33  C   UNL     1     133.917 112.285  41.715  1.00  0.00     0.085 C 
ATOM     34  N   UNL     1     134.260 114.790  40.098  1.00  0.00    -0.279 NA
ATOM     35  S   UNL     1     132.690 113.594  41.941  1.00  0.00    -0.110 SA
ATOM     36  C   UNL     1     133.339 114.902  40.983  1.00  0.00     0.070 C 
ATOM     37  C   UNL     1     141.251 109.437  40.200  1.00  0.00     0.013 C 
ATOM     38  C   UNL     1     138.053 107.361  38.893  1.00  0.00     0.012 C 
ATOM     39  C   UNL     1     136.139 113.454  41.967  1.00  0.00     0.015 C 
BRANCH  15  40
ATOM     40  O   UNL     1     140.451 105.053  40.093  1.00  0.00    -0.393 OA
ATOM     41  H   UNL     1     141.264 104.727  39.652  1.00  0.00     0.210 HD
ENDBRANCH  15  40
BRANCH  36  42
ATOM     42  C   UNL     1     132.762 116.294  41.241  1.00  0.00     0.038 C 
ATOM     43  C   UNL     1     133.672 117.397  40.708  1.00  0.00     0.015 C 
ATOM     44  C   UNL     1     132.406 116.509  42.711  1.00  0.00     0.015 C 
ENDBRANCH  36  42
ENDBRANCH  12  14
ENDBRANCH   1  12
TORSDOF 7
ENDMDL
MODEL 2
REMARK minimizedAffinity -9.66494942
REMARK CNNscore 0.666232288
REMARK CNNaffinity 7.89914703
REMARK SMILES COc1ccc(CN(C)[C@@H](C)[C@H]2[C@H](O)C[C@@]3(C)[C@@H]4CC[C@H]5[C@]6(C)CSC(C(C)C)=N[C@H]6CC[C@@]56C[C@@]46C(=O)C[C@]23C)cc1
REMARK SMILES IDX 8 1 9 2 7 3 6 4 3 5 4 6 43 7 5 8 42 9 2 10 1 11 10 12 11 13
REMARK SMILES IDX 12 14 13 15 40 16 15 17 39 18 16 19 37 20 18 21 36 22 38 23
REMARK SMILES IDX 19 24 35 25 34 26 20 27 33 28 21 29 32 30 22 31 31 32 24 33
REMARK SMILES IDX 30 34 25 35 26 36 41 37 17 38 23 39 14 40 27 42 28 43 29 44
REMARK H PARENT 14 41
ROOT
ATOM      1  N   UNL     1     141.325 108.302  35.085  1.00  0.00    -0.299 NA
ATOM      2  C   UNL     1     142.115 109.077  34.118  1.00  0.00     0.106 C 
ENDROOT
BRANCH   1   3
ATOM      3  C   UNL     1     141.018 106.959  34.552  1.00  0.00     0.120 C 
BRANCH   3   4
ATOM      4  C   UNL     1     139.723 106.396  35.100  1.00  0.00    -0.034 A 
ATOM      5  C   UNL     1     137.310 105.360  36.123  1.00  0.00     0.118 A 
ATOM      6  C   UNL     1     137.320 106.561  35.411  1.00  0.00     0.047 A 
ATOM      7  C   UNL     1     138.509 104.676  36.322  1.00  0.00     0.047 A 
ATOM      8  C   UNL     1     138.514 107.078  34.904  1.00  0.00     0.009 A 
ATOM      9  C   UNL     1     139.708 105.191  35.814  1.00  0.00     0.009 A 
BRANCH   5  10
ATOM     10  O   UNL     1     136.075 104.969  36.565  1.00  0.00    -0.497 OA
ATOM     11  C   UNL     1     135.856 105.004  37.969  1.00  0.00     0.278 C 
ENDBRANCH   5  10
ENDBRANCH   3   4
ENDBRANCH   1   3
BRANCH   1  12
ATOM     12  C   UNL     1     141.924 108.234  36.447  1.00  0.00     0.059 C 
ATOM     13  C   UNL     1     142.893 109.386  36.746  1.00  0.00     0.025 C 
BRANCH  12  14
ATOM     14  C   UNL     1     140.779 108.108  37.500  1.00  0.00     0.042 C 
ATOM     15  C   UNL     1     141.343 107.726  38.900  1.00  0.00     0.120 C 
ATOM     16  C   UNL     1     139.871 109.333  37.831  1.00  0.00    -0.013 C 
ATOM     17  C   UNL     1     140.371 108.280  39.957  1.00  0.00     0.039 C 
ATOM     18  C   UNL     1     138.786 109.650  36.798  1.00  0.00     0.084 C 
ATOM     19  C   UNL     1     139.174 108.838  39.158  1.00  0.00    -0.020 C 
ATOM     20  C   UNL     1     137.528 110.275  37.384  1.00  0.00     0.140 C 
ATOM     21  C   UNL     1     138.450 110.035  39.836  1.00  0.00     0.010 C 
ATOM     22  C   UNL     1     137.567 110.812  38.817  1.00  0.00     0.039 C 
ATOM     23  O   UNL     1     136.509 110.335  36.702  1.00  0.00    -0.299 OA
ATOM     24  C   UNL     1     137.665 109.661  41.096  1.00  0.00     0.005 C 
ATOM     25  C   UNL     1     137.660 112.328  38.984  1.00  0.00     0.024 C 
ATOM     26  C   UNL     1     136.362 111.664  39.353  1.00  0.00    -0.012 C 
ATOM     27  C   UNL     1     137.041 110.907  41.715  1.00  0.00     0.005 C 
ATOM     28  C   UNL     1     135.179 112.028  38.465  1.00  0.00     0.010 C 
ATOM     29  C   UNL     1     135.920 111.445  40.812  1.00  0.00     0.005 C 
ATOM     30  C   UNL     1     134.425 113.235  39.009  1.00  0.00     0.028 C 
ATOM     31  C   UNL     1     135.146 112.686  41.404  1.00  0.00     0.003 C 
ATOM     32  C   UNL     1     133.970 113.017  40.455  1.00  0.00     0.113 C 
ATOM     33  C   UNL     1     134.528 112.291  42.764  1.00  0.00     0.085 C 
ATOM     34  N   UNL     1     133.245 114.219  40.854  1.00  0.00    -0.279 NA
ATOM     35  S   UNL     1     133.207 113.344  43.409  1.00  0.00    -0.110 SA
ATOM     36  C   UNL     1     132.870 114.408  42.065  1.00  0.00     0.070 C 
ATOM     37  C   UNL     1     140.754 110.603  38.012  1.00  0.00     0.013 C 
ATOM     38  C   UNL     1     138.176 107.653  38.957  1.00  0.00     0.012 C 
ATOM     39  C   UNL     1     136.099 113.890  41.604  1.00  0.00     0.015 C 
BRANCH  15  40
ATOM     40  O   UNL     1     141.452 106.317  39.022  1.00  0.00    -0.393 OA
ATOM     41  H   UNL     1     142.017 106.040  38.270  1.00  0.00     0.210 HD
ENDBRANCH  15  40
BRANCH  36  42
ATOM     42  C   UNL     1     132.071 115.674  42.376  1.00  0.00     0.038 C 
ATOM     43  C   UNL     1     132.856 116.940  42.046  1.00  0.00     0.015 C 
ATOM     44  C   UNL     1     131.543 115.688  43.809  1.00  0.00     0.015 C 
ENDBRANCH  36  42
ENDBRANCH  12  14
ENDBRANCH   1  12
TORSDOF 7
ENDMDL
MODEL 3
REMARK minimizedAffinity -8.71683311
REMARK CNNscore 0.6456967
REMARK CNNaffinity 7.69597387
REMARK SMILES COc1ccc(CN(C)[C@@H](C)[C@H]2[C@H](O)C[C@@]3(C)[C@@H]4CC[C@H]5[C@]6(C)CSC(C(C)C)=N[C@H]6CC[C@@]56C[C@@]46C(=O)C[C@]23C)cc1
REMARK SMILES IDX 8 1 9 2 7 3 6 4 3 5 4 6 43 7 5 8 42 9 2 10 1 11 10 12 11 13
REMARK SMILES IDX 12 14 13 15 40 16 15 17 39 18 16 19 37 20 18 21 36 22 38 23
REMARK SMILES IDX 19 24 35 25 34 26 20 27 33 28 21 29 32 30 22 31 31 32 24 33
REMARK SMILES IDX 30 34 25 35 26 36 41 37 17 38 23 39 14 40 27 42 28 43 29 44
REMARK H PARENT 14 41
ROOT
ATOM      1  N   UNL     1     140.309 105.457  38.435  1.00  0.00    -0.299 NA
ATOM      2  C   UNL     1     138.950 104.898  38.463  1.00  0.00     0.106 C 
ENDROOT
BRANCH   1   3
ATOM      3  C   UNL     1     140.636 105.967  37.089  1.00  0.00     0.120 C 
BRANCH   3   4
ATOM      4  C   UNL     1     139.483 106.713  36.452  1.00  0.00    -0.034 A 
ATOM      5  C   UNL     1     137.341 108.113  35.269  1.00  0.00     0.118 A 
ATOM      6  C   UNL     1     138.656 108.543  35.086  1.00  0.00     0.047 A 
ATOM      7  C   UNL     1     137.097 106.979  36.045  1.00  0.00     0.047 A 
ATOM      8  C   UNL     1     139.719 107.854  35.671  1.00  0.00     0.009 A 
ATOM      9  C   UNL     1     138.162 106.285  36.632  1.00  0.00     0.009 A 
BRANCH   5  10
ATOM     10  O   UNL     1     136.396 108.880  34.643  1.00  0.00    -0.497 OA
ATOM     11  C   UNL     1     135.644 109.766  35.461  1.00  0.00     0.278 C 
ENDBRANCH   5  10
ENDBRANCH   3   4
ENDBRANCH   1   3
BRANCH   1  12
ATOM     12  C   UNL     1     140.572 106.475  39.492  1.00  0.00     0.059 C 
ATOM     13  C   UNL     1     141.615 107.524  39.082  1.00  0.00     0.025 C 
BRANCH  12  14
ATOM     14  C   UNL     1     139.215 107.102  39.940  1.00  0.00     0.042 C 
ATOM     15  C   UNL     1     138.922 106.797  41.438  1.00  0.00     0.120 C 
ATOM     16  C   UNL     1     138.995 108.646  39.867  1.00  0.00    -0.013 C 
ATOM     17  C   UNL     1     138.038 107.934  41.979  1.00  0.00     0.039 C 
ATOM     18  C   UNL     1     138.710 109.209  38.472  1.00  0.00     0.084 C 
ATOM     19  C   UNL     1     137.696 108.804  40.749  1.00  0.00    -0.020 C 
ATOM     20  C   UNL     1     137.821 110.444  38.466  1.00  0.00     0.140 C 
ATOM     21  C   UNL     1     137.471 110.308  41.069  1.00  0.00     0.010 C 
ATOM     22  C   UNL     1     137.567 111.179  39.784  1.00  0.00     0.039 C 
ATOM     23  O   UNL     1     137.323 110.824  37.409  1.00  0.00    -0.299 OA
ATOM     24  C   UNL     1     136.190 110.598  41.855  1.00  0.00     0.005 C 
ATOM     25  C   UNL     1     138.332 112.483  40.004  1.00  0.00     0.024 C 
ATOM     26  C   UNL     1     136.851 112.577  39.760  1.00  0.00    -0.012 C 
ATOM     27  C   UNL     1     136.089 112.087  42.166  1.00  0.00     0.005 C 
ATOM     28  C   UNL     1     136.458 113.255  38.453  1.00  0.00     0.010 C 
ATOM     29  C   UNL     1     135.837 112.884  40.876  1.00  0.00     0.005 C 
ATOM     30  C   UNL     1     136.266 114.754  38.639  1.00  0.00     0.028 C 
ATOM     31  C   UNL     1     135.628 114.433  41.098  1.00  0.00     0.003 C 
ATOM     32  C   UNL     1     135.247 115.066  39.739  1.00  0.00     0.113 C 
ATOM     33  C   UNL     1     134.428 114.648  42.046  1.00  0.00     0.085 C 
ATOM     34  N   UNL     1     135.132 116.519  39.807  1.00  0.00    -0.279 NA
ATOM     35  S   UNL     1     133.681 116.295  42.074  1.00  0.00    -0.110 SA
ATOM     36  C   UNL     1     134.468 117.099  40.739  1.00  0.00     0.070 C 
ATOM     37  C   UNL     1     140.245 109.378  40.439  1.00  0.00     0.013 C 
ATOM     38  C   UNL     1     136.407 108.193  40.112  1.00  0.00     0.012 C 
ATOM     39  C   UNL     1     136.892 115.080  41.716  1.00  0.00     0.015 C 
BRANCH  15  40
ATOM     40  O   UNL     1     138.256 105.551  41.567  1.00  0.00    -0.393 OA
ATOM     41  H   UNL     1     138.845 104.900  41.130  1.00  0.00     0.210 HD
ENDBRANCH  15  40
BRANCH  36  42
ATOM     42  C   UNL     1     134.362 118.623  40.696  1.00  0.00     0.038 C 
ATOM     43  C   UNL     1     133.207 119.139  41.552  1.00  0.00     0.015 C 
ATOM     44  C   UNL     1     134.297 119.159  39.268  1.00  0.00     0.015 C 
ENDBRANCH  36  42
ENDBRANCH  12  14
ENDBRANCH   1  12
TORSDOF 7
ENDMDL
MODEL 4
REMARK minimizedAffinity -9.70893192
REMARK CNNscore 0.634487987
REMARK CNNaffinity 8.14352608
REMARK SMILES COc1ccc(CN(C)[C@@H](C)[C@H]2[C@H](O)C[C@@]3(C)[C@@H]4CC[C@H]5[C@]6(C)CSC(C(C)C)=N[C@H]6CC[C@@]56C[C@@]46C(=O)C[C@]23C)cc1
REMARK SMILES IDX 8 1 9 2 7 3 6 4 3 5 4 6 43 7 5 8 42 9 2 10 1 11 10 12 11 13
REMARK SMILES IDX 12 14 13 15 40 16 15 17 39 18 16 19 37 20 18 21 36 22 38 23
REMARK SMILES IDX 19 24 35 25 34 26 20 27 33 28 21 29 32 30 22 31 31 32 24 33
REMARK SMILES IDX 30 34 25 35 26 36 41 37 17 38 23 39 14 40 27 42 28 43 29 44
REMARK H PARENT 14 41
ROOT
ATOM      1  N   UNL     1     134.927 117.517  40.373  1.00  0.00    -0.299 NA
ATOM      2  C   UNL     1     136.188 118.250  40.196  1.00  0.00     0.106 C 
ENDROOT
BRANCH   1   3
ATOM      3  C   UNL     1     134.175 118.044  41.530  1.00  0.00     0.120 C 
BRANCH   3   4
ATOM      4  C   UNL     1     133.487 116.952  42.324  1.00  0.00    -0.034 A 
ATOM      5  C   UNL     1     132.198 114.929  43.803  1.00  0.00     0.118 A 
ATOM      6  C   UNL     1     131.478 115.718  42.904  1.00  0.00     0.047 A 
ATOM      7  C   UNL     1     133.566 115.152  43.961  1.00  0.00     0.047 A 
ATOM      8  C   UNL     1     132.113 116.722  42.171  1.00  0.00     0.009 A 
ATOM      9  C   UNL     1     134.206 116.158  43.226  1.00  0.00     0.009 A 
BRANCH   5  10
ATOM     10  O   UNL     1     131.454 113.985  44.457  1.00  0.00    -0.497 OA
ATOM     11  C   UNL     1     131.778 112.625  44.206  1.00  0.00     0.278 C 
ENDBRANCH   5  10
ENDBRANCH   3   4
ENDBRANCH   1   3
BRANCH   1  12
ATOM     12  C   UNL     1     134.082 117.453  39.147  1.00  0.00     0.059 C 
ATOM     13  C   UNL     1     134.537 118.415  38.042  1.00  0.00     0.025 C 
BRANCH  12  14
ATOM     14  C   UNL     1     133.995 115.970  38.670  1.00  0.00     0.042 C 
ATOM     15  C   UNL     1     134.303 115.850  37.148  1.00  0.00     0.120 C 
ATOM     16  C   UNL     1     134.932 114.883  39.285  1.00  0.00    -0.013 C 
ATOM     17  C   UNL     1     134.874 114.442  36.901  1.00  0.00     0.039 C 
ATOM     18  C   UNL     1     134.538 114.381  40.676  1.00  0.00     0.084 C 
ATOM     19  C   UNL     1     134.741 113.706  38.251  1.00  0.00    -0.020 C 
ATOM     20  C   UNL     1     134.925 112.935  40.952  1.00  0.00     0.140 C 
ATOM     21  C   UNL     1     135.827 112.622  38.501  1.00  0.00     0.010 C 
ATOM     22  C   UNL     1     135.908 112.240  40.007  1.00  0.00     0.039 C 
ATOM     23  O   UNL     1     134.442 112.355  41.920  1.00  0.00    -0.299 OA
ATOM     24  C   UNL     1     135.696 111.385  37.609  1.00  0.00     0.005 C 
ATOM     25  C   UNL     1     137.344 112.076  40.503  1.00  0.00     0.024 C 
ATOM     26  C   UNL     1     136.496 110.838  40.403  1.00  0.00    -0.012 C 
ATOM     27  C   UNL     1     136.835 110.410  37.890  1.00  0.00     0.005 C 
ATOM     28  C   UNL     1     136.165 110.177  41.735  1.00  0.00     0.010 C 
ATOM     29  C   UNL     1     136.672 109.792  39.288  1.00  0.00     0.005 C 
ATOM     30  C   UNL     1     137.204 109.128  42.110  1.00  0.00     0.028 C 
ATOM     31  C   UNL     1     137.753 108.699  39.646  1.00  0.00     0.003 C 
ATOM     32  C   UNL     1     137.374 108.077  41.010  1.00  0.00     0.113 C 
ATOM     33  C   UNL     1     137.687 107.564  38.601  1.00  0.00     0.085 C 
ATOM     34  N   UNL     1     138.368 107.122  41.490  1.00  0.00    -0.279 NA
ATOM     35  S   UNL     1     138.457 105.988  39.041  1.00  0.00    -0.110 SA
ATOM     36  C   UNL     1     138.842 106.205  40.730  1.00  0.00     0.070 C 
ATOM     37  C   UNL     1     136.387 115.433  39.361  1.00  0.00     0.013 C 
ATOM     38  C   UNL     1     133.321 113.055  38.271  1.00  0.00     0.012 C 
ATOM     39  C   UNL     1     139.177 109.308  39.652  1.00  0.00     0.015 C 
BRANCH  15  40
ATOM     40  O   UNL     1     133.122 116.043  36.388  1.00  0.00    -0.393 OA
ATOM     41  H   UNL     1     132.782 116.921  36.663  1.00  0.00     0.210 HD
ENDBRANCH  15  40
BRANCH  36  42
ATOM     42  C   UNL     1     139.841 105.220  41.338  1.00  0.00     0.038 C 
ATOM     43  C   UNL     1     139.841 105.274  42.863  1.00  0.00     0.015 C 
ATOM     44  C   UNL     1     141.245 105.391  40.762  1.00  0.00     0.015 C 
ENDBRANCH  36  42
ENDBRANCH  12  14
ENDBRANCH   1  12
TORSDOF 7
ENDMDL
MODEL 5
REMARK minimizedAffinity -8.65749454
REMARK CNNscore 0.605571866
REMARK CNNaffinity 7.54235697
REMARK SMILES COc1ccc(CN(C)[C@@H](C)[C@H]2[C@H](O)C[C@@]3(C)[C@@H]4CC[C@H]5[C@]6(C)CSC(C(C)C)=N[C@H]6CC[C@@]56C[C@@]46C(=O)C[C@]23C)cc1
REMARK SMILES IDX 8 1 9 2 7 3 6 4 3 5 4 6 43 7 5 8 42 9 2 10 1 11 10 12 11 13
REMARK SMILES IDX 12 14 13 15 40 16 15 17 39 18 16 19 37 20 18 21 36 22 38 23
REMARK SMILES IDX 19 24 35 25 34 26 20 27 33 28 21 29 32 30 22 31 31 32 24 33
REMARK SMILES IDX 30 34 25 35 26 36 41 37 17 38 23 39 14 40 27 42 28 43 29 44
REMARK H PARENT 14 41
ROOT
ATOM      1  N   UNL     1     141.960 107.589  36.037  1.00  0.00    -0.299 NA
ATOM      2  C   UNL     1     141.615 108.653  36.990  1.00  0.00     0.106 C 
ENDROOT
BRANCH   1   3
ATOM      3  C   UNL     1     143.226 106.933  36.423  1.00  0.00     0.120 C 
BRANCH   3   4
ATOM      4  C   UNL     1     143.171 106.330  37.811  1.00  0.00    -0.034 A 
ATOM      5  C   UNL     1     143.070 105.220  40.399  1.00  0.00     0.118 A 
ATOM      6  C   UNL     1     142.273 106.317  40.067  1.00  0.00     0.047 A 
ATOM      7  C   UNL     1     143.919 104.677  39.434  1.00  0.00     0.047 A 
ATOM      8  C   UNL     1     142.322 106.870  38.786  1.00  0.00     0.009 A 
ATOM      9  C   UNL     1     143.969 105.230  38.149  1.00  0.00     0.009 A 
BRANCH   5  10
ATOM     10  O   UNL     1     142.927 104.779  41.687  1.00  0.00    -0.497 OA
ATOM     11  C   UNL     1     141.604 104.727  42.204  1.00  0.00     0.278 C 
ENDBRANCH   5  10
ENDBRANCH   3   4
ENDBRANCH   1   3
BRANCH   1  12
ATOM     12  C   UNL     1     140.870 106.598  35.809  1.00  0.00     0.059 C 
ATOM     13  C   UNL     1     140.880 105.439  36.815  1.00  0.00     0.025 C 
BRANCH  12  14
ATOM     14  C   UNL     1     139.504 107.351  35.754  1.00  0.00     0.042 C 
ATOM     15  C   UNL     1     138.311 106.353  35.819  1.00  0.00     0.120 C 
ATOM     16  C   UNL     1     139.128 108.390  36.857  1.00  0.00    -0.013 C 
ATOM     17  C   UNL     1     137.117 107.098  36.443  1.00  0.00     0.039 C 
ATOM     18  C   UNL     1     139.803 109.758  36.733  1.00  0.00     0.084 C 
ATOM     19  C   UNL     1     137.583 108.564  36.587  1.00  0.00    -0.020 C 
ATOM     20  C   UNL     1     138.971 110.916  37.265  1.00  0.00     0.140 C 
ATOM     21  C   UNL     1     136.937 109.328  37.777  1.00  0.00     0.010 C 
ATOM     22  C   UNL     1     137.745 110.610  38.130  1.00  0.00     0.039 C 
ATOM     23  O   UNL     1     139.293 112.069  36.990  1.00  0.00    -0.299 OA
ATOM     24  C   UNL     1     135.447 109.630  37.593  1.00  0.00     0.005 C 
ATOM     25  C   UNL     1     137.891 110.826  39.635  1.00  0.00     0.024 C 
ATOM     26  C   UNL     1     137.017 111.784  38.876  1.00  0.00    -0.012 C 
ATOM     27  C   UNL     1     134.896 110.330  38.831  1.00  0.00     0.005 C 
ATOM     28  C   UNL     1     137.534 113.216  38.816  1.00  0.00     0.010 C 
ATOM     29  C   UNL     1     135.479 111.748  38.945  1.00  0.00     0.005 C 
ATOM     30  C   UNL     1     137.005 114.048  39.977  1.00  0.00     0.028 C 
ATOM     31  C   UNL     1     134.905 112.593  40.148  1.00  0.00     0.003 C 
ATOM     32  C   UNL     1     135.475 114.027  40.042  1.00  0.00     0.113 C 
ATOM     33  C   UNL     1     133.372 112.708  39.995  1.00  0.00     0.085 C 
ATOM     34  N   UNL     1     135.090 114.871  41.169  1.00  0.00    -0.279 NA
ATOM     35  S   UNL     1     132.542 114.006  40.941  1.00  0.00    -0.110 SA
ATOM     36  C   UNL     1     133.877 114.933  41.579  1.00  0.00     0.070 C 
ATOM     37  C   UNL     1     139.468 107.806  38.260  1.00  0.00     0.013 C 
ATOM     38  C   UNL     1     137.240 109.278  35.241  1.00  0.00     0.012 C 
ATOM     39  C   UNL     1     135.237 111.925  41.504  1.00  0.00     0.015 C 
BRANCH  15  40
ATOM     40  O   UNL     1     137.979 105.895  34.518  1.00  0.00    -0.393 OA
ATOM     41  H   UNL     1     138.808 105.509  34.164  1.00  0.00     0.210 HD
ENDBRANCH  15  40
BRANCH  36  42
ATOM     42  C   UNL     1     133.562 115.884  42.734  1.00  0.00     0.038 C 
ATOM     43  C   UNL     1     134.374 115.555  43.984  1.00  0.00     0.015 C 
ATOM     44  C   UNL     1     132.066 115.960  43.030  1.00  0.00     0.015 C 
ENDBRANCH  36  42
ENDBRANCH  12  14
ENDBRANCH   1  12
TORSDOF 7
ENDMDL
MODEL 6
REMARK minimizedAffinity -10.0467386
REMARK CNNscore 0.588498116
REMARK CNNaffinity 8.00565147
REMARK SMILES COc1ccc(CN(C)[C@@H](C)[C@H]2[C@H](O)C[C@@]3(C)[C@@H]4CC[C@H]5[C@]6(C)CSC(C(C)C)=N[C@H]6CC[C@@]56C[C@@]46C(=O)C[C@]23C)cc1
REMARK SMILES IDX 8 1 9 2 7 3 6 4 3 5 4 6 43 7 5 8 42 9 2 10 1 11 10 12 11 13
REMARK SMILES IDX 12 14 13 15 40 16 15 17 39 18 16 19 37 20 18 21 36 22 38 23
REMARK SMILES IDX 19 24 35 25 34 26 20 27 33 28 21 29 32 30 22 31 31 32 24 33
REMARK SMILES IDX 30 34 25 35 26 36 41 37 17 38 23 39 14 40 27 42 28 43 29 44
REMARK H PARENT 14 41
ROOT
ATOM      1  N   UNL     1     132.856 115.453  41.987  1.00  0.00    -0.299 NA
ATOM      2  C   UNL     1     131.792 115.455  43.001  1.00  0.00     0.106 C 
ENDROOT
BRANCH   1   3
ATOM      3  C   UNL     1     132.878 116.732  41.250  1.00  0.00     0.120 C 
BRANCH   3   4
ATOM      4  C   UNL     1     134.279 117.158  40.862  1.00  0.00    -0.034 A 
ATOM      5  C   UNL     1     136.889 117.952  40.153  1.00  0.00     0.118 A 
ATOM      6  C   UNL     1     136.682 117.045  41.194  1.00  0.00     0.047 A 
ATOM      7  C   UNL     1     135.787 118.461  39.465  1.00  0.00     0.047 A 
ATOM      8  C   UNL     1     135.390 116.651  41.549  1.00  0.00     0.009 A 
ATOM      9  C   UNL     1     134.491 118.067  39.818  1.00  0.00     0.009 A 
BRANCH   5  10
ATOM     10  O   UNL     1     138.201 118.254  39.912  1.00  0.00    -0.497 OA
ATOM     11  C   UNL     1     139.173 117.555  40.678  1.00  0.00     0.278 C 
ENDBRANCH   5  10
ENDBRANCH   3   4
ENDBRANCH   1   3
BRANCH   1  12
ATOM     12  C   UNL     1     134.202 115.096  42.516  1.00  0.00     0.059 C 
ATOM     13  C   UNL     1     134.370 115.399  44.012  1.00  0.00     0.025 C 
BRANCH  12  14
ATOM     14  C   UNL     1     134.512 113.609  42.154  1.00  0.00     0.042 C 
ATOM     15  C   UNL     1     133.233 112.875  41.655  1.00  0.00     0.120 C 
ATOM     16  C   UNL     1     135.548 113.266  41.039  1.00  0.00    -0.013 C 
ATOM     17  C   UNL     1     133.686 111.749  40.708  1.00  0.00     0.039 C 
ATOM     18  C   UNL     1     137.020 113.397  41.441  1.00  0.00     0.084 C 
ATOM     19  C   UNL     1     135.227 111.740  40.793  1.00  0.00    -0.020 C 
ATOM     20  C   UNL     1     137.953 112.436  40.719  1.00  0.00     0.140 C 
ATOM     21  C   UNL     1     135.939 111.268  39.495  1.00  0.00     0.010 C 
ATOM     22  C   UNL     1     137.437 111.689  39.487  1.00  0.00     0.039 C 
ATOM     23  O   UNL     1     139.096 112.275  41.138  1.00  0.00    -0.299 OA
ATOM     24  C   UNL     1     135.768 109.777  39.193  1.00  0.00     0.005 C 
ATOM     25  C   UNL     1     137.904 112.199  38.125  1.00  0.00     0.024 C 
ATOM     26  C   UNL     1     138.448 110.880  38.598  1.00  0.00    -0.012 C 
ATOM     27  C   UNL     1     136.453 109.426  37.876  1.00  0.00     0.005 C 
ATOM     28  C   UNL     1     139.943 110.868  38.891  1.00  0.00     0.010 C 
ATOM     29  C   UNL     1     137.979 109.529  38.026  1.00  0.00     0.005 C 
ATOM     30  C   UNL     1     140.748 110.471  37.660  1.00  0.00     0.028 C 
ATOM     31  C   UNL     1     138.790 109.099  36.742  1.00  0.00     0.003 C 
ATOM     32  C   UNL     1     140.296 109.121  37.095  1.00  0.00     0.113 C 
ATOM     33  C   UNL     1     138.434 107.639  36.388  1.00  0.00     0.085 C 
ATOM     34  N   UNL     1     141.149 108.840  35.945  1.00  0.00    -0.279 NA
ATOM     35  S   UNL     1     139.562 106.757  35.283  1.00  0.00    -0.110 SA
ATOM     36  C   UNL     1     140.918 107.850  35.162  1.00  0.00     0.070 C 
ATOM     37  C   UNL     1     135.301 114.176  39.800  1.00  0.00     0.013 C 
ATOM     38  C   UNL     1     135.607 110.803  41.984  1.00  0.00     0.012 C 
ATOM     39  C   UNL     1     138.453 110.016  35.541  1.00  0.00     0.015 C 
BRANCH  15  40
ATOM     40  O   UNL     1     132.512 112.336  42.752  1.00  0.00    -0.393 OA
ATOM     41  H   UNL     1     132.335 113.100  43.340  1.00  0.00     0.210 HD
ENDBRANCH  15  40
BRANCH  36  42
ATOM     42  C   UNL     1     141.897 107.606  34.014  1.00  0.00     0.038 C 
ATOM     43  C   UNL     1     141.893 106.148  33.560  1.00  0.00     0.015 C 
ATOM     44  C   UNL     1     143.305 108.098  34.339  1.00  0.00     0.015 C 
ENDBRANCH  36  42
ENDBRANCH  12  14
ENDBRANCH   1  12
TORSDOF 7
ENDMDL
MODEL 7
REMARK minimizedAffinity 0.986640871
REMARK CNNscore 0.575233459
REMARK CNNaffinity 7.89076757
REMARK SMILES COc1ccc(CN(C)[C@@H](C)[C@H]2[C@H](O)C[C@@]3(C)[C@@H]4CC[C@H]5[C@]6(C)CSC(C(C)C)=N[C@H]6CC[C@@]56C[C@@]46C(=O)C[C@]23C)cc1
REMARK SMILES IDX 8 1 9 2 7 3 6 4 3 5 4 6 43 7 5 8 42 9 2 10 1 11 10 12 11 13
REMARK SMILES IDX 12 14 13 15 40 16 15 17 39 18 16 19 37 20 18 21 36 22 38 23
REMARK SMILES IDX 19 24 35 25 34 26 20 27 33 28 21 29 32 30 22 31 31 32 24 33
REMARK SMILES IDX 30 34 25 35 26 36 41 37 17 38 23 39 14 40 27 42 28 43 29 44
REMARK H PARENT 14 41
ROOT
ATOM      1  N   UNL     1     135.851 117.543  39.957  1.00  0.00    -0.299 NA
ATOM      2  C   UNL     1     135.522 118.918  39.555  1.00  0.00     0.106 C 
ENDROOT
BRANCH   1   3
ATOM      3  C   UNL     1     136.070 117.464  41.415  1.00  0.00     0.120 C 
BRANCH   3   4
ATOM      4  C   UNL     1     137.445 116.940  41.771  1.00  0.00    -0.034 A 
ATOM      5  C   UNL     1     140.000 115.952  42.435  1.00  0.00     0.118 A 
ATOM      6  C   UNL     1     139.154 115.223  41.597  1.00  0.00     0.047 A 
ATOM      7  C   UNL     1     139.567 117.178  42.941  1.00  0.00     0.047 A 
ATOM      8  C   UNL     1     137.887 115.709  41.267  1.00  0.00     0.009 A 
ATOM      9  C   UNL     1     138.297 117.668  42.611  1.00  0.00     0.009 A 
BRANCH   5  10
ATOM     10  O   UNL     1     141.210 115.361  42.678  1.00  0.00    -0.497 OA
ATOM     11  C   UNL     1     142.260 115.648  41.765  1.00  0.00     0.278 C 
ENDBRANCH   5  10
ENDBRANCH   3   4
ENDBRANCH   1   3
BRANCH   1  12
ATOM     12  C   UNL     1     134.874 116.521  39.488  1.00  0.00     0.059 C 
ATOM     13  C   UNL     1     134.586 116.598  37.982  1.00  0.00     0.025 C 
BRANCH  12  14
ATOM     14  C   UNL     1     135.356 115.110  39.948  1.00  0.00     0.042 C 
ATOM     15  C   UNL     1     134.178 114.093  39.972  1.00  0.00     0.120 C 
ATOM     16  C   UNL     1     136.442 114.339  39.132  1.00  0.00    -0.013 C 
ATOM     17  C   UNL     1     134.769 112.692  39.739  1.00  0.00     0.039 C 
ATOM     18  C   UNL     1     137.882 114.817  39.333  1.00  0.00     0.084 C 
ATOM     19  C   UNL     1     136.300 112.891  39.742  1.00  0.00    -0.020 C 
ATOM     20  C   UNL     1     138.930 113.723  39.181  1.00  0.00     0.140 C 
ATOM     21  C   UNL     1     137.081 111.881  38.854  1.00  0.00     0.010 C 
ATOM     22  C   UNL     1     138.520 112.388  38.553  1.00  0.00     0.039 C 
ATOM     23  O   UNL     1     140.078 113.928  39.567  1.00  0.00    -0.299 OA
ATOM     24  C   UNL     1     137.086 110.447  39.390  1.00  0.00     0.005 C 
ATOM     25  C   UNL     1     138.946 112.147  37.106  1.00  0.00     0.024 C 
ATOM     26  C   UNL     1     139.630 111.342  38.176  1.00  0.00    -0.012 C 
ATOM     27  C   UNL     1     137.825 109.527  38.424  1.00  0.00     0.005 C 
ATOM     28  C   UNL     1     141.112 111.644  38.359  1.00  0.00     0.010 C 
ATOM     29  C   UNL     1     139.327 109.853  38.424  1.00  0.00     0.005 C 
ATOM     30  C   UNL     1     141.975 110.743  37.485  1.00  0.00     0.028 C 
ATOM     31  C   UNL     1     140.201 108.898  37.521  1.00  0.00     0.003 C 
ATOM     32  C   UNL     1     141.689 109.261  37.737  1.00  0.00     0.113 C 
ATOM     33  C   UNL     1     140.019 107.443  38.006  1.00  0.00     0.085 C 
ATOM     34  N   UNL     1     142.585 108.505  36.868  1.00  0.00    -0.279 NA
ATOM     35  S   UNL     1     141.256 106.234  37.478  1.00  0.00    -0.110 SA
ATOM     36  C   UNL     1     142.480 107.233  36.735  1.00  0.00     0.070 C 
ATOM     37  C   UNL     1     136.110 114.425  37.613  1.00  0.00     0.013 C 
ATOM     38  C   UNL     1     136.767 112.769  41.227  1.00  0.00     0.012 C 
ATOM     39  C   UNL     1     139.779 109.000  36.035  1.00  0.00     0.015 C 
BRANCH  15  40
ATOM     40  O   UNL     1     133.507 114.144  41.221  1.00  0.00    -0.393 OA
ATOM     41  H   UNL     1     133.235 115.080  41.327  1.00  0.00     0.210 HD
ENDBRANCH  15  40
BRANCH  36  42
ATOM     42  C   UNL     1     143.497 106.523  35.842  1.00  0.00     0.038 C 
ATOM     43  C   UNL     1     144.450 105.645  36.648  1.00  0.00     0.015 C 
ATOM     44  C   UNL     1     144.247 107.494  34.933  1.00  0.00     0.015 C 
ENDBRANCH  36  42
ENDBRANCH  12  14
ENDBRANCH   1  12
TORSDOF 7
ENDMDL
MODEL 8
REMARK minimizedAffinity -8.62121677
REMARK CNNscore 0.57510078
REMARK CNNaffinity 8.04743862
REMARK SMILES COc1ccc(CN(C)[C@@H](C)[C@H]2[C@H](O)C[C@@]3(C)[C@@H]4CC[C@H]5[C@]6(C)CSC(C(C)C)=N[C@H]6CC[C@@]56C[C@@]46C(=O)C[C@]23C)cc1
REMARK SMILES IDX 8 1 9 2 7 3 6 4 3 5 4 6 43 7 5 8 42 9 2 10 1 11 10 12 11 13
REMARK SMILES IDX 12 14 13 15 40 16 15 17 39 18 16 19 37 20 18 21 36 22 38 23
REMARK SMILES IDX 19 24 35 25 34 26 20 27 33 28 21 29 32 30 22 31 31 32 24 33
REMARK SMILES IDX 30 34 25 35 26 36 41 37 17 38 23 39 14 40 27 42 28 43 29 44
REMARK H PARENT 14 41
ROOT
ATOM      1  N   UNL     1     134.944 116.976  39.971  1.00  0.00    -0.299 NA
ATOM      2  C   UNL     1     135.527 117.974  39.063  1.00  0.00     0.106 C 
ENDROOT
BRANCH   1   3
ATOM      3  C   UNL     1     134.368 117.629  41.164  1.00  0.00     0.120 C 
BRANCH   3   4
ATOM      4  C   UNL     1     133.659 116.652  42.078  1.00  0.00    -0.034 A 
ATOM      5  C   UNL     1     132.333 114.843  43.785  1.00  0.00     0.118 A 
ATOM      6  C   UNL     1     131.616 115.822  43.096  1.00  0.00     0.047 A 
ATOM      7  C   UNL     1     133.716 114.767  43.619  1.00  0.00     0.047 A 
ATOM      8  C   UNL     1     132.270 116.721  42.251  1.00  0.00     0.009 A 
ATOM      9  C   UNL     1     134.374 115.667  42.771  1.00  0.00     0.009 A 
BRANCH   5  10
ATOM     10  O   UNL     1     131.571 114.031  44.580  1.00  0.00    -0.497 OA
ATOM     11  C   UNL     1     131.628 112.636  44.315  1.00  0.00     0.278 C 
ENDBRANCH   5  10
ENDBRANCH   3   4
ENDBRANCH   1   3
BRANCH   1  12
ATOM     12  C   UNL     1     133.971 116.054  39.320  1.00  0.00     0.059 C 
ATOM     13  C   UNL     1     134.010 116.110  37.787  1.00  0.00     0.025 C 
BRANCH  12  14
ATOM     14  C   UNL     1     134.180 114.615  39.886  1.00  0.00     0.042 C 
ATOM     15  C   UNL     1     133.001 113.678  39.490  1.00  0.00     0.120 C 
ATOM     16  C   UNL     1     135.427 113.773  39.469  1.00  0.00    -0.013 C 
ATOM     17  C   UNL     1     133.548 112.240  39.441  1.00  0.00     0.039 C 
ATOM     18  C   UNL     1     136.741 114.154  40.155  1.00  0.00     0.084 C 
ATOM     19  C   UNL     1     134.997 112.338  39.964  1.00  0.00    -0.020 C 
ATOM     20  C   UNL     1     137.708 112.993  40.342  1.00  0.00     0.140 C 
ATOM     21  C   UNL     1     135.966 111.277  39.371  1.00  0.00     0.010 C 
ATOM     22  C   UNL     1     137.452 111.688  39.585  1.00  0.00     0.039 C 
ATOM     23  O   UNL     1     138.668 113.123  41.097  1.00  0.00    -0.299 OA
ATOM     24  C   UNL     1     135.700 109.847  39.847  1.00  0.00     0.005 C 
ATOM     25  C   UNL     1     138.326 111.417  38.362  1.00  0.00     0.024 C 
ATOM     26  C   UNL     1     138.555 110.570  39.583  1.00  0.00    -0.012 C 
ATOM     27  C   UNL     1     136.663 108.879  39.169  1.00  0.00     0.005 C 
ATOM     28  C   UNL     1     139.904 110.773  40.262  1.00  0.00     0.010 C 
ATOM     29  C   UNL     1     138.094 109.105  39.683  1.00  0.00     0.005 C 
ATOM     30  C   UNL     1     140.954 109.816  39.711  1.00  0.00     0.028 C 
ATOM     31  C   UNL     1     139.159 108.092  39.108  1.00  0.00     0.003 C 
ATOM     32  C   UNL     1     140.506 108.356  39.821  1.00  0.00     0.113 C 
ATOM     33  C   UNL     1     138.733 106.653  39.472  1.00  0.00     0.085 C 
ATOM     34  N   UNL     1     141.594 107.542  39.290  1.00  0.00    -0.279 NA
ATOM     35  S   UNL     1     139.998 105.365  39.367  1.00  0.00    -0.110 SA
ATOM     36  C   UNL     1     141.461 106.280  39.102  1.00  0.00     0.070 C 
ATOM     37  C   UNL     1     135.634 113.879  37.929  1.00  0.00     0.013 C 
ATOM     38  C   UNL     1     134.925 112.188  41.518  1.00  0.00     0.012 C 
ATOM     39  C   UNL     1     139.273 108.220  37.569  1.00  0.00     0.015 C 
BRANCH  15  40
ATOM     40  O   UNL     1     131.952 113.775  40.440  1.00  0.00    -0.393 OA
ATOM     41  H   UNL     1     131.720 114.727  40.467  1.00  0.00     0.210 HD
ENDBRANCH  15  40
BRANCH  36  42
ATOM     42  C   UNL     1     142.673 105.502  38.590  1.00  0.00     0.038 C 
ATOM     43  C   UNL     1     143.708 105.269  39.688  1.00  0.00     0.015 C 
ATOM     44  C   UNL     1     143.292 106.145  37.351  1.00  0.00     0.015 C 
ENDBRANCH  36  42
ENDBRANCH  12  14
ENDBRANCH   1  12
TORSDOF 7
ENDMDL
MODEL 9
REMARK minimizedAffinity -10.5131769
REMARK CNNscore 0.54482621
REMARK CNNaffinity 7.65776205
REMARK SMILES COc1ccc(CN(C)[C@@H](C)[C@H]2[C@H](O)C[C@@]3(C)[C@@H]4CC[C@H]5[C@]6(C)CSC(C(C)C)=N[C@H]6CC[C@@]56C[C@@]46C(=O)C[C@]23C)cc1
REMARK SMILES IDX 8 1 9 2 7 3 6 4 3 5 4 6 43 7 5 8 42 9 2 10 1 11 10 12 11 13
REMARK SMILES IDX 12 14 13 15 40 16 15 17 39 18 16 19 37 20 18 21 36 22 38 23
REMARK SMILES IDX 19 24 35 25 34 26 20 27 33 28 21 29 32 30 22 31 31 32 24 33
REMARK SMILES IDX 30 34 25 35 26 36 41 37 17 38 23 39 14 40 27 42 28 43 29 44
REMARK H PARENT 14 41
ROOT
ATOM      1  N   UNL     1     140.534 105.664  38.265  1.00  0.00    -0.299 NA
ATOM      2  C   UNL     1     139.313 105.901  37.483  1.00  0.00     0.106 C 
ENDROOT
BRANCH   1   3
ATOM      3  C   UNL     1     141.732 105.779  37.409  1.00  0.00     0.120 C 
BRANCH   3   4
ATOM      4  C   UNL     1     141.526 106.720  36.241  1.00  0.00    -0.034 A 
ATOM      5  C   UNL     1     141.132 108.467  34.064  1.00  0.00     0.118 A 
ATOM      6  C   UNL     1     140.102 108.225  34.975  1.00  0.00     0.047 A 
ATOM      7  C   UNL     1     142.363 107.834  34.244  1.00  0.00     0.047 A 
ATOM      8  C   UNL     1     140.293 107.360  36.053  1.00  0.00     0.009 A 
ATOM      9  C   UNL     1     142.558 106.966  35.325  1.00  0.00     0.009 A 
BRANCH   5  10
ATOM     10  O   UNL     1     140.810 109.332  33.054  1.00  0.00    -0.497 OA
ATOM     11  C   UNL     1     139.555 109.991  33.149  1.00  0.00     0.278 C 
ENDBRANCH   5  10
ENDBRANCH   3   4
ENDBRANCH   1   3
BRANCH   1  12
ATOM     12  C   UNL     1     140.646 106.505  39.490  1.00  0.00     0.059 C 
ATOM     13  C   UNL     1     141.697 107.617  39.373  1.00  0.00     0.025 C 
BRANCH  12  14
ATOM     14  C   UNL     1     139.229 107.039  39.869  1.00  0.00     0.042 C 
ATOM     15  C   UNL     1     138.894 106.735  41.358  1.00  0.00     0.120 C 
ATOM     16  C   UNL     1     138.902 108.562  39.760  1.00  0.00    -0.013 C 
ATOM     17  C   UNL     1     137.908 107.813  41.841  1.00  0.00     0.039 C 
ATOM     18  C   UNL     1     138.639 109.082  38.344  1.00  0.00     0.084 C 
ATOM     19  C   UNL     1     137.558 108.638  40.583  1.00  0.00    -0.020 C 
ATOM     20  C   UNL     1     137.664 110.249  38.279  1.00  0.00     0.140 C 
ATOM     21  C   UNL     1     137.212 110.126  40.867  1.00  0.00     0.010 C 
ATOM     22  C   UNL     1     137.301 110.984  39.572  1.00  0.00     0.039 C 
ATOM     23  O   UNL     1     137.187 110.577  37.196  1.00  0.00    -0.299 OA
ATOM     24  C   UNL     1     135.881 110.334  41.593  1.00  0.00     0.005 C 
ATOM     25  C   UNL     1     137.960 112.342  39.802  1.00  0.00     0.024 C 
ATOM     26  C   UNL     1     136.489 112.326  39.493  1.00  0.00    -0.012 C 
ATOM     27  C   UNL     1     135.660 111.816  41.874  1.00  0.00     0.005 C 
ATOM     28  C   UNL     1     136.105 112.953  38.159  1.00  0.00     0.010 C 
ATOM     29  C   UNL     1     135.408 112.574  40.560  1.00  0.00     0.005 C 
ATOM     30  C   UNL     1     135.798 114.438  38.311  1.00  0.00     0.028 C 
ATOM     31  C   UNL     1     135.079 114.107  40.746  1.00  0.00     0.003 C 
ATOM     32  C   UNL     1     134.713 114.691  39.361  1.00  0.00     0.113 C 
ATOM     33  C   UNL     1     133.826 114.248  41.638  1.00  0.00     0.085 C 
ATOM     34  N   UNL     1     134.491 116.132  39.398  1.00  0.00    -0.279 NA
ATOM     35  S   UNL     1     132.963 115.837  41.605  1.00  0.00    -0.110 SA
ATOM     36  C   UNL     1     133.748 116.676  40.291  1.00  0.00     0.070 C 
ATOM     37  C   UNL     1     140.071 109.390  40.372  1.00  0.00     0.013 C 
ATOM     38  C   UNL     1     136.345 107.926  39.903  1.00  0.00     0.012 C 
ATOM     39  C   UNL     1     136.265 114.853  41.405  1.00  0.00     0.015 C 
BRANCH  15  40
ATOM     40  O   UNL     1     138.314 105.446  41.481  1.00  0.00    -0.393 OA
ATOM     41  H   UNL     1     138.966 104.834  41.081  1.00  0.00     0.210 HD
ENDBRANCH  15  40
BRANCH  36  42
ATOM     42  C   UNL     1     133.534 118.188  40.217  1.00  0.00     0.038 C 
ATOM     43  C   UNL     1     134.275 118.814  39.038  1.00  0.00     0.015 C 
ATOM     44  C   UNL     1     133.868 118.884  41.535  1.00  0.00     0.015 C 
ENDBRANCH  36  42
ENDBRANCH  12  14
ENDBRANCH   1  12
TORSDOF 7
ENDMDL
