MODEL 2
REMARK minimizedAffinity -9.77652454
REMARK CNNscore 0.856403887
REMARK CNNaffinity 7.6076932
REMARK SMILES Clc1cc(Nc2ncnc3cccc(OC4CCOCC4)c23)ccc1OCc1ccccn1
REMARK SMILES IDX 1 1 2 2 3 3 4 4 23 5 24 6 25 7 26 8 27 9 28 10 29 11 33 12
REMARK SMILES IDX 30 13 32 14 31 15 5 16 6 18 7 19 22 20 8 21 14 22 10 23 9 24
REMARK SMILES IDX 13 25 11 26 12 27 15 28 16 29 17 30 21 31 18 32 20 33 19 34
REMARK H PARENT 5 17
ROOT
ATOM      1  Cl  UNL     1      17.014  34.410   8.814  1.00  0.00    -0.080 Cl
ATOM      2  C   UNL     1      17.591  33.676  10.274  1.00  0.00     0.085 A 
ATOM      3  C   UNL     1      17.162  34.219  11.491  1.00  0.00     0.050 A 
ATOM      4  C   UNL     1      17.578  33.673  12.707  1.00  0.00     0.041 A 
ATOM      5  C   UNL     1      18.466  32.589  12.665  1.00  0.00     0.030 A 
ATOM      6  C   UNL     1      18.900  32.041  11.449  1.00  0.00     0.050 A 
ATOM      7  C   UNL     1      18.466  32.580  10.239  1.00  0.00     0.138 A 
ENDROOT
BRANCH   7   8
ATOM      8  O   UNL     1      18.826  32.121   8.999  1.00  0.00    -0.486 OA
BRANCH   8   9
ATOM      9  C   UNL     1      17.859  32.121   7.944  1.00  0.00     0.285 C 
BRANCH   9  10
ATOM     10  C   UNL     1      17.598  30.742   7.379  1.00  0.00     0.078 A 
ATOM     11  C   UNL     1      18.427  30.216   6.388  1.00  0.00     0.027 A 
ATOM     12  N   UNL     1      16.550  30.046   7.894  1.00  0.00    -0.258 NA
ATOM     13  C   UNL     1      18.166  28.939   5.899  1.00  0.00     0.004 A 
ATOM     14  C   UNL     1      16.324  28.809   7.400  1.00  0.00     0.111 A 
ATOM     15  C   UNL     1      17.096  28.219   6.413  1.00  0.00     0.020 A 
ENDBRANCH   9  10
ENDBRANCH   8   9
ENDBRANCH   7   8
BRANCH   4  16
ATOM     16  N   UNL     1      17.213  34.206  13.957  1.00  0.00    -0.339 N 
ATOM     17  H   UNL     1      17.900  34.045  14.688  1.00  0.00     0.168 HD
BRANCH  16  18
ATOM     18  C   UNL     1      15.935  34.387  14.544  1.00  0.00     0.145 A 
ATOM     19  N   UNL     1      14.840  34.076  13.824  1.00  0.00    -0.218 NA
ATOM     20  C   UNL     1      15.849  34.909  15.860  1.00  0.00     0.085 A 
ATOM     21  C   UNL     1      13.656  34.258  14.409  1.00  0.00     0.224 A 
ATOM     22  C   UNL     1      16.931  35.298  16.708  1.00  0.00     0.132 A 
ATOM     23  C   UNL     1      14.540  35.040  16.352  1.00  0.00     0.080 A 
ATOM     24  N   UNL     1      13.454  34.723  15.644  1.00  0.00    -0.236 NA
ATOM     25  C   UNL     1      16.704  35.733  18.017  1.00  0.00     0.047 A 
ATOM     26  C   UNL     1      14.341  35.513  17.643  1.00  0.00     0.029 A 
ATOM     27  C   UNL     1      15.403  35.851  18.481  1.00  0.00     0.006 A 
BRANCH  22  28
ATOM     28  O   UNL     1      18.220  35.152  16.250  1.00  0.00    -0.489 OA
BRANCH  28  29
ATOM     29  C   UNL     1      19.130  36.184  16.690  1.00  0.00     0.178 C 
ATOM     30  C   UNL     1      20.216  35.509  17.535  1.00  0.00     0.073 C 
ATOM     31  C   UNL     1      19.725  36.880  15.459  1.00  0.00     0.073 C 
ATOM     32  C   UNL     1      21.540  36.235  17.378  1.00  0.00     0.164 C 
ATOM     33  C   UNL     1      21.002  36.181  15.024  1.00  0.00     0.164 C 
ATOM     34  O   UNL     1      22.016  36.219  16.032  1.00  0.00    -0.381 OA
ENDBRANCH  28  29
ENDBRANCH  22  28
ENDBRANCH  16  18
ENDBRANCH   4  16
TORSDOF 7
ENDMDL
