REMARK SMILES N#CC[C@]1(n2ccc(-c3nc(-c4cc[nH]n4)cc4ncccc34)n2)C[C@H](C(N)=O)C1
REMARK SMILES IDX 5 1 6 2 7 3 8 4 24 5 4 6 25 7 30 8 26 9 3 10 1 11 2 12 27 13
REMARK SMILES IDX 28 14 29 15 9 18 10 19 23 20 11 21 22 22 18 23 17 24 21 25
REMARK SMILES IDX 19 26 20 27 12 28 13 29 16 30 14 31 15 32
REMARK H PARENT 28 16 28 17 15 33
REMARK INDEX MAP 5 1 6 2 7 3 8 4 24 5 4 6 25 7 30 8 26 9 3 10 1 11 2 12 27 13
REMARK INDEX MAP 28 14 29 15 45 16 46 17 9 18 10 19 23 20 11 21 22 22 18 23
REMARK INDEX MAP 17 24 21 25 19 26 20 27 12 28 13 29 16 30 14 31 15 32 37 33
ROOT
ATOM      1  N   UNL     1       4.587 -21.299  20.919  1.00  0.00    -0.265 N 
ATOM      2  C   UNL     1       4.904 -21.775  19.681  1.00  0.00     0.110 A 
ATOM      3  C   UNL     1       5.337 -23.063  19.881  1.00  0.00     0.052 A 
ATOM      4  C   UNL     1       5.210 -23.302  21.279  1.00  0.00     0.111 A 
ATOM      5  N   UNL     1       4.757 -22.198  21.898  1.00  0.00    -0.171 NA
ENDROOT
BRANCH   1   6
ATOM      6  C   UNL     1       3.998 -19.952  21.180  1.00  0.00     0.077 C 
ATOM      7  C   UNL     1       2.440 -20.000  21.173  1.00  0.00     0.045 C 
ATOM      8  C   UNL     1       3.901 -19.083  19.888  1.00  0.00     0.045 C 
ATOM      9  C   UNL     1       2.419 -18.786  20.213  1.00  0.00     0.083 C 
BRANCH   6  10
ATOM     10  C   UNL     1       4.645 -19.309  22.410  1.00  0.00     0.150 C 
ATOM     11  N   UNL     1       6.994 -18.243  21.885  1.00  0.00    -0.198 NA
ATOM     12  C   UNL     1       5.959 -18.719  22.111  1.00  0.00     0.065 C 
ENDBRANCH   6  10
BRANCH   9  13
ATOM     13  C   UNL     1       2.085 -17.393  20.815  1.00  0.00     0.220 C 
ATOM     14  N   UNL     1       0.938 -16.824  20.336  1.00  0.00    -0.369 N 
ATOM     15  O   UNL     1       2.754 -16.795  21.656  1.00  0.00    -0.275 OA
ATOM     16  H   UNL     1       0.639 -15.900  20.680  1.00  0.00     0.159 HD
ATOM     17  H   UNL     1       0.373 -17.319  19.631  1.00  0.00     0.159 HD
ENDBRANCH   9  13
ENDBRANCH   1   6
BRANCH   4  18
ATOM     18  C   UNL     1       5.560 -24.545  21.985  1.00  0.00     0.101 A 
ATOM     19  N   UNL     1       6.749 -24.470  22.638  1.00  0.00    -0.244 NA
ATOM     20  C   UNL     1       4.747 -25.703  21.978  1.00  0.00     0.028 A 
ATOM     21  C   UNL     1       7.147 -25.551  23.343  1.00  0.00     0.093 A 
ATOM     22  C   UNL     1       3.527 -25.881  21.276  1.00  0.00     0.014 A 
ATOM     23  C   UNL     1       5.202 -26.804  22.725  1.00  0.00     0.075 A 
ATOM     24  C   UNL     1       6.398 -26.715  23.407  1.00  0.00     0.059 A 
ATOM     25  C   UNL     1       2.828 -27.079  21.353  1.00  0.00     0.021 A 
ATOM     26  N   UNL     1       4.525 -27.965  22.805  1.00  0.00    -0.256 NA
ATOM     27  C   UNL     1       3.364 -28.083  22.128  1.00  0.00     0.112 A 
BRANCH  21  28
ATOM     28  C   UNL     1       8.431 -25.430  24.046  1.00  0.00     0.111 A 
ATOM     29  C   UNL     1       8.929 -26.286  25.068  1.00  0.00     0.052 A 
ATOM     30  N   UNL     1       9.315 -24.448  23.790  1.00  0.00    -0.174 NA
ATOM     31  C   UNL     1      10.154 -25.776  25.419  1.00  0.00     0.106 A 
ATOM     32  N   UNL     1      10.336 -24.683  24.629  1.00  0.00    -0.285 N 
ATOM     33  H   UNL     1      11.178 -24.092  24.671  1.00  0.00     0.189 HD
ENDBRANCH  21  28
ENDBRANCH   4  18
TORSDOF 5
