REMARK VINA RESULT:    -8.968      2.256      2.863
REMARK INTER + INTRA:         -11.498
REMARK INTER:                 -11.276
REMARK INTRA:                  -0.222
REMARK UNBOUND:                -0.433
REMARK SMILES CC(=O)Nc1cc2c(-c3cccc(S(=O)(=O)N(C)C)n3)cn(C)c2cn1
REMARK SMILES IDX 9 1 10 2 11 3 12 4 13 5 20 6 8 7 5 8 6 9 26 10 7 11 25 12
REMARK SMILES IDX 24 13 21 14 22 15 23 16 4 17 2 18 3 19 1 20 14 22 15 23
REMARK SMILES IDX 16 24 17 25 18 26 19 27
REMARK H PARENT 4 21
ROOT
ATOM      1  C   UNL     1       4.718 -24.254  21.200  1.00  0.00     0.074 A 
ATOM      2  C   UNL     1       3.901 -23.359  20.515  1.00  0.00     0.029 A 
ATOM      3  C   UNL     1       4.370 -22.068  20.260  1.00  0.00     0.005 A 
ATOM      4  C   UNL     1       5.641 -21.708  20.686  1.00  0.00     0.042 A 
ATOM      5  C   UNL     1       6.387 -22.671  21.347  1.00  0.00     0.171 A 
ATOM      6  N   UNL     1       5.962 -23.932  21.623  1.00  0.00    -0.235 NA
ENDROOT
BRANCH   1   7
ATOM      7  C   UNL     1       4.281 -25.611  21.496  1.00  0.00     0.026 A 
ATOM      8  C   UNL     1       6.307 -27.939  23.706  1.00  0.00     0.133 A 
ATOM      9  C   UNL     1       6.068 -26.745  23.041  1.00  0.00     0.058 A 
ATOM     10  N   UNL     1       5.470 -28.996  23.658  1.00  0.00    -0.237 NA
ATOM     11  C   UNL     1       4.879 -26.639  22.295  1.00  0.00     0.014 A 
ATOM     12  C   UNL     1       4.330 -28.920  22.935  1.00  0.00     0.140 A 
ATOM     13  C   UNL     1       4.031 -27.748  22.252  1.00  0.00     0.067 A 
ATOM     14  C   UNL     1       3.109 -26.137  20.980  1.00  0.00     0.096 A 
ATOM     15  N   UNL     1       2.965 -27.414  21.447  1.00  0.00    -0.349 N 
ATOM     16  C   UNL     1       1.852 -28.283  21.133  1.00  0.00     0.149 C 
BRANCH   8  17
ATOM     17  N   UNL     1       7.436 -28.178  24.492  1.00  0.00    -0.311 N 
ATOM     18  C   UNL     1       8.359 -27.273  24.959  1.00  0.00     0.222 C 
ATOM     19  O   UNL     1       8.348 -26.060  24.789  1.00  0.00    -0.275 OA
ATOM     20  C   UNL     1       9.440 -27.934  25.776  1.00  0.00     0.114 C 
ATOM     21  H   UNL     1       7.531 -29.155  24.730  1.00  0.00     0.171 HD
ENDBRANCH   8  17
ENDBRANCH   1   7
BRANCH   5  22
ATOM     22  S   UNL     1       8.023 -22.272  21.971  1.00  0.00     0.260 S 
ATOM     23  O   UNL     1       8.978 -22.930  21.099  1.00  0.00    -0.205 OA
ATOM     24  O   UNL     1       8.025 -22.540  23.396  1.00  0.00    -0.205 OA
BRANCH  22  25
ATOM     25  N   UNL     1       8.206 -20.588  21.727  1.00  0.00    -0.203 NA
ATOM     26  C   UNL     1       9.246 -20.168  20.768  1.00  0.00     0.124 C 
ATOM     27  C   UNL     1       8.178 -19.756  22.942  1.00  0.00     0.124 C 
ENDBRANCH  22  25
ENDBRANCH   5  22
TORSDOF 4
