REMARK VINA RESULT:    -7.134      4.102      7.070
REMARK INTER + INTRA:         -12.526
REMARK INTER:                 -11.622
REMARK INTRA:                  -0.905
REMARK UNBOUND:                -1.639
REMARK SMILES CCN(CC)CCOc1ccc(C(=O)/C=C/c2ccccc2)cc1
REMARK SMILES IDX 7 1 6 2 3 3 2 4 1 5 4 6 5 7 8 8 9 9 10 10 24 11 11 12 23 13
REMARK SMILES IDX 12 14 13 15 14 16 15 17 16 18 17 19 18 20 22 21 19 22 21 23
REMARK SMILES IDX 20 24
REMARK H PARENT
ROOT
ATOM      1  C   UNL     1     137.365 110.452  40.837  1.00  0.00     0.245 C 
ENDROOT
BRANCH   1   2
ATOM      2  C   UNL     1     137.671 109.093  40.184  1.00  0.00     0.126 C 
BRANCH   2   3
ATOM      3  N   UNL     1     136.637 108.055  40.378  1.00  0.00    -0.301 NA
BRANCH   3   4
ATOM      4  C   UNL     1     135.717 107.914  39.239  1.00  0.00     0.081 C 
ATOM      5  C   UNL     1     135.639 109.095  38.277  1.00  0.00     0.021 C 
ENDBRANCH   3   4
BRANCH   3   6
ATOM      6  C   UNL     1     137.275 106.792  40.793  1.00  0.00     0.081 C 
ATOM      7  C   UNL     1     138.042 106.887  42.108  1.00  0.00     0.021 C 
ENDBRANCH   3   6
ENDBRANCH   2   3
ENDBRANCH   1   2
BRANCH   1   8
ATOM      8  O   UNL     1     136.401 110.238  41.873  1.00  0.00    -0.492 OA
BRANCH   8   9
ATOM      9  C   UNL     1     135.469 111.220  42.067  1.00  0.00     0.119 A 
ATOM     10  C   UNL     1     135.356 112.036  43.192  1.00  0.00     0.047 A 
ATOM     11  C   UNL     1     134.564 111.380  41.014  1.00  0.00     0.047 A 
ATOM     12  C   UNL     1     134.348 113.005  43.258  1.00  0.00     0.016 A 
ATOM     13  C   UNL     1     133.555 112.347  41.075  1.00  0.00     0.016 A 
ATOM     14  C   UNL     1     133.451 113.175  42.196  1.00  0.00     0.022 A 
BRANCH  14  15
ATOM     15  C   UNL     1     132.398 114.218  42.329  1.00  0.00     0.185 C 
ATOM     16  O   UNL     1     131.334 113.949  42.877  1.00  0.00    -0.289 OA
BRANCH  15  17
ATOM     17  C   UNL     1     132.696 115.584  41.816  1.00  0.00     0.053 C 
ATOM     18  C   UNL     1     133.275 115.728  40.615  1.00  0.00     0.012 C 
BRANCH  18  19
ATOM     19  C   UNL     1     133.581 117.028  40.004  1.00  0.00    -0.026 A 
ATOM     20  C   UNL     1     134.002 117.063  38.668  1.00  0.00     0.008 A 
ATOM     21  C   UNL     1     133.518 118.228  40.723  1.00  0.00     0.008 A 
ATOM     22  C   UNL     1     134.326 118.275  38.055  1.00  0.00     0.001 A 
ATOM     23  C   UNL     1     133.844 119.441  40.110  1.00  0.00     0.001 A 
ATOM     24  C   UNL     1     134.245 119.465  38.776  1.00  0.00     0.000 A 
ENDBRANCH  18  19
ENDBRANCH  15  17
ENDBRANCH  14  15
ENDBRANCH   8   9
ENDBRANCH   1   8
TORSDOF 9
