REMARK VINA RESULT:   -10.720      1.496      2.317
REMARK INTER + INTRA:         -18.062
REMARK INTER:                 -17.144
REMARK INTRA:                  -0.917
REMARK UNBOUND:                -1.075
REMARK SMILES C#CCN(C)Cc1cc2cc(OCCCC3CCN(Cc4ccccc4)CC3)ccc2[nH]1
REMARK SMILES IDX 12 1 11 2 7 3 8 4 32 5 9 6 31 7 10 8 30 9 29 10 6 12 4 13
REMARK SMILES IDX 5 14 3 15 2 16 1 17 13 18 14 19 15 20 16 21 17 22 28 23
REMARK SMILES IDX 18 24 27 25 19 26 20 27 21 28 22 29 26 30 23 31 25 32 24 33
REMARK H PARENT 32 11
ROOT
ATOM      1  O   UNL     1     -14.394 -43.087  27.141  1.00  0.00    -0.494 OA
ENDROOT
BRANCH   1   2
ATOM      2  C   UNL     1     -15.533 -42.848  26.422  1.00  0.00     0.120 A 
ATOM      3  C   UNL     1     -20.024 -41.771  26.017  1.00  0.00     0.030 A 
ATOM      4  C   UNL     1     -19.175 -41.911  27.098  1.00  0.00     0.033 A 
ATOM      5  N   UNL     1     -19.277 -42.002  24.886  1.00  0.00    -0.357 N 
ATOM      6  C   UNL     1     -17.887 -42.260  26.607  1.00  0.00     0.003 A 
ATOM      7  C   UNL     1     -17.978 -42.310  25.218  1.00  0.00     0.046 A 
ATOM      8  C   UNL     1     -16.646 -42.532  27.213  1.00  0.00     0.056 A 
ATOM      9  C   UNL     1     -16.884 -42.622  24.406  1.00  0.00     0.030 A 
ATOM     10  C   UNL     1     -15.658 -42.889  25.035  1.00  0.00     0.048 A 
ATOM     11  H   UNL     1     -19.629 -41.961  23.940  1.00  0.00     0.166 HD
BRANCH   3  12
ATOM     12  C   UNL     1     -21.470 -41.399  25.947  1.00  0.00     0.139 C 
BRANCH  12  13
ATOM     13  N   UNL     1     -22.264 -41.756  27.128  1.00  0.00    -0.290 NA
ATOM     14  C   UNL     1     -23.232 -40.728  27.500  1.00  0.00     0.106 C 
BRANCH  13  15
ATOM     15  C   UNL     1     -22.882 -43.081  27.007  1.00  0.00     0.174 C 
ATOM     16  C   UNL     1     -22.042 -44.125  27.619  1.00  0.00    -0.091 C 
ATOM     17  C   UNL     1     -21.358 -44.981  28.113  1.00  0.00     0.005 C 
ENDBRANCH  13  15
ENDBRANCH  12  13
ENDBRANCH   3  12
ENDBRANCH   1   2
BRANCH   1  18
ATOM     18  C   UNL     1     -14.207 -44.363  27.750  1.00  0.00     0.229 C 
BRANCH  18  19
ATOM     19  C   UNL     1     -13.333 -45.285  26.897  1.00  0.00     0.042 C 
BRANCH  19  20
ATOM     20  C   UNL     1     -12.769 -46.504  27.638  1.00  0.00     0.007 C 
BRANCH  20  21
ATOM     21  C   UNL     1     -11.542 -46.237  28.528  1.00  0.00    -0.009 C 
ATOM     22  C   UNL     1     -11.946 -46.284  30.008  1.00  0.00     0.019 C 
ATOM     23  C   UNL     1     -10.874 -44.889  28.230  1.00  0.00     0.019 C 
ATOM     24  C   UNL     1     -10.769 -45.948  30.924  1.00  0.00     0.085 C 
ATOM     25  C   UNL     1      -9.734 -44.596  29.209  1.00  0.00     0.085 C 
ATOM     26  N   UNL     1     -10.202 -44.630  30.603  1.00  0.00    -0.299 NA
BRANCH  26  27
ATOM     27  C   UNL     1      -9.112 -44.309  31.544  1.00  0.00     0.120 C 
BRANCH  27  28
ATOM     28  C   UNL     1      -9.536 -43.398  32.677  1.00  0.00    -0.034 A 
ATOM     29  C   UNL     1     -10.874 -42.996  32.807  1.00  0.00     0.005 A 
ATOM     30  C   UNL     1      -8.605 -42.968  33.634  1.00  0.00     0.005 A 
ATOM     31  C   UNL     1     -11.270 -42.173  33.863  1.00  0.00     0.000 A 
ATOM     32  C   UNL     1      -9.003 -42.146  34.690  1.00  0.00     0.000 A 
ATOM     33  C   UNL     1     -10.334 -41.749  34.804  1.00  0.00     0.000 A 
ENDBRANCH  27  28
ENDBRANCH  26  27
ENDBRANCH  20  21
ENDBRANCH  19  20
ENDBRANCH  18  19
ENDBRANCH   1  18
TORSDOF 10
