MODEL 1
REMARK VINA RESULT:    -6.173      0.000      0.000
REMARK INTER + INTRA:         -10.255
REMARK INTER:                 -10.322
REMARK INTRA:                   0.067
REMARK UNBOUND:                 0.067
REMARK SMILES CCCCN(c1cccc(-c2ccc(Cl)cc2)c1C)S(=O)(=O)c1ccc(O[C@@H](C)C(=O)O)c(OC)c1Cl
REMARK SMILES IDX 23 1 24 2 25 3 26 4 33 5 36 6 37 7 20 8 21 9 22 10 5 11 4 12
REMARK SMILES IDX 3 13 2 14 1 15 6 16 7 17 18 18 8 19 10 20 9 21 19 22 11 23
REMARK SMILES IDX 12 24 17 25 13 26 16 27 14 28 15 29 34 30 35 31 27 32 28 33
REMARK SMILES IDX 29 34 30 35 31 36 32 37
REMARK H PARENT 32 38
ROOT
ATOM      1  C   UNL     1      10.251  10.947  -9.511  1.00  0.00     0.110 A 
ATOM      2  C   UNL     1      10.784  11.406 -10.730  1.00  0.00     0.028 A 
ATOM      3  C   UNL     1      11.079  10.510 -11.755  1.00  0.00     0.052 A 
ATOM      4  C   UNL     1      10.844   9.152 -11.572  1.00  0.00     0.164 A 
ATOM      5  C   UNL     1      10.229   8.698 -10.396  1.00  0.00     0.180 A 
ATOM      6  C   UNL     1       9.948   9.591  -9.342  1.00  0.00     0.107 A 
ATOM      7  Cl  UNL     1       9.177   8.963  -7.924  1.00  0.00    -0.079 Cl
ENDROOT
BRANCH   1   8
ATOM      8  S   UNL     1       9.974  12.147  -8.228  1.00  0.00     0.265 S 
ATOM      9  O   UNL     1       8.791  11.784  -7.474  1.00  0.00    -0.201 OA
ATOM     10  O   UNL     1      10.118  13.440  -8.863  1.00  0.00    -0.201 OA
BRANCH   8  11
ATOM     11  N   UNL     1      11.311  11.892  -7.148  1.00  0.00    -0.266 N 
BRANCH  11  12
ATOM     12  C   UNL     1      10.987  11.011  -5.977  1.00  0.00     0.136 C 
BRANCH  12  13
ATOM     13  C   UNL     1      10.410  11.848  -4.832  1.00  0.00     0.022 C 
BRANCH  13  14
ATOM     14  C   UNL     1       9.461  11.020  -3.966  1.00  0.00    -0.002 C 
ATOM     15  C   UNL     1       8.222  10.603  -4.741  1.00  0.00     0.004 C 
ENDBRANCH  13  14
ENDBRANCH  12  13
ENDBRANCH  11  12
BRANCH  11  16
ATOM     16  C   UNL     1      11.985  13.137  -6.812  1.00  0.00     0.055 A 
ATOM     17  C   UNL     1      11.297  14.147  -6.127  1.00  0.00     0.027 A 
ATOM     18  C   UNL     1      13.325  13.330  -7.214  1.00  0.00    -0.019 A 
ATOM     19  C   UNL     1      11.927  15.350  -5.828  1.00  0.00     0.003 A 
ATOM     20  C   UNL     1      13.956  14.568  -6.934  1.00  0.00    -0.013 A 
ATOM     21  C   UNL     1      13.244  15.556  -6.229  1.00  0.00     0.009 A 
ATOM     22  C   UNL     1      14.046  12.256  -7.989  1.00  0.00     0.047 C 
BRANCH  20  23
ATOM     23  C   UNL     1      15.328  14.875  -7.367  1.00  0.00    -0.018 A 
ATOM     24  C   UNL     1      16.414  14.669  -6.501  1.00  0.00     0.010 A 
ATOM     25  C   UNL     1      15.579  15.370  -8.656  1.00  0.00     0.010 A 
ATOM     26  C   UNL     1      17.719  14.954  -6.912  1.00  0.00     0.021 A 
ATOM     27  C   UNL     1      16.884  15.655  -9.069  1.00  0.00     0.021 A 
ATOM     28  C   UNL     1      17.947  15.447  -8.194  1.00  0.00     0.041 A 
ATOM     29  Cl  UNL     1      19.553  15.798  -8.701  1.00  0.00    -0.084 Cl
ENDBRANCH  20  23
ENDBRANCH  11  16
ENDBRANCH   8  11
ENDBRANCH   1   8
BRANCH   5  30
ATOM     30  O   UNL     1       9.947   7.358 -10.261  1.00  0.00    -0.491 OA
ATOM     31  C   UNL     1      10.780   6.783  -9.250  1.00  0.00     0.278 C 
ENDBRANCH   5  30
BRANCH   4  32
ATOM     32  O   UNL     1      11.161   8.316 -12.611  1.00  0.00    -0.475 OA
BRANCH  32  33
ATOM     33  C   UNL     1      12.392   7.610 -12.390  1.00  0.00     0.279 C 
ATOM     34  C   UNL     1      12.176   6.166 -12.830  1.00  0.00     0.066 C 
BRANCH  33  35
ATOM     35  C   UNL     1      13.536   8.218 -13.206  1.00  0.00     0.344 C 
ATOM     36  O   UNL     1      14.725   7.950 -13.111  1.00  0.00    -0.248 OA
BRANCH  35  37
ATOM     37  O   UNL     1      13.147   9.176 -14.077  1.00  0.00    -0.479 OA
ATOM     38  H   UNL     1      13.403  10.010 -13.632  1.00  0.00     0.296 HD
ENDBRANCH  35  37
ENDBRANCH  33  35
ENDBRANCH  32  33
ENDBRANCH   4  32
TORSDOF 12
ENDMDL
MODEL 2
REMARK VINA RESULT:    -6.117      1.301      2.027
REMARK INTER + INTRA:         -10.162
REMARK INTER:                 -10.199
REMARK INTRA:                   0.037
REMARK UNBOUND:                 0.067
REMARK SMILES CCCCN(c1cccc(-c2ccc(Cl)cc2)c1C)S(=O)(=O)c1ccc(O[C@@H](C)C(=O)O)c(OC)c1Cl
REMARK SMILES IDX 23 1 24 2 25 3 26 4 33 5 36 6 37 7 20 8 21 9 22 10 5 11 4 12
REMARK SMILES IDX 3 13 2 14 1 15 6 16 7 17 18 18 8 19 10 20 9 21 19 22 11 23
REMARK SMILES IDX 12 24 17 25 13 26 16 27 14 28 15 29 34 30 35 31 27 32 28 33
REMARK SMILES IDX 29 34 30 35 31 36 32 37
REMARK H PARENT 32 38
ROOT
ATOM      1  C   UNL     1      10.244  10.813  -9.244  1.00  0.00     0.110 A 
ATOM      2  C   UNL     1      10.203   9.573  -8.581  1.00  0.00     0.028 A 
ATOM      3  C   UNL     1      10.174   8.384  -9.307  1.00  0.00     0.052 A 
ATOM      4  C   UNL     1      10.187   8.424 -10.696  1.00  0.00     0.164 A 
ATOM      5  C   UNL     1      10.319   9.652 -11.362  1.00  0.00     0.180 A 
ATOM      6  C   UNL     1      10.326  10.863 -10.640  1.00  0.00     0.107 A 
ATOM      7  Cl  UNL     1      10.505  12.340 -11.526  1.00  0.00    -0.079 Cl
ENDROOT
BRANCH   1   8
ATOM      8  S   UNL     1      10.203  12.284  -8.245  1.00  0.00     0.265 S 
ATOM      9  O   UNL     1       8.987  12.301  -7.457  1.00  0.00    -0.201 OA
ATOM     10  O   UNL     1      10.562  13.371  -9.133  1.00  0.00    -0.201 OA
BRANCH   8  11
ATOM     11  N   UNL     1      11.492  12.031  -7.108  1.00  0.00    -0.266 N 
BRANCH  11  12
ATOM     12  C   UNL     1      11.102  11.194  -5.924  1.00  0.00     0.136 C 
BRANCH  12  13
ATOM     13  C   UNL     1      10.392  12.059  -4.879  1.00  0.00     0.022 C 
BRANCH  13  14
ATOM     14  C   UNL     1       9.499  11.211  -3.974  1.00  0.00    -0.002 C 
ATOM     15  C   UNL     1       8.304  10.657  -4.733  1.00  0.00     0.004 C 
ENDBRANCH  13  14
ENDBRANCH  12  13
ENDBRANCH  11  12
BRANCH  11  16
ATOM     16  C   UNL     1      12.184  13.269  -6.784  1.00  0.00     0.055 A 
ATOM     17  C   UNL     1      11.515  14.290  -6.096  1.00  0.00     0.027 A 
ATOM     18  C   UNL     1      13.522  13.444  -7.198  1.00  0.00    -0.019 A 
ATOM     19  C   UNL     1      12.163  15.486  -5.808  1.00  0.00     0.003 A 
ATOM     20  C   UNL     1      14.171  14.675  -6.930  1.00  0.00    -0.013 A 
ATOM     21  C   UNL     1      13.478  15.675  -6.222  1.00  0.00     0.009 A 
ATOM     22  C   UNL     1      14.223  12.357  -7.976  1.00  0.00     0.047 C 
BRANCH  20  23
ATOM     23  C   UNL     1      15.543  14.963  -7.376  1.00  0.00    -0.018 A 
ATOM     24  C   UNL     1      15.793  15.391  -8.690  1.00  0.00     0.010 A 
ATOM     25  C   UNL     1      16.627  14.823  -6.496  1.00  0.00     0.010 A 
ATOM     26  C   UNL     1      17.094  15.670  -9.115  1.00  0.00     0.021 A 
ATOM     27  C   UNL     1      17.930  15.102  -6.919  1.00  0.00     0.021 A 
ATOM     28  C   UNL     1      18.157  15.523  -8.227  1.00  0.00     0.041 A 
ATOM     29  Cl  UNL     1      19.760  15.867  -8.749  1.00  0.00    -0.084 Cl
ENDBRANCH  20  23
ENDBRANCH  11  16
ENDBRANCH   8  11
ENDBRANCH   1   8
BRANCH   5  30
ATOM     30  O   UNL     1      10.394   9.665 -12.735  1.00  0.00    -0.491 OA
ATOM     31  C   UNL     1       9.096   9.896 -13.293  1.00  0.00     0.278 C 
ENDBRANCH   5  30
BRANCH   4  32
ATOM     32  O   UNL     1      10.147   7.225 -11.357  1.00  0.00    -0.475 OA
BRANCH  32  33
ATOM     33  C   UNL     1      11.389   6.509 -11.270  1.00  0.00     0.279 C 
ATOM     34  C   UNL     1      11.056   5.052 -10.967  1.00  0.00     0.066 C 
BRANCH  33  35
ATOM     35  C   UNL     1      12.168   6.583 -12.586  1.00  0.00     0.344 C 
ATOM     36  O   UNL     1      12.194   5.738 -13.469  1.00  0.00    -0.248 OA
BRANCH  35  37
ATOM     37  O   UNL     1      12.924   7.696 -12.721  1.00  0.00    -0.479 OA
ATOM     38  H   UNL     1      12.297   8.424 -12.529  1.00  0.00     0.296 HD
ENDBRANCH  35  37
ENDBRANCH  33  35
ENDBRANCH  32  33
ENDBRANCH   4  32
TORSDOF 12
ENDMDL
MODEL 3
REMARK VINA RESULT:    -6.027      1.943      2.702
REMARK INTER + INTRA:         -10.012
REMARK INTER:                 -12.594
REMARK INTRA:                   2.582
REMARK UNBOUND:                 0.067
REMARK SMILES CCCCN(c1cccc(-c2ccc(Cl)cc2)c1C)S(=O)(=O)c1ccc(O[C@@H](C)C(=O)O)c(OC)c1Cl
REMARK SMILES IDX 23 1 24 2 25 3 26 4 33 5 36 6 37 7 20 8 21 9 22 10 5 11 4 12
REMARK SMILES IDX 3 13 2 14 1 15 6 16 7 17 18 18 8 19 10 20 9 21 19 22 11 23
REMARK SMILES IDX 12 24 17 25 13 26 16 27 14 28 15 29 34 30 35 31 27 32 28 33
REMARK SMILES IDX 29 34 30 35 31 36 32 37
REMARK H PARENT 32 38
ROOT
ATOM      1  C   UNL     1      10.145  10.194  -8.504  1.00  0.00     0.110 A 
ATOM      2  C   UNL     1      10.503  11.148  -9.475  1.00  0.00     0.028 A 
ATOM      3  C   UNL     1      10.726  10.764 -10.795  1.00  0.00     0.052 A 
ATOM      4  C   UNL     1      10.593   9.429 -11.156  1.00  0.00     0.164 A 
ATOM      5  C   UNL     1      10.148   8.488 -10.215  1.00  0.00     0.180 A 
ATOM      6  C   UNL     1       9.942   8.860  -8.871  1.00  0.00     0.107 A 
ATOM      7  Cl  UNL     1       9.381   7.649  -7.767  1.00  0.00    -0.079 Cl
ENDROOT
BRANCH   1   8
ATOM      8  S   UNL     1       9.952  10.756  -6.827  1.00  0.00     0.265 S 
ATOM      9  O   UNL     1      11.150  10.447  -6.072  1.00  0.00    -0.201 OA
ATOM     10  O   UNL     1       8.641  10.304  -6.412  1.00  0.00    -0.201 OA
BRANCH   8  11
ATOM     11  N   UNL     1       9.934  12.486  -6.985  1.00  0.00    -0.266 N 
BRANCH  11  12
ATOM     12  C   UNL     1       9.773  12.965  -8.398  1.00  0.00     0.136 C 
BRANCH  12  13
ATOM     13  C   UNL     1       8.991  14.281  -8.422  1.00  0.00     0.022 C 
BRANCH  13  14
ATOM     14  C   UNL     1       8.783  14.774  -9.854  1.00  0.00    -0.002 C 
ATOM     15  C   UNL     1       7.442  15.471 -10.013  1.00  0.00     0.004 C 
ENDBRANCH  13  14
ENDBRANCH  12  13
ENDBRANCH  11  12
BRANCH  11  16
ATOM     16  C   UNL     1      11.017  13.112  -6.242  1.00  0.00     0.055 A 
ATOM     17  C   UNL     1      10.823  13.503  -4.911  1.00  0.00     0.027 A 
ATOM     18  C   UNL     1      12.250  13.353  -6.886  1.00  0.00    -0.019 A 
ATOM     19  C   UNL     1      11.845  14.127  -4.204  1.00  0.00     0.003 A 
ATOM     20  C   UNL     1      13.281  14.016  -6.173  1.00  0.00    -0.013 A 
ATOM     21  C   UNL     1      13.062  14.380  -4.832  1.00  0.00     0.009 A 
ATOM     22  C   UNL     1      12.438  12.969  -8.333  1.00  0.00     0.047 C 
BRANCH  20  23
ATOM     23  C   UNL     1      14.574  14.358  -6.785  1.00  0.00    -0.018 A 
ATOM     24  C   UNL     1      15.301  15.477  -6.345  1.00  0.00     0.010 A 
ATOM     25  C   UNL     1      15.111  13.568  -7.814  1.00  0.00     0.010 A 
ATOM     26  C   UNL     1      16.532  15.800  -6.920  1.00  0.00     0.021 A 
ATOM     27  C   UNL     1      16.344  13.890  -8.390  1.00  0.00     0.021 A 
ATOM     28  C   UNL     1      17.047  15.006  -7.942  1.00  0.00     0.041 A 
ATOM     29  Cl  UNL     1      18.564  15.402  -8.650  1.00  0.00    -0.084 Cl
ENDBRANCH  20  23
ENDBRANCH  11  16
ENDBRANCH   8  11
ENDBRANCH   1   8
BRANCH   5  30
ATOM     30  O   UNL     1       9.961   7.183 -10.608  1.00  0.00    -0.491 OA
ATOM     31  C   UNL     1      11.185   6.453 -10.477  1.00  0.00     0.278 C 
ENDBRANCH   5  30
BRANCH   4  32
ATOM     32  O   UNL     1      10.834   9.107 -12.466  1.00  0.00    -0.475 OA
BRANCH  32  33
ATOM     33  C   UNL     1      11.831   9.950 -13.063  1.00  0.00     0.279 C 
ATOM     34  C   UNL     1      13.052   9.082 -13.349  1.00  0.00     0.066 C 
BRANCH  33  35
ATOM     35  C   UNL     1      11.330  10.561 -14.376  1.00  0.00     0.344 C 
ATOM     36  O   UNL     1      11.357  10.040 -15.481  1.00  0.00    -0.248 OA
BRANCH  35  37
ATOM     37  O   UNL     1      10.860  11.822 -14.255  1.00  0.00    -0.479 OA
ATOM     38  H   UNL     1      11.428  12.339 -14.863  1.00  0.00     0.296 HD
ENDBRANCH  35  37
ENDBRANCH  33  35
ENDBRANCH  32  33
ENDBRANCH   4  32
TORSDOF 12
ENDMDL
MODEL 4
REMARK VINA RESULT:    -5.351      9.034     12.068
REMARK INTER + INTRA:          -8.880
REMARK INTER:                  -8.882
REMARK INTRA:                   0.002
REMARK UNBOUND:                 0.067
REMARK SMILES CCCCN(c1cccc(-c2ccc(Cl)cc2)c1C)S(=O)(=O)c1ccc(O[C@@H](C)C(=O)O)c(OC)c1Cl
REMARK SMILES IDX 23 1 24 2 25 3 26 4 33 5 36 6 37 7 20 8 21 9 22 10 5 11 4 12
REMARK SMILES IDX 3 13 2 14 1 15 6 16 7 17 18 18 8 19 10 20 9 21 19 22 11 23
REMARK SMILES IDX 12 24 17 25 13 26 16 27 14 28 15 29 34 30 35 31 27 32 28 33
REMARK SMILES IDX 29 34 30 35 31 36 32 37
REMARK H PARENT 32 38
ROOT
ATOM      1  C   UNL     1       6.635   4.559  -3.219  1.00  0.00     0.110 A 
ATOM      2  C   UNL     1       6.646   5.026  -4.546  1.00  0.00     0.028 A 
ATOM      3  C   UNL     1       5.593   5.795  -5.035  1.00  0.00     0.052 A 
ATOM      4  C   UNL     1       4.522   6.103  -4.205  1.00  0.00     0.164 A 
ATOM      5  C   UNL     1       4.545   5.718  -2.856  1.00  0.00     0.180 A 
ATOM      6  C   UNL     1       5.594   4.921  -2.356  1.00  0.00     0.107 A 
ATOM      7  Cl  UNL     1       5.565   4.493  -0.677  1.00  0.00    -0.079 Cl
ENDROOT
BRANCH   1   8
ATOM      8  S   UNL     1       7.982   3.522  -2.697  1.00  0.00     0.265 S 
ATOM      9  O   UNL     1       7.471   2.222  -2.311  1.00  0.00    -0.201 OA
ATOM     10  O   UNL     1       8.777   4.335  -1.800  1.00  0.00    -0.201 OA
BRANCH   8  11
ATOM     11  N   UNL     1       8.873   3.256  -4.164  1.00  0.00    -0.266 N 
BRANCH  11  12
ATOM     12  C   UNL     1       8.029   3.302  -5.405  1.00  0.00     0.136 C 
BRANCH  12  13
ATOM     13  C   UNL     1       8.916   3.490  -6.638  1.00  0.00     0.022 C 
BRANCH  13  14
ATOM     14  C   UNL     1       9.753   4.764  -6.528  1.00  0.00    -0.002 C 
ATOM     15  C   UNL     1       9.891   5.457  -7.873  1.00  0.00     0.004 C 
ENDBRANCH  13  14
ENDBRANCH  12  13
ENDBRANCH  11  12
BRANCH  11  16
ATOM     16  C   UNL     1       9.756   2.104  -4.064  1.00  0.00     0.055 A 
ATOM     17  C   UNL     1       9.280   0.823  -4.376  1.00  0.00     0.027 A 
ATOM     18  C   UNL     1      11.083   2.284  -3.619  1.00  0.00    -0.019 A 
ATOM     19  C   UNL     1      10.111  -0.285  -4.256  1.00  0.00     0.003 A 
ATOM     20  C   UNL     1      11.920   1.149  -3.469  1.00  0.00    -0.013 A 
ATOM     21  C   UNL     1      11.418  -0.121  -3.806  1.00  0.00     0.009 A 
ATOM     22  C   UNL     1      11.577   3.660  -3.244  1.00  0.00     0.047 C 
BRANCH  20  23
ATOM     23  C   UNL     1      13.295   1.241  -2.956  1.00  0.00    -0.018 A 
ATOM     24  C   UNL     1      14.391   0.994  -3.799  1.00  0.00     0.010 A 
ATOM     25  C   UNL     1      13.539   1.584  -1.617  1.00  0.00     0.010 A 
ATOM     26  C   UNL     1      15.699   1.085  -3.316  1.00  0.00     0.021 A 
ATOM     27  C   UNL     1      14.848   1.677  -1.132  1.00  0.00     0.021 A 
ATOM     28  C   UNL     1      15.921   1.425  -1.983  1.00  0.00     0.041 A 
ATOM     29  Cl  UNL     1      17.530   1.539  -1.387  1.00  0.00    -0.084 Cl
ENDBRANCH  20  23
ENDBRANCH  11  16
ENDBRANCH   8  11
ENDBRANCH   1   8
BRANCH   5  30
ATOM     30  O   UNL     1       3.505   6.088  -2.035  1.00  0.00    -0.491 OA
ATOM     31  C   UNL     1       2.464   5.108  -2.095  1.00  0.00     0.278 C 
ENDBRANCH   5  30
BRANCH   4  32
ATOM     32  O   UNL     1       3.509   6.854  -4.742  1.00  0.00    -0.475 OA
BRANCH  32  33
ATOM     33  C   UNL     1       3.994   8.023  -5.421  1.00  0.00     0.279 C 
ATOM     34  C   UNL     1       2.986   8.368  -6.513  1.00  0.00     0.066 C 
BRANCH  33  35
ATOM     35  C   UNL     1       4.122   9.210  -4.462  1.00  0.00     0.344 C 
ATOM     36  O   UNL     1       4.770  10.230  -4.644  1.00  0.00    -0.248 OA
BRANCH  35  37
ATOM     37  O   UNL     1       3.469   9.048  -3.290  1.00  0.00    -0.479 OA
ATOM     38  H   UNL     1       4.050   8.443  -2.784  1.00  0.00     0.296 HD
ENDBRANCH  35  37
ENDBRANCH  33  35
ENDBRANCH  32  33
ENDBRANCH   4  32
TORSDOF 12
ENDMDL
MODEL 5
REMARK VINA RESULT:    -5.123      3.847      6.654
REMARK INTER + INTRA:          -8.499
REMARK INTER:                  -7.187
REMARK INTRA:                  -1.312
REMARK UNBOUND:                 0.067
REMARK SMILES CCCCN(c1cccc(-c2ccc(Cl)cc2)c1C)S(=O)(=O)c1ccc(O[C@@H](C)C(=O)O)c(OC)c1Cl
REMARK SMILES IDX 23 1 24 2 25 3 26 4 33 5 36 6 37 7 20 8 21 9 22 10 5 11 4 12
REMARK SMILES IDX 3 13 2 14 1 15 6 16 7 17 18 18 8 19 10 20 9 21 19 22 11 23
REMARK SMILES IDX 12 24 17 25 13 26 16 27 14 28 15 29 34 30 35 31 27 32 28 33
REMARK SMILES IDX 29 34 30 35 31 36 32 37
REMARK H PARENT 32 38
ROOT
ATOM      1  C   UNL     1      10.955  12.156  -6.867  1.00  0.00     0.110 A 
ATOM      2  C   UNL     1      10.555  12.207  -5.519  1.00  0.00     0.028 A 
ATOM      3  C   UNL     1       9.577  11.339  -5.038  1.00  0.00     0.052 A 
ATOM      4  C   UNL     1       8.994  10.415  -5.898  1.00  0.00     0.164 A 
ATOM      5  C   UNL     1       9.451  10.297  -7.219  1.00  0.00     0.180 A 
ATOM      6  C   UNL     1      10.423  11.185  -7.723  1.00  0.00     0.107 A 
ATOM      7  Cl  UNL     1      10.950  10.973  -9.359  1.00  0.00    -0.079 Cl
ENDROOT
BRANCH   1   8
ATOM      8  S   UNL     1      12.154  13.349  -7.418  1.00  0.00     0.265 S 
ATOM      9  O   UNL     1      11.710  13.943  -8.663  1.00  0.00    -0.201 OA
ATOM     10  O   UNL     1      13.441  12.697  -7.290  1.00  0.00    -0.201 OA
BRANCH   8  11
ATOM     11  N   UNL     1      12.036  14.611  -6.231  1.00  0.00    -0.266 N 
BRANCH  11  12
ATOM     12  C   UNL     1      11.265  15.813  -6.696  1.00  0.00     0.136 C 
BRANCH  12  13
ATOM     13  C   UNL     1       9.776  15.632  -6.394  1.00  0.00     0.022 C 
BRANCH  13  14
ATOM     14  C   UNL     1       8.926  15.863  -7.643  1.00  0.00    -0.002 C 
ATOM     15  C   UNL     1       8.546  14.551  -8.308  1.00  0.00     0.004 C 
ENDBRANCH  13  14
ENDBRANCH  12  13
ENDBRANCH  11  12
BRANCH  11  16
ATOM     16  C   UNL     1      13.322  14.906  -5.618  1.00  0.00     0.055 A 
ATOM     17  C   UNL     1      14.417  15.261  -6.417  1.00  0.00     0.027 A 
ATOM     18  C   UNL     1      13.465  14.796  -4.218  1.00  0.00    -0.019 A 
ATOM     19  C   UNL     1      15.656  15.516  -5.840  1.00  0.00     0.003 A 
ATOM     20  C   UNL     1      14.736  15.028  -3.634  1.00  0.00    -0.013 A 
ATOM     21  C   UNL     1      15.811  15.400  -4.461  1.00  0.00     0.009 A 
ATOM     22  C   UNL     1      12.293  14.372  -3.367  1.00  0.00     0.047 C 
BRANCH  20  23
ATOM     23  C   UNL     1      14.985  14.880  -2.192  1.00  0.00    -0.018 A 
ATOM     24  C   UNL     1      14.475  15.815  -1.277  1.00  0.00     0.010 A 
ATOM     25  C   UNL     1      15.732  13.796  -1.702  1.00  0.00     0.010 A 
ATOM     26  C   UNL     1      14.706  15.673   0.093  1.00  0.00     0.021 A 
ATOM     27  C   UNL     1      15.964  13.652  -0.331  1.00  0.00     0.021 A 
ATOM     28  C   UNL     1      15.451  14.593   0.560  1.00  0.00     0.041 A 
ATOM     29  Cl  UNL     1      15.735  14.416   2.247  1.00  0.00    -0.084 Cl
ENDBRANCH  20  23
ENDBRANCH  11  16
ENDBRANCH   8  11
ENDBRANCH   1   8
BRANCH   5  30
ATOM     30  O   UNL     1       8.905   9.333  -8.034  1.00  0.00    -0.491 OA
ATOM     31  C   UNL     1       9.884   8.333  -8.331  1.00  0.00     0.278 C 
ENDBRANCH   5  30
BRANCH   4  32
ATOM     32  O   UNL     1       8.031   9.593  -5.372  1.00  0.00    -0.475 OA
BRANCH  32  33
ATOM     33  C   UNL     1       6.861  10.315  -4.956  1.00  0.00     0.279 C 
ATOM     34  C   UNL     1       5.659   9.663  -5.630  1.00  0.00     0.066 C 
BRANCH  33  35
ATOM     35  C   UNL     1       6.681  10.252  -3.436  1.00  0.00     0.344 C 
ATOM     36  O   UNL     1       7.516  10.531  -2.589  1.00  0.00    -0.248 OA
BRANCH  35  37
ATOM     37  O   UNL     1       5.472   9.793  -3.041  1.00  0.00    -0.479 OA
ATOM     38  H   UNL     1       4.855  10.172  -3.701  1.00  0.00     0.296 HD
ENDBRANCH  35  37
ENDBRANCH  33  35
ENDBRANCH  32  33
ENDBRANCH   4  32
TORSDOF 12
ENDMDL
MODEL 6
REMARK VINA RESULT:    -4.828      8.269     11.725
REMARK INTER + INTRA:          -8.007
REMARK INTER:                  -8.342
REMARK INTRA:                   0.335
REMARK UNBOUND:                 0.067
REMARK SMILES CCCCN(c1cccc(-c2ccc(Cl)cc2)c1C)S(=O)(=O)c1ccc(O[C@@H](C)C(=O)O)c(OC)c1Cl
REMARK SMILES IDX 23 1 24 2 25 3 26 4 33 5 36 6 37 7 20 8 21 9 22 10 5 11 4 12
REMARK SMILES IDX 3 13 2 14 1 15 6 16 7 17 18 18 8 19 10 20 9 21 19 22 11 23
REMARK SMILES IDX 12 24 17 25 13 26 16 27 14 28 15 29 34 30 35 31 27 32 28 33
REMARK SMILES IDX 29 34 30 35 31 36 32 37
REMARK H PARENT 32 38
ROOT
ATOM      1  C   UNL     1       7.312   4.840  -5.802  1.00  0.00     0.110 A 
ATOM      2  C   UNL     1       6.143   4.383  -5.165  1.00  0.00     0.028 A 
ATOM      3  C   UNL     1       5.032   5.214  -5.045  1.00  0.00     0.052 A 
ATOM      4  C   UNL     1       5.079   6.505  -5.558  1.00  0.00     0.164 A 
ATOM      5  C   UNL     1       6.207   6.936  -6.273  1.00  0.00     0.180 A 
ATOM      6  C   UNL     1       7.345   6.113  -6.382  1.00  0.00     0.107 A 
ATOM      7  Cl  UNL     1       8.696   6.704  -7.290  1.00  0.00    -0.079 Cl
ENDROOT
BRANCH   1   8
ATOM      8  S   UNL     1       8.710   3.741  -5.848  1.00  0.00     0.265 S 
ATOM      9  O   UNL     1       9.935   4.515  -5.814  1.00  0.00    -0.201 OA
ATOM     10  O   UNL     1       8.427   2.791  -6.903  1.00  0.00    -0.201 OA
BRANCH   8  11
ATOM     11  N   UNL     1       8.629   2.929  -4.314  1.00  0.00    -0.266 N 
BRANCH  11  12
ATOM     12  C   UNL     1       8.622   3.857  -3.134  1.00  0.00     0.136 C 
BRANCH  12  13
ATOM     13  C   UNL     1       7.591   3.391  -2.104  1.00  0.00     0.022 C 
BRANCH  13  14
ATOM     14  C   UNL     1       6.769   4.566  -1.574  1.00  0.00    -0.002 C 
ATOM     15  C   UNL     1       5.448   4.101  -0.985  1.00  0.00     0.004 C 
ENDBRANCH  13  14
ENDBRANCH  12  13
ENDBRANCH  11  12
BRANCH  11  16
ATOM     16  C   UNL     1       9.581   1.832  -4.228  1.00  0.00     0.055 A 
ATOM     17  C   UNL     1       9.190   0.532  -4.573  1.00  0.00     0.027 A 
ATOM     18  C   UNL     1      10.890   2.085  -3.761  1.00  0.00    -0.019 A 
ATOM     19  C   UNL     1      10.087  -0.525  -4.466  1.00  0.00     0.003 A 
ATOM     20  C   UNL     1      11.794   1.001  -3.625  1.00  0.00    -0.013 A 
ATOM     21  C   UNL     1      11.376  -0.290  -3.996  1.00  0.00     0.009 A 
ATOM     22  C   UNL     1      11.292   3.480  -3.351  1.00  0.00     0.047 C 
BRANCH  20  23
ATOM     23  C   UNL     1      13.155   1.166  -3.093  1.00  0.00    -0.018 A 
ATOM     24  C   UNL     1      13.362   1.476  -1.739  1.00  0.00     0.010 A 
ATOM     25  C   UNL     1      14.274   1.010  -3.927  1.00  0.00     0.010 A 
ATOM     26  C   UNL     1      14.654   1.627  -1.230  1.00  0.00     0.021 A 
ATOM     27  C   UNL     1      15.568   1.161  -3.419  1.00  0.00     0.021 A 
ATOM     28  C   UNL     1      15.752   1.471  -2.073  1.00  0.00     0.041 A 
ATOM     29  Cl  UNL     1      17.343   1.656  -1.448  1.00  0.00    -0.084 Cl
ENDBRANCH  20  23
ENDBRANCH  11  16
ENDBRANCH   8  11
ENDBRANCH   1   8
BRANCH   5  30
ATOM     30  O   UNL     1       6.207   8.195  -6.828  1.00  0.00    -0.491 OA
ATOM     31  C   UNL     1       6.802   9.128  -5.921  1.00  0.00     0.278 C 
ENDBRANCH   5  30
BRANCH   4  32
ATOM     32  O   UNL     1       3.961   7.282  -5.402  1.00  0.00    -0.475 OA
BRANCH  32  33
ATOM     33  C   UNL     1       4.089   8.218  -4.321  1.00  0.00     0.279 C 
ATOM     34  C   UNL     1       3.386   9.504  -4.743  1.00  0.00     0.066 C 
BRANCH  33  35
ATOM     35  C   UNL     1       3.436   7.685  -3.043  1.00  0.00     0.344 C 
ATOM     36  O   UNL     1       2.815   6.639  -2.921  1.00  0.00    -0.248 OA
BRANCH  35  37
ATOM     37  O   UNL     1       3.545   8.511  -1.978  1.00  0.00    -0.479 OA
ATOM     38  H   UNL     1       3.017   8.063  -1.284  1.00  0.00     0.296 HD
ENDBRANCH  35  37
ENDBRANCH  33  35
ENDBRANCH  32  33
ENDBRANCH   4  32
TORSDOF 12
ENDMDL
MODEL 7
REMARK VINA RESULT:    -4.715      4.211      9.701
REMARK INTER + INTRA:          -7.818
REMARK INTER:                  -7.966
REMARK INTRA:                   0.148
REMARK UNBOUND:                 0.067
REMARK SMILES CCCCN(c1cccc(-c2ccc(Cl)cc2)c1C)S(=O)(=O)c1ccc(O[C@@H](C)C(=O)O)c(OC)c1Cl
REMARK SMILES IDX 23 1 24 2 25 3 26 4 33 5 36 6 37 7 20 8 21 9 22 10 5 11 4 12
REMARK SMILES IDX 3 13 2 14 1 15 6 16 7 17 18 18 8 19 10 20 9 21 19 22 11 23
REMARK SMILES IDX 12 24 17 25 13 26 16 27 14 28 15 29 34 30 35 31 27 32 28 33
REMARK SMILES IDX 29 34 30 35 31 36 32 37
REMARK H PARENT 32 38
ROOT
ATOM      1  C   UNL     1      10.212   8.694 -11.677  1.00  0.00     0.110 A 
ATOM      2  C   UNL     1      10.140   8.790 -10.275  1.00  0.00     0.028 A 
ATOM      3  C   UNL     1      10.169  10.034  -9.649  1.00  0.00     0.052 A 
ATOM      4  C   UNL     1      10.270  11.189 -10.416  1.00  0.00     0.164 A 
ATOM      5  C   UNL     1      10.251  11.106 -11.816  1.00  0.00     0.180 A 
ATOM      6  C   UNL     1      10.245   9.852 -12.460  1.00  0.00     0.107 A 
ATOM      7  Cl  UNL     1      10.210   9.826 -14.192  1.00  0.00    -0.079 Cl
ENDROOT
BRANCH   1   8
ATOM      8  S   UNL     1      10.244   7.066 -12.392  1.00  0.00     0.265 S 
ATOM      9  O   UNL     1      10.866   7.123 -13.699  1.00  0.00    -0.201 OA
ATOM     10  O   UNL     1       8.917   6.524 -12.192  1.00  0.00    -0.201 OA
BRANCH   8  11
ATOM     11  N   UNL     1      11.366   6.207 -11.380  1.00  0.00    -0.266 N 
BRANCH  11  12
ATOM     12  C   UNL     1      12.706   5.977 -12.017  1.00  0.00     0.136 C 
BRANCH  12  13
ATOM     13  C   UNL     1      13.565   7.238 -11.906  1.00  0.00     0.022 C 
BRANCH  13  14
ATOM     14  C   UNL     1      13.871   7.822 -13.285  1.00  0.00    -0.002 C 
ATOM     15  C   UNL     1      13.715   9.333 -13.298  1.00  0.00     0.004 C 
ENDBRANCH  13  14
ENDBRANCH  12  13
ENDBRANCH  11  12
BRANCH  11  16
ATOM     16  C   UNL     1      10.763   5.030 -10.774  1.00  0.00     0.055 A 
ATOM     17  C   UNL     1      10.480   3.903 -11.557  1.00  0.00     0.027 A 
ATOM     18  C   UNL     1      10.434   5.048  -9.401  1.00  0.00    -0.019 A 
ATOM     19  C   UNL     1       9.878   2.785 -10.989  1.00  0.00     0.003 A 
ATOM     20  C   UNL     1       9.794   3.919  -8.831  1.00  0.00    -0.013 A 
ATOM     21  C   UNL     1       9.539   2.796  -9.639  1.00  0.00     0.009 A 
ATOM     22  C   UNL     1      10.702   6.280  -8.573  1.00  0.00     0.047 C 
BRANCH  20  23
ATOM     23  C   UNL     1       9.366   3.876  -7.425  1.00  0.00    -0.018 A 
ATOM     24  C   UNL     1       8.190   4.525  -7.014  1.00  0.00     0.010 A 
ATOM     25  C   UNL     1      10.120   3.179  -6.467  1.00  0.00     0.010 A 
ATOM     26  C   UNL     1       7.778   4.480  -5.680  1.00  0.00     0.021 A 
ATOM     27  C   UNL     1       9.708   3.133  -5.132  1.00  0.00     0.021 A 
ATOM     28  C   UNL     1       8.541   3.786  -4.744  1.00  0.00     0.041 A 
ATOM     29  Cl  UNL     1       8.034   3.730  -3.101  1.00  0.00    -0.084 Cl
ENDBRANCH  20  23
ENDBRANCH  11  16
ENDBRANCH   8  11
ENDBRANCH   1   8
BRANCH   5  30
ATOM     30  O   UNL     1      10.287  12.265 -12.557  1.00  0.00    -0.491 OA
ATOM     31  C   UNL     1      11.230  12.132 -13.625  1.00  0.00     0.278 C 
ENDBRANCH   5  30
BRANCH   4  32
ATOM     32  O   UNL     1      10.304  12.384  -9.746  1.00  0.00    -0.475 OA
BRANCH  32  33
ATOM     33  C   UNL     1      10.390  12.213  -8.322  1.00  0.00     0.279 C 
ATOM     34  C   UNL     1      11.862  12.021  -7.973  1.00  0.00     0.066 C 
BRANCH  33  35
ATOM     35  C   UNL     1       9.854  13.441  -7.581  1.00  0.00     0.344 C 
ATOM     36  O   UNL     1       9.014  14.230  -7.988  1.00  0.00    -0.248 OA
BRANCH  35  37
ATOM     37  O   UNL     1      10.430  13.658  -6.378  1.00  0.00    -0.479 OA
ATOM     38  H   UNL     1      11.058  12.911  -6.286  1.00  0.00     0.296 HD
ENDBRANCH  35  37
ENDBRANCH  33  35
ENDBRANCH  32  33
ENDBRANCH   4  32
TORSDOF 12
ENDMDL
MODEL 8
REMARK VINA RESULT:    -4.678      3.701      6.564
REMARK INTER + INTRA:          -7.756
REMARK INTER:                  -9.071
REMARK INTRA:                   1.315
REMARK UNBOUND:                 0.067
REMARK SMILES CCCCN(c1cccc(-c2ccc(Cl)cc2)c1C)S(=O)(=O)c1ccc(O[C@@H](C)C(=O)O)c(OC)c1Cl
REMARK SMILES IDX 23 1 24 2 25 3 26 4 33 5 36 6 37 7 20 8 21 9 22 10 5 11 4 12
REMARK SMILES IDX 3 13 2 14 1 15 6 16 7 17 18 18 8 19 10 20 9 21 19 22 11 23
REMARK SMILES IDX 12 24 17 25 13 26 16 27 14 28 15 29 34 30 35 31 27 32 28 33
REMARK SMILES IDX 29 34 30 35 31 36 32 37
REMARK H PARENT 32 38
ROOT
ATOM      1  C   UNL     1       8.673  10.505  -5.683  1.00  0.00     0.110 A 
ATOM      2  C   UNL     1       7.616   9.914  -6.399  1.00  0.00     0.028 A 
ATOM      3  C   UNL     1       6.449   9.524  -5.746  1.00  0.00     0.052 A 
ATOM      4  C   UNL     1       6.328   9.723  -4.376  1.00  0.00     0.164 A 
ATOM      5  C   UNL     1       7.339  10.393  -3.671  1.00  0.00     0.180 A 
ATOM      6  C   UNL     1       8.534  10.771  -4.316  1.00  0.00     0.107 A 
ATOM      7  Cl  UNL     1       9.733  11.607  -3.387  1.00  0.00    -0.079 Cl
ENDROOT
BRANCH   1   8
ATOM      8  S   UNL     1      10.157  10.905  -6.579  1.00  0.00     0.265 S 
ATOM      9  O   UNL     1      10.110  10.290  -7.890  1.00  0.00    -0.201 OA
ATOM     10  O   UNL     1      11.247  10.670  -5.656  1.00  0.00    -0.201 OA
BRANCH   8  11
ATOM     11  N   UNL     1      10.006  12.613  -6.859  1.00  0.00    -0.266 N 
BRANCH  11  12
ATOM     12  C   UNL     1       9.782  12.975  -8.299  1.00  0.00     0.136 C 
BRANCH  12  13
ATOM     13  C   UNL     1       8.982  14.277  -8.395  1.00  0.00     0.022 C 
BRANCH  13  14
ATOM     14  C   UNL     1       8.839  14.730  -9.848  1.00  0.00    -0.002 C 
ATOM     15  C   UNL     1       7.537  15.482 -10.070  1.00  0.00     0.004 C 
ENDBRANCH  13  14
ENDBRANCH  12  13
ENDBRANCH  11  12
BRANCH  11  16
ATOM     16  C   UNL     1      11.055  13.369  -6.192  1.00  0.00     0.055 A 
ATOM     17  C   UNL     1      10.777  14.062  -5.006  1.00  0.00     0.027 A 
ATOM     18  C   UNL     1      12.343  13.425  -6.768  1.00  0.00    -0.019 A 
ATOM     19  C   UNL     1      11.768  14.808  -4.379  1.00  0.00     0.003 A 
ATOM     20  C   UNL     1      13.343  14.211  -6.142  1.00  0.00    -0.013 A 
ATOM     21  C   UNL     1      13.038  14.881  -4.943  1.00  0.00     0.009 A 
ATOM     22  C   UNL     1      12.624  12.712  -8.067  1.00  0.00     0.047 C 
BRANCH  20  23
ATOM     23  C   UNL     1      14.693  14.372  -6.705  1.00  0.00    -0.018 A 
ATOM     24  C   UNL     1      15.730  14.920  -5.933  1.00  0.00     0.010 A 
ATOM     25  C   UNL     1      14.972  13.973  -8.022  1.00  0.00     0.010 A 
ATOM     26  C   UNL     1      17.013  15.068  -6.463  1.00  0.00     0.021 A 
ATOM     27  C   UNL     1      16.257  14.120  -8.554  1.00  0.00     0.021 A 
ATOM     28  C   UNL     1      17.271  14.668  -7.772  1.00  0.00     0.041 A 
ATOM     29  Cl  UNL     1      18.851  14.850  -8.426  1.00  0.00    -0.084 Cl
ENDBRANCH  20  23
ENDBRANCH  11  16
ENDBRANCH   8  11
ENDBRANCH   1   8
BRANCH   5  30
ATOM     30  O   UNL     1       7.171  10.636  -2.327  1.00  0.00    -0.491 OA
ATOM     31  C   UNL     1       6.739   9.443  -1.666  1.00  0.00     0.278 C 
ENDBRANCH   5  30
BRANCH   4  32
ATOM     32  O   UNL     1       5.162   9.311  -3.785  1.00  0.00    -0.475 OA
BRANCH  32  33
ATOM     33  C   UNL     1       4.568   8.193  -4.463  1.00  0.00     0.279 C 
ATOM     34  C   UNL     1       4.306   7.113  -3.419  1.00  0.00     0.066 C 
BRANCH  33  35
ATOM     35  C   UNL     1       3.243   8.584  -5.124  1.00  0.00     0.344 C 
ATOM     36  O   UNL     1       2.549   7.880  -5.841  1.00  0.00    -0.248 OA
BRANCH  35  37
ATOM     37  O   UNL     1       2.867   9.863  -4.897  1.00  0.00    -0.479 OA
ATOM     38  H   UNL     1       3.089  10.320  -5.735  1.00  0.00     0.296 HD
ENDBRANCH  35  37
ENDBRANCH  33  35
ENDBRANCH  32  33
ENDBRANCH   4  32
TORSDOF 12
ENDMDL
MODEL 9
REMARK VINA RESULT:    -4.565      3.234      6.330
REMARK INTER + INTRA:          -7.566
REMARK INTER:                  -7.886
REMARK INTRA:                   0.320
REMARK UNBOUND:                 0.067
REMARK SMILES CCCCN(c1cccc(-c2ccc(Cl)cc2)c1C)S(=O)(=O)c1ccc(O[C@@H](C)C(=O)O)c(OC)c1Cl
REMARK SMILES IDX 23 1 24 2 25 3 26 4 33 5 36 6 37 7 20 8 21 9 22 10 5 11 4 12
REMARK SMILES IDX 3 13 2 14 1 15 6 16 7 17 18 18 8 19 10 20 9 21 19 22 11 23
REMARK SMILES IDX 12 24 17 25 13 26 16 27 14 28 15 29 34 30 35 31 27 32 28 33
REMARK SMILES IDX 29 34 30 35 31 36 32 37
REMARK H PARENT 32 38
ROOT
ATOM      1  C   UNL     1       8.456  10.253  -5.562  1.00  0.00     0.110 A 
ATOM      2  C   UNL     1       7.677  10.741  -4.496  1.00  0.00     0.028 A 
ATOM      3  C   UNL     1       6.387  10.261  -4.285  1.00  0.00     0.052 A 
ATOM      4  C   UNL     1       5.866   9.292  -5.134  1.00  0.00     0.164 A 
ATOM      5  C   UNL     1       6.668   8.736  -6.142  1.00  0.00     0.180 A 
ATOM      6  C   UNL     1       7.966   9.230  -6.380  1.00  0.00     0.107 A 
ATOM      7  Cl  UNL     1       8.904   8.488  -7.633  1.00  0.00    -0.079 Cl
ENDROOT
BRANCH   1   8
ATOM      8  S   UNL     1      10.064  10.973  -5.806  1.00  0.00     0.265 S 
ATOM      9  O   UNL     1      11.031   9.924  -6.059  1.00  0.00    -0.201 OA
ATOM     10  O   UNL     1      10.230  11.934  -4.736  1.00  0.00    -0.201 OA
BRANCH   8  11
ATOM     11  N   UNL     1       9.896  11.824  -7.312  1.00  0.00    -0.266 N 
BRANCH  11  12
ATOM     12  C   UNL     1      10.207  10.988  -8.520  1.00  0.00     0.136 C 
BRANCH  12  13
ATOM     13  C   UNL     1      10.253  11.869  -9.771  1.00  0.00     0.022 C 
BRANCH  13  14
ATOM     14  C   UNL     1      10.556  11.040 -11.019  1.00  0.00    -0.002 C 
ATOM     15  C   UNL     1      10.511   9.550 -10.723  1.00  0.00     0.004 C 
ENDBRANCH  13  14
ENDBRANCH  12  13
ENDBRANCH  11  12
BRANCH  11  16
ATOM     16  C   UNL     1      10.549  13.123  -7.279  1.00  0.00     0.055 A 
ATOM     17  C   UNL     1       9.786  14.296  -7.354  1.00  0.00     0.027 A 
ATOM     18  C   UNL     1      11.957  13.191  -7.207  1.00  0.00    -0.019 A 
ATOM     19  C   UNL     1      10.406  15.541  -7.352  1.00  0.00     0.003 A 
ATOM     20  C   UNL     1      12.589  14.460  -7.234  1.00  0.00    -0.013 A 
ATOM     21  C   UNL     1      11.794  15.619  -7.292  1.00  0.00     0.009 A 
ATOM     22  C   UNL     1      12.776  11.924  -7.169  1.00  0.00     0.047 C 
BRANCH  20  23
ATOM     23  C   UNL     1      14.051  14.618  -7.221  1.00  0.00    -0.018 A 
ATOM     24  C   UNL     1      14.706  15.122  -6.085  1.00  0.00     0.010 A 
ATOM     25  C   UNL     1      14.820  14.261  -8.339  1.00  0.00     0.010 A 
ATOM     26  C   UNL     1      16.095  15.268  -6.068  1.00  0.00     0.021 A 
ATOM     27  C   UNL     1      16.211  14.406  -8.324  1.00  0.00     0.021 A 
ATOM     28  C   UNL     1      16.842  14.910  -7.189  1.00  0.00     0.041 A 
ATOM     29  Cl  UNL     1      18.552  15.089  -7.169  1.00  0.00    -0.084 Cl
ENDBRANCH  20  23
ENDBRANCH  11  16
ENDBRANCH   8  11
ENDBRANCH   1   8
BRANCH   5  30
ATOM     30  O   UNL     1       6.154   7.732  -6.931  1.00  0.00    -0.491 OA
ATOM     31  C   UNL     1       6.707   6.472  -6.539  1.00  0.00     0.278 C 
ENDBRANCH   5  30
BRANCH   4  32
ATOM     32  O   UNL     1       4.588   8.863  -4.885  1.00  0.00    -0.475 OA
BRANCH  32  33
ATOM     33  C   UNL     1       4.543   7.807  -3.913  1.00  0.00     0.279 C 
ATOM     34  C   UNL     1       3.792   8.337  -2.696  1.00  0.00     0.066 C 
BRANCH  33  35
ATOM     35  C   UNL     1       3.810   6.579  -4.460  1.00  0.00     0.344 C 
ATOM     36  O   UNL     1       3.589   5.535  -3.864  1.00  0.00    -0.248 OA
BRANCH  35  37
ATOM     37  O   UNL     1       3.428   6.692  -5.751  1.00  0.00    -0.479 OA
ATOM     38  H   UNL     1       3.485   7.654  -5.925  1.00  0.00     0.296 HD
ENDBRANCH  35  37
ENDBRANCH  33  35
ENDBRANCH  32  33
ENDBRANCH   4  32
TORSDOF 12
ENDMDL
