REMARK SMILES CCOC(=O)C(C)(C)c1ccc2c(C)cc(Oc3ccc(C(=N)N)cc3)nc2c1
REMARK SMILES IDX 9 1 10 2 11 3 12 4 13 5 14 6 15 7 16 8 27 9 28 10 29 11 6 12
REMARK SMILES IDX 7 13 8 14 4 15 5 16 3 17 2 18 1 19 17 20 18 21 19 22 26 23
REMARK SMILES IDX 20 24 25 25 21 26 22 27 23 28 24 29
REMARK H PARENT 23 30 24 31 24 32
REMARK INDEX MAP 9 1 10 2 11 3 12 4 13 5 14 6 15 7 16 8 27 9 28 10 29 11 6 12
REMARK INDEX MAP 7 13 8 14 4 15 5 16 3 17 2 18 1 19 17 20 18 21 19 22 26 23
REMARK INDEX MAP 20 24 25 25 21 26 22 27 23 28 24 29 49 30 50 31 51 32
ROOT
ATOM      1  C   UNL     1      -5.889  10.466  20.787  1.00  0.00    -0.029 A 
ATOM      2  C   UNL     1      -6.616  11.650  20.939  1.00  0.00     0.005 A 
ATOM      3  C   UNL     1      -6.174  12.651  21.809  1.00  0.00     0.011 A 
ATOM      4  C   UNL     1      -4.992  12.503  22.563  1.00  0.00     0.003 A 
ATOM      5  C   UNL     1      -4.503  13.482  23.463  1.00  0.00    -0.036 A 
ATOM      6  C   UNL     1      -5.218  14.785  23.695  1.00  0.00     0.045 C 
ATOM      7  C   UNL     1      -3.317  13.227  24.157  1.00  0.00     0.073 A 
ATOM      8  C   UNL     1      -2.662  12.031  23.932  1.00  0.00     0.220 A 
ATOM      9  N   UNL     1      -3.110  11.077  23.090  1.00  0.00    -0.213 NA
ATOM     10  C   UNL     1      -4.246  11.313  22.418  1.00  0.00     0.075 A 
ATOM     11  C   UNL     1      -4.706  10.335  21.544  1.00  0.00     0.034 A 
ENDROOT
BRANCH   1  12
ATOM     12  C   UNL     1      -6.327   9.321  19.850  1.00  0.00     0.087 C 
ATOM     13  C   UNL     1      -7.341   9.752  18.770  1.00  0.00     0.028 C 
ATOM     14  C   UNL     1      -6.994   8.226  20.714  1.00  0.00     0.028 C 
BRANCH  12  15
ATOM     15  C   UNL     1      -5.115   8.766  19.072  1.00  0.00     0.315 C 
ATOM     16  O   UNL     1      -4.412   9.421  18.310  1.00  0.00    -0.251 OA
BRANCH  15  17
ATOM     17  O   UNL     1      -4.961   7.425  19.278  1.00  0.00    -0.465 OA
BRANCH  17  18
ATOM     18  C   UNL     1      -5.142   6.620  18.106  1.00  0.00     0.229 C 
ATOM     19  C   UNL     1      -6.237   5.612  18.392  1.00  0.00     0.049 C 
ENDBRANCH  17  18
ENDBRANCH  15  17
ENDBRANCH  12  15
ENDBRANCH   1  12
BRANCH   8  20
ATOM     20  O   UNL     1      -1.501  11.823  24.671  1.00  0.00    -0.439 OA
BRANCH  20  21
ATOM     21  C   UNL     1      -1.416  10.642  25.369  1.00  0.00     0.129 A 
ATOM     22  C   UNL     1      -0.406   9.714  25.105  1.00  0.00     0.048 A 
ATOM     23  C   UNL     1      -2.318  10.432  26.412  1.00  0.00     0.048 A 
ATOM     24  C   UNL     1      -0.322   8.548  25.867  1.00  0.00     0.016 A 
ATOM     25  C   UNL     1      -2.236   9.267  27.176  1.00  0.00     0.016 A 
ATOM     26  C   UNL     1      -1.237   8.323  26.903  1.00  0.00     0.016 A 
BRANCH  26  27
ATOM     27  C   UNL     1      -1.152   7.074  27.704  1.00  0.00     0.122 C 
ATOM     28  N   UNL     1      -0.743   5.954  27.199  1.00  0.00    -0.284 NA
ATOM     29  N   UNL     1      -1.504   7.076  29.013  1.00  0.00    -0.384 N 
ATOM     30  H   UNL     1      -0.698   5.110  27.787  1.00  0.00     0.189 HD
ATOM     31  H   UNL     1      -1.443   6.208  29.564  1.00  0.00     0.158 HD
ATOM     32  H   UNL     1      -1.832   7.946  29.457  1.00  0.00     0.158 HD
ENDBRANCH  26  27
ENDBRANCH  20  21
ENDBRANCH   8  20
TORSDOF 7
