MODEL 8
REMARK VINA RESULT:    -9.599      1.534      2.320
REMARK INTER + INTRA:         -17.591
REMARK INTER:                 -16.359
REMARK INTRA:                  -1.232
REMARK UNBOUND:                -1.539
REMARK SMILES CCCc1cc(Oc2ccc(O)cc2)ccc1OCCCOc1cccc([C@@H]2SC(=O)NC2=O)c1
REMARK SMILES IDX 19 1 18 2 17 3 4 4 5 5 6 6 16 7 15 8 3 9 2 10 1 11 7 12 8 13
REMARK SMILES IDX 9 14 14 15 10 16 13 17 11 18 12 19 20 21 21 22 22 23 23 24
REMARK SMILES IDX 24 25 35 26 25 27 27 28 26 29 28 30 29 31 33 32 30 33 32 34
REMARK SMILES IDX 34 35 31 36
REMARK H PARENT 12 20 32 37
ROOT
ATOM      1  C   UNL     1      39.472   6.317 133.279  1.00  0.00     0.233 C 
ENDROOT
BRANCH   1   2
ATOM      2  O   UNL     1      39.386   5.580 132.062  1.00  0.00    -0.493 OA
BRANCH   2   3
ATOM      3  C   UNL     1      40.423   4.736 131.757  1.00  0.00     0.122 A 
ATOM      4  C   UNL     1      40.063   3.427 131.376  1.00  0.00    -0.002 A 
ATOM      5  C   UNL     1      41.073   2.499 131.069  1.00  0.00     0.054 A 
ATOM      6  C   UNL     1      42.416   2.871 131.134  1.00  0.00     0.127 A 
ATOM      7  C   UNL     1      41.773   5.103 131.788  1.00  0.00     0.050 A 
ATOM      8  C   UNL     1      42.767   4.175 131.467  1.00  0.00     0.051 A 
BRANCH   4   9
ATOM      9  C   UNL     1      38.618   2.979 131.295  1.00  0.00     0.039 C 
BRANCH   9  10
ATOM     10  C   UNL     1      38.327   2.051 130.112  1.00  0.00     0.001 C 
ATOM     11  C   UNL     1      36.855   1.685 129.979  1.00  0.00     0.004 C 
ENDBRANCH   9  10
ENDBRANCH   4   9
BRANCH   6  12
ATOM     12  O   UNL     1      43.425   1.997 130.807  1.00  0.00    -0.457 OA
BRANCH  12  13
ATOM     13  C   UNL     1      43.601   0.927 131.656  1.00  0.00     0.127 A 
ATOM     14  C   UNL     1      43.231  -0.330 131.179  1.00  0.00     0.051 A 
ATOM     15  C   UNL     1      44.196   1.058 132.915  1.00  0.00     0.051 A 
ATOM     16  C   UNL     1      43.419  -1.456 131.981  1.00  0.00     0.050 A 
ATOM     17  C   UNL     1      44.384  -0.070 133.718  1.00  0.00     0.050 A 
ATOM     18  C   UNL     1      43.991  -1.319 133.242  1.00  0.00     0.115 A 
BRANCH  18  19
ATOM     19  O   UNL     1      44.159  -2.446 133.990  1.00  0.00    -0.508 OA
ATOM     20  H   UNL     1      45.011  -2.852 133.756  1.00  0.00     0.293 HD
ENDBRANCH  18  19
ENDBRANCH  12  13
ENDBRANCH   6  12
ENDBRANCH   2   3
ENDBRANCH   1   2
BRANCH   1  21
ATOM     21  C   UNL     1      39.688   5.340 134.427  1.00  0.00     0.083 C 
BRANCH  21  22
ATOM     22  C   UNL     1      38.375   4.756 134.938  1.00  0.00     0.233 C 
BRANCH  22  23
ATOM     23  O   UNL     1      38.377   4.865 136.362  1.00  0.00    -0.493 OA
BRANCH  23  24
ATOM     24  C   UNL     1      37.542   4.032 137.053  1.00  0.00     0.119 A 
ATOM     25  C   UNL     1      37.245   4.107 138.412  1.00  0.00     0.046 A 
ATOM     26  C   UNL     1      36.955   3.027 136.277  1.00  0.00     0.051 A 
ATOM     27  C   UNL     1      36.381   3.175 138.991  1.00  0.00     0.004 A 
ATOM     28  C   UNL     1      36.078   2.083 136.841  1.00  0.00    -0.021 A 
ATOM     29  C   UNL     1      35.806   2.168 138.214  1.00  0.00     0.006 A 
BRANCH  28  30
ATOM     30  C   UNL     1      35.447   0.985 136.014  1.00  0.00     0.176 C 
ATOM     31  S   UNL     1      34.633   1.630 134.515  1.00  0.00    -0.046 SA
ATOM     32  C   UNL     1      34.374   0.199 136.748  1.00  0.00     0.245 C 
ATOM     33  C   UNL     1      33.097   0.918 134.925  1.00  0.00     0.286 C 
ATOM     34  N   UNL     1      33.178   0.242 136.096  1.00  0.00    -0.286 N 
ATOM     35  O   UNL     1      34.535  -0.418 137.793  1.00  0.00    -0.273 OA
ATOM     36  O   UNL     1      32.096   1.020 134.237  1.00  0.00    -0.261 OA
ATOM     37  H   UNL     1      32.371  -0.238 136.463  1.00  0.00     0.173 HD
ENDBRANCH  28  30
ENDBRANCH  23  24
ENDBRANCH  22  23
ENDBRANCH  21  22
ENDBRANCH   1  21
TORSDOF 12
ENDMDL
