MODEL 1
REMARK VINA RESULT:    -9.920      0.000      0.000
REMARK INTER + INTRA:         -18.128
REMARK INTER:                 -16.589
REMARK INTRA:                  -1.539
REMARK UNBOUND:                -1.539
REMARK SMILES CCCc1cc(Oc2ccc(O)cc2)ccc1OCCCOc1cccc([C@@H]2SC(=O)NC2=O)c1
REMARK SMILES IDX 19 1 18 2 17 3 4 4 5 5 6 6 16 7 15 8 3 9 2 10 1 11 7 12 8 13
REMARK SMILES IDX 9 14 14 15 10 16 13 17 11 18 12 19 20 21 21 22 22 23 23 24
REMARK SMILES IDX 24 25 35 26 25 27 27 28 26 29 28 30 29 31 33 32 30 33 32 34
REMARK SMILES IDX 34 35 31 36
REMARK H PARENT 12 20 32 37
ROOT
ATOM      1  C   UNL     1      41.139   5.859 131.427  1.00  0.00     0.233 C 
ENDROOT
BRANCH   1   2
ATOM      2  O   UNL     1      41.226   4.628 130.713  1.00  0.00    -0.493 OA
BRANCH   2   3
ATOM      3  C   UNL     1      41.797   3.561 131.358  1.00  0.00     0.122 A 
ATOM      4  C   UNL     1      40.957   2.451 131.582  1.00  0.00    -0.002 A 
ATOM      5  C   UNL     1      41.467   1.328 132.255  1.00  0.00     0.054 A 
ATOM      6  C   UNL     1      42.793   1.309 132.690  1.00  0.00     0.127 A 
ATOM      7  C   UNL     1      43.133   3.515 131.773  1.00  0.00     0.050 A 
ATOM      8  C   UNL     1      43.632   2.386 132.429  1.00  0.00     0.051 A 
BRANCH   4   9
ATOM      9  C   UNL     1      39.511   2.431 131.130  1.00  0.00     0.039 C 
BRANCH   9  10
ATOM     10  C   UNL     1      39.258   1.526 129.920  1.00  0.00     0.001 C 
ATOM     11  C   UNL     1      38.009   1.902 129.135  1.00  0.00     0.004 C 
ENDBRANCH   9  10
ENDBRANCH   4   9
BRANCH   6  12
ATOM     12  O   UNL     1      43.330   0.213 133.321  1.00  0.00    -0.457 OA
BRANCH  12  13
ATOM     13  C   UNL     1      43.606  -0.875 132.521  1.00  0.00     0.127 A 
ATOM     14  C   UNL     1      44.181  -1.986 133.136  1.00  0.00     0.051 A 
ATOM     15  C   UNL     1      43.261  -0.916 131.167  1.00  0.00     0.051 A 
ATOM     16  C   UNL     1      44.451  -3.129 132.384  1.00  0.00     0.050 A 
ATOM     17  C   UNL     1      43.531  -2.061 130.413  1.00  0.00     0.050 A 
ATOM     18  C   UNL     1      44.126  -3.159 131.031  1.00  0.00     0.115 A 
BRANCH  18  19
ATOM     19  O   UNL     1      44.404  -4.298 130.335  1.00  0.00    -0.508 OA
ATOM     20  H   UNL     1      43.589  -4.603 129.900  1.00  0.00     0.293 HD
ENDBRANCH  18  19
ENDBRANCH  12  13
ENDBRANCH   6  12
ENDBRANCH   2   3
ENDBRANCH   1   2
BRANCH   1  21
ATOM     21  C   UNL     1      39.680   6.115 131.783  1.00  0.00     0.083 C 
BRANCH  21  22
ATOM     22  C   UNL     1      39.469   6.230 133.289  1.00  0.00     0.233 C 
BRANCH  22  23
ATOM     23  O   UNL     1      39.611   4.922 133.848  1.00  0.00    -0.493 OA
BRANCH  23  24
ATOM     24  C   UNL     1      38.629   4.497 134.699  1.00  0.00     0.119 A 
ATOM     25  C   UNL     1      38.322   5.048 135.941  1.00  0.00     0.046 A 
ATOM     26  C   UNL     1      37.892   3.404 134.231  1.00  0.00     0.051 A 
ATOM     27  C   UNL     1      37.297   4.500 136.714  1.00  0.00     0.004 A 
ATOM     28  C   UNL     1      36.853   2.841 134.993  1.00  0.00    -0.021 A 
ATOM     29  C   UNL     1      36.571   3.401 136.248  1.00  0.00     0.006 A 
BRANCH  28  30
ATOM     30  C   UNL     1      36.057   1.651 134.504  1.00  0.00     0.176 C 
ATOM     31  S   UNL     1      34.910   2.094 133.158  1.00  0.00    -0.046 SA
ATOM     32  C   UNL     1      35.192   1.006 135.573  1.00  0.00     0.245 C 
ATOM     33  C   UNL     1      33.518   1.486 134.012  1.00  0.00     0.286 C 
ATOM     34  N   UNL     1      33.876   0.984 135.217  1.00  0.00    -0.286 N 
ATOM     35  O   UNL     1      35.597   0.541 136.631  1.00  0.00    -0.273 OA
ATOM     36  O   UNL     1      32.384   1.513 133.567  1.00  0.00    -0.261 OA
ATOM     37  H   UNL     1      33.182   0.582 135.828  1.00  0.00     0.173 HD
ENDBRANCH  28  30
ENDBRANCH  23  24
ENDBRANCH  22  23
ENDBRANCH  21  22
ENDBRANCH   1  21
TORSDOF 12
ENDMDL
