REMARK SMILES COC(=O)[C@@H]1Cc2ccc(OCCc3nc(-c4ccc(C(C)(C)C)cc4)oc3C)cc2OC1=O
REMARK SMILES IDX 12 1 11 2 10 3 5 4 6 5 33 6 7 7 32 8 34 9 8 10 31 11 9 12
REMARK SMILES IDX 30 13 3 14 4 15 2 16 1 17 13 18 14 19 15 20 28 21 16 22
REMARK SMILES IDX 27 23 29 24 17 25 18 26 26 27 19 28 25 29 20 30 21 31 22 32
REMARK SMILES IDX 23 33 24 34
REMARK H PARENT
REMARK INDEX MAP 12 1 11 2 10 3 5 4 6 5 33 6 7 7 32 8 34 9 8 10 31 11 9 12
REMARK INDEX MAP 30 13 3 14 4 15 2 16 1 17 13 18 14 19 15 20 28 21 16 22 27 23
REMARK INDEX MAP 29 24 17 25 18 26 26 27 19 28 25 29 20 30 21 31 22 32 23 33
REMARK INDEX MAP 24 34
ROOT
ATOM      1  C   UNL     1       8.037   4.297  -6.512  1.00  0.00     0.236 C 
ENDROOT
BRANCH   1   2
ATOM      2  O   UNL     1       7.065   5.194  -7.058  1.00  0.00    -0.493 OA
BRANCH   2   3
ATOM      3  C   UNL     1       6.371   5.977  -6.177  1.00  0.00     0.123 A 
ATOM      4  C   UNL     1       4.020   7.199  -1.945  1.00  0.00     0.213 C 
ATOM      5  C   UNL     1       4.020   8.036  -3.217  1.00  0.00     0.066 C 
ATOM      6  C   UNL     1       3.555   5.801  -2.239  1.00  0.00     0.326 C 
ATOM      7  C   UNL     1       4.861   7.354  -4.248  1.00  0.00    -0.003 A 
ATOM      8  O   UNL     1       4.151   5.205  -3.350  1.00  0.00    -0.425 OA
ATOM      9  O   UNL     1       2.779   5.169  -1.529  1.00  0.00    -0.251 OA
ATOM     10  C   UNL     1       5.576   8.061  -5.215  1.00  0.00     0.011 A 
ATOM     11  C   UNL     1       4.898   5.963  -4.270  1.00  0.00     0.137 A 
ATOM     12  C   UNL     1       6.333   7.374  -6.173  1.00  0.00     0.047 A 
ATOM     13  C   UNL     1       5.641   5.269  -5.221  1.00  0.00     0.093 A 
BRANCH   4  14
ATOM     14  C   UNL     1       3.159   7.861  -0.905  1.00  0.00     0.320 C 
ATOM     15  O   UNL     1       2.369   8.769  -1.128  1.00  0.00    -0.251 OA
BRANCH  14  16
ATOM     16  O   UNL     1       3.400   7.321   0.324  1.00  0.00    -0.468 OA
ATOM     17  C   UNL     1       2.221   6.945   1.037  1.00  0.00     0.282 C 
ENDBRANCH  14  16
ENDBRANCH   4  14
ENDBRANCH   2   3
ENDBRANCH   1   2
BRANCH   1  18
ATOM     18  C   UNL     1       9.426   4.906  -6.702  1.00  0.00     0.101 C 
BRANCH  18  19
ATOM     19  C   UNL     1       9.710   5.223  -8.128  1.00  0.00     0.086 A 
ATOM     20  N   UNL     1       9.754   6.528  -8.565  1.00  0.00    -0.214 NA
ATOM     21  C   UNL     1       9.974   4.376  -9.183  1.00  0.00     0.125 A 
ATOM     22  C   UNL     1      10.037   6.433  -9.852  1.00  0.00     0.226 A 
ATOM     23  O   UNL     1      10.185   5.144 -10.294  1.00  0.00    -0.441 OA
ATOM     24  C   UNL     1      10.087   2.917  -9.348  1.00  0.00     0.090 C 
BRANCH  22  25
ATOM     25  C   UNL     1      10.220   7.495 -10.837  1.00  0.00     0.037 A 
ATOM     26  C   UNL     1      10.471   7.166 -12.173  1.00  0.00     0.014 A 
ATOM     27  C   UNL     1      10.150   8.849 -10.495  1.00  0.00     0.014 A 
ATOM     28  C   UNL     1      10.642   8.164 -13.139  1.00  0.00     0.005 A 
ATOM     29  C   UNL     1      10.322   9.849 -11.464  1.00  0.00     0.005 A 
ATOM     30  C   UNL     1      10.570   9.531 -12.808  1.00  0.00    -0.043 A 
BRANCH  30  31
ATOM     31  C   UNL     1      10.756  10.601 -13.897  1.00  0.00    -0.013 C 
ATOM     32  C   UNL     1       9.376  11.113 -14.364  1.00  0.00     0.016 C 
ATOM     33  C   UNL     1      11.505   9.993 -15.101  1.00  0.00     0.016 C 
ATOM     34  C   UNL     1      11.565  11.832 -13.430  1.00  0.00     0.016 C 
ENDBRANCH  30  31
ENDBRANCH  22  25
ENDBRANCH  18  19
ENDBRANCH   1  18
TORSDOF 8
