MODEL 1
REMARK VINA RESULT:   -10.263      0.000      0.000
REMARK INTER + INTRA:         -13.707
REMARK INTER:                 -13.263
REMARK INTRA:                  -0.445
REMARK UNBOUND:                -0.445
REMARK SMILES CCNc1nc(NCc2ccccc2)c2ccccc2n1
REMARK SMILES IDX 4 1 5 2 6 3 15 4 16 5 17 6 18 7 19 8 20 9 21 10 3 11 2 13
REMARK SMILES IDX 1 14 7 15 8 17 9 18 10 19 14 20 11 21 13 22 12 23
REMARK H PARENT 3 12 7 16
ROOT
ATOM      1  C   UNL     1     -13.761 -44.401  31.372  1.00  0.00     0.225 A 
ATOM      2  N   UNL     1     -14.166 -44.427  30.099  1.00  0.00    -0.195 NA
ATOM      3  C   UNL     1     -13.362 -45.000  29.187  1.00  0.00     0.139 A 
ATOM      4  C   UNL     1     -12.106 -45.521  29.534  1.00  0.00     0.043 A 
ATOM      5  C   UNL     1     -11.174 -46.094  28.629  1.00  0.00     0.014 A 
ATOM      6  C   UNL     1      -9.953 -46.593  29.079  1.00  0.00     0.001 A 
ATOM      7  C   UNL     1      -9.648 -46.524  30.431  1.00  0.00     0.002 A 
ATOM      8  C   UNL     1     -10.563 -45.951  31.318  1.00  0.00     0.029 A 
ATOM      9  C   UNL     1     -11.786 -45.444  30.892  1.00  0.00     0.078 A 
ATOM     10  N   UNL     1     -12.600 -44.900  31.799  1.00  0.00    -0.213 NA
ENDROOT
BRANCH   1  11
ATOM     11  N   UNL     1     -14.554 -43.837  32.333  1.00  0.00    -0.354 N 
ATOM     12  H   UNL     1     -15.488 -44.211  32.391  1.00  0.00     0.163 HD
BRANCH  11  13
ATOM     13  C   UNL     1     -14.062 -42.814  33.215  1.00  0.00     0.112 C 
ATOM     14  C   UNL     1     -15.059 -41.669  33.285  1.00  0.00     0.027 C 
ENDBRANCH  11  13
ENDBRANCH   1  11
BRANCH   3  15
ATOM     15  N   UNL     1     -13.791 -45.020  27.864  1.00  0.00    -0.365 N 
ATOM     16  H   UNL     1     -14.691 -45.440  27.681  1.00  0.00     0.162 HD
BRANCH  15  17
ATOM     17  C   UNL     1     -13.394 -43.941  26.983  1.00  0.00     0.150 C 
BRANCH  17  18
ATOM     18  C   UNL     1     -14.579 -43.544  26.133  1.00  0.00    -0.029 A 
ATOM     19  C   UNL     1     -14.529 -43.665  24.737  1.00  0.00     0.005 A 
ATOM     20  C   UNL     1     -15.731 -43.011  26.728  1.00  0.00     0.005 A 
ATOM     21  C   UNL     1     -15.618 -43.277  23.954  1.00  0.00     0.000 A 
ATOM     22  C   UNL     1     -16.819 -42.622  25.945  1.00  0.00     0.000 A 
ATOM     23  C   UNL     1     -16.762 -42.758  24.559  1.00  0.00     0.000 A 
ENDBRANCH  17  18
ENDBRANCH  15  17
ENDBRANCH   3  15
TORSDOF 5
ENDMDL
MODEL 2
REMARK VINA RESULT:   -10.204      2.308      3.752
REMARK INTER + INTRA:         -13.631
REMARK INTER:                 -13.051
REMARK INTRA:                  -0.580
REMARK UNBOUND:                -0.445
REMARK SMILES CCNc1nc(NCc2ccccc2)c2ccccc2n1
REMARK SMILES IDX 4 1 5 2 6 3 15 4 16 5 17 6 18 7 19 8 20 9 21 10 3 11 2 13
REMARK SMILES IDX 1 14 7 15 8 17 9 18 10 19 14 20 11 21 13 22 12 23
REMARK H PARENT 3 12 7 16
ROOT
ATOM      1  C   UNL     1     -12.202 -42.863  32.916  1.00  0.00     0.225 A 
ATOM      2  N   UNL     1     -12.433 -43.952  32.177  1.00  0.00    -0.195 NA
ATOM      3  C   UNL     1     -11.381 -44.703  31.806  1.00  0.00     0.139 A 
ATOM      4  C   UNL     1     -10.065 -44.346  32.137  1.00  0.00     0.043 A 
ATOM      5  C   UNL     1      -8.897 -45.051  31.743  1.00  0.00     0.014 A 
ATOM      6  C   UNL     1      -7.633 -44.617  32.134  1.00  0.00     0.001 A 
ATOM      7  C   UNL     1      -7.519 -43.477  32.917  1.00  0.00     0.002 A 
ATOM      8  C   UNL     1      -8.669 -42.779  33.296  1.00  0.00     0.029 A 
ATOM      9  C   UNL     1      -9.941 -43.192  32.915  1.00  0.00     0.078 A 
ATOM     10  N   UNL     1     -10.990 -42.465  33.306  1.00  0.00    -0.213 NA
ENDROOT
BRANCH   1  11
ATOM     11  N   UNL     1     -13.244 -42.078  33.324  1.00  0.00    -0.354 N 
ATOM     12  H   UNL     1     -12.989 -41.301  33.914  1.00  0.00     0.163 HD
BRANCH  11  13
ATOM     13  C   UNL     1     -14.594 -42.333  32.900  1.00  0.00     0.112 C 
ATOM     14  C   UNL     1     -15.517 -41.251  33.436  1.00  0.00     0.027 C 
ENDBRANCH  11  13
ENDBRANCH   1  11
BRANCH   3  15
ATOM     15  N   UNL     1     -11.631 -45.833  31.034  1.00  0.00    -0.365 N 
ATOM     16  H   UNL     1     -10.999 -46.612  31.146  1.00  0.00     0.162 HD
BRANCH  15  17
ATOM     17  C   UNL     1     -13.000 -46.159  30.693  1.00  0.00     0.150 C 
BRANCH  17  18
ATOM     18  C   UNL     1     -13.261 -45.739  29.265  1.00  0.00    -0.029 A 
ATOM     19  C   UNL     1     -14.147 -44.689  28.979  1.00  0.00     0.005 A 
ATOM     20  C   UNL     1     -12.649 -46.419  28.202  1.00  0.00     0.005 A 
ATOM     21  C   UNL     1     -14.401 -44.319  27.657  1.00  0.00     0.000 A 
ATOM     22  C   UNL     1     -12.905 -46.049  26.882  1.00  0.00     0.000 A 
ATOM     23  C   UNL     1     -13.779 -44.998  26.610  1.00  0.00     0.000 A 
ENDBRANCH  17  18
ENDBRANCH  15  17
ENDBRANCH   3  15
TORSDOF 5
ENDMDL
MODEL 3
REMARK VINA RESULT:    -9.876      2.934      4.228
REMARK INTER + INTRA:         -13.208
REMARK INTER:                 -12.646
REMARK INTRA:                  -0.561
REMARK UNBOUND:                -0.445
REMARK SMILES CCNc1nc(NCc2ccccc2)c2ccccc2n1
REMARK SMILES IDX 4 1 5 2 6 3 15 4 16 5 17 6 18 7 19 8 20 9 21 10 3 11 2 13
REMARK SMILES IDX 1 14 7 15 8 17 9 18 10 19 14 20 11 21 13 22 12 23
REMARK H PARENT 3 12 7 16
ROOT
ATOM      1  C   UNL     1      -9.812 -42.759  28.168  1.00  0.00     0.225 A 
ATOM      2  N   UNL     1     -11.113 -43.042  28.063  1.00  0.00    -0.195 NA
ATOM      3  C   UNL     1     -11.618 -44.010  28.848  1.00  0.00     0.139 A 
ATOM      4  C   UNL     1     -10.808 -44.746  29.727  1.00  0.00     0.043 A 
ATOM      5  C   UNL     1     -11.248 -45.816  30.550  1.00  0.00     0.014 A 
ATOM      6  C   UNL     1     -10.362 -46.478  31.397  1.00  0.00     0.001 A 
ATOM      7  C   UNL     1      -9.031 -46.084  31.430  1.00  0.00     0.002 A 
ATOM      8  C   UNL     1      -8.599 -45.037  30.612  1.00  0.00     0.029 A 
ATOM      9  C   UNL     1      -9.465 -44.364  29.756  1.00  0.00     0.078 A 
ATOM     10  N   UNL     1      -8.973 -43.383  28.996  1.00  0.00    -0.213 NA
ENDROOT
BRANCH   1  11
ATOM     11  N   UNL     1      -9.260 -41.775  27.396  1.00  0.00    -0.354 N 
ATOM     12  H   UNL     1      -9.653 -40.856  27.527  1.00  0.00     0.163 HD
BRANCH  11  13
ATOM     13  C   UNL     1      -8.171 -42.041  26.495  1.00  0.00     0.112 C 
ATOM     14  C   UNL     1      -7.264 -40.825  26.408  1.00  0.00     0.027 C 
ENDBRANCH  11  13
ENDBRANCH   1  11
BRANCH   3  15
ATOM     15  N   UNL     1     -12.974 -44.299  28.731  1.00  0.00    -0.365 N 
ATOM     16  H   UNL     1     -13.622 -43.594  29.052  1.00  0.00     0.162 HD
BRANCH  15  17
ATOM     17  C   UNL     1     -13.420 -45.130  27.632  1.00  0.00     0.150 C 
BRANCH  17  18
ATOM     18  C   UNL     1     -14.310 -44.308  26.729  1.00  0.00    -0.029 A 
ATOM     19  C   UNL     1     -15.251 -43.419  27.269  1.00  0.00     0.005 A 
ATOM     20  C   UNL     1     -14.236 -44.454  25.336  1.00  0.00     0.005 A 
ATOM     21  C   UNL     1     -16.086 -42.678  26.431  1.00  0.00     0.000 A 
ATOM     22  C   UNL     1     -15.072 -43.714  24.499  1.00  0.00     0.000 A 
ATOM     23  C   UNL     1     -15.995 -42.824  25.048  1.00  0.00     0.000 A 
ENDBRANCH  17  18
ENDBRANCH  15  17
ENDBRANCH   3  15
TORSDOF 5
ENDMDL
MODEL 4
REMARK VINA RESULT:    -9.778      2.193      6.235
REMARK INTER + INTRA:         -13.081
REMARK INTER:                 -13.252
REMARK INTRA:                   0.171
REMARK UNBOUND:                -0.445
REMARK SMILES CCNc1nc(NCc2ccccc2)c2ccccc2n1
REMARK SMILES IDX 4 1 5 2 6 3 15 4 16 5 17 6 18 7 19 8 20 9 21 10 3 11 2 13
REMARK SMILES IDX 1 14 7 15 8 17 9 18 10 19 14 20 11 21 13 22 12 23
REMARK H PARENT 3 12 7 16
ROOT
ATOM      1  C   UNL     1     -13.796 -44.389  31.426  1.00  0.00     0.225 A 
ATOM      2  N   UNL     1     -12.735 -45.083  31.848  1.00  0.00    -0.195 NA
ATOM      3  C   UNL     1     -12.014 -45.758  30.936  1.00  0.00     0.139 A 
ATOM      4  C   UNL     1     -12.375 -45.784  29.580  1.00  0.00     0.043 A 
ATOM      5  C   UNL     1     -11.702 -46.511  28.563  1.00  0.00     0.014 A 
ATOM      6  C   UNL     1     -12.138 -46.462  27.241  1.00  0.00     0.001 A 
ATOM      7  C   UNL     1     -13.247 -45.692  26.919  1.00  0.00     0.002 A 
ATOM      8  C   UNL     1     -13.912 -44.984  27.924  1.00  0.00     0.029 A 
ATOM      9  C   UNL     1     -13.498 -45.021  29.250  1.00  0.00     0.078 A 
ATOM     10  N   UNL     1     -14.195 -44.328  30.154  1.00  0.00    -0.213 NA
ENDROOT
BRANCH   1  11
ATOM     11  N   UNL     1     -14.550 -43.679  32.318  1.00  0.00    -0.354 N 
ATOM     12  H   UNL     1     -15.485 -44.027  32.461  1.00  0.00     0.163 HD
BRANCH  11  13
ATOM     13  C   UNL     1     -14.018 -42.543  33.022  1.00  0.00     0.112 C 
ATOM     14  C   UNL     1     -15.144 -41.591  33.390  1.00  0.00     0.027 C 
ENDBRANCH  11  13
ENDBRANCH   1  11
BRANCH   3  15
ATOM     15  N   UNL     1     -10.913 -46.480  31.385  1.00  0.00    -0.365 N 
ATOM     16  H   UNL     1     -11.090 -47.405  31.749  1.00  0.00     0.162 HD
BRANCH  15  17
ATOM     17  C   UNL     1      -9.632 -46.276  30.741  1.00  0.00     0.150 C 
BRANCH  17  18
ATOM     18  C   UNL     1      -8.835 -45.274  31.542  1.00  0.00    -0.029 A 
ATOM     19  C   UNL     1      -9.454 -44.136  32.081  1.00  0.00     0.005 A 
ATOM     20  C   UNL     1      -7.456 -45.447  31.726  1.00  0.00     0.005 A 
ATOM     21  C   UNL     1      -8.709 -43.201  32.803  1.00  0.00     0.000 A 
ATOM     22  C   UNL     1      -6.713 -44.512  32.446  1.00  0.00     0.000 A 
ATOM     23  C   UNL     1      -7.340 -43.391  32.987  1.00  0.00     0.000 A 
ENDBRANCH  17  18
ENDBRANCH  15  17
ENDBRANCH   3  15
TORSDOF 5
ENDMDL
MODEL 5
REMARK VINA RESULT:    -9.579      2.604      4.089
REMARK INTER + INTRA:         -12.824
REMARK INTER:                 -12.337
REMARK INTRA:                  -0.487
REMARK UNBOUND:                -0.445
REMARK SMILES CCNc1nc(NCc2ccccc2)c2ccccc2n1
REMARK SMILES IDX 4 1 5 2 6 3 15 4 16 5 17 6 18 7 19 8 20 9 21 10 3 11 2 13
REMARK SMILES IDX 1 14 7 15 8 17 9 18 10 19 14 20 11 21 13 22 12 23
REMARK H PARENT 3 12 7 16
ROOT
ATOM      1  C   UNL     1     -10.706 -42.795  28.032  1.00  0.00     0.225 A 
ATOM      2  N   UNL     1     -11.900 -42.911  27.446  1.00  0.00    -0.195 NA
ATOM      3  C   UNL     1     -12.790 -43.767  27.979  1.00  0.00     0.139 A 
ATOM      4  C   UNL     1     -12.475 -44.560  29.093  1.00  0.00     0.043 A 
ATOM      5  C   UNL     1     -13.333 -45.524  29.685  1.00  0.00     0.014 A 
ATOM      6  C   UNL     1     -12.927 -46.255  30.799  1.00  0.00     0.001 A 
ATOM      7  C   UNL     1     -11.664 -46.036  31.332  1.00  0.00     0.002 A 
ATOM      8  C   UNL     1     -10.818 -45.094  30.741  1.00  0.00     0.029 A 
ATOM      9  C   UNL     1     -11.201 -44.354  29.627  1.00  0.00     0.078 A 
ATOM     10  N   UNL     1     -10.331 -43.483  29.112  1.00  0.00    -0.213 NA
ENDROOT
BRANCH   1  11
ATOM     11  N   UNL     1      -9.776 -41.928  27.529  1.00  0.00    -0.354 N 
ATOM     12  H   UNL     1     -10.046 -40.957  27.539  1.00  0.00     0.163 HD
BRANCH  11  13
ATOM     13  C   UNL     1      -8.494 -42.382  27.061  1.00  0.00     0.112 C 
ATOM     14  C   UNL     1      -7.692 -41.205  26.531  1.00  0.00     0.027 C 
ENDBRANCH  11  13
ENDBRANCH   1  11
BRANCH   3  15
ATOM     15  N   UNL     1     -14.030 -43.883  27.360  1.00  0.00    -0.365 N 
ATOM     16  H   UNL     1     -14.807 -44.162  27.941  1.00  0.00     0.162 HD
BRANCH  15  17
ATOM     17  C   UNL     1     -14.340 -43.011  26.245  1.00  0.00     0.150 C 
BRANCH  17  18
ATOM     18  C   UNL     1     -15.829 -42.757  26.225  1.00  0.00    -0.029 A 
ATOM     19  C   UNL     1     -16.545 -42.601  27.421  1.00  0.00     0.005 A 
ATOM     20  C   UNL     1     -16.525 -42.712  25.008  1.00  0.00     0.005 A 
ATOM     21  C   UNL     1     -17.924 -42.387  27.398  1.00  0.00     0.000 A 
ATOM     22  C   UNL     1     -17.903 -42.499  24.985  1.00  0.00     0.000 A 
ATOM     23  C   UNL     1     -18.602 -42.334  26.180  1.00  0.00     0.000 A 
ENDBRANCH  17  18
ENDBRANCH  15  17
ENDBRANCH   3  15
TORSDOF 5
ENDMDL
MODEL 6
REMARK VINA RESULT:    -9.476      3.362      7.443
REMARK INTER + INTRA:         -12.690
REMARK INTER:                 -12.333
REMARK INTRA:                  -0.357
REMARK UNBOUND:                -0.445
REMARK SMILES CCNc1nc(NCc2ccccc2)c2ccccc2n1
REMARK SMILES IDX 4 1 5 2 6 3 15 4 16 5 17 6 18 7 19 8 20 9 21 10 3 11 2 13
REMARK SMILES IDX 1 14 7 15 8 17 9 18 10 19 14 20 11 21 13 22 12 23
REMARK H PARENT 3 12 7 16
ROOT
ATOM      1  C   UNL     1      -9.746 -42.924  27.989  1.00  0.00     0.225 A 
ATOM      2  N   UNL     1      -9.698 -43.962  28.829  1.00  0.00    -0.195 NA
ATOM      3  C   UNL     1     -10.801 -44.717  28.970  1.00  0.00     0.139 A 
ATOM      4  C   UNL     1     -11.995 -44.413  28.299  1.00  0.00     0.043 A 
ATOM      5  C   UNL     1     -13.218 -45.122  28.431  1.00  0.00     0.014 A 
ATOM      6  C   UNL     1     -14.348 -44.743  27.711  1.00  0.00     0.001 A 
ATOM      7  C   UNL     1     -14.273 -43.653  26.855  1.00  0.00     0.002 A 
ATOM      8  C   UNL     1     -13.071 -42.950  26.734  1.00  0.00     0.029 A 
ATOM      9  C   UNL     1     -11.932 -43.308  27.445  1.00  0.00     0.078 A 
ATOM     10  N   UNL     1     -10.825 -42.578  27.286  1.00  0.00    -0.213 NA
ENDROOT
BRANCH   1  11
ATOM     11  N   UNL     1      -8.643 -42.137  27.808  1.00  0.00    -0.354 N 
ATOM     12  H   UNL     1      -8.308 -41.672  28.636  1.00  0.00     0.163 HD
BRANCH  11  13
ATOM     13  C   UNL     1      -7.997 -42.025  26.527  1.00  0.00     0.112 C 
ATOM     14  C   UNL     1      -7.146 -40.766  26.487  1.00  0.00     0.027 C 
ENDBRANCH  11  13
ENDBRANCH   1  11
BRANCH   3  15
ATOM     15  N   UNL     1     -10.742 -45.794  29.848  1.00  0.00    -0.365 N 
ATOM     16  H   UNL     1     -10.159 -46.573  29.578  1.00  0.00     0.162 HD
BRANCH  15  17
ATOM     17  C   UNL     1     -10.867 -45.547  31.270  1.00  0.00     0.150 C 
BRANCH  17  18
ATOM     18  C   UNL     1      -9.567 -44.970  31.780  1.00  0.00    -0.029 A 
ATOM     19  C   UNL     1      -9.544 -43.734  32.443  1.00  0.00     0.005 A 
ATOM     20  C   UNL     1      -8.357 -45.646  31.564  1.00  0.00     0.005 A 
ATOM     21  C   UNL     1      -8.337 -43.196  32.894  1.00  0.00     0.000 A 
ATOM     22  C   UNL     1      -7.152 -45.107  32.014  1.00  0.00     0.000 A 
ATOM     23  C   UNL     1      -7.143 -43.883  32.681  1.00  0.00     0.000 A 
ENDBRANCH  17  18
ENDBRANCH  15  17
ENDBRANCH   3  15
TORSDOF 5
ENDMDL
MODEL 7
REMARK VINA RESULT:    -9.310      2.472      6.701
REMARK INTER + INTRA:         -12.477
REMARK INTER:                 -11.925
REMARK INTRA:                  -0.552
REMARK UNBOUND:                -0.445
REMARK SMILES CCNc1nc(NCc2ccccc2)c2ccccc2n1
REMARK SMILES IDX 4 1 5 2 6 3 15 4 16 5 17 6 18 7 19 8 20 9 21 10 3 11 2 13
REMARK SMILES IDX 1 14 7 15 8 17 9 18 10 19 14 20 11 21 13 22 12 23
REMARK H PARENT 3 12 7 16
ROOT
ATOM      1  C   UNL     1     -13.271 -44.236  27.717  1.00  0.00     0.225 A 
ATOM      2  N   UNL     1     -12.783 -45.248  28.440  1.00  0.00    -0.195 NA
ATOM      3  C   UNL     1     -11.503 -45.179  28.846  1.00  0.00     0.139 A 
ATOM      4  C   UNL     1     -10.672 -44.106  28.492  1.00  0.00     0.043 A 
ATOM      5  C   UNL     1      -9.299 -43.981  28.833  1.00  0.00     0.014 A 
ATOM      6  C   UNL     1      -8.563 -42.866  28.439  1.00  0.00     0.001 A 
ATOM      7  C   UNL     1      -9.184 -41.868  27.700  1.00  0.00     0.002 A 
ATOM      8  C   UNL     1     -10.533 -41.998  27.358  1.00  0.00     0.029 A 
ATOM      9  C   UNL     1     -11.287 -43.103  27.738  1.00  0.00     0.078 A 
ATOM     10  N   UNL     1     -12.566 -43.161  27.361  1.00  0.00    -0.213 NA
ENDROOT
BRANCH   1  11
ATOM     11  N   UNL     1     -14.570 -44.260  27.293  1.00  0.00    -0.354 N 
ATOM     12  H   UNL     1     -15.246 -44.510  27.997  1.00  0.00     0.163 HD
BRANCH  11  13
ATOM     13  C   UNL     1     -14.932 -43.912  25.945  1.00  0.00     0.112 C 
ATOM     14  C   UNL     1     -15.970 -42.802  25.959  1.00  0.00     0.027 C 
ENDBRANCH  11  13
ENDBRANCH   1  11
BRANCH   3  15
ATOM     15  N   UNL     1     -11.004 -46.239  29.596  1.00  0.00    -0.365 N 
ATOM     16  H   UNL     1     -10.222 -46.747  29.207  1.00  0.00     0.162 HD
BRANCH  15  17
ATOM     17  C   UNL     1     -11.068 -46.165  31.041  1.00  0.00     0.150 C 
BRANCH  17  18
ATOM     18  C   UNL     1      -9.829 -45.465  31.550  1.00  0.00    -0.029 A 
ATOM     19  C   UNL     1      -9.921 -44.210  32.171  1.00  0.00     0.005 A 
ATOM     20  C   UNL     1      -8.564 -46.042  31.371  1.00  0.00     0.005 A 
ATOM     21  C   UNL     1      -8.772 -43.557  32.620  1.00  0.00     0.000 A 
ATOM     22  C   UNL     1      -7.416 -45.388  31.819  1.00  0.00     0.000 A 
ATOM     23  C   UNL     1      -7.521 -44.147  32.445  1.00  0.00     0.000 A 
ENDBRANCH  17  18
ENDBRANCH  15  17
ENDBRANCH   3  15
TORSDOF 5
ENDMDL
MODEL 8
REMARK VINA RESULT:    -9.308      2.948      6.420
REMARK INTER + INTRA:         -12.473
REMARK INTER:                 -11.566
REMARK INTRA:                  -0.907
REMARK UNBOUND:                -0.445
REMARK SMILES CCNc1nc(NCc2ccccc2)c2ccccc2n1
REMARK SMILES IDX 4 1 5 2 6 3 15 4 16 5 17 6 18 7 19 8 20 9 21 10 3 11 2 13
REMARK SMILES IDX 1 14 7 15 8 17 9 18 10 19 14 20 11 21 13 22 12 23
REMARK H PARENT 3 12 7 16
ROOT
ATOM      1  C   UNL     1      -9.796 -43.088  28.051  1.00  0.00     0.225 A 
ATOM      2  N   UNL     1      -9.882 -44.178  28.818  1.00  0.00    -0.195 NA
ATOM      3  C   UNL     1     -11.048 -44.847  28.843  1.00  0.00     0.139 A 
ATOM      4  C   UNL     1     -12.170 -44.404  28.126  1.00  0.00     0.043 A 
ATOM      5  C   UNL     1     -13.450 -45.018  28.138  1.00  0.00     0.014 A 
ATOM      6  C   UNL     1     -14.499 -44.501  27.381  1.00  0.00     0.001 A 
ATOM      7  C   UNL     1     -14.285 -43.368  26.608  1.00  0.00     0.002 A 
ATOM      8  C   UNL     1     -13.027 -42.760  26.606  1.00  0.00     0.029 A 
ATOM      9  C   UNL     1     -11.966 -43.256  27.356  1.00  0.00     0.078 A 
ATOM     10  N   UNL     1     -10.798 -42.611  27.311  1.00  0.00    -0.213 NA
ENDROOT
BRANCH   1  11
ATOM     11  N   UNL     1      -8.625 -42.384  27.988  1.00  0.00    -0.354 N 
ATOM     12  H   UNL     1      -8.339 -41.952  28.852  1.00  0.00     0.163 HD
BRANCH  11  13
ATOM     13  C   UNL     1      -7.852 -42.311  26.778  1.00  0.00     0.112 C 
ATOM     14  C   UNL     1      -7.423 -40.875  26.526  1.00  0.00     0.027 C 
ENDBRANCH  11  13
ENDBRANCH   1  11
BRANCH   3  15
ATOM     15  N   UNL     1     -11.129 -45.980  29.647  1.00  0.00    -0.365 N 
ATOM     16  H   UNL     1     -10.906 -46.865  29.214  1.00  0.00     0.162 HD
BRANCH  15  17
ATOM     17  C   UNL     1     -10.828 -45.860  31.058  1.00  0.00     0.150 C 
BRANCH  17  18
ATOM     18  C   UNL     1     -11.791 -44.875  31.680  1.00  0.00    -0.029 A 
ATOM     19  C   UNL     1     -11.337 -43.641  32.167  1.00  0.00     0.005 A 
ATOM     20  C   UNL     1     -13.149 -45.200  31.815  1.00  0.00     0.005 A 
ATOM     21  C   UNL     1     -12.227 -42.744  32.761  1.00  0.00     0.000 A 
ATOM     22  C   UNL     1     -14.037 -44.303  32.409  1.00  0.00     0.000 A 
ATOM     23  C   UNL     1     -13.576 -43.074  32.879  1.00  0.00     0.000 A 
ENDBRANCH  17  18
ENDBRANCH  15  17
ENDBRANCH   3  15
TORSDOF 5
ENDMDL
MODEL 9
REMARK VINA RESULT:    -9.059      2.243      2.533
REMARK INTER + INTRA:         -12.152
REMARK INTER:                 -11.660
REMARK INTRA:                  -0.492
REMARK UNBOUND:                -0.445
REMARK SMILES CCNc1nc(NCc2ccccc2)c2ccccc2n1
REMARK SMILES IDX 4 1 5 2 6 3 15 4 16 5 17 6 18 7 19 8 20 9 21 10 3 11 2 13
REMARK SMILES IDX 1 14 7 15 8 17 9 18 10 19 14 20 11 21 13 22 12 23
REMARK H PARENT 3 12 7 16
ROOT
ATOM      1  C   UNL     1     -11.919 -44.446  30.507  1.00  0.00     0.225 A 
ATOM      2  N   UNL     1     -12.729 -44.188  29.476  1.00  0.00    -0.195 NA
ATOM      3  C   UNL     1     -12.209 -43.574  28.399  1.00  0.00     0.139 A 
ATOM      4  C   UNL     1     -10.867 -43.166  28.356  1.00  0.00     0.043 A 
ATOM      5  C   UNL     1     -10.253 -42.467  27.283  1.00  0.00     0.014 A 
ATOM      6  C   UNL     1      -8.906 -42.115  27.336  1.00  0.00     0.001 A 
ATOM      7  C   UNL     1      -8.160 -42.453  28.457  1.00  0.00     0.002 A 
ATOM      8  C   UNL     1      -8.769 -43.132  29.515  1.00  0.00     0.029 A 
ATOM      9  C   UNL     1     -10.112 -43.490  29.486  1.00  0.00     0.078 A 
ATOM     10  N   UNL     1     -10.625 -44.126  30.542  1.00  0.00    -0.213 NA
ENDROOT
BRANCH   1  11
ATOM     11  N   UNL     1     -12.404 -45.079  31.618  1.00  0.00    -0.354 N 
ATOM     12  H   UNL     1     -11.714 -45.562  32.171  1.00  0.00     0.163 HD
BRANCH  11  13
ATOM     13  C   UNL     1     -13.795 -45.016  31.977  1.00  0.00     0.112 C 
ATOM     14  C   UNL     1     -14.069 -43.742  32.759  1.00  0.00     0.027 C 
ENDBRANCH  11  13
ENDBRANCH   1  11
BRANCH   3  15
ATOM     15  N   UNL     1     -13.060 -43.306  27.331  1.00  0.00    -0.365 N 
ATOM     16  H   UNL     1     -12.769 -42.590  26.682  1.00  0.00     0.162 HD
BRANCH  15  17
ATOM     17  C   UNL     1     -13.858 -44.384  26.784  1.00  0.00     0.150 C 
BRANCH  17  18
ATOM     18  C   UNL     1     -14.930 -43.797  25.897  1.00  0.00    -0.029 A 
ATOM     19  C   UNL     1     -14.843 -43.907  24.501  1.00  0.00     0.005 A 
ATOM     20  C   UNL     1     -16.009 -43.096  26.456  1.00  0.00     0.005 A 
ATOM     21  C   UNL     1     -15.825 -43.344  23.684  1.00  0.00     0.000 A 
ATOM     22  C   UNL     1     -16.989 -42.533  25.639  1.00  0.00     0.000 A 
ATOM     23  C   UNL     1     -16.898 -42.659  24.254  1.00  0.00     0.000 A 
ENDBRANCH  17  18
ENDBRANCH  15  17
ENDBRANCH   3  15
TORSDOF 5
ENDMDL
