MODEL 1
REMARK VINA RESULT:    -9.386      0.000      0.000
REMARK INTER + INTRA:         -17.485
REMARK INTER:                 -16.245
REMARK INTRA:                  -1.240
REMARK UNBOUND:                -1.240
REMARK SMILES CCCc1c(OCCCOc2ccc(OCC(=O)O)cc2)ccc2c(-c3ccccc3)noc12
REMARK SMILES IDX 9 1 8 2 7 3 6 4 5 5 4 6 34 7 22 8 33 9 24 10 23 11 32 12
REMARK SMILES IDX 25 13 3 14 2 15 1 16 26 17 27 18 31 19 28 20 30 21 29 22
REMARK SMILES IDX 10 23 11 24 12 25 21 26 13 27 20 28 14 29 15 30 16 31 17 32
REMARK SMILES IDX 18 33 19 34
REMARK H PARENT 19 35
ROOT
ATOM      1  C   UNL     1       8.936   3.124  -6.206  1.00  0.00     0.233 C 
ENDROOT
BRANCH   1   2
ATOM      2  C   UNL     1       8.102   4.307  -5.732  1.00  0.00     0.083 C 
BRANCH   2   3
ATOM      3  C   UNL     1       8.135   5.468  -6.722  1.00  0.00     0.233 C 
BRANCH   3   4
ATOM      4  O   UNL     1       9.505   5.748  -7.013  1.00  0.00    -0.493 OA
BRANCH   4   5
ATOM      5  C   UNL     1       9.789   6.471  -8.144  1.00  0.00     0.126 A 
ATOM      6  C   UNL     1      10.427   5.744  -9.175  1.00  0.00     0.040 A 
ATOM      7  C   UNL     1      10.714   6.477 -10.335  1.00  0.00     0.174 A 
ATOM      8  C   UNL     1       9.488   7.831  -8.302  1.00  0.00     0.048 A 
ATOM      9  O   UNL     1      11.301   5.986 -11.459  1.00  0.00    -0.355 OA
ATOM     10  C   UNL     1      10.439   7.819 -10.522  1.00  0.00     0.050 A 
ATOM     11  C   UNL     1       9.803   8.518  -9.484  1.00  0.00     0.018 A 
ATOM     12  N   UNL     1      11.420   6.987 -12.403  1.00  0.00    -0.079 NA
ATOM     13  C   UNL     1      10.916   8.098 -11.839  1.00  0.00     0.121 A 
BRANCH   6  14
ATOM     14  C   UNL     1      10.758   4.278  -9.056  1.00  0.00     0.043 C 
BRANCH  14  15
ATOM     15  C   UNL     1       9.676   3.358  -9.630  1.00  0.00     0.002 C 
ATOM     16  C   UNL     1      10.027   2.785 -10.996  1.00  0.00     0.004 C 
ENDBRANCH  14  15
ENDBRANCH   6  14
BRANCH  13  17
ATOM     17  C   UNL     1      10.900   9.366 -12.564  1.00  0.00     0.004 A 
ATOM     18  C   UNL     1      10.535  10.549 -11.904  1.00  0.00     0.010 A 
ATOM     19  C   UNL     1      11.234   9.424 -13.924  1.00  0.00     0.010 A 
ATOM     20  C   UNL     1      10.521  11.768 -12.587  1.00  0.00     0.001 A 
ATOM     21  C   UNL     1      11.219  10.644 -14.606  1.00  0.00     0.001 A 
ATOM     22  C   UNL     1      10.866  11.814 -13.936  1.00  0.00     0.000 A 
ENDBRANCH  13  17
ENDBRANCH   4   5
ENDBRANCH   3   4
ENDBRANCH   2   3
ENDBRANCH   1   2
BRANCH   1  23
ATOM     23  O   UNL     1       8.725   2.027  -5.317  1.00  0.00    -0.493 OA
BRANCH  23  24
ATOM     24  C   UNL     1       9.704   1.768  -4.399  1.00  0.00     0.119 A 
ATOM     25  C   UNL     1      10.935   1.404  -4.947  1.00  0.00     0.050 A 
ATOM     26  C   UNL     1       9.572   1.840  -3.013  1.00  0.00     0.050 A 
ATOM     27  C   UNL     1      12.019   1.111  -4.118  1.00  0.00     0.050 A 
ATOM     28  C   UNL     1      10.663   1.546  -2.180  1.00  0.00     0.050 A 
ATOM     29  C   UNL     1      11.891   1.180  -2.730  1.00  0.00     0.120 A 
BRANCH  29  30
ATOM     30  O   UNL     1      13.026   0.869  -2.037  1.00  0.00    -0.482 OA
BRANCH  30  31
ATOM     31  C   UNL     1      14.258   1.354  -2.558  1.00  0.00     0.351 C 
BRANCH  31  32
ATOM     32  C   UNL     1      15.074   2.005  -1.457  1.00  0.00     0.341 C 
ATOM     33  O   UNL     1      15.017   3.154  -1.052  1.00  0.00    -0.248 OA
BRANCH  32  34
ATOM     34  O   UNL     1      15.957   1.142  -0.905  1.00  0.00    -0.479 OA
ATOM     35  H   UNL     1      15.665   0.269  -1.243  1.00  0.00     0.296 HD
ENDBRANCH  32  34
ENDBRANCH  31  32
ENDBRANCH  30  31
ENDBRANCH  29  30
ENDBRANCH  23  24
ENDBRANCH   1  23
TORSDOF 13
ENDMDL
MODEL 2
REMARK VINA RESULT:    -8.643      4.159      6.366
REMARK INTER + INTRA:         -16.198
REMARK INTER:                 -15.436
REMARK INTRA:                  -0.762
REMARK UNBOUND:                -1.240
REMARK SMILES CCCc1c(OCCCOc2ccc(OCC(=O)O)cc2)ccc2c(-c3ccccc3)noc12
REMARK SMILES IDX 9 1 8 2 7 3 6 4 5 5 4 6 34 7 22 8 33 9 24 10 23 11 32 12
REMARK SMILES IDX 25 13 3 14 2 15 1 16 26 17 27 18 31 19 28 20 30 21 29 22
REMARK SMILES IDX 10 23 11 24 12 25 21 26 13 27 20 28 14 29 15 30 16 31 17 32
REMARK SMILES IDX 18 33 19 34
REMARK H PARENT 19 35
ROOT
ATOM      1  C   UNL     1       6.639   5.145  -6.165  1.00  0.00     0.233 C 
ENDROOT
BRANCH   1   2
ATOM      2  C   UNL     1       7.851   5.681  -6.916  1.00  0.00     0.083 C 
BRANCH   2   3
ATOM      3  C   UNL     1       8.922   4.613  -7.120  1.00  0.00     0.233 C 
BRANCH   3   4
ATOM      4  O   UNL     1      10.161   5.284  -7.351  1.00  0.00    -0.493 OA
BRANCH   4   5
ATOM      5  C   UNL     1      10.272   6.062  -8.477  1.00  0.00     0.126 A 
ATOM      6  C   UNL     1      10.820   5.408  -9.605  1.00  0.00     0.040 A 
ATOM      7  C   UNL     1      10.929   6.197 -10.759  1.00  0.00     0.174 A 
ATOM      8  C   UNL     1       9.886   7.407  -8.541  1.00  0.00     0.048 A 
ATOM      9  O   UNL     1      11.403   5.780 -11.963  1.00  0.00    -0.355 OA
ATOM     10  C   UNL     1      10.566   7.528 -10.855  1.00  0.00     0.050 A 
ATOM     11  C   UNL     1      10.022   8.153  -9.722  1.00  0.00     0.018 A 
ATOM     12  N   UNL     1      11.358   6.819 -12.871  1.00  0.00    -0.079 NA
ATOM     13  C   UNL     1      10.869   7.879 -12.206  1.00  0.00     0.121 A 
BRANCH   6  14
ATOM     14  C   UNL     1      11.236   3.960  -9.586  1.00  0.00     0.043 C 
BRANCH  14  15
ATOM     15  C   UNL     1      10.560   3.115 -10.670  1.00  0.00     0.002 C 
ATOM     16  C   UNL     1       9.073   2.896 -10.431  1.00  0.00     0.004 C 
ENDBRANCH  14  15
ENDBRANCH   6  14
BRANCH  13  17
ATOM     17  C   UNL     1      10.702   9.170 -12.871  1.00  0.00     0.004 A 
ATOM     18  C   UNL     1       9.426   9.741 -12.987  1.00  0.00     0.010 A 
ATOM     19  C   UNL     1      11.801   9.852 -13.411  1.00  0.00     0.010 A 
ATOM     20  C   UNL     1       9.256  10.977 -13.615  1.00  0.00     0.001 A 
ATOM     21  C   UNL     1      11.629  11.087 -14.040  1.00  0.00     0.001 A 
ATOM     22  C   UNL     1      10.358  11.650 -14.139  1.00  0.00     0.000 A 
ENDBRANCH  13  17
ENDBRANCH   4   5
ENDBRANCH   3   4
ENDBRANCH   2   3
ENDBRANCH   1   2
BRANCH   1  23
ATOM     23  O   UNL     1       5.743   6.224  -5.906  1.00  0.00    -0.493 OA
BRANCH  23  24
ATOM     24  C   UNL     1       4.957   6.132  -4.792  1.00  0.00     0.119 A 
ATOM     25  C   UNL     1       3.803   6.915  -4.827  1.00  0.00     0.050 A 
ATOM     26  C   UNL     1       5.210   5.346  -3.669  1.00  0.00     0.050 A 
ATOM     27  C   UNL     1       2.913   6.914  -3.751  1.00  0.00     0.050 A 
ATOM     28  C   UNL     1       4.315   5.344  -2.587  1.00  0.00     0.050 A 
ATOM     29  C   UNL     1       3.163   6.129  -2.624  1.00  0.00     0.120 A 
BRANCH  29  30
ATOM     30  O   UNL     1       2.216   6.220  -1.645  1.00  0.00    -0.482 OA
BRANCH  30  31
ATOM     31  C   UNL     1       2.662   6.584  -0.344  1.00  0.00     0.351 C 
BRANCH  31  32
ATOM     32  C   UNL     1       2.879   8.084  -0.262  1.00  0.00     0.341 C 
ATOM     33  O   UNL     1       2.041   8.964  -0.154  1.00  0.00    -0.248 OA
BRANCH  32  34
ATOM     34  O   UNL     1       4.189   8.409  -0.327  1.00  0.00    -0.479 OA
ATOM     35  H   UNL     1       4.246   9.237   0.196  1.00  0.00     0.296 HD
ENDBRANCH  32  34
ENDBRANCH  31  32
ENDBRANCH  30  31
ENDBRANCH  29  30
ENDBRANCH  23  24
ENDBRANCH   1  23
TORSDOF 13
ENDMDL
MODEL 3
REMARK VINA RESULT:    -8.552      2.576      3.617
REMARK INTER + INTRA:         -16.041
REMARK INTER:                 -14.805
REMARK INTRA:                  -1.236
REMARK UNBOUND:                -1.240
REMARK SMILES CCCc1c(OCCCOc2ccc(OCC(=O)O)cc2)ccc2c(-c3ccccc3)noc12
REMARK SMILES IDX 9 1 8 2 7 3 6 4 5 5 4 6 34 7 22 8 33 9 24 10 23 11 32 12
REMARK SMILES IDX 25 13 3 14 2 15 1 16 26 17 27 18 31 19 28 20 30 21 29 22
REMARK SMILES IDX 10 23 11 24 12 25 21 26 13 27 20 28 14 29 15 30 16 31 17 32
REMARK SMILES IDX 18 33 19 34
REMARK H PARENT 19 35
ROOT
ATOM      1  C   UNL     1       8.925   4.406  -6.926  1.00  0.00     0.233 C 
ENDROOT
BRANCH   1   2
ATOM      2  C   UNL     1       9.208   4.010  -8.369  1.00  0.00     0.083 C 
BRANCH   2   3
ATOM      3  C   UNL     1      10.496   4.639  -8.897  1.00  0.00     0.233 C 
BRANCH   3   4
ATOM      4  O   UNL     1      10.141   5.509  -9.972  1.00  0.00    -0.493 OA
BRANCH   4   5
ATOM      5  C   UNL     1      10.201   6.863  -9.752  1.00  0.00     0.126 A 
ATOM      6  C   UNL     1      10.440   7.647 -10.904  1.00  0.00     0.040 A 
ATOM      7  C   UNL     1      10.496   9.030 -10.686  1.00  0.00     0.174 A 
ATOM      8  C   UNL     1      10.046   7.460  -8.494  1.00  0.00     0.048 A 
ATOM      9  O   UNL     1      10.691   9.977 -11.642  1.00  0.00    -0.355 OA
ATOM     10  C   UNL     1      10.356   9.653  -9.459  1.00  0.00     0.050 A 
ATOM     11  C   UNL     1      10.117   8.852  -8.331  1.00  0.00     0.018 A 
ATOM     12  N   UNL     1      10.680  11.233 -11.068  1.00  0.00    -0.079 NA
ATOM     13  C   UNL     1      10.493  11.044  -9.751  1.00  0.00     0.121 A 
BRANCH   6  14
ATOM     14  C   UNL     1      10.599   7.049 -12.279  1.00  0.00     0.043 C 
BRANCH  14  15
ATOM     15  C   UNL     1      12.003   6.499 -12.548  1.00  0.00     0.002 C 
ATOM     16  C   UNL     1      13.021   7.574 -12.900  1.00  0.00     0.004 C 
ENDBRANCH  14  15
ENDBRANCH   6  14
BRANCH  13  17
ATOM     17  C   UNL     1      10.446  12.177  -8.830  1.00  0.00     0.004 A 
ATOM     18  C   UNL     1      11.134  12.120  -7.609  1.00  0.00     0.010 A 
ATOM     19  C   UNL     1       9.710  13.329  -9.140  1.00  0.00     0.010 A 
ATOM     20  C   UNL     1      11.100  13.200  -6.723  1.00  0.00     0.001 A 
ATOM     21  C   UNL     1       9.675  14.408  -8.252  1.00  0.00     0.001 A 
ATOM     22  C   UNL     1      10.373  14.344  -7.047  1.00  0.00     0.000 A 
ENDBRANCH  13  17
ENDBRANCH   4   5
ENDBRANCH   3   4
ENDBRANCH   2   3
ENDBRANCH   1   2
BRANCH   1  23
ATOM     23  O   UNL     1       8.500   3.249  -6.206  1.00  0.00    -0.493 OA
BRANCH  23  24
ATOM     24  C   UNL     1       9.199   2.923  -5.078  1.00  0.00     0.119 A 
ATOM     25  C   UNL     1      10.342   2.154  -5.303  1.00  0.00     0.050 A 
ATOM     26  C   UNL     1       8.870   3.285  -3.773  1.00  0.00     0.050 A 
ATOM     27  C   UNL     1      11.145   1.751  -4.235  1.00  0.00     0.050 A 
ATOM     28  C   UNL     1       9.679   2.880  -2.699  1.00  0.00     0.050 A 
ATOM     29  C   UNL     1      10.820   2.111  -2.927  1.00  0.00     0.120 A 
BRANCH  29  30
ATOM     30  O   UNL     1      11.686   1.652  -1.977  1.00  0.00    -0.482 OA
BRANCH  30  31
ATOM     31  C   UNL     1      12.885   1.039  -2.435  1.00  0.00     0.351 C 
BRANCH  31  32
ATOM     32  C   UNL     1      14.095   1.753  -1.860  1.00  0.00     0.341 C 
ATOM     33  O   UNL     1      14.928   1.322  -1.081  1.00  0.00    -0.248 OA
BRANCH  32  34
ATOM     34  O   UNL     1      14.192   3.024  -2.312  1.00  0.00    -0.479 OA
ATOM     35  H   UNL     1      14.136   2.925  -3.286  1.00  0.00     0.296 HD
ENDBRANCH  32  34
ENDBRANCH  31  32
ENDBRANCH  30  31
ENDBRANCH  29  30
ENDBRANCH  23  24
ENDBRANCH   1  23
TORSDOF 13
ENDMDL
MODEL 4
REMARK VINA RESULT:    -8.447      5.406      8.243
REMARK INTER + INTRA:         -15.859
REMARK INTER:                 -15.119
REMARK INTRA:                  -0.739
REMARK UNBOUND:                -1.240
REMARK SMILES CCCc1c(OCCCOc2ccc(OCC(=O)O)cc2)ccc2c(-c3ccccc3)noc12
REMARK SMILES IDX 9 1 8 2 7 3 6 4 5 5 4 6 34 7 22 8 33 9 24 10 23 11 32 12
REMARK SMILES IDX 25 13 3 14 2 15 1 16 26 17 27 18 31 19 28 20 30 21 29 22
REMARK SMILES IDX 10 23 11 24 12 25 21 26 13 27 20 28 14 29 15 30 16 31 17 32
REMARK SMILES IDX 18 33 19 34
REMARK H PARENT 19 35
ROOT
ATOM      1  C   UNL     1       9.845  11.384  -5.262  1.00  0.00     0.233 C 
ENDROOT
BRANCH   1   2
ATOM      2  C   UNL     1      10.489  12.141  -6.416  1.00  0.00     0.083 C 
BRANCH   2   3
ATOM      3  C   UNL     1       9.579  12.210  -7.640  1.00  0.00     0.233 C 
BRANCH   3   4
ATOM      4  O   UNL     1      10.366  11.868  -8.782  1.00  0.00    -0.493 OA
BRANCH   4   5
ATOM      5  C   UNL     1      10.376  10.557  -9.190  1.00  0.00     0.126 A 
ATOM      6  C   UNL     1      10.618  10.361 -10.569  1.00  0.00     0.040 A 
ATOM      7  C   UNL     1      10.636   9.024 -10.989  1.00  0.00     0.174 A 
ATOM      8  C   UNL     1      10.163   9.469  -8.334  1.00  0.00     0.048 A 
ATOM      9  O   UNL     1      10.869   8.594 -12.257  1.00  0.00    -0.355 OA
ATOM     10  C   UNL     1      10.422   7.927 -10.175  1.00  0.00     0.050 A 
ATOM     11  C   UNL     1      10.186   8.148  -8.809  1.00  0.00     0.018 A 
ATOM     12  N   UNL     1      10.819   7.215 -12.303  1.00  0.00    -0.079 NA
ATOM     13  C   UNL     1      10.534   6.807 -11.055  1.00  0.00     0.121 A 
BRANCH   6  14
ATOM     14  C   UNL     1      10.866  11.501 -11.524  1.00  0.00     0.043 C 
BRANCH  14  15
ATOM     15  C   UNL     1       9.890  11.534 -12.704  1.00  0.00     0.002 C 
ATOM     16  C   UNL     1      10.567  11.378 -14.058  1.00  0.00     0.004 C 
ENDBRANCH  14  15
ENDBRANCH   6  14
BRANCH  13  17
ATOM     17  C   UNL     1      10.388   5.387 -10.744  1.00  0.00     0.004 A 
ATOM     18  C   UNL     1      10.923   4.420 -11.609  1.00  0.00     0.010 A 
ATOM     19  C   UNL     1       9.708   4.966  -9.593  1.00  0.00     0.010 A 
ATOM     20  C   UNL     1      10.794   3.059 -11.319  1.00  0.00     0.001 A 
ATOM     21  C   UNL     1       9.579   3.605  -9.305  1.00  0.00     0.001 A 
ATOM     22  C   UNL     1      10.125   2.653 -10.165  1.00  0.00     0.000 A 
ENDBRANCH  13  17
ENDBRANCH   4   5
ENDBRANCH   3   4
ENDBRANCH   2   3
ENDBRANCH   1   2
BRANCH   1  23
ATOM     23  O   UNL     1       8.711  10.672  -5.756  1.00  0.00    -0.493 OA
BRANCH  23  24
ATOM     24  C   UNL     1       7.742  10.336  -4.853  1.00  0.00     0.119 A 
ATOM     25  C   UNL     1       6.588   9.787  -5.415  1.00  0.00     0.050 A 
ATOM     26  C   UNL     1       7.815  10.491  -3.470  1.00  0.00     0.050 A 
ATOM     27  C   UNL     1       5.519   9.402  -4.603  1.00  0.00     0.050 A 
ATOM     28  C   UNL     1       6.741  10.102  -2.653  1.00  0.00     0.050 A 
ATOM     29  C   UNL     1       5.589   9.556  -3.218  1.00  0.00     0.120 A 
BRANCH  29  30
ATOM     30  O   UNL     1       4.478   9.141  -2.542  1.00  0.00    -0.482 OA
BRANCH  30  31
ATOM     31  C   UNL     1       4.503   7.828  -1.996  1.00  0.00     0.351 C 
BRANCH  31  32
ATOM     32  C   UNL     1       3.684   7.772  -0.720  1.00  0.00     0.341 C 
ATOM     33  O   UNL     1       3.708   6.924   0.157  1.00  0.00    -0.248 OA
BRANCH  32  34
ATOM     34  O   UNL     1       2.844   8.826  -0.613  1.00  0.00    -0.479 OA
ATOM     35  H   UNL     1       3.436   9.601  -0.713  1.00  0.00     0.296 HD
ENDBRANCH  32  34
ENDBRANCH  31  32
ENDBRANCH  30  31
ENDBRANCH  29  30
ENDBRANCH  23  24
ENDBRANCH   1  23
TORSDOF 13
ENDMDL
MODEL 5
REMARK VINA RESULT:    -7.881      4.468      6.811
REMARK INTER + INTRA:         -14.881
REMARK INTER:                 -13.458
REMARK INTRA:                  -1.423
REMARK UNBOUND:                -1.240
REMARK SMILES CCCc1c(OCCCOc2ccc(OCC(=O)O)cc2)ccc2c(-c3ccccc3)noc12
REMARK SMILES IDX 9 1 8 2 7 3 6 4 5 5 4 6 34 7 22 8 33 9 24 10 23 11 32 12
REMARK SMILES IDX 25 13 3 14 2 15 1 16 26 17 27 18 31 19 28 20 30 21 29 22
REMARK SMILES IDX 10 23 11 24 12 25 21 26 13 27 20 28 14 29 15 30 16 31 17 32
REMARK SMILES IDX 18 33 19 34
REMARK H PARENT 19 35
ROOT
ATOM      1  C   UNL     1       9.052   4.498  -7.163  1.00  0.00     0.233 C 
ENDROOT
BRANCH   1   2
ATOM      2  C   UNL     1       9.364   3.939  -8.545  1.00  0.00     0.083 C 
BRANCH   2   3
ATOM      3  C   UNL     1      10.584   4.609  -9.175  1.00  0.00     0.233 C 
BRANCH   3   4
ATOM      4  O   UNL     1      10.110   5.523 -10.165  1.00  0.00    -0.493 OA
BRANCH   4   5
ATOM      5  C   UNL     1      10.180   6.866  -9.890  1.00  0.00     0.126 A 
ATOM      6  C   UNL     1      10.414   7.695 -11.011  1.00  0.00     0.040 A 
ATOM      7  C   UNL     1      10.480   9.068 -10.736  1.00  0.00     0.174 A 
ATOM      8  C   UNL     1      10.040   7.411  -8.607  1.00  0.00     0.048 A 
ATOM      9  O   UNL     1      10.673  10.052 -11.653  1.00  0.00    -0.355 OA
ATOM     10  C   UNL     1      10.354   9.640  -9.484  1.00  0.00     0.050 A 
ATOM     11  C   UNL     1      10.121   8.795  -8.387  1.00  0.00     0.018 A 
ATOM     12  N   UNL     1      10.674  11.283 -11.028  1.00  0.00    -0.079 NA
ATOM     13  C   UNL     1      10.498  11.041  -9.719  1.00  0.00     0.121 A 
BRANCH   6  14
ATOM     14  C   UNL     1      10.557   7.154 -12.411  1.00  0.00     0.043 C 
BRANCH  14  15
ATOM     15  C   UNL     1      11.941   6.564 -12.700  1.00  0.00     0.002 C 
ATOM     16  C   UNL     1      13.023   7.616 -12.891  1.00  0.00     0.004 C 
ENDBRANCH  14  15
ENDBRANCH   6  14
BRANCH  13  17
ATOM     17  C   UNL     1      10.466  12.135  -8.751  1.00  0.00     0.004 A 
ATOM     18  C   UNL     1      11.188  12.036  -7.552  1.00  0.00     0.010 A 
ATOM     19  C   UNL     1       9.711  13.291  -8.993  1.00  0.00     0.010 A 
ATOM     20  C   UNL     1      11.168  13.078  -6.623  1.00  0.00     0.001 A 
ATOM     21  C   UNL     1       9.691  14.333  -8.062  1.00  0.00     0.001 A 
ATOM     22  C   UNL     1      10.422  14.227  -6.880  1.00  0.00     0.000 A 
ENDBRANCH  13  17
ENDBRANCH   4   5
ENDBRANCH   3   4
ENDBRANCH   2   3
ENDBRANCH   1   2
BRANCH   1  23
ATOM     23  O   UNL     1       7.680   4.243  -6.863  1.00  0.00    -0.493 OA
BRANCH  23  24
ATOM     24  C   UNL     1       6.918   5.306  -6.466  1.00  0.00     0.119 A 
ATOM     25  C   UNL     1       5.806   4.968  -5.694  1.00  0.00     0.050 A 
ATOM     26  C   UNL     1       7.159   6.647  -6.760  1.00  0.00     0.050 A 
ATOM     27  C   UNL     1       4.943   5.960  -5.224  1.00  0.00     0.050 A 
ATOM     28  C   UNL     1       6.291   7.644  -6.286  1.00  0.00     0.050 A 
ATOM     29  C   UNL     1       5.179   7.303  -5.516  1.00  0.00     0.120 A 
BRANCH  29  30
ATOM     30  O   UNL     1       4.260   8.170  -4.998  1.00  0.00    -0.482 OA
BRANCH  30  31
ATOM     31  C   UNL     1       4.533   8.710  -3.710  1.00  0.00     0.351 C 
BRANCH  31  32
ATOM     32  C   UNL     1       5.406   9.945  -3.832  1.00  0.00     0.341 C 
ATOM     33  O   UNL     1       5.607  10.635  -4.818  1.00  0.00    -0.248 OA
BRANCH  32  34
ATOM     34  O   UNL     1       6.005  10.258  -2.661  1.00  0.00    -0.479 OA
ATOM     35  H   UNL     1       5.258  10.523  -2.085  1.00  0.00     0.296 HD
ENDBRANCH  32  34
ENDBRANCH  31  32
ENDBRANCH  30  31
ENDBRANCH  29  30
ENDBRANCH  23  24
ENDBRANCH   1  23
TORSDOF 13
ENDMDL
MODEL 6
REMARK VINA RESULT:    -7.790      3.748      5.950
REMARK INTER + INTRA:         -14.723
REMARK INTER:                 -13.419
REMARK INTRA:                  -1.304
REMARK UNBOUND:                -1.240
REMARK SMILES CCCc1c(OCCCOc2ccc(OCC(=O)O)cc2)ccc2c(-c3ccccc3)noc12
REMARK SMILES IDX 9 1 8 2 7 3 6 4 5 5 4 6 34 7 22 8 33 9 24 10 23 11 32 12
REMARK SMILES IDX 25 13 3 14 2 15 1 16 26 17 27 18 31 19 28 20 30 21 29 22
REMARK SMILES IDX 10 23 11 24 12 25 21 26 13 27 20 28 14 29 15 30 16 31 17 32
REMARK SMILES IDX 18 33 19 34
REMARK H PARENT 19 35
ROOT
ATOM      1  C   UNL     1       7.583   4.559  -7.184  1.00  0.00     0.233 C 
ENDROOT
BRANCH   1   2
ATOM      2  C   UNL     1       8.688   4.281  -6.174  1.00  0.00     0.083 C 
BRANCH   2   3
ATOM      3  C   UNL     1       9.977   5.027  -6.511  1.00  0.00     0.233 C 
BRANCH   3   4
ATOM      4  O   UNL     1      10.404   4.588  -7.801  1.00  0.00    -0.493 OA
BRANCH   4   5
ATOM      5  C   UNL     1      10.504   5.524  -8.800  1.00  0.00     0.126 A 
ATOM      6  C   UNL     1      11.019   5.040 -10.025  1.00  0.00     0.040 A 
ATOM      7  C   UNL     1      11.116   5.991 -11.050  1.00  0.00     0.174 A 
ATOM      8  C   UNL     1      10.135   6.868  -8.655  1.00  0.00     0.048 A 
ATOM      9  O   UNL     1      11.560   5.753 -12.313  1.00  0.00    -0.355 OA
ATOM     10  C   UNL     1      10.770   7.325 -10.940  1.00  0.00     0.050 A 
ATOM     11  C   UNL     1      10.259   7.780  -9.714  1.00  0.00     0.018 A 
ATOM     12  N   UNL     1      11.511   6.916 -13.055  1.00  0.00    -0.079 NA
ATOM     13  C   UNL     1      11.051   7.871 -12.229  1.00  0.00     0.121 A 
BRANCH   6  14
ATOM     14  C   UNL     1      11.415   3.600 -10.232  1.00  0.00     0.043 C 
BRANCH  14  15
ATOM     15  C   UNL     1      10.306   2.743 -10.851  1.00  0.00     0.002 C 
ATOM     16  C   UNL     1       8.903   3.207 -10.485  1.00  0.00     0.004 C 
ENDBRANCH  14  15
ENDBRANCH   6  14
BRANCH  13  17
ATOM     17  C   UNL     1      10.890   9.248 -12.690  1.00  0.00     0.004 A 
ATOM     18  C   UNL     1      11.455   9.652 -13.909  1.00  0.00     0.010 A 
ATOM     19  C   UNL     1      10.183  10.187 -11.926  1.00  0.00     0.010 A 
ATOM     20  C   UNL     1      11.301  10.965 -14.362  1.00  0.00     0.001 A 
ATOM     21  C   UNL     1      10.032  11.500 -12.380  1.00  0.00     0.001 A 
ATOM     22  C   UNL     1      10.587  11.887 -13.598  1.00  0.00     0.000 A 
ENDBRANCH  13  17
ENDBRANCH   4   5
ENDBRANCH   3   4
ENDBRANCH   2   3
ENDBRANCH   1   2
BRANCH   1  23
ATOM     23  O   UNL     1       6.339   4.652  -6.491  1.00  0.00    -0.493 OA
BRANCH  23  24
ATOM     24  C   UNL     1       5.983   5.879  -6.006  1.00  0.00     0.119 A 
ATOM     25  C   UNL     1       5.096   5.846  -4.930  1.00  0.00     0.050 A 
ATOM     26  C   UNL     1       6.422   7.113  -6.486  1.00  0.00     0.050 A 
ATOM     27  C   UNL     1       4.651   7.031  -4.341  1.00  0.00     0.050 A 
ATOM     28  C   UNL     1       5.976   8.305  -5.893  1.00  0.00     0.050 A 
ATOM     29  C   UNL     1       5.087   8.268  -4.818  1.00  0.00     0.120 A 
BRANCH  29  30
ATOM     30  O   UNL     1       4.577   9.347  -4.156  1.00  0.00    -0.482 OA
BRANCH  30  31
ATOM     31  C   UNL     1       5.461  10.432  -3.906  1.00  0.00     0.351 C 
BRANCH  31  32
ATOM     32  C   UNL     1       6.407  10.090  -2.770  1.00  0.00     0.341 C 
ATOM     33  O   UNL     1       6.148   9.550  -1.707  1.00  0.00    -0.248 OA
BRANCH  32  34
ATOM     34  O   UNL     1       7.678  10.462  -3.042  1.00  0.00    -0.479 OA
ATOM     35  H   UNL     1       7.570  11.186  -3.693  1.00  0.00     0.296 HD
ENDBRANCH  32  34
ENDBRANCH  31  32
ENDBRANCH  30  31
ENDBRANCH  29  30
ENDBRANCH  23  24
ENDBRANCH   1  23
TORSDOF 13
ENDMDL
MODEL 7
REMARK VINA RESULT:    -7.579      6.168      7.805
REMARK INTER + INTRA:         -14.357
REMARK INTER:                 -13.448
REMARK INTRA:                  -0.909
REMARK UNBOUND:                -1.240
REMARK SMILES CCCc1c(OCCCOc2ccc(OCC(=O)O)cc2)ccc2c(-c3ccccc3)noc12
REMARK SMILES IDX 9 1 8 2 7 3 6 4 5 5 4 6 34 7 22 8 33 9 24 10 23 11 32 12
REMARK SMILES IDX 25 13 3 14 2 15 1 16 26 17 27 18 31 19 28 20 30 21 29 22
REMARK SMILES IDX 10 23 11 24 12 25 21 26 13 27 20 28 14 29 15 30 16 31 17 32
REMARK SMILES IDX 18 33 19 34
REMARK H PARENT 19 35
ROOT
ATOM      1  C   UNL     1       6.720  10.218  -4.860  1.00  0.00     0.233 C 
ENDROOT
BRANCH   1   2
ATOM      2  C   UNL     1       7.932  10.590  -5.705  1.00  0.00     0.083 C 
BRANCH   2   3
ATOM      3  C   UNL     1       9.131  10.989  -4.847  1.00  0.00     0.233 C 
BRANCH   3   4
ATOM      4  O   UNL     1      10.037  11.710  -5.683  1.00  0.00    -0.493 OA
BRANCH   4   5
ATOM      5  C   UNL     1      10.202  11.281  -6.976  1.00  0.00     0.126 A 
ATOM      6  C   UNL     1      10.042  12.281  -7.963  1.00  0.00     0.040 A 
ATOM      7  C   UNL     1      10.215  11.849  -9.286  1.00  0.00     0.174 A 
ATOM      8  C   UNL     1      10.503   9.960  -7.331  1.00  0.00     0.048 A 
ATOM      9  O   UNL     1      10.131  12.632 -10.394  1.00  0.00    -0.355 OA
ATOM     10  C   UNL     1      10.505  10.554  -9.672  1.00  0.00     0.050 A 
ATOM     11  C   UNL     1      10.661   9.580  -8.673  1.00  0.00     0.018 A 
ATOM     12  N   UNL     1      10.367  11.875 -11.523  1.00  0.00    -0.079 NA
ATOM     13  C   UNL     1      10.577  10.618 -11.097  1.00  0.00     0.121 A 
BRANCH   6  14
ATOM     14  C   UNL     1       9.731  13.717  -7.627  1.00  0.00     0.043 C 
BRANCH  14  15
ATOM     15  C   UNL     1      10.973  14.609  -7.545  1.00  0.00     0.002 C 
ATOM     16  C   UNL     1      11.524  14.757  -6.134  1.00  0.00     0.004 C 
ENDBRANCH  14  15
ENDBRANCH   6  14
BRANCH  13  17
ATOM     17  C   UNL     1      10.843   9.539 -12.046  1.00  0.00     0.004 A 
ATOM     18  C   UNL     1      11.631   9.780 -13.182  1.00  0.00     0.010 A 
ATOM     19  C   UNL     1      10.314   8.257 -11.848  1.00  0.00     0.010 A 
ATOM     20  C   UNL     1      11.896   8.754 -14.092  1.00  0.00     0.001 A 
ATOM     21  C   UNL     1      10.579   7.232 -12.759  1.00  0.00     0.001 A 
ATOM     22  C   UNL     1      11.372   7.480 -13.878  1.00  0.00     0.000 A 
ENDBRANCH  13  17
ENDBRANCH   4   5
ENDBRANCH   3   4
ENDBRANCH   2   3
ENDBRANCH   1   2
BRANCH   1  23
ATOM     23  O   UNL     1       5.800   9.490  -5.673  1.00  0.00    -0.493 OA
BRANCH  23  24
ATOM     24  C   UNL     1       5.028   8.547  -5.053  1.00  0.00     0.119 A 
ATOM     25  C   UNL     1       4.530   8.929  -3.807  1.00  0.00     0.050 A 
ATOM     26  C   UNL     1       4.712   7.285  -5.553  1.00  0.00     0.050 A 
ATOM     27  C   UNL     1       3.729   8.057  -3.067  1.00  0.00     0.050 A 
ATOM     28  C   UNL     1       3.905   6.409  -4.810  1.00  0.00     0.050 A 
ATOM     29  C   UNL     1       3.410   6.793  -3.563  1.00  0.00     0.120 A 
BRANCH  29  30
ATOM     30  O   UNL     1       2.620   6.040  -2.742  1.00  0.00    -0.482 OA
BRANCH  30  31
ATOM     31  C   UNL     1       3.058   4.718  -2.453  1.00  0.00     0.351 C 
BRANCH  31  32
ATOM     32  C   UNL     1       3.952   4.717  -1.227  1.00  0.00     0.341 C 
ATOM     33  O   UNL     1       4.308   5.667  -0.549  1.00  0.00    -0.248 OA
BRANCH  32  34
ATOM     34  O   UNL     1       4.370   3.471  -0.908  1.00  0.00    -0.479 OA
ATOM     35  H   UNL     1       3.713   3.172  -0.245  1.00  0.00     0.296 HD
ENDBRANCH  32  34
ENDBRANCH  31  32
ENDBRANCH  30  31
ENDBRANCH  29  30
ENDBRANCH  23  24
ENDBRANCH   1  23
TORSDOF 13
ENDMDL
MODEL 8
REMARK VINA RESULT:    -7.572      5.639     11.029
REMARK INTER + INTRA:         -14.344
REMARK INTER:                 -13.194
REMARK INTRA:                  -1.151
REMARK UNBOUND:                -1.240
REMARK SMILES CCCc1c(OCCCOc2ccc(OCC(=O)O)cc2)ccc2c(-c3ccccc3)noc12
REMARK SMILES IDX 9 1 8 2 7 3 6 4 5 5 4 6 34 7 22 8 33 9 24 10 23 11 32 12
REMARK SMILES IDX 25 13 3 14 2 15 1 16 26 17 27 18 31 19 28 20 30 21 29 22
REMARK SMILES IDX 10 23 11 24 12 25 21 26 13 27 20 28 14 29 15 30 16 31 17 32
REMARK SMILES IDX 18 33 19 34
REMARK H PARENT 19 35
ROOT
ATOM      1  C   UNL     1      10.434  11.200  -6.968  1.00  0.00     0.233 C 
ENDROOT
BRANCH   1   2
ATOM      2  C   UNL     1       8.974  11.493  -6.646  1.00  0.00     0.083 C 
BRANCH   2   3
ATOM      3  C   UNL     1       8.427  10.568  -5.562  1.00  0.00     0.233 C 
BRANCH   3   4
ATOM      4  O   UNL     1       7.169  10.067  -6.018  1.00  0.00    -0.493 OA
BRANCH   4   5
ATOM      5  C   UNL     1       6.368   9.416  -5.113  1.00  0.00     0.126 A 
ATOM      6  C   UNL     1       5.920   8.138  -5.520  1.00  0.00     0.040 A 
ATOM      7  C   UNL     1       5.107   7.467  -4.597  1.00  0.00     0.174 A 
ATOM      8  C   UNL     1       5.997   9.947  -3.871  1.00  0.00     0.048 A 
ATOM      9  O   UNL     1       4.580   6.224  -4.760  1.00  0.00    -0.355 OA
ATOM     10  C   UNL     1       4.715   7.963  -3.368  1.00  0.00     0.050 A 
ATOM     11  C   UNL     1       5.174   9.233  -2.986  1.00  0.00     0.018 A 
ATOM     12  N   UNL     1       3.839   5.878  -3.648  1.00  0.00    -0.079 NA
ATOM     13  C   UNL     1       3.903   6.928  -2.811  1.00  0.00     0.121 A 
BRANCH   6  14
ATOM     14  C   UNL     1       6.305   7.521  -6.841  1.00  0.00     0.043 C 
BRANCH  14  15
ATOM     15  C   UNL     1       7.522   6.595  -6.752  1.00  0.00     0.002 C 
ATOM     16  C   UNL     1       7.168   5.158  -6.396  1.00  0.00     0.004 C 
ENDBRANCH  14  15
ENDBRANCH   6  14
BRANCH  13  17
ATOM     17  C   UNL     1       3.207   6.907  -1.527  1.00  0.00     0.004 A 
ATOM     18  C   UNL     1       2.905   5.683  -0.910  1.00  0.00     0.010 A 
ATOM     19  C   UNL     1       2.820   8.098  -0.896  1.00  0.00     0.010 A 
ATOM     20  C   UNL     1       2.244   5.653   0.320  1.00  0.00     0.001 A 
ATOM     21  C   UNL     1       2.159   8.065   0.334  1.00  0.00     0.001 A 
ATOM     22  C   UNL     1       1.875   6.844   0.943  1.00  0.00     0.000 A 
ENDBRANCH  13  17
ENDBRANCH   4   5
ENDBRANCH   3   4
ENDBRANCH   2   3
ENDBRANCH   1   2
BRANCH   1  23
ATOM     23  O   UNL     1      10.532   9.876  -7.492  1.00  0.00    -0.493 OA
BRANCH  23  24
ATOM     24  C   UNL     1      10.493   9.735  -8.850  1.00  0.00     0.119 A 
ATOM     25  C   UNL     1      10.175   8.451  -9.295  1.00  0.00     0.050 A 
ATOM     26  C   UNL     1      10.735  10.738  -9.789  1.00  0.00     0.050 A 
ATOM     27  C   UNL     1      10.104   8.172 -10.660  1.00  0.00     0.050 A 
ATOM     28  C   UNL     1      10.662  10.457 -11.162  1.00  0.00     0.050 A 
ATOM     29  C   UNL     1      10.346   9.171 -11.603  1.00  0.00     0.120 A 
BRANCH  29  30
ATOM     30  O   UNL     1      10.245   8.766 -12.903  1.00  0.00    -0.482 OA
BRANCH  30  31
ATOM     31  C   UNL     1      10.953   7.590 -13.273  1.00  0.00     0.351 C 
BRANCH  31  32
ATOM     32  C   UNL     1      12.430   7.746 -12.963  1.00  0.00     0.341 C 
ATOM     33  O   UNL     1      13.124   7.065 -12.225  1.00  0.00    -0.248 OA
BRANCH  32  34
ATOM     34  O   UNL     1      12.977   8.792 -13.621  1.00  0.00    -0.479 OA
ATOM     35  H   UNL     1      13.045   9.486 -12.932  1.00  0.00     0.296 HD
ENDBRANCH  32  34
ENDBRANCH  31  32
ENDBRANCH  30  31
ENDBRANCH  29  30
ENDBRANCH  23  24
ENDBRANCH   1  23
TORSDOF 13
ENDMDL
MODEL 9
REMARK VINA RESULT:    -7.552      3.373      6.488
REMARK INTER + INTRA:         -14.310
REMARK INTER:                 -12.985
REMARK INTRA:                  -1.325
REMARK UNBOUND:                -1.240
REMARK SMILES CCCc1c(OCCCOc2ccc(OCC(=O)O)cc2)ccc2c(-c3ccccc3)noc12
REMARK SMILES IDX 9 1 8 2 7 3 6 4 5 5 4 6 34 7 22 8 33 9 24 10 23 11 32 12
REMARK SMILES IDX 25 13 3 14 2 15 1 16 26 17 27 18 31 19 28 20 30 21 29 22
REMARK SMILES IDX 10 23 11 24 12 25 21 26 13 27 20 28 14 29 15 30 16 31 17 32
REMARK SMILES IDX 18 33 19 34
REMARK H PARENT 19 35
ROOT
ATOM      1  C   UNL     1      11.484   5.596 -11.123  1.00  0.00     0.233 C 
ENDROOT
BRANCH   1   2
ATOM      2  C   UNL     1      11.123   6.124 -12.506  1.00  0.00     0.083 C 
BRANCH   2   3
ATOM      3  C   UNL     1      11.362   7.627 -12.629  1.00  0.00     0.233 C 
BRANCH   3   4
ATOM      4  O   UNL     1      10.166   8.288 -12.213  1.00  0.00    -0.493 OA
BRANCH   4   5
ATOM      5  C   UNL     1      10.238   9.125 -11.127  1.00  0.00     0.126 A 
ATOM      6  C   UNL     1      10.086  10.500 -11.421  1.00  0.00     0.040 A 
ATOM      7  C   UNL     1      10.152  11.359 -10.314  1.00  0.00     0.174 A 
ATOM      8  C   UNL     1      10.446   8.688  -9.813  1.00  0.00     0.048 A 
ATOM      9  O   UNL     1      10.013  12.711 -10.349  1.00  0.00    -0.355 OA
ATOM     10  C   UNL     1      10.364  10.963  -9.006  1.00  0.00     0.050 A 
ATOM     11  C   UNL     1      10.509   9.592  -8.741  1.00  0.00     0.018 A 
ATOM     12  N   UNL     1      10.126  13.228  -9.074  1.00  0.00    -0.079 NA
ATOM     13  C   UNL     1      10.353  12.182  -8.262  1.00  0.00     0.121 A 
BRANCH   6  14
ATOM     14  C   UNL     1       9.847  11.016 -12.817  1.00  0.00     0.043 C 
BRANCH  14  15
ATOM     15  C   UNL     1      11.134  11.228 -13.620  1.00  0.00     0.002 C 
ATOM     16  C   UNL     1      11.250  10.318 -14.834  1.00  0.00     0.004 C 
ENDBRANCH  14  15
ENDBRANCH   6  14
BRANCH  13  17
ATOM     17  C   UNL     1      10.542  12.375  -6.826  1.00  0.00     0.004 A 
ATOM     18  C   UNL     1      11.254  13.487  -6.353  1.00  0.00     0.010 A 
ATOM     19  C   UNL     1      10.029  11.454  -5.901  1.00  0.00     0.010 A 
ATOM     20  C   UNL     1      11.435  13.684  -4.982  1.00  0.00     0.001 A 
ATOM     21  C   UNL     1      10.213  11.652  -4.530  1.00  0.00     0.001 A 
ATOM     22  C   UNL     1      10.911  12.767  -4.072  1.00  0.00     0.000 A 
ENDBRANCH  13  17
ENDBRANCH   4   5
ENDBRANCH   3   4
ENDBRANCH   2   3
ENDBRANCH   1   2
BRANCH   1  23
ATOM     23  O   UNL     1      10.470   4.687 -10.698  1.00  0.00    -0.493 OA
BRANCH  23  24
ATOM     24  C   UNL     1      10.129   4.704  -9.375  1.00  0.00     0.119 A 
ATOM     25  C   UNL     1       9.663   3.486  -8.878  1.00  0.00     0.050 A 
ATOM     26  C   UNL     1      10.209   5.801  -8.518  1.00  0.00     0.050 A 
ATOM     27  C   UNL     1       9.280   3.367  -7.541  1.00  0.00     0.050 A 
ATOM     28  C   UNL     1       9.824   5.681  -7.174  1.00  0.00     0.050 A 
ATOM     29  C   UNL     1       9.357   4.463  -6.680  1.00  0.00     0.120 A 
BRANCH  29  30
ATOM     30  O   UNL     1       8.952   4.212  -5.401  1.00  0.00    -0.482 OA
BRANCH  30  31
ATOM     31  C   UNL     1       9.266   2.935  -4.859  1.00  0.00     0.351 C 
BRANCH  31  32
ATOM     32  C   UNL     1      10.478   3.033  -3.950  1.00  0.00     0.341 C 
ATOM     33  O   UNL     1      11.442   2.288  -3.894  1.00  0.00    -0.248 OA
BRANCH  32  34
ATOM     34  O   UNL     1      10.407   4.103  -3.127  1.00  0.00    -0.479 OA
ATOM     35  H   UNL     1       9.777   3.817  -2.433  1.00  0.00     0.296 HD
ENDBRANCH  32  34
ENDBRANCH  31  32
ENDBRANCH  30  31
ENDBRANCH  29  30
ENDBRANCH  23  24
ENDBRANCH   1  23
TORSDOF 13
ENDMDL
