REMARK VINA RESULT:    -6.458      4.141      9.396
REMARK INTER + INTRA:         -16.356
REMARK INTER:                 -15.035
REMARK INTRA:                  -1.321
REMARK UNBOUND:                -4.046
REMARK SMILES N=C(N)c1ccc(CNC(=O)CN2C(=O)[C@H](NS(=O)(=O)Cc3ccccc3)CSc3ccc(-c4cccc(N)c4)cc32)cc1
REMARK SMILES IDX 13 1 12 2 10 3 9 4 11 5 8 7 7 8 4 9 5 10 44 11 6 12 43 13
REMARK SMILES IDX 2 14 1 15 3 16 14 20 15 21 16 22 17 24 18 26 19 27 20 28
REMARK SMILES IDX 21 29 22 30 23 31 27 32 24 33 26 34 25 35 42 36 41 37 30 38
REMARK SMILES IDX 33 39 31 40 32 41 29 42 28 43 34 45 35 46 40 47 36 48 38 49
REMARK SMILES IDX 37 50 39 51
REMARK H PARENT 9 6 1 17 3 18 3 19 17 25 39 52 39 53
REMARK Flexibility Score:  216.900
ROOT
ATOM      1  N   UNL     1     128.257 -19.452 163.628  1.00  0.00    -0.300 N 
ENDROOT
BRANCH   1   2
ATOM      2  C   UNL     1     127.164 -18.808 164.378  1.00  0.00     0.225 C 
BRANCH   2   3
ATOM      3  C   UNL     1     126.282 -17.920 163.492  1.00  0.00     0.240 C 
ATOM      4  N   UNL     1     126.114 -16.643 163.950  1.00  0.00    -0.350 N 
ATOM      5  O   UNL     1     125.800 -18.340 162.442  1.00  0.00    -0.273 OA
ATOM      6  H   UNL     1     126.586 -16.357 164.799  1.00  0.00     0.163 HD
BRANCH   4   7
ATOM      7  C   UNL     1     125.282 -15.667 163.296  1.00  0.00     0.151 C 
BRANCH   7   8
ATOM      8  C   UNL     1     125.196 -14.408 164.117  1.00  0.00    -0.029 A 
ATOM      9  C   UNL     1     125.053 -12.067 165.667  1.00  0.00     0.016 A 
ATOM     10  C   UNL     1     124.300 -13.192 166.019  1.00  0.00     0.012 A 
ATOM     11  C   UNL     1     125.880 -12.122 164.540  1.00  0.00     0.012 A 
ATOM     12  C   UNL     1     124.374 -14.356 165.247  1.00  0.00     0.006 A 
ATOM     13  C   UNL     1     125.958 -13.286 163.774  1.00  0.00     0.006 A 
BRANCH   9  14
ATOM     14  C   UNL     1     124.996 -10.807 166.472  1.00  0.00     0.122 C 
ATOM     15  N   UNL     1     126.093 -10.174 166.747  1.00  0.00    -0.284 NA
ATOM     16  N   UNL     1     123.810 -10.316 166.936  1.00  0.00    -0.384 N 
ATOM     17  H   UNL     1     125.880  -9.346 167.301  1.00  0.00     0.189 HD
ATOM     18  H   UNL     1     123.780  -9.488 167.516  1.00  0.00     0.158 HD
ATOM     19  H   UNL     1     122.943 -10.837 166.863  1.00  0.00     0.158 HD
ENDBRANCH   9  14
ENDBRANCH   7   8
ENDBRANCH   4   7
ENDBRANCH   2   3
ENDBRANCH   1   2
BRANCH   1  20
ATOM     20  C   UNL     1     129.264 -18.625 163.150  1.00  0.00     0.246 C 
ATOM     21  O   UNL     1     129.113 -17.929 162.141  1.00  0.00    -0.273 OA
BRANCH  20  22
ATOM     22  C   UNL     1     130.567 -18.537 163.936  1.00  0.00     0.169 CG0
ATOM     23  G   UNL     1     131.335 -19.814 163.661  1.00  0.00     0.000 G0
BRANCH  22  24
ATOM     24  N   UNL     1     131.368 -17.384 163.412  1.00  0.00    -0.202 NA
ATOM     25  H   UNL     1     130.964 -16.988 162.550  1.00  0.00     0.141 HD
BRANCH  24  26
ATOM     26  S   UNL     1     131.655 -16.106 164.482  1.00  0.00     0.216 S 
ATOM     27  O   UNL     1     130.685 -15.071 164.179  1.00  0.00    -0.212 OA
ATOM     28  O   UNL     1     133.079 -15.861 164.388  1.00  0.00    -0.212 OA
BRANCH  26  29
ATOM     29  C   UNL     1     131.283 -16.872 166.070  1.00  0.00     0.189 C 
BRANCH  29  30
ATOM     30  C   UNL     1     132.508 -16.831 166.938  1.00  0.00    -0.032 A 
ATOM     31  C   UNL     1     133.350 -17.946 167.026  1.00  0.00     0.005 A 
ATOM     32  C   UNL     1     132.834 -15.677 167.670  1.00  0.00     0.005 A 
ATOM     33  C   UNL     1     134.488 -17.910 167.835  1.00  0.00     0.000 A 
ATOM     34  C   UNL     1     133.975 -15.642 168.473  1.00  0.00     0.000 A 
ATOM     35  C   UNL     1     134.799 -16.760 168.556  1.00  0.00     0.000 A 
ENDBRANCH  29  30
ENDBRANCH  26  29
ENDBRANCH  24  26
ENDBRANCH  22  24
ENDBRANCH  20  22
ENDBRANCH   1  20
BRANCH   1  36
ATOM     36  C   UNL     1     128.235 -20.875 163.476  1.00  0.00     0.058 A 
ATOM     37  C   UNL     1     127.130 -21.451 162.806  1.00  0.00     0.036 A 
ATOM     38  C   UNL     1     129.261 -21.736 163.924  1.00  0.00     0.031 A 
ATOM     39  C   UNL     1     127.012 -22.829 162.563  1.00  0.00    -0.016 A 
ATOM     40  C   UNL     1     129.134 -23.119 163.694  1.00  0.00     0.018 A 
ATOM     41  C   UNL     1     128.029 -23.652 163.019  1.00  0.00     0.010 A 
BRANCH  38  42
ATOM     42  S   UNL     1     130.869 -21.288 164.585  1.00  0.00    -0.122 SA
BRANCH  42  43
ATOM     43  C   UNL     1     131.363 -19.805 163.641  1.00  0.00     0.105 CG0
ATOM     44  G   UNL     1     130.597 -18.535 163.950  1.00  0.00     0.000 G0
ENDBRANCH  42  43
ENDBRANCH  38  42
BRANCH  39  45
ATOM     45  C   UNL     1     125.879 -23.361 161.794  1.00  0.00    -0.016 A 
ATOM     46  C   UNL     1     124.678 -23.696 162.441  1.00  0.00     0.009 A 
ATOM     47  C   UNL     1     125.967 -23.554 160.407  1.00  0.00     0.034 A 
ATOM     48  C   UNL     1     123.597 -24.219 161.729  1.00  0.00     0.003 A 
ATOM     49  C   UNL     1     124.892 -24.093 159.685  1.00  0.00     0.032 A 
ATOM     50  C   UNL     1     123.706 -24.405 160.352  1.00  0.00     0.025 A 
BRANCH  49  51
ATOM     51  N   UNL     1     124.978 -24.213 158.302  1.00  0.00    -0.399 N 
ATOM     52  H   UNL     1     125.608 -23.629 157.769  1.00  0.00     0.156 HD
ATOM     53  H   UNL     1     124.229 -24.667 157.796  1.00  0.00     0.156 HD
ENDBRANCH  49  51
ENDBRANCH  39  45
ENDBRANCH   1  36
TORSDOF 11
