REMARK VINA RESULT:    -6.232      3.659      8.490
REMARK INTER + INTRA:         -12.629
REMARK INTER:                 -11.690
REMARK INTRA:                  -0.939
REMARK UNBOUND:                -1.115
REMARK SMILES N=C(N)[C@@H]1CCC[C@H](NC(=O)CN2CCCC[C@H](NS(=O)(=O)Cc3ccccc3)C2=O)[C@@H]1O
REMARK SMILES IDX 30 1 31 2 13 3 12 4 10 5 9 6 11 7 8 9 4 10 5 11 32 12 6 13
REMARK SMILES IDX 7 14 2 15 1 16 3 17 33 21 14 23 18 25 17 26 16 27 15 28
REMARK SMILES IDX 19 30 20 32 21 33 22 34 23 35 24 36 25 37 29 38 26 39 28 40
REMARK SMILES IDX 27 41
REMARK H PARENT 9 8 1 18 3 19 3 20 33 22 19 31
REMARK Flexibility Score:  147.900
ROOT
ATOM      1  C   UNL     1     132.218 -17.475 164.116  1.00  0.00     0.241 C 
ATOM      2  O   UNL     1     132.893 -17.442 163.087  1.00  0.00    -0.273 OA
ENDROOT
BRANCH   1   3
ATOM      3  N   UNL     1     130.834 -17.573 164.096  1.00  0.00    -0.332 N 
BRANCH   3   4
ATOM      4  C   UNL     1     130.080 -16.869 163.055  1.00  0.00     0.219 C 
BRANCH   4   5
ATOM      5  C   UNL     1     129.485 -15.531 163.514  1.00  0.00     0.239 C 
ATOM      6  N   UNL     1     128.112 -15.415 163.432  1.00  0.00    -0.349 N 
ATOM      7  O   UNL     1     130.209 -14.588 163.829  1.00  0.00    -0.273 OA
ATOM      8  H   UNL     1     127.586 -16.163 162.984  1.00  0.00     0.163 HD
BRANCH   6   9
ATOM      9  C   UNL     1     127.427 -14.148 163.704  1.00  0.00     0.111 C 
ATOM     10  C   UNL     1     125.461 -13.025 164.832  1.00  0.00     0.085 C 
ATOM     11  C   UNL     1     125.057 -12.365 163.511  1.00  0.00     0.014 C 
ATOM     12  C   UNL     1     126.180 -14.363 164.599  1.00  0.00     0.147 C 
ATOM     13  C   UNL     1     126.271 -12.168 162.605  1.00  0.00     0.003 C 
ATOM     14  C   UNL     1     127.034 -13.471 162.380  1.00  0.00     0.028 C 
BRANCH  10  15
ATOM     15  C   UNL     1     124.246 -13.167 165.741  1.00  0.00     0.096 C 
ATOM     16  N   UNL     1     123.691 -12.099 166.210  1.00  0.00    -0.288 NA
ATOM     17  N   UNL     1     123.758 -14.401 166.018  1.00  0.00    -0.387 N 
ATOM     18  H   UNL     1     122.891 -12.364 166.789  1.00  0.00     0.189 HD
ATOM     19  H   UNL     1     124.280 -15.210 165.677  1.00  0.00     0.157 HD
ATOM     20  H   UNL     1     122.966 -14.559 166.620  1.00  0.00     0.157 HD
ENDBRANCH  10  15
BRANCH  12  21
ATOM     21  O   UNL     1     125.306 -15.313 163.948  1.00  0.00    -0.390 OA
ATOM     22  H   UNL     1     124.585 -15.458 164.590  1.00  0.00     0.211 HD
ENDBRANCH  12  21
ENDBRANCH   6   9
ENDBRANCH   4   5
ENDBRANCH   3   4
BRANCH   3  23
ATOM     23  C   UNL     1     130.096 -18.406 165.037  1.00  0.00     0.120 CG0
ATOM     24  G   UNL     1     130.247 -17.976 166.504  1.00  0.00     0.000 G0
ENDBRANCH   3  23
ENDBRANCH   1   3
BRANCH   1  25
ATOM     25  C   UNL     1     132.865 -17.392 165.507  1.00  0.00     0.158 C 
BRANCH  25  26
ATOM     26  C   UNL     1     132.213 -16.283 166.330  1.00  0.00     0.030 C 
BRANCH  26  27
ATOM     27  C   UNL     1     130.782 -16.577 166.795  1.00  0.00     0.004 C 
BRANCH  27  28
ATOM     28  C   UNL     1     130.245 -17.986 166.523  1.00  0.00     0.022 CG0
ATOM     29  G   UNL     1     130.106 -18.413 165.054  1.00  0.00     0.000 G0
ENDBRANCH  27  28
ENDBRANCH  26  27
ENDBRANCH  25  26
BRANCH  25  30
ATOM     30  N   UNL     1     134.316 -17.136 165.365  1.00  0.00    -0.202 NA
ATOM     31  H   UNL     1     134.669 -17.295 164.416  1.00  0.00     0.141 HD
BRANCH  30  32
ATOM     32  S   UNL     1     135.318 -17.964 166.446  1.00  0.00     0.216 S 
ATOM     33  O   UNL     1     134.881 -17.586 167.772  1.00  0.00    -0.212 OA
ATOM     34  O   UNL     1     136.690 -17.751 166.021  1.00  0.00    -0.212 OA
BRANCH  32  35
ATOM     35  C   UNL     1     134.905 -19.694 166.162  1.00  0.00     0.189 C 
BRANCH  35  36
ATOM     36  C   UNL     1     134.261 -20.313 167.375  1.00  0.00    -0.032 A 
ATOM     37  C   UNL     1     135.052 -20.791 168.432  1.00  0.00     0.005 A 
ATOM     38  C   UNL     1     132.866 -20.415 167.477  1.00  0.00     0.005 A 
ATOM     39  C   UNL     1     134.459 -21.364 169.559  1.00  0.00     0.000 A 
ATOM     40  C   UNL     1     132.276 -20.986 168.605  1.00  0.00     0.000 A 
ATOM     41  C   UNL     1     133.072 -21.460 169.645  1.00  0.00     0.000 A 
ENDBRANCH  35  36
ENDBRANCH  32  35
ENDBRANCH  30  32
ENDBRANCH  25  30
ENDBRANCH   1  25
TORSDOF 9
