MODEL 1
REMARK VINA RESULT:   -10.407      0.000      0.000
REMARK INTER + INTRA:         -13.850
REMARK INTER:                 -14.057
REMARK INTRA:                   0.207
REMARK UNBOUND:                 0.207
REMARK SMILES Cc1cc(Nc2cc3ncccc3c(N[C@@H]3C[C@H]4CCC[C@@H](C3)N4CCF)n2)n[nH]1
REMARK SMILES IDX 15 1 14 3 6 4 7 5 28 6 8 7 9 8 13 9 10 10 12 11 11 12 5 13
REMARK SMILES IDX 4 15 2 16 3 17 30 18 29 19 1 20 16 22 17 23 23 24 18 25
REMARK SMILES IDX 22 26 19 27 24 28 21 29 20 30 25 31 26 32 27 33
REMARK H PARENT 15 2 5 14 30 21
ROOT
ATOM      1  N   UNL     1      -3.230  25.209 -30.747  1.00  0.00    -0.367 N 
ATOM      2  H   UNL     1      -2.630  25.881 -30.286  1.00  0.00     0.162 HD
ENDROOT
BRANCH   1   3
ATOM      3  C   UNL     1      -4.269  25.755 -31.498  1.00  0.00     0.138 A 
ATOM      4  C   UNL     1      -5.496  27.643 -32.104  1.00  0.00     0.136 A 
ATOM      5  C   UNL     1      -6.299  26.888 -32.938  1.00  0.00     0.076 A 
ATOM      6  N   UNL     1      -4.500  27.079 -31.391  1.00  0.00    -0.213 NA
ATOM      7  C   UNL     1      -6.104  25.527 -33.048  1.00  0.00     0.078 A 
ATOM      8  N   UNL     1      -6.918  24.823 -33.862  1.00  0.00    -0.256 NA
ATOM      9  C   UNL     1      -5.074  24.925 -32.307  1.00  0.00     0.043 A 
ATOM     10  C   UNL     1      -6.741  23.488 -33.954  1.00  0.00     0.112 A 
ATOM     11  C   UNL     1      -4.933  23.522 -32.426  1.00  0.00     0.016 A 
ATOM     12  C   UNL     1      -5.773  22.795 -33.260  1.00  0.00     0.021 A 
BRANCH   4  13
ATOM     13  N   UNL     1      -5.625  29.020 -31.920  1.00  0.00    -0.323 N 
ATOM     14  H   UNL     1      -6.345  29.342 -32.556  1.00  0.00     0.170 HD
BRANCH  13  15
ATOM     15  C   UNL     1      -5.006  29.900 -31.108  1.00  0.00     0.153 A 
ATOM     16  C   UNL     1      -3.681  30.606 -29.459  1.00  0.00     0.034 A 
ATOM     17  C   UNL     1      -4.129  29.463 -30.083  1.00  0.00     0.071 A 
ATOM     18  N   UNL     1      -4.294  31.632 -30.118  1.00  0.00    -0.281 N 
ATOM     19  N   UNL     1      -5.094  31.231 -31.114  1.00  0.00    -0.158 NA
ATOM     20  C   UNL     1      -2.756  30.825 -28.328  1.00  0.00     0.066 C 
ATOM     21  H   UNL     1      -4.212  32.629 -29.943  1.00  0.00     0.190 HD
ENDBRANCH  13  15
ENDBRANCH   4  13
ENDBRANCH   1   3
BRANCH   1  22
ATOM     22  C   UNL     1      -3.396  23.923 -30.071  1.00  0.00     0.083 C 
ATOM     23  C   UNL     1      -3.836  24.135 -28.618  1.00  0.00     0.044 C 
ATOM     24  C   UNL     1      -2.069  23.158 -30.146  1.00  0.00     0.044 C 
ATOM     25  C   UNL     1      -3.647  22.901 -27.719  1.00  0.00     0.059 C 
ATOM     26  C   UNL     1      -1.976  21.966 -29.174  1.00  0.00     0.059 C 
ATOM     27  C   UNL     1      -4.642  21.762 -28.011  1.00  0.00     0.019 C 
ATOM     28  N   UNL     1      -2.241  22.468 -27.817  1.00  0.00    -0.295 NA
ATOM     29  C   UNL     1      -2.876  20.777 -29.561  1.00  0.00     0.019 C 
ATOM     30  C   UNL     1      -4.365  20.987 -29.297  1.00  0.00     0.003 C 
BRANCH  28  31
ATOM     31  C   UNL     1      -1.861  21.543 -26.733  1.00  0.00     0.119 C 
BRANCH  31  32
ATOM     32  C   UNL     1      -1.510  22.233 -25.413  1.00  0.00     0.230 C 
ATOM     33  F   UNL     1      -0.874  21.335 -24.609  1.00  0.00    -0.250 F 
ENDBRANCH  31  32
ENDBRANCH  28  31
ENDBRANCH   1  22
TORSDOF 6
ENDMDL
MODEL 2
REMARK VINA RESULT:    -9.879      1.065      4.948
REMARK INTER + INTRA:         -13.138
REMARK INTER:                 -12.516
REMARK INTRA:                  -0.621
REMARK UNBOUND:                 0.207
REMARK SMILES Cc1cc(Nc2cc3ncccc3c(N[C@@H]3C[C@H]4CCC[C@@H](C3)N4CCF)n2)n[nH]1
REMARK SMILES IDX 15 1 14 3 6 4 7 5 28 6 8 7 9 8 13 9 10 10 12 11 11 12 5 13
REMARK SMILES IDX 4 15 2 16 3 17 30 18 29 19 1 20 16 22 17 23 23 24 18 25
REMARK SMILES IDX 22 26 19 27 24 28 21 29 20 30 25 31 26 32 27 33
REMARK H PARENT 15 2 5 14 30 21
ROOT
ATOM      1  N   UNL     1      -3.308  26.325 -29.477  1.00  0.00    -0.367 N 
ATOM      2  H   UNL     1      -3.003  26.895 -28.698  1.00  0.00     0.162 HD
ENDROOT
BRANCH   1   3
ATOM      3  C   UNL     1      -4.113  26.974 -30.412  1.00  0.00     0.138 A 
ATOM      4  C   UNL     1      -5.434  26.830 -32.328  1.00  0.00     0.136 A 
ATOM      5  C   UNL     1      -5.695  28.187 -32.282  1.00  0.00     0.076 A 
ATOM      6  N   UNL     1      -4.648  26.238 -31.406  1.00  0.00    -0.213 NA
ATOM      7  C   UNL     1      -5.140  28.971 -31.292  1.00  0.00     0.078 A 
ATOM      8  N   UNL     1      -5.409  30.294 -31.292  1.00  0.00    -0.256 NA
ATOM      9  C   UNL     1      -4.315  28.368 -30.329  1.00  0.00     0.043 A 
ATOM     10  C   UNL     1      -4.849  31.065 -30.335  1.00  0.00     0.112 A 
ATOM     11  C   UNL     1      -3.742  29.216 -29.353  1.00  0.00     0.016 A 
ATOM     12  C   UNL     1      -4.013  30.579 -29.353  1.00  0.00     0.021 A 
BRANCH   4  13
ATOM     13  N   UNL     1      -5.939  25.962 -33.295  1.00  0.00    -0.323 N 
ATOM     14  H   UNL     1      -6.175  26.521 -34.107  1.00  0.00     0.170 HD
BRANCH  13  15
ATOM     15  C   UNL     1      -6.140  24.630 -33.318  1.00  0.00     0.153 A 
ATOM     16  C   UNL     1      -5.768  22.480 -32.858  1.00  0.00     0.034 A 
ATOM     17  C   UNL     1      -5.277  23.744 -32.623  1.00  0.00     0.071 A 
ATOM     18  N   UNL     1      -6.860  22.666 -33.656  1.00  0.00    -0.281 N 
ATOM     19  N   UNL     1      -7.103  23.951 -33.944  1.00  0.00    -0.158 NA
ATOM     20  C   UNL     1      -5.323  21.141 -32.419  1.00  0.00     0.066 C 
ATOM     21  H   UNL     1      -7.485  21.965 -34.040  1.00  0.00     0.190 HD
ENDBRANCH  13  15
ENDBRANCH   4  13
ENDBRANCH   1   3
BRANCH   1  22
ATOM     22  C   UNL     1      -3.486  24.899 -29.202  1.00  0.00     0.083 C 
ATOM     23  C   UNL     1      -3.744  24.672 -27.708  1.00  0.00     0.044 C 
ATOM     24  C   UNL     1      -2.233  24.151 -29.673  1.00  0.00     0.044 C 
ATOM     25  C   UNL     1      -3.543  23.216 -27.253  1.00  0.00     0.059 C 
ATOM     26  C   UNL     1      -2.115  22.717 -29.123  1.00  0.00     0.059 C 
ATOM     27  C   UNL     1      -4.642  22.254 -27.743  1.00  0.00     0.019 C 
ATOM     28  N   UNL     1      -2.191  22.788 -27.655  1.00  0.00    -0.295 NA
ATOM     29  C   UNL     1      -3.134  21.734 -29.730  1.00  0.00     0.019 C 
ATOM     30  C   UNL     1      -4.566  21.901 -29.226  1.00  0.00     0.003 C 
BRANCH  28  31
ATOM     31  C   UNL     1      -1.757  21.564 -26.956  1.00  0.00     0.119 C 
BRANCH  31  32
ATOM     32  C   UNL     1      -1.484  21.757 -25.463  1.00  0.00     0.230 C 
ATOM     33  F   UNL     1      -0.712  20.723 -25.025  1.00  0.00    -0.250 F 
ENDBRANCH  31  32
ENDBRANCH  28  31
ENDBRANCH   1  22
TORSDOF 6
ENDMDL
MODEL 3
REMARK VINA RESULT:    -9.470      4.261      8.252
REMARK INTER + INTRA:         -12.585
REMARK INTER:                 -11.810
REMARK INTRA:                  -0.775
REMARK UNBOUND:                 0.207
REMARK SMILES Cc1cc(Nc2cc3ncccc3c(N[C@@H]3C[C@H]4CCC[C@@H](C3)N4CCF)n2)n[nH]1
REMARK SMILES IDX 15 1 14 3 6 4 7 5 28 6 8 7 9 8 13 9 10 10 12 11 11 12 5 13
REMARK SMILES IDX 4 15 2 16 3 17 30 18 29 19 1 20 16 22 17 23 23 24 18 25
REMARK SMILES IDX 22 26 19 27 24 28 21 29 20 30 25 31 26 32 27 33
REMARK H PARENT 15 2 5 14 30 21
ROOT
ATOM      1  N   UNL     1      -1.448  20.709 -25.223  1.00  0.00    -0.367 N 
ATOM      2  H   UNL     1      -2.208  20.114 -24.921  1.00  0.00     0.162 HD
ENDROOT
BRANCH   1   3
ATOM      3  C   UNL     1      -1.723  21.515 -26.327  1.00  0.00     0.138 A 
ATOM      4  C   UNL     1      -2.222  21.657 -28.600  1.00  0.00     0.136 A 
ATOM      5  C   UNL     1      -2.261  23.038 -28.533  1.00  0.00     0.076 A 
ATOM      6  N   UNL     1      -1.950  20.911 -27.511  1.00  0.00    -0.213 NA
ATOM      7  C   UNL     1      -2.007  23.685 -27.342  1.00  0.00     0.078 A 
ATOM      8  N   UNL     1      -2.040  25.034 -27.322  1.00  0.00    -0.256 NA
ATOM      9  C   UNL     1      -1.717  22.921 -26.200  1.00  0.00     0.043 A 
ATOM     10  C   UNL     1      -1.770  25.669 -26.161  1.00  0.00     0.112 A 
ATOM     11  C   UNL     1      -1.430  23.628 -25.009  1.00  0.00     0.016 A 
ATOM     12  C   UNL     1      -1.459  25.017 -24.987  1.00  0.00     0.021 A 
BRANCH   4  13
ATOM     13  N   UNL     1      -2.454  20.918 -29.760  1.00  0.00    -0.323 N 
ATOM     14  H   UNL     1      -1.644  20.327 -29.906  1.00  0.00     0.170 HD
BRANCH  13  15
ATOM     15  C   UNL     1      -3.484  20.868 -30.626  1.00  0.00     0.153 A 
ATOM     16  C   UNL     1      -5.060  21.638 -32.004  1.00  0.00     0.034 A 
ATOM     17  C   UNL     1      -4.045  22.052 -31.171  1.00  0.00     0.071 A 
ATOM     18  N   UNL     1      -5.056  20.276 -31.917  1.00  0.00    -0.281 N 
ATOM     19  N   UNL     1      -4.117  19.791 -31.096  1.00  0.00    -0.158 NA
ATOM     20  C   UNL     1      -6.014  22.380 -32.855  1.00  0.00     0.066 C 
ATOM     21  H   UNL     1      -5.665  19.615 -32.390  1.00  0.00     0.190 HD
ENDBRANCH  13  15
ENDBRANCH   4  13
ENDBRANCH   1   3
BRANCH   1  22
ATOM     22  C   UNL     1      -0.097  20.196 -24.994  1.00  0.00     0.083 C 
ATOM     23  C   UNL     1      -0.144  18.702 -24.655  1.00  0.00     0.044 C 
ATOM     24  C   UNL     1       0.546  21.006 -23.862  1.00  0.00     0.044 C 
ATOM     25  C   UNL     1       1.145  18.166 -24.008  1.00  0.00     0.059 C 
ATOM     26  C   UNL     1       1.808  20.355 -23.263  1.00  0.00     0.059 C 
ATOM     27  C   UNL     1       2.332  18.061 -24.985  1.00  0.00     0.019 C 
ATOM     28  N   UNL     1       1.451  18.995 -22.828  1.00  0.00    -0.295 NA
ATOM     29  C   UNL     1       3.027  20.384 -24.204  1.00  0.00     0.019 C 
ATOM     30  C   UNL     1       2.965  19.396 -25.367  1.00  0.00     0.003 C 
BRANCH  28  31
ATOM     31  C   UNL     1       2.434  18.358 -21.932  1.00  0.00     0.119 C 
BRANCH  31  32
ATOM     32  C   UNL     1       2.047  16.950 -21.477  1.00  0.00     0.230 C 
ATOM     33  F   UNL     1       0.754  16.969 -21.050  1.00  0.00    -0.250 F 
ENDBRANCH  31  32
ENDBRANCH  28  31
ENDBRANCH   1  22
TORSDOF 6
ENDMDL
MODEL 4
REMARK VINA RESULT:    -9.244      1.886      2.886
REMARK INTER + INTRA:         -12.280
REMARK INTER:                 -11.388
REMARK INTRA:                  -0.892
REMARK UNBOUND:                 0.207
REMARK SMILES Cc1cc(Nc2cc3ncccc3c(N[C@@H]3C[C@H]4CCC[C@@H](C3)N4CCF)n2)n[nH]1
REMARK SMILES IDX 15 1 14 3 6 4 7 5 28 6 8 7 9 8 13 9 10 10 12 11 11 12 5 13
REMARK SMILES IDX 4 15 2 16 3 17 30 18 29 19 1 20 16 22 17 23 23 24 18 25
REMARK SMILES IDX 22 26 19 27 24 28 21 29 20 30 25 31 26 32 27 33
REMARK H PARENT 15 2 5 14 30 21
ROOT
ATOM      1  N   UNL     1      -3.748  24.748 -29.695  1.00  0.00    -0.367 N 
ATOM      2  H   UNL     1      -3.615  23.940 -30.289  1.00  0.00     0.162 HD
ENDROOT
BRANCH   1   3
ATOM      3  C   UNL     1      -4.179  25.902 -30.346  1.00  0.00     0.138 A 
ATOM      4  C   UNL     1      -4.202  28.232 -30.441  1.00  0.00     0.136 A 
ATOM      5  C   UNL     1      -4.999  28.206 -31.570  1.00  0.00     0.076 A 
ATOM      6  N   UNL     1      -3.805  27.093 -29.837  1.00  0.00    -0.213 NA
ATOM      7  C   UNL     1      -5.420  27.003 -32.099  1.00  0.00     0.078 A 
ATOM      8  N   UNL     1      -6.209  27.021 -33.193  1.00  0.00    -0.256 NA
ATOM      9  C   UNL     1      -5.020  25.809 -31.477  1.00  0.00     0.043 A 
ATOM     10  C   UNL     1      -6.639  25.845 -33.697  1.00  0.00     0.112 A 
ATOM     11  C   UNL     1      -5.502  24.602 -32.033  1.00  0.00     0.016 A 
ATOM     12  C   UNL     1      -6.319  24.618 -33.157  1.00  0.00     0.021 A 
BRANCH   4  13
ATOM     13  N   UNL     1      -3.738  29.397 -29.831  1.00  0.00    -0.323 N 
ATOM     14  H   UNL     1      -2.829  29.188 -29.436  1.00  0.00     0.170 HD
BRANCH  13  15
ATOM     15  C   UNL     1      -4.256  30.634 -29.701  1.00  0.00     0.153 A 
ATOM     16  C   UNL     1      -5.108  32.415 -28.663  1.00  0.00     0.034 A 
ATOM     17  C   UNL     1      -4.624  31.147 -28.430  1.00  0.00     0.071 A 
ATOM     18  N   UNL     1      -5.011  32.589 -30.013  1.00  0.00    -0.281 N 
ATOM     19  N   UNL     1      -4.499  31.532 -30.657  1.00  0.00    -0.158 NA
ATOM     20  C   UNL     1      -5.644  33.456 -27.762  1.00  0.00     0.066 C 
ATOM     21  H   UNL     1      -5.272  33.402 -30.562  1.00  0.00     0.190 HD
ENDBRANCH  13  15
ENDBRANCH   4  13
ENDBRANCH   1   3
BRANCH   1  22
ATOM     22  C   UNL     1      -2.879  24.835 -28.522  1.00  0.00     0.083 C 
ATOM     23  C   UNL     1      -1.851  23.698 -28.533  1.00  0.00     0.044 C 
ATOM     24  C   UNL     1      -3.753  24.785 -27.262  1.00  0.00     0.044 C 
ATOM     25  C   UNL     1      -1.170  23.456 -27.174  1.00  0.00     0.059 C 
ATOM     26  C   UNL     1      -2.971  24.497 -25.967  1.00  0.00     0.059 C 
ATOM     27  C   UNL     1      -0.170  24.558 -26.776  1.00  0.00     0.019 C 
ATOM     28  N   UNL     1      -2.220  23.246 -26.161  1.00  0.00    -0.295 NA
ATOM     29  C   UNL     1      -2.081  25.666 -25.506  1.00  0.00     0.019 C 
ATOM     30  C   UNL     1      -0.811  25.869 -26.329  1.00  0.00     0.003 C 
BRANCH  28  31
ATOM     31  C   UNL     1      -1.694  22.645 -24.922  1.00  0.00     0.119 C 
BRANCH  31  32
ATOM     32  C   UNL     1      -1.011  21.291 -25.121  1.00  0.00     0.230 C 
ATOM     33  F   UNL     1       0.178  21.300 -24.455  1.00  0.00    -0.250 F 
ENDBRANCH  31  32
ENDBRANCH  28  31
ENDBRANCH   1  22
TORSDOF 6
ENDMDL
MODEL 5
REMARK VINA RESULT:    -9.216      3.387      7.987
REMARK INTER + INTRA:         -12.242
REMARK INTER:                 -11.535
REMARK INTRA:                  -0.706
REMARK UNBOUND:                 0.207
REMARK SMILES Cc1cc(Nc2cc3ncccc3c(N[C@@H]3C[C@H]4CCC[C@@H](C3)N4CCF)n2)n[nH]1
REMARK SMILES IDX 15 1 14 3 6 4 7 5 28 6 8 7 9 8 13 9 10 10 12 11 11 12 5 13
REMARK SMILES IDX 4 15 2 16 3 17 30 18 29 19 1 20 16 22 17 23 23 24 18 25
REMARK SMILES IDX 22 26 19 27 24 28 21 29 20 30 25 31 26 32 27 33
REMARK H PARENT 15 2 5 14 30 21
ROOT
ATOM      1  N   UNL     1      -4.582  29.089 -30.976  1.00  0.00    -0.367 N 
ATOM      2  H   UNL     1      -5.282  29.414 -31.630  1.00  0.00     0.162 HD
ENDROOT
BRANCH   1   3
ATOM      3  C   UNL     1      -4.513  27.706 -30.816  1.00  0.00     0.138 A 
ATOM      4  C   UNL     1      -3.716  25.891 -29.588  1.00  0.00     0.136 A 
ATOM      5  C   UNL     1      -4.330  25.003 -30.450  1.00  0.00     0.076 A 
ATOM      6  N   UNL     1      -3.803  27.224 -29.776  1.00  0.00    -0.213 NA
ATOM      7  C   UNL     1      -5.041  25.465 -31.538  1.00  0.00     0.078 A 
ATOM      8  N   UNL     1      -5.613  24.565 -32.364  1.00  0.00    -0.256 NA
ATOM      9  C   UNL     1      -5.136  26.850 -31.750  1.00  0.00     0.043 A 
ATOM     10  C   UNL     1      -6.290  25.017 -33.441  1.00  0.00     0.112 A 
ATOM     11  C   UNL     1      -5.846  27.278 -32.896  1.00  0.00     0.016 A 
ATOM     12  C   UNL     1      -6.432  26.352 -33.751  1.00  0.00     0.021 A 
BRANCH   4  13
ATOM     13  N   UNL     1      -2.969  25.517 -28.471  1.00  0.00    -0.323 N 
ATOM     14  H   UNL     1      -2.816  26.352 -27.919  1.00  0.00     0.170 HD
BRANCH  13  15
ATOM     15  C   UNL     1      -2.472  24.337 -28.052  1.00  0.00     0.153 A 
ATOM     16  C   UNL     1      -1.875  22.746 -26.607  1.00  0.00     0.034 A 
ATOM     17  C   UNL     1      -2.433  24.003 -26.674  1.00  0.00     0.071 A 
ATOM     18  N   UNL     1      -1.615  22.405 -27.903  1.00  0.00    -0.281 N 
ATOM     19  N   UNL     1      -1.967  23.345 -28.789  1.00  0.00    -0.158 NA
ATOM     20  C   UNL     1      -1.565  21.853 -25.472  1.00  0.00     0.066 C 
ATOM     21  H   UNL     1      -1.200  21.548 -28.257  1.00  0.00     0.190 HD
ENDBRANCH  13  15
ENDBRANCH   4  13
ENDBRANCH   1   3
BRANCH   1  22
ATOM     22  C   UNL     1      -4.276  29.984 -29.860  1.00  0.00     0.083 C 
ATOM     23  C   UNL     1      -5.200  31.207 -29.887  1.00  0.00     0.044 C 
ATOM     24  C   UNL     1      -2.802  30.396 -29.955  1.00  0.00     0.044 C 
ATOM     25  C   UNL     1      -4.708  32.383 -29.026  1.00  0.00     0.059 C 
ATOM     26  C   UNL     1      -2.432  31.609 -29.080  1.00  0.00     0.059 C 
ATOM     27  C   UNL     1      -4.832  32.136 -27.510  1.00  0.00     0.019 C 
ATOM     28  N   UNL     1      -3.333  32.716 -29.438  1.00  0.00    -0.295 NA
ATOM     29  C   UNL     1      -2.423  31.306 -27.570  1.00  0.00     0.019 C 
ATOM     30  C   UNL     1      -3.806  31.162 -26.937  1.00  0.00     0.003 C 
BRANCH  28  31
ATOM     31  C   UNL     1      -2.905  34.040 -28.952  1.00  0.00     0.119 C 
BRANCH  31  32
ATOM     32  C   UNL     1      -3.848  35.183 -29.331  1.00  0.00     0.230 C 
ATOM     33  F   UNL     1      -4.014  35.181 -30.683  1.00  0.00    -0.250 F 
ENDBRANCH  31  32
ENDBRANCH  28  31
ENDBRANCH   1  22
TORSDOF 6
ENDMDL
MODEL 6
REMARK VINA RESULT:    -9.076      2.832      7.440
REMARK INTER + INTRA:         -12.053
REMARK INTER:                 -11.993
REMARK INTRA:                  -0.060
REMARK UNBOUND:                 0.207
REMARK SMILES Cc1cc(Nc2cc3ncccc3c(N[C@@H]3C[C@H]4CCC[C@@H](C3)N4CCF)n2)n[nH]1
REMARK SMILES IDX 15 1 14 3 6 4 7 5 28 6 8 7 9 8 13 9 10 10 12 11 11 12 5 13
REMARK SMILES IDX 4 15 2 16 3 17 30 18 29 19 1 20 16 22 17 23 23 24 18 25
REMARK SMILES IDX 22 26 19 27 24 28 21 29 20 30 25 31 26 32 27 33
REMARK H PARENT 15 2 5 14 30 21
ROOT
ATOM      1  N   UNL     1      -4.741  28.834 -30.689  1.00  0.00    -0.367 N 
ATOM      2  H   UNL     1      -5.689  29.157 -30.834  1.00  0.00     0.162 HD
ENDROOT
BRANCH   1   3
ATOM      3  C   UNL     1      -4.566  27.452 -30.742  1.00  0.00     0.138 A 
ATOM      4  C   UNL     1      -3.583  25.544 -29.833  1.00  0.00     0.136 A 
ATOM      5  C   UNL     1      -4.175  24.747 -30.795  1.00  0.00     0.076 A 
ATOM      6  N   UNL     1      -3.773  26.878 -29.815  1.00  0.00    -0.213 NA
ATOM      7  C   UNL     1      -4.970  25.308 -31.772  1.00  0.00     0.078 A 
ATOM      8  N   UNL     1      -5.518  24.498 -32.701  1.00  0.00    -0.256 NA
ATOM      9  C   UNL     1      -5.173  26.698 -31.769  1.00  0.00     0.043 A 
ATOM     10  C   UNL     1      -6.279  25.049 -33.671  1.00  0.00     0.112 A 
ATOM     11  C   UNL     1      -5.968  27.233 -32.809  1.00  0.00     0.016 A 
ATOM     12  C   UNL     1      -6.530  26.401 -33.770  1.00  0.00     0.021 A 
BRANCH   4  13
ATOM     13  N   UNL     1      -2.756  25.068 -28.815  1.00  0.00    -0.323 N 
ATOM     14  H   UNL     1      -1.985  25.719 -28.726  1.00  0.00     0.170 HD
BRANCH  13  15
ATOM     15  C   UNL     1      -2.819  23.989 -28.010  1.00  0.00     0.153 A 
ATOM     16  C   UNL     1      -2.153  22.531 -26.460  1.00  0.00     0.034 A 
ATOM     17  C   UNL     1      -1.762  23.676 -27.116  1.00  0.00     0.071 A 
ATOM     18  N   UNL     1      -3.378  22.226 -26.978  1.00  0.00    -0.281 N 
ATOM     19  N   UNL     1      -3.799  23.089 -27.911  1.00  0.00    -0.158 NA
ATOM     20  C   UNL     1      -1.502  21.710 -25.418  1.00  0.00     0.066 C 
ATOM     21  H   UNL     1      -3.983  21.445 -26.743  1.00  0.00     0.190 HD
ENDBRANCH  13  15
ENDBRANCH   4  13
ENDBRANCH   1   3
BRANCH   1  22
ATOM     22  C   UNL     1      -3.906  29.657 -29.814  1.00  0.00     0.083 C 
ATOM     23  C   UNL     1      -4.030  29.187 -28.361  1.00  0.00     0.044 C 
ATOM     24  C   UNL     1      -4.337  31.121 -29.966  1.00  0.00     0.044 C 
ATOM     25  C   UNL     1      -3.531  30.211 -27.327  1.00  0.00     0.059 C 
ATOM     26  C   UNL     1      -3.812  32.049 -28.853  1.00  0.00     0.059 C 
ATOM     27  C   UNL     1      -1.999  30.372 -27.302  1.00  0.00     0.019 C 
ATOM     28  N   UNL     1      -4.234  31.486 -27.560  1.00  0.00    -0.295 NA
ATOM     29  C   UNL     1      -2.296  32.312 -28.928  1.00  0.00     0.019 C 
ATOM     30  C   UNL     1      -1.419  31.142 -28.486  1.00  0.00     0.003 C 
BRANCH  28  31
ATOM     31  C   UNL     1      -4.116  32.411 -26.418  1.00  0.00     0.119 C 
BRANCH  31  32
ATOM     32  C   UNL     1      -5.454  32.927 -25.887  1.00  0.00     0.230 C 
ATOM     33  F   UNL     1      -5.985  31.987 -25.056  1.00  0.00    -0.250 F 
ENDBRANCH  31  32
ENDBRANCH  28  31
ENDBRANCH   1  22
TORSDOF 6
ENDMDL
MODEL 7
REMARK VINA RESULT:    -9.046      2.921      6.763
REMARK INTER + INTRA:         -12.012
REMARK INTER:                 -11.146
REMARK INTRA:                  -0.866
REMARK UNBOUND:                 0.207
REMARK SMILES Cc1cc(Nc2cc3ncccc3c(N[C@@H]3C[C@H]4CCC[C@@H](C3)N4CCF)n2)n[nH]1
REMARK SMILES IDX 15 1 14 3 6 4 7 5 28 6 8 7 9 8 13 9 10 10 12 11 11 12 5 13
REMARK SMILES IDX 4 15 2 16 3 17 30 18 29 19 1 20 16 22 17 23 23 24 18 25
REMARK SMILES IDX 22 26 19 27 24 28 21 29 20 30 25 31 26 32 27 33
REMARK H PARENT 15 2 5 14 30 21
ROOT
ATOM      1  N   UNL     1      -2.625  21.982 -26.183  1.00  0.00    -0.367 N 
ATOM      2  H   UNL     1      -3.240  21.537 -25.515  1.00  0.00     0.162 HD
ENDROOT
BRANCH   1   3
ATOM      3  C   UNL     1      -2.098  23.209 -25.784  1.00  0.00     0.138 A 
ATOM      4  C   UNL     1      -2.258  25.535 -25.807  1.00  0.00     0.136 A 
ATOM      5  C   UNL     1      -1.113  25.649 -25.040  1.00  0.00     0.076 A 
ATOM      6  N   UNL     1      -2.736  24.330 -26.177  1.00  0.00    -0.213 NA
ATOM      7  C   UNL     1      -0.423  24.521 -24.646  1.00  0.00     0.078 A 
ATOM      8  N   UNL     1       0.697  24.676 -23.910  1.00  0.00    -0.256 NA
ATOM      9  C   UNL     1      -0.907  23.259 -25.028  1.00  0.00     0.043 A 
ATOM     10  C   UNL     1       1.384  23.574 -23.542  1.00  0.00     0.112 A 
ATOM     11  C   UNL     1      -0.150  22.134 -24.628  1.00  0.00     0.016 A 
ATOM     12  C   UNL     1       1.007  22.291 -23.876  1.00  0.00     0.021 A 
BRANCH   4  13
ATOM     13  N   UNL     1      -3.013  26.616 -26.262  1.00  0.00    -0.323 N 
ATOM     14  H   UNL     1      -3.383  27.088 -25.446  1.00  0.00     0.170 HD
BRANCH  13  15
ATOM     15  C   UNL     1      -3.296  27.085 -27.493  1.00  0.00     0.153 A 
ATOM     16  C   UNL     1      -3.733  28.596 -29.074  1.00  0.00     0.034 A 
ATOM     17  C   UNL     1      -3.457  28.475 -27.731  1.00  0.00     0.071 A 
ATOM     18  N   UNL     1      -3.726  27.318 -29.554  1.00  0.00    -0.281 N 
ATOM     19  N   UNL     1      -3.464  26.394 -28.621  1.00  0.00    -0.158 NA
ATOM     20  C   UNL     1      -3.999  29.767 -29.934  1.00  0.00     0.066 C 
ATOM     21  H   UNL     1      -3.890  27.003 -30.505  1.00  0.00     0.190 HD
ENDBRANCH  13  15
ENDBRANCH   4  13
ENDBRANCH   1   3
BRANCH   1  22
ATOM     22  C   UNL     1      -2.904  21.715 -27.594  1.00  0.00     0.083 C 
ATOM     23  C   UNL     1      -1.844  22.376 -28.483  1.00  0.00     0.044 C 
ATOM     24  C   UNL     1      -4.309  22.236 -27.920  1.00  0.00     0.044 C 
ATOM     25  C   UNL     1      -2.256  22.504 -29.960  1.00  0.00     0.059 C 
ATOM     26  C   UNL     1      -4.597  22.362 -29.428  1.00  0.00     0.059 C 
ATOM     27  C   UNL     1      -2.272  21.164 -30.718  1.00  0.00     0.019 C 
ATOM     28  N   UNL     1      -3.549  23.209 -30.020  1.00  0.00    -0.295 NA
ATOM     29  C   UNL     1      -4.751  21.007 -30.146  1.00  0.00     0.019 C 
ATOM     30  C   UNL     1      -3.444  20.249 -30.372  1.00  0.00     0.003 C 
BRANCH  28  31
ATOM     31  C   UNL     1      -3.854  23.711 -31.372  1.00  0.00     0.119 C 
BRANCH  31  32
ATOM     32  C   UNL     1      -5.045  24.668 -31.434  1.00  0.00     0.230 C 
ATOM     33  F   UNL     1      -4.772  25.647 -32.342  1.00  0.00    -0.250 F 
ENDBRANCH  31  32
ENDBRANCH  28  31
ENDBRANCH   1  22
TORSDOF 6
ENDMDL
MODEL 8
REMARK VINA RESULT:    -8.930      3.054      7.906
REMARK INTER + INTRA:         -11.856
REMARK INTER:                 -11.140
REMARK INTRA:                  -0.716
REMARK UNBOUND:                 0.207
REMARK SMILES Cc1cc(Nc2cc3ncccc3c(N[C@@H]3C[C@H]4CCC[C@@H](C3)N4CCF)n2)n[nH]1
REMARK SMILES IDX 15 1 14 3 6 4 7 5 28 6 8 7 9 8 13 9 10 10 12 11 11 12 5 13
REMARK SMILES IDX 4 15 2 16 3 17 30 18 29 19 1 20 16 22 17 23 23 24 18 25
REMARK SMILES IDX 22 26 19 27 24 28 21 29 20 30 25 31 26 32 27 33
REMARK H PARENT 15 2 5 14 30 21
ROOT
ATOM      1  N   UNL     1      -3.737  28.205 -27.111  1.00  0.00    -0.367 N 
ATOM      2  H   UNL     1      -3.367  27.975 -26.198  1.00  0.00     0.162 HD
ENDROOT
BRANCH   1   3
ATOM      3  C   UNL     1      -3.655  27.189 -28.061  1.00  0.00     0.138 A 
ATOM      4  C   UNL     1      -4.058  26.483 -30.246  1.00  0.00     0.136 A 
ATOM      5  C   UNL     1      -3.532  25.235 -29.969  1.00  0.00     0.076 A 
ATOM      6  N   UNL     1      -4.123  27.441 -29.300  1.00  0.00    -0.213 NA
ATOM      7  C   UNL     1      -3.071  24.938 -28.703  1.00  0.00     0.078 A 
ATOM      8  N   UNL     1      -2.578  23.704 -28.470  1.00  0.00    -0.256 NA
ATOM      9  C   UNL     1      -3.137  25.925 -27.706  1.00  0.00     0.043 A 
ATOM     10  C   UNL     1      -2.146  23.406 -27.226  1.00  0.00     0.112 A 
ATOM     11  C   UNL     1      -2.683  25.565 -26.416  1.00  0.00     0.016 A 
ATOM     12  C   UNL     1      -2.180  24.293 -26.172  1.00  0.00     0.021 A 
BRANCH   4  13
ATOM     13  N   UNL     1      -4.558  26.869 -31.490  1.00  0.00    -0.323 N 
ATOM     14  H   UNL     1      -4.195  27.794 -31.685  1.00  0.00     0.170 HD
BRANCH  13  15
ATOM     15  C   UNL     1      -5.364  26.264 -32.383  1.00  0.00     0.153 A 
ATOM     16  C   UNL     1      -6.288  24.583 -33.521  1.00  0.00     0.034 A 
ATOM     17  C   UNL     1      -5.359  24.854 -32.542  1.00  0.00     0.071 A 
ATOM     18  N   UNL     1      -6.783  25.801 -33.887  1.00  0.00    -0.281 N 
ATOM     19  N   UNL     1      -6.244  26.826 -33.215  1.00  0.00    -0.158 NA
ATOM     20  C   UNL     1      -6.747  23.320 -34.136  1.00  0.00     0.066 C 
ATOM     21  H   UNL     1      -7.490  26.008 -34.586  1.00  0.00     0.190 HD
ENDBRANCH  13  15
ENDBRANCH   4  13
ENDBRANCH   1   3
BRANCH   1  22
ATOM     22  C   UNL     1      -3.639  29.609 -27.511  1.00  0.00     0.083 C 
ATOM     23  C   UNL     1      -2.178  30.073 -27.478  1.00  0.00     0.044 C 
ATOM     24  C   UNL     1      -4.512  30.447 -26.569  1.00  0.00     0.044 C 
ATOM     25  C   UNL     1      -2.007  31.602 -27.482  1.00  0.00     0.059 C 
ATOM     26  C   UNL     1      -4.227  31.960 -26.629  1.00  0.00     0.059 C 
ATOM     27  C   UNL     1      -2.342  32.260 -28.834  1.00  0.00     0.019 C 
ATOM     28  N   UNL     1      -2.792  32.159 -26.366  1.00  0.00    -0.295 NA
ATOM     29  C   UNL     1      -4.697  32.630 -27.933  1.00  0.00     0.019 C 
ATOM     30  C   UNL     1      -3.833  32.331 -29.156  1.00  0.00     0.003 C 
BRANCH  28  31
ATOM     31  C   UNL     1      -2.411  33.548 -26.049  1.00  0.00     0.119 C 
BRANCH  31  32
ATOM     32  C   UNL     1      -1.024  33.691 -25.420  1.00  0.00     0.230 C 
ATOM     33  F   UNL     1      -0.820  32.643 -24.573  1.00  0.00    -0.250 F 
ENDBRANCH  31  32
ENDBRANCH  28  31
ENDBRANCH   1  22
TORSDOF 6
ENDMDL
MODEL 9
REMARK VINA RESULT:    -8.752      2.347      4.101
REMARK INTER + INTRA:         -11.616
REMARK INTER:                 -11.550
REMARK INTRA:                  -0.066
REMARK UNBOUND:                 0.207
REMARK SMILES Cc1cc(Nc2cc3ncccc3c(N[C@@H]3C[C@H]4CCC[C@@H](C3)N4CCF)n2)n[nH]1
REMARK SMILES IDX 15 1 14 3 6 4 7 5 28 6 8 7 9 8 13 9 10 10 12 11 11 12 5 13
REMARK SMILES IDX 4 15 2 16 3 17 30 18 29 19 1 20 16 22 17 23 23 24 18 25
REMARK SMILES IDX 22 26 19 27 24 28 21 29 20 30 25 31 26 32 27 33
REMARK H PARENT 15 2 5 14 30 21
ROOT
ATOM      1  N   UNL     1      -2.791  22.473 -27.926  1.00  0.00    -0.367 N 
ATOM      2  H   UNL     1      -2.356  21.580 -28.118  1.00  0.00     0.162 HD
ENDROOT
BRANCH   1   3
ATOM      3  C   UNL     1      -3.332  23.122 -29.034  1.00  0.00     0.138 A 
ATOM      4  C   UNL     1      -3.826  25.133 -30.106  1.00  0.00     0.136 A 
ATOM      5  C   UNL     1      -4.385  24.458 -31.175  1.00  0.00     0.076 A 
ATOM      6  N   UNL     1      -3.314  24.470 -29.050  1.00  0.00    -0.213 NA
ATOM      7  C   UNL     1      -4.442  23.080 -31.176  1.00  0.00     0.078 A 
ATOM      8  N   UNL     1      -5.009  22.460 -32.232  1.00  0.00    -0.256 NA
ATOM      9  C   UNL     1      -3.918  22.376 -30.080  1.00  0.00     0.043 A 
ATOM     10  C   UNL     1      -5.084  21.112 -32.224  1.00  0.00     0.112 A 
ATOM     11  C   UNL     1      -4.028  20.967 -30.110  1.00  0.00     0.016 A 
ATOM     12  C   UNL     1      -4.616  20.326 -31.193  1.00  0.00     0.021 A 
BRANCH   4  13
ATOM     13  N   UNL     1      -3.734  26.522 -30.012  1.00  0.00    -0.323 N 
ATOM     14  H   UNL     1      -2.993  26.730 -29.354  1.00  0.00     0.170 HD
BRANCH  13  15
ATOM     15  C   UNL     1      -4.408  27.529 -30.601  1.00  0.00     0.153 A 
ATOM     16  C   UNL     1      -5.005  29.632 -31.042  1.00  0.00     0.034 A 
ATOM     17  C   UNL     1      -4.154  28.882 -30.261  1.00  0.00     0.071 A 
ATOM     18  N   UNL     1      -5.701  28.721 -31.783  1.00  0.00    -0.281 N 
ATOM     19  N   UNL     1      -5.358  27.451 -31.536  1.00  0.00    -0.158 NA
ATOM     20  C   UNL     1      -5.225  31.088 -31.159  1.00  0.00     0.066 C 
ATOM     21  H   UNL     1      -6.423  28.894 -32.475  1.00  0.00     0.190 HD
ENDBRANCH  13  15
ENDBRANCH   4  13
ENDBRANCH   1   3
BRANCH   1  22
ATOM     22  C   UNL     1      -2.228  23.239 -26.815  1.00  0.00     0.083 C 
ATOM     23  C   UNL     1      -1.085  24.134 -27.308  1.00  0.00     0.044 C 
ATOM     24  C   UNL     1      -1.745  22.257 -25.741  1.00  0.00     0.044 C 
ATOM     25  C   UNL     1      -0.174  24.662 -26.186  1.00  0.00     0.059 C 
ATOM     26  C   UNL     1      -0.807  22.886 -24.692  1.00  0.00     0.059 C 
ATOM     27  C   UNL     1      -0.836  25.737 -25.303  1.00  0.00     0.019 C 
ATOM     28  N   UNL     1       0.317  23.510 -25.408  1.00  0.00    -0.295 NA
ATOM     29  C   UNL     1      -1.515  23.854 -23.727  1.00  0.00     0.019 C 
ATOM     30  C   UNL     1      -1.887  25.207 -24.331  1.00  0.00     0.003 C 
BRANCH  28  31
ATOM     31  C   UNL     1       1.472  23.856 -24.559  1.00  0.00     0.119 C 
BRANCH  31  32
ATOM     32  C   UNL     1       2.681  24.390 -25.330  1.00  0.00     0.230 C 
ATOM     33  F   UNL     1       3.655  23.437 -25.326  1.00  0.00    -0.250 F 
ENDBRANCH  31  32
ENDBRANCH  28  31
ENDBRANCH   1  22
TORSDOF 6
ENDMDL
