MODEL 1
REMARK VINA RESULT:   -10.382      0.000      0.000
REMARK INTER + INTRA:         -13.726
REMARK INTER:                 -12.810
REMARK INTRA:                  -0.916
REMARK UNBOUND:                -0.916
REMARK SMILES Cn1cc(-c2cc(-c3cnn([C@]4(CC#N)C[C@H](C#N)C4)n3)c3cccnc3c2)nn1
REMARK SMILES IDX 5 1 6 2 7 3 22 4 23 5 24 6 25 7 26 8 27 9 28 10 4 11 2 12
REMARK SMILES IDX 3 13 30 14 29 15 1 16 8 17 9 18 21 19 10 20 11 21 12 22
REMARK SMILES IDX 16 23 20 24 17 25 18 26 19 27 13 28 14 29 15 30
REMARK H PARENT
ROOT
ATOM      1  C   UNL     1       6.717 -26.267  23.554  1.00  0.00     0.007 A 
ATOM      2  C   UNL     1       6.745 -24.987  22.998  1.00  0.00     0.021 A 
ATOM      3  C   UNL     1       5.699 -24.545  22.171  1.00  0.00     0.014 A 
ATOM      4  C   UNL     1       4.597 -25.396  21.890  1.00  0.00     0.010 A 
ATOM      5  C   UNL     1       3.493 -25.042  21.079  1.00  0.00     0.012 A 
ATOM      6  C   UNL     1       2.452 -25.937  20.863  1.00  0.00     0.021 A 
ATOM      7  C   UNL     1       2.533 -27.172  21.468  1.00  0.00     0.112 A 
ATOM      8  N   UNL     1       3.563 -27.554  22.253  1.00  0.00    -0.256 NA
ATOM      9  C   UNL     1       4.570 -26.687  22.459  1.00  0.00     0.072 A 
ATOM     10  C   UNL     1       5.620 -27.091  23.273  1.00  0.00     0.039 A 
ENDROOT
BRANCH   1  11
ATOM     11  C   UNL     1       7.784 -26.757  24.410  1.00  0.00     0.113 A 
ATOM     12  N   UNL     1       9.556 -26.969  25.622  1.00  0.00    -0.255 N 
ATOM     13  C   UNL     1       8.870 -26.052  24.883  1.00  0.00     0.139 A 
ATOM     14  N   UNL     1       8.946 -28.162  25.620  1.00  0.00    -0.067 NA
ATOM     15  N   UNL     1       7.856 -28.046  24.875  1.00  0.00    -0.130 NA
ATOM     16  C   UNL     1      10.783 -26.788  26.350  1.00  0.00     0.175 C 
ENDBRANCH   1  11
BRANCH   3  17
ATOM     17  C   UNL     1       5.795 -23.198  21.629  1.00  0.00     0.113 A 
ATOM     18  C   UNL     1       6.247 -22.793  20.354  1.00  0.00     0.166 A 
ATOM     19  N   UNL     1       5.399 -22.110  22.307  1.00  0.00    -0.153 NA
ATOM     20  N   UNL     1       6.137 -21.469  20.225  1.00  0.00    -0.161 NA
ATOM     21  N   UNL     1       5.622 -21.120  21.418  1.00  0.00    -0.177 N 
BRANCH  21  22
ATOM     22  C   UNL     1       5.212 -19.722  21.727  1.00  0.00     0.098 C 
ATOM     23  C   UNL     1       6.455 -18.779  21.775  1.00  0.00     0.052 C 
ATOM     24  C   UNL     1       4.766 -18.908  20.469  1.00  0.00     0.052 C 
ATOM     25  C   UNL     1       5.630 -17.729  20.987  1.00  0.00     0.097 C 
ATOM     26  C   UNL     1       6.358 -16.987  19.982  1.00  0.00     0.066 C 
ATOM     27  N   UNL     1       6.948 -16.391  19.181  1.00  0.00    -0.198 NA
BRANCH  22  28
ATOM     28  C   UNL     1       4.315 -19.685  22.964  1.00  0.00     0.152 C 
ATOM     29  C   UNL     1       2.904 -19.454  22.624  1.00  0.00     0.065 C 
ATOM     30  N   UNL     1       1.790 -19.268  22.361  1.00  0.00    -0.198 NA
ENDBRANCH  22  28
ENDBRANCH  21  22
ENDBRANCH   3  17
TORSDOF 4
ENDMDL
