REMARK SMILES COc1ccccc1C(=O)n1nc(-c2ccccn2)nc1NCc1ccccc1
REMARK SMILES IDX 11 1 12 2 13 3 20 4 21 5 9 6 10 7 8 8 3 9 4 10 5 11 7 12
REMARK SMILES IDX 6 13 2 14 1 15 22 16 23 18 24 19 25 20 29 21 26 22 28 23
REMARK SMILES IDX 27 24 14 25 15 26 19 27 16 28 18 29 17 30
REMARK H PARENT 22 17
REMARK INDEX MAP 11 1 12 2 13 3 20 4 21 5 9 6 10 7 8 8 3 9 4 10 5 11 7 12 6 13
REMARK INDEX MAP 2 14 1 15 22 16 41 17 23 18 24 19 25 20 29 21 26 22 28 23
REMARK INDEX MAP 27 24 14 25 15 26 19 27 16 28 18 29 17 30
ROOT
ATOM      1  N   UNL     1      -3.639  12.480  23.507  1.00  0.00    -0.160 N 
ATOM      2  N   UNL     1      -2.967  12.178  24.647  1.00  0.00    -0.139 NA
ATOM      3  C   UNL     1      -2.668  10.879  24.481  1.00  0.00     0.202 A 
ATOM      4  N   UNL     1      -3.121  10.350  23.290  1.00  0.00    -0.189 NA
ATOM      5  C   UNL     1      -3.721  11.354  22.696  1.00  0.00     0.229 A 
ENDROOT
BRANCH   1   6
ATOM      6  C   UNL     1      -4.140  13.771  23.282  1.00  0.00     0.285 C 
ATOM      7  O   UNL     1      -3.636  14.441  22.377  1.00  0.00    -0.266 OA
BRANCH   6   8
ATOM      8  C   UNL     1      -5.256  14.357  24.058  1.00  0.00     0.084 A 
ATOM      9  C   UNL     1      -6.579  14.040  23.731  1.00  0.00     0.131 A 
ATOM     10  C   UNL     1      -7.631  14.588  24.469  1.00  0.00     0.047 A 
ATOM     11  C   UNL     1      -7.361  15.422  25.556  1.00  0.00     0.004 A 
ATOM     12  C   UNL     1      -4.988  15.193  25.150  1.00  0.00     0.018 A 
ATOM     13  C   UNL     1      -6.041  15.722  25.896  1.00  0.00     0.001 A 
BRANCH   9  14
ATOM     14  O   UNL     1      -6.854  13.278  22.626  1.00  0.00    -0.496 OA
ATOM     15  C   UNL     1      -7.548  12.085  22.996  1.00  0.00     0.278 C 
ENDBRANCH   9  14
ENDBRANCH   6   8
ENDBRANCH   1   6
BRANCH   5  16
ATOM     16  N   UNL     1      -4.336  11.350  21.495  1.00  0.00    -0.350 N 
ATOM     17  H   UNL     1      -5.176  11.928  21.353  1.00  0.00     0.164 HD
BRANCH  16  18
ATOM     18  C   UNL     1      -3.832  10.547  20.408  1.00  0.00     0.152 C 
BRANCH  18  19
ATOM     19  C   UNL     1      -4.804   9.431  20.113  1.00  0.00    -0.029 A 
ATOM     20  C   UNL     1      -4.471   8.419  19.202  1.00  0.00     0.005 A 
ATOM     21  C   UNL     1      -6.073   9.415  20.710  1.00  0.00     0.005 A 
ATOM     22  C   UNL     1      -5.379   7.400  18.911  1.00  0.00     0.000 A 
ATOM     23  C   UNL     1      -6.980   8.395  20.418  1.00  0.00     0.000 A 
ATOM     24  C   UNL     1      -6.632   7.387  19.521  1.00  0.00     0.000 A 
ENDBRANCH  18  19
ENDBRANCH  16  18
ENDBRANCH   5  16
BRANCH   3  25
ATOM     25  C   UNL     1      -1.934  10.064  25.462  1.00  0.00     0.109 A 
ATOM     26  C   UNL     1      -0.603   9.721  25.232  1.00  0.00     0.032 A 
ATOM     27  N   UNL     1      -2.604   9.667  26.578  1.00  0.00    -0.253 NA
ATOM     28  C   UNL     1       0.067   8.947  26.177  1.00  0.00     0.004 A 
ATOM     29  C   UNL     1      -1.927   8.920  27.476  1.00  0.00     0.112 A 
ATOM     30  C   UNL     1      -0.605   8.539  27.322  1.00  0.00     0.020 A 
ENDBRANCH   3  25
TORSDOF 7
