MODEL 8
REMARK VINA RESULT:    -6.896      3.044      7.840
REMARK INTER + INTRA:         -10.731
REMARK INTER:                 -10.431
REMARK INTRA:                  -0.300
REMARK UNBOUND:                 0.801
REMARK SMILES N=C(N)c1cccc(N2CCCCN(C3CCN(S(=O)(=O)c4ccc(N)cc4)CC3)C2=O)c1
REMARK SMILES IDX 14 1 31 2 32 3 9 4 8 5 4 6 5 7 33 8 6 9 7 10 2 11 1 12 3 13
REMARK SMILES IDX 10 17 13 19 12 20 11 21 15 23 16 24 30 25 17 26 29 27 18 28
REMARK SMILES IDX 19 29 20 30 21 31 22 32 23 33 28 34 24 35 27 36 25 37 26 38
REMARK H PARENT 1 14 3 15 3 16 26 39 26 40
REMARK Flexibility Score:   77.900
ROOT
ATOM      1  N   UNL     1      -6.447  13.152  22.904  1.00  0.00    -0.321 N 
ENDROOT
BRANCH   1   2
ATOM      2  C   UNL     1      -6.488  13.571  21.562  1.00  0.00     0.324 C 
ATOM      3  O   UNL     1      -5.556  14.177  21.035  1.00  0.00    -0.248 OA
BRANCH   2   4
ATOM      4  N   UNL     1      -7.690  13.279  20.904  1.00  0.00    -0.294 N 
BRANCH   4   5
ATOM      5  C   UNL     1      -7.814  12.159  20.008  1.00  0.00     0.046 A 
ATOM      6  C   UNL     1      -7.256   9.848  19.410  1.00  0.00     0.018 A 
ATOM      7  C   UNL     1      -8.101   9.909  18.301  1.00  0.00     0.012 A 
ATOM      8  C   UNL     1      -7.124  10.960  20.256  1.00  0.00     0.038 A 
ATOM      9  C   UNL     1      -8.813  11.077  18.050  1.00  0.00     0.003 A 
ATOM     10  C   UNL     1      -8.675  12.183  18.899  1.00  0.00     0.026 A 
BRANCH   6  11
ATOM     11  C   UNL     1      -6.505   8.595  19.713  1.00  0.00     0.122 C 
ATOM     12  N   UNL     1      -7.022   7.452  19.407  1.00  0.00    -0.284 NA
ATOM     13  N   UNL     1      -5.283   8.654  20.320  1.00  0.00    -0.384 N 
ATOM     14  H   UNL     1      -6.375   6.700  19.652  1.00  0.00     0.189 HD
ATOM     15  H   UNL     1      -5.134   9.468  20.907  1.00  0.00     0.158 HD
ATOM     16  H   UNL     1      -5.000   7.807  20.797  1.00  0.00     0.158 HD
ENDBRANCH   6  11
ENDBRANCH   4   5
BRANCH   4  17
ATOM     17  C   UNL     1      -8.750  14.277  21.026  1.00  0.00     0.127 CG0
ATOM     18  G   UNL     1      -9.524  14.140  22.329  1.00  0.00     0.000 G0
ENDBRANCH   4  17
ENDBRANCH   2   4
ENDBRANCH   1   2
BRANCH   1  19
ATOM     19  C   UNL     1      -7.713  12.953  23.621  1.00  0.00     0.122 C 
BRANCH  19  20
ATOM     20  C   UNL     1      -8.635  14.166  23.543  1.00  0.00     0.023 C 
BRANCH  20  21
ATOM     21  C   UNL     1      -9.550  14.144  22.321  1.00  0.00     0.024 CG0
ATOM     22  G   UNL     1      -8.768  14.273  21.021  1.00  0.00     0.000 G0
ENDBRANCH  20  21
ENDBRANCH  19  20
ENDBRANCH   1  19
BRANCH   1  23
ATOM     23  C   UNL     1      -5.288  12.365  23.371  1.00  0.00     0.089 C 
ATOM     24  C   UNL     1      -4.616  11.583  22.234  1.00  0.00     0.042 C 
ATOM     25  C   UNL     1      -4.286  13.206  24.191  1.00  0.00     0.042 C 
ATOM     26  C   UNL     1      -3.436  10.758  22.741  1.00  0.00     0.104 C 
ATOM     27  C   UNL     1      -2.843  12.952  23.769  1.00  0.00     0.104 C 
ATOM     28  N   UNL     1      -2.625  11.493  23.739  1.00  0.00    -0.198 NA
BRANCH  28  29
ATOM     29  S   UNL     1      -1.061  10.912  24.044  1.00  0.00     0.243 S 
ATOM     30  O   UNL     1      -0.674  10.046  22.950  1.00  0.00    -0.207 OA
ATOM     31  O   UNL     1      -0.237  12.042  24.421  1.00  0.00    -0.207 OA
BRANCH  29  32
ATOM     32  C   UNL     1      -1.264   9.888  25.485  1.00  0.00     0.082 A 
ATOM     33  C   UNL     1      -2.345  10.110  26.343  1.00  0.00     0.024 A 
ATOM     34  C   UNL     1      -0.385   8.829  25.718  1.00  0.00     0.024 A 
ATOM     35  C   UNL     1      -2.526   9.276  27.450  1.00  0.00     0.027 A 
ATOM     36  C   UNL     1      -0.578   8.004  26.829  1.00  0.00     0.027 A 
ATOM     37  C   UNL     1      -1.676   8.188  27.674  1.00  0.00     0.031 A 
BRANCH  37  38
ATOM     38  N   UNL     1      -1.799   7.430  28.843  1.00  0.00    -0.399 N 
ATOM     39  H   UNL     1      -1.391   7.868  29.664  1.00  0.00     0.156 HD
ATOM     40  H   UNL     1      -2.740   7.090  29.017  1.00  0.00     0.156 HD
ENDBRANCH  37  38
ENDBRANCH  29  32
ENDBRANCH  28  29
ENDBRANCH   1  23
TORSDOF 6
ENDMDL
