REMARK VINA RESULT:    -9.059      2.897      5.775
REMARK INTER + INTRA:         -16.626
REMARK INTER:                 -14.457
REMARK INTRA:                  -2.168
REMARK UNBOUND:                -1.477
REMARK SMILES CC(C)c1cc(C(C)C)c(S(=O)(=O)N[C@H](Cc2cccc(C(=N)N)c2)C(=O)N2CCN(C(=O)CN)CC2)c(C(C)C)c1
REMARK SMILES IDX 14 1 11 3 12 4 13 5 10 6 4 7 5 8 42 9 6 10 38 11 2 12 1 13
REMARK SMILES IDX 3 14 7 15 8 16 9 17 39 18 40 19 41 20 15 21 16 22 17 23
REMARK SMILES IDX 18 24 25 25 19 26 21 27 20 28 22 29 23 30 24 31 26 35 27 36
REMARK SMILES IDX 28 37 29 38 37 39 30 40 36 41 31 42 32 43 33 44 34 45 35 46
REMARK H PARENT 14 2 23 32 24 33 24 34 35 47 35 48
ROOT
ATOM      1  N   UNL     1      -3.398  12.213  20.215  1.00  0.00    -0.198 NA
ATOM      2  H   UNL     1      -2.622  12.864  20.374  1.00  0.00     0.142 HD
ENDROOT
BRANCH   1   3
ATOM      3  S   UNL     1      -4.125  12.519  18.724  1.00  0.00     0.241 S 
ATOM      4  O   UNL     1      -3.901  13.914  18.416  1.00  0.00    -0.207 OA
ATOM      5  O   UNL     1      -3.649  11.504  17.811  1.00  0.00    -0.207 OA
BRANCH   3   6
ATOM      6  C   UNL     1      -5.881  12.302  19.135  1.00  0.00     0.089 A 
ATOM      7  C   UNL     1      -8.649  12.168  19.771  1.00  0.00    -0.045 A 
ATOM      8  C   UNL     1      -7.744  12.767  20.646  1.00  0.00     0.009 A 
ATOM      9  C   UNL     1      -8.156  11.623  18.585  1.00  0.00     0.009 A 
ATOM     10  C   UNL     1      -6.361  12.845  20.369  1.00  0.00    -0.025 A 
ATOM     11  C   UNL     1      -6.784  11.647  18.241  1.00  0.00    -0.025 A 
BRANCH   7  12
ATOM     12  C   UNL     1     -10.134  12.099  20.082  1.00  0.00     0.013 C 
ATOM     13  C   UNL     1     -10.707  13.476  20.431  1.00  0.00     0.012 C 
ATOM     14  C   UNL     1     -10.425  11.088  21.195  1.00  0.00     0.012 C 
ENDBRANCH   7  12
BRANCH  10  15
ATOM     15  C   UNL     1      -5.492  13.538  21.424  1.00  0.00     0.014 C 
ATOM     16  C   UNL     1      -5.621  15.061  21.317  1.00  0.00     0.012 C 
ATOM     17  C   UNL     1      -5.805  13.084  22.859  1.00  0.00     0.012 C 
ENDBRANCH  10  15
BRANCH  11  18
ATOM     18  C   UNL     1      -6.393  10.994  16.917  1.00  0.00     0.014 C 
ATOM     19  C   UNL     1      -6.349  12.039  15.798  1.00  0.00     0.012 C 
ATOM     20  C   UNL     1      -7.280   9.812  16.479  1.00  0.00     0.012 C 
ENDBRANCH  11  18
ENDBRANCH   3   6
ENDBRANCH   1   3
BRANCH   1  21
ATOM     21  C   UNL     1      -3.071  10.793  20.515  1.00  0.00     0.163 C 
BRANCH  21  22
ATOM     22  C   UNL     1      -4.129  10.189  21.449  1.00  0.00     0.065 C 
BRANCH  22  23
ATOM     23  C   UNL     1      -5.152   9.307  20.765  1.00  0.00    -0.045 A 
ATOM     24  C   UNL     1      -6.510   9.342  21.118  1.00  0.00     0.004 A 
ATOM     25  C   UNL     1      -4.754   8.465  19.714  1.00  0.00     0.015 A 
ATOM     26  C   UNL     1      -7.441   8.527  20.469  1.00  0.00     0.001 A 
ATOM     27  C   UNL     1      -5.691   7.659  19.054  1.00  0.00     0.016 A 
ATOM     28  C   UNL     1      -7.033   7.684  19.437  1.00  0.00     0.012 A 
BRANCH  27  29
ATOM     29  C   UNL     1      -5.248   6.761  17.958  1.00  0.00     0.122 C 
ATOM     30  N   UNL     1      -5.107   7.179  16.740  1.00  0.00    -0.284 NA
ATOM     31  N   UNL     1      -4.981   5.456  18.207  1.00  0.00    -0.384 N 
ATOM     32  H   UNL     1      -5.297   8.182  16.674  1.00  0.00     0.189 HD
ATOM     33  H   UNL     1      -4.706   4.885  17.418  1.00  0.00     0.158 HD
ATOM     34  H   UNL     1      -5.186   5.005  19.086  1.00  0.00     0.158 HD
ENDBRANCH  27  29
ENDBRANCH  22  23
ENDBRANCH  21  22
BRANCH  21  35
ATOM     35  C   UNL     1      -1.713  10.794  21.242  1.00  0.00     0.241 C 
ATOM     36  O   UNL     1      -0.672  10.883  20.581  1.00  0.00    -0.273 OA
ATOM     37  N   UNL     1      -1.698  10.707  22.624  1.00  0.00    -0.338 N 
ATOM     38  C   UNL     1      -2.897  10.657  23.471  1.00  0.00     0.141 C 
ATOM     39  C   UNL     1      -0.407  10.590  23.311  1.00  0.00     0.141 C 
ATOM     40  C   UNL     1      -2.600  10.916  24.953  1.00  0.00     0.141 C 
ATOM     41  C   UNL     1      -0.480   9.664  24.533  1.00  0.00     0.141 C 
ATOM     42  N   UNL     1      -1.554  10.028  25.467  1.00  0.00    -0.338 N 
ATOM     43  C   UNL     1      -1.639   9.573  26.775  1.00  0.00     0.236 C 
ATOM     44  O   UNL     1      -2.539   9.936  27.535  1.00  0.00    -0.273 OA
BRANCH  43  45
ATOM     45  C   UNL     1      -0.557   8.581  27.241  1.00  0.00     0.179 C 
BRANCH  45  46
ATOM     46  N   UNL     1      -1.034   7.193  27.124  1.00  0.00    -0.322 NA
ATOM     47  H   UNL     1      -2.057   7.215  27.142  1.00  0.00     0.119 HD
ATOM     48  H   UNL     1      -0.799   6.717  28.000  1.00  0.00     0.119 HD
ENDBRANCH  45  46
ENDBRANCH  43  45
ENDBRANCH  21  35
ENDBRANCH   1  21
TORSDOF 12
