MODEL 3
REMARK VINA RESULT:    -8.875      1.132      1.722
REMARK INTER + INTRA:         -11.596
REMARK INTER:                 -10.822
REMARK INTRA:                  -0.774
REMARK UNBOUND:                -0.646
REMARK SMILES O=c1[nH]c2ncc(-c3ccc(-c4nc[nH]n4)cc3)nc2n1CC1CCOCC1
REMARK SMILES IDX 1 1 2 2 3 3 4 4 5 5 6 6 7 7 19 8 20 9 21 10 22 12 23 13
REMARK SMILES IDX 24 14 28 15 25 16 27 17 26 18 8 19 9 20 18 21 10 22 17 23
REMARK SMILES IDX 11 24 12 25 13 26 16 27 14 28 15 29
REMARK H PARENT 3 11 15 30
ROOT
ATOM      1  O   UNL     1       1.167  -6.668  13.869  1.00  0.00    -0.248 OA
ATOM      2  C   UNL     1       0.471  -7.502  14.422  1.00  0.00     0.328 A 
ATOM      3  N   UNL     1      -0.076  -8.637  13.813  1.00  0.00    -0.289 N 
ATOM      4  C   UNL     1      -0.816  -9.332  14.754  1.00  0.00     0.178 A 
ATOM      5  N   UNL     1      -1.499 -10.461  14.572  1.00  0.00    -0.233 NA
ATOM      6  C   UNL     1      -2.127 -10.873  15.712  1.00  0.00     0.142 A 
ATOM      7  C   UNL     1      -2.075 -10.190  16.951  1.00  0.00     0.091 A 
ATOM      8  N   UNL     1      -1.352  -9.037  17.090  1.00  0.00    -0.225 NA
ATOM      9  C   UNL     1      -0.741  -8.644  15.966  1.00  0.00     0.181 A 
ATOM     10  N   UNL     1       0.058  -7.518  15.762  1.00  0.00    -0.275 N 
ATOM     11  H   UNL     1       0.041  -8.902  12.851  1.00  0.00     0.173 HD
ENDROOT
BRANCH  10  12
ATOM     12  C   UNL     1       0.348  -6.534  16.774  1.00  0.00     0.133 C 
BRANCH  12  13
ATOM     13  C   UNL     1      -0.684  -5.394  16.826  1.00  0.00     0.014 C 
ATOM     14  C   UNL     1      -1.731  -5.644  17.927  1.00  0.00     0.034 C 
ATOM     15  C   UNL     1      -0.006  -4.024  17.016  1.00  0.00     0.034 C 
ATOM     16  C   UNL     1      -1.419  -4.833  19.178  1.00  0.00     0.160 C 
ATOM     17  C   UNL     1      -0.977  -3.032  17.637  1.00  0.00     0.160 C 
ATOM     18  O   UNL     1      -1.424  -3.428  18.934  1.00  0.00    -0.381 OA
ENDBRANCH  12  13
ENDBRANCH  10  12
BRANCH   7  19
ATOM     19  C   UNL     1      -2.775 -10.664  18.162  1.00  0.00     0.002 A 
ATOM     20  C   UNL     1      -2.368 -10.231  19.438  1.00  0.00     0.011 A 
ATOM     21  C   UNL     1      -3.867 -11.546  18.101  1.00  0.00     0.011 A 
ATOM     22  C   UNL     1      -3.013 -10.671  20.602  1.00  0.00     0.013 A 
ATOM     23  C   UNL     1      -4.514 -11.988  19.265  1.00  0.00     0.013 A 
ATOM     24  C   UNL     1      -4.092 -11.557  20.528  1.00  0.00     0.021 A 
BRANCH  24  25
ATOM     25  C   UNL     1      -4.760 -12.012  21.743  1.00  0.00     0.180 A 
ATOM     26  N   UNL     1      -4.581 -11.391  22.962  1.00  0.00    -0.216 NA
ATOM     27  N   UNL     1      -5.600 -13.062  21.794  1.00  0.00    -0.154 NA
ATOM     28  C   UNL     1      -5.337 -12.084  23.779  1.00  0.00     0.217 A 
ATOM     29  N   UNL     1      -5.947 -13.080  23.089  1.00  0.00    -0.265 N 
ATOM     30  H   UNL     1      -6.591 -13.787  23.423  1.00  0.00     0.191 HD
ENDBRANCH  24  25
ENDBRANCH   7  19
TORSDOF 4
ENDMDL
