MODEL 2
REMARK VINA RESULT:    -8.230      1.181      1.866
REMARK INTER + INTRA:         -13.415
REMARK INTER:                 -12.191
REMARK INTRA:                  -1.223
REMARK UNBOUND:                -1.095
REMARK SMILES CCC(CC)n1cc(-c2nc(-c3cnn(C[C@@H](O)C(C)(C)C)c3)cn3nccc23)cn1
REMARK SMILES IDX 9 1 10 2 11 3 24 4 25 5 26 6 27 7 28 8 29 9 8 10 6 11 7 12
REMARK SMILES IDX 31 13 30 14 3 15 2 16 1 17 4 18 5 19 12 20 13 21 23 22 14 23
REMARK SMILES IDX 15 24 16 25 17 26 18 27 19 29 20 30 21 31 22 32
REMARK H PARENT 18 28
ROOT
ATOM      1  C   UNL     1      -4.641  26.033 -31.153  1.00  0.00     0.100 A 
ATOM      2  N   UNL     1      -4.454  27.253 -30.734  1.00  0.00    -0.244 NA
ATOM      3  C   UNL     1      -5.055  28.297 -31.419  1.00  0.00     0.092 A 
ATOM      4  C   UNL     1      -5.830  28.090 -32.499  1.00  0.00     0.142 A 
ATOM      5  N   UNL     1      -6.058  26.801 -32.937  1.00  0.00    -0.237 N 
ATOM      6  N   UNL     1      -6.820  26.397 -33.981  1.00  0.00    -0.176 NA
ATOM      7  C   UNL     1      -6.773  25.066 -33.934  1.00  0.00     0.136 A 
ATOM      8  C   UNL     1      -5.969  24.593 -32.885  1.00  0.00     0.052 A 
ATOM      9  C   UNL     1      -5.491  25.731 -32.275  1.00  0.00     0.093 A 
ENDROOT
BRANCH   1  10
ATOM     10  C   UNL     1      -3.954  24.978 -30.438  1.00  0.00     0.040 A 
ATOM     11  N   UNL     1      -3.363  23.354 -29.061  1.00  0.00    -0.269 N 
ATOM     12  C   UNL     1      -4.356  24.256 -29.329  1.00  0.00     0.119 A 
ATOM     13  N   UNL     1      -2.336  23.430 -29.926  1.00  0.00    -0.181 NA
ATOM     14  C   UNL     1      -2.706  24.396 -30.770  1.00  0.00     0.145 A 
BRANCH  11  15
ATOM     15  C   UNL     1      -3.326  22.360 -27.990  1.00  0.00     0.107 C 
BRANCH  15  16
ATOM     16  C   UNL     1      -1.880  22.009 -27.581  1.00  0.00     0.024 C 
ATOM     17  C   UNL     1      -1.711  21.829 -26.077  1.00  0.00     0.006 C 
ENDBRANCH  15  16
BRANCH  15  18
ATOM     18  C   UNL     1      -4.103  21.082 -28.367  1.00  0.00     0.024 C 
ATOM     19  C   UNL     1      -5.587  21.163 -28.031  1.00  0.00     0.006 C 
ENDBRANCH  15  18
ENDBRANCH  11  15
ENDBRANCH   1  10
BRANCH   3  20
ATOM     20  C   UNL     1      -4.767  29.593 -30.881  1.00  0.00     0.040 A 
ATOM     21  C   UNL     1      -5.236  30.849 -31.331  1.00  0.00     0.145 A 
ATOM     22  C   UNL     1      -3.966  29.901 -29.800  1.00  0.00     0.119 A 
ATOM     23  N   UNL     1      -4.766  31.868 -30.604  1.00  0.00    -0.181 NA
ATOM     24  N   UNL     1      -4.006  31.261 -29.671  1.00  0.00    -0.269 N 
BRANCH  24  25
ATOM     25  C   UNL     1      -3.320  32.068 -28.667  1.00  0.00     0.176 C 
BRANCH  25  26
ATOM     26  C   UNL     1      -4.309  32.948 -27.884  1.00  0.00     0.141 C 
BRANCH  26  27
ATOM     27  O   UNL     1      -5.583  32.286 -27.827  1.00  0.00    -0.391 OA
ATOM     28  H   UNL     1      -5.724  32.038 -26.885  1.00  0.00     0.211 HD
ENDBRANCH  26  27
BRANCH  26  29
ATOM     29  C   UNL     1      -3.862  33.289 -26.427  1.00  0.00    -0.010 C 
ATOM     30  C   UNL     1      -2.660  32.401 -26.039  1.00  0.00     0.013 C 
ATOM     31  C   UNL     1      -3.430  34.763 -26.301  1.00  0.00     0.013 C 
ATOM     32  C   UNL     1      -4.998  33.013 -25.425  1.00  0.00     0.013 C 
ENDBRANCH  26  29
ENDBRANCH  25  26
ENDBRANCH  24  25
ENDBRANCH   3  20
TORSDOF 9
ENDMDL
