MODEL 1
REMARK VINA RESULT:   -10.934      0.000      0.000
REMARK INTER + INTRA:         -14.924
REMARK INTER:                 -14.130
REMARK INTRA:                  -0.794
REMARK UNBOUND:                -0.794
REMARK SMILES CS(=O)(=O)N1CC(CC#N)(n2ccc(-c3nc(-c4ccn5ccnc5c4)cc4ncccc34)n2)C1
REMARK SMILES IDX 11 1 12 2 13 3 14 4 34 5 7 6 5 7 6 8 35 9 2 10 3 11 4 12
REMARK SMILES IDX 1 13 8 14 9 15 10 16 15 17 16 18 33 19 17 20 32 21 28 22
REMARK SMILES IDX 27 23 31 24 29 25 30 26 18 27 19 28 26 29 20 30 25 31 21 32
REMARK SMILES IDX 24 33 22 34 23 35
REMARK H PARENT
ROOT
ATOM      1  N   UNL     1       4.820 -21.807  20.902  1.00  0.00    -0.262 N 
ATOM      2  C   UNL     1       5.144 -22.273  19.665  1.00  0.00     0.110 A 
ATOM      3  C   UNL     1       5.350 -23.622  19.824  1.00  0.00     0.052 A 
ATOM      4  C   UNL     1       5.117 -23.896  21.202  1.00  0.00     0.111 A 
ATOM      5  N   UNL     1       4.761 -22.766  21.841  1.00  0.00    -0.171 NA
ENDROOT
BRANCH   1   6
ATOM      6  C   UNL     1       4.444 -20.413  21.214  1.00  0.00     0.103 C 
ATOM      7  N   UNL     1       3.578 -18.766  20.157  1.00  0.00    -0.197 NA
ATOM      8  C   UNL     1       4.916 -19.444  20.097  1.00  0.00     0.135 C 
ATOM      9  C   UNL     1       3.018 -20.029  20.737  1.00  0.00     0.135 C 
BRANCH   7  10
ATOM     10  S   UNL     1       2.919 -17.924  18.842  1.00  0.00     0.211 S 
ATOM     11  O   UNL     1       3.710 -18.253  17.677  1.00  0.00    -0.213 OA
ATOM     12  O   UNL     1       1.487 -18.130  18.872  1.00  0.00    -0.213 OA
ATOM     13  C   UNL     1       3.264 -16.243  19.308  1.00  0.00     0.176 C 
ENDBRANCH   7  10
BRANCH   6  14
ATOM     14  C   UNL     1       4.876 -20.000  22.615  1.00  0.00     0.153 C 
ATOM     15  C   UNL     1       6.275 -19.557  22.628  1.00  0.00     0.065 C 
ATOM     16  N   UNL     1       7.391 -19.244  22.594  1.00  0.00    -0.198 NA
ENDBRANCH   6  14
ENDBRANCH   1   6
BRANCH   4  17
ATOM     17  C   UNL     1       5.184 -25.222  21.845  1.00  0.00     0.101 A 
ATOM     18  N   UNL     1       6.285 -25.374  22.629  1.00  0.00    -0.245 NA
ATOM     19  C   UNL     1       4.211 -26.235  21.678  1.00  0.00     0.028 A 
ATOM     20  C   UNL     1       6.469 -26.553  23.253  1.00  0.00     0.073 A 
ATOM     21  C   UNL     1       3.009 -26.155  20.929  1.00  0.00     0.014 A 
ATOM     22  C   UNL     1       4.447 -27.453  22.342  1.00  0.00     0.075 A 
ATOM     23  C   UNL     1       5.577 -27.602  23.119  1.00  0.00     0.058 A 
ATOM     24  C   UNL     1       2.142 -27.238  20.852  1.00  0.00     0.021 A 
ATOM     25  N   UNL     1       3.612 -28.505  22.268  1.00  0.00    -0.256 NA
ATOM     26  C   UNL     1       2.487 -28.385  21.531  1.00  0.00     0.112 A 
BRANCH  20  27
ATOM     27  C   UNL     1       7.683 -26.679  24.097  1.00  0.00     0.005 A 
ATOM     28  C   UNL     1       7.964 -27.871  24.914  1.00  0.00     0.029 A 
ATOM     29  C   UNL     1       8.551 -25.637  24.120  1.00  0.00     0.058 A 
ATOM     30  C   UNL     1       9.080 -27.926  25.659  1.00  0.00     0.093 A 
ATOM     31  C   UNL     1       9.739 -25.696  24.902  1.00  0.00     0.137 A 
ATOM     32  N   UNL     1       9.956 -26.848  25.646  1.00  0.00    -0.307 N 
ATOM     33  N   UNL     1      10.720 -24.831  25.063  1.00  0.00    -0.237 NA
ATOM     34  C   UNL     1      11.144 -26.676  26.308  1.00  0.00     0.113 A 
ATOM     35  C   UNL     1      11.594 -25.432  25.933  1.00  0.00     0.132 A 
ENDBRANCH  20  27
ENDBRANCH   4  17
TORSDOF 5
ENDMDL
MODEL 2
REMARK VINA RESULT:   -10.844      1.708      2.148
REMARK INTER + INTRA:         -14.808
REMARK INTER:                 -13.975
REMARK INTRA:                  -0.834
REMARK UNBOUND:                -0.794
REMARK SMILES CS(=O)(=O)N1CC(CC#N)(n2ccc(-c3nc(-c4ccn5ccnc5c4)cc4ncccc34)n2)C1
REMARK SMILES IDX 11 1 12 2 13 3 14 4 34 5 7 6 5 7 6 8 35 9 2 10 3 11 4 12
REMARK SMILES IDX 1 13 8 14 9 15 10 16 15 17 16 18 33 19 17 20 32 21 28 22
REMARK SMILES IDX 27 23 31 24 29 25 30 26 18 27 19 28 26 29 20 30 25 31 21 32
REMARK SMILES IDX 24 33 22 34 23 35
REMARK H PARENT
ROOT
ATOM      1  N   UNL     1       5.547 -21.141  21.467  1.00  0.00    -0.262 N 
ATOM      2  C   UNL     1       6.150 -21.511  20.303  1.00  0.00     0.110 A 
ATOM      3  C   UNL     1       6.255 -22.880  20.365  1.00  0.00     0.052 A 
ATOM      4  C   UNL     1       5.676 -23.264  21.608  1.00  0.00     0.111 A 
ATOM      5  N   UNL     1       5.218 -22.177  22.256  1.00  0.00    -0.171 NA
ENDROOT
BRANCH   1   6
ATOM      6  C   UNL     1       5.162 -19.760  21.823  1.00  0.00     0.103 C 
ATOM      7  N   UNL     1       5.677 -17.788  21.171  1.00  0.00    -0.197 NA
ATOM      8  C   UNL     1       6.410 -18.846  21.944  1.00  0.00     0.135 C 
ATOM      9  C   UNL     1       4.817 -18.872  20.598  1.00  0.00     0.135 C 
BRANCH   7  10
ATOM     10  S   UNL     1       6.475 -16.600  20.265  1.00  0.00     0.211 S 
ATOM     11  O   UNL     1       7.260 -15.807  21.185  1.00  0.00    -0.213 OA
ATOM     12  O   UNL     1       7.076 -17.257  19.124  1.00  0.00    -0.213 OA
ATOM     13  C   UNL     1       5.101 -15.622  19.700  1.00  0.00     0.176 C 
ENDBRANCH   7  10
BRANCH   6  14
ATOM     14  C   UNL     1       4.241 -19.714  23.035  1.00  0.00     0.153 C 
ATOM     15  C   UNL     1       2.854 -19.447  22.636  1.00  0.00     0.065 C 
ATOM     16  N   UNL     1       1.779 -19.205  22.276  1.00  0.00    -0.198 NA
ENDBRANCH   6  14
ENDBRANCH   1   6
BRANCH   4  17
ATOM     17  C   UNL     1       5.526 -24.645  22.104  1.00  0.00     0.101 A 
ATOM     18  N   UNL     1       6.569 -25.042  22.882  1.00  0.00    -0.245 NA
ATOM     19  C   UNL     1       4.419 -25.477  21.814  1.00  0.00     0.028 A 
ATOM     20  C   UNL     1       6.557 -26.294  23.377  1.00  0.00     0.073 A 
ATOM     21  C   UNL     1       3.266 -25.139  21.060  1.00  0.00     0.014 A 
ATOM     22  C   UNL     1       4.453 -26.780  22.345  1.00  0.00     0.075 A 
ATOM     23  C   UNL     1       5.525 -27.178  23.117  1.00  0.00     0.058 A 
ATOM     24  C   UNL     1       2.251 -26.065  20.854  1.00  0.00     0.021 A 
ATOM     25  N   UNL     1       3.475 -27.681  22.145  1.00  0.00    -0.256 NA
ATOM     26  C   UNL     1       2.403 -27.317  21.410  1.00  0.00     0.112 A 
BRANCH  20  27
ATOM     27  C   UNL     1       7.713 -26.689  24.219  1.00  0.00     0.005 A 
ATOM     28  C   UNL     1       7.816 -28.011  24.861  1.00  0.00     0.029 A 
ATOM     29  C   UNL     1       8.699 -25.778  24.412  1.00  0.00     0.058 A 
ATOM     30  C   UNL     1       8.887 -28.310  25.614  1.00  0.00     0.093 A 
ATOM     31  C   UNL     1       9.840 -26.094  25.202  1.00  0.00     0.137 A 
ATOM     32  N   UNL     1       9.887 -27.359  25.776  1.00  0.00    -0.307 N 
ATOM     33  N   UNL     1      10.911 -25.391  25.508  1.00  0.00    -0.237 NA
ATOM     34  C   UNL     1      11.060 -27.431  26.481  1.00  0.00     0.113 A 
ATOM     35  C   UNL     1      11.671 -26.213  26.300  1.00  0.00     0.132 A 
ENDBRANCH  20  27
ENDBRANCH   4  17
TORSDOF 5
ENDMDL
MODEL 3
REMARK VINA RESULT:   -10.511      1.902      2.488
REMARK INTER + INTRA:         -14.377
REMARK INTER:                 -13.890
REMARK INTRA:                  -0.487
REMARK UNBOUND:                -0.794
REMARK SMILES CS(=O)(=O)N1CC(CC#N)(n2ccc(-c3nc(-c4ccn5ccnc5c4)cc4ncccc34)n2)C1
REMARK SMILES IDX 11 1 12 2 13 3 14 4 34 5 7 6 5 7 6 8 35 9 2 10 3 11 4 12
REMARK SMILES IDX 1 13 8 14 9 15 10 16 15 17 16 18 33 19 17 20 32 21 28 22
REMARK SMILES IDX 27 23 31 24 29 25 30 26 18 27 19 28 26 29 20 30 25 31 21 32
REMARK SMILES IDX 24 33 22 34 23 35
REMARK H PARENT
ROOT
ATOM      1  N   UNL     1       4.982 -21.726  21.471  1.00  0.00    -0.262 N 
ATOM      2  C   UNL     1       4.286 -22.106  20.364  1.00  0.00     0.110 A 
ATOM      3  C   UNL     1       4.232 -23.478  20.420  1.00  0.00     0.052 A 
ATOM      4  C   UNL     1       4.917 -23.851  21.611  1.00  0.00     0.111 A 
ATOM      5  N   UNL     1       5.344 -22.751  22.259  1.00  0.00    -0.171 NA
ENDROOT
BRANCH   1   6
ATOM      6  C   UNL     1       5.238 -20.328  21.876  1.00  0.00     0.103 C 
ATOM      7  N   UNL     1       6.700 -18.828  21.436  1.00  0.00    -0.197 NA
ATOM      8  C   UNL     1       6.737 -20.111  22.216  1.00  0.00     0.135 C 
ATOM      9  C   UNL     1       5.525 -19.375  20.685  1.00  0.00     0.135 C 
BRANCH   7  10
ATOM     10  S   UNL     1       8.079 -18.150  20.724  1.00  0.00     0.211 S 
ATOM     11  O   UNL     1       8.871 -19.237  20.192  1.00  0.00    -0.213 OA
ATOM     12  O   UNL     1       7.639 -17.051  19.891  1.00  0.00    -0.213 OA
ATOM     13  C   UNL     1       8.908 -17.488  22.152  1.00  0.00     0.176 C 
ENDBRANCH   7  10
BRANCH   6  14
ATOM     14  C   UNL     1       4.282 -19.860  22.966  1.00  0.00     0.153 C 
ATOM     15  C   UNL     1       3.068 -19.272  22.388  1.00  0.00     0.065 C 
ATOM     16  N   UNL     1       2.141 -18.791  21.886  1.00  0.00    -0.198 NA
ENDBRANCH   6  14
ENDBRANCH   1   6
BRANCH   4  17
ATOM     17  C   UNL     1       5.089 -25.227  22.117  1.00  0.00     0.101 A 
ATOM     18  N   UNL     1       6.212 -25.376  22.869  1.00  0.00    -0.245 NA
ATOM     19  C   UNL     1       4.187 -26.285  21.859  1.00  0.00     0.028 A 
ATOM     20  C   UNL     1       6.490 -26.594  23.370  1.00  0.00     0.073 A 
ATOM     21  C   UNL     1       2.969 -26.218  21.134  1.00  0.00     0.014 A 
ATOM     22  C   UNL     1       4.521 -27.543  22.394  1.00  0.00     0.075 A 
ATOM     23  C   UNL     1       5.673 -27.687  23.140  1.00  0.00     0.058 A 
ATOM     24  C   UNL     1       2.180 -27.348  20.958  1.00  0.00     0.021 A 
ATOM     25  N   UNL     1       3.761 -28.640  22.224  1.00  0.00    -0.256 NA
ATOM     26  C   UNL     1       2.618 -28.529  21.515  1.00  0.00     0.112 A 
BRANCH  20  27
ATOM     27  C   UNL     1       7.725 -26.716  24.183  1.00  0.00     0.005 A 
ATOM     28  C   UNL     1       8.029 -27.906  24.995  1.00  0.00     0.029 A 
ATOM     29  C   UNL     1       8.590 -25.672  24.183  1.00  0.00     0.058 A 
ATOM     30  C   UNL     1       9.164 -27.957  25.713  1.00  0.00     0.093 A 
ATOM     31  C   UNL     1       9.798 -25.726  24.935  1.00  0.00     0.137 A 
ATOM     32  N   UNL     1      10.036 -26.877  25.675  1.00  0.00    -0.307 N 
ATOM     33  N   UNL     1      10.780 -24.859  25.070  1.00  0.00    -0.237 NA
ATOM     34  C   UNL     1      11.240 -26.700  26.308  1.00  0.00     0.113 A 
ATOM     35  C   UNL     1      11.677 -25.455  25.919  1.00  0.00     0.132 A 
ENDBRANCH  20  27
ENDBRANCH   4  17
TORSDOF 5
ENDMDL
MODEL 4
REMARK VINA RESULT:   -10.322      1.842      2.552
REMARK INTER + INTRA:         -14.134
REMARK INTER:                 -13.316
REMARK INTRA:                  -0.817
REMARK UNBOUND:                -0.794
REMARK SMILES CS(=O)(=O)N1CC(CC#N)(n2ccc(-c3nc(-c4ccn5ccnc5c4)cc4ncccc34)n2)C1
REMARK SMILES IDX 11 1 12 2 13 3 14 4 34 5 7 6 5 7 6 8 35 9 2 10 3 11 4 12
REMARK SMILES IDX 1 13 8 14 9 15 10 16 15 17 16 18 33 19 17 20 32 21 28 22
REMARK SMILES IDX 27 23 31 24 29 25 30 26 18 27 19 28 26 29 20 30 25 31 21 32
REMARK SMILES IDX 24 33 22 34 23 35
REMARK H PARENT
ROOT
ATOM      1  N   UNL     1       6.855 -21.117  21.674  1.00  0.00    -0.262 N 
ATOM      2  C   UNL     1       7.675 -21.544  20.674  1.00  0.00     0.110 A 
ATOM      3  C   UNL     1       7.901 -22.874  20.928  1.00  0.00     0.052 A 
ATOM      4  C   UNL     1       7.165 -23.180  22.109  1.00  0.00     0.111 A 
ATOM      5  N   UNL     1       6.503 -22.088  22.533  1.00  0.00    -0.171 NA
ENDROOT
BRANCH   1   6
ATOM      6  C   UNL     1       6.284 -19.759  21.785  1.00  0.00     0.103 C 
ATOM      7  N   UNL     1       4.339 -18.878  21.648  1.00  0.00    -0.197 NA
ATOM      8  C   UNL     1       5.273 -19.484  20.640  1.00  0.00     0.135 C 
ATOM      9  C   UNL     1       5.037 -19.678  22.704  1.00  0.00     0.135 C 
BRANCH   7  10
ATOM     10  S   UNL     1       2.661 -18.820  21.421  1.00  0.00     0.211 S 
ATOM     11  O   UNL     1       2.377 -19.412  20.133  1.00  0.00    -0.213 OA
ATOM     12  O   UNL     1       2.045 -19.310  22.635  1.00  0.00    -0.213 OA
ATOM     13  C   UNL     1       2.393 -17.065  21.312  1.00  0.00     0.176 C 
ENDBRANCH   7  10
BRANCH   6  14
ATOM     14  C   UNL     1       7.361 -18.692  21.928  1.00  0.00     0.153 C 
ATOM     15  C   UNL     1       8.202 -18.943  23.104  1.00  0.00     0.065 C 
ATOM     16  N   UNL     1       8.820 -19.165  24.059  1.00  0.00    -0.198 NA
ENDBRANCH   6  14
ENDBRANCH   1   6
BRANCH   4  17
ATOM     17  C   UNL     1       7.072 -24.505  22.753  1.00  0.00     0.101 A 
ATOM     18  N   UNL     1       8.138 -24.780  23.551  1.00  0.00    -0.245 NA
ATOM     19  C   UNL     1       5.991 -25.400  22.572  1.00  0.00     0.028 A 
ATOM     20  C   UNL     1       8.177 -25.971  24.178  1.00  0.00     0.073 A 
ATOM     21  C   UNL     1       4.817 -25.184  21.806  1.00  0.00     0.014 A 
ATOM     22  C   UNL     1       6.079 -26.636  23.238  1.00  0.00     0.075 A 
ATOM     23  C   UNL     1       7.173 -26.912  24.031  1.00  0.00     0.058 A 
ATOM     24  C   UNL     1       3.833 -26.161  21.717  1.00  0.00     0.021 A 
ATOM     25  N   UNL     1       5.130 -27.586  23.154  1.00  0.00    -0.256 NA
ATOM     26  C   UNL     1       4.036 -27.339  22.401  1.00  0.00     0.112 A 
BRANCH  20  27
ATOM     27  C   UNL     1       9.357 -26.234  25.038  1.00  0.00     0.005 A 
ATOM     28  C   UNL     1      10.619 -25.486  24.908  1.00  0.00     0.029 A 
ATOM     29  C   UNL     1       9.260 -27.219  25.964  1.00  0.00     0.058 A 
ATOM     30  C   UNL     1      11.654 -25.772  25.716  1.00  0.00     0.093 A 
ATOM     31  C   UNL     1      10.352 -27.518  26.828  1.00  0.00     0.137 A 
ATOM     32  N   UNL     1      11.514 -26.775  26.666  1.00  0.00    -0.307 N 
ATOM     33  N   UNL     1      10.480 -28.401  27.797  1.00  0.00    -0.237 NA
ATOM     34  C   UNL     1      12.413 -27.237  27.592  1.00  0.00     0.113 A 
ATOM     35  C   UNL     1      11.755 -28.233  28.275  1.00  0.00     0.132 A 
ENDBRANCH  20  27
ENDBRANCH   4  17
TORSDOF 5
ENDMDL
MODEL 5
REMARK VINA RESULT:   -10.279      2.254      3.404
REMARK INTER + INTRA:         -14.078
REMARK INTER:                 -13.571
REMARK INTRA:                  -0.507
REMARK UNBOUND:                -0.794
REMARK SMILES CS(=O)(=O)N1CC(CC#N)(n2ccc(-c3nc(-c4ccn5ccnc5c4)cc4ncccc34)n2)C1
REMARK SMILES IDX 11 1 12 2 13 3 14 4 34 5 7 6 5 7 6 8 35 9 2 10 3 11 4 12
REMARK SMILES IDX 1 13 8 14 9 15 10 16 15 17 16 18 33 19 17 20 32 21 28 22
REMARK SMILES IDX 27 23 31 24 29 25 30 26 18 27 19 28 26 29 20 30 25 31 21 32
REMARK SMILES IDX 24 33 22 34 23 35
REMARK H PARENT
ROOT
ATOM      1  N   UNL     1       6.466 -22.774  21.330  1.00  0.00    -0.262 N 
ATOM      2  C   UNL     1       7.814 -22.707  21.148  1.00  0.00     0.110 A 
ATOM      3  C   UNL     1       8.330 -23.779  21.836  1.00  0.00     0.052 A 
ATOM      4  C   UNL     1       7.213 -24.457  22.403  1.00  0.00     0.111 A 
ATOM      5  N   UNL     1       6.072 -23.836  22.051  1.00  0.00    -0.171 NA
ENDROOT
BRANCH   1   6
ATOM      6  C   UNL     1       5.480 -21.861  20.717  1.00  0.00     0.103 C 
ATOM      7  N   UNL     1       5.063 -19.762  20.771  1.00  0.00    -0.197 NA
ATOM      8  C   UNL     1       4.903 -20.874  21.768  1.00  0.00     0.135 C 
ATOM      9  C   UNL     1       6.110 -20.589  20.090  1.00  0.00     0.135 C 
BRANCH   7  10
ATOM     10  S   UNL     1       5.250 -18.143  21.231  1.00  0.00     0.211 S 
ATOM     11  O   UNL     1       4.040 -17.743  21.914  1.00  0.00    -0.213 OA
ATOM     12  O   UNL     1       6.551 -18.019  21.854  1.00  0.00    -0.213 OA
ATOM     13  C   UNL     1       5.300 -17.342  19.644  1.00  0.00     0.176 C 
ENDBRANCH   7  10
BRANCH   6  14
ATOM     14  C   UNL     1       4.417 -22.611  19.924  1.00  0.00     0.153 C 
ATOM     15  C   UNL     1       5.027 -23.470  18.903  1.00  0.00     0.065 C 
ATOM     16  N   UNL     1       5.553 -24.111  18.092  1.00  0.00    -0.198 NA
ENDBRANCH   6  14
ENDBRANCH   1   6
BRANCH   4  17
ATOM     17  C   UNL     1       7.266 -25.695  23.204  1.00  0.00     0.101 A 
ATOM     18  N   UNL     1       8.326 -25.728  24.055  1.00  0.00    -0.245 NA
ATOM     19  C   UNL     1       6.319 -26.742  23.110  1.00  0.00     0.028 A 
ATOM     20  C   UNL     1       8.494 -26.819  24.826  1.00  0.00     0.073 A 
ATOM     21  C   UNL     1       5.158 -26.778  22.296  1.00  0.00     0.014 A 
ATOM     22  C   UNL     1       6.539 -27.866  23.927  1.00  0.00     0.075 A 
ATOM     23  C   UNL     1       7.628 -27.896  24.773  1.00  0.00     0.058 A 
ATOM     24  C   UNL     1       4.313 -27.882  22.306  1.00  0.00     0.021 A 
ATOM     25  N   UNL     1       5.726 -28.937  23.938  1.00  0.00    -0.256 NA
ATOM     26  C   UNL     1       4.640 -28.931  23.135  1.00  0.00     0.112 A 
BRANCH  20  27
ATOM     27  C   UNL     1       9.663 -26.817  25.739  1.00  0.00     0.005 A 
ATOM     28  C   UNL     1      10.677 -25.749  25.733  1.00  0.00     0.029 A 
ATOM     29  C   UNL     1       9.800 -27.858  26.598  1.00  0.00     0.058 A 
ATOM     30  C   UNL     1      11.715 -25.804  26.584  1.00  0.00     0.093 A 
ATOM     31  C   UNL     1      10.894 -27.915  27.507  1.00  0.00     0.137 A 
ATOM     32  N   UNL     1      11.814 -26.876  27.462  1.00  0.00    -0.307 N 
ATOM     33  N   UNL     1      11.217 -28.800  28.428  1.00  0.00    -0.237 NA
ATOM     34  C   UNL     1      12.764 -27.145  28.412  1.00  0.00     0.113 A 
ATOM     35  C   UNL     1      12.375 -28.330  28.993  1.00  0.00     0.132 A 
ENDBRANCH  20  27
ENDBRANCH   4  17
TORSDOF 5
ENDMDL
MODEL 6
REMARK VINA RESULT:   -10.122      3.023      6.031
REMARK INTER + INTRA:         -13.876
REMARK INTER:                 -13.123
REMARK INTRA:                  -0.752
REMARK UNBOUND:                -0.794
REMARK SMILES CS(=O)(=O)N1CC(CC#N)(n2ccc(-c3nc(-c4ccn5ccnc5c4)cc4ncccc34)n2)C1
REMARK SMILES IDX 11 1 12 2 13 3 14 4 34 5 7 6 5 7 6 8 35 9 2 10 3 11 4 12
REMARK SMILES IDX 1 13 8 14 9 15 10 16 15 17 16 18 33 19 17 20 32 21 28 22
REMARK SMILES IDX 27 23 31 24 29 25 30 26 18 27 19 28 26 29 20 30 25 31 21 32
REMARK SMILES IDX 24 33 22 34 23 35
REMARK H PARENT
ROOT
ATOM      1  N   UNL     1       3.903 -18.329  20.615  1.00  0.00    -0.262 N 
ATOM      2  C   UNL     1       3.585 -18.424  21.936  1.00  0.00     0.110 A 
ATOM      3  C   UNL     1       4.294 -19.502  22.407  1.00  0.00     0.052 A 
ATOM      4  C   UNL     1       5.034 -20.002  21.297  1.00  0.00     0.111 A 
ATOM      5  N   UNL     1       4.800 -19.243  20.211  1.00  0.00    -0.171 NA
ENDROOT
BRANCH   1   6
ATOM      6  C   UNL     1       3.430 -17.271  19.700  1.00  0.00     0.103 C 
ATOM      7  N   UNL     1       1.600 -16.211  19.367  1.00  0.00    -0.197 NA
ATOM      8  C   UNL     1       2.038 -17.624  19.110  1.00  0.00     0.135 C 
ATOM      9  C   UNL     1       2.668 -16.122  20.414  1.00  0.00     0.135 C 
BRANCH   7  10
ATOM     10  S   UNL     1      -0.023 -15.784  19.596  1.00  0.00     0.211 S 
ATOM     11  O   UNL     1      -0.729 -16.973  20.020  1.00  0.00    -0.213 OA
ATOM     12  O   UNL     1      -0.044 -14.568  20.379  1.00  0.00    -0.213 OA
ATOM     13  C   UNL     1      -0.511 -15.398  17.929  1.00  0.00     0.176 C 
ENDBRANCH   7  10
BRANCH   6  14
ATOM     14  C   UNL     1       4.473 -16.907  18.651  1.00  0.00     0.153 C 
ATOM     15  C   UNL     1       5.502 -16.024  19.213  1.00  0.00     0.065 C 
ATOM     16  N   UNL     1       6.274 -15.305  19.692  1.00  0.00    -0.198 NA
ENDBRANCH   6  14
ENDBRANCH   1   6
BRANCH   4  17
ATOM     17  C   UNL     1       5.974 -21.139  21.324  1.00  0.00     0.101 A 
ATOM     18  N   UNL     1       5.352 -22.334  21.511  1.00  0.00    -0.245 NA
ATOM     19  C   UNL     1       7.374 -21.014  21.168  1.00  0.00     0.028 A 
ATOM     20  C   UNL     1       6.109 -23.446  21.576  1.00  0.00     0.073 A 
ATOM     21  C   UNL     1       8.107 -19.825  20.918  1.00  0.00     0.014 A 
ATOM     22  C   UNL     1       8.127 -22.200  21.251  1.00  0.00     0.075 A 
ATOM     23  C   UNL     1       7.486 -23.404  21.460  1.00  0.00     0.058 A 
ATOM     24  C   UNL     1       9.490 -19.854  20.788  1.00  0.00     0.021 A 
ATOM     25  N   UNL     1       9.465 -22.232  21.128  1.00  0.00    -0.256 NA
ATOM     26  C   UNL     1      10.120 -21.073  20.904  1.00  0.00     0.112 A 
BRANCH  20  27
ATOM     27  C   UNL     1       5.393 -24.729  21.782  1.00  0.00     0.005 A 
ATOM     28  C   UNL     1       5.884 -25.777  22.692  1.00  0.00     0.029 A 
ATOM     29  C   UNL     1       4.250 -24.938  21.083  1.00  0.00     0.058 A 
ATOM     30  C   UNL     1       5.192 -26.920  22.836  1.00  0.00     0.093 A 
ATOM     31  C   UNL     1       3.509 -26.143  21.240  1.00  0.00     0.137 A 
ATOM     32  N   UNL     1       4.016 -27.093  22.118  1.00  0.00    -0.307 N 
ATOM     33  N   UNL     1       2.383 -26.553  20.692  1.00  0.00    -0.237 NA
ATOM     34  C   UNL     1       3.147 -28.152  22.102  1.00  0.00     0.113 A 
ATOM     35  C   UNL     1       2.153 -27.796  21.221  1.00  0.00     0.132 A 
ENDBRANCH  20  27
ENDBRANCH   4  17
TORSDOF 5
ENDMDL
MODEL 7
REMARK VINA RESULT:    -9.796      2.600      3.394
REMARK INTER + INTRA:         -13.453
REMARK INTER:                 -13.151
REMARK INTRA:                  -0.302
REMARK UNBOUND:                -0.794
REMARK SMILES CS(=O)(=O)N1CC(CC#N)(n2ccc(-c3nc(-c4ccn5ccnc5c4)cc4ncccc34)n2)C1
REMARK SMILES IDX 11 1 12 2 13 3 14 4 34 5 7 6 5 7 6 8 35 9 2 10 3 11 4 12
REMARK SMILES IDX 1 13 8 14 9 15 10 16 15 17 16 18 33 19 17 20 32 21 28 22
REMARK SMILES IDX 27 23 31 24 29 25 30 26 18 27 19 28 26 29 20 30 25 31 21 32
REMARK SMILES IDX 24 33 22 34 23 35
REMARK H PARENT
ROOT
ATOM      1  N   UNL     1       5.259 -21.836  21.001  1.00  0.00    -0.262 N 
ATOM      2  C   UNL     1       4.162 -22.205  20.283  1.00  0.00     0.110 A 
ATOM      3  C   UNL     1       3.986 -23.543  20.544  1.00  0.00     0.052 A 
ATOM      4  C   UNL     1       5.025 -23.907  21.449  1.00  0.00     0.111 A 
ATOM      5  N   UNL     1       5.778 -22.830  21.740  1.00  0.00    -0.171 NA
ENDROOT
BRANCH   1   6
ATOM      6  C   UNL     1       5.795 -20.463  21.089  1.00  0.00     0.103 C 
ATOM      7  N   UNL     1       7.644 -19.551  21.664  1.00  0.00    -0.197 NA
ATOM      8  C   UNL     1       6.550 -20.241  22.427  1.00  0.00     0.135 C 
ATOM      9  C   UNL     1       7.196 -20.296  20.444  1.00  0.00     0.135 C 
BRANCH   7  10
ATOM     10  S   UNL     1       9.240 -19.474  22.225  1.00  0.00     0.211 S 
ATOM     11  O   UNL     1       9.254 -18.596  23.374  1.00  0.00    -0.213 OA
ATOM     12  O   UNL     1       9.738 -20.831  22.298  1.00  0.00    -0.213 OA
ATOM     13  C   UNL     1      10.038 -18.646  20.867  1.00  0.00     0.176 C 
ENDBRANCH   7  10
BRANCH   6  14
ATOM     14  C   UNL     1       4.732 -19.411  20.797  1.00  0.00     0.153 C 
ATOM     15  C   UNL     1       4.949 -18.790  19.484  1.00  0.00     0.065 C 
ATOM     16  N   UNL     1       5.177 -18.308  18.455  1.00  0.00    -0.198 NA
ENDBRANCH   6  14
ENDBRANCH   1   6
BRANCH   4  17
ATOM     17  C   UNL     1       5.226 -25.241  22.045  1.00  0.00     0.101 A 
ATOM     18  N   UNL     1       6.355 -25.317  22.800  1.00  0.00    -0.245 NA
ATOM     19  C   UNL     1       4.345 -26.333  21.862  1.00  0.00     0.028 A 
ATOM     20  C   UNL     1       6.659 -26.494  23.380  1.00  0.00     0.073 A 
ATOM     21  C   UNL     1       3.124 -26.338  21.141  1.00  0.00     0.014 A 
ATOM     22  C   UNL     1       4.707 -27.545  22.479  1.00  0.00     0.075 A 
ATOM     23  C   UNL     1       5.863 -27.615  23.227  1.00  0.00     0.058 A 
ATOM     24  C   UNL     1       2.357 -27.493  21.044  1.00  0.00     0.021 A 
ATOM     25  N   UNL     1       3.968 -28.666  22.386  1.00  0.00    -0.256 NA
ATOM     26  C   UNL     1       2.821 -28.625  21.677  1.00  0.00     0.112 A 
BRANCH  20  27
ATOM     27  C   UNL     1       7.898 -26.536  24.193  1.00  0.00     0.005 A 
ATOM     28  C   UNL     1       8.925 -25.482  24.136  1.00  0.00     0.029 A 
ATOM     29  C   UNL     1       8.089 -27.606  25.005  1.00  0.00     0.058 A 
ATOM     30  C   UNL     1      10.028 -25.577  24.897  1.00  0.00     0.093 A 
ATOM     31  C   UNL     1       9.253 -27.706  25.819  1.00  0.00     0.137 A 
ATOM     32  N   UNL     1      10.182 -26.678  25.730  1.00  0.00    -0.307 N 
ATOM     33  N   UNL     1       9.637 -28.624  26.682  1.00  0.00    -0.237 NA
ATOM     34  C   UNL     1      11.203 -26.990  26.590  1.00  0.00     0.113 A 
ATOM     35  C   UNL     1      10.844 -28.188  27.164  1.00  0.00     0.132 A 
ENDBRANCH  20  27
ENDBRANCH   4  17
TORSDOF 5
ENDMDL
MODEL 8
REMARK VINA RESULT:    -9.717      2.401      3.280
REMARK INTER + INTRA:         -13.352
REMARK INTER:                 -12.578
REMARK INTRA:                  -0.773
REMARK UNBOUND:                -0.794
REMARK SMILES CS(=O)(=O)N1CC(CC#N)(n2ccc(-c3nc(-c4ccn5ccnc5c4)cc4ncccc34)n2)C1
REMARK SMILES IDX 11 1 12 2 13 3 14 4 34 5 7 6 5 7 6 8 35 9 2 10 3 11 4 12
REMARK SMILES IDX 1 13 8 14 9 15 10 16 15 17 16 18 33 19 17 20 32 21 28 22
REMARK SMILES IDX 27 23 31 24 29 25 30 26 18 27 19 28 26 29 20 30 25 31 21 32
REMARK SMILES IDX 24 33 22 34 23 35
REMARK H PARENT
ROOT
ATOM      1  N   UNL     1       7.061 -21.152  21.709  1.00  0.00    -0.262 N 
ATOM      2  C   UNL     1       8.015 -21.557  20.825  1.00  0.00     0.110 A 
ATOM      3  C   UNL     1       8.260 -22.874  21.129  1.00  0.00     0.052 A 
ATOM      4  C   UNL     1       7.395 -23.196  22.214  1.00  0.00     0.111 A 
ATOM      5  N   UNL     1       6.643 -22.126  22.534  1.00  0.00    -0.171 NA
ENDROOT
BRANCH   1   6
ATOM      6  C   UNL     1       6.428 -19.818  21.724  1.00  0.00     0.103 C 
ATOM      7  N   UNL     1       6.913 -17.861  21.004  1.00  0.00    -0.197 NA
ATOM      8  C   UNL     1       7.453 -18.718  22.113  1.00  0.00     0.135 C 
ATOM      9  C   UNL     1       6.423 -19.113  20.342  1.00  0.00     0.135 C 
BRANCH   7  10
ATOM     10  S   UNL     1       7.834 -16.658  20.248  1.00  0.00     0.211 S 
ATOM     11  O   UNL     1       9.215 -17.086  20.277  1.00  0.00    -0.213 OA
ATOM     12  O   UNL     1       7.168 -16.321  19.008  1.00  0.00    -0.213 OA
ATOM     13  C   UNL     1       7.633 -15.308  21.389  1.00  0.00     0.176 C 
ENDBRANCH   7  10
BRANCH   6  14
ATOM     14  C   UNL     1       5.152 -19.796  22.555  1.00  0.00     0.153 C 
ATOM     15  C   UNL     1       3.972 -20.044  21.719  1.00  0.00     0.065 C 
ATOM     16  N   UNL     1       3.068 -20.215  21.014  1.00  0.00    -0.198 NA
ENDBRANCH   6  14
ENDBRANCH   1   6
BRANCH   4  17
ATOM     17  C   UNL     1       7.274 -24.515  22.864  1.00  0.00     0.101 A 
ATOM     18  N   UNL     1       8.330 -24.806  23.669  1.00  0.00    -0.245 NA
ATOM     19  C   UNL     1       6.178 -25.391  22.681  1.00  0.00     0.028 A 
ATOM     20  C   UNL     1       8.344 -25.994  24.302  1.00  0.00     0.073 A 
ATOM     21  C   UNL     1       5.012 -25.158  21.908  1.00  0.00     0.014 A 
ATOM     22  C   UNL     1       6.239 -26.626  23.355  1.00  0.00     0.075 A 
ATOM     23  C   UNL     1       7.325 -26.917  24.155  1.00  0.00     0.058 A 
ATOM     24  C   UNL     1       4.011 -26.118  21.819  1.00  0.00     0.021 A 
ATOM     25  N   UNL     1       5.274 -27.558  23.269  1.00  0.00    -0.256 NA
ATOM     26  C   UNL     1       4.189 -27.296  22.510  1.00  0.00     0.112 A 
BRANCH  20  27
ATOM     27  C   UNL     1       9.515 -26.274  25.170  1.00  0.00     0.005 A 
ATOM     28  C   UNL     1      10.794 -25.556  25.038  1.00  0.00     0.029 A 
ATOM     29  C   UNL     1       9.392 -27.247  26.106  1.00  0.00     0.058 A 
ATOM     30  C   UNL     1      11.819 -25.856  25.853  1.00  0.00     0.093 A 
ATOM     31  C   UNL     1      10.473 -27.562  26.977  1.00  0.00     0.137 A 
ATOM     32  N   UNL     1      11.653 -26.846  26.813  1.00  0.00    -0.307 N 
ATOM     33  N   UNL     1      10.579 -28.437  27.956  1.00  0.00    -0.237 NA
ATOM     34  C   UNL     1      12.537 -27.318  27.748  1.00  0.00     0.113 A 
ATOM     35  C   UNL     1      11.854 -28.292  28.438  1.00  0.00     0.132 A 
ENDBRANCH  20  27
ENDBRANCH   4  17
TORSDOF 5
ENDMDL
MODEL 9
REMARK VINA RESULT:    -9.664      4.798      9.067
REMARK INTER + INTRA:         -13.283
REMARK INTER:                 -12.780
REMARK INTRA:                  -0.503
REMARK UNBOUND:                -0.794
REMARK SMILES CS(=O)(=O)N1CC(CC#N)(n2ccc(-c3nc(-c4ccn5ccnc5c4)cc4ncccc34)n2)C1
REMARK SMILES IDX 11 1 12 2 13 3 14 4 34 5 7 6 5 7 6 8 35 9 2 10 3 11 4 12
REMARK SMILES IDX 1 13 8 14 9 15 10 16 15 17 16 18 33 19 17 20 32 21 28 22
REMARK SMILES IDX 27 23 31 24 29 25 30 26 18 27 19 28 26 29 20 30 25 31 21 32
REMARK SMILES IDX 24 33 22 34 23 35
REMARK H PARENT
ROOT
ATOM      1  N   UNL     1       9.865 -25.789  25.356  1.00  0.00    -0.262 N 
ATOM      2  C   UNL     1      10.430 -24.868  24.526  1.00  0.00     0.110 A 
ATOM      3  C   UNL     1       9.467 -24.579  23.590  1.00  0.00     0.052 A 
ATOM      4  C   UNL     1       8.332 -25.368  23.936  1.00  0.00     0.111 A 
ATOM      5  N   UNL     1       8.592 -26.083  25.047  1.00  0.00    -0.171 NA
ENDROOT
BRANCH   1   6
ATOM      6  C   UNL     1      10.505 -26.352  26.562  1.00  0.00     0.103 C 
ATOM      7  N   UNL     1      11.124 -25.621  28.476  1.00  0.00    -0.197 NA
ATOM      8  C   UNL     1      11.638 -25.424  27.078  1.00  0.00     0.135 C 
ATOM      9  C   UNL     1       9.792 -25.968  27.885  1.00  0.00     0.135 C 
BRANCH   7  10
ATOM     10  S   UNL     1      11.376 -24.488  29.709  1.00  0.00     0.211 S 
ATOM     11  O   UNL     1      11.054 -23.184  29.173  1.00  0.00    -0.213 OA
ATOM     12  O   UNL     1      10.735 -24.999  30.902  1.00  0.00    -0.213 OA
ATOM     13  C   UNL     1      13.139 -24.597  29.917  1.00  0.00     0.176 C 
ENDBRANCH   7  10
BRANCH   6  14
ATOM     14  C   UNL     1      10.934 -27.800  26.363  1.00  0.00     0.153 C 
ATOM     15  C   UNL     1      12.262 -27.878  25.742  1.00  0.00     0.065 C 
ATOM     16  N   UNL     1      13.299 -27.890  25.225  1.00  0.00    -0.198 NA
ENDBRANCH   6  14
ENDBRANCH   1   6
BRANCH   4  17
ATOM     17  C   UNL     1       7.033 -25.369  23.237  1.00  0.00     0.101 A 
ATOM     18  N   UNL     1       6.700 -24.148  22.739  1.00  0.00    -0.245 NA
ATOM     19  C   UNL     1       6.213 -26.513  23.089  1.00  0.00     0.028 A 
ATOM     20  C   UNL     1       5.523 -24.018  22.098  1.00  0.00     0.073 A 
ATOM     21  C   UNL     1       6.495 -27.833  23.525  1.00  0.00     0.014 A 
ATOM     22  C   UNL     1       4.989 -26.329  22.420  1.00  0.00     0.075 A 
ATOM     23  C   UNL     1       4.653 -25.082  21.935  1.00  0.00     0.058 A 
ATOM     24  C   UNL     1       5.589 -28.865  23.310  1.00  0.00     0.021 A 
ATOM     25  N   UNL     1       4.108 -27.324  22.212  1.00  0.00    -0.256 NA
ATOM     26  C   UNL     1       4.415 -28.561  22.657  1.00  0.00     0.112 A 
BRANCH  20  27
ATOM     27  C   UNL     1       5.196 -22.671  21.571  1.00  0.00     0.005 A 
ATOM     28  C   UNL     1       4.730 -22.446  20.192  1.00  0.00     0.029 A 
ATOM     29  C   UNL     1       5.354 -21.609  22.400  1.00  0.00     0.058 A 
ATOM     30  C   UNL     1       4.451 -21.200  19.773  1.00  0.00     0.093 A 
ATOM     31  C   UNL     1       5.050 -20.289  21.962  1.00  0.00     0.137 A 
ATOM     32  N   UNL     1       4.608 -20.139  20.654  1.00  0.00    -0.307 N 
ATOM     33  N   UNL     1       5.108 -19.129  22.584  1.00  0.00    -0.237 NA
ATOM     34  C   UNL     1       4.384 -18.800  20.463  1.00  0.00     0.113 A 
ATOM     35  C   UNL     1       4.696 -18.202  21.661  1.00  0.00     0.132 A 
ENDBRANCH  20  27
ENDBRANCH   4  17
TORSDOF 5
ENDMDL
