MODEL 9
REMARK minimizedAffinity -8.86491871
REMARK CNNscore 0.650328159
REMARK CNNaffinity 6.81150818
REMARK SMILES N#Cc1c(NC(=O)CNc2n[nH]c3ncccc23)sc2c1CCCC2
REMARK SMILES IDX 8 1 6 2 5 3 7 4 4 6 1 7 2 8 3 9 21 10 19 11 20 12 22 13
REMARK SMILES IDX 25 14 23 15 24 16 9 17 10 19 11 20 18 21 12 22 17 23 13 24
REMARK SMILES IDX 16 25 14 26 15 27
REMARK H PARENT 5 5 9 18 12 28
ROOT
ATOM      1  C   UNL     1      12.429  36.826  12.410  1.00  0.00     0.215 C 
ENDROOT
BRANCH   1   2
ATOM      2  C   UNL     1      13.850  36.406  12.005  1.00  0.00     0.244 C 
ATOM      3  N   UNL     1      14.308  35.323  12.740  1.00  0.00    -0.315 N 
ATOM      4  O   UNL     1      14.448  37.024  11.131  1.00  0.00    -0.273 OA
ATOM      5  H   UNL     1      13.665  35.028  13.478  1.00  0.00     0.170 HD
BRANCH   3   6
ATOM      6  C   UNL     1      15.537  34.693  12.646  1.00  0.00     0.114 A 
ATOM      7  N   UNL     1      15.654  34.434  16.183  1.00  0.00    -0.192 NA
ATOM      8  C   UNL     1      15.955  34.340  15.065  1.00  0.00     0.103 C 
ATOM      9  C   UNL     1      16.322  34.223  13.684  1.00  0.00     0.090 A 
ATOM     10  C   UNL     1      17.533  33.611  13.220  1.00  0.00    -0.014 A 
ATOM     11  S   UNL     1      16.249  34.374  11.133  1.00  0.00    -0.121 S 
ATOM     12  C   UNL     1      17.593  33.616  11.840  1.00  0.00     0.011 A 
ATOM     13  C   UNL     1      18.615  32.990  14.058  1.00  0.00     0.038 C 
ATOM     14  C   UNL     1      18.711  33.053  11.017  1.00  0.00     0.047 C 
ATOM     15  C   UNL     1      19.895  32.731  13.243  1.00  0.00     0.005 C 
ATOM     16  C   UNL     1      19.582  32.118  11.870  1.00  0.00     0.006 C 
ENDBRANCH   3   6
ENDBRANCH   1   2
BRANCH   1  17
ATOM     17  N   UNL     1      12.155  38.229  12.074  1.00  0.00    -0.359 N 
ATOM     18  H   UNL     1      12.332  38.848  12.867  1.00  0.00     0.162 HD
BRANCH  17  19
ATOM     19  C   UNL     1      11.032  38.598  11.412  1.00  0.00     0.157 A 
ATOM     20  N   UNL     1       9.839  38.297  11.925  1.00  0.00    -0.156 NA
ATOM     21  C   UNL     1      10.926  39.339  10.199  1.00  0.00     0.063 A 
ATOM     22  N   UNL     1       8.969  38.830  11.047  1.00  0.00    -0.259 N 
ATOM     23  C   UNL     1      11.764  39.941   9.244  1.00  0.00     0.017 A 
ATOM     24  C   UNL     1       9.559  39.458   9.995  1.00  0.00     0.157 A 
ATOM     25  C   UNL     1      11.156  40.596   8.169  1.00  0.00     0.021 A 
ATOM     26  N   UNL     1       8.921  40.071   8.981  1.00  0.00    -0.237 NA
ATOM     27  C   UNL     1       9.770  40.627   8.090  1.00  0.00     0.113 A 
ATOM     28  H   UNL     1       7.976  38.744  11.218  1.00  0.00     0.192 HD
ENDBRANCH  17  19
ENDBRANCH   1  17
TORSDOF 4
ENDMDL
