MODEL 3
REMARK minimizedAffinity -8.84996796
REMARK CNNscore 0.78930831
REMARK CNNaffinity 6.54683924
REMARK SMILES N#Cc1c(NC(=O)CNc2n[nH]c3ncccc23)sc2c1CCCC2
REMARK SMILES IDX 8 1 6 2 5 3 7 4 4 6 1 7 2 8 3 9 21 10 19 11 20 12 22 13
REMARK SMILES IDX 25 14 23 15 24 16 9 17 10 19 11 20 18 21 12 22 17 23 13 24
REMARK SMILES IDX 16 25 14 26 15 27
REMARK H PARENT 5 5 9 18 12 28
ROOT
ATOM      1  C   UNL     1      12.786  35.301  12.670  1.00  0.00     0.215 C 
ENDROOT
BRANCH   1   2
ATOM      2  C   UNL     1      13.338  36.634  12.143  1.00  0.00     0.244 C 
ATOM      3  N   UNL     1      13.155  36.775  10.777  1.00  0.00    -0.315 N 
ATOM      4  O   UNL     1      13.881  37.421  12.911  1.00  0.00    -0.273 OA
ATOM      5  H   UNL     1      12.755  35.947  10.330  1.00  0.00     0.170 HD
BRANCH   3   6
ATOM      6  C   UNL     1      13.535  37.838   9.975  1.00  0.00     0.114 A 
ATOM      7  N   UNL     1      10.121  38.691   9.517  1.00  0.00    -0.192 NA
ATOM      8  C   UNL     1      11.280  38.719   9.439  1.00  0.00     0.103 C 
ATOM      9  C   UNL     1      12.710  38.755   9.347  1.00  0.00     0.090 A 
ATOM     10  C   UNL     1      13.447  39.733   8.602  1.00  0.00    -0.014 A 
ATOM     11  S   UNL     1      15.178  38.177   9.683  1.00  0.00    -0.121 S 
ATOM     12  C   UNL     1      14.807  39.530   8.729  1.00  0.00     0.011 A 
ATOM     13  C   UNL     1      12.888  40.877   7.803  1.00  0.00     0.038 C 
ATOM     14  C   UNL     1      15.874  40.369   8.093  1.00  0.00     0.047 C 
ATOM     15  C   UNL     1      13.950  41.512   6.889  1.00  0.00     0.005 C 
ATOM     16  C   UNL     1      15.288  41.707   7.618  1.00  0.00     0.006 C 
ENDBRANCH   3   6
ENDBRANCH   1   2
BRANCH   1  17
ATOM     17  N   UNL     1      13.851  34.435  13.192  1.00  0.00    -0.359 N 
ATOM     18  H   UNL     1      13.750  33.473  12.864  1.00  0.00     0.162 HD
BRANCH  17  19
ATOM     19  C   UNL     1      14.220  34.465  14.495  1.00  0.00     0.157 A 
ATOM     20  N   UNL     1      13.284  34.450  15.444  1.00  0.00    -0.156 NA
ATOM     21  C   UNL     1      15.538  34.469  15.039  1.00  0.00     0.063 A 
ATOM     22  N   UNL     1      13.989  34.453  16.591  1.00  0.00    -0.259 N 
ATOM     23  C   UNL     1      16.872  34.457  14.595  1.00  0.00     0.017 A 
ATOM     24  C   UNL     1      15.336  34.471  16.411  1.00  0.00     0.157 A 
ATOM     25  C   UNL     1      17.878  34.461  15.565  1.00  0.00     0.021 A 
ATOM     26  N   UNL     1      16.264  34.479  17.387  1.00  0.00    -0.237 NA
ATOM     27  C   UNL     1      17.526  34.474  16.907  1.00  0.00     0.113 A 
ATOM     28  H   UNL     1      13.498  34.435  17.474  1.00  0.00     0.192 HD
ENDBRANCH  17  19
ENDBRANCH   1  17
TORSDOF 4
ENDMDL
