MODEL 7
REMARK VINA RESULT:    -8.598      5.759     10.123
REMARK INTER + INTRA:         -12.601
REMARK INTER:                 -12.045
REMARK INTRA:                  -0.556
REMARK UNBOUND:                -0.736
REMARK SMILES O=C(O)Cc1csc2cc(OCc3cc(-c4ccc(Cl)cc4)on3)ccc12
REMARK SMILES IDX 5 1 6 2 7 3 8 4 9 5 10 6 25 7 26 8 27 9 4 10 2 11 1 12 3 13
REMARK SMILES IDX 11 15 12 16 13 17 14 18 24 19 15 20 23 21 16 22 17 23 22 24
REMARK SMILES IDX 18 25 21 26 19 27 20 28
REMARK H PARENT 3 14
ROOT
ATOM      1  C   UNL     1      37.032   3.428 138.817  1.00  0.00    -0.018 A 
ATOM      2  C   UNL     1      37.637   4.641 138.548  1.00  0.00     0.070 A 
ATOM      3  S   UNL     1      37.730   4.980 136.883  1.00  0.00    -0.143 S 
ATOM      4  C   UNL     1      36.953   3.504 136.464  1.00  0.00     0.038 A 
ATOM      5  C   UNL     1      36.653   3.047 135.165  1.00  0.00     0.066 A 
ATOM      6  C   UNL     1      36.012   1.817 134.995  1.00  0.00     0.121 A 
ATOM      7  C   UNL     1      35.680   1.054 136.105  1.00  0.00     0.047 A 
ATOM      8  C   UNL     1      35.981   1.512 137.396  1.00  0.00     0.014 A 
ATOM      9  C   UNL     1      36.628   2.757 137.598  1.00  0.00    -0.004 A 
ENDROOT
BRANCH   1  10
ATOM     10  C   UNL     1      36.833   2.881 140.204  1.00  0.00     0.159 C 
BRANCH  10  11
ATOM     11  C   UNL     1      36.199   3.879 141.144  1.00  0.00     0.307 C 
ATOM     12  O   UNL     1      36.745   4.698 141.862  1.00  0.00    -0.252 OA
BRANCH  11  13
ATOM     13  O   UNL     1      34.852   3.767 141.158  1.00  0.00    -0.481 OA
ATOM     14  H   UNL     1      34.595   4.153 142.023  1.00  0.00     0.296 HD
ENDBRANCH  11  13
ENDBRANCH  10  11
ENDBRANCH   1  10
BRANCH   6  15
ATOM     15  O   UNL     1      35.772   1.484 133.689  1.00  0.00    -0.487 OA
BRANCH  15  16
ATOM     16  C   UNL     1      36.701   1.964 132.708  1.00  0.00     0.289 C 
BRANCH  16  17
ATOM     17  C   UNL     1      36.198   1.741 131.320  1.00  0.00     0.122 A 
ATOM     18  C   UNL     1      34.938   1.249 130.901  1.00  0.00     0.081 A 
ATOM     19  N   UNL     1      36.987   1.998 130.269  1.00  0.00    -0.081 NA
ATOM     20  C   UNL     1      35.003   1.237 129.526  1.00  0.00     0.167 A 
ATOM     21  O   UNL     1      36.236   1.687 129.151  1.00  0.00    -0.356 OA
BRANCH  20  22
ATOM     22  C   UNL     1      34.086   0.864 128.453  1.00  0.00     0.020 A 
ATOM     23  C   UNL     1      33.283  -0.282 128.572  1.00  0.00     0.013 A 
ATOM     24  C   UNL     1      33.976   1.634 127.284  1.00  0.00     0.013 A 
ATOM     25  C   UNL     1      32.397  -0.647 127.552  1.00  0.00     0.021 A 
ATOM     26  C   UNL     1      33.090   1.271 126.264  1.00  0.00     0.021 A 
ATOM     27  C   UNL     1      32.303   0.133 126.403  1.00  0.00     0.041 A 
ATOM     28  Cl  UNL     1      31.211  -0.312 125.151  1.00  0.00    -0.084 Cl
ENDBRANCH  20  22
ENDBRANCH  16  17
ENDBRANCH  15  16
ENDBRANCH   6  15
TORSDOF 7
ENDMDL
