MODEL 6
REMARK VINA RESULT:    -8.767      4.178      9.271
REMARK INTER + INTRA:         -12.834
REMARK INTER:                 -12.186
REMARK INTRA:                  -0.648
REMARK UNBOUND:                -0.736
REMARK SMILES O=C(O)Cc1csc2cc(OCc3cc(-c4ccc(Cl)cc4)on3)ccc12
REMARK SMILES IDX 5 1 6 2 7 3 8 4 9 5 10 6 25 7 26 8 27 9 4 10 2 11 1 12 3 13
REMARK SMILES IDX 11 15 12 16 13 17 14 18 24 19 15 20 23 21 16 22 17 23 22 24
REMARK SMILES IDX 18 25 21 26 19 27 20 28
REMARK H PARENT 3 14
ROOT
ATOM      1  C   UNL     1      36.922   3.472 138.400  1.00  0.00    -0.018 A 
ATOM      2  C   UNL     1      36.169   2.314 138.421  1.00  0.00     0.070 A 
ATOM      3  S   UNL     1      36.055   1.569 136.895  1.00  0.00    -0.143 S 
ATOM      4  C   UNL     1      37.022   2.779 136.150  1.00  0.00     0.038 A 
ATOM      5  C   UNL     1      37.395   2.844 134.793  1.00  0.00     0.066 A 
ATOM      6  C   UNL     1      38.192   3.901 134.343  1.00  0.00     0.121 A 
ATOM      7  C   UNL     1      38.606   4.879 135.236  1.00  0.00     0.047 A 
ATOM      8  C   UNL     1      38.231   4.812 136.586  1.00  0.00     0.014 A 
ATOM      9  C   UNL     1      37.425   3.750 137.069  1.00  0.00    -0.004 A 
ENDROOT
BRANCH   1  10
ATOM     10  C   UNL     1      37.173   4.331 139.608  1.00  0.00     0.159 C 
BRANCH  10  11
ATOM     11  C   UNL     1      36.710   3.687 140.894  1.00  0.00     0.307 C 
ATOM     12  O   UNL     1      37.226   2.773 141.512  1.00  0.00    -0.252 OA
BRANCH  11  13
ATOM     13  O   UNL     1      35.553   4.228 141.336  1.00  0.00    -0.481 OA
ATOM     14  H   UNL     1      35.408   3.790 142.202  1.00  0.00     0.296 HD
ENDBRANCH  11  13
ENDBRANCH  10  11
ENDBRANCH   1  10
BRANCH   6  15
ATOM     15  O   UNL     1      38.490   3.852 133.008  1.00  0.00    -0.487 OA
BRANCH  15  16
ATOM     16  C   UNL     1      39.690   4.508 132.579  1.00  0.00     0.289 C 
BRANCH  16  17
ATOM     17  C   UNL     1      40.841   3.559 132.516  1.00  0.00     0.122 A 
ATOM     18  C   UNL     1      40.823   2.146 132.421  1.00  0.00     0.081 A 
ATOM     19  N   UNL     1      42.097   4.020 132.567  1.00  0.00    -0.081 NA
ATOM     20  C   UNL     1      42.149   1.776 132.403  1.00  0.00     0.167 A 
ATOM     21  O   UNL     1      42.910   2.905 132.491  1.00  0.00    -0.356 OA
BRANCH  20  22
ATOM     22  C   UNL     1      42.864   0.506 132.317  1.00  0.00     0.020 A 
ATOM     23  C   UNL     1      43.711   0.096 133.360  1.00  0.00     0.013 A 
ATOM     24  C   UNL     1      42.725  -0.338 131.203  1.00  0.00     0.013 A 
ATOM     25  C   UNL     1      44.398  -1.121 133.290  1.00  0.00     0.021 A 
ATOM     26  C   UNL     1      43.411  -1.555 131.132  1.00  0.00     0.021 A 
ATOM     27  C   UNL     1      44.243  -1.942 132.176  1.00  0.00     0.041 A 
ATOM     28  Cl  UNL     1      45.084  -3.440 132.092  1.00  0.00    -0.084 Cl
ENDBRANCH  20  22
ENDBRANCH  16  17
ENDBRANCH  15  16
ENDBRANCH   6  15
TORSDOF 7
ENDMDL
