MODEL 9
REMARK minimizedAffinity -8.39825344
REMARK CNNscore 0.178704798
REMARK CNNaffinity 6.29369354
REMARK SMILES Cc1ccc(NC(=O)c2ccc(CN3CCN(C)CC3)cc2)cc1Nc1nccc(-c2cccnc2)n1
REMARK SMILES IDX 6 1 7 2 8 3 5 5 2 6 3 7 24 8 4 9 23 10 1 11 25 12 26 14
REMARK SMILES IDX 27 15 37 16 28 17 30 18 29 19 31 20 32 21 36 22 33 23 35 24
REMARK SMILES IDX 34 25 9 26 10 27 22 28 11 29 21 30 12 31 13 32 14 33 15 34
REMARK SMILES IDX 20 35 16 36 19 37 17 38 18 39
REMARK H PARENT 6 4 25 13
ROOT
ATOM      1  N   UNL     1      13.507   4.954  25.834  1.00  0.00    -0.322 N 
ATOM      2  C   UNL     1      12.390   5.769  25.808  1.00  0.00     0.255 C 
ATOM      3  O   UNL     1      11.316   5.585  26.364  1.00  0.00    -0.269 OA
ATOM      4  H   UNL     1      14.353   5.325  25.424  1.00  0.00     0.170 HD
ENDROOT
BRANCH   1   5
ATOM      5  C   UNL     1      13.647   3.714  26.495  1.00  0.00     0.043 A 
ATOM      6  C   UNL     1      13.739   1.265  27.881  1.00  0.00    -0.027 A 
ATOM      7  C   UNL     1      14.843   1.723  27.140  1.00  0.00     0.008 A 
ATOM      8  C   UNL     1      12.553   2.033  27.925  1.00  0.00     0.046 A 
ATOM      9  C   UNL     1      14.797   2.937  26.454  1.00  0.00     0.026 A 
ATOM     10  C   UNL     1      12.544   3.258  27.235  1.00  0.00     0.052 A 
ATOM     11  C   UNL     1      13.858  -0.061  28.584  1.00  0.00     0.046 C 
BRANCH   8  12
ATOM     12  N   UNL     1      11.444   1.569  28.649  1.00  0.00    -0.324 N 
ATOM     13  H   UNL     1      10.761   1.023  28.148  1.00  0.00     0.170 HD
BRANCH  12  14
ATOM     14  C   UNL     1      10.981   1.745  29.951  1.00  0.00     0.227 A 
ATOM     15  N   UNL     1      11.648   1.290  31.018  1.00  0.00    -0.221 NA
ATOM     16  N   UNL     1       9.814   2.404  30.046  1.00  0.00    -0.213 NA
ATOM     17  C   UNL     1      11.106   1.514  32.226  1.00  0.00     0.117 A 
ATOM     18  C   UNL     1       9.279   2.612  31.272  1.00  0.00     0.077 A 
ATOM     19  C   UNL     1       9.918   2.173  32.413  1.00  0.00     0.049 A 
BRANCH  18  20
ATOM     20  C   UNL     1       7.996   3.337  31.291  1.00  0.00     0.019 A 
ATOM     21  C   UNL     1       7.244   3.605  30.136  1.00  0.00     0.013 A 
ATOM     22  C   UNL     1       7.450   3.812  32.488  1.00  0.00     0.121 A 
ATOM     23  C   UNL     1       6.031   4.290  30.218  1.00  0.00     0.021 A 
ATOM     24  N   UNL     1       6.271   4.476  32.604  1.00  0.00    -0.264 NA
ATOM     25  C   UNL     1       5.588   4.697  31.462  1.00  0.00     0.111 A 
ENDBRANCH  18  20
ENDBRANCH  12  14
ENDBRANCH   8  12
ENDBRANCH   1   5
BRANCH   2  26
ATOM     26  C   UNL     1      12.572   7.020  25.029  1.00  0.00     0.040 A 
ATOM     27  C   UNL     1      13.808   7.672  25.085  1.00  0.00     0.014 A 
ATOM     28  C   UNL     1      11.527   7.559  24.271  1.00  0.00     0.014 A 
ATOM     29  C   UNL     1      14.010   8.845  24.356  1.00  0.00     0.006 A 
ATOM     30  C   UNL     1      11.728   8.742  23.557  1.00  0.00     0.006 A 
ATOM     31  C   UNL     1      12.973   9.391  23.585  1.00  0.00    -0.034 A 
BRANCH  31  32
ATOM     32  C   UNL     1      13.183  10.680  22.815  1.00  0.00     0.120 C 
BRANCH  32  33
ATOM     33  N   UNL     1      12.977  10.520  21.364  1.00  0.00    -0.297 NA
ATOM     34  C   UNL     1      14.010   9.637  20.781  1.00  0.00     0.100 C 
ATOM     35  C   UNL     1      13.005  11.816  20.646  1.00  0.00     0.100 C 
ATOM     36  C   UNL     1      15.417  10.272  20.660  1.00  0.00     0.099 C 
ATOM     37  C   UNL     1      14.407  12.464  20.525  1.00  0.00     0.099 C 
ATOM     38  N   UNL     1      15.456  11.581  19.977  1.00  0.00    -0.304 NA
ATOM     39  C   UNL     1      15.318  11.432  18.528  1.00  0.00     0.105 C 
ENDBRANCH  32  33
ENDBRANCH  31  32
ENDBRANCH   2  26
TORSDOF 7
ENDMDL
