MODEL 1
REMARK VINA RESULT:    -8.974      0.000      0.000
REMARK INTER + INTRA:         -17.390
REMARK INTER:                 -14.482
REMARK INTRA:                  -2.907
REMARK UNBOUND:                -2.907
REMARK SMILES CCO[C@@H](Cc1ccc(OC/C=C(/c2ccccc2)c2ccc(F)cc2)cc1)C(=O)O
REMARK SMILES IDX 6 1 7 2 8 3 9 4 27 5 28 6 5 7 4 8 3 9 2 10 1 11 29 12 30 13
REMARK SMILES IDX 31 14 10 16 11 17 12 18 13 19 14 20 15 21 19 22 16 23 18 24
REMARK SMILES IDX 17 25 20 26 21 27 26 28 22 29 25 30 23 31 24 32
REMARK H PARENT 31 15
ROOT
ATOM      1  C   UNL     1      48.168 -38.369 108.162  1.00  0.00    -0.045 A 
ATOM      2  C   UNL     1      47.464 -38.950 109.222  1.00  0.00     0.007 A 
ATOM      3  C   UNL     1      47.056 -40.283 109.151  1.00  0.00     0.047 A 
ATOM      4  C   UNL     1      47.343 -41.058 108.026  1.00  0.00     0.119 A 
ATOM      5  C   UNL     1      48.053 -40.487 106.970  1.00  0.00     0.047 A 
ATOM      6  C   UNL     1      48.463 -39.150 107.038  1.00  0.00     0.007 A 
ENDROOT
BRANCH   1   7
ATOM      7  C   UNL     1      48.627 -36.929 108.241  1.00  0.00     0.079 C 
BRANCH   7   8
ATOM      8  C   UNL     1      47.446 -35.950 108.342  1.00  0.00     0.231 C 
BRANCH   8   9
ATOM      9  O   UNL     1      47.638 -34.927 107.357  1.00  0.00    -0.366 OA
BRANCH   9  10
ATOM     10  C   UNL     1      49.000 -34.786 106.962  1.00  0.00     0.158 C 
ATOM     11  C   UNL     1      49.435 -33.365 107.261  1.00  0.00     0.035 C 
ENDBRANCH   9  10
ENDBRANCH   8   9
BRANCH   8  12
ATOM     12  C   UNL     1      47.394 -35.394 109.769  1.00  0.00     0.333 C 
ATOM     13  O   UNL     1      48.127 -34.557 110.271  1.00  0.00    -0.249 OA
BRANCH  12  14
ATOM     14  O   UNL     1      46.370 -35.902 110.492  1.00  0.00    -0.479 OA
ATOM     15  H   UNL     1      45.596 -35.382 110.191  1.00  0.00     0.296 HD
ENDBRANCH  12  14
ENDBRANCH   8  12
ENDBRANCH   7   8
ENDBRANCH   1   7
BRANCH   4  16
ATOM     16  O   UNL     1      46.885 -42.345 108.087  1.00  0.00    -0.490 OA
BRANCH  16  17
ATOM     17  C   UNL     1      45.471 -42.532 108.093  1.00  0.00     0.258 C 
BRANCH  17  18
ATOM     18  C   UNL     1      45.001 -42.405 106.672  1.00  0.00     0.023 C 
ATOM     19  C   UNL     1      44.344 -41.372 106.098  1.00  0.00    -0.012 C 
BRANCH  19  20
ATOM     20  C   UNL     1      44.041 -41.478 104.645  1.00  0.00    -0.018 A 
ATOM     21  C   UNL     1      43.104 -40.613 104.064  1.00  0.00     0.009 A 
ATOM     22  C   UNL     1      44.704 -42.405 103.826  1.00  0.00     0.009 A 
ATOM     23  C   UNL     1      42.823 -40.683 102.696  1.00  0.00     0.001 A 
ATOM     24  C   UNL     1      44.423 -42.475 102.459  1.00  0.00     0.001 A 
ATOM     25  C   UNL     1      43.482 -41.616 101.896  1.00  0.00     0.000 A 
ENDBRANCH  19  20
BRANCH  19  26
ATOM     26  C   UNL     1      43.930 -40.202 106.907  1.00  0.00    -0.018 A 
ATOM     27  C   UNL     1      42.794 -40.262 107.731  1.00  0.00     0.012 A 
ATOM     28  C   UNL     1      44.658 -39.006 106.826  1.00  0.00     0.012 A 
ATOM     29  C   UNL     1      42.406 -39.147 108.476  1.00  0.00     0.040 A 
ATOM     30  C   UNL     1      44.266 -37.892 107.571  1.00  0.00     0.040 A 
ATOM     31  C   UNL     1      43.147 -37.975 108.390  1.00  0.00     0.123 A 
ATOM     32  F   UNL     1      42.774 -36.905 109.105  1.00  0.00    -0.207 F 
ENDBRANCH  19  26
ENDBRANCH  17  18
ENDBRANCH  16  17
ENDBRANCH   4  16
TORSDOF 11
ENDMDL
MODEL 2
REMARK VINA RESULT:    -8.687      5.076      7.899
REMARK INTER + INTRA:         -16.927
REMARK INTER:                 -14.975
REMARK INTRA:                  -1.951
REMARK UNBOUND:                -2.907
REMARK SMILES CCO[C@@H](Cc1ccc(OC/C=C(/c2ccccc2)c2ccc(F)cc2)cc1)C(=O)O
REMARK SMILES IDX 6 1 7 2 8 3 9 4 27 5 28 6 5 7 4 8 3 9 2 10 1 11 29 12 30 13
REMARK SMILES IDX 31 14 10 16 11 17 12 18 13 19 14 20 15 21 19 22 16 23 18 24
REMARK SMILES IDX 17 25 20 26 21 27 26 28 22 29 25 30 23 31 24 32
REMARK H PARENT 31 15
ROOT
ATOM      1  C   UNL     1      39.524 -38.014 109.395  1.00  0.00    -0.045 A 
ATOM      2  C   UNL     1      40.547 -37.092 109.150  1.00  0.00     0.007 A 
ATOM      3  C   UNL     1      41.577 -37.403 108.261  1.00  0.00     0.047 A 
ATOM      4  C   UNL     1      41.605 -38.634 107.603  1.00  0.00     0.119 A 
ATOM      5  C   UNL     1      40.583 -39.553 107.836  1.00  0.00     0.047 A 
ATOM      6  C   UNL     1      39.547 -39.245 108.726  1.00  0.00     0.007 A 
ENDROOT
BRANCH   1   7
ATOM      7  C   UNL     1      38.394 -37.676 110.345  1.00  0.00     0.079 C 
BRANCH   7   8
ATOM      8  C   UNL     1      37.015 -37.850 109.689  1.00  0.00     0.231 C 
BRANCH   8   9
ATOM      9  O   UNL     1      36.454 -36.546 109.494  1.00  0.00    -0.366 OA
BRANCH   9  10
ATOM     10  C   UNL     1      35.998 -36.332 108.160  1.00  0.00     0.158 C 
ATOM     11  C   UNL     1      36.524 -37.460 107.294  1.00  0.00     0.035 C 
ENDBRANCH   9  10
ENDBRANCH   8   9
BRANCH   8  12
ATOM     12  C   UNL     1      36.153 -38.736 110.595  1.00  0.00     0.333 C 
ATOM     13  O   UNL     1      35.312 -38.379 111.405  1.00  0.00    -0.249 OA
BRANCH  12  14
ATOM     14  O   UNL     1      36.370 -40.055 110.397  1.00  0.00    -0.479 OA
ATOM     15  H   UNL     1      37.336 -40.152 110.534  1.00  0.00     0.296 HD
ENDBRANCH  12  14
ENDBRANCH   8  12
ENDBRANCH   7   8
ENDBRANCH   1   7
BRANCH   4  16
ATOM     16  O   UNL     1      42.671 -38.808 106.763  1.00  0.00    -0.490 OA
BRANCH  16  17
ATOM     17  C   UNL     1      42.653 -38.088 105.532  1.00  0.00     0.258 C 
BRANCH  17  18
ATOM     18  C   UNL     1      43.076 -39.043 104.453  1.00  0.00     0.023 C 
ATOM     19  C   UNL     1      42.332 -39.549 103.444  1.00  0.00    -0.012 C 
BRANCH  19  20
ATOM     20  C   UNL     1      43.018 -40.440 102.469  1.00  0.00    -0.018 A 
ATOM     21  C   UNL     1      43.470 -39.921 101.249  1.00  0.00     0.009 A 
ATOM     22  C   UNL     1      43.259 -41.792 102.760  1.00  0.00     0.009 A 
ATOM     23  C   UNL     1      44.135 -40.739 100.331  1.00  0.00     0.001 A 
ATOM     24  C   UNL     1      43.924 -42.608 101.842  1.00  0.00     0.001 A 
ATOM     25  C   UNL     1      44.360 -42.082 100.628  1.00  0.00     0.000 A 
ENDBRANCH  19  20
BRANCH  19  26
ATOM     26  C   UNL     1      40.887 -39.237 103.347  1.00  0.00    -0.018 A 
ATOM     27  C   UNL     1      40.382 -38.494 102.268  1.00  0.00     0.012 A 
ATOM     28  C   UNL     1      40.014 -39.657 104.362  1.00  0.00     0.012 A 
ATOM     29  C   UNL     1      39.020 -38.193 102.196  1.00  0.00     0.040 A 
ATOM     30  C   UNL     1      38.653 -39.353 104.288  1.00  0.00     0.040 A 
ATOM     31  C   UNL     1      38.170 -38.628 103.206  1.00  0.00     0.123 A 
ATOM     32  F   UNL     1      36.864 -38.338 103.138  1.00  0.00    -0.207 F 
ENDBRANCH  19  26
ENDBRANCH  17  18
ENDBRANCH  16  17
ENDBRANCH   4  16
TORSDOF 11
ENDMDL
MODEL 3
REMARK VINA RESULT:    -8.678      3.805      7.438
REMARK INTER + INTRA:         -16.913
REMARK INTER:                 -14.312
REMARK INTRA:                  -2.601
REMARK UNBOUND:                -2.907
REMARK SMILES CCO[C@@H](Cc1ccc(OC/C=C(/c2ccccc2)c2ccc(F)cc2)cc1)C(=O)O
REMARK SMILES IDX 6 1 7 2 8 3 9 4 27 5 28 6 5 7 4 8 3 9 2 10 1 11 29 12 30 13
REMARK SMILES IDX 31 14 10 16 11 17 12 18 13 19 14 20 15 21 19 22 16 23 18 24
REMARK SMILES IDX 17 25 20 26 21 27 26 28 22 29 25 30 23 31 24 32
REMARK H PARENT 31 15
ROOT
ATOM      1  C   UNL     1      41.780 -39.284 105.115  1.00  0.00    -0.045 A 
ATOM      2  C   UNL     1      41.307 -39.933 106.261  1.00  0.00     0.007 A 
ATOM      3  C   UNL     1      41.721 -39.517 107.527  1.00  0.00     0.047 A 
ATOM      4  C   UNL     1      42.610 -38.451 107.674  1.00  0.00     0.119 A 
ATOM      5  C   UNL     1      43.078 -37.795 106.535  1.00  0.00     0.047 A 
ATOM      6  C   UNL     1      42.665 -38.208 105.263  1.00  0.00     0.007 A 
ENDROOT
BRANCH   1   7
ATOM      7  C   UNL     1      41.322 -39.720 103.740  1.00  0.00     0.079 C 
BRANCH   7   8
ATOM      8  C   UNL     1      41.359 -38.566 102.725  1.00  0.00     0.231 C 
BRANCH   8   9
ATOM      9  O   UNL     1      40.034 -38.391 102.210  1.00  0.00    -0.366 OA
BRANCH   9  10
ATOM     10  C   UNL     1      39.024 -38.817 103.121  1.00  0.00     0.158 C 
ATOM     11  C   UNL     1      37.792 -37.963 102.894  1.00  0.00     0.035 C 
ENDBRANCH   9  10
ENDBRANCH   8   9
BRANCH   8  12
ATOM     12  C   UNL     1      42.378 -38.911 101.632  1.00  0.00     0.333 C 
ATOM     13  O   UNL     1      43.582 -39.064 101.757  1.00  0.00    -0.249 OA
BRANCH  12  14
ATOM     14  O   UNL     1      41.806 -39.090 100.421  1.00  0.00    -0.479 OA
ATOM     15  H   UNL     1      42.369 -39.773 100.000  1.00  0.00     0.296 HD
ENDBRANCH  12  14
ENDBRANCH   8  12
ENDBRANCH   7   8
ENDBRANCH   1   7
BRANCH   4  16
ATOM     16  O   UNL     1      42.932 -38.150 108.968  1.00  0.00    -0.490 OA
BRANCH  16  17
ATOM     17  C   UNL     1      43.895 -38.984 109.609  1.00  0.00     0.258 C 
BRANCH  17  18
ATOM     18  C   UNL     1      45.246 -38.588 109.082  1.00  0.00     0.023 C 
ATOM     19  C   UNL     1      46.040 -39.265 108.223  1.00  0.00    -0.012 C 
BRANCH  19  20
ATOM     20  C   UNL     1      47.316 -38.617 107.817  1.00  0.00    -0.018 A 
ATOM     21  C   UNL     1      47.539 -37.266 108.117  1.00  0.00     0.009 A 
ATOM     22  C   UNL     1      48.329 -39.341 107.169  1.00  0.00     0.009 A 
ATOM     23  C   UNL     1      48.741 -36.647 107.762  1.00  0.00     0.001 A 
ATOM     24  C   UNL     1      49.530 -38.722 106.814  1.00  0.00     0.001 A 
ATOM     25  C   UNL     1      49.734 -37.375 107.109  1.00  0.00     0.000 A 
ENDBRANCH  19  20
BRANCH  19  26
ATOM     26  C   UNL     1      45.649 -40.609 107.739  1.00  0.00    -0.018 A 
ATOM     27  C   UNL     1      45.875 -41.752 108.522  1.00  0.00     0.012 A 
ATOM     28  C   UNL     1      45.076 -40.751 106.466  1.00  0.00     0.012 A 
ATOM     29  C   UNL     1      45.515 -43.014 108.047  1.00  0.00     0.040 A 
ATOM     30  C   UNL     1      44.718 -42.015 105.992  1.00  0.00     0.040 A 
ATOM     31  C   UNL     1      44.939 -43.133 106.788  1.00  0.00     0.123 A 
ATOM     32  F   UNL     1      44.594 -44.344 106.332  1.00  0.00    -0.207 F 
ENDBRANCH  19  26
ENDBRANCH  17  18
ENDBRANCH  16  17
ENDBRANCH   4  16
TORSDOF 11
ENDMDL
MODEL 4
REMARK VINA RESULT:    -8.561      4.337      7.903
REMARK INTER + INTRA:         -16.723
REMARK INTER:                 -14.314
REMARK INTRA:                  -2.410
REMARK UNBOUND:                -2.907
REMARK SMILES CCO[C@@H](Cc1ccc(OC/C=C(/c2ccccc2)c2ccc(F)cc2)cc1)C(=O)O
REMARK SMILES IDX 6 1 7 2 8 3 9 4 27 5 28 6 5 7 4 8 3 9 2 10 1 11 29 12 30 13
REMARK SMILES IDX 31 14 10 16 11 17 12 18 13 19 14 20 15 21 19 22 16 23 18 24
REMARK SMILES IDX 17 25 20 26 21 27 26 28 22 29 25 30 23 31 24 32
REMARK H PARENT 31 15
ROOT
ATOM      1  C   UNL     1      40.943 -39.326 105.516  1.00  0.00    -0.045 A 
ATOM      2  C   UNL     1      40.530 -39.589 106.826  1.00  0.00     0.007 A 
ATOM      3  C   UNL     1      41.259 -39.094 107.908  1.00  0.00     0.047 A 
ATOM      4  C   UNL     1      42.409 -38.328 107.704  1.00  0.00     0.119 A 
ATOM      5  C   UNL     1      42.820 -38.055 106.400  1.00  0.00     0.047 A 
ATOM      6  C   UNL     1      42.091 -38.550 105.312  1.00  0.00     0.007 A 
ENDROOT
BRANCH   1   7
ATOM      7  C   UNL     1      40.146 -39.847 104.339  1.00  0.00     0.079 C 
BRANCH   7   8
ATOM      8  C   UNL     1      39.018 -38.885 103.933  1.00  0.00     0.231 C 
BRANCH   8   9
ATOM      9  O   UNL     1      37.772 -39.573 104.102  1.00  0.00    -0.366 OA
BRANCH   9  10
ATOM     10  C   UNL     1      36.745 -38.738 104.630  1.00  0.00     0.158 C 
ATOM     11  C   UNL     1      37.073 -38.445 106.081  1.00  0.00     0.035 C 
ENDBRANCH   9  10
ENDBRANCH   8   9
BRANCH   8  12
ATOM     12  C   UNL     1      39.255 -38.438 102.486  1.00  0.00     0.333 C 
ATOM     13  O   UNL     1      38.424 -38.062 101.676  1.00  0.00    -0.249 OA
BRANCH  12  14
ATOM     14  O   UNL     1      40.563 -38.448 102.143  1.00  0.00    -0.479 OA
ATOM     15  H   UNL     1      40.609 -39.123 101.433  1.00  0.00     0.296 HD
ENDBRANCH  12  14
ENDBRANCH   8  12
ENDBRANCH   7   8
ENDBRANCH   1   7
BRANCH   4  16
ATOM     16  O   UNL     1      43.026 -37.909 108.849  1.00  0.00    -0.490 OA
BRANCH  16  17
ATOM     17  C   UNL     1      43.923 -38.823 109.476  1.00  0.00     0.258 C 
BRANCH  17  18
ATOM     18  C   UNL     1      45.299 -38.529 108.947  1.00  0.00     0.023 C 
ATOM     19  C   UNL     1      46.062 -39.291 108.133  1.00  0.00    -0.012 C 
BRANCH  19  20
ATOM     20  C   UNL     1      47.376 -38.735 107.710  1.00  0.00    -0.018 A 
ATOM     21  C   UNL     1      48.247 -39.516 106.938  1.00  0.00     0.009 A 
ATOM     22  C   UNL     1      47.753 -37.423 108.035  1.00  0.00     0.009 A 
ATOM     23  C   UNL     1      49.476 -39.003 106.514  1.00  0.00     0.001 A 
ATOM     24  C   UNL     1      48.981 -36.911 107.610  1.00  0.00     0.001 A 
ATOM     25  C   UNL     1      49.842 -37.701 106.852  1.00  0.00     0.000 A 
ENDBRANCH  19  20
BRANCH  19  26
ATOM     26  C   UNL     1      45.601 -40.635 107.711  1.00  0.00    -0.018 A 
ATOM     27  C   UNL     1      45.888 -41.771 108.485  1.00  0.00     0.012 A 
ATOM     28  C   UNL     1      44.898 -40.783 106.506  1.00  0.00     0.012 A 
ATOM     29  C   UNL     1      45.461 -43.032 108.068  1.00  0.00     0.040 A 
ATOM     30  C   UNL     1      44.474 -42.046 106.091  1.00  0.00     0.040 A 
ATOM     31  C   UNL     1      44.756 -43.157 106.876  1.00  0.00     0.123 A 
ATOM     32  F   UNL     1      44.347 -44.368 106.476  1.00  0.00    -0.207 F 
ENDBRANCH  19  26
ENDBRANCH  17  18
ENDBRANCH  16  17
ENDBRANCH   4  16
TORSDOF 11
ENDMDL
MODEL 5
REMARK VINA RESULT:    -8.392      6.169      9.077
REMARK INTER + INTRA:         -16.450
REMARK INTER:                 -14.355
REMARK INTRA:                  -2.095
REMARK UNBOUND:                -2.907
REMARK SMILES CCO[C@@H](Cc1ccc(OC/C=C(/c2ccccc2)c2ccc(F)cc2)cc1)C(=O)O
REMARK SMILES IDX 6 1 7 2 8 3 9 4 27 5 28 6 5 7 4 8 3 9 2 10 1 11 29 12 30 13
REMARK SMILES IDX 31 14 10 16 11 17 12 18 13 19 14 20 15 21 19 22 16 23 18 24
REMARK SMILES IDX 17 25 20 26 21 27 26 28 22 29 25 30 23 31 24 32
REMARK H PARENT 31 15
ROOT
ATOM      1  C   UNL     1      36.285 -37.549 104.667  1.00  0.00    -0.045 A 
ATOM      2  C   UNL     1      37.080 -38.687 104.493  1.00  0.00     0.007 A 
ATOM      3  C   UNL     1      37.896 -38.810 103.367  1.00  0.00     0.047 A 
ATOM      4  C   UNL     1      37.934 -37.804 102.400  1.00  0.00     0.119 A 
ATOM      5  C   UNL     1      37.151 -36.664 102.573  1.00  0.00     0.047 A 
ATOM      6  C   UNL     1      36.331 -36.537 103.701  1.00  0.00     0.007 A 
ENDROOT
BRANCH   1   7
ATOM      7  C   UNL     1      35.410 -37.403 105.895  1.00  0.00     0.079 C 
BRANCH   7   8
ATOM      8  C   UNL     1      36.195 -36.869 107.103  1.00  0.00     0.231 C 
BRANCH   8   9
ATOM      9  O   UNL     1      35.931 -37.733 108.215  1.00  0.00    -0.366 OA
BRANCH   9  10
ATOM     10  C   UNL     1      37.116 -38.131 108.902  1.00  0.00     0.158 C 
ATOM     11  C   UNL     1      38.259 -38.140 107.906  1.00  0.00     0.035 C 
ENDBRANCH   9  10
ENDBRANCH   8   9
BRANCH   8  12
ATOM     12  C   UNL     1      35.764 -35.421 107.364  1.00  0.00     0.333 C 
ATOM     13  O   UNL     1      35.308 -34.623 106.561  1.00  0.00    -0.249 OA
BRANCH  12  14
ATOM     14  O   UNL     1      35.891 -35.061 108.661  1.00  0.00    -0.479 OA
ATOM     15  H   UNL     1      35.126 -35.494 109.095  1.00  0.00     0.296 HD
ENDBRANCH  12  14
ENDBRANCH   8  12
ENDBRANCH   7   8
ENDBRANCH   1   7
BRANCH   4  16
ATOM     16  O   UNL     1      38.774 -38.055 101.350  1.00  0.00    -0.490 OA
BRANCH  16  17
ATOM     17  C   UNL     1      40.026 -37.372 101.341  1.00  0.00     0.258 C 
BRANCH  17  18
ATOM     18  C   UNL     1      41.053 -38.334 100.815  1.00  0.00     0.023 C 
ATOM     19  C   UNL     1      41.835 -39.187 101.513  1.00  0.00    -0.012 C 
BRANCH  19  20
ATOM     20  C   UNL     1      42.738 -40.079 100.736  1.00  0.00    -0.018 A 
ATOM     21  C   UNL     1      42.789 -39.972  99.339  1.00  0.00     0.009 A 
ATOM     22  C   UNL     1      43.576 -41.005 101.375  1.00  0.00     0.009 A 
ATOM     23  C   UNL     1      43.648 -40.787  98.595  1.00  0.00     0.001 A 
ATOM     24  C   UNL     1      44.434 -41.819 100.631  1.00  0.00     0.001 A 
ATOM     25  C   UNL     1      44.468 -41.710  99.242  1.00  0.00     0.000 A 
ENDBRANCH  19  20
BRANCH  19  26
ATOM     26  C   UNL     1      41.797 -39.200 102.994  1.00  0.00    -0.018 A 
ATOM     27  C   UNL     1      40.859 -39.984 103.685  1.00  0.00     0.012 A 
ATOM     28  C   UNL     1      42.686 -38.392 103.720  1.00  0.00     0.012 A 
ATOM     29  C   UNL     1      40.825 -39.975 105.080  1.00  0.00     0.040 A 
ATOM     30  C   UNL     1      42.648 -38.383 105.116  1.00  0.00     0.040 A 
ATOM     31  C   UNL     1      41.721 -39.176 105.781  1.00  0.00     0.123 A 
ATOM     32  F   UNL     1      41.687 -39.167 107.121  1.00  0.00    -0.207 F 
ENDBRANCH  19  26
ENDBRANCH  17  18
ENDBRANCH  16  17
ENDBRANCH   4  16
TORSDOF 11
ENDMDL
MODEL 6
REMARK VINA RESULT:    -8.376      5.312      8.498
REMARK INTER + INTRA:         -16.425
REMARK INTER:                 -14.954
REMARK INTRA:                  -1.472
REMARK UNBOUND:                -2.907
REMARK SMILES CCO[C@@H](Cc1ccc(OC/C=C(/c2ccccc2)c2ccc(F)cc2)cc1)C(=O)O
REMARK SMILES IDX 6 1 7 2 8 3 9 4 27 5 28 6 5 7 4 8 3 9 2 10 1 11 29 12 30 13
REMARK SMILES IDX 31 14 10 16 11 17 12 18 13 19 14 20 15 21 19 22 16 23 18 24
REMARK SMILES IDX 17 25 20 26 21 27 26 28 22 29 25 30 23 31 24 32
REMARK H PARENT 31 15
ROOT
ATOM      1  C   UNL     1      39.361 -37.662 101.337  1.00  0.00    -0.045 A 
ATOM      2  C   UNL     1      39.009 -38.335 102.512  1.00  0.00     0.007 A 
ATOM      3  C   UNL     1      39.966 -39.065 103.219  1.00  0.00     0.047 A 
ATOM      4  C   UNL     1      41.285 -39.136 102.770  1.00  0.00     0.119 A 
ATOM      5  C   UNL     1      41.644 -38.460 101.604  1.00  0.00     0.047 A 
ATOM      6  C   UNL     1      40.687 -37.726 100.892  1.00  0.00     0.007 A 
ENDROOT
BRANCH   1   7
ATOM      7  C   UNL     1      38.331 -36.855 100.575  1.00  0.00     0.079 C 
BRANCH   7   8
ATOM      8  C   UNL     1      37.955 -35.557 101.307  1.00  0.00     0.231 C 
BRANCH   8   9
ATOM      9  O   UNL     1      36.527 -35.502 101.398  1.00  0.00    -0.366 OA
BRANCH   9  10
ATOM     10  C   UNL     1      35.993 -36.442 102.327  1.00  0.00     0.158 C 
ATOM     11  C   UNL     1      36.376 -35.997 103.724  1.00  0.00     0.035 C 
ENDBRANCH   9  10
ENDBRANCH   8   9
BRANCH   8  12
ATOM     12  C   UNL     1      38.546 -34.373 100.534  1.00  0.00     0.333 C 
ATOM     13  O   UNL     1      38.250 -33.992  99.413  1.00  0.00    -0.249 OA
BRANCH  12  14
ATOM     14  O   UNL     1      39.468 -33.689 101.248  1.00  0.00    -0.479 OA
ATOM     15  H   UNL     1      39.377 -32.770 100.919  1.00  0.00     0.296 HD
ENDBRANCH  12  14
ENDBRANCH   8  12
ENDBRANCH   7   8
ENDBRANCH   1   7
BRANCH   4  16
ATOM     16  O   UNL     1      42.117 -39.885 103.556  1.00  0.00    -0.490 OA
BRANCH  16  17
ATOM     17  C   UNL     1      42.943 -39.183 104.481  1.00  0.00     0.258 C 
BRANCH  17  18
ATOM     18  C   UNL     1      43.664 -40.214 105.304  1.00  0.00     0.023 C 
ATOM     19  C   UNL     1      43.433 -40.572 106.586  1.00  0.00    -0.012 C 
BRANCH  19  20
ATOM     20  C   UNL     1      44.263 -41.670 107.150  1.00  0.00    -0.018 A 
ATOM     21  C   UNL     1      45.524 -41.384 107.689  1.00  0.00     0.009 A 
ATOM     22  C   UNL     1      43.794 -42.992 107.192  1.00  0.00     0.009 A 
ATOM     23  C   UNL     1      46.308 -42.401 108.243  1.00  0.00     0.001 A 
ATOM     24  C   UNL     1      44.578 -44.007 107.745  1.00  0.00     0.001 A 
ATOM     25  C   UNL     1      45.835 -43.712 108.268  1.00  0.00     0.000 A 
ENDBRANCH  19  20
BRANCH  19  26
ATOM     26  C   UNL     1      42.406 -39.867 107.390  1.00  0.00    -0.018 A 
ATOM     27  C   UNL     1      41.059 -39.863 106.994  1.00  0.00     0.012 A 
ATOM     28  C   UNL     1      42.786 -39.164 108.543  1.00  0.00     0.012 A 
ATOM     29  C   UNL     1      40.105 -39.182 107.751  1.00  0.00     0.040 A 
ATOM     30  C   UNL     1      41.829 -38.482 109.298  1.00  0.00     0.040 A 
ATOM     31  C   UNL     1      40.499 -38.500 108.897  1.00  0.00     0.123 A 
ATOM     32  F   UNL     1      39.583 -37.846 109.623  1.00  0.00    -0.207 F 
ENDBRANCH  19  26
ENDBRANCH  17  18
ENDBRANCH  16  17
ENDBRANCH   4  16
TORSDOF 11
ENDMDL
MODEL 7
REMARK VINA RESULT:    -8.360      5.443      8.893
REMARK INTER + INTRA:         -16.398
REMARK INTER:                 -14.957
REMARK INTRA:                  -1.442
REMARK UNBOUND:                -2.907
REMARK SMILES CCO[C@@H](Cc1ccc(OC/C=C(/c2ccccc2)c2ccc(F)cc2)cc1)C(=O)O
REMARK SMILES IDX 6 1 7 2 8 3 9 4 27 5 28 6 5 7 4 8 3 9 2 10 1 11 29 12 30 13
REMARK SMILES IDX 31 14 10 16 11 17 12 18 13 19 14 20 15 21 19 22 16 23 18 24
REMARK SMILES IDX 17 25 20 26 21 27 26 28 22 29 25 30 23 31 24 32
REMARK H PARENT 31 15
ROOT
ATOM      1  C   UNL     1      39.557 -38.047 101.668  1.00  0.00    -0.045 A 
ATOM      2  C   UNL     1      40.888 -38.053 101.236  1.00  0.00     0.007 A 
ATOM      3  C   UNL     1      41.876 -38.668 102.006  1.00  0.00     0.047 A 
ATOM      4  C   UNL     1      41.556 -39.288 103.215  1.00  0.00     0.119 A 
ATOM      5  C   UNL     1      40.230 -39.294 103.646  1.00  0.00     0.047 A 
ATOM      6  C   UNL     1      39.236 -38.677 102.876  1.00  0.00     0.007 A 
ENDROOT
BRANCH   1   7
ATOM      7  C   UNL     1      38.479 -37.396 100.828  1.00  0.00     0.079 C 
BRANCH   7   8
ATOM      8  C   UNL     1      37.753 -36.274 101.588  1.00  0.00     0.231 C 
BRANCH   8   9
ATOM      9  O   UNL     1      36.378 -36.653 101.724  1.00  0.00    -0.366 OA
BRANCH   9  10
ATOM     10  C   UNL     1      36.051 -37.089 103.041  1.00  0.00     0.158 C 
ATOM     11  C   UNL     1      36.382 -35.967 104.006  1.00  0.00     0.035 C 
ENDBRANCH   9  10
ENDBRANCH   8   9
BRANCH   8  12
ATOM     12  C   UNL     1      37.932 -34.965 100.811  1.00  0.00     0.333 C 
ATOM     13  O   UNL     1      37.363 -34.622  99.787  1.00  0.00    -0.249 OA
BRANCH  12  14
ATOM     14  O   UNL     1      38.805 -34.119 101.402  1.00  0.00    -0.479 OA
ATOM     15  H   UNL     1      39.117 -34.622 102.184  1.00  0.00     0.296 HD
ENDBRANCH  12  14
ENDBRANCH   8  12
ENDBRANCH   7   8
ENDBRANCH   1   7
BRANCH   4  16
ATOM     16  O   UNL     1      42.619 -39.850 103.868  1.00  0.00    -0.490 OA
BRANCH  16  17
ATOM     17  C   UNL     1      43.161 -39.126 104.970  1.00  0.00     0.258 C 
BRANCH  17  18
ATOM     18  C   UNL     1      42.084 -39.030 106.013  1.00  0.00     0.023 C 
ATOM     19  C   UNL     1      42.213 -39.086 107.357  1.00  0.00    -0.012 C 
BRANCH  19  20
ATOM     20  C   UNL     1      40.980 -38.908 108.170  1.00  0.00    -0.018 A 
ATOM     21  C   UNL     1      39.730 -38.849 107.539  1.00  0.00     0.009 A 
ATOM     22  C   UNL     1      41.033 -38.836 109.571  1.00  0.00     0.009 A 
ATOM     23  C   UNL     1      38.560 -38.704 108.289  1.00  0.00     0.001 A 
ATOM     24  C   UNL     1      39.863 -38.691 110.320  1.00  0.00     0.001 A 
ATOM     25  C   UNL     1      38.628 -38.623 109.679  1.00  0.00     0.000 A 
ENDBRANCH  19  20
BRANCH  19  26
ATOM     26  C   UNL     1      43.535 -39.343 107.974  1.00  0.00    -0.018 A 
ATOM     27  C   UNL     1      44.361 -38.280 108.376  1.00  0.00     0.012 A 
ATOM     28  C   UNL     1      43.987 -40.662 108.130  1.00  0.00     0.012 A 
ATOM     29  C   UNL     1      45.611 -38.535 108.942  1.00  0.00     0.040 A 
ATOM     30  C   UNL     1      45.239 -40.914 108.695  1.00  0.00     0.040 A 
ATOM     31  C   UNL     1      46.036 -39.849 109.098  1.00  0.00     0.123 A 
ATOM     32  F   UNL     1      47.236 -40.094 109.641  1.00  0.00    -0.207 F 
ENDBRANCH  19  26
ENDBRANCH  17  18
ENDBRANCH  16  17
ENDBRANCH   4  16
TORSDOF 11
ENDMDL
MODEL 8
REMARK VINA RESULT:    -8.342      5.069      8.481
REMARK INTER + INTRA:         -16.371
REMARK INTER:                 -14.626
REMARK INTRA:                  -1.745
REMARK UNBOUND:                -2.907
REMARK SMILES CCO[C@@H](Cc1ccc(OC/C=C(/c2ccccc2)c2ccc(F)cc2)cc1)C(=O)O
REMARK SMILES IDX 6 1 7 2 8 3 9 4 27 5 28 6 5 7 4 8 3 9 2 10 1 11 29 12 30 13
REMARK SMILES IDX 31 14 10 16 11 17 12 18 13 19 14 20 15 21 19 22 16 23 18 24
REMARK SMILES IDX 17 25 20 26 21 27 26 28 22 29 25 30 23 31 24 32
REMARK H PARENT 31 15
ROOT
ATOM      1  C   UNL     1      39.854 -38.203 101.671  1.00  0.00    -0.045 A 
ATOM      2  C   UNL     1      39.715 -38.767 102.943  1.00  0.00     0.007 A 
ATOM      3  C   UNL     1      40.831 -39.266 103.618  1.00  0.00     0.047 A 
ATOM      4  C   UNL     1      42.100 -39.209 103.038  1.00  0.00     0.119 A 
ATOM      5  C   UNL     1      42.245 -38.639 101.774  1.00  0.00     0.047 A 
ATOM      6  C   UNL     1      41.128 -38.138 101.094  1.00  0.00     0.007 A 
ENDROOT
BRANCH   1   7
ATOM      7  C   UNL     1      38.649 -37.646 100.942  1.00  0.00     0.079 C 
BRANCH   7   8
ATOM      8  C   UNL     1      37.871 -36.635 101.798  1.00  0.00     0.231 C 
BRANCH   8   9
ATOM      9  O   UNL     1      36.584 -37.198 102.081  1.00  0.00    -0.366 OA
BRANCH   9  10
ATOM     10  C   UNL     1      36.292 -37.243 103.476  1.00  0.00     0.158 C 
ATOM     11  C   UNL     1      36.168 -38.697 103.887  1.00  0.00     0.035 C 
ENDBRANCH   9  10
ENDBRANCH   8   9
BRANCH   8  12
ATOM     12  C   UNL     1      37.782 -35.312 101.031  1.00  0.00     0.333 C 
ATOM     13  O   UNL     1      36.972 -35.000 100.172  1.00  0.00    -0.249 OA
BRANCH  12  14
ATOM     14  O   UNL     1      38.713 -34.414 101.425  1.00  0.00    -0.479 OA
ATOM     15  H   UNL     1      39.545 -34.932 101.426  1.00  0.00     0.296 HD
ENDBRANCH  12  14
ENDBRANCH   8  12
ENDBRANCH   7   8
ENDBRANCH   1   7
BRANCH   4  16
ATOM     16  O   UNL     1      43.103 -39.733 103.807  1.00  0.00    -0.490 OA
BRANCH  16  17
ATOM     17  C   UNL     1      42.754 -40.177 105.116  1.00  0.00     0.258 C 
BRANCH  17  18
ATOM     18  C   UNL     1      44.004 -40.132 105.948  1.00  0.00     0.023 C 
ATOM     19  C   UNL     1      44.172 -39.602 107.180  1.00  0.00    -0.012 C 
BRANCH  19  20
ATOM     20  C   UNL     1      45.513 -39.743 107.809  1.00  0.00    -0.018 A 
ATOM     21  C   UNL     1      46.117 -38.634 108.417  1.00  0.00     0.009 A 
ATOM     22  C   UNL     1      46.177 -40.979 107.844  1.00  0.00     0.009 A 
ATOM     23  C   UNL     1      47.367 -38.754 109.031  1.00  0.00     0.001 A 
ATOM     24  C   UNL     1      47.426 -41.097 108.458  1.00  0.00     0.001 A 
ATOM     25  C   UNL     1      48.021 -39.985 109.050  1.00  0.00     0.000 A 
ENDBRANCH  19  20
BRANCH  19  26
ATOM     26  C   UNL     1      43.057 -38.891 107.849  1.00  0.00    -0.018 A 
ATOM     27  C   UNL     1      42.277 -39.531 108.826  1.00  0.00     0.012 A 
ATOM     28  C   UNL     1      42.752 -37.572 107.481  1.00  0.00     0.012 A 
ATOM     29  C   UNL     1      41.221 -38.854 109.437  1.00  0.00     0.040 A 
ATOM     30  C   UNL     1      41.694 -36.898 108.093  1.00  0.00     0.040 A 
ATOM     31  C   UNL     1      40.941 -37.544 109.066  1.00  0.00     0.123 A 
ATOM     32  F   UNL     1      39.926 -36.895 109.652  1.00  0.00    -0.207 F 
ENDBRANCH  19  26
ENDBRANCH  17  18
ENDBRANCH  16  17
ENDBRANCH   4  16
TORSDOF 11
ENDMDL
MODEL 9
REMARK VINA RESULT:    -8.247      3.068      7.149
REMARK INTER + INTRA:         -16.216
REMARK INTER:                 -14.226
REMARK INTRA:                  -1.990
REMARK UNBOUND:                -2.907
REMARK SMILES CCO[C@@H](Cc1ccc(OC/C=C(/c2ccccc2)c2ccc(F)cc2)cc1)C(=O)O
REMARK SMILES IDX 6 1 7 2 8 3 9 4 27 5 28 6 5 7 4 8 3 9 2 10 1 11 29 12 30 13
REMARK SMILES IDX 31 14 10 16 11 17 12 18 13 19 14 20 15 21 19 22 16 23 18 24
REMARK SMILES IDX 17 25 20 26 21 27 26 28 22 29 25 30 23 31 24 32
REMARK H PARENT 31 15
ROOT
ATOM      1  C   UNL     1      43.865 -41.552 103.650  1.00  0.00    -0.045 A 
ATOM      2  C   UNL     1      45.046 -42.299 103.575  1.00  0.00     0.007 A 
ATOM      3  C   UNL     1      45.750 -42.621 104.736  1.00  0.00     0.047 A 
ATOM      4  C   UNL     1      45.291 -42.207 105.987  1.00  0.00     0.119 A 
ATOM      5  C   UNL     1      44.111 -41.470 106.069  1.00  0.00     0.047 A 
ATOM      6  C   UNL     1      43.401 -41.145 104.906  1.00  0.00     0.007 A 
ENDROOT
BRANCH   1   7
ATOM      7  C   UNL     1      43.088 -41.214 102.395  1.00  0.00     0.079 C 
BRANCH   7   8
ATOM      8  C   UNL     1      43.944 -40.449 101.373  1.00  0.00     0.231 C 
BRANCH   8   9
ATOM      9  O   UNL     1      43.540 -39.075 101.402  1.00  0.00    -0.366 OA
BRANCH   9  10
ATOM     10  C   UNL     1      42.241 -38.891 101.961  1.00  0.00     0.158 C 
ATOM     11  C   UNL     1      41.376 -38.197 100.928  1.00  0.00     0.035 C 
ENDBRANCH   9  10
ENDBRANCH   8   9
BRANCH   8  12
ATOM     12  C   UNL     1      43.751 -41.094  99.996  1.00  0.00     0.333 C 
ATOM     13  O   UNL     1      42.993 -40.740  99.106  1.00  0.00    -0.249 OA
BRANCH  12  14
ATOM     14  O   UNL     1      44.572 -42.148  99.790  1.00  0.00    -0.479 OA
ATOM     15  H   UNL     1      44.933 -41.986  98.894  1.00  0.00     0.296 HD
ENDBRANCH  12  14
ENDBRANCH   8  12
ENDBRANCH   7   8
ENDBRANCH   1   7
BRANCH   4  16
ATOM     16  O   UNL     1      46.078 -42.590 107.039  1.00  0.00    -0.490 OA
BRANCH  16  17
ATOM     17  C   UNL     1      45.983 -41.820 108.236  1.00  0.00     0.258 C 
BRANCH  17  18
ATOM     18  C   UNL     1      46.873 -40.622 108.066  1.00  0.00     0.023 C 
ATOM     19  C   UNL     1      46.528 -39.316 108.070  1.00  0.00    -0.012 C 
BRANCH  19  20
ATOM     20  C   UNL     1      47.624 -38.318 107.936  1.00  0.00    -0.018 A 
ATOM     21  C   UNL     1      48.817 -38.676 107.292  1.00  0.00     0.009 A 
ATOM     22  C   UNL     1      47.478 -37.005 108.406  1.00  0.00     0.009 A 
ATOM     23  C   UNL     1      49.848 -37.745 107.138  1.00  0.00     0.001 A 
ATOM     24  C   UNL     1      48.509 -36.075 108.252  1.00  0.00     0.001 A 
ATOM     25  C   UNL     1      49.694 -36.446 107.619  1.00  0.00     0.000 A 
ENDBRANCH  19  20
BRANCH  19  26
ATOM     26  C   UNL     1      45.106 -38.915 108.179  1.00  0.00    -0.018 A 
ATOM     27  C   UNL     1      44.472 -38.217 107.138  1.00  0.00     0.012 A 
ATOM     28  C   UNL     1      44.389 -39.204 109.349  1.00  0.00     0.012 A 
ATOM     29  C   UNL     1      43.136 -37.832 107.260  1.00  0.00     0.040 A 
ATOM     30  C   UNL     1      43.053 -38.816 109.469  1.00  0.00     0.040 A 
ATOM     31  C   UNL     1      42.439 -38.137 108.423  1.00  0.00     0.123 A 
ATOM     32  F   UNL     1      41.157 -37.767 108.540  1.00  0.00    -0.207 F 
ENDBRANCH  19  26
ENDBRANCH  17  18
ENDBRANCH  16  17
ENDBRANCH   4  16
TORSDOF 11
ENDMDL
