MODEL 1
REMARK VINA RESULT:   -10.216      0.000      0.000
REMARK INTER + INTRA:         -13.922
REMARK INTER:                 -13.799
REMARK INTRA:                  -0.124
REMARK UNBOUND:                -0.124
REMARK SMILES N#CCC1(n2ccc(-c3nc(-c4cn[nH]n4)cc4ncccc34)n2)CN(CC(F)(F)F)C1
REMARK SMILES IDX 5 1 6 2 7 3 8 4 24 5 4 6 25 7 32 8 26 9 3 10 1 11 2 12 27 13
REMARK SMILES IDX 28 14 29 15 30 16 31 17 9 18 10 19 23 20 11 21 22 22 18 23
REMARK SMILES IDX 17 24 21 25 19 26 20 27 12 28 13 29 16 30 14 31 15 32
REMARK H PARENT 15 33
ROOT
ATOM      1  N   UNL     1      -3.340  24.309 -28.306  1.00  0.00    -0.262 N 
ATOM      2  C   UNL     1      -3.514  25.120 -27.223  1.00  0.00     0.110 A 
ATOM      3  C   UNL     1      -3.923  26.331 -27.726  1.00  0.00     0.052 A 
ATOM      4  C   UNL     1      -4.002  26.160 -29.136  1.00  0.00     0.111 A 
ATOM      5  N   UNL     1      -3.690  24.894 -29.468  1.00  0.00    -0.171 NA
ENDROOT
BRANCH   1   6
ATOM      6  C   UNL     1      -3.010  22.856 -28.257  1.00  0.00     0.101 C 
ATOM      7  C   UNL     1      -4.262  21.985 -28.580  1.00  0.00     0.118 C 
ATOM      8  C   UNL     1      -2.455  22.268 -29.588  1.00  0.00     0.118 C 
ATOM      9  N   UNL     1      -3.846  21.990 -30.002  1.00  0.00    -0.290 NA
BRANCH   6  10
ATOM     10  C   UNL     1      -2.292  22.500 -26.963  1.00  0.00     0.153 C 
ATOM     11  N   UNL     1      -0.188  24.037 -26.623  1.00  0.00    -0.198 NA
ATOM     12  C   UNL     1      -1.123  23.362 -26.748  1.00  0.00     0.065 C 
ENDBRANCH   6  10
BRANCH   9  13
ATOM     13  C   UNL     1      -3.967  20.643 -30.606  1.00  0.00     0.200 C 
BRANCH  13  14
ATOM     14  C   UNL     1      -4.914  20.536 -31.814  1.00  0.00     0.401 C 
ATOM     15  F   UNL     1      -6.198  20.354 -31.441  1.00  0.00    -0.170 F 
ATOM     16  F   UNL     1      -4.562  19.516 -32.629  1.00  0.00    -0.170 F 
ATOM     17  F   UNL     1      -4.860  21.672 -32.549  1.00  0.00    -0.170 F 
ENDBRANCH  13  14
ENDBRANCH   9  13
ENDBRANCH   1   6
BRANCH   4  18
ATOM     18  C   UNL     1      -4.437  27.174 -30.112  1.00  0.00     0.101 A 
ATOM     19  N   UNL     1      -4.107  28.441 -29.746  1.00  0.00    -0.243 NA
ATOM     20  C   UNL     1      -5.123  26.864 -31.309  1.00  0.00     0.028 A 
ATOM     21  C   UNL     1      -4.488  29.448 -30.560  1.00  0.00     0.095 A 
ATOM     22  C   UNL     1      -5.457  25.571 -31.788  1.00  0.00     0.014 A 
ATOM     23  C   UNL     1      -5.499  27.947 -32.124  1.00  0.00     0.075 A 
ATOM     24  C   UNL     1      -5.181  29.233 -31.738  1.00  0.00     0.059 A 
ATOM     25  C   UNL     1      -6.135  25.410 -32.989  1.00  0.00     0.021 A 
ATOM     26  N   UNL     1      -6.158  27.794 -33.286  1.00  0.00    -0.256 NA
ATOM     27  C   UNL     1      -6.464  26.544 -33.695  1.00  0.00     0.112 A 
BRANCH  21  28
ATOM     28  C   UNL     1      -4.127  30.795 -30.124  1.00  0.00     0.131 A 
ATOM     29  C   UNL     1      -3.062  31.175 -29.273  1.00  0.00     0.167 A 
ATOM     30  N   UNL     1      -4.787  31.911 -30.491  1.00  0.00    -0.154 NA
ATOM     31  N   UNL     1      -3.044  32.500 -29.103  1.00  0.00    -0.164 NA
ATOM     32  N   UNL     1      -4.093  32.868 -29.852  1.00  0.00    -0.197 N 
ATOM     33  H   UNL     1      -4.357  33.848 -29.934  1.00  0.00     0.214 HD
ENDBRANCH  21  28
ENDBRANCH   4  18
TORSDOF 6
ENDMDL
MODEL 2
REMARK VINA RESULT:   -10.135      3.788      5.035
REMARK INTER + INTRA:         -13.814
REMARK INTER:                 -12.964
REMARK INTRA:                  -0.849
REMARK UNBOUND:                -0.124
REMARK SMILES N#CCC1(n2ccc(-c3nc(-c4cn[nH]n4)cc4ncccc34)n2)CN(CC(F)(F)F)C1
REMARK SMILES IDX 5 1 6 2 7 3 8 4 24 5 4 6 25 7 32 8 26 9 3 10 1 11 2 12 27 13
REMARK SMILES IDX 28 14 29 15 30 16 31 17 9 18 10 19 23 20 11 21 22 22 18 23
REMARK SMILES IDX 17 24 21 25 19 26 20 27 12 28 13 29 16 30 14 31 15 32
REMARK H PARENT 15 33
ROOT
ATOM      1  N   UNL     1      -2.423  23.716 -28.163  1.00  0.00    -0.262 N 
ATOM      2  C   UNL     1      -1.913  22.936 -29.159  1.00  0.00     0.110 A 
ATOM      3  C   UNL     1      -2.542  23.342 -30.311  1.00  0.00     0.052 A 
ATOM      4  C   UNL     1      -3.404  24.406 -29.928  1.00  0.00     0.111 A 
ATOM      5  N   UNL     1      -3.278  24.655 -28.612  1.00  0.00    -0.171 NA
ENDROOT
BRANCH   1   6
ATOM      6  C   UNL     1      -1.961  23.724 -26.746  1.00  0.00     0.101 C 
ATOM      7  C   UNL     1      -0.494  24.238 -26.635  1.00  0.00     0.118 C 
ATOM      8  C   UNL     1      -2.307  25.021 -25.956  1.00  0.00     0.118 C 
ATOM      9  N   UNL     1      -1.032  25.603 -26.426  1.00  0.00    -0.290 NA
BRANCH   6  10
ATOM     10  C   UNL     1      -2.229  22.384 -26.074  1.00  0.00     0.153 C 
ATOM     11  N   UNL     1      -0.350  21.837 -24.322  1.00  0.00    -0.198 NA
ATOM     12  C   UNL     1      -1.198  22.071 -25.078  1.00  0.00     0.065 C 
ENDBRANCH   6  10
BRANCH   9  13
ATOM     13  C   UNL     1      -0.324  26.301 -25.329  1.00  0.00     0.200 C 
BRANCH  13  14
ATOM     14  C   UNL     1       0.449  27.568 -25.735  1.00  0.00     0.401 C 
ATOM     15  F   UNL     1       0.788  28.323 -24.669  1.00  0.00    -0.170 F 
ATOM     16  F   UNL     1      -0.271  28.335 -26.585  1.00  0.00    -0.170 F 
ATOM     17  F   UNL     1       1.594  27.228 -26.375  1.00  0.00    -0.170 F 
ENDBRANCH  13  14
ENDBRANCH   9  13
ENDBRANCH   1   6
BRANCH   4  18
ATOM     18  C   UNL     1      -4.263  25.195 -30.827  1.00  0.00     0.101 A 
ATOM     19  N   UNL     1      -4.199  26.532 -30.589  1.00  0.00    -0.243 NA
ATOM     20  C   UNL     1      -5.070  24.624 -31.838  1.00  0.00     0.028 A 
ATOM     21  C   UNL     1      -4.974  27.342 -31.341  1.00  0.00     0.095 A 
ATOM     22  C   UNL     1      -5.154  23.251 -32.185  1.00  0.00     0.014 A 
ATOM     23  C   UNL     1      -5.860  25.508 -32.595  1.00  0.00     0.075 A 
ATOM     24  C   UNL     1      -5.808  26.862 -32.336  1.00  0.00     0.059 A 
ATOM     25  C   UNL     1      -5.991  22.825 -33.208  1.00  0.00     0.021 A 
ATOM     26  N   UNL     1      -6.674  25.097 -33.584  1.00  0.00    -0.256 NA
ATOM     27  C   UNL     1      -6.728  23.779 -33.871  1.00  0.00     0.112 A 
BRANCH  21  28
ATOM     28  C   UNL     1      -4.887  28.769 -31.044  1.00  0.00     0.131 A 
ATOM     29  C   UNL     1      -3.944  29.427 -30.219  1.00  0.00     0.167 A 
ATOM     30  N   UNL     1      -5.729  29.698 -31.538  1.00  0.00    -0.154 NA
ATOM     31  N   UNL     1      -4.179  30.742 -30.191  1.00  0.00    -0.164 NA
ATOM     32  N   UNL     1      -5.250  30.828 -30.992  1.00  0.00    -0.197 N 
ATOM     33  H   UNL     1      -5.689  31.727 -31.182  1.00  0.00     0.214 HD
ENDBRANCH  21  28
ENDBRANCH   4  18
TORSDOF 6
ENDMDL
MODEL 3
REMARK VINA RESULT:   -10.025      4.628      8.368
REMARK INTER + INTRA:         -13.665
REMARK INTER:                 -12.969
REMARK INTRA:                  -0.696
REMARK UNBOUND:                -0.124
REMARK SMILES N#CCC1(n2ccc(-c3nc(-c4cn[nH]n4)cc4ncccc34)n2)CN(CC(F)(F)F)C1
REMARK SMILES IDX 5 1 6 2 7 3 8 4 24 5 4 6 25 7 32 8 26 9 3 10 1 11 2 12 27 13
REMARK SMILES IDX 28 14 29 15 30 16 31 17 9 18 10 19 23 20 11 21 22 22 18 23
REMARK SMILES IDX 17 24 21 25 19 26 20 27 12 28 13 29 16 30 14 31 15 32
REMARK H PARENT 15 33
ROOT
ATOM      1  N   UNL     1      -3.692  29.310 -28.512  1.00  0.00    -0.262 N 
ATOM      2  C   UNL     1      -3.510  28.503 -27.428  1.00  0.00     0.110 A 
ATOM      3  C   UNL     1      -3.716  27.221 -27.879  1.00  0.00     0.052 A 
ATOM      4  C   UNL     1      -3.990  27.338 -29.270  1.00  0.00     0.111 A 
ATOM      5  N   UNL     1      -3.919  28.627 -29.651  1.00  0.00    -0.171 NA
ENDROOT
BRANCH   1   6
ATOM      6  C   UNL     1      -3.461  30.783 -28.545  1.00  0.00     0.101 C 
ATOM      7  C   UNL     1      -4.807  31.560 -28.660  1.00  0.00     0.118 C 
ATOM      8  C   UNL     1      -3.374  31.459 -27.145  1.00  0.00     0.118 C 
ATOM      9  N   UNL     1      -4.840  31.638 -27.180  1.00  0.00    -0.290 NA
BRANCH   6  10
ATOM     10  C   UNL     1      -2.412  31.151 -29.584  1.00  0.00     0.153 C 
ATOM     11  N   UNL     1      -0.041  31.354 -28.470  1.00  0.00    -0.198 NA
ATOM     12  C   UNL     1      -1.077  31.250 -28.981  1.00  0.00     0.065 C 
ENDBRANCH   6  10
BRANCH   9  13
ATOM     13  C   UNL     1      -5.228  32.991 -26.718  1.00  0.00     0.200 C 
BRANCH  13  14
ATOM     14  C   UNL     1      -5.938  33.051 -25.355  1.00  0.00     0.401 C 
ATOM     15  F   UNL     1      -7.094  33.745 -25.412  1.00  0.00    -0.170 F 
ATOM     16  F   UNL     1      -5.151  33.618 -24.412  1.00  0.00    -0.170 F 
ATOM     17  F   UNL     1      -6.235  31.800 -24.929  1.00  0.00    -0.170 F 
ENDBRANCH  13  14
ENDBRANCH   9  13
ENDBRANCH   1   6
BRANCH   4  18
ATOM     18  C   UNL     1      -4.239  26.226 -30.203  1.00  0.00     0.101 A 
ATOM     19  N   UNL     1      -3.687  25.053 -29.794  1.00  0.00    -0.243 NA
ATOM     20  C   UNL     1      -4.981  26.361 -31.400  1.00  0.00     0.028 A 
ATOM     21  C   UNL     1      -3.833  23.977 -30.596  1.00  0.00     0.095 A 
ATOM     22  C   UNL     1      -5.631  27.531 -31.870  1.00  0.00     0.014 A 
ATOM     23  C   UNL     1      -5.105  25.212 -32.202  1.00  0.00     0.075 A 
ATOM     24  C   UNL     1      -4.525  24.029 -31.794  1.00  0.00     0.059 A 
ATOM     25  C   UNL     1      -6.331  27.522 -33.070  1.00  0.00     0.021 A 
ATOM     26  N   UNL     1      -5.780  25.202 -33.365  1.00  0.00    -0.256 NA
ATOM     27  C   UNL     1      -6.374  26.342 -33.778  1.00  0.00     0.112 A 
BRANCH  21  28
ATOM     28  C   UNL     1      -3.213  22.741 -30.128  1.00  0.00     0.131 A 
ATOM     29  C   UNL     1      -2.048  22.600 -29.337  1.00  0.00     0.167 A 
ATOM     30  N   UNL     1      -3.687  21.508 -30.396  1.00  0.00    -0.154 NA
ATOM     31  N   UNL     1      -1.788  21.310 -29.106  1.00  0.00    -0.164 NA
ATOM     32  N   UNL     1      -2.798  20.723 -29.764  1.00  0.00    -0.197 N 
ATOM     33  H   UNL     1      -2.889  19.710 -29.783  1.00  0.00     0.214 HD
ENDBRANCH  21  28
ENDBRANCH   4  18
TORSDOF 6
ENDMDL
MODEL 4
REMARK VINA RESULT:    -9.892      3.902      7.921
REMARK INTER + INTRA:         -13.485
REMARK INTER:                 -13.061
REMARK INTRA:                  -0.424
REMARK UNBOUND:                -0.124
REMARK SMILES N#CCC1(n2ccc(-c3nc(-c4cn[nH]n4)cc4ncccc34)n2)CN(CC(F)(F)F)C1
REMARK SMILES IDX 5 1 6 2 7 3 8 4 24 5 4 6 25 7 32 8 26 9 3 10 1 11 2 12 27 13
REMARK SMILES IDX 28 14 29 15 30 16 31 17 9 18 10 19 23 20 11 21 22 22 18 23
REMARK SMILES IDX 17 24 21 25 19 26 20 27 12 28 13 29 16 30 14 31 15 32
REMARK H PARENT 15 33
ROOT
ATOM      1  N   UNL     1      -4.311  29.742 -29.954  1.00  0.00    -0.262 N 
ATOM      2  C   UNL     1      -5.104  29.805 -31.062  1.00  0.00     0.110 A 
ATOM      3  C   UNL     1      -5.219  28.512 -31.513  1.00  0.00     0.052 A 
ATOM      4  C   UNL     1      -4.484  27.713 -30.592  1.00  0.00     0.111 A 
ATOM      5  N   UNL     1      -3.977  28.482 -29.612  1.00  0.00    -0.171 NA
ENDROOT
BRANCH   1   6
ATOM      6  C   UNL     1      -3.995  30.883 -29.048  1.00  0.00     0.101 C 
ATOM      7  C   UNL     1      -3.664  30.384 -27.610  1.00  0.00     0.118 C 
ATOM      8  C   UNL     1      -2.505  31.333 -29.064  1.00  0.00     0.118 C 
ATOM      9  N   UNL     1      -2.234  30.347 -27.997  1.00  0.00    -0.290 NA
BRANCH   6  10
ATOM     10  C   UNL     1      -5.069  31.959 -29.128  1.00  0.00     0.153 C 
ATOM     11  N   UNL     1      -4.060  34.203 -30.050  1.00  0.00    -0.198 NA
ATOM     12  C   UNL     1      -4.526  33.216 -29.659  1.00  0.00     0.065 C 
ENDBRANCH   6  10
BRANCH   9  13
ATOM     13  C   UNL     1      -1.371  30.924 -26.940  1.00  0.00     0.200 C 
BRANCH  13  14
ATOM     14  C   UNL     1      -0.130  30.096 -26.568  1.00  0.00     0.401 C 
ATOM     15  F   UNL     1       0.979  30.522 -27.208  1.00  0.00    -0.170 F 
ATOM     16  F   UNL     1      -0.306  28.785 -26.854  1.00  0.00    -0.170 F 
ATOM     17  F   UNL     1       0.108  30.186 -25.237  1.00  0.00    -0.170 F 
ENDBRANCH  13  14
ENDBRANCH   9  13
ENDBRANCH   1   6
BRANCH   4  18
ATOM     18  C   UNL     1      -4.345  26.248 -30.632  1.00  0.00     0.101 A 
ATOM     19  N   UNL     1      -3.606  25.754 -29.603  1.00  0.00    -0.243 NA
ATOM     20  C   UNL     1      -4.923  25.434 -31.634  1.00  0.00     0.028 A 
ATOM     21  C   UNL     1      -3.394  24.422 -29.565  1.00  0.00     0.095 A 
ATOM     22  C   UNL     1      -5.747  25.862 -32.706  1.00  0.00     0.014 A 
ATOM     23  C   UNL     1      -4.673  24.052 -31.552  1.00  0.00     0.075 A 
ATOM     24  C   UNL     1      -3.905  23.558 -30.518  1.00  0.00     0.059 A 
ATOM     25  C   UNL     1      -6.253  24.949 -33.623  1.00  0.00     0.021 A 
ATOM     26  N   UNL     1      -5.159  23.167 -32.440  1.00  0.00    -0.256 NA
ATOM     27  C   UNL     1      -5.930  23.623 -33.450  1.00  0.00     0.112 A 
BRANCH  21  28
ATOM     28  C   UNL     1      -2.584  23.934 -28.452  1.00  0.00     0.131 A 
ATOM     29  C   UNL     1      -2.653  24.322 -27.093  1.00  0.00     0.167 A 
ATOM     30  N   UNL     1      -1.616  23.004 -28.571  1.00  0.00    -0.154 NA
ATOM     31  N   UNL     1      -1.753  23.654 -26.365  1.00  0.00    -0.164 NA
ATOM     32  N   UNL     1      -1.176  22.894 -27.307  1.00  0.00    -0.197 N 
ATOM     33  H   UNL     1      -0.423  22.251 -27.069  1.00  0.00     0.214 HD
ENDBRANCH  21  28
ENDBRANCH   4  18
TORSDOF 6
ENDMDL
MODEL 5
REMARK VINA RESULT:    -9.884      1.437      4.047
REMARK INTER + INTRA:         -13.474
REMARK INTER:                 -12.940
REMARK INTRA:                  -0.535
REMARK UNBOUND:                -0.124
REMARK SMILES N#CCC1(n2ccc(-c3nc(-c4cn[nH]n4)cc4ncccc34)n2)CN(CC(F)(F)F)C1
REMARK SMILES IDX 5 1 6 2 7 3 8 4 24 5 4 6 25 7 32 8 26 9 3 10 1 11 2 12 27 13
REMARK SMILES IDX 28 14 29 15 30 16 31 17 9 18 10 19 23 20 11 21 22 22 18 23
REMARK SMILES IDX 17 24 21 25 19 26 20 27 12 28 13 29 16 30 14 31 15 32
REMARK H PARENT 15 33
ROOT
ATOM      1  N   UNL     1      -2.808  25.072 -27.623  1.00  0.00    -0.262 N 
ATOM      2  C   UNL     1      -2.829  26.086 -26.711  1.00  0.00     0.110 A 
ATOM      3  C   UNL     1      -3.344  27.174 -27.373  1.00  0.00     0.052 A 
ATOM      4  C   UNL     1      -3.643  26.722 -28.689  1.00  0.00     0.111 A 
ATOM      5  N   UNL     1      -3.354  25.413 -28.807  1.00  0.00    -0.171 NA
ENDROOT
BRANCH   1   6
ATOM      6  C   UNL     1      -2.437  23.657 -27.338  1.00  0.00     0.101 C 
ATOM      7  C   UNL     1      -3.650  22.703 -27.553  1.00  0.00     0.118 C 
ATOM      8  C   UNL     1      -1.823  22.889 -28.545  1.00  0.00     0.118 C 
ATOM      9  N   UNL     1      -3.191  22.501 -28.948  1.00  0.00    -0.290 NA
BRANCH   6  10
ATOM     10  C   UNL     1      -1.749  23.532 -25.986  1.00  0.00     0.153 C 
ATOM     11  N   UNL     1      -1.257  21.012 -25.428  1.00  0.00    -0.198 NA
ATOM     12  C   UNL     1      -1.450  22.131 -25.667  1.00  0.00     0.065 C 
ENDBRANCH   6  10
BRANCH   9  13
ATOM     13  C   UNL     1      -3.252  21.073 -29.336  1.00  0.00     0.200 C 
BRANCH  13  14
ATOM     14  C   UNL     1      -4.178  20.743 -30.519  1.00  0.00     0.401 C 
ATOM     15  F   UNL     1      -3.907  19.536 -31.059  1.00  0.00    -0.170 F 
ATOM     16  F   UNL     1      -4.082  21.674 -31.496  1.00  0.00    -0.170 F 
ATOM     17  F   UNL     1      -5.469  20.725 -30.109  1.00  0.00    -0.170 F 
ENDBRANCH  13  14
ENDBRANCH   9  13
ENDBRANCH   1   6
BRANCH   4  18
ATOM     18  C   UNL     1      -4.254  27.521 -29.764  1.00  0.00     0.101 A 
ATOM     19  N   UNL     1      -4.844  26.760 -30.725  1.00  0.00    -0.243 NA
ATOM     20  C   UNL     1      -4.234  28.935 -29.796  1.00  0.00     0.028 A 
ATOM     21  C   UNL     1      -5.408  27.398 -31.772  1.00  0.00     0.095 A 
ATOM     22  C   UNL     1      -3.689  29.800 -28.812  1.00  0.00     0.014 A 
ATOM     23  C   UNL     1      -4.834  29.553 -30.907  1.00  0.00     0.075 A 
ATOM     24  C   UNL     1      -5.413  28.777 -31.890  1.00  0.00     0.059 A 
ATOM     25  C   UNL     1      -3.741  31.179 -28.970  1.00  0.00     0.021 A 
ATOM     26  N   UNL     1      -4.883  30.888 -31.064  1.00  0.00    -0.256 NA
ATOM     27  C   UNL     1      -4.341  31.671 -30.107  1.00  0.00     0.112 A 
BRANCH  21  28
ATOM     28  C   UNL     1      -6.018  26.545 -32.788  1.00  0.00     0.131 A 
ATOM     29  C   UNL     1      -5.994  25.132 -32.863  1.00  0.00     0.167 A 
ATOM     30  N   UNL     1      -6.721  27.006 -33.842  1.00  0.00    -0.154 NA
ATOM     31  N   UNL     1      -6.666  24.705 -33.936  1.00  0.00    -0.164 NA
ATOM     32  N   UNL     1      -7.067  25.868 -34.467  1.00  0.00    -0.197 N 
ATOM     33  H   UNL     1      -7.618  25.889 -35.322  1.00  0.00     0.214 HD
ENDBRANCH  21  28
ENDBRANCH   4  18
TORSDOF 6
ENDMDL
MODEL 6
REMARK VINA RESULT:    -9.615      4.592      8.346
REMARK INTER + INTRA:         -13.111
REMARK INTER:                 -12.517
REMARK INTRA:                  -0.594
REMARK UNBOUND:                -0.124
REMARK SMILES N#CCC1(n2ccc(-c3nc(-c4cn[nH]n4)cc4ncccc34)n2)CN(CC(F)(F)F)C1
REMARK SMILES IDX 5 1 6 2 7 3 8 4 24 5 4 6 25 7 32 8 26 9 3 10 1 11 2 12 27 13
REMARK SMILES IDX 28 14 29 15 30 16 31 17 9 18 10 19 23 20 11 21 22 22 18 23
REMARK SMILES IDX 17 24 21 25 19 26 20 27 12 28 13 29 16 30 14 31 15 32
REMARK H PARENT 15 33
ROOT
ATOM      1  N   UNL     1      -3.756  30.430 -29.716  1.00  0.00    -0.262 N 
ATOM      2  C   UNL     1      -4.811  30.706 -30.534  1.00  0.00     0.110 A 
ATOM      3  C   UNL     1      -5.199  29.499 -31.065  1.00  0.00     0.052 A 
ATOM      4  C   UNL     1      -4.337  28.526 -30.486  1.00  0.00     0.111 A 
ATOM      5  N   UNL     1      -3.490  29.113 -29.620  1.00  0.00    -0.171 NA
ENDROOT
BRANCH   1   6
ATOM      6  C   UNL     1      -3.068  31.409 -28.827  1.00  0.00     0.101 C 
ATOM      7  C   UNL     1      -3.897  32.722 -28.690  1.00  0.00     0.118 C 
ATOM      8  C   UNL     1      -3.379  31.242 -27.311  1.00  0.00     0.118 C 
ATOM      9  N   UNL     1      -4.539  32.141 -27.487  1.00  0.00    -0.290 NA
BRANCH   6  10
ATOM     10  C   UNL     1      -1.617  31.603 -29.243  1.00  0.00     0.153 C 
ATOM     11  N   UNL     1      -0.467  33.439 -27.757  1.00  0.00    -0.198 NA
ATOM     12  C   UNL     1      -0.953  32.613 -28.411  1.00  0.00     0.065 C 
ENDBRANCH   6  10
BRANCH   9  13
ATOM     13  C   UNL     1      -4.624  33.130 -26.387  1.00  0.00     0.200 C 
BRANCH  13  14
ATOM     14  C   UNL     1      -5.860  33.014 -25.481  1.00  0.00     0.401 C 
ATOM     15  F   UNL     1      -6.122  31.736 -25.134  1.00  0.00    -0.170 F 
ATOM     16  F   UNL     1      -6.962  33.523 -26.079  1.00  0.00    -0.170 F 
ATOM     17  F   UNL     1      -5.667  33.715 -24.338  1.00  0.00    -0.170 F 
ENDBRANCH  13  14
ENDBRANCH   9  13
ENDBRANCH   1   6
BRANCH   4  18
ATOM     18  C   UNL     1      -4.388  27.073 -30.718  1.00  0.00     0.101 A 
ATOM     19  N   UNL     1      -3.665  26.363 -29.811  1.00  0.00    -0.243 NA
ATOM     20  C   UNL     1      -5.117  26.474 -31.772  1.00  0.00     0.028 A 
ATOM     21  C   UNL     1      -3.623  25.022 -29.954  1.00  0.00     0.095 A 
ATOM     22  C   UNL     1      -5.935  27.136 -32.723  1.00  0.00     0.014 A 
ATOM     23  C   UNL     1      -5.041  25.074 -31.880  1.00  0.00     0.075 A 
ATOM     24  C   UNL     1      -4.289  24.359 -30.970  1.00  0.00     0.059 A 
ATOM     25  C   UNL     1      -6.600  26.420 -33.710  1.00  0.00     0.021 A 
ATOM     26  N   UNL     1      -5.682  24.379 -32.836  1.00  0.00    -0.256 NA
ATOM     27  C   UNL     1      -6.440  25.053 -33.726  1.00  0.00     0.112 A 
BRANCH  21  28
ATOM     28  C   UNL     1      -2.824  24.298 -28.969  1.00  0.00     0.131 A 
ATOM     29  C   UNL     1      -2.602  24.637 -27.613  1.00  0.00     0.167 A 
ATOM     30  N   UNL     1      -2.159  23.154 -29.227  1.00  0.00    -0.154 NA
ATOM     31  N   UNL     1      -1.818  23.731 -27.023  1.00  0.00    -0.164 NA
ATOM     32  N   UNL     1      -1.594  22.885 -28.038  1.00  0.00    -0.197 N 
ATOM     33  H   UNL     1      -1.011  22.060 -27.911  1.00  0.00     0.214 HD
ENDBRANCH  21  28
ENDBRANCH   4  18
TORSDOF 6
ENDMDL
MODEL 7
REMARK VINA RESULT:    -9.594      3.311      4.396
REMARK INTER + INTRA:         -13.082
REMARK INTER:                 -12.051
REMARK INTRA:                  -1.032
REMARK UNBOUND:                -0.124
REMARK SMILES N#CCC1(n2ccc(-c3nc(-c4cn[nH]n4)cc4ncccc34)n2)CN(CC(F)(F)F)C1
REMARK SMILES IDX 5 1 6 2 7 3 8 4 24 5 4 6 25 7 32 8 26 9 3 10 1 11 2 12 27 13
REMARK SMILES IDX 28 14 29 15 30 16 31 17 9 18 10 19 23 20 11 21 22 22 18 23
REMARK SMILES IDX 17 24 21 25 19 26 20 27 12 28 13 29 16 30 14 31 15 32
REMARK H PARENT 15 33
ROOT
ATOM      1  N   UNL     1      -3.233  23.520 -28.899  1.00  0.00    -0.262 N 
ATOM      2  C   UNL     1      -2.241  23.423 -29.830  1.00  0.00     0.110 A 
ATOM      3  C   UNL     1      -2.533  24.367 -30.786  1.00  0.00     0.052 A 
ATOM      4  C   UNL     1      -3.714  25.022 -30.337  1.00  0.00     0.111 A 
ATOM      5  N   UNL     1      -4.099  24.521 -29.149  1.00  0.00    -0.171 NA
ENDROOT
BRANCH   1   6
ATOM      6  C   UNL     1      -3.287  22.774 -27.609  1.00  0.00     0.101 C 
ATOM      7  C   UNL     1      -1.913  22.115 -27.283  1.00  0.00     0.118 C 
ATOM      8  C   UNL     1      -2.994  23.636 -26.346  1.00  0.00     0.118 C 
ATOM      9  N   UNL     1      -1.558  23.334 -26.519  1.00  0.00    -0.290 NA
BRANCH   6  10
ATOM     10  C   UNL     1      -4.481  21.831 -27.571  1.00  0.00     0.153 C 
ATOM     11  N   UNL     1      -4.867  20.734 -29.927  1.00  0.00    -0.198 NA
ATOM     12  C   UNL     1      -4.700  21.195 -28.876  1.00  0.00     0.065 C 
ENDBRANCH   6  10
BRANCH   9  13
ATOM     13  C   UNL     1      -0.922  22.994 -25.224  1.00  0.00     0.200 C 
BRANCH  13  14
ATOM     14  C   UNL     1       0.135  23.991 -24.719  1.00  0.00     0.401 C 
ATOM     15  F   UNL     1       0.635  23.640 -23.516  1.00  0.00    -0.170 F 
ATOM     16  F   UNL     1      -0.374  25.241 -24.616  1.00  0.00    -0.170 F 
ATOM     17  F   UNL     1       1.171  24.053 -25.590  1.00  0.00    -0.170 F 
ENDBRANCH  13  14
ENDBRANCH   9  13
ENDBRANCH   1   6
BRANCH   4  18
ATOM     18  C   UNL     1      -4.395  26.141 -31.009  1.00  0.00     0.101 A 
ATOM     19  N   UNL     1      -4.102  27.350 -30.461  1.00  0.00    -0.243 NA
ATOM     20  C   UNL     1      -5.263  25.978 -32.114  1.00  0.00     0.028 A 
ATOM     21  C   UNL     1      -4.701  28.439 -30.987  1.00  0.00     0.095 A 
ATOM     22  C   UNL     1      -5.578  24.764 -32.776  1.00  0.00     0.014 A 
ATOM     23  C   UNL     1      -5.863  27.142 -32.627  1.00  0.00     0.075 A 
ATOM     24  C   UNL     1      -5.579  28.365 -32.054  1.00  0.00     0.059 A 
ATOM     25  C   UNL     1      -6.450  24.748 -33.857  1.00  0.00     0.021 A 
ATOM     26  N   UNL     1      -6.709  27.129 -33.672  1.00  0.00    -0.256 NA
ATOM     27  C   UNL     1      -6.988  25.948 -34.263  1.00  0.00     0.112 A 
BRANCH  21  28
ATOM     28  C   UNL     1      -4.371  29.716 -30.361  1.00  0.00     0.131 A 
ATOM     29  C   UNL     1      -3.407  29.966 -29.355  1.00  0.00     0.167 A 
ATOM     30  N   UNL     1      -4.964  30.887 -30.669  1.00  0.00    -0.154 NA
ATOM     31  N   UNL     1      -3.386  31.263 -29.033  1.00  0.00    -0.164 NA
ATOM     32  N   UNL     1      -4.334  31.745 -29.849  1.00  0.00    -0.197 N 
ATOM     33  H   UNL     1      -4.570  32.735 -29.848  1.00  0.00     0.214 HD
ENDBRANCH  21  28
ENDBRANCH   4  18
TORSDOF 6
ENDMDL
MODEL 8
REMARK VINA RESULT:    -9.521      4.702      7.292
REMARK INTER + INTRA:         -12.984
REMARK INTER:                 -12.663
REMARK INTRA:                  -0.321
REMARK UNBOUND:                -0.124
REMARK SMILES N#CCC1(n2ccc(-c3nc(-c4cn[nH]n4)cc4ncccc34)n2)CN(CC(F)(F)F)C1
REMARK SMILES IDX 5 1 6 2 7 3 8 4 24 5 4 6 25 7 32 8 26 9 3 10 1 11 2 12 27 13
REMARK SMILES IDX 28 14 29 15 30 16 31 17 9 18 10 19 23 20 11 21 22 22 18 23
REMARK SMILES IDX 17 24 21 25 19 26 20 27 12 28 13 29 16 30 14 31 15 32
REMARK H PARENT 15 33
ROOT
ATOM      1  N   UNL     1      -2.667  24.839 -27.841  1.00  0.00    -0.262 N 
ATOM      2  C   UNL     1      -2.994  26.154 -27.991  1.00  0.00     0.110 A 
ATOM      3  C   UNL     1      -3.736  26.225 -29.146  1.00  0.00     0.052 A 
ATOM      4  C   UNL     1      -3.839  24.888 -29.623  1.00  0.00     0.111 A 
ATOM      5  N   UNL     1      -3.219  24.044 -28.779  1.00  0.00    -0.171 NA
ENDROOT
BRANCH   1   6
ATOM      6  C   UNL     1      -1.960  24.250 -26.668  1.00  0.00     0.101 C 
ATOM      7  C   UNL     1      -0.445  24.615 -26.682  1.00  0.00     0.118 C 
ATOM      8  C   UNL     1      -1.996  25.124 -25.380  1.00  0.00     0.118 C 
ATOM      9  N   UNL     1      -0.766  25.796 -25.847  1.00  0.00    -0.290 NA
BRANCH   6  10
ATOM     10  C   UNL     1      -2.266  22.765 -26.533  1.00  0.00     0.153 C 
ATOM     11  N   UNL     1      -0.785  21.684 -24.651  1.00  0.00    -0.198 NA
ATOM     12  C   UNL     1      -1.459  22.149 -25.472  1.00  0.00     0.065 C 
ENDBRANCH   6  10
BRANCH   9  13
ATOM     13  C   UNL     1       0.209  25.958 -24.742  1.00  0.00     0.200 C 
BRANCH  13  14
ATOM     14  C   UNL     1       1.076  27.228 -24.800  1.00  0.00     0.401 C 
ATOM     15  F   UNL     1       0.751  28.112 -23.833  1.00  0.00    -0.170 F 
ATOM     16  F   UNL     1       0.963  27.849 -25.996  1.00  0.00    -0.170 F 
ATOM     17  F   UNL     1       2.382  26.907 -24.637  1.00  0.00    -0.170 F 
ENDBRANCH  13  14
ENDBRANCH   9  13
ENDBRANCH   1   6
BRANCH   4  18
ATOM     18  C   UNL     1      -4.577  24.448 -30.819  1.00  0.00     0.101 A 
ATOM     19  N   UNL     1      -4.649  23.095 -30.933  1.00  0.00    -0.243 NA
ATOM     20  C   UNL     1      -5.156  25.338 -31.753  1.00  0.00     0.028 A 
ATOM     21  C   UNL     1      -5.280  22.588 -32.013  1.00  0.00     0.095 A 
ATOM     22  C   UNL     1      -5.172  26.754 -31.680  1.00  0.00     0.014 A 
ATOM     23  C   UNL     1      -5.803  24.763 -32.862  1.00  0.00     0.075 A 
ATOM     24  C   UNL     1      -5.855  23.389 -32.984  1.00  0.00     0.059 A 
ATOM     25  C   UNL     1      -5.783  27.511 -32.672  1.00  0.00     0.021 A 
ATOM     26  N   UNL     1      -6.392  25.493 -33.825  1.00  0.00    -0.256 NA
ATOM     27  C   UNL     1      -6.372  26.839 -33.719  1.00  0.00     0.112 A 
BRANCH  21  28
ATOM     28  C   UNL     1      -5.323  21.131 -32.105  1.00  0.00     0.131 A 
ATOM     29  C   UNL     1      -6.462  20.293 -32.074  1.00  0.00     0.167 A 
ATOM     30  N   UNL     1      -4.233  20.349 -32.239  1.00  0.00    -0.154 NA
ATOM     31  N   UNL     1      -6.107  19.010 -32.188  1.00  0.00    -0.164 NA
ATOM     32  N   UNL     1      -4.774  19.120 -32.281  1.00  0.00    -0.197 N 
ATOM     33  H   UNL     1      -4.188  18.294 -32.379  1.00  0.00     0.214 HD
ENDBRANCH  21  28
ENDBRANCH   4  18
TORSDOF 6
ENDMDL
MODEL 9
REMARK VINA RESULT:    -9.496      4.457      6.516
REMARK INTER + INTRA:         -12.950
REMARK INTER:                 -12.071
REMARK INTRA:                  -0.879
REMARK UNBOUND:                -0.124
REMARK SMILES N#CCC1(n2ccc(-c3nc(-c4cn[nH]n4)cc4ncccc34)n2)CN(CC(F)(F)F)C1
REMARK SMILES IDX 5 1 6 2 7 3 8 4 24 5 4 6 25 7 32 8 26 9 3 10 1 11 2 12 27 13
REMARK SMILES IDX 28 14 29 15 30 16 31 17 9 18 10 19 23 20 11 21 22 22 18 23
REMARK SMILES IDX 17 24 21 25 19 26 20 27 12 28 13 29 16 30 14 31 15 32
REMARK H PARENT 15 33
ROOT
ATOM      1  N   UNL     1      -1.918  25.416 -26.706  1.00  0.00    -0.262 N 
ATOM      2  C   UNL     1      -2.928  26.322 -26.565  1.00  0.00     0.110 A 
ATOM      3  C   UNL     1      -3.767  26.115 -27.634  1.00  0.00     0.052 A 
ATOM      4  C   UNL     1      -3.204  25.032 -28.365  1.00  0.00     0.111 A 
ATOM      5  N   UNL     1      -2.096  24.582 -27.750  1.00  0.00    -0.171 NA
ENDROOT
BRANCH   1   6
ATOM      6  C   UNL     1      -0.823  25.178 -25.723  1.00  0.00     0.101 C 
ATOM      7  C   UNL     1       0.443  24.597 -26.421  1.00  0.00     0.118 C 
ATOM      8  C   UNL     1       0.087  26.411 -25.451  1.00  0.00     0.118 C 
ATOM      9  N   UNL     1       0.940  25.984 -26.579  1.00  0.00    -0.290 NA
BRANCH   6  10
ATOM     10  C   UNL     1      -1.325  24.381 -24.527  1.00  0.00     0.153 C 
ATOM     11  N   UNL     1      -1.385  21.815 -25.087  1.00  0.00    -0.198 NA
ATOM     12  C   UNL     1      -1.347  22.942 -24.816  1.00  0.00     0.065 C 
ENDBRANCH   6  10
BRANCH   9  13
ATOM     13  C   UNL     1       2.377  26.087 -26.234  1.00  0.00     0.200 C 
BRANCH  13  14
ATOM     14  C   UNL     1       3.264  26.788 -27.277  1.00  0.00     0.401 C 
ATOM     15  F   UNL     1       4.226  27.543 -26.705  1.00  0.00    -0.170 F 
ATOM     16  F   UNL     1       2.534  27.582 -28.094  1.00  0.00    -0.170 F 
ATOM     17  F   UNL     1       3.879  25.869 -28.059  1.00  0.00    -0.170 F 
ENDBRANCH  13  14
ENDBRANCH   9  13
ENDBRANCH   1   6
BRANCH   4  18
ATOM     18  C   UNL     1      -3.769  24.416 -29.577  1.00  0.00     0.101 A 
ATOM     19  N   UNL     1      -4.378  25.313 -30.398  1.00  0.00    -0.243 NA
ATOM     20  C   UNL     1      -3.685  23.033 -29.864  1.00  0.00     0.028 A 
ATOM     21  C   UNL     1      -4.956  24.844 -31.523  1.00  0.00     0.095 A 
ATOM     22  C   UNL     1      -3.025  22.043 -29.092  1.00  0.00     0.014 A 
ATOM     23  C   UNL     1      -4.302  22.592 -31.049  1.00  0.00     0.075 A 
ATOM     24  C   UNL     1      -4.937  23.503 -31.867  1.00  0.00     0.059 A 
ATOM     25  C   UNL     1      -3.019  20.714 -29.495  1.00  0.00     0.021 A 
ATOM     26  N   UNL     1      -4.300  21.305 -31.439  1.00  0.00    -0.256 NA
ATOM     27  C   UNL     1      -3.668  20.397 -30.666  1.00  0.00     0.112 A 
BRANCH  21  28
ATOM     28  C   UNL     1      -5.611  25.838 -32.369  1.00  0.00     0.131 A 
ATOM     29  C   UNL     1      -6.270  25.628 -33.604  1.00  0.00     0.167 A 
ATOM     30  N   UNL     1      -5.684  27.151 -32.076  1.00  0.00    -0.154 NA
ATOM     31  N   UNL     1      -6.752  26.778 -34.083  1.00  0.00    -0.164 NA
ATOM     32  N   UNL     1      -6.366  27.635 -33.127  1.00  0.00    -0.197 N 
ATOM     33  H   UNL     1      -6.585  28.627 -33.197  1.00  0.00     0.214 HD
ENDBRANCH  21  28
ENDBRANCH   4  18
TORSDOF 6
ENDMDL
