MODEL 6
REMARK VINA RESULT:    -8.696      1.657      1.976
REMARK INTER + INTRA:         -11.191
REMARK INTER:                 -11.045
REMARK INTRA:                  -0.146
REMARK UNBOUND:                 0.047
REMARK SMILES O=C(Nc1nc2cccc([C@H]3CC[C@@H](NC(=O)[C@@H]4CC4(F)F)CC3)n2n1)C1CC1
REMARK SMILES IDX 11 1 24 2 23 3 14 4 13 5 12 6 10 7 4 8 5 9 26 10 6 11 25 12
REMARK SMILES IDX 7 13 8 14 9 15 3 16 1 17 2 18 27 20 28 21 29 22 15 23 16 24
REMARK SMILES IDX 17 25 18 27 19 28 20 29 21 30 22 31
REMARK H PARENT 3 19 15 26
ROOT
ATOM      1  C   UNL     1       5.502 -23.838  21.490  1.00  0.00     0.038 C 
ATOM      2  C   UNL     1       4.379 -23.650  20.459  1.00  0.00     0.012 C 
ATOM      3  C   UNL     1       4.538 -22.347  19.667  1.00  0.00     0.025 C 
ATOM      4  C   UNL     1       5.235 -21.226  20.454  1.00  0.00     0.082 C 
ATOM      5  C   UNL     1       4.981 -21.366  21.957  1.00  0.00     0.025 C 
ATOM      6  C   UNL     1       5.543 -22.679  22.509  1.00  0.00     0.012 C 
ENDROOT
BRANCH   1   7
ATOM      7  C   UNL     1       5.489 -25.204  22.154  1.00  0.00     0.048 A 
ATOM      8  C   UNL     1       8.447 -25.895  23.889  1.00  0.00     0.249 A 
ATOM      9  N   UNL     1       7.787 -27.050  24.152  1.00  0.00    -0.192 NA
ATOM     10  N   UNL     1       7.784 -25.014  23.141  1.00  0.00    -0.127 NA
ATOM     11  C   UNL     1       6.642 -26.893  23.532  1.00  0.00     0.157 A 
ATOM     12  N   UNL     1       6.605 -25.646  22.899  1.00  0.00    -0.216 N 
ATOM     13  C   UNL     1       5.509 -27.740  23.414  1.00  0.00     0.049 A 
ATOM     14  C   UNL     1       4.444 -27.328  22.706  1.00  0.00     0.006 A 
ATOM     15  C   UNL     1       4.422 -26.029  22.056  1.00  0.00     0.024 A 
BRANCH   8  16
ATOM     16  N   UNL     1       9.704 -25.608  24.334  1.00  0.00    -0.293 N 
ATOM     17  O   UNL     1       9.535 -26.196  26.587  1.00  0.00    -0.274 OA
ATOM     18  C   UNL     1      10.143 -25.769  25.618  1.00  0.00     0.229 C 
ATOM     19  H   UNL     1      10.320 -25.249  23.624  1.00  0.00     0.173 HD
BRANCH  18  20
ATOM     20  C   UNL     1      11.573 -25.380  25.783  1.00  0.00     0.079 C 
ATOM     21  C   UNL     1      12.627 -26.460  25.889  1.00  0.00     0.014 C 
ATOM     22  C   UNL     1      12.312 -25.608  27.083  1.00  0.00     0.014 C 
ENDBRANCH  18  20
ENDBRANCH   8  16
ENDBRANCH   1   7
BRANCH   4  23
ATOM     23  N   UNL     1       4.812 -19.922  19.969  1.00  0.00    -0.353 N 
ATOM     24  C   UNL     1       5.723 -19.006  19.498  1.00  0.00     0.229 C 
ATOM     25  O   UNL     1       6.909 -19.238  19.311  1.00  0.00    -0.275 OA
ATOM     26  H   UNL     1       3.905 -19.579  20.265  1.00  0.00     0.163 HD
BRANCH  24  27
ATOM     27  C   UNL     1       5.186 -17.668  19.185  1.00  0.00     0.154 C 
ATOM     28  C   UNL     1       5.784 -16.463  19.898  1.00  0.00     0.097 C 
ATOM     29  C   UNL     1       4.392 -16.885  20.158  1.00  0.00     0.260 C 
ATOM     30  F   UNL     1       4.031 -17.420  21.374  1.00  0.00    -0.206 F 
ATOM     31  F   UNL     1       3.340 -16.111  19.727  1.00  0.00    -0.206 F 
ENDBRANCH  24  27
ENDBRANCH   4  23
TORSDOF 5
ENDMDL
