REMARK SMILES CCC(CC)n1cc(-c2nc(-c3cnn(CCN4CCNCC4=O)c3)cn3nccc23)cn1
REMARK SMILES IDX 9 1 10 2 11 3 26 4 27 5 28 6 29 7 30 8 31 9 8 10 6 11 7 12
REMARK SMILES IDX 33 13 32 14 3 15 2 16 1 17 4 18 5 19 12 20 13 21 25 22 14 23
REMARK SMILES IDX 15 24 16 25 17 26 18 27 19 28 23 29 20 30 22 31 24 32 21 33
REMARK H PARENT 21 34
REMARK INDEX MAP 9 1 10 2 11 3 26 4 27 5 28 6 29 7 30 8 31 9 8 10 6 11 7 12
REMARK INDEX MAP 33 13 32 14 3 15 2 16 1 17 4 18 5 19 12 20 13 21 25 22 14 23
REMARK INDEX MAP 15 24 16 25 17 26 18 27 19 28 23 29 20 30 22 31 24 32 21 33
REMARK INDEX MAP 55 34
ROOT
ATOM      1  C   UNL     1       6.274 -21.810  21.682  1.00  0.00     0.100 A 
ATOM      2  N   UNL     1       5.613 -20.751  21.307  1.00  0.00    -0.244 NA
ATOM      3  C   UNL     1       6.093 -19.500  21.662  1.00  0.00     0.092 A 
ATOM      4  C   UNL     1       7.220 -19.345  22.380  1.00  0.00     0.142 A 
ATOM      5  N   UNL     1       7.941 -20.458  22.765  1.00  0.00    -0.237 N 
ATOM      6  N   UNL     1       9.098 -20.501  23.469  1.00  0.00    -0.176 NA
ATOM      7  C   UNL     1       9.415 -21.794  23.512  1.00  0.00     0.136 A 
ATOM      8  C   UNL     1       8.467 -22.603  22.864  1.00  0.00     0.052 A 
ATOM      9  C   UNL     1       7.508 -21.722  22.418  1.00  0.00     0.093 A 
ENDROOT
BRANCH   1  10
ATOM     10  C   UNL     1       5.715 -23.096  21.318  1.00  0.00     0.040 A 
ATOM     11  N   UNL     1       4.822 -25.116  21.291  1.00  0.00    -0.269 N 
ATOM     12  C   UNL     1       5.304 -24.142  22.123  1.00  0.00     0.119 A 
ATOM     13  N   UNL     1       4.886 -24.778  19.991  1.00  0.00    -0.181 NA
ATOM     14  C   UNL     1       5.404 -23.548  20.012  1.00  0.00     0.145 A 
BRANCH  11  15
ATOM     15  C   UNL     1       4.274 -26.415  21.692  1.00  0.00     0.107 C 
BRANCH  15  16
ATOM     16  C   UNL     1       2.741 -26.406  21.533  1.00  0.00     0.024 C 
ATOM     17  C   UNL     1       2.159 -27.768  21.179  1.00  0.00     0.006 C 
ENDBRANCH  15  16
BRANCH  15  18
ATOM     18  C   UNL     1       4.724 -26.814  23.112  1.00  0.00     0.024 C 
ATOM     19  C   UNL     1       5.403 -28.178  23.165  1.00  0.00     0.006 C 
ENDBRANCH  15  18
ENDBRANCH  11  15
ENDBRANCH   1  10
BRANCH   3  20
ATOM     20  C   UNL     1       5.283 -18.410  21.204  1.00  0.00     0.040 A 
ATOM     21  C   UNL     1       5.648 -17.353  20.340  1.00  0.00     0.145 A 
ATOM     22  C   UNL     1       3.963 -18.152  21.511  1.00  0.00     0.119 A 
ATOM     23  N   UNL     1       4.644 -16.498  20.114  1.00  0.00    -0.181 NA
ATOM     24  N   UNL     1       3.633 -17.006  20.843  1.00  0.00    -0.270 N 
BRANCH  24  25
ATOM     25  C   UNL     1       2.350 -16.333  20.855  1.00  0.00     0.165 C 
BRANCH  25  26
ATOM     26  C   UNL     1       1.241 -17.241  20.332  1.00  0.00     0.143 C 
BRANCH  26  27
ATOM     27  N   UNL     1       0.580 -16.696  19.146  1.00  0.00    -0.338 N 
ATOM     28  C   UNL     1       1.419 -16.238  18.040  1.00  0.00     0.135 C 
ATOM     29  C   UNL     1      -0.766 -16.352  19.220  1.00  0.00     0.236 C 
ATOM     30  C   UNL     1       0.636 -15.997  16.747  1.00  0.00     0.103 C 
ATOM     31  C   UNL     1      -1.437 -15.831  17.940  1.00  0.00     0.182 C 
ATOM     32  O   UNL     1      -1.425 -16.534  20.246  1.00  0.00    -0.273 OA
ATOM     33  N   UNL     1      -0.519 -15.139  17.016  1.00  0.00    -0.307 NA
ATOM     34  H   UNL     1      -0.201 -14.258  17.444  1.00  0.00     0.123 HD
ENDBRANCH  26  27
ENDBRANCH  25  26
ENDBRANCH  24  25
ENDBRANCH   3  20
TORSDOF 8
