MODEL 1
REMARK minimizedAffinity -12.2236681
REMARK CNNscore 0.864164233
REMARK CNNaffinity 7.86064768
REMARK SMILES COc1cc(-c2ccc3c(c2)Nc2ccc(C(=O)NCc4cccc(F)c4)cc2NC3=O)ccc1O
REMARK SMILES IDX 6 1 7 2 8 3 9 4 10 5 11 6 12 7 13 8 14 9 15 10 16 11 28 12
REMARK SMILES IDX 29 13 30 14 31 15 32 16 5 19 3 20 35 21 4 22 34 23 33 24
REMARK SMILES IDX 2 25 1 26 36 27 17 29 18 30 19 31 20 33 21 34 27 35 22 36
REMARK SMILES IDX 25 37 23 38 24 39 26 40
REMARK H PARENT 12 17 30 18 36 28 19 32
ROOT
ATOM      1  C   UNL     1      17.774   2.743  24.617  1.00  0.00    -0.016 A 
ATOM      2  C   UNL     1      18.219   1.431  24.760  1.00  0.00     0.010 A 
ATOM      3  C   UNL     1      17.585   0.562  25.640  1.00  0.00     0.016 A 
ATOM      4  C   UNL     1      16.482   0.970  26.417  1.00  0.00     0.063 A 
ATOM      5  C   UNL     1      16.008   2.294  26.270  1.00  0.00     0.052 A 
ATOM      6  C   UNL     1      16.675   3.146  25.379  1.00  0.00     0.035 A 
ATOM      7  N   UNL     1      14.893   2.808  26.933  1.00  0.00    -0.353 N 
ATOM      8  C   UNL     1      13.930   2.367  27.840  1.00  0.00     0.062 A 
ATOM      9  C   UNL     1      12.842   3.199  28.124  1.00  0.00     0.029 A 
ATOM     10  C   UNL     1      11.840   2.824  29.011  1.00  0.00     0.016 A 
ATOM     11  C   UNL     1      11.896   1.585  29.658  1.00  0.00     0.042 A 
ATOM     12  C   UNL     1      12.990   0.755  29.380  1.00  0.00     0.042 A 
ATOM     13  C   UNL     1      14.015   1.125  28.498  1.00  0.00     0.066 A 
ATOM     14  N   UNL     1      15.044   0.198  28.316  1.00  0.00    -0.320 N 
ATOM     15  C   UNL     1      15.939  -0.103  27.357  1.00  0.00     0.257 C 
ATOM     16  O   UNL     1      16.356  -1.260  27.286  1.00  0.00    -0.269 OA
ATOM     17  H   UNL     1      14.703   3.755  26.637  1.00  0.00     0.167 HD
ATOM     18  H   UNL     1      14.906  -0.609  28.907  1.00  0.00     0.170 HD
ENDROOT
BRANCH   1  19
ATOM     19  C   UNL     1      18.449   3.685  23.678  1.00  0.00    -0.014 A 
ATOM     20  C   UNL     1      19.647   5.785  23.269  1.00  0.00     0.161 A 
ATOM     21  C   UNL     1      19.728   5.458  21.910  1.00  0.00     0.157 A 
ATOM     22  C   UNL     1      19.004   4.887  24.141  1.00  0.00     0.059 A 
ATOM     23  C   UNL     1      19.179   4.267  21.437  1.00  0.00     0.051 A 
ATOM     24  C   UNL     1      18.548   3.389  22.314  1.00  0.00     0.013 A 
BRANCH  20  25
ATOM     25  O   UNL     1      20.212   6.982  23.675  1.00  0.00    -0.493 OA
ATOM     26  C   UNL     1      21.630   7.103  23.738  1.00  0.00     0.278 C 
ENDBRANCH  20  25
BRANCH  21  27
ATOM     27  O   UNL     1      20.344   6.302  21.022  1.00  0.00    -0.504 OA
ATOM     28  H   UNL     1      20.333   5.972  20.121  1.00  0.00     0.293 HD
ENDBRANCH  21  27
ENDBRANCH   1  19
BRANCH  11  29
ATOM     29  C   UNL     1      10.824   1.132  30.629  1.00  0.00     0.251 C 
ATOM     30  O   UNL     1      11.128   0.594  31.696  1.00  0.00    -0.269 OA
ATOM     31  N   UNL     1       9.544   1.357  30.269  1.00  0.00    -0.348 N 
ATOM     32  H   UNL     1       9.367   1.771  29.367  1.00  0.00     0.164 HD
BRANCH  31  33
ATOM     33  C   UNL     1       8.364   0.954  31.035  1.00  0.00     0.152 C 
BRANCH  33  34
ATOM     34  C   UNL     1       7.645   2.113  31.719  1.00  0.00    -0.026 A 
ATOM     35  C   UNL     1       8.346   3.276  32.056  1.00  0.00     0.044 A 
ATOM     36  C   UNL     1       6.295   1.997  32.071  1.00  0.00     0.006 A 
ATOM     37  C   UNL     1       7.697   4.324  32.710  1.00  0.00     0.123 A 
ATOM     38  C   UNL     1       5.646   3.047  32.723  1.00  0.00     0.003 A 
ATOM     39  C   UNL     1       6.347   4.211  33.040  1.00  0.00     0.039 A 
ATOM     40  F   UNL     1       8.378   5.448  33.025  1.00  0.00    -0.207 F 
ENDBRANCH  33  34
ENDBRANCH  31  33
ENDBRANCH  11  29
TORSDOF 6
ENDMDL
