MODEL 1
REMARK VINA RESULT:    -9.444      0.000      0.000
REMARK INTER + INTRA:         -17.792
REMARK INTER:                 -16.346
REMARK INTRA:                  -1.446
REMARK UNBOUND:                -1.446
REMARK SMILES C/C(=N\OCc1ccc(F)cc1)[C@@H](Cc1ccc(OCCc2nc(-c3ccccc3)oc2C)cc1)C(=O)O
REMARK SMILES IDX 14 1 13 2 2 3 3 4 1 5 4 6 5 7 6 8 7 9 12 10 8 11 11 12 9 13
REMARK SMILES IDX 10 14 36 15 37 16 38 17 15 19 16 20 35 21 17 22 34 23 18 24
REMARK SMILES IDX 19 25 20 26 21 27 22 28 23 29 32 30 24 31 31 32 33 33 25 34
REMARK SMILES IDX 26 35 30 36 27 37 29 38 28 39
REMARK H PARENT 38 18
ROOT
ATOM      1  C   UNL     1     -11.396  -8.314 -25.821  1.00  0.00     0.057 C 
ENDROOT
BRANCH   1   2
ATOM      2  C   UNL     1     -10.826  -7.516 -27.001  1.00  0.00     0.151 C 
BRANCH   2   3
ATOM      3  C   UNL     1     -11.590  -6.219 -27.234  1.00  0.00     0.069 C 
ATOM      4  N   UNL     1     -11.391  -5.596 -28.359  1.00  0.00    -0.095 NA
ATOM      5  C   UNL     1     -12.535  -5.710 -26.165  1.00  0.00     0.066 C 
BRANCH   4   6
ATOM      6  O   UNL     1     -12.140  -4.411 -28.424  1.00  0.00    -0.391 OA
BRANCH   6   7
ATOM      7  C   UNL     1     -12.541  -4.194 -29.780  1.00  0.00     0.299 C 
BRANCH   7   8
ATOM      8  C   UNL     1     -11.774  -3.036 -30.378  1.00  0.00    -0.008 A 
ATOM      9  C   UNL     1     -12.443  -1.928 -30.927  1.00  0.00     0.010 A 
ATOM     10  C   UNL     1     -10.371  -3.086 -30.447  1.00  0.00     0.010 A 
ATOM     11  C   UNL     1     -11.722  -0.883 -31.509  1.00  0.00     0.039 A 
ATOM     12  C   UNL     1      -9.653  -2.041 -31.032  1.00  0.00     0.039 A 
ATOM     13  C   UNL     1     -10.335  -0.948 -31.553  1.00  0.00     0.123 A 
ATOM     14  F   UNL     1      -9.644   0.055 -32.113  1.00  0.00    -0.207 F 
ENDBRANCH   7   8
ENDBRANCH   6   7
ENDBRANCH   4   6
ENDBRANCH   2   3
BRANCH   2  15
ATOM     15  C   UNL     1     -10.795  -8.378 -28.236  1.00  0.00     0.312 C 
ATOM     16  O   UNL     1     -11.673  -9.122 -28.639  1.00  0.00    -0.252 OA
BRANCH  15  17
ATOM     17  O   UNL     1      -9.642  -8.261 -28.927  1.00  0.00    -0.481 OA
ATOM     18  H   UNL     1      -8.986  -8.757 -28.393  1.00  0.00     0.296 HD
ENDBRANCH  15  17
ENDBRANCH   2  15
ENDBRANCH   1   2
BRANCH   1  19
ATOM     19  C   UNL     1     -10.505  -8.301 -24.601  1.00  0.00    -0.047 A 
ATOM     20  C   UNL     1      -9.285  -7.616 -24.621  1.00  0.00     0.007 A 
ATOM     21  C   UNL     1     -10.889  -8.959 -23.426  1.00  0.00     0.007 A 
ATOM     22  C   UNL     1      -8.472  -7.593 -23.486  1.00  0.00     0.047 A 
ATOM     23  C   UNL     1     -10.072  -8.931 -22.291  1.00  0.00     0.047 A 
ATOM     24  C   UNL     1      -8.860  -8.246 -22.314  1.00  0.00     0.119 A 
BRANCH  24  25
ATOM     25  O   UNL     1      -7.963  -8.143 -21.287  1.00  0.00    -0.493 OA
BRANCH  25  26
ATOM     26  C   UNL     1      -6.825  -7.289 -21.443  1.00  0.00     0.236 C 
BRANCH  26  27
ATOM     27  C   UNL     1      -6.738  -6.251 -20.323  1.00  0.00     0.101 C 
BRANCH  27  28
ATOM     28  C   UNL     1      -5.533  -5.387 -20.436  1.00  0.00     0.086 A 
ATOM     29  N   UNL     1      -5.641  -4.085 -20.874  1.00  0.00    -0.214 NA
ATOM     30  C   UNL     1      -4.214  -5.670 -20.155  1.00  0.00     0.125 A 
ATOM     31  C   UNL     1      -4.402  -3.628 -20.847  1.00  0.00     0.226 A 
ATOM     32  O   UNL     1      -3.479  -4.548 -20.418  1.00  0.00    -0.441 OA
ATOM     33  C   UNL     1      -3.481  -6.853 -19.675  1.00  0.00     0.090 C 
BRANCH  31  34
ATOM     34  C   UNL     1      -3.901  -2.303 -21.205  1.00  0.00     0.037 A 
ATOM     35  C   UNL     1      -2.758  -2.130 -22.000  1.00  0.00     0.014 A 
ATOM     36  C   UNL     1      -4.573  -1.161 -20.744  1.00  0.00     0.014 A 
ATOM     37  C   UNL     1      -2.302  -0.849 -22.326  1.00  0.00     0.001 A 
ATOM     38  C   UNL     1      -4.118   0.119 -21.068  1.00  0.00     0.001 A 
ATOM     39  C   UNL     1      -2.982   0.274 -21.859  1.00  0.00     0.000 A 
ENDBRANCH  31  34
ENDBRANCH  27  28
ENDBRANCH  26  27
ENDBRANCH  25  26
ENDBRANCH  24  25
ENDBRANCH   1  19
TORSDOF 13
ENDMDL
MODEL 2
REMARK VINA RESULT:    -9.362      2.244      2.882
REMARK INTER + INTRA:         -17.649
REMARK INTER:                 -16.243
REMARK INTRA:                  -1.406
REMARK UNBOUND:                -1.446
REMARK SMILES C/C(=N\OCc1ccc(F)cc1)[C@@H](Cc1ccc(OCCc2nc(-c3ccccc3)oc2C)cc1)C(=O)O
REMARK SMILES IDX 14 1 13 2 2 3 3 4 1 5 4 6 5 7 6 8 7 9 12 10 8 11 11 12 9 13
REMARK SMILES IDX 10 14 36 15 37 16 38 17 15 19 16 20 35 21 17 22 34 23 18 24
REMARK SMILES IDX 19 25 20 26 21 27 22 28 23 29 32 30 24 31 31 32 33 33 25 34
REMARK SMILES IDX 26 35 30 36 27 37 29 38 28 39
REMARK H PARENT 38 18
ROOT
ATOM      1  C   UNL     1     -11.484  -8.374 -25.221  1.00  0.00     0.057 C 
ENDROOT
BRANCH   1   2
ATOM      2  C   UNL     1     -11.055  -7.557 -26.447  1.00  0.00     0.151 C 
BRANCH   2   3
ATOM      3  C   UNL     1     -12.095  -6.511 -26.826  1.00  0.00     0.069 C 
ATOM      4  N   UNL     1     -13.200  -6.481 -26.139  1.00  0.00    -0.095 NA
ATOM      5  C   UNL     1     -11.810  -5.561 -27.972  1.00  0.00     0.066 C 
BRANCH   4   6
ATOM      6  O   UNL     1     -14.069  -5.487 -26.614  1.00  0.00    -0.391 OA
BRANCH   6   7
ATOM      7  C   UNL     1     -14.238  -4.499 -25.595  1.00  0.00     0.299 C 
BRANCH   7   8
ATOM      8  C   UNL     1     -14.471  -3.138 -26.212  1.00  0.00    -0.008 A 
ATOM      9  C   UNL     1     -15.022  -2.084 -25.463  1.00  0.00     0.010 A 
ATOM     10  C   UNL     1     -14.194  -2.931 -27.574  1.00  0.00     0.010 A 
ATOM     11  C   UNL     1     -15.265  -0.844 -26.056  1.00  0.00     0.039 A 
ATOM     12  C   UNL     1     -14.441  -1.690 -28.166  1.00  0.00     0.039 A 
ATOM     13  C   UNL     1     -14.970  -0.658 -27.401  1.00  0.00     0.123 A 
ATOM     14  F   UNL     1     -15.205   0.532 -27.971  1.00  0.00    -0.207 F 
ENDBRANCH   7   8
ENDBRANCH   6   7
ENDBRANCH   4   6
ENDBRANCH   2   3
BRANCH   2  15
ATOM     15  C   UNL     1     -10.745  -8.481 -27.595  1.00  0.00     0.312 C 
ATOM     16  O   UNL     1     -11.513  -8.870 -28.459  1.00  0.00    -0.252 OA
BRANCH  15  17
ATOM     17  O   UNL     1      -9.456  -8.880 -27.613  1.00  0.00    -0.481 OA
ATOM     18  H   UNL     1      -9.202  -8.845 -28.559  1.00  0.00     0.296 HD
ENDBRANCH  15  17
ENDBRANCH   2  15
ENDBRANCH   1   2
BRANCH   1  19
ATOM     19  C   UNL     1     -10.456  -8.381 -24.115  1.00  0.00    -0.047 A 
ATOM     20  C   UNL     1      -9.278  -7.637 -24.237  1.00  0.00     0.007 A 
ATOM     21  C   UNL     1     -10.670  -9.117 -22.942  1.00  0.00     0.007 A 
ATOM     22  C   UNL     1      -8.337  -7.633 -23.205  1.00  0.00     0.047 A 
ATOM     23  C   UNL     1      -9.725  -9.107 -21.910  1.00  0.00     0.047 A 
ATOM     24  C   UNL     1      -8.554  -8.363 -22.035  1.00  0.00     0.119 A 
BRANCH  24  25
ATOM     25  O   UNL     1      -7.547  -8.270 -21.115  1.00  0.00    -0.493 OA
BRANCH  25  26
ATOM     26  C   UNL     1      -6.500  -7.318 -21.327  1.00  0.00     0.236 C 
BRANCH  26  27
ATOM     27  C   UNL     1      -6.447  -6.276 -20.209  1.00  0.00     0.101 C 
BRANCH  27  28
ATOM     28  C   UNL     1      -5.298  -5.342 -20.353  1.00  0.00     0.086 A 
ATOM     29  N   UNL     1      -5.493  -4.050 -20.792  1.00  0.00    -0.214 NA
ATOM     30  C   UNL     1      -3.958  -5.544 -20.102  1.00  0.00     0.125 A 
ATOM     31  C   UNL     1      -4.283  -3.520 -20.794  1.00  0.00     0.226 A 
ATOM     32  O   UNL     1      -3.298  -4.381 -20.384  1.00  0.00    -0.441 OA
ATOM     33  C   UNL     1      -3.146  -6.680 -19.635  1.00  0.00     0.090 C 
BRANCH  31  34
ATOM     34  C   UNL     1      -3.871  -2.169 -21.167  1.00  0.00     0.037 A 
ATOM     35  C   UNL     1      -4.477  -1.028 -20.619  1.00  0.00     0.014 A 
ATOM     36  C   UNL     1      -2.839  -1.993 -22.102  1.00  0.00     0.014 A 
ATOM     37  C   UNL     1      -4.061   0.252 -20.996  1.00  0.00     0.001 A 
ATOM     38  C   UNL     1      -2.423  -0.715 -22.479  1.00  0.00     0.001 A 
ATOM     39  C   UNL     1      -3.034   0.408 -21.925  1.00  0.00     0.000 A 
ENDBRANCH  31  34
ENDBRANCH  27  28
ENDBRANCH  26  27
ENDBRANCH  25  26
ENDBRANCH  24  25
ENDBRANCH   1  19
TORSDOF 13
ENDMDL
MODEL 3
REMARK VINA RESULT:    -9.234      3.100     10.307
REMARK INTER + INTRA:         -17.428
REMARK INTER:                 -15.754
REMARK INTRA:                  -1.674
REMARK UNBOUND:                -1.446
REMARK SMILES C/C(=N\OCc1ccc(F)cc1)[C@@H](Cc1ccc(OCCc2nc(-c3ccccc3)oc2C)cc1)C(=O)O
REMARK SMILES IDX 14 1 13 2 2 3 3 4 1 5 4 6 5 7 6 8 7 9 12 10 8 11 11 12 9 13
REMARK SMILES IDX 10 14 36 15 37 16 38 17 15 19 16 20 35 21 17 22 34 23 18 24
REMARK SMILES IDX 19 25 20 26 21 27 22 28 23 29 32 30 24 31 31 32 33 33 25 34
REMARK SMILES IDX 26 35 30 36 27 37 29 38 28 39
REMARK H PARENT 38 18
ROOT
ATOM      1  C   UNL     1      -7.808  -7.661 -21.169  1.00  0.00     0.057 C 
ENDROOT
BRANCH   1   2
ATOM      2  C   UNL     1      -7.682  -6.178 -20.800  1.00  0.00     0.151 C 
BRANCH   2   3
ATOM      3  C   UNL     1      -6.243  -5.790 -20.479  1.00  0.00     0.069 C 
ATOM      4  N   UNL     1      -6.007  -4.546 -20.178  1.00  0.00    -0.095 NA
ATOM      5  C   UNL     1      -5.160  -6.849 -20.525  1.00  0.00     0.066 C 
BRANCH   4   6
ATOM      6  O   UNL     1      -4.642  -4.333 -19.930  1.00  0.00    -0.391 OA
BRANCH   6   7
ATOM      7  C   UNL     1      -4.478  -3.043 -19.336  1.00  0.00     0.299 C 
BRANCH   7   8
ATOM      8  C   UNL     1      -3.884  -2.074 -20.333  1.00  0.00    -0.008 A 
ATOM      9  C   UNL     1      -4.263  -0.721 -20.346  1.00  0.00     0.010 A 
ATOM     10  C   UNL     1      -2.983  -2.538 -21.307  1.00  0.00     0.010 A 
ATOM     11  C   UNL     1      -3.731   0.154 -21.296  1.00  0.00     0.039 A 
ATOM     12  C   UNL     1      -2.456  -1.661 -22.258  1.00  0.00     0.039 A 
ATOM     13  C   UNL     1      -2.832  -0.323 -22.241  1.00  0.00     0.123 A 
ATOM     14  F   UNL     1      -2.325   0.517 -23.153  1.00  0.00    -0.207 F 
ENDBRANCH   7   8
ENDBRANCH   6   7
ENDBRANCH   4   6
ENDBRANCH   2   3
BRANCH   2  15
ATOM     15  C   UNL     1      -8.617  -5.850 -19.665  1.00  0.00     0.312 C 
ATOM     16  O   UNL     1      -9.042  -6.613 -18.815  1.00  0.00    -0.252 OA
BRANCH  15  17
ATOM     17  O   UNL     1      -8.978  -4.550 -19.644  1.00  0.00    -0.481 OA
ATOM     18  H   UNL     1      -8.394  -4.123 -20.306  1.00  0.00     0.296 HD
ENDBRANCH  15  17
ENDBRANCH   2  15
ENDBRANCH   1   2
BRANCH   1  19
ATOM     19  C   UNL     1      -8.722  -7.912 -22.345  1.00  0.00    -0.047 A 
ATOM     20  C   UNL     1      -9.905  -8.640 -22.181  1.00  0.00     0.007 A 
ATOM     21  C   UNL     1      -8.410  -7.409 -23.614  1.00  0.00     0.007 A 
ATOM     22  C   UNL     1     -10.756  -8.856 -23.268  1.00  0.00     0.047 A 
ATOM     23  C   UNL     1      -9.267  -7.626 -24.699  1.00  0.00     0.047 A 
ATOM     24  C   UNL     1     -10.446  -8.349 -24.531  1.00  0.00     0.119 A 
BRANCH  24  25
ATOM     25  O   UNL     1     -11.366  -8.643 -25.499  1.00  0.00    -0.493 OA
BRANCH  25  26
ATOM     26  C   UNL     1     -12.429  -7.719 -25.749  1.00  0.00     0.236 C 
BRANCH  26  27
ATOM     27  C   UNL     1     -11.940  -6.482 -26.503  1.00  0.00     0.101 C 
BRANCH  27  28
ATOM     28  C   UNL     1     -11.550  -6.785 -27.906  1.00  0.00     0.086 A 
ATOM     29  N   UNL     1     -10.264  -7.179 -28.208  1.00  0.00    -0.214 NA
ATOM     30  C   UNL     1     -12.302  -6.746 -29.061  1.00  0.00     0.125 A 
ATOM     31  C   UNL     1     -10.278  -7.362 -29.517  1.00  0.00     0.226 A 
ATOM     32  O   UNL     1     -11.494  -7.112 -30.100  1.00  0.00    -0.441 OA
ATOM     33  C   UNL     1     -13.696  -6.403 -29.384  1.00  0.00     0.090 C 
BRANCH  31  34
ATOM     34  C   UNL     1      -9.193  -7.786 -30.399  1.00  0.00     0.037 A 
ATOM     35  C   UNL     1      -8.860  -7.075 -31.562  1.00  0.00     0.014 A 
ATOM     36  C   UNL     1      -8.455  -8.937 -30.085  1.00  0.00     0.014 A 
ATOM     37  C   UNL     1      -7.817  -7.506 -32.387  1.00  0.00     0.001 A 
ATOM     38  C   UNL     1      -7.413  -9.368 -30.908  1.00  0.00     0.001 A 
ATOM     39  C   UNL     1      -7.094  -8.651 -32.060  1.00  0.00     0.000 A 
ENDBRANCH  31  34
ENDBRANCH  27  28
ENDBRANCH  26  27
ENDBRANCH  25  26
ENDBRANCH  24  25
ENDBRANCH   1  19
TORSDOF 13
ENDMDL
MODEL 4
REMARK VINA RESULT:    -9.137      2.340     10.138
REMARK INTER + INTRA:         -17.260
REMARK INTER:                 -15.897
REMARK INTRA:                  -1.363
REMARK UNBOUND:                -1.446
REMARK SMILES C/C(=N\OCc1ccc(F)cc1)[C@@H](Cc1ccc(OCCc2nc(-c3ccccc3)oc2C)cc1)C(=O)O
REMARK SMILES IDX 14 1 13 2 2 3 3 4 1 5 4 6 5 7 6 8 7 9 12 10 8 11 11 12 9 13
REMARK SMILES IDX 10 14 36 15 37 16 38 17 15 19 16 20 35 21 17 22 34 23 18 24
REMARK SMILES IDX 19 25 20 26 21 27 22 28 23 29 32 30 24 31 31 32 33 33 25 34
REMARK SMILES IDX 26 35 30 36 27 37 29 38 28 39
REMARK H PARENT 38 18
ROOT
ATOM      1  C   UNL     1      -7.736  -7.690 -21.337  1.00  0.00     0.057 C 
ENDROOT
BRANCH   1   2
ATOM      2  C   UNL     1      -7.601  -6.210 -20.959  1.00  0.00     0.151 C 
BRANCH   2   3
ATOM      3  C   UNL     1      -6.168  -5.842 -20.597  1.00  0.00     0.069 C 
ATOM      4  N   UNL     1      -5.897  -4.582 -20.409  1.00  0.00    -0.095 NA
ATOM      5  C   UNL     1      -5.128  -6.936 -20.472  1.00  0.00     0.066 C 
BRANCH   4   6
ATOM      6  O   UNL     1      -4.541  -4.393 -20.106  1.00  0.00    -0.391 OA
BRANCH   6   7
ATOM      7  C   UNL     1      -4.390  -3.140 -19.433  1.00  0.00     0.299 C 
BRANCH   7   8
ATOM      8  C   UNL     1      -3.848  -2.094 -20.381  1.00  0.00    -0.008 A 
ATOM      9  C   UNL     1      -4.331  -0.774 -20.362  1.00  0.00     0.010 A 
ATOM     10  C   UNL     1      -2.888  -2.452 -21.343  1.00  0.00     0.010 A 
ATOM     11  C   UNL     1      -3.846   0.172 -21.267  1.00  0.00     0.039 A 
ATOM     12  C   UNL     1      -2.406  -1.505 -22.250  1.00  0.00     0.039 A 
ATOM     13  C   UNL     1      -2.887  -0.202 -22.201  1.00  0.00     0.123 A 
ATOM     14  F   UNL     1      -2.424   0.707 -23.070  1.00  0.00    -0.207 F 
ENDBRANCH   7   8
ENDBRANCH   6   7
ENDBRANCH   4   6
ENDBRANCH   2   3
BRANCH   2  15
ATOM     15  C   UNL     1      -8.563  -5.874 -19.850  1.00  0.00     0.312 C 
ATOM     16  O   UNL     1      -9.070  -6.645 -19.053  1.00  0.00    -0.252 OA
BRANCH  15  17
ATOM     17  O   UNL     1      -8.847  -4.556 -19.784  1.00  0.00    -0.481 OA
ATOM     18  H   UNL     1      -9.644  -4.449 -20.345  1.00  0.00     0.296 HD
ENDBRANCH  15  17
ENDBRANCH   2  15
ENDBRANCH   1   2
BRANCH   1  19
ATOM     19  C   UNL     1      -8.694  -7.934 -22.479  1.00  0.00    -0.047 A 
ATOM     20  C   UNL     1      -9.851  -8.695 -22.283  1.00  0.00     0.007 A 
ATOM     21  C   UNL     1      -8.450  -7.391 -23.746  1.00  0.00     0.007 A 
ATOM     22  C   UNL     1     -10.743  -8.905 -23.338  1.00  0.00     0.047 A 
ATOM     23  C   UNL     1      -9.348  -7.602 -24.799  1.00  0.00     0.047 A 
ATOM     24  C   UNL     1     -10.501  -8.358 -24.600  1.00  0.00     0.119 A 
BRANCH  24  25
ATOM     25  O   UNL     1     -11.454  -8.651 -25.534  1.00  0.00    -0.493 OA
BRANCH  25  26
ATOM     26  C   UNL     1     -11.275  -8.187 -26.876  1.00  0.00     0.236 C 
BRANCH  26  27
ATOM     27  C   UNL     1     -12.221  -7.031 -27.207  1.00  0.00     0.101 C 
BRANCH  27  28
ATOM     28  C   UNL     1     -11.833  -6.314 -28.451  1.00  0.00     0.086 A 
ATOM     29  N   UNL     1     -11.820  -4.937 -28.492  1.00  0.00    -0.214 NA
ATOM     30  C   UNL     1     -11.448  -6.814 -29.676  1.00  0.00     0.125 A 
ATOM     31  C   UNL     1     -11.434  -4.651 -29.723  1.00  0.00     0.226 A 
ATOM     32  O   UNL     1     -11.191  -5.755 -30.500  1.00  0.00    -0.441 OA
ATOM     33  C   UNL     1     -11.278  -8.162 -30.244  1.00  0.00     0.090 C 
BRANCH  31  34
ATOM     34  C   UNL     1     -11.236  -3.344 -30.346  1.00  0.00     0.037 A 
ATOM     35  C   UNL     1     -12.298  -2.451 -30.554  1.00  0.00     0.014 A 
ATOM     36  C   UNL     1      -9.950  -2.960 -30.755  1.00  0.00     0.014 A 
ATOM     37  C   UNL     1     -12.078  -1.208 -31.154  1.00  0.00     0.001 A 
ATOM     38  C   UNL     1      -9.730  -1.718 -31.355  1.00  0.00     0.001 A 
ATOM     39  C   UNL     1     -10.794  -0.841 -31.554  1.00  0.00     0.000 A 
ENDBRANCH  31  34
ENDBRANCH  27  28
ENDBRANCH  26  27
ENDBRANCH  25  26
ENDBRANCH  24  25
ENDBRANCH   1  19
TORSDOF 13
ENDMDL
MODEL 5
REMARK VINA RESULT:    -9.062      4.117      5.566
REMARK INTER + INTRA:         -17.130
REMARK INTER:                 -15.919
REMARK INTRA:                  -1.211
REMARK UNBOUND:                -1.446
REMARK SMILES C/C(=N\OCc1ccc(F)cc1)[C@@H](Cc1ccc(OCCc2nc(-c3ccccc3)oc2C)cc1)C(=O)O
REMARK SMILES IDX 14 1 13 2 2 3 3 4 1 5 4 6 5 7 6 8 7 9 12 10 8 11 11 12 9 13
REMARK SMILES IDX 10 14 36 15 37 16 38 17 15 19 16 20 35 21 17 22 34 23 18 24
REMARK SMILES IDX 19 25 20 26 21 27 22 28 23 29 32 30 24 31 31 32 33 33 25 34
REMARK SMILES IDX 26 35 30 36 27 37 29 38 28 39
REMARK H PARENT 38 18
ROOT
ATOM      1  C   UNL     1      -9.013  -8.185 -27.136  1.00  0.00     0.057 C 
ENDROOT
BRANCH   1   2
ATOM      2  C   UNL     1     -10.421  -8.730 -27.406  1.00  0.00     0.151 C 
BRANCH   2   3
ATOM      3  C   UNL     1     -10.619  -9.099 -28.870  1.00  0.00     0.069 C 
ATOM      4  N   UNL     1     -11.823  -9.011 -29.358  1.00  0.00    -0.095 NA
ATOM      5  C   UNL     1      -9.428  -9.551 -29.691  1.00  0.00     0.066 C 
BRANCH   4   6
ATOM      6  O   UNL     1     -11.857  -9.403 -30.704  1.00  0.00    -0.391 OA
BRANCH   6   7
ATOM      7  C   UNL     1     -13.214  -9.391 -31.153  1.00  0.00     0.299 C 
BRANCH   7   8
ATOM      8  C   UNL     1     -13.777 -10.794 -31.170  1.00  0.00    -0.008 A 
ATOM      9  C   UNL     1     -13.040 -11.879 -30.664  1.00  0.00     0.010 A 
ATOM     10  C   UNL     1     -15.031 -11.039 -31.755  1.00  0.00     0.010 A 
ATOM     11  C   UNL     1     -13.558 -13.175 -30.719  1.00  0.00     0.039 A 
ATOM     12  C   UNL     1     -15.545 -12.336 -31.812  1.00  0.00     0.039 A 
ATOM     13  C   UNL     1     -14.806 -13.391 -31.290  1.00  0.00     0.123 A 
ATOM     14  F   UNL     1     -15.301 -14.635 -31.343  1.00  0.00    -0.207 F 
ENDBRANCH   7   8
ENDBRANCH   6   7
ENDBRANCH   4   6
ENDBRANCH   2   3
BRANCH   2  15
ATOM     15  C   UNL     1     -11.453  -7.739 -26.934  1.00  0.00     0.312 C 
ATOM     16  O   UNL     1     -12.442  -7.967 -26.259  1.00  0.00    -0.252 OA
BRANCH  15  17
ATOM     17  O   UNL     1     -11.188  -6.477 -27.333  1.00  0.00    -0.481 OA
ATOM     18  H   UNL     1     -11.079  -6.546 -28.305  1.00  0.00     0.296 HD
ENDBRANCH  15  17
ENDBRANCH   2  15
ENDBRANCH   1   2
BRANCH   1  19
ATOM     19  C   UNL     1      -8.566  -8.360 -25.704  1.00  0.00    -0.047 A 
ATOM     20  C   UNL     1      -8.972  -7.453 -24.719  1.00  0.00     0.007 A 
ATOM     21  C   UNL     1      -7.752  -9.437 -25.333  1.00  0.00     0.007 A 
ATOM     22  C   UNL     1      -8.570  -7.626 -23.393  1.00  0.00     0.047 A 
ATOM     23  C   UNL     1      -7.354  -9.608 -24.003  1.00  0.00     0.047 A 
ATOM     24  C   UNL     1      -7.763  -8.705 -23.025  1.00  0.00     0.119 A 
BRANCH  24  25
ATOM     25  O   UNL     1      -7.443  -8.744 -21.696  1.00  0.00    -0.493 OA
BRANCH  25  26
ATOM     26  C   UNL     1      -6.267  -8.063 -21.245  1.00  0.00     0.236 C 
BRANCH  26  27
ATOM     27  C   UNL     1      -6.612  -6.796 -20.460  1.00  0.00     0.101 C 
BRANCH  27  28
ATOM     28  C   UNL     1      -5.497  -5.812 -20.445  1.00  0.00     0.086 A 
ATOM     29  N   UNL     1      -5.691  -4.525 -20.897  1.00  0.00    -0.214 NA
ATOM     30  C   UNL     1      -4.193  -5.960 -20.023  1.00  0.00     0.125 A 
ATOM     31  C   UNL     1      -4.515  -3.943 -20.737  1.00  0.00     0.226 A 
ATOM     32  O   UNL     1      -3.555  -4.766 -20.208  1.00  0.00    -0.441 OA
ATOM     33  C   UNL     1      -3.399  -7.065 -19.463  1.00  0.00     0.090 C 
BRANCH  31  34
ATOM     34  C   UNL     1      -4.118  -2.571 -21.043  1.00  0.00     0.037 A 
ATOM     35  C   UNL     1      -4.574  -1.479 -20.288  1.00  0.00     0.014 A 
ATOM     36  C   UNL     1      -3.257  -2.323 -22.122  1.00  0.00     0.014 A 
ATOM     37  C   UNL     1      -4.177  -0.177 -20.605  1.00  0.00     0.001 A 
ATOM     38  C   UNL     1      -2.860  -1.022 -22.440  1.00  0.00     0.001 A 
ATOM     39  C   UNL     1      -3.320   0.051 -21.681  1.00  0.00     0.000 A 
ENDBRANCH  31  34
ENDBRANCH  27  28
ENDBRANCH  26  27
ENDBRANCH  25  26
ENDBRANCH  24  25
ENDBRANCH   1  19
TORSDOF 13
ENDMDL
MODEL 6
REMARK VINA RESULT:    -9.026      3.101      3.770
REMARK INTER + INTRA:         -17.069
REMARK INTER:                 -15.763
REMARK INTRA:                  -1.306
REMARK UNBOUND:                -1.446
REMARK SMILES C/C(=N\OCc1ccc(F)cc1)[C@@H](Cc1ccc(OCCc2nc(-c3ccccc3)oc2C)cc1)C(=O)O
REMARK SMILES IDX 14 1 13 2 2 3 3 4 1 5 4 6 5 7 6 8 7 9 12 10 8 11 11 12 9 13
REMARK SMILES IDX 10 14 36 15 37 16 38 17 15 19 16 20 35 21 17 22 34 23 18 24
REMARK SMILES IDX 19 25 20 26 21 27 22 28 23 29 32 30 24 31 31 32 33 33 25 34
REMARK SMILES IDX 26 35 30 36 27 37 29 38 28 39
REMARK H PARENT 38 18
ROOT
ATOM      1  C   UNL     1      -8.552  -9.383 -25.819  1.00  0.00     0.057 C 
ENDROOT
BRANCH   1   2
ATOM      2  C   UNL     1      -8.538  -8.228 -26.828  1.00  0.00     0.151 C 
BRANCH   2   3
ATOM      3  C   UNL     1      -9.895  -8.037 -27.495  1.00  0.00     0.069 C 
ATOM      4  N   UNL     1      -9.907  -7.623 -28.729  1.00  0.00    -0.095 NA
ATOM      5  C   UNL     1     -11.157  -8.329 -26.709  1.00  0.00     0.066 C 
BRANCH   4   6
ATOM      6  O   UNL     1     -11.220  -7.471 -29.201  1.00  0.00    -0.391 OA
BRANCH   6   7
ATOM      7  C   UNL     1     -11.318  -8.080 -30.492  1.00  0.00     0.299 C 
BRANCH   7   8
ATOM      8  C   UNL     1      -9.945  -8.240 -31.105  1.00  0.00    -0.008 A 
ATOM      9  C   UNL     1      -9.207  -9.425 -30.937  1.00  0.00     0.010 A 
ATOM     10  C   UNL     1      -9.361  -7.169 -31.803  1.00  0.00     0.010 A 
ATOM     11  C   UNL     1      -7.926  -9.544 -31.479  1.00  0.00     0.039 A 
ATOM     12  C   UNL     1      -8.078  -7.290 -32.342  1.00  0.00     0.039 A 
ATOM     13  C   UNL     1      -7.375  -8.477 -32.178  1.00  0.00     0.123 A 
ATOM     14  F   UNL     1      -6.144  -8.592 -32.696  1.00  0.00    -0.207 F 
ENDBRANCH   7   8
ENDBRANCH   6   7
ENDBRANCH   4   6
ENDBRANCH   2   3
BRANCH   2  15
ATOM     15  C   UNL     1      -7.442  -8.443 -27.839  1.00  0.00     0.312 C 
ATOM     16  O   UNL     1      -6.763  -9.444 -27.991  1.00  0.00    -0.252 OA
BRANCH  15  17
ATOM     17  O   UNL     1      -7.249  -7.371 -28.636  1.00  0.00    -0.481 OA
ATOM     18  H   UNL     1      -7.790  -6.663 -28.229  1.00  0.00     0.296 HD
ENDBRANCH  15  17
ENDBRANCH   2  15
ENDBRANCH   1   2
BRANCH   1  19
ATOM     19  C   UNL     1      -8.138  -8.970 -24.427  1.00  0.00    -0.047 A 
ATOM     20  C   UNL     1      -8.544  -7.738 -23.903  1.00  0.00     0.007 A 
ATOM     21  C   UNL     1      -7.355  -9.815 -23.632  1.00  0.00     0.007 A 
ATOM     22  C   UNL     1      -8.172  -7.366 -22.609  1.00  0.00     0.047 A 
ATOM     23  C   UNL     1      -6.987  -9.439 -22.335  1.00  0.00     0.047 A 
ATOM     24  C   UNL     1      -7.396  -8.213 -21.816  1.00  0.00     0.119 A 
BRANCH  24  25
ATOM     25  O   UNL     1      -7.104  -7.716 -20.576  1.00  0.00    -0.493 OA
BRANCH  25  26
ATOM     26  C   UNL     1      -7.394  -6.343 -20.294  1.00  0.00     0.236 C 
BRANCH  26  27
ATOM     27  C   UNL     1      -6.480  -5.783 -19.203  1.00  0.00     0.101 C 
BRANCH  27  28
ATOM     28  C   UNL     1      -5.319  -5.037 -19.756  1.00  0.00     0.086 A 
ATOM     29  N   UNL     1      -5.441  -3.712 -20.112  1.00  0.00    -0.214 NA
ATOM     30  C   UNL     1      -4.029  -5.461 -19.996  1.00  0.00     0.125 A 
ATOM     31  C   UNL     1      -4.240  -3.380 -20.551  1.00  0.00     0.226 A 
ATOM     32  O   UNL     1      -3.330  -4.404 -20.508  1.00  0.00    -0.441 OA
ATOM     33  C   UNL     1      -3.304  -6.731 -19.835  1.00  0.00     0.090 C 
BRANCH  31  34
ATOM     34  C   UNL     1      -3.769  -2.095 -21.063  1.00  0.00     0.037 A 
ATOM     35  C   UNL     1      -2.671  -1.997 -21.931  1.00  0.00     0.014 A 
ATOM     36  C   UNL     1      -4.425  -0.915 -20.681  1.00  0.00     0.014 A 
ATOM     37  C   UNL     1      -2.243  -0.753 -22.403  1.00  0.00     0.001 A 
ATOM     38  C   UNL     1      -3.998   0.328 -21.151  1.00  0.00     0.001 A 
ATOM     39  C   UNL     1      -2.907   0.409 -22.013  1.00  0.00     0.000 A 
ENDBRANCH  31  34
ENDBRANCH  27  28
ENDBRANCH  26  27
ENDBRANCH  25  26
ENDBRANCH  24  25
ENDBRANCH   1  19
TORSDOF 13
ENDMDL
MODEL 7
REMARK VINA RESULT:    -8.971      3.299     10.090
REMARK INTER + INTRA:         -16.973
REMARK INTER:                 -15.262
REMARK INTRA:                  -1.711
REMARK UNBOUND:                -1.446
REMARK SMILES C/C(=N\OCc1ccc(F)cc1)[C@@H](Cc1ccc(OCCc2nc(-c3ccccc3)oc2C)cc1)C(=O)O
REMARK SMILES IDX 14 1 13 2 2 3 3 4 1 5 4 6 5 7 6 8 7 9 12 10 8 11 11 12 9 13
REMARK SMILES IDX 10 14 36 15 37 16 38 17 15 19 16 20 35 21 17 22 34 23 18 24
REMARK SMILES IDX 19 25 20 26 21 27 22 28 23 29 32 30 24 31 31 32 33 33 25 34
REMARK SMILES IDX 26 35 30 36 27 37 29 38 28 39
REMARK H PARENT 38 18
ROOT
ATOM      1  C   UNL     1      -8.468  -7.885 -24.706  1.00  0.00     0.057 C 
ENDROOT
BRANCH   1   2
ATOM      2  C   UNL     1      -8.614  -8.933 -23.595  1.00  0.00     0.151 C 
BRANCH   2   3
ATOM      3  C   UNL     1      -8.818  -8.291 -22.228  1.00  0.00     0.069 C 
ATOM      4  N   UNL     1      -7.999  -7.341 -21.880  1.00  0.00    -0.095 NA
ATOM      5  C   UNL     1      -9.946  -8.775 -21.340  1.00  0.00     0.066 C 
BRANCH   4   6
ATOM      6  O   UNL     1      -8.292  -6.863 -20.594  1.00  0.00    -0.391 OA
BRANCH   6   7
ATOM      7  C   UNL     1      -7.793  -5.528 -20.474  1.00  0.00     0.299 C 
BRANCH   7   8
ATOM      8  C   UNL     1      -6.286  -5.538 -20.353  1.00  0.00    -0.008 A 
ATOM      9  C   UNL     1      -5.594  -6.700 -19.967  1.00  0.00     0.010 A 
ATOM     10  C   UNL     1      -5.558  -4.354 -20.567  1.00  0.00     0.010 A 
ATOM     11  C   UNL     1      -4.205  -6.683 -19.825  1.00  0.00     0.039 A 
ATOM     12  C   UNL     1      -4.170  -4.340 -20.422  1.00  0.00     0.039 A 
ATOM     13  C   UNL     1      -3.506  -5.505 -20.056  1.00  0.00     0.123 A 
ATOM     14  F   UNL     1      -2.173  -5.490 -19.917  1.00  0.00    -0.207 F 
ENDBRANCH   7   8
ENDBRANCH   6   7
ENDBRANCH   4   6
ENDBRANCH   2   3
BRANCH   2  15
ATOM     15  C   UNL     1      -7.427  -9.861 -23.606  1.00  0.00     0.312 C 
ATOM     16  O   UNL     1      -6.886 -10.357 -24.579  1.00  0.00    -0.252 OA
BRANCH  15  17
ATOM     17  O   UNL     1      -6.957 -10.123 -22.368  1.00  0.00    -0.481 OA
ATOM     18  H   UNL     1      -6.006 -10.316 -22.504  1.00  0.00     0.296 HD
ENDBRANCH  15  17
ENDBRANCH   2  15
ENDBRANCH   1   2
BRANCH   1  19
ATOM     19  C   UNL     1      -9.355  -8.148 -25.899  1.00  0.00    -0.047 A 
ATOM     20  C   UNL     1     -10.748  -8.155 -25.761  1.00  0.00     0.007 A 
ATOM     21  C   UNL     1      -8.803  -8.375 -27.166  1.00  0.00     0.007 A 
ATOM     22  C   UNL     1     -11.565  -8.384 -26.870  1.00  0.00     0.047 A 
ATOM     23  C   UNL     1      -9.626  -8.600 -28.275  1.00  0.00     0.047 A 
ATOM     24  C   UNL     1     -11.012  -8.603 -28.133  1.00  0.00     0.119 A 
BRANCH  24  25
ATOM     25  O   UNL     1     -11.931  -8.818 -29.122  1.00  0.00    -0.493 OA
BRANCH  25  26
ATOM     26  C   UNL     1     -12.076  -7.841 -30.158  1.00  0.00     0.236 C 
BRANCH  26  27
ATOM     27  C   UNL     1     -13.077  -6.751 -29.771  1.00  0.00     0.101 C 
BRANCH  27  28
ATOM     28  C   UNL     1     -12.432  -5.423 -29.587  1.00  0.00     0.086 A 
ATOM     29  N   UNL     1     -12.018  -4.686 -30.675  1.00  0.00    -0.214 NA
ATOM     30  C   UNL     1     -12.152  -4.730 -28.428  1.00  0.00     0.125 A 
ATOM     31  C   UNL     1     -11.506  -3.588 -30.149  1.00  0.00     0.226 A 
ATOM     32  O   UNL     1     -11.556  -3.551 -28.779  1.00  0.00    -0.441 OA
ATOM     33  C   UNL     1     -12.341  -4.985 -26.991  1.00  0.00     0.090 C 
BRANCH  31  34
ATOM     34  C   UNL     1     -10.910  -2.436 -30.822  1.00  0.00     0.037 A 
ATOM     35  C   UNL     1      -9.525  -2.322 -31.017  1.00  0.00     0.014 A 
ATOM     36  C   UNL     1     -11.737  -1.404 -31.291  1.00  0.00     0.014 A 
ATOM     37  C   UNL     1      -8.984  -1.208 -31.663  1.00  0.00     0.001 A 
ATOM     38  C   UNL     1     -11.198  -0.290 -31.937  1.00  0.00     0.001 A 
ATOM     39  C   UNL     1      -9.820  -0.192 -32.124  1.00  0.00     0.000 A 
ENDBRANCH  31  34
ENDBRANCH  27  28
ENDBRANCH  26  27
ENDBRANCH  25  26
ENDBRANCH  24  25
ENDBRANCH   1  19
TORSDOF 13
ENDMDL
MODEL 8
REMARK VINA RESULT:    -8.850      3.140      4.901
REMARK INTER + INTRA:         -16.764
REMARK INTER:                 -13.798
REMARK INTRA:                  -2.966
REMARK UNBOUND:                -1.446
REMARK SMILES C/C(=N\OCc1ccc(F)cc1)[C@@H](Cc1ccc(OCCc2nc(-c3ccccc3)oc2C)cc1)C(=O)O
REMARK SMILES IDX 14 1 13 2 2 3 3 4 1 5 4 6 5 7 6 8 7 9 12 10 8 11 11 12 9 13
REMARK SMILES IDX 10 14 36 15 37 16 38 17 15 19 16 20 35 21 17 22 34 23 18 24
REMARK SMILES IDX 19 25 20 26 21 27 22 28 23 29 32 30 24 31 31 32 33 33 25 34
REMARK SMILES IDX 26 35 30 36 27 37 29 38 28 39
REMARK H PARENT 38 18
ROOT
ATOM      1  C   UNL     1      -9.307  -8.908 -29.523  1.00  0.00     0.057 C 
ENDROOT
BRANCH   1   2
ATOM      2  C   UNL     1      -8.992  -7.650 -30.343  1.00  0.00     0.151 C 
BRANCH   2   3
ATOM      3  C   UNL     1     -10.256  -6.966 -30.848  1.00  0.00     0.069 C 
ATOM      4  N   UNL     1     -10.318  -5.669 -30.757  1.00  0.00    -0.095 NA
ATOM      5  C   UNL     1     -11.377  -7.807 -31.425  1.00  0.00     0.066 C 
BRANCH   4   6
ATOM      6  O   UNL     1     -11.543  -5.183 -31.237  1.00  0.00    -0.391 OA
BRANCH   6   7
ATOM      7  C   UNL     1     -12.021  -4.175 -30.341  1.00  0.00     0.299 C 
BRANCH   7   8
ATOM      8  C   UNL     1     -12.524  -4.803 -29.061  1.00  0.00    -0.008 A 
ATOM      9  C   UNL     1     -13.516  -5.799 -29.080  1.00  0.00     0.010 A 
ATOM     10  C   UNL     1     -12.045  -4.345 -27.821  1.00  0.00     0.010 A 
ATOM     11  C   UNL     1     -13.996  -6.344 -27.888  1.00  0.00     0.039 A 
ATOM     12  C   UNL     1     -12.530  -4.889 -26.630  1.00  0.00     0.039 A 
ATOM     13  C   UNL     1     -13.498  -5.885 -26.675  1.00  0.00     0.123 A 
ATOM     14  F   UNL     1     -13.962  -6.407 -25.531  1.00  0.00    -0.207 F 
ENDBRANCH   7   8
ENDBRANCH   6   7
ENDBRANCH   4   6
ENDBRANCH   2   3
BRANCH   2  15
ATOM     15  C   UNL     1      -8.053  -7.995 -31.470  1.00  0.00     0.312 C 
ATOM     16  O   UNL     1      -7.628  -9.098 -31.766  1.00  0.00    -0.252 OA
BRANCH  15  17
ATOM     17  O   UNL     1      -7.688  -6.916 -32.195  1.00  0.00    -0.481 OA
ATOM     18  H   UNL     1      -7.431  -7.283 -33.067  1.00  0.00     0.296 HD
ENDBRANCH  15  17
ENDBRANCH   2  15
ENDBRANCH   1   2
BRANCH   1  19
ATOM     19  C   UNL     1      -9.494  -8.633 -28.051  1.00  0.00    -0.047 A 
ATOM     20  C   UNL     1     -10.779  -8.550 -27.502  1.00  0.00     0.007 A 
ATOM     21  C   UNL     1      -8.389  -8.472 -27.206  1.00  0.00     0.007 A 
ATOM     22  C   UNL     1     -10.947  -8.311 -26.136  1.00  0.00     0.047 A 
ATOM     23  C   UNL     1      -8.563  -8.236 -25.838  1.00  0.00     0.047 A 
ATOM     24  C   UNL     1      -9.843  -8.157 -25.295  1.00  0.00     0.119 A 
BRANCH  24  25
ATOM     25  O   UNL     1     -10.160  -7.923 -23.986  1.00  0.00    -0.493 OA
BRANCH  25  26
ATOM     26  C   UNL     1     -10.739  -8.979 -23.213  1.00  0.00     0.236 C 
BRANCH  26  27
ATOM     27  C   UNL     1     -10.175  -9.015 -21.791  1.00  0.00     0.101 C 
BRANCH  27  28
ATOM     28  C   UNL     1      -8.733  -8.654 -21.738  1.00  0.00     0.086 A 
ATOM     29  N   UNL     1      -8.325  -7.482 -21.141  1.00  0.00    -0.214 NA
ATOM     30  C   UNL     1      -7.634  -9.335 -22.214  1.00  0.00     0.125 A 
ATOM     31  C   UNL     1      -7.010  -7.489 -21.272  1.00  0.00     0.226 A 
ATOM     32  O   UNL     1      -6.523  -8.595 -21.921  1.00  0.00    -0.441 OA
ATOM     33  C   UNL     1      -7.424 -10.603 -22.932  1.00  0.00     0.090 C 
BRANCH  31  34
ATOM     34  C   UNL     1      -6.034  -6.498 -20.826  1.00  0.00     0.037 A 
ATOM     35  C   UNL     1      -6.388  -5.162 -20.584  1.00  0.00     0.014 A 
ATOM     36  C   UNL     1      -4.698  -6.880 -20.631  1.00  0.00     0.014 A 
ATOM     37  C   UNL     1      -5.432  -4.236 -20.158  1.00  0.00     0.001 A 
ATOM     38  C   UNL     1      -3.742  -5.956 -20.207  1.00  0.00     0.001 A 
ATOM     39  C   UNL     1      -4.110  -4.633 -19.969  1.00  0.00     0.000 A 
ENDBRANCH  31  34
ENDBRANCH  27  28
ENDBRANCH  26  27
ENDBRANCH  25  26
ENDBRANCH  24  25
ENDBRANCH   1  19
TORSDOF 13
ENDMDL
MODEL 9
REMARK VINA RESULT:    -8.818      2.451      3.340
REMARK INTER + INTRA:         -16.708
REMARK INTER:                 -15.443
REMARK INTRA:                  -1.265
REMARK UNBOUND:                -1.446
REMARK SMILES C/C(=N\OCc1ccc(F)cc1)[C@@H](Cc1ccc(OCCc2nc(-c3ccccc3)oc2C)cc1)C(=O)O
REMARK SMILES IDX 14 1 13 2 2 3 3 4 1 5 4 6 5 7 6 8 7 9 12 10 8 11 11 12 9 13
REMARK SMILES IDX 10 14 36 15 37 16 38 17 15 19 16 20 35 21 17 22 34 23 18 24
REMARK SMILES IDX 19 25 20 26 21 27 22 28 23 29 32 30 24 31 31 32 33 33 25 34
REMARK SMILES IDX 26 35 30 36 27 37 29 38 28 39
REMARK H PARENT 38 18
ROOT
ATOM      1  C   UNL     1      -8.723  -9.231 -27.267  1.00  0.00     0.057 C 
ENDROOT
BRANCH   1   2
ATOM      2  C   UNL     1      -8.764  -8.043 -28.236  1.00  0.00     0.151 C 
BRANCH   2   3
ATOM      3  C   UNL     1     -10.160  -7.820 -28.806  1.00  0.00     0.069 C 
ATOM      4  N   UNL     1     -10.674  -6.630 -28.694  1.00  0.00    -0.095 NA
ATOM      5  C   UNL     1     -10.885  -8.974 -29.468  1.00  0.00     0.066 C 
BRANCH   4   6
ATOM      6  O   UNL     1     -11.966  -6.581 -29.240  1.00  0.00    -0.391 OA
BRANCH   6   7
ATOM      7  C   UNL     1     -12.318  -5.214 -29.467  1.00  0.00     0.299 C 
BRANCH   7   8
ATOM      8  C   UNL     1     -12.904  -4.605 -28.213  1.00  0.00    -0.008 A 
ATOM      9  C   UNL     1     -12.886  -5.299 -26.990  1.00  0.00     0.010 A 
ATOM     10  C   UNL     1     -13.537  -3.351 -28.273  1.00  0.00     0.010 A 
ATOM     11  C   UNL     1     -13.464  -4.739 -25.849  1.00  0.00     0.039 A 
ATOM     12  C   UNL     1     -14.117  -2.795 -27.131  1.00  0.00     0.039 A 
ATOM     13  C   UNL     1     -14.071  -3.492 -25.930  1.00  0.00     0.123 A 
ATOM     14  F   UNL     1     -14.627  -2.956 -24.834  1.00  0.00    -0.207 F 
ENDBRANCH   7   8
ENDBRANCH   6   7
ENDBRANCH   4   6
ENDBRANCH   2   3
BRANCH   2  15
ATOM     15  C   UNL     1      -7.739  -8.232 -29.324  1.00  0.00     0.312 C 
ATOM     16  O   UNL     1      -6.941  -9.147 -29.435  1.00  0.00    -0.252 OA
BRANCH  15  17
ATOM     17  O   UNL     1      -7.767  -7.247 -30.245  1.00  0.00    -0.481 OA
ATOM     18  H   UNL     1      -8.721  -7.088 -30.405  1.00  0.00     0.296 HD
ENDBRANCH  15  17
ENDBRANCH   2  15
ENDBRANCH   1   2
BRANCH   1  19
ATOM     19  C   UNL     1      -8.601  -8.820 -25.819  1.00  0.00    -0.047 A 
ATOM     20  C   UNL     1      -7.770  -9.532 -24.947  1.00  0.00     0.007 A 
ATOM     21  C   UNL     1      -9.305  -7.714 -25.327  1.00  0.00     0.007 A 
ATOM     22  C   UNL     1      -7.648  -9.139 -23.612  1.00  0.00     0.047 A 
ATOM     23  C   UNL     1      -9.177  -7.323 -23.989  1.00  0.00     0.047 A 
ATOM     24  C   UNL     1      -8.346  -8.032 -23.125  1.00  0.00     0.119 A 
BRANCH  24  25
ATOM     25  O   UNL     1      -8.135  -7.769 -21.800  1.00  0.00    -0.493 OA
BRANCH  25  26
ATOM     26  C   UNL     1      -6.813  -7.443 -21.360  1.00  0.00     0.236 C 
BRANCH  26  27
ATOM     27  C   UNL     1      -6.820  -6.299 -20.345  1.00  0.00     0.101 C 
BRANCH  27  28
ATOM     28  C   UNL     1      -5.623  -5.424 -20.462  1.00  0.00     0.086 A 
ATOM     29  N   UNL     1      -5.747  -4.116 -20.878  1.00  0.00    -0.214 NA
ATOM     30  C   UNL     1      -4.298  -5.701 -20.205  1.00  0.00     0.125 A 
ATOM     31  C   UNL     1      -4.510  -3.650 -20.862  1.00  0.00     0.226 A 
ATOM     32  O   UNL     1      -3.575  -4.569 -20.460  1.00  0.00    -0.441 OA
ATOM     33  C   UNL     1      -3.550  -6.886 -19.753  1.00  0.00     0.090 C 
BRANCH  31  34
ATOM     34  C   UNL     1      -4.025  -2.316 -21.206  1.00  0.00     0.037 A 
ATOM     35  C   UNL     1      -4.641  -1.152 -20.722  1.00  0.00     0.014 A 
ATOM     36  C   UNL     1      -2.909  -2.181 -22.045  1.00  0.00     0.014 A 
ATOM     37  C   UNL     1      -4.154   0.111 -21.069  1.00  0.00     0.001 A 
ATOM     38  C   UNL     1      -2.421  -0.919 -22.393  1.00  0.00     0.001 A 
ATOM     39  C   UNL     1      -3.044   0.227 -21.904  1.00  0.00     0.000 A 
ENDBRANCH  31  34
ENDBRANCH  27  28
ENDBRANCH  26  27
ENDBRANCH  25  26
ENDBRANCH  24  25
ENDBRANCH   1  19
TORSDOF 13
ENDMDL
