REMARK VINA RESULT:    -7.189      1.825      4.268
REMARK INTER + INTRA:         -10.760
REMARK INTER:                  -9.980
REMARK INTRA:                  -0.780
REMARK UNBOUND:                -0.629
REMARK SMILES NCCCn1c(CCN)nc2cc(C(N)=O)ccc21
REMARK SMILES IDX 5 1 6 2 10 3 11 4 12 5 13 6 17 7 18 8 19 9 4 10 3 11 2 12
REMARK SMILES IDX 1 13 7 16 8 17 9 18 14 21 15 22 16 23
REMARK H PARENT 1 14 1 15 9 19 9 20 15 24 15 25
ROOT
ATOM      1  N   UNL     1      -3.368  22.829 -30.177  1.00  0.00    -0.328 N 
ATOM      2  C   UNL     1      -4.120  22.018 -31.004  1.00  0.00     0.111 A 
ATOM      3  N   UNL     1      -4.920  22.741 -31.764  1.00  0.00    -0.233 NA
ATOM      4  C   UNL     1      -4.688  24.047 -31.423  1.00  0.00     0.090 A 
ATOM      5  C   UNL     1      -5.280  25.210 -31.939  1.00  0.00     0.044 A 
ATOM      6  C   UNL     1      -4.884  26.451 -31.423  1.00  0.00     0.041 A 
ATOM      7  C   UNL     1      -3.901  26.520 -30.425  1.00  0.00     0.016 A 
ATOM      8  C   UNL     1      -3.302  25.367 -29.903  1.00  0.00     0.029 A 
ATOM      9  C   UNL     1      -3.724  24.139 -30.428  1.00  0.00     0.068 A 
ENDROOT
BRANCH   1  10
ATOM     10  C   UNL     1      -2.399  22.401 -29.187  1.00  0.00     0.125 C 
BRANCH  10  11
ATOM     11  C   UNL     1      -2.931  22.363 -27.753  1.00  0.00     0.037 C 
BRANCH  11  12
ATOM     12  C   UNL     1      -2.237  23.369 -26.834  1.00  0.00     0.079 C 
BRANCH  12  13
ATOM     13  N   UNL     1      -0.844  23.529 -27.233  1.00  0.00    -0.330 NA
ATOM     14  H   UNL     1      -0.311  23.918 -26.455  1.00  0.00     0.118 HD
ATOM     15  H   UNL     1      -0.429  22.621 -27.438  1.00  0.00     0.118 HD
ENDBRANCH  12  13
ENDBRANCH  11  12
ENDBRANCH  10  11
ENDBRANCH   1  10
BRANCH   2  16
ATOM     16  C   UNL     1      -4.044  20.525 -31.047  1.00  0.00     0.090 C 
BRANCH  16  17
ATOM     17  C   UNL     1      -4.902  19.963 -32.185  1.00  0.00     0.085 C 
BRANCH  17  18
ATOM     18  N   UNL     1      -6.327  20.032 -31.858  1.00  0.00    -0.330 NA
ATOM     19  H   UNL     1      -6.431  20.438 -30.928  1.00  0.00     0.118 HD
ATOM     20  H   UNL     1      -6.701  19.085 -31.788  1.00  0.00     0.118 HD
ENDBRANCH  17  18
ENDBRANCH  16  17
ENDBRANCH   2  16
BRANCH   6  21
ATOM     21  C   UNL     1      -5.463  27.731 -31.917  1.00  0.00     0.248 C 
ATOM     22  N   UNL     1      -6.348  27.675 -32.957  1.00  0.00    -0.366 N 
ATOM     23  O   UNL     1      -5.182  28.804 -31.396  1.00  0.00    -0.270 OA
ATOM     24  H   UNL     1      -6.737  28.552 -33.277  1.00  0.00     0.159 HD
ATOM     25  H   UNL     1      -6.684  26.823 -33.380  1.00  0.00     0.159 HD
ENDBRANCH   6  21
TORSDOF 8
