REMARK VINA RESULT:    -9.599      1.746      3.222
REMARK INTER + INTRA:         -15.862
REMARK INTER:                 -14.192
REMARK INTRA:                  -1.670
REMARK UNBOUND:                -0.932
REMARK SMILES CNC(=O)c1n[nH]c2nc(-c3cc(F)c(O)cc3CC(F)(F)F)nc(NCc3nccnc3N(C)S(C)(=O)=O)c12
REMARK SMILES IDX 26 1 25 3 5 4 6 5 40 6 7 7 8 8 24 9 9 10 10 11 3 13 2 14
REMARK SMILES IDX 4 15 1 16 11 18 12 19 18 20 13 21 17 22 15 23 14 24 19 25
REMARK SMILES IDX 20 26 21 27 22 28 23 29 16 30 27 32 28 33 29 34 33 35 30 36
REMARK SMILES IDX 32 37 31 38 34 39 35 40 36 41 38 42 39 43 37 44
REMARK H PARENT 26 2 7 12 2 17 16 31
ROOT
ATOM      1  N   UNL     1      -2.834  26.320 -27.912  1.00  0.00    -0.364 N 
ATOM      2  H   UNL     1      -3.201  27.072 -27.329  1.00  0.00     0.162 HD
ENDROOT
BRANCH   1   3
ATOM      3  C   UNL     1      -3.493  26.003 -29.074  1.00  0.00     0.142 A 
ATOM      4  C   UNL     1      -4.111  28.400 -30.003  1.00  0.00     0.163 A 
ATOM      5  N   UNL     1      -4.735  28.803 -31.138  1.00  0.00    -0.168 NA
ATOM      6  C   UNL     1      -4.008  26.980 -29.937  1.00  0.00     0.094 A 
ATOM      7  N   UNL     1      -5.024  27.644 -31.764  1.00  0.00    -0.260 N 
ATOM      8  C   UNL     1      -4.612  26.535 -31.093  1.00  0.00     0.162 A 
ATOM      9  N   UNL     1      -3.649  24.707 -29.439  1.00  0.00    -0.210 NA
ATOM     10  N   UNL     1      -4.771  25.267 -31.494  1.00  0.00    -0.209 NA
ATOM     11  C   UNL     1      -4.273  24.396 -30.595  1.00  0.00     0.164 A 
ATOM     12  H   UNL     1      -5.511  27.668 -32.653  1.00  0.00     0.192 HD
BRANCH   4  13
ATOM     13  C   UNL     1      -3.639  29.377 -29.009  1.00  0.00     0.272 C 
ATOM     14  N   UNL     1      -2.983  30.450 -29.571  1.00  0.00    -0.354 N 
ATOM     15  O   UNL     1      -3.822  29.255 -27.802  1.00  0.00    -0.267 OA
ATOM     16  C   UNL     1      -2.452  31.533 -28.793  1.00  0.00     0.143 C 
ATOM     17  H   UNL     1      -2.918  30.450 -30.585  1.00  0.00     0.163 HD
ENDBRANCH   4  13
BRANCH  11  18
ATOM     18  C   UNL     1      -4.384  22.962 -30.934  1.00  0.00     0.026 A 
ATOM     19  C   UNL     1      -5.500  22.547 -31.697  1.00  0.00     0.055 A 
ATOM     20  C   UNL     1      -3.435  21.974 -30.546  1.00  0.00    -0.024 A 
ATOM     21  C   UNL     1      -5.661  21.219 -32.069  1.00  0.00     0.165 A 
ATOM     22  C   UNL     1      -3.627  20.629 -30.938  1.00  0.00     0.054 A 
ATOM     23  C   UNL     1      -4.730  20.265 -31.695  1.00  0.00     0.151 A 
ATOM     24  F   UNL     1      -6.723  20.854 -32.801  1.00  0.00    -0.203 F 
BRANCH  20  25
ATOM     25  C   UNL     1      -2.222  22.273 -29.677  1.00  0.00     0.151 C 
BRANCH  25  26
ATOM     26  C   UNL     1      -2.309  21.702 -28.271  1.00  0.00     0.393 C 
ATOM     27  F   UNL     1      -3.508  21.987 -27.706  1.00  0.00    -0.171 F 
ATOM     28  F   UNL     1      -2.153  20.362 -28.234  1.00  0.00    -0.171 F 
ATOM     29  F   UNL     1      -1.367  22.244 -27.462  1.00  0.00    -0.171 F 
ENDBRANCH  25  26
ENDBRANCH  20  25
BRANCH  23  30
ATOM     30  O   UNL     1      -4.876  18.957 -32.055  1.00  0.00    -0.505 OA
ATOM     31  H   UNL     1      -3.980  18.604 -32.212  1.00  0.00     0.293 HD
ENDBRANCH  23  30
ENDBRANCH  11  18
ENDBRANCH   1   3
BRANCH   1  32
ATOM     32  C   UNL     1      -1.758  25.512 -27.366  1.00  0.00     0.175 C 
BRANCH  32  33
ATOM     33  C   UNL     1      -0.754  26.367 -26.625  1.00  0.00     0.103 A 
ATOM     34  N   UNL     1      -0.760  27.713 -26.867  1.00  0.00    -0.254 NA
ATOM     35  C   UNL     1       0.203  25.797 -25.775  1.00  0.00     0.165 A 
ATOM     36  C   UNL     1       0.196  28.435 -26.241  1.00  0.00     0.131 A 
ATOM     37  N   UNL     1       1.153  26.528 -25.141  1.00  0.00    -0.235 NA
ATOM     38  C   UNL     1       1.129  27.855 -25.402  1.00  0.00     0.133 A 
BRANCH  35  39
ATOM     39  N   UNL     1       0.218  24.413 -25.445  1.00  0.00    -0.256 N 
ATOM     40  C   UNL     1       1.548  23.786 -25.368  1.00  0.00     0.165 C 
BRANCH  39  41
ATOM     41  S   UNL     1      -0.923  23.957 -24.291  1.00  0.00     0.233 S 
ATOM     42  O   UNL     1      -1.478  25.153 -23.687  1.00  0.00    -0.207 OA
ATOM     43  O   UNL     1      -1.799  22.979 -24.904  1.00  0.00    -0.207 OA
ATOM     44  C   UNL     1       0.029  23.103 -23.046  1.00  0.00     0.183 C 
ENDBRANCH  39  41
ENDBRANCH  35  39
ENDBRANCH  32  33
ENDBRANCH   1  32
TORSDOF 10
