MODEL 1
REMARK VINA RESULT:    -8.970      0.000      0.000
REMARK INTER + INTRA:         -12.869
REMARK INTER:                 -12.378
REMARK INTRA:                  -0.491
REMARK UNBOUND:                -0.491
REMARK SMILES COc1ccc2c(ccn2S(=O)(=O)c2cccc(C(=O)Nc3ccc(Cl)cc3C(=O)O)c2)c1C
REMARK SMILES IDX 14 1 15 2 16 3 17 4 18 5 32 6 11 7 12 8 13 9 10 10 3 11 4 12
REMARK SMILES IDX 33 13 5 14 7 15 6 16 8 17 9 18 34 19 2 20 1 21 19 22 20 23
REMARK SMILES IDX 21 24 22 26 23 27 28 28 24 29 27 30 25 31 26 32 29 33 30 34
REMARK SMILES IDX 31 35
REMARK H PARENT 21 25 31 36
ROOT
ATOM      1  C   UNL     1       9.694  11.360  -6.444  1.00  0.00     0.089 A 
ATOM      2  C   UNL     1      10.291  11.711  -5.228  1.00  0.00     0.022 A 
ATOM      3  C   UNL     1       9.676  11.350  -4.030  1.00  0.00     0.002 A 
ATOM      4  C   UNL     1       8.471  10.644  -4.050  1.00  0.00     0.014 A 
ATOM      5  C   UNL     1       7.868  10.303  -5.268  1.00  0.00     0.041 A 
ATOM      6  C   UNL     1       8.489  10.646  -6.475  1.00  0.00     0.036 A 
ENDROOT
BRANCH   1   7
ATOM      7  S   UNL     1      10.499  11.785  -7.968  1.00  0.00     0.268 S 
ATOM      8  O   UNL     1      11.920  11.897  -7.715  1.00  0.00    -0.201 OA
ATOM      9  O   UNL     1       9.745  12.844  -8.611  1.00  0.00    -0.201 OA
BRANCH   7  10
ATOM     10  N   UNL     1      10.252  10.402  -8.939  1.00  0.00    -0.241 N 
ATOM     11  C   UNL     1      10.758   9.484 -12.960  1.00  0.00     0.122 A 
ATOM     12  C   UNL     1      10.855  10.832 -12.623  1.00  0.00     0.049 A 
ATOM     13  C   UNL     1      10.508   8.511 -11.963  1.00  0.00     0.000 A 
ATOM     14  C   UNL     1      10.715  11.261 -11.299  1.00  0.00     0.032 A 
ATOM     15  C   UNL     1      10.350   8.941 -10.619  1.00  0.00     0.007 A 
ATOM     16  C   UNL     1      10.461  10.305 -10.303  1.00  0.00     0.065 A 
ATOM     17  C   UNL     1      10.083   8.246  -9.400  1.00  0.00     0.030 A 
ATOM     18  C   UNL     1      10.041   9.166  -8.382  1.00  0.00     0.105 A 
ATOM     19  C   UNL     1      10.408   7.059 -12.367  1.00  0.00     0.049 C 
BRANCH  11  20
ATOM     20  O   UNL     1      10.906   8.991 -14.231  1.00  0.00    -0.496 OA
ATOM     21  C   UNL     1      11.518   9.830 -15.203  1.00  0.00     0.278 C 
ENDBRANCH  11  20
ENDBRANCH   7  10
ENDBRANCH   1   7
BRANCH   5  22
ATOM     22  C   UNL     1       6.593   9.534  -5.231  1.00  0.00     0.255 C 
ATOM     23  O   UNL     1       5.757   9.759  -6.097  1.00  0.00    -0.269 OA
ATOM     24  N   UNL     1       6.504   8.601  -4.217  1.00  0.00    -0.321 N 
ATOM     25  H   UNL     1       7.342   8.430  -3.658  1.00  0.00     0.170 HD
BRANCH  24  26
ATOM     26  C   UNL     1       5.410   7.768  -3.880  1.00  0.00     0.056 A 
ATOM     27  C   UNL     1       4.842   6.884  -4.808  1.00  0.00     0.028 A 
ATOM     28  C   UNL     1       4.848   7.830  -2.581  1.00  0.00     0.084 A 
ATOM     29  C   UNL     1       3.753   6.075  -4.467  1.00  0.00     0.023 A 
ATOM     30  C   UNL     1       3.752   7.012  -2.249  1.00  0.00     0.038 A 
ATOM     31  C   UNL     1       3.212   6.142  -3.190  1.00  0.00     0.042 A 
ATOM     32  Cl  UNL     1       1.873   5.150  -2.772  1.00  0.00    -0.084 Cl
BRANCH  28  33
ATOM     33  C   UNL     1       5.320   8.729  -1.493  1.00  0.00     0.337 C 
ATOM     34  O   UNL     1       6.353   9.374  -1.515  1.00  0.00    -0.246 OA
BRANCH  33  35
ATOM     35  O   UNL     1       4.498   8.795  -0.425  1.00  0.00    -0.478 OA
ATOM     36  H   UNL     1       3.615   8.585  -0.813  1.00  0.00     0.297 HD
ENDBRANCH  33  35
ENDBRANCH  28  33
ENDBRANCH  24  26
ENDBRANCH   5  22
TORSDOF 7
ENDMDL
MODEL 2
REMARK VINA RESULT:    -8.831      5.141      8.403
REMARK INTER + INTRA:         -12.677
REMARK INTER:                 -11.481
REMARK INTRA:                  -1.195
REMARK UNBOUND:                -0.491
REMARK SMILES COc1ccc2c(ccn2S(=O)(=O)c2cccc(C(=O)Nc3ccc(Cl)cc3C(=O)O)c2)c1C
REMARK SMILES IDX 14 1 15 2 16 3 17 4 18 5 32 6 11 7 12 8 13 9 10 10 3 11 4 12
REMARK SMILES IDX 33 13 5 14 7 15 6 16 8 17 9 18 34 19 2 20 1 21 19 22 20 23
REMARK SMILES IDX 21 24 22 26 23 27 28 28 24 29 27 30 25 31 26 32 29 33 30 34
REMARK SMILES IDX 31 35
REMARK H PARENT 21 25 31 36
ROOT
ATOM      1  C   UNL     1       4.282   5.779  -2.035  1.00  0.00     0.089 A 
ATOM      2  C   UNL     1       3.621   5.166  -0.964  1.00  0.00     0.022 A 
ATOM      3  C   UNL     1       4.310   4.262  -0.156  1.00  0.00     0.002 A 
ATOM      4  C   UNL     1       5.650   3.973  -0.420  1.00  0.00     0.014 A 
ATOM      5  C   UNL     1       6.308   4.578  -1.500  1.00  0.00     0.041 A 
ATOM      6  C   UNL     1       5.628   5.500  -2.304  1.00  0.00     0.036 A 
ENDROOT
BRANCH   1   7
ATOM      7  S   UNL     1       3.415   6.959  -3.037  1.00  0.00     0.268 S 
ATOM      8  O   UNL     1       3.362   8.214  -2.317  1.00  0.00    -0.201 OA
ATOM      9  O   UNL     1       2.224   6.328  -3.572  1.00  0.00    -0.201 OA
BRANCH   7  10
ATOM     10  N   UNL     1       4.453   7.172  -4.376  1.00  0.00    -0.241 N 
ATOM     11  C   UNL     1       7.333   9.960  -5.472  1.00  0.00     0.122 A 
ATOM     12  C   UNL     1       6.534  10.300  -4.382  1.00  0.00     0.049 A 
ATOM     13  C   UNL     1       7.150   8.724  -6.137  1.00  0.00     0.000 A 
ATOM     14  C   UNL     1       5.539   9.436  -3.913  1.00  0.00     0.032 A 
ATOM     15  C   UNL     1       6.132   7.848  -5.676  1.00  0.00     0.007 A 
ATOM     16  C   UNL     1       5.346   8.210  -4.570  1.00  0.00     0.065 A 
ATOM     17  C   UNL     1       5.681   6.565  -6.113  1.00  0.00     0.030 A 
ATOM     18  C   UNL     1       4.658   6.168  -5.288  1.00  0.00     0.105 A 
ATOM     19  C   UNL     1       8.035   8.390  -7.316  1.00  0.00     0.049 C 
BRANCH  11  20
ATOM     20  O   UNL     1       8.340  10.747  -5.970  1.00  0.00    -0.496 OA
ATOM     21  C   UNL     1       9.382  11.133  -5.083  1.00  0.00     0.278 C 
ENDBRANCH  11  20
ENDBRANCH   7  10
ENDBRANCH   1   7
BRANCH   5  22
ATOM     22  C   UNL     1       7.743   4.247  -1.724  1.00  0.00     0.255 C 
ATOM     23  O   UNL     1       8.589   4.937  -1.169  1.00  0.00    -0.269 OA
ATOM     24  N   UNL     1       7.969   3.147  -2.528  1.00  0.00    -0.321 N 
ATOM     25  H   UNL     1       7.159   2.589  -2.803  1.00  0.00     0.170 HD
BRANCH  24  26
ATOM     26  C   UNL     1       9.206   2.622  -2.976  1.00  0.00     0.056 A 
ATOM     27  C   UNL     1       9.992   1.793  -2.165  1.00  0.00     0.028 A 
ATOM     28  C   UNL     1       9.686   2.951  -4.267  1.00  0.00     0.084 A 
ATOM     29  C   UNL     1      11.219   1.291  -2.614  1.00  0.00     0.023 A 
ATOM     30  C   UNL     1      10.922   2.441  -4.709  1.00  0.00     0.038 A 
ATOM     31  C   UNL     1      11.678   1.617  -3.883  1.00  0.00     0.042 A 
ATOM     32  Cl  UNL     1      13.186   1.002  -4.434  1.00  0.00    -0.084 Cl
BRANCH  28  33
ATOM     33  C   UNL     1       8.982   3.835  -5.237  1.00  0.00     0.337 C 
ATOM     34  O   UNL     1       7.775   3.961  -5.321  1.00  0.00    -0.246 OA
BRANCH  33  35
ATOM     35  O   UNL     1       9.800   4.525  -6.059  1.00  0.00    -0.478 OA
ATOM     36  H   UNL     1       9.403   4.369  -6.948  1.00  0.00     0.297 HD
ENDBRANCH  33  35
ENDBRANCH  28  33
ENDBRANCH  24  26
ENDBRANCH   5  22
TORSDOF 7
ENDMDL
MODEL 3
REMARK VINA RESULT:    -8.320      4.665     10.782
REMARK INTER + INTRA:         -11.972
REMARK INTER:                 -11.057
REMARK INTRA:                  -0.915
REMARK UNBOUND:                -0.491
REMARK SMILES COc1ccc2c(ccn2S(=O)(=O)c2cccc(C(=O)Nc3ccc(Cl)cc3C(=O)O)c2)c1C
REMARK SMILES IDX 14 1 15 2 16 3 17 4 18 5 32 6 11 7 12 8 13 9 10 10 3 11 4 12
REMARK SMILES IDX 33 13 5 14 7 15 6 16 8 17 9 18 34 19 2 20 1 21 19 22 20 23
REMARK SMILES IDX 21 24 22 26 23 27 28 28 24 29 27 30 25 31 26 32 29 33 30 34
REMARK SMILES IDX 31 35
REMARK H PARENT 21 25 31 36
ROOT
ATOM      1  C   UNL     1       9.420   4.053  -7.295  1.00  0.00     0.089 A 
ATOM      2  C   UNL     1       9.451   3.039  -8.259  1.00  0.00     0.022 A 
ATOM      3  C   UNL     1       9.754   3.357  -9.583  1.00  0.00     0.002 A 
ATOM      4  C   UNL     1      10.024   4.680  -9.938  1.00  0.00     0.014 A 
ATOM      5  C   UNL     1       9.981   5.697  -8.974  1.00  0.00     0.041 A 
ATOM      6  C   UNL     1       9.695   5.382  -7.640  1.00  0.00     0.036 A 
ENDROOT
BRANCH   1   7
ATOM      7  S   UNL     1       9.072   3.641  -5.604  1.00  0.00     0.268 S 
ATOM      8  O   UNL     1      10.036   4.321  -4.764  1.00  0.00    -0.201 OA
ATOM      9  O   UNL     1       8.844   2.211  -5.513  1.00  0.00    -0.201 OA
BRANCH   7  10
ATOM     10  N   UNL     1       7.548   4.359  -5.332  1.00  0.00    -0.241 N 
ATOM     11  C   UNL     1       5.333   5.417  -1.979  1.00  0.00     0.122 A 
ATOM     12  C   UNL     1       6.451   4.618  -1.748  1.00  0.00     0.049 A 
ATOM     13  C   UNL     1       5.005   5.830  -3.292  1.00  0.00     0.000 A 
ATOM     14  C   UNL     1       7.280   4.209  -2.797  1.00  0.00     0.032 A 
ATOM     15  C   UNL     1       5.835   5.407  -4.364  1.00  0.00     0.007 A 
ATOM     16  C   UNL     1       6.961   4.609  -4.104  1.00  0.00     0.065 A 
ATOM     17  C   UNL     1       5.788   5.624  -5.775  1.00  0.00     0.030 A 
ATOM     18  C   UNL     1       6.860   4.981  -6.343  1.00  0.00     0.105 A 
ATOM     19  C   UNL     1       3.785   6.695  -3.504  1.00  0.00     0.049 C 
BRANCH  11  20
ATOM     20  O   UNL     1       4.490   5.872  -0.998  1.00  0.00    -0.496 OA
ATOM     21  C   UNL     1       3.843   4.908  -0.176  1.00  0.00     0.278 C 
ENDBRANCH  11  20
ENDBRANCH   7  10
ENDBRANCH   1   7
BRANCH   5  22
ATOM     22  C   UNL     1      10.294   7.088  -9.404  1.00  0.00     0.255 C 
ATOM     23  O   UNL     1      10.480   7.932  -8.537  1.00  0.00    -0.269 OA
ATOM     24  N   UNL     1      10.378   7.271 -10.770  1.00  0.00    -0.321 N 
ATOM     25  H   UNL     1      10.337   6.440 -11.361  1.00  0.00     0.170 HD
BRANCH  24  26
ATOM     26  C   UNL     1      10.594   8.474 -11.486  1.00  0.00     0.056 A 
ATOM     27  C   UNL     1       9.753   9.585 -11.333  1.00  0.00     0.028 A 
ATOM     28  C   UNL     1      11.672   8.567 -12.400  1.00  0.00     0.084 A 
ATOM     29  C   UNL     1       9.970  10.763 -12.056  1.00  0.00     0.023 A 
ATOM     30  C   UNL     1      11.880   9.757 -13.123  1.00  0.00     0.038 A 
ATOM     31  C   UNL     1      11.032  10.845 -12.947  1.00  0.00     0.042 A 
ATOM     32  Cl  UNL     1      11.297  12.292 -13.836  1.00  0.00    -0.084 Cl
BRANCH  28  33
ATOM     33  C   UNL     1      12.637   7.472 -12.692  1.00  0.00     0.337 C 
ATOM     34  O   UNL     1      12.407   6.283 -12.566  1.00  0.00    -0.246 OA
BRANCH  33  35
ATOM     35  O   UNL     1      13.843   7.891 -13.127  1.00  0.00    -0.478 OA
ATOM     36  H   UNL     1      14.351   7.050 -13.217  1.00  0.00     0.297 HD
ENDBRANCH  33  35
ENDBRANCH  28  33
ENDBRANCH  24  26
ENDBRANCH   5  22
TORSDOF 7
ENDMDL
MODEL 4
REMARK VINA RESULT:    -8.162      4.819     10.145
REMARK INTER + INTRA:         -11.754
REMARK INTER:                 -11.271
REMARK INTRA:                  -0.483
REMARK UNBOUND:                -0.491
REMARK SMILES COc1ccc2c(ccn2S(=O)(=O)c2cccc(C(=O)Nc3ccc(Cl)cc3C(=O)O)c2)c1C
REMARK SMILES IDX 14 1 15 2 16 3 17 4 18 5 32 6 11 7 12 8 13 9 10 10 3 11 4 12
REMARK SMILES IDX 33 13 5 14 7 15 6 16 8 17 9 18 34 19 2 20 1 21 19 22 20 23
REMARK SMILES IDX 21 24 22 26 23 27 28 28 24 29 27 30 25 31 26 32 29 33 30 34
REMARK SMILES IDX 31 35
REMARK H PARENT 21 25 31 36
ROOT
ATOM      1  C   UNL     1       6.353   9.771  -4.772  1.00  0.00     0.089 A 
ATOM      2  C   UNL     1       6.569   9.918  -3.398  1.00  0.00     0.022 A 
ATOM      3  C   UNL     1       7.760  10.484  -2.944  1.00  0.00     0.002 A 
ATOM      4  C   UNL     1       8.728  10.897  -3.862  1.00  0.00     0.014 A 
ATOM      5  C   UNL     1       8.517  10.739  -5.238  1.00  0.00     0.041 A 
ATOM      6  C   UNL     1       7.315  10.188  -5.701  1.00  0.00     0.036 A 
ENDROOT
BRANCH   1   7
ATOM      7  S   UNL     1       4.819   9.088  -5.348  1.00  0.00     0.268 S 
ATOM      8  O   UNL     1       4.969   8.752  -6.748  1.00  0.00    -0.201 OA
ATOM      9  O   UNL     1       3.732   9.920  -4.868  1.00  0.00    -0.201 OA
BRANCH   7  10
ATOM     10  N   UNL     1       4.689   7.628  -4.474  1.00  0.00    -0.241 N 
ATOM     11  C   UNL     1       3.491   6.575  -0.636  1.00  0.00     0.122 A 
ATOM     12  C   UNL     1       3.676   7.936  -0.869  1.00  0.00     0.049 A 
ATOM     13  C   UNL     1       3.701   5.635  -1.673  1.00  0.00     0.000 A 
ATOM     14  C   UNL     1       4.066   8.412  -2.125  1.00  0.00     0.032 A 
ATOM     15  C   UNL     1       4.112   6.110  -2.947  1.00  0.00     0.007 A 
ATOM     16  C   UNL     1       4.283   7.487  -3.158  1.00  0.00     0.065 A 
ATOM     17  C   UNL     1       4.417   5.453  -4.178  1.00  0.00     0.030 A 
ATOM     18  C   UNL     1       4.755   6.410  -5.102  1.00  0.00     0.105 A 
ATOM     19  C   UNL     1       3.493   4.167  -1.384  1.00  0.00     0.049 C 
BRANCH  11  20
ATOM     20  O   UNL     1       3.088   6.041   0.561  1.00  0.00    -0.496 OA
ATOM     21  C   UNL     1       1.873   6.516   1.126  1.00  0.00     0.278 C 
ENDBRANCH  11  20
ENDBRANCH   7  10
ENDBRANCH   1   7
BRANCH   5  22
ATOM     22  C   UNL     1       9.575  11.214  -6.172  1.00  0.00     0.255 C 
ATOM     23  O   UNL     1       9.492  10.891  -7.351  1.00  0.00    -0.269 OA
ATOM     24  N   UNL     1      10.542  12.016  -5.599  1.00  0.00    -0.321 N 
ATOM     25  H   UNL     1      10.397  12.312  -4.633  1.00  0.00     0.170 HD
BRANCH  24  26
ATOM     26  C   UNL     1      11.700  12.566  -6.200  1.00  0.00     0.056 A 
ATOM     27  C   UNL     1      12.372  11.911  -7.241  1.00  0.00     0.028 A 
ATOM     28  C   UNL     1      12.218  13.800  -5.737  1.00  0.00     0.084 A 
ATOM     29  C   UNL     1      13.524  12.458  -7.818  1.00  0.00     0.023 A 
ATOM     30  C   UNL     1      13.377  14.341  -6.324  1.00  0.00     0.038 A 
ATOM     31  C   UNL     1      14.021  13.670  -7.358  1.00  0.00     0.042 A 
ATOM     32  Cl  UNL     1      15.436  14.342  -8.066  1.00  0.00    -0.084 Cl
BRANCH  28  33
ATOM     33  C   UNL     1      11.634  14.605  -4.629  1.00  0.00     0.337 C 
ATOM     34  O   UNL     1      10.696  14.263  -3.933  1.00  0.00    -0.246 OA
BRANCH  33  35
ATOM     35  O   UNL     1      12.235  15.796  -4.427  1.00  0.00    -0.478 OA
ATOM     36  H   UNL     1      13.188  15.591  -4.575  1.00  0.00     0.297 HD
ENDBRANCH  33  35
ENDBRANCH  28  33
ENDBRANCH  24  26
ENDBRANCH   5  22
TORSDOF 7
ENDMDL
MODEL 5
REMARK VINA RESULT:    -7.873      3.668      4.817
REMARK INTER + INTRA:         -11.356
REMARK INTER:                 -10.973
REMARK INTRA:                  -0.382
REMARK UNBOUND:                -0.491
REMARK SMILES COc1ccc2c(ccn2S(=O)(=O)c2cccc(C(=O)Nc3ccc(Cl)cc3C(=O)O)c2)c1C
REMARK SMILES IDX 14 1 15 2 16 3 17 4 18 5 32 6 11 7 12 8 13 9 10 10 3 11 4 12
REMARK SMILES IDX 33 13 5 14 7 15 6 16 8 17 9 18 34 19 2 20 1 21 19 22 20 23
REMARK SMILES IDX 21 24 22 26 23 27 28 28 24 29 27 30 25 31 26 32 29 33 30 34
REMARK SMILES IDX 31 35
REMARK H PARENT 21 25 31 36
ROOT
ATOM      1  C   UNL     1       9.257   4.059  -7.648  1.00  0.00     0.089 A 
ATOM      2  C   UNL     1       9.926   3.200  -6.769  1.00  0.00     0.022 A 
ATOM      3  C   UNL     1       9.464   3.056  -5.462  1.00  0.00     0.002 A 
ATOM      4  C   UNL     1       8.341   3.770  -5.037  1.00  0.00     0.014 A 
ATOM      5  C   UNL     1       7.679   4.639  -5.913  1.00  0.00     0.041 A 
ATOM      6  C   UNL     1       8.126   4.774  -7.234  1.00  0.00     0.036 A 
ENDROOT
BRANCH   1   7
ATOM      7  S   UNL     1       9.822   4.210  -9.324  1.00  0.00     0.268 S 
ATOM      8  O   UNL     1       8.715   3.905 -10.206  1.00  0.00    -0.201 OA
ATOM      9  O   UNL     1      11.106   3.546  -9.442  1.00  0.00    -0.201 OA
BRANCH   7  10
ATOM     10  N   UNL     1      10.161   5.876  -9.473  1.00  0.00    -0.241 N 
ATOM     11  C   UNL     1      10.426   8.569 -12.628  1.00  0.00     0.122 A 
ATOM     12  C   UNL     1      10.361   7.221 -12.976  1.00  0.00     0.049 A 
ATOM     13  C   UNL     1      10.393   8.961 -11.268  1.00  0.00     0.000 A 
ATOM     14  C   UNL     1      10.257   6.224 -12.001  1.00  0.00     0.032 A 
ATOM     15  C   UNL     1      10.302   7.953 -10.273  1.00  0.00     0.007 A 
ATOM     16  C   UNL     1      10.229   6.602 -10.650  1.00  0.00     0.065 A 
ATOM     17  C   UNL     1      10.261   7.995  -8.846  1.00  0.00     0.030 A 
ATOM     18  C   UNL     1      10.161   6.707  -8.381  1.00  0.00     0.105 A 
ATOM     19  C   UNL     1      10.467  10.431 -10.929  1.00  0.00     0.049 C 
BRANCH  11  20
ATOM     20  O   UNL     1      10.506   9.599 -13.530  1.00  0.00    -0.496 OA
ATOM     21  C   UNL     1      11.665   9.677 -14.350  1.00  0.00     0.278 C 
ENDBRANCH  11  20
ENDBRANCH   7  10
ENDBRANCH   1   7
BRANCH   5  22
ATOM     22  C   UNL     1       6.475   5.361  -5.413  1.00  0.00     0.255 C 
ATOM     23  O   UNL     1       5.843   6.047  -6.206  1.00  0.00    -0.269 OA
ATOM     24  N   UNL     1       6.177   5.145  -4.082  1.00  0.00    -0.321 N 
ATOM     25  H   UNL     1       6.718   4.434  -3.587  1.00  0.00     0.170 HD
BRANCH  24  26
ATOM     26  C   UNL     1       5.149   5.729  -3.304  1.00  0.00     0.056 A 
ATOM     27  C   UNL     1       4.225   6.627  -3.857  1.00  0.00     0.028 A 
ATOM     28  C   UNL     1       5.048   5.425  -1.924  1.00  0.00     0.084 A 
ATOM     29  C   UNL     1       3.221   7.208  -3.074  1.00  0.00     0.023 A 
ATOM     30  C   UNL     1       4.034   6.016  -1.146  1.00  0.00     0.038 A 
ATOM     31  C   UNL     1       3.129   6.900  -1.723  1.00  0.00     0.042 A 
ATOM     32  Cl  UNL     1       1.897   7.615  -0.762  1.00  0.00    -0.084 Cl
BRANCH  28  33
ATOM     33  C   UNL     1       5.962   4.512  -1.185  1.00  0.00     0.337 C 
ATOM     34  O   UNL     1       7.176   4.609  -1.156  1.00  0.00    -0.246 OA
BRANCH  33  35
ATOM     35  O   UNL     1       5.340   3.521  -0.514  1.00  0.00    -0.478 OA
ATOM     36  H   UNL     1       5.949   2.754  -0.637  1.00  0.00     0.297 HD
ENDBRANCH  33  35
ENDBRANCH  28  33
ENDBRANCH  24  26
ENDBRANCH   5  22
TORSDOF 7
ENDMDL
MODEL 6
REMARK VINA RESULT:    -7.735      4.235      9.289
REMARK INTER + INTRA:         -11.165
REMARK INTER:                 -10.253
REMARK INTRA:                  -0.911
REMARK UNBOUND:                -0.491
REMARK SMILES COc1ccc2c(ccn2S(=O)(=O)c2cccc(C(=O)Nc3ccc(Cl)cc3C(=O)O)c2)c1C
REMARK SMILES IDX 14 1 15 2 16 3 17 4 18 5 32 6 11 7 12 8 13 9 10 10 3 11 4 12
REMARK SMILES IDX 33 13 5 14 7 15 6 16 8 17 9 18 34 19 2 20 1 21 19 22 20 23
REMARK SMILES IDX 21 24 22 26 23 27 28 28 24 29 27 30 25 31 26 32 29 33 30 34
REMARK SMILES IDX 31 35
REMARK H PARENT 21 25 31 36
ROOT
ATOM      1  C   UNL     1       9.549   4.484  -7.494  1.00  0.00     0.089 A 
ATOM      2  C   UNL     1       9.748   3.640  -8.592  1.00  0.00     0.022 A 
ATOM      3  C   UNL     1      10.078   4.188  -9.831  1.00  0.00     0.002 A 
ATOM      4  C   UNL     1      10.204   5.572  -9.970  1.00  0.00     0.014 A 
ATOM      5  C   UNL     1       9.993   6.417  -8.873  1.00  0.00     0.041 A 
ATOM      6  C   UNL     1       9.680   5.873  -7.621  1.00  0.00     0.036 A 
ENDROOT
BRANCH   1   7
ATOM      7  S   UNL     1       9.170   3.782  -5.909  1.00  0.00     0.268 S 
ATOM      8  O   UNL     1      10.104   4.316  -4.940  1.00  0.00    -0.201 OA
ATOM      9  O   UNL     1       8.960   2.356  -6.071  1.00  0.00    -0.201 OA
BRANCH   7  10
ATOM     10  N   UNL     1       7.629   4.427  -5.555  1.00  0.00    -0.241 N 
ATOM     11  C   UNL     1       5.508   5.283  -2.085  1.00  0.00     0.122 A 
ATOM     12  C   UNL     1       6.666   4.524  -1.924  1.00  0.00     0.049 A 
ATOM     13  C   UNL     1       5.113   5.725  -3.370  1.00  0.00     0.000 A 
ATOM     14  C   UNL     1       7.469   4.184  -3.018  1.00  0.00     0.032 A 
ATOM     15  C   UNL     1       5.916   5.371  -4.486  1.00  0.00     0.007 A 
ATOM     16  C   UNL     1       7.083   4.613  -4.297  1.00  0.00     0.065 A 
ATOM     17  C   UNL     1       5.804   5.632  -5.886  1.00  0.00     0.030 A 
ATOM     18  C   UNL     1       6.877   5.053  -6.517  1.00  0.00     0.105 A 
ATOM     19  C   UNL     1       3.851   6.544  -3.505  1.00  0.00     0.049 C 
BRANCH  11  20
ATOM     20  O   UNL     1       4.688   5.671  -1.057  1.00  0.00    -0.496 OA
ATOM     21  C   UNL     1       3.831   4.692  -0.483  1.00  0.00     0.278 C 
ENDBRANCH  11  20
ENDBRANCH   7  10
ENDBRANCH   1   7
BRANCH   5  22
ATOM     22  C   UNL     1      10.159   7.884  -9.073  1.00  0.00     0.255 C 
ATOM     23  O   UNL     1      10.296   8.299 -10.217  1.00  0.00    -0.269 OA
ATOM     24  N   UNL     1      10.104   8.640  -7.919  1.00  0.00    -0.321 N 
ATOM     25  H   UNL     1       9.844   8.163  -7.055  1.00  0.00     0.170 HD
BRANCH  24  26
ATOM     26  C   UNL     1      10.289  10.036  -7.771  1.00  0.00     0.056 A 
ATOM     27  C   UNL     1      11.282  10.728  -8.478  1.00  0.00     0.028 A 
ATOM     28  C   UNL     1       9.472  10.765  -6.873  1.00  0.00     0.084 A 
ATOM     29  C   UNL     1      11.463  12.106  -8.313  1.00  0.00     0.023 A 
ATOM     30  C   UNL     1       9.664  12.151  -6.714  1.00  0.00     0.038 A 
ATOM     31  C   UNL     1      10.654  12.811  -7.433  1.00  0.00     0.042 A 
ATOM     32  Cl  UNL     1      10.878  14.503  -7.229  1.00  0.00    -0.084 Cl
BRANCH  28  33
ATOM     33  C   UNL     1       8.393  10.175  -6.034  1.00  0.00     0.337 C 
ATOM     34  O   UNL     1       7.566   9.370  -6.421  1.00  0.00    -0.246 OA
BRANCH  33  35
ATOM     35  O   UNL     1       8.382  10.603  -4.755  1.00  0.00    -0.478 OA
ATOM     36  H   UNL     1       7.555  10.204  -4.394  1.00  0.00     0.297 HD
ENDBRANCH  33  35
ENDBRANCH  28  33
ENDBRANCH  24  26
ENDBRANCH   5  22
TORSDOF 7
ENDMDL
MODEL 7
REMARK VINA RESULT:    -7.623      4.294     10.519
REMARK INTER + INTRA:         -11.011
REMARK INTER:                 -10.933
REMARK INTRA:                  -0.078
REMARK UNBOUND:                -0.491
REMARK SMILES COc1ccc2c(ccn2S(=O)(=O)c2cccc(C(=O)Nc3ccc(Cl)cc3C(=O)O)c2)c1C
REMARK SMILES IDX 14 1 15 2 16 3 17 4 18 5 32 6 11 7 12 8 13 9 10 10 3 11 4 12
REMARK SMILES IDX 33 13 5 14 7 15 6 16 8 17 9 18 34 19 2 20 1 21 19 22 20 23
REMARK SMILES IDX 21 24 22 26 23 27 28 28 24 29 27 30 25 31 26 32 29 33 30 34
REMARK SMILES IDX 31 35
REMARK H PARENT 21 25 31 36
ROOT
ATOM      1  C   UNL     1       7.555   5.139  -6.260  1.00  0.00     0.089 A 
ATOM      2  C   UNL     1       8.121   4.050  -5.589  1.00  0.00     0.022 A 
ATOM      3  C   UNL     1       9.408   3.628  -5.923  1.00  0.00     0.002 A 
ATOM      4  C   UNL     1      10.120   4.292  -6.924  1.00  0.00     0.014 A 
ATOM      5  C   UNL     1       9.548   5.375  -7.604  1.00  0.00     0.041 A 
ATOM      6  C   UNL     1       8.264   5.816  -7.261  1.00  0.00     0.036 A 
ENDROOT
BRANCH   1   7
ATOM      7  S   UNL     1       5.934   5.700  -5.805  1.00  0.00     0.268 S 
ATOM      8  O   UNL     1       4.959   4.835  -6.438  1.00  0.00    -0.201 OA
ATOM      9  O   UNL     1       5.886   7.143  -5.942  1.00  0.00    -0.201 OA
BRANCH   7  10
ATOM     10  N   UNL     1       5.876   5.404  -4.124  1.00  0.00    -0.241 N 
ATOM     11  C   UNL     1       2.951   5.631  -1.181  1.00  0.00     0.122 A 
ATOM     12  C   UNL     1       2.629   6.203  -2.410  1.00  0.00     0.049 A 
ATOM     13  C   UNL     1       4.208   5.011  -0.985  1.00  0.00     0.000 A 
ATOM     14  C   UNL     1       3.529   6.177  -3.481  1.00  0.00     0.032 A 
ATOM     15  C   UNL     1       5.131   4.993  -2.064  1.00  0.00     0.007 A 
ATOM     16  C   UNL     1       4.780   5.569  -3.295  1.00  0.00     0.065 A 
ATOM     17  C   UNL     1       6.456   4.477  -2.202  1.00  0.00     0.030 A 
ATOM     18  C   UNL     1       6.884   4.732  -3.481  1.00  0.00     0.105 A 
ATOM     19  C   UNL     1       4.521   4.402   0.361  1.00  0.00     0.049 C 
BRANCH  11  20
ATOM     20  O   UNL     1       2.111   5.600  -0.097  1.00  0.00    -0.496 OA
ATOM     21  C   UNL     1       1.896   6.813   0.613  1.00  0.00     0.278 C 
ENDBRANCH  11  20
ENDBRANCH   7  10
ENDBRANCH   1   7
BRANCH   5  22
ATOM     22  C   UNL     1      10.360   6.057  -8.651  1.00  0.00     0.255 C 
ATOM     23  O   UNL     1      11.538   5.745  -8.762  1.00  0.00    -0.269 OA
ATOM     24  N   UNL     1       9.667   6.967  -9.425  1.00  0.00    -0.321 N 
ATOM     25  H   UNL     1       8.654   7.015  -9.303  1.00  0.00     0.170 HD
BRANCH  24  26
ATOM     26  C   UNL     1      10.164   7.813 -10.446  1.00  0.00     0.056 A 
ATOM     27  C   UNL     1      10.495   7.321 -11.716  1.00  0.00     0.028 A 
ATOM     28  C   UNL     1      10.356   9.193 -10.188  1.00  0.00     0.084 A 
ATOM     29  C   UNL     1      10.997   8.165 -12.712  1.00  0.00     0.023 A 
ATOM     30  C   UNL     1      10.863  10.033 -11.198  1.00  0.00     0.038 A 
ATOM     31  C   UNL     1      11.179   9.517 -12.450  1.00  0.00     0.042 A 
ATOM     32  Cl  UNL     1      11.798  10.553 -13.673  1.00  0.00    -0.084 Cl
BRANCH  28  33
ATOM     33  C   UNL     1      10.075   9.863  -8.889  1.00  0.00     0.337 C 
ATOM     34  O   UNL     1       9.389   9.400  -7.996  1.00  0.00    -0.246 OA
BRANCH  33  35
ATOM     35  O   UNL     1      10.654  11.073  -8.747  1.00  0.00    -0.478 OA
ATOM     36  H   UNL     1      10.191  11.620  -9.424  1.00  0.00     0.297 HD
ENDBRANCH  33  35
ENDBRANCH  28  33
ENDBRANCH  24  26
ENDBRANCH   5  22
TORSDOF 7
ENDMDL
MODEL 8
REMARK VINA RESULT:    -7.550      5.106      8.424
REMARK INTER + INTRA:         -10.909
REMARK INTER:                 -10.065
REMARK INTRA:                  -0.844
REMARK UNBOUND:                -0.491
REMARK SMILES COc1ccc2c(ccn2S(=O)(=O)c2cccc(C(=O)Nc3ccc(Cl)cc3C(=O)O)c2)c1C
REMARK SMILES IDX 14 1 15 2 16 3 17 4 18 5 32 6 11 7 12 8 13 9 10 10 3 11 4 12
REMARK SMILES IDX 33 13 5 14 7 15 6 16 8 17 9 18 34 19 2 20 1 21 19 22 20 23
REMARK SMILES IDX 21 24 22 26 23 27 28 28 24 29 27 30 25 31 26 32 29 33 30 34
REMARK SMILES IDX 31 35
REMARK H PARENT 21 25 31 36
ROOT
ATOM      1  C   UNL     1      10.770  13.411  -5.749  1.00  0.00     0.089 A 
ATOM      2  C   UNL     1      10.483  12.501  -4.725  1.00  0.00     0.022 A 
ATOM      3  C   UNL     1      10.167  11.182  -5.044  1.00  0.00     0.002 A 
ATOM      4  C   UNL     1      10.137  10.776  -6.380  1.00  0.00     0.014 A 
ATOM      5  C   UNL     1      10.412  11.690  -7.406  1.00  0.00     0.041 A 
ATOM      6  C   UNL     1      10.748  13.013  -7.092  1.00  0.00     0.036 A 
ENDROOT
BRANCH   1   7
ATOM      7  S   UNL     1      11.211  15.080  -5.338  1.00  0.00     0.268 S 
ATOM      8  O   UNL     1      10.443  15.481  -4.178  1.00  0.00    -0.201 OA
ATOM      9  O   UNL     1      11.234  15.867  -6.556  1.00  0.00    -0.201 OA
BRANCH   7  10
ATOM     10  N   UNL     1      12.844  14.945  -4.858  1.00  0.00    -0.241 N 
ATOM     11  C   UNL     1      16.518  15.096  -6.795  1.00  0.00     0.122 A 
ATOM     12  C   UNL     1      15.395  15.011  -7.616  1.00  0.00     0.049 A 
ATOM     13  C   UNL     1      16.376  15.133  -5.387  1.00  0.00     0.000 A 
ATOM     14  C   UNL     1      14.105  14.967  -7.079  1.00  0.00     0.032 A 
ATOM     15  C   UNL     1      15.069  15.074  -4.835  1.00  0.00     0.007 A 
ATOM     16  C   UNL     1      13.953  14.998  -5.684  1.00  0.00     0.065 A 
ATOM     17  C   UNL     1      14.580  15.077  -3.493  1.00  0.00     0.030 A 
ATOM     18  C   UNL     1      13.209  15.011  -3.537  1.00  0.00     0.105 A 
ATOM     19  C   UNL     1      17.616  15.224  -4.529  1.00  0.00     0.049 C 
BRANCH  11  20
ATOM     20  O   UNL     1      17.809  15.165  -7.253  1.00  0.00    -0.496 OA
ATOM     21  C   UNL     1      18.010  15.360  -8.647  1.00  0.00     0.278 C 
ENDBRANCH  11  20
ENDBRANCH   7  10
ENDBRANCH   1   7
BRANCH   5  22
ATOM     22  C   UNL     1      10.383  11.199  -8.813  1.00  0.00     0.255 C 
ATOM     23  O   UNL     1      10.177  12.013  -9.704  1.00  0.00    -0.269 OA
ATOM     24  N   UNL     1      10.633   9.850  -8.964  1.00  0.00    -0.321 N 
ATOM     25  H   UNL     1      10.927   9.329  -8.137  1.00  0.00     0.170 HD
BRANCH  24  26
ATOM     26  C   UNL     1      10.613   9.079 -10.152  1.00  0.00     0.056 A 
ATOM     27  C   UNL     1      10.728   9.670 -11.417  1.00  0.00     0.028 A 
ATOM     28  C   UNL     1      10.453   7.674 -10.079  1.00  0.00     0.084 A 
ATOM     29  C   UNL     1      10.693   8.899 -12.584  1.00  0.00     0.023 A 
ATOM     30  C   UNL     1      10.419   6.907 -11.259  1.00  0.00     0.038 A 
ATOM     31  C   UNL     1      10.540   7.521 -12.501  1.00  0.00     0.042 A 
ATOM     32  Cl  UNL     1      10.496   6.574 -13.934  1.00  0.00    -0.084 Cl
BRANCH  28  33
ATOM     33  C   UNL     1      10.296   6.900  -8.816  1.00  0.00     0.337 C 
ATOM     34  O   UNL     1      10.939   5.912  -8.515  1.00  0.00    -0.246 OA
BRANCH  33  35
ATOM     35  O   UNL     1       9.352   7.380  -7.981  1.00  0.00    -0.478 OA
ATOM     36  H   UNL     1       8.687   7.768  -8.597  1.00  0.00     0.297 HD
ENDBRANCH  33  35
ENDBRANCH  28  33
ENDBRANCH  24  26
ENDBRANCH   5  22
TORSDOF 7
ENDMDL
