REMARK SMILES C[S@+]([O-])c1ccc(-c2nc(-c3ccc(F)cc3)c(-c3ccncc3)[nH]2)cc1
REMARK SMILES IDX 4 1 5 2 6 3 7 4 26 5 27 6 2 7 1 8 3 9 8 10 9 11 25 12 10 13
REMARK SMILES IDX 18 14 11 16 12 17 17 18 13 19 16 20 14 21 15 22 19 23 20 24
REMARK SMILES IDX 24 25 21 26 23 27 22 28
REMARK H PARENT 25 15
REMARK INDEX MAP 4 1 5 2 6 3 7 4 26 5 27 6 2 7 1 8 3 9 8 10 9 11 25 12 10 13
REMARK INDEX MAP 18 14 41 15 11 16 12 17 17 18 13 19 16 20 14 21 15 22 19 23
REMARK INDEX MAP 20 24 24 25 21 26 23 27 22 28
ROOT
ATOM      1  C   UNL     1      11.642   1.522  30.876  1.00  0.00     0.152 A 
ATOM      2  C   UNL     1      13.002   1.843  30.901  1.00  0.00     0.061 A 
ATOM      3  C   UNL     1      13.603   2.474  29.804  1.00  0.00     0.017 A 
ATOM      4  C   UNL     1      12.857   2.787  28.661  1.00  0.00     0.018 A 
ATOM      5  C   UNL     1      11.493   2.456  28.647  1.00  0.00     0.017 A 
ATOM      6  C   UNL     1      10.889   1.825  29.740  1.00  0.00     0.061 A 
ENDROOT
BRANCH   1   7
ATOM      7  S   UNL     1      10.859   0.701  32.283  1.00  0.00    -0.018 S 
ATOM      8  C   UNL     1      10.436  -0.843  31.437  1.00  0.00     0.346 C 
ATOM      9  O   UNL     1       9.437   1.505  32.579  1.00  0.00    -0.612 OA
ENDBRANCH   1   7
BRANCH   4  10
ATOM     10  C   UNL     1      13.441   3.445  27.488  1.00  0.00     0.138 A 
ATOM     11  N   UNL     1      14.637   3.203  26.983  1.00  0.00    -0.228 NA
ATOM     12  N   UNL     1      12.824   4.426  26.749  1.00  0.00    -0.337 N 
ATOM     13  C   UNL     1      14.788   4.043  25.902  1.00  0.00     0.097 A 
ATOM     14  C   UNL     1      13.651   4.813  25.718  1.00  0.00     0.074 A 
ATOM     15  H   UNL     1      11.888   4.812  26.937  1.00  0.00     0.168 HD
BRANCH  13  16
ATOM     16  C   UNL     1      16.003   4.043  25.102  1.00  0.00     0.003 A 
ATOM     17  C   UNL     1      16.876   5.141  25.077  1.00  0.00     0.013 A 
ATOM     18  C   UNL     1      16.326   2.898  24.354  1.00  0.00     0.013 A 
ATOM     19  C   UNL     1      18.037   5.103  24.299  1.00  0.00     0.040 A 
ATOM     20  C   UNL     1      17.487   2.863  23.577  1.00  0.00     0.040 A 
ATOM     21  C   UNL     1      18.329   3.967  23.556  1.00  0.00     0.123 A 
ATOM     22  F   UNL     1      19.441   3.934  22.811  1.00  0.00    -0.207 F 
ENDBRANCH  13  16
BRANCH  14  23
ATOM     23  C   UNL     1      13.235   5.783  24.711  1.00  0.00     0.003 A 
ATOM     24  C   UNL     1      13.130   7.138  25.030  1.00  0.00     0.030 A 
ATOM     25  C   UNL     1      12.930   5.372  23.414  1.00  0.00     0.030 A 
ATOM     26  C   UNL     1      12.729   8.018  24.039  1.00  0.00     0.111 A 
ATOM     27  C   UNL     1      12.535   6.328  22.493  1.00  0.00     0.111 A 
ATOM     28  N   UNL     1      12.426   7.643  22.779  1.00  0.00    -0.265 NA
ENDBRANCH  14  23
ENDBRANCH   4  10
TORSDOF 4
