MODEL 1
REMARK VINA RESULT:    -6.955      0.000      0.000
REMARK INTER + INTRA:         -14.022
REMARK INTER:                 -12.647
REMARK INTRA:                  -1.375
REMARK UNBOUND:                -1.375
REMARK SMILES CN1C/C=C/COCc2ccc(s2)-c2ccnc(n2)Nc2ccc(OCCN3CCCC3)c(c2)C1
REMARK SMILES IDX 20 1 21 3 33 4 24 5 34 6 23 7 22 8 35 9 2 10 1 11 3 12 4 13
REMARK SMILES IDX 5 14 25 16 26 17 27 18 28 19 29 20 32 21 30 22 31 23 18 24
REMARK SMILES IDX 17 25 19 26 16 27 14 28 15 29 12 30 11 31 13 32 10 33 9 34
REMARK SMILES IDX 8 35 7 36 6 37
REMARK H PARENT 20 2
REMARK Flexibility Score:  104.900
ROOT
ATOM      1  N   UNL     1       9.786 -23.465  23.386  1.00  0.00    -0.324 N 
ATOM      2  H   UNL     1      10.745 -23.473  23.081  1.00  0.00     0.170 HD
ENDROOT
BRANCH   1   3
ATOM      3  C   UNL     1       9.047 -22.288  23.213  1.00  0.00     0.041 A 
ATOM      4  C   UNL     1       6.974 -21.106  22.597  1.00  0.00     0.010 A 
ATOM      5  C   UNL     1       7.629 -19.874  22.703  1.00  0.00     0.124 A 
ATOM      6  C   UNL     1       7.695 -22.289  22.863  1.00  0.00     0.035 A 
ATOM      7  C   UNL     1       8.977 -19.854  23.078  1.00  0.00     0.049 A 
ATOM      8  C   UNL     1       9.677 -21.047  23.322  1.00  0.00     0.030 A 
BRANCH   4   9
ATOM      9  C   UNL     1       5.519 -21.244  22.187  1.00  0.00     0.124 C 
BRANCH   9  10
ATOM     10  N   UNL     1       5.267 -21.327  20.735  1.00  0.00    -0.298 NA
ATOM     11  C   UNL     1       6.311 -22.032  19.990  1.00  0.00     0.106 C 
BRANCH  10  12
ATOM     12  C   UNL     1       3.939 -21.880  20.441  1.00  0.00     0.111 C 
BRANCH  12  13
ATOM     13  C   UNL     1       3.788 -23.364  20.667  1.00  0.00    -0.014 C 
ATOM     14  C   UNL     1       2.671 -24.063  20.396  1.00  0.00    -0.002 CG0
ATOM     15  G   UNL     1       2.526 -25.538  20.603  1.00  0.00     0.000 G0
ENDBRANCH  12  13
ENDBRANCH  10  12
ENDBRANCH   9  10
ENDBRANCH   4   9
BRANCH   5  16
ATOM     16  O   UNL     1       6.873 -18.763  22.451  1.00  0.00    -0.492 OA
BRANCH  16  17
ATOM     17  C   UNL     1       6.973 -18.177  21.152  1.00  0.00     0.245 C 
BRANCH  17  18
ATOM     18  C   UNL     1       5.699 -17.363  20.861  1.00  0.00     0.126 C 
BRANCH  18  19
ATOM     19  N   UNL     1       4.518 -18.190  20.561  1.00  0.00    -0.300 NA
ATOM     20  C   UNL     1       3.854 -17.768  19.326  1.00  0.00     0.084 C 
ATOM     21  C   UNL     1       3.479 -18.113  21.596  1.00  0.00     0.084 C 
ATOM     22  C   UNL     1       2.489 -18.436  19.412  1.00  0.00     0.017 C 
ATOM     23  C   UNL     1       2.260 -18.696  20.896  1.00  0.00     0.017 C 
ENDBRANCH  18  19
ENDBRANCH  17  18
ENDBRANCH  16  17
ENDBRANCH   5  16
ENDBRANCH   1   3
BRANCH   1  24
ATOM     24  C   UNL     1       9.449 -24.680  23.980  1.00  0.00     0.227 A 
ATOM     25  N   UNL     1      10.304 -25.161  24.895  1.00  0.00    -0.221 NA
ATOM     26  N   UNL     1       8.329 -25.320  23.626  1.00  0.00    -0.212 NA
ATOM     27  C   UNL     1       9.970 -26.319  25.501  1.00  0.00     0.117 A 
ATOM     28  C   UNL     1       8.027 -26.466  24.258  1.00  0.00     0.086 A 
ATOM     29  C   UNL     1       8.824 -27.024  25.225  1.00  0.00     0.050 A 
BRANCH  28  30
ATOM     30  C   UNL     1       6.785 -27.073  23.801  1.00  0.00     0.053 A 
ATOM     31  C   UNL     1       6.435 -28.408  23.796  1.00  0.00     0.022 A 
ATOM     32  S   UNL     1       5.567 -26.101  23.091  1.00  0.00    -0.136 S 
ATOM     33  C   UNL     1       5.169 -28.632  23.185  1.00  0.00     0.018 A 
ATOM     34  C   UNL     1       4.591 -27.462  22.730  1.00  0.00     0.031 A 
BRANCH  34  35
ATOM     35  C   UNL     1       3.286 -27.299  22.016  1.00  0.00     0.207 C 
BRANCH  35  36
ATOM     36  O   UNL     1       3.031 -25.903  21.869  1.00  0.00    -0.372 OA
BRANCH  36  37
ATOM     37  C   UNL     1       2.512 -25.542  20.591  1.00  0.00     0.188 CG0
ATOM     38  G   UNL     1       2.668 -24.063  20.423  1.00  0.00     0.000 G0
ENDBRANCH  36  37
ENDBRANCH  35  36
ENDBRANCH  34  35
ENDBRANCH  28  30
ENDBRANCH   1  24
TORSDOF 4
ENDMDL
MODEL 2
REMARK VINA RESULT:    -6.837      3.246      5.461
REMARK INTER + INTRA:         -13.808
REMARK INTER:                 -12.310
REMARK INTRA:                  -1.498
REMARK UNBOUND:                -1.375
REMARK SMILES CN1C/C=C/COCc2ccc(s2)-c2ccnc(n2)Nc2ccc(OCCN3CCCC3)c(c2)C1
REMARK SMILES IDX 20 1 21 3 33 4 24 5 34 6 23 7 22 8 35 9 2 10 1 11 3 12 4 13
REMARK SMILES IDX 5 14 25 16 26 17 27 18 28 19 29 20 32 21 30 22 31 23 18 24
REMARK SMILES IDX 17 25 19 26 16 27 14 28 15 29 12 30 11 31 13 32 10 33 9 34
REMARK SMILES IDX 8 35 7 36 6 37
REMARK H PARENT 20 2
REMARK Flexibility Score:  104.900
ROOT
ATOM      1  N   UNL     1       4.177 -25.252  22.264  1.00  0.00    -0.324 N 
ATOM      2  H   UNL     1       3.206 -25.295  22.524  1.00  0.00     0.170 HD
ENDROOT
BRANCH   1   3
ATOM      3  C   UNL     1       4.628 -24.121  21.573  1.00  0.00     0.041 A 
ATOM      4  C   UNL     1       5.991 -22.073  21.431  1.00  0.00     0.010 A 
ATOM      5  C   UNL     1       5.388 -21.741  20.212  1.00  0.00     0.124 A 
ATOM      6  C   UNL     1       5.604 -23.262  22.083  1.00  0.00     0.035 A 
ATOM      7  C   UNL     1       4.427 -22.603  19.674  1.00  0.00     0.049 A 
ATOM      8  C   UNL     1       4.048 -23.774  20.351  1.00  0.00     0.030 A 
BRANCH   4   9
ATOM      9  C   UNL     1       7.036 -21.205  22.109  1.00  0.00     0.124 C 
BRANCH   9  10
ATOM     10  N   UNL     1       8.439 -21.609  21.900  1.00  0.00    -0.298 NA
ATOM     11  C   UNL     1       8.984 -21.218  20.599  1.00  0.00     0.106 C 
BRANCH  10  12
ATOM     12  C   UNL     1       9.307 -21.158  22.996  1.00  0.00     0.111 C 
BRANCH  12  13
ATOM     13  C   UNL     1       9.958 -22.254  23.803  1.00  0.00    -0.014 C 
ATOM     14  C   UNL     1      10.738 -22.043  24.878  1.00  0.00    -0.002 CG0
ATOM     15  G   UNL     1      11.369 -23.130  25.690  1.00  0.00     0.000 G0
ENDBRANCH  12  13
ENDBRANCH  10  12
ENDBRANCH   9  10
ENDBRANCH   4   9
BRANCH   5  16
ATOM     16  O   UNL     1       5.819 -20.586  19.620  1.00  0.00    -0.492 OA
BRANCH  16  17
ATOM     17  C   UNL     1       4.831 -19.608  19.287  1.00  0.00     0.245 C 
BRANCH  17  18
ATOM     18  C   UNL     1       4.711 -18.593  20.439  1.00  0.00     0.126 C 
BRANCH  18  19
ATOM     19  N   UNL     1       3.608 -17.632  20.274  1.00  0.00    -0.300 NA
ATOM     20  C   UNL     1       2.573 -18.139  19.371  1.00  0.00     0.084 C 
ATOM     21  C   UNL     1       4.034 -16.356  19.686  1.00  0.00     0.084 C 
ATOM     22  C   UNL     1       1.771 -16.894  19.017  1.00  0.00     0.017 C 
ATOM     23  C   UNL     1       2.717 -15.723  19.259  1.00  0.00     0.017 C 
ENDBRANCH  18  19
ENDBRANCH  17  18
ENDBRANCH  16  17
ENDBRANCH   5  16
ENDBRANCH   1   3
BRANCH   1  24
ATOM     24  C   UNL     1       4.838 -26.421  22.640  1.00  0.00     0.227 A 
ATOM     25  N   UNL     1       4.279 -27.578  22.255  1.00  0.00    -0.221 NA
ATOM     26  N   UNL     1       5.963 -26.362  23.360  1.00  0.00    -0.212 NA
ATOM     27  C   UNL     1       4.929 -28.714  22.583  1.00  0.00     0.117 A 
ATOM     28  C   UNL     1       6.585 -27.514  23.659  1.00  0.00     0.086 A 
ATOM     29  C   UNL     1       6.107 -28.746  23.289  1.00  0.00     0.050 A 
BRANCH  28  30
ATOM     30  C   UNL     1       7.803 -27.333  24.438  1.00  0.00     0.053 A 
ATOM     31  C   UNL     1       8.430 -28.239  25.269  1.00  0.00     0.022 A 
ATOM     32  S   UNL     1       8.593 -25.815  24.451  1.00  0.00    -0.136 S 
ATOM     33  C   UNL     1       9.552 -27.671  25.937  1.00  0.00     0.018 A 
ATOM     34  C   UNL     1       9.745 -26.344  25.604  1.00  0.00     0.031 A 
BRANCH  34  35
ATOM     35  C   UNL     1      10.796 -25.411  26.118  1.00  0.00     0.207 C 
BRANCH  35  36
ATOM     36  O   UNL     1      11.004 -24.393  25.140  1.00  0.00    -0.372 OA
BRANCH  36  37
ATOM     37  C   UNL     1      11.373 -23.131  25.689  1.00  0.00     0.188 CG0
ATOM     38  G   UNL     1      10.721 -22.057  24.876  1.00  0.00     0.000 G0
ENDBRANCH  36  37
ENDBRANCH  35  36
ENDBRANCH  34  35
ENDBRANCH  28  30
ENDBRANCH   1  24
TORSDOF 4
ENDMDL
MODEL 3
REMARK VINA RESULT:    -6.729      2.899      5.187
REMARK INTER + INTRA:         -13.611
REMARK INTER:                 -12.242
REMARK INTRA:                  -1.369
REMARK UNBOUND:                -1.375
REMARK SMILES CN1C/C=C/COCc2ccc(s2)-c2ccnc(n2)Nc2ccc(OCCN3CCCC3)c(c2)C1
REMARK SMILES IDX 20 1 21 3 33 4 24 5 34 6 23 7 22 8 35 9 2 10 1 11 3 12 4 13
REMARK SMILES IDX 5 14 25 16 26 17 27 18 28 19 29 20 32 21 30 22 31 23 18 24
REMARK SMILES IDX 17 25 19 26 16 27 14 28 15 29 12 30 11 31 13 32 10 33 9 34
REMARK SMILES IDX 8 35 7 36 6 37
REMARK H PARENT 20 2
REMARK Flexibility Score:  104.900
ROOT
ATOM      1  N   UNL     1       3.783 -23.824  19.937  1.00  0.00    -0.324 N 
ATOM      2  H   UNL     1       3.497 -24.052  19.000  1.00  0.00     0.170 HD
ENDROOT
BRANCH   1   3
ATOM      3  C   UNL     1       4.200 -22.514  20.201  1.00  0.00     0.041 A 
ATOM      4  C   UNL     1       5.960 -20.800  20.394  1.00  0.00     0.010 A 
ATOM      5  C   UNL     1       5.035 -19.889  20.917  1.00  0.00     0.124 A 
ATOM      6  C   UNL     1       5.521 -22.093  20.039  1.00  0.00     0.035 A 
ATOM      7  C   UNL     1       3.701 -20.287  21.063  1.00  0.00     0.049 A 
ATOM      8  C   UNL     1       3.292 -21.585  20.715  1.00  0.00     0.030 A 
BRANCH   4   9
ATOM      9  C   UNL     1       7.432 -20.478  20.205  1.00  0.00     0.124 C 
BRANCH   9  10
ATOM     10  N   UNL     1       8.365 -21.208  21.086  1.00  0.00    -0.298 NA
ATOM     11  C   UNL     1       9.776 -21.021  20.743  1.00  0.00     0.106 C 
BRANCH  10  12
ATOM     12  C   UNL     1       8.119 -20.915  22.504  1.00  0.00     0.111 C 
BRANCH  12  13
ATOM     13  C   UNL     1       8.471 -22.023  23.467  1.00  0.00    -0.014 C 
ATOM     14  C   UNL     1       9.683 -22.601  23.548  1.00  0.00    -0.002 CG0
ATOM     15  G   UNL     1      10.038 -23.687  24.514  1.00  0.00     0.000 G0
ENDBRANCH  12  13
ENDBRANCH  10  12
ENDBRANCH   9  10
ENDBRANCH   4   9
BRANCH   5  16
ATOM     16  O   UNL     1       5.516 -18.647  21.225  1.00  0.00    -0.492 OA
BRANCH  16  17
ATOM     17  C   UNL     1       4.612 -17.546  21.124  1.00  0.00     0.245 C 
BRANCH  17  18
ATOM     18  C   UNL     1       4.764 -16.886  19.740  1.00  0.00     0.126 C 
BRANCH  18  19
ATOM     19  N   UNL     1       3.483 -16.562  19.090  1.00  0.00    -0.300 NA
ATOM     20  C   UNL     1       2.577 -17.712  19.065  1.00  0.00     0.084 C 
ATOM     21  C   UNL     1       3.631 -16.163  17.685  1.00  0.00     0.084 C 
ATOM     22  C   UNL     1       1.531 -17.316  18.032  1.00  0.00     0.017 C 
ATOM     23  C   UNL     1       2.210 -16.274  17.151  1.00  0.00     0.017 C 
ENDBRANCH  18  19
ENDBRANCH  17  18
ENDBRANCH  16  17
ENDBRANCH   5  16
ENDBRANCH   1   3
BRANCH   1  24
ATOM     24  C   UNL     1       3.734 -24.953  20.754  1.00  0.00     0.227 A 
ATOM     25  N   UNL     1       2.588 -25.650  20.748  1.00  0.00    -0.221 NA
ATOM     26  N   UNL     1       4.786 -25.292  21.505  1.00  0.00    -0.212 NA
ATOM     27  C   UNL     1       2.542 -26.764  21.508  1.00  0.00     0.117 A 
ATOM     28  C   UNL     1       4.705 -26.413  22.241  1.00  0.00     0.086 A 
ATOM     29  C   UNL     1       3.586 -27.206  22.282  1.00  0.00     0.050 A 
BRANCH  28  30
ATOM     30  C   UNL     1       5.908 -26.691  23.013  1.00  0.00     0.053 A 
ATOM     31  C   UNL     1       6.185 -27.790  23.801  1.00  0.00     0.022 A 
ATOM     32  S   UNL     1       7.170 -25.537  23.077  1.00  0.00    -0.136 S 
ATOM     33  C   UNL     1       7.431 -27.668  24.478  1.00  0.00     0.018 A 
ATOM     34  C   UNL     1       8.068 -26.474  24.196  1.00  0.00     0.031 A 
BRANCH  34  35
ATOM     35  C   UNL     1       9.374 -25.979  24.734  1.00  0.00     0.207 C 
BRANCH  35  36
ATOM     36  O   UNL     1       9.850 -24.951  23.869  1.00  0.00    -0.372 OA
BRANCH  36  37
ATOM     37  C   UNL     1      10.050 -23.697  24.517  1.00  0.00     0.188 CG0
ATOM     38  G   UNL     1       9.684 -22.610  23.556  1.00  0.00     0.000 G0
ENDBRANCH  36  37
ENDBRANCH  35  36
ENDBRANCH  34  35
ENDBRANCH  28  30
ENDBRANCH   1  24
TORSDOF 4
ENDMDL
MODEL 4
REMARK VINA RESULT:    -6.710      2.036      3.335
REMARK INTER + INTRA:         -13.576
REMARK INTER:                 -11.815
REMARK INTRA:                  -1.760
REMARK UNBOUND:                -1.375
REMARK SMILES CN1C/C=C/COCc2ccc(s2)-c2ccnc(n2)Nc2ccc(OCCN3CCCC3)c(c2)C1
REMARK SMILES IDX 20 1 21 3 33 4 24 5 34 6 23 7 22 8 35 9 2 10 1 11 3 12 4 13
REMARK SMILES IDX 5 14 25 16 26 17 27 18 28 19 29 20 32 21 30 22 31 23 18 24
REMARK SMILES IDX 17 25 19 26 16 27 14 28 15 29 12 30 11 31 13 32 10 33 9 34
REMARK SMILES IDX 8 35 7 36 6 37
REMARK H PARENT 20 2
REMARK Flexibility Score:  104.900
ROOT
ATOM      1  N   UNL     1       9.659 -23.937  23.068  1.00  0.00    -0.324 N 
ATOM      2  H   UNL     1      10.595 -24.104  22.737  1.00  0.00     0.170 HD
ENDROOT
BRANCH   1   3
ATOM      3  C   UNL     1       9.111 -22.662  22.889  1.00  0.00     0.041 A 
ATOM      4  C   UNL     1       7.761 -21.047  21.607  1.00  0.00     0.010 A 
ATOM      5  C   UNL     1       8.160 -20.014  22.463  1.00  0.00     0.124 A 
ATOM      6  C   UNL     1       8.239 -22.353  21.843  1.00  0.00     0.035 A 
ATOM      7  C   UNL     1       9.014 -20.310  23.531  1.00  0.00     0.049 A 
ATOM      8  C   UNL     1       9.487 -21.617  23.735  1.00  0.00     0.030 A 
BRANCH   4   9
ATOM      9  C   UNL     1       6.849 -20.834  20.412  1.00  0.00     0.124 C 
BRANCH   9  10
ATOM     10  N   UNL     1       5.419 -21.122  20.638  1.00  0.00    -0.298 NA
ATOM     11  C   UNL     1       4.545 -19.959  20.480  1.00  0.00     0.106 C 
BRANCH  10  12
ATOM     12  C   UNL     1       4.954 -22.252  19.823  1.00  0.00     0.111 C 
BRANCH  12  13
ATOM     13  C   UNL     1       4.152 -23.298  20.557  1.00  0.00    -0.014 C 
ATOM     14  C   UNL     1       2.992 -23.815  20.113  1.00  0.00    -0.002 CG0
ATOM     15  G   UNL     1       2.205 -24.864  20.831  1.00  0.00     0.000 G0
ENDBRANCH  12  13
ENDBRANCH  10  12
ENDBRANCH   9  10
ENDBRANCH   4   9
BRANCH   5  16
ATOM     16  O   UNL     1       7.649 -18.774  22.194  1.00  0.00    -0.492 OA
BRANCH  16  17
ATOM     17  C   UNL     1       8.529 -17.656  22.325  1.00  0.00     0.245 C 
BRANCH  17  18
ATOM     18  C   UNL     1       9.217 -17.388  20.973  1.00  0.00     0.126 C 
BRANCH  18  19
ATOM     19  N   UNL     1      10.673 -17.608  20.991  1.00  0.00    -0.300 NA
ATOM     20  C   UNL     1      11.356 -16.828  19.957  1.00  0.00     0.084 C 
ATOM     21  C   UNL     1      11.052 -19.002  20.730  1.00  0.00     0.084 C 
ATOM     22  C   UNL     1      12.728 -17.483  19.869  1.00  0.00     0.017 C 
ATOM     23  C   UNL     1      12.536 -18.894  20.411  1.00  0.00     0.017 C 
ENDBRANCH  18  19
ENDBRANCH  17  18
ENDBRANCH  16  17
ENDBRANCH   5  16
ENDBRANCH   1   3
BRANCH   1  24
ATOM     24  C   UNL     1       9.151 -25.073  23.697  1.00  0.00     0.227 A 
ATOM     25  N   UNL     1       9.885 -25.588  24.695  1.00  0.00    -0.221 NA
ATOM     26  N   UNL     1       7.994 -25.610  23.296  1.00  0.00    -0.212 NA
ATOM     27  C   UNL     1       9.386 -26.666  25.334  1.00  0.00     0.117 A 
ATOM     28  C   UNL     1       7.526 -26.677  23.963  1.00  0.00     0.086 A 
ATOM     29  C   UNL     1       8.190 -27.260  25.013  1.00  0.00     0.050 A 
BRANCH  28  30
ATOM     30  C   UNL     1       6.257 -27.174  23.449  1.00  0.00     0.053 A 
ATOM     31  C   UNL     1       5.878 -28.482  23.222  1.00  0.00     0.022 A 
ATOM     32  S   UNL     1       5.039 -26.073  22.963  1.00  0.00    -0.136 S 
ATOM     33  C   UNL     1       4.590 -28.575  22.624  1.00  0.00     0.018 A 
ATOM     34  C   UNL     1       4.023 -27.334  22.401  1.00  0.00     0.031 A 
BRANCH  34  35
ATOM     35  C   UNL     1       2.701 -27.026  21.772  1.00  0.00     0.207 C 
BRANCH  35  36
ATOM     36  O   UNL     1       2.920 -26.114  20.698  1.00  0.00    -0.372 OA
BRANCH  36  37
ATOM     37  C   UNL     1       2.200 -24.890  20.824  1.00  0.00     0.188 CG0
ATOM     38  G   UNL     1       2.970 -23.819  20.116  1.00  0.00     0.000 G0
ENDBRANCH  36  37
ENDBRANCH  35  36
ENDBRANCH  34  35
ENDBRANCH  28  30
ENDBRANCH   1  24
TORSDOF 4
ENDMDL
MODEL 5
REMARK VINA RESULT:    -6.675      2.960      8.097
REMARK INTER + INTRA:         -13.513
REMARK INTER:                 -12.528
REMARK INTRA:                  -0.985
REMARK UNBOUND:                -1.375
REMARK SMILES CN1C/C=C/COCc2ccc(s2)-c2ccnc(n2)Nc2ccc(OCCN3CCCC3)c(c2)C1
REMARK SMILES IDX 20 1 21 3 33 4 24 5 34 6 23 7 22 8 35 9 2 10 1 11 3 12 4 13
REMARK SMILES IDX 5 14 25 16 26 17 27 18 28 19 29 20 32 21 30 22 31 23 18 24
REMARK SMILES IDX 17 25 19 26 16 27 14 28 15 29 12 30 11 31 13 32 10 33 9 34
REMARK SMILES IDX 8 35 7 36 6 37
REMARK H PARENT 20 2
REMARK Flexibility Score:  104.900
ROOT
ATOM      1  N   UNL     1       5.884 -28.646  23.501  1.00  0.00    -0.324 N 
ATOM      2  H   UNL     1       5.896 -29.617  23.764  1.00  0.00     0.170 HD
ENDROOT
BRANCH   1   3
ATOM      3  C   UNL     1       6.867 -27.804  24.035  1.00  0.00     0.041 A 
ATOM      4  C   UNL     1       7.992 -25.617  24.186  1.00  0.00     0.010 A 
ATOM      5  C   UNL     1       8.983 -26.168  25.007  1.00  0.00     0.124 A 
ATOM      6  C   UNL     1       6.949 -26.445  23.723  1.00  0.00     0.035 A 
ATOM      7  C   UNL     1       8.901 -27.522  25.351  1.00  0.00     0.049 A 
ATOM      8  C   UNL     1       7.860 -28.329  24.864  1.00  0.00     0.030 A 
BRANCH   4   9
ATOM      9  C   UNL     1       7.990 -24.164  23.743  1.00  0.00     0.124 C 
BRANCH   9  10
ATOM     10  N   UNL     1       8.893 -23.835  22.624  1.00  0.00    -0.298 NA
ATOM     11  C   UNL     1       8.510 -24.446  21.350  1.00  0.00     0.106 C 
BRANCH  10  12
ATOM     12  C   UNL     1       9.081 -22.385  22.482  1.00  0.00     0.111 C 
BRANCH  12  13
ATOM     13  C   UNL     1       8.087 -21.684  21.589  1.00  0.00    -0.014 C 
ATOM     14  C   UNL     1       6.911 -21.186  22.007  1.00  0.00    -0.002 CG0
ATOM     15  G   UNL     1       5.932 -20.476  21.125  1.00  0.00     0.000 G0
ENDBRANCH  12  13
ENDBRANCH  10  12
ENDBRANCH   9  10
ENDBRANCH   4   9
BRANCH   5  16
ATOM     16  O   UNL     1       9.956 -25.312  25.439  1.00  0.00    -0.492 OA
BRANCH  16  17
ATOM     17  C   UNL     1      11.316 -25.694  25.220  1.00  0.00     0.245 C 
BRANCH  17  18
ATOM     18  C   UNL     1      12.178 -25.207  26.400  1.00  0.00     0.126 C 
BRANCH  18  19
ATOM     19  N   UNL     1      12.807 -26.296  27.168  1.00  0.00    -0.300 NA
ATOM     20  C   UNL     1      12.748 -27.572  26.454  1.00  0.00     0.084 C 
ATOM     21  C   UNL     1      12.149 -26.550  28.456  1.00  0.00     0.084 C 
ATOM     22  C   UNL     1      13.054 -28.598  27.537  1.00  0.00     0.017 C 
ATOM     23  C   UNL     1      12.696 -27.914  28.851  1.00  0.00     0.017 C 
ENDBRANCH  18  19
ENDBRANCH  17  18
ENDBRANCH  16  17
ENDBRANCH   5  16
ENDBRANCH   1   3
BRANCH   1  24
ATOM     24  C   UNL     1       4.799 -28.376  22.668  1.00  0.00     0.227 A 
ATOM     25  N   UNL     1       4.049 -29.425  22.298  1.00  0.00    -0.221 NA
ATOM     26  N   UNL     1       4.551 -27.127  22.262  1.00  0.00    -0.212 NA
ATOM     27  C   UNL     1       2.976 -29.170  21.521  1.00  0.00     0.117 A 
ATOM     28  C   UNL     1       3.468 -26.913  21.496  1.00  0.00     0.086 A 
ATOM     29  C   UNL     1       2.626 -27.916  21.087  1.00  0.00     0.050 A 
BRANCH  28  30
ATOM     30  C   UNL     1       3.288 -25.518  21.119  1.00  0.00     0.053 A 
ATOM     31  C   UNL     1       2.118 -24.862  20.795  1.00  0.00     0.022 A 
ATOM     32  S   UNL     1       4.650 -24.493  20.954  1.00  0.00    -0.136 S 
ATOM     33  C   UNL     1       2.348 -23.517  20.388  1.00  0.00     0.018 A 
ATOM     34  C   UNL     1       3.689 -23.186  20.401  1.00  0.00     0.031 A 
BRANCH  34  35
ATOM     35  C   UNL     1       4.319 -21.884  20.016  1.00  0.00     0.207 C 
BRANCH  35  36
ATOM     36  O   UNL     1       4.678 -21.193  21.211  1.00  0.00    -0.372 OA
BRANCH  36  37
ATOM     37  C   UNL     1       5.912 -20.485  21.119  1.00  0.00     0.188 CG0
ATOM     38  G   UNL     1       6.914 -21.175  21.991  1.00  0.00     0.000 G0
ENDBRANCH  36  37
ENDBRANCH  35  36
ENDBRANCH  34  35
ENDBRANCH  28  30
ENDBRANCH   1  24
TORSDOF 4
ENDMDL
MODEL 6
REMARK VINA RESULT:    -6.620      2.946      5.790
REMARK INTER + INTRA:         -13.412
REMARK INTER:                 -11.783
REMARK INTRA:                  -1.629
REMARK UNBOUND:                -1.375
REMARK SMILES CN1C/C=C/COCc2ccc(s2)-c2ccnc(n2)Nc2ccc(OCCN3CCCC3)c(c2)C1
REMARK SMILES IDX 20 1 21 3 33 4 24 5 34 6 23 7 22 8 35 9 2 10 1 11 3 12 4 13
REMARK SMILES IDX 5 14 25 16 26 17 27 18 28 19 29 20 32 21 30 22 31 23 18 24
REMARK SMILES IDX 17 25 19 26 16 27 14 28 15 29 12 30 11 31 13 32 10 33 9 34
REMARK SMILES IDX 8 35 7 36 6 37
REMARK H PARENT 20 2
REMARK Flexibility Score:  104.900
ROOT
ATOM      1  N   UNL     1       4.230 -23.078  19.801  1.00  0.00    -0.324 N 
ATOM      2  H   UNL     1       4.210 -23.253  18.810  1.00  0.00     0.170 HD
ENDROOT
BRANCH   1   3
ATOM      3  C   UNL     1       4.771 -21.867  20.248  1.00  0.00     0.041 A 
ATOM      4  C   UNL     1       6.438 -20.585  21.534  1.00  0.00     0.010 A 
ATOM      5  C   UNL     1       5.739 -19.399  21.283  1.00  0.00     0.124 A 
ATOM      6  C   UNL     1       5.943 -21.795  21.005  1.00  0.00     0.035 A 
ATOM      7  C   UNL     1       4.577 -19.448  20.505  1.00  0.00     0.049 A 
ATOM      8  C   UNL     1       4.097 -20.669  20.002  1.00  0.00     0.030 A 
BRANCH   4   9
ATOM      9  C   UNL     1       7.701 -20.647  22.374  1.00  0.00     0.124 C 
BRANCH   9  10
ATOM     10  N   UNL     1       8.604 -21.781  22.091  1.00  0.00    -0.298 NA
ATOM     11  C   UNL     1       9.528 -21.543  20.982  1.00  0.00     0.106 C 
BRANCH  10  12
ATOM     12  C   UNL     1       9.320 -22.222  23.295  1.00  0.00     0.111 C 
BRANCH  12  13
ATOM     13  C   UNL     1       9.217 -23.693  23.611  1.00  0.00    -0.014 C 
ATOM     14  C   UNL     1      10.023 -24.344  24.468  1.00  0.00    -0.002 CG0
ATOM     15  G   UNL     1       9.910 -25.799  24.796  1.00  0.00     0.000 G0
ENDBRANCH  12  13
ENDBRANCH  10  12
ENDBRANCH   9  10
ENDBRANCH   4   9
BRANCH   5  16
ATOM     16  O   UNL     1       6.278 -18.257  21.807  1.00  0.00    -0.492 OA
BRANCH  16  17
ATOM     17  C   UNL     1       6.832 -17.309  20.893  1.00  0.00     0.245 C 
BRANCH  17  18
ATOM     18  C   UNL     1       8.110 -16.700  21.503  1.00  0.00     0.126 C 
BRANCH  18  19
ATOM     19  N   UNL     1       9.255 -17.625  21.534  1.00  0.00    -0.300 NA
ATOM     20  C   UNL     1       9.662 -17.944  22.904  1.00  0.00     0.084 C 
ATOM     21  C   UNL     1      10.459 -17.077  20.897  1.00  0.00     0.084 C 
ATOM     22  C   UNL     1      11.051 -18.543  22.730  1.00  0.00     0.017 C 
ATOM     23  C   UNL     1      11.557 -18.005  21.397  1.00  0.00     0.017 C 
ENDBRANCH  18  19
ENDBRANCH  17  18
ENDBRANCH  16  17
ENDBRANCH   5  16
ENDBRANCH   1   3
BRANCH   1  24
ATOM     24  C   UNL     1       3.731 -24.174  20.504  1.00  0.00     0.227 A 
ATOM     25  N   UNL     1       2.410 -24.391  20.420  1.00  0.00    -0.221 NA
ATOM     26  N   UNL     1       4.549 -24.945  21.227  1.00  0.00    -0.212 NA
ATOM     27  C   UNL     1       1.922 -25.470  21.068  1.00  0.00     0.117 A 
ATOM     28  C   UNL     1       4.027 -26.014  21.849  1.00  0.00     0.086 A 
ATOM     29  C   UNL     1       2.694 -26.335  21.803  1.00  0.00     0.050 A 
BRANCH  28  30
ATOM     30  C   UNL     1       5.008 -26.787  22.600  1.00  0.00     0.053 A 
ATOM     31  C   UNL     1       4.940 -28.109  22.989  1.00  0.00     0.022 A 
ATOM     32  S   UNL     1       6.427 -26.030  23.187  1.00  0.00    -0.136 S 
ATOM     33  C   UNL     1       6.050 -28.493  23.793  1.00  0.00     0.018 A 
ATOM     34  C   UNL     1       6.931 -27.449  24.004  1.00  0.00     0.031 A 
BRANCH  34  35
ATOM     35  C   UNL     1       8.191 -27.459  24.812  1.00  0.00     0.207 C 
BRANCH  35  36
ATOM     36  O   UNL     1       8.552 -26.107  25.090  1.00  0.00    -0.372 OA
BRANCH  36  37
ATOM     37  C   UNL     1       9.919 -25.807  24.818  1.00  0.00     0.188 CG0
ATOM     38  G   UNL     1      10.019 -24.355  24.470  1.00  0.00     0.000 G0
ENDBRANCH  36  37
ENDBRANCH  35  36
ENDBRANCH  34  35
ENDBRANCH  28  30
ENDBRANCH   1  24
TORSDOF 4
ENDMDL
MODEL 7
REMARK VINA RESULT:    -6.394      3.715      9.580
REMARK INTER + INTRA:         -13.002
REMARK INTER:                 -11.464
REMARK INTRA:                  -1.538
REMARK UNBOUND:                -1.375
REMARK SMILES CN1C/C=C/COCc2ccc(s2)-c2ccnc(n2)Nc2ccc(OCCN3CCCC3)c(c2)C1
REMARK SMILES IDX 20 1 21 3 33 4 24 5 34 6 23 7 22 8 35 9 2 10 1 11 3 12 4 13
REMARK SMILES IDX 5 14 25 16 26 17 27 18 28 19 29 20 32 21 30 22 31 23 18 24
REMARK SMILES IDX 17 25 19 26 16 27 14 28 15 29 12 30 11 31 13 32 10 33 9 34
REMARK SMILES IDX 8 35 7 36 6 37
REMARK H PARENT 20 2
REMARK Flexibility Score:  104.900
ROOT
ATOM      1  N   UNL     1       4.547 -20.517  19.204  1.00  0.00    -0.324 N 
ATOM      2  H   UNL     1       4.250 -20.814  18.290  1.00  0.00     0.170 HD
ENDROOT
BRANCH   1   3
ATOM      3  C   UNL     1       5.130 -21.468  20.051  1.00  0.00     0.041 A 
ATOM      4  C   UNL     1       7.103 -22.568  21.037  1.00  0.00     0.010 A 
ATOM      5  C   UNL     1       6.282 -23.525  21.644  1.00  0.00     0.124 A 
ATOM      6  C   UNL     1       6.508 -21.553  20.258  1.00  0.00     0.035 A 
ATOM      7  C   UNL     1       4.897 -23.440  21.468  1.00  0.00     0.049 A 
ATOM      8  C   UNL     1       4.331 -22.428  20.676  1.00  0.00     0.030 A 
BRANCH   4   9
ATOM      9  C   UNL     1       8.617 -22.573  21.152  1.00  0.00     0.124 C 
BRANCH   9  10
ATOM     10  N   UNL     1       9.202 -21.479  21.951  1.00  0.00    -0.298 NA
ATOM     11  C   UNL     1       9.655 -21.890  23.281  1.00  0.00     0.106 C 
BRANCH  10  12
ATOM     12  C   UNL     1      10.267 -20.778  21.221  1.00  0.00     0.111 C 
BRANCH  12  13
ATOM     13  C   UNL     1      10.007 -19.320  20.933  1.00  0.00    -0.014 C 
ATOM     14  C   UNL     1      10.966 -18.381  20.848  1.00  0.00    -0.002 CG0
ATOM     15  G   UNL     1      10.711 -16.938  20.546  1.00  0.00     0.000 G0
ENDBRANCH  12  13
ENDBRANCH  10  12
ENDBRANCH   9  10
ENDBRANCH   4   9
BRANCH   5  16
ATOM     16  O   UNL     1       6.915 -24.471  22.401  1.00  0.00    -0.492 OA
BRANCH  16  17
ATOM     17  C   UNL     1       6.134 -25.172  23.370  1.00  0.00     0.245 C 
BRANCH  17  18
ATOM     18  C   UNL     1       6.373 -26.687  23.219  1.00  0.00     0.126 C 
BRANCH  18  19
ATOM     19  N   UNL     1       5.136 -27.476  23.096  1.00  0.00    -0.300 NA
ATOM     20  C   UNL     1       5.402 -28.838  22.628  1.00  0.00     0.084 C 
ATOM     21  C   UNL     1       4.187 -26.919  22.123  1.00  0.00     0.084 C 
ATOM     22  C   UNL     1       4.032 -29.333  22.184  1.00  0.00     0.017 C 
ATOM     23  C   UNL     1       3.225 -28.074  21.889  1.00  0.00     0.017 C 
ENDBRANCH  18  19
ENDBRANCH  17  18
ENDBRANCH  16  17
ENDBRANCH   5  16
ENDBRANCH   1   3
BRANCH   1  24
ATOM     24  C   UNL     1       4.233 -19.175  19.411  1.00  0.00     0.227 A 
ATOM     25  N   UNL     1       2.934 -18.844  19.350  1.00  0.00    -0.221 NA
ATOM     26  N   UNL     1       5.200 -18.281  19.644  1.00  0.00    -0.212 NA
ATOM     27  C   UNL     1       2.617 -17.554  19.584  1.00  0.00     0.117 A 
ATOM     28  C   UNL     1       4.842 -17.008  19.880  1.00  0.00     0.086 A 
ATOM     29  C   UNL     1       3.540 -16.577  19.865  1.00  0.00     0.050 A 
BRANCH  28  30
ATOM     30  C   UNL     1       5.972 -16.123  20.129  1.00  0.00     0.053 A 
ATOM     31  C   UNL     1       6.199 -14.860  19.619  1.00  0.00     0.022 A 
ATOM     32  S   UNL     1       7.276 -16.651  21.104  1.00  0.00    -0.136 S 
ATOM     33  C   UNL     1       7.462 -14.337  20.015  1.00  0.00     0.018 A 
ATOM     34  C   UNL     1       8.170 -15.219  20.810  1.00  0.00     0.031 A 
BRANCH  34  35
ATOM     35  C   UNL     1       9.536 -15.037  21.394  1.00  0.00     0.207 C 
BRANCH  35  36
ATOM     36  O   UNL     1      10.082 -16.328  21.659  1.00  0.00    -0.372 OA
BRANCH  36  37
ATOM     37  C   UNL     1      10.728 -16.923  20.536  1.00  0.00     0.188 CG0
ATOM     38  G   UNL     1      10.954 -18.371  20.839  1.00  0.00     0.000 G0
ENDBRANCH  36  37
ENDBRANCH  35  36
ENDBRANCH  34  35
ENDBRANCH  28  30
ENDBRANCH   1  24
TORSDOF 4
ENDMDL
MODEL 8
REMARK VINA RESULT:    -6.221      4.056      9.904
REMARK INTER + INTRA:         -12.687
REMARK INTER:                 -11.353
REMARK INTRA:                  -1.334
REMARK UNBOUND:                -1.375
REMARK SMILES CN1C/C=C/COCc2ccc(s2)-c2ccnc(n2)Nc2ccc(OCCN3CCCC3)c(c2)C1
REMARK SMILES IDX 20 1 21 3 33 4 24 5 34 6 23 7 22 8 35 9 2 10 1 11 3 12 4 13
REMARK SMILES IDX 5 14 25 16 26 17 27 18 28 19 29 20 32 21 30 22 31 23 18 24
REMARK SMILES IDX 17 25 19 26 16 27 14 28 15 29 12 30 11 31 13 32 10 33 9 34
REMARK SMILES IDX 8 35 7 36 6 37
REMARK H PARENT 20 2
REMARK Flexibility Score:  104.900
ROOT
ATOM      1  N   UNL     1       3.963 -20.205  19.155  1.00  0.00    -0.324 N 
ATOM      2  H   UNL     1       3.382 -20.580  18.425  1.00  0.00     0.170 HD
ENDROOT
BRANCH   1   3
ATOM      3  C   UNL     1       4.808 -21.083  19.845  1.00  0.00     0.041 A 
ATOM      4  C   UNL     1       7.020 -21.706  20.733  1.00  0.00     0.010 A 
ATOM      5  C   UNL     1       6.535 -22.967  21.095  1.00  0.00     0.124 A 
ATOM      6  C   UNL     1       6.144 -20.785  20.122  1.00  0.00     0.035 A 
ATOM      7  C   UNL     1       5.192 -23.273  20.848  1.00  0.00     0.049 A 
ATOM      8  C   UNL     1       4.343 -22.344  20.224  1.00  0.00     0.030 A 
BRANCH   4   9
ATOM      9  C   UNL     1       8.461 -21.274  20.944  1.00  0.00     0.124 C 
BRANCH   9  10
ATOM     10  N   UNL     1       8.648 -19.953  21.574  1.00  0.00    -0.298 NA
ATOM     11  C   UNL     1       8.351 -19.928  23.007  1.00  0.00     0.106 C 
BRANCH  10  12
ATOM     12  C   UNL     1       9.981 -19.401  21.298  1.00  0.00     0.111 C 
BRANCH  12  13
ATOM     13  C   UNL     1      10.003 -17.991  20.760  1.00  0.00    -0.014 C 
ATOM     14  C   UNL     1      11.106 -17.226  20.683  1.00  0.00    -0.002 CG0
ATOM     15  G   UNL     1      11.133 -15.835  20.132  1.00  0.00     0.000 G0
ENDBRANCH  12  13
ENDBRANCH  10  12
ENDBRANCH   9  10
ENDBRANCH   4   9
BRANCH   5  16
ATOM     16  O   UNL     1       7.427 -23.808  21.700  1.00  0.00    -0.492 OA
BRANCH  16  17
ATOM     17  C   UNL     1       7.178 -24.167  23.060  1.00  0.00     0.245 C 
BRANCH  17  18
ATOM     18  C   UNL     1       7.518 -25.655  23.266  1.00  0.00     0.126 C 
BRANCH  18  19
ATOM     19  N   UNL     1       6.354 -26.492  23.599  1.00  0.00    -0.300 NA
ATOM     20  C   UNL     1       6.686 -27.918  23.589  1.00  0.00     0.084 C 
ATOM     21  C   UNL     1       5.248 -26.353  22.644  1.00  0.00     0.084 C 
ATOM     22  C   UNL     1       5.325 -28.598  23.543  1.00  0.00     0.017 C 
ATOM     23  C   UNL     1       4.375 -27.559  22.959  1.00  0.00     0.017 C 
ENDBRANCH  18  19
ENDBRANCH  17  18
ENDBRANCH  16  17
ENDBRANCH   5  16
ENDBRANCH   1   3
BRANCH   1  24
ATOM     24  C   UNL     1       3.717 -18.844  19.328  1.00  0.00     0.227 A 
ATOM     25  N   UNL     1       2.464 -18.496  19.659  1.00  0.00    -0.221 NA
ATOM     26  N   UNL     1       4.696 -17.950  19.154  1.00  0.00    -0.212 NA
ATOM     27  C   UNL     1       2.223 -17.184  19.863  1.00  0.00     0.117 A 
ATOM     28  C   UNL     1       4.419 -16.655  19.375  1.00  0.00     0.086 A 
ATOM     29  C   UNL     1       3.177 -16.203  19.741  1.00  0.00     0.050 A 
BRANCH  28  30
ATOM     30  C   UNL     1       5.558 -15.772  19.164  1.00  0.00     0.053 A 
ATOM     31  C   UNL     1       5.586 -14.546  18.532  1.00  0.00     0.022 A 
ATOM     32  S   UNL     1       7.123 -16.260  19.660  1.00  0.00    -0.136 S 
ATOM     33  C   UNL     1       6.904 -14.018  18.435  1.00  0.00     0.018 A 
ATOM     34  C   UNL     1       7.849 -14.860  18.988  1.00  0.00     0.031 A 
BRANCH  34  35
ATOM     35  C   UNL     1       9.331 -14.663  19.053  1.00  0.00     0.207 C 
BRANCH  35  36
ATOM     36  O   UNL     1       9.812 -15.286  20.242  1.00  0.00    -0.372 OA
BRANCH  36  37
ATOM     37  C   UNL     1      11.124 -15.830  20.120  1.00  0.00     0.188 CG0
ATOM     38  G   UNL     1      11.108 -17.221  20.670  1.00  0.00     0.000 G0
ENDBRANCH  36  37
ENDBRANCH  35  36
ENDBRANCH  34  35
ENDBRANCH  28  30
ENDBRANCH   1  24
TORSDOF 4
ENDMDL
MODEL 9
REMARK VINA RESULT:    -6.046      4.168      7.124
REMARK INTER + INTRA:         -12.369
REMARK INTER:                 -11.200
REMARK INTRA:                  -1.170
REMARK UNBOUND:                -1.375
REMARK SMILES CN1C/C=C/COCc2ccc(s2)-c2ccnc(n2)Nc2ccc(OCCN3CCCC3)c(c2)C1
REMARK SMILES IDX 20 1 21 3 33 4 24 5 34 6 23 7 22 8 35 9 2 10 1 11 3 12 4 13
REMARK SMILES IDX 5 14 25 16 26 17 27 18 28 19 29 20 32 21 30 22 31 23 18 24
REMARK SMILES IDX 17 25 19 26 16 27 14 28 15 29 12 30 11 31 13 32 10 33 9 34
REMARK SMILES IDX 8 35 7 36 6 37
REMARK H PARENT 20 2
REMARK Flexibility Score:  104.900
ROOT
ATOM      1  N   UNL     1       3.661 -21.730  20.370  1.00  0.00    -0.324 N 
ATOM      2  H   UNL     1       3.010 -22.342  19.908  1.00  0.00     0.170 HD
ENDROOT
BRANCH   1   3
ATOM      3  C   UNL     1       3.386 -20.357  20.378  1.00  0.00     0.041 A 
ATOM      4  C   UNL     1       3.729 -18.077  19.509  1.00  0.00     0.010 A 
ATOM      5  C   UNL     1       2.940 -17.551  20.538  1.00  0.00     0.124 A 
ATOM      6  C   UNL     1       3.930 -19.472  19.445  1.00  0.00     0.035 A 
ATOM      7  C   UNL     1       2.367 -18.427  21.467  1.00  0.00     0.049 A 
ATOM      8  C   UNL     1       2.595 -19.811  21.391  1.00  0.00     0.030 A 
BRANCH   4   9
ATOM      9  C   UNL     1       4.407 -17.218  18.456  1.00  0.00     0.124 C 
BRANCH   9  10
ATOM     10  N   UNL     1       5.670 -16.576  18.869  1.00  0.00    -0.298 NA
ATOM     11  C   UNL     1       5.685 -15.123  18.697  1.00  0.00     0.106 C 
BRANCH  10  12
ATOM     12  C   UNL     1       6.052 -16.953  20.237  1.00  0.00     0.111 C 
BRANCH  12  13
ATOM     13  C   UNL     1       7.531 -17.129  20.475  1.00  0.00    -0.014 C 
ATOM     14  C   UNL     1       8.126 -17.015  21.676  1.00  0.00    -0.002 CG0
ATOM     15  G   UNL     1       9.590 -17.207  21.916  1.00  0.00     0.000 G0
ENDBRANCH  12  13
ENDBRANCH  10  12
ENDBRANCH   9  10
ENDBRANCH   4   9
BRANCH   5  16
ATOM     16  O   UNL     1       2.768 -16.195  20.536  1.00  0.00    -0.492 OA
BRANCH  16  17
ATOM     17  C   UNL     1       1.448 -15.698  20.308  1.00  0.00     0.245 C 
BRANCH  17  18
ATOM     18  C   UNL     1       0.903 -16.284  18.991  1.00  0.00     0.126 C 
BRANCH  18  19
ATOM     19  N   UNL     1      -0.564 -16.395  18.950  1.00  0.00    -0.300 NA
ATOM     20  C   UNL     1      -1.128 -15.750  17.762  1.00  0.00     0.084 C 
ATOM     21  C   UNL     1      -1.227 -15.744  20.086  1.00  0.00     0.084 C 
ATOM     22  C   UNL     1      -2.605 -15.612  18.101  1.00  0.00     0.017 C 
ATOM     23  C   UNL     1      -2.673 -15.645  19.624  1.00  0.00     0.017 C 
ENDBRANCH  18  19
ENDBRANCH  17  18
ENDBRANCH  16  17
ENDBRANCH   5  16
ENDBRANCH   1   3
BRANCH   1  24
ATOM     24  C   UNL     1       4.749 -22.450  20.861  1.00  0.00     0.227 A 
ATOM     25  N   UNL     1       4.564 -23.765  21.050  1.00  0.00    -0.221 NA
ATOM     26  N   UNL     1       5.903 -21.833  21.133  1.00  0.00    -0.212 NA
ATOM     27  C   UNL     1       5.622 -24.478  21.491  1.00  0.00     0.117 A 
ATOM     28  C   UNL     1       6.935 -22.578  21.561  1.00  0.00     0.086 A 
ATOM     29  C   UNL     1       6.852 -23.933  21.761  1.00  0.00     0.050 A 
BRANCH  28  30
ATOM     30  C   UNL     1       8.143 -21.807  21.819  1.00  0.00     0.053 A 
ATOM     31  C   UNL     1       8.906 -21.769  22.969  1.00  0.00     0.022 A 
ATOM     32  S   UNL     1       8.733 -20.719  20.636  1.00  0.00    -0.136 S 
ATOM     33  C   UNL     1       9.966 -20.823  22.882  1.00  0.00     0.018 A 
ATOM     34  C   UNL     1       9.978 -20.157  21.671  1.00  0.00     0.031 A 
BRANCH  34  35
ATOM     35  C   UNL     1      10.918 -19.082  21.223  1.00  0.00     0.207 C 
BRANCH  35  36
ATOM     36  O   UNL     1      10.143 -17.951  20.829  1.00  0.00    -0.372 OA
BRANCH  36  37
ATOM     37  C   UNL     1       9.591 -17.220  21.922  1.00  0.00     0.188 CG0
ATOM     38  G   UNL     1       8.127 -17.037  21.670  1.00  0.00     0.000 G0
ENDBRANCH  36  37
ENDBRANCH  35  36
ENDBRANCH  34  35
ENDBRANCH  28  30
ENDBRANCH   1  24
TORSDOF 4
ENDMDL
