REMARK SMILES CNC(=O)c1n[nH]c2nc(-c3cc(F)c(O)cc3CC(F)(F)F)nc(NCc3nccnc3N(C)S(C)(=O)=O)c12
REMARK SMILES IDX 26 1 25 3 5 4 6 5 40 6 7 7 8 8 24 9 9 10 10 11 3 13 2 14
REMARK SMILES IDX 4 15 1 16 11 18 12 19 18 20 13 21 17 22 15 23 14 24 19 25
REMARK SMILES IDX 20 26 21 27 22 28 23 29 16 30 27 32 28 33 29 34 33 35 30 36
REMARK SMILES IDX 32 37 31 38 34 39 35 40 36 41 38 42 39 43 37 44
REMARK H PARENT 26 2 7 12 2 17 16 31
REMARK INDEX MAP 26 1 51 2 25 3 5 4 6 5 40 6 7 7 8 8 24 9 9 10 10 11 45 12
REMARK INDEX MAP 3 13 2 14 4 15 1 16 44 17 11 18 12 19 18 20 13 21 17 22 15 23
REMARK INDEX MAP 14 24 19 25 20 26 21 27 22 28 23 29 16 30 47 31 27 32 28 33
REMARK INDEX MAP 29 34 33 35 30 36 32 37 31 38 34 39 35 40 36 41 38 42 39 43
REMARK INDEX MAP 37 44
ROOT
ATOM      1  N   UNL     1     -10.061  17.488  20.389  1.00  0.00    -0.364 N 
ATOM      2  H   UNL     1      -9.483  17.697  21.215  1.00  0.00     0.162 HD
ENDROOT
BRANCH   1   3
ATOM      3  C   UNL     1     -10.390  16.180  20.136  1.00  0.00     0.142 A 
ATOM      4  C   UNL     1      -8.004  15.069  19.887  1.00  0.00     0.163 A 
ATOM      5  N   UNL     1      -7.615  13.789  19.668  1.00  0.00    -0.168 NA
ATOM      6  C   UNL     1      -9.424  15.184  19.942  1.00  0.00     0.094 A 
ATOM      7  N   UNL     1      -8.781  13.118  19.579  1.00  0.00    -0.260 N 
ATOM      8  C   UNL     1      -9.883  13.900  19.736  1.00  0.00     0.162 A 
ATOM      9  N   UNL     1     -11.691  15.801  20.087  1.00  0.00    -0.210 NA
ATOM     10  N   UNL     1     -11.156  13.486  19.696  1.00  0.00    -0.209 NA
ATOM     11  C   UNL     1     -12.016  14.510  19.864  1.00  0.00     0.164 A 
ATOM     12  H   UNL     1      -8.833  12.104  19.407  1.00  0.00     0.192 HD
BRANCH   4  13
ATOM     13  C   UNL     1      -7.014  16.149  20.028  1.00  0.00     0.272 C 
ATOM     14  N   UNL     1      -5.975  16.054  19.131  1.00  0.00    -0.354 N 
ATOM     15  O   UNL     1      -7.113  17.052  20.855  1.00  0.00    -0.267 OA
ATOM     16  C   UNL     1      -4.904  17.008  19.074  1.00  0.00     0.143 C 
ATOM     17  H   UNL     1      -5.965  15.263  18.471  1.00  0.00     0.163 HD
ENDBRANCH   4  13
BRANCH  11  18
ATOM     18  C   UNL     1     -13.454  14.171  19.848  1.00  0.00     0.026 A 
ATOM     19  C   UNL     1     -14.379  15.223  19.653  1.00  0.00     0.055 A 
ATOM     20  C   UNL     1     -13.967  12.853  20.013  1.00  0.00    -0.024 A 
ATOM     21  C   UNL     1     -15.746  14.978  19.608  1.00  0.00     0.165 A 
ATOM     22  C   UNL     1     -15.362  12.635  19.965  1.00  0.00     0.054 A 
ATOM     23  C   UNL     1     -16.236  13.693  19.761  1.00  0.00     0.151 A 
ATOM     24  F   UNL     1     -16.600  15.993  19.411  1.00  0.00    -0.203 F 
BRANCH  20  25
ATOM     25  C   UNL     1     -13.088  11.641  20.287  1.00  0.00     0.151 C 
BRANCH  25  26
ATOM     26  C   UNL     1     -12.897  10.728  19.088  1.00  0.00     0.393 C 
ATOM     27  F   UNL     1     -12.024   9.730  19.372  1.00  0.00    -0.171 F 
ATOM     28  F   UNL     1     -14.046  10.153  18.673  1.00  0.00    -0.171 F 
ATOM     29  F   UNL     1     -12.376  11.403  18.035  1.00  0.00    -0.171 F 
ENDBRANCH  25  26
ENDBRANCH  20  25
BRANCH  23  30
ATOM     30  O   UNL     1     -17.575  13.438  19.718  1.00  0.00    -0.505 OA
ATOM     31  H   UNL     1     -17.906  12.512  19.830  1.00  0.00     0.293 HD
ENDBRANCH  23  30
ENDBRANCH  11  18
ENDBRANCH   1   3
BRANCH   1  32
ATOM     32  C   UNL     1     -10.489  18.591  19.547  1.00  0.00     0.175 C 
BRANCH  32  33
ATOM     33  C   UNL     1     -10.991  19.751  20.378  1.00  0.00     0.103 A 
ATOM     34  N   UNL     1     -10.089  20.712  20.741  1.00  0.00    -0.254 NA
ATOM     35  C   UNL     1     -12.316  19.807  20.828  1.00  0.00     0.165 A 
ATOM     36  C   UNL     1     -10.556  21.696  21.542  1.00  0.00     0.131 A 
ATOM     37  N   UNL     1     -12.782  20.802  21.622  1.00  0.00    -0.235 NA
ATOM     38  C   UNL     1     -11.870  21.736  21.972  1.00  0.00     0.133 A 
BRANCH  35  39
ATOM     39  N   UNL     1     -13.307  18.864  20.434  1.00  0.00    -0.256 N 
ATOM     40  C   UNL     1     -14.196  18.382  21.504  1.00  0.00     0.165 C 
BRANCH  39  41
ATOM     41  S   UNL     1     -14.000  19.169  18.928  1.00  0.00     0.233 S 
ATOM     42  O   UNL     1     -13.631  20.506  18.506  1.00  0.00    -0.207 OA
ATOM     43  O   UNL     1     -13.713  18.032  18.076  1.00  0.00    -0.207 OA
ATOM     44  C   UNL     1     -15.757  19.158  19.243  1.00  0.00     0.183 C 
ENDBRANCH  39  41
ENDBRANCH  35  39
ENDBRANCH  32  33
ENDBRANCH   1  32
TORSDOF 10
