REMARK SMILES N#CCC1(n2ccc(-c3nc(-c4ncc[nH]4)cc4ncccc34)n2)CN(CC(F)(F)F)C1
REMARK SMILES IDX 5 1 6 2 7 3 8 4 24 5 4 6 25 7 32 8 26 9 3 10 1 11 2 12 27 13
REMARK SMILES IDX 28 14 29 15 30 16 31 17 9 18 10 19 23 20 11 21 22 22 18 23
REMARK SMILES IDX 17 24 21 25 19 26 20 27 12 28 13 29 16 30 14 31 15 32
REMARK H PARENT 16 33
REMARK INDEX MAP 5 1 6 2 7 3 8 4 24 5 4 6 25 7 32 8 26 9 3 10 1 11 2 12 27 13
REMARK INDEX MAP 28 14 29 15 30 16 31 17 9 18 10 19 23 20 11 21 22 22 18 23
REMARK INDEX MAP 17 24 21 25 19 26 20 27 12 28 13 29 16 30 14 31 15 32 39 33
ROOT
ATOM      1  N   UNL     1       5.886 -21.457  21.538  1.00  0.00    -0.262 N 
ATOM      2  C   UNL     1       6.464 -21.859  20.369  1.00  0.00     0.110 A 
ATOM      3  C   UNL     1       6.515 -23.230  20.434  1.00  0.00     0.052 A 
ATOM      4  C   UNL     1       5.892 -23.583  21.666  1.00  0.00     0.111 A 
ATOM      5  N   UNL     1       5.501 -22.476  22.324  1.00  0.00    -0.171 NA
ENDROOT
BRANCH   1   6
ATOM      6  C   UNL     1       5.603 -20.052  21.915  1.00  0.00     0.101 C 
ATOM      7  C   UNL     1       4.837 -19.317  20.772  1.00  0.00     0.118 C 
ATOM      8  C   UNL     1       4.273 -19.861  22.700  1.00  0.00     0.118 C 
ATOM      9  N   UNL     1       4.002 -18.685  21.831  1.00  0.00    -0.290 NA
BRANCH   6  10
ATOM     10  C   UNL     1       6.854 -19.334  22.412  1.00  0.00     0.153 C 
ATOM     11  N   UNL     1       8.161 -18.259  20.403  1.00  0.00    -0.198 NA
ATOM     12  C   UNL     1       7.598 -18.727  21.302  1.00  0.00     0.065 C 
ENDBRANCH   6  10
BRANCH   9  13
ATOM     13  C   UNL     1       2.578 -18.647  21.417  1.00  0.00     0.200 C 
BRANCH  13  14
ATOM     14  C   UNL     1       2.107 -17.321  20.795  1.00  0.00     0.401 C 
ATOM     15  F   UNL     1       2.495 -16.256  21.537  1.00  0.00    -0.170 F 
ATOM     16  F   UNL     1       0.752 -17.290  20.728  1.00  0.00    -0.170 F 
ATOM     17  F   UNL     1       2.581 -17.155  19.540  1.00  0.00    -0.170 F 
ENDBRANCH  13  14
ENDBRANCH   9  13
ENDBRANCH   1   6
BRANCH   4  18
ATOM     18  C   UNL     1       5.723 -24.945  22.197  1.00  0.00     0.101 A 
ATOM     19  N   UNL     1       6.750 -25.337  22.998  1.00  0.00    -0.242 NA
ATOM     20  C   UNL     1       4.603 -25.761  21.905  1.00  0.00     0.028 A 
ATOM     21  C   UNL     1       6.660 -26.563  23.557  1.00  0.00     0.109 A 
ATOM     22  C   UNL     1       3.525 -25.442  21.040  1.00  0.00     0.014 A 
ATOM     23  C   UNL     1       4.561 -27.027  22.517  1.00  0.00     0.075 A 
ATOM     24  C   UNL     1       5.594 -27.416  23.344  1.00  0.00     0.061 A 
ATOM     25  C   UNL     1       2.484 -26.341  20.839  1.00  0.00     0.021 A 
ATOM     26  N   UNL     1       3.553 -27.895  22.328  1.00  0.00    -0.256 NA
ATOM     27  C   UNL     1       2.542 -27.545  21.504  1.00  0.00     0.112 A 
BRANCH  21  28
ATOM     28  C   UNL     1       7.779 -26.938  24.417  1.00  0.00     0.156 A 
ATOM     29  N   UNL     1       8.747 -26.162  24.873  1.00  0.00    -0.235 NA
ATOM     30  N   UNL     1       7.951 -28.225  24.877  1.00  0.00    -0.343 N 
ATOM     31  C   UNL     1       9.549 -26.968  25.640  1.00  0.00     0.131 A 
ATOM     32  C   UNL     1       9.074 -28.257  25.655  1.00  0.00     0.104 A 
ATOM     33  H   UNL     1       7.338 -29.026  24.670  1.00  0.00     0.168 HD
ENDBRANCH  21  28
ENDBRANCH   4  18
TORSDOF 6
