MODEL 8
REMARK VINA RESULT:    -8.191      4.429      6.296
REMARK INTER + INTRA:          -8.733
REMARK INTER:                  -8.342
REMARK INTRA:                  -0.391
REMARK UNBOUND:                 0.895
REMARK SMILES CC(C)n1nc(-c2ccc3oc(N)nc3c2)c2c(N)ncnc21
REMARK SMILES IDX 4 1 5 2 6 3 17 4 18 5 20 6 21 7 22 8 23 9 2 10 1 11 3 12
REMARK SMILES IDX 7 13 16 14 8 15 15 16 9 17 10 18 14 19 11 20 12 21 13 22
REMARK SMILES IDX 19 25
REMARK H PARENT 13 23 13 24 19 26 19 27
ROOT
ATOM      1  N   UNL     1      50.172  -0.038 -49.095  1.00  0.00    -0.244 N 
ATOM      2  N   UNL     1      49.645  -0.631 -48.000  1.00  0.00    -0.170 NA
ATOM      3  C   UNL     1      48.824  -1.579 -48.393  1.00  0.00     0.106 A 
ATOM      4  C   UNL     1      48.758  -1.606 -49.831  1.00  0.00     0.089 A 
ATOM      5  C   UNL     1      48.087  -2.290 -50.868  1.00  0.00     0.138 A 
ATOM      6  N   UNL     1      48.334  -1.996 -52.171  1.00  0.00    -0.219 NA
ATOM      7  C   UNL     1      49.238  -1.014 -52.423  1.00  0.00     0.226 A 
ATOM      8  N   UNL     1      49.933  -0.271 -51.521  1.00  0.00    -0.217 NA
ATOM      9  C   UNL     1      49.660  -0.597 -50.250  1.00  0.00     0.164 A 
ENDROOT
BRANCH   1  10
ATOM     10  C   UNL     1      51.135   1.062 -48.951  1.00  0.00     0.103 C 
ATOM     11  C   UNL     1      50.555   2.368 -49.530  1.00  0.00     0.033 C 
ATOM     12  C   UNL     1      52.483   0.681 -49.595  1.00  0.00     0.033 C 
ENDBRANCH   1  10
BRANCH   3  13
ATOM     13  C   UNL     1      48.124  -2.442 -47.393  1.00  0.00     0.005 A 
ATOM     14  C   UNL     1      48.816  -3.494 -46.770  1.00  0.00     0.043 A 
ATOM     15  C   UNL     1      46.770  -2.207 -47.099  1.00  0.00     0.014 A 
ATOM     16  C   UNL     1      48.125  -4.300 -45.854  1.00  0.00     0.112 A 
ATOM     17  C   UNL     1      46.061  -2.996 -46.190  1.00  0.00     0.050 A 
ATOM     18  C   UNL     1      46.773  -4.035 -45.587  1.00  0.00     0.156 A 
ATOM     19  N   UNL     1      48.535  -5.371 -45.110  1.00  0.00    -0.194 NA
ATOM     20  O   UNL     1      46.342  -4.949 -44.676  1.00  0.00    -0.424 OA
ATOM     21  C   UNL     1      47.452  -5.708 -44.444  1.00  0.00     0.292 A 
BRANCH  21  22
ATOM     22  N   UNL     1      47.321  -6.728 -43.549  1.00  0.00    -0.353 N 
ATOM     23  H   UNL     1      47.154  -7.675 -43.854  1.00  0.00     0.161 HD
ATOM     24  H   UNL     1      47.390  -6.571 -42.555  1.00  0.00     0.161 HD
ENDBRANCH  21  22
ENDBRANCH   3  13
BRANCH   5  25
ATOM     25  N   UNL     1      47.131  -3.269 -50.615  1.00  0.00    -0.383 N 
ATOM     26  H   UNL     1      46.227  -3.207 -51.060  1.00  0.00     0.158 HD
ATOM     27  H   UNL     1      47.358  -4.031 -49.993  1.00  0.00     0.158 HD
ENDBRANCH   5  25
TORSDOF 4
ENDMDL
