MODEL 1
REMARK VINA RESULT:    -7.428      0.000      0.000
REMARK INTER + INTRA:         -11.244
REMARK INTER:                 -10.685
REMARK INTRA:                  -0.558
REMARK UNBOUND:                -0.558
REMARK SMILES CO[C@H](c1ccc(Br)cc1)[C@@H]1C[C@@H]1c1cc(C)c(OC(C)(C)C(=O)O)c(C)c1
REMARK SMILES IDX 14 1 15 2 16 3 17 4 18 5 26 6 27 7 28 8 13 9 11 10 12 11
REMARK SMILES IDX 3 12 2 13 1 14 4 15 5 16 10 17 6 18 9 19 7 20 8 21 19 22
REMARK SMILES IDX 20 23 21 24 22 25 23 26 24 27 25 28
REMARK H PARENT 25 29
ROOT
ATOM      1  C   UNL     1      10.468  10.260 -10.782  1.00  0.00    -0.044 A 
ATOM      2  C   UNL     1       9.758   9.317 -10.023  1.00  0.00     0.011 A 
ATOM      3  C   UNL     1       9.818   9.278  -8.620  1.00  0.00    -0.008 A 
ATOM      4  C   UNL     1       9.062   8.200  -7.902  1.00  0.00     0.048 C 
ATOM      5  C   UNL     1      10.558  10.260  -7.947  1.00  0.00     0.126 A 
ATOM      6  C   UNL     1      11.329  11.181  -8.672  1.00  0.00    -0.008 A 
ATOM      7  C   UNL     1      12.223  12.186  -8.005  1.00  0.00     0.048 C 
ATOM      8  C   UNL     1      11.241  11.191 -10.075  1.00  0.00     0.011 A 
ENDROOT
BRANCH   1   9
ATOM      9  C   UNL     1      10.358  10.248 -12.288  1.00  0.00     0.026 C 
ATOM     10  C   UNL     1      11.147   9.250 -13.124  1.00  0.00     0.031 C 
ATOM     11  C   UNL     1      11.465  10.722 -13.197  1.00  0.00     0.016 C 
BRANCH  10  12
ATOM     12  C   UNL     1      12.203   8.315 -12.585  1.00  0.00     0.151 C 
BRANCH  12  13
ATOM     13  O   UNL     1      13.057   7.972 -13.684  1.00  0.00    -0.376 OA
ATOM     14  C   UNL     1      14.429   8.208 -13.405  1.00  0.00     0.195 C 
ENDBRANCH  12  13
BRANCH  12  15
ATOM     15  C   UNL     1      11.578   7.051 -12.018  1.00  0.00    -0.019 A 
ATOM     16  C   UNL     1      12.317   6.229 -11.151  1.00  0.00     0.007 A 
ATOM     17  C   UNL     1      10.270   6.667 -12.355  1.00  0.00     0.007 A 
ATOM     18  C   UNL     1      11.756   5.066 -10.619  1.00  0.00     0.016 A 
ATOM     19  C   UNL     1       9.708   5.504 -11.825  1.00  0.00     0.016 A 
ATOM     20  C   UNL     1      10.453   4.711 -10.956  1.00  0.00     0.017 A 
ATOM     21  Br  UNL     1       9.692   3.140 -10.231  1.00  0.00    -0.051 Br
ENDBRANCH  12  15
ENDBRANCH  10  12
ENDBRANCH   1   9
BRANCH   5  22
ATOM     22  O   UNL     1      10.597  10.257  -6.577  1.00  0.00    -0.476 OA
BRANCH  22  23
ATOM     23  C   UNL     1       9.677  11.157  -5.931  1.00  0.00     0.200 C 
ATOM     24  C   UNL     1      10.476  11.927  -4.860  1.00  0.00     0.069 C 
ATOM     25  C   UNL     1       9.271  12.203  -6.987  1.00  0.00     0.069 C 
BRANCH  23  26
ATOM     26  C   UNL     1       8.374  10.598  -5.301  1.00  0.00     0.347 C 
ATOM     27  O   UNL     1       7.402  10.161  -5.902  1.00  0.00    -0.248 OA
BRANCH  26  28
ATOM     28  O   UNL     1       8.371  10.593  -3.951  1.00  0.00    -0.478 OA
ATOM     29  H   UNL     1       9.207  11.049  -3.715  1.00  0.00     0.296 HD
ENDBRANCH  26  28
ENDBRANCH  23  26
ENDBRANCH  22  23
ENDBRANCH   5  22
TORSDOF 8
ENDMDL
MODEL 2
REMARK VINA RESULT:    -6.771      0.120      1.641
REMARK INTER + INTRA:         -10.298
REMARK INTER:                 -10.580
REMARK INTRA:                   0.281
REMARK UNBOUND:                -0.558
REMARK SMILES CO[C@H](c1ccc(Br)cc1)[C@@H]1C[C@@H]1c1cc(C)c(OC(C)(C)C(=O)O)c(C)c1
REMARK SMILES IDX 14 1 15 2 16 3 17 4 18 5 26 6 27 7 28 8 13 9 11 10 12 11
REMARK SMILES IDX 3 12 2 13 1 14 4 15 5 16 10 17 6 18 9 19 7 20 8 21 19 22
REMARK SMILES IDX 20 23 21 24 22 25 23 26 24 27 25 28
REMARK H PARENT 25 29
ROOT
ATOM      1  C   UNL     1      10.450  10.192 -10.862  1.00  0.00    -0.044 A 
ATOM      2  C   UNL     1      11.191  11.160 -10.168  1.00  0.00     0.011 A 
ATOM      3  C   UNL     1      11.234  11.216  -8.765  1.00  0.00    -0.008 A 
ATOM      4  C   UNL     1      12.017  12.320  -8.117  1.00  0.00     0.048 C 
ATOM      5  C   UNL     1      10.569  10.226  -8.028  1.00  0.00     0.126 A 
ATOM      6  C   UNL     1       9.768   9.278  -8.684  1.00  0.00    -0.008 A 
ATOM      7  C   UNL     1       8.950   8.263  -7.941  1.00  0.00     0.048 C 
ATOM      8  C   UNL     1       9.752   9.253 -10.090  1.00  0.00     0.011 A 
ENDROOT
BRANCH   1   9
ATOM      9  C   UNL     1      10.447  10.187 -12.372  1.00  0.00     0.026 C 
ATOM     10  C   UNL     1      11.297   9.197 -13.155  1.00  0.00     0.031 C 
ATOM     11  C   UNL     1      11.613  10.670 -13.199  1.00  0.00     0.016 C 
BRANCH  10  12
ATOM     12  C   UNL     1      12.315   8.262 -12.548  1.00  0.00     0.151 C 
BRANCH  12  13
ATOM     13  O   UNL     1      13.223   7.897 -13.596  1.00  0.00    -0.376 OA
ATOM     14  C   UNL     1      14.566   8.258 -13.306  1.00  0.00     0.195 C 
ENDBRANCH  12  13
BRANCH  12  15
ATOM     15  C   UNL     1      11.651   7.012 -11.996  1.00  0.00    -0.019 A 
ATOM     16  C   UNL     1      12.360   6.164 -11.130  1.00  0.00     0.007 A 
ATOM     17  C   UNL     1      10.336   6.666 -12.348  1.00  0.00     0.007 A 
ATOM     18  C   UNL     1      11.764   5.012 -10.611  1.00  0.00     0.016 A 
ATOM     19  C   UNL     1       9.739   5.513 -11.832  1.00  0.00     0.016 A 
ATOM     20  C   UNL     1      10.455   4.694 -10.963  1.00  0.00     0.017 A 
ATOM     21  Br  UNL     1       9.645   3.139 -10.257  1.00  0.00    -0.051 Br
ENDBRANCH  12  15
ENDBRANCH  10  12
ENDBRANCH   1   9
BRANCH   5  22
ATOM     22  O   UNL     1      10.632  10.245  -6.659  1.00  0.00    -0.476 OA
BRANCH  22  23
ATOM     23  C   UNL     1       9.718  11.151  -6.012  1.00  0.00     0.200 C 
ATOM     24  C   UNL     1      10.522  11.913  -4.939  1.00  0.00     0.069 C 
ATOM     25  C   UNL     1       9.322  12.202  -7.067  1.00  0.00     0.069 C 
BRANCH  23  26
ATOM     26  C   UNL     1       8.410  10.601  -5.385  1.00  0.00     0.347 C 
ATOM     27  O   UNL     1       7.438  10.167  -5.988  1.00  0.00    -0.248 OA
BRANCH  26  28
ATOM     28  O   UNL     1       8.403  10.599  -4.035  1.00  0.00    -0.478 OA
ATOM     29  H   UNL     1       7.874  11.392  -3.804  1.00  0.00     0.296 HD
ENDBRANCH  26  28
ENDBRANCH  23  26
ENDBRANCH  22  23
ENDBRANCH   5  22
TORSDOF 8
ENDMDL
MODEL 3
REMARK VINA RESULT:    -6.112      1.590      2.670
REMARK INTER + INTRA:          -9.351
REMARK INTER:                  -9.162
REMARK INTRA:                  -0.189
REMARK UNBOUND:                -0.558
REMARK SMILES CO[C@H](c1ccc(Br)cc1)[C@@H]1C[C@@H]1c1cc(C)c(OC(C)(C)C(=O)O)c(C)c1
REMARK SMILES IDX 14 1 15 2 16 3 17 4 18 5 26 6 27 7 28 8 13 9 11 10 12 11
REMARK SMILES IDX 3 12 2 13 1 14 4 15 5 16 10 17 6 18 9 19 7 20 8 21 19 22
REMARK SMILES IDX 20 23 21 24 22 25 23 26 24 27 25 28
REMARK H PARENT 25 29
ROOT
ATOM      1  C   UNL     1      10.238  10.676 -11.764  1.00  0.00    -0.044 A 
ATOM      2  C   UNL     1      10.126  12.017 -11.365  1.00  0.00     0.011 A 
ATOM      3  C   UNL     1       9.992  12.394 -10.018  1.00  0.00    -0.008 A 
ATOM      4  C   UNL     1       9.830  13.850  -9.697  1.00  0.00     0.048 C 
ATOM      5  C   UNL     1      10.043  11.401  -9.029  1.00  0.00     0.126 A 
ATOM      6  C   UNL     1      10.092  10.047  -9.392  1.00  0.00    -0.008 A 
ATOM      7  C   UNL     1      10.040   8.939  -8.381  1.00  0.00     0.048 C 
ATOM      8  C   UNL     1      10.228   9.708 -10.750  1.00  0.00     0.011 A 
ENDROOT
BRANCH   1   9
ATOM      9  C   UNL     1      10.381  10.338 -13.229  1.00  0.00     0.026 C 
ATOM     10  C   UNL     1      11.326   9.240 -13.693  1.00  0.00     0.031 C 
ATOM     11  C   UNL     1      11.608  10.680 -14.037  1.00  0.00     0.016 C 
BRANCH  10  12
ATOM     12  C   UNL     1      12.305   8.510 -12.804  1.00  0.00     0.151 C 
BRANCH  12  13
ATOM     13  O   UNL     1      13.415   8.133 -13.629  1.00  0.00    -0.376 OA
ATOM     14  C   UNL     1      14.657   8.603 -13.123  1.00  0.00     0.195 C 
ENDBRANCH  12  13
BRANCH  12  15
ATOM     15  C   UNL     1      11.676   7.264 -12.203  1.00  0.00    -0.019 A 
ATOM     16  C   UNL     1      12.398   6.486 -11.284  1.00  0.00     0.007 A 
ATOM     17  C   UNL     1      10.381   6.853 -12.561  1.00  0.00     0.007 A 
ATOM     18  C   UNL     1      11.834   5.339 -10.720  1.00  0.00     0.016 A 
ATOM     19  C   UNL     1       9.817   5.706 -12.000  1.00  0.00     0.016 A 
ATOM     20  C   UNL     1      10.544   4.957 -11.079  1.00  0.00     0.017 A 
ATOM     21  Br  UNL     1       9.777   3.408 -10.312  1.00  0.00    -0.051 Br
ENDBRANCH  12  15
ENDBRANCH  10  12
ENDBRANCH   1   9
BRANCH   5  22
ATOM     22  O   UNL     1       9.950  11.757  -7.709  1.00  0.00    -0.476 OA
BRANCH  22  23
ATOM     23  C   UNL     1      11.197  12.083  -7.067  1.00  0.00     0.200 C 
ATOM     24  C   UNL     1      11.236  11.308  -5.735  1.00  0.00     0.069 C 
ATOM     25  C   UNL     1      12.312  11.476  -7.941  1.00  0.00     0.069 C 
BRANCH  23  26
ATOM     26  C   UNL     1      11.561  13.570  -6.812  1.00  0.00     0.347 C 
ATOM     27  O   UNL     1      10.842  14.421  -6.308  1.00  0.00    -0.248 OA
BRANCH  26  28
ATOM     28  O   UNL     1      12.818  13.901  -7.177  1.00  0.00    -0.478 OA
ATOM     29  H   UNL     1      13.301  13.048  -7.145  1.00  0.00     0.296 HD
ENDBRANCH  26  28
ENDBRANCH  23  26
ENDBRANCH  22  23
ENDBRANCH   5  22
TORSDOF 8
ENDMDL
MODEL 4
REMARK VINA RESULT:    -5.608      3.316      6.977
REMARK INTER + INTRA:          -8.626
REMARK INTER:                  -9.947
REMARK INTRA:                   1.321
REMARK UNBOUND:                -0.558
REMARK SMILES CO[C@H](c1ccc(Br)cc1)[C@@H]1C[C@@H]1c1cc(C)c(OC(C)(C)C(=O)O)c(C)c1
REMARK SMILES IDX 14 1 15 2 16 3 17 4 18 5 26 6 27 7 28 8 13 9 11 10 12 11
REMARK SMILES IDX 3 12 2 13 1 14 4 15 5 16 10 17 6 18 9 19 7 20 8 21 19 22
REMARK SMILES IDX 20 23 21 24 22 25 23 26 24 27 25 28
REMARK H PARENT 25 29
ROOT
ATOM      1  C   UNL     1      10.250   5.913 -10.430  1.00  0.00    -0.044 A 
ATOM      2  C   UNL     1       9.967   7.093  -9.725  1.00  0.00     0.011 A 
ATOM      3  C   UNL     1      10.390   8.357 -10.168  1.00  0.00    -0.008 A 
ATOM      4  C   UNL     1      10.079   9.553  -9.317  1.00  0.00     0.048 C 
ATOM      5  C   UNL     1      11.060   8.454 -11.395  1.00  0.00     0.126 A 
ATOM      6  C   UNL     1      11.415   7.293 -12.098  1.00  0.00    -0.008 A 
ATOM      7  C   UNL     1      12.224   7.331 -13.362  1.00  0.00     0.048 C 
ATOM      8  C   UNL     1      10.971   6.045 -11.625  1.00  0.00     0.011 A 
ENDROOT
BRANCH   1   9
ATOM      9  C   UNL     1       9.765   4.585  -9.899  1.00  0.00     0.026 C 
ATOM     10  C   UNL     1       9.269   4.447  -8.467  1.00  0.00     0.031 C 
ATOM     11  C   UNL     1      10.542   3.765  -8.898  1.00  0.00     0.016 C 
BRANCH  10  12
ATOM     12  C   UNL     1       9.355   5.526  -7.414  1.00  0.00     0.151 C 
BRANCH  12  13
ATOM     13  O   UNL     1      10.154   5.004  -6.346  1.00  0.00    -0.376 OA
ATOM     14  C   UNL     1       9.698   3.739  -5.889  1.00  0.00     0.195 C 
ENDBRANCH  12  13
BRANCH  12  15
ATOM     15  C   UNL     1       7.976   5.886  -6.885  1.00  0.00    -0.019 A 
ATOM     16  C   UNL     1       7.555   7.226  -6.877  1.00  0.00     0.007 A 
ATOM     17  C   UNL     1       7.108   4.906  -6.378  1.00  0.00     0.007 A 
ATOM     18  C   UNL     1       6.290   7.574  -6.396  1.00  0.00     0.016 A 
ATOM     19  C   UNL     1       5.845   5.252  -5.895  1.00  0.00     0.016 A 
ATOM     20  C   UNL     1       5.440   6.584  -5.911  1.00  0.00     0.017 A 
ATOM     21  Br  UNL     1       3.726   7.053  -5.265  1.00  0.00    -0.051 Br
ENDBRANCH  12  15
ENDBRANCH  10  12
ENDBRANCH   1   9
BRANCH   5  22
ATOM     22  O   UNL     1      11.447   9.685 -11.859  1.00  0.00    -0.476 OA
BRANCH  22  23
ATOM     23  C   UNL     1      10.505  10.343 -12.726  1.00  0.00     0.200 C 
ATOM     24  C   UNL     1       9.249   9.450 -12.789  1.00  0.00     0.069 C 
ATOM     25  C   UNL     1      10.069  11.632 -12.002  1.00  0.00     0.069 C 
BRANCH  23  26
ATOM     26  C   UNL     1      10.932  10.737 -14.165  1.00  0.00     0.347 C 
ATOM     27  O   UNL     1      11.249   9.973 -15.066  1.00  0.00    -0.248 OA
BRANCH  26  28
ATOM     28  O   UNL     1      10.913  12.066 -14.402  1.00  0.00    -0.478 OA
ATOM     29  H   UNL     1      11.799  12.247 -14.781  1.00  0.00     0.296 HD
ENDBRANCH  26  28
ENDBRANCH  23  26
ENDBRANCH  22  23
ENDBRANCH   5  22
TORSDOF 8
ENDMDL
MODEL 5
REMARK VINA RESULT:    -5.382      6.461      9.141
REMARK INTER + INTRA:          -8.300
REMARK INTER:                  -7.841
REMARK INTRA:                  -0.458
REMARK UNBOUND:                -0.558
REMARK SMILES CO[C@H](c1ccc(Br)cc1)[C@@H]1C[C@@H]1c1cc(C)c(OC(C)(C)C(=O)O)c(C)c1
REMARK SMILES IDX 14 1 15 2 16 3 17 4 18 5 26 6 27 7 28 8 13 9 11 10 12 11
REMARK SMILES IDX 3 12 2 13 1 14 4 15 5 16 10 17 6 18 9 19 7 20 8 21 19 22
REMARK SMILES IDX 20 23 21 24 22 25 23 26 24 27 25 28
REMARK H PARENT 25 29
ROOT
ATOM      1  C   UNL     1       7.585   4.331  -2.284  1.00  0.00    -0.044 A 
ATOM      2  C   UNL     1       7.016   4.893  -3.438  1.00  0.00     0.011 A 
ATOM      3  C   UNL     1       5.655   5.229  -3.521  1.00  0.00    -0.008 A 
ATOM      4  C   UNL     1       5.132   5.779  -4.815  1.00  0.00     0.048 C 
ATOM      5  C   UNL     1       4.847   5.065  -2.387  1.00  0.00     0.126 A 
ATOM      6  C   UNL     1       5.364   4.451  -1.236  1.00  0.00    -0.008 A 
ATOM      7  C   UNL     1       4.519   4.152  -0.033  1.00  0.00     0.048 C 
ATOM      8  C   UNL     1       6.733   4.129  -1.190  1.00  0.00     0.011 A 
ENDROOT
BRANCH   1   9
ATOM      9  C   UNL     1       9.056   3.993  -2.260  1.00  0.00     0.026 C 
ATOM     10  C   UNL     1       9.714   3.270  -3.427  1.00  0.00     0.031 C 
ATOM     11  C   UNL     1       9.575   2.586  -2.091  1.00  0.00     0.016 C 
BRANCH  10  12
ATOM     12  C   UNL     1       8.978   2.689  -4.610  1.00  0.00     0.151 C 
BRANCH  12  13
ATOM     13  O   UNL     1       9.405   1.327  -4.739  1.00  0.00    -0.376 OA
ATOM     14  C   UNL     1      10.819   1.193  -4.724  1.00  0.00     0.195 C 
ENDBRANCH  12  13
BRANCH  12  15
ATOM     15  C   UNL     1       9.308   3.446  -5.886  1.00  0.00    -0.019 A 
ATOM     16  C   UNL     1       9.940   4.698  -5.817  1.00  0.00     0.007 A 
ATOM     17  C   UNL     1       8.977   2.929  -7.149  1.00  0.00     0.007 A 
ATOM     18  C   UNL     1      10.253   5.405  -6.980  1.00  0.00     0.016 A 
ATOM     19  C   UNL     1       9.286   3.635  -8.313  1.00  0.00     0.016 A 
ATOM     20  C   UNL     1       9.927   4.869  -8.223  1.00  0.00     0.017 A 
ATOM     21  Br  UNL     1      10.355   5.822  -9.798  1.00  0.00    -0.051 Br
ENDBRANCH  12  15
ENDBRANCH  10  12
ENDBRANCH   1   9
BRANCH   5  22
ATOM     22  O   UNL     1       3.525   5.422  -2.441  1.00  0.00    -0.476 OA
BRANCH  22  23
ATOM     23  C   UNL     1       3.238   6.784  -2.072  1.00  0.00     0.200 C 
ATOM     24  C   UNL     1       2.788   7.514  -3.353  1.00  0.00     0.069 C 
ATOM     25  C   UNL     1       1.999   6.739  -1.156  1.00  0.00     0.069 C 
BRANCH  23  26
ATOM     26  C   UNL     1       4.323   7.628  -1.350  1.00  0.00     0.347 C 
ATOM     27  O   UNL     1       5.271   8.197  -1.872  1.00  0.00    -0.248 OA
BRANCH  26  28
ATOM     28  O   UNL     1       4.142   7.733  -0.017  1.00  0.00    -0.478 OA
ATOM     29  H   UNL     1       3.168   7.707   0.089  1.00  0.00     0.296 HD
ENDBRANCH  26  28
ENDBRANCH  23  26
ENDBRANCH  22  23
ENDBRANCH   5  22
TORSDOF 8
ENDMDL
MODEL 6
REMARK VINA RESULT:    -5.310      3.368      7.018
REMARK INTER + INTRA:          -8.196
REMARK INTER:                  -9.905
REMARK INTRA:                   1.710
REMARK UNBOUND:                -0.558
REMARK SMILES CO[C@H](c1ccc(Br)cc1)[C@@H]1C[C@@H]1c1cc(C)c(OC(C)(C)C(=O)O)c(C)c1
REMARK SMILES IDX 14 1 15 2 16 3 17 4 18 5 26 6 27 7 28 8 13 9 11 10 12 11
REMARK SMILES IDX 3 12 2 13 1 14 4 15 5 16 10 17 6 18 9 19 7 20 8 21 19 22
REMARK SMILES IDX 20 23 21 24 22 25 23 26 24 27 25 28
REMARK H PARENT 25 29
ROOT
ATOM      1  C   UNL     1      10.167   5.783 -10.414  1.00  0.00    -0.044 A 
ATOM      2  C   UNL     1      10.740   5.861 -11.693  1.00  0.00     0.011 A 
ATOM      3  C   UNL     1      11.179   7.073 -12.251  1.00  0.00    -0.008 A 
ATOM      4  C   UNL     1      11.733   7.059 -13.645  1.00  0.00     0.048 C 
ATOM      5  C   UNL     1      11.109   8.239 -11.476  1.00  0.00     0.126 A 
ATOM      6  C   UNL     1      10.488   8.213 -10.219  1.00  0.00    -0.008 A 
ATOM      7  C   UNL     1      10.288   9.450  -9.392  1.00  0.00     0.048 C 
ATOM      8  C   UNL     1      10.062   6.981  -9.692  1.00  0.00     0.011 A 
ENDROOT
BRANCH   1   9
ATOM      9  C   UNL     1       9.717   4.448  -9.872  1.00  0.00     0.026 C 
ATOM     10  C   UNL     1       9.269   4.299  -8.425  1.00  0.00     0.031 C 
ATOM     11  C   UNL     1      10.536   3.635  -8.901  1.00  0.00     0.016 C 
BRANCH  10  12
ATOM     12  C   UNL     1       9.375   5.376  -7.372  1.00  0.00     0.151 C 
BRANCH  12  13
ATOM     13  O   UNL     1      10.131   4.824  -6.287  1.00  0.00    -0.376 OA
ATOM     14  C   UNL     1       9.591   3.599  -5.811  1.00  0.00     0.195 C 
ENDBRANCH  12  13
BRANCH  12  15
ATOM     15  C   UNL     1       8.001   5.790  -6.872  1.00  0.00    -0.019 A 
ATOM     16  C   UNL     1       7.635   7.146  -6.866  1.00  0.00     0.007 A 
ATOM     17  C   UNL     1       7.081   4.844  -6.391  1.00  0.00     0.007 A 
ATOM     18  C   UNL     1       6.375   7.544  -6.413  1.00  0.00     0.016 A 
ATOM     19  C   UNL     1       5.822   5.241  -5.935  1.00  0.00     0.016 A 
ATOM     20  C   UNL     1       5.474   6.589  -5.952  1.00  0.00     0.017 A 
ATOM     21  Br  UNL     1       3.767   7.126  -5.343  1.00  0.00    -0.051 Br
ENDBRANCH  12  15
ENDBRANCH  10  12
ENDBRANCH   1   9
BRANCH   5  22
ATOM     22  O   UNL     1      11.567   9.423 -11.993  1.00  0.00    -0.476 OA
BRANCH  22  23
ATOM     23  C   UNL     1      10.607  10.175 -12.759  1.00  0.00     0.200 C 
ATOM     24  C   UNL     1       9.304   9.350 -12.786  1.00  0.00     0.069 C 
ATOM     25  C   UNL     1      10.287  11.441 -11.940  1.00  0.00     0.069 C 
BRANCH  23  26
ATOM     26  C   UNL     1      10.962  10.628 -14.201  1.00  0.00     0.347 C 
ATOM     27  O   UNL     1      11.272   9.904 -15.137  1.00  0.00    -0.248 OA
BRANCH  26  28
ATOM     28  O   UNL     1      10.881  11.961 -14.396  1.00  0.00    -0.478 OA
ATOM     29  H   UNL     1      10.085  12.066 -14.959  1.00  0.00     0.296 HD
ENDBRANCH  26  28
ENDBRANCH  23  26
ENDBRANCH  22  23
ENDBRANCH   5  22
TORSDOF 8
ENDMDL
MODEL 7
REMARK VINA RESULT:    -5.092      3.314      5.906
REMARK INTER + INTRA:          -7.883
REMARK INTER:                  -8.850
REMARK INTRA:                   0.966
REMARK UNBOUND:                -0.558
REMARK SMILES CO[C@H](c1ccc(Br)cc1)[C@@H]1C[C@@H]1c1cc(C)c(OC(C)(C)C(=O)O)c(C)c1
REMARK SMILES IDX 14 1 15 2 16 3 17 4 18 5 26 6 27 7 28 8 13 9 11 10 12 11
REMARK SMILES IDX 3 12 2 13 1 14 4 15 5 16 10 17 6 18 9 19 7 20 8 21 19 22
REMARK SMILES IDX 20 23 21 24 22 25 23 26 24 27 25 28
REMARK H PARENT 25 29
ROOT
ATOM      1  C   UNL     1       8.200  10.212  -6.076  1.00  0.00    -0.044 A 
ATOM      2  C   UNL     1       7.631  10.577  -4.846  1.00  0.00     0.011 A 
ATOM      3  C   UNL     1       6.647   9.802  -4.210  1.00  0.00    -0.008 A 
ATOM      4  C   UNL     1       6.066  10.303  -2.921  1.00  0.00     0.048 C 
ATOM      5  C   UNL     1       6.269   8.582  -4.788  1.00  0.00     0.126 A 
ATOM      6  C   UNL     1       6.770   8.213  -6.045  1.00  0.00    -0.008 A 
ATOM      7  C   UNL     1       6.319   6.972  -6.760  1.00  0.00     0.048 C 
ATOM      8  C   UNL     1       7.755   9.013  -6.650  1.00  0.00     0.011 A 
ENDROOT
BRANCH   1   9
ATOM      9  C   UNL     1       9.255  11.090  -6.706  1.00  0.00     0.026 C 
ATOM     10  C   UNL     1       9.903  10.711  -8.029  1.00  0.00     0.031 C 
ATOM     11  C   UNL     1      10.715  10.713  -6.759  1.00  0.00     0.016 C 
BRANCH  10  12
ATOM     12  C   UNL     1       9.699   9.398  -8.748  1.00  0.00     0.151 C 
BRANCH  12  13
ATOM     13  O   UNL     1      10.540   8.434  -8.101  1.00  0.00    -0.376 OA
ATOM     14  C   UNL     1      10.127   7.097  -8.345  1.00  0.00     0.195 C 
ENDBRANCH  12  13
BRANCH  12  15
ATOM     15  C   UNL     1      10.089   9.508 -10.212  1.00  0.00    -0.019 A 
ATOM     16  C   UNL     1      10.467  10.751 -10.747  1.00  0.00     0.007 A 
ATOM     17  C   UNL     1      10.064   8.391 -11.062  1.00  0.00     0.007 A 
ATOM     18  C   UNL     1      10.831  10.869 -12.090  1.00  0.00     0.016 A 
ATOM     19  C   UNL     1      10.425   8.507 -12.406  1.00  0.00     0.016 A 
ATOM     20  C   UNL     1      10.811   9.746 -12.912  1.00  0.00     0.017 A 
ATOM     21  Br  UNL     1      11.309   9.904 -14.729  1.00  0.00    -0.051 Br
ENDBRANCH  12  15
ENDBRANCH  10  12
ENDBRANCH   1   9
BRANCH   5  22
ATOM     22  O   UNL     1       5.336   7.797  -4.161  1.00  0.00    -0.476 OA
BRANCH  22  23
ATOM     23  C   UNL     1       3.968   8.051  -4.528  1.00  0.00     0.200 C 
ATOM     24  C   UNL     1       3.379   6.717  -5.031  1.00  0.00     0.069 C 
ATOM     25  C   UNL     1       3.216   8.378  -3.223  1.00  0.00     0.069 C 
BRANCH  23  26
ATOM     26  C   UNL     1       3.644   9.176  -5.547  1.00  0.00     0.347 C 
ATOM     27  O   UNL     1       3.588   9.064  -6.764  1.00  0.00    -0.248 OA
BRANCH  26  28
ATOM     28  O   UNL     1       3.381  10.373  -4.983  1.00  0.00    -0.478 OA
ATOM     29  H   UNL     1       3.839  11.012  -5.569  1.00  0.00     0.296 HD
ENDBRANCH  26  28
ENDBRANCH  23  26
ENDBRANCH  22  23
ENDBRANCH   5  22
TORSDOF 8
ENDMDL
MODEL 8
REMARK VINA RESULT:    -4.801      6.439      8.776
REMARK INTER + INTRA:          -7.464
REMARK INTER:                  -7.616
REMARK INTRA:                   0.152
REMARK UNBOUND:                -0.558
REMARK SMILES CO[C@H](c1ccc(Br)cc1)[C@@H]1C[C@@H]1c1cc(C)c(OC(C)(C)C(=O)O)c(C)c1
REMARK SMILES IDX 14 1 15 2 16 3 17 4 18 5 26 6 27 7 28 8 13 9 11 10 12 11
REMARK SMILES IDX 3 12 2 13 1 14 4 15 5 16 10 17 6 18 9 19 7 20 8 21 19 22
REMARK SMILES IDX 20 23 21 24 22 25 23 26 24 27 25 28
REMARK H PARENT 25 29
ROOT
ATOM      1  C   UNL     1       5.591   5.503  -4.856  1.00  0.00    -0.044 A 
ATOM      2  C   UNL     1       5.805   4.754  -3.688  1.00  0.00     0.011 A 
ATOM      3  C   UNL     1       5.504   5.251  -2.408  1.00  0.00    -0.008 A 
ATOM      4  C   UNL     1       5.815   4.392  -1.218  1.00  0.00     0.048 C 
ATOM      5  C   UNL     1       4.902   6.512  -2.296  1.00  0.00     0.126 A 
ATOM      6  C   UNL     1       4.729   7.314  -3.434  1.00  0.00    -0.008 A 
ATOM      7  C   UNL     1       4.190   8.712  -3.360  1.00  0.00     0.048 C 
ATOM      8  C   UNL     1       5.040   6.782  -4.698  1.00  0.00     0.011 A 
ENDROOT
BRANCH   1   9
ATOM      9  C   UNL     1       5.936   4.910  -6.201  1.00  0.00     0.026 C 
ATOM     10  C   UNL     1       7.375   4.576  -6.566  1.00  0.00     0.031 C 
ATOM     11  C   UNL     1       6.647   5.684  -7.284  1.00  0.00     0.016 C 
BRANCH  10  12
ATOM     12  C   UNL     1       8.583   4.934  -5.734  1.00  0.00     0.151 C 
BRANCH  12  13
ATOM     13  O   UNL     1       9.489   5.637  -6.594  1.00  0.00    -0.376 OA
ATOM     14  C   UNL     1       9.810   4.903  -7.767  1.00  0.00     0.195 C 
ENDBRANCH  12  13
BRANCH  12  15
ATOM     15  C   UNL     1       9.264   3.688  -5.193  1.00  0.00    -0.019 A 
ATOM     16  C   UNL     1       8.712   2.421  -5.442  1.00  0.00     0.007 A 
ATOM     17  C   UNL     1      10.436   3.770  -4.423  1.00  0.00     0.007 A 
ATOM     18  C   UNL     1       9.327   1.265  -4.955  1.00  0.00     0.016 A 
ATOM     19  C   UNL     1      11.051   2.617  -3.933  1.00  0.00     0.016 A 
ATOM     20  C   UNL     1      10.495   1.369  -4.205  1.00  0.00     0.017 A 
ATOM     21  Br  UNL     1      11.331  -0.195  -3.549  1.00  0.00    -0.051 Br
ENDBRANCH  12  15
ENDBRANCH  10  12
ENDBRANCH   1   9
BRANCH   5  22
ATOM     22  O   UNL     1       4.569   6.994  -1.057  1.00  0.00    -0.476 OA
BRANCH  22  23
ATOM     23  C   UNL     1       3.233   6.693  -0.615  1.00  0.00     0.200 C 
ATOM     24  C   UNL     1       2.419   6.307  -1.867  1.00  0.00     0.069 C 
ATOM     25  C   UNL     1       3.330   5.411   0.236  1.00  0.00     0.069 C 
BRANCH  23  26
ATOM     26  C   UNL     1       2.443   7.743   0.211  1.00  0.00     0.347 C 
ATOM     27  O   UNL     1       1.873   7.555   1.277  1.00  0.00    -0.248 OA
BRANCH  26  28
ATOM     28  O   UNL     1       2.435   8.979  -0.332  1.00  0.00    -0.478 OA
ATOM     29  H   UNL     1       2.684   8.823  -1.268  1.00  0.00     0.296 HD
ENDBRANCH  26  28
ENDBRANCH  23  26
ENDBRANCH  22  23
ENDBRANCH   5  22
TORSDOF 8
ENDMDL
MODEL 9
REMARK VINA RESULT:    -4.447      7.793     11.311
REMARK INTER + INTRA:          -6.955
REMARK INTER:                  -6.202
REMARK INTRA:                  -0.753
REMARK UNBOUND:                -0.558
REMARK SMILES CO[C@H](c1ccc(Br)cc1)[C@@H]1C[C@@H]1c1cc(C)c(OC(C)(C)C(=O)O)c(C)c1
REMARK SMILES IDX 14 1 15 2 16 3 17 4 18 5 26 6 27 7 28 8 13 9 11 10 12 11
REMARK SMILES IDX 3 12 2 13 1 14 4 15 5 16 10 17 6 18 9 19 7 20 8 21 19 22
REMARK SMILES IDX 20 23 21 24 22 25 23 26 24 27 25 28
REMARK H PARENT 25 29
ROOT
ATOM      1  C   UNL     1       6.047   4.035  -1.925  1.00  0.00    -0.044 A 
ATOM      2  C   UNL     1       6.117   4.263  -3.308  1.00  0.00     0.011 A 
ATOM      3  C   UNL     1       7.333   4.268  -4.011  1.00  0.00    -0.008 A 
ATOM      4  C   UNL     1       7.308   4.571  -5.480  1.00  0.00     0.048 C 
ATOM      5  C   UNL     1       8.515   3.963  -3.321  1.00  0.00     0.126 A 
ATOM      6  C   UNL     1       8.493   3.789  -1.929  1.00  0.00    -0.008 A 
ATOM      7  C   UNL     1       9.740   3.567  -1.125  1.00  0.00     0.048 C 
ATOM      8  C   UNL     1       7.256   3.789  -1.260  1.00  0.00     0.011 A 
ENDROOT
BRANCH   1   9
ATOM      9  C   UNL     1       4.706   4.043  -1.229  1.00  0.00     0.026 C 
ATOM     10  C   UNL     1       3.967   5.347  -0.965  1.00  0.00     0.031 C 
ATOM     11  C   UNL     1       4.515   4.538   0.183  1.00  0.00     0.016 C 
BRANCH  10  12
ATOM     12  C   UNL     1       4.534   6.726  -1.206  1.00  0.00     0.151 C 
BRANCH  12  13
ATOM     13  O   UNL     1       3.972   7.587  -0.207  1.00  0.00    -0.376 OA
ATOM     14  C   UNL     1       2.558   7.476  -0.121  1.00  0.00     0.195 C 
ENDBRANCH  12  13
BRANCH  12  15
ATOM     15  C   UNL     1       4.158   7.239  -2.586  1.00  0.00    -0.019 A 
ATOM     16  C   UNL     1       3.346   6.462  -3.428  1.00  0.00     0.007 A 
ATOM     17  C   UNL     1       4.623   8.478  -3.057  1.00  0.00     0.007 A 
ATOM     18  C   UNL     1       2.989   6.920  -4.698  1.00  0.00     0.016 A 
ATOM     19  C   UNL     1       4.269   8.937  -4.327  1.00  0.00     0.016 A 
ATOM     20  C   UNL     1       3.450   8.157  -5.140  1.00  0.00     0.017 A 
ATOM     21  Br  UNL     1       2.964   8.781  -6.857  1.00  0.00    -0.051 Br
ENDBRANCH  12  15
ENDBRANCH  10  12
ENDBRANCH   1   9
BRANCH   5  22
ATOM     22  O   UNL     1       9.705   3.928  -4.000  1.00  0.00    -0.476 OA
BRANCH  22  23
ATOM     23  C   UNL     1      10.109   2.628  -4.471  1.00  0.00     0.200 C 
ATOM     24  C   UNL     1       9.000   1.636  -4.067  1.00  0.00     0.069 C 
ATOM     25  C   UNL     1      10.078   2.690  -6.011  1.00  0.00     0.069 C 
BRANCH  23  26
ATOM     26  C   UNL     1      11.491   2.058  -4.053  1.00  0.00     0.347 C 
ATOM     27  O   UNL     1      11.980   0.995  -4.412  1.00  0.00    -0.248 OA
BRANCH  26  28
ATOM     28  O   UNL     1      12.195   2.864  -3.231  1.00  0.00    -0.478 OA
ATOM     29  H   UNL     1      12.481   2.265  -2.509  1.00  0.00     0.296 HD
ENDBRANCH  26  28
ENDBRANCH  23  26
ENDBRANCH  22  23
ENDBRANCH   5  22
TORSDOF 8
ENDMDL
