MODEL 5
REMARK VINA RESULT:    -8.087      2.869      5.077
REMARK INTER + INTRA:         -16.300
REMARK INTER:                 -14.918
REMARK INTRA:                  -1.382
REMARK UNBOUND:                -1.595
REMARK SMILES CCc1c(N2CC[C@H](N(C)C)C2=O)cccc1S(=O)(=O)N[C@@H](CNC(=O)c1ccc(Cl)s1)C(=O)OCC[S@+](C)[O-]
REMARK SMILES IDX 22 1 21 2 18 4 19 5 20 6 17 7 3 8 4 9 14 10 16 11 15 12 2 13
REMARK SMILES IDX 1 14 5 15 6 16 12 17 7 18 8 19 13 20 9 21 10 22 11 23 23 24
REMARK SMILES IDX 24 25 25 26 26 27 27 29 28 30 32 31 29 32 30 33 31 34 33 35
REMARK SMILES IDX 34 36 35 37 36 38 37 39 38 40 39 41 40 42
REMARK H PARENT 21 3 24 28
ROOT
ATOM      1  C   UNL     1     127.476 -17.251 163.373  1.00  0.00     0.198 C 
ENDROOT
BRANCH   1   2
ATOM      2  N   UNL     1     128.082 -16.224 162.477  1.00  0.00    -0.195 NA
ATOM      3  H   UNL     1     128.472 -16.554 161.589  1.00  0.00     0.142 HD
BRANCH   2   4
ATOM      4  S   UNL     1     128.778 -14.857 163.138  1.00  0.00     0.241 S 
ATOM      5  O   UNL     1     128.359 -14.874 164.522  1.00  0.00    -0.207 OA
ATOM      6  O   UNL     1     128.457 -13.768 162.245  1.00  0.00    -0.207 OA
BRANCH   4   7
ATOM      7  C   UNL     1     130.545 -15.143 163.032  1.00  0.00     0.087 A 
ATOM      8  C   UNL     1     131.231 -16.038 163.897  1.00  0.00    -0.004 A 
ATOM      9  C   UNL     1     132.629 -16.191 163.711  1.00  0.00     0.048 A 
ATOM     10  C   UNL     1     133.287 -15.502 162.678  1.00  0.00     0.027 A 
ATOM     11  C   UNL     1     131.237 -14.424 162.041  1.00  0.00     0.022 A 
ATOM     12  C   UNL     1     132.599 -14.616 161.854  1.00  0.00     0.004 A 
BRANCH   8  13
ATOM     13  C   UNL     1     130.494 -16.875 164.926  1.00  0.00     0.036 C 
ATOM     14  C   UNL     1     130.633 -16.288 166.326  1.00  0.00     0.009 C 
ENDBRANCH   8  13
BRANCH   9  15
ATOM     15  N   UNL     1     133.417 -17.002 164.565  1.00  0.00    -0.311 N 
ATOM     16  C   UNL     1     133.979 -16.527 165.803  1.00  0.00     0.128 C 
ATOM     17  C   UNL     1     133.416 -18.404 164.491  1.00  0.00     0.244 C 
ATOM     18  C   UNL     1     134.124 -17.752 166.681  1.00  0.00     0.051 C 
ATOM     19  C   UNL     1     134.150 -18.945 165.722  1.00  0.00     0.148 C 
ATOM     20  O   UNL     1     132.897 -19.098 163.626  1.00  0.00    -0.273 OA
BRANCH  19  21
ATOM     21  N   UNL     1     135.497 -19.499 165.450  1.00  0.00    -0.298 NA
ATOM     22  C   UNL     1     136.449 -19.096 166.490  1.00  0.00     0.105 C 
ATOM     23  C   UNL     1     135.548 -20.945 165.258  1.00  0.00     0.105 C 
ENDBRANCH  19  21
ENDBRANCH   9  15
ENDBRANCH   4   7
ENDBRANCH   2   4
ENDBRANCH   1   2
BRANCH   1  24
ATOM     24  C   UNL     1     125.966 -17.002 163.502  1.00  0.00     0.148 C 
BRANCH  24  25
ATOM     25  N   UNL     1     125.659 -15.863 164.360  1.00  0.00    -0.349 N 
ATOM     26  C   UNL     1     125.328 -14.618 163.874  1.00  0.00     0.261 C 
ATOM     27  O   UNL     1     125.338 -14.387 162.665  1.00  0.00    -0.268 OA
ATOM     28  H   UNL     1     125.583 -16.062 165.349  1.00  0.00     0.163 HD
BRANCH  26  29
ATOM     29  C   UNL     1     124.982 -13.637 164.892  1.00  0.00     0.093 A 
ATOM     30  C   UNL     1     124.097 -13.723 165.957  1.00  0.00     0.027 A 
ATOM     31  S   UNL     1     125.743 -12.092 164.851  1.00  0.00    -0.118 S 
ATOM     32  C   UNL     1     124.034 -12.512 166.715  1.00  0.00     0.033 A 
ATOM     33  C   UNL     1     124.868 -11.558 166.192  1.00  0.00     0.094 A 
ATOM     34  Cl  UNL     1     125.086  -9.957 166.773  1.00  0.00    -0.072 Cl
ENDBRANCH  26  29
ENDBRANCH  24  25
ENDBRANCH   1  24
BRANCH   1  35
ATOM     35  C   UNL     1     127.778 -18.620 162.768  1.00  0.00     0.326 C 
ATOM     36  O   UNL     1     128.582 -18.781 161.857  1.00  0.00    -0.250 OA
BRANCH  35  37
ATOM     37  O   UNL     1     127.096 -19.611 163.400  1.00  0.00    -0.459 OA
BRANCH  37  38
ATOM     38  C   UNL     1     127.869 -20.549 164.182  1.00  0.00     0.287 C 
BRANCH  38  39
ATOM     39  C   UNL     1     126.939 -21.357 165.079  1.00  0.00     0.316 C 
BRANCH  39  40
ATOM     40  S   UNL     1     127.736 -21.699 166.682  1.00  0.00    -0.053 S 
ATOM     41  C   UNL     1     128.943 -22.890 166.046  1.00  0.00     0.339 C 
ATOM     42  O   UNL     1     126.644 -22.544 167.599  1.00  0.00    -0.616 OA
ENDBRANCH  39  40
ENDBRANCH  38  39
ENDBRANCH  37  38
ENDBRANCH  35  37
ENDBRANCH   1  35
TORSDOF 14
ENDMDL
