MODEL 1
REMARK VINA RESULT:    -9.317      0.000      0.000
REMARK INTER + INTRA:         -14.689
REMARK INTER:                 -14.491
REMARK INTRA:                  -0.198
REMARK UNBOUND:                -0.198
REMARK SMILES O=C(O)COc1ccc(SCc2ccc(OCc3cc(Cl)ccc3Cl)cc2)c2c1CCC2
REMARK SMILES IDX 10 1 9 2 6 3 7 4 29 5 8 6 28 7 30 8 32 9 31 10 5 11 4 12
REMARK SMILES IDX 2 13 1 14 3 15 11 17 12 18 13 19 27 20 14 21 26 22 15 23
REMARK SMILES IDX 16 24 17 25 18 26 19 27 24 28 20 29 23 30 22 31 25 32 21 33
REMARK H PARENT 3 16
ROOT
ATOM      1  S   UNL     1      10.342   6.638 -12.445  1.00  0.00    -0.121 SA
ENDROOT
BRANCH   1   2
ATOM      2  C   UNL     1      10.352   8.199 -11.593  1.00  0.00     0.011 A 
ATOM      3  C   UNL     1      10.347  10.674 -10.179  1.00  0.00     0.123 A 
ATOM      4  C   UNL     1      10.128   9.469  -9.512  1.00  0.00     0.048 A 
ATOM      5  C   UNL     1      10.560  10.620 -11.551  1.00  0.00    -0.002 A 
ATOM      6  C   UNL     1      10.133   8.247 -10.212  1.00  0.00     0.019 A 
ATOM      7  C   UNL     1      10.572   9.401 -12.252  1.00  0.00    -0.027 A 
ATOM      8  C   UNL     1      10.847  11.765 -12.476  1.00  0.00     0.040 C 
ATOM      9  C   UNL     1      10.880   9.639 -13.701  1.00  0.00     0.037 C 
ATOM     10  C   UNL     1      10.559  11.132 -13.841  1.00  0.00     0.010 C 
BRANCH   3  11
ATOM     11  O   UNL     1      10.372  11.919  -9.624  1.00  0.00    -0.482 OA
BRANCH  11  12
ATOM     12  C   UNL     1      10.326  12.032  -8.210  1.00  0.00     0.351 C 
BRANCH  12  13
ATOM     13  C   UNL     1      11.568  11.543  -7.480  1.00  0.00     0.341 C 
ATOM     14  O   UNL     1      12.725  11.895  -7.640  1.00  0.00    -0.248 OA
BRANCH  13  15
ATOM     15  O   UNL     1      11.273  10.604  -6.553  1.00  0.00    -0.479 OA
ATOM     16  H   UNL     1      10.676  11.072  -5.931  1.00  0.00     0.296 HD
ENDBRANCH  13  15
ENDBRANCH  12  13
ENDBRANCH  11  12
ENDBRANCH   3  11
ENDBRANCH   1   2
BRANCH   1  17
ATOM     17  C   UNL     1      11.450   5.687 -11.348  1.00  0.00     0.110 C 
BRANCH  17  18
ATOM     18  C   UNL     1      10.734   5.090 -10.162  1.00  0.00    -0.037 A 
ATOM     19  C   UNL     1      10.785   5.716  -8.909  1.00  0.00     0.008 A 
ATOM     20  C   UNL     1      10.029   3.887 -10.285  1.00  0.00     0.008 A 
ATOM     21  C   UNL     1      10.146   5.150  -7.798  1.00  0.00     0.047 A 
ATOM     22  C   UNL     1       9.394   3.323  -9.175  1.00  0.00     0.047 A 
ATOM     23  C   UNL     1       9.449   3.949  -7.928  1.00  0.00     0.119 A 
BRANCH  23  24
ATOM     24  O   UNL     1       8.789   3.287  -6.930  1.00  0.00    -0.489 OA
BRANCH  24  25
ATOM     25  C   UNL     1       8.792   3.893  -5.635  1.00  0.00     0.267 C 
BRANCH  25  26
ATOM     26  C   UNL     1       9.549   3.048  -4.628  1.00  0.00     0.009 A 
ATOM     27  C   UNL     1      10.684   2.303  -5.001  1.00  0.00     0.029 A 
ATOM     28  C   UNL     1       9.130   2.990  -3.286  1.00  0.00     0.047 A 
ATOM     29  C   UNL     1      11.370   1.531  -4.063  1.00  0.00     0.041 A 
ATOM     30  C   UNL     1       9.822   2.213  -2.351  1.00  0.00     0.022 A 
ATOM     31  C   UNL     1      10.944   1.483  -2.739  1.00  0.00     0.022 A 
ATOM     32  Cl  UNL     1       7.749   3.870  -2.730  1.00  0.00    -0.084 Cl
ATOM     33  Cl  UNL     1      12.755   0.630  -4.545  1.00  0.00    -0.084 Cl
ENDBRANCH  25  26
ENDBRANCH  24  25
ENDBRANCH  23  24
ENDBRANCH  17  18
ENDBRANCH   1  17
TORSDOF 10
ENDMDL
MODEL 2
REMARK VINA RESULT:    -9.180      4.380     10.100
REMARK INTER + INTRA:         -14.476
REMARK INTER:                 -13.309
REMARK INTRA:                  -1.167
REMARK UNBOUND:                -0.198
REMARK SMILES O=C(O)COc1ccc(SCc2ccc(OCc3cc(Cl)ccc3Cl)cc2)c2c1CCC2
REMARK SMILES IDX 10 1 9 2 6 3 7 4 29 5 8 6 28 7 30 8 32 9 31 10 5 11 4 12
REMARK SMILES IDX 2 13 1 14 3 15 11 17 12 18 13 19 27 20 14 21 26 22 15 23
REMARK SMILES IDX 16 24 17 25 18 26 19 27 24 28 20 29 23 30 22 31 25 32 21 33
REMARK H PARENT 3 16
ROOT
ATOM      1  S   UNL     1       8.254   4.508  -6.496  1.00  0.00    -0.121 SA
ENDROOT
BRANCH   1   2
ATOM      2  C   UNL     1       9.148   3.645  -5.225  1.00  0.00     0.011 A 
ATOM      3  C   UNL     1      10.612   2.231  -3.229  1.00  0.00     0.123 A 
ATOM      4  C   UNL     1      10.961   2.132  -4.576  1.00  0.00     0.048 A 
ATOM      5  C   UNL     1       9.527   3.035  -2.903  1.00  0.00    -0.002 A 
ATOM      6  C   UNL     1      10.238   2.834  -5.560  1.00  0.00     0.019 A 
ATOM      7  C   UNL     1       8.807   3.742  -3.883  1.00  0.00    -0.027 A 
ATOM      8  C   UNL     1       8.982   3.324  -1.536  1.00  0.00     0.040 C 
ATOM      9  C   UNL     1       7.730   4.568  -3.241  1.00  0.00     0.037 C 
ATOM     10  C   UNL     1       7.599   3.888  -1.873  1.00  0.00     0.010 C 
BRANCH   3  11
ATOM     11  O   UNL     1      11.226   1.611  -2.182  1.00  0.00    -0.482 OA
BRANCH  11  12
ATOM     12  C   UNL     1      12.430   0.901  -2.425  1.00  0.00     0.351 C 
BRANCH  12  13
ATOM     13  C   UNL     1      13.703   1.618  -1.998  1.00  0.00     0.341 C 
ATOM     14  O   UNL     1      14.526   1.266  -1.170  1.00  0.00    -0.248 OA
BRANCH  13  15
ATOM     15  O   UNL     1      13.875   2.783  -2.664  1.00  0.00    -0.479 OA
ATOM     16  H   UNL     1      13.336   2.667  -3.476  1.00  0.00     0.296 HD
ENDBRANCH  13  15
ENDBRANCH  12  13
ENDBRANCH  11  12
ENDBRANCH   3  11
ENDBRANCH   1   2
BRANCH   1  17
ATOM     17  C   UNL     1       8.683   3.463  -7.932  1.00  0.00     0.110 C 
BRANCH  17  18
ATOM     18  C   UNL     1       9.630   4.142  -8.891  1.00  0.00    -0.037 A 
ATOM     19  C   UNL     1       9.969   3.535 -10.108  1.00  0.00     0.008 A 
ATOM     20  C   UNL     1      10.210   5.374  -8.569  1.00  0.00     0.008 A 
ATOM     21  C   UNL     1      10.870   4.147 -10.987  1.00  0.00     0.047 A 
ATOM     22  C   UNL     1      11.111   5.982  -9.447  1.00  0.00     0.047 A 
ATOM     23  C   UNL     1      11.448   5.374 -10.658  1.00  0.00     0.119 A 
BRANCH  23  24
ATOM     24  O   UNL     1      12.343   6.075 -11.417  1.00  0.00    -0.489 OA
BRANCH  24  25
ATOM     25  C   UNL     1      11.988   6.320 -12.780  1.00  0.00     0.267 C 
BRANCH  25  26
ATOM     26  C   UNL     1      11.702   7.791 -13.022  1.00  0.00     0.009 A 
ATOM     27  C   UNL     1      10.388   8.294 -13.012  1.00  0.00     0.029 A 
ATOM     28  C   UNL     1      12.756   8.692 -13.262  1.00  0.00     0.047 A 
ATOM     29  C   UNL     1      10.141   9.650 -13.236  1.00  0.00     0.041 A 
ATOM     30  C   UNL     1      12.501  10.050 -13.486  1.00  0.00     0.022 A 
ATOM     31  C   UNL     1      11.193  10.530 -13.473  1.00  0.00     0.022 A 
ATOM     32  Cl  UNL     1      14.404   8.171 -13.292  1.00  0.00    -0.084 Cl
ATOM     33  Cl  UNL     1       8.525  10.239 -13.218  1.00  0.00    -0.084 Cl
ENDBRANCH  25  26
ENDBRANCH  24  25
ENDBRANCH  23  24
ENDBRANCH  17  18
ENDBRANCH   1  17
TORSDOF 10
ENDMDL
MODEL 3
REMARK VINA RESULT:    -9.028      4.893      6.732
REMARK INTER + INTRA:         -14.239
REMARK INTER:                 -13.348
REMARK INTRA:                  -0.891
REMARK UNBOUND:                -0.198
REMARK SMILES O=C(O)COc1ccc(SCc2ccc(OCc3cc(Cl)ccc3Cl)cc2)c2c1CCC2
REMARK SMILES IDX 10 1 9 2 6 3 7 4 29 5 8 6 28 7 30 8 32 9 31 10 5 11 4 12
REMARK SMILES IDX 2 13 1 14 3 15 11 17 12 18 13 19 27 20 14 21 26 22 15 23
REMARK SMILES IDX 16 24 17 25 18 26 19 27 24 28 20 29 23 30 22 31 25 32 21 33
REMARK H PARENT 3 16
ROOT
ATOM      1  S   UNL     1      10.360  11.955  -8.613  1.00  0.00    -0.121 SA
ENDROOT
BRANCH   1   2
ATOM      2  C   UNL     1      10.348  10.513  -9.653  1.00  0.00     0.011 A 
ATOM      3  C   UNL     1      10.336   8.166 -11.271  1.00  0.00     0.123 A 
ATOM      4  C   UNL     1      10.255   8.077  -9.881  1.00  0.00     0.048 A 
ATOM      5  C   UNL     1      10.428   9.435 -11.829  1.00  0.00    -0.002 A 
ATOM      6  C   UNL     1      10.259   9.237  -9.083  1.00  0.00     0.019 A 
ATOM      7  C   UNL     1      10.426  10.596 -11.036  1.00  0.00    -0.027 A 
ATOM      8  C   UNL     1      10.493   9.789 -13.285  1.00  0.00     0.040 C 
ATOM      9  C   UNL     1      10.479  11.819 -11.905  1.00  0.00     0.037 C 
ATOM     10  C   UNL     1      10.999  11.233 -13.223  1.00  0.00     0.010 C 
BRANCH   3  11
ATOM     11  O   UNL     1      10.339   7.128 -12.154  1.00  0.00    -0.482 OA
BRANCH  11  12
ATOM     12  C   UNL     1      11.481   6.287 -12.209  1.00  0.00     0.351 C 
BRANCH  12  13
ATOM     13  C   UNL     1      11.513   5.169 -11.178  1.00  0.00     0.341 C 
ATOM     14  O   UNL     1      10.861   4.138 -11.162  1.00  0.00    -0.248 OA
BRANCH  13  15
ATOM     15  O   UNL     1      12.398   5.419 -10.187  1.00  0.00    -0.479 OA
ATOM     16  H   UNL     1      12.130   6.303  -9.856  1.00  0.00     0.296 HD
ENDBRANCH  13  15
ENDBRANCH  12  13
ENDBRANCH  11  12
ENDBRANCH   3  11
ENDBRANCH   1   2
BRANCH   1  17
ATOM     17  C   UNL     1      10.902  11.194  -7.043  1.00  0.00     0.110 C 
BRANCH  17  18
ATOM     18  C   UNL     1       9.766  10.969  -6.076  1.00  0.00    -0.037 A 
ATOM     19  C   UNL     1       9.941  11.197  -4.705  1.00  0.00     0.008 A 
ATOM     20  C   UNL     1       8.526  10.501  -6.527  1.00  0.00     0.008 A 
ATOM     21  C   UNL     1       8.899  10.961  -3.800  1.00  0.00     0.047 A 
ATOM     22  C   UNL     1       7.488  10.265  -5.623  1.00  0.00     0.047 A 
ATOM     23  C   UNL     1       7.667  10.491  -4.256  1.00  0.00     0.119 A 
BRANCH  23  24
ATOM     24  O   UNL     1       6.572  10.214  -3.485  1.00  0.00    -0.489 OA
BRANCH  24  25
ATOM     25  C   UNL     1       5.310  10.141  -4.152  1.00  0.00     0.267 C 
BRANCH  25  26
ATOM     26  C   UNL     1       4.602   8.832  -3.857  1.00  0.00     0.009 A 
ATOM     27  C   UNL     1       4.614   8.266  -2.568  1.00  0.00     0.029 A 
ATOM     28  C   UNL     1       3.910   8.150  -4.875  1.00  0.00     0.047 A 
ATOM     29  C   UNL     1       3.957   7.061  -2.312  1.00  0.00     0.041 A 
ATOM     30  C   UNL     1       3.254   6.942  -4.611  1.00  0.00     0.022 A 
ATOM     31  C   UNL     1       3.277   6.397  -3.329  1.00  0.00     0.022 A 
ATOM     32  Cl  UNL     1       3.836   8.766  -6.489  1.00  0.00    -0.084 Cl
ATOM     33  Cl  UNL     1       3.986   6.390  -0.728  1.00  0.00    -0.084 Cl
ENDBRANCH  25  26
ENDBRANCH  24  25
ENDBRANCH  23  24
ENDBRANCH  17  18
ENDBRANCH   1  17
TORSDOF 10
ENDMDL
MODEL 4
REMARK VINA RESULT:    -8.819      2.245      4.086
REMARK INTER + INTRA:         -13.915
REMARK INTER:                 -12.910
REMARK INTRA:                  -1.005
REMARK UNBOUND:                -0.198
REMARK SMILES O=C(O)COc1ccc(SCc2ccc(OCc3cc(Cl)ccc3Cl)cc2)c2c1CCC2
REMARK SMILES IDX 10 1 9 2 6 3 7 4 29 5 8 6 28 7 30 8 32 9 31 10 5 11 4 12
REMARK SMILES IDX 2 13 1 14 3 15 11 17 12 18 13 19 27 20 14 21 26 22 15 23
REMARK SMILES IDX 16 24 17 25 18 26 19 27 24 28 20 29 23 30 22 31 25 32 21 33
REMARK H PARENT 3 16
ROOT
ATOM      1  S   UNL     1       9.980   3.977  -8.763  1.00  0.00    -0.121 SA
ENDROOT
BRANCH   1   2
ATOM      2  C   UNL     1      10.056   5.735  -9.016  1.00  0.00     0.011 A 
ATOM      3  C   UNL     1      10.149   8.563  -9.370  1.00  0.00     0.123 A 
ATOM      4  C   UNL     1       9.738   8.007  -8.159  1.00  0.00     0.048 A 
ATOM      5  C   UNL     1      10.503   7.688 -10.391  1.00  0.00    -0.002 A 
ATOM      6  C   UNL     1       9.695   6.610  -7.985  1.00  0.00     0.019 A 
ATOM      7  C   UNL     1      10.467   6.293 -10.219  1.00  0.00    -0.027 A 
ATOM      8  C   UNL     1      11.004   8.039 -11.761  1.00  0.00     0.040 C 
ATOM      9  C   UNL     1      10.953   5.604 -11.460  1.00  0.00     0.037 C 
ATOM     10  C   UNL     1      10.802   6.716 -12.505  1.00  0.00     0.010 C 
BRANCH   3  11
ATOM     11  O   UNL     1      10.240   9.889  -9.668  1.00  0.00    -0.482 OA
BRANCH  11  12
ATOM     12  C   UNL     1      10.118  10.831  -8.613  1.00  0.00     0.351 C 
BRANCH  12  13
ATOM     13  C   UNL     1      11.365  11.014  -7.760  1.00  0.00     0.341 C 
ATOM     14  O   UNL     1      12.364  11.665  -8.015  1.00  0.00    -0.248 OA
BRANCH  13  15
ATOM     15  O   UNL     1      11.281  10.341  -6.590  1.00  0.00    -0.479 OA
ATOM     16  H   UNL     1      11.283  11.052  -5.914  1.00  0.00     0.296 HD
ENDBRANCH  13  15
ENDBRANCH  12  13
ENDBRANCH  11  12
ENDBRANCH   3  11
ENDBRANCH   1   2
BRANCH   1  17
ATOM     17  C   UNL     1       8.643   3.907  -7.520  1.00  0.00     0.110 C 
BRANCH  17  18
ATOM     18  C   UNL     1       9.126   3.459  -6.162  1.00  0.00    -0.037 A 
ATOM     19  C   UNL     1       8.606   2.302  -5.567  1.00  0.00     0.008 A 
ATOM     20  C   UNL     1      10.080   4.206  -5.461  1.00  0.00     0.008 A 
ATOM     21  C   UNL     1       9.029   1.898  -4.294  1.00  0.00     0.047 A 
ATOM     22  C   UNL     1      10.499   3.803  -4.191  1.00  0.00     0.047 A 
ATOM     23  C   UNL     1       9.977   2.650  -3.599  1.00  0.00     0.119 A 
BRANCH  23  24
ATOM     24  O   UNL     1      10.470   2.376  -2.354  1.00  0.00    -0.489 OA
BRANCH  24  25
ATOM     25  C   UNL     1      11.123   1.116  -2.177  1.00  0.00     0.267 C 
BRANCH  25  26
ATOM     26  C   UNL     1      12.571   1.173  -2.628  1.00  0.00     0.009 A 
ATOM     27  C   UNL     1      13.588   1.637  -1.772  1.00  0.00     0.029 A 
ATOM     28  C   UNL     1      12.932   0.758  -3.923  1.00  0.00     0.047 A 
ATOM     29  C   UNL     1      14.915   1.683  -2.201  1.00  0.00     0.041 A 
ATOM     30  C   UNL     1      14.265   0.808  -4.347  1.00  0.00     0.022 A 
ATOM     31  C   UNL     1      15.258   1.270  -3.485  1.00  0.00     0.022 A 
ATOM     32  Cl  UNL     1      11.756   0.171  -5.047  1.00  0.00    -0.084 Cl
ATOM     33  Cl  UNL     1      16.139   2.254  -1.135  1.00  0.00    -0.084 Cl
ENDBRANCH  25  26
ENDBRANCH  24  25
ENDBRANCH  23  24
ENDBRANCH  17  18
ENDBRANCH   1  17
TORSDOF 10
ENDMDL
MODEL 5
REMARK VINA RESULT:    -8.789      5.099      8.837
REMARK INTER + INTRA:         -13.867
REMARK INTER:                 -12.831
REMARK INTRA:                  -1.036
REMARK UNBOUND:                -0.198
REMARK SMILES O=C(O)COc1ccc(SCc2ccc(OCc3cc(Cl)ccc3Cl)cc2)c2c1CCC2
REMARK SMILES IDX 10 1 9 2 6 3 7 4 29 5 8 6 28 7 30 8 32 9 31 10 5 11 4 12
REMARK SMILES IDX 2 13 1 14 3 15 11 17 12 18 13 19 27 20 14 21 26 22 15 23
REMARK SMILES IDX 16 24 17 25 18 26 19 27 24 28 20 29 23 30 22 31 25 32 21 33
REMARK H PARENT 3 16
ROOT
ATOM      1  S   UNL     1       6.964   4.472  -6.673  1.00  0.00    -0.121 SA
ENDROOT
BRANCH   1   2
ATOM      2  C   UNL     1       6.326   6.038  -6.125  1.00  0.00     0.011 A 
ATOM      3  C   UNL     1       5.353   8.578  -5.270  1.00  0.00     0.123 A 
ATOM      4  C   UNL     1       6.434   8.485  -6.146  1.00  0.00     0.048 A 
ATOM      5  C   UNL     1       4.778   7.391  -4.830  1.00  0.00    -0.002 A 
ATOM      6  C   UNL     1       6.912   7.229  -6.569  1.00  0.00     0.019 A 
ATOM      7  C   UNL     1       5.249   6.136  -5.255  1.00  0.00    -0.027 A 
ATOM      8  C   UNL     1       3.597   7.232  -3.919  1.00  0.00     0.040 C 
ATOM      9  C   UNL     1       4.409   5.040  -4.667  1.00  0.00     0.037 C 
ATOM     10  C   UNL     1       3.736   5.766  -3.497  1.00  0.00     0.010 C 
BRANCH   3  11
ATOM     11  O   UNL     1       4.792   9.722  -4.787  1.00  0.00    -0.482 OA
BRANCH  11  12
ATOM     12  C   UNL     1       5.612  10.626  -4.063  1.00  0.00     0.351 C 
BRANCH  12  13
ATOM     13  C   UNL     1       6.318  10.034  -2.852  1.00  0.00     0.341 C 
ATOM     14  O   UNL     1       5.859   9.294  -1.999  1.00  0.00    -0.248 OA
BRANCH  13  15
ATOM     15  O   UNL     1       7.612  10.420  -2.782  1.00  0.00    -0.479 OA
ATOM     16  H   UNL     1       8.076   9.617  -2.463  1.00  0.00     0.296 HD
ENDBRANCH  13  15
ENDBRANCH  12  13
ENDBRANCH  11  12
ENDBRANCH   3  11
ENDBRANCH   1   2
BRANCH   1  17
ATOM     17  C   UNL     1       8.754   4.804  -6.528  1.00  0.00     0.110 C 
BRANCH  17  18
ATOM     18  C   UNL     1       9.413   5.067  -7.859  1.00  0.00    -0.037 A 
ATOM     19  C   UNL     1       9.917   6.338  -8.167  1.00  0.00     0.008 A 
ATOM     20  C   UNL     1       9.507   4.055  -8.822  1.00  0.00     0.008 A 
ATOM     21  C   UNL     1      10.503   6.595  -9.413  1.00  0.00     0.047 A 
ATOM     22  C   UNL     1      10.090   4.314 -10.065  1.00  0.00     0.047 A 
ATOM     23  C   UNL     1      10.589   5.582 -10.369  1.00  0.00     0.119 A 
BRANCH  23  24
ATOM     24  O   UNL     1      11.127   5.697 -11.621  1.00  0.00    -0.489 OA
BRANCH  24  25
ATOM     25  C   UNL     1      12.259   6.558 -11.765  1.00  0.00     0.267 C 
BRANCH  25  26
ATOM     26  C   UNL     1      11.899   7.827 -12.515  1.00  0.00     0.009 A 
ATOM     27  C   UNL     1      10.581   8.324 -12.525  1.00  0.00     0.029 A 
ATOM     28  C   UNL     1      12.883   8.542 -13.221  1.00  0.00     0.047 A 
ATOM     29  C   UNL     1      10.266   9.493 -13.220  1.00  0.00     0.041 A 
ATOM     30  C   UNL     1      12.559   9.713 -13.916  1.00  0.00     0.022 A 
ATOM     31  C   UNL     1      11.250  10.190 -13.915  1.00  0.00     0.022 A 
ATOM     32  Cl  UNL     1      14.529   8.014 -13.267  1.00  0.00    -0.084 Cl
ATOM     33  Cl  UNL     1       8.648  10.080 -13.217  1.00  0.00    -0.084 Cl
ENDBRANCH  25  26
ENDBRANCH  24  25
ENDBRANCH  23  24
ENDBRANCH  17  18
ENDBRANCH   1  17
TORSDOF 10
ENDMDL
MODEL 6
REMARK VINA RESULT:    -8.721      4.268      5.984
REMARK INTER + INTRA:         -13.762
REMARK INTER:                 -12.777
REMARK INTRA:                  -0.986
REMARK UNBOUND:                -0.198
REMARK SMILES O=C(O)COc1ccc(SCc2ccc(OCc3cc(Cl)ccc3Cl)cc2)c2c1CCC2
REMARK SMILES IDX 10 1 9 2 6 3 7 4 29 5 8 6 28 7 30 8 32 9 31 10 5 11 4 12
REMARK SMILES IDX 2 13 1 14 3 15 11 17 12 18 13 19 27 20 14 21 26 22 15 23
REMARK SMILES IDX 16 24 17 25 18 26 19 27 24 28 20 29 23 30 22 31 25 32 21 33
REMARK H PARENT 3 16
ROOT
ATOM      1  S   UNL     1      10.047   4.965  -9.073  1.00  0.00    -0.121 SA
ENDROOT
BRANCH   1   2
ATOM      2  C   UNL     1      10.370   6.513  -9.887  1.00  0.00     0.011 A 
ATOM      3  C   UNL     1      10.848   9.022 -11.154  1.00  0.00     0.123 A 
ATOM      4  C   UNL     1      10.115   8.947  -9.969  1.00  0.00     0.048 A 
ATOM      5  C   UNL     1      11.326   7.832 -11.690  1.00  0.00    -0.002 A 
ATOM      6  C   UNL     1       9.882   7.707  -9.343  1.00  0.00     0.019 A 
ATOM      7  C   UNL     1      11.100   6.593 -11.065  1.00  0.00    -0.027 A 
ATOM      8  C   UNL     1      12.158   7.657 -12.926  1.00  0.00     0.040 C 
ATOM      9  C   UNL     1      11.776   5.494 -11.831  1.00  0.00     0.037 C 
ATOM     10  C   UNL     1      11.987   6.159 -13.196  1.00  0.00     0.010 C 
BRANCH   3  11
ATOM     11  O   UNL     1      11.147  10.151 -11.856  1.00  0.00    -0.482 OA
BRANCH  11  12
ATOM     12  C   UNL     1      10.217  10.616 -12.822  1.00  0.00     0.351 C 
BRANCH  12  13
ATOM     13  C   UNL     1      10.806  10.941 -14.187  1.00  0.00     0.341 C 
ATOM     14  O   UNL     1      11.218  10.167 -15.034  1.00  0.00    -0.248 OA
BRANCH  13  15
ATOM     15  O   UNL     1      10.844  12.273 -14.416  1.00  0.00    -0.479 OA
ATOM     16  H   UNL     1      11.659  12.392 -14.951  1.00  0.00     0.296 HD
ENDBRANCH  13  15
ENDBRANCH  12  13
ENDBRANCH  11  12
ENDBRANCH   3  11
ENDBRANCH   1   2
BRANCH   1  17
ATOM     17  C   UNL     1       9.891   5.554  -7.351  1.00  0.00     0.110 C 
BRANCH  17  18
ATOM     18  C   UNL     1       8.460   5.620  -6.880  1.00  0.00    -0.037 A 
ATOM     19  C   UNL     1       7.728   6.810  -6.985  1.00  0.00     0.008 A 
ATOM     20  C   UNL     1       7.846   4.501  -6.303  1.00  0.00     0.008 A 
ATOM     21  C   UNL     1       6.408   6.884  -6.522  1.00  0.00     0.047 A 
ATOM     22  C   UNL     1       6.530   4.577  -5.840  1.00  0.00     0.047 A 
ATOM     23  C   UNL     1       5.805   5.766  -5.944  1.00  0.00     0.119 A 
BRANCH  23  24
ATOM     24  O   UNL     1       4.533   5.702  -5.447  1.00  0.00    -0.489 OA
BRANCH  24  25
ATOM     25  C   UNL     1       3.888   6.942  -5.150  1.00  0.00     0.267 C 
BRANCH  25  26
ATOM     26  C   UNL     1       3.773   7.163  -3.653  1.00  0.00     0.009 A 
ATOM     27  C   UNL     1       2.970   6.332  -2.848  1.00  0.00     0.029 A 
ATOM     28  C   UNL     1       4.474   8.213  -3.031  1.00  0.00     0.047 A 
ATOM     29  C   UNL     1       2.875   6.547  -1.473  1.00  0.00     0.041 A 
ATOM     30  C   UNL     1       4.373   8.423  -1.651  1.00  0.00     0.022 A 
ATOM     31  C   UNL     1       3.574   7.589  -0.870  1.00  0.00     0.022 A 
ATOM     32  Cl  UNL     1       5.486   9.286  -3.932  1.00  0.00    -0.084 Cl
ATOM     33  Cl  UNL     1       1.888   5.517  -0.512  1.00  0.00    -0.084 Cl
ENDBRANCH  25  26
ENDBRANCH  24  25
ENDBRANCH  23  24
ENDBRANCH  17  18
ENDBRANCH   1  17
TORSDOF 10
ENDMDL
MODEL 7
REMARK VINA RESULT:    -8.535      5.000      7.126
REMARK INTER + INTRA:         -13.473
REMARK INTER:                 -12.409
REMARK INTRA:                  -1.064
REMARK UNBOUND:                -0.198
REMARK SMILES O=C(O)COc1ccc(SCc2ccc(OCc3cc(Cl)ccc3Cl)cc2)c2c1CCC2
REMARK SMILES IDX 10 1 9 2 6 3 7 4 29 5 8 6 28 7 30 8 32 9 31 10 5 11 4 12
REMARK SMILES IDX 2 13 1 14 3 15 11 17 12 18 13 19 27 20 14 21 26 22 15 23
REMARK SMILES IDX 16 24 17 25 18 26 19 27 24 28 20 29 23 30 22 31 25 32 21 33
REMARK H PARENT 3 16
ROOT
ATOM      1  S   UNL     1      10.461   9.915  -6.828  1.00  0.00    -0.121 SA
ENDROOT
BRANCH   1   2
ATOM      2  C   UNL     1      10.452   9.617  -8.581  1.00  0.00     0.011 A 
ATOM      3  C   UNL     1      10.429   9.198 -11.401  1.00  0.00     0.123 A 
ATOM      4  C   UNL     1      10.467  10.487 -10.870  1.00  0.00     0.048 A 
ATOM      5  C   UNL     1      10.397   8.135 -10.506  1.00  0.00    -0.002 A 
ATOM      6  C   UNL     1      10.480  10.692  -9.477  1.00  0.00     0.019 A 
ATOM      7  C   UNL     1      10.417   8.336  -9.114  1.00  0.00    -0.027 A 
ATOM      8  C   UNL     1      10.386   6.670 -10.828  1.00  0.00     0.040 C 
ATOM      9  C   UNL     1      10.431   7.017  -8.399  1.00  0.00     0.037 C 
ATOM     10  C   UNL     1       9.929   6.070  -9.496  1.00  0.00     0.010 C 
BRANCH   3  11
ATOM     11  O   UNL     1      10.415   8.861 -12.721  1.00  0.00    -0.482 OA
BRANCH  11  12
ATOM     12  C   UNL     1      11.517   9.244 -13.530  1.00  0.00     0.351 C 
BRANCH  12  13
ATOM     13  C   UNL     1      11.220  10.321 -14.563  1.00  0.00     0.341 C 
ATOM     14  O   UNL     1      10.777  11.442 -14.378  1.00  0.00    -0.248 OA
BRANCH  13  15
ATOM     15  O   UNL     1      11.511   9.911 -15.818  1.00  0.00    -0.479 OA
ATOM     16  H   UNL     1      12.184   9.210 -15.683  1.00  0.00     0.296 HD
ENDBRANCH  13  15
ENDBRANCH  12  13
ENDBRANCH  11  12
ENDBRANCH   3  11
ENDBRANCH   1   2
BRANCH   1  17
ATOM     17  C   UNL     1       8.999  11.003  -6.698  1.00  0.00     0.110 C 
BRANCH  17  18
ATOM     18  C   UNL     1       8.032  10.561  -5.627  1.00  0.00    -0.037 A 
ATOM     19  C   UNL     1       8.339  10.737  -4.271  1.00  0.00     0.008 A 
ATOM     20  C   UNL     1       6.823   9.941  -5.968  1.00  0.00     0.008 A 
ATOM     21  C   UNL     1       7.458  10.301  -3.274  1.00  0.00     0.047 A 
ATOM     22  C   UNL     1       5.946   9.506  -4.971  1.00  0.00     0.047 A 
ATOM     23  C   UNL     1       6.258   9.681  -3.621  1.00  0.00     0.119 A 
BRANCH  23  24
ATOM     24  O   UNL     1       5.314   9.205  -2.753  1.00  0.00    -0.489 OA
BRANCH  24  25
ATOM     25  C   UNL     1       4.077   8.765  -3.316  1.00  0.00     0.267 C 
BRANCH  25  26
ATOM     26  C   UNL     1       3.560   7.522  -2.616  1.00  0.00     0.009 A 
ATOM     27  C   UNL     1       3.095   7.567  -1.288  1.00  0.00     0.029 A 
ATOM     28  C   UNL     1       3.532   6.285  -3.287  1.00  0.00     0.047 A 
ATOM     29  C   UNL     1       2.622   6.414  -0.659  1.00  0.00     0.041 A 
ATOM     30  C   UNL     1       3.057   5.134  -2.649  1.00  0.00     0.022 A 
ATOM     31  C   UNL     1       2.601   5.198  -1.334  1.00  0.00     0.022 A 
ATOM     32  Cl  UNL     1       4.080   6.127  -4.920  1.00  0.00    -0.084 Cl
ATOM     33  Cl  UNL     1       2.059   6.497   0.965  1.00  0.00    -0.084 Cl
ENDBRANCH  25  26
ENDBRANCH  24  25
ENDBRANCH  23  24
ENDBRANCH  17  18
ENDBRANCH   1  17
TORSDOF 10
ENDMDL
MODEL 8
REMARK VINA RESULT:    -8.450      4.840      9.540
REMARK INTER + INTRA:         -13.341
REMARK INTER:                 -12.112
REMARK INTRA:                  -1.229
REMARK UNBOUND:                -0.198
REMARK SMILES O=C(O)COc1ccc(SCc2ccc(OCc3cc(Cl)ccc3Cl)cc2)c2c1CCC2
REMARK SMILES IDX 10 1 9 2 6 3 7 4 29 5 8 6 28 7 30 8 32 9 31 10 5 11 4 12
REMARK SMILES IDX 2 13 1 14 3 15 11 17 12 18 13 19 27 20 14 21 26 22 15 23
REMARK SMILES IDX 16 24 17 25 18 26 19 27 24 28 20 29 23 30 22 31 25 32 21 33
REMARK H PARENT 3 16
ROOT
ATOM      1  S   UNL     1       9.034   3.945  -5.724  1.00  0.00    -0.121 SA
ENDROOT
BRANCH   1   2
ATOM      2  C   UNL     1       7.472   4.616  -5.202  1.00  0.00     0.011 A 
ATOM      3  C   UNL     1       4.962   5.719  -4.421  1.00  0.00     0.123 A 
ATOM      4  C   UNL     1       5.390   5.783  -5.747  1.00  0.00     0.048 A 
ATOM      5  C   UNL     1       5.806   5.105  -3.503  1.00  0.00    -0.002 A 
ATOM      6  C   UNL     1       6.629   5.236  -6.132  1.00  0.00     0.019 A 
ATOM      7  C   UNL     1       7.041   4.552  -3.885  1.00  0.00    -0.027 A 
ATOM      8  C   UNL     1       5.558   4.885  -2.040  1.00  0.00     0.040 C 
ATOM      9  C   UNL     1       7.709   3.910  -2.704  1.00  0.00     0.037 C 
ATOM     10  C   UNL     1       6.971   4.574  -1.537  1.00  0.00     0.010 C 
BRANCH   3  11
ATOM     11  O   UNL     1       3.791   6.202  -3.919  1.00  0.00    -0.482 OA
BRANCH  11  12
ATOM     12  C   UNL     1       3.462   7.562  -4.156  1.00  0.00     0.351 C 
BRANCH  12  13
ATOM     13  C   UNL     1       4.117   8.562  -3.213  1.00  0.00     0.341 C 
ATOM     14  O   UNL     1       4.431   8.404  -2.045  1.00  0.00    -0.248 OA
BRANCH  13  15
ATOM     15  O   UNL     1       4.349   9.749  -3.817  1.00  0.00    -0.479 OA
ATOM     16  H   UNL     1       5.317   9.741  -3.979  1.00  0.00     0.296 HD
ENDBRANCH  13  15
ENDBRANCH  12  13
ENDBRANCH  11  12
ENDBRANCH   3  11
ENDBRANCH   1   2
BRANCH   1  17
ATOM     17  C   UNL     1       8.626   3.536  -7.457  1.00  0.00     0.110 C 
BRANCH  17  18
ATOM     18  C   UNL     1       9.539   4.211  -8.450  1.00  0.00    -0.037 A 
ATOM     19  C   UNL     1       9.835   3.599  -9.676  1.00  0.00     0.008 A 
ATOM     20  C   UNL     1      10.131   5.445  -8.154  1.00  0.00     0.008 A 
ATOM     21  C   UNL     1      10.706   4.208 -10.589  1.00  0.00     0.047 A 
ATOM     22  C   UNL     1      11.000   6.049  -9.065  1.00  0.00     0.047 A 
ATOM     23  C   UNL     1      11.295   5.435 -10.285  1.00  0.00     0.119 A 
BRANCH  23  24
ATOM     24  O   UNL     1      12.163   6.133 -11.077  1.00  0.00    -0.489 OA
BRANCH  24  25
ATOM     25  C   UNL     1      11.832   6.245 -12.463  1.00  0.00     0.267 C 
BRANCH  25  26
ATOM     26  C   UNL     1      11.571   7.687 -12.857  1.00  0.00     0.009 A 
ATOM     27  C   UNL     1      10.267   8.218 -12.875  1.00  0.00     0.029 A 
ATOM     28  C   UNL     1      12.638   8.533 -13.213  1.00  0.00     0.047 A 
ATOM     29  C   UNL     1      10.044   9.547 -13.238  1.00  0.00     0.041 A 
ATOM     30  C   UNL     1      12.406   9.864 -13.577  1.00  0.00     0.022 A 
ATOM     31  C   UNL     1      11.108  10.373 -13.589  1.00  0.00     0.022 A 
ATOM     32  Cl  UNL     1      14.274   7.975 -13.219  1.00  0.00    -0.084 Cl
ATOM     33  Cl  UNL     1       8.441  10.172 -13.253  1.00  0.00    -0.084 Cl
ENDBRANCH  25  26
ENDBRANCH  24  25
ENDBRANCH  23  24
ENDBRANCH  17  18
ENDBRANCH   1  17
TORSDOF 10
ENDMDL
MODEL 9
REMARK VINA RESULT:    -8.259      4.467      6.271
REMARK INTER + INTRA:         -13.043
REMARK INTER:                 -12.655
REMARK INTRA:                  -0.388
REMARK UNBOUND:                -0.198
REMARK SMILES O=C(O)COc1ccc(SCc2ccc(OCc3cc(Cl)ccc3Cl)cc2)c2c1CCC2
REMARK SMILES IDX 10 1 9 2 6 3 7 4 29 5 8 6 28 7 30 8 32 9 31 10 5 11 4 12
REMARK SMILES IDX 2 13 1 14 3 15 11 17 12 18 13 19 27 20 14 21 26 22 15 23
REMARK SMILES IDX 16 24 17 25 18 26 19 27 24 28 20 29 23 30 22 31 25 32 21 33
REMARK H PARENT 3 16
ROOT
ATOM      1  S   UNL     1       9.361   5.369  -6.897  1.00  0.00    -0.121 SA
ENDROOT
BRANCH   1   2
ATOM      2  C   UNL     1       9.821   6.264  -8.363  1.00  0.00     0.011 A 
ATOM      3  C   UNL     1      10.535   7.749 -10.690  1.00  0.00     0.123 A 
ATOM      4  C   UNL     1      10.101   8.397  -9.533  1.00  0.00     0.048 A 
ATOM      5  C   UNL     1      10.599   6.361 -10.663  1.00  0.00    -0.002 A 
ATOM      6  C   UNL     1       9.751   7.662  -8.384  1.00  0.00     0.019 A 
ATOM      7  C   UNL     1      10.256   5.624  -9.516  1.00  0.00    -0.027 A 
ATOM      8  C   UNL     1      11.060   5.448 -11.760  1.00  0.00     0.040 C 
ATOM      9  C   UNL     1      10.473   4.159  -9.756  1.00  0.00     0.037 C 
ATOM     10  C   UNL     1      10.503   4.102 -11.288  1.00  0.00     0.010 C 
BRANCH   3  11
ATOM     11  O   UNL     1      10.905   8.338 -11.862  1.00  0.00    -0.482 OA
BRANCH  11  12
ATOM     12  C   UNL     1      10.055   9.325 -12.423  1.00  0.00     0.351 C 
BRANCH  12  13
ATOM     13  C   UNL     1      10.744  10.334 -13.331  1.00  0.00     0.341 C 
ATOM     14  O   UNL     1      11.438  10.118 -14.310  1.00  0.00    -0.248 OA
BRANCH  13  15
ATOM     15  O   UNL     1      10.511  11.608 -12.940  1.00  0.00    -0.479 OA
ATOM     16  H   UNL     1      11.009  11.686 -12.098  1.00  0.00     0.296 HD
ENDBRANCH  13  15
ENDBRANCH  12  13
ENDBRANCH  11  12
ENDBRANCH   3  11
ENDBRANCH   1   2
BRANCH   1  17
ATOM     17  C   UNL     1       7.622   4.989  -7.306  1.00  0.00     0.110 C 
BRANCH  17  18
ATOM     18  C   UNL     1       6.638   5.788  -6.487  1.00  0.00    -0.037 A 
ATOM     19  C   UNL     1       6.698   7.187  -6.466  1.00  0.00     0.008 A 
ATOM     20  C   UNL     1       5.666   5.144  -5.711  1.00  0.00     0.008 A 
ATOM     21  C   UNL     1       5.805   7.931  -5.684  1.00  0.00     0.047 A 
ATOM     22  C   UNL     1       4.778   5.888  -4.931  1.00  0.00     0.047 A 
ATOM     23  C   UNL     1       4.842   7.283  -4.911  1.00  0.00     0.119 A 
BRANCH  23  24
ATOM     24  O   UNL     1       3.918   7.884  -4.101  1.00  0.00    -0.489 OA
BRANCH  24  25
ATOM     25  C   UNL     1       4.346   8.252  -2.788  1.00  0.00     0.267 C 
BRANCH  25  26
ATOM     26  C   UNL     1       4.176   7.107  -1.808  1.00  0.00     0.009 A 
ATOM     27  C   UNL     1       4.907   5.911  -1.942  1.00  0.00     0.029 A 
ATOM     28  C   UNL     1       3.277   7.217  -0.731  1.00  0.00     0.047 A 
ATOM     29  C   UNL     1       4.739   4.867  -1.031  1.00  0.00     0.041 A 
ATOM     30  C   UNL     1       3.114   6.166   0.178  1.00  0.00     0.022 A 
ATOM     31  C   UNL     1       3.847   4.989   0.029  1.00  0.00     0.022 A 
ATOM     32  Cl  UNL     1       2.336   8.646  -0.479  1.00  0.00    -0.084 Cl
ATOM     33  Cl  UNL     1       5.645   3.416  -1.218  1.00  0.00    -0.084 Cl
ENDBRANCH  25  26
ENDBRANCH  24  25
ENDBRANCH  23  24
ENDBRANCH  17  18
ENDBRANCH   1  17
TORSDOF 10
ENDMDL
