MODEL 1
REMARK VINA RESULT:    -8.970      0.000      0.000
REMARK INTER + INTRA:         -19.930
REMARK INTER:                 -15.787
REMARK INTRA:                  -4.143
REMARK UNBOUND:                -4.143
REMARK SMILES CC(C)c1cc(C(C)C)c(S(=O)(=O)N[C@@H](Cc2cccc(C(=N)N)c2)C(=O)N2CCC(CCN=C(N)N)CC2)c(C(C)C)c1
REMARK SMILES IDX 15 1 14 2 11 4 12 5 13 6 10 7 4 8 5 9 44 10 6 11 40 12 2 13
REMARK SMILES IDX 1 14 3 15 7 16 8 17 9 18 41 19 42 20 43 21 16 22 17 23 18 24
REMARK SMILES IDX 25 25 19 26 21 27 20 28 22 29 23 30 24 31 26 35 27 36 28 37
REMARK SMILES IDX 29 38 39 39 30 40 38 41 31 42 32 43 33 44 34 45 35 46 36 47
REMARK SMILES IDX 37 48
REMARK H PARENT 14 3 23 32 24 33 24 34 36 49 36 50 37 51 37 52
ROOT
ATOM      1  C   UNL     1      -5.078  11.394  21.097  1.00  0.00     0.163 C 
ENDROOT
BRANCH   1   2
ATOM      2  N   UNL     1      -6.494  10.943  21.178  1.00  0.00    -0.198 NA
ATOM      3  H   UNL     1      -7.044  11.435  21.887  1.00  0.00     0.142 HD
BRANCH   2   4
ATOM      4  S   UNL     1      -6.868   9.315  21.034  1.00  0.00     0.241 S 
ATOM      5  O   UNL     1      -5.622   8.589  21.161  1.00  0.00    -0.207 OA
ATOM      6  O   UNL     1      -7.939   9.035  21.962  1.00  0.00    -0.207 OA
BRANCH   4   7
ATOM      7  C   UNL     1      -7.462   9.155  19.317  1.00  0.00     0.089 A 
ATOM      8  C   UNL     1      -8.123   9.139  16.548  1.00  0.00    -0.045 A 
ATOM      9  C   UNL     1      -7.406   8.087  17.124  1.00  0.00     0.009 A 
ATOM     10  C   UNL     1      -8.548  10.172  17.382  1.00  0.00     0.009 A 
ATOM     11  C   UNL     1      -7.076   8.045  18.498  1.00  0.00    -0.025 A 
ATOM     12  C   UNL     1      -8.255  10.208  18.763  1.00  0.00    -0.025 A 
BRANCH   8  13
ATOM     13  C   UNL     1      -8.424   9.193  15.060  1.00  0.00     0.013 C 
ATOM     14  C   UNL     1      -9.442   8.121  14.652  1.00  0.00     0.012 C 
ATOM     15  C   UNL     1      -8.885  10.588  14.622  1.00  0.00     0.012 C 
ENDBRANCH   8  13
BRANCH  11  16
ATOM     16  C   UNL     1      -6.299   6.813  18.975  1.00  0.00     0.014 C 
ATOM     17  C   UNL     1      -6.894   5.471  18.514  1.00  0.00     0.012 C 
ATOM     18  C   UNL     1      -4.833   6.899  18.550  1.00  0.00     0.012 C 
ENDBRANCH  11  16
BRANCH  12  19
ATOM     19  C   UNL     1      -8.812  11.400  19.546  1.00  0.00     0.014 C 
ATOM     20  C   UNL     1     -10.146  11.090  20.241  1.00  0.00     0.012 C 
ATOM     21  C   UNL     1      -8.977  12.627  18.643  1.00  0.00     0.012 C 
ENDBRANCH  12  19
ENDBRANCH   4   7
ENDBRANCH   2   4
ENDBRANCH   1   2
BRANCH   1  22
ATOM     22  C   UNL     1      -4.942  12.503  20.043  1.00  0.00     0.065 C 
BRANCH  22  23
ATOM     23  C   UNL     1      -5.036  11.969  18.633  1.00  0.00    -0.045 A 
ATOM     24  C   UNL     1      -4.478  10.725  18.309  1.00  0.00     0.004 A 
ATOM     25  C   UNL     1      -5.624  12.736  17.619  1.00  0.00     0.015 A 
ATOM     26  C   UNL     1      -4.494  10.255  16.996  1.00  0.00     0.001 A 
ATOM     27  C   UNL     1      -5.635  12.263  16.302  1.00  0.00     0.016 A 
ATOM     28  C   UNL     1      -5.070  11.025  15.988  1.00  0.00     0.012 A 
BRANCH  27  29
ATOM     29  C   UNL     1      -6.213  13.107  15.228  1.00  0.00     0.122 C 
ATOM     30  N   UNL     1      -5.895  12.944  13.982  1.00  0.00    -0.284 NA
ATOM     31  N   UNL     1      -7.108  14.078  15.537  1.00  0.00    -0.384 N 
ATOM     32  H   UNL     1      -5.176  12.217  13.885  1.00  0.00     0.189 HD
ATOM     33  H   UNL     1      -7.480  14.204  16.468  1.00  0.00     0.158 HD
ATOM     34  H   UNL     1      -7.468  14.634  14.774  1.00  0.00     0.158 HD
ENDBRANCH  27  29
ENDBRANCH  22  23
ENDBRANCH   1  22
BRANCH   1  35
ATOM     35  C   UNL     1      -4.746  11.971  22.488  1.00  0.00     0.241 C 
ATOM     36  O   UNL     1      -5.599  12.657  23.069  1.00  0.00    -0.273 OA
ATOM     37  N   UNL     1      -3.504  11.716  23.056  1.00  0.00    -0.341 N 
ATOM     38  C   UNL     1      -2.378  11.074  22.372  1.00  0.00     0.120 C 
ATOM     39  C   UNL     1      -3.188  12.371  24.324  1.00  0.00     0.120 C 
ATOM     40  C   UNL     1      -1.562  10.180  23.303  1.00  0.00     0.025 C 
ATOM     41  C   UNL     1      -2.359  11.493  25.264  1.00  0.00     0.025 C 
ATOM     42  C   UNL     1      -1.114  10.948  24.556  1.00  0.00    -0.006 C 
BRANCH  42  43
ATOM     43  C   UNL     1      -0.258  10.042  25.462  1.00  0.00     0.027 C 
BRANCH  43  44
ATOM     44  C   UNL     1      -1.054   9.279  26.527  1.00  0.00     0.146 C 
BRANCH  44  45
ATOM     45  N   UNL     1      -0.654   7.873  26.503  1.00  0.00    -0.254 NA
ATOM     46  C   UNL     1      -0.989   7.127  27.487  1.00  0.00     0.185 C 
ATOM     47  N   UNL     1      -1.693   7.450  28.590  1.00  0.00    -0.370 N 
ATOM     48  N   UNL     1      -0.617   5.837  27.487  1.00  0.00    -0.370 N 
ATOM     49  H   UNL     1      -1.909   6.765  29.298  1.00  0.00     0.159 HD
ATOM     50  H   UNL     1      -2.057   8.384  28.711  1.00  0.00     0.159 HD
ATOM     51  H   UNL     1      -0.087   5.515  26.687  1.00  0.00     0.159 HD
ATOM     52  H   UNL     1      -0.776   5.198  28.248  1.00  0.00     0.159 HD
ENDBRANCH  44  45
ENDBRANCH  43  44
ENDBRANCH  42  43
ENDBRANCH   1  35
TORSDOF 13
ENDMDL
MODEL 2
REMARK VINA RESULT:    -8.508      2.947      5.410
REMARK INTER + INTRA:         -19.117
REMARK INTER:                 -15.677
REMARK INTRA:                  -3.440
REMARK UNBOUND:                -4.143
REMARK SMILES CC(C)c1cc(C(C)C)c(S(=O)(=O)N[C@@H](Cc2cccc(C(=N)N)c2)C(=O)N2CCC(CCN=C(N)N)CC2)c(C(C)C)c1
REMARK SMILES IDX 15 1 14 2 11 4 12 5 13 6 10 7 4 8 5 9 44 10 6 11 40 12 2 13
REMARK SMILES IDX 1 14 3 15 7 16 8 17 9 18 41 19 42 20 43 21 16 22 17 23 18 24
REMARK SMILES IDX 25 25 19 26 21 27 20 28 22 29 23 30 24 31 26 35 27 36 28 37
REMARK SMILES IDX 29 38 39 39 30 40 38 41 31 42 32 43 33 44 34 45 35 46 36 47
REMARK SMILES IDX 37 48
REMARK H PARENT 14 3 23 32 24 33 24 34 36 49 36 50 37 51 37 52
ROOT
ATOM      1  C   UNL     1      -3.897  11.975  20.002  1.00  0.00     0.163 C 
ENDROOT
BRANCH   1   2
ATOM      2  N   UNL     1      -4.129  13.392  19.609  1.00  0.00    -0.198 NA
ATOM      3  H   UNL     1      -3.426  13.761  18.964  1.00  0.00     0.142 HD
BRANCH   2   4
ATOM      4  S   UNL     1      -4.662  14.504  20.745  1.00  0.00     0.241 S 
ATOM      5  O   UNL     1      -3.639  14.577  21.767  1.00  0.00    -0.207 OA
ATOM      6  O   UNL     1      -5.027  15.707  20.033  1.00  0.00    -0.207 OA
BRANCH   4   7
ATOM      7  C   UNL     1      -6.144  13.718  21.462  1.00  0.00     0.089 A 
ATOM      8  C   UNL     1      -8.322  12.178  22.453  1.00  0.00    -0.045 A 
ATOM      9  C   UNL     1      -7.300  12.610  23.302  1.00  0.00     0.009 A 
ATOM     10  C   UNL     1      -8.269  12.568  21.116  1.00  0.00     0.009 A 
ATOM     11  C   UNL     1      -6.213  13.394  22.855  1.00  0.00    -0.025 A 
ATOM     12  C   UNL     1      -7.213  13.346  20.589  1.00  0.00    -0.025 A 
BRANCH   8  13
ATOM     13  C   UNL     1      -9.457  11.292  22.939  1.00  0.00     0.013 C 
ATOM     14  C   UNL     1     -10.560  12.112  23.619  1.00  0.00     0.012 C 
ATOM     15  C   UNL     1     -10.029  10.426  21.810  1.00  0.00     0.012 C 
ENDBRANCH   8  13
BRANCH  11  16
ATOM     16  C   UNL     1      -5.183  13.799  23.916  1.00  0.00     0.014 C 
ATOM     17  C   UNL     1      -5.476  15.145  24.601  1.00  0.00     0.012 C 
ATOM     18  C   UNL     1      -5.035  12.704  24.974  1.00  0.00     0.012 C 
ENDBRANCH  11  16
BRANCH  12  19
ATOM     19  C   UNL     1      -7.311  13.708  19.105  1.00  0.00     0.014 C 
ATOM     20  C   UNL     1      -8.302  14.849  18.831  1.00  0.00     0.012 C 
ATOM     21  C   UNL     1      -7.687  12.488  18.260  1.00  0.00     0.012 C 
ENDBRANCH  12  19
ENDBRANCH   4   7
ENDBRANCH   2   4
ENDBRANCH   1   2
BRANCH   1  22
ATOM     22  C   UNL     1      -4.262  11.044  18.837  1.00  0.00     0.065 C 
BRANCH  22  23
ATOM     23  C   UNL     1      -5.187   9.927  19.263  1.00  0.00    -0.045 A 
ATOM     24  C   UNL     1      -5.916  10.029  20.455  1.00  0.00     0.004 A 
ATOM     25  C   UNL     1      -5.278   8.751  18.507  1.00  0.00     0.015 A 
ATOM     26  C   UNL     1      -6.716   8.974  20.896  1.00  0.00     0.001 A 
ATOM     27  C   UNL     1      -6.078   7.694  18.953  1.00  0.00     0.016 A 
ATOM     28  C   UNL     1      -6.796   7.802  20.147  1.00  0.00     0.012 A 
BRANCH  27  29
ATOM     29  C   UNL     1      -6.126   6.434  18.172  1.00  0.00     0.122 C 
ATOM     30  N   UNL     1      -7.099   6.169  17.358  1.00  0.00    -0.284 NA
ATOM     31  N   UNL     1      -5.128   5.525  18.292  1.00  0.00    -0.384 N 
ATOM     32  H   UNL     1      -7.812   6.907  17.394  1.00  0.00     0.189 HD
ATOM     33  H   UNL     1      -4.289   5.698  18.828  1.00  0.00     0.158 HD
ATOM     34  H   UNL     1      -5.207   4.677  17.747  1.00  0.00     0.158 HD
ENDBRANCH  27  29
ENDBRANCH  22  23
ENDBRANCH   1  22
BRANCH   1  35
ATOM     35  C   UNL     1      -2.387  11.865  20.287  1.00  0.00     0.241 C 
ATOM     36  O   UNL     1      -1.589  12.369  19.483  1.00  0.00    -0.273 OA
ATOM     37  N   UNL     1      -1.952  11.204  21.429  1.00  0.00    -0.341 N 
ATOM     38  C   UNL     1      -2.806  10.429  22.333  1.00  0.00     0.120 C 
ATOM     39  C   UNL     1      -0.511  11.026  21.606  1.00  0.00     0.120 C 
ATOM     40  C   UNL     1      -2.377  10.556  23.793  1.00  0.00     0.025 C 
ATOM     41  C   UNL     1      -0.067  11.137  23.067  1.00  0.00     0.025 C 
ATOM     42  C   UNL     1      -0.890  10.209  23.966  1.00  0.00    -0.006 C 
BRANCH  42  43
ATOM     43  C   UNL     1      -0.487  10.303  25.451  1.00  0.00     0.027 C 
BRANCH  43  44
ATOM     44  C   UNL     1      -0.482   8.961  26.191  1.00  0.00     0.146 C 
BRANCH  44  45
ATOM     45  N   UNL     1      -1.543   8.968  27.196  1.00  0.00    -0.254 NA
ATOM     46  C   UNL     1      -1.820   7.873  27.797  1.00  0.00     0.185 C 
ATOM     47  N   UNL     1      -1.254   6.660  27.647  1.00  0.00    -0.370 N 
ATOM     48  N   UNL     1      -2.801   7.860  28.714  1.00  0.00    -0.370 N 
ATOM     49  H   UNL     1      -1.551   5.867  28.194  1.00  0.00     0.159 HD
ATOM     50  H   UNL     1      -0.484   6.530  27.006  1.00  0.00     0.159 HD
ATOM     51  H   UNL     1      -3.274   8.738  28.889  1.00  0.00     0.159 HD
ATOM     52  H   UNL     1      -3.131   7.033  29.183  1.00  0.00     0.159 HD
ENDBRANCH  44  45
ENDBRANCH  43  44
ENDBRANCH  42  43
ENDBRANCH   1  35
TORSDOF 13
ENDMDL
MODEL 3
REMARK VINA RESULT:    -8.498      1.570      1.784
REMARK INTER + INTRA:         -19.100
REMARK INTER:                 -16.174
REMARK INTRA:                  -2.925
REMARK UNBOUND:                -4.143
REMARK SMILES CC(C)c1cc(C(C)C)c(S(=O)(=O)N[C@@H](Cc2cccc(C(=N)N)c2)C(=O)N2CCC(CCN=C(N)N)CC2)c(C(C)C)c1
REMARK SMILES IDX 15 1 14 2 11 4 12 5 13 6 10 7 4 8 5 9 44 10 6 11 40 12 2 13
REMARK SMILES IDX 1 14 3 15 7 16 8 17 9 18 41 19 42 20 43 21 16 22 17 23 18 24
REMARK SMILES IDX 25 25 19 26 21 27 20 28 22 29 23 30 24 31 26 35 27 36 28 37
REMARK SMILES IDX 29 38 39 39 30 40 38 41 31 42 32 43 33 44 34 45 35 46 36 47
REMARK SMILES IDX 37 48
REMARK H PARENT 14 3 23 32 24 33 24 34 36 49 36 50 37 51 37 52
ROOT
ATOM      1  C   UNL     1      -5.540  12.045  20.676  1.00  0.00     0.163 C 
ENDROOT
BRANCH   1   2
ATOM      2  N   UNL     1      -6.853  11.448  21.043  1.00  0.00    -0.198 NA
ATOM      3  H   UNL     1      -7.294  11.889  21.855  1.00  0.00     0.142 HD
BRANCH   2   4
ATOM      4  S   UNL     1      -7.073   9.788  20.965  1.00  0.00     0.241 S 
ATOM      5  O   UNL     1      -5.766   9.187  21.127  1.00  0.00    -0.207 OA
ATOM      6  O   UNL     1      -8.121   9.447  21.900  1.00  0.00    -0.207 OA
BRANCH   4   7
ATOM      7  C   UNL     1      -7.636   9.503  19.254  1.00  0.00     0.089 A 
ATOM      8  C   UNL     1      -8.273   9.314  16.486  1.00  0.00    -0.045 A 
ATOM      9  C   UNL     1      -7.460   8.361  17.105  1.00  0.00     0.009 A 
ATOM     10  C   UNL     1      -8.804  10.331  17.277  1.00  0.00     0.009 A 
ATOM     11  C   UNL     1      -7.138   8.405  18.481  1.00  0.00    -0.025 A 
ATOM     12  C   UNL     1      -8.526  10.450  18.657  1.00  0.00    -0.025 A 
BRANCH   8  13
ATOM     13  C   UNL     1      -8.567   9.279  14.996  1.00  0.00     0.013 C 
ATOM     14  C   UNL     1      -7.280   9.362  14.166  1.00  0.00     0.012 C 
ATOM     15  C   UNL     1      -9.398   8.051  14.607  1.00  0.00     0.012 C 
ENDBRANCH   8  13
BRANCH  11  16
ATOM     16  C   UNL     1      -6.246   7.275  19.009  1.00  0.00     0.014 C 
ATOM     17  C   UNL     1      -6.802   5.862  18.762  1.00  0.00     0.012 C 
ATOM     18  C   UNL     1      -4.835   7.382  18.430  1.00  0.00     0.012 C 
ENDBRANCH  11  16
BRANCH  12  19
ATOM     19  C   UNL     1      -9.203  11.611  19.390  1.00  0.00     0.014 C 
ATOM     20  C   UNL     1     -10.581  11.239  19.956  1.00  0.00     0.012 C 
ATOM     21  C   UNL     1      -9.335  12.838  18.482  1.00  0.00     0.012 C 
ENDBRANCH  12  19
ENDBRANCH   4   7
ENDBRANCH   2   4
ENDBRANCH   1   2
BRANCH   1  22
ATOM     22  C   UNL     1      -5.728  13.061  19.539  1.00  0.00     0.065 C 
BRANCH  22  23
ATOM     23  C   UNL     1      -5.004  12.652  18.278  1.00  0.00    -0.045 A 
ATOM     24  C   UNL     1      -5.338  11.457  17.626  1.00  0.00     0.004 A 
ATOM     25  C   UNL     1      -3.947  13.425  17.781  1.00  0.00     0.015 A 
ATOM     26  C   UNL     1      -4.627  11.032  16.504  1.00  0.00     0.001 A 
ATOM     27  C   UNL     1      -3.233  12.995  16.657  1.00  0.00     0.016 A 
ATOM     28  C   UNL     1      -3.569  11.799  16.018  1.00  0.00     0.012 A 
BRANCH  27  29
ATOM     29  C   UNL     1      -2.083  13.795  16.172  1.00  0.00     0.122 C 
ATOM     30  N   UNL     1      -1.395  14.557  16.964  1.00  0.00    -0.284 NA
ATOM     31  N   UNL     1      -1.719  13.736  14.868  1.00  0.00    -0.384 N 
ATOM     32  H   UNL     1      -1.799  14.555  17.908  1.00  0.00     0.189 HD
ATOM     33  H   UNL     1      -2.139  13.095  14.209  1.00  0.00     0.158 HD
ATOM     34  H   UNL     1      -0.934  14.306  14.581  1.00  0.00     0.158 HD
ENDBRANCH  27  29
ENDBRANCH  22  23
ENDBRANCH   1  22
BRANCH   1  35
ATOM     35  C   UNL     1      -5.051  12.781  21.939  1.00  0.00     0.241 C 
ATOM     36  O   UNL     1      -5.693  13.760  22.346  1.00  0.00    -0.273 OA
ATOM     37  N   UNL     1      -3.905  12.339  22.588  1.00  0.00    -0.341 N 
ATOM     38  C   UNL     1      -2.989  11.314  22.080  1.00  0.00     0.120 C 
ATOM     39  C   UNL     1      -3.414  13.129  23.716  1.00  0.00     0.120 C 
ATOM     40  C   UNL     1      -2.411  10.444  23.194  1.00  0.00     0.025 C 
ATOM     41  C   UNL     1      -2.818  12.272  24.836  1.00  0.00     0.025 C 
ATOM     42  C   UNL     1      -1.764  11.305  24.289  1.00  0.00    -0.006 C 
BRANCH  42  43
ATOM     43  C   UNL     1      -1.150  10.408  25.383  1.00  0.00     0.027 C 
BRANCH  43  44
ATOM     44  C   UNL     1      -2.123  10.019  26.501  1.00  0.00     0.146 C 
BRANCH  44  45
ATOM     45  N   UNL     1      -1.634   8.808  27.157  1.00  0.00    -0.254 NA
ATOM     46  C   UNL     1      -2.306   8.331  28.136  1.00  0.00     0.185 C 
ATOM     47  N   UNL     1      -3.452   8.789  28.676  1.00  0.00    -0.370 N 
ATOM     48  N   UNL     1      -1.862   7.227  28.759  1.00  0.00    -0.370 N 
ATOM     49  H   UNL     1      -3.901   8.314  29.445  1.00  0.00     0.159 HD
ATOM     50  H   UNL     1      -3.912   9.601  28.290  1.00  0.00     0.159 HD
ATOM     51  H   UNL     1      -1.005   6.818  28.407  1.00  0.00     0.159 HD
ATOM     52  H   UNL     1      -2.287   6.825  29.578  1.00  0.00     0.159 HD
ENDBRANCH  44  45
ENDBRANCH  43  44
ENDBRANCH  42  43
ENDBRANCH   1  35
TORSDOF 13
ENDMDL
MODEL 4
REMARK VINA RESULT:    -8.370      1.048      2.813
REMARK INTER + INTRA:         -18.875
REMARK INTER:                 -15.201
REMARK INTRA:                  -3.674
REMARK UNBOUND:                -4.143
REMARK SMILES CC(C)c1cc(C(C)C)c(S(=O)(=O)N[C@@H](Cc2cccc(C(=N)N)c2)C(=O)N2CCC(CCN=C(N)N)CC2)c(C(C)C)c1
REMARK SMILES IDX 15 1 14 2 11 4 12 5 13 6 10 7 4 8 5 9 44 10 6 11 40 12 2 13
REMARK SMILES IDX 1 14 3 15 7 16 8 17 9 18 41 19 42 20 43 21 16 22 17 23 18 24
REMARK SMILES IDX 25 25 19 26 21 27 20 28 22 29 23 30 24 31 26 35 27 36 28 37
REMARK SMILES IDX 29 38 39 39 30 40 38 41 31 42 32 43 33 44 34 45 35 46 36 47
REMARK SMILES IDX 37 48
REMARK H PARENT 14 3 23 32 24 33 24 34 36 49 36 50 37 51 37 52
ROOT
ATOM      1  C   UNL     1      -5.644  12.050  20.527  1.00  0.00     0.163 C 
ENDROOT
BRANCH   1   2
ATOM      2  N   UNL     1      -7.017  11.576  20.852  1.00  0.00    -0.198 NA
ATOM      3  H   UNL     1      -7.439  12.055  21.652  1.00  0.00     0.142 HD
BRANCH   2   4
ATOM      4  S   UNL     1      -7.388   9.945  20.760  1.00  0.00     0.241 S 
ATOM      5  O   UNL     1      -6.187   9.224  21.126  1.00  0.00    -0.207 OA
ATOM      6  O   UNL     1      -8.593   9.732  21.529  1.00  0.00    -0.207 OA
BRANCH   4   7
ATOM      7  C   UNL     1      -7.713   9.671  18.987  1.00  0.00     0.089 A 
ATOM      8  C   UNL     1      -8.471   9.001  16.326  1.00  0.00    -0.045 A 
ATOM      9  C   UNL     1      -8.921  10.178  16.928  1.00  0.00     0.009 A 
ATOM     10  C   UNL     1      -7.598   8.190  17.050  1.00  0.00     0.009 A 
ATOM     11  C   UNL     1      -8.551  10.559  18.238  1.00  0.00    -0.025 A 
ATOM     12  C   UNL     1      -7.185   8.496  18.366  1.00  0.00    -0.025 A 
BRANCH   8  13
ATOM     13  C   UNL     1      -8.920   8.581  14.936  1.00  0.00     0.013 C 
ATOM     14  C   UNL     1     -10.387   8.948  14.684  1.00  0.00     0.012 C 
ATOM     15  C   UNL     1      -8.011   9.159  13.845  1.00  0.00     0.012 C 
ENDBRANCH   8  13
BRANCH  11  16
ATOM     16  C   UNL     1      -9.119  11.889  18.748  1.00  0.00     0.014 C 
ATOM     17  C   UNL     1      -9.298  12.960  17.658  1.00  0.00     0.012 C 
ATOM     18  C   UNL     1     -10.445  11.668  19.477  1.00  0.00     0.012 C 
ENDBRANCH  11  16
BRANCH  12  19
ATOM     19  C   UNL     1      -6.207   7.515  19.017  1.00  0.00     0.014 C 
ATOM     20  C   UNL     1      -4.797   7.586  18.414  1.00  0.00     0.012 C 
ATOM     21  C   UNL     1      -6.728   6.077  18.935  1.00  0.00     0.012 C 
ENDBRANCH  12  19
ENDBRANCH   4   7
ENDBRANCH   2   4
ENDBRANCH   1   2
BRANCH   1  22
ATOM     22  C   UNL     1      -5.693  13.010  19.329  1.00  0.00     0.065 C 
BRANCH  22  23
ATOM     23  C   UNL     1      -5.509  12.294  18.012  1.00  0.00    -0.045 A 
ATOM     24  C   UNL     1      -4.708  11.147  17.936  1.00  0.00     0.004 A 
ATOM     25  C   UNL     1      -6.081  12.803  16.839  1.00  0.00     0.015 A 
ATOM     26  C   UNL     1      -4.471  10.520  16.713  1.00  0.00     0.001 A 
ATOM     27  C   UNL     1      -5.839  12.174  15.612  1.00  0.00     0.016 A 
ATOM     28  C   UNL     1      -5.034  11.034  15.546  1.00  0.00     0.012 A 
BRANCH  27  29
ATOM     29  C   UNL     1      -6.408  12.751  14.370  1.00  0.00     0.122 C 
ATOM     30  N   UNL     1      -7.684  12.761  14.141  1.00  0.00    -0.284 NA
ATOM     31  N   UNL     1      -5.587  13.296  13.440  1.00  0.00    -0.384 N 
ATOM     32  H   UNL     1      -8.190  12.278  14.892  1.00  0.00     0.189 HD
ATOM     33  H   UNL     1      -4.594  13.415  13.585  1.00  0.00     0.158 HD
ATOM     34  H   UNL     1      -6.019  13.670  12.605  1.00  0.00     0.158 HD
ENDBRANCH  27  29
ENDBRANCH  22  23
ENDBRANCH   1  22
BRANCH   1  35
ATOM     35  C   UNL     1      -5.163  12.817  21.774  1.00  0.00     0.241 C 
ATOM     36  O   UNL     1      -5.805  13.809  22.150  1.00  0.00    -0.273 OA
ATOM     37  N   UNL     1      -4.024  12.389  22.444  1.00  0.00    -0.341 N 
ATOM     38  C   UNL     1      -3.108  11.347  21.972  1.00  0.00     0.120 C 
ATOM     39  C   UNL     1      -3.540  13.206  23.555  1.00  0.00     0.120 C 
ATOM     40  C   UNL     1      -2.543  10.505  23.114  1.00  0.00     0.025 C 
ATOM     41  C   UNL     1      -2.957  12.378  24.703  1.00  0.00     0.025 C 
ATOM     42  C   UNL     1      -1.901  11.392  24.191  1.00  0.00    -0.006 C 
BRANCH  42  43
ATOM     43  C   UNL     1      -1.301  10.523  25.313  1.00  0.00     0.027 C 
BRANCH  43  44
ATOM     44  C   UNL     1      -2.312  10.067  26.370  1.00  0.00     0.146 C 
BRANCH  44  45
ATOM     45  N   UNL     1      -1.808   8.859  27.021  1.00  0.00    -0.254 NA
ATOM     46  C   UNL     1      -2.402   8.441  28.075  1.00  0.00     0.185 C 
ATOM     47  N   UNL     1      -3.475   8.962  28.703  1.00  0.00    -0.370 N 
ATOM     48  N   UNL     1      -1.943   7.341  28.693  1.00  0.00    -0.370 N 
ATOM     49  H   UNL     1      -3.866   8.531  29.526  1.00  0.00     0.159 HD
ATOM     50  H   UNL     1      -3.939   9.779  28.332  1.00  0.00     0.159 HD
ATOM     51  H   UNL     1      -1.139   6.887  28.278  1.00  0.00     0.159 HD
ATOM     52  H   UNL     1      -2.304   6.983  29.561  1.00  0.00     0.159 HD
ENDBRANCH  44  45
ENDBRANCH  43  44
ENDBRANCH  42  43
ENDBRANCH   1  35
TORSDOF 13
ENDMDL
MODEL 5
REMARK VINA RESULT:    -8.320      2.130      3.056
REMARK INTER + INTRA:         -18.787
REMARK INTER:                 -14.190
REMARK INTRA:                  -4.596
REMARK UNBOUND:                -4.143
REMARK SMILES CC(C)c1cc(C(C)C)c(S(=O)(=O)N[C@@H](Cc2cccc(C(=N)N)c2)C(=O)N2CCC(CCN=C(N)N)CC2)c(C(C)C)c1
REMARK SMILES IDX 15 1 14 2 11 4 12 5 13 6 10 7 4 8 5 9 44 10 6 11 40 12 2 13
REMARK SMILES IDX 1 14 3 15 7 16 8 17 9 18 41 19 42 20 43 21 16 22 17 23 18 24
REMARK SMILES IDX 25 25 19 26 21 27 20 28 22 29 23 30 24 31 26 35 27 36 28 37
REMARK SMILES IDX 29 38 39 39 30 40 38 41 31 42 32 43 33 44 34 45 35 46 36 47
REMARK SMILES IDX 37 48
REMARK H PARENT 14 3 23 32 24 33 24 34 36 49 36 50 37 51 37 52
ROOT
ATOM      1  C   UNL     1      -3.596  12.348  20.280  1.00  0.00     0.163 C 
ENDROOT
BRANCH   1   2
ATOM      2  N   UNL     1      -4.516  13.400  20.792  1.00  0.00    -0.198 NA
ATOM      3  H   UNL     1      -4.038  14.169  21.268  1.00  0.00     0.142 HD
BRANCH   2   4
ATOM      4  S   UNL     1      -5.979  12.971  21.489  1.00  0.00     0.241 S 
ATOM      5  O   UNL     1      -5.710  11.851  22.366  1.00  0.00    -0.207 OA
ATOM      6  O   UNL     1      -6.561  14.171  22.044  1.00  0.00    -0.207 OA
BRANCH   4   7
ATOM      7  C   UNL     1      -6.975  12.379  20.080  1.00  0.00     0.089 A 
ATOM      8  C   UNL     1      -8.212  11.379  17.720  1.00  0.00    -0.045 A 
ATOM      9  C   UNL     1      -8.141  10.603  18.880  1.00  0.00     0.009 A 
ATOM     10  C   UNL     1      -7.704  12.676  17.770  1.00  0.00     0.009 A 
ATOM     11  C   UNL     1      -7.556  11.069  20.079  1.00  0.00    -0.025 A 
ATOM     12  C   UNL     1      -7.098  13.215  18.926  1.00  0.00    -0.025 A 
BRANCH   8  13
ATOM     13  C   UNL     1      -8.799  10.844  16.424  1.00  0.00     0.013 C 
ATOM     14  C   UNL     1     -10.291  10.522  16.573  1.00  0.00     0.012 C 
ATOM     15  C   UNL     1      -8.553  11.798  15.250  1.00  0.00     0.012 C 
ENDBRANCH   8  13
BRANCH  11  16
ATOM     16  C   UNL     1      -7.571  10.100  21.267  1.00  0.00     0.014 C 
ATOM     17  C   UNL     1      -8.887  10.098  22.064  1.00  0.00     0.012 C 
ATOM     18  C   UNL     1      -7.243   8.678  20.811  1.00  0.00     0.012 C 
ENDBRANCH  11  16
BRANCH  12  19
ATOM     19  C   UNL     1      -6.609  14.662  18.827  1.00  0.00     0.014 C 
ATOM     20  C   UNL     1      -7.729  15.689  19.049  1.00  0.00     0.012 C 
ATOM     21  C   UNL     1      -5.930  14.925  17.479  1.00  0.00     0.012 C 
ENDBRANCH  12  19
ENDBRANCH   4   7
ENDBRANCH   2   4
ENDBRANCH   1   2
BRANCH   1  22
ATOM     22  C   UNL     1      -3.533  12.411  18.746  1.00  0.00     0.065 C 
BRANCH  22  23
ATOM     23  C   UNL     1      -4.177  11.209  18.096  1.00  0.00    -0.045 A 
ATOM     24  C   UNL     1      -4.342  10.018  18.816  1.00  0.00     0.004 A 
ATOM     25  C   UNL     1      -4.557  11.247  16.748  1.00  0.00     0.015 A 
ATOM     26  C   UNL     1      -4.867   8.880  18.205  1.00  0.00     0.001 A 
ATOM     27  C   UNL     1      -5.081  10.102  16.137  1.00  0.00     0.016 A 
ATOM     28  C   UNL     1      -5.235   8.918  16.861  1.00  0.00     0.012 A 
BRANCH  27  29
ATOM     29  C   UNL     1      -5.431  10.140  14.696  1.00  0.00     0.122 C 
ATOM     30  N   UNL     1      -4.986  11.067  13.907  1.00  0.00    -0.284 NA
ATOM     31  N   UNL     1      -6.232   9.181  14.169  1.00  0.00    -0.384 N 
ATOM     32  H   UNL     1      -4.436  11.756  14.432  1.00  0.00     0.189 HD
ATOM     33  H   UNL     1      -6.539   8.374  14.693  1.00  0.00     0.158 HD
ATOM     34  H   UNL     1      -6.451   9.252  13.184  1.00  0.00     0.158 HD
ENDBRANCH  27  29
ENDBRANCH  22  23
ENDBRANCH   1  22
BRANCH   1  35
ATOM     35  C   UNL     1      -2.209  12.690  20.859  1.00  0.00     0.241 C 
ATOM     36  O   UNL     1      -1.635  13.717  20.467  1.00  0.00    -0.273 OA
ATOM     37  N   UNL     1      -1.633  11.845  21.800  1.00  0.00    -0.341 N 
ATOM     38  C   UNL     1      -2.152  10.530  22.184  1.00  0.00     0.120 C 
ATOM     39  C   UNL     1      -0.273  12.147  22.243  1.00  0.00     0.120 C 
ATOM     40  C   UNL     1      -1.940  10.229  23.666  1.00  0.00     0.025 C 
ATOM     41  C   UNL     1      -0.040  11.838  23.724  1.00  0.00     0.025 C 
ATOM     42  C   UNL     1      -0.467  10.406  24.062  1.00  0.00    -0.006 C 
BRANCH  42  43
ATOM     43  C   UNL     1      -0.266  10.057  25.550  1.00  0.00     0.027 C 
BRANCH  43  44
ATOM     44  C   UNL     1      -1.545   9.627  26.277  1.00  0.00     0.146 C 
BRANCH  44  45
ATOM     45  N   UNL     1      -1.251   8.458  27.105  1.00  0.00    -0.254 NA
ATOM     46  C   UNL     1      -2.035   8.189  28.079  1.00  0.00     0.185 C 
ATOM     47  N   UNL     1      -3.147   8.840  28.473  1.00  0.00    -0.370 N 
ATOM     48  N   UNL     1      -1.772   7.127  28.857  1.00  0.00    -0.370 N 
ATOM     49  H   UNL     1      -3.697   8.520  29.255  1.00  0.00     0.159 HD
ATOM     50  H   UNL     1      -3.478   9.645  27.961  1.00  0.00     0.159 HD
ATOM     51  H   UNL     1      -0.952   6.581  28.622  1.00  0.00     0.159 HD
ATOM     52  H   UNL     1      -2.293   6.882  29.682  1.00  0.00     0.159 HD
ENDBRANCH  44  45
ENDBRANCH  43  44
ENDBRANCH  42  43
ENDBRANCH   1  35
TORSDOF 13
ENDMDL
MODEL 6
REMARK VINA RESULT:    -8.319      2.293      4.195
REMARK INTER + INTRA:         -18.784
REMARK INTER:                 -14.567
REMARK INTRA:                  -4.217
REMARK UNBOUND:                -4.143
REMARK SMILES CC(C)c1cc(C(C)C)c(S(=O)(=O)N[C@@H](Cc2cccc(C(=N)N)c2)C(=O)N2CCC(CCN=C(N)N)CC2)c(C(C)C)c1
REMARK SMILES IDX 15 1 14 2 11 4 12 5 13 6 10 7 4 8 5 9 44 10 6 11 40 12 2 13
REMARK SMILES IDX 1 14 3 15 7 16 8 17 9 18 41 19 42 20 43 21 16 22 17 23 18 24
REMARK SMILES IDX 25 25 19 26 21 27 20 28 22 29 23 30 24 31 26 35 27 36 28 37
REMARK SMILES IDX 29 38 39 39 30 40 38 41 31 42 32 43 33 44 34 45 35 46 36 47
REMARK SMILES IDX 37 48
REMARK H PARENT 14 3 23 32 24 33 24 34 36 49 36 50 37 51 37 52
ROOT
ATOM      1  C   UNL     1      -3.747  12.037  20.535  1.00  0.00     0.163 C 
ENDROOT
BRANCH   1   2
ATOM      2  N   UNL     1      -4.317  13.211  19.818  1.00  0.00    -0.198 NA
ATOM      3  H   UNL     1      -3.674  14.004  19.749  1.00  0.00     0.142 HD
BRANCH   2   4
ATOM      4  S   UNL     1      -5.916  13.650  20.062  1.00  0.00     0.241 S 
ATOM      5  O   UNL     1      -6.237  13.310  21.432  1.00  0.00    -0.207 OA
ATOM      6  O   UNL     1      -6.057  15.022  19.631  1.00  0.00    -0.207 OA
BRANCH   4   7
ATOM      7  C   UNL     1      -6.847  12.540  18.955  1.00  0.00     0.089 A 
ATOM      8  C   UNL     1      -8.047  10.556  17.304  1.00  0.00    -0.045 A 
ATOM      9  C   UNL     1      -8.566  10.853  18.567  1.00  0.00     0.009 A 
ATOM     10  C   UNL     1      -6.954  11.296  16.857  1.00  0.00     0.009 A 
ATOM     11  C   UNL     1      -8.015  11.845  19.408  1.00  0.00    -0.025 A 
ATOM     12  C   UNL     1      -6.341  12.300  17.639  1.00  0.00    -0.025 A 
BRANCH   8  13
ATOM     13  C   UNL     1      -8.621   9.450  16.434  1.00  0.00     0.013 C 
ATOM     14  C   UNL     1      -9.980   9.847  15.844  1.00  0.00     0.012 C 
ATOM     15  C   UNL     1      -7.643   9.026  15.332  1.00  0.00     0.012 C 
ENDBRANCH   8  13
BRANCH  11  16
ATOM     16  C   UNL     1      -8.711  12.061  20.757  1.00  0.00     0.014 C 
ATOM     17  C   UNL     1      -9.694  13.244  20.780  1.00  0.00     0.012 C 
ATOM     18  C   UNL     1      -9.429  10.787  21.205  1.00  0.00     0.012 C 
ENDBRANCH  11  16
BRANCH  12  19
ATOM     19  C   UNL     1      -5.163  13.038  16.997  1.00  0.00     0.014 C 
ATOM     20  C   UNL     1      -5.599  14.258  16.171  1.00  0.00     0.012 C 
ATOM     21  C   UNL     1      -4.331  12.097  16.121  1.00  0.00     0.012 C 
ENDBRANCH  12  19
ENDBRANCH   4   7
ENDBRANCH   2   4
ENDBRANCH   1   2
BRANCH   1  22
ATOM     22  C   UNL     1      -3.536  10.877  19.551  1.00  0.00     0.065 C 
BRANCH  22  23
ATOM     23  C   UNL     1      -4.629   9.838  19.645  1.00  0.00    -0.045 A 
ATOM     24  C   UNL     1      -5.448   9.775  20.780  1.00  0.00     0.004 A 
ATOM     25  C   UNL     1      -4.795   8.885  18.632  1.00  0.00     0.015 A 
ATOM     26  C   UNL     1      -6.412   8.775  20.911  1.00  0.00     0.001 A 
ATOM     27  C   UNL     1      -5.759   7.880  18.769  1.00  0.00     0.016 A 
ATOM     28  C   UNL     1      -6.567   7.822  19.906  1.00  0.00     0.012 A 
BRANCH  27  29
ATOM     29  C   UNL     1      -5.890   6.845  17.714  1.00  0.00     0.122 C 
ATOM     30  N   UNL     1      -4.999   6.698  16.785  1.00  0.00    -0.284 NA
ATOM     31  N   UNL     1      -6.961   6.015  17.710  1.00  0.00    -0.384 N 
ATOM     32  H   UNL     1      -4.269   7.415  16.867  1.00  0.00     0.189 HD
ATOM     33  H   UNL     1      -7.647   6.000  18.451  1.00  0.00     0.158 HD
ATOM     34  H   UNL     1      -7.013   5.331  16.966  1.00  0.00     0.158 HD
ENDBRANCH  27  29
ENDBRANCH  22  23
ENDBRANCH   1  22
BRANCH   1  35
ATOM     35  C   UNL     1      -2.380  12.502  21.073  1.00  0.00     0.241 C 
ATOM     36  O   UNL     1      -1.907  13.571  20.658  1.00  0.00    -0.273 OA
ATOM     37  N   UNL     1      -1.707  11.718  22.002  1.00  0.00    -0.341 N 
ATOM     38  C   UNL     1      -2.100  10.366  22.408  1.00  0.00     0.120 C 
ATOM     39  C   UNL     1      -0.366  12.139  22.404  1.00  0.00     0.120 C 
ATOM     40  C   UNL     1      -1.822  10.097  23.885  1.00  0.00     0.025 C 
ATOM     41  C   UNL     1      -0.066  11.863  23.879  1.00  0.00     0.025 C 
ATOM     42  C   UNL     1      -0.359  10.403  24.238  1.00  0.00    -0.006 C 
BRANCH  42  43
ATOM     43  C   UNL     1      -0.088  10.086  25.722  1.00  0.00     0.027 C 
BRANCH  43  44
ATOM     44  C   UNL     1      -0.849   8.869  26.258  1.00  0.00     0.146 C 
BRANCH  44  45
ATOM     45  N   UNL     1      -1.903   9.327  27.162  1.00  0.00    -0.254 NA
ATOM     46  C   UNL     1      -2.508   8.460  27.882  1.00  0.00     0.185 C 
ATOM     47  N   UNL     1      -2.310   7.128  27.946  1.00  0.00    -0.370 N 
ATOM     48  N   UNL     1      -3.488   8.862  28.707  1.00  0.00    -0.370 N 
ATOM     49  H   UNL     1      -2.845   6.544  28.569  1.00  0.00     0.159 HD
ATOM     50  H   UNL     1      -1.585   6.691  27.395  1.00  0.00     0.159 HD
ATOM     51  H   UNL     1      -3.694   9.853  28.721  1.00  0.00     0.159 HD
ATOM     52  H   UNL     1      -4.061   8.243  29.256  1.00  0.00     0.159 HD
ENDBRANCH  44  45
ENDBRANCH  43  44
ENDBRANCH  42  43
ENDBRANCH   1  35
TORSDOF 13
ENDMDL
MODEL 7
REMARK VINA RESULT:    -8.282      2.616      4.909
REMARK INTER + INTRA:         -18.720
REMARK INTER:                 -15.116
REMARK INTRA:                  -3.604
REMARK UNBOUND:                -4.143
REMARK SMILES CC(C)c1cc(C(C)C)c(S(=O)(=O)N[C@@H](Cc2cccc(C(=N)N)c2)C(=O)N2CCC(CCN=C(N)N)CC2)c(C(C)C)c1
REMARK SMILES IDX 15 1 14 2 11 4 12 5 13 6 10 7 4 8 5 9 44 10 6 11 40 12 2 13
REMARK SMILES IDX 1 14 3 15 7 16 8 17 9 18 41 19 42 20 43 21 16 22 17 23 18 24
REMARK SMILES IDX 25 25 19 26 21 27 20 28 22 29 23 30 24 31 26 35 27 36 28 37
REMARK SMILES IDX 29 38 39 39 30 40 38 41 31 42 32 43 33 44 34 45 35 46 36 47
REMARK SMILES IDX 37 48
REMARK H PARENT 14 3 23 32 24 33 24 34 36 49 36 50 37 51 37 52
ROOT
ATOM      1  C   UNL     1      -4.019  11.583  19.587  1.00  0.00     0.163 C 
ENDROOT
BRANCH   1   2
ATOM      2  N   UNL     1      -4.482  12.734  18.764  1.00  0.00    -0.198 NA
ATOM      3  H   UNL     1      -3.739  13.169  18.210  1.00  0.00     0.142 HD
BRANCH   2   4
ATOM      4  S   UNL     1      -5.594  13.821  19.388  1.00  0.00     0.241 S 
ATOM      5  O   UNL     1      -4.947  14.486  20.500  1.00  0.00    -0.207 OA
ATOM      6  O   UNL     1      -6.084  14.617  18.287  1.00  0.00    -0.207 OA
BRANCH   4   7
ATOM      7  C   UNL     1      -6.924  12.758  20.041  1.00  0.00     0.089 A 
ATOM      8  C   UNL     1      -9.193  11.405  21.101  1.00  0.00    -0.045 A 
ATOM      9  C   UNL     1      -8.932  11.407  19.728  1.00  0.00     0.009 A 
ATOM     10  C   UNL     1      -8.281  12.043  21.940  1.00  0.00     0.009 A 
ATOM     11  C   UNL     1      -7.805  12.047  19.163  1.00  0.00    -0.025 A 
ATOM     12  C   UNL     1      -7.135  12.711  21.454  1.00  0.00    -0.025 A 
BRANCH   8  13
ATOM     13  C   UNL     1     -10.436  10.757  21.686  1.00  0.00     0.013 C 
ATOM     14  C   UNL     1     -10.606  11.103  23.170  1.00  0.00     0.012 C 
ATOM     15  C   UNL     1     -11.695  11.113  20.888  1.00  0.00     0.012 C 
ENDBRANCH   8  13
BRANCH  11  16
ATOM     16  C   UNL     1      -7.654  11.943  17.641  1.00  0.00     0.014 C 
ATOM     17  C   UNL     1      -7.753  10.510  17.092  1.00  0.00     0.012 C 
ATOM     18  C   UNL     1      -8.673  12.838  16.933  1.00  0.00     0.012 C 
ENDBRANCH  11  16
BRANCH  12  19
ATOM     19  C   UNL     1      -6.220  13.344  22.506  1.00  0.00     0.014 C 
ATOM     20  C   UNL     1      -5.397  12.308  23.286  1.00  0.00     0.012 C 
ATOM     21  C   UNL     1      -7.018  14.209  23.486  1.00  0.00     0.012 C 
ENDBRANCH  12  19
ENDBRANCH   4   7
ENDBRANCH   2   4
ENDBRANCH   1   2
BRANCH   1  22
ATOM     22  C   UNL     1      -4.059  10.294  18.753  1.00  0.00     0.065 C 
BRANCH  22  23
ATOM     23  C   UNL     1      -5.131   9.339  19.224  1.00  0.00    -0.045 A 
ATOM     24  C   UNL     1      -5.764   9.540  20.458  1.00  0.00     0.004 A 
ATOM     25  C   UNL     1      -5.459   8.207  18.467  1.00  0.00     0.015 A 
ATOM     26  C   UNL     1      -6.702   8.626  20.938  1.00  0.00     0.001 A 
ATOM     27  C   UNL     1      -6.397   7.290  18.952  1.00  0.00     0.016 A 
ATOM     28  C   UNL     1      -7.018   7.495  20.186  1.00  0.00     0.012 A 
BRANCH  27  29
ATOM     29  C   UNL     1      -6.698   6.068  18.166  1.00  0.00     0.122 C 
ATOM     30  N   UNL     1      -6.261   4.901  18.522  1.00  0.00    -0.284 NA
ATOM     31  N   UNL     1      -7.456   6.154  17.046  1.00  0.00    -0.384 N 
ATOM     32  H   UNL     1      -5.663   4.975  19.352  1.00  0.00     0.189 HD
ATOM     33  H   UNL     1      -7.913   7.007  16.756  1.00  0.00     0.158 HD
ATOM     34  H   UNL     1      -7.627   5.297  16.537  1.00  0.00     0.158 HD
ENDBRANCH  27  29
ENDBRANCH  22  23
ENDBRANCH   1  22
BRANCH   1  35
ATOM     35  C   UNL     1      -2.557  11.901  19.961  1.00  0.00     0.241 C 
ATOM     36  O   UNL     1      -1.909  12.671  19.236  1.00  0.00    -0.273 OA
ATOM     37  N   UNL     1      -1.998  11.319  21.091  1.00  0.00    -0.341 N 
ATOM     38  C   UNL     1      -2.623  10.267  21.897  1.00  0.00     0.120 C 
ATOM     39  C   UNL     1      -0.579  11.560  21.349  1.00  0.00     0.120 C 
ATOM     40  C   UNL     1      -2.317  10.413  23.386  1.00  0.00     0.025 C 
ATOM     41  C   UNL     1      -0.252  11.694  22.839  1.00  0.00     0.025 C 
ATOM     42  C   UNL     1      -0.804  10.506  23.634  1.00  0.00    -0.006 C 
BRANCH  42  43
ATOM     43  C   UNL     1      -0.513  10.611  25.144  1.00  0.00     0.027 C 
BRANCH  43  44
ATOM     44  C   UNL     1      -0.820   9.336  25.937  1.00  0.00     0.146 C 
BRANCH  44  45
ATOM     45  N   UNL     1      -1.926   9.601  26.855  1.00  0.00    -0.254 NA
ATOM     46  C   UNL     1      -2.221   8.712  27.727  1.00  0.00     0.185 C 
ATOM     47  N   UNL     1      -1.636   7.518  27.947  1.00  0.00    -0.370 N 
ATOM     48  N   UNL     1      -3.243   8.934  28.569  1.00  0.00    -0.370 N 
ATOM     49  H   UNL     1      -1.950   6.903  28.682  1.00  0.00     0.159 HD
ATOM     50  H   UNL     1      -0.836   7.231  27.401  1.00  0.00     0.159 HD
ATOM     51  H   UNL     1      -3.732   9.815  28.470  1.00  0.00     0.159 HD
ATOM     52  H   UNL     1      -3.586   8.264  29.237  1.00  0.00     0.159 HD
ENDBRANCH  44  45
ENDBRANCH  43  44
ENDBRANCH  42  43
ENDBRANCH   1  35
TORSDOF 13
ENDMDL
MODEL 8
REMARK VINA RESULT:    -7.865      3.486      6.216
REMARK INTER + INTRA:         -17.985
REMARK INTER:                 -13.479
REMARK INTRA:                  -4.506
REMARK UNBOUND:                -4.143
REMARK SMILES CC(C)c1cc(C(C)C)c(S(=O)(=O)N[C@@H](Cc2cccc(C(=N)N)c2)C(=O)N2CCC(CCN=C(N)N)CC2)c(C(C)C)c1
REMARK SMILES IDX 15 1 14 2 11 4 12 5 13 6 10 7 4 8 5 9 44 10 6 11 40 12 2 13
REMARK SMILES IDX 1 14 3 15 7 16 8 17 9 18 41 19 42 20 43 21 16 22 17 23 18 24
REMARK SMILES IDX 25 25 19 26 21 27 20 28 22 29 23 30 24 31 26 35 27 36 28 37
REMARK SMILES IDX 29 38 39 39 30 40 38 41 31 42 32 43 33 44 34 45 35 46 36 47
REMARK SMILES IDX 37 48
REMARK H PARENT 14 3 23 32 24 33 24 34 36 49 36 50 37 51 37 52
ROOT
ATOM      1  C   UNL     1      -3.999  11.610  20.797  1.00  0.00     0.163 C 
ENDROOT
BRANCH   1   2
ATOM      2  N   UNL     1      -3.579  12.799  20.005  1.00  0.00    -0.198 NA
ATOM      3  H   UNL     1      -2.720  13.238  20.346  1.00  0.00     0.142 HD
BRANCH   2   4
ATOM      4  S   UNL     1      -4.726  13.887  19.450  1.00  0.00     0.241 S 
ATOM      5  O   UNL     1      -5.294  14.527  20.618  1.00  0.00    -0.207 OA
ATOM      6  O   UNL     1      -4.092  14.706  18.442  1.00  0.00    -0.207 OA
BRANCH   4   7
ATOM      7  C   UNL     1      -6.001  12.826  18.691  1.00  0.00     0.089 A 
ATOM      8  C   UNL     1      -7.805  10.889  17.645  1.00  0.00    -0.045 A 
ATOM      9  C   UNL     1      -8.121  11.621  18.792  1.00  0.00     0.009 A 
ATOM     10  C   UNL     1      -6.603  11.172  17.000  1.00  0.00     0.009 A 
ATOM     11  C   UNL     1      -7.264  12.607  19.332  1.00  0.00    -0.025 A 
ATOM     12  C   UNL     1      -5.689  12.137  17.478  1.00  0.00    -0.025 A 
BRANCH   8  13
ATOM     13  C   UNL     1      -8.715   9.796  17.109  1.00  0.00     0.013 C 
ATOM     14  C   UNL     1      -9.867  10.379  16.280  1.00  0.00     0.012 C 
ATOM     15  C   UNL     1      -7.935   8.747  16.309  1.00  0.00     0.012 C 
ENDBRANCH   8  13
BRANCH  11  16
ATOM     16  C   UNL     1      -7.763  13.333  20.587  1.00  0.00     0.014 C 
ATOM     17  C   UNL     1      -8.736  14.491  20.303  1.00  0.00     0.012 C 
ATOM     18  C   UNL     1      -8.408  12.347  21.562  1.00  0.00     0.012 C 
ENDBRANCH  11  16
BRANCH  12  19
ATOM     19  C   UNL     1      -4.422  12.346  16.643  1.00  0.00     0.014 C 
ATOM     20  C   UNL     1      -4.592  13.417  15.556  1.00  0.00     0.012 C 
ATOM     21  C   UNL     1      -3.958  11.034  16.004  1.00  0.00     0.012 C 
ENDBRANCH  12  19
ENDBRANCH   4   7
ENDBRANCH   2   4
ENDBRANCH   1   2
BRANCH   1  22
ATOM     22  C   UNL     1      -3.615  10.324  20.050  1.00  0.00     0.065 C 
BRANCH  22  23
ATOM     23  C   UNL     1      -4.779   9.371  19.912  1.00  0.00    -0.045 A 
ATOM     24  C   UNL     1      -5.907   9.510  20.731  1.00  0.00     0.004 A 
ATOM     25  C   UNL     1      -4.719   8.300  19.011  1.00  0.00     0.015 A 
ATOM     26  C   UNL     1      -6.957   8.593  20.664  1.00  0.00     0.001 A 
ATOM     27  C   UNL     1      -5.772   7.380  18.948  1.00  0.00     0.016 A 
ATOM     28  C   UNL     1      -6.889   7.523  19.774  1.00  0.00     0.012 A 
BRANCH  27  29
ATOM     29  C   UNL     1      -5.674   6.220  18.028  1.00  0.00     0.122 C 
ATOM     30  N   UNL     1      -5.056   6.298  16.892  1.00  0.00    -0.284 NA
ATOM     31  N   UNL     1      -6.233   5.034  18.372  1.00  0.00    -0.384 N 
ATOM     32  H   UNL     1      -4.723   7.255  16.726  1.00  0.00     0.189 HD
ATOM     33  H   UNL     1      -6.646   4.864  19.279  1.00  0.00     0.158 HD
ATOM     34  H   UNL     1      -6.149   4.275  17.710  1.00  0.00     0.158 HD
ENDBRANCH  27  29
ENDBRANCH  22  23
ENDBRANCH   1  22
BRANCH   1  35
ATOM     35  C   UNL     1      -3.206  11.688  22.116  1.00  0.00     0.241 C 
ATOM     36  O   UNL     1      -2.028  11.299  22.129  1.00  0.00    -0.273 OA
ATOM     37  N   UNL     1      -3.823  12.184  23.258  1.00  0.00    -0.341 N 
ATOM     38  C   UNL     1      -5.251  12.493  23.379  1.00  0.00     0.120 C 
ATOM     39  C   UNL     1      -3.073  12.139  24.512  1.00  0.00     0.120 C 
ATOM     40  C   UNL     1      -5.510  13.714  24.259  1.00  0.00     0.025 C 
ATOM     41  C   UNL     1      -3.333  13.349  25.412  1.00  0.00     0.025 C 
ATOM     42  C   UNL     1      -4.834  13.562  25.630  1.00  0.00    -0.006 C 
BRANCH  42  43
ATOM     43  C   UNL     1      -5.142  14.784  26.517  1.00  0.00     0.027 C 
BRANCH  43  44
ATOM     44  C   UNL     1      -6.384  15.576  26.094  1.00  0.00     0.146 C 
BRANCH  44  45
ATOM     45  N   UNL     1      -6.127  17.003  26.284  1.00  0.00    -0.254 NA
ATOM     46  C   UNL     1      -7.117  17.772  26.539  1.00  0.00     0.185 C 
ATOM     47  N   UNL     1      -8.420  17.456  26.674  1.00  0.00    -0.370 N 
ATOM     48  N   UNL     1      -6.899  19.087  26.702  1.00  0.00    -0.370 N 
ATOM     49  H   UNL     1      -9.113  18.155  26.891  1.00  0.00     0.159 HD
ATOM     50  H   UNL     1      -8.724  16.496  26.600  1.00  0.00     0.159 HD
ATOM     51  H   UNL     1      -5.941  19.404  26.621  1.00  0.00     0.159 HD
ATOM     52  H   UNL     1      -7.623  19.772  26.836  1.00  0.00     0.159 HD
ENDBRANCH  44  45
ENDBRANCH  43  44
ENDBRANCH  42  43
ENDBRANCH   1  35
TORSDOF 13
ENDMDL
MODEL 9
REMARK VINA RESULT:    -7.456      2.846      8.129
REMARK INTER + INTRA:         -17.266
REMARK INTER:                 -13.627
REMARK INTRA:                  -3.639
REMARK UNBOUND:                -4.143
REMARK SMILES CC(C)c1cc(C(C)C)c(S(=O)(=O)N[C@@H](Cc2cccc(C(=N)N)c2)C(=O)N2CCC(CCN=C(N)N)CC2)c(C(C)C)c1
REMARK SMILES IDX 15 1 14 2 11 4 12 5 13 6 10 7 4 8 5 9 44 10 6 11 40 12 2 13
REMARK SMILES IDX 1 14 3 15 7 16 8 17 9 18 41 19 42 20 43 21 16 22 17 23 18 24
REMARK SMILES IDX 25 25 19 26 21 27 20 28 22 29 23 30 24 31 26 35 27 36 28 37
REMARK SMILES IDX 29 38 39 39 30 40 38 41 31 42 32 43 33 44 34 45 35 46 36 47
REMARK SMILES IDX 37 48
REMARK H PARENT 14 3 23 32 24 33 24 34 36 49 36 50 37 51 37 52
ROOT
ATOM      1  C   UNL     1      -4.087  12.252  23.796  1.00  0.00     0.163 C 
ENDROOT
BRANCH   1   2
ATOM      2  N   UNL     1      -3.450  12.306  22.452  1.00  0.00    -0.198 NA
ATOM      3  H   UNL     1      -3.610  13.187  21.955  1.00  0.00     0.142 HD
BRANCH   2   4
ATOM      4  S   UNL     1      -3.458  10.954  21.462  1.00  0.00     0.241 S 
ATOM      5  O   UNL     1      -2.176  10.921  20.791  1.00  0.00    -0.207 OA
ATOM      6  O   UNL     1      -3.852   9.827  22.275  1.00  0.00    -0.207 OA
BRANCH   4   7
ATOM      7  C   UNL     1      -4.750  11.326  20.229  1.00  0.00     0.089 A 
ATOM      8  C   UNL     1      -7.003  11.879  18.580  1.00  0.00    -0.045 A 
ATOM      9  C   UNL     1      -6.163  12.905  19.019  1.00  0.00     0.009 A 
ATOM     10  C   UNL     1      -6.675  10.571  18.932  1.00  0.00     0.009 A 
ATOM     11  C   UNL     1      -5.022  12.672  19.820  1.00  0.00    -0.025 A 
ATOM     12  C   UNL     1      -5.557  10.254  19.734  1.00  0.00    -0.025 A 
BRANCH   8  13
ATOM     13  C   UNL     1      -8.254  12.153  17.762  1.00  0.00     0.013 C 
ATOM     14  C   UNL     1      -9.266  11.006  17.879  1.00  0.00     0.012 C 
ATOM     15  C   UNL     1      -8.896  13.495  18.134  1.00  0.00     0.012 C 
ENDBRANCH   8  13
BRANCH  11  16
ATOM     16  C   UNL     1      -4.195  13.904  20.204  1.00  0.00     0.014 C 
ATOM     17  C   UNL     1      -3.145  14.314  19.157  1.00  0.00     0.012 C 
ATOM     18  C   UNL     1      -5.106  15.093  20.513  1.00  0.00     0.012 C 
ENDBRANCH  11  16
BRANCH  12  19
ATOM     19  C   UNL     1      -5.320   8.768  20.015  1.00  0.00     0.014 C 
ATOM     20  C   UNL     1      -4.624   8.042  18.854  1.00  0.00     0.012 C 
ATOM     21  C   UNL     1      -6.631   8.053  20.354  1.00  0.00     0.012 C 
ENDBRANCH  12  19
ENDBRANCH   4   7
ENDBRANCH   2   4
ENDBRANCH   1   2
BRANCH   1  22
ATOM     22  C   UNL     1      -3.058  12.616  24.877  1.00  0.00     0.065 C 
BRANCH  22  23
ATOM     23  C   UNL     1      -2.217  11.431  25.290  1.00  0.00    -0.045 A 
ATOM     24  C   UNL     1      -1.035  11.130  24.601  1.00  0.00     0.004 A 
ATOM     25  C   UNL     1      -2.639  10.583  26.321  1.00  0.00     0.015 A 
ATOM     26  C   UNL     1      -0.287   9.997  24.925  1.00  0.00     0.001 A 
ATOM     27  C   UNL     1      -1.890   9.445  26.642  1.00  0.00     0.016 A 
ATOM     28  C   UNL     1      -0.716   9.149  25.945  1.00  0.00     0.012 A 
BRANCH  27  29
ATOM     29  C   UNL     1      -2.374   8.527  27.701  1.00  0.00     0.122 C 
ATOM     30  N   UNL     1      -1.913   7.322  27.826  1.00  0.00    -0.284 NA
ATOM     31  N   UNL     1      -3.320   8.943  28.578  1.00  0.00    -0.384 N 
ATOM     32  H   UNL     1      -1.243   7.111  27.077  1.00  0.00     0.189 HD
ATOM     33  H   UNL     1      -3.659   9.894  28.609  1.00  0.00     0.158 HD
ATOM     34  H   UNL     1      -3.626   8.279  29.276  1.00  0.00     0.158 HD
ENDBRANCH  27  29
ENDBRANCH  22  23
ENDBRANCH   1  22
BRANCH   1  35
ATOM     35  C   UNL     1      -5.198  13.321  23.772  1.00  0.00     0.241 C 
ATOM     36  O   UNL     1      -4.909  14.490  24.066  1.00  0.00    -0.273 OA
ATOM     37  N   UNL     1      -6.494  12.954  23.430  1.00  0.00    -0.341 N 
ATOM     38  C   UNL     1      -6.960  11.577  23.246  1.00  0.00     0.120 C 
ATOM     39  C   UNL     1      -7.538  13.973  23.525  1.00  0.00     0.120 C 
ATOM     40  C   UNL     1      -7.998  11.456  22.132  1.00  0.00     0.025 C 
ATOM     41  C   UNL     1      -8.594  13.857  22.423  1.00  0.00     0.025 C 
ATOM     42  C   UNL     1      -9.161  12.436  22.350  1.00  0.00    -0.006 C 
BRANCH  42  43
ATOM     43  C   UNL     1     -10.216  12.269  21.239  1.00  0.00     0.027 C 
BRANCH  43  44
ATOM     44  C   UNL     1     -11.664  12.242  21.741  1.00  0.00     0.146 C 
BRANCH  44  45
ATOM     45  N   UNL     1     -12.293  10.993  21.312  1.00  0.00    -0.254 NA
ATOM     46  C   UNL     1     -12.521  10.093  22.192  1.00  0.00     0.185 C 
ATOM     47  N   UNL     1     -12.268  10.121  23.515  1.00  0.00    -0.370 N 
ATOM     48  N   UNL     1     -13.085   8.935  21.813  1.00  0.00    -0.370 N 
ATOM     49  H   UNL     1     -12.509   9.348  24.116  1.00  0.00     0.159 HD
ATOM     50  H   UNL     1     -11.866  10.943  23.943  1.00  0.00     0.159 HD
ATOM     51  H   UNL     1     -13.311   8.838  20.831  1.00  0.00     0.159 HD
ATOM     52  H   UNL     1     -13.236   8.149  22.422  1.00  0.00     0.159 HD
ENDBRANCH  44  45
ENDBRANCH  43  44
ENDBRANCH  42  43
ENDBRANCH   1  35
TORSDOF 13
ENDMDL
