REMARK SMILES N#CN[C@@H]1CCc2ccc(-c3ncnc4[nH]ccc34)cc21
REMARK SMILES IDX 4 1 5 2 6 3 7 4 8 5 9 6 10 7 20 8 21 9 3 10 1 11 2 12 11 14
REMARK SMILES IDX 12 15 19 16 13 17 18 18 15 19 14 20 17 21 16 22
REMARK H PARENT 3 13 16 23
REMARK INDEX MAP 4 1 5 2 6 3 7 4 8 5 9 6 10 7 20 8 21 9 3 10 1 11 2 12 22 13
REMARK INDEX MAP 11 14 12 15 19 16 13 17 18 18 15 19 14 20 17 21 16 22 31 23
ROOT
ATOM      1  C   UNL     1      -3.134  22.680 -28.367  1.00  0.00     0.120 C 
ATOM      2  C   UNL     1      -3.141  21.162 -28.102  1.00  0.00     0.035 C 
ATOM      3  C   UNL     1      -3.130  20.468 -29.473  1.00  0.00     0.038 C 
ATOM      4  C   UNL     1      -3.812  21.490 -30.327  1.00  0.00    -0.043 A 
ATOM      5  C   UNL     1      -4.360  21.323 -31.583  1.00  0.00     0.005 A 
ATOM      6  C   UNL     1      -4.917  22.440 -32.218  1.00  0.00     0.010 A 
ATOM      7  C   UNL     1      -4.914  23.723 -31.619  1.00  0.00     0.001 A 
ATOM      8  C   UNL     1      -4.350  23.856 -30.336  1.00  0.00     0.016 A 
ATOM      9  C   UNL     1      -3.808  22.742 -29.707  1.00  0.00    -0.021 A 
ENDROOT
BRANCH   1  10
ATOM     10  N   UNL     1      -1.752  23.194 -28.439  1.00  0.00    -0.316 NA
ATOM     11  N   UNL     1      -0.526  24.123 -26.480  1.00  0.00    -0.173 NA
ATOM     12  C   UNL     1      -1.097  23.699 -27.391  1.00  0.00     0.177 C 
ATOM     13  H   UNL     1      -1.267  23.161 -29.347  1.00  0.00     0.173 HD
ENDBRANCH   1  10
BRANCH   7  14
ATOM     14  C   UNL     1      -5.504  24.863 -32.327  1.00  0.00     0.083 A 
ATOM     15  N   UNL     1      -6.242  24.601 -33.440  1.00  0.00    -0.236 NA
ATOM     16  C   UNL     1      -5.327  26.199 -31.931  1.00  0.00     0.045 A 
ATOM     17  C   UNL     1      -6.798  25.637 -34.096  1.00  0.00     0.224 A 
ATOM     18  C   UNL     1      -4.629  26.913 -30.912  1.00  0.00     0.032 A 
ATOM     19  C   UNL     1      -5.962  27.154 -32.712  1.00  0.00     0.141 A 
ATOM     20  N   UNL     1      -6.715  26.944 -33.801  1.00  0.00    -0.219 NA
ATOM     21  C   UNL     1      -4.877  28.259 -31.093  1.00  0.00     0.085 A 
ATOM     22  N   UNL     1      -5.690  28.389 -32.189  1.00  0.00    -0.346 N 
ATOM     23  H   UNL     1      -6.043  29.282 -32.563  1.00  0.00     0.167 HD
ENDBRANCH   7  14
TORSDOF 2
