REMARK SMILES O=C(O)Cc1csc2cc(OCc3ccc(COc4ccc(C(F)(F)F)cc4)cc3)ccc12
REMARK SMILES IDX 12 1 11 2 10 3 5 4 6 5 33 6 7 7 32 8 8 9 31 10 9 11 4 12
REMARK SMILES IDX 2 13 1 14 3 15 13 17 14 18 30 19 15 20 29 21 16 22 17 23
REMARK SMILES IDX 18 24 19 25 20 26 28 27 21 28 27 29 22 30 23 31 24 32 25 33
REMARK SMILES IDX 26 34
REMARK H PARENT 3 16
REMARK INDEX MAP 12 1 11 2 10 3 5 4 6 5 33 6 7 7 32 8 8 9 31 10 9 11 4 12 2 13
REMARK INDEX MAP 1 14 3 15 34 16 13 17 14 18 30 19 15 20 29 21 16 22 17 23
REMARK INDEX MAP 18 24 19 25 20 26 28 27 21 28 27 29 22 30 23 31 24 32 25 33
REMARK INDEX MAP 26 34
ROOT
ATOM      1  C   UNL     1      10.770  11.287  -7.117  1.00  0.00     0.265 C 
ENDROOT
BRANCH   1   2
ATOM      2  O   UNL     1      10.140  11.817  -8.281  1.00  0.00    -0.489 OA
BRANCH   2   3
ATOM      3  C   UNL     1      10.302  11.125  -9.449  1.00  0.00     0.121 A 
ATOM      4  C   UNL     1      10.789   8.785 -12.989  1.00  0.00    -0.018 A 
ATOM      5  C   UNL     1      10.948   9.704 -14.007  1.00  0.00     0.070 A 
ATOM      6  C   UNL     1      10.610   9.439 -11.708  1.00  0.00    -0.004 A 
ATOM      7  S   UNL     1      10.890  11.314 -13.462  1.00  0.00    -0.143 S 
ATOM      8  C   UNL     1      10.413   8.899 -10.413  1.00  0.00     0.014 A 
ATOM      9  C   UNL     1      10.646  10.830 -11.828  1.00  0.00     0.038 A 
ATOM     10  C   UNL     1      10.263   9.743  -9.307  1.00  0.00     0.047 A 
ATOM     11  C   UNL     1      10.494  11.686 -10.714  1.00  0.00     0.066 A 
BRANCH   4  12
ATOM     12  C   UNL     1      10.807   7.295 -13.194  1.00  0.00     0.159 C 
BRANCH  12  13
ATOM     13  C   UNL     1      11.997   6.629 -12.548  1.00  0.00     0.307 C 
ATOM     14  O   UNL     1      12.022   5.623 -11.860  1.00  0.00    -0.252 OA
BRANCH  13  15
ATOM     15  O   UNL     1      13.151   7.271 -12.840  1.00  0.00    -0.481 OA
ATOM     16  H   UNL     1      13.135   8.088 -13.398  1.00  0.00     0.296 HD
ENDBRANCH  13  15
ENDBRANCH  12  13
ENDBRANCH   4  12
ENDBRANCH   2   3
ENDBRANCH   1   2
BRANCH   1  17
ATOM     17  C   UNL     1       9.696  10.983  -6.101  1.00  0.00    -0.011 A 
ATOM     18  C   UNL     1       8.455  10.476  -6.505  1.00  0.00     0.007 A 
ATOM     19  C   UNL     1       9.916  11.233  -4.740  1.00  0.00     0.007 A 
ATOM     20  C   UNL     1       7.459  10.207  -5.563  1.00  0.00     0.007 A 
ATOM     21  C   UNL     1       8.921  10.964  -3.799  1.00  0.00     0.007 A 
ATOM     22  C   UNL     1       7.680  10.456  -4.202  1.00  0.00    -0.011 A 
BRANCH  22  23
ATOM     23  C   UNL     1       6.604  10.155  -3.188  1.00  0.00     0.265 C 
BRANCH  23  24
ATOM     24  O   UNL     1       5.406   9.836  -3.894  1.00  0.00    -0.489 OA
BRANCH  24  25
ATOM     25  C   UNL     1       4.793   8.655  -3.580  1.00  0.00     0.119 A 
ATOM     26  C   UNL     1       4.101   7.826  -4.461  1.00  0.00     0.047 A 
ATOM     27  C   UNL     1       4.900   8.286  -2.237  1.00  0.00     0.047 A 
ATOM     28  C   UNL     1       3.519   6.639  -3.999  1.00  0.00     0.017 A 
ATOM     29  C   UNL     1       4.321   7.103  -1.773  1.00  0.00     0.017 A 
ATOM     30  C   UNL     1       3.615   6.268  -2.650  1.00  0.00     0.056 A 
BRANCH  30  31
ATOM     31  C   UNL     1       3.006   4.977  -2.163  1.00  0.00     0.416 C 
ATOM     32  F   UNL     1       2.396   4.264  -3.152  1.00  0.00    -0.166 F 
ATOM     33  F   UNL     1       2.057   5.180  -1.209  1.00  0.00    -0.166 F 
ATOM     34  F   UNL     1       3.919   4.132  -1.608  1.00  0.00    -0.166 F 
ENDBRANCH  30  31
ENDBRANCH  24  25
ENDBRANCH  23  24
ENDBRANCH  22  23
ENDBRANCH   1  17
TORSDOF 10
