MODEL 8
REMARK VINA RESULT:    -7.758      4.217      9.326
REMARK INTER + INTRA:         -14.897
REMARK INTER:                 -13.504
REMARK INTRA:                  -1.392
REMARK UNBOUND:                -1.243
REMARK SMILES CCCc1c(OCCCSc2ccc(CC(=O)O)cc2Cl)ccc(C(=O)CC)c1O
REMARK SMILES IDX 8 1 7 2 6 3 5 4 4 5 29 6 22 7 24 8 23 9 3 10 2 11 1 12 30 13
REMARK SMILES IDX 25 15 26 16 27 17 28 18 9 19 10 20 11 21 12 22 20 23 13 24
REMARK SMILES IDX 19 25 14 26 21 27 15 28 16 29 17 30 18 31
REMARK H PARENT 30 14 18 32
ROOT
ATOM      1  C   UNL     1      37.252   2.837 133.624  1.00  0.00     0.053 C 
ENDROOT
BRANCH   1   2
ATOM      2  C   UNL     1      37.314   2.315 132.189  1.00  0.00     0.230 C 
BRANCH   2   3
ATOM      3  O   UNL     1      38.366   2.985 131.496  1.00  0.00    -0.493 OA
BRANCH   3   4
ATOM      4  C   UNL     1      39.653   2.576 131.730  1.00  0.00     0.126 A 
ATOM      5  C   UNL     1      40.631   3.589 131.764  1.00  0.00     0.037 A 
ATOM      6  C   UNL     1      41.975   3.233 132.002  1.00  0.00     0.133 A 
ATOM      7  C   UNL     1      40.027   1.247 131.945  1.00  0.00     0.048 A 
ATOM      8  C   UNL     1      42.354   1.892 132.203  1.00  0.00     0.060 A 
ATOM      9  C   UNL     1      41.364   0.906 132.180  1.00  0.00     0.019 A 
BRANCH   5  10
ATOM     10  C   UNL     1      40.259   5.048 131.563  1.00  0.00     0.043 C 
BRANCH  10  11
ATOM     11  C   UNL     1      39.499   5.661 132.745  1.00  0.00     0.002 C 
ATOM     12  C   UNL     1      40.130   5.357 134.095  1.00  0.00     0.004 C 
ENDBRANCH  10  11
ENDBRANCH   5  10
BRANCH   6  13
ATOM     13  O   UNL     1      42.895   4.254 132.023  1.00  0.00    -0.507 OA
ATOM     14  H   UNL     1      42.776   4.798 131.212  1.00  0.00     0.293 HD
ENDBRANCH   6  13
BRANCH   8  15
ATOM     15  C   UNL     1      43.792   1.550 132.441  1.00  0.00     0.166 C 
ATOM     16  O   UNL     1      44.654   2.106 131.758  1.00  0.00    -0.294 OA
BRANCH  15  17
ATOM     17  C   UNL     1      44.182   0.548 133.507  1.00  0.00     0.078 C 
ATOM     18  C   UNL     1      44.309   1.214 134.863  1.00  0.00     0.012 C 
ENDBRANCH  15  17
ENDBRANCH   8  15
ENDBRANCH   3   4
ENDBRANCH   2   3
ENDBRANCH   1   2
BRANCH   1  19
ATOM     19  C   UNL     1      36.100   2.205 134.403  1.00  0.00     0.078 C 
BRANCH  19  20
ATOM     20  S   UNL     1      34.498   2.454 133.555  1.00  0.00    -0.124 SA
BRANCH  20  21
ATOM     21  C   UNL     1      33.497   1.229 134.395  1.00  0.00     0.026 A 
ATOM     22  C   UNL     1      33.864   0.900 135.708  1.00  0.00     0.017 A 
ATOM     23  C   UNL     1      32.407   0.563 133.815  1.00  0.00     0.054 A 
ATOM     24  C   UNL     1      33.142  -0.047 136.440  1.00  0.00     0.005 A 
ATOM     25  C   UNL     1      31.684  -0.387 134.550  1.00  0.00     0.026 A 
ATOM     26  C   UNL     1      32.039  -0.693 135.871  1.00  0.00    -0.035 A 
ATOM     27  Cl  UNL     1      31.897   0.850 132.186  1.00  0.00    -0.083 Cl
BRANCH  26  28
ATOM     28  C   UNL     1      31.269  -1.730 136.654  1.00  0.00     0.158 C 
BRANCH  28  29
ATOM     29  C   UNL     1      31.962  -3.067 136.747  1.00  0.00     0.307 C 
ATOM     30  O   UNL     1      32.769  -3.555 135.975  1.00  0.00    -0.252 OA
BRANCH  29  31
ATOM     31  O   UNL     1      31.592  -3.747 137.853  1.00  0.00    -0.481 OA
ATOM     32  H   UNL     1      30.987  -3.129 138.317  1.00  0.00     0.296 HD
ENDBRANCH  29  31
ENDBRANCH  28  29
ENDBRANCH  26  28
ENDBRANCH  20  21
ENDBRANCH  19  20
ENDBRANCH   1  19
TORSDOF 14
ENDMDL
