MODEL 2
REMARK VINA RESULT:    -8.758      1.860      2.767
REMARK INTER + INTRA:         -11.054
REMARK INTER:                 -10.896
REMARK INTRA:                  -0.157
REMARK UNBOUND:                -0.247
REMARK SMILES CC(=O)Nc1cc2c(-c3cccc(S(=O)(=O)N(C)C)n3)cn(C)c2cn1
REMARK SMILES IDX 9 1 10 2 11 3 12 4 13 5 20 6 8 7 5 8 6 9 26 10 7 11 25 12
REMARK SMILES IDX 24 13 21 14 22 15 23 16 4 17 2 18 3 19 1 20 14 22 15 23
REMARK SMILES IDX 16 24 17 25 18 26 19 27
REMARK H PARENT 4 21
ROOT
ATOM      1  C   UNL     1       4.708 -23.303  21.207  1.00  0.00     0.074 A 
ATOM      2  C   UNL     1       3.907 -22.541  20.349  1.00  0.00     0.029 A 
ATOM      3  C   UNL     1       4.278 -21.229  20.048  1.00  0.00     0.005 A 
ATOM      4  C   UNL     1       5.429 -20.711  20.624  1.00  0.00     0.042 A 
ATOM      5  C   UNL     1       6.141 -21.533  21.502  1.00  0.00     0.171 A 
ATOM      6  N   UNL     1       5.806 -22.805  21.819  1.00  0.00    -0.235 NA
ENDROOT
BRANCH   1   7
ATOM      7  C   UNL     1       4.424 -24.714  21.468  1.00  0.00     0.026 A 
ATOM      8  C   UNL     1       6.631 -26.808  23.762  1.00  0.00     0.133 A 
ATOM      9  C   UNL     1       6.279 -25.657  23.062  1.00  0.00     0.058 A 
ATOM     10  N   UNL     1       5.916 -27.933  23.704  1.00  0.00    -0.237 NA
ATOM     11  C   UNL     1       5.119 -25.676  22.277  1.00  0.00     0.014 A 
ATOM     12  C   UNL     1       4.793 -27.984  22.966  1.00  0.00     0.140 A 
ATOM     13  C   UNL     1       4.386 -26.860  22.256  1.00  0.00     0.067 A 
ATOM     14  C   UNL     1       3.290 -25.348  20.995  1.00  0.00     0.096 A 
ATOM     15  N   UNL     1       3.280 -26.633  21.470  1.00  0.00    -0.349 N 
ATOM     16  C   UNL     1       2.221 -27.590  21.239  1.00  0.00     0.149 C 
BRANCH   8  17
ATOM     17  N   UNL     1       7.789 -26.741  24.549  1.00  0.00    -0.311 N 
ATOM     18  C   UNL     1       8.892 -25.956  24.302  1.00  0.00     0.222 C 
ATOM     19  O   UNL     1       9.076 -25.194  23.360  1.00  0.00    -0.275 OA
ATOM     20  C   UNL     1       9.938 -26.092  25.380  1.00  0.00     0.114 C 
ATOM     21  H   UNL     1       7.826 -27.355  25.355  1.00  0.00     0.171 HD
ENDBRANCH   8  17
ENDBRANCH   1   7
BRANCH   5  22
ATOM     22  S   UNL     1       7.623 -20.918  22.321  1.00  0.00     0.260 S 
ATOM     23  O   UNL     1       7.310 -19.654  22.934  1.00  0.00    -0.205 OA
ATOM     24  O   UNL     1       8.161 -22.010  23.126  1.00  0.00    -0.205 OA
BRANCH  22  25
ATOM     25  N   UNL     1       8.727 -20.640  21.045  1.00  0.00    -0.203 NA
ATOM     26  C   UNL     1       9.927 -21.497  21.041  1.00  0.00     0.124 C 
ATOM     27  C   UNL     1       9.007 -19.231  20.713  1.00  0.00     0.124 C 
ENDBRANCH  22  25
ENDBRANCH   5  22
TORSDOF 4
ENDMDL
