MODEL 5
REMARK VINA RESULT:    -8.419      1.777      1.997
REMARK INTER + INTRA:         -10.634
REMARK INTER:                 -10.370
REMARK INTRA:                  -0.265
REMARK UNBOUND:                -0.247
REMARK SMILES CC(=O)Nc1cc2c(-c3cccc(S(=O)(=O)N(C)C)n3)cn(C)c2cn1
REMARK SMILES IDX 9 1 10 2 11 3 12 4 13 5 20 6 8 7 5 8 6 9 26 10 7 11 25 12
REMARK SMILES IDX 24 13 21 14 22 15 23 16 4 17 2 18 3 19 1 20 14 22 15 23
REMARK SMILES IDX 16 24 17 25 18 26 19 27
REMARK H PARENT 4 21
ROOT
ATOM      1  C   UNL     1       5.141 -22.357  20.770  1.00  0.00     0.074 A 
ATOM      2  C   UNL     1       6.365 -22.017  20.182  1.00  0.00     0.029 A 
ATOM      3  C   UNL     1       6.676 -20.671  19.973  1.00  0.00     0.005 A 
ATOM      4  C   UNL     1       5.751 -19.706  20.342  1.00  0.00     0.042 A 
ATOM      5  C   UNL     1       4.538 -20.143  20.882  1.00  0.00     0.171 A 
ATOM      6  N   UNL     1       4.203 -21.437  21.093  1.00  0.00    -0.235 NA
ENDROOT
BRANCH   1   7
ATOM      7  C   UNL     1       4.814 -23.740  21.111  1.00  0.00     0.026 A 
ATOM      8  C   UNL     1       6.974 -25.777  23.499  1.00  0.00     0.133 A 
ATOM      9  C   UNL     1       6.653 -24.655  22.740  1.00  0.00     0.058 A 
ATOM     10  N   UNL     1       6.222 -26.879  23.510  1.00  0.00    -0.237 NA
ATOM     11  C   UNL     1       5.486 -24.679  21.967  1.00  0.00     0.014 A 
ATOM     12  C   UNL     1       5.090 -26.933  22.785  1.00  0.00     0.140 A 
ATOM     13  C   UNL     1       4.714 -25.837  22.018  1.00  0.00     0.067 A 
ATOM     14  C   UNL     1       3.655 -24.361  20.684  1.00  0.00     0.096 A 
ATOM     15  N   UNL     1       3.608 -25.617  21.229  1.00  0.00    -0.349 N 
ATOM     16  C   UNL     1       2.515 -26.550  21.060  1.00  0.00     0.149 C 
BRANCH   8  17
ATOM     17  N   UNL     1       8.142 -25.705  24.272  1.00  0.00    -0.311 N 
ATOM     18  C   UNL     1       8.703 -26.737  24.988  1.00  0.00     0.222 C 
ATOM     19  O   UNL     1       8.293 -27.887  25.099  1.00  0.00    -0.275 OA
ATOM     20  C   UNL     1       9.986 -26.325  25.667  1.00  0.00     0.114 C 
ATOM     21  H   UNL     1       8.589 -24.799  24.334  1.00  0.00     0.171 HD
ENDBRANCH   8  17
ENDBRANCH   1   7
BRANCH   5  22
ATOM     22  S   UNL     1       3.269 -18.952  21.347  1.00  0.00     0.260 S 
ATOM     23  O   UNL     1       2.004 -19.637  21.404  1.00  0.00    -0.205 OA
ATOM     24  O   UNL     1       3.761 -18.224  22.512  1.00  0.00    -0.205 OA
BRANCH  22  25
ATOM     25  N   UNL     1       3.226 -17.848  20.042  1.00  0.00    -0.203 NA
ATOM     26  C   UNL     1       3.926 -16.570  20.265  1.00  0.00     0.124 C 
ATOM     27  C   UNL     1       1.934 -17.700  19.348  1.00  0.00     0.124 C 
ENDBRANCH  22  25
ENDBRANCH   5  22
TORSDOF 4
ENDMDL
