MODEL 1
REMARK minimizedAffinity -9.32666874
REMARK CNNscore 0.876361668
REMARK CNNaffinity 7.54373932
REMARK SMILES N=C(N)c1ccc(O)c(CN2CC[C@H](NS(=O)(=O)c3cc4ncccc4s3)C2=O)c1
REMARK SMILES IDX 11 1 12 2 13 3 14 4 28 5 29 6 10 7 9 8 4 9 5 10 30 11 6 12
REMARK SMILES IDX 7 13 2 14 1 15 3 16 8 20 15 22 16 24 17 25 18 26 19 27 20 28
REMARK SMILES IDX 27 29 21 30 26 31 22 32 25 33 23 34 24 35
REMARK H PARENT 1 17 3 18 3 19 8 21 15 23
ROOT
ATOM      1  N   UNL     1      -5.019  10.694  20.924  1.00  0.00    -0.337 N 
ATOM      2  C   UNL     1      -4.489  11.194  19.682  1.00  0.00     0.122 C 
ATOM      3  C   UNL     1      -2.999  11.318  19.952  1.00  0.00     0.051 C 
ATOM      4  C   UNL     1      -2.923  11.606  21.450  1.00  0.00     0.161 C 
ATOM      5  C   UNL     1      -4.144  10.876  21.975  1.00  0.00     0.241 C 
ATOM      6  O   UNL     1      -4.316  10.500  23.127  1.00  0.00    -0.273 OA
ENDROOT
BRANCH   1   7
ATOM      7  C   UNL     1      -6.324  10.074  21.045  1.00  0.00     0.159 C 
BRANCH   7   8
ATOM      8  C   UNL     1      -6.730   9.376  19.773  1.00  0.00     0.014 A 
ATOM      9  C   UNL     1      -6.603   7.401  18.345  1.00  0.00     0.017 A 
ATOM     10  C   UNL     1      -7.385   8.033  17.378  1.00  0.00     0.016 A 
ATOM     11  C   UNL     1      -6.278   8.064  19.536  1.00  0.00     0.021 A 
ATOM     12  C   UNL     1      -7.850   9.327  17.610  1.00  0.00     0.047 A 
ATOM     13  C   UNL     1      -7.536   9.984  18.800  1.00  0.00     0.120 A 
BRANCH   9  14
ATOM     14  C   UNL     1      -6.107   6.020  18.115  1.00  0.00     0.122 C 
ATOM     15  N   UNL     1      -4.897   5.666  18.409  1.00  0.00    -0.284 NA
ATOM     16  N   UNL     1      -6.922   5.082  17.578  1.00  0.00    -0.384 N 
ATOM     17  H   UNL     1      -4.381   6.441  18.836  1.00  0.00     0.189 HD
ATOM     18  H   UNL     1      -6.519   4.167  17.417  1.00  0.00     0.158 HD
ATOM     19  H   UNL     1      -7.824   5.292  17.178  1.00  0.00     0.158 HD
ENDBRANCH   9  14
BRANCH  13  20
ATOM     20  O   UNL     1      -8.050  11.242  18.933  1.00  0.00    -0.508 OA
ATOM     21  H   UNL     1      -8.202  11.453  19.878  1.00  0.00     0.293 HD
ENDBRANCH  13  20
ENDBRANCH   7   8
ENDBRANCH   1   7
BRANCH   4  22
ATOM     22  N   UNL     1      -1.698  11.045  22.037  1.00  0.00    -0.198 NA
ATOM     23  H   UNL     1      -1.682  10.024  22.115  1.00  0.00     0.142 HD
BRANCH  22  24
ATOM     24  S   UNL     1      -1.107  11.798  23.417  1.00  0.00     0.250 S 
ATOM     25  O   UNL     1       0.326  11.880  23.266  1.00  0.00    -0.206 OA
ATOM     26  O   UNL     1      -1.944  12.949  23.676  1.00  0.00    -0.206 OA
BRANCH  24  27
ATOM     27  C   UNL     1      -1.358  10.689  24.779  1.00  0.00     0.137 A 
ATOM     28  C   UNL     1      -2.336  10.606  25.747  1.00  0.00     0.062 A 
ATOM     29  S   UNL     1      -0.194   9.449  24.946  1.00  0.00    -0.121 S 
ATOM     30  C   UNL     1      -2.116   9.529  26.650  1.00  0.00     0.082 A 
ATOM     31  C   UNL     1      -0.971   8.800  26.332  1.00  0.00     0.054 A 
ATOM     32  N   UNL     1      -2.916   9.224  27.708  1.00  0.00    -0.255 NA
ATOM     33  C   UNL     1      -0.601   7.697  27.112  1.00  0.00     0.023 A 
ATOM     34  C   UNL     1      -2.535   8.157  28.438  1.00  0.00     0.112 A 
ATOM     35  C   UNL     1      -1.417   7.379  28.193  1.00  0.00     0.022 A 
ENDBRANCH  24  27
ENDBRANCH  22  24
ENDBRANCH   4  22
TORSDOF 7
ENDMDL
MODEL 2
REMARK minimizedAffinity -9.82744789
REMARK CNNscore 0.864037275
REMARK CNNaffinity 7.476583
REMARK SMILES N=C(N)c1ccc(O)c(CN2CC[C@H](NS(=O)(=O)c3cc4ncccc4s3)C2=O)c1
REMARK SMILES IDX 11 1 12 2 13 3 14 4 28 5 29 6 10 7 9 8 4 9 5 10 30 11 6 12
REMARK SMILES IDX 7 13 2 14 1 15 3 16 8 20 15 22 16 24 17 25 18 26 19 27 20 28
REMARK SMILES IDX 27 29 21 30 26 31 22 32 25 33 23 34 24 35
REMARK H PARENT 1 17 3 18 3 19 8 21 15 23
ROOT
ATOM      1  N   UNL     1      -3.329  11.808  23.618  1.00  0.00    -0.337 N 
ATOM      2  C   UNL     1      -3.074  10.594  22.885  1.00  0.00     0.122 C 
ATOM      3  C   UNL     1      -3.761  10.831  21.550  1.00  0.00     0.051 C 
ATOM      4  C   UNL     1      -4.925  11.756  21.898  1.00  0.00     0.161 C 
ATOM      5  C   UNL     1      -4.368  12.536  23.074  1.00  0.00     0.241 C 
ATOM      6  O   UNL     1      -4.761  13.627  23.463  1.00  0.00    -0.273 OA
ENDROOT
BRANCH   1   7
ATOM      7  C   UNL     1      -2.576  12.207  24.790  1.00  0.00     0.159 C 
BRANCH   7   8
ATOM      8  C   UNL     1      -1.850  11.042  25.411  1.00  0.00     0.014 A 
ATOM      9  C   UNL     1      -1.822   9.237  27.053  1.00  0.00     0.017 A 
ATOM     10  C   UNL     1      -0.523   8.896  26.677  1.00  0.00     0.016 A 
ATOM     11  C   UNL     1      -2.485  10.301  26.425  1.00  0.00     0.021 A 
ATOM     12  C   UNL     1       0.109   9.616  25.663  1.00  0.00     0.047 A 
ATOM     13  C   UNL     1      -0.555  10.667  25.030  1.00  0.00     0.120 A 
BRANCH   9  14
ATOM     14  C   UNL     1      -2.510   8.475  28.127  1.00  0.00     0.122 C 
ATOM     15  N   UNL     1      -3.659   8.838  28.600  1.00  0.00    -0.284 NA
ATOM     16  N   UNL     1      -1.938   7.364  28.649  1.00  0.00    -0.384 N 
ATOM     17  H   UNL     1      -4.011   9.668  28.114  1.00  0.00     0.189 HD
ATOM     18  H   UNL     1      -2.440   6.904  29.398  1.00  0.00     0.158 HD
ATOM     19  H   UNL     1      -0.988   7.086  28.458  1.00  0.00     0.158 HD
ENDBRANCH   9  14
BRANCH  13  20
ATOM     20  O   UNL     1       0.148  11.299  24.043  1.00  0.00    -0.508 OA
ATOM     21  H   UNL     1      -0.462  11.664  23.368  1.00  0.00     0.293 HD
ENDBRANCH  13  20
ENDBRANCH   7   8
ENDBRANCH   1   7
BRANCH   4  22
ATOM     22  N   UNL     1      -5.234  12.662  20.784  1.00  0.00    -0.198 NA
ATOM     23  H   UNL     1      -5.226  13.659  21.018  1.00  0.00     0.142 HD
BRANCH  22  24
ATOM     24  S   UNL     1      -6.542  12.248  19.814  1.00  0.00     0.250 S 
ATOM     25  O   UNL     1      -7.704  12.226  20.668  1.00  0.00    -0.206 OA
ATOM     26  O   UNL     1      -6.458  13.044  18.609  1.00  0.00    -0.206 OA
BRANCH  24  27
ATOM     27  C   UNL     1      -6.318  10.563  19.307  1.00  0.00     0.137 A 
ATOM     28  C   UNL     1      -5.457   9.963  18.412  1.00  0.00     0.062 A 
ATOM     29  S   UNL     1      -7.331   9.420  20.073  1.00  0.00    -0.121 S 
ATOM     30  C   UNL     1      -5.646   8.555  18.334  1.00  0.00     0.082 A 
ATOM     31  C   UNL     1      -6.647   8.112  19.197  1.00  0.00     0.054 A 
ATOM     32  N   UNL     1      -4.945   7.719  17.523  1.00  0.00    -0.255 NA
ATOM     33  C   UNL     1      -6.968   6.749  19.259  1.00  0.00     0.023 A 
ATOM     34  C   UNL     1      -5.274   6.415  17.607  1.00  0.00     0.112 A 
ATOM     35  C   UNL     1      -6.251   5.888  18.433  1.00  0.00     0.022 A 
ENDBRANCH  24  27
ENDBRANCH  22  24
ENDBRANCH   4  22
TORSDOF 7
ENDMDL
MODEL 3
REMARK minimizedAffinity -9.81197739
REMARK CNNscore 0.835763276
REMARK CNNaffinity 7.72288132
REMARK SMILES N=C(N)c1ccc(O)c(CN2CC[C@H](NS(=O)(=O)c3cc4ncccc4s3)C2=O)c1
REMARK SMILES IDX 11 1 12 2 13 3 14 4 28 5 29 6 10 7 9 8 4 9 5 10 30 11 6 12
REMARK SMILES IDX 7 13 2 14 1 15 3 16 8 20 15 22 16 24 17 25 18 26 19 27 20 28
REMARK SMILES IDX 27 29 21 30 26 31 22 32 25 33 23 34 24 35
REMARK H PARENT 1 17 3 18 3 19 8 21 15 23
ROOT
ATOM      1  N   UNL     1      -2.686  11.215  20.727  1.00  0.00    -0.337 N 
ATOM      2  C   UNL     1      -1.975  10.020  21.106  1.00  0.00     0.122 C 
ATOM      3  C   UNL     1      -1.372  10.375  22.455  1.00  0.00     0.051 C 
ATOM      4  C   UNL     1      -1.150  11.884  22.370  1.00  0.00     0.161 C 
ATOM      5  C   UNL     1      -2.274  12.317  21.448  1.00  0.00     0.241 C 
ATOM      6  O   UNL     1      -2.743  13.444  21.368  1.00  0.00    -0.273 OA
ENDROOT
BRANCH   1   7
ATOM      7  C   UNL     1      -3.715  11.243  19.706  1.00  0.00     0.159 C 
BRANCH   7   8
ATOM      8  C   UNL     1      -4.656  10.073  19.828  1.00  0.00     0.014 A 
ATOM      9  C   UNL     1      -5.442   7.930  18.966  1.00  0.00     0.017 A 
ATOM     10  C   UNL     1      -6.436   7.885  19.945  1.00  0.00     0.016 A 
ATOM     11  C   UNL     1      -4.556   9.013  18.907  1.00  0.00     0.021 A 
ATOM     12  C   UNL     1      -6.533   8.923  20.871  1.00  0.00     0.047 A 
ATOM     13  C   UNL     1      -5.644   9.997  20.819  1.00  0.00     0.120 A 
BRANCH   9  14
ATOM     14  C   UNL     1      -5.322   6.828  17.978  1.00  0.00     0.122 C 
ATOM     15  N   UNL     1      -5.339   5.583  18.330  1.00  0.00    -0.284 NA
ATOM     16  N   UNL     1      -5.184   7.106  16.659  1.00  0.00    -0.384 N 
ATOM     17  H   UNL     1      -5.479   5.488  19.340  1.00  0.00     0.189 HD
ATOM     18  H   UNL     1      -5.077   6.314  16.037  1.00  0.00     0.158 HD
ATOM     19  H   UNL     1      -5.009   8.032  16.301  1.00  0.00     0.158 HD
ENDBRANCH   9  14
BRANCH  13  20
ATOM     20  O   UNL     1      -5.818  10.954  21.778  1.00  0.00    -0.508 OA
ATOM     21  H   UNL     1      -4.965  11.390  21.987  1.00  0.00     0.293 HD
ENDBRANCH  13  20
ENDBRANCH   7   8
ENDBRANCH   1   7
BRANCH   4  22
ATOM     22  N   UNL     1      -1.296  12.516  23.688  1.00  0.00    -0.198 NA
ATOM     23  H   UNL     1      -0.459  12.490  24.277  1.00  0.00     0.142 HD
BRANCH  22  24
ATOM     24  S   UNL     1      -2.692  12.156  24.549  1.00  0.00     0.250 S 
ATOM     25  O   UNL     1      -2.919  13.257  25.455  1.00  0.00    -0.206 OA
ATOM     26  O   UNL     1      -3.681  11.693  23.600  1.00  0.00    -0.206 OA
BRANCH  24  27
ATOM     27  C   UNL     1      -2.330  10.772  25.598  1.00  0.00     0.137 A 
ATOM     28  C   UNL     1      -3.032  10.164  26.617  1.00  0.00     0.062 A 
ATOM     29  S   UNL     1      -0.837   9.994  25.306  1.00  0.00    -0.121 S 
ATOM     30  C   UNL     1      -2.329   9.063  27.181  1.00  0.00     0.082 A 
ATOM     31  C   UNL     1      -1.101   8.849  26.557  1.00  0.00     0.054 A 
ATOM     32  N   UNL     1      -2.781   8.294  28.208  1.00  0.00    -0.255 NA
ATOM     33  C   UNL     1      -0.272   7.801  26.979  1.00  0.00     0.023 A 
ATOM     34  C   UNL     1      -1.963   7.294  28.590  1.00  0.00     0.112 A 
ATOM     35  C   UNL     1      -0.731   7.009  28.027  1.00  0.00     0.022 A 
ENDBRANCH  24  27
ENDBRANCH  22  24
ENDBRANCH   4  22
TORSDOF 7
ENDMDL
MODEL 4
REMARK minimizedAffinity -10.0965776
REMARK CNNscore 0.828076184
REMARK CNNaffinity 7.23730278
REMARK SMILES N=C(N)c1ccc(O)c(CN2CC[C@H](NS(=O)(=O)c3cc4ncccc4s3)C2=O)c1
REMARK SMILES IDX 11 1 12 2 13 3 14 4 28 5 29 6 10 7 9 8 4 9 5 10 30 11 6 12
REMARK SMILES IDX 7 13 2 14 1 15 3 16 8 20 15 22 16 24 17 25 18 26 19 27 20 28
REMARK SMILES IDX 27 29 21 30 26 31 22 32 25 33 23 34 24 35
REMARK H PARENT 1 17 3 18 3 19 8 21 15 23
ROOT
ATOM      1  N   UNL     1      -3.375  11.737  23.614  1.00  0.00    -0.337 N 
ATOM      2  C   UNL     1      -3.067  10.513  22.920  1.00  0.00     0.122 C 
ATOM      3  C   UNL     1      -3.606  10.751  21.519  1.00  0.00     0.051 C 
ATOM      4  C   UNL     1      -4.782  11.700  21.737  1.00  0.00     0.161 C 
ATOM      5  C   UNL     1      -4.337  12.479  22.960  1.00  0.00     0.241 C 
ATOM      6  O   UNL     1      -4.748  13.581  23.298  1.00  0.00    -0.273 OA
ENDROOT
BRANCH   1   7
ATOM      7  C   UNL     1      -2.742  12.132  24.857  1.00  0.00     0.159 C 
BRANCH   7   8
ATOM      8  C   UNL     1      -1.965  10.999  25.474  1.00  0.00     0.014 A 
ATOM      9  C   UNL     1      -1.854   9.199  27.118  1.00  0.00     0.017 A 
ATOM     10  C   UNL     1      -0.544   8.909  26.732  1.00  0.00     0.016 A 
ATOM     11  C   UNL     1      -2.562  10.234  26.494  1.00  0.00     0.021 A 
ATOM     12  C   UNL     1       0.050   9.651  25.712  1.00  0.00     0.047 A 
ATOM     13  C   UNL     1      -0.659  10.674  25.083  1.00  0.00     0.120 A 
BRANCH   9  14
ATOM     14  C   UNL     1      -2.502   8.412  28.198  1.00  0.00     0.122 C 
ATOM     15  N   UNL     1      -3.644   8.750  28.705  1.00  0.00    -0.284 NA
ATOM     16  N   UNL     1      -1.900   7.304  28.691  1.00  0.00    -0.384 N 
ATOM     17  H   UNL     1      -4.021   9.581  28.239  1.00  0.00     0.189 HD
ATOM     18  H   UNL     1      -2.376   6.826  29.447  1.00  0.00     0.158 HD
ATOM     19  H   UNL     1      -0.950   7.043  28.474  1.00  0.00     0.158 HD
ENDBRANCH   9  14
BRANCH  13  20
ATOM     20  O   UNL     1       0.010  11.332  24.090  1.00  0.00    -0.508 OA
ATOM     21  H   UNL     1      -0.619  11.671  23.419  1.00  0.00     0.293 HD
ENDBRANCH  13  20
ENDBRANCH   7   8
ENDBRANCH   1   7
BRANCH   4  22
ATOM     22  N   UNL     1      -4.955  12.602  20.590  1.00  0.00    -0.198 NA
ATOM     23  H   UNL     1      -5.888  13.014  20.498  1.00  0.00     0.142 HD
BRANCH  22  24
ATOM     24  S   UNL     1      -4.344  12.076  19.116  1.00  0.00     0.250 S 
ATOM     25  O   UNL     1      -5.030  12.824  18.090  1.00  0.00    -0.206 OA
ATOM     26  O   UNL     1      -2.904  12.030  19.235  1.00  0.00    -0.206 OA
BRANCH  24  27
ATOM     27  C   UNL     1      -4.874  10.399  18.886  1.00  0.00     0.137 A 
ATOM     28  C   UNL     1      -4.203   9.195  18.919  1.00  0.00     0.062 A 
ATOM     29  S   UNL     1      -6.544  10.186  18.587  1.00  0.00    -0.121 S 
ATOM     30  C   UNL     1      -5.061   8.087  18.673  1.00  0.00     0.082 A 
ATOM     31  C   UNL     1      -6.384   8.480  18.473  1.00  0.00     0.054 A 
ATOM     32  N   UNL     1      -4.663   6.787  18.633  1.00  0.00    -0.255 NA
ATOM     33  C   UNL     1      -7.372   7.519  18.221  1.00  0.00     0.023 A 
ATOM     34  C   UNL     1      -5.635   5.887  18.391  1.00  0.00     0.112 A 
ATOM     35  C   UNL     1      -6.970   6.188  18.183  1.00  0.00     0.022 A 
ENDBRANCH  24  27
ENDBRANCH  22  24
ENDBRANCH   4  22
TORSDOF 7
ENDMDL
MODEL 5
REMARK minimizedAffinity -8.97262192
REMARK CNNscore 0.685684025
REMARK CNNaffinity 7.12225676
REMARK SMILES N=C(N)c1ccc(O)c(CN2CC[C@H](NS(=O)(=O)c3cc4ncccc4s3)C2=O)c1
REMARK SMILES IDX 11 1 12 2 13 3 14 4 28 5 29 6 10 7 9 8 4 9 5 10 30 11 6 12
REMARK SMILES IDX 7 13 2 14 1 15 3 16 8 20 15 22 16 24 17 25 18 26 19 27 20 28
REMARK SMILES IDX 27 29 21 30 26 31 22 32 25 33 23 34 24 35
REMARK H PARENT 1 17 3 18 3 19 8 21 15 23
ROOT
ATOM      1  N   UNL     1      -0.789  11.502  21.851  1.00  0.00    -0.337 N 
ATOM      2  C   UNL     1      -0.285  12.607  21.077  1.00  0.00     0.122 C 
ATOM      3  C   UNL     1      -1.499  13.080  20.295  1.00  0.00     0.051 C 
ATOM      4  C   UNL     1      -2.330  11.812  20.109  1.00  0.00     0.161 C 
ATOM      5  C   UNL     1      -1.985  11.022  21.357  1.00  0.00     0.241 C 
ATOM      6  O   UNL     1      -2.658  10.127  21.849  1.00  0.00    -0.273 OA
ENDROOT
BRANCH   1   7
ATOM      7  C   UNL     1      -0.110  10.964  23.013  1.00  0.00     0.159 C 
BRANCH   7   8
ATOM      8  C   UNL     1      -1.010  10.928  24.220  1.00  0.00     0.014 A 
ATOM      9  C   UNL     1      -1.781   9.749  26.213  1.00  0.00     0.017 A 
ATOM     10  C   UNL     1      -2.719  10.752  26.461  1.00  0.00     0.016 A 
ATOM     11  C   UNL     1      -0.930   9.835  25.103  1.00  0.00     0.021 A 
ATOM     12  C   UNL     1      -2.796  11.847  25.600  1.00  0.00     0.047 A 
ATOM     13  C   UNL     1      -1.941  11.938  24.501  1.00  0.00     0.120 A 
BRANCH   9  14
ATOM     14  C   UNL     1      -1.683   8.581  27.125  1.00  0.00     0.122 C 
ATOM     15  N   UNL     1      -0.876   7.595  26.896  1.00  0.00    -0.284 NA
ATOM     16  N   UNL     1      -2.453   8.517  28.237  1.00  0.00    -0.384 N 
ATOM     17  H   UNL     1      -0.323   7.762  26.050  1.00  0.00     0.189 HD
ATOM     18  H   UNL     1      -2.363   7.683  28.805  1.00  0.00     0.158 HD
ATOM     19  H   UNL     1      -3.213   9.153  28.426  1.00  0.00     0.158 HD
ENDBRANCH   9  14
BRANCH  13  20
ATOM     20  O   UNL     1      -2.090  13.054  23.728  1.00  0.00    -0.508 OA
ATOM     21  H   UNL     1      -1.240  13.293  23.303  1.00  0.00     0.293 HD
ENDBRANCH  13  20
ENDBRANCH   7   8
ENDBRANCH   1   7
BRANCH   4  22
ATOM     22  N   UNL     1      -3.766  12.119  20.076  1.00  0.00    -0.198 NA
ATOM     23  H   UNL     1      -4.309  11.740  20.857  1.00  0.00     0.142 HD
BRANCH  22  24
ATOM     24  S   UNL     1      -4.548  11.922  18.603  1.00  0.00     0.250 S 
ATOM     25  O   UNL     1      -5.793  12.647  18.691  1.00  0.00    -0.206 OA
ATOM     26  O   UNL     1      -3.572  12.145  17.560  1.00  0.00    -0.206 OA
BRANCH  24  27
ATOM     27  C   UNL     1      -5.025  10.218  18.476  1.00  0.00     0.137 A 
ATOM     28  C   UNL     1      -4.375   9.041  18.785  1.00  0.00     0.062 A 
ATOM     29  S   UNL     1      -6.601   9.933  17.880  1.00  0.00    -0.121 S 
ATOM     30  C   UNL     1      -5.169   7.893  18.508  1.00  0.00     0.082 A 
ATOM     31  C   UNL     1      -6.424   8.231  18.005  1.00  0.00     0.054 A 
ATOM     32  N   UNL     1      -4.772   6.607  18.704  1.00  0.00    -0.255 NA
ATOM     33  C   UNL     1      -7.345   7.225  17.680  1.00  0.00     0.023 A 
ATOM     34  C   UNL     1      -5.679   5.663  18.384  1.00  0.00     0.112 A 
ATOM     35  C   UNL     1      -6.945   5.907  17.882  1.00  0.00     0.022 A 
ENDBRANCH  24  27
ENDBRANCH  22  24
ENDBRANCH   4  22
TORSDOF 7
ENDMDL
MODEL 6
REMARK minimizedAffinity -10.0419083
REMARK CNNscore 0.648282111
REMARK CNNaffinity 7.33113098
REMARK SMILES N=C(N)c1ccc(O)c(CN2CC[C@H](NS(=O)(=O)c3cc4ncccc4s3)C2=O)c1
REMARK SMILES IDX 11 1 12 2 13 3 14 4 28 5 29 6 10 7 9 8 4 9 5 10 30 11 6 12
REMARK SMILES IDX 7 13 2 14 1 15 3 16 8 20 15 22 16 24 17 25 18 26 19 27 20 28
REMARK SMILES IDX 27 29 21 30 26 31 22 32 25 33 23 34 24 35
REMARK H PARENT 1 17 3 18 3 19 8 21 15 23
ROOT
ATOM      1  N   UNL     1      -1.453  10.868  23.941  1.00  0.00    -0.337 N 
ATOM      2  C   UNL     1      -2.870  10.639  24.069  1.00  0.00     0.122 C 
ATOM      3  C   UNL     1      -3.374  10.708  22.637  1.00  0.00     0.051 C 
ATOM      4  C   UNL     1      -2.409  11.676  21.956  1.00  0.00     0.161 C 
ATOM      5  C   UNL     1      -1.124  11.435  22.727  1.00  0.00     0.241 C 
ATOM      6  O   UNL     1       0.007  11.687  22.334  1.00  0.00    -0.273 OA
ENDROOT
BRANCH   1   7
ATOM      7  C   UNL     1      -0.494  10.536  24.976  1.00  0.00     0.159 C 
BRANCH   7   8
ATOM      8  C   UNL     1      -1.121   9.729  26.082  1.00  0.00     0.014 A 
ATOM      9  C   UNL     1      -1.200   7.652  27.362  1.00  0.00     0.017 A 
ATOM     10  C   UNL     1      -2.295   8.125  28.087  1.00  0.00     0.016 A 
ATOM     11  C   UNL     1      -0.614   8.447  26.368  1.00  0.00     0.021 A 
ATOM     12  C   UNL     1      -2.796   9.399  27.821  1.00  0.00     0.047 A 
ATOM     13  C   UNL     1      -2.205  10.195  26.838  1.00  0.00     0.120 A 
BRANCH   9  14
ATOM     14  C   UNL     1      -0.653   6.300  27.639  1.00  0.00     0.122 C 
ATOM     15  N   UNL     1      -0.248   5.515  26.693  1.00  0.00    -0.284 NA
ATOM     16  N   UNL     1      -0.565   5.847  28.912  1.00  0.00    -0.384 N 
ATOM     17  H   UNL     1      -0.330   5.968  25.779  1.00  0.00     0.189 HD
ATOM     18  H   UNL     1      -0.211   4.906  29.037  1.00  0.00     0.158 HD
ATOM     19  H   UNL     1      -0.988   6.314  29.700  1.00  0.00     0.158 HD
ENDBRANCH   9  14
BRANCH  13  20
ATOM     20  O   UNL     1      -2.763  11.429  26.664  1.00  0.00    -0.508 OA
ATOM     21  H   UNL     1      -2.091  12.069  26.349  1.00  0.00     0.293 HD
ENDBRANCH  13  20
ENDBRANCH   7   8
ENDBRANCH   1   7
BRANCH   4  22
ATOM     22  N   UNL     1      -2.227  11.334  20.539  1.00  0.00    -0.198 NA
ATOM     23  H   UNL     1      -1.318  11.592  20.143  1.00  0.00     0.142 HD
BRANCH  22  24
ATOM     24  S   UNL     1      -3.498  11.700  19.504  1.00  0.00     0.250 S 
ATOM     25  O   UNL     1      -4.444  12.480  20.264  1.00  0.00    -0.206 OA
ATOM     26  O   UNL     1      -2.925  12.147  18.253  1.00  0.00    -0.206 OA
BRANCH  24  27
ATOM     27  C   UNL     1      -4.346  10.184  19.144  1.00  0.00     0.137 A 
ATOM     28  C   UNL     1      -4.239   9.276  18.111  1.00  0.00     0.062 A 
ATOM     29  S   UNL     1      -5.518   9.702  20.291  1.00  0.00    -0.121 S 
ATOM     30  C   UNL     1      -5.144   8.187  18.247  1.00  0.00     0.082 A 
ATOM     31  C   UNL     1      -5.914   8.285  19.405  1.00  0.00     0.054 A 
ATOM     32  N   UNL     1      -5.262   7.158  17.366  1.00  0.00    -0.255 NA
ATOM     33  C   UNL     1      -6.858   7.295  19.707  1.00  0.00     0.023 A 
ATOM     34  C   UNL     1      -6.176   6.220  17.685  1.00  0.00     0.112 A 
ATOM     35  C   UNL     1      -6.980   6.238  18.811  1.00  0.00     0.022 A 
ENDBRANCH  24  27
ENDBRANCH  22  24
ENDBRANCH   4  22
TORSDOF 7
ENDMDL
MODEL 7
REMARK minimizedAffinity -9.94088745
REMARK CNNscore 0.621297777
REMARK CNNaffinity 6.9103446
REMARK SMILES N=C(N)c1ccc(O)c(CN2CC[C@H](NS(=O)(=O)c3cc4ncccc4s3)C2=O)c1
REMARK SMILES IDX 11 1 12 2 13 3 14 4 28 5 29 6 10 7 9 8 4 9 5 10 30 11 6 12
REMARK SMILES IDX 7 13 2 14 1 15 3 16 8 20 15 22 16 24 17 25 18 26 19 27 20 28
REMARK SMILES IDX 27 29 21 30 26 31 22 32 25 33 23 34 24 35
REMARK H PARENT 1 17 3 18 3 19 8 21 15 23
ROOT
ATOM      1  N   UNL     1      -2.883  11.386  20.367  1.00  0.00    -0.337 N 
ATOM      2  C   UNL     1      -3.485  10.599  21.413  1.00  0.00     0.122 C 
ATOM      3  C   UNL     1      -2.346  10.375  22.393  1.00  0.00     0.051 C 
ATOM      4  C   UNL     1      -1.099  10.379  21.511  1.00  0.00     0.161 C 
ATOM      5  C   UNL     1      -1.505  11.322  20.395  1.00  0.00     0.241 C 
ATOM      6  O   UNL     1      -0.742  11.932  19.657  1.00  0.00    -0.273 OA
ENDROOT
BRANCH   1   7
ATOM      7  C   UNL     1      -3.647  12.152  19.402  1.00  0.00     0.159 C 
BRANCH   7   8
ATOM      8  C   UNL     1      -4.185  11.281  18.297  1.00  0.00     0.014 A 
ATOM      9  C   UNL     1      -5.019   9.104  17.576  1.00  0.00     0.017 A 
ATOM     10  C   UNL     1      -5.127   9.564  16.264  1.00  0.00     0.016 A 
ATOM     11  C   UNL     1      -4.554   9.954  18.588  1.00  0.00     0.021 A 
ATOM     12  C   UNL     1      -4.778  10.881  15.968  1.00  0.00     0.047 A 
ATOM     13  C   UNL     1      -4.325  11.732  16.978  1.00  0.00     0.120 A 
BRANCH   9  14
ATOM     14  C   UNL     1      -5.394   7.705  17.907  1.00  0.00     0.122 C 
ATOM     15  N   UNL     1      -5.180   6.724  17.091  1.00  0.00    -0.284 NA
ATOM     16  N   UNL     1      -5.984   7.419  19.092  1.00  0.00    -0.384 N 
ATOM     17  H   UNL     1      -4.703   7.048  16.244  1.00  0.00     0.189 HD
ATOM     18  H   UNL     1      -6.244   6.453  19.249  1.00  0.00     0.158 HD
ATOM     19  H   UNL     1      -6.329   8.123  19.727  1.00  0.00     0.158 HD
ENDBRANCH   9  14
BRANCH  13  20
ATOM     20  O   UNL     1      -4.020  13.004  16.585  1.00  0.00    -0.508 OA
ATOM     21  H   UNL     1      -4.163  13.634  17.323  1.00  0.00     0.293 HD
ENDBRANCH  13  20
ENDBRANCH   7   8
ENDBRANCH   1   7
BRANCH   4  22
ATOM     22  N   UNL     1       0.062  10.912  22.236  1.00  0.00    -0.198 NA
ATOM     23  H   UNL     1       0.846  10.261  22.339  1.00  0.00     0.142 HD
BRANCH  22  24
ATOM     24  S   UNL     1      -0.253  11.757  23.653  1.00  0.00     0.250 S 
ATOM     25  O   UNL     1       1.006  12.298  24.105  1.00  0.00    -0.206 OA
ATOM     26  O   UNL     1      -1.428  12.568  23.423  1.00  0.00    -0.206 OA
BRANCH  24  27
ATOM     27  C   UNL     1      -0.708  10.571  24.892  1.00  0.00     0.137 A 
ATOM     28  C   UNL     1      -0.138   9.385  25.304  1.00  0.00     0.062 A 
ATOM     29  S   UNL     1      -2.111  10.945  25.793  1.00  0.00    -0.121 S 
ATOM     30  C   UNL     1      -0.871   8.763  26.353  1.00  0.00     0.082 A 
ATOM     31  C   UNL     1      -1.986   9.511  26.729  1.00  0.00     0.054 A 
ATOM     32  N   UNL     1      -0.543   7.580  26.937  1.00  0.00    -0.255 NA
ATOM     33  C   UNL     1      -2.825   9.054  27.754  1.00  0.00     0.023 A 
ATOM     34  C   UNL     1      -1.367   7.168  27.920  1.00  0.00     0.112 A 
ATOM     35  C   UNL     1      -2.492   7.845  28.357  1.00  0.00     0.022 A 
ENDBRANCH  24  27
ENDBRANCH  22  24
ENDBRANCH   4  22
TORSDOF 7
ENDMDL
MODEL 8
REMARK minimizedAffinity -9.62429619
REMARK CNNscore 0.538422287
REMARK CNNaffinity 6.99991083
REMARK SMILES N=C(N)c1ccc(O)c(CN2CC[C@H](NS(=O)(=O)c3cc4ncccc4s3)C2=O)c1
REMARK SMILES IDX 11 1 12 2 13 3 14 4 28 5 29 6 10 7 9 8 4 9 5 10 30 11 6 12
REMARK SMILES IDX 7 13 2 14 1 15 3 16 8 20 15 22 16 24 17 25 18 26 19 27 20 28
REMARK SMILES IDX 27 29 21 30 26 31 22 32 25 33 23 34 24 35
REMARK H PARENT 1 17 3 18 3 19 8 21 15 23
ROOT
ATOM      1  N   UNL     1      -4.471  11.962  20.222  1.00  0.00    -0.337 N 
ATOM      2  C   UNL     1      -3.492  12.419  19.269  1.00  0.00     0.122 C 
ATOM      3  C   UNL     1      -2.165  12.121  19.949  1.00  0.00     0.051 C 
ATOM      4  C   UNL     1      -2.483  12.239  21.438  1.00  0.00     0.161 C 
ATOM      5  C   UNL     1      -3.937  11.809  21.485  1.00  0.00     0.241 C 
ATOM      6  O   UNL     1      -4.529  11.387  22.469  1.00  0.00    -0.273 OA
ENDROOT
BRANCH   1   7
ATOM      7  C   UNL     1      -5.855  11.698  19.881  1.00  0.00     0.159 C 
BRANCH   7   8
ATOM      8  C   UNL     1      -6.128  10.221  19.759  1.00  0.00     0.014 A 
ATOM      9  C   UNL     1      -5.932   8.165  18.459  1.00  0.00     0.017 A 
ATOM     10  C   UNL     1      -6.668   7.471  19.421  1.00  0.00     0.016 A 
ATOM     11  C   UNL     1      -5.660   9.529  18.625  1.00  0.00     0.021 A 
ATOM     12  C   UNL     1      -7.122   8.144  20.555  1.00  0.00     0.047 A 
ATOM     13  C   UNL     1      -6.842   9.501  20.725  1.00  0.00     0.120 A 
BRANCH   9  14
ATOM     14  C   UNL     1      -5.436   7.459  17.251  1.00  0.00     0.122 C 
ATOM     15  N   UNL     1      -5.183   6.190  17.250  1.00  0.00    -0.284 NA
ATOM     16  N   UNL     1      -5.229   8.141  16.099  1.00  0.00    -0.384 N 
ATOM     17  H   UNL     1      -5.403   5.771  18.159  1.00  0.00     0.189 HD
ATOM     18  H   UNL     1      -4.862   7.612  15.317  1.00  0.00     0.158 HD
ATOM     19  H   UNL     1      -5.252   9.147  16.036  1.00  0.00     0.158 HD
ENDBRANCH   9  14
BRANCH  13  20
ATOM     20  O   UNL     1      -7.322  10.062  21.874  1.00  0.00    -0.508 OA
ATOM     21  H   UNL     1      -6.749  10.805  22.159  1.00  0.00     0.293 HD
ENDBRANCH  13  20
ENDBRANCH   7   8
ENDBRANCH   1   7
BRANCH   4  22
ATOM     22  N   UNL     1      -1.652  11.324  22.232  1.00  0.00    -0.198 NA
ATOM     23  H   UNL     1      -2.026  10.377  22.336  1.00  0.00     0.142 HD
BRANCH  22  24
ATOM     24  S   UNL     1      -1.031  11.924  23.673  1.00  0.00     0.250 S 
ATOM     25  O   UNL     1       0.392  12.068  23.486  1.00  0.00    -0.206 OA
ATOM     26  O   UNL     1      -1.889  13.009  24.096  1.00  0.00    -0.206 OA
BRANCH  24  27
ATOM     27  C   UNL     1      -1.203  10.653  24.898  1.00  0.00     0.137 A 
ATOM     28  C   UNL     1      -0.454   9.533  25.193  1.00  0.00     0.062 A 
ATOM     29  S   UNL     1      -2.531  10.825  25.961  1.00  0.00    -0.121 S 
ATOM     30  C   UNL     1      -0.988   8.794  26.286  1.00  0.00     0.082 A 
ATOM     31  C   UNL     1      -2.134   9.388  26.812  1.00  0.00     0.054 A 
ATOM     32  N   UNL     1      -0.460   7.642  26.778  1.00  0.00    -0.255 NA
ATOM     33  C   UNL     1      -2.794   8.800  27.900  1.00  0.00     0.023 A 
ATOM     34  C   UNL     1      -1.115   7.102  27.825  1.00  0.00     0.112 A 
ATOM     35  C   UNL     1      -2.255   7.623  28.409  1.00  0.00     0.022 A 
ENDBRANCH  24  27
ENDBRANCH  22  24
ENDBRANCH   4  22
TORSDOF 7
ENDMDL
MODEL 9
REMARK minimizedAffinity -10.0444365
REMARK CNNscore 0.506099343
REMARK CNNaffinity 7.01906967
REMARK SMILES N=C(N)c1ccc(O)c(CN2CC[C@H](NS(=O)(=O)c3cc4ncccc4s3)C2=O)c1
REMARK SMILES IDX 11 1 12 2 13 3 14 4 28 5 29 6 10 7 9 8 4 9 5 10 30 11 6 12
REMARK SMILES IDX 7 13 2 14 1 15 3 16 8 20 15 22 16 24 17 25 18 26 19 27 20 28
REMARK SMILES IDX 27 29 21 30 26 31 22 32 25 33 23 34 24 35
REMARK H PARENT 1 17 3 18 3 19 8 21 15 23
ROOT
ATOM      1  N   UNL     1      -4.623  11.807  21.096  1.00  0.00    -0.337 N 
ATOM      2  C   UNL     1      -5.122  12.380  22.320  1.00  0.00     0.122 C 
ATOM      3  C   UNL     1      -3.865  12.857  23.030  1.00  0.00     0.051 C 
ATOM      4  C   UNL     1      -2.787  11.886  22.555  1.00  0.00     0.161 C 
ATOM      5  C   UNL     1      -3.273  11.531  21.162  1.00  0.00     0.241 C 
ATOM      6  O   UNL     1      -2.584  11.090  20.252  1.00  0.00    -0.273 OA
ENDROOT
BRANCH   1   7
ATOM      7  C   UNL     1      -5.454  11.554  19.936  1.00  0.00     0.159 C 
BRANCH   7   8
ATOM      8  C   UNL     1      -5.934  10.127  19.893  1.00  0.00     0.014 A 
ATOM      9  C   UNL     1      -5.865   7.934  18.823  1.00  0.00     0.017 A 
ATOM     10  C   UNL     1      -6.843   7.461  19.700  1.00  0.00     0.016 A 
ATOM     11  C   UNL     1      -5.411   9.257  18.918  1.00  0.00     0.021 A 
ATOM     12  C   UNL     1      -7.357   8.311  20.678  1.00  0.00     0.047 A 
ATOM     13  C   UNL     1      -6.896   9.625  20.780  1.00  0.00     0.120 A 
BRANCH   9  14
ATOM     14  C   UNL     1      -5.304   7.038  17.781  1.00  0.00     0.122 C 
ATOM     15  N   UNL     1      -5.083   7.443  16.571  1.00  0.00    -0.284 NA
ATOM     16  N   UNL     1      -5.007   5.750  18.075  1.00  0.00    -0.384 N 
ATOM     17  H   UNL     1      -5.313   8.436  16.469  1.00  0.00     0.189 HD
ATOM     18  H   UNL     1      -4.655   5.179  17.317  1.00  0.00     0.158 HD
ATOM     19  H   UNL     1      -5.279   5.299  18.936  1.00  0.00     0.158 HD
ENDBRANCH   9  14
BRANCH  13  20
ATOM     20  O   UNL     1      -7.456  10.370  21.778  1.00  0.00    -0.508 OA
ATOM     21  H   UNL     1      -6.824  11.050  22.094  1.00  0.00     0.293 HD
ENDBRANCH  13  20
ENDBRANCH   7   8
ENDBRANCH   1   7
BRANCH   4  22
ATOM     22  N   UNL     1      -1.474  12.542  22.487  1.00  0.00    -0.198 NA
ATOM     23  H   UNL     1      -1.302  13.084  21.635  1.00  0.00     0.142 HD
BRANCH  22  24
ATOM     24  S   UNL     1      -0.143  11.619  22.933  1.00  0.00     0.250 S 
ATOM     25  O   UNL     1       0.094  10.684  21.860  1.00  0.00    -0.206 OA
ATOM     26  O   UNL     1       0.866  12.526  23.433  1.00  0.00    -0.206 OA
BRANCH  24  27
ATOM     27  C   UNL     1      -0.629  10.614  24.312  1.00  0.00     0.137 A 
ATOM     28  C   UNL     1      -0.151   9.422  24.813  1.00  0.00     0.062 A 
ATOM     29  S   UNL     1      -1.927  11.218  25.246  1.00  0.00    -0.121 S 
ATOM     30  C   UNL     1      -0.870   8.985  25.960  1.00  0.00     0.082 A 
ATOM     31  C   UNL     1      -1.880   9.877  26.317  1.00  0.00     0.054 A 
ATOM     32  N   UNL     1      -0.621   7.837  26.645  1.00  0.00    -0.255 NA
ATOM     33  C   UNL     1      -2.691   9.612  27.429  1.00  0.00     0.023 A 
ATOM     34  C   UNL     1      -1.415   7.611  27.710  1.00  0.00     0.112 A 
ATOM     35  C   UNL     1      -2.437   8.441  28.136  1.00  0.00     0.022 A 
ENDBRANCH  24  27
ENDBRANCH  22  24
ENDBRANCH   4  22
TORSDOF 7
ENDMDL
