MODEL 1
REMARK VINA RESULT:    -7.298      0.000      0.000
REMARK INTER + INTRA:         -10.959
REMARK INTER:                  -9.858
REMARK INTRA:                  -1.101
REMARK UNBOUND:                -1.101
REMARK SMILES CCC(CC)CNc1c(C(N)=O)cnc2ccc(C#N)cc12
REMARK SMILES IDX 6 1 3 2 2 3 1 4 4 5 5 6 7 7 8 9 9 10 22 11 13 12 21 13 15 14
REMARK SMILES IDX 14 15 18 16 16 17 17 18 19 19 20 20 10 21 11 22 12 23
REMARK H PARENT 7 8 11 24 11 25
ROOT
ATOM      1  C   UNL     1     -19.646  13.973  28.612  1.00  0.00     0.116 C 
ENDROOT
BRANCH   1   2
ATOM      2  C   UNL     1     -20.168  12.795  27.754  1.00  0.00     0.008 C 
BRANCH   2   3
ATOM      3  C   UNL     1     -21.717  12.809  27.775  1.00  0.00     0.002 C 
ATOM      4  C   UNL     1     -22.363  12.116  26.583  1.00  0.00     0.004 C 
ENDBRANCH   2   3
BRANCH   2   5
ATOM      5  C   UNL     1     -19.624  11.427  28.222  1.00  0.00     0.002 C 
ATOM      6  C   UNL     1     -18.828  10.665  27.173  1.00  0.00     0.004 C 
ENDBRANCH   2   5
ENDBRANCH   1   2
BRANCH   1   7
ATOM      7  N   UNL     1     -18.797  13.461  29.703  1.00  0.00    -0.384 N 
ATOM      8  H   UNL     1     -19.368  13.386  30.559  1.00  0.00     0.160 HD
BRANCH   7   9
ATOM      9  C   UNL     1     -17.700  14.334  29.993  1.00  0.00     0.058 A 
ATOM     10  C   UNL     1     -17.829  15.415  30.884  1.00  0.00     0.081 A 
ATOM     11  C   UNL     1     -16.471  14.162  29.294  1.00  0.00     0.025 A 
ATOM     12  C   UNL     1     -16.730  16.240  31.063  1.00  0.00     0.127 A 
ATOM     13  C   UNL     1     -16.240  13.103  28.383  1.00  0.00     0.032 A 
ATOM     14  C   UNL     1     -15.433  15.088  29.539  1.00  0.00     0.072 A 
ATOM     15  N   UNL     1     -15.557  16.107  30.402  1.00  0.00    -0.255 NA
ATOM     16  C   UNL     1     -15.020  12.972  27.715  1.00  0.00     0.053 A 
ATOM     17  C   UNL     1     -14.228  14.940  28.865  1.00  0.00     0.030 A 
ATOM     18  C   UNL     1     -14.011  13.898  27.957  1.00  0.00     0.022 A 
ATOM     19  C   UNL     1     -14.812  11.896  26.791  1.00  0.00     0.099 C 
ATOM     20  N   UNL     1     -14.640  11.031  26.036  1.00  0.00    -0.192 NA
BRANCH  10  21
ATOM     21  C   UNL     1     -19.074  15.658  31.651  1.00  0.00     0.252 C 
ATOM     22  N   UNL     1     -19.464  16.956  31.848  1.00  0.00    -0.365 N 
ATOM     23  O   UNL     1     -19.761  14.733  32.069  1.00  0.00    -0.269 OA
ATOM     24  H   UNL     1     -20.372  17.083  32.280  1.00  0.00     0.159 HD
ATOM     25  H   UNL     1     -19.100  17.731  31.312  1.00  0.00     0.159 HD
ENDBRANCH  10  21
ENDBRANCH   7   9
ENDBRANCH   1   7
TORSDOF 6
ENDMDL
MODEL 2
REMARK VINA RESULT:    -7.112      1.086      1.826
REMARK INTER + INTRA:         -10.707
REMARK INTER:                 -10.044
REMARK INTRA:                  -0.663
REMARK UNBOUND:                -1.101
REMARK SMILES CCC(CC)CNc1c(C(N)=O)cnc2ccc(C#N)cc12
REMARK SMILES IDX 6 1 3 2 2 3 1 4 4 5 5 6 7 7 8 9 9 10 22 11 13 12 21 13 15 14
REMARK SMILES IDX 14 15 18 16 16 17 17 18 19 19 20 20 10 21 11 22 12 23
REMARK H PARENT 7 8 11 24 11 25
ROOT
ATOM      1  C   UNL     1     -19.170  13.787  28.636  1.00  0.00     0.116 C 
ENDROOT
BRANCH   1   2
ATOM      2  C   UNL     1     -20.297  12.726  28.608  1.00  0.00     0.008 C 
BRANCH   2   3
ATOM      3  C   UNL     1     -20.018  11.731  27.455  1.00  0.00     0.002 C 
ATOM      4  C   UNL     1     -19.193  10.518  27.862  1.00  0.00     0.004 C 
ENDBRANCH   2   3
BRANCH   2   5
ATOM      5  C   UNL     1     -21.703  13.350  28.469  1.00  0.00     0.002 C 
ATOM      6  C   UNL     1     -22.838  12.344  28.351  1.00  0.00     0.004 C 
ENDBRANCH   2   5
ENDBRANCH   1   2
BRANCH   1   7
ATOM      7  N   UNL     1     -18.353  13.619  29.851  1.00  0.00    -0.384 N 
ATOM      8  H   UNL     1     -18.852  14.045  30.648  1.00  0.00     0.160 HD
BRANCH   7   9
ATOM      9  C   UNL     1     -17.081  14.267  29.745  1.00  0.00     0.058 A 
ATOM     10  C   UNL     1     -16.805  15.471  30.418  1.00  0.00     0.081 A 
ATOM     11  C   UNL     1     -16.099  13.730  28.864  1.00  0.00     0.025 A 
ATOM     12  C   UNL     1     -15.565  16.056  30.214  1.00  0.00     0.127 A 
ATOM     13  C   UNL     1     -16.278  12.522  28.148  1.00  0.00     0.032 A 
ATOM     14  C   UNL     1     -14.884  14.436  28.716  1.00  0.00     0.072 A 
ATOM     15  N   UNL     1     -14.621  15.575  29.373  1.00  0.00    -0.255 NA
ATOM     16  C   UNL     1     -15.291  12.032  27.291  1.00  0.00     0.053 A 
ATOM     17  C   UNL     1     -13.915  13.931  27.859  1.00  0.00     0.030 A 
ATOM     18  C   UNL     1     -14.105  12.743  27.145  1.00  0.00     0.022 A 
ATOM     19  C   UNL     1     -15.499  10.810  26.570  1.00  0.00     0.099 C 
ATOM     20  N   UNL     1     -15.664   9.826  25.977  1.00  0.00    -0.192 NA
BRANCH  10  21
ATOM     21  C   UNL     1     -17.774  16.090  31.354  1.00  0.00     0.252 C 
ATOM     22  N   UNL     1     -17.538  17.374  31.764  1.00  0.00    -0.365 N 
ATOM     23  O   UNL     1     -18.777  15.492  31.726  1.00  0.00    -0.269 OA
ATOM     24  H   UNL     1     -18.273  17.803  32.316  1.00  0.00     0.159 HD
ATOM     25  H   UNL     1     -16.896  17.998  31.296  1.00  0.00     0.159 HD
ENDBRANCH  10  21
ENDBRANCH   7   9
ENDBRANCH   1   7
TORSDOF 6
ENDMDL
MODEL 3
REMARK VINA RESULT:    -6.890      1.834      3.524
REMARK INTER + INTRA:         -10.408
REMARK INTER:                  -9.575
REMARK INTRA:                  -0.834
REMARK UNBOUND:                -1.101
REMARK SMILES CCC(CC)CNc1c(C(N)=O)cnc2ccc(C#N)cc12
REMARK SMILES IDX 6 1 3 2 2 3 1 4 4 5 5 6 7 7 8 9 9 10 22 11 13 12 21 13 15 14
REMARK SMILES IDX 14 15 18 16 16 17 17 18 19 19 20 20 10 21 11 22 12 23
REMARK H PARENT 7 8 11 24 11 25
ROOT
ATOM      1  C   UNL     1     -18.800  13.697  28.622  1.00  0.00     0.116 C 
ENDROOT
BRANCH   1   2
ATOM      2  C   UNL     1     -19.999  14.181  29.474  1.00  0.00     0.008 C 
BRANCH   2   3
ATOM      3  C   UNL     1     -19.767  13.764  30.947  1.00  0.00     0.002 C 
ATOM      4  C   UNL     1     -20.160  14.825  31.965  1.00  0.00     0.004 C 
ENDBRANCH   2   3
BRANCH   2   5
ATOM      5  C   UNL     1     -21.354  13.648  28.958  1.00  0.00     0.002 C 
ATOM      6  C   UNL     1     -21.266  12.784  27.709  1.00  0.00     0.004 C 
ENDBRANCH   2   5
ENDBRANCH   1   2
BRANCH   1   7
ATOM      7  N   UNL     1     -17.731  13.192  29.502  1.00  0.00    -0.384 N 
ATOM      8  H   UNL     1     -17.710  13.766  30.360  1.00  0.00     0.160 HD
BRANCH   7   9
ATOM      9  C   UNL     1     -16.439  13.280  28.893  1.00  0.00     0.058 A 
ATOM     10  C   UNL     1     -15.556  14.338  29.179  1.00  0.00     0.081 A 
ATOM     11  C   UNL     1     -16.070  12.324  27.903  1.00  0.00     0.025 A 
ATOM     12  C   UNL     1     -14.348  14.371  28.501  1.00  0.00     0.127 A 
ATOM     13  C   UNL     1     -16.885  11.222  27.550  1.00  0.00     0.032 A 
ATOM     14  C   UNL     1     -14.823  12.484  27.259  1.00  0.00     0.072 A 
ATOM     15  N   UNL     1     -13.979  13.485  27.548  1.00  0.00    -0.255 NA
ATOM     16  C   UNL     1     -16.488  10.309  26.571  1.00  0.00     0.053 A 
ATOM     17  C   UNL     1     -14.447  11.564  26.288  1.00  0.00     0.030 A 
ATOM     18  C   UNL     1     -15.263  10.484  25.936  1.00  0.00     0.022 A 
ATOM     19  C   UNL     1     -17.334   9.204  26.225  1.00  0.00     0.099 C 
ATOM     20  N   UNL     1     -18.018   8.312  25.934  1.00  0.00    -0.192 NA
BRANCH  10  21
ATOM     21  C   UNL     1     -15.866  15.369  30.197  1.00  0.00     0.252 C 
ATOM     22  N   UNL     1     -15.584  16.674  29.896  1.00  0.00    -0.365 N 
ATOM     23  O   UNL     1     -16.392  15.077  31.265  1.00  0.00    -0.269 OA
ATOM     24  H   UNL     1     -15.906  17.362  30.568  1.00  0.00     0.159 HD
ATOM     25  H   UNL     1     -15.408  17.001  28.956  1.00  0.00     0.159 HD
ENDBRANCH  10  21
ENDBRANCH   7   9
ENDBRANCH   1   7
TORSDOF 6
ENDMDL
MODEL 4
REMARK VINA RESULT:    -6.869      2.343      5.804
REMARK INTER + INTRA:         -10.379
REMARK INTER:                  -9.487
REMARK INTRA:                  -0.893
REMARK UNBOUND:                -1.101
REMARK SMILES CCC(CC)CNc1c(C(N)=O)cnc2ccc(C#N)cc12
REMARK SMILES IDX 6 1 3 2 2 3 1 4 4 5 5 6 7 7 8 9 9 10 22 11 13 12 21 13 15 14
REMARK SMILES IDX 14 15 18 16 16 17 17 18 19 19 20 20 10 21 11 22 12 23
REMARK H PARENT 7 8 11 24 11 25
ROOT
ATOM      1  C   UNL     1     -16.217  12.630  27.713  1.00  0.00     0.116 C 
ENDROOT
BRANCH   1   2
ATOM      2  C   UNL     1     -15.161  13.328  28.604  1.00  0.00     0.008 C 
BRANCH   2   3
ATOM      3  C   UNL     1     -15.812  14.560  29.280  1.00  0.00     0.002 C 
ATOM      4  C   UNL     1     -15.769  14.531  30.802  1.00  0.00     0.004 C 
ENDBRANCH   2   3
BRANCH   2   5
ATOM      5  C   UNL     1     -13.893  13.737  27.822  1.00  0.00     0.002 C 
ATOM      6  C   UNL     1     -13.517  15.206  27.938  1.00  0.00     0.004 C 
ENDBRANCH   2   5
ENDBRANCH   1   2
BRANCH   1   7
ATOM      7  N   UNL     1     -16.928  11.601  28.492  1.00  0.00    -0.384 N 
ATOM      8  H   UNL     1     -16.354  10.744  28.511  1.00  0.00     0.160 HD
BRANCH   7   9
ATOM      9  C   UNL     1     -18.192  11.258  27.913  1.00  0.00     0.058 A 
ATOM     10  C   UNL     1     -19.381  11.910  28.290  1.00  0.00     0.081 A 
ATOM     11  C   UNL     1     -18.266  10.167  27.000  1.00  0.00     0.025 A 
ATOM     12  C   UNL     1     -20.566  11.475  27.718  1.00  0.00     0.127 A 
ATOM     13  C   UNL     1     -17.128   9.452  26.554  1.00  0.00     0.032 A 
ATOM     14  C   UNL     1     -19.538   9.797  26.509  1.00  0.00     0.072 A 
ATOM     15  N   UNL     1     -20.665  10.434  26.860  1.00  0.00    -0.255 NA
ATOM     16  C   UNL     1     -17.244   8.386  25.661  1.00  0.00     0.053 A 
ATOM     17  C   UNL     1     -19.631   8.734  25.621  1.00  0.00     0.030 A 
ATOM     18  C   UNL     1     -18.503   8.025  25.194  1.00  0.00     0.022 A 
ATOM     19  C   UNL     1     -16.078   7.671  25.230  1.00  0.00     0.099 C 
ATOM     20  N   UNL     1     -15.139   7.084  24.883  1.00  0.00    -0.192 NA
BRANCH  10  21
ATOM     21  C   UNL     1     -19.385  13.055  29.231  1.00  0.00     0.252 C 
ATOM     22  N   UNL     1     -20.026  14.201  28.844  1.00  0.00    -0.365 N 
ATOM     23  O   UNL     1     -18.866  12.976  30.339  1.00  0.00    -0.269 OA
ATOM     24  H   UNL     1     -20.103  14.924  29.551  1.00  0.00     0.159 HD
ATOM     25  H   UNL     1     -20.687  14.237  28.081  1.00  0.00     0.159 HD
ENDBRANCH  10  21
ENDBRANCH   7   9
ENDBRANCH   1   7
TORSDOF 6
ENDMDL
MODEL 5
REMARK VINA RESULT:    -6.700      2.326      4.941
REMARK INTER + INTRA:         -10.151
REMARK INTER:                  -9.206
REMARK INTRA:                  -0.945
REMARK UNBOUND:                -1.101
REMARK SMILES CCC(CC)CNc1c(C(N)=O)cnc2ccc(C#N)cc12
REMARK SMILES IDX 6 1 3 2 2 3 1 4 4 5 5 6 7 7 8 9 9 10 22 11 13 12 21 13 15 14
REMARK SMILES IDX 14 15 18 16 16 17 17 18 19 19 20 20 10 21 11 22 12 23
REMARK H PARENT 7 8 11 24 11 25
ROOT
ATOM      1  C   UNL     1     -19.428  12.718  28.249  1.00  0.00     0.116 C 
ENDROOT
BRANCH   1   2
ATOM      2  C   UNL     1     -20.403  13.320  29.290  1.00  0.00     0.008 C 
BRANCH   2   3
ATOM      3  C   UNL     1     -19.647  13.525  30.625  1.00  0.00     0.002 C 
ATOM      4  C   UNL     1     -18.991  14.891  30.768  1.00  0.00     0.004 C 
ENDBRANCH   2   3
BRANCH   2   5
ATOM      5  C   UNL     1     -21.665  12.453  29.500  1.00  0.00     0.002 C 
ATOM      6  C   UNL     1     -22.084  11.633  28.290  1.00  0.00     0.004 C 
ENDBRANCH   2   5
ENDBRANCH   1   2
BRANCH   1   7
ATOM      7  N   UNL     1     -18.494  11.792  28.914  1.00  0.00    -0.384 N 
ATOM      8  H   UNL     1     -18.113  12.253  29.755  1.00  0.00     0.160 HD
BRANCH   7   9
ATOM      9  C   UNL     1     -17.387  11.443  28.077  1.00  0.00     0.058 A 
ATOM     10  C   UNL     1     -17.317  10.200  27.421  1.00  0.00     0.081 A 
ATOM     11  C   UNL     1     -16.282  12.336  27.977  1.00  0.00     0.025 A 
ATOM     12  C   UNL     1     -16.182   9.925  26.676  1.00  0.00     0.127 A 
ATOM     13  C   UNL     1     -16.258  13.611  28.593  1.00  0.00     0.032 A 
ATOM     14  C   UNL     1     -15.167  11.929  27.210  1.00  0.00     0.072 A 
ATOM     15  N   UNL     1     -15.114  10.750  26.575  1.00  0.00    -0.255 NA
ATOM     16  C   UNL     1     -15.153  14.455  28.473  1.00  0.00     0.053 A 
ATOM     17  C   UNL     1     -14.078  12.784  27.104  1.00  0.00     0.030 A 
ATOM     18  C   UNL     1     -14.057  14.037  27.725  1.00  0.00     0.022 A 
ATOM     19  C   UNL     1     -15.148  15.738  29.112  1.00  0.00     0.099 C 
ATOM     20  N   UNL     1     -15.135  16.775  29.634  1.00  0.00    -0.192 NA
BRANCH  10  21
ATOM     21  C   UNL     1     -18.427   9.219  27.475  1.00  0.00     0.252 C 
ATOM     22  N   UNL     1     -18.264   8.108  28.259  1.00  0.00    -0.365 N 
ATOM     23  O   UNL     1     -19.476   9.404  26.870  1.00  0.00    -0.269 OA
ATOM     24  H   UNL     1     -19.080   7.514  28.358  1.00  0.00     0.159 HD
ATOM     25  H   UNL     1     -17.555   8.034  28.975  1.00  0.00     0.159 HD
ENDBRANCH  10  21
ENDBRANCH   7   9
ENDBRANCH   1   7
TORSDOF 6
ENDMDL
MODEL 6
REMARK VINA RESULT:    -6.698      1.955      5.108
REMARK INTER + INTRA:         -10.148
REMARK INTER:                  -9.263
REMARK INTRA:                  -0.886
REMARK UNBOUND:                -1.101
REMARK SMILES CCC(CC)CNc1c(C(N)=O)cnc2ccc(C#N)cc12
REMARK SMILES IDX 6 1 3 2 2 3 1 4 4 5 5 6 7 7 8 9 9 10 22 11 13 12 21 13 15 14
REMARK SMILES IDX 14 15 18 16 16 17 17 18 19 19 20 20 10 21 11 22 12 23
REMARK H PARENT 7 8 11 24 11 25
ROOT
ATOM      1  C   UNL     1     -16.434  13.547  29.648  1.00  0.00     0.116 C 
ENDROOT
BRANCH   1   2
ATOM      2  C   UNL     1     -15.226  14.515  29.645  1.00  0.00     0.008 C 
BRANCH   2   3
ATOM      3  C   UNL     1     -15.670  15.871  30.245  1.00  0.00     0.002 C 
ATOM      4  C   UNL     1     -16.796  15.765  31.263  1.00  0.00     0.004 C 
ENDBRANCH   2   3
BRANCH   2   5
ATOM      5  C   UNL     1     -14.617  14.709  28.238  1.00  0.00     0.002 C 
ATOM      6  C   UNL     1     -13.317  15.498  28.209  1.00  0.00     0.004 C 
ENDBRANCH   2   5
ENDBRANCH   1   2
BRANCH   1   7
ATOM      7  N   UNL     1     -17.115  13.592  28.341  1.00  0.00    -0.384 N 
ATOM      8  H   UNL     1     -17.736  14.415  28.320  1.00  0.00     0.160 HD
BRANCH   7   9
ATOM      9  C   UNL     1     -17.927  12.435  28.111  1.00  0.00     0.058 A 
ATOM     10  C   UNL     1     -19.223  12.322  28.646  1.00  0.00     0.081 A 
ATOM     11  C   UNL     1     -17.377  11.330  27.401  1.00  0.00     0.025 A 
ATOM     12  C   UNL     1     -19.915  11.143  28.418  1.00  0.00     0.127 A 
ATOM     13  C   UNL     1     -16.085  11.348  26.820  1.00  0.00     0.032 A 
ATOM     14  C   UNL     1     -18.170  10.169  27.261  1.00  0.00     0.072 A 
ATOM     15  N   UNL     1     -19.412  10.074  27.760  1.00  0.00    -0.255 NA
ATOM     16  C   UNL     1     -15.582  10.241  26.135  1.00  0.00     0.053 A 
ATOM     17  C   UNL     1     -17.650   9.079  26.576  1.00  0.00     0.030 A 
ATOM     18  C   UNL     1     -16.369   9.101  26.015  1.00  0.00     0.022 A 
ATOM     19  C   UNL     1     -14.268  10.279  25.562  1.00  0.00     0.099 C 
ATOM     20  N   UNL     1     -13.202  10.302  25.102  1.00  0.00    -0.192 NA
BRANCH  10  21
ATOM     21  C   UNL     1     -19.866  13.429  29.393  1.00  0.00     0.252 C 
ATOM     22  N   UNL     1     -19.948  13.321  30.755  1.00  0.00    -0.365 N 
ATOM     23  O   UNL     1     -20.281  14.431  28.823  1.00  0.00    -0.269 OA
ATOM     24  H   UNL     1     -20.294  14.139  31.243  1.00  0.00     0.159 HD
ATOM     25  H   UNL     1     -19.398  12.666  31.294  1.00  0.00     0.159 HD
ENDBRANCH  10  21
ENDBRANCH   7   9
ENDBRANCH   1   7
TORSDOF 6
ENDMDL
MODEL 7
REMARK VINA RESULT:    -6.654      0.890      1.706
REMARK INTER + INTRA:         -10.089
REMARK INTER:                  -9.016
REMARK INTRA:                  -1.074
REMARK UNBOUND:                -1.101
REMARK SMILES CCC(CC)CNc1c(C(N)=O)cnc2ccc(C#N)cc12
REMARK SMILES IDX 6 1 3 2 2 3 1 4 4 5 5 6 7 7 8 9 9 10 22 11 13 12 21 13 15 14
REMARK SMILES IDX 14 15 18 16 16 17 17 18 19 19 20 20 10 21 11 22 12 23
REMARK H PARENT 7 8 11 24 11 25
ROOT
ATOM      1  C   UNL     1     -20.502  14.056  29.315  1.00  0.00     0.116 C 
ENDROOT
BRANCH   1   2
ATOM      2  C   UNL     1     -21.250  12.872  28.656  1.00  0.00     0.008 C 
BRANCH   2   3
ATOM      3  C   UNL     1     -20.376  12.303  27.511  1.00  0.00     0.002 C 
ATOM      4  C   UNL     1     -19.787  10.929  27.799  1.00  0.00     0.004 C 
ENDBRANCH   2   3
BRANCH   2   5
ATOM      5  C   UNL     1     -22.651  13.263  28.138  1.00  0.00     0.002 C 
ATOM      6  C   UNL     1     -23.235  12.316  27.101  1.00  0.00     0.004 C 
ENDBRANCH   2   5
ENDBRANCH   1   2
BRANCH   1   7
ATOM      7  N   UNL     1     -19.530  13.549  30.301  1.00  0.00    -0.384 N 
ATOM      8  H   UNL     1     -20.015  13.406  31.201  1.00  0.00     0.160 HD
BRANCH   7   9
ATOM      9  C   UNL     1     -18.459  14.470  30.532  1.00  0.00     0.058 A 
ATOM     10  C   UNL     1     -18.597  15.563  31.408  1.00  0.00     0.081 A 
ATOM     11  C   UNL     1     -17.252  14.334  29.788  1.00  0.00     0.025 A 
ATOM     12  C   UNL     1     -17.527  16.434  31.528  1.00  0.00     0.127 A 
ATOM     13  C   UNL     1     -17.013  13.267  28.888  1.00  0.00     0.032 A 
ATOM     14  C   UNL     1     -16.243  15.306  29.976  1.00  0.00     0.072 A 
ATOM     15  N   UNL     1     -16.376  16.335  30.824  1.00  0.00    -0.255 NA
ATOM     16  C   UNL     1     -15.817  13.172  28.175  1.00  0.00     0.053 A 
ATOM     17  C   UNL     1     -15.061  15.192  29.257  1.00  0.00     0.030 A 
ATOM     18  C   UNL     1     -14.837  14.142  28.360  1.00  0.00     0.022 A 
ATOM     19  C   UNL     1     -15.601  12.087  27.263  1.00  0.00     0.099 C 
ATOM     20  N   UNL     1     -15.423  11.216  26.518  1.00  0.00    -0.192 NA
BRANCH  10  21
ATOM     21  C   UNL     1     -19.821  15.771  32.219  1.00  0.00     0.252 C 
ATOM     22  N   UNL     1     -20.431  16.995  32.157  1.00  0.00    -0.365 N 
ATOM     23  O   UNL     1     -20.301  14.871  32.898  1.00  0.00    -0.269 OA
ATOM     24  H   UNL     1     -21.321  17.069  32.637  1.00  0.00     0.159 HD
ATOM     25  H   UNL     1     -20.247  17.671  31.428  1.00  0.00     0.159 HD
ENDBRANCH  10  21
ENDBRANCH   7   9
ENDBRANCH   1   7
TORSDOF 6
ENDMDL
MODEL 8
REMARK VINA RESULT:    -6.626      2.512      5.030
REMARK INTER + INTRA:         -10.050
REMARK INTER:                  -9.465
REMARK INTRA:                  -0.585
REMARK UNBOUND:                -1.101
REMARK SMILES CCC(CC)CNc1c(C(N)=O)cnc2ccc(C#N)cc12
REMARK SMILES IDX 6 1 3 2 2 3 1 4 4 5 5 6 7 7 8 9 9 10 22 11 13 12 21 13 15 14
REMARK SMILES IDX 14 15 18 16 16 17 17 18 19 19 20 20 10 21 11 22 12 23
REMARK H PARENT 7 8 11 24 11 25
ROOT
ATOM      1  C   UNL     1     -15.824  11.737  27.989  1.00  0.00     0.116 C 
ENDROOT
BRANCH   1   2
ATOM      2  C   UNL     1     -16.436  10.650  27.071  1.00  0.00     0.008 C 
BRANCH   2   3
ATOM      3  C   UNL     1     -16.234   9.265  27.732  1.00  0.00     0.002 C 
ATOM      4  C   UNL     1     -17.374   8.837  28.646  1.00  0.00     0.004 C 
ENDBRANCH   2   3
BRANCH   2   5
ATOM      5  C   UNL     1     -15.845  10.670  25.644  1.00  0.00     0.002 C 
ATOM      6  C   UNL     1     -14.337  10.481  25.575  1.00  0.00     0.004 C 
ENDBRANCH   2   5
ENDBRANCH   1   2
BRANCH   1   7
ATOM      7  N   UNL     1     -16.311  13.067  27.583  1.00  0.00    -0.384 N 
ATOM      8  H   UNL     1     -15.544  13.571  27.112  1.00  0.00     0.160 HD
BRANCH   7   9
ATOM      9  C   UNL     1     -16.723  13.860  28.702  1.00  0.00     0.058 A 
ATOM     10  C   UNL     1     -15.850  14.768  29.328  1.00  0.00     0.081 A 
ATOM     11  C   UNL     1     -18.020  13.659  29.256  1.00  0.00     0.025 A 
ATOM     12  C   UNL     1     -16.316  15.452  30.439  1.00  0.00     0.127 A 
ATOM     13  C   UNL     1     -18.973  12.774  28.697  1.00  0.00     0.032 A 
ATOM     14  C   UNL     1     -18.369  14.395  30.411  1.00  0.00     0.072 A 
ATOM     15  N   UNL     1     -17.537  15.271  30.993  1.00  0.00    -0.255 NA
ATOM     16  C   UNL     1     -20.233  12.604  29.274  1.00  0.00     0.053 A 
ATOM     17  C   UNL     1     -19.627  14.211  30.969  1.00  0.00     0.030 A 
ATOM     18  C   UNL     1     -20.559  13.325  30.417  1.00  0.00     0.022 A 
ATOM     19  C   UNL     1     -21.178  11.696  28.694  1.00  0.00     0.099 C 
ATOM     20  N   UNL     1     -21.945  10.956  28.234  1.00  0.00    -0.192 NA
BRANCH  10  21
ATOM     21  C   UNL     1     -14.487  15.034  28.809  1.00  0.00     0.252 C 
ATOM     22  N   UNL     1     -13.523  14.086  29.024  1.00  0.00    -0.365 N 
ATOM     23  O   UNL     1     -14.229  16.050  28.174  1.00  0.00    -0.269 OA
ATOM     24  H   UNL     1     -12.633  14.249  28.566  1.00  0.00     0.159 HD
ATOM     25  H   UNL     1     -13.730  13.134  29.294  1.00  0.00     0.159 HD
ENDBRANCH  10  21
ENDBRANCH   7   9
ENDBRANCH   1   7
TORSDOF 6
ENDMDL
MODEL 9
REMARK VINA RESULT:    -6.583      2.292      4.678
REMARK INTER + INTRA:          -9.993
REMARK INTER:                  -9.195
REMARK INTRA:                  -0.798
REMARK UNBOUND:                -1.101
REMARK SMILES CCC(CC)CNc1c(C(N)=O)cnc2ccc(C#N)cc12
REMARK SMILES IDX 6 1 3 2 2 3 1 4 4 5 5 6 7 7 8 9 9 10 22 11 13 12 21 13 15 14
REMARK SMILES IDX 14 15 18 16 16 17 17 18 19 19 20 20 10 21 11 22 12 23
REMARK H PARENT 7 8 11 24 11 25
ROOT
ATOM      1  C   UNL     1     -17.901  10.887  28.459  1.00  0.00     0.116 C 
ENDROOT
BRANCH   1   2
ATOM      2  C   UNL     1     -16.902  10.409  27.377  1.00  0.00     0.008 C 
BRANCH   2   3
ATOM      3  C   UNL     1     -16.396   8.995  27.753  1.00  0.00     0.002 C 
ATOM      4  C   UNL     1     -17.424   8.136  28.476  1.00  0.00     0.004 C 
ENDBRANCH   2   3
BRANCH   2   5
ATOM      5  C   UNL     1     -15.719  11.384  27.183  1.00  0.00     0.002 C 
ATOM      6  C   UNL     1     -14.744  10.992  26.083  1.00  0.00     0.004 C 
ENDBRANCH   2   5
ENDBRANCH   1   2
BRANCH   1   7
ATOM      7  N   UNL     1     -18.716  11.997  27.933  1.00  0.00    -0.384 N 
ATOM      8  H   UNL     1     -18.107  12.625  27.386  1.00  0.00     0.160 HD
BRANCH   7   9
ATOM      9  C   UNL     1     -19.311  12.777  28.976  1.00  0.00     0.058 A 
ATOM     10  C   UNL     1     -20.662  12.625  29.337  1.00  0.00     0.081 A 
ATOM     11  C   UNL     1     -18.542  13.798  29.605  1.00  0.00     0.025 A 
ATOM     12  C   UNL     1     -21.167  13.461  30.319  1.00  0.00     0.127 A 
ATOM     13  C   UNL     1     -17.175  14.026  29.317  1.00  0.00     0.032 A 
ATOM     14  C   UNL     1     -19.179  14.608  30.572  1.00  0.00     0.072 A 
ATOM     15  N   UNL     1     -20.463  14.447  30.922  1.00  0.00    -0.255 NA
ATOM     16  C   UNL     1     -16.457  15.041  29.954  1.00  0.00     0.053 A 
ATOM     17  C   UNL     1     -18.447  15.611  31.194  1.00  0.00     0.030 A 
ATOM     18  C   UNL     1     -17.100  15.838  30.895  1.00  0.00     0.022 A 
ATOM     19  C   UNL     1     -15.076  15.258  29.640  1.00  0.00     0.099 C 
ATOM     20  N   UNL     1     -13.958  15.444  29.385  1.00  0.00    -0.192 NA
BRANCH  10  21
ATOM     21  C   UNL     1     -21.526  11.584  28.730  1.00  0.00     0.252 C 
ATOM     22  N   UNL     1     -22.362  10.883  29.557  1.00  0.00    -0.365 N 
ATOM     23  O   UNL     1     -21.525  11.374  27.523  1.00  0.00    -0.269 OA
ATOM     24  H   UNL     1     -23.013  10.256  29.097  1.00  0.00     0.159 HD
ATOM     25  H   UNL     1     -22.601  11.186  30.491  1.00  0.00     0.159 HD
ENDBRANCH  10  21
ENDBRANCH   7   9
ENDBRANCH   1   7
TORSDOF 6
ENDMDL
