REMARK VINA RESULT:   -11.351      5.162     13.284
REMARK INTER + INTRA:         -21.725
REMARK INTER:                 -20.593
REMARK INTRA:                  -1.132
REMARK UNBOUND:                -1.416
REMARK SMILES O=C(NCCCCCCCCCCNc1c2c(nc3cc(Cl)ccc13)CCCC2)c1cc(=O)c2cc(O)ccc2o1
REMARK SMILES IDX 8 1 7 2 6 3 5 4 4 5 3 6 1 7 2 8 30 10 31 11 41 12 32 13
REMARK SMILES IDX 40 14 33 15 34 16 39 17 35 18 38 19 36 20 37 21 9 23 10 24
REMARK SMILES IDX 11 25 12 26 13 27 14 28 15 30 16 31 25 32 17 33 29 34 24 35
REMARK SMILES IDX 19 36 18 37 26 38 28 39 23 40 20 41 27 42 21 43 22 44
REMARK H PARENT 3 9 37 22 14 29
ROOT
ATOM      1  C   UNL     1     -14.340 -43.463  25.151  1.00  0.00     0.000 C 
ENDROOT
BRANCH   1   2
ATOM      2  C   UNL     1     -15.188 -42.387  25.833  1.00  0.00     0.000 C 
BRANCH   2   3
ATOM      3  C   UNL     1     -16.638 -42.815  26.079  1.00  0.00     0.002 C 
BRANCH   3   4
ATOM      4  C   UNL     1     -17.247 -42.451  27.439  1.00  0.00     0.021 C 
BRANCH   4   5
ATOM      5  C   UNL     1     -18.775 -42.402  27.465  1.00  0.00     0.116 C 
BRANCH   5   6
ATOM      6  N   UNL     1     -19.325 -41.732  26.309  1.00  0.00    -0.349 N 
ATOM      7  O   UNL     1     -21.512 -41.721  27.026  1.00  0.00    -0.266 OA
ATOM      8  C   UNL     1     -20.668 -41.455  26.182  1.00  0.00     0.287 C 
ATOM      9  H   UNL     1     -18.698 -41.407  25.583  1.00  0.00     0.163 HD
BRANCH   8  10
ATOM     10  C   UNL     1     -21.009 -40.818  24.867  1.00  0.00     0.195 A 
ATOM     11  C   UNL     1     -22.275 -40.423  24.673  1.00  0.00     0.105 A 
ATOM     12  O   UNL     1     -19.996 -40.714  23.925  1.00  0.00    -0.451 OA
ATOM     13  C   UNL     1     -22.657 -39.869  23.366  1.00  0.00     0.193 A 
ATOM     14  C   UNL     1     -20.321 -40.249  22.678  1.00  0.00     0.139 A 
ATOM     15  O   UNL     1     -23.798 -39.481  23.153  1.00  0.00    -0.289 OA
ATOM     16  C   UNL     1     -21.607 -39.828  22.337  1.00  0.00     0.068 A 
ATOM     17  C   UNL     1     -19.301 -40.216  21.728  1.00  0.00     0.052 A 
ATOM     18  C   UNL     1     -21.891 -39.400  21.039  1.00  0.00     0.062 A 
ATOM     19  C   UNL     1     -19.579 -39.793  20.428  1.00  0.00     0.050 A 
ATOM     20  C   UNL     1     -20.873 -39.401  20.091  1.00  0.00     0.116 A 
BRANCH  20  21
ATOM     21  O   UNL     1     -21.185 -39.022  18.821  1.00  0.00    -0.508 OA
ATOM     22  H   UNL     1     -21.793 -39.677  18.432  1.00  0.00     0.293 HD
ENDBRANCH  20  21
ENDBRANCH   8  10
ENDBRANCH   5   6
ENDBRANCH   4   5
ENDBRANCH   3   4
ENDBRANCH   2   3
ENDBRANCH   1   2
BRANCH   1  23
ATOM     23  C   UNL     1     -14.139 -44.679  26.059  1.00  0.00     0.000 C 
BRANCH  23  24
ATOM     24  C   UNL     1     -13.329 -44.309  27.304  1.00  0.00     0.000 C 
BRANCH  24  25
ATOM     25  C   UNL     1     -13.394 -45.403  28.374  1.00  0.00     0.002 C 
BRANCH  25  26
ATOM     26  C   UNL     1     -12.215 -46.376  28.239  1.00  0.00     0.021 C 
BRANCH  26  27
ATOM     27  C   UNL     1     -11.017 -46.014  29.121  1.00  0.00     0.113 C 
BRANCH  27  28
ATOM     28  N   UNL     1     -11.368 -46.149  30.533  1.00  0.00    -0.384 N 
ATOM     29  H   UNL     1     -12.275 -46.575  30.710  1.00  0.00     0.160 HD
BRANCH  28  30
ATOM     30  C   UNL     1     -11.083 -45.049  31.364  1.00  0.00     0.049 A 
ATOM     31  C   UNL     1      -9.746 -44.742  31.685  1.00  0.00    -0.003 A 
ATOM     32  C   UNL     1     -12.131 -44.233  31.867  1.00  0.00     0.024 A 
ATOM     33  C   UNL     1      -9.510 -43.639  32.508  1.00  0.00     0.046 A 
ATOM     34  C   UNL     1      -8.593 -45.550  31.139  1.00  0.00     0.039 C 
ATOM     35  C   UNL     1     -13.504 -44.444  31.582  1.00  0.00     0.014 A 
ATOM     36  C   UNL     1     -11.774 -43.148  32.693  1.00  0.00     0.074 A 
ATOM     37  N   UNL     1     -10.503 -42.865  33.006  1.00  0.00    -0.252 NA
ATOM     38  C   UNL     1      -8.125 -43.277  32.982  1.00  0.00     0.056 C 
ATOM     39  C   UNL     1      -7.302 -45.392  31.942  1.00  0.00     0.005 C 
ATOM     40  C   UNL     1     -14.487 -43.607  32.108  1.00  0.00     0.021 A 
ATOM     41  C   UNL     1     -12.766 -42.329  33.210  1.00  0.00     0.049 A 
ATOM     42  C   UNL     1      -7.007 -43.918  32.168  1.00  0.00     0.007 C 
ATOM     43  C   UNL     1     -14.111 -42.551  32.925  1.00  0.00     0.043 A 
ATOM     44  Cl  UNL     1     -15.314 -41.508  33.580  1.00  0.00    -0.084 Cl
ENDBRANCH  28  30
ENDBRANCH  27  28
ENDBRANCH  26  27
ENDBRANCH  25  26
ENDBRANCH  24  25
ENDBRANCH  23  24
ENDBRANCH   1  23
TORSDOF 14
