MODEL 1
REMARK VINA RESULT:   -11.956      0.000      0.000
REMARK INTER + INTRA:         -18.279
REMARK INTER:                 -17.548
REMARK INTRA:                  -0.731
REMARK UNBOUND:                -0.731
REMARK SMILES COc1cccc(CN2CCN(CCCOc3ccc4c5c(c(=O)oc4c3)CCCC5)CC2)c1
REMARK SMILES IDX 9 1 10 2 11 3 12 4 32 5 33 6 8 7 7 8 3 9 4 10 34 11 5 12
REMARK SMILES IDX 6 13 2 14 1 15 13 16 14 17 15 18 16 19 17 20 18 21 27 22
REMARK SMILES IDX 19 23 26 24 20 25 25 26 21 27 23 28 22 29 31 30 24 31 28 32
REMARK SMILES IDX 30 33 29 34
REMARK H PARENT
ROOT
ATOM      1  N   UNL     1     -11.921 -45.310  30.123  1.00  0.00    -0.297 NA
ATOM      2  C   UNL     1     -11.537 -45.597  28.725  1.00  0.00     0.100 C 
ATOM      3  C   UNL     1     -12.360 -44.772  27.707  1.00  0.00     0.100 C 
ATOM      4  N   UNL     1     -13.817 -44.978  27.859  1.00  0.00    -0.301 NA
ATOM      5  C   UNL     1     -14.190 -44.684  29.260  1.00  0.00     0.100 C 
ATOM      6  C   UNL     1     -13.373 -45.518  30.272  1.00  0.00     0.100 C 
ENDROOT
BRANCH   1   7
ATOM      7  C   UNL     1     -11.182 -46.156  31.072  1.00  0.00     0.120 C 
BRANCH   7   8
ATOM      8  C   UNL     1      -9.825 -45.592  31.437  1.00  0.00    -0.030 A 
ATOM      9  C   UNL     1      -8.459 -43.833  32.421  1.00  0.00     0.119 A 
ATOM     10  C   UNL     1      -7.309 -44.551  32.080  1.00  0.00     0.046 A 
ATOM     11  C   UNL     1      -9.714 -44.354  32.095  1.00  0.00     0.051 A 
ATOM     12  C   UNL     1      -7.405 -45.779  31.430  1.00  0.00     0.004 A 
ATOM     13  C   UNL     1      -8.658 -46.299  31.111  1.00  0.00     0.005 A 
BRANCH   9  14
ATOM     14  O   UNL     1      -8.220 -42.645  33.055  1.00  0.00    -0.497 OA
ATOM     15  C   UNL     1      -8.965 -42.386  34.239  1.00  0.00     0.278 C 
ENDBRANCH   9  14
ENDBRANCH   7   8
ENDBRANCH   1   7
BRANCH   4  16
ATOM     16  C   UNL     1     -14.594 -44.135  26.939  1.00  0.00     0.088 C 
BRANCH  16  17
ATOM     17  C   UNL     1     -13.768 -43.059  26.226  1.00  0.00     0.057 C 
BRANCH  17  18
ATOM     18  C   UNL     1     -14.269 -42.773  24.812  1.00  0.00     0.231 C 
BRANCH  18  19
ATOM     19  O   UNL     1     -15.493 -43.472  24.565  1.00  0.00    -0.493 OA
BRANCH  19  20
ATOM     20  C   UNL     1     -16.573 -42.763  24.125  1.00  0.00     0.123 A 
ATOM     21  C   UNL     1     -17.638 -42.702  25.027  1.00  0.00     0.047 A 
ATOM     22  C   UNL     1     -16.704 -42.138  22.889  1.00  0.00     0.094 A 
ATOM     23  C   UNL     1     -18.818 -42.017  24.708  1.00  0.00     0.016 A 
ATOM     24  C   UNL     1     -17.889 -41.461  22.585  1.00  0.00     0.142 A 
ATOM     25  C   UNL     1     -18.964 -41.385  23.469  1.00  0.00     0.021 A 
ATOM     26  O   UNL     1     -17.943 -40.852  21.318  1.00  0.00    -0.422 OA
ATOM     27  C   UNL     1     -20.170 -40.651  23.057  1.00  0.00    -0.027 A 
ATOM     28  C   UNL     1     -19.053 -40.139  20.902  1.00  0.00     0.339 A 
ATOM     29  C   UNL     1     -20.192 -40.050  21.852  1.00  0.00     0.042 A 
ATOM     30  C   UNL     1     -21.355 -40.593  23.997  1.00  0.00     0.037 C 
ATOM     31  O   UNL     1     -19.093 -39.612  19.795  1.00  0.00    -0.246 OA
ATOM     32  C   UNL     1     -21.362 -39.232  21.360  1.00  0.00     0.043 C 
ATOM     33  C   UNL     1     -22.639 -40.071  23.350  1.00  0.00     0.005 C 
ATOM     34  C   UNL     1     -22.355 -38.868  22.463  1.00  0.00     0.005 C 
ENDBRANCH  19  20
ENDBRANCH  18  19
ENDBRANCH  17  18
ENDBRANCH  16  17
ENDBRANCH   4  16
TORSDOF 8
ENDMDL
MODEL 2
REMARK VINA RESULT:   -11.802      1.678      2.365
REMARK INTER + INTRA:         -18.052
REMARK INTER:                 -17.334
REMARK INTRA:                  -0.718
REMARK UNBOUND:                -0.731
REMARK SMILES COc1cccc(CN2CCN(CCCOc3ccc4c5c(c(=O)oc4c3)CCCC5)CC2)c1
REMARK SMILES IDX 9 1 10 2 11 3 12 4 32 5 33 6 8 7 7 8 3 9 4 10 34 11 5 12
REMARK SMILES IDX 6 13 2 14 1 15 13 16 14 17 15 18 16 19 17 20 18 21 27 22
REMARK SMILES IDX 19 23 26 24 20 25 25 26 21 27 23 28 22 29 31 30 24 31 28 32
REMARK SMILES IDX 30 33 29 34
REMARK H PARENT
ROOT
ATOM      1  N   UNL     1     -11.478 -45.457  30.120  1.00  0.00    -0.297 NA
ATOM      2  C   UNL     1     -11.093 -45.728  28.720  1.00  0.00     0.100 C 
ATOM      3  C   UNL     1     -11.988 -44.976  27.707  1.00  0.00     0.100 C 
ATOM      4  N   UNL     1     -13.424 -45.286  27.881  1.00  0.00    -0.301 NA
ATOM      5  C   UNL     1     -13.799 -45.007  29.284  1.00  0.00     0.100 C 
ATOM      6  C   UNL     1     -12.909 -45.768  30.293  1.00  0.00     0.100 C 
ENDROOT
BRANCH   1   7
ATOM      7  C   UNL     1     -10.666 -46.237  31.066  1.00  0.00     0.120 C 
BRANCH   7   8
ATOM      8  C   UNL     1      -9.464 -45.476  31.584  1.00  0.00    -0.030 A 
ATOM      9  C   UNL     1      -8.512 -43.581  32.780  1.00  0.00     0.119 A 
ATOM     10  C   UNL     1      -7.230 -44.067  32.510  1.00  0.00     0.046 A 
ATOM     11  C   UNL     1      -9.626 -44.284  32.313  1.00  0.00     0.051 A 
ATOM     12  C   UNL     1      -7.056 -45.248  31.790  1.00  0.00     0.004 A 
ATOM     13  C   UNL     1      -8.167 -45.950  31.331  1.00  0.00     0.005 A 
BRANCH   9  14
ATOM     14  O   UNL     1      -8.539 -42.415  33.495  1.00  0.00    -0.497 OA
ATOM     15  C   UNL     1      -9.704 -42.160  34.270  1.00  0.00     0.278 C 
ENDBRANCH   9  14
ENDBRANCH   7   8
ENDBRANCH   1   7
BRANCH   4  16
ATOM     16  C   UNL     1     -14.273 -44.511  26.965  1.00  0.00     0.088 C 
BRANCH  16  17
ATOM     17  C   UNL     1     -13.619 -43.231  26.437  1.00  0.00     0.057 C 
BRANCH  17  18
ATOM     18  C   UNL     1     -14.079 -42.873  25.025  1.00  0.00     0.231 C 
BRANCH  18  19
ATOM     19  O   UNL     1     -15.208 -43.670  24.652  1.00  0.00    -0.493 OA
BRANCH  19  20
ATOM     20  C   UNL     1     -16.432 -43.070  24.565  1.00  0.00     0.123 A 
ATOM     21  C   UNL     1     -16.826 -42.736  23.267  1.00  0.00     0.047 A 
ATOM     22  C   UNL     1     -17.275 -42.757  25.625  1.00  0.00     0.094 A 
ATOM     23  C   UNL     1     -18.053 -42.105  23.025  1.00  0.00     0.016 A 
ATOM     24  C   UNL     1     -18.496 -42.125  25.367  1.00  0.00     0.142 A 
ATOM     25  C   UNL     1     -18.912 -41.784  24.081  1.00  0.00     0.021 A 
ATOM     26  O   UNL     1     -19.295 -41.845  26.490  1.00  0.00    -0.422 OA
ATOM     27  C   UNL     1     -20.213 -41.119  23.909  1.00  0.00    -0.027 A 
ATOM     28  C   UNL     1     -20.532 -41.237  26.367  1.00  0.00     0.339 A 
ATOM     29  C   UNL     1     -20.977 -40.885  24.994  1.00  0.00     0.042 A 
ATOM     30  C   UNL     1     -20.657 -40.713  22.521  1.00  0.00     0.037 C 
ATOM     31  O   UNL     1     -21.222 -40.995  27.352  1.00  0.00    -0.246 OA
ATOM     32  C   UNL     1     -22.347 -40.255  24.916  1.00  0.00     0.043 C 
ATOM     33  C   UNL     1     -21.865 -39.775  22.502  1.00  0.00     0.005 C 
ATOM     34  C   UNL     1     -22.921 -40.222  23.501  1.00  0.00     0.005 C 
ENDBRANCH  19  20
ENDBRANCH  18  19
ENDBRANCH  17  18
ENDBRANCH  16  17
ENDBRANCH   4  16
TORSDOF 8
ENDMDL
MODEL 3
REMARK VINA RESULT:   -11.719      1.365      1.811
REMARK INTER + INTRA:         -17.930
REMARK INTER:                 -17.432
REMARK INTRA:                  -0.498
REMARK UNBOUND:                -0.731
REMARK SMILES COc1cccc(CN2CCN(CCCOc3ccc4c5c(c(=O)oc4c3)CCCC5)CC2)c1
REMARK SMILES IDX 9 1 10 2 11 3 12 4 32 5 33 6 8 7 7 8 3 9 4 10 34 11 5 12
REMARK SMILES IDX 6 13 2 14 1 15 13 16 14 17 15 18 16 19 17 20 18 21 27 22
REMARK SMILES IDX 19 23 26 24 20 25 25 26 21 27 23 28 22 29 31 30 24 31 28 32
REMARK SMILES IDX 30 33 29 34
REMARK H PARENT
ROOT
ATOM      1  N   UNL     1     -11.654 -45.347  30.214  1.00  0.00    -0.297 NA
ATOM      2  C   UNL     1     -11.159 -45.192  28.830  1.00  0.00     0.100 C 
ATOM      3  C   UNL     1     -12.107 -44.336  27.958  1.00  0.00     0.100 C 
ATOM      4  N   UNL     1     -13.483 -44.877  27.919  1.00  0.00    -0.301 NA
ATOM      5  C   UNL     1     -13.969 -45.025  29.308  1.00  0.00     0.100 C 
ATOM      6  C   UNL     1     -13.025 -45.889  30.173  1.00  0.00     0.100 C 
ENDROOT
BRANCH   1   7
ATOM      7  C   UNL     1     -10.780 -46.225  31.007  1.00  0.00     0.120 C 
BRANCH   7   8
ATOM      8  C   UNL     1      -9.535 -45.524  31.510  1.00  0.00    -0.030 A 
ATOM      9  C   UNL     1      -8.472 -43.638  32.624  1.00  0.00     0.119 A 
ATOM     10  C   UNL     1      -7.223 -44.229  32.409  1.00  0.00     0.046 A 
ATOM     11  C   UNL     1      -9.624 -44.285  32.171  1.00  0.00     0.051 A 
ATOM     12  C   UNL     1      -7.122 -45.457  31.758  1.00  0.00     0.004 A 
ATOM     13  C   UNL     1      -8.272 -46.102  31.311  1.00  0.00     0.005 A 
BRANCH   9  14
ATOM     14  O   UNL     1      -8.427 -42.436  33.274  1.00  0.00    -0.497 OA
ATOM     15  C   UNL     1      -9.194 -42.319  34.466  1.00  0.00     0.278 C 
ENDBRANCH   9  14
ENDBRANCH   7   8
ENDBRANCH   1   7
BRANCH   4  16
ATOM     16  C   UNL     1     -14.394 -44.018  27.150  1.00  0.00     0.088 C 
BRANCH  16  17
ATOM     17  C   UNL     1     -14.359 -44.261  25.638  1.00  0.00     0.057 C 
BRANCH  17  18
ATOM     18  C   UNL     1     -14.665 -43.001  24.831  1.00  0.00     0.231 C 
BRANCH  18  19
ATOM     19  O   UNL     1     -15.731 -43.247  23.909  1.00  0.00    -0.493 OA
BRANCH  19  20
ATOM     20  C   UNL     1     -16.960 -42.716  24.174  1.00  0.00     0.123 A 
ATOM     21  C   UNL     1     -17.296 -42.672  25.529  1.00  0.00     0.047 A 
ATOM     22  C   UNL     1     -17.880 -42.253  23.239  1.00  0.00     0.094 A 
ATOM     23  C   UNL     1     -18.530 -42.162  25.952  1.00  0.00     0.016 A 
ATOM     24  C   UNL     1     -19.109 -41.749  23.677  1.00  0.00     0.142 A 
ATOM     25  C   UNL     1     -19.466 -41.693  25.023  1.00  0.00     0.021 A 
ATOM     26  O   UNL     1     -19.983 -41.297  22.672  1.00  0.00    -0.422 OA
ATOM     27  C   UNL     1     -20.783 -41.148  25.386  1.00  0.00    -0.027 A 
ATOM     28  C   UNL     1     -21.222 -40.762  22.975  1.00  0.00     0.339 A 
ATOM     29  C   UNL     1     -21.595 -40.693  24.412  1.00  0.00     0.042 A 
ATOM     30  C   UNL     1     -21.192 -41.116  26.843  1.00  0.00     0.037 C 
ATOM     31  O   UNL     1     -21.980 -40.371  22.093  1.00  0.00    -0.246 OA
ATOM     32  C   UNL     1     -22.942 -40.071  24.687  1.00  0.00     0.043 C 
ATOM     33  C   UNL     1     -22.675 -40.815  27.067  1.00  0.00     0.005 C 
ATOM     34  C   UNL     1     -23.151 -39.697  26.153  1.00  0.00     0.005 C 
ENDBRANCH  19  20
ENDBRANCH  18  19
ENDBRANCH  17  18
ENDBRANCH  16  17
ENDBRANCH   4  16
TORSDOF 8
ENDMDL
MODEL 4
REMARK VINA RESULT:   -11.035      1.464      2.142
REMARK INTER + INTRA:         -16.927
REMARK INTER:                 -16.721
REMARK INTRA:                  -0.205
REMARK UNBOUND:                -0.731
REMARK SMILES COc1cccc(CN2CCN(CCCOc3ccc4c5c(c(=O)oc4c3)CCCC5)CC2)c1
REMARK SMILES IDX 9 1 10 2 11 3 12 4 32 5 33 6 8 7 7 8 3 9 4 10 34 11 5 12
REMARK SMILES IDX 6 13 2 14 1 15 13 16 14 17 15 18 16 19 17 20 18 21 27 22
REMARK SMILES IDX 19 23 26 24 20 25 25 26 21 27 23 28 22 29 31 30 24 31 28 32
REMARK SMILES IDX 30 33 29 34
REMARK H PARENT
ROOT
ATOM      1  N   UNL     1     -11.575 -45.376  29.580  1.00  0.00    -0.297 NA
ATOM      2  C   UNL     1     -13.002 -45.593  29.262  1.00  0.00     0.100 C 
ATOM      3  C   UNL     1     -13.379 -45.067  27.857  1.00  0.00     0.100 C 
ATOM      4  N   UNL     1     -13.059 -43.634  27.685  1.00  0.00    -0.301 NA
ATOM      5  C   UNL     1     -11.629 -43.429  28.001  1.00  0.00     0.100 C 
ATOM      6  C   UNL     1     -11.259 -43.946  29.409  1.00  0.00     0.100 C 
ENDROOT
BRANCH   1   7
ATOM      7  C   UNL     1     -11.252 -45.813  30.947  1.00  0.00     0.120 C 
BRANCH   7   8
ATOM      8  C   UNL     1      -9.866 -45.394  31.390  1.00  0.00    -0.030 A 
ATOM      9  C   UNL     1      -8.389 -43.824  32.522  1.00  0.00     0.119 A 
ATOM     10  C   UNL     1      -7.295 -44.621  32.178  1.00  0.00     0.046 A 
ATOM     11  C   UNL     1      -9.672 -44.210  32.124  1.00  0.00     0.051 A 
ATOM     12  C   UNL     1      -7.473 -45.798  31.454  1.00  0.00     0.004 A 
ATOM     13  C   UNL     1      -8.753 -46.184  31.063  1.00  0.00     0.005 A 
BRANCH   9  14
ATOM     14  O   UNL     1      -8.072 -42.699  33.233  1.00  0.00    -0.497 OA
ATOM     15  C   UNL     1      -8.974 -42.312  34.263  1.00  0.00     0.278 C 
ENDBRANCH   9  14
ENDBRANCH   7   8
ENDBRANCH   1   7
BRANCH   4  16
ATOM     16  C   UNL     1     -13.350 -43.161  26.324  1.00  0.00     0.088 C 
BRANCH  16  17
ATOM     17  C   UNL     1     -14.799 -43.383  25.880  1.00  0.00     0.057 C 
BRANCH  17  18
ATOM     18  C   UNL     1     -14.904 -43.924  24.455  1.00  0.00     0.231 C 
BRANCH  18  19
ATOM     19  O   UNL     1     -15.029 -42.846  23.521  1.00  0.00    -0.493 OA
BRANCH  19  20
ATOM     20  C   UNL     1     -16.275 -42.358  23.251  1.00  0.00     0.123 A 
ATOM     21  C   UNL     1     -16.298 -41.278  22.365  1.00  0.00     0.047 A 
ATOM     22  C   UNL     1     -17.476 -42.816  23.782  1.00  0.00     0.094 A 
ATOM     23  C   UNL     1     -17.505 -40.667  22.002  1.00  0.00     0.016 A 
ATOM     24  C   UNL     1     -18.672 -42.193  23.412  1.00  0.00     0.142 A 
ATOM     25  C   UNL     1     -18.721 -41.116  22.529  1.00  0.00     0.021 A 
ATOM     26  O   UNL     1     -19.843 -42.716  23.989  1.00  0.00    -0.422 OA
ATOM     27  C   UNL     1     -20.027 -40.525  22.202  1.00  0.00    -0.027 A 
ATOM     28  C   UNL     1     -21.092 -42.199  23.692  1.00  0.00     0.339 A 
ATOM     29  C   UNL     1     -21.141 -41.058  22.741  1.00  0.00     0.042 A 
ATOM     30  C   UNL     1     -20.086 -39.333  21.271  1.00  0.00     0.037 C 
ATOM     31  O   UNL     1     -22.109 -42.660  24.200  1.00  0.00    -0.246 OA
ATOM     32  C   UNL     1     -22.529 -40.556  22.428  1.00  0.00     0.043 C 
ATOM     33  C   UNL     1     -21.443 -38.628  21.245  1.00  0.00     0.005 C 
ATOM     34  C   UNL     1     -22.582 -39.636  21.210  1.00  0.00     0.005 C 
ENDBRANCH  19  20
ENDBRANCH  18  19
ENDBRANCH  17  18
ENDBRANCH  16  17
ENDBRANCH   4  16
TORSDOF 8
ENDMDL
MODEL 5
REMARK VINA RESULT:   -10.836      1.970      2.849
REMARK INTER + INTRA:         -16.635
REMARK INTER:                 -16.030
REMARK INTRA:                  -0.605
REMARK UNBOUND:                -0.731
REMARK SMILES COc1cccc(CN2CCN(CCCOc3ccc4c5c(c(=O)oc4c3)CCCC5)CC2)c1
REMARK SMILES IDX 9 1 10 2 11 3 12 4 32 5 33 6 8 7 7 8 3 9 4 10 34 11 5 12
REMARK SMILES IDX 6 13 2 14 1 15 13 16 14 17 15 18 16 19 17 20 18 21 27 22
REMARK SMILES IDX 19 23 26 24 20 25 25 26 21 27 23 28 22 29 31 30 24 31 28 32
REMARK SMILES IDX 30 33 29 34
REMARK H PARENT
ROOT
ATOM      1  N   UNL     1     -11.058 -44.231  30.173  1.00  0.00    -0.297 NA
ATOM      2  C   UNL     1     -10.689 -43.759  28.822  1.00  0.00     0.100 C 
ATOM      3  C   UNL     1     -11.903 -43.709  27.864  1.00  0.00     0.100 C 
ATOM      4  N   UNL     1     -12.587 -45.015  27.749  1.00  0.00    -0.301 NA
ATOM      5  C   UNL     1     -12.954 -45.476  29.105  1.00  0.00     0.100 C 
ATOM      6  C   UNL     1     -11.737 -45.535  30.055  1.00  0.00     0.100 C 
ENDROOT
BRANCH   1   7
ATOM      7  C   UNL     1      -9.880 -44.345  31.048  1.00  0.00     0.120 C 
BRANCH   7   8
ATOM      8  C   UNL     1      -9.989 -43.501  32.300  1.00  0.00    -0.030 A 
ATOM      9  C   UNL     1     -11.324 -42.201  33.868  1.00  0.00     0.119 A 
ATOM     10  C   UNL     1     -10.168 -41.922  34.603  1.00  0.00     0.046 A 
ATOM     11  C   UNL     1     -11.231 -42.988  32.716  1.00  0.00     0.051 A 
ATOM     12  C   UNL     1      -8.933 -42.426  34.203  1.00  0.00     0.004 A 
ATOM     13  C   UNL     1      -8.843 -43.214  33.058  1.00  0.00     0.005 A 
BRANCH   9  14
ATOM     14  O   UNL     1     -12.467 -41.645  34.372  1.00  0.00    -0.497 OA
ATOM     15  C   UNL     1     -13.702 -42.165  33.895  1.00  0.00     0.278 C 
ENDBRANCH   9  14
ENDBRANCH   7   8
ENDBRANCH   1   7
BRANCH   4  16
ATOM     16  C   UNL     1     -13.782 -44.940  26.897  1.00  0.00     0.088 C 
BRANCH  16  17
ATOM     17  C   UNL     1     -13.935 -43.614  26.146  1.00  0.00     0.057 C 
BRANCH  17  18
ATOM     18  C   UNL     1     -15.396 -43.208  25.958  1.00  0.00     0.231 C 
BRANCH  18  19
ATOM     19  O   UNL     1     -15.791 -43.388  24.594  1.00  0.00    -0.493 OA
BRANCH  19  20
ATOM     20  C   UNL     1     -16.846 -42.665  24.118  1.00  0.00     0.123 A 
ATOM     21  C   UNL     1     -16.640 -42.092  22.861  1.00  0.00     0.047 A 
ATOM     22  C   UNL     1     -18.055 -42.443  24.767  1.00  0.00     0.094 A 
ATOM     23  C   UNL     1     -17.632 -41.313  22.250  1.00  0.00     0.016 A 
ATOM     24  C   UNL     1     -19.034 -41.661  24.146  1.00  0.00     0.142 A 
ATOM     25  C   UNL     1     -18.853 -41.080  22.891  1.00  0.00     0.021 A 
ATOM     26  O   UNL     1     -20.231 -41.485  24.864  1.00  0.00    -0.422 OA
ATOM     27  C   UNL     1     -19.940 -40.271  22.320  1.00  0.00    -0.027 A 
ATOM     28  C   UNL     1     -21.282 -40.747  24.352  1.00  0.00     0.339 A 
ATOM     29  C   UNL     1     -21.090 -40.139  23.010  1.00  0.00     0.042 A 
ATOM     30  C   UNL     1     -19.739 -39.608  20.975  1.00  0.00     0.037 C 
ATOM     31  O   UNL     1     -22.323 -40.597  24.985  1.00  0.00    -0.246 OA
ATOM     32  C   UNL     1     -22.281 -39.373  22.486  1.00  0.00     0.043 C 
ATOM     33  C   UNL     1     -20.802 -38.565  20.628  1.00  0.00     0.005 C 
ATOM     34  C   UNL     1     -22.193 -39.059  20.994  1.00  0.00     0.005 C 
ENDBRANCH  19  20
ENDBRANCH  18  19
ENDBRANCH  17  18
ENDBRANCH  16  17
ENDBRANCH   4  16
TORSDOF 8
ENDMDL
MODEL 6
REMARK VINA RESULT:   -10.777      2.703     13.067
REMARK INTER + INTRA:         -16.548
REMARK INTER:                 -15.999
REMARK INTRA:                  -0.549
REMARK UNBOUND:                -0.731
REMARK SMILES COc1cccc(CN2CCN(CCCOc3ccc4c5c(c(=O)oc4c3)CCCC5)CC2)c1
REMARK SMILES IDX 9 1 10 2 11 3 12 4 32 5 33 6 8 7 7 8 3 9 4 10 34 11 5 12
REMARK SMILES IDX 6 13 2 14 1 15 13 16 14 17 15 18 16 19 17 20 18 21 27 22
REMARK SMILES IDX 19 23 26 24 20 25 25 26 21 27 23 28 22 29 31 30 24 31 28 32
REMARK SMILES IDX 30 33 29 34
REMARK H PARENT
ROOT
ATOM      1  N   UNL     1     -19.644 -41.595  23.162  1.00  0.00    -0.297 NA
ATOM      2  C   UNL     1     -20.047 -42.067  24.503  1.00  0.00     0.100 C 
ATOM      3  C   UNL     1     -18.876 -42.037  25.514  1.00  0.00     0.100 C 
ATOM      4  N   UNL     1     -17.713 -42.825  25.055  1.00  0.00    -0.301 NA
ATOM      5  C   UNL     1     -17.316 -42.342  23.715  1.00  0.00     0.100 C 
ATOM      6  C   UNL     1     -18.485 -42.383  22.705  1.00  0.00     0.100 C 
ENDROOT
BRANCH   1   7
ATOM      7  C   UNL     1     -20.748 -41.700  22.195  1.00  0.00     0.120 C 
BRANCH   7   8
ATOM      8  C   UNL     1     -20.904 -40.463  21.336  1.00  0.00    -0.030 A 
ATOM      9  C   UNL     1     -22.209 -38.540  20.612  1.00  0.00     0.119 A 
ATOM     10  C   UNL     1     -21.187 -38.195  19.722  1.00  0.00     0.046 A 
ATOM     11  C   UNL     1     -22.066 -39.675  21.414  1.00  0.00     0.051 A 
ATOM     12  C   UNL     1     -20.030 -38.966  19.638  1.00  0.00     0.004 A 
ATOM     13  C   UNL     1     -19.888 -40.094  20.442  1.00  0.00     0.005 A 
BRANCH   9  14
ATOM     14  O   UNL     1     -23.286 -37.698  20.593  1.00  0.00    -0.497 OA
ATOM     15  C   UNL     1     -24.573 -38.295  20.696  1.00  0.00     0.278 C 
ENDBRANCH   9  14
ENDBRANCH   7   8
ENDBRANCH   1   7
BRANCH   4  16
ATOM     16  C   UNL     1     -16.578 -42.731  25.985  1.00  0.00     0.088 C 
BRANCH  16  17
ATOM     17  C   UNL     1     -15.218 -42.568  25.300  1.00  0.00     0.057 C 
BRANCH  17  18
ATOM     18  C   UNL     1     -14.409 -43.864  25.280  1.00  0.00     0.231 C 
BRANCH  18  19
ATOM     19  O   UNL     1     -14.442 -44.492  26.566  1.00  0.00    -0.493 OA
BRANCH  19  20
ATOM     20  C   UNL     1     -13.292 -44.541  27.299  1.00  0.00     0.123 A 
ATOM     21  C   UNL     1     -13.148 -45.690  28.081  1.00  0.00     0.047 A 
ATOM     22  C   UNL     1     -12.299 -43.569  27.345  1.00  0.00     0.094 A 
ATOM     23  C   UNL     1     -12.022 -45.874  28.894  1.00  0.00     0.016 A 
ATOM     24  C   UNL     1     -11.183 -43.766  28.164  1.00  0.00     0.142 A 
ATOM     25  C   UNL     1     -11.016 -44.904  28.952  1.00  0.00     0.021 A 
ATOM     26  O   UNL     1     -10.221 -42.739  28.154  1.00  0.00    -0.422 OA
ATOM     27  C   UNL     1      -9.808 -45.021  29.783  1.00  0.00    -0.027 A 
ATOM     28  C   UNL     1      -9.064 -42.821  28.908  1.00  0.00     0.339 A 
ATOM     29  C   UNL     1      -8.884 -44.041  29.738  1.00  0.00     0.042 A 
ATOM     30  C   UNL     1      -9.635 -46.236  30.667  1.00  0.00     0.037 C 
ATOM     31  O   UNL     1      -8.231 -41.921  28.895  1.00  0.00    -0.246 OA
ATOM     32  C   UNL     1      -7.590 -44.092  30.513  1.00  0.00     0.043 C 
ATOM     33  C   UNL     1      -8.509 -46.106  31.694  1.00  0.00     0.005 C 
ATOM     34  C   UNL     1      -7.271 -45.478  31.071  1.00  0.00     0.005 C 
ENDBRANCH  19  20
ENDBRANCH  18  19
ENDBRANCH  17  18
ENDBRANCH  16  17
ENDBRANCH   4  16
TORSDOF 8
ENDMDL
MODEL 7
REMARK VINA RESULT:   -10.734      1.784      2.645
REMARK INTER + INTRA:         -16.484
REMARK INTER:                 -17.386
REMARK INTRA:                   0.902
REMARK UNBOUND:                -0.731
REMARK SMILES COc1cccc(CN2CCN(CCCOc3ccc4c5c(c(=O)oc4c3)CCCC5)CC2)c1
REMARK SMILES IDX 9 1 10 2 11 3 12 4 32 5 33 6 8 7 7 8 3 9 4 10 34 11 5 12
REMARK SMILES IDX 6 13 2 14 1 15 13 16 14 17 15 18 16 19 17 20 18 21 27 22
REMARK SMILES IDX 19 23 26 24 20 25 25 26 21 27 23 28 22 29 31 30 24 31 28 32
REMARK SMILES IDX 30 33 29 34
REMARK H PARENT
ROOT
ATOM      1  N   UNL     1     -10.168 -46.647  30.297  1.00  0.00    -0.297 NA
ATOM      2  C   UNL     1     -11.268 -46.055  31.088  1.00  0.00     0.100 C 
ATOM      3  C   UNL     1     -12.612 -46.061  30.322  1.00  0.00     0.100 C 
ATOM      4  N   UNL     1     -12.525 -45.364  29.021  1.00  0.00    -0.301 NA
ATOM      5  C   UNL     1     -11.425 -45.966  28.237  1.00  0.00     0.100 C 
ATOM      6  C   UNL     1     -10.082 -45.950  29.001  1.00  0.00     0.100 C 
ENDROOT
BRANCH   1   7
ATOM      7  C   UNL     1      -8.884 -46.565  31.010  1.00  0.00     0.120 C 
BRANCH   7   8
ATOM      8  C   UNL     1      -8.720 -45.278  31.790  1.00  0.00    -0.030 A 
ATOM      9  C   UNL     1      -9.686 -43.373  32.959  1.00  0.00     0.119 A 
ATOM     10  C   UNL     1      -8.400 -42.887  33.208  1.00  0.00     0.046 A 
ATOM     11  C   UNL     1      -9.843 -44.566  32.247  1.00  0.00     0.051 A 
ATOM     12  C   UNL     1      -7.279 -43.585  32.763  1.00  0.00     0.004 A 
ATOM     13  C   UNL     1      -7.437 -44.776  32.059  1.00  0.00     0.005 A 
BRANCH   9  14
ATOM     14  O   UNL     1     -10.694 -42.591  33.451  1.00  0.00    -0.497 OA
ATOM     15  C   UNL     1     -10.361 -41.700  34.508  1.00  0.00     0.278 C 
ENDBRANCH   9  14
ENDBRANCH   7   8
ENDBRANCH   1   7
BRANCH   4  16
ATOM     16  C   UNL     1     -13.785 -45.439  28.267  1.00  0.00     0.088 C 
BRANCH  16  17
ATOM     17  C   UNL     1     -13.634 -45.180  26.765  1.00  0.00     0.057 C 
BRANCH  17  18
ATOM     18  C   UNL     1     -13.808 -43.708  26.400  1.00  0.00     0.231 C 
BRANCH  18  19
ATOM     19  O   UNL     1     -14.716 -43.073  27.307  1.00  0.00    -0.493 OA
BRANCH  19  20
ATOM     20  C   UNL     1     -15.961 -42.739  26.858  1.00  0.00     0.123 A 
ATOM     21  C   UNL     1     -16.888 -42.462  27.865  1.00  0.00     0.047 A 
ATOM     22  C   UNL     1     -16.372 -42.675  25.531  1.00  0.00     0.094 A 
ATOM     23  C   UNL     1     -18.210 -42.115  27.555  1.00  0.00     0.016 A 
ATOM     24  C   UNL     1     -17.695 -42.330  25.238  1.00  0.00     0.142 A 
ATOM     25  C   UNL     1     -18.638 -42.048  26.225  1.00  0.00     0.021 A 
ATOM     26  O   UNL     1     -18.032 -42.284  23.874  1.00  0.00    -0.422 OA
ATOM     27  C   UNL     1     -20.007 -41.696  25.819  1.00  0.00    -0.027 A 
ATOM     28  C   UNL     1     -19.304 -41.940  23.452  1.00  0.00     0.339 A 
ATOM     29  C   UNL     1     -20.304 -41.628  24.507  1.00  0.00     0.042 A 
ATOM     30  C   UNL     1     -21.046 -41.423  26.885  1.00  0.00     0.037 C 
ATOM     31  O   UNL     1     -19.591 -41.903  22.260  1.00  0.00    -0.246 OA
ATOM     32  C   UNL     1     -21.664 -41.228  23.990  1.00  0.00     0.043 C 
ATOM     33  C   UNL     1     -22.481 -41.366  26.357  1.00  0.00     0.005 C 
ATOM     34  C   UNL     1     -22.554 -40.587  25.053  1.00  0.00     0.005 C 
ENDBRANCH  19  20
ENDBRANCH  18  19
ENDBRANCH  17  18
ENDBRANCH  16  17
ENDBRANCH   4  16
TORSDOF 8
ENDMDL
MODEL 8
REMARK VINA RESULT:   -10.440      3.337     12.373
REMARK INTER + INTRA:         -16.054
REMARK INTER:                 -15.550
REMARK INTRA:                  -0.503
REMARK UNBOUND:                -0.731
REMARK SMILES COc1cccc(CN2CCN(CCCOc3ccc4c5c(c(=O)oc4c3)CCCC5)CC2)c1
REMARK SMILES IDX 9 1 10 2 11 3 12 4 32 5 33 6 8 7 7 8 3 9 4 10 34 11 5 12
REMARK SMILES IDX 6 13 2 14 1 15 13 16 14 17 15 18 16 19 17 20 18 21 27 22
REMARK SMILES IDX 19 23 26 24 20 25 25 26 21 27 23 28 22 29 31 30 24 31 28 32
REMARK SMILES IDX 30 33 29 34
REMARK H PARENT
ROOT
ATOM      1  N   UNL     1     -20.093 -41.892  25.942  1.00  0.00    -0.297 NA
ATOM      2  C   UNL     1     -19.050 -42.637  26.678  1.00  0.00     0.100 C 
ATOM      3  C   UNL     1     -17.635 -42.390  26.105  1.00  0.00     0.100 C 
ATOM      4  N   UNL     1     -17.541 -42.723  24.667  1.00  0.00    -0.301 NA
ATOM      5  C   UNL     1     -18.586 -41.969  23.940  1.00  0.00     0.100 C 
ATOM      6  C   UNL     1     -19.999 -42.227  24.509  1.00  0.00     0.100 C 
ENDROOT
BRANCH   1   7
ATOM      7  C   UNL     1     -21.439 -42.197  26.452  1.00  0.00     0.120 C 
BRANCH   7   8
ATOM      8  C   UNL     1     -22.414 -41.052  26.272  1.00  0.00    -0.030 A 
ATOM      9  C   UNL     1     -23.613 -39.132  27.168  1.00  0.00     0.119 A 
ATOM     10  C   UNL     1     -24.238 -38.959  25.931  1.00  0.00     0.046 A 
ATOM     11  C   UNL     1     -22.705 -40.181  27.337  1.00  0.00     0.051 A 
ATOM     12  C   UNL     1     -23.957 -39.813  24.867  1.00  0.00     0.004 A 
ATOM     13  C   UNL     1     -23.048 -40.855  25.036  1.00  0.00     0.005 A 
BRANCH   9  14
ATOM     14  O   UNL     1     -23.979 -38.224  28.123  1.00  0.00    -0.497 OA
ATOM     15  C   UNL     1     -25.018 -37.314  27.781  1.00  0.00     0.278 C 
ENDBRANCH   9  14
ENDBRANCH   7   8
ENDBRANCH   1   7
BRANCH   4  16
ATOM     16  C   UNL     1     -16.215 -42.415  24.112  1.00  0.00     0.088 C 
BRANCH  16  17
ATOM     17  C   UNL     1     -15.079 -42.470  25.138  1.00  0.00     0.057 C 
BRANCH  17  18
ATOM     18  C   UNL     1     -14.391 -43.833  25.184  1.00  0.00     0.231 C 
BRANCH  18  19
ATOM     19  O   UNL     1     -14.464 -44.384  26.504  1.00  0.00    -0.493 OA
BRANCH  19  20
ATOM     20  C   UNL     1     -13.323 -44.447  27.249  1.00  0.00     0.123 A 
ATOM     21  C   UNL     1     -13.210 -45.590  28.045  1.00  0.00     0.047 A 
ATOM     22  C   UNL     1     -12.312 -43.494  27.296  1.00  0.00     0.094 A 
ATOM     23  C   UNL     1     -12.096 -45.787  28.872  1.00  0.00     0.016 A 
ATOM     24  C   UNL     1     -11.209 -43.704  28.129  1.00  0.00     0.142 A 
ATOM     25  C   UNL     1     -11.072 -44.836  28.930  1.00  0.00     0.021 A 
ATOM     26  O   UNL     1     -10.227 -42.696  28.118  1.00  0.00    -0.422 OA
ATOM     27  C   UNL     1      -9.875 -44.967  29.775  1.00  0.00    -0.027 A 
ATOM     28  C   UNL     1      -9.080 -42.792  28.886  1.00  0.00     0.339 A 
ATOM     29  C   UNL     1      -8.933 -44.006  29.730  1.00  0.00     0.042 A 
ATOM     30  C   UNL     1      -9.736 -46.176  30.675  1.00  0.00     0.037 C 
ATOM     31  O   UNL     1      -8.229 -41.908  28.872  1.00  0.00    -0.246 OA
ATOM     32  C   UNL     1      -7.648 -44.074  30.519  1.00  0.00     0.043 C 
ATOM     33  C   UNL     1      -8.618 -46.057  31.712  1.00  0.00     0.005 C 
ATOM     34  C   UNL     1      -7.362 -45.460  31.096  1.00  0.00     0.005 C 
ENDBRANCH  19  20
ENDBRANCH  18  19
ENDBRANCH  17  18
ENDBRANCH  16  17
ENDBRANCH   4  16
TORSDOF 8
ENDMDL
MODEL 9
REMARK VINA RESULT:   -10.401      2.589      3.559
REMARK INTER + INTRA:         -15.996
REMARK INTER:                 -16.024
REMARK INTRA:                   0.029
REMARK UNBOUND:                -0.731
REMARK SMILES COc1cccc(CN2CCN(CCCOc3ccc4c5c(c(=O)oc4c3)CCCC5)CC2)c1
REMARK SMILES IDX 9 1 10 2 11 3 12 4 32 5 33 6 8 7 7 8 3 9 4 10 34 11 5 12
REMARK SMILES IDX 6 13 2 14 1 15 13 16 14 17 15 18 16 19 17 20 18 21 27 22
REMARK SMILES IDX 19 23 26 24 20 25 25 26 21 27 23 28 22 29 31 30 24 31 28 32
REMARK SMILES IDX 30 33 29 34
REMARK H PARENT
ROOT
ATOM      1  N   UNL     1     -11.653 -45.208  28.775  1.00  0.00    -0.297 NA
ATOM      2  C   UNL     1     -13.123 -45.341  28.705  1.00  0.00     0.100 C 
ATOM      3  C   UNL     1     -13.710 -44.723  27.415  1.00  0.00     0.100 C 
ATOM      4  N   UNL     1     -13.347 -43.298  27.255  1.00  0.00    -0.301 NA
ATOM      5  C   UNL     1     -11.874 -43.177  27.321  1.00  0.00     0.100 C 
ATOM      6  C   UNL     1     -11.293 -43.788  28.617  1.00  0.00     0.100 C 
ENDROOT
BRANCH   1   7
ATOM      7  C   UNL     1     -11.121 -45.734  30.041  1.00  0.00     0.120 C 
BRANCH   7   8
ATOM      8  C   UNL     1     -11.093 -44.700  31.147  1.00  0.00    -0.030 A 
ATOM      9  C   UNL     1     -12.202 -42.980  32.465  1.00  0.00     0.119 A 
ATOM     10  C   UNL     1     -11.016 -42.774  33.175  1.00  0.00     0.046 A 
ATOM     11  C   UNL     1     -12.237 -43.940  31.450  1.00  0.00     0.051 A 
ATOM     12  C   UNL     1      -9.877 -43.523  32.887  1.00  0.00     0.004 A 
ATOM     13  C   UNL     1      -9.915 -44.482  31.878  1.00  0.00     0.005 A 
BRANCH   9  14
ATOM     14  O   UNL     1     -13.242 -42.180  32.851  1.00  0.00    -0.497 OA
ATOM     15  C   UNL     1     -14.470 -42.825  33.166  1.00  0.00     0.278 C 
ENDBRANCH   9  14
ENDBRANCH   7   8
ENDBRANCH   1   7
BRANCH   4  16
ATOM     16  C   UNL     1     -13.845 -42.738  25.990  1.00  0.00     0.088 C 
BRANCH  16  17
ATOM     17  C   UNL     1     -14.420 -43.781  25.026  1.00  0.00     0.057 C 
BRANCH  17  18
ATOM     18  C   UNL     1     -15.872 -43.496  24.647  1.00  0.00     0.231 C 
BRANCH  18  19
ATOM     19  O   UNL     1     -16.584 -42.962  25.768  1.00  0.00    -0.493 OA
BRANCH  19  20
ATOM     20  C   UNL     1     -17.815 -42.410  25.558  1.00  0.00     0.123 A 
ATOM     21  C   UNL     1     -18.091 -42.093  24.226  1.00  0.00     0.047 A 
ATOM     22  C   UNL     1     -18.771 -42.129  26.527  1.00  0.00     0.094 A 
ATOM     23  C   UNL     1     -19.312 -41.511  23.860  1.00  0.00     0.016 A 
ATOM     24  C   UNL     1     -19.983 -41.545  26.147  1.00  0.00     0.142 A 
ATOM     25  C   UNL     1     -20.284 -41.222  24.824  1.00  0.00     0.021 A 
ATOM     26  O   UNL     1     -20.900 -41.295  27.184  1.00  0.00    -0.422 OA
ATOM     27  C   UNL     1     -21.585 -40.608  24.521  1.00  0.00    -0.027 A 
ATOM     28  C   UNL     1     -22.141 -40.736  26.936  1.00  0.00     0.339 A 
ATOM     29  C   UNL     1     -22.462 -40.403  25.524  1.00  0.00     0.042 A 
ATOM     30  C   UNL     1     -21.905 -40.222  23.094  1.00  0.00     0.037 C 
ATOM     31  O   UNL     1     -22.935 -40.520  27.847  1.00  0.00    -0.246 OA
ATOM     32  C   UNL     1     -23.840 -39.827  25.308  1.00  0.00     0.043 C 
ATOM     33  C   UNL     1     -23.141 -39.332  22.950  1.00  0.00     0.005 C 
ATOM     34  C   UNL     1     -24.272 -39.819  23.843  1.00  0.00     0.005 C 
ENDBRANCH  19  20
ENDBRANCH  18  19
ENDBRANCH  17  18
ENDBRANCH  16  17
ENDBRANCH   4  16
TORSDOF 8
ENDMDL
