REMARK SMILES CCC(CC)n1cc(-c2nc(-c3cnn(C[C@@H](O)CN(C)C)c3)cn3nccc23)cn1
REMARK SMILES IDX 12 1 13 2 14 3 15 4 23 5 11 6 9 7 10 8 29 9 28 10 25 11
REMARK SMILES IDX 24 12 27 13 26 14 8 15 6 16 7 17 31 18 30 19 3 20 2 21 1 22
REMARK SMILES IDX 4 23 5 24 16 25 17 26 18 27 19 29 20 30 21 31 22 32
REMARK H PARENT 18 28
REMARK INDEX MAP 12 1 13 2 14 3 15 4 23 5 11 6 9 7 10 8 29 9 28 10 25 11 24 12
REMARK INDEX MAP 27 13 26 14 8 15 6 16 7 17 31 18 30 19 3 20 2 21 1 22 4 23
REMARK INDEX MAP 5 24 16 25 17 26 18 27 48 28 19 29 20 30 21 31 22 32
ROOT
ATOM      1  C   UNL     1     -19.000  21.007  19.829  1.00  0.00     0.040 A 
ATOM      2  C   UNL     1     -19.472  22.224  20.373  1.00  0.00     0.145 A 
ATOM      3  N   UNL     1     -20.794  22.225  20.572  1.00  0.00    -0.181 NA
ATOM      4  N   UNL     1     -21.173  21.001  20.152  1.00  0.00    -0.269 N 
ATOM      5  C   UNL     1     -20.137  20.238  19.694  1.00  0.00     0.119 A 
ENDROOT
BRANCH   1   6
ATOM      6  C   UNL     1     -17.654  20.648  19.495  1.00  0.00     0.092 A 
ATOM      7  C   UNL     1     -16.224  18.854  19.183  1.00  0.00     0.100 A 
ATOM      8  N   UNL     1     -17.415  19.283  19.485  1.00  0.00    -0.244 NA
ATOM      9  C   UNL     1     -15.135  19.751  18.898  1.00  0.00     0.093 A 
ATOM     10  C   UNL     1     -13.785  19.634  18.652  1.00  0.00     0.052 A 
ATOM     11  N   UNL     1     -15.419  21.102  18.903  1.00  0.00    -0.237 N 
ATOM     12  C   UNL     1     -16.693  21.543  19.204  1.00  0.00     0.142 A 
ATOM     13  C   UNL     1     -13.343  20.954  18.470  1.00  0.00     0.136 A 
ATOM     14  N   UNL     1     -14.325  21.844  18.605  1.00  0.00    -0.176 NA
BRANCH   7  15
ATOM     15  C   UNL     1     -16.030  17.419  19.148  1.00  0.00     0.040 A 
ATOM     16  N   UNL     1     -15.570  15.304  19.598  1.00  0.00    -0.269 N 
ATOM     17  C   UNL     1     -15.612  16.559  20.146  1.00  0.00     0.119 A 
ATOM     18  N   UNL     1     -15.914  15.288  18.299  1.00  0.00    -0.181 NA
ATOM     19  C   UNL     1     -16.174  16.568  18.025  1.00  0.00     0.145 A 
BRANCH  16  20
ATOM     20  C   UNL     1     -15.180  14.056  20.257  1.00  0.00     0.107 C 
BRANCH  20  21
ATOM     21  C   UNL     1     -13.780  13.586  19.812  1.00  0.00     0.024 C 
ATOM     22  C   UNL     1     -12.649  14.293  20.551  1.00  0.00     0.006 C 
ENDBRANCH  20  21
BRANCH  20  23
ATOM     23  C   UNL     1     -16.267  12.985  20.033  1.00  0.00     0.024 C 
ATOM     24  C   UNL     1     -17.616  13.352  20.635  1.00  0.00     0.006 C 
ENDBRANCH  20  23
ENDBRANCH  16  20
ENDBRANCH   7  15
ENDBRANCH   1   6
BRANCH   4  25
ATOM     25  C   UNL     1     -22.574  20.631  20.202  1.00  0.00     0.177 C 
BRANCH  25  26
ATOM     26  C   UNL     1     -23.156  20.579  21.616  1.00  0.00     0.150 C 
BRANCH  26  27
ATOM     27  O   UNL     1     -24.302  21.440  21.717  1.00  0.00    -0.390 OA
ATOM     28  H   UNL     1     -24.513  21.598  22.671  1.00  0.00     0.211 HD
ENDBRANCH  26  27
BRANCH  26  29
ATOM     29  C   UNL     1     -23.542  19.160  22.094  1.00  0.00     0.117 C 
BRANCH  29  30
ATOM     30  N   UNL     1     -22.817  18.796  23.340  1.00  0.00    -0.307 NA
ATOM     31  C   UNL     1     -23.411  17.581  23.912  1.00  0.00     0.105 C 
ATOM     32  C   UNL     1     -21.391  18.560  23.084  1.00  0.00     0.105 C 
ENDBRANCH  29  30
ENDBRANCH  26  29
ENDBRANCH  25  26
ENDBRANCH   4  25
TORSDOF 10
