REMARK SMILES NCCCn1c(CCN)nc2cc(C(N)=O)ccc21
REMARK SMILES IDX 5 1 6 2 10 3 11 4 12 5 13 6 17 7 18 8 19 9 4 10 3 11 2 12
REMARK SMILES IDX 1 13 7 16 8 17 9 18 14 21 15 22 16 23
REMARK H PARENT 1 14 1 15 9 19 9 20 15 24 15 25
REMARK INDEX MAP 5 1 6 2 10 3 11 4 12 5 13 6 17 7 18 8 19 9 4 10 3 11 2 12
REMARK INDEX MAP 1 13 20 14 21 15 7 16 8 17 9 18 32 19 33 20 14 21 15 22 16 23
REMARK INDEX MAP 35 24 36 25
ROOT
ATOM      1  N   UNL     1       5.544 -23.217  21.799  1.00  0.00    -0.328 N 
ATOM      2  C   UNL     1       4.602 -23.010  20.810  1.00  0.00     0.111 A 
ATOM      3  N   UNL     1       3.925 -24.116  20.572  1.00  0.00    -0.233 NA
ATOM      4  C   UNL     1       4.437 -25.063  21.417  1.00  0.00     0.090 A 
ATOM      5  C   UNL     1       4.063 -26.408  21.563  1.00  0.00     0.044 A 
ATOM      6  C   UNL     1       4.744 -27.197  22.500  1.00  0.00     0.041 A 
ATOM      7  C   UNL     1       5.764 -26.640  23.285  1.00  0.00     0.016 A 
ATOM      8  C   UNL     1       6.145 -25.299  23.150  1.00  0.00     0.029 A 
ATOM      9  C   UNL     1       5.457 -24.535  22.199  1.00  0.00     0.068 A 
ENDROOT
BRANCH   1  10
ATOM     10  C   UNL     1       6.491 -22.247  22.314  1.00  0.00     0.125 C 
BRANCH  10  11
ATOM     11  C   UNL     1       7.629 -21.899  21.353  1.00  0.00     0.037 C 
BRANCH  11  12
ATOM     12  C   UNL     1       8.824 -22.844  21.477  1.00  0.00     0.079 C 
BRANCH  12  13
ATOM     13  N   UNL     1      10.051 -22.142  21.119  1.00  0.00    -0.330 NA
ATOM     14  H   UNL     1      10.547 -21.858  21.976  1.00  0.00     0.118 HD
ATOM     15  H   UNL     1      10.654 -22.766  20.564  1.00  0.00     0.118 HD
ENDBRANCH  12  13
ENDBRANCH  11  12
ENDBRANCH  10  11
ENDBRANCH   1  10
BRANCH   2  16
ATOM     16  C   UNL     1       4.368 -21.712  20.103  1.00  0.00     0.090 C 
BRANCH  16  17
ATOM     17  C   UNL     1       3.430 -20.809  20.910  1.00  0.00     0.085 C 
BRANCH  17  18
ATOM     18  N   UNL     1       2.975 -19.669  20.110  1.00  0.00    -0.330 NA
ATOM     19  H   UNL     1       2.672 -18.909  20.736  1.00  0.00     0.118 HD
ATOM     20  H   UNL     1       3.748 -19.336  19.516  1.00  0.00     0.118 HD
ENDBRANCH  17  18
ENDBRANCH  16  17
ENDBRANCH   2  16
BRANCH   6  21
ATOM     21  C   UNL     1       4.407 -28.632  22.715  1.00  0.00     0.248 C 
ATOM     22  N   UNL     1       3.399 -29.172  21.967  1.00  0.00    -0.366 N 
ATOM     23  O   UNL     1       5.027 -29.321  23.516  1.00  0.00    -0.270 OA
ATOM     24  H   UNL     1       3.140 -30.161  22.090  1.00  0.00     0.159 HD
ATOM     25  H   UNL     1       2.898 -28.590  21.280  1.00  0.00     0.159 HD
ENDBRANCH   6  21
TORSDOF 8
