REMARK SMILES NCCCn1c(CCN)nc2cc(C(N)=O)ccc21
REMARK SMILES IDX 5 1 6 2 10 3 11 4 12 5 13 6 17 7 18 8 19 9 4 10 3 11 2 12
REMARK SMILES IDX 1 13 7 16 8 17 9 18 14 21 15 22 16 23
REMARK H PARENT 1 14 1 15 9 19 9 20 15 24 15 25
REMARK INDEX MAP 5 1 6 2 10 3 11 4 12 5 13 6 17 7 18 8 19 9 4 10 3 11 2 12
REMARK INDEX MAP 1 13 20 14 21 15 7 16 8 17 9 18 32 19 33 20 14 21 15 22 16 23
REMARK INDEX MAP 35 24 36 25
ROOT
ATOM      1  N   UNL     1       6.512 -22.779  21.699  1.00  0.00    -0.328 N 
ATOM      2  C   UNL     1       7.844 -22.418  21.736  1.00  0.00     0.111 A 
ATOM      3  N   UNL     1       8.570 -23.369  22.289  1.00  0.00    -0.233 NA
ATOM      4  C   UNL     1       7.696 -24.368  22.623  1.00  0.00     0.090 A 
ATOM      5  C   UNL     1       7.960 -25.602  23.236  1.00  0.00     0.044 A 
ATOM      6  C   UNL     1       6.889 -26.470  23.488  1.00  0.00     0.041 A 
ATOM      7  C   UNL     1       5.586 -26.112  23.115  1.00  0.00     0.016 A 
ATOM      8  C   UNL     1       5.309 -24.884  22.502  1.00  0.00     0.029 A 
ATOM      9  C   UNL     1       6.395 -24.030  22.271  1.00  0.00     0.068 A 
ENDROOT
BRANCH   1  10
ATOM     10  C   UNL     1       5.410 -21.986  21.189  1.00  0.00     0.125 C 
BRANCH  10  11
ATOM     11  C   UNL     1       5.248 -22.026  19.669  1.00  0.00     0.037 C 
BRANCH  11  12
ATOM     12  C   UNL     1       4.814 -23.398  19.151  1.00  0.00     0.079 C 
BRANCH  12  13
ATOM     13  N   UNL     1       5.907 -24.020  18.413  1.00  0.00    -0.330 NA
ATOM     14  H   UNL     1       6.591 -24.410  19.077  1.00  0.00     0.118 HD
ATOM     15  H   UNL     1       5.535 -24.776  17.820  1.00  0.00     0.118 HD
ENDBRANCH  12  13
ENDBRANCH  11  12
ENDBRANCH  10  11
ENDBRANCH   1  10
BRANCH   2  16
ATOM     16  C   UNL     1       8.401 -21.129  21.217  1.00  0.00     0.090 C 
BRANCH  16  17
ATOM     17  C   UNL     1       9.898 -21.015  21.524  1.00  0.00     0.085 C 
BRANCH  17  18
ATOM     18  N   UNL     1      10.701 -21.692  20.503  1.00  0.00    -0.330 NA
ATOM     19  H   UNL     1      11.407 -22.287  20.960  1.00  0.00     0.118 HD
ATOM     20  H   UNL     1      10.088 -22.276  19.916  1.00  0.00     0.118 HD
ENDBRANCH  17  18
ENDBRANCH  16  17
ENDBRANCH   2  16
BRANCH   6  21
ATOM     21  C   UNL     1       7.086 -27.797  24.134  1.00  0.00     0.248 C 
ATOM     22  N   UNL     1       6.246 -28.815  23.778  1.00  0.00    -0.366 N 
ATOM     23  O   UNL     1       7.987 -27.988  24.942  1.00  0.00    -0.270 OA
ATOM     24  H   UNL     1       6.355 -29.746  24.206  1.00  0.00     0.159 HD
ATOM     25  H   UNL     1       5.505 -28.651  23.082  1.00  0.00     0.159 HD
ENDBRANCH   6  21
TORSDOF 8
