MODEL 9
REMARK minimizedAffinity -8.4481411
REMARK CNNscore 0.484400898
REMARK CNNaffinity 5.58529663
REMARK SMILES C[N@H+]1CC[C@H](c2c(O)cc(O)c3c(=O)cc(-c4ccccc4Cl)oc23)[C@H](O)C1
REMARK SMILES IDX 6 1 7 2 9 3 10 4 12 5 13 6 14 7 15 8 16 9 24 10 25 11 5 12
REMARK SMILES IDX 2 13 28 14 3 15 26 16 4 17 1 18 27 20 8 22 11 24 17 26 22 27
REMARK SMILES IDX 18 28 21 29 19 30 20 31 23 32
REMARK H PARENT 2 19 27 21 8 23 11 25
ROOT
ATOM      1  C   UNL     1      17.206  35.073  16.840  1.00  0.00     0.044 A 
ATOM      2  C   UNL     1      16.124  35.318  17.704  1.00  0.00     0.126 A 
ATOM      3  C   UNL     1      14.815  35.179  17.254  1.00  0.00     0.093 A 
ATOM      4  C   UNL     1      14.542  34.782  15.949  1.00  0.00     0.134 A 
ATOM      5  C   UNL     1      15.594  34.496  15.057  1.00  0.00     0.107 A 
ATOM      6  C   UNL     1      15.358  34.042  13.634  1.00  0.00     0.197 A 
ATOM      7  O   UNL     1      14.242  33.896  13.139  1.00  0.00    -0.289 OA
ATOM      8  C   UNL     1      16.582  33.785  12.889  1.00  0.00     0.100 A 
ATOM      9  C   UNL     1      17.797  33.938  13.447  1.00  0.00     0.140 A 
ATOM     10  O   UNL     1      18.003  34.355  14.719  1.00  0.00    -0.455 OA
ATOM     11  C   UNL     1      16.917  34.644  15.528  1.00  0.00     0.149 A 
ENDROOT
BRANCH   1  12
ATOM     12  C   UNL     1      18.682  35.232  17.288  1.00  0.00     0.067 C 
ATOM     13  N   UNL     1      21.615  35.606  17.172  1.00  0.00    -0.335 N 
ATOM     14  C   UNL     1      20.678  36.778  17.559  1.00  0.00     0.294 C 
ATOM     15  C   UNL     1      21.028  34.246  17.627  1.00  0.00     0.262 C 
ATOM     16  C   UNL     1      19.320  36.575  16.847  1.00  0.00     0.177 C 
ATOM     17  C   UNL     1      19.630  34.035  16.999  1.00  0.00     0.073 C 
ATOM     18  C   UNL     1      23.013  35.811  17.789  1.00  0.00     0.332 C 
ATOM     19  H   UNL     1      21.698  35.595  16.164  1.00  0.00     0.347 HD
BRANCH  16  20
ATOM     20  O   UNL     1      19.467  36.671  15.440  1.00  0.00    -0.387 OA
ATOM     21  H   UNL     1      18.623  36.463  15.032  1.00  0.00     0.211 HD
ENDBRANCH  16  20
ENDBRANCH   1  12
BRANCH   2  22
ATOM     22  O   UNL     1      16.295  35.681  19.013  1.00  0.00    -0.507 OA
ATOM     23  H   UNL     1      15.463  35.817  19.471  1.00  0.00     0.293 HD
ENDBRANCH   2  22
BRANCH   4  24
ATOM     24  O   UNL     1      13.219  34.679  15.598  1.00  0.00    -0.507 OA
ATOM     25  H   UNL     1      12.622  34.906  16.314  1.00  0.00     0.293 HD
ENDBRANCH   4  24
BRANCH   9  26
ATOM     26  C   UNL     1      19.074  33.719  12.748  1.00  0.00     0.036 A 
ATOM     27  C   UNL     1      19.178  33.763  11.347  1.00  0.00     0.052 A 
ATOM     28  C   UNL     1      20.228  33.494  13.509  1.00  0.00     0.013 A 
ATOM     29  C   UNL     1      20.416  33.561  10.731  1.00  0.00     0.021 A 
ATOM     30  C   UNL     1      21.461  33.294  12.889  1.00  0.00     0.001 A 
ATOM     31  C   UNL     1      21.554  33.325  11.499  1.00  0.00     0.002 A 
ATOM     32  Cl  UNL     1      17.801  34.076  10.345  1.00  0.00    -0.084 Cl
ENDBRANCH   9  26
TORSDOF 5
ENDMDL
