MODEL 7
REMARK minimizedAffinity -8.13542271
REMARK CNNscore 0.547778249
REMARK CNNaffinity 5.7185216
REMARK SMILES C[N@H+]1CC[C@H](c2c(O)cc(O)c3c(=O)cc(-c4ccccc4Cl)oc23)[C@H](O)C1
REMARK SMILES IDX 6 1 7 2 9 3 10 4 12 5 13 6 14 7 15 8 16 9 24 10 25 11 5 12
REMARK SMILES IDX 2 13 28 14 3 15 26 16 4 17 1 18 27 20 8 22 11 24 17 26 22 27
REMARK SMILES IDX 18 28 21 29 19 30 20 31 23 32
REMARK H PARENT 2 19 27 21 8 23 11 25
ROOT
ATOM      1  C   UNL     1      18.511  35.132  18.163  1.00  0.00     0.044 A 
ATOM      2  C   UNL     1      17.648  35.546  19.194  1.00  0.00     0.126 A 
ATOM      3  C   UNL     1      16.287  35.701  18.956  1.00  0.00     0.093 A 
ATOM      4  C   UNL     1      15.740  35.436  17.705  1.00  0.00     0.134 A 
ATOM      5  C   UNL     1      16.560  34.990  16.650  1.00  0.00     0.107 A 
ATOM      6  C   UNL     1      16.020  34.670  15.275  1.00  0.00     0.197 A 
ATOM      7  O   UNL     1      14.836  34.780  14.962  1.00  0.00    -0.289 OA
ATOM      8  C   UNL     1      17.035  34.208  14.339  1.00  0.00     0.100 A 
ATOM      9  C   UNL     1      18.325  34.080  14.697  1.00  0.00     0.140 A 
ATOM     10  O   UNL     1      18.806  34.379  15.928  1.00  0.00    -0.455 OA
ATOM     11  C   UNL     1      17.941  34.840  16.906  1.00  0.00     0.149 A 
ENDROOT
BRANCH   1  12
ATOM     12  C   UNL     1      20.038  34.962  18.372  1.00  0.00     0.067 C 
ATOM     13  N   UNL     1      22.959  35.200  17.966  1.00  0.00    -0.335 N 
ATOM     14  C   UNL     1      22.234  36.044  19.045  1.00  0.00     0.294 C 
ATOM     15  C   UNL     1      22.261  33.832  17.762  1.00  0.00     0.262 C 
ATOM     16  C   UNL     1      20.786  36.307  18.570  1.00  0.00     0.177 C 
ATOM     17  C   UNL     1      20.782  34.046  17.361  1.00  0.00     0.073 C 
ATOM     18  C   UNL     1      24.436  34.987  18.354  1.00  0.00     0.332 C 
ATOM     19  H   UNL     1      22.918  35.711  17.094  1.00  0.00     0.347 HD
BRANCH  16  20
ATOM     20  O   UNL     1      20.774  37.113  17.404  1.00  0.00    -0.387 OA
ATOM     21  H   UNL     1      19.867  37.189  17.097  1.00  0.00     0.211 HD
ENDBRANCH  16  20
ENDBRANCH   1  12
BRANCH   2  22
ATOM     22  O   UNL     1      18.089  35.797  20.465  1.00  0.00    -0.507 OA
ATOM     23  H   UNL     1      17.384  36.076  21.053  1.00  0.00     0.293 HD
ENDBRANCH   2  22
BRANCH   4  24
ATOM     24  O   UNL     1      14.388  35.624  17.568  1.00  0.00    -0.507 OA
ATOM     25  H   UNL     1      13.968  35.930  18.375  1.00  0.00     0.293 HD
ENDBRANCH   4  24
BRANCH   9  26
ATOM     26  C   UNL     1      19.406  33.643  13.799  1.00  0.00     0.036 A 
ATOM     27  C   UNL     1      20.551  34.426  13.568  1.00  0.00     0.052 A 
ATOM     28  C   UNL     1      19.305  32.389  13.183  1.00  0.00     0.013 A 
ATOM     29  C   UNL     1      21.556  33.961  12.717  1.00  0.00     0.021 A 
ATOM     30  C   UNL     1      20.312  31.930  12.334  1.00  0.00     0.001 A 
ATOM     31  C   UNL     1      21.437  32.718  12.099  1.00  0.00     0.002 A 
ATOM     32  Cl  UNL     1      20.762  35.968  14.328  1.00  0.00    -0.084 Cl
ENDBRANCH   9  26
TORSDOF 5
ENDMDL
