MODEL 1
REMARK minimizedAffinity -7.28533077
REMARK CNNscore 0.899952412
REMARK CNNaffinity 7.6085372
REMARK SMILES N#Cc1c(N2CCOCC2)sc(-c2ncn[nH]2)c1-c1ccc(Cl)cc1Cl
REMARK SMILES IDX 1 1 2 2 3 3 4 4 11 5 12 6 18 7 5 8 6 9 10 10 7 11 9 12 8 13
REMARK SMILES IDX 19 14 20 15 25 16 21 17 24 18 22 19 26 20 23 21 13 22 14 23
REMARK SMILES IDX 17 24 15 25 16 26
REMARK H PARENT 17 27
ROOT
ATOM      1  N   UNL     1      48.934  -2.186 -46.180  1.00  0.00    -0.192 NA
ATOM      2  C   UNL     1      49.886  -1.522 -46.206  1.00  0.00     0.103 C 
ATOM      3  C   UNL     1      51.065  -0.705 -46.233  1.00  0.00     0.095 A 
ATOM      4  C   UNL     1      51.527  -0.045 -47.364  1.00  0.00     0.110 A 
ATOM      5  S   UNL     1      52.936   0.868 -46.958  1.00  0.00    -0.113 S 
ATOM      6  C   UNL     1      52.936   0.378 -45.319  1.00  0.00     0.083 A 
ATOM      7  C   UNL     1      51.868  -0.468 -45.060  1.00  0.00     0.025 A 
ENDROOT
BRANCH   4   8
ATOM      8  N   UNL     1      51.061  -0.058 -48.655  1.00  0.00    -0.358 N 
ATOM      9  C   UNL     1      49.628   0.057 -48.983  1.00  0.00     0.146 C 
ATOM     10  C   UNL     1      51.954   0.242 -49.792  1.00  0.00     0.146 C 
ATOM     11  C   UNL     1      49.307  -0.722 -50.269  1.00  0.00     0.181 C 
ATOM     12  C   UNL     1      51.525  -0.554 -51.034  1.00  0.00     0.181 C 
ATOM     13  O   UNL     1      50.148  -0.316 -51.360  1.00  0.00    -0.378 OA
ENDBRANCH   4   8
BRANCH   7  14
ATOM     14  C   UNL     1      51.632  -1.046 -43.738  1.00  0.00     0.003 A 
ATOM     15  C   UNL     1      52.456  -2.096 -43.306  1.00  0.00     0.012 A 
ATOM     16  C   UNL     1      50.619  -0.572 -42.886  1.00  0.00     0.050 A 
ATOM     17  C   UNL     1      52.263  -2.671 -42.048  1.00  0.00     0.021 A 
ATOM     18  C   UNL     1      50.428  -1.147 -41.628  1.00  0.00     0.041 A 
ATOM     19  C   UNL     1      51.250  -2.195 -41.217  1.00  0.00     0.042 A 
ATOM     20  Cl  UNL     1      49.583   0.738 -43.341  1.00  0.00    -0.084 Cl
ATOM     21  Cl  UNL     1      51.015  -2.906 -39.669  1.00  0.00    -0.084 Cl
ENDBRANCH   7  14
BRANCH   6  22
ATOM     22  C   UNL     1      53.953   0.848 -44.418  1.00  0.00     0.166 A 
ATOM     23  N   UNL     1      55.255   0.786 -44.609  1.00  0.00    -0.214 NA
ATOM     24  N   UNL     1      53.722   1.441 -43.206  1.00  0.00    -0.259 N 
ATOM     25  C   UNL     1      55.771   1.357 -43.480  1.00  0.00     0.246 A 
ATOM     26  N   UNL     1      54.868   1.768 -42.588  1.00  0.00    -0.162 NA
ATOM     27  H   UNL     1      52.834   1.642 -42.762  1.00  0.00     0.192 HD
ENDBRANCH   6  22
TORSDOF 3
ENDMDL
MODEL 2
REMARK minimizedAffinity -7.62536526
REMARK CNNscore 0.868056059
REMARK CNNaffinity 7.6492219
REMARK SMILES N#Cc1c(N2CCOCC2)sc(-c2ncn[nH]2)c1-c1ccc(Cl)cc1Cl
REMARK SMILES IDX 1 1 2 2 3 3 4 4 11 5 12 6 18 7 5 8 6 9 10 10 7 11 9 12 8 13
REMARK SMILES IDX 19 14 20 15 25 16 21 17 24 18 22 19 26 20 23 21 13 22 14 23
REMARK SMILES IDX 17 24 15 25 16 26
REMARK H PARENT 17 27
ROOT
ATOM      1  N   UNL     1      47.996  -2.200 -48.904  1.00  0.00    -0.192 NA
ATOM      2  C   UNL     1      48.867  -1.731 -48.295  1.00  0.00     0.103 C 
ATOM      3  C   UNL     1      49.941  -1.155 -47.538  1.00  0.00     0.095 A 
ATOM      4  C   UNL     1      50.933  -0.352 -48.085  1.00  0.00     0.110 A 
ATOM      5  S   UNL     1      51.998   0.175 -46.831  1.00  0.00    -0.113 S 
ATOM      6  C   UNL     1      51.164  -0.663 -45.596  1.00  0.00     0.083 A 
ATOM      7  C   UNL     1      50.069  -1.338 -46.114  1.00  0.00     0.025 A 
ENDROOT
BRANCH   4   8
ATOM      8  N   UNL     1      51.167   0.012 -49.388  1.00  0.00    -0.358 N 
ATOM      9  C   UNL     1      50.088   0.437 -50.299  1.00  0.00     0.146 C 
ATOM     10  C   UNL     1      52.514   0.413 -49.838  1.00  0.00     0.146 C 
ATOM     11  C   UNL     1      50.422   0.040 -51.747  1.00  0.00     0.181 C 
ATOM     12  C   UNL     1      52.731   0.009 -51.304  1.00  0.00     0.181 C 
ATOM     13  O   UNL     1      51.704   0.542 -52.154  1.00  0.00    -0.378 OA
ENDBRANCH   4   8
BRANCH   7  14
ATOM     14  C   UNL     1      49.183  -2.148 -45.279  1.00  0.00     0.003 A 
ATOM     15  C   UNL     1      49.588  -3.445 -44.929  1.00  0.00     0.012 A 
ATOM     16  C   UNL     1      47.952  -1.661 -44.807  1.00  0.00     0.050 A 
ATOM     17  C   UNL     1      48.770  -4.246 -44.129  1.00  0.00     0.021 A 
ATOM     18  C   UNL     1      47.135  -2.463 -44.007  1.00  0.00     0.041 A 
ATOM     19  C   UNL     1      47.548  -3.751 -43.675  1.00  0.00     0.042 A 
ATOM     20  Cl  UNL     1      47.400  -0.062 -45.176  1.00  0.00    -0.084 Cl
ATOM     21  Cl  UNL     1      46.542  -4.742 -42.691  1.00  0.00    -0.084 Cl
ENDBRANCH   7  14
BRANCH   6  22
ATOM     22  C   UNL     1      51.623  -0.601 -44.234  1.00  0.00     0.166 A 
ATOM     23  N   UNL     1      50.959  -0.114 -43.207  1.00  0.00    -0.214 NA
ATOM     24  N   UNL     1      52.839  -1.047 -43.790  1.00  0.00    -0.259 N 
ATOM     25  C   UNL     1      51.818  -0.288 -42.160  1.00  0.00     0.246 A 
ATOM     26  N   UNL     1      52.986  -0.852 -42.470  1.00  0.00    -0.162 NA
ATOM     27  H   UNL     1      53.584  -1.480 -44.323  1.00  0.00     0.192 HD
ENDBRANCH   6  22
TORSDOF 3
ENDMDL
MODEL 3
REMARK minimizedAffinity -7.38496685
REMARK CNNscore 0.737027228
REMARK CNNaffinity 7.31074905
REMARK SMILES N#Cc1c(N2CCOCC2)sc(-c2ncn[nH]2)c1-c1ccc(Cl)cc1Cl
REMARK SMILES IDX 1 1 2 2 3 3 4 4 11 5 12 6 18 7 5 8 6 9 10 10 7 11 9 12 8 13
REMARK SMILES IDX 19 14 20 15 25 16 21 17 24 18 22 19 26 20 23 21 13 22 14 23
REMARK SMILES IDX 17 24 15 25 16 26
REMARK H PARENT 17 27
ROOT
ATOM      1  N   UNL     1      52.163   0.059 -46.296  1.00  0.00    -0.192 NA
ATOM      2  C   UNL     1      51.241  -0.411 -46.824  1.00  0.00     0.103 C 
ATOM      3  C   UNL     1      50.099  -0.990 -47.471  1.00  0.00     0.095 A 
ATOM      4  C   UNL     1      49.891  -0.970 -48.844  1.00  0.00     0.110 A 
ATOM      5  S   UNL     1      48.433  -1.819 -49.214  1.00  0.00    -0.113 S 
ATOM      6  C   UNL     1      48.082  -2.185 -47.581  1.00  0.00     0.083 A 
ATOM      7  C   UNL     1      49.066  -1.683 -46.743  1.00  0.00     0.025 A 
ENDROOT
BRANCH   4   8
ATOM      8  N   UNL     1      50.622  -0.382 -49.847  1.00  0.00    -0.358 N 
ATOM      9  C   UNL     1      50.159  -0.342 -51.246  1.00  0.00     0.146 C 
ATOM     10  C   UNL     1      51.678   0.604 -49.544  1.00  0.00     0.146 C 
ATOM     11  C   UNL     1      51.359  -0.376 -52.208  1.00  0.00     0.181 C 
ATOM     12  C   UNL     1      52.806   0.515 -50.583  1.00  0.00     0.181 C 
ATOM     13  O   UNL     1      52.303   0.666 -51.919  1.00  0.00    -0.378 OA
ENDBRANCH   4   8
BRANCH   7  14
ATOM     14  C   UNL     1      49.012  -1.842 -45.290  1.00  0.00     0.003 A 
ATOM     15  C   UNL     1      49.844  -2.797 -44.687  1.00  0.00     0.012 A 
ATOM     16  C   UNL     1      48.167  -1.057 -44.485  1.00  0.00     0.050 A 
ATOM     17  C   UNL     1      49.822  -2.973 -43.301  1.00  0.00     0.021 A 
ATOM     18  C   UNL     1      48.148  -1.235 -43.100  1.00  0.00     0.041 A 
ATOM     19  C   UNL     1      48.974  -2.193 -42.517  1.00  0.00     0.042 A 
ATOM     20  Cl  UNL     1      47.135   0.158 -45.158  1.00  0.00    -0.084 Cl
ATOM     21  Cl  UNL     1      48.950  -2.415 -40.811  1.00  0.00    -0.084 Cl
ENDBRANCH   7  14
BRANCH   6  22
ATOM     22  C   UNL     1      46.899  -2.927 -47.238  1.00  0.00     0.166 A 
ATOM     23  N   UNL     1      46.840  -4.206 -46.930  1.00  0.00    -0.214 NA
ATOM     24  N   UNL     1      45.633  -2.409 -47.177  1.00  0.00    -0.259 N 
ATOM     25  C   UNL     1      45.511  -4.416 -46.689  1.00  0.00     0.246 A 
ATOM     26  N   UNL     1      44.731  -3.344 -46.834  1.00  0.00    -0.162 NA
ATOM     27  H   UNL     1      45.332  -1.458 -47.352  1.00  0.00     0.192 HD
ENDBRANCH   6  22
TORSDOF 3
ENDMDL
MODEL 4
REMARK minimizedAffinity -6.81305456
REMARK CNNscore 0.658142209
REMARK CNNaffinity 6.86371851
REMARK SMILES N#Cc1c(N2CCOCC2)sc(-c2ncn[nH]2)c1-c1ccc(Cl)cc1Cl
REMARK SMILES IDX 1 1 2 2 3 3 4 4 11 5 12 6 18 7 5 8 6 9 10 10 7 11 9 12 8 13
REMARK SMILES IDX 19 14 20 15 25 16 21 17 24 18 22 19 26 20 23 21 13 22 14 23
REMARK SMILES IDX 17 24 15 25 16 26
REMARK H PARENT 17 27
ROOT
ATOM      1  N   UNL     1      50.718  -0.721 -46.421  1.00  0.00    -0.192 NA
ATOM      2  C   UNL     1      49.939  -1.248 -47.102  1.00  0.00     0.103 C 
ATOM      3  C   UNL     1      48.974  -1.901 -47.939  1.00  0.00     0.095 A 
ATOM      4  C   UNL     1      48.871  -1.701 -49.309  1.00  0.00     0.110 A 
ATOM      5  S   UNL     1      47.623  -2.712 -49.943  1.00  0.00    -0.113 S 
ATOM      6  C   UNL     1      47.221  -3.385 -48.423  1.00  0.00     0.083 A 
ATOM      7  C   UNL     1      48.031  -2.863 -47.426  1.00  0.00     0.025 A 
ENDROOT
BRANCH   4   8
ATOM      8  N   UNL     1      49.557  -0.849 -50.138  1.00  0.00    -0.358 N 
ATOM      9  C   UNL     1      49.499  -0.953 -51.608  1.00  0.00     0.146 C 
ATOM     10  C   UNL     1      50.040   0.461 -49.656  1.00  0.00     0.146 C 
ATOM     11  C   UNL     1      50.828  -0.493 -52.231  1.00  0.00     0.181 C 
ATOM     12  C   UNL     1      51.346   0.845 -50.367  1.00  0.00     0.181 C 
ATOM     13  O   UNL     1      51.192   0.826 -51.795  1.00  0.00    -0.378 OA
ENDBRANCH   4   8
BRANCH   7  14
ATOM     14  C   UNL     1      47.896  -3.255 -46.024  1.00  0.00     0.003 A 
ATOM     15  C   UNL     1      48.425  -4.489 -45.616  1.00  0.00     0.012 A 
ATOM     16  C   UNL     1      47.269  -2.428 -45.075  1.00  0.00     0.050 A 
ATOM     17  C   UNL     1      48.319  -4.895 -44.284  1.00  0.00     0.021 A 
ATOM     18  C   UNL     1      47.163  -2.836 -43.743  1.00  0.00     0.041 A 
ATOM     19  C   UNL     1      47.688  -4.067 -43.356  1.00  0.00     0.042 A 
ATOM     20  Cl  UNL     1      46.617  -0.882 -45.500  1.00  0.00    -0.084 Cl
ATOM     21  Cl  UNL     1      47.557  -4.572 -41.717  1.00  0.00    -0.084 Cl
ENDBRANCH   7  14
BRANCH   6  22
ATOM     22  C   UNL     1      46.168  -4.359 -48.312  1.00  0.00     0.166 A 
ATOM     23  N   UNL     1      44.884  -4.107 -48.163  1.00  0.00    -0.214 NA
ATOM     24  N   UNL     1      46.341  -5.716 -48.346  1.00  0.00    -0.259 N 
ATOM     25  C   UNL     1      44.319  -5.350 -48.111  1.00  0.00     0.246 A 
ATOM     26  N   UNL     1      45.175  -6.368 -48.214  1.00  0.00    -0.162 NA
ATOM     27  H   UNL     1      47.202  -6.239 -48.454  1.00  0.00     0.192 HD
ENDBRANCH   6  22
TORSDOF 3
ENDMDL
MODEL 5
REMARK minimizedAffinity -6.8249588
REMARK CNNscore 0.580277622
REMARK CNNaffinity 7.03981781
REMARK SMILES N#Cc1c(N2CCOCC2)sc(-c2ncn[nH]2)c1-c1ccc(Cl)cc1Cl
REMARK SMILES IDX 1 1 2 2 3 3 4 4 11 5 12 6 18 7 5 8 6 9 10 10 7 11 9 12 8 13
REMARK SMILES IDX 19 14 20 15 25 16 21 17 24 18 22 19 26 20 23 21 13 22 14 23
REMARK SMILES IDX 17 24 15 25 16 26
REMARK H PARENT 17 27
ROOT
ATOM      1  N   UNL     1      47.562  -2.603 -50.437  1.00  0.00    -0.192 NA
ATOM      2  C   UNL     1      48.179  -2.154 -49.562  1.00  0.00     0.103 C 
ATOM      3  C   UNL     1      48.940  -1.604 -48.477  1.00  0.00     0.095 A 
ATOM      4  C   UNL     1      50.044  -0.779 -48.642  1.00  0.00     0.110 A 
ATOM      5  S   UNL     1      50.634  -0.296 -47.092  1.00  0.00    -0.113 S 
ATOM      6  C   UNL     1      49.454  -1.181 -46.226  1.00  0.00     0.083 A 
ATOM      7  C   UNL     1      48.598  -1.839 -47.096  1.00  0.00     0.025 A 
ENDROOT
BRANCH   4   8
ATOM      8  N   UNL     1      50.685  -0.367 -49.784  1.00  0.00    -0.358 N 
ATOM      9  C   UNL     1      49.963  -0.057 -51.031  1.00  0.00     0.146 C 
ATOM     10  C   UNL     1      52.048   0.198 -49.733  1.00  0.00     0.146 C 
ATOM     11  C   UNL     1      50.837  -0.385 -52.253  1.00  0.00     0.181 C 
ATOM     12  C   UNL     1      52.822  -0.152 -51.012  1.00  0.00     0.181 C 
ATOM     13  O   UNL     1      52.112   0.271 -52.187  1.00  0.00    -0.378 OA
ENDBRANCH   4   8
BRANCH   7  14
ATOM     14  C   UNL     1      47.500  -2.682 -46.624  1.00  0.00     0.003 A 
ATOM     15  C   UNL     1      46.186  -2.206 -46.748  1.00  0.00     0.012 A 
ATOM     16  C   UNL     1      47.723  -3.954 -46.068  1.00  0.00     0.050 A 
ATOM     17  C   UNL     1      45.112  -2.986 -46.312  1.00  0.00     0.021 A 
ATOM     18  C   UNL     1      46.647  -4.732 -45.633  1.00  0.00     0.041 A 
ATOM     19  C   UNL     1      45.349  -4.242 -45.756  1.00  0.00     0.042 A 
ATOM     20  Cl  UNL     1      49.314  -4.616 -45.909  1.00  0.00    -0.084 Cl
ATOM     21  Cl  UNL     1      44.023  -5.198 -45.219  1.00  0.00    -0.084 Cl
ENDBRANCH   7  14
BRANCH   6  22
ATOM     22  C   UNL     1      49.443  -1.168 -44.788  1.00  0.00     0.166 A 
ATOM     23  N   UNL     1      48.571  -0.551 -44.019  1.00  0.00    -0.214 NA
ATOM     24  N   UNL     1      50.351  -1.806 -43.986  1.00  0.00    -0.259 N 
ATOM     25  C   UNL     1      48.995  -0.846 -42.754  1.00  0.00     0.246 A 
ATOM     26  N   UNL     1      50.086  -1.609 -42.684  1.00  0.00    -0.162 NA
ATOM     27  H   UNL     1      51.145  -2.372 -44.259  1.00  0.00     0.192 HD
ENDBRANCH   6  22
TORSDOF 3
ENDMDL
MODEL 6
REMARK minimizedAffinity -7.0980835
REMARK CNNscore 0.57633239
REMARK CNNaffinity 7.1743927
REMARK SMILES N#Cc1c(N2CCOCC2)sc(-c2ncn[nH]2)c1-c1ccc(Cl)cc1Cl
REMARK SMILES IDX 1 1 2 2 3 3 4 4 11 5 12 6 18 7 5 8 6 9 10 10 7 11 9 12 8 13
REMARK SMILES IDX 19 14 20 15 25 16 21 17 24 18 22 19 26 20 23 21 13 22 14 23
REMARK SMILES IDX 17 24 15 25 16 26
REMARK H PARENT 17 27
ROOT
ATOM      1  N   UNL     1      52.453   0.082 -46.322  1.00  0.00    -0.192 NA
ATOM      2  C   UNL     1      51.485  -0.323 -46.821  1.00  0.00     0.103 C 
ATOM      3  C   UNL     1      50.287  -0.822 -47.431  1.00  0.00     0.095 A 
ATOM      4  C   UNL     1      50.043  -0.796 -48.798  1.00  0.00     0.110 A 
ATOM      5  S   UNL     1      48.517  -1.539 -49.120  1.00  0.00    -0.113 S 
ATOM      6  C   UNL     1      48.187  -1.870 -47.475  1.00  0.00     0.083 A 
ATOM      7  C   UNL     1      49.228  -1.434 -46.669  1.00  0.00     0.025 A 
ENDROOT
BRANCH   4   8
ATOM      8  N   UNL     1      50.785  -0.268 -49.825  1.00  0.00    -0.358 N 
ATOM      9  C   UNL     1      50.364  -0.358 -51.236  1.00  0.00     0.146 C 
ATOM     10  C   UNL     1      51.801   0.774 -49.576  1.00  0.00     0.146 C 
ATOM     11  C   UNL     1      51.593  -0.431 -52.158  1.00  0.00     0.181 C 
ATOM     12  C   UNL     1      52.962   0.638 -50.572  1.00  0.00     0.181 C 
ATOM     13  O   UNL     1      52.495   0.663 -51.929  1.00  0.00    -0.378 OA
ENDBRANCH   4   8
BRANCH   7  14
ATOM     14  C   UNL     1      49.204  -1.580 -45.214  1.00  0.00     0.003 A 
ATOM     15  C   UNL     1      48.928  -0.451 -44.429  1.00  0.00     0.012 A 
ATOM     16  C   UNL     1      49.432  -2.817 -44.585  1.00  0.00     0.050 A 
ATOM     17  C   UNL     1      48.892  -0.554 -43.037  1.00  0.00     0.021 A 
ATOM     18  C   UNL     1      49.396  -2.918 -43.193  1.00  0.00     0.041 A 
ATOM     19  C   UNL     1      49.128  -1.786 -42.427  1.00  0.00     0.042 A 
ATOM     20  Cl  UNL     1      49.752  -4.257 -45.492  1.00  0.00    -0.084 Cl
ATOM     21  Cl  UNL     1      49.085  -1.908 -40.711  1.00  0.00    -0.084 Cl
ENDBRANCH   7  14
BRANCH   6  22
ATOM     22  C   UNL     1      46.964  -2.522 -47.094  1.00  0.00     0.166 A 
ATOM     23  N   UNL     1      45.881  -1.939 -46.624  1.00  0.00    -0.214 NA
ATOM     24  N   UNL     1      46.732  -3.870 -47.163  1.00  0.00    -0.259 N 
ATOM     25  C   UNL     1      45.019  -2.979 -46.423  1.00  0.00     0.246 A 
ATOM     26  N   UNL     1      45.499  -4.184 -46.734  1.00  0.00    -0.162 NA
ATOM     27  H   UNL     1      47.356  -4.600 -47.483  1.00  0.00     0.192 HD
ENDBRANCH   6  22
TORSDOF 3
ENDMDL
MODEL 7
REMARK minimizedAffinity -6.26788998
REMARK CNNscore 0.504194081
REMARK CNNaffinity 7.16596365
REMARK SMILES N#Cc1c(N2CCOCC2)sc(-c2ncn[nH]2)c1-c1ccc(Cl)cc1Cl
REMARK SMILES IDX 1 1 2 2 3 3 4 4 11 5 12 6 18 7 5 8 6 9 10 10 7 11 9 12 8 13
REMARK SMILES IDX 19 14 20 15 25 16 21 17 24 18 22 19 26 20 23 21 13 22 14 23
REMARK SMILES IDX 17 24 15 25 16 26
REMARK H PARENT 17 27
ROOT
ATOM      1  N   UNL     1      47.562  -1.949 -48.260  1.00  0.00    -0.192 NA
ATOM      2  C   UNL     1      48.507  -1.618 -47.670  1.00  0.00     0.103 C 
ATOM      3  C   UNL     1      49.672  -1.214 -46.937  1.00  0.00     0.095 A 
ATOM      4  C   UNL     1      50.761  -0.566 -47.505  1.00  0.00     0.110 A 
ATOM      5  S   UNL     1      51.921  -0.211 -46.275  1.00  0.00    -0.113 S 
ATOM      6  C   UNL     1      50.997  -0.921 -45.023  1.00  0.00     0.083 A 
ATOM      7  C   UNL     1      49.802  -1.421 -45.517  1.00  0.00     0.025 A 
ENDROOT
BRANCH   4   8
ATOM      8  N   UNL     1      51.018  -0.235 -48.813  1.00  0.00    -0.358 N 
ATOM      9  C   UNL     1      52.296   0.360 -49.245  1.00  0.00     0.146 C 
ATOM     10  C   UNL     1      50.238  -0.828 -49.918  1.00  0.00     0.146 C 
ATOM     11  C   UNL     1      52.073   1.297 -50.444  1.00  0.00     0.181 C 
ATOM     12  C   UNL     1      50.107   0.171 -51.077  1.00  0.00     0.181 C 
ATOM     13  O   UNL     1      51.393   0.632 -51.519  1.00  0.00    -0.378 OA
ENDBRANCH   4   8
BRANCH   7  14
ATOM     14  C   UNL     1      48.824  -2.094 -44.663  1.00  0.00     0.003 A 
ATOM     15  C   UNL     1      47.993  -1.311 -43.848  1.00  0.00     0.012 A 
ATOM     16  C   UNL     1      48.682  -3.493 -44.650  1.00  0.00     0.050 A 
ATOM     17  C   UNL     1      47.044  -1.919 -43.023  1.00  0.00     0.021 A 
ATOM     18  C   UNL     1      47.732  -4.098 -43.825  1.00  0.00     0.041 A 
ATOM     19  C   UNL     1      46.920  -3.308 -43.015  1.00  0.00     0.042 A 
ATOM     20  Cl  UNL     1      49.655  -4.518 -45.650  1.00  0.00    -0.084 Cl
ATOM     21  Cl  UNL     1      45.750  -4.052 -41.996  1.00  0.00    -0.084 Cl
ENDBRANCH   7  14
BRANCH   6  22
ATOM     22  C   UNL     1      51.491  -0.935 -43.672  1.00  0.00     0.166 A 
ATOM     23  N   UNL     1      52.482  -1.669 -43.210  1.00  0.00    -0.214 NA
ATOM     24  N   UNL     1      51.000  -0.177 -42.644  1.00  0.00    -0.259 N 
ATOM     25  C   UNL     1      52.553  -1.317 -41.892  1.00  0.00     0.246 A 
ATOM     26  N   UNL     1      51.659  -0.409 -41.497  1.00  0.00    -0.162 NA
ATOM     27  H   UNL     1      50.241   0.494 -42.662  1.00  0.00     0.192 HD
ENDBRANCH   6  22
TORSDOF 3
ENDMDL
MODEL 8
REMARK minimizedAffinity -7.02874947
REMARK CNNscore 0.379609644
REMARK CNNaffinity 6.97112322
REMARK SMILES N#Cc1c(N2CCOCC2)sc(-c2ncn[nH]2)c1-c1ccc(Cl)cc1Cl
REMARK SMILES IDX 1 1 2 2 3 3 4 4 11 5 12 6 18 7 5 8 6 9 10 10 7 11 9 12 8 13
REMARK SMILES IDX 19 14 20 15 25 16 21 17 24 18 22 19 26 20 23 21 13 22 14 23
REMARK SMILES IDX 17 24 15 25 16 26
REMARK H PARENT 17 27
ROOT
ATOM      1  N   UNL     1      53.509   0.930 -46.053  1.00  0.00    -0.192 NA
ATOM      2  C   UNL     1      52.553   0.289 -46.212  1.00  0.00     0.103 C 
ATOM      3  C   UNL     1      51.371  -0.502 -46.401  1.00  0.00     0.095 A 
ATOM      4  C   UNL     1      50.734  -0.665 -47.624  1.00  0.00     0.110 A 
ATOM      5  S   UNL     1      49.387  -1.730 -47.430  1.00  0.00    -0.113 S 
ATOM      6  C   UNL     1      49.642  -1.950 -45.753  1.00  0.00     0.083 A 
ATOM      7  C   UNL     1      50.750  -1.234 -45.326  1.00  0.00     0.025 A 
ENDROOT
BRANCH   4   8
ATOM      8  N   UNL     1      51.001  -0.106 -48.849  1.00  0.00    -0.358 N 
ATOM      9  C   UNL     1      49.942   0.422 -49.729  1.00  0.00     0.146 C 
ATOM     10  C   UNL     1      52.350   0.393 -49.183  1.00  0.00     0.146 C 
ATOM     11  C   UNL     1      50.338   0.254 -51.205  1.00  0.00     0.181 C 
ATOM     12  C   UNL     1      52.631   0.216 -50.682  1.00  0.00     0.181 C 
ATOM     13  O   UNL     1      51.617   0.843 -51.483  1.00  0.00    -0.378 OA
ENDBRANCH   4   8
BRANCH   7  14
ATOM     14  C   UNL     1      51.190  -1.233 -43.932  1.00  0.00     0.003 A 
ATOM     15  C   UNL     1      52.291  -2.024 -43.574  1.00  0.00     0.012 A 
ATOM     16  C   UNL     1      50.555  -0.452 -42.950  1.00  0.00     0.050 A 
ATOM     17  C   UNL     1      52.743  -2.045 -42.252  1.00  0.00     0.021 A 
ATOM     18  C   UNL     1      51.008  -0.473 -41.629  1.00  0.00     0.041 A 
ATOM     19  C   UNL     1      52.098  -1.271 -41.288  1.00  0.00     0.042 A 
ATOM     20  Cl  UNL     1      49.208   0.569 -43.326  1.00  0.00    -0.084 Cl
ATOM     21  Cl  UNL     1      52.657  -1.300 -39.661  1.00  0.00    -0.084 Cl
ENDBRANCH   7  14
BRANCH   6  22
ATOM     22  C   UNL     1      48.764  -2.794 -44.988  1.00  0.00     0.166 A 
ATOM     23  N   UNL     1      49.034  -4.003 -44.542  1.00  0.00    -0.214 NA
ATOM     24  N   UNL     1      47.494  -2.464 -44.597  1.00  0.00    -0.259 N 
ATOM     25  C   UNL     1      47.892  -4.364 -43.886  1.00  0.00     0.246 A 
ATOM     26  N   UNL     1      46.917  -3.454 -43.898  1.00  0.00    -0.162 NA
ATOM     27  H   UNL     1      46.984  -1.606 -44.772  1.00  0.00     0.192 HD
ENDBRANCH   6  22
TORSDOF 3
ENDMDL
MODEL 9
REMARK minimizedAffinity -6.7746973
REMARK CNNscore 0.370472103
REMARK CNNaffinity 6.37558985
REMARK SMILES N#Cc1c(N2CCOCC2)sc(-c2ncn[nH]2)c1-c1ccc(Cl)cc1Cl
REMARK SMILES IDX 1 1 2 2 3 3 4 4 11 5 12 6 18 7 5 8 6 9 10 10 7 11 9 12 8 13
REMARK SMILES IDX 19 14 20 15 25 16 21 17 24 18 22 19 26 20 23 21 13 22 14 23
REMARK SMILES IDX 17 24 15 25 16 26
REMARK H PARENT 17 27
ROOT
ATOM      1  N   UNL     1      48.986  -1.160 -46.233  1.00  0.00    -0.192 NA
ATOM      2  C   UNL     1      48.591  -1.600 -47.233  1.00  0.00     0.103 C 
ATOM      3  C   UNL     1      48.097  -2.145 -48.464  1.00  0.00     0.095 A 
ATOM      4  C   UNL     1      48.549  -1.762 -49.720  1.00  0.00     0.110 A 
ATOM      5  S   UNL     1      47.739  -2.693 -50.929  1.00  0.00    -0.113 S 
ATOM      6  C   UNL     1      46.799  -3.571 -49.802  1.00  0.00     0.083 A 
ATOM      7  C   UNL     1      47.094  -3.179 -48.505  1.00  0.00     0.025 A 
ENDROOT
BRANCH   4   8
ATOM      8  N   UNL     1      49.454  -0.796 -50.084  1.00  0.00    -0.358 N 
ATOM      9  C   UNL     1      49.828  -0.547 -51.488  1.00  0.00     0.146 C 
ATOM     10  C   UNL     1      49.785   0.321 -49.177  1.00  0.00     0.146 C 
ATOM     11  C   UNL     1      51.284  -0.061 -51.578  1.00  0.00     0.181 C 
ATOM     12  C   UNL     1      51.245   0.756 -49.373  1.00  0.00     0.181 C 
ATOM     13  O   UNL     1      51.515   1.085 -50.744  1.00  0.00    -0.378 OA
ENDBRANCH   4   8
BRANCH   7  14
ATOM     14  C   UNL     1      46.425  -3.761 -47.342  1.00  0.00     0.003 A 
ATOM     15  C   UNL     1      47.102  -4.737 -46.595  1.00  0.00     0.012 A 
ATOM     16  C   UNL     1      45.138  -3.358 -46.944  1.00  0.00     0.050 A 
ATOM     17  C   UNL     1      46.496  -5.311 -45.475  1.00  0.00     0.021 A 
ATOM     18  C   UNL     1      44.534  -3.933 -45.823  1.00  0.00     0.041 A 
ATOM     19  C   UNL     1      45.217  -4.907 -45.097  1.00  0.00     0.042 A 
ATOM     20  Cl  UNL     1      44.256  -2.140 -47.801  1.00  0.00    -0.084 Cl
ATOM     21  Cl  UNL     1      44.474  -5.618 -43.717  1.00  0.00    -0.084 Cl
ENDBRANCH   7  14
BRANCH   6  22
ATOM     22  C   UNL     1      45.861  -4.564 -50.253  1.00  0.00     0.166 A 
ATOM     23  N   UNL     1      46.022  -5.870 -50.205  1.00  0.00    -0.214 NA
ATOM     24  N   UNL     1      44.638  -4.300 -50.808  1.00  0.00    -0.259 N 
ATOM     25  C   UNL     1      44.865  -6.355 -50.744  1.00  0.00     0.246 A 
ATOM     26  N   UNL     1      43.988  -5.429 -51.134  1.00  0.00    -0.162 NA
ATOM     27  H   UNL     1      44.206  -3.401 -50.983  1.00  0.00     0.192 HD
ENDBRANCH   6  22
TORSDOF 3
ENDMDL
