MODEL 6
REMARK VINA RESULT:    -9.907      2.272     11.664
REMARK INTER + INTRA:         -19.325
REMARK INTER:                 -15.556
REMARK INTRA:                  -3.768
REMARK UNBOUND:                -2.468
REMARK SMILES Cc1cc2c(C(=O)NC[C@@H](C)c3ccccc3)c(O)c(O)cc2c(O)c1-c1c(C)cc2c(C(=O)NC[C@@H](C)c3ccccc3)c(O)c(O)cc2c1O
REMARK SMILES IDX 1 1 2 2 3 3 4 4 5 5 18 6 20 7 22 8 23 9 24 10 26 11 27 12
REMARK SMILES IDX 28 13 51 14 30 15 50 16 31 17 49 18 32 19 47 20 45 21 29 22
REMARK SMILES IDX 52 23 33 25 34 26 35 27 36 29 37 30 38 31 39 32 40 33 44 34
REMARK SMILES IDX 41 35 43 36 42 37 48 38 46 40 25 42 6 44 7 45 8 46 9 48
REMARK SMILES IDX 10 49 11 50 12 51 13 52 17 53 14 54 16 55 15 56 19 57 21 59
REMARK H PARENT 52 24 35 28 48 39 46 41 25 43 8 47 19 58 21 60
ROOT
ATOM      1  C   UNL     1      39.539  11.453 -50.201  1.00  0.00     0.045 C 
ATOM      2  C   UNL     1      38.448  11.426 -49.159  1.00  0.00    -0.039 A 
ATOM      3  C   UNL     1      37.198  10.873 -49.502  1.00  0.00     0.014 A 
ATOM      4  C   UNL     1      36.088  10.824 -48.619  1.00  0.00     0.002 A 
ATOM      5  C   UNL     1      34.791  10.297 -48.954  1.00  0.00     0.093 A 
ATOM      6  C   UNL     1      33.794  10.256 -47.966  1.00  0.00     0.171 A 
ATOM      7  C   UNL     1      34.038  10.737 -46.686  1.00  0.00     0.159 A 
ATOM      8  C   UNL     1      35.269  11.273 -46.356  1.00  0.00     0.062 A 
ATOM      9  C   UNL     1      36.307  11.327 -47.307  1.00  0.00     0.029 A 
ATOM     10  C   UNL     1      37.561  11.885 -46.965  1.00  0.00     0.131 A 
ATOM     11  C   UNL     1      38.632  11.972 -47.878  1.00  0.00     0.031 A 
ENDROOT
BRANCH  11  12
ATOM     12  C   UNL     1      39.900  12.636 -47.501  1.00  0.00     0.031 A 
ATOM     13  C   UNL     1      40.897  11.927 -46.803  1.00  0.00    -0.039 A 
ATOM     14  C   UNL     1      40.174  13.968 -47.880  1.00  0.00     0.131 A 
ATOM     15  C   UNL     1      42.114  12.560 -46.499  1.00  0.00     0.014 A 
ATOM     16  C   UNL     1      41.409  14.601 -47.600  1.00  0.00     0.029 A 
ATOM     17  C   UNL     1      42.407  13.889 -46.890  1.00  0.00     0.002 A 
ATOM     18  C   UNL     1      41.674  15.924 -48.020  1.00  0.00     0.062 A 
ATOM     19  C   UNL     1      43.655  14.527 -46.634  1.00  0.00     0.093 A 
ATOM     20  C   UNL     1      42.905  16.517 -47.768  1.00  0.00     0.159 A 
ATOM     21  C   UNL     1      43.898  15.824 -47.089  1.00  0.00     0.171 A 
ATOM     22  C   UNL     1      40.697  10.500 -46.354  1.00  0.00     0.045 C 
BRANCH  14  23
ATOM     23  O   UNL     1      39.237  14.699 -48.581  1.00  0.00    -0.507 OA
ATOM     24  H   UNL     1      39.691  15.300 -49.197  1.00  0.00     0.293 HD
ENDBRANCH  14  23
BRANCH  19  25
ATOM     25  C   UNL     1      44.719  13.809 -45.892  1.00  0.00     0.255 C 
ATOM     26  O   UNL     1      45.410  12.971 -46.456  1.00  0.00    -0.269 OA
ATOM     27  N   UNL     1      44.907  14.229 -44.593  1.00  0.00    -0.351 N 
ATOM     28  H   UNL     1      44.266  14.911 -44.209  1.00  0.00     0.163 HD
BRANCH  27  29
ATOM     29  C   UNL     1      45.967  13.710 -43.748  1.00  0.00     0.124 C 
BRANCH  29  30
ATOM     30  C   UNL     1      45.439  13.164 -42.407  1.00  0.00     0.035 C 
ATOM     31  C   UNL     1      46.516  12.398 -41.631  1.00  0.00     0.014 C 
BRANCH  30  32
ATOM     32  C   UNL     1      44.839  14.289 -41.577  1.00  0.00    -0.043 A 
ATOM     33  C   UNL     1      43.453  14.332 -41.358  1.00  0.00     0.004 A 
ATOM     34  C   UNL     1      45.636  15.311 -41.040  1.00  0.00     0.004 A 
ATOM     35  C   UNL     1      42.882  15.366 -40.614  1.00  0.00     0.000 A 
ATOM     36  C   UNL     1      45.064  16.344 -40.298  1.00  0.00     0.000 A 
ATOM     37  C   UNL     1      43.687  16.373 -40.084  1.00  0.00     0.000 A 
ENDBRANCH  30  32
ENDBRANCH  29  30
ENDBRANCH  27  29
ENDBRANCH  19  25
BRANCH  20  38
ATOM     38  O   UNL     1      43.190  17.791 -48.177  1.00  0.00    -0.504 OA
ATOM     39  H   UNL     1      43.960  17.754 -48.773  1.00  0.00     0.293 HD
ENDBRANCH  20  38
BRANCH  21  40
ATOM     40  O   UNL     1      45.100  16.451 -46.892  1.00  0.00    -0.504 OA
ATOM     41  H   UNL     1      45.575  16.367 -47.744  1.00  0.00     0.293 HD
ENDBRANCH  21  40
ENDBRANCH  11  12
BRANCH  10  42
ATOM     42  O   UNL     1      37.701  12.369 -45.677  1.00  0.00    -0.507 OA
ATOM     43  H   UNL     1      37.344  11.724 -45.044  1.00  0.00     0.293 HD
ENDBRANCH  10  42
BRANCH   5  44
ATOM     44  C   UNL     1      34.475   9.842 -50.355  1.00  0.00     0.255 C 
ATOM     45  O   UNL     1      35.029   8.869 -50.856  1.00  0.00    -0.269 OA
ATOM     46  N   UNL     1      33.549  10.591 -51.057  1.00  0.00    -0.351 N 
ATOM     47  H   UNL     1      33.363  11.520 -50.685  1.00  0.00     0.163 HD
BRANCH  46  48
ATOM     48  C   UNL     1      33.336  10.372 -52.477  1.00  0.00     0.124 C 
BRANCH  48  49
ATOM     49  C   UNL     1      34.053  11.381 -53.398  1.00  0.00     0.035 C 
ATOM     50  C   UNL     1      33.031  12.148 -54.253  1.00  0.00     0.014 C 
BRANCH  49  51
ATOM     51  C   UNL     1      35.037  12.338 -52.726  1.00  0.00    -0.043 A 
ATOM     52  C   UNL     1      36.407  12.217 -53.026  1.00  0.00     0.004 A 
ATOM     53  C   UNL     1      34.658  13.322 -51.800  1.00  0.00     0.004 A 
ATOM     54  C   UNL     1      37.355  13.066 -52.448  1.00  0.00     0.000 A 
ATOM     55  C   UNL     1      35.607  14.172 -51.223  1.00  0.00     0.000 A 
ATOM     56  C   UNL     1      36.955  14.048 -51.547  1.00  0.00     0.000 A 
ENDBRANCH  49  51
ENDBRANCH  48  49
ENDBRANCH  46  48
ENDBRANCH   5  44
BRANCH   6  57
ATOM     57  O   UNL     1      32.537   9.753 -48.206  1.00  0.00    -0.504 OA
ATOM     58  H   UNL     1      32.497   9.629 -49.178  1.00  0.00     0.293 HD
ENDBRANCH   6  57
BRANCH   7  59
ATOM     59  O   UNL     1      33.016  10.667 -45.779  1.00  0.00    -0.504 OA
ATOM     60  H   UNL     1      33.165   9.889 -45.211  1.00  0.00     0.293 HD
ENDBRANCH   7  59
TORSDOF 15
ENDMDL
