MODEL 9
REMARK VINA RESULT:    -9.818      5.484     10.050
REMARK INTER + INTRA:         -14.973
REMARK INTER:                 -13.306
REMARK INTRA:                  -1.667
REMARK UNBOUND:                -1.138
REMARK SMILES N#CC(C#N)=CNc1ccc2ncnc(Nc3ccc(OCc4cccc(F)c4)c(Cl)c3)c2c1
REMARK SMILES IDX 17 1 18 2 19 3 20 4 30 5 31 6 32 7 16 8 15 10 8 11 34 12
REMARK SMILES IDX 9 13 33 14 10 15 11 16 12 17 14 18 13 19 7 20 6 22 1 23 2 24
REMARK SMILES IDX 3 25 4 26 5 27 21 28 22 29 23 30 29 31 24 32 27 33 25 34
REMARK SMILES IDX 26 35 28 36
REMARK H PARENT 16 9 7 21
ROOT
ATOM      1  C   UNL     1      14.237  35.128  13.160  1.00  0.00     0.041 A 
ATOM      2  C   UNL     1      13.012  35.808  13.144  1.00  0.00     0.030 A 
ATOM      3  C   UNL     1      12.630  36.551  12.027  1.00  0.00     0.050 A 
ATOM      4  C   UNL     1      13.459  36.625  10.895  1.00  0.00     0.138 A 
ATOM      5  C   UNL     1      14.678  35.935  10.912  1.00  0.00     0.085 A 
ATOM      6  Cl  UNL     1      15.737  35.986   9.547  1.00  0.00    -0.080 Cl
ATOM      7  C   UNL     1      15.057  35.193  12.032  1.00  0.00     0.050 A 
ENDROOT
BRANCH   1   8
ATOM      8  N   UNL     1      14.680  34.345  14.241  1.00  0.00    -0.340 N 
ATOM      9  H   UNL     1      14.210  33.455  14.305  1.00  0.00     0.168 HD
BRANCH   8  10
ATOM     10  C   UNL     1      15.635  34.546  15.257  1.00  0.00     0.141 A 
ATOM     11  C   UNL     1      18.830  33.164  13.752  1.00  0.00     0.039 A 
ATOM     12  C   UNL     1      17.486  33.522  13.866  1.00  0.00     0.040 A 
ATOM     13  C   UNL     1      19.705  33.426  14.813  1.00  0.00     0.028 A 
ATOM     14  C   UNL     1      16.992  34.146  15.045  1.00  0.00     0.045 A 
ATOM     15  C   UNL     1      19.256  34.035  15.982  1.00  0.00     0.031 A 
ATOM     16  C   UNL     1      17.899  34.404  16.118  1.00  0.00     0.076 A 
ATOM     17  N   UNL     1      17.493  35.001  17.275  1.00  0.00    -0.236 NA
ATOM     18  N   UNL     1      15.237  35.146  16.408  1.00  0.00    -0.219 NA
ATOM     19  C   UNL     1      16.184  35.340  17.354  1.00  0.00     0.224 A 
BRANCH  11  20
ATOM     20  N   UNL     1      19.236  32.557  12.551  1.00  0.00    -0.360 N 
ATOM     21  H   UNL     1      19.245  31.548  12.601  1.00  0.00     0.166 HD
BRANCH  20  22
ATOM     22  C   UNL     1      19.602  33.150  11.361  1.00  0.00     0.114 C 
ATOM     23  N   UNL     1      16.436  32.381  10.128  1.00  0.00    -0.192 NA
ATOM     24  C   UNL     1      17.519  32.785  10.170  1.00  0.00     0.112 C 
ATOM     25  C   UNL     1      18.857  33.277  10.249  1.00  0.00     0.145 C 
ATOM     26  C   UNL     1      19.379  33.915   9.087  1.00  0.00     0.112 C 
ATOM     27  N   UNL     1      19.820  34.434   8.152  1.00  0.00    -0.192 NA
ENDBRANCH  20  22
ENDBRANCH  11  20
ENDBRANCH   8  10
ENDBRANCH   1   8
BRANCH   4  28
ATOM     28  O   UNL     1      13.145  37.336   9.751  1.00  0.00    -0.487 OA
BRANCH  28  29
ATOM     29  C   UNL     1      13.315  38.752   9.728  1.00  0.00     0.265 C 
BRANCH  29  30
ATOM     30  C   UNL     1      12.057  39.439   9.210  1.00  0.00    -0.008 A 
ATOM     31  C   UNL     1      10.831  39.190   9.837  1.00  0.00     0.046 A 
ATOM     32  C   UNL     1      12.102  40.328   8.128  1.00  0.00     0.007 A 
ATOM     33  C   UNL     1       9.666  39.811   9.384  1.00  0.00     0.123 A 
ATOM     34  C   UNL     1      10.937  40.948   7.674  1.00  0.00     0.003 A 
ATOM     35  C   UNL     1       9.718  40.690   8.301  1.00  0.00     0.039 A 
ATOM     36  F   UNL     1       8.485  39.562   9.995  1.00  0.00    -0.207 F 
ENDBRANCH  29  30
ENDBRANCH  28  29
ENDBRANCH   4  28
TORSDOF 7
ENDMDL
