REMARK VINA RESULT:    -9.892      0.000      0.000
REMARK INTER + INTRA:         -18.056
REMARK INTER:                 -16.542
REMARK INTRA:                  -1.513
REMARK UNBOUND:                -1.513
REMARK SMILES CC(C)O[C@H](Cc1ccc(OCc2noc(-c3ccc(OC(F)(F)F)cc3)n2)cc1)C(=O)O
REMARK SMILES IDX 11 1 10 2 7 3 8 4 30 5 9 6 29 7 6 8 5 9 4 10 2 11 1 12 3 13
REMARK SMILES IDX 31 14 32 15 33 16 12 18 13 19 14 20 28 21 15 22 16 23 17 24
REMARK SMILES IDX 18 25 27 26 19 27 26 28 20 29 21 30 22 31 23 32 24 33 25 34
REMARK H PARENT 33 17
ROOT
ATOM      1  O   UNL     1      36.064 -37.557 102.580  1.00  0.00    -0.485 OA
ENDROOT
BRANCH   1   2
ATOM      2  C   UNL     1      36.237 -37.626 103.935  1.00  0.00     0.120 A 
ATOM      3  C   UNL     1      36.485 -37.498 106.739  1.00  0.00    -0.045 A 
ATOM      4  C   UNL     1      36.905 -38.633 106.033  1.00  0.00     0.007 A 
ATOM      5  C   UNL     1      35.935 -36.428 106.027  1.00  0.00     0.007 A 
ATOM      6  C   UNL     1      36.782 -38.698 104.641  1.00  0.00     0.047 A 
ATOM      7  C   UNL     1      35.816 -36.494 104.636  1.00  0.00     0.047 A 
BRANCH   3   8
ATOM      8  C   UNL     1      36.606 -37.447 108.248  1.00  0.00     0.079 C 
BRANCH   8   9
ATOM      9  C   UNL     1      37.857 -38.178 108.758  1.00  0.00     0.232 C 
BRANCH   9  10
ATOM     10  O   UNL     1      38.955 -37.258 108.703  1.00  0.00    -0.364 OA
BRANCH  10  11
ATOM     11  C   UNL     1      40.246 -37.873 108.700  1.00  0.00     0.113 C 
ATOM     12  C   UNL     1      41.266 -36.761 108.485  1.00  0.00     0.038 C 
ATOM     13  C   UNL     1      40.339 -38.896 107.572  1.00  0.00     0.038 C 
ENDBRANCH  10  11
ENDBRANCH   9  10
BRANCH   9  14
ATOM     14  C   UNL     1      37.592 -38.668 110.185  1.00  0.00     0.333 C 
ATOM     15  O   UNL     1      38.015 -38.189 111.225  1.00  0.00    -0.249 OA
BRANCH  14  16
ATOM     16  O   UNL     1      36.835 -39.787 110.226  1.00  0.00    -0.479 OA
ATOM     17  H   UNL     1      36.576 -39.857 111.170  1.00  0.00     0.296 HD
ENDBRANCH  14  16
ENDBRANCH   9  14
ENDBRANCH   8   9
ENDBRANCH   3   8
ENDBRANCH   1   2
BRANCH   1  18
ATOM     18  C   UNL     1      36.570 -36.390 101.923  1.00  0.00     0.310 C 
BRANCH  18  19
ATOM     19  C   UNL     1      37.968 -36.592 101.447  1.00  0.00     0.209 A 
ATOM     20  N   UNL     1      38.651 -35.641 100.792  1.00  0.00    -0.058 NA
ATOM     21  N   UNL     1      38.678 -37.745 101.690  1.00  0.00    -0.188 NA
ATOM     22  O   UNL     1      39.898 -36.232 100.582  1.00  0.00    -0.334 OA
ATOM     23  C   UNL     1      39.843 -37.478 101.142  1.00  0.00     0.258 A 
BRANCH  23  24
ATOM     24  C   UNL     1      41.044 -38.301 101.054  1.00  0.00     0.040 A 
ATOM     25  C   UNL     1      41.433 -38.926  99.862  1.00  0.00     0.017 A 
ATOM     26  C   UNL     1      41.853 -38.473 102.185  1.00  0.00     0.017 A 
ATOM     27  C   UNL     1      42.598 -39.704  99.799  1.00  0.00     0.047 A 
ATOM     28  C   UNL     1      43.011 -39.254 102.124  1.00  0.00     0.047 A 
ATOM     29  C   UNL     1      43.393 -39.874 100.932  1.00  0.00     0.129 A 
BRANCH  29  30
ATOM     30  O   UNL     1      44.543 -40.603 101.017  1.00  0.00    -0.406 OA
BRANCH  30  31
ATOM     31  C   UNL     1      44.424 -41.997 101.244  1.00  0.00     0.573 C 
ATOM     32  F   UNL     1      44.890 -42.653 100.158  1.00  0.00    -0.132 F 
ATOM     33  F   UNL     1      45.156 -42.384 102.312  1.00  0.00    -0.132 F 
ATOM     34  F   UNL     1      43.135 -42.353 101.429  1.00  0.00    -0.132 F 
ENDBRANCH  30  31
ENDBRANCH  29  30
ENDBRANCH  23  24
ENDBRANCH  18  19
ENDBRANCH   1  18
TORSDOF 12
