REMARK VINA RESULT:    -9.745      2.024      3.151
REMARK INTER + INTRA:         -17.683
REMARK INTER:                 -16.156
REMARK INTRA:                  -1.528
REMARK UNBOUND:                -2.242
REMARK SMILES Cc1c(C(=O)NCCCN2CCN(C)CC2)[nH]c2cnnc(Nc3ccc(OCc4cccc(F)c4)c(Cl)c3)c12
REMARK SMILES IDX 1 1 2 2 3 3 17 4 18 5 19 6 20 7 21 8 22 9 40 10 4 12 5 13
REMARK SMILES IDX 6 14 7 16 8 17 9 18 10 19 11 20 16 21 12 22 15 23 13 24
REMARK SMILES IDX 14 25 23 26 24 28 25 29 39 30 26 31 37 32 27 33 38 34 28 35
REMARK SMILES IDX 29 36 30 37 31 38 36 39 32 40 34 41 33 42 35 43
REMARK H PARENT 17 11 6 15 23 27
ROOT
ATOM      1  C   UNL     1      20.729  34.294  13.270  1.00  0.00     0.048 C 
ATOM      2  C   UNL     1      20.216  35.093  14.420  1.00  0.00    -0.009 A 
ATOM      3  C   UNL     1      20.920  36.091  15.094  1.00  0.00     0.108 A 
ATOM      4  N   UNL     1      20.085  36.573  16.072  1.00  0.00    -0.349 N 
ATOM      5  C   UNL     1      18.866  35.947  16.042  1.00  0.00     0.071 A 
ATOM      6  C   UNL     1      17.756  36.152  16.841  1.00  0.00     0.162 A 
ATOM      7  N   UNL     1      16.676  35.395  16.612  1.00  0.00    -0.155 NA
ATOM      8  N   UNL     1      16.685  34.425  15.621  1.00  0.00    -0.132 NA
ATOM      9  C   UNL     1      17.755  34.167  14.818  1.00  0.00     0.162 A 
ATOM     10  C   UNL     1      18.904  34.987  15.028  1.00  0.00     0.049 A 
ATOM     11  H   UNL     1      20.354  37.266  16.756  1.00  0.00     0.167 HD
ENDROOT
BRANCH   3  12
ATOM     12  C   UNL     1      22.285  36.544  14.906  1.00  0.00     0.268 C 
ATOM     13  O   UNL     1      23.104  36.620  15.815  1.00  0.00    -0.268 OA
ATOM     14  N   UNL     1      22.594  36.878  13.605  1.00  0.00    -0.351 N 
ATOM     15  H   UNL     1      21.950  36.662  12.860  1.00  0.00     0.163 HD
BRANCH  14  16
ATOM     16  C   UNL     1      23.889  37.421  13.243  1.00  0.00     0.117 C 
BRANCH  16  17
ATOM     17  C   UNL     1      24.831  36.342  12.707  1.00  0.00     0.037 C 
BRANCH  17  18
ATOM     18  C   UNL     1      25.989  36.057  13.671  1.00  0.00     0.086 C 
BRANCH  18  19
ATOM     19  N   UNL     1      26.420  34.650  13.650  1.00  0.00    -0.301 NA
ATOM     20  C   UNL     1      26.659  34.142  15.021  1.00  0.00     0.100 C 
ATOM     21  C   UNL     1      25.433  33.756  13.000  1.00  0.00     0.100 C 
ATOM     22  C   UNL     1      25.380  33.908  15.860  1.00  0.00     0.099 C 
ATOM     23  C   UNL     1      24.145  33.491  13.820  1.00  0.00     0.099 C 
ATOM     24  N   UNL     1      24.430  33.008  15.182  1.00  0.00    -0.304 NA
ATOM     25  C   UNL     1      23.199  32.868  15.958  1.00  0.00     0.105 C 
ENDBRANCH  18  19
ENDBRANCH  17  18
ENDBRANCH  16  17
ENDBRANCH  14  16
ENDBRANCH   3  12
BRANCH   9  26
ATOM     26  N   UNL     1      17.711  33.161  13.839  1.00  0.00    -0.338 N 
ATOM     27  H   UNL     1      17.741  32.231  14.224  1.00  0.00     0.168 HD
BRANCH  26  28
ATOM     28  C   UNL     1      17.588  33.204  12.440  1.00  0.00     0.041 A 
ATOM     29  C   UNL     1      18.297  32.262  11.679  1.00  0.00     0.030 A 
ATOM     30  C   UNL     1      16.832  34.151  11.747  1.00  0.00     0.050 A 
ATOM     31  C   UNL     1      18.241  32.251  10.279  1.00  0.00     0.050 A 
ATOM     32  C   UNL     1      16.768  34.144  10.347  1.00  0.00     0.085 A 
ATOM     33  C   UNL     1      17.466  33.187   9.596  1.00  0.00     0.138 A 
ATOM     34  Cl  UNL     1      15.793  35.349   9.573  1.00  0.00    -0.080 Cl
BRANCH  33  35
ATOM     35  O   UNL     1      17.350  33.266   8.235  1.00  0.00    -0.487 OA
BRANCH  35  36
ATOM     36  C   UNL     1      17.848  32.201   7.424  1.00  0.00     0.265 C 
BRANCH  36  37
ATOM     37  C   UNL     1      16.844  31.087   7.229  1.00  0.00    -0.008 A 
ATOM     38  C   UNL     1      15.486  31.308   7.511  1.00  0.00     0.007 A 
ATOM     39  C   UNL     1      17.232  29.841   6.710  1.00  0.00     0.046 A 
ATOM     40  C   UNL     1      14.539  30.298   7.305  1.00  0.00     0.003 A 
ATOM     41  C   UNL     1      16.282  28.844   6.509  1.00  0.00     0.123 A 
ATOM     42  C   UNL     1      14.941  29.061   6.804  1.00  0.00     0.039 A 
ATOM     43  F   UNL     1      16.665  27.658   6.019  1.00  0.00    -0.207 F 
ENDBRANCH  36  37
ENDBRANCH  35  36
ENDBRANCH  33  35
ENDBRANCH  26  28
ENDBRANCH   9  26
TORSDOF 10
