REMARK VINA RESULT:    -9.252      6.299      8.530
REMARK INTER + INTRA:         -11.355
REMARK INTER:                 -11.233
REMARK INTRA:                  -0.122
REMARK UNBOUND:                 0.060
REMARK SMILES O=c1c(O)c(-c2cc(O)c(O)c(O)c2)oc2cc(O)cc(O)c12
REMARK SMILES IDX 1 1 2 2 3 3 5 4 15 5 16 6 17 7 18 8 20 9 21 10 23 11 4 12
REMARK SMILES IDX 6 14 7 15 14 16 8 17 12 18 10 19 9 20 13 22 11 24 22 26
REMARK SMILES IDX 19 28
REMARK H PARENT 4 13 9 21 13 23 11 25 22 27 19 29
ROOT
ATOM      1  O   UNL     1     -16.049 -43.235  29.930  1.00  0.00    -0.285 OA
ATOM      2  C   UNL     1     -15.650 -43.489  28.795  1.00  0.00     0.238 A 
ATOM      3  C   UNL     1     -16.318 -42.894  27.615  1.00  0.00     0.208 A 
ATOM      4  C   UNL     1     -15.851 -43.200  26.390  1.00  0.00     0.180 A 
ATOM      5  O   UNL     1     -14.775 -44.051  26.162  1.00  0.00    -0.452 OA
ATOM      6  C   UNL     1     -14.132 -44.611  27.235  1.00  0.00     0.146 A 
ATOM      7  C   UNL     1     -13.053 -45.450  26.962  1.00  0.00     0.094 A 
ATOM      8  C   UNL     1     -12.363 -46.047  28.014  1.00  0.00     0.123 A 
ATOM      9  C   UNL     1     -12.734 -45.820  29.337  1.00  0.00     0.093 A 
ATOM     10  C   UNL     1     -13.813 -44.980  29.605  1.00  0.00     0.134 A 
ATOM     11  C   UNL     1     -14.511 -44.376  28.554  1.00  0.00     0.111 A 
ENDROOT
BRANCH   3  12
ATOM     12  O   UNL     1     -17.401 -42.068  27.855  1.00  0.00    -0.502 OA
ATOM     13  H   UNL     1     -17.422 -41.446  27.096  1.00  0.00     0.293 HD
ENDBRANCH   3  12
BRANCH   4  14
ATOM     14  C   UNL     1     -16.450 -42.683  25.140  1.00  0.00     0.029 A 
ATOM     15  C   UNL     1     -15.671 -42.035  24.161  1.00  0.00     0.062 A 
ATOM     16  C   UNL     1     -17.825 -42.872  24.901  1.00  0.00     0.062 A 
ATOM     17  C   UNL     1     -16.265 -41.576  22.987  1.00  0.00     0.162 A 
ATOM     18  C   UNL     1     -18.398 -42.411  23.723  1.00  0.00     0.162 A 
ATOM     19  C   UNL     1     -17.623 -41.765  22.770  1.00  0.00     0.200 A 
BRANCH  17  20
ATOM     20  O   UNL     1     -15.549 -40.934  22.015  1.00  0.00    -0.504 OA
ATOM     21  H   UNL     1     -15.293 -41.592  21.344  1.00  0.00     0.293 HD
ENDBRANCH  17  20
BRANCH  18  22
ATOM     22  O   UNL     1     -19.733 -42.597  23.506  1.00  0.00    -0.504 OA
ATOM     23  H   UNL     1     -19.782 -43.403  22.954  1.00  0.00     0.293 HD
ENDBRANCH  18  22
BRANCH  19  24
ATOM     24  O   UNL     1     -18.214 -41.320  21.618  1.00  0.00    -0.502 OA
ATOM     25  H   UNL     1     -18.493 -42.140  21.162  1.00  0.00     0.293 HD
ENDBRANCH  19  24
ENDBRANCH   4  14
BRANCH  10  26
ATOM     26  O   UNL     1     -14.135 -44.792  30.921  1.00  0.00    -0.507 OA
ATOM     27  H   UNL     1     -15.055 -45.108  31.066  1.00  0.00     0.293 HD
ENDBRANCH  10  26
BRANCH   8  28
ATOM     28  O   UNL     1     -11.314 -46.861  27.702  1.00  0.00    -0.508 OA
ATOM     29  H   UNL     1     -11.332 -47.048  26.748  1.00  0.00     0.293 HD
ENDBRANCH   8  28
TORSDOF 7
