MODEL 6
REMARK VINA RESULT:    -8.061      1.664      3.905
REMARK INTER + INTRA:         -14.688
REMARK INTER:                 -12.631
REMARK INTRA:                  -2.057
REMARK UNBOUND:                -1.915
REMARK SMILES O=C(NCCNS(=O)(=O)c1ccc(-c2ccccc2Oc2ccc(O)c(O)c2)s1)Nc1cc(Cl)cc(Cl)c1
REMARK SMILES IDX 7 1 8 2 9 3 6 4 5 6 4 7 3 8 1 9 2 10 30 11 31 14 32 15 38 16
REMARK SMILES IDX 33 17 36 18 35 19 34 20 37 21 10 22 11 23 29 24 12 25 13 26
REMARK SMILES IDX 14 27 15 28 19 29 16 30 18 31 17 32 20 33 21 34 22 35 28 36
REMARK SMILES IDX 23 37 26 38 24 39 27 40 25 42
REMARK H PARENT 6 5 3 12 30 13 27 41 25 43
ROOT
ATOM      1  S   UNL     1      42.810  16.449 -49.563  1.00  0.00     0.250 S 
ATOM      2  O   UNL     1      42.100  17.016 -50.687  1.00  0.00    -0.206 OA
ATOM      3  O   UNL     1      42.658  16.951 -48.217  1.00  0.00    -0.206 OA
ENDROOT
BRANCH   1   4
ATOM      4  N   UNL     1      44.451  16.480 -49.963  1.00  0.00    -0.209 NA
ATOM      5  H   UNL     1      44.839  15.538 -49.956  1.00  0.00     0.141 HD
BRANCH   4   6
ATOM      6  C   UNL     1      45.275  17.524 -49.322  1.00  0.00     0.120 C 
BRANCH   6   7
ATOM      7  C   UNL     1      46.111  16.906 -48.189  1.00  0.00     0.134 C 
BRANCH   7   8
ATOM      8  N   UNL     1      45.308  16.325 -47.124  1.00  0.00    -0.337 N 
ATOM      9  O   UNL     1      47.094  16.042 -45.736  1.00  0.00    -0.249 OA
ATOM     10  C   UNL     1      45.894  15.935 -45.937  1.00  0.00     0.319 C 
ATOM     11  N   UNL     1      44.951  15.433 -45.068  1.00  0.00    -0.308 N 
ATOM     12  H   UNL     1      44.340  16.600 -47.078  1.00  0.00     0.165 HD
ATOM     13  H   UNL     1      44.074  15.171 -45.493  1.00  0.00     0.171 HD
BRANCH  11  14
ATOM     14  C   UNL     1      45.149  15.043 -43.726  1.00  0.00     0.045 A 
ATOM     15  C   UNL     1      45.585  13.733 -43.496  1.00  0.00     0.046 A 
ATOM     16  C   UNL     1      44.909  15.878 -42.631  1.00  0.00     0.046 A 
ATOM     17  C   UNL     1      45.790  13.277 -42.193  1.00  0.00     0.044 A 
ATOM     18  C   UNL     1      45.114  15.408 -41.332  1.00  0.00     0.044 A 
ATOM     19  C   UNL     1      45.557  14.109 -41.104  1.00  0.00     0.041 A 
ATOM     20  Cl  UNL     1      46.332  11.663 -41.933  1.00  0.00    -0.084 Cl
ATOM     21  Cl  UNL     1      44.809  16.445 -39.990  1.00  0.00    -0.084 Cl
ENDBRANCH  11  14
ENDBRANCH   7   8
ENDBRANCH   6   7
ENDBRANCH   4   6
ENDBRANCH   1   4
BRANCH   1  22
ATOM     22  C   UNL     1      42.317  14.743 -49.483  1.00  0.00     0.135 A 
ATOM     23  C   UNL     1      41.642  13.931 -50.372  1.00  0.00     0.034 A 
ATOM     24  S   UNL     1      42.698  13.912 -48.037  1.00  0.00    -0.122 S 
ATOM     25  C   UNL     1      41.449  12.615 -49.860  1.00  0.00     0.022 A 
ATOM     26  C   UNL     1      41.990  12.454 -48.598  1.00  0.00     0.039 A 
BRANCH  26  27
ATOM     27  C   UNL     1      42.050  11.240 -47.771  1.00  0.00     0.034 A 
ATOM     28  C   UNL     1      43.038  10.272 -48.016  1.00  0.00     0.013 A 
ATOM     29  C   UNL     1      41.152  11.015 -46.710  1.00  0.00     0.136 A 
ATOM     30  C   UNL     1      43.134   9.124 -47.221  1.00  0.00     0.001 A 
ATOM     31  C   UNL     1      41.265   9.878 -45.900  1.00  0.00     0.048 A 
ATOM     32  C   UNL     1      42.250   8.930 -46.162  1.00  0.00     0.004 A 
BRANCH  29  33
ATOM     33  O   UNL     1      40.164  11.911 -46.362  1.00  0.00    -0.457 OA
BRANCH  33  34
ATOM     34  C   UNL     1      38.935  11.789 -46.976  1.00  0.00     0.131 A 
ATOM     35  C   UNL     1      38.429  10.600 -47.522  1.00  0.00     0.051 A 
ATOM     36  C   UNL     1      38.163  12.954 -47.008  1.00  0.00     0.097 A 
ATOM     37  C   UNL     1      37.171  10.584 -48.137  1.00  0.00     0.054 A 
ATOM     38  C   UNL     1      36.916  12.927 -47.614  1.00  0.00     0.161 A 
ATOM     39  C   UNL     1      36.423  11.754 -48.181  1.00  0.00     0.157 A 
BRANCH  38  40
ATOM     40  O   UNL     1      36.170  14.070 -47.656  1.00  0.00    -0.504 OA
ATOM     41  H   UNL     1      36.548  14.635 -46.954  1.00  0.00     0.293 HD
ENDBRANCH  38  40
BRANCH  39  42
ATOM     42  O   UNL     1      35.190  11.803 -48.769  1.00  0.00    -0.504 OA
ATOM     43  H   UNL     1      34.675  12.505 -48.335  1.00  0.00     0.293 HD
ENDBRANCH  39  42
ENDBRANCH  33  34
ENDBRANCH  29  33
ENDBRANCH  26  27
ENDBRANCH   1  22
TORSDOF 11
ENDMDL
