MODEL 8
REMARK VINA RESULT:    -7.997      3.238      6.704
REMARK INTER + INTRA:         -14.588
REMARK INTER:                 -12.442
REMARK INTRA:                  -2.146
REMARK UNBOUND:                -1.915
REMARK SMILES O=C(NCCNS(=O)(=O)c1ccc(-c2ccccc2Oc2ccc(O)c(O)c2)s1)Nc1cc(Cl)cc(Cl)c1
REMARK SMILES IDX 7 1 8 2 9 3 6 4 5 6 4 7 3 8 1 9 2 10 30 11 31 14 32 15 38 16
REMARK SMILES IDX 33 17 36 18 35 19 34 20 37 21 10 22 11 23 29 24 12 25 13 26
REMARK SMILES IDX 14 27 15 28 19 29 16 30 18 31 17 32 20 33 21 34 22 35 28 36
REMARK SMILES IDX 23 37 26 38 24 39 27 40 25 42
REMARK H PARENT 6 5 3 12 30 13 27 41 25 43
ROOT
ATOM      1  S   UNL     1      46.419  16.933 -48.949  1.00  0.00     0.250 S 
ATOM      2  O   UNL     1      47.506  17.827 -49.282  1.00  0.00    -0.206 OA
ATOM      3  O   UNL     1      46.189  15.695 -49.656  1.00  0.00    -0.206 OA
ENDROOT
BRANCH   1   4
ATOM      4  N   UNL     1      45.004  17.854 -49.007  1.00  0.00    -0.209 NA
ATOM      5  H   UNL     1      44.737  18.159 -48.071  1.00  0.00     0.141 HD
BRANCH   4   6
ATOM      6  C   UNL     1      43.910  17.343 -49.857  1.00  0.00     0.120 C 
BRANCH   6   7
ATOM      7  C   UNL     1      42.552  17.687 -49.222  1.00  0.00     0.134 C 
BRANCH   7   8
ATOM      8  N   UNL     1      42.154  16.768 -48.168  1.00  0.00    -0.337 N 
ATOM      9  O   UNL     1      40.897  15.479 -49.566  1.00  0.00    -0.249 OA
ATOM     10  C   UNL     1      41.333  15.695 -48.445  1.00  0.00     0.319 C 
ATOM     11  N   UNL     1      41.100  14.949 -47.311  1.00  0.00    -0.308 N 
ATOM     12  H   UNL     1      42.786  16.660 -47.390  1.00  0.00     0.165 HD
ATOM     13  H   UNL     1      41.309  15.417 -46.442  1.00  0.00     0.171 HD
BRANCH  11  14
ATOM     14  C   UNL     1      40.408  13.723 -47.222  1.00  0.00     0.045 A 
ATOM     15  C   UNL     1      41.128  12.558 -47.514  1.00  0.00     0.046 A 
ATOM     16  C   UNL     1      39.054  13.616 -46.889  1.00  0.00     0.046 A 
ATOM     17  C   UNL     1      40.503  11.311 -47.458  1.00  0.00     0.044 A 
ATOM     18  C   UNL     1      38.440  12.362 -46.840  1.00  0.00     0.044 A 
ATOM     19  C   UNL     1      39.159  11.204 -47.121  1.00  0.00     0.041 A 
ATOM     20  Cl  UNL     1      41.408   9.890 -47.815  1.00  0.00    -0.084 Cl
ATOM     21  Cl  UNL     1      36.771  12.244 -46.433  1.00  0.00    -0.084 Cl
ENDBRANCH  11  14
ENDBRANCH   7   8
ENDBRANCH   6   7
ENDBRANCH   4   6
ENDBRANCH   1   4
BRANCH   1  22
ATOM     22  C   UNL     1      46.675  16.462 -47.254  1.00  0.00     0.135 A 
ATOM     23  C   UNL     1      47.820  16.223 -46.522  1.00  0.00     0.034 A 
ATOM     24  S   UNL     1      45.266  16.210 -46.318  1.00  0.00    -0.122 S 
ATOM     25  C   UNL     1      47.532  15.841 -45.179  1.00  0.00     0.022 A 
ATOM     26  C   UNL     1      46.175  15.808 -44.919  1.00  0.00     0.039 A 
BRANCH  26  27
ATOM     27  C   UNL     1      45.487  15.524 -43.651  1.00  0.00     0.034 A 
ATOM     28  C   UNL     1      45.775  16.291 -42.509  1.00  0.00     0.013 A 
ATOM     29  C   UNL     1      44.518  14.509 -43.538  1.00  0.00     0.136 A 
ATOM     30  C   UNL     1      45.111  16.060 -41.299  1.00  0.00     0.001 A 
ATOM     31  C   UNL     1      43.836  14.295 -42.334  1.00  0.00     0.048 A 
ATOM     32  C   UNL     1      44.140  15.065 -41.214  1.00  0.00     0.004 A 
BRANCH  29  33
ATOM     33  O   UNL     1      44.136  13.717 -44.600  1.00  0.00    -0.457 OA
BRANCH  33  34
ATOM     34  C   UNL     1      44.882  12.587 -44.865  1.00  0.00     0.131 A 
ATOM     35  C   UNL     1      45.959  12.140 -44.087  1.00  0.00     0.051 A 
ATOM     36  C   UNL     1      44.480  11.855 -45.986  1.00  0.00     0.097 A 
ATOM     37  C   UNL     1      46.661  10.984 -44.449  1.00  0.00     0.054 A 
ATOM     38  C   UNL     1      45.178  10.708 -46.334  1.00  0.00     0.161 A 
ATOM     39  C   UNL     1      46.265  10.276 -45.577  1.00  0.00     0.157 A 
BRANCH  38  40
ATOM     40  O   UNL     1      44.792  10.001 -47.437  1.00  0.00    -0.504 OA
ATOM     41  H   UNL     1      45.397  10.301 -48.144  1.00  0.00     0.293 HD
ENDBRANCH  38  40
BRANCH  39  42
ATOM     42  O   UNL     1      46.911   9.143 -45.985  1.00  0.00    -0.504 OA
ATOM     43  H   UNL     1      46.475   8.819 -46.793  1.00  0.00     0.293 HD
ENDBRANCH  39  42
ENDBRANCH  33  34
ENDBRANCH  29  33
ENDBRANCH  26  27
ENDBRANCH   1  22
TORSDOF 11
ENDMDL
