MODEL 1
REMARK VINA RESULT:   -10.037      0.000      0.000
REMARK INTER + INTRA:         -14.576
REMARK INTER:                 -13.558
REMARK INTRA:                  -1.018
REMARK UNBOUND:                -1.018
REMARK SMILES COc1cc2c(Nc3ccc(Cl)c(Cl)c3)ncnc2cc1OCc1csc2ccc(Cl)cc12
REMARK SMILES IDX 3 1 4 2 5 3 6 4 16 5 17 6 18 7 19 8 20 9 21 10 2 11 1 12
REMARK SMILES IDX 22 13 23 14 24 15 25 16 33 17 26 18 32 19 27 20 30 21 28 22
REMARK SMILES IDX 29 23 31 24 7 25 8 27 9 28 15 29 10 30 13 31 11 32 14 33
REMARK SMILES IDX 12 34
REMARK H PARENT 7 26
ROOT
ATOM      1  C   UNL     1      12.738   2.456  28.158  1.00  0.00     0.161 A 
ATOM      2  C   UNL     1      14.046   2.438  27.666  1.00  0.00     0.064 A 
ATOM      3  C   UNL     1      14.832   1.250  27.683  1.00  0.00     0.047 A 
ATOM      4  C   UNL     1      16.158   1.141  27.215  1.00  0.00     0.141 A 
ATOM      5  N   UNL     1      16.822  -0.030  27.219  1.00  0.00    -0.219 NA
ATOM      6  C   UNL     1      16.181  -1.086  27.725  1.00  0.00     0.224 A 
ATOM      7  N   UNL     1      14.941  -1.088  28.222  1.00  0.00    -0.236 NA
ATOM      8  C   UNL     1      14.278   0.069  28.191  1.00  0.00     0.080 A 
ATOM      9  C   UNL     1      12.981   0.099  28.677  1.00  0.00     0.079 A 
ATOM     10  C   UNL     1      12.201   1.261  28.650  1.00  0.00     0.163 A 
ENDROOT
BRANCH   1  11
ATOM     11  O   UNL     1      11.948   3.570  28.209  1.00  0.00    -0.493 OA
ATOM     12  C   UNL     1      11.858   4.382  27.045  1.00  0.00     0.278 C 
ENDBRANCH   1  11
BRANCH  10  13
ATOM     13  O   UNL     1      10.948   1.109  29.186  1.00  0.00    -0.485 OA
BRANCH  13  14
ATOM     14  C   UNL     1      10.910   0.803  30.583  1.00  0.00     0.267 C 
BRANCH  14  15
ATOM     15  C   UNL     1       9.594   1.243  31.166  1.00  0.00     0.008 A 
ATOM     16  C   UNL     1       9.205   2.561  31.288  1.00  0.00     0.073 A 
ATOM     17  C   UNL     1       8.583   0.341  31.679  1.00  0.00     0.001 A 
ATOM     18  S   UNL     1       7.659   2.735  31.977  1.00  0.00    -0.143 S 
ATOM     19  C   UNL     1       8.567  -1.076  31.768  1.00  0.00     0.030 A 
ATOM     20  C   UNL     1       7.465   1.036  32.153  1.00  0.00     0.035 A 
ATOM     21  C   UNL     1       7.461  -1.738  32.308  1.00  0.00     0.041 A 
ATOM     22  C   UNL     1       6.350   0.367  32.698  1.00  0.00     0.021 A 
ATOM     23  C   UNL     1       6.363  -1.027  32.768  1.00  0.00     0.022 A 
ATOM     24  Cl  UNL     1       7.465  -3.457  32.400  1.00  0.00    -0.084 Cl
ENDBRANCH  14  15
ENDBRANCH  13  14
ENDBRANCH  10  13
BRANCH   4  25
ATOM     25  N   UNL     1      16.821   2.289  26.726  1.00  0.00    -0.340 N 
ATOM     26  H   UNL     1      17.500   2.648  27.383  1.00  0.00     0.168 HD
BRANCH  25  27
ATOM     27  C   UNL     1      16.970   2.762  25.410  1.00  0.00     0.041 A 
ATOM     28  C   UNL     1      18.190   2.555  24.749  1.00  0.00     0.028 A 
ATOM     29  C   UNL     1      15.974   3.485  24.741  1.00  0.00     0.048 A 
ATOM     30  C   UNL     1      18.396   3.029  23.449  1.00  0.00     0.024 A 
ATOM     31  C   UNL     1      16.172   3.962  23.439  1.00  0.00     0.061 A 
ATOM     32  C   UNL     1      17.387   3.731  22.790  1.00  0.00     0.059 A 
ATOM     33  Cl  UNL     1      14.879   4.837  22.696  1.00  0.00    -0.083 Cl
ATOM     34  Cl  UNL     1      17.708   4.291  21.188  1.00  0.00    -0.083 Cl
ENDBRANCH  25  27
ENDBRANCH   4  25
TORSDOF 6
ENDMDL
MODEL 2
REMARK VINA RESULT:   -10.008      4.172      9.986
REMARK INTER + INTRA:         -14.536
REMARK INTER:                 -13.503
REMARK INTRA:                  -1.033
REMARK UNBOUND:                -1.018
REMARK SMILES COc1cc2c(Nc3ccc(Cl)c(Cl)c3)ncnc2cc1OCc1csc2ccc(Cl)cc12
REMARK SMILES IDX 3 1 4 2 5 3 6 4 16 5 17 6 18 7 19 8 20 9 21 10 2 11 1 12
REMARK SMILES IDX 22 13 23 14 24 15 25 16 33 17 26 18 32 19 27 20 30 21 28 22
REMARK SMILES IDX 29 23 31 24 7 25 8 27 9 28 15 29 10 30 13 31 11 32 14 33
REMARK SMILES IDX 12 34
REMARK H PARENT 7 26
ROOT
ATOM      1  C   UNL     1      11.805   2.633  28.140  1.00  0.00     0.161 A 
ATOM      2  C   UNL     1      10.864   2.445  29.155  1.00  0.00     0.064 A 
ATOM      3  C   UNL     1      11.247   2.008  30.456  1.00  0.00     0.047 A 
ATOM      4  C   UNL     1      10.368   1.787  31.536  1.00  0.00     0.141 A 
ATOM      5  N   UNL     1      10.812   1.421  32.753  1.00  0.00    -0.219 NA
ATOM      6  C   UNL     1      12.127   1.237  32.887  1.00  0.00     0.224 A 
ATOM      7  N   UNL     1      13.043   1.388  31.926  1.00  0.00    -0.236 NA
ATOM      8  C   UNL     1      12.601   1.776  30.729  1.00  0.00     0.080 A 
ATOM      9  C   UNL     1      13.525   1.966  29.714  1.00  0.00     0.079 A 
ATOM     10  C   UNL     1      13.153   2.406  28.439  1.00  0.00     0.163 A 
ENDROOT
BRANCH   1  11
ATOM     11  O   UNL     1      11.498   3.009  26.862  1.00  0.00    -0.493 OA
ATOM     12  C   UNL     1      11.590   4.388  26.528  1.00  0.00     0.278 C 
ENDBRANCH   1  11
BRANCH  10  13
ATOM     13  O   UNL     1      14.198   2.523  27.559  1.00  0.00    -0.485 OA
BRANCH  13  14
ATOM     14  C   UNL     1      15.482   2.163  28.078  1.00  0.00     0.267 C 
BRANCH  14  15
ATOM     15  C   UNL     1      16.398   1.775  26.948  1.00  0.00     0.008 A 
ATOM     16  C   UNL     1      16.884   0.498  26.752  1.00  0.00     0.073 A 
ATOM     17  C   UNL     1      16.890   2.692  25.940  1.00  0.00     0.001 A 
ATOM     18  S   UNL     1      17.889   0.375  25.384  1.00  0.00    -0.143 S 
ATOM     19  C   UNL     1      16.664   4.082  25.766  1.00  0.00     0.030 A 
ATOM     20  C   UNL     1      17.719   2.045  25.017  1.00  0.00     0.035 A 
ATOM     21  C   UNL     1      17.253   4.766  24.699  1.00  0.00     0.041 A 
ATOM     22  C   UNL     1      18.313   2.736  23.941  1.00  0.00     0.021 A 
ATOM     23  C   UNL     1      18.069   4.103  23.795  1.00  0.00     0.022 A 
ATOM     24  Cl  UNL     1      16.960   6.452  24.509  1.00  0.00    -0.084 Cl
ENDBRANCH  14  15
ENDBRANCH  13  14
ENDBRANCH  10  13
BRANCH   4  25
ATOM     25  N   UNL     1       8.977   1.949  31.347  1.00  0.00    -0.340 N 
ATOM     26  H   UNL     1       8.464   1.096  31.524  1.00  0.00     0.168 HD
BRANCH  25  27
ATOM     27  C   UNL     1       8.191   3.116  31.333  1.00  0.00     0.041 A 
ATOM     28  C   UNL     1       8.175   3.936  32.471  1.00  0.00     0.028 A 
ATOM     29  C   UNL     1       7.373   3.472  30.254  1.00  0.00     0.048 A 
ATOM     30  C   UNL     1       7.389   5.092  32.517  1.00  0.00     0.024 A 
ATOM     31  C   UNL     1       6.585   4.630  30.292  1.00  0.00     0.061 A 
ATOM     32  C   UNL     1       6.595   5.444  31.426  1.00  0.00     0.059 A 
ATOM     33  Cl  UNL     1       5.614   4.988  28.906  1.00  0.00    -0.083 Cl
ATOM     34  Cl  UNL     1       5.647   6.883  31.549  1.00  0.00    -0.083 Cl
ENDBRANCH  25  27
ENDBRANCH   4  25
TORSDOF 6
ENDMDL
MODEL 3
REMARK VINA RESULT:    -9.977      1.742      2.153
REMARK INTER + INTRA:         -14.494
REMARK INTER:                 -13.410
REMARK INTRA:                  -1.084
REMARK UNBOUND:                -1.018
REMARK SMILES COc1cc2c(Nc3ccc(Cl)c(Cl)c3)ncnc2cc1OCc1csc2ccc(Cl)cc12
REMARK SMILES IDX 3 1 4 2 5 3 6 4 16 5 17 6 18 7 19 8 20 9 21 10 2 11 1 12
REMARK SMILES IDX 22 13 23 14 24 15 25 16 33 17 26 18 32 19 27 20 30 21 28 22
REMARK SMILES IDX 29 23 31 24 7 25 8 27 9 28 15 29 10 30 13 31 11 32 14 33
REMARK SMILES IDX 12 34
REMARK H PARENT 7 26
ROOT
ATOM      1  C   UNL     1      12.849   2.485  28.334  1.00  0.00     0.161 A 
ATOM      2  C   UNL     1      14.130   2.462  27.776  1.00  0.00     0.064 A 
ATOM      3  C   UNL     1      14.897   1.264  27.719  1.00  0.00     0.047 A 
ATOM      4  C   UNL     1      16.196   1.149  27.181  1.00  0.00     0.141 A 
ATOM      5  N   UNL     1      16.840  -0.031  27.117  1.00  0.00    -0.219 NA
ATOM      6  C   UNL     1      16.209  -1.092  27.625  1.00  0.00     0.224 A 
ATOM      7  N   UNL     1      14.996  -1.091  28.184  1.00  0.00    -0.236 NA
ATOM      8  C   UNL     1      14.350   0.076  28.220  1.00  0.00     0.080 A 
ATOM      9  C   UNL     1      13.080   0.110  28.772  1.00  0.00     0.079 A 
ATOM     10  C   UNL     1      12.319   1.283  28.818  1.00  0.00     0.163 A 
ENDROOT
BRANCH   1  11
ATOM     11  O   UNL     1      12.079   3.608  28.457  1.00  0.00    -0.493 OA
ATOM     12  C   UNL     1      11.848   4.392  27.294  1.00  0.00     0.278 C 
ENDBRANCH   1  11
BRANCH  10  13
ATOM     13  O   UNL     1      11.092   1.133  29.412  1.00  0.00    -0.485 OA
BRANCH  13  14
ATOM     14  C   UNL     1      11.119   0.836  30.811  1.00  0.00     0.267 C 
BRANCH  14  15
ATOM     15  C   UNL     1       9.765   0.353  31.257  1.00  0.00     0.008 A 
ATOM     16  C   UNL     1       9.377  -0.972  31.252  1.00  0.00     0.073 A 
ATOM     17  C   UNL     1       8.702   1.216  31.732  1.00  0.00     0.001 A 
ATOM     18  S   UNL     1       7.790  -1.200  31.822  1.00  0.00    -0.143 S 
ATOM     19  C   UNL     1       8.655   2.626  31.885  1.00  0.00     0.030 A 
ATOM     20  C   UNL     1       7.561   0.484  32.078  1.00  0.00     0.035 A 
ATOM     21  C   UNL     1       7.502   3.246  32.373  1.00  0.00     0.041 A 
ATOM     22  C   UNL     1       6.398   1.111  32.570  1.00  0.00     0.021 A 
ATOM     23  C   UNL     1       6.385   2.500  32.713  1.00  0.00     0.022 A 
ATOM     24  Cl  UNL     1       7.473   4.958  32.553  1.00  0.00    -0.084 Cl
ENDBRANCH  14  15
ENDBRANCH  13  14
ENDBRANCH  10  13
BRANCH   4  25
ATOM     25  N   UNL     1      16.851   2.301  26.693  1.00  0.00    -0.340 N 
ATOM     26  H   UNL     1      17.543   2.653  27.341  1.00  0.00     0.168 HD
BRANCH  25  27
ATOM     27  C   UNL     1      16.977   2.788  25.379  1.00  0.00     0.041 A 
ATOM     28  C   UNL     1      18.183   2.584  24.692  1.00  0.00     0.028 A 
ATOM     29  C   UNL     1      15.971   3.522  24.737  1.00  0.00     0.048 A 
ATOM     30  C   UNL     1      18.367   3.071  23.394  1.00  0.00     0.024 A 
ATOM     31  C   UNL     1      16.147   4.012  23.437  1.00  0.00     0.061 A 
ATOM     32  C   UNL     1      17.348   3.783  22.762  1.00  0.00     0.059 A 
ATOM     33  Cl  UNL     1      14.843   4.900  22.727  1.00  0.00    -0.083 Cl
ATOM     34  Cl  UNL     1      17.641   4.359  21.160  1.00  0.00    -0.083 Cl
ENDBRANCH  25  27
ENDBRANCH   4  25
TORSDOF 6
ENDMDL
MODEL 4
REMARK VINA RESULT:    -9.612      2.727      3.960
REMARK INTER + INTRA:         -14.001
REMARK INTER:                 -12.854
REMARK INTRA:                  -1.147
REMARK UNBOUND:                -1.018
REMARK SMILES COc1cc2c(Nc3ccc(Cl)c(Cl)c3)ncnc2cc1OCc1csc2ccc(Cl)cc12
REMARK SMILES IDX 3 1 4 2 5 3 6 4 16 5 17 6 18 7 19 8 20 9 21 10 2 11 1 12
REMARK SMILES IDX 22 13 23 14 24 15 25 16 33 17 26 18 32 19 27 20 30 21 28 22
REMARK SMILES IDX 29 23 31 24 7 25 8 27 9 28 15 29 10 30 13 31 11 32 14 33
REMARK SMILES IDX 12 34
REMARK H PARENT 7 26
ROOT
ATOM      1  C   UNL     1      14.179   1.563  27.797  1.00  0.00     0.161 A 
ATOM      2  C   UNL     1      14.326   2.336  26.643  1.00  0.00     0.064 A 
ATOM      3  C   UNL     1      13.487   3.458  26.386  1.00  0.00     0.047 A 
ATOM      4  C   UNL     1      13.560   4.289  25.248  1.00  0.00     0.141 A 
ATOM      5  N   UNL     1      12.763   5.364  25.098  1.00  0.00    -0.219 NA
ATOM      6  C   UNL     1      11.867   5.591  26.061  1.00  0.00     0.224 A 
ATOM      7  N   UNL     1      11.692   4.853  27.161  1.00  0.00    -0.236 NA
ATOM      8  C   UNL     1      12.502   3.805  27.318  1.00  0.00     0.080 A 
ATOM      9  C   UNL     1      12.365   3.030  28.459  1.00  0.00     0.079 A 
ATOM     10  C   UNL     1      13.195   1.935  28.720  1.00  0.00     0.163 A 
ENDROOT
BRANCH   1  11
ATOM     11  O   UNL     1      14.922   0.451  28.082  1.00  0.00    -0.493 OA
ATOM     12  C   UNL     1      16.068   0.188  27.283  1.00  0.00     0.278 C 
ENDBRANCH   1  11
BRANCH  10  13
ATOM     13  O   UNL     1      12.905   1.277  29.888  1.00  0.00    -0.485 OA
BRANCH  13  14
ATOM     14  C   UNL     1      11.964   1.932  30.745  1.00  0.00     0.267 C 
BRANCH  14  15
ATOM     15  C   UNL     1      10.852   0.982  31.102  1.00  0.00     0.008 A 
ATOM     16  C   UNL     1      10.956  -0.392  31.030  1.00  0.00     0.073 A 
ATOM     17  C   UNL     1       9.537   1.393  31.552  1.00  0.00     0.001 A 
ATOM     18  S   UNL     1       9.532  -1.190  31.508  1.00  0.00    -0.143 S 
ATOM     19  C   UNL     1       8.991   2.688  31.752  1.00  0.00     0.030 A 
ATOM     20  C   UNL     1       8.715   0.291  31.812  1.00  0.00     0.035 A 
ATOM     21  C   UNL     1       7.677   2.838  32.201  1.00  0.00     0.041 A 
ATOM     22  C   UNL     1       7.389   0.445  32.265  1.00  0.00     0.021 A 
ATOM     23  C   UNL     1       6.882   1.731  32.456  1.00  0.00     0.022 A 
ATOM     24  Cl  UNL     1       7.040   4.420  32.441  1.00  0.00    -0.084 Cl
ENDBRANCH  14  15
ENDBRANCH  13  14
ENDBRANCH  10  13
BRANCH   4  25
ATOM     25  N   UNL     1      14.491   3.994  24.228  1.00  0.00    -0.340 N 
ATOM     26  H   UNL     1      14.041   3.717  23.366  1.00  0.00     0.168 HD
BRANCH  25  27
ATOM     27  C   UNL     1      15.841   4.368  24.092  1.00  0.00     0.041 A 
ATOM     28  C   UNL     1      16.326   5.442  24.852  1.00  0.00     0.028 A 
ATOM     29  C   UNL     1      16.716   3.753  23.187  1.00  0.00     0.048 A 
ATOM     30  C   UNL     1      17.653   5.868  24.734  1.00  0.00     0.024 A 
ATOM     31  C   UNL     1      18.046   4.173  23.064  1.00  0.00     0.061 A 
ATOM     32  C   UNL     1      18.517   5.233  23.842  1.00  0.00     0.059 A 
ATOM     33  Cl  UNL     1      19.050   3.347  21.924  1.00  0.00    -0.083 Cl
ATOM     34  Cl  UNL     1      20.142   5.811  23.743  1.00  0.00    -0.083 Cl
ENDBRANCH  25  27
ENDBRANCH   4  25
TORSDOF 6
ENDMDL
MODEL 5
REMARK VINA RESULT:    -9.470      3.756      9.703
REMARK INTER + INTRA:         -13.810
REMARK INTER:                 -12.807
REMARK INTRA:                  -1.003
REMARK UNBOUND:                -1.018
REMARK SMILES COc1cc2c(Nc3ccc(Cl)c(Cl)c3)ncnc2cc1OCc1csc2ccc(Cl)cc12
REMARK SMILES IDX 3 1 4 2 5 3 6 4 16 5 17 6 18 7 19 8 20 9 21 10 2 11 1 12
REMARK SMILES IDX 22 13 23 14 24 15 25 16 33 17 26 18 32 19 27 20 30 21 28 22
REMARK SMILES IDX 29 23 31 24 7 25 8 27 9 28 15 29 10 30 13 31 11 32 14 33
REMARK SMILES IDX 12 34
REMARK H PARENT 7 26
ROOT
ATOM      1  C   UNL     1      11.952   3.575  26.576  1.00  0.00     0.161 A 
ATOM      2  C   UNL     1      11.165   2.950  27.546  1.00  0.00     0.064 A 
ATOM      3  C   UNL     1      11.727   2.463  28.761  1.00  0.00     0.047 A 
ATOM      4  C   UNL     1      11.012   1.816  29.790  1.00  0.00     0.141 A 
ATOM      5  N   UNL     1      11.605   1.426  30.934  1.00  0.00    -0.219 NA
ATOM      6  C   UNL     1      12.918   1.645  31.039  1.00  0.00     0.224 A 
ATOM      7  N   UNL     1      13.695   2.219  30.117  1.00  0.00    -0.236 NA
ATOM      8  C   UNL     1      13.097   2.627  28.996  1.00  0.00     0.080 A 
ATOM      9  C   UNL     1      13.868   3.248  28.026  1.00  0.00     0.079 A 
ATOM     10  C   UNL     1      13.317   3.739  26.837  1.00  0.00     0.163 A 
ENDROOT
BRANCH   1  11
ATOM     11  O   UNL     1      11.482   4.026  25.373  1.00  0.00    -0.493 OA
ATOM     12  C   UNL     1      10.690   5.206  25.363  1.00  0.00     0.278 C 
ENDBRANCH   1  11
BRANCH  10  13
ATOM     13  O   UNL     1      14.231   4.310  25.989  1.00  0.00    -0.485 OA
BRANCH  13  14
ATOM     14  C   UNL     1      15.553   4.454  26.517  1.00  0.00     0.267 C 
BRANCH  14  15
ATOM     15  C   UNL     1      16.517   3.627  25.710  1.00  0.00     0.008 A 
ATOM     16  C   UNL     1      17.270   4.119  24.663  1.00  0.00     0.073 A 
ATOM     17  C   UNL     1      16.764   2.215  25.924  1.00  0.00     0.001 A 
ATOM     18  S   UNL     1      18.273   2.941  23.955  1.00  0.00    -0.143 S 
ATOM     19  C   UNL     1      16.207   1.311  26.865  1.00  0.00     0.030 A 
ATOM     20  C   UNL     1      17.713   1.716  25.024  1.00  0.00     0.035 A 
ATOM     21  C   UNL     1      16.608  -0.027  26.884  1.00  0.00     0.041 A 
ATOM     22  C   UNL     1      18.117   0.366  25.044  1.00  0.00     0.021 A 
ATOM     23  C   UNL     1      17.553  -0.497  25.985  1.00  0.00     0.022 A 
ATOM     24  Cl  UNL     1      15.919  -1.102  28.039  1.00  0.00    -0.084 Cl
ENDBRANCH  14  15
ENDBRANCH  13  14
ENDBRANCH  10  13
BRANCH   4  25
ATOM     25  N   UNL     1       9.632   1.561  29.627  1.00  0.00    -0.340 N 
ATOM     26  H   UNL     1       9.411   1.230  28.698  1.00  0.00     0.168 HD
BRANCH  25  27
ATOM     27  C   UNL     1       8.629   1.331  30.586  1.00  0.00     0.041 A 
ATOM     28  C   UNL     1       7.969   2.431  31.153  1.00  0.00     0.028 A 
ATOM     29  C   UNL     1       8.294   0.053  31.049  1.00  0.00     0.048 A 
ATOM     30  C   UNL     1       6.983   2.257  32.130  1.00  0.00     0.024 A 
ATOM     31  C   UNL     1       7.307  -0.130  32.026  1.00  0.00     0.061 A 
ATOM     32  C   UNL     1       6.647   0.975  32.566  1.00  0.00     0.059 A 
ATOM     33  Cl  UNL     1       6.960  -1.749  32.527  1.00  0.00    -0.083 Cl
ATOM     34  Cl  UNL     1       5.423   0.830  33.777  1.00  0.00    -0.083 Cl
ENDBRANCH  25  27
ENDBRANCH   4  25
TORSDOF 6
ENDMDL
MODEL 6
REMARK VINA RESULT:    -9.470      2.288      2.947
REMARK INTER + INTRA:         -13.810
REMARK INTER:                 -12.871
REMARK INTRA:                  -0.939
REMARK UNBOUND:                -1.018
REMARK SMILES COc1cc2c(Nc3ccc(Cl)c(Cl)c3)ncnc2cc1OCc1csc2ccc(Cl)cc12
REMARK SMILES IDX 3 1 4 2 5 3 6 4 16 5 17 6 18 7 19 8 20 9 21 10 2 11 1 12
REMARK SMILES IDX 22 13 23 14 24 15 25 16 33 17 26 18 32 19 27 20 30 21 28 22
REMARK SMILES IDX 29 23 31 24 7 25 8 27 9 28 15 29 10 30 13 31 11 32 14 33
REMARK SMILES IDX 12 34
REMARK H PARENT 7 26
ROOT
ATOM      1  C   UNL     1      12.782   3.717  27.075  1.00  0.00     0.161 A 
ATOM      2  C   UNL     1      13.998   3.901  26.412  1.00  0.00     0.064 A 
ATOM      3  C   UNL     1      15.037   2.929  26.477  1.00  0.00     0.047 A 
ATOM      4  C   UNL     1      16.295   3.033  25.847  1.00  0.00     0.141 A 
ATOM      5  N   UNL     1      17.210   2.048  25.914  1.00  0.00    -0.219 NA
ATOM      6  C   UNL     1      16.890   0.975  26.641  1.00  0.00     0.224 A 
ATOM      7  N   UNL     1      15.745   0.787  27.302  1.00  0.00    -0.236 NA
ATOM      8  C   UNL     1      14.831   1.754  27.211  1.00  0.00     0.080 A 
ATOM      9  C   UNL     1      13.622   1.583  27.864  1.00  0.00     0.079 A 
ATOM     10  C   UNL     1      12.594   2.530  27.792  1.00  0.00     0.163 A 
ENDROOT
BRANCH   1  11
ATOM     11  O   UNL     1      11.763   4.628  27.087  1.00  0.00    -0.493 OA
ATOM     12  C   UNL     1      11.186   5.005  25.843  1.00  0.00     0.278 C 
ENDBRANCH   1  11
BRANCH  10  13
ATOM     13  O   UNL     1      11.475   2.200  28.513  1.00  0.00    -0.485 OA
BRANCH  13  14
ATOM     14  C   UNL     1      11.613   2.284  29.935  1.00  0.00     0.267 C 
BRANCH  14  15
ATOM     15  C   UNL     1      10.790   1.210  30.592  1.00  0.00     0.008 A 
ATOM     16  C   UNL     1      11.186  -0.108  30.704  1.00  0.00     0.073 A 
ATOM     17  C   UNL     1       9.480   1.422  31.176  1.00  0.00     0.001 A 
ATOM     18  S   UNL     1      10.041  -1.078  31.506  1.00  0.00    -0.143 S 
ATOM     19  C   UNL     1       8.690   2.598  31.270  1.00  0.00     0.030 A 
ATOM     20  C   UNL     1       8.960   0.241  31.716  1.00  0.00     0.035 A 
ATOM     21  C   UNL     1       7.439   2.560  31.890  1.00  0.00     0.041 A 
ATOM     22  C   UNL     1       7.697   0.205  32.342  1.00  0.00     0.021 A 
ATOM     23  C   UNL     1       6.945   1.379  32.421  1.00  0.00     0.022 A 
ATOM     24  Cl  UNL     1       6.502   4.000  31.995  1.00  0.00    -0.084 Cl
ENDBRANCH  14  15
ENDBRANCH  13  14
ENDBRANCH  10  13
BRANCH   4  25
ATOM     25  N   UNL     1      16.616   4.203  25.122  1.00  0.00    -0.340 N 
ATOM     26  H   UNL     1      16.344   5.044  25.612  1.00  0.00     0.168 HD
BRANCH  25  27
ATOM     27  C   UNL     1      17.539   4.402  24.080  1.00  0.00     0.041 A 
ATOM     28  C   UNL     1      17.367   3.701  22.877  1.00  0.00     0.028 A 
ATOM     29  C   UNL     1      18.663   5.229  24.203  1.00  0.00     0.048 A 
ATOM     30  C   UNL     1      18.272   3.844  21.821  1.00  0.00     0.024 A 
ATOM     31  C   UNL     1      19.574   5.379  23.150  1.00  0.00     0.061 A 
ATOM     32  C   UNL     1      19.376   4.687  21.953  1.00  0.00     0.059 A 
ATOM     33  Cl  UNL     1      20.926   6.428  23.397  1.00  0.00    -0.083 Cl
ATOM     34  Cl  UNL     1      20.456   4.817  20.612  1.00  0.00    -0.083 Cl
ENDBRANCH  25  27
ENDBRANCH   4  25
TORSDOF 6
ENDMDL
MODEL 7
REMARK VINA RESULT:    -9.437      3.332      9.933
REMARK INTER + INTRA:         -13.765
REMARK INTER:                 -12.946
REMARK INTRA:                  -0.818
REMARK UNBOUND:                -1.018
REMARK SMILES COc1cc2c(Nc3ccc(Cl)c(Cl)c3)ncnc2cc1OCc1csc2ccc(Cl)cc12
REMARK SMILES IDX 3 1 4 2 5 3 6 4 16 5 17 6 18 7 19 8 20 9 21 10 2 11 1 12
REMARK SMILES IDX 22 13 23 14 24 15 25 16 33 17 26 18 32 19 27 20 30 21 28 22
REMARK SMILES IDX 29 23 31 24 7 25 8 27 9 28 15 29 10 30 13 31 11 32 14 33
REMARK SMILES IDX 12 34
REMARK H PARENT 7 26
ROOT
ATOM      1  C   UNL     1      12.034   4.738  26.757  1.00  0.00     0.161 A 
ATOM      2  C   UNL     1      11.905   3.952  27.905  1.00  0.00     0.064 A 
ATOM      3  C   UNL     1      12.711   2.796  28.112  1.00  0.00     0.047 A 
ATOM      4  C   UNL     1      12.645   1.944  29.234  1.00  0.00     0.141 A 
ATOM      5  N   UNL     1      13.476   0.896  29.384  1.00  0.00    -0.219 NA
ATOM      6  C   UNL     1      14.348   0.671  28.398  1.00  0.00     0.224 A 
ATOM      7  N   UNL     1      14.474   1.393  27.281  1.00  0.00    -0.236 NA
ATOM      8  C   UNL     1      13.666   2.446  27.151  1.00  0.00     0.080 A 
ATOM      9  C   UNL     1      13.786   3.232  26.016  1.00  0.00     0.079 A 
ATOM     10  C   UNL     1      13.004   4.375  25.815  1.00  0.00     0.163 A 
ENDROOT
BRANCH   1  11
ATOM     11  O   UNL     1      11.264   5.832  26.478  1.00  0.00    -0.493 OA
ATOM     12  C   UNL     1      10.341   5.746  25.400  1.00  0.00     0.278 C 
ENDBRANCH   1  11
BRANCH  10  13
ATOM     13  O   UNL     1      13.248   5.021  24.629  1.00  0.00    -0.485 OA
BRANCH  13  14
ATOM     14  C   UNL     1      13.510   4.170  23.509  1.00  0.00     0.267 C 
BRANCH  14  15
ATOM     15  C   UNL     1      14.792   4.587  22.840  1.00  0.00     0.008 A 
ATOM     16  C   UNL     1      14.869   5.535  21.840  1.00  0.00     0.073 A 
ATOM     17  C   UNL     1      16.096   4.040  23.155  1.00  0.00     0.001 A 
ATOM     18  S   UNL     1      16.459   5.793  21.293  1.00  0.00    -0.143 S 
ATOM     19  C   UNL     1      16.479   3.045  24.093  1.00  0.00     0.030 A 
ATOM     20  C   UNL     1      17.101   4.622  22.375  1.00  0.00     0.035 A 
ATOM     21  C   UNL     1      17.821   2.676  24.223  1.00  0.00     0.041 A 
ATOM     22  C   UNL     1      18.454   4.249  22.507  1.00  0.00     0.021 A 
ATOM     23  C   UNL     1      18.799   3.270  23.441  1.00  0.00     0.022 A 
ATOM     24  Cl  UNL     1      18.260   1.470  25.370  1.00  0.00    -0.084 Cl
ENDBRANCH  14  15
ENDBRANCH  13  14
ENDBRANCH  10  13
BRANCH   4  25
ATOM     25  N   UNL     1      11.680   2.187  30.238  1.00  0.00    -0.340 N 
ATOM     26  H   UNL     1      11.650   3.159  30.513  1.00  0.00     0.168 HD
BRANCH  25  27
ATOM     27  C   UNL     1      10.556   1.433  30.620  1.00  0.00     0.041 A 
ATOM     28  C   UNL     1       9.315   2.076  30.734  1.00  0.00     0.028 A 
ATOM     29  C   UNL     1      10.625   0.073  30.949  1.00  0.00     0.048 A 
ATOM     30  C   UNL     1       8.172   1.376  31.136  1.00  0.00     0.024 A 
ATOM     31  C   UNL     1       9.485  -0.635  31.351  1.00  0.00     0.061 A 
ATOM     32  C   UNL     1       8.254   0.018  31.442  1.00  0.00     0.059 A 
ATOM     33  Cl  UNL     1       9.671  -2.312  31.730  1.00  0.00    -0.083 Cl
ATOM     34  Cl  UNL     1       6.807  -0.787  31.934  1.00  0.00    -0.083 Cl
ENDBRANCH  25  27
ENDBRANCH   4  25
TORSDOF 6
ENDMDL
MODEL 8
REMARK VINA RESULT:    -9.380      1.657      2.822
REMARK INTER + INTRA:         -13.687
REMARK INTER:                 -12.929
REMARK INTRA:                  -0.759
REMARK UNBOUND:                -1.018
REMARK SMILES COc1cc2c(Nc3ccc(Cl)c(Cl)c3)ncnc2cc1OCc1csc2ccc(Cl)cc12
REMARK SMILES IDX 3 1 4 2 5 3 6 4 16 5 17 6 18 7 19 8 20 9 21 10 2 11 1 12
REMARK SMILES IDX 22 13 23 14 24 15 25 16 33 17 26 18 32 19 27 20 30 21 28 22
REMARK SMILES IDX 29 23 31 24 7 25 8 27 9 28 15 29 10 30 13 31 11 32 14 33
REMARK SMILES IDX 12 34
REMARK H PARENT 7 26
ROOT
ATOM      1  C   UNL     1      13.725   1.087  28.218  1.00  0.00     0.161 A 
ATOM      2  C   UNL     1      14.514   1.985  27.494  1.00  0.00     0.064 A 
ATOM      3  C   UNL     1      13.964   3.170  26.928  1.00  0.00     0.047 A 
ATOM      4  C   UNL     1      14.680   4.128  26.180  1.00  0.00     0.141 A 
ATOM      5  N   UNL     1      14.101   5.251  25.717  1.00  0.00    -0.219 NA
ATOM      6  C   UNL     1      12.798   5.404  25.964  1.00  0.00     0.224 A 
ATOM      7  N   UNL     1      12.019   4.549  26.631  1.00  0.00    -0.236 NA
ATOM      8  C   UNL     1      12.604   3.450  27.111  1.00  0.00     0.080 A 
ATOM      9  C   UNL     1      11.832   2.552  27.830  1.00  0.00     0.079 A 
ATOM     10  C   UNL     1      12.372   1.393  28.398  1.00  0.00     0.163 A 
ENDROOT
BRANCH   1  11
ATOM     11  O   UNL     1      14.182  -0.087  28.750  1.00  0.00    -0.493 OA
ATOM     12  C   UNL     1      15.212  -0.780  28.058  1.00  0.00     0.278 C 
ENDBRANCH   1  11
BRANCH  10  13
ATOM     13  O   UNL     1      11.457   0.615  29.061  1.00  0.00    -0.485 OA
BRANCH  13  14
ATOM     14  C   UNL     1      11.440   0.764  30.484  1.00  0.00     0.267 C 
BRANCH  14  15
ATOM     15  C   UNL     1      10.088   1.252  30.929  1.00  0.00     0.008 A 
ATOM     16  C   UNL     1       9.711   2.579  30.944  1.00  0.00     0.073 A 
ATOM     17  C   UNL     1       9.023   0.392  31.407  1.00  0.00     0.001 A 
ATOM     18  S   UNL     1       8.117   2.810  31.491  1.00  0.00    -0.143 S 
ATOM     19  C   UNL     1       8.977  -1.017  31.575  1.00  0.00     0.030 A 
ATOM     20  C   UNL     1       7.882   1.127  31.747  1.00  0.00     0.035 A 
ATOM     21  C   UNL     1       7.820  -1.633  32.058  1.00  0.00     0.041 A 
ATOM     22  C   UNL     1       6.715   0.503  32.234  1.00  0.00     0.021 A 
ATOM     23  C   UNL     1       6.700  -0.885  32.384  1.00  0.00     0.022 A 
ATOM     24  Cl  UNL     1       7.789  -3.344  32.247  1.00  0.00    -0.084 Cl
ENDBRANCH  14  15
ENDBRANCH  13  14
ENDBRANCH  10  13
BRANCH   4  25
ATOM     25  N   UNL     1      16.048   3.912  25.901  1.00  0.00    -0.340 N 
ATOM     26  H   UNL     1      16.532   3.468  26.670  1.00  0.00     0.168 HD
BRANCH  25  27
ATOM     27  C   UNL     1      16.728   3.855  24.670  1.00  0.00     0.041 A 
ATOM     28  C   UNL     1      17.920   3.121  24.586  1.00  0.00     0.028 A 
ATOM     29  C   UNL     1      16.300   4.547  23.529  1.00  0.00     0.048 A 
ATOM     30  C   UNL     1      18.645   3.054  23.392  1.00  0.00     0.024 A 
ATOM     31  C   UNL     1      17.020   4.484  22.330  1.00  0.00     0.061 A 
ATOM     32  C   UNL     1      18.195   3.734  22.260  1.00  0.00     0.059 A 
ATOM     33  Cl  UNL     1      16.407   5.368  20.975  1.00  0.00    -0.083 Cl
ATOM     34  Cl  UNL     1      19.140   3.613  20.819  1.00  0.00    -0.083 Cl
ENDBRANCH  25  27
ENDBRANCH   4  25
TORSDOF 6
ENDMDL
MODEL 9
REMARK VINA RESULT:    -9.314      3.584      9.997
REMARK INTER + INTRA:         -13.599
REMARK INTER:                 -12.294
REMARK INTRA:                  -1.305
REMARK UNBOUND:                -1.018
REMARK SMILES COc1cc2c(Nc3ccc(Cl)c(Cl)c3)ncnc2cc1OCc1csc2ccc(Cl)cc12
REMARK SMILES IDX 3 1 4 2 5 3 6 4 16 5 17 6 18 7 19 8 20 9 21 10 2 11 1 12
REMARK SMILES IDX 22 13 23 14 24 15 25 16 33 17 26 18 32 19 27 20 30 21 28 22
REMARK SMILES IDX 29 23 31 24 7 25 8 27 9 28 15 29 10 30 13 31 11 32 14 33
REMARK SMILES IDX 12 34
REMARK H PARENT 7 26
ROOT
ATOM      1  C   UNL     1      12.678   2.104  26.877  1.00  0.00     0.161 A 
ATOM      2  C   UNL     1      11.692   2.137  27.867  1.00  0.00     0.064 A 
ATOM      3  C   UNL     1      12.014   1.979  29.245  1.00  0.00     0.047 A 
ATOM      4  C   UNL     1      11.088   1.993  30.308  1.00  0.00     0.141 A 
ATOM      5  N   UNL     1      11.474   1.886  31.593  1.00  0.00    -0.219 NA
ATOM      6  C   UNL     1      12.780   1.726  31.820  1.00  0.00     0.224 A 
ATOM      7  N   UNL     1      13.737   1.668  30.890  1.00  0.00    -0.236 NA
ATOM      8  C   UNL     1      13.352   1.801  29.620  1.00  0.00     0.080 A 
ATOM      9  C   UNL     1      14.321   1.769  28.629  1.00  0.00     0.079 A 
ATOM     10  C   UNL     1      14.009   1.937  27.276  1.00  0.00     0.163 A 
ENDROOT
BRANCH   1  11
ATOM     11  O   UNL     1      12.430   2.208  25.536  1.00  0.00    -0.493 OA
ATOM     12  C   UNL     1      11.513   3.202  25.099  1.00  0.00     0.278 C 
ENDBRANCH   1  11
BRANCH  10  13
ATOM     13  O   UNL     1      15.091   1.862  26.437  1.00  0.00    -0.485 OA
BRANCH  13  14
ATOM     14  C   UNL     1      16.121   2.825  26.676  1.00  0.00     0.267 C 
BRANCH  14  15
ATOM     15  C   UNL     1      16.320   3.674  25.450  1.00  0.00     0.008 A 
ATOM     16  C   UNL     1      17.345   3.494  24.543  1.00  0.00     0.073 A 
ATOM     17  C   UNL     1      15.471   4.789  25.078  1.00  0.00     0.001 A 
ATOM     18  S   UNL     1      17.295   4.608  23.257  1.00  0.00    -0.143 S 
ATOM     19  C   UNL     1      14.328   5.333  25.719  1.00  0.00     0.030 A 
ATOM     20  C   UNL     1      15.899   5.387  23.887  1.00  0.00     0.035 A 
ATOM     21  C   UNL     1      13.660   6.427  25.162  1.00  0.00     0.041 A 
ATOM     22  C   UNL     1      15.224   6.490  23.327  1.00  0.00     0.021 A 
ATOM     23  C   UNL     1      14.100   7.001  23.979  1.00  0.00     0.022 A 
ATOM     24  Cl  UNL     1      12.273   7.067  25.957  1.00  0.00    -0.084 Cl
ENDBRANCH  14  15
ENDBRANCH  13  14
ENDBRANCH  10  13
BRANCH   4  25
ATOM     25  N   UNL     1       9.709   2.120  30.029  1.00  0.00    -0.340 N 
ATOM     26  H   UNL     1       9.516   2.104  29.037  1.00  0.00     0.168 HD
BRANCH  25  27
ATOM     27  C   UNL     1       8.589   1.889  30.849  1.00  0.00     0.041 A 
ATOM     28  C   UNL     1       7.857   2.987  31.322  1.00  0.00     0.028 A 
ATOM     29  C   UNL     1       8.199   0.609  31.265  1.00  0.00     0.048 A 
ATOM     30  C   UNL     1       6.752   2.811  32.161  1.00  0.00     0.024 A 
ATOM     31  C   UNL     1       7.093   0.425  32.104  1.00  0.00     0.061 A 
ATOM     32  C   UNL     1       6.365   1.529  32.551  1.00  0.00     0.059 A 
ATOM     33  Cl  UNL     1       6.687  -1.194  32.558  1.00  0.00    -0.083 Cl
ATOM     34  Cl  UNL     1       4.993   1.382  33.591  1.00  0.00    -0.083 Cl
ENDBRANCH  25  27
ENDBRANCH   4  25
TORSDOF 6
ENDMDL
