MODEL 6
REMARK VINA RESULT:    -6.274     14.564     17.858
REMARK INTER + INTRA:         -13.387
REMARK INTER:                 -11.957
REMARK INTRA:                  -1.430
REMARK UNBOUND:                -4.363
REMARK SMILES O=C(O)c1ccc(Cl)cc1-c1cccc2c1ccn2CCCOc1cccc2ccccc12
REMARK SMILES IDX 11 1 12 2 13 3 14 4 15 5 16 6 17 7 18 8 19 9 10 10 4 11 5 12
REMARK SMILES IDX 6 13 9 14 7 15 8 16 2 17 1 18 3 19 20 21 21 22 22 23 23 24
REMARK SMILES IDX 24 25 25 26 33 27 26 28 32 29 28 30 27 31 31 32 29 33 30 34
REMARK H PARENT 3 20
ROOT
ATOM      1  C   UNL     1      37.558  11.816 -47.184  1.00  0.00    -0.008 A 
ATOM      2  C   UNL     1      37.373  13.107 -46.656  1.00  0.00     0.009 A 
ATOM      3  C   UNL     1      38.423  13.794 -46.054  1.00  0.00     0.003 A 
ATOM      4  C   UNL     1      39.692  13.220 -45.957  1.00  0.00     0.027 A 
ATOM      5  C   UNL     1      39.881  11.931 -46.481  1.00  0.00     0.049 A 
ATOM      6  C   UNL     1      38.840  11.216 -47.087  1.00  0.00     0.007 A 
ATOM      7  C   UNL     1      39.379   9.956 -47.480  1.00  0.00     0.029 A 
ATOM      8  C   UNL     1      40.707   9.932 -47.125  1.00  0.00     0.087 A 
ATOM      9  N   UNL     1      41.007  11.133 -46.539  1.00  0.00    -0.347 N 
ENDROOT
BRANCH   1  10
ATOM     10  C   UNL     1      36.455  11.076 -47.805  1.00  0.00    -0.002 A 
ATOM     11  C   UNL     1      36.219  11.061 -49.195  1.00  0.00     0.067 A 
ATOM     12  C   UNL     1      35.172  10.291 -49.733  1.00  0.00     0.018 A 
ATOM     13  C   UNL     1      34.349   9.537 -48.895  1.00  0.00     0.021 A 
ATOM     14  C   UNL     1      35.608  10.310 -46.979  1.00  0.00     0.030 A 
ATOM     15  C   UNL     1      34.570   9.552 -47.521  1.00  0.00     0.041 A 
ATOM     16  Cl  UNL     1      33.557   8.625 -46.485  1.00  0.00    -0.084 Cl
BRANCH  11  17
ATOM     17  C   UNL     1      37.038  11.879 -50.123  1.00  0.00     0.336 C 
ATOM     18  O   UNL     1      38.058  11.553 -50.695  1.00  0.00    -0.246 OA
BRANCH  17  19
ATOM     19  O   UNL     1      36.507  13.108 -50.276  1.00  0.00    -0.478 OA
ATOM     20  H   UNL     1      37.271  13.652 -50.562  1.00  0.00     0.297 HD
ENDBRANCH  17  19
ENDBRANCH  11  17
ENDBRANCH   1  10
BRANCH   9  21
ATOM     21  C   UNL     1      42.326  11.491 -46.043  1.00  0.00     0.125 C 
BRANCH  21  22
ATOM     22  C   UNL     1      43.047  12.521 -46.915  1.00  0.00     0.063 C 
BRANCH  22  23
ATOM     23  C   UNL     1      43.509  13.760 -46.146  1.00  0.00     0.231 C 
BRANCH  23  24
ATOM     24  O   UNL     1      44.150  13.422 -44.918  1.00  0.00    -0.493 OA
BRANCH  24  25
ATOM     25  C   UNL     1      45.074  14.277 -44.370  1.00  0.00     0.127 A 
ATOM     26  C   UNL     1      46.241  14.693 -45.016  1.00  0.00     0.047 A 
ATOM     27  C   UNL     1      44.791  14.730 -43.054  1.00  0.00     0.024 A 
ATOM     28  C   UNL     1      47.125  15.566 -44.382  1.00  0.00     0.004 A 
ATOM     29  C   UNL     1      43.638  14.341 -42.339  1.00  0.00     0.012 A 
ATOM     30  C   UNL     1      45.696  15.619 -42.421  1.00  0.00    -0.015 A 
ATOM     31  C   UNL     1      46.853  16.027 -43.097  1.00  0.00     0.009 A 
ATOM     32  C   UNL     1      43.382  14.810 -41.049  1.00  0.00     0.001 A 
ATOM     33  C   UNL     1      45.426  16.083 -41.123  1.00  0.00     0.009 A 
ATOM     34  C   UNL     1      44.277  15.682 -40.441  1.00  0.00     0.001 A 
ENDBRANCH  24  25
ENDBRANCH  23  24
ENDBRANCH  22  23
ENDBRANCH  21  22
ENDBRANCH   9  21
TORSDOF 8
ENDMDL
