MODEL 2
REMARK VINA RESULT:    -6.438     16.476     19.164
REMARK INTER + INTRA:         -13.624
REMARK INTER:                  -9.330
REMARK INTRA:                  -4.294
REMARK UNBOUND:                -4.363
REMARK SMILES O=C(O)c1ccc(Cl)cc1-c1cccc2c1ccn2CCCOc1cccc2ccccc12
REMARK SMILES IDX 11 1 12 2 13 3 14 4 15 5 16 6 17 7 18 8 19 9 10 10 4 11 5 12
REMARK SMILES IDX 6 13 9 14 7 15 8 16 2 17 1 18 3 19 20 21 21 22 22 23 23 24
REMARK SMILES IDX 24 25 25 26 33 27 26 28 32 29 28 30 27 31 31 32 29 33 30 34
REMARK H PARENT 3 20
ROOT
ATOM      1  C   UNL     1      44.293  13.865 -46.436  1.00  0.00    -0.008 A 
ATOM      2  C   UNL     1      44.866  12.648 -46.848  1.00  0.00     0.009 A 
ATOM      3  C   UNL     1      44.483  12.040 -48.039  1.00  0.00     0.003 A 
ATOM      4  C   UNL     1      43.516  12.622 -48.861  1.00  0.00     0.027 A 
ATOM      5  C   UNL     1      42.940  13.836 -48.454  1.00  0.00     0.049 A 
ATOM      6  C   UNL     1      43.304  14.466 -47.258  1.00  0.00     0.007 A 
ATOM      7  C   UNL     1      42.515  15.649 -47.157  1.00  0.00     0.029 A 
ATOM      8  C   UNL     1      41.713  15.722 -48.272  1.00  0.00     0.087 A 
ATOM      9  N   UNL     1      41.988  14.634 -49.058  1.00  0.00    -0.347 N 
ENDROOT
BRANCH   1  10
ATOM     10  C   UNL     1      44.677  14.507 -45.175  1.00  0.00    -0.002 A 
ATOM     11  C   UNL     1      45.669  15.505 -45.085  1.00  0.00     0.067 A 
ATOM     12  C   UNL     1      45.956  16.116 -43.851  1.00  0.00     0.018 A 
ATOM     13  C   UNL     1      45.267  15.736 -42.699  1.00  0.00     0.021 A 
ATOM     14  C   UNL     1      43.998  14.137 -43.997  1.00  0.00     0.030 A 
ATOM     15  C   UNL     1      44.292  14.746 -42.777  1.00  0.00     0.041 A 
ATOM     16  Cl  UNL     1      43.442  14.273 -41.358  1.00  0.00    -0.084 Cl
BRANCH  11  17
ATOM     17  C   UNL     1      46.459  15.913 -46.272  1.00  0.00     0.336 C 
ATOM     18  O   UNL     1      47.504  15.436 -46.666  1.00  0.00    -0.246 OA
BRANCH  17  19
ATOM     19  O   UNL     1      45.868  16.940 -46.913  1.00  0.00    -0.478 OA
ATOM     20  H   UNL     1      44.922  16.846 -46.669  1.00  0.00     0.297 HD
ENDBRANCH  17  19
ENDBRANCH  11  17
ENDBRANCH   1  10
BRANCH   9  21
ATOM     21  C   UNL     1      41.346  14.369 -50.336  1.00  0.00     0.125 C 
BRANCH  21  22
ATOM     22  C   UNL     1      40.465  13.118 -50.327  1.00  0.00     0.063 C 
BRANCH  22  23
ATOM     23  C   UNL     1      39.258  13.224 -49.391  1.00  0.00     0.231 C 
BRANCH  23  24
ATOM     24  O   UNL     1      39.112  12.067 -48.571  1.00  0.00    -0.493 OA
BRANCH  24  25
ATOM     25  C   UNL     1      39.896  11.916 -47.453  1.00  0.00     0.127 A 
ATOM     26  C   UNL     1      39.857  12.766 -46.345  1.00  0.00     0.047 A 
ATOM     27  C   UNL     1      40.798  10.820 -47.475  1.00  0.00     0.024 A 
ATOM     28  C   UNL     1      40.690  12.537 -45.251  1.00  0.00     0.004 A 
ATOM     29  C   UNL     1      40.897   9.929 -48.566  1.00  0.00     0.012 A 
ATOM     30  C   UNL     1      41.639  10.595 -46.357  1.00  0.00    -0.015 A 
ATOM     31  C   UNL     1      41.571  11.459 -45.256  1.00  0.00     0.009 A 
ATOM     32  C   UNL     1      41.789   8.855 -48.556  1.00  0.00     0.001 A 
ATOM     33  C   UNL     1      42.531   9.511 -46.360  1.00  0.00     0.009 A 
ATOM     34  C   UNL     1      42.606   8.646 -47.452  1.00  0.00     0.001 A 
ENDBRANCH  24  25
ENDBRANCH  23  24
ENDBRANCH  22  23
ENDBRANCH  21  22
ENDBRANCH   9  21
TORSDOF 8
ENDMDL
