REMARK SMILES CN(c1ncnc2[nH]ccc12)[C@H]1C[C@@H](CS(=O)(=O)N2CC3(COC3)C2)C1
REMARK SMILES IDX 12 1 13 2 14 3 26 4 2 5 1 6 3 7 4 8 11 9 5 10 10 11 7 12
REMARK SMILES IDX 6 13 9 14 8 15 15 17 16 18 17 19 18 20 19 21 20 22 25 23
REMARK SMILES IDX 21 24 22 25 24 26 23 27
REMARK H PARENT 8 16
REMARK INDEX MAP 12 1 13 2 14 3 26 4 2 5 1 6 3 7 4 8 11 9 5 10 10 11 7 12 6 13
REMARK INDEX MAP 9 14 8 15 31 16 15 17 16 18 17 19 18 20 19 21 20 22 25 23
REMARK INDEX MAP 21 24 22 25 24 26 23 27
ROOT
ATOM      1  C   UNL     1      -3.713  25.665 -28.133  1.00  0.00     0.084 C 
ATOM      2  C   UNL     1      -2.260  25.862 -27.616  1.00  0.00     0.029 C 
ATOM      3  C   UNL     1      -2.599  24.850 -26.491  1.00  0.00     0.009 C 
ATOM      4  C   UNL     1      -3.652  24.264 -27.465  1.00  0.00     0.029 C 
ENDROOT
BRANCH   1   5
ATOM      5  N   UNL     1      -3.811  25.639 -29.573  1.00  0.00    -0.356 N 
ATOM      6  C   UNL     1      -2.947  24.710 -30.295  1.00  0.00     0.145 C 
BRANCH   5   7
ATOM      7  C   UNL     1      -4.341  26.710 -30.324  1.00  0.00     0.141 A 
ATOM      8  N   UNL     1      -4.071  27.976 -29.890  1.00  0.00    -0.219 NA
ATOM      9  C   UNL     1      -5.145  26.597 -31.487  1.00  0.00     0.061 A 
ATOM     10  C   UNL     1      -4.532  29.036 -30.578  1.00  0.00     0.226 A 
ATOM     11  C   UNL     1      -5.718  25.550 -32.275  1.00  0.00     0.033 A 
ATOM     12  C   UNL     1      -5.556  27.783 -32.082  1.00  0.00     0.142 A 
ATOM     13  N   UNL     1      -5.281  29.033 -31.688  1.00  0.00    -0.218 NA
ATOM     14  C   UNL     1      -6.428  26.124 -33.310  1.00  0.00     0.085 A 
ATOM     15  N   UNL     1      -6.316  27.483 -33.180  1.00  0.00    -0.346 N 
ATOM     16  H   UNL     1      -6.740  28.175 -33.814  1.00  0.00     0.167 HD
ENDBRANCH   5   7
ENDBRANCH   1   5
BRANCH   3  17
ATOM     17  C   UNL     1      -1.521  23.875 -26.056  1.00  0.00     0.158 C 
BRANCH  17  18
ATOM     18  S   UNL     1      -0.980  24.247 -24.393  1.00  0.00     0.214 S 
ATOM     19  O   UNL     1      -0.468  23.039 -23.780  1.00  0.00    -0.212 OA
ATOM     20  O   UNL     1      -1.980  25.062 -23.736  1.00  0.00    -0.212 OA
BRANCH  18  21
ATOM     21  N   UNL     1       0.347  25.244 -24.715  1.00  0.00    -0.200 NA
ATOM     22  C   UNL     1       1.183  25.207 -25.969  1.00  0.00     0.115 C 
ATOM     23  C   UNL     1       0.243  26.742 -24.850  1.00  0.00     0.115 C 
ATOM     24  C   UNL     1       1.348  26.690 -25.859  1.00  0.00     0.045 C 
ATOM     25  C   UNL     1       2.681  27.266 -25.520  1.00  0.00     0.172 C 
ATOM     26  C   UNL     1       1.318  27.562 -27.062  1.00  0.00     0.172 C 
ATOM     27  O   UNL     1       2.598  28.151 -26.679  1.00  0.00    -0.380 OA
ENDBRANCH  18  21
ENDBRANCH  17  18
ENDBRANCH   3  17
TORSDOF 5
