REMARK VINA RESULT:   -12.170      0.000      0.000
REMARK INTER + INTRA:         -17.399
REMARK INTER:                 -16.794
REMARK INTRA:                  -0.605
REMARK UNBOUND:                -0.605
REMARK SMILES Nc1ccc2oc(C(=O)NCCC3CCN(Cc4ccccc4)CC3)cc(=O)c2c1
REMARK SMILES IDX 11 1 10 2 8 3 9 4 7 6 2 7 3 8 30 9 4 10 29 11 5 12 27 13
REMARK SMILES IDX 6 14 26 15 28 16 1 17 12 20 13 21 14 22 25 23 15 24 24 25
REMARK SMILES IDX 16 26 17 27 18 28 19 29 23 30 20 31 22 32 21 33
REMARK H PARENT 10 5 1 18 1 19
ROOT
ATOM      1  C   UNL     1     -13.702 -43.876  26.541  1.00  0.00     0.116 C 
ENDROOT
BRANCH   1   2
ATOM      2  N   UNL     1     -14.997 -43.333  26.185  1.00  0.00    -0.349 N 
ATOM      3  C   UNL     1     -15.418 -43.236  24.881  1.00  0.00     0.287 C 
ATOM      4  O   UNL     1     -14.746 -43.584  23.917  1.00  0.00    -0.266 OA
ATOM      5  H   UNL     1     -15.622 -43.032  26.922  1.00  0.00     0.163 HD
BRANCH   3   6
ATOM      6  C   UNL     1     -16.794 -42.660  24.742  1.00  0.00     0.195 A 
ATOM      7  C   UNL     1     -21.382 -40.855  25.657  1.00  0.00     0.032 A 
ATOM      8  C   UNL     1     -20.801 -41.179  26.886  1.00  0.00     0.029 A 
ATOM      9  C   UNL     1     -20.648 -41.061  24.487  1.00  0.00     0.041 A 
ATOM     10  C   UNL     1     -19.509 -41.714  26.952  1.00  0.00     0.050 A 
ATOM     11  C   UNL     1     -19.357 -41.596  24.554  1.00  0.00     0.067 A 
ATOM     12  C   UNL     1     -18.787 -41.922  25.779  1.00  0.00     0.139 A 
ATOM     13  C   UNL     1     -18.574 -41.820  23.329  1.00  0.00     0.193 A 
ATOM     14  O   UNL     1     -17.527 -42.449  25.901  1.00  0.00    -0.451 OA
ATOM     15  C   UNL     1     -17.229 -42.385  23.504  1.00  0.00     0.105 A 
ATOM     16  O   UNL     1     -19.009 -41.554  22.217  1.00  0.00    -0.289 OA
BRANCH   7  17
ATOM     17  N   UNL     1     -22.651 -40.312  25.602  1.00  0.00    -0.399 N 
ATOM     18  H   UNL     1     -23.365 -40.714  25.011  1.00  0.00     0.156 HD
ATOM     19  H   UNL     1     -22.865 -39.452  26.092  1.00  0.00     0.156 HD
ENDBRANCH   7  17
ENDBRANCH   3   6
ENDBRANCH   1   2
BRANCH   1  20
ATOM     20  C   UNL     1     -13.724 -45.403  26.549  1.00  0.00     0.025 C 
BRANCH  20  21
ATOM     21  C   UNL     1     -13.068 -46.019  27.797  1.00  0.00    -0.007 C 
ATOM     22  C   UNL     1     -11.537 -46.062  27.703  1.00  0.00     0.019 C 
ATOM     23  C   UNL     1     -13.478 -45.231  29.049  1.00  0.00     0.019 C 
ATOM     24  C   UNL     1     -10.907 -46.557  29.007  1.00  0.00     0.085 C 
ATOM     25  C   UNL     1     -12.782 -45.757  30.305  1.00  0.00     0.085 C 
ATOM     26  N   UNL     1     -11.319 -45.729  30.148  1.00  0.00    -0.299 NA
BRANCH  26  27
ATOM     27  C   UNL     1     -10.640 -46.191  31.375  1.00  0.00     0.120 C 
BRANCH  27  28
ATOM     28  C   UNL     1      -9.468 -45.323  31.783  1.00  0.00    -0.034 A 
ATOM     29  C   UNL     1      -9.679 -44.041  32.311  1.00  0.00     0.005 A 
ATOM     30  C   UNL     1      -8.152 -45.778  31.615  1.00  0.00     0.005 A 
ATOM     31  C   UNL     1      -8.599 -43.234  32.672  1.00  0.00     0.000 A 
ATOM     32  C   UNL     1      -7.072 -44.968  31.976  1.00  0.00     0.000 A 
ATOM     33  C   UNL     1      -7.296 -43.698  32.504  1.00  0.00     0.000 A 
ENDBRANCH  27  28
ENDBRANCH  26  27
ENDBRANCH  20  21
ENDBRANCH   1  20
TORSDOF 7
