MODEL 1
REMARK VINA RESULT:   -10.699      0.000      0.000
REMARK INTER + INTRA:         -16.056
REMARK INTER:                 -14.764
REMARK INTRA:                  -1.292
REMARK UNBOUND:                -1.292
REMARK SMILES C=CC(=O)N[C@H]1CC[C@@H](n2nc(-c3ccc(Oc4ccccc4)cc3)c3c(N)ncnc32)CC1
REMARK SMILES IDX 10 1 11 2 12 3 26 4 27 5 29 6 30 7 31 8 32 9 9 10 6 11 7 12
REMARK SMILES IDX 34 13 8 14 33 15 5 16 3 17 4 18 2 20 1 21 13 22 14 23 25 24
REMARK SMILES IDX 15 25 24 26 16 27 17 28 18 29 19 30 23 31 20 32 22 33 21 34
REMARK SMILES IDX 28 35
REMARK H PARENT 5 19 28 36 28 37
ROOT
ATOM      1  N   UNL     1      20.143  34.142  13.728  1.00  0.00    -0.243 N 
ATOM      2  N   UNL     1      19.996  33.721  12.452  1.00  0.00    -0.170 NA
ATOM      3  C   UNL     1      18.664  33.676  12.272  1.00  0.00     0.106 A 
ATOM      4  C   UNL     1      17.962  34.023  13.464  1.00  0.00     0.089 A 
ATOM      5  C   UNL     1      16.641  34.117  13.918  1.00  0.00     0.138 A 
ATOM      6  N   UNL     1      16.422  34.532  15.185  1.00  0.00    -0.219 NA
ATOM      7  C   UNL     1      17.482  34.819  15.964  1.00  0.00     0.226 A 
ATOM      8  N   UNL     1      18.785  34.744  15.647  1.00  0.00    -0.217 NA
ATOM      9  C   UNL     1      18.955  34.336  14.377  1.00  0.00     0.164 A 
ENDROOT
BRANCH   1  10
ATOM     10  C   UNL     1      21.477  34.354  14.279  1.00  0.00     0.110 C 
ATOM     11  C   UNL     1      24.443  34.083  14.195  1.00  0.00     0.082 C 
ATOM     12  C   UNL     1      23.745  35.414  13.882  1.00  0.00     0.027 C 
ATOM     13  C   UNL     1      23.587  33.227  15.136  1.00  0.00     0.027 C 
ATOM     14  C   UNL     1      22.332  35.213  13.335  1.00  0.00     0.029 C 
ATOM     15  C   UNL     1      22.162  33.022  14.622  1.00  0.00     0.029 C 
BRANCH  11  16
ATOM     16  N   UNL     1      24.752  33.362  12.969  1.00  0.00    -0.350 N 
ATOM     17  C   UNL     1      25.924  32.672  12.807  1.00  0.00     0.243 C 
ATOM     18  O   UNL     1      26.767  32.518  13.681  1.00  0.00    -0.270 OA
ATOM     19  H   UNL     1      24.099  33.402  12.198  1.00  0.00     0.164 HD
BRANCH  17  20
ATOM     20  C   UNL     1      26.117  32.047  11.473  1.00  0.00     0.063 C 
ATOM     21  C   UNL     1      27.227  31.416  11.065  1.00  0.00     0.014 C 
ENDBRANCH  17  20
ENDBRANCH  11  16
ENDBRANCH   1  10
BRANCH   3  22
ATOM     22  C   UNL     1      18.115  33.305  10.973  1.00  0.00     0.003 A 
ATOM     23  C   UNL     1      18.506  32.105  10.363  1.00  0.00     0.014 A 
ATOM     24  C   UNL     1      17.214  34.151  10.312  1.00  0.00     0.014 A 
ATOM     25  C   UNL     1      17.979  31.741   9.122  1.00  0.00     0.048 A 
ATOM     26  C   UNL     1      16.687  33.788   9.071  1.00  0.00     0.048 A 
ATOM     27  C   UNL     1      17.055  32.573   8.488  1.00  0.00     0.127 A 
BRANCH  27  28
ATOM     28  O   UNL     1      16.602  32.171   7.251  1.00  0.00    -0.457 OA
BRANCH  28  29
ATOM     29  C   UNL     1      15.984  30.943   7.179  1.00  0.00     0.127 A 
ATOM     30  C   UNL     1      14.721  30.830   7.758  1.00  0.00     0.047 A 
ATOM     31  C   UNL     1      16.547  29.862   6.495  1.00  0.00     0.047 A 
ATOM     32  C   UNL     1      14.032  29.618   7.690  1.00  0.00     0.004 A 
ATOM     33  C   UNL     1      15.856  28.652   6.429  1.00  0.00     0.004 A 
ATOM     34  C   UNL     1      14.603  28.530   7.028  1.00  0.00     0.000 A 
ENDBRANCH  28  29
ENDBRANCH  27  28
ENDBRANCH   3  22
BRANCH   5  35
ATOM     35  N   UNL     1      15.528  33.798  13.179  1.00  0.00    -0.383 N 
ATOM     36  H   UNL     1      14.740  33.309  13.572  1.00  0.00     0.158 HD
ATOM     37  H   UNL     1      15.482  34.186  12.247  1.00  0.00     0.158 HD
ENDBRANCH   5  35
TORSDOF 7
ENDMDL
MODEL 2
REMARK VINA RESULT:   -10.667      2.685      3.348
REMARK INTER + INTRA:         -16.012
REMARK INTER:                 -14.799
REMARK INTRA:                  -1.213
REMARK UNBOUND:                -1.292
REMARK SMILES C=CC(=O)N[C@H]1CC[C@@H](n2nc(-c3ccc(Oc4ccccc4)cc3)c3c(N)ncnc32)CC1
REMARK SMILES IDX 10 1 11 2 12 3 26 4 27 5 29 6 30 7 31 8 32 9 9 10 6 11 7 12
REMARK SMILES IDX 34 13 8 14 33 15 5 16 3 17 4 18 2 20 1 21 13 22 14 23 25 24
REMARK SMILES IDX 15 25 24 26 16 27 17 28 18 29 19 30 23 31 20 32 22 33 21 34
REMARK SMILES IDX 28 35
REMARK H PARENT 5 19 28 36 28 37
ROOT
ATOM      1  N   UNL     1      17.679  34.526  15.081  1.00  0.00    -0.243 N 
ATOM      2  N   UNL     1      17.872  34.167  13.793  1.00  0.00    -0.170 NA
ATOM      3  C   UNL     1      16.629  33.975  13.315  1.00  0.00     0.106 A 
ATOM      4  C   UNL     1      15.643  34.165  14.329  1.00  0.00     0.089 A 
ATOM      5  C   UNL     1      14.254  34.074  14.476  1.00  0.00     0.138 A 
ATOM      6  N   UNL     1      13.710  34.384  15.673  1.00  0.00    -0.219 NA
ATOM      7  C   UNL     1      14.527  34.749  16.679  1.00  0.00     0.226 A 
ATOM      8  N   UNL     1      15.866  34.848  16.662  1.00  0.00    -0.217 NA
ATOM      9  C   UNL     1      16.362  34.539  15.451  1.00  0.00     0.164 A 
ENDROOT
BRANCH   1  10
ATOM     10  C   UNL     1      18.821  34.862  15.925  1.00  0.00     0.110 C 
ATOM     11  C   UNL     1      21.640  35.737  16.329  1.00  0.00     0.082 C 
ATOM     12  C   UNL     1      20.458  36.684  16.578  1.00  0.00     0.027 C 
ATOM     13  C   UNL     1      21.219  34.275  16.526  1.00  0.00     0.027 C 
ATOM     14  C   UNL     1      19.240  36.326  15.726  1.00  0.00     0.029 C 
ATOM     15  C   UNL     1      19.992  33.893  15.698  1.00  0.00     0.029 C 
BRANCH  11  16
ATOM     16  N   UNL     1      22.196  35.945  15.000  1.00  0.00    -0.350 N 
ATOM     17  C   UNL     1      23.288  36.744  14.786  1.00  0.00     0.243 C 
ATOM     18  O   UNL     1      23.945  37.275  15.672  1.00  0.00    -0.270 OA
ATOM     19  H   UNL     1      21.741  35.518  14.205  1.00  0.00     0.164 HD
BRANCH  17  20
ATOM     20  C   UNL     1      23.691  36.907  13.366  1.00  0.00     0.063 C 
ATOM     21  C   UNL     1      23.197  37.820  12.518  1.00  0.00     0.014 C 
ENDBRANCH  17  20
ENDBRANCH  11  16
ENDBRANCH   1  10
BRANCH   3  22
ATOM     22  C   UNL     1      16.432  33.618  11.915  1.00  0.00     0.003 A 
ATOM     23  C   UNL     1      16.652  34.570  10.911  1.00  0.00     0.014 A 
ATOM     24  C   UNL     1      15.998  32.332  11.562  1.00  0.00     0.014 A 
ATOM     25  C   UNL     1      16.470  34.232   9.568  1.00  0.00     0.048 A 
ATOM     26  C   UNL     1      15.817  31.994  10.219  1.00  0.00     0.048 A 
ATOM     27  C   UNL     1      16.074  32.940   9.223  1.00  0.00     0.127 A 
BRANCH  27  28
ATOM     28  O   UNL     1      15.879  32.684   7.884  1.00  0.00    -0.457 OA
BRANCH  28  29
ATOM     29  C   UNL     1      15.807  31.363   7.503  1.00  0.00     0.127 A 
ATOM     30  C   UNL     1      17.007  30.722   7.198  1.00  0.00     0.047 A 
ATOM     31  C   UNL     1      14.603  30.654   7.485  1.00  0.00     0.047 A 
ATOM     32  C   UNL     1      17.001  29.375   6.834  1.00  0.00     0.004 A 
ATOM     33  C   UNL     1      14.601  29.307   7.121  1.00  0.00     0.004 A 
ATOM     34  C   UNL     1      15.797  28.670   6.792  1.00  0.00     0.000 A 
ENDBRANCH  28  29
ENDBRANCH  27  28
ENDBRANCH   3  22
BRANCH   5  35
ATOM     35  N   UNL     1      13.382  33.669  13.495  1.00  0.00    -0.383 N 
ATOM     36  H   UNL     1      12.407  33.925  13.500  1.00  0.00     0.158 HD
ATOM     37  H   UNL     1      13.788  33.203  12.697  1.00  0.00     0.158 HD
ENDBRANCH   5  35
TORSDOF 7
ENDMDL
MODEL 3
REMARK VINA RESULT:    -9.911      4.205     10.242
REMARK INTER + INTRA:         -14.969
REMARK INTER:                 -14.563
REMARK INTRA:                  -0.406
REMARK UNBOUND:                -1.292
REMARK SMILES C=CC(=O)N[C@H]1CC[C@@H](n2nc(-c3ccc(Oc4ccccc4)cc3)c3c(N)ncnc32)CC1
REMARK SMILES IDX 10 1 11 2 12 3 26 4 27 5 29 6 30 7 31 8 32 9 9 10 6 11 7 12
REMARK SMILES IDX 34 13 8 14 33 15 5 16 3 17 4 18 2 20 1 21 13 22 14 23 25 24
REMARK SMILES IDX 15 25 24 26 16 27 17 28 18 29 19 30 23 31 20 32 22 33 21 34
REMARK SMILES IDX 28 35
REMARK H PARENT 5 19 28 36 28 37
ROOT
ATOM      1  N   UNL     1      17.030  34.268  13.119  1.00  0.00    -0.243 N 
ATOM      2  N   UNL     1      17.880  34.732  14.060  1.00  0.00    -0.170 NA
ATOM      3  C   UNL     1      17.134  34.786  15.179  1.00  0.00     0.106 A 
ATOM      4  C   UNL     1      15.784  34.400  14.927  1.00  0.00     0.089 A 
ATOM      5  C   UNL     1      14.573  34.293  15.622  1.00  0.00     0.138 A 
ATOM      6  N   UNL     1      13.488  33.836  14.960  1.00  0.00    -0.219 NA
ATOM      7  C   UNL     1      13.611  33.520  13.657  1.00  0.00     0.226 A 
ATOM      8  N   UNL     1      14.707  33.604  12.886  1.00  0.00    -0.217 NA
ATOM      9  C   UNL     1      15.762  34.055  13.586  1.00  0.00     0.164 A 
ENDROOT
BRANCH   1  10
ATOM     10  C   UNL     1      17.503  34.035  11.758  1.00  0.00     0.110 C 
ATOM     11  C   UNL     1      17.332  32.719   9.091  1.00  0.00     0.082 C 
ATOM     12  C   UNL     1      16.910  34.180   9.298  1.00  0.00     0.027 C 
ATOM     13  C   UNL     1      18.390  32.306  10.121  1.00  0.00     0.027 C 
ATOM     14  C   UNL     1      16.442  34.450  10.728  1.00  0.00     0.029 C 
ATOM     15  C   UNL     1      17.957  32.581  11.562  1.00  0.00     0.029 C 
BRANCH  11  16
ATOM     16  N   UNL     1      16.178  31.835   9.146  1.00  0.00    -0.350 N 
ATOM     17  C   UNL     1      15.676  31.223   8.028  1.00  0.00     0.243 C 
ATOM     18  O   UNL     1      16.186  31.281   6.916  1.00  0.00    -0.270 OA
ATOM     19  H   UNL     1      15.707  31.697  10.030  1.00  0.00     0.164 HD
BRANCH  17  20
ATOM     20  C   UNL     1      14.453  30.407   8.240  1.00  0.00     0.063 C 
ATOM     21  C   UNL     1      14.241  29.182   7.741  1.00  0.00     0.014 C 
ENDBRANCH  17  20
ENDBRANCH  11  16
ENDBRANCH   1  10
BRANCH   3  22
ATOM     22  C   UNL     1      17.738  35.202  16.439  1.00  0.00     0.003 A 
ATOM     23  C   UNL     1      18.524  36.362  16.492  1.00  0.00     0.014 A 
ATOM     24  C   UNL     1      17.559  34.438  17.601  1.00  0.00     0.014 A 
ATOM     25  C   UNL     1      19.099  36.768  17.698  1.00  0.00     0.048 A 
ATOM     26  C   UNL     1      18.134  34.845  18.808  1.00  0.00     0.048 A 
ATOM     27  C   UNL     1      18.886  36.022  18.857  1.00  0.00     0.127 A 
BRANCH  27  28
ATOM     28  O   UNL     1      19.511  36.459  20.003  1.00  0.00    -0.457 OA
BRANCH  28  29
ATOM     29  C   UNL     1      19.069  37.645  20.544  1.00  0.00     0.127 A 
ATOM     30  C   UNL     1      19.920  38.297  21.435  1.00  0.00     0.047 A 
ATOM     31  C   UNL     1      17.853  38.228  20.175  1.00  0.00     0.047 A 
ATOM     32  C   UNL     1      19.540  39.518  21.993  1.00  0.00     0.004 A 
ATOM     33  C   UNL     1      17.476  39.449  20.734  1.00  0.00     0.004 A 
ATOM     34  C   UNL     1      18.316  40.091  21.644  1.00  0.00     0.000 A 
ENDBRANCH  28  29
ENDBRANCH  27  28
ENDBRANCH   3  22
BRANCH   5  35
ATOM     35  N   UNL     1      14.386  34.639  16.938  1.00  0.00    -0.383 N 
ATOM     36  H   UNL     1      13.476  34.847  17.317  1.00  0.00     0.158 HD
ATOM     37  H   UNL     1      15.190  34.556  17.543  1.00  0.00     0.158 HD
ENDBRANCH   5  35
TORSDOF 7
ENDMDL
MODEL 4
REMARK VINA RESULT:    -9.690      2.095      2.268
REMARK INTER + INTRA:         -14.664
REMARK INTER:                 -13.453
REMARK INTRA:                  -1.211
REMARK UNBOUND:                -1.292
REMARK SMILES C=CC(=O)N[C@H]1CC[C@@H](n2nc(-c3ccc(Oc4ccccc4)cc3)c3c(N)ncnc32)CC1
REMARK SMILES IDX 10 1 11 2 12 3 26 4 27 5 29 6 30 7 31 8 32 9 9 10 6 11 7 12
REMARK SMILES IDX 34 13 8 14 33 15 5 16 3 17 4 18 2 20 1 21 13 22 14 23 25 24
REMARK SMILES IDX 15 25 24 26 16 27 17 28 18 29 19 30 23 31 20 32 22 33 21 34
REMARK SMILES IDX 28 35
REMARK H PARENT 5 19 28 36 28 37
ROOT
ATOM      1  N   UNL     1      19.045  34.393  14.664  1.00  0.00    -0.243 N 
ATOM      2  N   UNL     1      18.946  34.020  13.369  1.00  0.00    -0.170 NA
ATOM      3  C   UNL     1      17.622  33.980  13.139  1.00  0.00     0.106 A 
ATOM      4  C   UNL     1      16.876  34.282  14.317  1.00  0.00     0.089 A 
ATOM      5  C   UNL     1      15.539  34.357  14.727  1.00  0.00     0.138 A 
ATOM      6  N   UNL     1      15.274  34.724  15.999  1.00  0.00    -0.219 NA
ATOM      7  C   UNL     1      16.304  34.983  16.826  1.00  0.00     0.226 A 
ATOM      8  N   UNL     1      17.618  34.921  16.554  1.00  0.00    -0.217 NA
ATOM      9  C   UNL     1      17.835  34.561  15.277  1.00  0.00     0.164 A 
ENDROOT
BRANCH   1  10
ATOM     10  C   UNL     1      20.359  34.586  15.270  1.00  0.00     0.110 C 
ATOM     11  C   UNL     1      23.201  35.475  15.189  1.00  0.00     0.082 C 
ATOM     12  C   UNL     1      22.121  36.290  15.915  1.00  0.00     0.027 C 
ATOM     13  C   UNL     1      22.826  33.989  15.144  1.00  0.00     0.027 C 
ATOM     14  C   UNL     1      20.732  36.075  15.314  1.00  0.00     0.029 C 
ATOM     15  C   UNL     1      21.433  33.744  14.563  1.00  0.00     0.029 C 
BRANCH  11  16
ATOM     16  N   UNL     1      23.426  35.997  13.849  1.00  0.00    -0.350 N 
ATOM     17  C   UNL     1      24.663  36.409  13.427  1.00  0.00     0.243 C 
ATOM     18  O   UNL     1      25.693  36.299  14.081  1.00  0.00    -0.270 OA
ATOM     19  H   UNL     1      22.640  36.094  13.221  1.00  0.00     0.164 HD
BRANCH  17  20
ATOM     20  C   UNL     1      24.713  36.978  12.056  1.00  0.00     0.063 C 
ATOM     21  C   UNL     1      23.990  36.553  11.012  1.00  0.00     0.014 C 
ENDBRANCH  17  20
ENDBRANCH  11  16
ENDBRANCH   1  10
BRANCH   3  22
ATOM     22  C   UNL     1      17.121  33.657  11.808  1.00  0.00     0.003 A 
ATOM     23  C   UNL     1      16.318  32.524  11.617  1.00  0.00     0.014 A 
ATOM     24  C   UNL     1      17.455  34.458  10.708  1.00  0.00     0.014 A 
ATOM     25  C   UNL     1      15.831  32.212  10.345  1.00  0.00     0.048 A 
ATOM     26  C   UNL     1      16.967  34.147   9.436  1.00  0.00     0.048 A 
ATOM     27  C   UNL     1      16.138  33.036   9.262  1.00  0.00     0.127 A 
BRANCH  27  28
ATOM     28  O   UNL     1      15.655  32.652   8.031  1.00  0.00    -0.457 OA
BRANCH  28  29
ATOM     29  C   UNL     1      15.811  31.330   7.681  1.00  0.00     0.127 A 
ATOM     30  C   UNL     1      14.667  30.533   7.672  1.00  0.00     0.047 A 
ATOM     31  C   UNL     1      17.042  30.803   7.278  1.00  0.00     0.047 A 
ATOM     32  C   UNL     1      14.757  29.193   7.297  1.00  0.00     0.004 A 
ATOM     33  C   UNL     1      17.128  29.462   6.903  1.00  0.00     0.004 A 
ATOM     34  C   UNL     1      15.989  28.658   6.916  1.00  0.00     0.000 A 
ENDBRANCH  28  29
ENDBRANCH  27  28
ENDBRANCH   3  22
BRANCH   5  35
ATOM     35  N   UNL     1      14.455  34.065  13.936  1.00  0.00    -0.383 N 
ATOM     36  H   UNL     1      13.598  34.593  13.977  1.00  0.00     0.158 HD
ATOM     37  H   UNL     1      14.597  33.368  13.218  1.00  0.00     0.158 HD
ENDBRANCH   5  35
TORSDOF 7
ENDMDL
MODEL 5
REMARK VINA RESULT:    -9.428      3.392      9.745
REMARK INTER + INTRA:         -14.303
REMARK INTER:                 -13.881
REMARK INTRA:                  -0.422
REMARK UNBOUND:                -1.292
REMARK SMILES C=CC(=O)N[C@H]1CC[C@@H](n2nc(-c3ccc(Oc4ccccc4)cc3)c3c(N)ncnc32)CC1
REMARK SMILES IDX 10 1 11 2 12 3 26 4 27 5 29 6 30 7 31 8 32 9 9 10 6 11 7 12
REMARK SMILES IDX 34 13 8 14 33 15 5 16 3 17 4 18 2 20 1 21 13 22 14 23 25 24
REMARK SMILES IDX 15 25 24 26 16 27 17 28 18 29 19 30 23 31 20 32 22 33 21 34
REMARK SMILES IDX 28 35
REMARK H PARENT 5 19 28 36 28 37
ROOT
ATOM      1  N   UNL     1      18.095  33.807  11.528  1.00  0.00    -0.243 N 
ATOM      2  N   UNL     1      17.349  34.429  12.468  1.00  0.00    -0.170 NA
ATOM      3  C   UNL     1      17.968  34.138  13.625  1.00  0.00     0.106 A 
ATOM      4  C   UNL     1      19.089  33.280  13.418  1.00  0.00     0.089 A 
ATOM      5  C   UNL     1      20.061  32.617  14.177  1.00  0.00     0.138 A 
ATOM      6  N   UNL     1      20.998  31.889  13.530  1.00  0.00    -0.219 NA
ATOM      7  C   UNL     1      20.947  31.815  12.187  1.00  0.00     0.226 A 
ATOM      8  N   UNL     1      20.054  32.384  11.362  1.00  0.00    -0.217 NA
ATOM      9  C   UNL     1      19.147  33.104  12.046  1.00  0.00     0.164 A 
ENDROOT
BRANCH   1  10
ATOM     10  C   UNL     1      17.746  33.934  10.117  1.00  0.00     0.110 C 
ATOM     11  C   UNL     1      16.241  33.105   7.684  1.00  0.00     0.082 C 
ATOM     12  C   UNL     1      15.868  34.369   8.471  1.00  0.00     0.027 C 
ATOM     13  C   UNL     1      17.727  32.772   7.857  1.00  0.00     0.027 C 
ATOM     14  C   UNL     1      16.257  34.268   9.946  1.00  0.00     0.029 C 
ATOM     15  C   UNL     1      18.149  32.681   9.324  1.00  0.00     0.029 C 
BRANCH  11  16
ATOM     16  N   UNL     1      15.405  31.983   8.084  1.00  0.00    -0.350 N 
ATOM     17  C   UNL     1      15.359  30.817   7.366  1.00  0.00     0.243 C 
ATOM     18  O   UNL     1      16.064  30.570   6.396  1.00  0.00    -0.270 OA
ATOM     19  H   UNL     1      14.810  32.079   8.896  1.00  0.00     0.164 HD
BRANCH  17  20
ATOM     20  C   UNL     1      14.406  29.795   7.868  1.00  0.00     0.063 C 
ATOM     21  C   UNL     1      14.529  28.471   7.703  1.00  0.00     0.014 C 
ENDBRANCH  17  20
ENDBRANCH  11  16
ENDBRANCH   1  10
BRANCH   3  22
ATOM     22  C   UNL     1      17.469  34.688  14.880  1.00  0.00     0.003 A 
ATOM     23  C   UNL     1      18.166  35.722  15.520  1.00  0.00     0.014 A 
ATOM     24  C   UNL     1      16.304  34.176  15.469  1.00  0.00     0.014 A 
ATOM     25  C   UNL     1      17.689  36.257  16.719  1.00  0.00     0.048 A 
ATOM     26  C   UNL     1      15.827  34.711  16.668  1.00  0.00     0.048 A 
ATOM     27  C   UNL     1      16.510  35.765  17.279  1.00  0.00     0.127 A 
BRANCH  27  28
ATOM     28  O   UNL     1      16.114  36.313  18.479  1.00  0.00    -0.457 OA
BRANCH  28  29
ATOM     29  C   UNL     1      17.107  36.647  19.372  1.00  0.00     0.127 A 
ATOM     30  C   UNL     1      17.858  35.604  19.911  1.00  0.00     0.047 A 
ATOM     31  C   UNL     1      17.416  37.975  19.684  1.00  0.00     0.047 A 
ATOM     32  C   UNL     1      18.897  35.883  20.799  1.00  0.00     0.004 A 
ATOM     33  C   UNL     1      18.456  38.250  20.572  1.00  0.00     0.004 A 
ATOM     34  C   UNL     1      19.193  37.206  21.131  1.00  0.00     0.000 A 
ENDBRANCH  28  29
ENDBRANCH  27  28
ENDBRANCH   3  22
BRANCH   5  35
ATOM     35  N   UNL     1      20.134  32.626  15.548  1.00  0.00    -0.383 N 
ATOM     36  H   UNL     1      19.474  33.130  16.120  1.00  0.00     0.158 HD
ATOM     37  H   UNL     1      20.808  32.002  15.967  1.00  0.00     0.158 HD
ENDBRANCH   5  35
TORSDOF 7
ENDMDL
MODEL 6
REMARK VINA RESULT:    -9.383      2.465      3.847
REMARK INTER + INTRA:         -14.240
REMARK INTER:                 -13.288
REMARK INTRA:                  -0.953
REMARK UNBOUND:                -1.292
REMARK SMILES C=CC(=O)N[C@H]1CC[C@@H](n2nc(-c3ccc(Oc4ccccc4)cc3)c3c(N)ncnc32)CC1
REMARK SMILES IDX 10 1 11 2 12 3 26 4 27 5 29 6 30 7 31 8 32 9 9 10 6 11 7 12
REMARK SMILES IDX 34 13 8 14 33 15 5 16 3 17 4 18 2 20 1 21 13 22 14 23 25 24
REMARK SMILES IDX 15 25 24 26 16 27 17 28 18 29 19 30 23 31 20 32 22 33 21 34
REMARK SMILES IDX 28 35
REMARK H PARENT 5 19 28 36 28 37
ROOT
ATOM      1  N   UNL     1      20.052  34.342  13.832  1.00  0.00    -0.243 N 
ATOM      2  N   UNL     1      19.942  33.909  12.557  1.00  0.00    -0.170 NA
ATOM      3  C   UNL     1      18.617  33.790  12.364  1.00  0.00     0.106 A 
ATOM      4  C   UNL     1      17.884  34.102  13.547  1.00  0.00     0.089 A 
ATOM      5  C   UNL     1      16.555  34.125  13.988  1.00  0.00     0.138 A 
ATOM      6  N   UNL     1      16.301  34.532  15.250  1.00  0.00    -0.219 NA
ATOM      7  C   UNL     1      17.336  34.880  16.038  1.00  0.00     0.226 A 
ATOM      8  N   UNL     1      18.644  34.876  15.735  1.00  0.00    -0.217 NA
ATOM      9  C   UNL     1      18.849  34.473  14.469  1.00  0.00     0.164 A 
ENDROOT
BRANCH   1  10
ATOM     10  C   UNL     1      21.368  34.630  14.395  1.00  0.00     0.110 C 
ATOM     11  C   UNL     1      23.165  35.448  16.625  1.00  0.00     0.082 C 
ATOM     12  C   UNL     1      23.052  33.985  16.176  1.00  0.00     0.027 C 
ATOM     13  C   UNL     1      22.840  36.401  15.469  1.00  0.00     0.027 C 
ATOM     14  C   UNL     1      21.691  33.674  15.553  1.00  0.00     0.029 C 
ATOM     15  C   UNL     1      21.491  36.103  14.814  1.00  0.00     0.029 C 
BRANCH  11  16
ATOM     16  N   UNL     1      22.303  35.705  17.770  1.00  0.00    -0.350 N 
ATOM     17  C   UNL     1      22.565  36.705  18.669  1.00  0.00     0.243 C 
ATOM     18  O   UNL     1      23.471  37.521  18.556  1.00  0.00    -0.270 OA
ATOM     19  H   UNL     1      21.506  35.103  17.929  1.00  0.00     0.164 HD
BRANCH  17  20
ATOM     20  C   UNL     1      21.628  36.792  19.818  1.00  0.00     0.063 C 
ATOM     21  C   UNL     1      21.060  37.917  20.272  1.00  0.00     0.014 C 
ENDBRANCH  17  20
ENDBRANCH  11  16
ENDBRANCH   1  10
BRANCH   3  22
ATOM     22  C   UNL     1      18.102  33.383  11.061  1.00  0.00     0.003 A 
ATOM     23  C   UNL     1      17.202  34.208  10.374  1.00  0.00     0.014 A 
ATOM     24  C   UNL     1      18.482  32.158  10.496  1.00  0.00     0.014 A 
ATOM     25  C   UNL     1      16.710  33.826   9.123  1.00  0.00     0.048 A 
ATOM     26  C   UNL     1      17.991  31.776   9.245  1.00  0.00     0.048 A 
ATOM     27  C   UNL     1      17.122  32.622   8.552  1.00  0.00     0.127 A 
BRANCH  27  28
ATOM     28  O   UNL     1      16.573  32.290   7.334  1.00  0.00    -0.457 OA
BRANCH  28  29
ATOM     29  C   UNL     1      16.004  31.041   7.222  1.00  0.00     0.127 A 
ATOM     30  C   UNL     1      14.712  30.882   7.722  1.00  0.00     0.047 A 
ATOM     31  C   UNL     1      16.647  29.982   6.575  1.00  0.00     0.047 A 
ATOM     32  C   UNL     1      14.073  29.647   7.610  1.00  0.00     0.004 A 
ATOM     33  C   UNL     1      16.004  28.749   6.465  1.00  0.00     0.004 A 
ATOM     34  C   UNL     1      14.721  28.581   6.985  1.00  0.00     0.000 A 
ENDBRANCH  28  29
ENDBRANCH  27  28
ENDBRANCH   3  22
BRANCH   5  35
ATOM     35  N   UNL     1      15.470  33.742  13.239  1.00  0.00    -0.383 N 
ATOM     36  H   UNL     1      15.284  32.778  13.010  1.00  0.00     0.158 HD
ATOM     37  H   UNL     1      14.793  34.461  13.028  1.00  0.00     0.158 HD
ENDBRANCH   5  35
TORSDOF 7
ENDMDL
MODEL 7
REMARK VINA RESULT:    -9.369      1.898      8.632
REMARK INTER + INTRA:         -14.221
REMARK INTER:                 -12.894
REMARK INTRA:                  -1.326
REMARK UNBOUND:                -1.292
REMARK SMILES C=CC(=O)N[C@H]1CC[C@@H](n2nc(-c3ccc(Oc4ccccc4)cc3)c3c(N)ncnc32)CC1
REMARK SMILES IDX 10 1 11 2 12 3 26 4 27 5 29 6 30 7 31 8 32 9 9 10 6 11 7 12
REMARK SMILES IDX 34 13 8 14 33 15 5 16 3 17 4 18 2 20 1 21 13 22 14 23 25 24
REMARK SMILES IDX 15 25 24 26 16 27 17 28 18 29 19 30 23 31 20 32 22 33 21 34
REMARK SMILES IDX 28 35
REMARK H PARENT 5 19 28 36 28 37
ROOT
ATOM      1  N   UNL     1      18.751  34.054  13.505  1.00  0.00    -0.243 N 
ATOM      2  N   UNL     1      20.001  34.084  12.993  1.00  0.00    -0.170 NA
ATOM      3  C   UNL     1      20.800  34.088  14.076  1.00  0.00     0.106 A 
ATOM      4  C   UNL     1      20.043  34.112  15.285  1.00  0.00     0.089 A 
ATOM      5  C   UNL     1      20.267  34.169  16.666  1.00  0.00     0.138 A 
ATOM      6  N   UNL     1      19.200  34.147  17.494  1.00  0.00    -0.219 NA
ATOM      7  C   UNL     1      17.966  34.090  16.958  1.00  0.00     0.226 A 
ATOM      8  N   UNL     1      17.631  34.056  15.658  1.00  0.00    -0.217 NA
ATOM      9  C   UNL     1      18.722  34.071  14.872  1.00  0.00     0.164 A 
ENDROOT
BRANCH   1  10
ATOM     10  C   UNL     1      17.598  33.999  12.613  1.00  0.00     0.110 C 
ATOM     11  C   UNL     1      16.179  33.010  10.188  1.00  0.00     0.082 C 
ATOM     12  C   UNL     1      15.829  32.498  11.592  1.00  0.00     0.027 C 
ATOM     13  C   UNL     1      16.760  34.428  10.253  1.00  0.00     0.027 C 
ATOM     14  C   UNL     1      17.017  32.579  12.550  1.00  0.00     0.029 C 
ATOM     15  C   UNL     1      17.941  34.543  11.217  1.00  0.00     0.029 C 
BRANCH  11  16
ATOM     16  N   UNL     1      17.098  32.100   9.521  1.00  0.00    -0.350 N 
ATOM     17  C   UNL     1      17.031  31.855   8.175  1.00  0.00     0.243 C 
ATOM     18  O   UNL     1      16.274  32.428   7.401  1.00  0.00    -0.270 OA
ATOM     19  H   UNL     1      17.783  31.602  10.073  1.00  0.00     0.164 HD
BRANCH  17  20
ATOM     20  C   UNL     1      17.995  30.850   7.660  1.00  0.00     0.063 C 
ATOM     21  C   UNL     1      18.391  30.735   6.385  1.00  0.00     0.014 C 
ENDBRANCH  17  20
ENDBRANCH  11  16
ENDBRANCH   1  10
BRANCH   3  22
ATOM     22  C   UNL     1      22.249  34.067  13.915  1.00  0.00     0.003 A 
ATOM     23  C   UNL     1      22.902  35.145  13.300  1.00  0.00     0.014 A 
ATOM     24  C   UNL     1      22.998  32.965  14.348  1.00  0.00     0.014 A 
ATOM     25  C   UNL     1      24.290  35.133  13.148  1.00  0.00     0.048 A 
ATOM     26  C   UNL     1      24.388  32.954  14.197  1.00  0.00     0.048 A 
ATOM     27  C   UNL     1      25.032  34.048  13.616  1.00  0.00     0.127 A 
BRANCH  27  28
ATOM     28  O   UNL     1      26.392  34.085  13.403  1.00  0.00    -0.457 OA
BRANCH  28  29
ATOM     29  C   UNL     1      26.970  32.967  12.847  1.00  0.00     0.127 A 
ATOM     30  C   UNL     1      26.537  32.589  11.576  1.00  0.00     0.047 A 
ATOM     31  C   UNL     1      28.000  32.264  13.479  1.00  0.00     0.047 A 
ATOM     32  C   UNL     1      27.107  31.481  10.949  1.00  0.00     0.004 A 
ATOM     33  C   UNL     1      28.568  31.157  12.849  1.00  0.00     0.004 A 
ATOM     34  C   UNL     1      28.120  30.764  11.588  1.00  0.00     0.000 A 
ENDBRANCH  28  29
ENDBRANCH  27  28
ENDBRANCH   3  22
BRANCH   5  35
ATOM     35  N   UNL     1      21.501  34.269  17.261  1.00  0.00    -0.383 N 
ATOM     36  H   UNL     1      22.321  34.568  16.758  1.00  0.00     0.158 HD
ATOM     37  H   UNL     1      21.527  34.147  18.263  1.00  0.00     0.158 HD
ENDBRANCH   5  35
TORSDOF 7
ENDMDL
MODEL 8
REMARK VINA RESULT:    -9.223      1.627      2.829
REMARK INTER + INTRA:         -14.019
REMARK INTER:                 -13.672
REMARK INTRA:                  -0.348
REMARK UNBOUND:                -1.292
REMARK SMILES C=CC(=O)N[C@H]1CC[C@@H](n2nc(-c3ccc(Oc4ccccc4)cc3)c3c(N)ncnc32)CC1
REMARK SMILES IDX 10 1 11 2 12 3 26 4 27 5 29 6 30 7 31 8 32 9 9 10 6 11 7 12
REMARK SMILES IDX 34 13 8 14 33 15 5 16 3 17 4 18 2 20 1 21 13 22 14 23 25 24
REMARK SMILES IDX 15 25 24 26 16 27 17 28 18 29 19 30 23 31 20 32 22 33 21 34
REMARK SMILES IDX 28 35
REMARK H PARENT 5 19 28 36 28 37
ROOT
ATOM      1  N   UNL     1      20.890  34.038  13.129  1.00  0.00    -0.243 N 
ATOM      2  N   UNL     1      20.428  33.681  11.911  1.00  0.00    -0.170 NA
ATOM      3  C   UNL     1      19.091  33.712  12.044  1.00  0.00     0.106 A 
ATOM      4  C   UNL     1      18.705  34.043  13.377  1.00  0.00     0.089 A 
ATOM      5  C   UNL     1      17.532  34.185  14.129  1.00  0.00     0.138 A 
ATOM      6  N   UNL     1      17.637  34.555  15.424  1.00  0.00    -0.219 NA
ATOM      7  C   UNL     1      18.863  34.753  15.943  1.00  0.00     0.226 A 
ATOM      8  N   UNL     1      20.051  34.625  15.329  1.00  0.00    -0.217 NA
ATOM      9  C   UNL     1      19.899  34.264  14.043  1.00  0.00     0.164 A 
ENDROOT
BRANCH   1  10
ATOM     10  C   UNL     1      22.326  34.157  13.360  1.00  0.00     0.110 C 
ATOM     11  C   UNL     1      24.702  34.441  15.135  1.00  0.00     0.082 C 
ATOM     12  C   UNL     1      24.347  33.104  14.470  1.00  0.00     0.027 C 
ATOM     13  C   UNL     1      24.177  35.619  14.306  1.00  0.00     0.027 C 
ATOM     14  C   UNL     1      22.850  32.976  14.190  1.00  0.00     0.029 C 
ATOM     15  C   UNL     1      22.684  35.510  13.995  1.00  0.00     0.029 C 
BRANCH  11  16
ATOM     16  N   UNL     1      24.189  34.492  16.496  1.00  0.00    -0.350 N 
ATOM     17  C   UNL     1      24.821  33.860  17.535  1.00  0.00     0.243 C 
ATOM     18  O   UNL     1      25.896  33.282  17.447  1.00  0.00    -0.270 OA
ATOM     19  H   UNL     1      23.321  34.976  16.676  1.00  0.00     0.164 HD
BRANCH  17  20
ATOM     20  C   UNL     1      24.134  33.951  18.849  1.00  0.00     0.063 C 
ATOM     21  C   UNL     1      22.896  34.422  19.047  1.00  0.00     0.014 C 
ENDBRANCH  17  20
ENDBRANCH  11  16
ENDBRANCH   1  10
BRANCH   3  22
ATOM     22  C   UNL     1      18.235  33.426  10.898  1.00  0.00     0.003 A 
ATOM     23  C   UNL     1      18.369  32.214  10.208  1.00  0.00     0.014 A 
ATOM     24  C   UNL     1      17.291  34.366  10.462  1.00  0.00     0.014 A 
ATOM     25  C   UNL     1      17.549  31.932   9.113  1.00  0.00     0.048 A 
ATOM     26  C   UNL     1      16.470  34.084   9.367  1.00  0.00     0.048 A 
ATOM     27  C   UNL     1      16.587  32.858   8.708  1.00  0.00     0.127 A 
BRANCH  27  28
ATOM     28  O   UNL     1      15.836  32.532   7.601  1.00  0.00    -0.457 OA
BRANCH  28  29
ATOM     29  C   UNL     1      15.676  31.193   7.325  1.00  0.00     0.127 A 
ATOM     30  C   UNL     1      16.765  30.523   6.769  1.00  0.00     0.047 A 
ATOM     31  C   UNL     1      14.507  30.497   7.646  1.00  0.00     0.047 A 
ATOM     32  C   UNL     1      16.673  29.158   6.494  1.00  0.00     0.004 A 
ATOM     33  C   UNL     1      14.419  29.133   7.370  1.00  0.00     0.004 A 
ATOM     34  C   UNL     1      15.498  28.465   6.792  1.00  0.00     0.000 A 
ENDBRANCH  28  29
ENDBRANCH  27  28
ENDBRANCH   3  22
BRANCH   5  35
ATOM     35  N   UNL     1      16.262  33.956  13.660  1.00  0.00    -0.383 N 
ATOM     36  H   UNL     1      15.478  33.803  14.274  1.00  0.00     0.158 HD
ATOM     37  H   UNL     1      16.123  34.070  12.666  1.00  0.00     0.158 HD
ENDBRANCH   5  35
TORSDOF 7
ENDMDL
MODEL 9
REMARK VINA RESULT:    -8.784      3.084      5.152
REMARK INTER + INTRA:         -13.414
REMARK INTER:                 -12.311
REMARK INTRA:                  -1.103
REMARK UNBOUND:                -1.292
REMARK SMILES C=CC(=O)N[C@H]1CC[C@@H](n2nc(-c3ccc(Oc4ccccc4)cc3)c3c(N)ncnc32)CC1
REMARK SMILES IDX 10 1 11 2 12 3 26 4 27 5 29 6 30 7 31 8 32 9 9 10 6 11 7 12
REMARK SMILES IDX 34 13 8 14 33 15 5 16 3 17 4 18 2 20 1 21 13 22 14 23 25 24
REMARK SMILES IDX 15 25 24 26 16 27 17 28 18 29 19 30 23 31 20 32 22 33 21 34
REMARK SMILES IDX 28 35
REMARK H PARENT 5 19 28 36 28 37
ROOT
ATOM      1  N   UNL     1      18.450  34.418  15.334  1.00  0.00    -0.243 N 
ATOM      2  N   UNL     1      17.595  34.392  14.288  1.00  0.00    -0.170 NA
ATOM      3  C   UNL     1      18.247  33.687  13.347  1.00  0.00     0.106 A 
ATOM      4  C   UNL     1      19.550  33.307  13.786  1.00  0.00     0.089 A 
ATOM      5  C   UNL     1      20.676  32.639  13.288  1.00  0.00     0.138 A 
ATOM      6  N   UNL     1      21.742  32.476  14.102  1.00  0.00    -0.219 NA
ATOM      7  C   UNL     1      21.685  32.978  15.350  1.00  0.00     0.226 A 
ATOM      8  N   UNL     1      20.676  33.652  15.925  1.00  0.00    -0.217 NA
ATOM      9  C   UNL     1      19.636  33.783  15.083  1.00  0.00     0.164 A 
ENDROOT
BRANCH   1  10
ATOM     10  C   UNL     1      18.063  35.073  16.579  1.00  0.00     0.110 C 
ATOM     11  C   UNL     1      18.676  36.253  19.244  1.00  0.00     0.082 C 
ATOM     12  C   UNL     1      18.367  37.132  18.025  1.00  0.00     0.027 C 
ATOM     13  C   UNL     1      18.006  34.880  19.112  1.00  0.00     0.027 C 
ATOM     14  C   UNL     1      18.735  36.448  16.709  1.00  0.00     0.029 C 
ATOM     15  C   UNL     1      18.343  34.178  17.796  1.00  0.00     0.029 C 
BRANCH  11  16
ATOM     16  N   UNL     1      20.113  36.115  19.430  1.00  0.00    -0.350 N 
ATOM     17  C   UNL     1      20.859  37.071  20.068  1.00  0.00     0.243 C 
ATOM     18  O   UNL     1      20.396  38.065  20.613  1.00  0.00    -0.270 OA
ATOM     19  H   UNL     1      20.584  35.308  19.044  1.00  0.00     0.164 HD
BRANCH  17  20
ATOM     20  C   UNL     1      22.321  36.814  20.116  1.00  0.00     0.063 C 
ATOM     21  C   UNL     1      23.031  36.191  19.165  1.00  0.00     0.014 C 
ENDBRANCH  17  20
ENDBRANCH  11  16
ENDBRANCH   1  10
BRANCH   3  22
ATOM     22  C   UNL     1      17.603  33.403  12.070  1.00  0.00     0.003 A 
ATOM     23  C   UNL     1      18.068  34.018  10.898  1.00  0.00     0.014 A 
ATOM     24  C   UNL     1      16.504  32.537  12.003  1.00  0.00     0.014 A 
ATOM     25  C   UNL     1      17.459  33.746   9.671  1.00  0.00     0.048 A 
ATOM     26  C   UNL     1      15.894  32.265  10.775  1.00  0.00     0.048 A 
ATOM     27  C   UNL     1      16.388  32.854   9.609  1.00  0.00     0.127 A 
BRANCH  27  28
ATOM     28  O   UNL     1      15.811  32.658   8.374  1.00  0.00    -0.457 OA
BRANCH  28  29
ATOM     29  C   UNL     1      15.872  31.387   7.849  1.00  0.00     0.127 A 
ATOM     30  C   UNL     1      14.664  30.714   7.668  1.00  0.00     0.047 A 
ATOM     31  C   UNL     1      17.074  30.802   7.441  1.00  0.00     0.047 A 
ATOM     32  C   UNL     1      14.659  29.434   7.112  1.00  0.00     0.004 A 
ATOM     33  C   UNL     1      17.065  29.523   6.885  1.00  0.00     0.004 A 
ATOM     34  C   UNL     1      15.861  28.839   6.725  1.00  0.00     0.000 A 
ENDBRANCH  28  29
ENDBRANCH  27  28
ENDBRANCH   3  22
BRANCH   5  35
ATOM     35  N   UNL     1      20.799  32.145  12.012  1.00  0.00    -0.383 N 
ATOM     36  H   UNL     1      21.654  31.734  11.673  1.00  0.00     0.158 HD
ATOM     37  H   UNL     1      19.953  32.100  11.464  1.00  0.00     0.158 HD
ENDBRANCH   5  35
TORSDOF 7
ENDMDL
