MODEL 5
REMARK VINA RESULT:    -7.962      3.437      9.805
REMARK INTER + INTRA:         -12.004
REMARK INTER:                 -11.381
REMARK INTRA:                  -0.623
REMARK UNBOUND:                -0.783
REMARK SMILES CN(CCOc1ccc(C[C@@H]2SC(=O)NC2=O)cc1)c1ccccn1
REMARK SMILES IDX 5 1 4 2 3 3 2 4 1 5 20 6 21 7 25 8 22 9 24 10 23 11 6 12
REMARK SMILES IDX 7 13 19 14 8 15 18 16 9 17 10 18 11 19 12 20 16 21 13 22
REMARK SMILES IDX 15 23 17 24 14 25
REMARK H PARENT 15 26
ROOT
ATOM      1  O   UNL     1      34.821   1.196 129.746  1.00  0.00    -0.492 OA
ENDROOT
BRANCH   1   2
ATOM      2  C   UNL     1      34.457   0.038 128.977  1.00  0.00     0.251 C 
BRANCH   2   3
ATOM      3  C   UNL     1      32.973  -0.317 129.171  1.00  0.00     0.159 C 
BRANCH   3   4
ATOM      4  N   UNL     1      32.075   0.765 128.729  1.00  0.00    -0.356 N 
ATOM      5  C   UNL     1      31.125   1.260 129.717  1.00  0.00     0.145 C 
BRANCH   4   6
ATOM      6  C   UNL     1      31.728   0.750 127.377  1.00  0.00     0.128 A 
ATOM      7  C   UNL     1      31.559   1.920 126.629  1.00  0.00     0.047 A 
ATOM      8  N   UNL     1      31.594  -0.453 126.768  1.00  0.00    -0.239 NA
ATOM      9  C   UNL     1      31.230   1.855 125.271  1.00  0.00     0.005 A 
ATOM     10  C   UNL     1      31.283  -0.501 125.452  1.00  0.00     0.113 A 
ATOM     11  C   UNL     1      31.090   0.618 124.666  1.00  0.00     0.020 A 
ENDBRANCH   4   6
ENDBRANCH   3   4
ENDBRANCH   2   3
ENDBRANCH   1   2
BRANCH   1  12
ATOM     12  C   UNL     1      36.141   1.546 129.807  1.00  0.00     0.119 A 
ATOM     13  C   UNL     1      37.021   1.648 128.729  1.00  0.00     0.047 A 
ATOM     14  C   UNL     1      36.607   1.820 131.096  1.00  0.00     0.047 A 
ATOM     15  C   UNL     1      38.354   2.017 128.941  1.00  0.00     0.007 A 
ATOM     16  C   UNL     1      37.933   2.203 131.310  1.00  0.00     0.007 A 
ATOM     17  C   UNL     1      38.822   2.303 130.230  1.00  0.00    -0.046 A 
BRANCH  17  18
ATOM     18  C   UNL     1      40.253   2.728 130.460  1.00  0.00     0.060 C 
BRANCH  18  19
ATOM     19  C   UNL     1      40.919   2.005 131.635  1.00  0.00     0.150 C 
ATOM     20  S   UNL     1      42.209   3.003 132.464  1.00  0.00    -0.051 SA
ATOM     21  C   UNL     1      41.648   0.768 131.150  1.00  0.00     0.241 C 
ATOM     22  C   UNL     1      43.451   1.811 132.194  1.00  0.00     0.286 C 
ATOM     23  N   UNL     1      42.929   0.710 131.611  1.00  0.00    -0.286 N 
ATOM     24  O   UNL     1      41.161  -0.093 130.426  1.00  0.00    -0.273 OA
ATOM     25  O   UNL     1      44.627   1.980 132.467  1.00  0.00    -0.261 OA
ATOM     26  H   UNL     1      43.541  -0.033 131.314  1.00  0.00     0.173 HD
ENDBRANCH  18  19
ENDBRANCH  17  18
ENDBRANCH   1  12
TORSDOF 7
ENDMDL
