MODEL 1
REMARK VINA RESULT:    -8.429      0.000      0.000
REMARK INTER + INTRA:         -12.661
REMARK INTER:                 -11.878
REMARK INTRA:                  -0.783
REMARK UNBOUND:                -0.783
REMARK SMILES CN(CCOc1ccc(C[C@@H]2SC(=O)NC2=O)cc1)c1ccccn1
REMARK SMILES IDX 5 1 4 2 3 3 2 4 1 5 20 6 21 7 25 8 22 9 24 10 23 11 6 12
REMARK SMILES IDX 7 13 19 14 8 15 18 16 9 17 10 18 11 19 12 20 16 21 13 22
REMARK SMILES IDX 15 23 17 24 14 25
REMARK H PARENT 15 26
ROOT
ATOM      1  O   UNL     1      42.683   3.827 131.650  1.00  0.00    -0.492 OA
ENDROOT
BRANCH   1   2
ATOM      2  C   UNL     1      43.605   3.057 132.439  1.00  0.00     0.251 C 
BRANCH   2   3
ATOM      3  C   UNL     1      43.736   1.622 131.903  1.00  0.00     0.159 C 
BRANCH   3   4
ATOM      4  N   UNL     1      43.697   0.616 132.979  1.00  0.00    -0.356 N 
ATOM      5  C   UNL     1      44.150   1.056 134.292  1.00  0.00     0.145 C 
BRANCH   4   6
ATOM      6  C   UNL     1      43.903  -0.707 132.580  1.00  0.00     0.128 A 
ATOM      7  C   UNL     1      44.392  -1.688 133.448  1.00  0.00     0.047 A 
ATOM      8  N   UNL     1      43.572  -1.047 131.311  1.00  0.00    -0.239 NA
ATOM      9  C   UNL     1      44.564  -3.005 133.008  1.00  0.00     0.005 A 
ATOM     10  C   UNL     1      43.735  -2.326 130.901  1.00  0.00     0.113 A 
ATOM     11  C   UNL     1      44.227  -3.335 131.706  1.00  0.00     0.020 A 
ENDBRANCH   4   6
ENDBRANCH   3   4
ENDBRANCH   2   3
ENDBRANCH   1   2
BRANCH   1  12
ATOM     12  C   UNL     1      41.397   3.379 131.531  1.00  0.00     0.119 A 
ATOM     13  C   UNL     1      40.516   3.104 132.579  1.00  0.00     0.047 A 
ATOM     14  C   UNL     1      40.969   3.194 130.214  1.00  0.00     0.047 A 
ATOM     15  C   UNL     1      39.222   2.647 132.308  1.00  0.00     0.007 A 
ATOM     16  C   UNL     1      39.673   2.751 129.939  1.00  0.00     0.007 A 
ATOM     17  C   UNL     1      38.786   2.471 130.988  1.00  0.00    -0.046 A 
BRANCH  17  18
ATOM     18  C   UNL     1      37.381   2.002 130.691  1.00  0.00     0.060 C 
BRANCH  18  19
ATOM     19  C   UNL     1      37.277   1.169 129.410  1.00  0.00     0.150 C 
ATOM     20  S   UNL     1      35.793   1.553 128.412  1.00  0.00    -0.051 SA
ATOM     21  C   UNL     1      37.140  -0.302 129.747  1.00  0.00     0.241 C 
ATOM     22  C   UNL     1      35.211  -0.088 128.456  1.00  0.00     0.286 C 
ATOM     23  N   UNL     1      36.099  -0.886 129.090  1.00  0.00    -0.286 N 
ATOM     24  O   UNL     1      37.868  -0.916 130.518  1.00  0.00    -0.273 OA
ATOM     25  O   UNL     1      34.134  -0.441 128.007  1.00  0.00    -0.261 OA
ATOM     26  H   UNL     1      35.862  -1.849 129.270  1.00  0.00     0.173 HD
ENDBRANCH  18  19
ENDBRANCH  17  18
ENDBRANCH   1  12
TORSDOF 7
ENDMDL
