REMARK SMILES COc1cc2c(cc1OC)C(=O)[C@H](CC1CCN(Cc3ccc(F)cc3)CC1)C2
REMARK SMILES IDX 15 1 16 2 17 3 18 4 27 5 28 6 14 7 13 8 3 9 4 10 8 11 5 12
REMARK SMILES IDX 7 13 6 14 29 15 11 16 12 17 2 18 1 19 9 20 10 21 19 22 20 23
REMARK SMILES IDX 21 24 26 25 22 26 25 27 23 28 24 29
REMARK H PARENT
REMARK INDEX MAP 15 1 16 2 17 3 18 4 27 5 28 6 14 7 13 8 3 9 4 10 8 11 5 12
REMARK INDEX MAP 7 13 6 14 29 15 11 16 12 17 2 18 1 19 9 20 10 21 19 22 20 23
REMARK INDEX MAP 21 24 26 25 22 26 25 27 23 28 24 29
ROOT
ATOM      1  C   UNL     1     137.591 110.055  40.983  1.00  0.00    -0.008 C 
ATOM      2  C   UNL     1     137.549 108.523  41.046  1.00  0.00     0.019 C 
ATOM      3  C   UNL     1     138.885 107.905  40.627  1.00  0.00     0.085 C 
ATOM      4  N   UNL     1     139.280 108.342  39.279  1.00  0.00    -0.299 NA
ATOM      5  C   UNL     1     139.416 109.806  39.236  1.00  0.00     0.085 C 
ATOM      6  C   UNL     1     138.098 110.491  39.599  1.00  0.00     0.019 C 
ENDROOT
BRANCH   1   7
ATOM      7  C   UNL     1     136.225 110.710  41.271  1.00  0.00     0.016 C 
BRANCH   7   8
ATOM      8  C   UNL     1     136.245 111.894  42.248  1.00  0.00     0.066 C 
ATOM      9  C   UNL     1     132.697 115.055  42.604  1.00  0.00     0.161 A 
ATOM     10  C   UNL     1     133.090 113.794  43.080  1.00  0.00     0.055 A 
ATOM     11  C   UNL     1     133.538 115.783  41.717  1.00  0.00     0.161 A 
ATOM     12  C   UNL     1     134.309 113.274  42.668  1.00  0.00    -0.033 A 
ATOM     13  C   UNL     1     134.763 115.247  41.314  1.00  0.00     0.062 A 
ATOM     14  C   UNL     1     135.111 114.002  41.805  1.00  0.00     0.025 A 
ATOM     15  C   UNL     1     134.926 111.971  43.063  1.00  0.00     0.048 C 
ATOM     16  C   UNL     1     136.317 113.233  41.534  1.00  0.00     0.166 C 
ATOM     17  O   UNL     1     137.228 113.642  40.835  1.00  0.00    -0.294 OA
BRANCH   9  18
ATOM     18  O   UNL     1     131.514 115.669  42.941  1.00  0.00    -0.493 OA
ATOM     19  C   UNL     1     130.597 114.943  43.747  1.00  0.00     0.278 C 
ENDBRANCH   9  18
BRANCH  11  20
ATOM     20  O   UNL     1     133.061 117.006  41.311  1.00  0.00    -0.493 OA
ATOM     21  C   UNL     1     133.610 117.566  40.126  1.00  0.00     0.278 C 
ENDBRANCH  11  20
ENDBRANCH   7   8
ENDBRANCH   1   7
BRANCH   4  22
ATOM     22  C   UNL     1     140.535 107.676  38.886  1.00  0.00     0.120 C 
BRANCH  22  23
ATOM     23  C   UNL     1     141.070 108.143  37.546  1.00  0.00    -0.034 A 
ATOM     24  C   UNL     1     142.354 108.700  37.446  1.00  0.00     0.008 A 
ATOM     25  C   UNL     1     140.293 108.004  36.383  1.00  0.00     0.008 A 
ATOM     26  C   UNL     1     142.847 109.116  36.207  1.00  0.00     0.039 A 
ATOM     27  C   UNL     1     140.787 108.421  35.146  1.00  0.00     0.039 A 
ATOM     28  C   UNL     1     142.060 108.973  35.070  1.00  0.00     0.123 A 
ATOM     29  F   UNL     1     142.535 109.374  33.885  1.00  0.00    -0.207 F 
ENDBRANCH  22  23
ENDBRANCH   4  22
TORSDOF 6
