REMARK SMILES COc1cc2c(cc1OC)C(=O)[C@H](CC1CCN(Cc3ccc(F)cc3)CC1)C2
REMARK SMILES IDX 15 1 16 2 17 3 18 4 27 5 28 6 14 7 13 8 3 9 4 10 8 11 5 12
REMARK SMILES IDX 7 13 6 14 29 15 11 16 12 17 2 18 1 19 9 20 10 21 19 22 20 23
REMARK SMILES IDX 21 24 26 25 22 26 25 27 23 28 24 29
REMARK H PARENT
REMARK INDEX MAP 15 1 16 2 17 3 18 4 27 5 28 6 14 7 13 8 3 9 4 10 8 11 5 12
REMARK INDEX MAP 7 13 6 14 29 15 11 16 12 17 2 18 1 19 9 20 10 21 19 22 20 23
REMARK INDEX MAP 21 24 26 25 22 26 25 27 23 28 24 29
ROOT
ATOM      1  C   UNL     1     135.884 111.740  40.285  1.00  0.00    -0.008 C 
ATOM      2  C   UNL     1     136.796 112.902  40.696  1.00  0.00     0.019 C 
ATOM      3  C   UNL     1     138.152 112.832  39.989  1.00  0.00     0.085 C 
ATOM      4  N   UNL     1     138.826 111.551  40.244  1.00  0.00    -0.299 NA
ATOM      5  C   UNL     1     137.998 110.434  39.763  1.00  0.00     0.085 C 
ATOM      6  C   UNL     1     136.640 110.414  40.467  1.00  0.00     0.019 C 
ENDROOT
BRANCH   1   7
ATOM      7  C   UNL     1     134.560 111.700  41.075  1.00  0.00     0.016 C 
BRANCH   7   8
ATOM      8  C   UNL     1     133.407 112.525  40.486  1.00  0.00     0.066 C 
ATOM      9  C   UNL     1     134.040 116.682  38.244  1.00  0.00     0.161 A 
ATOM     10  C   UNL     1     134.055 115.298  38.007  1.00  0.00     0.055 A 
ATOM     11  C   UNL     1     133.730 117.187  39.537  1.00  0.00     0.161 A 
ATOM     12  C   UNL     1     133.765 114.437  39.056  1.00  0.00    -0.033 A 
ATOM     13  C   UNL     1     133.438 116.307  40.582  1.00  0.00     0.062 A 
ATOM     14  C   UNL     1     133.466 114.952  40.306  1.00  0.00     0.025 A 
ATOM     15  C   UNL     1     133.707 112.943  39.022  1.00  0.00     0.048 C 
ATOM     16  C   UNL     1     133.208 113.844  41.215  1.00  0.00     0.166 C 
ATOM     17  O   UNL     1     132.879 113.995  42.378  1.00  0.00    -0.294 OA
BRANCH   9  18
ATOM     18  O   UNL     1     134.311 117.629  37.285  1.00  0.00    -0.493 OA
ATOM     19  C   UNL     1     133.594 117.557  36.061  1.00  0.00     0.278 C 
ENDBRANCH   9  18
BRANCH  11  20
ATOM     20  O   UNL     1     133.741 118.556  39.662  1.00  0.00    -0.493 OA
ATOM     21  C   UNL     1     133.662 119.096  40.974  1.00  0.00     0.278 C 
ENDBRANCH  11  20
ENDBRANCH   7   8
ENDBRANCH   1   7
BRANCH   4  22
ATOM     22  C   UNL     1     140.153 111.548  39.602  1.00  0.00     0.120 C 
BRANCH  22  23
ATOM     23  C   UNL     1     140.189 110.776  38.297  1.00  0.00    -0.034 A 
ATOM     24  C   UNL     1     139.451 111.217  37.187  1.00  0.00     0.008 A 
ATOM     25  C   UNL     1     140.980 109.621  38.176  1.00  0.00     0.008 A 
ATOM     26  C   UNL     1     139.498 110.510  35.983  1.00  0.00     0.039 A 
ATOM     27  C   UNL     1     141.026 108.916  36.973  1.00  0.00     0.039 A 
ATOM     28  C   UNL     1     140.284 109.367  35.888  1.00  0.00     0.123 A 
ATOM     29  F   UNL     1     140.326 108.691  34.733  1.00  0.00    -0.207 F 
ENDBRANCH  22  23
ENDBRANCH   4  22
TORSDOF 6
