REMARK VINA RESULT:    -9.464      0.000      0.000
REMARK INTER + INTRA:         -11.573
REMARK INTER:                 -11.124
REMARK INTRA:                  -0.448
REMARK UNBOUND:                -0.448
REMARK SMILES Clc1ccc(-c2nnc(Cc3nc4ccc(Cl)cc4[nH]3)o2)c(Cl)c1
REMARK SMILES IDX 6 1 7 2 8 3 9 4 21 5 5 6 2 7 3 8 24 9 4 10 22 11 1 12 23 13
REMARK SMILES IDX 10 14 11 15 12 16 20 17 13 18 19 19 14 20 18 21 15 22 16 23
REMARK SMILES IDX 17 25
REMARK H PARENT 20 24
ROOT
ATOM      1  C   UNL     1      10.481   0.693  30.999  1.00  0.00     0.249 A 
ATOM      2  N   UNL     1      11.405   1.314  31.706  1.00  0.00    -0.108 NA
ATOM      3  N   UNL     1      12.003   2.229  30.866  1.00  0.00    -0.112 NA
ATOM      4  C   UNL     1      11.425   2.080  29.691  1.00  0.00     0.224 A 
ATOM      5  O   UNL     1      10.456   1.114  29.695  1.00  0.00    -0.420 OA
ENDROOT
BRANCH   1   6
ATOM      6  C   UNL     1       9.599  -0.400  31.383  1.00  0.00     0.058 A 
ATOM      7  C   UNL     1       8.026  -2.627  32.089  1.00  0.00     0.042 A 
ATOM      8  C   UNL     1       9.357  -2.810  31.728  1.00  0.00     0.021 A 
ATOM      9  C   UNL     1       7.474  -1.351  32.115  1.00  0.00     0.041 A 
ATOM     10  C   UNL     1      10.136  -1.703  31.382  1.00  0.00     0.017 A 
ATOM     11  C   UNL     1       8.256  -0.239  31.768  1.00  0.00     0.055 A 
ATOM     12  Cl  UNL     1       7.063  -3.986  32.516  1.00  0.00    -0.084 Cl
ATOM     13  Cl  UNL     1       7.489   1.308  31.901  1.00  0.00    -0.083 Cl
ENDBRANCH   1   6
BRANCH   4  14
ATOM     14  C   UNL     1      11.688   2.797  28.420  1.00  0.00     0.174 C 
BRANCH  14  15
ATOM     15  C   UNL     1      13.032   2.488  27.841  1.00  0.00     0.116 A 
ATOM     16  N   UNL     1      13.773   1.431  28.108  1.00  0.00    -0.233 NA
ATOM     17  N   UNL     1      13.649   3.291  26.905  1.00  0.00    -0.342 N 
ATOM     18  C   UNL     1      14.901   1.559  27.338  1.00  0.00     0.089 A 
ATOM     19  C   UNL     1      14.850   2.719  26.573  1.00  0.00     0.067 A 
ATOM     20  C   UNL     1      16.020   0.719  27.237  1.00  0.00     0.032 A 
ATOM     21  C   UNL     1      15.867   3.107  25.697  1.00  0.00     0.048 A 
ATOM     22  C   UNL     1      17.056   1.080  26.364  1.00  0.00     0.023 A 
ATOM     23  C   UNL     1      16.974   2.255  25.613  1.00  0.00     0.043 A 
ATOM     24  H   UNL     1      13.285   4.167  26.552  1.00  0.00     0.168 HD
ATOM     25  Cl  UNL     1      18.268   2.668  24.552  1.00  0.00    -0.084 Cl
ENDBRANCH  14  15
ENDBRANCH   4  14
TORSDOF 3
