MODEL 2
REMARK VINA RESULT:    -8.914      2.307      4.650
REMARK INTER + INTRA:         -16.610
REMARK INTER:                 -13.836
REMARK INTRA:                  -2.774
REMARK UNBOUND:                -1.443
REMARK SMILES N=C(N)NCCC[C@H](NC(=O)CN1CCN(S(=O)(=O)c2ccc(-c3ccccn3)s2)CC1=O)C(=O)c1nccs1
REMARK SMILES IDX 9 1 10 2 11 3 8 5 7 6 6 7 5 8 4 9 1 10 2 11 3 12 34 17 35 18
REMARK SMILES IDX 36 19 37 20 40 21 38 22 39 23 12 24 13 25 14 26 32 27 15 28
REMARK SMILES IDX 31 29 33 30 16 31 17 32 18 33 19 34 20 35 21 36 30 37 22 38
REMARK SMILES IDX 23 39 24 40 25 41 29 42 26 43 28 44 27 45
REMARK H PARENT 9 4 1 13 3 14 3 15 4 16
ROOT
ATOM      1  N   UNL     1     126.454 -15.477 162.551  1.00  0.00    -0.344 N 
ATOM      2  C   UNL     1     125.807 -16.684 162.727  1.00  0.00     0.240 C 
ATOM      3  O   UNL     1     125.554 -17.184 163.818  1.00  0.00    -0.273 OA
ATOM      4  H   UNL     1     126.775 -15.298 161.597  1.00  0.00     0.164 HD
ENDROOT
BRANCH   1   5
ATOM      5  C   UNL     1     127.126 -14.720 163.613  1.00  0.00     0.156 C 
BRANCH   5   6
ATOM      6  C   UNL     1     128.644 -14.933 163.717  1.00  0.00     0.035 C 
BRANCH   6   7
ATOM      7  C   UNL     1     129.241 -15.592 162.467  1.00  0.00     0.024 C 
BRANCH   7   8
ATOM      8  C   UNL     1     130.009 -14.608 161.582  1.00  0.00     0.116 C 
BRANCH   8   9
ATOM      9  N   UNL     1     129.131 -13.851 160.701  1.00  0.00    -0.357 N 
ATOM     10  N   UNL     1     128.168 -15.716 159.671  1.00  0.00    -0.270 NA
ATOM     11  C   UNL     1     128.354 -14.454 159.775  1.00  0.00     0.185 C 
ATOM     12  N   UNL     1     127.779 -13.549 158.956  1.00  0.00    -0.370 N 
ATOM     13  H   UNL     1     127.557 -15.911 158.878  1.00  0.00     0.191 HD
ATOM     14  H   UNL     1     127.012 -13.911 158.405  1.00  0.00     0.159 HD
ATOM     15  H   UNL     1     127.495 -12.710 159.448  1.00  0.00     0.159 HD
ATOM     16  H   UNL     1     129.543 -12.983 160.382  1.00  0.00     0.163 HD
ENDBRANCH   8   9
ENDBRANCH   7   8
ENDBRANCH   6   7
ENDBRANCH   5   6
BRANCH   5  17
ATOM     17  C   UNL     1     126.784 -13.214 163.494  1.00  0.00     0.213 C 
ATOM     18  O   UNL     1     127.198 -12.535 162.550  1.00  0.00    -0.289 OA
BRANCH  17  19
ATOM     19  C   UNL     1     125.954 -12.677 164.567  1.00  0.00     0.161 A 
ATOM     20  N   UNL     1     126.140 -11.489 165.111  1.00  0.00    -0.241 NA
ATOM     21  S   UNL     1     124.648 -13.588 165.212  1.00  0.00    -0.119 S 
ATOM     22  C   UNL     1     125.193 -11.274 166.094  1.00  0.00     0.124 A 
ATOM     23  C   UNL     1     124.302 -12.306 166.295  1.00  0.00     0.087 A 
ENDBRANCH  17  19
ENDBRANCH   5  17
ENDBRANCH   1   5
BRANCH   2  24
ATOM     24  C   UNL     1     125.429 -17.375 161.411  1.00  0.00     0.219 C 
BRANCH  24  25
ATOM     25  N   UNL     1     125.766 -18.800 161.418  1.00  0.00    -0.331 N 
ATOM     26  C   UNL     1     124.665 -19.763 161.383  1.00  0.00     0.137 C 
ATOM     27  C   UNL     1     127.051 -19.196 161.065  1.00  0.00     0.238 C 
ATOM     28  C   UNL     1     125.014 -21.201 161.813  1.00  0.00     0.124 C 
ATOM     29  C   UNL     1     127.304 -20.695 161.096  1.00  0.00     0.202 C 
ATOM     30  O   UNL     1     127.902 -18.392 160.678  1.00  0.00    -0.273 OA
ATOM     31  N   UNL     1     126.460 -21.393 162.102  1.00  0.00    -0.186 NA
BRANCH  31  32
ATOM     32  S   UNL     1     126.922 -21.088 163.717  1.00  0.00     0.253 S 
ATOM     33  O   UNL     1     127.002 -22.354 164.416  1.00  0.00    -0.206 OA
ATOM     34  O   UNL     1     126.133 -19.990 164.227  1.00  0.00    -0.206 OA
BRANCH  32  35
ATOM     35  C   UNL     1     128.597 -20.493 163.702  1.00  0.00     0.135 A 
ATOM     36  C   UNL     1     129.778 -21.067 163.280  1.00  0.00     0.034 A 
ATOM     37  S   UNL     1     128.847 -18.919 164.306  1.00  0.00    -0.121 S 
ATOM     38  C   UNL     1     130.894 -20.200 163.461  1.00  0.00     0.023 A 
ATOM     39  C   UNL     1     130.549 -18.980 164.026  1.00  0.00     0.054 A 
BRANCH  39  40
ATOM     40  C   UNL     1     131.411 -17.836 164.390  1.00  0.00     0.080 A 
ATOM     41  C   UNL     1     132.261 -17.228 163.468  1.00  0.00     0.030 A 
ATOM     42  N   UNL     1     131.339 -17.416 165.677  1.00  0.00    -0.255 NA
ATOM     43  C   UNL     1     133.066 -16.166 163.882  1.00  0.00     0.004 A 
ATOM     44  C   UNL     1     132.131 -16.388 166.055  1.00  0.00     0.112 A 
ATOM     45  C   UNL     1     133.005 -15.738 165.202  1.00  0.00     0.020 A 
ENDBRANCH  39  40
ENDBRANCH  32  35
ENDBRANCH  31  32
ENDBRANCH  24  25
ENDBRANCH   2  24
TORSDOF 12
ENDMDL
