REMARK SMILES COc1ccc(Cl)cc1-c1nn(C)cc1NC(=O)c1cncc2cn(C)nc12
REMARK SMILES IDX 15 1 14 2 12 3 11 4 10 5 13 6 16 7 17 8 18 9 19 11 25 12
REMARK SMILES IDX 24 13 27 14 23 15 28 16 22 17 21 18 20 19 26 20 9 21 8 22
REMARK SMILES IDX 3 23 6 24 4 25 5 26 7 27 2 28 1 29
REMARK H PARENT 16 10
ROOT
ATOM      1  C   UNL     1      -0.841  -1.558   0.988  1.00  0.00     0.088 A 
ATOM      2  C   UNL     1      -1.313  -2.748   1.486  1.00  0.00     0.135 A 
ATOM      3  N   UNL     1      -2.413  -2.443   2.223  1.00  0.00    -0.273 N 
ATOM      4  N   UNL     1      -2.703  -1.132   2.249  1.00  0.00    -0.171 NA
ATOM      5  C   UNL     1      -1.754  -0.568   1.479  1.00  0.00     0.120 A 
ATOM      6  C   UNL     1      -3.247  -3.368   2.951  1.00  0.00     0.173 C 
ENDROOT
BRANCH   1   7
ATOM      7  N   UNL     1       0.279  -1.353   0.202  1.00  0.00    -0.319 N 
ATOM      8  C   UNL     1       1.137  -2.329  -0.259  1.00  0.00     0.259 C 
ATOM      9  O   UNL     1       1.032  -3.539  -0.081  1.00  0.00    -0.269 OA
ATOM     10  H   UNL     1       0.473  -0.383  -0.060  1.00  0.00     0.170 HD
BRANCH   8  11
ATOM     11  C   UNL     1       2.281  -1.848  -1.043  1.00  0.00     0.086 A 
ATOM     12  N   UNL     1       2.746   1.635  -1.379  1.00  0.00    -0.275 N 
ATOM     13  C   UNL     1       3.824   1.214  -2.104  1.00  0.00     0.118 A 
ATOM     14  N   UNL     1       1.996   0.637  -0.865  1.00  0.00    -0.172 NA
ATOM     15  C   UNL     1       3.758  -0.150  -2.050  1.00  0.00     0.039 A 
ATOM     16  C   UNL     1       2.602  -0.500  -1.268  1.00  0.00     0.108 A 
ATOM     17  C   UNL     1       4.636  -1.054  -2.634  1.00  0.00     0.123 A 
ATOM     18  N   UNL     1       4.323  -2.370  -2.411  1.00  0.00    -0.263 NA
ATOM     19  C   UNL     1       3.205  -2.712  -1.653  1.00  0.00     0.127 A 
ATOM     20  C   UNL     1       2.355   3.004  -1.135  1.00  0.00     0.173 C 
ENDBRANCH   8  11
ENDBRANCH   1   7
BRANCH   5  21
ATOM     21  C   UNL     1      -1.746   0.879   1.264  1.00  0.00     0.048 A 
ATOM     22  C   UNL     1      -1.887   1.728   2.373  1.00  0.00     0.035 A 
ATOM     23  C   UNL     1      -1.612   1.456  -0.010  1.00  0.00     0.128 A 
ATOM     24  C   UNL     1      -1.860   3.112   2.210  1.00  0.00     0.041 A 
ATOM     25  C   UNL     1      -1.565   2.845  -0.166  1.00  0.00     0.048 A 
ATOM     26  C   UNL     1      -1.694   3.675   0.946  1.00  0.00     0.024 A 
ATOM     27  Cl  UNL     1      -2.022   4.139   3.582  1.00  0.00    -0.084 Cl
BRANCH  23  28
ATOM     28  O   UNL     1      -1.467   0.701  -1.146  1.00  0.00    -0.496 OA
ATOM     29  C   UNL     1      -2.746   0.320  -1.657  1.00  0.00     0.278 C 
ENDBRANCH  23  28
ENDBRANCH   5  21
TORSDOF 4
