MODEL 1
REMARK VINA RESULT:    -9.586      0.000      0.000
REMARK INTER + INTRA:         -11.389
REMARK INTER:                 -10.707
REMARK INTRA:                  -0.682
REMARK UNBOUND:                -0.682
REMARK SMILES Cc1nc(N2CC[C@H]3CCN(c4ncnc5[nH]ccc45)C[C@@]3(C)C2)ccc1Br
REMARK SMILES IDX 5 1 6 2 7 3 8 4 9 5 10 6 11 7 21 8 22 9 23 10 24 11 4 12
REMARK SMILES IDX 2 13 3 14 27 15 26 16 25 17 1 18 28 19 12 20 13 21 20 22
REMARK SMILES IDX 14 23 19 24 16 25 15 26 18 27 17 28
REMARK H PARENT 17 29
ROOT
ATOM      1  N   UNL     1       4.745 -20.063  20.699  1.00  0.00    -0.356 N 
ATOM      2  C   UNL     1       5.147 -19.515  21.992  1.00  0.00     0.118 C 
ATOM      3  C   UNL     1       5.452 -20.661  22.952  1.00  0.00     0.026 C 
ATOM      4  C   UNL     1       6.503 -21.631  22.378  1.00  0.00     0.002 C 
ATOM      5  C   UNL     1       6.728 -22.809  23.343  1.00  0.00     0.026 C 
ATOM      6  C   UNL     1       5.573 -23.813  23.345  1.00  0.00     0.118 C 
ATOM      7  N   UNL     1       5.248 -24.215  21.979  1.00  0.00    -0.355 N 
ATOM      8  C   UNL     1       4.938 -23.133  21.035  1.00  0.00     0.127 C 
ATOM      9  C   UNL     1       6.115 -22.130  20.956  1.00  0.00     0.006 C 
ATOM     10  C   UNL     1       7.326 -22.827  20.285  1.00  0.00     0.015 C 
ATOM     11  C   UNL     1       5.715 -20.943  20.046  1.00  0.00     0.126 C 
ENDROOT
BRANCH   1  12
ATOM     12  C   UNL     1       4.021 -19.196  19.879  1.00  0.00     0.128 A 
ATOM     13  C   UNL     1       2.207 -17.737  19.585  1.00  0.00     0.054 A 
ATOM     14  N   UNL     1       2.930 -18.575  20.378  1.00  0.00    -0.235 NA
ATOM     15  C   UNL     1       2.544 -17.499  18.256  1.00  0.00     0.039 A 
ATOM     16  C   UNL     1       3.657 -18.146  17.735  1.00  0.00     0.021 A 
ATOM     17  C   UNL     1       4.396 -19.000  18.551  1.00  0.00     0.048 A 
ATOM     18  C   UNL     1       1.024 -17.089  20.242  1.00  0.00     0.068 C 
ATOM     19  Br  UNL     1       1.557 -16.344  17.128  1.00  0.00    -0.049 Br
ENDBRANCH   1  12
BRANCH   7  20
ATOM     20  C   UNL     1       4.448 -25.356  21.858  1.00  0.00     0.141 A 
ATOM     21  N   UNL     1       3.258 -25.271  21.204  1.00  0.00    -0.219 NA
ATOM     22  C   UNL     1       4.820 -26.628  22.350  1.00  0.00     0.061 A 
ATOM     23  C   UNL     1       2.479 -26.366  21.101  1.00  0.00     0.226 A 
ATOM     24  C   UNL     1       5.953 -27.202  23.001  1.00  0.00     0.033 A 
ATOM     25  C   UNL     1       3.916 -27.664  22.164  1.00  0.00     0.142 A 
ATOM     26  N   UNL     1       2.722 -27.603  21.559  1.00  0.00    -0.218 NA
ATOM     27  C   UNL     1       5.690 -28.539  23.219  1.00  0.00     0.085 A 
ATOM     28  N   UNL     1       4.446 -28.803  22.708  1.00  0.00    -0.346 N 
ATOM     29  H   UNL     1       3.975 -29.696  22.702  1.00  0.00     0.167 HD
ENDBRANCH   7  20
TORSDOF 2
ENDMDL
MODEL 2
REMARK VINA RESULT:    -8.703      3.369      8.145
REMARK INTER + INTRA:         -10.402
REMARK INTER:                  -9.708
REMARK INTRA:                  -0.695
REMARK UNBOUND:                -0.682
REMARK SMILES Cc1nc(N2CC[C@H]3CCN(c4ncnc5[nH]ccc45)C[C@@]3(C)C2)ccc1Br
REMARK SMILES IDX 5 1 6 2 7 3 8 4 9 5 10 6 11 7 21 8 22 9 23 10 24 11 4 12
REMARK SMILES IDX 2 13 3 14 27 15 26 16 25 17 1 18 28 19 12 20 13 21 20 22
REMARK SMILES IDX 14 23 19 24 16 25 15 26 18 27 17 28
REMARK H PARENT 17 29
ROOT
ATOM      1  N   UNL     1       7.052 -23.244  21.786  1.00  0.00    -0.356 N 
ATOM      2  C   UNL     1       8.384 -23.284  21.187  1.00  0.00     0.118 C 
ATOM      3  C   UNL     1       8.611 -22.010  20.378  1.00  0.00     0.026 C 
ATOM      4  C   UNL     1       8.390 -20.741  21.225  1.00  0.00     0.002 C 
ATOM      5  C   UNL     1       8.557 -19.482  20.355  1.00  0.00     0.026 C 
ATOM      6  C   UNL     1       7.378 -19.245  19.409  1.00  0.00     0.118 C 
ATOM      7  N   UNL     1       6.118 -19.299  20.144  1.00  0.00    -0.355 N 
ATOM      8  C   UNL     1       5.867 -20.519  20.923  1.00  0.00     0.127 C 
ATOM      9  C   UNL     1       7.009 -20.756  21.941  1.00  0.00     0.006 C 
ATOM     10  C   UNL     1       6.957 -19.647  23.023  1.00  0.00     0.015 C 
ATOM     11  C   UNL     1       6.778 -22.106  22.664  1.00  0.00     0.126 C 
ENDROOT
BRANCH   1  12
ATOM     12  C   UNL     1       6.528 -24.480  22.166  1.00  0.00     0.128 A 
ATOM     13  C   UNL     1       6.752 -26.486  23.363  1.00  0.00     0.054 A 
ATOM     14  N   UNL     1       7.246 -25.272  22.993  1.00  0.00    -0.235 NA
ATOM     15  C   UNL     1       5.525 -26.958  22.907  1.00  0.00     0.039 A 
ATOM     16  C   UNL     1       4.790 -26.153  22.046  1.00  0.00     0.021 A 
ATOM     17  C   UNL     1       5.297 -24.909  21.673  1.00  0.00     0.048 A 
ATOM     18  C   UNL     1       7.622 -27.280  24.293  1.00  0.00     0.068 C 
ATOM     19  Br  UNL     1       4.815 -28.643  23.398  1.00  0.00    -0.049 Br
ENDBRANCH   1  12
BRANCH   7  20
ATOM     20  C   UNL     1       5.004 -18.781  19.476  1.00  0.00     0.141 A 
ATOM     21  N   UNL     1       5.063 -18.590  18.129  1.00  0.00    -0.219 NA
ATOM     22  C   UNL     1       3.783 -18.468  20.115  1.00  0.00     0.061 A 
ATOM     23  C   UNL     1       3.997 -18.075  17.486  1.00  0.00     0.226 A 
ATOM     24  C   UNL     1       3.242 -18.569  21.432  1.00  0.00     0.033 A 
ATOM     25  C   UNL     1       2.770 -17.950  19.320  1.00  0.00     0.142 A 
ATOM     26  N   UNL     1       2.811 -17.716  18.001  1.00  0.00    -0.218 NA
ATOM     27  C   UNL     1       1.951 -18.084  21.402  1.00  0.00     0.085 A 
ATOM     28  N   UNL     1       1.681 -17.707  20.111  1.00  0.00    -0.346 N 
ATOM     29  H   UNL     1       0.813 -17.324  19.765  1.00  0.00     0.167 HD
ENDBRANCH   7  20
TORSDOF 2
ENDMDL
MODEL 3
REMARK VINA RESULT:    -8.679      3.005      8.499
REMARK INTER + INTRA:         -10.375
REMARK INTER:                  -9.549
REMARK INTRA:                  -0.826
REMARK UNBOUND:                -0.682
REMARK SMILES Cc1nc(N2CC[C@H]3CCN(c4ncnc5[nH]ccc45)C[C@@]3(C)C2)ccc1Br
REMARK SMILES IDX 5 1 6 2 7 3 8 4 9 5 10 6 11 7 21 8 22 9 23 10 24 11 4 12
REMARK SMILES IDX 2 13 3 14 27 15 26 16 25 17 1 18 28 19 12 20 13 21 20 22
REMARK SMILES IDX 14 23 19 24 16 25 15 26 18 27 17 28
REMARK H PARENT 17 29
ROOT
ATOM      1  N   UNL     1       4.579 -21.928  20.743  1.00  0.00    -0.356 N 
ATOM      2  C   UNL     1       5.993 -21.817  20.394  1.00  0.00     0.118 C 
ATOM      3  C   UNL     1       6.247 -20.458  19.750  1.00  0.00     0.026 C 
ATOM      4  C   UNL     1       5.775 -19.296  20.646  1.00  0.00     0.002 C 
ATOM      5  C   UNL     1       5.983 -17.949  19.930  1.00  0.00     0.026 C 
ATOM      6  C   UNL     1       4.971 -17.702  18.809  1.00  0.00     0.118 C 
ATOM      7  N   UNL     1       3.611 -17.915  19.297  1.00  0.00    -0.355 N 
ATOM      8  C   UNL     1       3.333 -19.220  19.912  1.00  0.00     0.127 C 
ATOM      9  C   UNL     1       4.297 -19.476  21.097  1.00  0.00     0.006 C 
ATOM     10  C   UNL     1       3.962 -18.485  22.240  1.00  0.00     0.015 C 
ATOM     11  C   UNL     1       4.059 -20.903  21.649  1.00  0.00     0.126 C 
ENDROOT
BRANCH   1  12
ATOM     12  C   UNL     1       4.104 -23.229  20.917  1.00  0.00     0.128 A 
ATOM     13  C   UNL     1       4.425 -25.402  21.742  1.00  0.00     0.054 A 
ATOM     14  N   UNL     1       4.870 -24.126  21.576  1.00  0.00    -0.235 NA
ATOM     15  C   UNL     1       3.199 -25.831  21.243  1.00  0.00     0.039 A 
ATOM     16  C   UNL     1       2.415 -24.916  20.552  1.00  0.00     0.021 A 
ATOM     17  C   UNL     1       2.873 -23.610  20.387  1.00  0.00     0.048 A 
ATOM     18  C   UNL     1       5.346 -26.313  22.499  1.00  0.00     0.068 C 
ATOM     19  Br  UNL     1       2.556 -27.599  21.452  1.00  0.00    -0.049 Br
ENDBRANCH   1  12
BRANCH   7  20
ATOM     20  C   UNL     1       2.590 -17.413  18.483  1.00  0.00     0.141 A 
ATOM     21  N   UNL     1       2.762 -17.393  17.133  1.00  0.00    -0.219 NA
ATOM     22  C   UNL     1       1.352 -16.946  18.979  1.00  0.00     0.061 A 
ATOM     23  C   UNL     1       1.786 -16.893  16.349  1.00  0.00     0.226 A 
ATOM     24  C   UNL     1       0.709 -16.851  20.250  1.00  0.00     0.033 A 
ATOM     25  C   UNL     1       0.441 -16.466  18.049  1.00  0.00     0.142 A 
ATOM     26  N   UNL     1       0.596 -16.399  16.719  1.00  0.00    -0.218 NA
ATOM     27  C   UNL     1      -0.538 -16.291  20.058  1.00  0.00     0.085 A 
ATOM     28  N   UNL     1      -0.684 -16.059  18.714  1.00  0.00    -0.346 N 
ATOM     29  H   UNL     1      -1.493 -15.667  18.256  1.00  0.00     0.167 HD
ENDBRANCH   7  20
TORSDOF 2
ENDMDL
MODEL 4
REMARK VINA RESULT:    -8.554      3.947      5.789
REMARK INTER + INTRA:         -10.236
REMARK INTER:                  -9.733
REMARK INTRA:                  -0.502
REMARK UNBOUND:                -0.682
REMARK SMILES Cc1nc(N2CC[C@H]3CCN(c4ncnc5[nH]ccc45)C[C@@]3(C)C2)ccc1Br
REMARK SMILES IDX 5 1 6 2 7 3 8 4 9 5 10 6 11 7 21 8 22 9 23 10 24 11 4 12
REMARK SMILES IDX 2 13 3 14 27 15 26 16 25 17 1 18 28 19 12 20 13 21 20 22
REMARK SMILES IDX 14 23 19 24 16 25 15 26 18 27 17 28
REMARK H PARENT 17 29
ROOT
ATOM      1  N   UNL     1       8.198 -20.053  21.349  1.00  0.00    -0.356 N 
ATOM      2  C   UNL     1       7.798 -19.668  19.998  1.00  0.00     0.118 C 
ATOM      3  C   UNL     1       6.660 -20.571  19.533  1.00  0.00     0.026 C 
ATOM      4  C   UNL     1       5.474 -20.560  20.517  1.00  0.00     0.002 C 
ATOM      5  C   UNL     1       4.381 -21.537  20.049  1.00  0.00     0.026 C 
ATOM      6  C   UNL     1       4.752 -23.005  20.271  1.00  0.00     0.118 C 
ATOM      7  N   UNL     1       5.191 -23.216  21.648  1.00  0.00    -0.355 N 
ATOM      8  C   UNL     1       6.294 -22.367  22.120  1.00  0.00     0.127 C 
ATOM      9  C   UNL     1       5.926 -20.870  21.973  1.00  0.00     0.006 C 
ATOM     10  C   UNL     1       4.788 -20.532  22.970  1.00  0.00     0.015 C 
ATOM     11  C   UNL     1       7.147 -20.003  22.367  1.00  0.00     0.126 C 
ENDROOT
BRANCH   1  12
ATOM     12  C   UNL     1       9.475 -19.646  21.736  1.00  0.00     0.128 A 
ATOM     13  C   UNL     1      11.585 -18.796  21.159  1.00  0.00     0.054 A 
ATOM     14  N   UNL     1      10.331 -19.184  20.798  1.00  0.00    -0.235 NA
ATOM     15  C   UNL     1      12.033 -18.868  22.474  1.00  0.00     0.039 A 
ATOM     16  C   UNL     1      11.162 -19.355  23.440  1.00  0.00     0.021 A 
ATOM     17  C   UNL     1       9.878 -19.748  23.066  1.00  0.00     0.048 A 
ATOM     18  C   UNL     1      12.449 -18.287  20.043  1.00  0.00     0.068 C 
ATOM     19  Br  UNL     1      13.772 -18.342  23.007  1.00  0.00    -0.049 Br
ENDBRANCH   1  12
BRANCH   7  20
ATOM     20  C   UNL     1       5.244 -24.548  22.069  1.00  0.00     0.141 A 
ATOM     21  N   UNL     1       6.298 -24.969  22.821  1.00  0.00    -0.219 NA
ATOM     22  C   UNL     1       4.236 -25.498  21.791  1.00  0.00     0.061 A 
ATOM     23  C   UNL     1       6.359 -26.257  23.213  1.00  0.00     0.226 A 
ATOM     24  C   UNL     1       2.964 -25.506  21.141  1.00  0.00     0.033 A 
ATOM     25  C   UNL     1       4.434 -26.786  22.267  1.00  0.00     0.142 A 
ATOM     26  N   UNL     1       5.477 -27.239  22.975  1.00  0.00    -0.218 NA
ATOM     27  C   UNL     1       2.456 -26.787  21.211  1.00  0.00     0.085 A 
ATOM     28  N   UNL     1       3.364 -27.554  21.895  1.00  0.00    -0.346 N 
ATOM     29  H   UNL     1       3.274 -28.534  22.121  1.00  0.00     0.167 HD
ENDBRANCH   7  20
TORSDOF 2
ENDMDL
MODEL 5
REMARK VINA RESULT:    -8.449      3.908      5.774
REMARK INTER + INTRA:         -10.119
REMARK INTER:                  -9.596
REMARK INTRA:                  -0.523
REMARK UNBOUND:                -0.682
REMARK SMILES Cc1nc(N2CC[C@H]3CCN(c4ncnc5[nH]ccc45)C[C@@]3(C)C2)ccc1Br
REMARK SMILES IDX 5 1 6 2 7 3 8 4 9 5 10 6 11 7 21 8 22 9 23 10 24 11 4 12
REMARK SMILES IDX 2 13 3 14 27 15 26 16 25 17 1 18 28 19 12 20 13 21 20 22
REMARK SMILES IDX 14 23 19 24 16 25 15 26 18 27 17 28
REMARK H PARENT 17 29
ROOT
ATOM      1  N   UNL     1       8.168 -20.046  21.436  1.00  0.00    -0.356 N 
ATOM      2  C   UNL     1       7.816 -19.671  20.069  1.00  0.00     0.118 C 
ATOM      3  C   UNL     1       6.692 -20.575  19.572  1.00  0.00     0.026 C 
ATOM      4  C   UNL     1       5.473 -20.553  20.515  1.00  0.00     0.002 C 
ATOM      5  C   UNL     1       4.393 -21.531  20.018  1.00  0.00     0.026 C 
ATOM      6  C   UNL     1       4.753 -22.998  20.264  1.00  0.00     0.118 C 
ATOM      7  N   UNL     1       5.144 -23.199  21.656  1.00  0.00    -0.355 N 
ATOM      8  C   UNL     1       6.232 -22.350  22.159  1.00  0.00     0.127 C 
ATOM      9  C   UNL     1       5.874 -20.853  21.988  1.00  0.00     0.006 C 
ATOM     10  C   UNL     1       4.704 -20.504  22.943  1.00  0.00     0.015 C 
ATOM     11  C   UNL     1       7.083 -19.986  22.417  1.00  0.00     0.126 C 
ENDROOT
BRANCH   1  12
ATOM     12  C   UNL     1       9.433 -19.640  21.862  1.00  0.00     0.128 A 
ATOM     13  C   UNL     1      11.139 -19.707  23.472  1.00  0.00     0.054 A 
ATOM     14  N   UNL     1       9.912 -20.105  23.037  1.00  0.00    -0.235 NA
ATOM     15  C   UNL     1      11.929 -18.817  22.751  1.00  0.00     0.039 A 
ATOM     16  C   UNL     1      11.435 -18.325  21.550  1.00  0.00     0.021 A 
ATOM     17  C   UNL     1      10.179 -18.738  21.106  1.00  0.00     0.048 A 
ATOM     18  C   UNL     1      11.581 -20.293  24.781  1.00  0.00     0.068 C 
ATOM     19  Br  UNL     1      13.635 -18.240  23.331  1.00  0.00    -0.049 Br
ENDBRANCH   1  12
BRANCH   7  20
ATOM     20  C   UNL     1       5.178 -24.528  22.090  1.00  0.00     0.141 A 
ATOM     21  N   UNL     1       6.212 -24.949  22.870  1.00  0.00    -0.219 NA
ATOM     22  C   UNL     1       4.171 -25.474  21.795  1.00  0.00     0.061 A 
ATOM     23  C   UNL     1       6.255 -26.234  23.274  1.00  0.00     0.226 A 
ATOM     24  C   UNL     1       2.916 -25.480  21.115  1.00  0.00     0.033 A 
ATOM     25  C   UNL     1       4.350 -26.759  22.286  1.00  0.00     0.142 A 
ATOM     26  N   UNL     1       5.374 -27.213  23.023  1.00  0.00    -0.218 NA
ATOM     27  C   UNL     1       2.398 -26.757  21.184  1.00  0.00     0.085 A 
ATOM     28  N   UNL     1       3.285 -27.524  21.895  1.00  0.00    -0.346 N 
ATOM     29  H   UNL     1       3.183 -28.502  22.127  1.00  0.00     0.167 HD
ENDBRANCH   7  20
TORSDOF 2
ENDMDL
MODEL 6
REMARK VINA RESULT:    -8.446      4.836      8.408
REMARK INTER + INTRA:         -10.116
REMARK INTER:                  -9.553
REMARK INTRA:                  -0.563
REMARK UNBOUND:                -0.682
REMARK SMILES Cc1nc(N2CC[C@H]3CCN(c4ncnc5[nH]ccc45)C[C@@]3(C)C2)ccc1Br
REMARK SMILES IDX 5 1 6 2 7 3 8 4 9 5 10 6 11 7 21 8 22 9 23 10 24 11 4 12
REMARK SMILES IDX 2 13 3 14 27 15 26 16 25 17 1 18 28 19 12 20 13 21 20 22
REMARK SMILES IDX 14 23 19 24 16 25 15 26 18 27 17 28
REMARK H PARENT 17 29
ROOT
ATOM      1  N   UNL     1       6.603 -23.222  21.818  1.00  0.00    -0.356 N 
ATOM      2  C   UNL     1       5.629 -22.376  21.135  1.00  0.00     0.118 C 
ATOM      3  C   UNL     1       6.022 -20.912  21.310  1.00  0.00     0.026 C 
ATOM      4  C   UNL     1       7.463 -20.640  20.837  1.00  0.00     0.002 C 
ATOM      5  C   UNL     1       7.843 -19.171  21.098  1.00  0.00     0.026 C 
ATOM      6  C   UNL     1       8.106 -18.872  22.576  1.00  0.00     0.118 C 
ATOM      7  N   UNL     1       9.048 -19.840  23.131  1.00  0.00    -0.355 N 
ATOM      8  C   UNL     1       8.690 -21.258  22.986  1.00  0.00     0.127 C 
ATOM      9  C   UNL     1       8.482 -21.615  21.494  1.00  0.00     0.006 C 
ATOM     10  C   UNL     1       9.846 -21.534  20.763  1.00  0.00     0.015 C 
ATOM     11  C   UNL     1       7.994 -23.080  21.382  1.00  0.00     0.126 C 
ENDROOT
BRANCH   1  12
ATOM     12  C   UNL     1       6.165 -24.509  22.132  1.00  0.00     0.128 A 
ATOM     13  C   UNL     1       6.512 -26.545  23.247  1.00  0.00     0.054 A 
ATOM     14  N   UNL     1       6.921 -25.282  22.943  1.00  0.00    -0.235 NA
ATOM     15  C   UNL     1       5.335 -27.085  22.740  1.00  0.00     0.039 A 
ATOM     16  C   UNL     1       4.562 -26.300  21.894  1.00  0.00     0.021 A 
ATOM     17  C   UNL     1       4.982 -25.006  21.588  1.00  0.00     0.048 A 
ATOM     18  C   UNL     1       7.417 -27.312  24.166  1.00  0.00     0.068 C 
ATOM     19  Br  UNL     1       4.743 -28.838  23.139  1.00  0.00    -0.049 Br
ENDBRANCH   1  12
BRANCH   7  20
ATOM     20  C   UNL     1       9.619 -19.493  24.359  1.00  0.00     0.141 A 
ATOM     21  N   UNL     1       9.253 -18.328  24.960  1.00  0.00    -0.219 NA
ATOM     22  C   UNL     1      10.546 -20.307  25.049  1.00  0.00     0.061 A 
ATOM     23  C   UNL     1       9.815 -17.985  26.136  1.00  0.00     0.226 A 
ATOM     24  C   UNL     1      11.142 -21.591  24.866  1.00  0.00     0.033 A 
ATOM     25  C   UNL     1      11.035 -19.823  26.254  1.00  0.00     0.142 A 
ATOM     26  N   UNL     1      10.723 -18.665  26.852  1.00  0.00    -0.218 NA
ATOM     27  C   UNL     1      11.988 -21.826  25.930  1.00  0.00     0.085 A 
ATOM     28  N   UNL     1      11.915 -20.740  26.763  1.00  0.00    -0.346 N 
ATOM     29  H   UNL     1      12.408 -20.616  27.635  1.00  0.00     0.167 HD
ENDBRANCH   7  20
TORSDOF 2
ENDMDL
MODEL 7
REMARK VINA RESULT:    -8.403      4.012      8.588
REMARK INTER + INTRA:         -10.067
REMARK INTER:                  -9.216
REMARK INTRA:                  -0.852
REMARK UNBOUND:                -0.682
REMARK SMILES Cc1nc(N2CC[C@H]3CCN(c4ncnc5[nH]ccc45)C[C@@]3(C)C2)ccc1Br
REMARK SMILES IDX 5 1 6 2 7 3 8 4 9 5 10 6 11 7 21 8 22 9 23 10 24 11 4 12
REMARK SMILES IDX 2 13 3 14 27 15 26 16 25 17 1 18 28 19 12 20 13 21 20 22
REMARK SMILES IDX 14 23 19 24 16 25 15 26 18 27 17 28
REMARK H PARENT 17 29
ROOT
ATOM      1  N   UNL     1       6.330 -25.458  22.584  1.00  0.00    -0.356 N 
ATOM      2  C   UNL     1       5.098 -26.239  22.519  1.00  0.00     0.118 C 
ATOM      3  C   UNL     1       3.991 -25.384  21.910  1.00  0.00     0.026 C 
ATOM      4  C   UNL     1       4.392 -24.812  20.537  1.00  0.00     0.002 C 
ATOM      5  C   UNL     1       3.279 -23.898  19.992  1.00  0.00     0.026 C 
ATOM      6  C   UNL     1       3.207 -22.547  20.707  1.00  0.00     0.118 C 
ATOM      7  N   UNL     1       4.526 -21.923  20.747  1.00  0.00    -0.355 N 
ATOM      8  C   UNL     1       5.609 -22.719  21.338  1.00  0.00     0.127 C 
ATOM      9  C   UNL     1       5.757 -24.069  20.594  1.00  0.00     0.006 C 
ATOM     10  C   UNL     1       6.280 -23.799  19.160  1.00  0.00     0.015 C 
ATOM     11  C   UNL     1       6.824 -24.933  21.310  1.00  0.00     0.126 C 
ENDROOT
BRANCH   1  12
ATOM     12  C   UNL     1       7.283 -25.916  23.494  1.00  0.00     0.128 A 
ATOM     13  C   UNL     1       9.317 -25.596  24.622  1.00  0.00     0.054 A 
ATOM     14  N   UNL     1       8.372 -25.156  23.745  1.00  0.00    -0.235 NA
ATOM     15  C   UNL     1       9.212 -26.823  25.271  1.00  0.00     0.039 A 
ATOM     16  C   UNL     1       8.102 -27.614  25.005  1.00  0.00     0.021 A 
ATOM     17  C   UNL     1       7.135 -27.158  24.110  1.00  0.00     0.048 A 
ATOM     18  C   UNL     1      10.477 -24.670  24.838  1.00  0.00     0.068 C 
ATOM     19  Br  UNL     1      10.510 -27.465  26.489  1.00  0.00    -0.049 Br
ENDBRANCH   1  12
BRANCH   7  20
ATOM     20  C   UNL     1       4.542 -20.563  21.072  1.00  0.00     0.141 A 
ATOM     21  N   UNL     1       3.591 -20.065  21.910  1.00  0.00    -0.219 NA
ATOM     22  C   UNL     1       5.522 -19.658  20.606  1.00  0.00     0.061 A 
ATOM     23  C   UNL     1       3.596 -18.752  22.211  1.00  0.00     0.226 A 
ATOM     24  C   UNL     1       6.706 -19.724  19.811  1.00  0.00     0.033 A 
ATOM     25  C   UNL     1       5.400 -18.335  21.006  1.00  0.00     0.142 A 
ATOM     26  N   UNL     1       4.455 -17.809  21.798  1.00  0.00    -0.218 NA
ATOM     27  C   UNL     1       7.237 -18.453  19.726  1.00  0.00     0.085 A 
ATOM     28  N   UNL     1       6.428 -17.619  20.454  1.00  0.00    -0.346 N 
ATOM     29  H   UNL     1       6.557 -16.628  20.595  1.00  0.00     0.167 HD
ENDBRANCH   7  20
TORSDOF 2
ENDMDL
MODEL 8
REMARK VINA RESULT:    -8.135      3.416      6.286
REMARK INTER + INTRA:          -9.768
REMARK INTER:                  -9.007
REMARK INTRA:                  -0.761
REMARK UNBOUND:                -0.682
REMARK SMILES Cc1nc(N2CC[C@H]3CCN(c4ncnc5[nH]ccc45)C[C@@]3(C)C2)ccc1Br
REMARK SMILES IDX 5 1 6 2 7 3 8 4 9 5 10 6 11 7 21 8 22 9 23 10 24 11 4 12
REMARK SMILES IDX 2 13 3 14 27 15 26 16 25 17 1 18 28 19 12 20 13 21 20 22
REMARK SMILES IDX 14 23 19 24 16 25 15 26 18 27 17 28
REMARK H PARENT 17 29
ROOT
ATOM      1  N   UNL     1       4.607 -20.856  20.673  1.00  0.00    -0.356 N 
ATOM      2  C   UNL     1       4.744 -21.781  19.551  1.00  0.00     0.118 C 
ATOM      3  C   UNL     1       6.094 -22.486  19.642  1.00  0.00     0.026 C 
ATOM      4  C   UNL     1       6.290 -23.186  21.001  1.00  0.00     0.002 C 
ATOM      5  C   UNL     1       7.689 -23.822  21.078  1.00  0.00     0.026 C 
ATOM      6  C   UNL     1       8.806 -22.794  21.271  1.00  0.00     0.118 C 
ATOM      7  N   UNL     1       8.492 -21.906  22.386  1.00  0.00    -0.355 N 
ATOM      8  C   UNL     1       7.203 -21.204  22.320  1.00  0.00     0.127 C 
ATOM      9  C   UNL     1       6.040 -22.218  22.193  1.00  0.00     0.006 C 
ATOM     10  C   UNL     1       5.922 -23.017  23.515  1.00  0.00     0.015 C 
ATOM     11  C   UNL     1       4.709 -21.449  22.008  1.00  0.00     0.126 C 
ENDROOT
BRANCH   1  12
ATOM     12  C   UNL     1       3.668 -19.839  20.500  1.00  0.00     0.128 A 
ATOM     13  C   UNL     1       2.756 -18.136  19.167  1.00  0.00     0.054 A 
ATOM     14  N   UNL     1       3.659 -19.140  19.344  1.00  0.00    -0.235 NA
ATOM     15  C   UNL     1       1.835 -17.786  20.150  1.00  0.00     0.039 A 
ATOM     16  C   UNL     1       1.849 -18.492  21.346  1.00  0.00     0.021 A 
ATOM     17  C   UNL     1       2.773 -19.521  21.521  1.00  0.00     0.048 A 
ATOM     18  C   UNL     1       2.823 -17.434  17.843  1.00  0.00     0.068 C 
ATOM     19  Br  UNL     1       0.573 -16.392  19.936  1.00  0.00    -0.049 Br
ENDBRANCH   1  12
BRANCH   7  20
ATOM     20  C   UNL     1       9.559 -21.144  22.873  1.00  0.00     0.141 A 
ATOM     21  N   UNL     1      10.125 -21.474  24.067  1.00  0.00    -0.219 NA
ATOM     22  C   UNL     1      10.124 -20.052  22.176  1.00  0.00     0.061 A 
ATOM     23  C   UNL     1      11.142 -20.731  24.545  1.00  0.00     0.226 A 
ATOM     24  C   UNL     1       9.933 -19.412  20.915  1.00  0.00     0.033 A 
ATOM     25  C   UNL     1      11.173 -19.386  22.792  1.00  0.00     0.142 A 
ATOM     26  N   UNL     1      11.726 -19.663  23.981  1.00  0.00    -0.218 NA
ATOM     27  C   UNL     1      10.834 -18.371  20.822  1.00  0.00     0.085 A 
ATOM     28  N   UNL     1      11.578 -18.366  21.974  1.00  0.00    -0.346 N 
ATOM     29  H   UNL     1      12.329 -17.731  22.203  1.00  0.00     0.167 HD
ENDBRANCH   7  20
TORSDOF 2
ENDMDL
MODEL 9
REMARK VINA RESULT:    -8.068      4.724      8.279
REMARK INTER + INTRA:          -9.693
REMARK INTER:                  -8.952
REMARK INTRA:                  -0.742
REMARK UNBOUND:                -0.682
REMARK SMILES Cc1nc(N2CC[C@H]3CCN(c4ncnc5[nH]ccc45)C[C@@]3(C)C2)ccc1Br
REMARK SMILES IDX 5 1 6 2 7 3 8 4 9 5 10 6 11 7 21 8 22 9 23 10 24 11 4 12
REMARK SMILES IDX 2 13 3 14 27 15 26 16 25 17 1 18 28 19 12 20 13 21 20 22
REMARK SMILES IDX 14 23 19 24 16 25 15 26 18 27 17 28
REMARK H PARENT 17 29
ROOT
ATOM      1  N   UNL     1       5.921 -22.032  21.853  1.00  0.00    -0.356 N 
ATOM      2  C   UNL     1       4.985 -21.129  22.518  1.00  0.00     0.118 C 
ATOM      3  C   UNL     1       5.588 -19.728  22.571  1.00  0.00     0.026 C 
ATOM      4  C   UNL     1       5.995 -19.221  21.174  1.00  0.00     0.002 C 
ATOM      5  C   UNL     1       6.663 -17.838  21.280  1.00  0.00     0.026 C 
ATOM      6  C   UNL     1       8.085 -17.900  21.843  1.00  0.00     0.118 C 
ATOM      7  N   UNL     1       8.876 -18.891  21.117  1.00  0.00    -0.355 N 
ATOM      8  C   UNL     1       8.325 -20.252  21.059  1.00  0.00     0.127 C 
ATOM      9  C   UNL     1       6.910 -20.237  20.432  1.00  0.00     0.006 C 
ATOM     10  C   UNL     1       7.027 -19.856  18.934  1.00  0.00     0.015 C 
ATOM     11  C   UNL     1       6.309 -21.663  20.490  1.00  0.00     0.126 C 
ENDROOT
BRANCH   1  12
ATOM     12  C   UNL     1       5.733 -23.389  22.114  1.00  0.00     0.128 A 
ATOM     13  C   UNL     1       4.481 -25.351  21.806  1.00  0.00     0.054 A 
ATOM     14  N   UNL     1       4.684 -24.029  21.550  1.00  0.00    -0.235 NA
ATOM     15  C   UNL     1       5.316 -26.080  22.648  1.00  0.00     0.039 A 
ATOM     16  C   UNL     1       6.387 -25.424  23.240  1.00  0.00     0.021 A 
ATOM     17  C   UNL     1       6.594 -24.071  22.972  1.00  0.00     0.048 A 
ATOM     18  C   UNL     1       3.297 -25.966  21.121  1.00  0.00     0.068 C 
ATOM     19  Br  UNL     1       5.057 -27.916  23.028  1.00  0.00    -0.049 Br
ENDBRANCH   1  12
BRANCH   7  20
ATOM     20  C   UNL     1      10.259 -18.817  21.306  1.00  0.00     0.141 A 
ATOM     21  N   UNL     1      11.037 -18.265  20.334  1.00  0.00    -0.219 NA
ATOM     22  C   UNL     1      10.915 -19.256  22.478  1.00  0.00     0.061 A 
ATOM     23  C   UNL     1      12.372 -18.208  20.507  1.00  0.00     0.226 A 
ATOM     24  C   UNL     1      10.534 -19.803  23.741  1.00  0.00     0.033 A 
ATOM     25  C   UNL     1      12.296 -19.128  22.514  1.00  0.00     0.142 A 
ATOM     26  N   UNL     1      13.090 -18.624  21.560  1.00  0.00    -0.218 NA
ATOM     27  C   UNL     1      11.680 -20.019  24.477  1.00  0.00     0.085 A 
ATOM     28  N   UNL     1      12.744 -19.608  23.715  1.00  0.00    -0.346 N 
ATOM     29  H   UNL     1      13.717 -19.626  23.982  1.00  0.00     0.167 HD
ENDBRANCH   7  20
TORSDOF 2
ENDMDL
