REMARK SMILES O=C(NCc1cccc(-c2cccc(-c3cc4c[nH]ccc-4n3)c2O)c1)[C@@H](O)Cc1ccccc1
REMARK SMILES IDX 4 1 3 2 1 3 2 4 27 6 28 7 29 9 30 10 31 11 35 12 32 13 34 14
REMARK SMILES IDX 33 15 5 16 6 17 26 18 7 19 9 20 8 21 10 22 11 23 24 24 12 25
REMARK SMILES IDX 14 26 13 27 25 28 15 30 16 31 23 32 17 33 22 34 18 35 21 36
REMARK SMILES IDX 19 37 20 38
REMARK H PARENT 3 5 28 8 25 29 19 39
REMARK INDEX MAP 4 1 3 2 1 3 2 4 36 5 27 6 28 7 53 8 29 9 30 10 31 11 35 12
REMARK INDEX MAP 32 13 34 14 33 15 5 16 6 17 26 18 7 19 9 20 8 21 10 22 11 23
REMARK INDEX MAP 24 24 12 25 14 26 13 27 25 28 50 29 15 30 16 31 23 32 17 33
REMARK INDEX MAP 22 34 18 35 21 36 19 37 20 38 47 39
ROOT
ATOM      1  C   UNL     1      -7.851  12.902  19.470  1.00  0.00     0.151 C 
ENDROOT
BRANCH   1   2
ATOM      2  N   UNL     1      -6.875  11.838  19.390  1.00  0.00    -0.350 N 
ATOM      3  O   UNL     1      -5.164  13.118  18.548  1.00  0.00    -0.272 OA
ATOM      4  C   UNL     1      -5.590  12.038  18.959  1.00  0.00     0.249 C 
ATOM      5  H   UNL     1      -7.158  10.888  19.669  1.00  0.00     0.163 HD
BRANCH   4   6
ATOM      6  C   UNL     1      -4.680  10.796  18.976  1.00  0.00     0.207 C 
BRANCH   6   7
ATOM      7  O   UNL     1      -3.334  11.197  19.276  1.00  0.00    -0.383 OA
ATOM      8  H   UNL     1      -3.212  11.233  20.258  1.00  0.00     0.211 HD
ENDBRANCH   6   7
BRANCH   6   9
ATOM      9  C   UNL     1      -5.122   9.778  20.034  1.00  0.00     0.077 C 
BRANCH   9  10
ATOM     10  C   UNL     1      -5.493   8.429  19.465  1.00  0.00    -0.045 A 
ATOM     11  C   UNL     1      -4.535   7.653  18.797  1.00  0.00     0.004 A 
ATOM     12  C   UNL     1      -6.790   7.922  19.621  1.00  0.00     0.004 A 
ATOM     13  C   UNL     1      -4.863   6.385  18.316  1.00  0.00     0.000 A 
ATOM     14  C   UNL     1      -7.118   6.656  19.133  1.00  0.00     0.000 A 
ATOM     15  C   UNL     1      -6.153   5.886  18.483  1.00  0.00     0.000 A 
ENDBRANCH   9  10
ENDBRANCH   6   9
ENDBRANCH   4   6
ENDBRANCH   1   2
BRANCH   1  16
ATOM     16  C   UNL     1      -8.129  13.241  20.911  1.00  0.00    -0.028 A 
ATOM     17  C   UNL     1      -9.443  13.349  21.385  1.00  0.00     0.005 A 
ATOM     18  C   UNL     1      -7.065  13.397  21.813  1.00  0.00     0.014 A 
ATOM     19  C   UNL     1      -9.685  13.621  22.731  1.00  0.00     0.001 A 
ATOM     20  C   UNL     1      -7.293  13.660  23.173  1.00  0.00    -0.014 A 
ATOM     21  C   UNL     1      -8.617  13.774  23.617  1.00  0.00     0.009 A 
BRANCH  20  22
ATOM     22  C   UNL     1      -6.168  13.782  24.113  1.00  0.00     0.024 A 
ATOM     23  C   UNL     1      -6.045  14.942  24.893  1.00  0.00     0.012 A 
ATOM     24  C   UNL     1      -5.201  12.768  24.271  1.00  0.00     0.132 A 
ATOM     25  C   UNL     1      -4.995  15.089  25.798  1.00  0.00     0.002 A 
ATOM     26  C   UNL     1      -4.139  12.885  25.197  1.00  0.00     0.043 A 
ATOM     27  C   UNL     1      -4.052  14.071  25.946  1.00  0.00     0.014 A 
BRANCH  24  28
ATOM     28  O   UNL     1      -5.326  11.646  23.480  1.00  0.00    -0.507 OA
ATOM     29  H   UNL     1      -6.074  11.576  22.835  1.00  0.00     0.293 HD
ENDBRANCH  24  28
BRANCH  26  30
ATOM     30  C   UNL     1      -3.135  11.807  25.368  1.00  0.00     0.075 A 
ATOM     31  C   UNL     1      -2.054  11.602  24.583  1.00  0.00     0.041 A 
ATOM     32  N   UNL     1      -3.237  10.914  26.449  1.00  0.00    -0.248 NA
ATOM     33  C   UNL     1      -1.377  10.491  25.155  1.00  0.00     0.018 A 
ATOM     34  C   UNL     1      -2.203  10.127  26.328  1.00  0.00     0.074 A 
ATOM     35  C   UNL     1      -0.273   9.785  24.901  1.00  0.00     0.092 A 
ATOM     36  C   UNL     1      -1.788   8.994  27.178  1.00  0.00     0.046 A 
ATOM     37  N   UNL     1       0.092   8.732  25.710  1.00  0.00    -0.367 N 
ATOM     38  C   UNL     1      -0.658   8.367  26.807  1.00  0.00     0.084 A 
ATOM     39  H   UNL     1       0.948   8.203  25.489  1.00  0.00     0.165 HD
ENDBRANCH  26  30
ENDBRANCH  20  22
ENDBRANCH   1  16
TORSDOF 9
