REMARK VINA RESULT:    -8.564      0.000      0.000
REMARK INTER + INTRA:         -14.631
REMARK INTER:                 -13.070
REMARK INTRA:                  -1.561
REMARK UNBOUND:                -1.561
REMARK SMILES O=C(O)COc1cccc2c1CCN(S(=O)(=O)c1cccc(C(=O)Nc3ccc(Cl)cc3C(=O)O)c1)C2
REMARK SMILES IDX 15 1 16 2 17 3 14 4 6 5 7 6 11 7 8 8 10 9 12 10 9 11 37 12
REMARK SMILES IDX 13 13 5 14 4 15 2 16 1 17 3 18 18 20 19 21 36 22 20 23 22 24
REMARK SMILES IDX 21 25 23 26 24 27 25 28 26 30 27 31 32 32 28 33 31 34 29 35
REMARK SMILES IDX 30 36 33 37 34 38 35 39
REMARK H PARENT 3 19 25 29 35 40
ROOT
ATOM      1  S   UNL     1      10.482  11.118  -6.875  1.00  0.00     0.243 S 
ATOM      2  O   UNL     1      11.282  10.236  -6.053  1.00  0.00    -0.207 OA
ATOM      3  O   UNL     1       9.124  11.457  -6.500  1.00  0.00    -0.207 OA
ENDROOT
BRANCH   1   4
ATOM      4  N   UNL     1      10.461  10.507  -8.452  1.00  0.00    -0.193 NA
ATOM      5  C   UNL     1      10.316   8.993 -12.452  1.00  0.00     0.123 A 
ATOM      6  C   UNL     1      10.457   9.861 -13.537  1.00  0.00     0.047 A 
ATOM      7  C   UNL     1      10.277   9.515 -11.144  1.00  0.00    -0.000 A 
ATOM      8  C   UNL     1      10.573  11.237 -13.330  1.00  0.00     0.004 A 
ATOM      9  C   UNL     1      10.418  10.902 -10.934  1.00  0.00    -0.026 A 
ATOM     10  C   UNL     1      10.156   8.592  -9.950  1.00  0.00     0.056 C 
ATOM     11  C   UNL     1      10.554  11.755 -12.038  1.00  0.00     0.005 A 
ATOM     12  C   UNL     1      10.387  11.504  -9.543  1.00  0.00     0.138 C 
ATOM     13  C   UNL     1       9.628   9.314  -8.712  1.00  0.00     0.108 C 
BRANCH   5  14
ATOM     14  O   UNL     1      10.199   7.632 -12.551  1.00  0.00    -0.482 OA
BRANCH  14  15
ATOM     15  C   UNL     1      11.200   6.936 -13.283  1.00  0.00     0.351 C 
BRANCH  15  16
ATOM     16  C   UNL     1      12.518   6.989 -12.535  1.00  0.00     0.341 C 
ATOM     17  O   UNL     1      13.513   7.641 -12.804  1.00  0.00    -0.248 OA
BRANCH  16  18
ATOM     18  O   UNL     1      12.512   6.192 -11.442  1.00  0.00    -0.479 OA
ATOM     19  H   UNL     1      11.588   6.253 -11.119  1.00  0.00     0.296 HD
ENDBRANCH  16  18
ENDBRANCH  15  16
ENDBRANCH  14  15
ENDBRANCH   5  14
ENDBRANCH   1   4
BRANCH   1  20
ATOM     20  C   UNL     1      11.377  12.651  -7.031  1.00  0.00     0.083 A 
ATOM     21  C   UNL     1      10.703  13.867  -6.875  1.00  0.00     0.022 A 
ATOM     22  C   UNL     1      12.758  12.624  -7.246  1.00  0.00     0.035 A 
ATOM     23  C   UNL     1      11.409  15.064  -6.980  1.00  0.00     0.002 A 
ATOM     24  C   UNL     1      13.466  13.828  -7.343  1.00  0.00     0.041 A 
ATOM     25  C   UNL     1      12.786  15.049  -7.223  1.00  0.00     0.014 A 
BRANCH  24  26
ATOM     26  C   UNL     1      14.930  13.762  -7.615  1.00  0.00     0.255 C 
ATOM     27  O   UNL     1      15.366  12.754  -8.159  1.00  0.00    -0.269 OA
ATOM     28  N   UNL     1      15.656  14.857  -7.192  1.00  0.00    -0.321 N 
ATOM     29  H   UNL     1      15.147  15.578  -6.680  1.00  0.00     0.170 HD
BRANCH  28  30
ATOM     30  C   UNL     1      17.047  15.101  -7.334  1.00  0.00     0.056 A 
ATOM     31  C   UNL     1      17.646  15.289  -8.586  1.00  0.00     0.028 A 
ATOM     32  C   UNL     1      17.866  15.162  -6.179  1.00  0.00     0.084 A 
ATOM     33  C   UNL     1      19.020  15.524  -8.699  1.00  0.00     0.023 A 
ATOM     34  C   UNL     1      19.247  15.398  -6.300  1.00  0.00     0.038 A 
ATOM     35  C   UNL     1      19.813  15.576  -7.558  1.00  0.00     0.042 A 
ATOM     36  Cl  UNL     1      21.502  15.867  -7.703  1.00  0.00    -0.084 Cl
BRANCH  32  37
ATOM     37  C   UNL     1      17.272  14.984  -4.825  1.00  0.00     0.337 C 
ATOM     38  O   UNL     1      16.372  15.659  -4.355  1.00  0.00    -0.246 OA
BRANCH  37  39
ATOM     39  O   UNL     1      17.820  13.974  -4.128  1.00  0.00    -0.478 OA
ATOM     40  H   UNL     1      18.284  13.427  -4.794  1.00  0.00     0.297 HD
ENDBRANCH  37  39
ENDBRANCH  32  37
ENDBRANCH  28  30
ENDBRANCH  24  26
ENDBRANCH   1  20
TORSDOF 10
