REMARK SMILES O=C(NCCN1CCCCC1)Nc1ccc2ncnc(Nc3ccc(OCc4cccc(F)c4)c(Cl)c3)c2c1
REMARK SMILES IDX 21 1 20 3 13 4 14 5 39 6 15 7 38 8 16 9 17 10 19 11 18 12
REMARK SMILES IDX 12 13 1 14 2 15 3 16 4 19 5 20 6 21 7 22 11 23 8 24 10 25
REMARK SMILES IDX 9 26 22 27 23 28 37 29 24 30 35 31 25 32 36 33 26 34 27 35
REMARK SMILES IDX 28 36 29 37 34 38 30 39 32 40 31 41 33 42
REMARK H PARENT 21 2 3 17 12 18
REMARK INDEX MAP 21 1 59 2 20 3 13 4 14 5 39 6 15 7 38 8 16 9 17 10 19 11
REMARK INDEX MAP 18 12 12 13 1 14 2 15 3 16 40 17 55 18 4 19 5 20 6 21 7 22
REMARK INDEX MAP 11 23 8 24 10 25 9 26 22 27 23 28 37 29 24 30 35 31 25 32
REMARK INDEX MAP 36 33 26 34 27 35 28 36 29 37 34 38 30 39 32 40 31 41 33 42
ROOT
ATOM      1  N   UNL     1      20.571  33.030  15.993  1.00  0.00    -0.340 N 
ATOM      2  H   UNL     1      20.386  32.063  16.296  1.00  0.00     0.168 HD
ENDROOT
BRANCH   1   3
ATOM      3  C   UNL     1      19.573  33.964  16.356  1.00  0.00     0.141 A 
ATOM      4  C   UNL     1      17.000  33.568  13.609  1.00  0.00     0.043 A 
ATOM      5  C   UNL     1      16.052  34.455  14.100  1.00  0.00     0.028 A 
ATOM      6  C   UNL     1      18.183  33.392  14.336  1.00  0.00     0.040 A 
ATOM      7  C   UNL     1      16.292  35.158  15.287  1.00  0.00     0.031 A 
ATOM      8  C   UNL     1      18.420  34.091  15.552  1.00  0.00     0.045 A 
ATOM      9  C   UNL     1      17.459  34.997  16.019  1.00  0.00     0.076 A 
ATOM     10  N   UNL     1      17.618  35.711  17.135  1.00  0.00    -0.236 NA
ATOM     11  N   UNL     1      19.750  34.700  17.468  1.00  0.00    -0.219 NA
ATOM     12  C   UNL     1      18.761  35.533  17.804  1.00  0.00     0.224 A 
BRANCH   4  13
ATOM     13  N   UNL     1      16.854  32.830  12.419  1.00  0.00    -0.308 N 
ATOM     14  O   UNL     1      17.224  34.427  10.767  1.00  0.00    -0.249 OA
ATOM     15  C   UNL     1      16.968  33.285  11.123  1.00  0.00     0.319 C 
ATOM     16  N   UNL     1      16.760  32.268  10.224  1.00  0.00    -0.337 N 
ATOM     17  H   UNL     1      16.552  31.325  10.582  1.00  0.00     0.165 HD
ATOM     18  H   UNL     1      16.636  31.830  12.530  1.00  0.00     0.171 HD
BRANCH  16  19
ATOM     19  C   UNL     1      16.822  32.471   8.788  1.00  0.00     0.133 C 
BRANCH  19  20
ATOM     20  C   UNL     1      17.626  31.342   8.118  1.00  0.00     0.105 C 
BRANCH  20  21
ATOM     21  N   UNL     1      16.797  30.155   7.789  1.00  0.00    -0.302 NA
ATOM     22  C   UNL     1      17.352  29.473   6.607  1.00  0.00     0.084 C 
ATOM     23  C   UNL     1      15.391  30.534   7.555  1.00  0.00     0.084 C 
ATOM     24  C   UNL     1      16.556  28.212   6.268  1.00  0.00     0.016 C 
ATOM     25  C   UNL     1      14.531  29.308   7.241  1.00  0.00     0.016 C 
ATOM     26  C   UNL     1      15.083  28.530   6.053  1.00  0.00     0.003 C 
ENDBRANCH  20  21
ENDBRANCH  19  20
ENDBRANCH  16  19
ENDBRANCH   4  13
ENDBRANCH   1   3
BRANCH   1  27
ATOM     27  C   UNL     1      21.774  33.204  15.287  1.00  0.00     0.041 A 
ATOM     28  C   UNL     1      22.970  32.576  15.648  1.00  0.00     0.030 A 
ATOM     29  C   UNL     1      21.804  34.088  14.203  1.00  0.00     0.050 A 
ATOM     30  C   UNL     1      24.158  32.795  14.936  1.00  0.00     0.050 A 
ATOM     31  C   UNL     1      22.987  34.311  13.488  1.00  0.00     0.085 A 
ATOM     32  C   UNL     1      24.177  33.662  13.842  1.00  0.00     0.138 A 
ATOM     33  Cl  UNL     1      22.926  35.408  12.150  1.00  0.00    -0.080 Cl
BRANCH  32  34
ATOM     34  O   UNL     1      25.285  33.946  13.089  1.00  0.00    -0.487 OA
BRANCH  34  35
ATOM     35  C   UNL     1      25.465  33.226  11.871  1.00  0.00     0.265 C 
BRANCH  35  36
ATOM     36  C   UNL     1      26.708  32.376  11.992  1.00  0.00    -0.008 A 
ATOM     37  C   UNL     1      27.504  32.436  13.150  1.00  0.00     0.007 A 
ATOM     38  C   UNL     1      27.105  31.534  10.945  1.00  0.00     0.046 A 
ATOM     39  C   UNL     1      28.664  31.665  13.262  1.00  0.00     0.003 A 
ATOM     40  C   UNL     1      28.261  30.769  11.068  1.00  0.00     0.123 A 
ATOM     41  C   UNL     1      29.044  30.827  12.215  1.00  0.00     0.039 A 
ATOM     42  F   UNL     1      28.627  29.965  10.060  1.00  0.00    -0.207 F 
ENDBRANCH  35  36
ENDBRANCH  34  35
ENDBRANCH  32  34
ENDBRANCH   1  27
TORSDOF 9
