REMARK SMILES CN(C)CCN(C)c1ccc2cc1COC/C=C/COCc1cccc(c1)-c1ccnc(n1)N2
REMARK SMILES IDX 5 1 4 2 2 3 1 4 3 5 6 6 7 7 8 8 9 9 13 10 10 11 12 12 14 13
REMARK SMILES IDX 11 14 15 15 34 16 16 17 32 18 17 19 31 20 33 21 18 22 30 23
REMARK SMILES IDX 28 24 19 25 29 26 26 27 20 28 25 29 27 30 21 31 24 32 22 33
REMARK SMILES IDX 23 34
REMARK H PARENT 34 35
REMARK INDEX MAP 5 1 4 2 2 3 1 4 3 5 6 6 7 7 8 8 9 9 13 10 10 11 12 12 14 13
REMARK INDEX MAP 11 14 15 15 34 16 16 17 32 18 17 19 31 20 33 21 18 22 30 23
REMARK INDEX MAP 28 24 19 25 29 26 26 27 20 28 25 29 27 30 21 31 24 32 22 33
REMARK INDEX MAP 23 34 67 35
ROOT
ATOM      1  C   UNL     1     -13.154  21.584  21.951  1.00  0.00     0.131 C 
ENDROOT
BRANCH   1   2
ATOM      2  C   UNL     1     -12.201  22.734  21.551  1.00  0.00     0.105 C 
BRANCH   2   3
ATOM      3  N   UNL     1     -11.985  23.741  22.614  1.00  0.00    -0.308 NA
ATOM      4  C   UNL     1     -12.774  23.389  23.799  1.00  0.00     0.105 C 
ATOM      5  C   UNL     1     -10.572  23.855  22.980  1.00  0.00     0.105 C 
ENDBRANCH   2   3
ENDBRANCH   1   2
BRANCH   1   6
ATOM      6  N   UNL     1     -14.428  21.615  21.215  1.00  0.00    -0.373 N 
ATOM      7  C   UNL     1     -14.784  22.828  20.494  1.00  0.00     0.143 C 
BRANCH   6   8
ATOM      8  C   UNL     1     -14.934  20.404  20.750  1.00  0.00     0.042 A 
ATOM      9  C   UNL     1     -15.801  19.646  21.546  1.00  0.00     0.028 A 
ATOM     10  C   UNL     1     -14.596  19.900  19.478  1.00  0.00     0.003 A 
ATOM     11  C   UNL     1     -16.320  18.425  21.103  1.00  0.00     0.028 A 
ATOM     12  C   UNL     1     -15.130  18.659  19.047  1.00  0.00     0.034 A 
ATOM     13  C   UNL     1     -13.575  20.590  18.599  1.00  0.00     0.198 C 
ATOM     14  C   UNL     1     -15.985  17.902  19.849  1.00  0.00     0.041 A 
ATOM     15  O   UNL     1     -12.423  19.788  18.324  1.00  0.00    -0.373 OA
ATOM     16  N   UNL     1     -16.528  16.668  19.482  1.00  0.00    -0.324 N 
ATOM     17  C   UNL     1     -11.302  20.146  19.122  1.00  0.00     0.188 C 
ATOM     18  C   UNL     1     -16.199  15.340  19.733  1.00  0.00     0.227 A 
ATOM     19  C   UNL     1     -10.675  18.936  19.746  1.00  0.00    -0.001 C 
ATOM     20  N   UNL     1     -17.250  14.570  20.068  1.00  0.00    -0.221 NA
ATOM     21  N   UNL     1     -14.948  14.873  19.631  1.00  0.00    -0.213 NA
ATOM     22  C   UNL     1      -9.972  17.988  19.103  1.00  0.00    -0.001 C 
ATOM     23  C   UNL     1     -17.005  13.278  20.338  1.00  0.00     0.117 A 
ATOM     24  C   UNL     1     -14.731  13.567  19.908  1.00  0.00     0.076 A 
ATOM     25  C   UNL     1      -9.322  16.817  19.768  1.00  0.00     0.188 C 
ATOM     26  C   UNL     1     -15.756  12.719  20.275  1.00  0.00     0.049 A 
ATOM     27  C   UNL     1     -13.346  13.087  19.759  1.00  0.00     0.001 A 
ATOM     28  O   UNL     1     -10.291  15.819  20.061  1.00  0.00    -0.373 OA
ATOM     29  C   UNL     1     -13.063  11.765  19.373  1.00  0.00     0.010 A 
ATOM     30  C   UNL     1     -12.258  13.951  19.976  1.00  0.00     0.016 A 
ATOM     31  C   UNL     1      -9.784  14.489  19.975  1.00  0.00     0.196 C 
ATOM     32  C   UNL     1     -11.749  11.329  19.192  1.00  0.00     0.001 A 
ATOM     33  C   UNL     1     -10.932  13.531  19.781  1.00  0.00    -0.022 A 
ATOM     34  C   UNL     1     -10.690  12.211  19.387  1.00  0.00     0.006 A 
ATOM     35  H   UNL     1     -17.365  16.764  18.889  1.00  0.00     0.170 HD
ENDBRANCH   6   8
ENDBRANCH   1   6
TORSDOF 4
