MODEL 4
REMARK VINA RESULT:    -9.666      1.260      2.202
REMARK INTER + INTRA:         -13.130
REMARK INTER:                 -13.408
REMARK INTRA:                   0.278
REMARK UNBOUND:                -0.073
REMARK SMILES Cc1nccc2cc(NC(=O)[C@@H]3C[C@H]3c3ccc(S(=O)(=O)Nc4ccccn4)cc3)ccc12
REMARK SMILES IDX 15 1 16 2 17 3 18 4 29 5 30 6 14 7 12 8 13 9 10 10 9 11
REMARK SMILES IDX 11 12 8 14 2 15 3 16 33 17 4 18 32 19 6 20 5 21 31 22 7 23
REMARK SMILES IDX 1 24 19 25 20 26 21 27 22 28 23 30 24 31 28 32 25 33 27 34
REMARK SMILES IDX 26 35
REMARK H PARENT 9 13 22 29
ROOT
ATOM      1  C   UNL     1     -17.914  19.598  20.539  1.00  0.00    -0.044 A 
ATOM      2  C   UNL     1     -18.229  20.971  20.559  1.00  0.00     0.005 A 
ATOM      3  C   UNL     1     -19.540  21.430  20.384  1.00  0.00     0.022 A 
ATOM      4  C   UNL     1     -20.572  20.512  20.201  1.00  0.00     0.087 A 
ATOM      5  C   UNL     1     -20.299  19.146  20.168  1.00  0.00     0.022 A 
ATOM      6  C   UNL     1     -18.984  18.702  20.340  1.00  0.00     0.005 A 
ENDROOT
BRANCH   1   7
ATOM      7  C   UNL     1     -16.506  19.057  20.706  1.00  0.00     0.032 C 
ATOM      8  C   UNL     1     -15.458  19.322  19.638  1.00  0.00     0.087 C 
ATOM      9  C   UNL     1     -15.331  19.947  21.007  1.00  0.00     0.023 C 
BRANCH   8  10
ATOM     10  C   UNL     1     -14.559  18.212  19.219  1.00  0.00     0.228 C 
ATOM     11  N   UNL     1     -14.729  17.086  19.996  1.00  0.00    -0.326 N 
ATOM     12  O   UNL     1     -13.804  18.373  18.274  1.00  0.00    -0.274 OA
ATOM     13  H   UNL     1     -15.428  17.151  20.725  1.00  0.00     0.169 HD
BRANCH  11  14
ATOM     14  C   UNL     1     -14.048  15.857  19.886  1.00  0.00     0.041 A 
ATOM     15  C   UNL     1     -11.700  12.324  19.577  1.00  0.00     0.045 A 
ATOM     16  N   UNL     1     -10.342  12.378  19.602  1.00  0.00    -0.261 NA
ATOM     17  C   UNL     1     -12.522  13.470  19.676  1.00  0.00     0.003 A 
ATOM     18  C   UNL     1      -9.769  13.591  19.724  1.00  0.00     0.112 A 
ATOM     19  C   UNL     1     -13.934  13.449  19.656  1.00  0.00     0.013 A 
ATOM     20  C   UNL     1     -11.880  14.718  19.803  1.00  0.00    -0.013 A 
ATOM     21  C   UNL     1     -10.483  14.770  19.826  1.00  0.00     0.029 A 
ATOM     22  C   UNL     1     -14.685  14.626  19.759  1.00  0.00     0.027 A 
ATOM     23  C   UNL     1     -12.649  15.894  19.906  1.00  0.00     0.035 A 
ATOM     24  C   UNL     1     -12.281  10.945  19.444  1.00  0.00     0.067 C 
ENDBRANCH  11  14
ENDBRANCH   8  10
ENDBRANCH   1   7
BRANCH   4  25
ATOM     25  S   UNL     1     -22.228  21.079  19.916  1.00  0.00     0.263 S 
ATOM     26  O   UNL     1     -22.195  22.368  19.257  1.00  0.00    -0.201 OA
ATOM     27  O   UNL     1     -22.941  19.974  19.302  1.00  0.00    -0.201 OA
BRANCH  25  28
ATOM     28  N   UNL     1     -22.892  21.233  21.441  1.00  0.00    -0.263 N 
ATOM     29  H   UNL     1     -22.521  22.031  21.945  1.00  0.00     0.182 HD
BRANCH  28  30
ATOM     30  C   UNL     1     -23.240  20.073  22.154  1.00  0.00     0.139 A 
ATOM     31  C   UNL     1     -24.488  19.498  21.957  1.00  0.00     0.048 A 
ATOM     32  N   UNL     1     -22.275  19.514  22.900  1.00  0.00    -0.239 NA
ATOM     33  C   UNL     1     -24.776  18.304  22.614  1.00  0.00     0.005 A 
ATOM     34  C   UNL     1     -22.580  18.356  23.527  1.00  0.00     0.113 A 
ATOM     35  C   UNL     1     -23.805  17.722  23.420  1.00  0.00     0.020 A 
ENDBRANCH  28  30
ENDBRANCH  25  28
ENDBRANCH   4  25
TORSDOF 6
ENDMDL
