MODEL 5
REMARK VINA RESULT:    -8.414      4.974      8.621
REMARK INTER + INTRA:         -15.993
REMARK INTER:                 -14.215
REMARK INTRA:                  -1.778
REMARK UNBOUND:                -2.905
REMARK SMILES CNC(=O)c1n[nH]c2nc(-c3cc(F)c(O)cc3CC(F)(F)F)nc(NCc3nccnc3N(C)S(C)(=O)=O)c12
REMARK SMILES IDX 26 1 25 3 5 4 6 5 40 6 7 7 8 8 24 9 9 10 10 11 3 13 2 14
REMARK SMILES IDX 4 15 1 16 11 18 12 19 18 20 13 21 17 22 15 23 14 24 19 25
REMARK SMILES IDX 20 26 21 27 22 28 23 29 16 30 27 32 28 33 29 34 33 35 30 36
REMARK SMILES IDX 32 37 31 38 34 39 35 40 36 41 38 42 39 43 37 44
REMARK H PARENT 26 2 7 12 2 17 16 31
ROOT
ATOM      1  N   UNL     1     -10.606  17.073  20.384  1.00  0.00    -0.364 N 
ATOM      2  H   UNL     1     -11.362  17.149  21.072  1.00  0.00     0.162 HD
ENDROOT
BRANCH   1   3
ATOM      3  C   UNL     1     -10.253  15.752  20.124  1.00  0.00     0.142 A 
ATOM      4  C   UNL     1      -7.612  15.843  20.155  1.00  0.00     0.163 A 
ATOM      5  N   UNL     1      -6.669  14.888  19.956  1.00  0.00    -0.168 NA
ATOM      6  C   UNL     1      -8.928  15.313  20.028  1.00  0.00     0.094 A 
ATOM      7  N   UNL     1      -7.394  13.777  19.721  1.00  0.00    -0.260 N 
ATOM      8  C   UNL     1      -8.740  13.973  19.760  1.00  0.00     0.162 A 
ATOM      9  N   UNL     1     -11.232  14.827  19.943  1.00  0.00    -0.210 NA
ATOM     10  N   UNL     1      -9.680  13.034  19.579  1.00  0.00    -0.209 NA
ATOM     11  C   UNL     1     -10.923  13.536  19.678  1.00  0.00     0.164 A 
ATOM     12  H   UNL     1      -6.913  12.904  19.543  1.00  0.00     0.192 HD
BRANCH   4  13
ATOM     13  C   UNL     1      -7.231  17.228  20.479  1.00  0.00     0.272 C 
ATOM     14  N   UNL     1      -7.494  17.568  21.789  1.00  0.00    -0.354 N 
ATOM     15  O   UNL     1      -6.736  18.004  19.666  1.00  0.00    -0.267 OA
ATOM     16  C   UNL     1      -7.342  18.905  22.288  1.00  0.00     0.143 C 
ATOM     17  H   UNL     1      -7.997  16.865  22.324  1.00  0.00     0.163 HD
ENDBRANCH   4  13
BRANCH  11  18
ATOM     18  C   UNL     1     -12.075  12.602  19.522  1.00  0.00     0.026 A 
ATOM     19  C   UNL     1     -11.858  11.402  18.799  1.00  0.00     0.055 A 
ATOM     20  C   UNL     1     -13.387  12.812  20.044  1.00  0.00    -0.024 A 
ATOM     21  C   UNL     1     -12.864  10.463  18.602  1.00  0.00     0.165 A 
ATOM     22  C   UNL     1     -14.395  11.837  19.837  1.00  0.00     0.054 A 
ATOM     23  C   UNL     1     -14.131  10.674  19.119  1.00  0.00     0.151 A 
ATOM     24  F   UNL     1     -12.588   9.350  17.905  1.00  0.00    -0.203 F 
BRANCH  20  25
ATOM     25  C   UNL     1     -13.791  14.029  20.863  1.00  0.00     0.151 C 
BRANCH  25  26
ATOM     26  C   UNL     1     -14.969  14.806  20.295  1.00  0.00     0.393 C 
ATOM     27  F   UNL     1     -16.134  14.242  20.704  1.00  0.00    -0.171 F 
ATOM     28  F   UNL     1     -14.970  16.084  20.746  1.00  0.00    -0.171 F 
ATOM     29  F   UNL     1     -14.989  14.842  18.948  1.00  0.00    -0.171 F 
ENDBRANCH  25  26
ENDBRANCH  20  25
BRANCH  23  30
ATOM     30  O   UNL     1     -15.100   9.736  18.917  1.00  0.00    -0.505 OA
ATOM     31  H   UNL     1     -15.838   9.894  19.528  1.00  0.00     0.293 HD
ENDBRANCH  23  30
ENDBRANCH  11  18
ENDBRANCH   1   3
BRANCH   1  32
ATOM     32  C   UNL     1     -10.834  17.885  19.192  1.00  0.00     0.175 C 
BRANCH  32  33
ATOM     33  C   UNL     1     -12.308  18.169  18.998  1.00  0.00     0.103 A 
ATOM     34  N   UNL     1     -13.006  17.319  18.182  1.00  0.00    -0.254 NA
ATOM     35  C   UNL     1     -12.954  19.231  19.641  1.00  0.00     0.165 A 
ATOM     36  C   UNL     1     -14.318  17.589  18.017  1.00  0.00     0.131 A 
ATOM     37  N   UNL     1     -14.273  19.494  19.476  1.00  0.00    -0.235 NA
ATOM     38  C   UNL     1     -14.936  18.651  18.650  1.00  0.00     0.133 A 
BRANCH  35  39
ATOM     39  N   UNL     1     -12.283  20.161  20.490  1.00  0.00    -0.256 N 
ATOM     40  C   UNL     1     -12.755  20.206  21.885  1.00  0.00     0.165 C 
BRANCH  39  41
ATOM     41  S   UNL     1     -11.920  21.643  19.762  1.00  0.00     0.233 S 
ATOM     42  O   UNL     1     -11.671  21.387  18.356  1.00  0.00    -0.207 OA
ATOM     43  O   UNL     1     -12.911  22.624  20.152  1.00  0.00    -0.207 OA
ATOM     44  C   UNL     1     -10.362  22.117  20.494  1.00  0.00     0.183 C 
ENDBRANCH  39  41
ENDBRANCH  35  39
ENDBRANCH  32  33
ENDBRANCH   1  32
TORSDOF 10
ENDMDL
