REMARK SMILES Cc1c(C(=O)NCCN2CCOCC2)[nH]c2cnnc(Nc3ccc(OCc4cccc(F)c4)c(Cl)c3)c12
REMARK SMILES IDX 21 1 20 3 2 4 3 5 38 6 15 7 16 8 19 9 17 10 18 11 1 12 4 14
REMARK SMILES IDX 5 15 6 16 7 18 8 19 9 20 10 21 14 22 11 23 13 24 12 25 22 26
REMARK SMILES IDX 23 27 37 28 24 29 35 30 25 31 36 32 26 33 27 34 28 35 29 36
REMARK SMILES IDX 34 37 30 38 32 39 31 40 33 41
REMARK H PARENT 21 2 15 13 6 17
REMARK INDEX MAP 21 1 57 2 20 3 2 4 3 5 38 6 15 7 16 8 19 9 17 10 18 11 1 12
REMARK INDEX MAP 55 13 4 14 5 15 6 16 42 17 7 18 8 19 9 20 10 21 14 22 11 23
REMARK INDEX MAP 13 24 12 25 22 26 23 27 37 28 24 29 35 30 25 31 36 32 26 33
REMARK INDEX MAP 27 34 28 35 29 36 34 37 30 38 32 39 31 40 33 41
ROOT
ATOM      1  N   UNL     1      14.206   2.508  27.747  1.00  0.00    -0.338 N 
ATOM      2  H   UNL     1      14.176   3.449  27.329  1.00  0.00     0.168 HD
ENDROOT
BRANCH   1   3
ATOM      3  C   UNL     1      15.244   1.698  27.258  1.00  0.00     0.162 A 
ATOM      4  C   UNL     1      16.435   3.404  25.591  1.00  0.00    -0.009 A 
ATOM      5  C   UNL     1      17.464   3.181  24.679  1.00  0.00     0.108 A 
ATOM      6  C   UNL     1      16.190   2.152  26.291  1.00  0.00     0.049 A 
ATOM      7  N   UNL     1      17.941   1.915  24.922  1.00  0.00    -0.349 N 
ATOM      8  C   UNL     1      17.170   1.261  25.845  1.00  0.00     0.071 A 
ATOM      9  N   UNL     1      15.403   0.417  27.690  1.00  0.00    -0.132 NA
ATOM     10  C   UNL     1      17.277  -0.035  26.313  1.00  0.00     0.162 A 
ATOM     11  N   UNL     1      16.393  -0.438  27.233  1.00  0.00    -0.155 NA
ATOM     12  C   UNL     1      15.728   4.696  25.825  1.00  0.00     0.048 C 
ATOM     13  H   UNL     1      18.772   1.510  24.468  1.00  0.00     0.167 HD
BRANCH   5  14
ATOM     14  C   UNL     1      18.084   3.995  23.653  1.00  0.00     0.268 C 
ATOM     15  O   UNL     1      19.012   4.758  23.901  1.00  0.00    -0.268 OA
ATOM     16  N   UNL     1      17.619   3.787  22.379  1.00  0.00    -0.349 N 
ATOM     17  H   UNL     1      16.871   3.095  22.228  1.00  0.00     0.163 HD
BRANCH  16  18
ATOM     18  C   UNL     1      18.147   4.510  21.237  1.00  0.00     0.131 C 
BRANCH  18  19
ATOM     19  C   UNL     1      19.309   3.761  20.556  1.00  0.00     0.106 C 
BRANCH  19  20
ATOM     20  N   UNL     1      20.535   4.572  20.436  1.00  0.00    -0.297 NA
ATOM     21  C   UNL     1      20.225   5.997  20.694  1.00  0.00     0.113 C 
ATOM     22  C   UNL     1      21.136   4.464  19.086  1.00  0.00     0.113 C 
ATOM     23  C   UNL     1      21.466   6.885  20.513  1.00  0.00     0.175 C 
ATOM     24  C   UNL     1      22.354   5.390  18.937  1.00  0.00     0.175 C 
ATOM     25  O   UNL     1      22.004   6.757  19.191  1.00  0.00    -0.379 OA
ENDBRANCH  19  20
ENDBRANCH  18  19
ENDBRANCH  16  18
ENDBRANCH   5  14
ENDBRANCH   1   3
BRANCH   1  26
ATOM     26  C   UNL     1      13.200   2.273  28.702  1.00  0.00     0.041 A 
ATOM     27  C   UNL     1      11.858   2.354  28.288  1.00  0.00     0.030 A 
ATOM     28  C   UNL     1      13.453   2.001  30.053  1.00  0.00     0.050 A 
ATOM     29  C   UNL     1      10.806   2.158  29.184  1.00  0.00     0.050 A 
ATOM     30  C   UNL     1      12.404   1.801  30.957  1.00  0.00     0.085 A 
ATOM     31  C   UNL     1      11.081   1.900  30.524  1.00  0.00     0.138 A 
ATOM     32  Cl  UNL     1      12.783   1.420  32.599  1.00  0.00    -0.080 Cl
BRANCH  31  33
ATOM     33  O   UNL     1      10.029   1.678  31.372  1.00  0.00    -0.487 OA
BRANCH  33  34
ATOM     34  C   UNL     1       8.940   1.065  30.665  1.00  0.00     0.265 C 
BRANCH  34  35
ATOM     35  C   UNL     1       8.738  -0.348  31.162  1.00  0.00    -0.008 A 
ATOM     36  C   UNL     1       9.781  -1.290  31.118  1.00  0.00     0.007 A 
ATOM     37  C   UNL     1       7.519  -0.724  31.742  1.00  0.00     0.046 A 
ATOM     38  C   UNL     1       9.600  -2.583  31.618  1.00  0.00     0.003 A 
ATOM     39  C   UNL     1       7.350  -2.014  32.237  1.00  0.00     0.123 A 
ATOM     40  C   UNL     1       8.378  -2.946  32.181  1.00  0.00     0.039 A 
ATOM     41  F   UNL     1       6.178  -2.356  32.792  1.00  0.00    -0.207 F 
ENDBRANCH  34  35
ENDBRANCH  33  34
ENDBRANCH  31  33
ENDBRANCH   1  26
TORSDOF 9
