REMARK SMILES COc1cc2nccc(Oc3ccc(NC(=O)c4cc5c(n(-c6ccccc6)c4=O)CCCC5=O)nc3)c2cc1OC
REMARK SMILES IDX 11 1 12 2 13 3 14 4 36 5 37 6 10 7 9 8 3 9 4 10 40 11 5 12
REMARK SMILES IDX 39 13 6 14 38 15 7 16 8 17 2 18 1 19 41 20 42 21 15 22 16 23
REMARK SMILES IDX 17 24 18 26 19 27 29 28 20 29 22 30 30 31 21 32 34 33 31 34
REMARK SMILES IDX 33 35 35 36 32 37 23 38 24 39 28 40 25 41 27 42 26 43
REMARK H PARENT 15 25
ROOT
ATOM      1  C   UNL     1       2.942  -1.071  -1.294  1.00  0.00     0.145 A 
ATOM      2  C   UNL     1       2.193  -2.150  -1.740  1.00  0.00     0.052 A 
ATOM      3  C   UNL     1       0.819  -2.184  -1.497  1.00  0.00     0.051 A 
ATOM      4  C   UNL     1       0.230  -1.135  -0.804  1.00  0.00     0.133 A 
ATOM      5  N   UNL     1       0.948  -0.092  -0.335  1.00  0.00    -0.235 NA
ATOM      6  C   UNL     1       2.282  -0.087  -0.573  1.00  0.00     0.160 A 
ENDROOT
BRANCH   1   7
ATOM      7  O   UNL     1       4.289  -1.102  -1.551  1.00  0.00    -0.455 OA
BRANCH   7   8
ATOM      8  C   UNL     1       4.948   0.100  -1.704  1.00  0.00     0.138 A 
ATOM      9  C   UNL     1       8.407   0.946   0.554  1.00  0.00     0.162 A 
ATOM     10  C   UNL     1       7.901   1.845  -0.393  1.00  0.00     0.079 A 
ATOM     11  C   UNL     1       7.749  -0.276   0.769  1.00  0.00     0.161 A 
ATOM     12  C   UNL     1       6.766   1.563  -1.142  1.00  0.00     0.078 A 
ATOM     13  C   UNL     1       6.596  -0.565   0.035  1.00  0.00     0.064 A 
ATOM     14  N   UNL     1       6.350   2.464  -2.051  1.00  0.00    -0.256 NA
ATOM     15  C   UNL     1       6.099   0.344  -0.927  1.00  0.00     0.047 A 
ATOM     16  C   UNL     1       5.265   2.172  -2.800  1.00  0.00     0.115 A 
ATOM     17  C   UNL     1       4.537   1.010  -2.674  1.00  0.00     0.068 A 
BRANCH   9  18
ATOM     18  O   UNL     1       9.535   1.164   1.306  1.00  0.00    -0.493 OA
ATOM     19  C   UNL     1      10.190   2.417   1.164  1.00  0.00     0.278 C 
ENDBRANCH   9  18
BRANCH  11  20
ATOM     20  O   UNL     1       8.305  -1.109   1.707  1.00  0.00    -0.493 OA
ATOM     21  C   UNL     1       7.681  -2.366   1.929  1.00  0.00     0.278 C 
ENDBRANCH  11  20
ENDBRANCH   7   8
ENDBRANCH   1   7
BRANCH   4  22
ATOM     22  N   UNL     1      -1.137  -1.032  -0.542  1.00  0.00    -0.306 N 
ATOM     23  C   UNL     1      -2.145  -1.886  -0.904  1.00  0.00     0.262 C 
ATOM     24  O   UNL     1      -1.985  -2.954  -1.493  1.00  0.00    -0.269 OA
ATOM     25  H   UNL     1      -1.371  -0.171  -0.047  1.00  0.00     0.171 HD
BRANCH  23  26
ATOM     26  C   UNL     1      -3.532  -1.431  -0.544  1.00  0.00     0.106 C 
ATOM     27  C   UNL     1      -4.549  -2.250  -0.851  1.00  0.00     0.033 C 
ATOM     28  C   UNL     1      -3.839  -0.132   0.126  1.00  0.00     0.268 C 
ATOM     29  C   UNL     1      -5.926  -1.899  -0.599  1.00  0.00     0.038 C 
ATOM     30  N   UNL     1      -5.203   0.159   0.390  1.00  0.00    -0.280 N 
ATOM     31  O   UNL     1      -2.894   0.597   0.439  1.00  0.00    -0.268 OA
ATOM     32  C   UNL     1      -6.235  -0.726  -0.007  1.00  0.00     0.037 C 
ATOM     33  C   UNL     1      -7.005  -2.860  -1.021  1.00  0.00     0.164 C 
ATOM     34  C   UNL     1      -7.684  -0.284   0.128  1.00  0.00     0.056 C 
ATOM     35  C   UNL     1      -8.446  -2.474  -0.798  1.00  0.00     0.081 C 
ATOM     36  O   UNL     1      -6.718  -3.959  -1.493  1.00  0.00    -0.294 OA
ATOM     37  C   UNL     1      -8.611  -0.970  -0.871  1.00  0.00     0.015 C 
BRANCH  30  38
ATOM     38  C   UNL     1      -5.463   1.380   1.113  1.00  0.00     0.049 A 
ATOM     39  C   UNL     1      -4.900   2.593   0.693  1.00  0.00     0.027 A 
ATOM     40  C   UNL     1      -6.270   1.379   2.260  1.00  0.00     0.027 A 
ATOM     41  C   UNL     1      -5.165   3.780   1.382  1.00  0.00     0.002 A 
ATOM     42  C   UNL     1      -6.538   2.567   2.948  1.00  0.00     0.002 A 
ATOM     43  C   UNL     1      -5.989   3.768   2.506  1.00  0.00     0.000 A 
ENDBRANCH  30  38
ENDBRANCH  23  26
ENDBRANCH   4  22
TORSDOF 7
