REMARK SMILES C[C@H](NC(=O)C(C)(C)Oc1ccc(C(F)(F)F)cn1)[C@@H](Cc1ccc(Cl)cc1)c1cccc(C#N)c1
REMARK SMILES IDX 3 1 4 2 5 3 2 5 1 6 20 7 21 8 22 9 23 10 28 11 24 12 27 13
REMARK SMILES IDX 25 14 26 15 29 16 30 17 36 18 31 19 33 20 32 21 34 22 35 23
REMARK SMILES IDX 6 24 7 25 8 26 9 27 10 28 11 29 19 30 12 31 18 32 13 33
REMARK SMILES IDX 14 34 15 35 16 36 17 37
REMARK H PARENT 3 4
ROOT
ATOM      1  N   UNL     1      -0.359   0.073  -1.038  1.00  0.00    -0.350 N 
ATOM      2  C   UNL     1       0.517   0.452  -0.028  1.00  0.00     0.263 C 
ATOM      3  O   UNL     1       0.145   1.185   0.888  1.00  0.00    -0.270 OA
ATOM      4  H   UNL     1      -0.118  -0.709  -1.633  1.00  0.00     0.163 HD
ENDROOT
BRANCH   1   5
ATOM      5  C   UNL     1      -1.743   0.557  -1.083  1.00  0.00     0.086 C 
ATOM      6  C   UNL     1      -2.255   0.448  -2.521  1.00  0.00     0.031 C 
BRANCH   5   7
ATOM      7  C   UNL     1      -2.652  -0.125  -0.008  1.00  0.00     0.046 C 
BRANCH   7   8
ATOM      8  C   UNL     1      -4.090   0.460   0.051  1.00  0.00     0.046 C 
BRANCH   8   9
ATOM      9  C   UNL     1      -4.167   1.957   0.269  1.00  0.00    -0.047 A 
ATOM     10  C   UNL     1      -4.896   2.759  -0.622  1.00  0.00     0.005 A 
ATOM     11  C   UNL     1      -3.532   2.568   1.366  1.00  0.00     0.005 A 
ATOM     12  C   UNL     1      -4.972   4.142  -0.437  1.00  0.00     0.021 A 
ATOM     13  C   UNL     1      -3.608   3.951   1.549  1.00  0.00     0.021 A 
ATOM     14  C   UNL     1      -4.326   4.732   0.645  1.00  0.00     0.041 A 
ATOM     15  Cl  UNL     1      -4.413   6.436   0.868  1.00  0.00    -0.084 Cl
ENDBRANCH   8   9
ENDBRANCH   7   8
BRANCH   7  16
ATOM     16  C   UNL     1      -2.663  -1.654  -0.116  1.00  0.00    -0.041 A 
ATOM     17  C   UNL     1      -3.473  -2.344  -1.032  1.00  0.00     0.004 A 
ATOM     18  C   UNL     1      -1.825  -2.404   0.728  1.00  0.00     0.023 A 
ATOM     19  C   UNL     1      -3.450  -3.740  -1.100  1.00  0.00     0.002 A 
ATOM     20  C   UNL     1      -1.796  -3.802   0.658  1.00  0.00     0.052 A 
ATOM     21  C   UNL     1      -2.615  -4.468  -0.256  1.00  0.00     0.019 A 
ATOM     22  C   UNL     1      -0.917  -4.542   1.513  1.00  0.00     0.099 C 
ATOM     23  N   UNL     1      -0.192  -5.140   2.192  1.00  0.00    -0.192 NA
ENDBRANCH   7  16
ENDBRANCH   5   7
ENDBRANCH   1   5
BRANCH   2  24
ATOM     24  C   UNL     1       1.976  -0.096  -0.154  1.00  0.00     0.183 C 
ATOM     25  C   UNL     1       2.547   0.413  -1.489  1.00  0.00     0.067 C 
ATOM     26  C   UNL     1       1.943  -1.632  -0.115  1.00  0.00     0.067 C 
BRANCH  24  27
ATOM     27  O   UNL     1       2.656   0.404   1.022  1.00  0.00    -0.462 OA
BRANCH  27  28
ATOM     28  C   UNL     1       4.016   0.266   1.040  1.00  0.00     0.214 A 
ATOM     29  C   UNL     1       4.582  -0.610   1.946  1.00  0.00     0.069 A 
ATOM     30  N   UNL     1       4.728   1.109   0.271  1.00  0.00    -0.221 NA
ATOM     31  C   UNL     1       5.971  -0.651   2.041  1.00  0.00     0.020 A 
ATOM     32  C   UNL     1       6.075   1.061   0.390  1.00  0.00     0.128 A 
ATOM     33  C   UNL     1       6.745   0.208   1.254  1.00  0.00     0.074 A 
BRANCH  33  34
ATOM     34  C   UNL     1       8.240   0.221   1.334  1.00  0.00     0.417 C 
ATOM     35  F   UNL     1       8.697   0.462   2.592  1.00  0.00    -0.166 F 
ATOM     36  F   UNL     1       8.821   1.164   0.544  1.00  0.00    -0.166 F 
ATOM     37  F   UNL     1       8.788  -0.965   0.959  1.00  0.00    -0.166 F 
ENDBRANCH  33  34
ENDBRANCH  27  28
ENDBRANCH  24  27
ENDBRANCH   2  24
TORSDOF 9
