REMARK SMILES C=CC1=C(C)c2cc3[nH]c(cc4nc(cc5[nH]c(cc1n2)c(C)c5CCC(=O)OCCC)C(CCC(=O)OCCO)=C4C)C1(C)C3=CC=C(C(=O)OC)C1C(=O)OC
REMARK SMILES IDX 3 1 4 2 5 3 6 4 7 5 8 6 9 7 10 8 11 9 12 10 13 11 14 12
REMARK SMILES IDX 15 13 16 14 17 15 18 16 19 17 20 18 21 19 22 20 23 21 24 22
REMARK SMILES IDX 33 23 42 24 43 25 44 26 45 27 46 28 47 29 48 30 49 31 54 32
REMARK SMILES IDX 2 35 1 36 25 37 26 38 27 39 28 40 29 41 30 42 31 43 32 44
REMARK SMILES IDX 55 45 56 46 57 47 58 48 50 49 51 50 52 51 53 52 34 53 35 54
REMARK SMILES IDX 36 55 37 56 38 57 39 58 40 59 41 60
REMARK H PARENT 9 33 17 34 41 61
ROOT
ATOM      1  C   UNL     1      -0.543  -5.840  -1.096  1.00  0.00     0.005 C 
ATOM      2  C   UNL     1      -1.857  -5.740  -0.838  1.00  0.00    -0.016 C 
ATOM      3  C   UNL     1      -2.872  -6.833  -0.812  1.00  0.00     0.047 C 
ATOM      4  C   UNL     1      -2.166  -4.342  -0.524  1.00  0.00     0.069 A 
ATOM      5  C   UNL     1      -3.422  -3.929  -0.228  1.00  0.00     0.055 A 
ATOM      6  C   UNL     1      -3.767  -2.672   0.116  1.00  0.00     0.045 A 
ATOM      7  N   UNL     1      -2.973  -1.564   0.289  1.00  0.00    -0.358 N 
ATOM      8  C   UNL     1      -3.541  -0.490   0.939  1.00  0.00     0.029 A 
ATOM      9  C   UNL     1      -2.975   0.657   1.370  1.00  0.00     0.051 A 
ATOM     10  C   UNL     1      -1.674   0.989   1.224  1.00  0.00     0.069 A 
ATOM     11  N   UNL     1      -0.644   0.310   0.652  1.00  0.00    -0.248 NA
ATOM     12  C   UNL     1       0.511   1.013   0.789  1.00  0.00     0.069 A 
ATOM     13  C   UNL     1       1.768   0.694   0.408  1.00  0.00     0.055 A 
ATOM     14  C   UNL     1       2.108  -0.656  -0.312  1.00  0.00     0.044 A 
ATOM     15  N   UNL     1       1.289  -1.752  -0.338  1.00  0.00    -0.355 N 
ATOM     16  C   UNL     1       1.918  -2.779  -0.988  1.00  0.00     0.044 A 
ATOM     17  C   UNL     1       1.322  -4.224  -1.151  1.00  0.00     0.055 A 
ATOM     18  C   UNL     1       0.013  -4.488  -0.954  1.00  0.00     0.073 A 
ATOM     19  N   UNL     1      -0.998  -3.651  -0.593  1.00  0.00    -0.248 NA
ATOM     20  C   UNL     1       3.141  -2.321  -1.452  1.00  0.00    -0.022 A 
ATOM     21  C   UNL     1       4.119  -3.105  -2.240  1.00  0.00     0.047 C 
ATOM     22  C   UNL     1       3.256  -0.947  -1.029  1.00  0.00    -0.019 A 
ATOM     23  C   UNL     1       0.185   2.256   1.481  1.00  0.00    -0.017 C 
ATOM     24  C   UNL     1      -1.133   2.247   1.733  1.00  0.00    -0.020 C 
ATOM     25  C   UNL     1      -1.950   3.305   2.394  1.00  0.00     0.047 C 
ATOM     26  C   UNL     1      -5.006  -0.889   1.181  1.00  0.00     0.052 C 
ATOM     27  C   UNL     1      -5.192  -1.144   2.696  1.00  0.00     0.024 C 
ATOM     28  C   UNL     1      -5.131  -2.241   0.447  1.00  0.00    -0.011 C 
ATOM     29  C   UNL     1      -6.303  -2.724   0.012  1.00  0.00     0.007 C 
ATOM     30  C   UNL     1      -7.515  -1.965   0.236  1.00  0.00     0.012 C 
ATOM     31  C   UNL     1      -7.456  -0.645   0.508  1.00  0.00     0.053 C 
ATOM     32  C   UNL     1      -6.119   0.073   0.681  1.00  0.00     0.153 C 
ATOM     33  H   UNL     1      -1.955  -1.632   0.186  1.00  0.00     0.166 HD
ATOM     34  H   UNL     1       0.344  -1.789   0.040  1.00  0.00     0.167 HD
ENDROOT
BRANCH   1  35
ATOM     35  C   UNL     1       0.136  -7.088  -1.381  1.00  0.00     0.003 C 
ATOM     36  C   UNL     1       0.812  -7.340  -2.507  1.00  0.00     0.009 C 
ENDBRANCH   1  35
BRANCH  22  37
ATOM     37  C   UNL     1       4.404  -0.019  -1.280  1.00  0.00     0.050 C 
BRANCH  37  38
ATOM     38  C   UNL     1       5.434  -0.085  -0.157  1.00  0.00     0.127 C 
BRANCH  38  39
ATOM     39  C   UNL     1       6.607   0.820  -0.425  1.00  0.00     0.306 C 
ATOM     40  O   UNL     1       6.740   1.558  -1.392  1.00  0.00    -0.252 OA
BRANCH  39  41
ATOM     41  O   UNL     1       7.522   0.690   0.580  1.00  0.00    -0.466 OA
BRANCH  41  42
ATOM     42  C   UNL     1       8.703   1.493   0.464  1.00  0.00     0.232 C 
BRANCH  42  43
ATOM     43  C   UNL     1       9.728   0.840  -0.461  1.00  0.00     0.038 C 
ATOM     44  C   UNL     1      10.105  -0.563  -0.015  1.00  0.00     0.007 C 
ENDBRANCH  42  43
ENDBRANCH  41  42
ENDBRANCH  39  41
ENDBRANCH  38  39
ENDBRANCH  37  38
ENDBRANCH  22  37
BRANCH  32  45
ATOM     45  C   UNL     1      -5.793   0.743  -0.648  1.00  0.00     0.314 C 
ATOM     46  O   UNL     1      -6.138   0.348  -1.755  1.00  0.00    -0.252 OA
BRANCH  45  47
ATOM     47  O   UNL     1      -5.136   1.922  -0.428  1.00  0.00    -0.469 OA
ATOM     48  C   UNL     1      -4.499   2.455  -1.588  1.00  0.00     0.282 C 
ENDBRANCH  45  47
ENDBRANCH  32  45
BRANCH  31  49
ATOM     49  C   UNL     1      -8.725   0.101   0.610  1.00  0.00     0.334 C 
ATOM     50  O   UNL     1      -9.835  -0.414   0.592  1.00  0.00    -0.247 OA
BRANCH  49  51
ATOM     51  O   UNL     1      -8.482   1.428   0.728  1.00  0.00    -0.466 OA
ATOM     52  C   UNL     1      -9.660   2.222   0.822  1.00  0.00     0.282 C 
ENDBRANCH  49  51
ENDBRANCH  31  49
BRANCH  23  53
ATOM     53  C   UNL     1       1.182   3.312   1.846  1.00  0.00     0.050 C 
BRANCH  53  54
ATOM     54  C   UNL     1       1.503   4.210   0.655  1.00  0.00     0.127 C 
BRANCH  54  55
ATOM     55  C   UNL     1       2.531   5.238   1.032  1.00  0.00     0.306 C 
ATOM     56  O   UNL     1       3.398   5.111   1.885  1.00  0.00    -0.252 OA
BRANCH  55  57
ATOM     57  O   UNL     1       2.382   6.355   0.256  1.00  0.00    -0.463 OA
BRANCH  57  58
ATOM     58  C   UNL     1       3.312   7.413   0.542  1.00  0.00     0.261 C 
BRANCH  58  59
ATOM     59  C   UNL     1       4.592   7.208  -0.259  1.00  0.00     0.197 C 
BRANCH  59  60
ATOM     60  O   UNL     1       4.330   7.410  -1.649  1.00  0.00    -0.393 OA
ATOM     61  H   UNL     1       3.582   6.825  -1.874  1.00  0.00     0.210 HD
ENDBRANCH  59  60
ENDBRANCH  58  59
ENDBRANCH  57  58
ENDBRANCH  55  57
ENDBRANCH  54  55
ENDBRANCH  53  54
ENDBRANCH  23  53
TORSDOF 18
