REMARK SMILES COc1ccc(-c2nc([C@@H](C)Sc3nc(N)cc(N)n3)c(C)s2)cc1OCCN1CCOCC1
REMARK SMILES IDX 7 1 8 2 9 3 21 4 22 5 23 6 6 7 3 8 4 9 25 10 5 11 24 12 2 13
REMARK SMILES IDX 1 14 26 15 27 16 28 17 29 18 30 19 34 20 31 21 33 22 32 23
REMARK SMILES IDX 10 24 11 25 12 26 13 27 14 28 20 29 15 30 18 31 17 32 16 33
REMARK SMILES IDX 19 36
REMARK H PARENT 16 34 16 35 19 37 19 38
ROOT
ATOM      1  C   UNL     1       1.069  -0.983   2.211  1.00  0.00     0.124 A 
ATOM      2  N   UNL     1       2.315  -1.268   1.885  1.00  0.00    -0.240 NA
ATOM      3  C   UNL     1       3.218  -0.526   2.638  1.00  0.00     0.068 A 
ATOM      4  C   UNL     1       2.628   0.245   3.630  1.00  0.00     0.026 A 
ATOM      5  C   UNL     1       3.256   1.146   4.634  1.00  0.00     0.058 C 
ATOM      6  S   UNL     1       0.925   0.094   3.546  1.00  0.00    -0.119 S 
ENDROOT
BRANCH   1   7
ATOM      7  C   UNL     1      -0.103  -1.507   1.481  1.00  0.00     0.014 A 
ATOM      8  C   UNL     1      -2.266  -2.528  -0.039  1.00  0.00     0.160 A 
ATOM      9  C   UNL     1      -0.974  -3.010  -0.240  1.00  0.00     0.051 A 
ATOM     10  C   UNL     1      -2.473  -1.506   0.901  1.00  0.00     0.161 A 
ATOM     11  C   UNL     1       0.094  -2.491   0.501  1.00  0.00     0.015 A 
ATOM     12  C   UNL     1      -1.409  -1.034   1.679  1.00  0.00     0.061 A 
BRANCH   8  13
ATOM     13  O   UNL     1      -3.382  -2.980  -0.697  1.00  0.00    -0.493 OA
ATOM     14  C   UNL     1      -3.206  -3.981  -1.689  1.00  0.00     0.278 C 
ENDBRANCH   8  13
BRANCH  10  15
ATOM     15  O   UNL     1      -3.755  -1.032   1.028  1.00  0.00    -0.488 OA
BRANCH  15  16
ATOM     16  C   UNL     1      -3.913   0.377   1.226  1.00  0.00     0.245 C 
BRANCH  16  17
ATOM     17  C   UNL     1      -3.311   1.272   0.113  1.00  0.00     0.126 C 
BRANCH  17  18
ATOM     18  N   UNL     1      -3.687   0.932  -1.272  1.00  0.00    -0.295 NA
ATOM     19  C   UNL     1      -5.129   1.076  -1.553  1.00  0.00     0.113 C 
ATOM     20  C   UNL     1      -2.936   1.751  -2.252  1.00  0.00     0.113 C 
ATOM     21  C   UNL     1      -5.595   2.539  -1.672  1.00  0.00     0.175 C 
ATOM     22  C   UNL     1      -3.433   3.205  -2.354  1.00  0.00     0.175 C 
ATOM     23  O   UNL     1      -4.835   3.258  -2.652  1.00  0.00    -0.379 OA
ENDBRANCH  17  18
ENDBRANCH  16  17
ENDBRANCH  15  16
ENDBRANCH  10  15
ENDBRANCH   1   7
BRANCH   3  24
ATOM     24  C   UNL     1       4.691  -0.626   2.322  1.00  0.00     0.102 C 
ATOM     25  C   UNL     1       5.078  -1.867   1.519  1.00  0.00     0.027 C 
BRANCH  24  26
ATOM     26  S   UNL     1       5.345   0.923   1.578  1.00  0.00    -0.076 SA
BRANCH  26  27
ATOM     27  C   UNL     1       4.650   0.836  -0.052  1.00  0.00     0.192 A 
ATOM     28  N   UNL     1       3.316   0.804  -0.172  1.00  0.00    -0.206 NA
ATOM     29  N   UNL     1       5.521   0.853  -1.076  1.00  0.00    -0.206 NA
ATOM     30  C   UNL     1       2.829   0.688  -1.407  1.00  0.00     0.130 A 
ATOM     31  C   UNL     1       4.992   0.794  -2.300  1.00  0.00     0.130 A 
ATOM     32  C   UNL     1       3.639   0.692  -2.520  1.00  0.00     0.093 A 
BRANCH  30  33
ATOM     33  N   UNL     1       1.441   0.607  -1.524  1.00  0.00    -0.383 N 
ATOM     34  H   UNL     1       1.153  -0.211  -2.048  1.00  0.00     0.158 HD
ATOM     35  H   UNL     1       1.067   0.566  -0.575  1.00  0.00     0.158 HD
ENDBRANCH  30  33
BRANCH  31  36
ATOM     36  N   UNL     1       5.884   0.776  -3.373  1.00  0.00    -0.383 N 
ATOM     37  H   UNL     1       6.820   0.920  -3.004  1.00  0.00     0.158 HD
ATOM     38  H   UNL     1       5.647   1.469  -4.074  1.00  0.00     0.158 HD
ENDBRANCH  31  36
ENDBRANCH  26  27
ENDBRANCH  24  26
ENDBRANCH   3  24
TORSDOF 11
