REMARK SMILES C=CC(=O)Nc1ccc(F)c(Nc2nc(Nc3cnn(C)c3)ncc2-c2ccc(C(F)(F)F)cc2)c1
REMARK SMILES IDX 13 1 14 2 15 3 23 4 24 5 25 6 12 7 11 9 6 10 7 11 36 12 8 13
REMARK SMILES IDX 9 14 10 15 5 16 3 17 4 18 2 20 1 21 26 22 27 23 35 24 28 25
REMARK SMILES IDX 34 26 29 27 30 28 31 29 32 30 33 31 16 32 17 34 18 35 22 36
REMARK SMILES IDX 19 37 20 38 21 39
REMARK H PARENT 12 8 5 19 16 33
ROOT
ATOM      1  C   UNL     1      -0.539  -1.001  -0.100  1.00  0.00     0.144 A 
ATOM      2  N   UNL     1      -0.717   0.337  -0.165  1.00  0.00    -0.195 NA
ATOM      3  C   UNL     1      -1.857   0.863   0.307  1.00  0.00     0.229 A 
ATOM      4  N   UNL     1      -2.828   0.132   0.864  1.00  0.00    -0.221 NA
ATOM      5  C   UNL     1      -2.624  -1.196   0.937  1.00  0.00     0.127 A 
ATOM      6  C   UNL     1      -1.494  -1.844   0.472  1.00  0.00     0.043 A 
ENDROOT
BRANCH   1   7
ATOM      7  N   UNL     1       0.657  -1.564  -0.617  1.00  0.00    -0.337 N 
ATOM      8  H   UNL     1       0.444  -2.391  -1.175  1.00  0.00     0.168 HD
BRANCH   7   9
ATOM      9  C   UNL     1       1.793  -0.896  -1.132  1.00  0.00     0.078 A 
ATOM     10  C   UNL     1       3.417   0.935  -1.129  1.00  0.00     0.043 A 
ATOM     11  C   UNL     1       4.107   0.323  -2.177  1.00  0.00     0.029 A 
ATOM     12  C   UNL     1       2.267   0.314  -0.611  1.00  0.00     0.055 A 
ATOM     13  C   UNL     1       3.668  -0.898  -2.688  1.00  0.00     0.043 A 
ATOM     14  C   UNL     1       2.532  -1.498  -2.158  1.00  0.00     0.146 A 
ATOM     15  F   UNL     1       2.130  -2.679  -2.650  1.00  0.00    -0.205 F 
BRANCH  10  16
ATOM     16  N   UNL     1       3.813   2.151  -0.530  1.00  0.00    -0.322 N 
ATOM     17  C   UNL     1       4.880   2.951  -0.885  1.00  0.00     0.247 C 
ATOM     18  O   UNL     1       5.663   2.775  -1.809  1.00  0.00    -0.270 OA
ATOM     19  H   UNL     1       3.239   2.459   0.243  1.00  0.00     0.170 HD
BRANCH  17  20
ATOM     20  C   UNL     1       5.005   4.137   0.012  1.00  0.00     0.064 C 
ATOM     21  C   UNL     1       5.951   5.062  -0.206  1.00  0.00     0.014 C 
ENDBRANCH  17  20
ENDBRANCH  10  16
ENDBRANCH   7   9
ENDBRANCH   1   7
BRANCH   6  22
ATOM     22  C   UNL     1      -1.360  -3.302   0.585  1.00  0.00    -0.013 A 
ATOM     23  C   UNL     1      -2.260  -4.158  -0.069  1.00  0.00     0.009 A 
ATOM     24  C   UNL     1      -0.336  -3.880   1.353  1.00  0.00     0.009 A 
ATOM     25  C   UNL     1      -2.137  -5.547   0.035  1.00  0.00     0.014 A 
ATOM     26  C   UNL     1      -0.212  -5.269   1.460  1.00  0.00     0.014 A 
ATOM     27  C   UNL     1      -1.106  -6.118   0.796  1.00  0.00     0.056 A 
BRANCH  27  28
ATOM     28  C   UNL     1      -0.992  -7.618   0.921  1.00  0.00     0.416 C 
ATOM     29  F   UNL     1      -1.257  -8.267  -0.247  1.00  0.00    -0.166 F 
ATOM     30  F   UNL     1      -1.862  -8.127   1.837  1.00  0.00    -0.166 F 
ATOM     31  F   UNL     1       0.246  -8.035   1.307  1.00  0.00    -0.166 F 
ENDBRANCH  27  28
ENDBRANCH   6  22
BRANCH   3  32
ATOM     32  N   UNL     1      -1.974   2.246   0.174  1.00  0.00    -0.321 N 
ATOM     33  H   UNL     1      -1.150   2.580  -0.311  1.00  0.00     0.170 HD
BRANCH  32  34
ATOM     34  C   UNL     1      -2.965   3.086   0.529  1.00  0.00     0.079 A 
ATOM     35  C   UNL     1      -4.192   2.837   1.178  1.00  0.00     0.161 A 
ATOM     36  C   UNL     1      -2.955   4.441   0.304  1.00  0.00     0.134 A 
ATOM     37  N   UNL     1      -4.908   3.954   1.354  1.00  0.00    -0.180 NA
ATOM     38  N   UNL     1      -4.133   4.912   0.811  1.00  0.00    -0.274 N 
ATOM     39  C   UNL     1      -4.592   6.280   0.812  1.00  0.00     0.173 C 
ENDBRANCH  32  34
ENDBRANCH   3  32
TORSDOF 8
