REMARK SMILES CC[C@H](Nc1ncnc2[nH]cnc12)c1oc2ccccc2c(=O)c1-c1cccc(F)c1
REMARK SMILES IDX 3 1 2 2 1 3 4 4 5 6 6 7 13 8 7 9 12 10 9 11 8 12 11 13 10 14
REMARK SMILES IDX 14 16 15 17 24 18 16 19 22 20 17 21 21 22 23 23 18 24 20 25
REMARK SMILES IDX 19 26 25 27 26 28 31 29 27 30 29 31 28 32 30 33
REMARK H PARENT 4 5 10 15
ROOT
ATOM      1  C   UNL     1       0.526   1.177  -0.957  1.00  0.00     0.148 C 
ENDROOT
BRANCH   1   2
ATOM      2  C   UNL     1       0.536   1.086  -2.500  1.00  0.00     0.030 C 
ATOM      3  C   UNL     1      -0.020  -0.190  -3.121  1.00  0.00     0.006 C 
ENDBRANCH   1   2
BRANCH   1   4
ATOM      4  N   UNL     1       1.855   1.096  -0.335  1.00  0.00    -0.358 N 
ATOM      5  H   UNL     1       1.844   1.390   0.641  1.00  0.00     0.162 HD
BRANCH   4   6
ATOM      6  C   UNL     1       2.639  -0.051  -0.433  1.00  0.00     0.158 A 
ATOM      7  N   UNL     1       2.753  -0.748  -1.592  1.00  0.00    -0.217 NA
ATOM      8  C   UNL     1       3.372  -0.520   0.676  1.00  0.00     0.150 A 
ATOM      9  C   UNL     1       3.540  -1.846  -1.624  1.00  0.00     0.226 A 
ATOM     10  N   UNL     1       3.480  -0.064   1.977  1.00  0.00    -0.231 NA
ATOM     11  C   UNL     1       4.131  -1.661   0.493  1.00  0.00     0.162 A 
ATOM     12  N   UNL     1       4.266  -2.387  -0.624  1.00  0.00    -0.217 NA
ATOM     13  C   UNL     1       4.301  -0.913   2.561  1.00  0.00     0.199 A 
ATOM     14  N   UNL     1       4.720  -1.893   1.702  1.00  0.00    -0.329 N 
ATOM     15  H   UNL     1       5.348  -2.655   1.908  1.00  0.00     0.169 HD
ENDBRANCH   4   6
ENDBRANCH   1   4
BRANCH   1  16
ATOM     16  C   UNL     1      -0.483   0.294  -0.217  1.00  0.00     0.138 C 
ATOM     17  O   UNL     1      -0.073  -1.034  -0.131  1.00  0.00    -0.458 OA
ATOM     18  C   UNL     1      -1.649   0.742   0.304  1.00  0.00     0.071 C 
ATOM     19  C   UNL     1      -0.841  -1.938   0.544  1.00  0.00     0.138 A 
ATOM     20  C   UNL     1      -2.530  -0.224   1.022  1.00  0.00     0.200 C 
ATOM     21  C   UNL     1      -0.357  -3.244   0.628  1.00  0.00     0.048 A 
ATOM     22  C   UNL     1      -2.053  -1.608   1.130  1.00  0.00     0.065 A 
ATOM     23  O   UNL     1      -3.607   0.105   1.508  1.00  0.00    -0.288 OA
ATOM     24  C   UNL     1      -1.097  -4.218   1.302  1.00  0.00     0.004 A 
ATOM     25  C   UNL     1      -2.800  -2.578   1.806  1.00  0.00     0.016 A 
ATOM     26  C   UNL     1      -2.318  -3.886   1.891  1.00  0.00     0.001 A 
BRANCH  18  27
ATOM     27  C   UNL     1      -2.088   2.142   0.184  1.00  0.00    -0.008 A 
ATOM     28  C   UNL     1      -2.726   2.586  -0.985  1.00  0.00     0.009 A 
ATOM     29  C   UNL     1      -1.863   3.043   1.230  1.00  0.00     0.048 A 
ATOM     30  C   UNL     1      -3.128   3.919  -1.108  1.00  0.00     0.004 A 
ATOM     31  C   UNL     1      -2.268   4.366   1.095  1.00  0.00     0.123 A 
ATOM     32  C   UNL     1      -2.895   4.812  -0.064  1.00  0.00     0.039 A 
ATOM     33  F   UNL     1      -2.047   5.228   2.096  1.00  0.00    -0.207 F 
ENDBRANCH  18  27
ENDBRANCH   1  16
TORSDOF 5
