REMARK SMILES COc1ccc(-c2cncc(N[C@@H](C)c3cccc(NC(=O)c4cncc(C)c4)c3)n2)cc1OC
REMARK SMILES IDX 12 1 11 3 7 4 8 5 31 6 9 7 10 8 6 9 3 10 4 11 33 12 5 13
REMARK SMILES IDX 32 14 2 15 1 16 34 17 35 18 13 19 14 20 15 21 16 22 30 23
REMARK SMILES IDX 17 24 19 25 18 26 20 27 21 28 22 29 23 31 24 32 29 33 25 34
REMARK SMILES IDX 27 35 26 36 28 37
REMARK H PARENT 12 2 20 30
ROOT
ATOM      1  N   UNL     1       0.118  -0.944   0.698  1.00  0.00    -0.362 N 
ATOM      2  H   UNL     1      -0.454  -1.048   1.531  1.00  0.00     0.162 HD
ENDROOT
BRANCH   1   3
ATOM      3  C   UNL     1       1.403  -1.450   0.950  1.00  0.00     0.145 A 
ATOM      4  C   UNL     1       3.723  -1.302   0.858  1.00  0.00     0.091 A 
ATOM      5  C   UNL     1       3.811  -2.563   1.446  1.00  0.00     0.140 A 
ATOM      6  N   UNL     1       2.505  -0.742   0.619  1.00  0.00    -0.228 NA
ATOM      7  N   UNL     1       2.731  -3.305   1.783  1.00  0.00    -0.259 NA
ATOM      8  C   UNL     1       1.540  -2.724   1.506  1.00  0.00     0.157 A 
BRANCH   4   9
ATOM      9  C   UNL     1       4.898  -0.491   0.474  1.00  0.00     0.006 A 
ATOM     10  C   UNL     1       7.132   1.115  -0.243  1.00  0.00     0.160 A 
ATOM     11  C   UNL     1       5.911   1.706   0.083  1.00  0.00     0.051 A 
ATOM     12  C   UNL     1       7.245  -0.287  -0.223  1.00  0.00     0.161 A 
ATOM     13  C   UNL     1       4.814   0.911   0.433  1.00  0.00     0.014 A 
ATOM     14  C   UNL     1       6.134  -1.071   0.126  1.00  0.00     0.060 A 
BRANCH  10  15
ATOM     15  O   UNL     1       8.265   1.810  -0.584  1.00  0.00    -0.493 OA
ATOM     16  C   UNL     1       8.147   3.217  -0.750  1.00  0.00     0.278 C 
ENDBRANCH  10  15
BRANCH  12  17
ATOM     17  O   UNL     1       8.475  -0.795  -0.568  1.00  0.00    -0.493 OA
ATOM     18  C   UNL     1       8.651  -2.206  -0.529  1.00  0.00     0.278 C 
ENDBRANCH  12  17
ENDBRANCH   4   9
ENDBRANCH   1   3
BRANCH   1  19
ATOM     19  C   UNL     1       0.043   0.418   0.161  1.00  0.00     0.108 C 
ATOM     20  C   UNL     1       0.200   0.405  -1.363  1.00  0.00     0.036 C 
BRANCH  19  21
ATOM     21  C   UNL     1      -1.293   1.022   0.589  1.00  0.00    -0.024 A 
ATOM     22  C   UNL     1      -1.314   2.052   1.541  1.00  0.00     0.006 A 
ATOM     23  C   UNL     1      -2.517   0.543   0.081  1.00  0.00     0.032 A 
ATOM     24  C   UNL     1      -2.523   2.601   1.962  1.00  0.00     0.003 A 
ATOM     25  C   UNL     1      -3.734   1.096   0.489  1.00  0.00     0.041 A 
ATOM     26  C   UNL     1      -3.726   2.126   1.437  1.00  0.00     0.026 A 
BRANCH  25  27
ATOM     27  N   UNL     1      -4.994   0.673   0.012  1.00  0.00    -0.322 N 
ATOM     28  C   UNL     1      -5.246  -0.240  -0.997  1.00  0.00     0.257 C 
ATOM     29  O   UNL     1      -4.420  -0.812  -1.696  1.00  0.00    -0.269 OA
ATOM     30  H   UNL     1      -5.789   1.164   0.399  1.00  0.00     0.170 HD
BRANCH  28  31
ATOM     31  C   UNL     1      -6.682  -0.500  -1.260  1.00  0.00     0.058 A 
ATOM     32  C   UNL     1      -7.086  -0.761  -2.562  1.00  0.00     0.124 A 
ATOM     33  C   UNL     1      -7.651  -0.520  -0.251  1.00  0.00     0.020 A 
ATOM     34  N   UNL     1      -8.373  -1.000  -2.916  1.00  0.00    -0.264 NA
ATOM     35  C   UNL     1      -8.989  -0.758  -0.584  1.00  0.00    -0.032 A 
ATOM     36  C   UNL     1      -9.289  -0.998  -1.923  1.00  0.00     0.114 A 
ATOM     37  C   UNL     1     -10.053  -0.821   0.466  1.00  0.00     0.046 C 
ENDBRANCH  28  31
ENDBRANCH  25  27
ENDBRANCH  19  21
ENDBRANCH   1  19
TORSDOF 8
