REMARK SMILES CC(C)(Cc1ccc(Oc2ccc(C(N)=O)cn2)cc1)NC[C@H](O)COc1cccc2[nH]c3ccccc3c12
REMARK SMILES IDX 1 1 2 2 3 3 4 4 5 5 6 6 20 7 7 8 19 9 8 10 9 11 10 12 11 13
REMARK SMILES IDX 18 14 12 15 17 16 13 17 14 18 15 19 16 20 21 23 22 25 23 26
REMARK SMILES IDX 24 27 25 29 26 30 27 31 28 32 39 33 29 34 38 35 31 36 30 37
REMARK SMILES IDX 37 38 33 39 32 40 36 41 34 42 35 43
REMARK H PARENT 15 21 15 22 21 24 24 28 32 44
ROOT
ATOM      1  C   UNL     1       0.914  -2.627  -1.494  1.00  0.00     0.028 C 
ATOM      2  C   UNL     1       0.036  -1.587  -0.756  1.00  0.00     0.017 C 
ATOM      3  C   UNL     1       0.555  -1.484   0.692  1.00  0.00     0.028 C 
ENDROOT
BRANCH   2   4
ATOM      4  C   UNL     1      -1.424  -2.154  -0.765  1.00  0.00     0.057 C 
BRANCH   4   5
ATOM      5  C   UNL     1      -2.471  -1.388   0.018  1.00  0.00    -0.046 A 
ATOM      6  C   UNL     1      -2.887  -1.843   1.280  1.00  0.00     0.007 A 
ATOM      7  C   UNL     1      -3.056  -0.229  -0.512  1.00  0.00     0.007 A 
ATOM      8  C   UNL     1      -3.883  -1.166   1.987  1.00  0.00     0.047 A 
ATOM      9  C   UNL     1      -4.051   0.451   0.194  1.00  0.00     0.047 A 
ATOM     10  C   UNL     1      -4.480  -0.039   1.427  1.00  0.00     0.129 A 
BRANCH  10  11
ATOM     11  O   UNL     1      -5.457   0.598   2.153  1.00  0.00    -0.439 OA
BRANCH  11  12
ATOM     12  C   UNL     1      -6.709   0.700   1.576  1.00  0.00     0.219 A 
ATOM     13  C   UNL     1      -7.248  -0.276   0.741  1.00  0.00     0.070 A 
ATOM     14  N   UNL     1      -7.394   1.809   1.941  1.00  0.00    -0.221 NA
ATOM     15  C   UNL     1      -8.531  -0.088   0.226  1.00  0.00     0.021 A 
ATOM     16  C   UNL     1      -8.640   1.965   1.430  1.00  0.00     0.129 A 
ATOM     17  C   UNL     1      -9.250   1.051   0.584  1.00  0.00     0.058 A 
BRANCH  17  18
ATOM     18  C   UNL     1     -10.604   1.269   0.036  1.00  0.00     0.250 C 
ATOM     19  N   UNL     1     -11.487   1.983   0.800  1.00  0.00    -0.366 N 
ATOM     20  O   UNL     1     -10.935   0.807  -1.047  1.00  0.00    -0.269 OA
ATOM     21  H   UNL     1     -12.439   2.010   0.452  1.00  0.00     0.159 HD
ATOM     22  H   UNL     1     -11.366   2.095   1.797  1.00  0.00     0.159 HD
ENDBRANCH  17  18
ENDBRANCH  11  12
ENDBRANCH  10  11
ENDBRANCH   4   5
ENDBRANCH   2   4
BRANCH   2  23
ATOM     23  N   UNL     1       0.062  -0.352  -1.551  1.00  0.00    -0.309 NA
ATOM     24  H   UNL     1       0.452  -0.465  -2.491  1.00  0.00     0.123 HD
BRANCH  23  25
ATOM     25  C   UNL     1       0.498   0.921  -0.989  1.00  0.00     0.116 C 
BRANCH  25  26
ATOM     26  C   UNL     1       1.857   1.415  -1.525  1.00  0.00     0.165 C 
BRANCH  26  27
ATOM     27  O   UNL     1       1.869   1.303  -2.962  1.00  0.00    -0.388 OA
ATOM     28  H   UNL     1       2.759   1.596  -3.236  1.00  0.00     0.211 HD
ENDBRANCH  26  27
BRANCH  26  29
ATOM     29  C   UNL     1       3.058   0.655  -0.958  1.00  0.00     0.262 C 
BRANCH  29  30
ATOM     30  O   UNL     1       4.243   1.258  -1.513  1.00  0.00    -0.490 OA
BRANCH  30  31
ATOM     31  C   UNL     1       5.265   0.334  -1.570  1.00  0.00     0.129 A 
ATOM     32  C   UNL     1       5.344  -0.492  -2.701  1.00  0.00     0.047 A 
ATOM     33  C   UNL     1       6.253   0.255  -0.563  1.00  0.00     0.049 A 
ATOM     34  C   UNL     1       6.371  -1.424  -2.821  1.00  0.00     0.006 A 
ATOM     35  C   UNL     1       6.502   0.942   0.673  1.00  0.00     0.011 A 
ATOM     36  C   UNL     1       7.273  -0.687  -0.725  1.00  0.00     0.050 A 
ATOM     37  C   UNL     1       7.354  -1.542  -1.833  1.00  0.00     0.027 A 
ATOM     38  C   UNL     1       5.848   1.977   1.375  1.00  0.00     0.011 A 
ATOM     39  C   UNL     1       7.668   0.405   1.223  1.00  0.00     0.047 A 
ATOM     40  N   UNL     1       8.109  -0.571   0.363  1.00  0.00    -0.354 N 
ATOM     41  C   UNL     1       6.372   2.428   2.592  1.00  0.00     0.001 A 
ATOM     42  C   UNL     1       8.211   0.847   2.436  1.00  0.00     0.027 A 
ATOM     43  C   UNL     1       7.539   1.870   3.112  1.00  0.00     0.002 A 
ATOM     44  H   UNL     1       8.939  -1.126   0.508  1.00  0.00     0.167 HD
ENDBRANCH  30  31
ENDBRANCH  29  30
ENDBRANCH  26  29
ENDBRANCH  25  26
ENDBRANCH  23  25
ENDBRANCH   2  23
TORSDOF 12
