REMARK SMILES CN(C)C1CCN(C(=O)c2ccc(NC(=O)Nc3ccc(-c4nc(N5CCOCC5)nc(N5CCOCC5)n4)cc3)cc2)CC1
REMARK SMILES IDX 10 1 11 2 12 3 13 4 42 5 43 6 8 7 4 8 5 9 45 10 6 11 44 12
REMARK SMILES IDX 7 13 9 14 2 15 1 16 3 17 14 18 15 19 16 20 17 21 18 24 19 25
REMARK SMILES IDX 41 26 20 27 40 28 21 29 22 30 23 31 39 32 24 33 32 34 31 35
REMARK SMILES IDX 25 36 26 37 30 38 27 39 29 40 28 41 33 42 34 43 38 44 35 45
REMARK SMILES IDX 37 46 36 47
REMARK H PARENT 14 22 17 23
ROOT
ATOM      1  C   UNL     1       6.150  -0.910  -2.063  1.00  0.00     0.040 A 
ATOM      2  C   UNL     1       5.189   0.102  -2.042  1.00  0.00     0.016 A 
ATOM      3  C   UNL     1       3.855  -0.216  -1.768  1.00  0.00     0.027 A 
ATOM      4  C   UNL     1       3.478  -1.539  -1.521  1.00  0.00     0.042 A 
ATOM      5  C   UNL     1       4.452  -2.548  -1.574  1.00  0.00     0.027 A 
ATOM      6  C   UNL     1       5.786  -2.238  -1.847  1.00  0.00     0.016 A 
ENDROOT
BRANCH   1   7
ATOM      7  C   UNL     1       7.559  -0.591  -2.362  1.00  0.00     0.253 C 
ATOM      8  C   UNL     1      10.198   0.044   0.899  1.00  0.00     0.059 C 
ATOM      9  C   UNL     1       8.890   0.856   0.913  1.00  0.00     0.040 C 
ATOM     10  C   UNL     1      10.640  -0.330  -0.538  1.00  0.00     0.040 C 
ATOM     11  C   UNL     1       7.846   0.200   0.012  1.00  0.00     0.121 C 
ATOM     12  C   UNL     1       9.737   0.266  -1.613  1.00  0.00     0.121 C 
ATOM     13  N   UNL     1       8.333  -0.028  -1.349  1.00  0.00    -0.339 N 
ATOM     14  O   UNL     1       7.973  -0.861  -3.486  1.00  0.00    -0.269 OA
BRANCH   8  15
ATOM     15  N   UNL     1      11.321   0.631   1.662  1.00  0.00    -0.306 NA
ATOM     16  C   UNL     1      11.109   0.563   3.108  1.00  0.00     0.105 C 
ATOM     17  C   UNL     1      11.668   1.997   1.269  1.00  0.00     0.105 C 
ENDBRANCH   8  15
ENDBRANCH   1   7
BRANCH   4  18
ATOM     18  N   UNL     1       2.152  -1.939  -1.254  1.00  0.00    -0.308 N 
ATOM     19  C   UNL     1       1.066  -1.120  -0.974  1.00  0.00     0.323 C 
ATOM     20  O   UNL     1       1.130   0.088  -0.783  1.00  0.00    -0.248 OA
ATOM     21  N   UNL     1      -0.098  -1.876  -0.943  1.00  0.00    -0.308 N 
ATOM     22  H   UNL     1       2.010  -2.924  -1.097  1.00  0.00     0.171 HD
ATOM     23  H   UNL     1      -0.035  -2.792  -1.360  1.00  0.00     0.171 HD
BRANCH  21  24
ATOM     24  C   UNL     1      -1.398  -1.439  -0.613  1.00  0.00     0.042 A 
ATOM     25  C   UNL     1      -2.449  -2.334  -0.830  1.00  0.00     0.027 A 
ATOM     26  C   UNL     1      -1.689  -0.189  -0.074  1.00  0.00     0.027 A 
ATOM     27  C   UNL     1      -3.770  -1.976  -0.529  1.00  0.00     0.014 A 
ATOM     28  C   UNL     1      -3.012   0.166   0.226  1.00  0.00     0.014 A 
ATOM     29  C   UNL     1      -4.087  -0.714   0.003  1.00  0.00     0.020 A 
BRANCH  29  30
ATOM     30  C   UNL     1      -5.482  -0.329   0.310  1.00  0.00     0.167 A 
ATOM     31  N   UNL     1      -5.700   0.910   0.739  1.00  0.00    -0.193 NA
ATOM     32  N   UNL     1      -6.431  -1.242   0.120  1.00  0.00    -0.193 NA
ATOM     33  C   UNL     1      -6.961   1.223   0.999  1.00  0.00     0.230 A 
ATOM     34  C   UNL     1      -7.667  -0.862   0.408  1.00  0.00     0.230 A 
ATOM     35  N   UNL     1      -7.959   0.357   0.854  1.00  0.00    -0.177 NA
BRANCH  33  36
ATOM     36  N   UNL     1      -7.249   2.496   1.464  1.00  0.00    -0.336 N 
ATOM     37  C   UNL     1      -8.662   2.891   1.457  1.00  0.00     0.148 C 
ATOM     38  C   UNL     1      -6.281   3.574   1.216  1.00  0.00     0.148 C 
ATOM     39  C   UNL     1      -8.792   4.369   1.853  1.00  0.00     0.181 C 
ATOM     40  C   UNL     1      -6.933   4.675   0.363  1.00  0.00     0.181 C 
ATOM     41  O   UNL     1      -8.099   5.262   0.966  1.00  0.00    -0.378 OA
ENDBRANCH  33  36
BRANCH  34  42
ATOM     42  N   UNL     1      -8.693  -1.775   0.258  1.00  0.00    -0.336 N 
ATOM     43  C   UNL     1      -8.501  -2.939  -0.611  1.00  0.00     0.148 C 
ATOM     44  C   UNL     1     -10.066  -1.289   0.406  1.00  0.00     0.148 C 
ATOM     45  C   UNL     1      -9.649  -3.027  -1.631  1.00  0.00     0.181 C 
ATOM     46  C   UNL     1     -11.044  -2.462   0.240  1.00  0.00     0.181 C 
ATOM     47  O   UNL     1     -10.952  -3.113  -1.037  1.00  0.00    -0.378 OA
ENDBRANCH  34  42
ENDBRANCH  29  30
ENDBRANCH  21  24
ENDBRANCH   4  18
TORSDOF 7
