REMARK SMILES CNC(=O)c1cccc(-c2ccc3c(N4CCOC[C@@H]4C)nc(N4CCOC[C@@H]4C)nc3n2)c1
REMARK SMILES IDX 10 1 11 2 12 3 13 4 14 5 22 6 23 7 31 8 32 9 33 10 9 11 5 12
REMARK SMILES IDX 6 13 34 14 7 15 8 16 3 17 2 18 4 19 1 20 15 22 16 23 20 24
REMARK SMILES IDX 17 25 19 26 18 27 21 28 24 29 25 30 29 31 26 32 28 33 27 34
REMARK SMILES IDX 30 35
REMARK H PARENT 2 21
ROOT
ATOM      1  C   UNL     1       2.079  -0.377   0.481  1.00  0.00     0.073 A 
ATOM      2  C   UNL     1       2.108   0.992   0.255  1.00  0.00     0.030 A 
ATOM      3  C   UNL     1       0.904   1.661   0.083  1.00  0.00     0.018 A 
ATOM      4  C   UNL     1      -0.312   0.948   0.129  1.00  0.00     0.062 A 
ATOM      5  C   UNL     1      -1.589   1.494  -0.028  1.00  0.00     0.144 A 
ATOM      6  N   UNL     1      -2.688   0.738   0.106  1.00  0.00    -0.195 NA
ATOM      7  C   UNL     1      -2.554  -0.571   0.343  1.00  0.00     0.229 A 
ATOM      8  N   UNL     1      -1.360  -1.150   0.468  1.00  0.00    -0.193 NA
ATOM      9  C   UNL     1      -0.264  -0.415   0.377  1.00  0.00     0.167 A 
ATOM     10  N   UNL     1       0.901  -1.050   0.532  1.00  0.00    -0.228 NA
ENDROOT
BRANCH   1  11
ATOM     11  C   UNL     1       3.294  -1.207   0.678  1.00  0.00     0.001 A 
ATOM     12  C   UNL     1       5.685  -1.460   1.197  1.00  0.00     0.040 A 
ATOM     13  C   UNL     1       5.584  -2.847   1.061  1.00  0.00     0.014 A 
ATOM     14  C   UNL     1       4.544  -0.657   1.022  1.00  0.00     0.024 A 
ATOM     15  C   UNL     1       4.360  -3.419   0.728  1.00  0.00     0.002 A 
ATOM     16  C   UNL     1       3.237  -2.608   0.536  1.00  0.00     0.010 A 
BRANCH  12  17
ATOM     17  C   UNL     1       6.968  -0.787   1.550  1.00  0.00     0.251 C 
ATOM     18  N   UNL     1       8.130  -1.463   1.233  1.00  0.00    -0.355 N 
ATOM     19  O   UNL     1       6.956   0.328   2.060  1.00  0.00    -0.269 OA
ATOM     20  C   UNL     1       9.415  -0.842   1.432  1.00  0.00     0.143 C 
ATOM     21  H   UNL     1       8.082  -2.243   0.592  1.00  0.00     0.163 HD
ENDBRANCH  12  17
ENDBRANCH   1  11
BRANCH   5  22
ATOM     22  N   UNL     1      -1.752   2.860  -0.342  1.00  0.00    -0.349 N 
ATOM     23  C   UNL     1      -3.022   3.429   0.164  1.00  0.00     0.147 C 
ATOM     24  C   UNL     1      -1.503   3.186  -1.777  1.00  0.00     0.106 C 
ATOM     25  C   UNL     1      -3.052   4.941  -0.105  1.00  0.00     0.181 C 
ATOM     26  C   UNL     1      -1.603   4.721  -1.952  1.00  0.00     0.185 C 
ATOM     27  O   UNL     1      -2.867   5.235  -1.500  1.00  0.00    -0.377 OA
ATOM     28  C   UNL     1      -2.465   2.475  -2.736  1.00  0.00     0.033 C 
ENDBRANCH   5  22
BRANCH   7  29
ATOM     29  N   UNL     1      -3.703  -1.354   0.479  1.00  0.00    -0.333 N 
ATOM     30  C   UNL     1      -4.939  -0.776  -0.069  1.00  0.00     0.148 C 
ATOM     31  C   UNL     1      -3.509  -2.796   0.186  1.00  0.00     0.108 C 
ATOM     32  C   UNL     1      -5.150  -1.279  -1.504  1.00  0.00     0.181 C 
ATOM     33  C   UNL     1      -4.793  -3.401  -0.434  1.00  0.00     0.185 C 
ATOM     34  O   UNL     1      -5.232  -2.711  -1.614  1.00  0.00    -0.377 OA
ATOM     35  C   UNL     1      -3.164  -3.548   1.471  1.00  0.00     0.033 C 
ENDBRANCH   7  29
TORSDOF 4
