REMARK SMILES CCCCCCCCCCCCNCC(O)CCCCCCCCCn1c(=O)c2c(ncn2C)n(C)c1=O
REMARK SMILES IDX 13 1 12 3 11 4 10 5 9 6 8 7 7 8 6 9 5 10 4 11 3 12 2 13 1 14
REMARK SMILES IDX 14 15 15 16 16 17 17 19 18 20 19 21 20 22 21 23 22 24 23 25
REMARK SMILES IDX 24 26 25 27 26 28 27 29 37 30 28 31 29 32 35 33 38 34 30 35
REMARK SMILES IDX 33 36 31 37 32 38 36 39 34 40
REMARK H PARENT 13 2 16 18
ROOT
ATOM      1  N   UNL     1       3.524  -0.525   0.684  1.00  0.00    -0.314 NA
ATOM      2  H   UNL     1       3.190  -0.409  -0.278  1.00  0.00     0.122 HD
ENDROOT
BRANCH   1   3
ATOM      3  C   UNL     1       3.811  -1.948   0.882  1.00  0.00     0.081 C 
BRANCH   3   4
ATOM      4  C   UNL     1       4.463  -2.297   2.222  1.00  0.00     0.015 C 
BRANCH   4   5
ATOM      5  C   UNL     1       5.708  -1.489   2.611  1.00  0.00     0.001 C 
BRANCH   5   6
ATOM      6  C   UNL     1       6.956  -1.758   1.763  1.00  0.00     0.000 C 
BRANCH   6   7
ATOM      7  C   UNL     1       7.121  -0.917   0.491  1.00  0.00     0.000 C 
BRANCH   7   8
ATOM      8  C   UNL     1       7.296   0.580   0.764  1.00  0.00     0.000 C 
BRANCH   8   9
ATOM      9  C   UNL     1       7.487   1.413  -0.509  1.00  0.00    -0.000 C 
BRANCH   9  10
ATOM     10  C   UNL     1       8.707   1.065  -1.371  1.00  0.00    -0.000 C 
BRANCH  10  11
ATOM     11  C   UNL     1      10.039   1.244  -0.644  1.00  0.00    -0.000 C 
BRANCH  11  12
ATOM     12  C   UNL     1      11.266   0.841  -1.471  1.00  0.00    -0.000 C 
BRANCH  12  13
ATOM     13  C   UNL     1      11.504   1.690  -2.724  1.00  0.00    -0.003 C 
ATOM     14  C   UNL     1      10.983   1.035  -3.996  1.00  0.00     0.004 C 
ENDBRANCH  12  13
ENDBRANCH  11  12
ENDBRANCH  10  11
ENDBRANCH   9  10
ENDBRANCH   8   9
ENDBRANCH   7   8
ENDBRANCH   6   7
ENDBRANCH   5   6
ENDBRANCH   4   5
ENDBRANCH   3   4
ENDBRANCH   1   3
BRANCH   1  15
ATOM     15  C   UNL     1       2.472   0.002   1.566  1.00  0.00     0.112 C 
BRANCH  15  16
ATOM     16  C   UNL     1       1.047  -0.389   1.112  1.00  0.00     0.128 C 
BRANCH  16  17
ATOM     17  O   UNL     1       0.868  -0.016  -0.259  1.00  0.00    -0.392 OA
ATOM     18  H   UNL     1       1.021   0.943  -0.323  1.00  0.00     0.211 HD
ENDBRANCH  16  17
BRANCH  16  19
ATOM     19  C   UNL     1      -0.015   0.298   1.980  1.00  0.00     0.033 C 
BRANCH  19  20
ATOM     20  C   UNL     1      -1.462  -0.000   1.566  1.00  0.00     0.003 C 
BRANCH  20  21
ATOM     21  C   UNL     1      -1.840  -1.477   1.711  1.00  0.00     0.000 C 
BRANCH  21  22
ATOM     22  C   UNL     1      -3.338  -1.737   1.515  1.00  0.00     0.000 C 
BRANCH  22  23
ATOM     23  C   UNL     1      -3.819  -1.442   0.092  1.00  0.00     0.000 C 
BRANCH  23  24
ATOM     24  C   UNL     1      -5.276  -1.849  -0.154  1.00  0.00     0.000 C 
BRANCH  24  25
ATOM     25  C   UNL     1      -6.318  -1.176   0.748  1.00  0.00     0.002 C 
BRANCH  25  26
ATOM     26  C   UNL     1      -6.307   0.356   0.747  1.00  0.00     0.022 C 
BRANCH  26  27
ATOM     27  C   UNL     1      -6.693   1.008  -0.589  1.00  0.00     0.131 C 
BRANCH  27  28
ATOM     28  N   UNL     1      -8.114   0.867  -0.902  1.00  0.00    -0.258 N 
ATOM     29  C   UNL     1      -8.994   1.730  -0.235  1.00  0.00     0.282 C 
ATOM     30  C   UNL     1      -8.490  -0.098  -1.860  1.00  0.00     0.332 C 
ATOM     31  O   UNL     1      -8.644   2.584   0.575  1.00  0.00    -0.267 OA
ATOM     32  C   UNL     1     -10.353   1.525  -0.593  1.00  0.00     0.152 A 
ATOM     33  N   UNL     1      -9.853  -0.236  -2.128  1.00  0.00    -0.279 N 
ATOM     34  O   UNL     1      -7.650  -0.791  -2.440  1.00  0.00    -0.247 OA
ATOM     35  C   UNL     1     -10.752   0.587  -1.495  1.00  0.00     0.167 A 
ATOM     36  N   UNL     1     -11.504   2.134  -0.185  1.00  0.00    -0.328 N 
ATOM     37  N   UNL     1     -12.103   0.590  -1.668  1.00  0.00    -0.218 NA
ATOM     38  C   UNL     1     -12.535   1.538  -0.861  1.00  0.00     0.202 A 
ATOM     39  C   UNL     1     -10.317  -1.205  -3.103  1.00  0.00     0.157 C 
ATOM     40  C   UNL     1     -11.621   3.201   0.776  1.00  0.00     0.151 C 
ENDBRANCH  27  28
ENDBRANCH  26  27
ENDBRANCH  25  26
ENDBRANCH  24  25
ENDBRANCH  23  24
ENDBRANCH  22  23
ENDBRANCH  21  22
ENDBRANCH  20  21
ENDBRANCH  19  20
ENDBRANCH  16  19
ENDBRANCH  15  16
ENDBRANCH   1  15
TORSDOF 24
