REMARK SMILES CCCC[C@H](C)C[C@H](O)/C=C/[C@H]1[C@H](O)CC(=O)[C@@H]1CC(=O)CCCCC(=O)OC
REMARK SMILES IDX 12 1 13 2 15 3 16 4 17 5 18 6 11 7 10 8 8 9 7 10 5 11 6 12
REMARK SMILES IDX 4 13 3 14 2 15 1 16 9 17 14 19 19 21 20 22 21 23 22 24 23 25
REMARK SMILES IDX 24 26 25 27 26 28 27 29 28 30 29 31
REMARK H PARENT 9 18 14 20
ROOT
ATOM      1  C   UNL     1       0.638  -0.958   0.464  1.00  0.00     0.051 C 
ATOM      2  C   UNL     1       1.112  -2.178   1.285  1.00  0.00     0.129 C 
ATOM      3  C   UNL     1       1.166  -3.344   0.307  1.00  0.00     0.108 C 
ATOM      4  C   UNL     1       1.581  -2.639  -0.954  1.00  0.00     0.139 C 
ATOM      5  O   UNL     1       2.092  -3.204  -1.914  1.00  0.00    -0.299 OA
ATOM      6  C   UNL     1       1.261  -1.161  -0.938  1.00  0.00     0.073 C 
ENDROOT
BRANCH   1   7
ATOM      7  C   UNL     1      -0.864  -0.760   0.335  1.00  0.00    -0.022 C 
ATOM      8  C   UNL     1      -1.854  -1.544   0.797  1.00  0.00     0.000 C 
BRANCH   8   9
ATOM      9  C   UNL     1      -3.344  -1.312   0.660  1.00  0.00     0.137 C 
BRANCH   9  10
ATOM     10  C   UNL     1      -3.766  -0.210  -0.328  1.00  0.00     0.039 C 
BRANCH  10  11
ATOM     11  C   UNL     1      -5.276  -0.123  -0.676  1.00  0.00    -0.011 C 
ATOM     12  C   UNL     1      -5.771  -1.404  -1.354  1.00  0.00     0.008 C 
BRANCH  11  13
ATOM     13  C   UNL     1      -6.149   0.259   0.535  1.00  0.00     0.003 C 
BRANCH  13  14
ATOM     14  C   UNL     1      -7.611   0.598   0.214  1.00  0.00    -0.000 C 
BRANCH  14  15
ATOM     15  C   UNL     1      -7.832   1.746  -0.774  1.00  0.00    -0.003 C 
ATOM     16  C   UNL     1      -7.215   3.062  -0.325  1.00  0.00     0.004 C 
ENDBRANCH  14  15
ENDBRANCH  13  14
ENDBRANCH  11  13
ENDBRANCH  10  11
ENDBRANCH   9  10
BRANCH   9  17
ATOM     17  O   UNL     1      -3.825  -0.990   1.959  1.00  0.00    -0.389 OA
ATOM     18  H   UNL     1      -3.542  -1.693   2.566  1.00  0.00     0.211 HD
ENDBRANCH   9  17
ENDBRANCH   8   9
ENDBRANCH   1   7
BRANCH   2  19
ATOM     19  O   UNL     1       2.429  -1.993   1.801  1.00  0.00    -0.392 OA
ATOM     20  H   UNL     1       2.522  -1.073   2.125  1.00  0.00     0.210 HD
ENDBRANCH   2  19
BRANCH   6  21
ATOM     21  C   UNL     1       2.474  -0.301  -1.286  1.00  0.00     0.087 C 
BRANCH  21  22
ATOM     22  C   UNL     1       3.591  -0.314  -0.261  1.00  0.00     0.133 C 
ATOM     23  O   UNL     1       3.488   0.352   0.772  1.00  0.00    -0.300 OA
BRANCH  22  24
ATOM     24  C   UNL     1       4.792  -1.200  -0.554  1.00  0.00     0.075 C 
BRANCH  24  25
ATOM     25  C   UNL     1       5.922  -1.092   0.471  1.00  0.00     0.008 C 
BRANCH  25  26
ATOM     26  C   UNL     1       6.939   0.018   0.180  1.00  0.00     0.012 C 
BRANCH  26  27
ATOM     27  C   UNL     1       6.381   1.433   0.315  1.00  0.00     0.123 C 
BRANCH  27  28
ATOM     28  C   UNL     1       7.458   2.480   0.147  1.00  0.00     0.305 C 
ATOM     29  O   UNL     1       8.621   2.261  -0.161  1.00  0.00    -0.252 OA
BRANCH  28  30
ATOM     30  O   UNL     1       6.929   3.716   0.376  1.00  0.00    -0.469 OA
ATOM     31  C   UNL     1       7.867   4.784   0.239  1.00  0.00     0.282 C 
ENDBRANCH  28  30
ENDBRANCH  27  28
ENDBRANCH  26  27
ENDBRANCH  25  26
ENDBRANCH  24  25
ENDBRANCH  22  24
ENDBRANCH  21  22
ENDBRANCH   6  21
TORSDOF 17
