REMARK SMILES Cc1ccc([C@H]2C[C@@H]2COc2cc(NCc3nnc(C)s3)nc(C)n2)nc1
REMARK SMILES IDX 11 1 12 2 13 3 22 4 23 5 24 6 25 7 10 8 9 9 8 10 6 11 7 12
REMARK SMILES IDX 5 13 2 14 3 15 27 16 4 17 26 18 1 19 14 20 15 22 16 23 17 24
REMARK SMILES IDX 21 25 18 26 19 27 20 28
REMARK H PARENT 14 21
ROOT
ATOM      1  C   UNL     1       0.518  -0.043  -1.232  1.00  0.00     0.218 A 
ATOM      2  C   UNL     1       1.727   0.142  -0.607  1.00  0.00     0.115 A 
ATOM      3  C   UNL     1       2.733  -0.724  -0.966  1.00  0.00     0.133 A 
ATOM      4  N   UNL     1       2.542  -1.714  -1.847  1.00  0.00    -0.216 NA
ATOM      5  C   UNL     1       1.315  -1.828  -2.390  1.00  0.00     0.131 A 
ATOM      6  C   UNL     1       1.102  -2.914  -3.397  1.00  0.00     0.090 C 
ATOM      7  N   UNL     1       0.283  -1.013  -2.126  1.00  0.00    -0.199 NA
ENDROOT
BRANCH   1   8
ATOM      8  O   UNL     1      -0.492   0.819  -0.857  1.00  0.00    -0.477 OA
BRANCH   8   9
ATOM      9  C   UNL     1      -1.700   0.716  -1.617  1.00  0.00     0.235 C 
BRANCH   9  10
ATOM     10  C   UNL     1      -2.762  -0.072  -0.911  1.00  0.00     0.037 C 
ATOM     11  C   UNL     1      -3.026   0.153   0.567  1.00  0.00     0.045 C 
ATOM     12  C   UNL     1      -2.483  -1.173   0.078  1.00  0.00     0.018 C 
BRANCH  11  13
ATOM     13  C   UNL     1      -4.450   0.261   1.057  1.00  0.00     0.044 A 
ATOM     14  C   UNL     1      -7.070   0.501   1.945  1.00  0.00    -0.033 A 
ATOM     15  C   UNL     1      -6.165  -0.265   2.674  1.00  0.00     0.007 A 
ATOM     16  C   UNL     1      -6.601   1.104   0.788  1.00  0.00     0.114 A 
ATOM     17  C   UNL     1      -4.849  -0.382   2.230  1.00  0.00     0.024 A 
ATOM     18  N   UNL     1      -5.327   1.008   0.341  1.00  0.00    -0.261 NA
ATOM     19  C   UNL     1      -8.498   0.624   2.370  1.00  0.00     0.046 C 
ENDBRANCH  11  13
ENDBRANCH   9  10
ENDBRANCH   8   9
ENDBRANCH   1   8
BRANCH   3  20
ATOM     20  N   UNL     1       4.012  -0.656  -0.408  1.00  0.00    -0.363 N 
ATOM     21  H   UNL     1       4.524  -1.418  -0.858  1.00  0.00     0.162 HD
BRANCH  20  22
ATOM     22  C   UNL     1       4.698   0.620  -0.646  1.00  0.00     0.184 C 
BRANCH  22  23
ATOM     23  C   UNL     1       6.142   0.638  -0.232  1.00  0.00     0.136 A 
ATOM     24  N   UNL     1       7.164   0.674  -1.063  1.00  0.00    -0.142 NA
ATOM     25  S   UNL     1       6.593   0.615   1.428  1.00  0.00    -0.100 S 
ATOM     26  N   UNL     1       8.375   0.687  -0.402  1.00  0.00    -0.144 NA
ATOM     27  C   UNL     1       8.228   0.652   0.905  1.00  0.00     0.114 A 
ATOM     28  C   UNL     1       9.342   0.647   1.887  1.00  0.00     0.081 C 
ENDBRANCH  22  23
ENDBRANCH  20  22
ENDBRANCH   3  20
TORSDOF 7
