REMARK SMILES CC[C@@H](Nc1c(Nc2cccc(C(=O)N(C)C)c2O)c(=O)c1=O)c1ccc(C)o1
REMARK SMILES IDX 5 1 6 2 20 3 21 4 22 5 23 6 4 7 3 9 2 10 1 11 24 12 25 13
REMARK SMILES IDX 29 14 26 15 27 16 28 17 7 18 8 20 9 21 18 22 10 23 12 24
REMARK SMILES IDX 11 25 19 26 13 28 14 29 15 30 16 31 17 32
REMARK H PARENT 4 8 7 19 19 27
ROOT
ATOM      1  C   UNL     1      -1.465  -1.216   0.537  1.00  0.00     0.115 C 
ATOM      2  C   UNL     1      -0.412  -1.846  -0.088  1.00  0.00     0.119 C 
ATOM      3  C   UNL     1      -1.254  -3.008  -0.451  1.00  0.00     0.253 C 
ATOM      4  O   UNL     1      -1.163  -4.031  -1.084  1.00  0.00    -0.283 OA
ATOM      5  C   UNL     1      -2.346  -2.401   0.341  1.00  0.00     0.253 C 
ATOM      6  O   UNL     1      -3.434  -2.819   0.652  1.00  0.00    -0.283 OA
ENDROOT
BRANCH   1   7
ATOM      7  N   UNL     1      -1.676  -0.037   1.101  1.00  0.00    -0.370 N 
ATOM      8  H   UNL     1      -0.978   0.687   0.927  1.00  0.00     0.161 HD
BRANCH   7   9
ATOM      9  C   UNL     1      -3.003   0.574   1.320  1.00  0.00     0.145 C 
BRANCH   9  10
ATOM     10  C   UNL     1      -3.699  -0.064   2.536  1.00  0.00     0.029 C 
ATOM     11  C   UNL     1      -4.834   0.793   3.087  1.00  0.00     0.006 C 
ENDBRANCH   9  10
BRANCH   9  12
ATOM     12  C   UNL     1      -3.846   0.671   0.081  1.00  0.00     0.126 A 
ATOM     13  C   UNL     1      -3.768   1.476  -1.039  1.00  0.00     0.048 A 
ATOM     14  O   UNL     1      -4.893  -0.193  -0.048  1.00  0.00    -0.464 OA
ATOM     15  C   UNL     1      -4.823   1.080  -1.895  1.00  0.00     0.045 A 
ATOM     16  C   UNL     1      -5.480   0.055  -1.249  1.00  0.00     0.101 A 
ATOM     17  C   UNL     1      -6.639  -0.792  -1.591  1.00  0.00     0.087 C 
ENDBRANCH   9  12
ENDBRANCH   7   9
ENDBRANCH   1   7
BRANCH   2  18
ATOM     18  N   UNL     1       0.845  -1.653  -0.420  1.00  0.00    -0.347 N 
ATOM     19  H   UNL     1       1.279  -2.215  -1.163  1.00  0.00     0.167 HD
BRANCH  18  20
ATOM     20  C   UNL     1       1.812  -0.751   0.086  1.00  0.00     0.082 A 
ATOM     21  C   UNL     1       1.680  -0.083   1.308  1.00  0.00     0.030 A 
ATOM     22  C   UNL     1       2.943  -0.472  -0.704  1.00  0.00     0.151 A 
ATOM     23  C   UNL     1       2.633   0.853   1.723  1.00  0.00     0.003 A 
ATOM     24  C   UNL     1       3.929   0.428  -0.275  1.00  0.00     0.083 A 
ATOM     25  C   UNL     1       3.748   1.119   0.929  1.00  0.00     0.018 A 
BRANCH  22  26
ATOM     26  O   UNL     1       3.028  -1.124  -1.917  1.00  0.00    -0.505 OA
ATOM     27  H   UNL     1       3.677  -0.629  -2.467  1.00  0.00     0.293 HD
ENDBRANCH  22  26
BRANCH  24  28
ATOM     28  C   UNL     1       5.107   0.690  -1.137  1.00  0.00     0.257 C 
ATOM     29  O   UNL     1       4.904   0.717  -2.352  1.00  0.00    -0.269 OA
ATOM     30  N   UNL     1       6.364   0.888  -0.569  1.00  0.00    -0.345 N 
ATOM     31  C   UNL     1       7.435   1.331  -1.446  1.00  0.00     0.146 C 
ATOM     32  C   UNL     1       6.788   0.282   0.688  1.00  0.00     0.146 C 
ENDBRANCH  24  28
ENDBRANCH  18  20
ENDBRANCH   2  18
TORSDOF 8
