REMARK SMILES CC(=O)OP(=O)(O)N(C[C@H]1CN(c2cc(F)c(N3C=CC(=O)CC3)c(F)c2F)C(=O)O1)c1ccon1
REMARK SMILES IDX 8 1 5 2 6 3 4 4 2 5 3 6 1 7 7 8 9 10 10 11 11 12 31 13 12 14
REMARK SMILES IDX 29 15 30 16 13 17 14 18 27 19 15 20 25 21 17 22 28 23 16 24
REMARK SMILES IDX 26 25 18 26 19 27 24 28 20 29 23 30 21 31 22 32 32 33 33 34
REMARK SMILES IDX 36 35 34 36 35 37
REMARK H PARENT 7 9
ROOT
ATOM      1  N   UNL     1       4.304  -0.524  -0.099  1.00  0.00    -0.246 N 
ENDROOT
BRANCH   1   2
ATOM      2  P   UNL     1       4.718  -0.849   1.446  1.00  0.00     0.490 P 
ATOM      3  O   UNL     1       3.952  -0.208   2.569  1.00  0.00    -0.223 OA
BRANCH   2   4
ATOM      4  O   UNL     1       6.301  -0.736   1.669  1.00  0.00    -0.376 OA
BRANCH   4   5
ATOM      5  C   UNL     1       6.934   0.434   1.483  1.00  0.00     0.310 C 
ATOM      6  O   UNL     1       6.387   1.485   1.186  1.00  0.00    -0.252 OA
ATOM      7  C   UNL     1       8.407   0.268   1.675  1.00  0.00     0.139 C 
ENDBRANCH   4   5
ENDBRANCH   2   4
BRANCH   2   8
ATOM      8  O   UNL     1       4.518  -2.437   1.640  1.00  0.00    -0.298 OA
ATOM      9  H   UNL     1       4.603  -2.680   2.578  1.00  0.00     0.224 HD
ENDBRANCH   2   8
ENDBRANCH   1   2
BRANCH   1  10
ATOM     10  C   UNL     1       3.138   0.334  -0.247  1.00  0.00     0.178 C 
BRANCH  10  11
ATOM     11  C   UNL     1       1.837  -0.445  -0.024  1.00  0.00     0.218 C 
ATOM     12  C   UNL     1       0.657   0.463   0.244  1.00  0.00     0.176 C 
ATOM     13  O   UNL     1       1.464  -1.152  -1.215  1.00  0.00    -0.442 OA
ATOM     14  N   UNL     1      -0.422  -0.210  -0.416  1.00  0.00    -0.271 N 
ATOM     15  C   UNL     1       0.101  -1.106  -1.336  1.00  0.00     0.414 C 
ATOM     16  O   UNL     1      -0.490  -1.758  -2.180  1.00  0.00    -0.224 OA
BRANCH  14  17
ATOM     17  C   UNL     1      -1.792   0.135  -0.243  1.00  0.00     0.089 A 
ATOM     18  C   UNL     1      -2.814  -0.625  -0.818  1.00  0.00     0.071 A 
ATOM     19  C   UNL     1      -2.185   1.239   0.530  1.00  0.00     0.185 A 
ATOM     20  C   UNL     1      -4.160  -0.287  -0.629  1.00  0.00     0.152 A 
ATOM     21  C   UNL     1      -3.532   1.572   0.708  1.00  0.00     0.187 A 
ATOM     22  C   UNL     1      -4.566   0.824   0.128  1.00  0.00     0.116 A 
ATOM     23  F   UNL     1      -1.269   2.033   1.107  1.00  0.00    -0.201 F 
ATOM     24  F   UNL     1      -5.080  -1.101  -1.170  1.00  0.00    -0.204 F 
ATOM     25  F   UNL     1      -3.812   2.670   1.431  1.00  0.00    -0.201 F 
BRANCH  22  26
ATOM     26  N   UNL     1      -5.943   1.133   0.303  1.00  0.00    -0.343 N 
ATOM     27  C   UNL     1      -6.450   1.709   1.458  1.00  0.00     0.090 C 
ATOM     28  C   UNL     1      -6.687   1.332  -0.959  1.00  0.00     0.130 C 
ATOM     29  C   UNL     1      -7.687   2.195   1.597  1.00  0.00     0.065 C 
ATOM     30  C   UNL     1      -8.183   1.201  -0.714  1.00  0.00     0.102 C 
ATOM     31  C   UNL     1      -8.609   2.065   0.449  1.00  0.00     0.158 C 
ATOM     32  O   UNL     1      -9.717   2.594   0.500  1.00  0.00    -0.295 OA
ENDBRANCH  22  26
ENDBRANCH  14  17
ENDBRANCH  10  11
ENDBRANCH   1  10
BRANCH   1  33
ATOM     33  C   UNL     1       4.953  -1.123  -1.126  1.00  0.00     0.181 A 
ATOM     34  C   UNL     1       4.517  -1.118  -2.478  1.00  0.00     0.092 A 
ATOM     35  N   UNL     1       6.111  -1.791  -1.031  1.00  0.00    -0.062 NA
ATOM     36  C   UNL     1       5.468  -1.826  -3.162  1.00  0.00     0.233 A 
ATOM     37  O   UNL     1       6.424  -2.230  -2.298  1.00  0.00    -0.363 OA
ENDBRANCH   1  33
TORSDOF 9
