REMARK SMILES CO[C@@H]1[C@@H](O)[C@@H](O)[C@H](Oc2ccc(CCNC(C)=O)c(-c3cccc(F)c3)c2)OC1(C)C
REMARK SMILES IDX 10 1 11 2 12 3 13 4 20 5 28 6 9 7 8 8 3 9 4 10 30 11 6 12
REMARK SMILES IDX 29 13 31 14 32 15 2 16 1 17 5 18 7 20 21 22 22 23 27 24
REMARK SMILES IDX 23 25 25 26 24 27 26 28 14 29 15 30 16 31 17 32 19 33 18 35
REMARK H PARENT 5 19 7 21 16 34
ROOT
ATOM      1  C   UNL     1       0.474  -1.227  -0.310  1.00  0.00     0.123 A 
ATOM      2  C   UNL     1       1.549  -2.110  -0.390  1.00  0.00     0.047 A 
ATOM      3  C   UNL     1       2.831  -1.648  -0.684  1.00  0.00     0.008 A 
ATOM      4  C   UNL     1       3.071  -0.281  -0.901  1.00  0.00    -0.038 A 
ATOM      5  C   UNL     1       1.991   0.626  -0.818  1.00  0.00    -0.011 A 
ATOM      6  C   UNL     1       0.701   0.131  -0.524  1.00  0.00     0.055 A 
ENDROOT
BRANCH   1   7
ATOM      7  O   UNL     1      -0.719  -1.826  -0.026  1.00  0.00    -0.462 OA
BRANCH   7   8
ATOM      8  C   UNL     1      -1.915  -1.038   0.042  1.00  0.00     0.339 C 
ATOM      9  C   UNL     1      -4.718  -0.590  -0.302  1.00  0.00     0.181 C 
ATOM     10  C   UNL     1      -3.938  -1.174  -1.490  1.00  0.00     0.181 C 
ATOM     11  C   UNL     1      -4.150  -1.188   1.021  1.00  0.00     0.096 C 
ATOM     12  C   UNL     1      -2.461  -0.792  -1.382  1.00  0.00     0.214 C 
ATOM     13  O   UNL     1      -2.855  -1.792   0.823  1.00  0.00    -0.332 OA
ATOM     14  C   UNL     1      -4.034  -0.115   2.113  1.00  0.00     0.045 C 
ATOM     15  C   UNL     1      -5.021  -2.335   1.558  1.00  0.00     0.045 C 
BRANCH   9  16
ATOM     16  O   UNL     1      -6.108  -0.893  -0.533  1.00  0.00    -0.376 OA
ATOM     17  C   UNL     1      -6.992   0.093  -0.010  1.00  0.00     0.195 C 
ENDBRANCH   9  16
BRANCH  10  18
ATOM     18  O   UNL     1      -4.464  -0.638  -2.721  1.00  0.00    -0.387 OA
ATOM     19  H   UNL     1      -5.431  -0.783  -2.658  1.00  0.00     0.211 HD
ENDBRANCH  10  18
BRANCH  12  20
ATOM     20  O   UNL     1      -2.343   0.610  -1.721  1.00  0.00    -0.384 OA
ATOM     21  H   UNL     1      -2.878   0.702  -2.540  1.00  0.00     0.211 HD
ENDBRANCH  12  20
ENDBRANCH   7   8
ENDBRANCH   1   7
BRANCH   5  22
ATOM     22  C   UNL     1       2.149   2.072  -1.034  1.00  0.00    -0.015 A 
ATOM     23  C   UNL     1       2.254   2.598  -2.333  1.00  0.00     0.009 A 
ATOM     24  C   UNL     1       2.171   2.958   0.052  1.00  0.00     0.048 A 
ATOM     25  C   UNL     1       2.397   3.973  -2.542  1.00  0.00     0.004 A 
ATOM     26  C   UNL     1       2.314   4.325  -0.166  1.00  0.00     0.123 A 
ATOM     27  C   UNL     1       2.430   4.840  -1.452  1.00  0.00     0.039 A 
ATOM     28  F   UNL     1       2.340   5.158   0.882  1.00  0.00    -0.207 F 
ENDBRANCH   5  22
BRANCH   4  29
ATOM     29  C   UNL     1       4.497   0.156  -1.187  1.00  0.00     0.057 C 
BRANCH  29  30
ATOM     30  C   UNL     1       5.236   0.667   0.055  1.00  0.00     0.120 C 
BRANCH  30  31
ATOM     31  N   UNL     1       5.387  -0.341   1.089  1.00  0.00    -0.356 N 
ATOM     32  C   UNL     1       6.332  -1.336   0.992  1.00  0.00     0.216 C 
ATOM     33  O   UNL     1       7.148  -1.413   0.080  1.00  0.00    -0.275 OA
ATOM     34  H   UNL     1       4.615  -0.467   1.731  1.00  0.00     0.163 HD
ATOM     35  C   UNL     1       6.268  -2.356   2.097  1.00  0.00     0.114 C 
ENDBRANCH  30  31
ENDBRANCH  29  30
ENDBRANCH   4  29
TORSDOF 9
