REMARK SMILES CC1(C)CN(c2ncc(C(=O)Nc3cccc(C(F)(F)F)c3)c(N)n2)C(=O)N1
REMARK SMILES IDX 10 1 11 2 12 3 9 5 6 6 7 7 25 8 8 9 23 10 5 11 2 12 4 13
REMARK SMILES IDX 28 14 26 15 27 16 1 17 3 18 24 20 13 23 14 24 22 25 15 26
REMARK SMILES IDX 17 27 16 28 18 29 19 30 20 31 21 32
REMARK H PARENT 12 4 28 19 24 21 24 22
ROOT
ATOM      1  C   UNL     1       2.041  -0.499   0.167  1.00  0.00     0.260 C 
ATOM      2  O   UNL     1       2.421  -1.657   0.037  1.00  0.00    -0.269 OA
ATOM      3  N   UNL     1       2.835   0.607   0.419  1.00  0.00    -0.322 N 
ATOM      4  H   UNL     1       2.374   1.483   0.638  1.00  0.00     0.170 HD
ENDROOT
BRANCH   1   5
ATOM      5  C   UNL     1       0.589  -0.237   0.092  1.00  0.00     0.100 A 
ATOM      6  C   UNL     1      -2.081   0.270  -0.085  1.00  0.00     0.235 A 
ATOM      7  N   UNL     1      -1.228   1.179  -0.574  1.00  0.00    -0.220 NA
ATOM      8  N   UNL     1      -1.677  -0.887   0.472  1.00  0.00    -0.195 NA
ATOM      9  C   UNL     1       0.086   0.904  -0.489  1.00  0.00     0.133 A 
ATOM     10  C   UNL     1      -0.358  -1.144   0.544  1.00  0.00     0.141 A 
BRANCH   6  11
ATOM     11  N   UNL     1      -3.452   0.502  -0.147  1.00  0.00    -0.260 N 
ATOM     12  C   UNL     1      -5.762   0.101  -0.134  1.00  0.00     0.054 C 
ATOM     13  C   UNL     1      -4.411  -0.444   0.372  1.00  0.00     0.158 C 
ATOM     14  N   UNL     1      -5.447   1.480  -0.446  1.00  0.00    -0.331 N 
ATOM     15  C   UNL     1      -4.071   1.656  -0.605  1.00  0.00     0.324 C 
ATOM     16  O   UNL     1      -3.599   2.675  -1.079  1.00  0.00    -0.248 OA
ATOM     17  C   UNL     1      -6.850   0.018   0.932  1.00  0.00     0.036 C 
ATOM     18  C   UNL     1      -6.201  -0.634  -1.407  1.00  0.00     0.036 C 
ATOM     19  H   UNL     1      -6.066   2.137  -0.904  1.00  0.00     0.166 HD
ENDBRANCH   6  11
BRANCH  10  20
ATOM     20  N   UNL     1      -0.009  -2.359   1.161  1.00  0.00    -0.383 N 
ATOM     21  H   UNL     1       0.677  -2.832   0.563  1.00  0.00     0.158 HD
ATOM     22  H   UNL     1       0.492  -2.176   2.027  1.00  0.00     0.158 HD
ENDBRANCH  10  20
ENDBRANCH   1   5
BRANCH   3  23
ATOM     23  C   UNL     1       4.245   0.644   0.500  1.00  0.00     0.042 A 
ATOM     24  C   UNL     1       4.831   1.868   0.849  1.00  0.00     0.026 A 
ATOM     25  C   UNL     1       5.073  -0.450   0.242  1.00  0.00     0.039 A 
ATOM     26  C   UNL     1       6.218   1.994   0.943  1.00  0.00     0.003 A 
ATOM     27  C   UNL     1       6.473  -0.338   0.342  1.00  0.00     0.058 A 
ATOM     28  C   UNL     1       7.037   0.897   0.688  1.00  0.00     0.013 A 
BRANCH  27  29
ATOM     29  C   UNL     1       7.351  -1.527   0.038  1.00  0.00     0.416 C 
ATOM     30  F   UNL     1       8.584  -1.443   0.615  1.00  0.00    -0.166 F 
ATOM     31  F   UNL     1       6.824  -2.708   0.466  1.00  0.00    -0.166 F 
ATOM     32  F   UNL     1       7.576  -1.677  -1.297  1.00  0.00    -0.166 F 
ENDBRANCH  27  29
ENDBRANCH   3  23
TORSDOF 5
