REMARK SMILES Cc1cc(Nc2ncc(Cl)c(Nc3ccccc3S(=O)(=O)C(C)C)n2)c(OC(C)C)cc1C1=CCN(C2CCOCC2)CC1
REMARK SMILES IDX 6 1 7 2 8 3 9 4 10 5 11 6 25 7 5 8 4 10 2 11 3 12 32 13
REMARK SMILES IDX 31 14 26 15 1 16 33 17 34 18 44 19 35 20 43 21 36 22 37 23
REMARK SMILES IDX 38 24 42 25 39 26 41 27 40 28 27 29 28 30 29 31 30 32 12 33
REMARK SMILES IDX 13 35 14 36 18 37 15 38 17 39 16 40 19 41 20 42 21 43 22 44
REMARK SMILES IDX 23 45 24 46
REMARK H PARENT 5 9 12 34
ROOT
ATOM      1  C   UNL     1      -3.048  -2.680   1.205  1.00  0.00     0.229 A 
ATOM      2  N   UNL     1      -3.665  -3.719   1.795  1.00  0.00    -0.220 NA
ATOM      3  C   UNL     1      -4.868  -3.481   2.361  1.00  0.00     0.139 A 
ATOM      4  C   UNL     1      -5.506  -2.267   2.307  1.00  0.00     0.102 A 
ATOM      5  Cl  UNL     1      -7.064  -2.075   2.999  1.00  0.00    -0.079 Cl
ATOM      6  C   UNL     1      -4.836  -1.262   1.619  1.00  0.00     0.154 A 
ATOM      7  N   UNL     1      -3.587  -1.454   1.134  1.00  0.00    -0.194 NA
ENDROOT
BRANCH   1   8
ATOM      8  N   UNL     1      -1.823  -2.962   0.620  1.00  0.00    -0.321 N 
ATOM      9  H   UNL     1      -1.674  -3.961   0.560  1.00  0.00     0.170 HD
BRANCH   8  10
ATOM     10  C   UNL     1      -0.649  -2.204   0.484  1.00  0.00     0.084 A 
ATOM     11  C   UNL     1       0.691  -0.170   0.812  1.00  0.00    -0.041 A 
ATOM     12  C   UNL     1      -0.521  -0.885   0.939  1.00  0.00     0.034 A 
ATOM     13  C   UNL     1       1.784  -0.772   0.160  1.00  0.00    -0.016 A 
ATOM     14  C   UNL     1       1.646  -2.070  -0.360  1.00  0.00     0.057 A 
ATOM     15  C   UNL     1       0.455  -2.783  -0.175  1.00  0.00     0.143 A 
ATOM     16  C   UNL     1       0.765   1.226   1.379  1.00  0.00     0.045 C 
BRANCH  13  17
ATOM     17  C   UNL     1       3.094  -0.104   0.037  1.00  0.00    -0.042 C 
ATOM     18  C   UNL     1       3.298   0.937  -0.793  1.00  0.00    -0.007 C 
ATOM     19  C   UNL     1       4.232  -0.650   0.865  1.00  0.00     0.051 C 
ATOM     20  C   UNL     1       4.623   1.646  -0.921  1.00  0.00     0.112 C 
ATOM     21  C   UNL     1       5.604  -0.133   0.399  1.00  0.00     0.090 C 
ATOM     22  N   UNL     1       5.576   1.315   0.149  1.00  0.00    -0.296 NA
BRANCH  22  23
ATOM     23  C   UNL     1       6.929   1.880  -0.026  1.00  0.00     0.061 C 
ATOM     24  C   UNL     1       6.949   3.409  -0.150  1.00  0.00     0.047 C 
ATOM     25  C   UNL     1       7.776   1.256  -1.156  1.00  0.00     0.047 C 
ATOM     26  C   UNL     1       8.388   3.922  -0.058  1.00  0.00     0.161 C 
ATOM     27  C   UNL     1       8.895   2.193  -1.613  1.00  0.00     0.161 C 
ATOM     28  O   UNL     1       9.361   2.983  -0.525  1.00  0.00    -0.381 OA
ENDBRANCH  22  23
ENDBRANCH  13  17
BRANCH  15  29
ATOM     29  O   UNL     1       0.294  -4.047  -0.688  1.00  0.00    -0.489 OA
BRANCH  29  30
ATOM     30  C   UNL     1       1.251  -5.010  -0.216  1.00  0.00     0.167 C 
ATOM     31  C   UNL     1       0.736  -5.650   1.070  1.00  0.00     0.052 C 
ATOM     32  C   UNL     1       1.377  -6.058  -1.318  1.00  0.00     0.052 C 
ENDBRANCH  29  30
ENDBRANCH  15  29
ENDBRANCH   8  10
ENDBRANCH   1   8
BRANCH   6  33
ATOM     33  N   UNL     1      -5.489   0.002   1.390  1.00  0.00    -0.338 N 
ATOM     34  H   UNL     1      -6.465  -0.241   1.154  1.00  0.00     0.168 HD
BRANCH  33  35
ATOM     35  C   UNL     1      -4.973   0.959   0.472  1.00  0.00     0.059 A 
ATOM     36  C   UNL     1      -3.718   1.537   0.737  1.00  0.00     0.027 A 
ATOM     37  C   UNL     1      -5.602   1.297  -0.743  1.00  0.00     0.091 A 
ATOM     38  C   UNL     1      -3.077   2.353  -0.196  1.00  0.00     0.002 A 
ATOM     39  C   UNL     1      -4.937   2.075  -1.703  1.00  0.00     0.022 A 
ATOM     40  C   UNL     1      -3.673   2.599  -1.426  1.00  0.00     0.001 A 
BRANCH  37  41
ATOM     41  S   UNL     1      -7.256   0.765  -1.130  1.00  0.00     0.182 S 
ATOM     42  O   UNL     1      -7.262   0.353  -2.525  1.00  0.00    -0.223 OA
ATOM     43  O   UNL     1      -7.657  -0.184  -0.097  1.00  0.00    -0.223 OA
BRANCH  41  44
ATOM     44  C   UNL     1      -8.311   2.210  -0.938  1.00  0.00     0.107 C 
ATOM     45  C   UNL     1      -8.110   2.890   0.419  1.00  0.00     0.025 C 
ATOM     46  C   UNL     1      -8.169   3.204  -2.084  1.00  0.00     0.025 C 
ENDBRANCH  41  44
ENDBRANCH  37  41
ENDBRANCH  33  35
ENDBRANCH   6  33
TORSDOF 10
