REMARK SMILES CCC(C)n1ncn(-c2ccc(N3CCN(c4ccc(OC[C@H]5CO[C@](Cn6cncn6)(c6ccc(F)cc6F)O5)cc4)CC3)cc2)c1=O
REMARK SMILES IDX 13 1 14 2 15 3 16 4 44 5 45 6 12 7 9 8 10 9 47 10 11 11
REMARK SMILES IDX 46 12 8 13 5 14 6 15 48 16 7 17 49 18 3 19 4 20 2 21 1 22
REMARK SMILES IDX 17 23 18 24 43 25 19 26 42 27 20 28 21 29 22 30 23 31 24 32
REMARK SMILES IDX 41 33 25 34 26 35 27 36 28 37 29 38 32 39 30 40 31 41 33 42
REMARK SMILES IDX 34 43 39 44 35 45 38 46 36 47 40 48 37 49
REMARK H PARENT
ROOT
ATOM      1  N   UNL     1       3.311   3.175   0.709  1.00  0.00    -0.368 N 
ATOM      2  C   UNL     1       2.350   3.645  -0.317  1.00  0.00     0.138 C 
ATOM      3  C   UNL     1       1.209   2.626  -0.548  1.00  0.00     0.138 C 
ATOM      4  N   UNL     1       0.529   2.300   0.729  1.00  0.00    -0.368 N 
ATOM      5  C   UNL     1       1.482   1.828   1.771  1.00  0.00     0.138 C 
ATOM      6  C   UNL     1       2.620   2.855   1.985  1.00  0.00     0.138 C 
ENDROOT
BRANCH   1   7
ATOM      7  C   UNL     1       4.431   2.424   0.367  1.00  0.00     0.037 A 
ATOM      8  C   UNL     1       6.815   0.933  -0.283  1.00  0.00     0.052 A 
ATOM      9  C   UNL     1       6.597   1.440   1.000  1.00  0.00     0.029 A 
ATOM     10  C   UNL     1       5.826   1.193  -1.238  1.00  0.00     0.029 A 
ATOM     11  C   UNL     1       5.440   2.175   1.308  1.00  0.00     0.028 A 
ATOM     12  C   UNL     1       4.668   1.926  -0.919  1.00  0.00     0.028 A 
BRANCH   8  13
ATOM     13  N   UNL     1       7.980   0.195  -0.604  1.00  0.00    -0.250 N 
ATOM     14  N   UNL     1       9.894  -0.926  -0.568  1.00  0.00    -0.210 N 
ATOM     15  N   UNL     1       9.482  -0.892  -1.875  1.00  0.00    -0.158 NA
ATOM     16  C   UNL     1       8.999  -0.206   0.244  1.00  0.00     0.350 C 
ATOM     17  C   UNL     1       8.360  -0.247  -1.824  1.00  0.00     0.231 C 
ATOM     18  O   UNL     1       9.147  -0.002   1.440  1.00  0.00    -0.246 OA
BRANCH  14  19
ATOM     19  C   UNL     1      11.204  -1.412  -0.156  1.00  0.00     0.110 C 
ATOM     20  C   UNL     1      12.236  -0.288  -0.271  1.00  0.00     0.033 C 
BRANCH  19  21
ATOM     21  C   UNL     1      11.611  -2.667  -0.949  1.00  0.00     0.024 C 
ATOM     22  C   UNL     1      12.838  -3.369  -0.387  1.00  0.00     0.006 C 
ENDBRANCH  19  21
ENDBRANCH  14  19
ENDBRANCH   8  13
ENDBRANCH   1   7
BRANCH   4  23
ATOM     23  C   UNL     1      -0.676   1.588   0.682  1.00  0.00     0.037 A 
ATOM     24  C   UNL     1      -1.508   1.562   1.813  1.00  0.00     0.030 A 
ATOM     25  C   UNL     1      -1.141   0.919  -0.457  1.00  0.00     0.030 A 
ATOM     26  C   UNL     1      -2.736   0.884   1.822  1.00  0.00     0.048 A 
ATOM     27  C   UNL     1      -2.368   0.240  -0.455  1.00  0.00     0.048 A 
ATOM     28  C   UNL     1      -3.171   0.216   0.684  1.00  0.00     0.119 A 
BRANCH  28  29
ATOM     29  O   UNL     1      -4.342  -0.475   0.550  1.00  0.00    -0.491 OA
BRANCH  29  30
ATOM     30  C   UNL     1      -5.183  -0.551   1.704  1.00  0.00     0.264 C 
BRANCH  30  31
ATOM     31  C   UNL     1      -6.438  -1.340   1.344  1.00  0.00     0.185 C 
ATOM     32  C   UNL     1      -7.273  -1.686   2.547  1.00  0.00     0.200 C 
ATOM     33  O   UNL     1      -7.353  -0.549   0.573  1.00  0.00    -0.335 OA
ATOM     34  O   UNL     1      -8.569  -1.933   2.004  1.00  0.00    -0.341 OA
ATOM     35  C   UNL     1      -8.648  -1.149   0.780  1.00  0.00     0.218 C 
BRANCH  35  36
ATOM     36  C   UNL     1      -9.686  -0.042   1.019  1.00  0.00     0.217 C 
BRANCH  36  37
ATOM     37  N   UNL     1      -9.968   0.785  -0.128  1.00  0.00    -0.247 N 
ATOM     38  C   UNL     1      -9.181   1.743  -0.686  1.00  0.00     0.219 A 
ATOM     39  N   UNL     1     -11.178   0.750  -0.719  1.00  0.00    -0.160 NA
ATOM     40  N   UNL     1      -9.839   2.344  -1.651  1.00  0.00    -0.224 NA
ATOM     41  C   UNL     1     -11.044   1.704  -1.644  1.00  0.00     0.246 A 
ENDBRANCH  36  37
ENDBRANCH  35  36
BRANCH  35  42
ATOM     42  C   UNL     1      -9.040  -2.092  -0.351  1.00  0.00     0.049 A 
ATOM     43  C   UNL     1      -9.894  -3.187  -0.112  1.00  0.00     0.015 A 
ATOM     44  C   UNL     1      -8.612  -1.874  -1.669  1.00  0.00     0.134 A 
ATOM     45  C   UNL     1     -10.279  -4.034  -1.154  1.00  0.00     0.040 A 
ATOM     46  C   UNL     1      -8.994  -2.713  -2.712  1.00  0.00     0.079 A 
ATOM     47  C   UNL     1      -9.823  -3.790  -2.443  1.00  0.00     0.126 A 
ATOM     48  F   UNL     1      -7.822  -0.833  -1.964  1.00  0.00    -0.206 F 
ATOM     49  F   UNL     1     -10.196  -4.604  -3.439  1.00  0.00    -0.207 F 
ENDBRANCH  35  42
ENDBRANCH  30  31
ENDBRANCH  29  30
ENDBRANCH  28  29
ENDBRANCH   4  23
TORSDOF 11
