REMARK SMILES C[C@@H]1O[C@@H](O[C@H]2CC[C@@]3(C)[C@H](CC[C@@H]4[C@@H]3CC[C@]3(C)[C@@H](C5=CC(=O)OC5)CC[C@]43O)C2)CC[C@H]1O
REMARK SMILES IDX 5 1 4 2 2 3 3 4 34 5 33 6 32 7 1 8 35 9 6 11 7 12 31 13 8 14
REMARK SMILES IDX 11 15 9 16 12 17 15 18 13 19 14 20 16 21 29 22 17 23 28 24
REMARK SMILES IDX 18 25 27 26 20 27 10 28 19 29 30 30 21 32 22 33 26 34 23 35
REMARK SMILES IDX 25 36 24 37
REMARK H PARENT 35 10 30 31
ROOT
ATOM      1  O   UNL     1       3.827  -0.579  -0.964  1.00  0.00    -0.349 OA
ENDROOT
BRANCH   1   2
ATOM      2  C   UNL     1       5.068  -1.113  -0.487  1.00  0.00     0.250 C 
ATOM      3  C   UNL     1       6.613  -0.795   1.353  1.00  0.00     0.147 C 
ATOM      4  O   UNL     1       5.263  -0.762   0.879  1.00  0.00    -0.347 OA
ATOM      5  C   UNL     1       7.530   0.159   0.554  1.00  0.00     0.143 C 
ATOM      6  C   UNL     1       6.893   0.600  -0.763  1.00  0.00     0.040 C 
ATOM      7  C   UNL     1       6.167  -0.567  -1.409  1.00  0.00     0.065 C 
ATOM      8  C   UNL     1       7.136  -2.232   1.384  1.00  0.00     0.041 C 
BRANCH   5   9
ATOM      9  O   UNL     1       7.815   1.324   1.335  1.00  0.00    -0.390 OA
ATOM     10  H   UNL     1       8.299   1.949   0.770  1.00  0.00     0.211 HD
ENDBRANCH   5   9
ENDBRANCH   1   2
BRANCH   1  11
ATOM     11  C   UNL     1       2.673  -1.165  -0.348  1.00  0.00     0.121 C 
ATOM     12  C   UNL     1       2.348  -0.447   0.966  1.00  0.00     0.033 C 
ATOM     13  C   UNL     1       1.523  -1.087  -1.358  1.00  0.00     0.036 C 
ATOM     14  C   UNL     1       0.852  -0.204   1.144  1.00  0.00     0.010 C 
ATOM     15  C   UNL     1       0.828   0.290  -1.378  1.00  0.00    -0.002 C 
ATOM     16  C   UNL     1       0.248   0.696   0.025  1.00  0.00    -0.026 C 
ATOM     17  C   UNL     1      -0.222   0.283  -2.505  1.00  0.00     0.005 C 
ATOM     18  C   UNL     1      -1.317   0.553   0.024  1.00  0.00     0.001 C 
ATOM     19  C   UNL     1      -1.235   1.414  -2.397  1.00  0.00     0.007 C 
ATOM     20  C   UNL     1      -2.005   1.425  -1.056  1.00  0.00     0.025 C 
ATOM     21  C   UNL     1      -1.972   0.763   1.407  1.00  0.00     0.005 C 
ATOM     22  C   UNL     1      -3.525   1.083  -1.193  1.00  0.00     0.074 C 
ATOM     23  C   UNL     1      -3.361   1.395   1.357  1.00  0.00     0.010 C 
ATOM     24  C   UNL     1      -3.791  -0.227  -1.968  1.00  0.00     0.037 C 
ATOM     25  C   UNL     1      -4.260   0.912   0.201  1.00  0.00     0.003 C 
ATOM     26  C   UNL     1      -4.900  -0.939  -1.210  1.00  0.00     0.012 C 
ATOM     27  C   UNL     1      -4.585  -0.619   0.258  1.00  0.00     0.028 C 
ATOM     28  C   UNL     1       0.666   2.166   0.309  1.00  0.00     0.012 C 
ATOM     29  C   UNL     1      -5.566   1.749   0.273  1.00  0.00     0.015 C 
BRANCH  22  30
ATOM     30  O   UNL     1      -4.144   2.154  -1.919  1.00  0.00    -0.389 OA
ATOM     31  H   UNL     1      -3.741   2.216  -2.801  1.00  0.00     0.211 HD
ENDBRANCH  22  30
BRANCH  27  32
ATOM     32  C   UNL     1      -5.629  -1.097   1.231  1.00  0.00    -0.022 C 
ATOM     33  C   UNL     1      -6.849  -1.573   0.973  1.00  0.00     0.096 C 
ATOM     34  C   UNL     1      -5.366  -1.170   2.690  1.00  0.00     0.265 C 
ATOM     35  C   UNL     1      -7.441  -1.977   2.246  1.00  0.00     0.331 C 
ATOM     36  O   UNL     1      -6.545  -1.757   3.242  1.00  0.00    -0.458 OA
ATOM     37  O   UNL     1      -8.555  -2.448   2.377  1.00  0.00    -0.247 OA
ENDBRANCH  27  32
ENDBRANCH   1  11
TORSDOF 5
