REMARK SMILES O=C(CNC(=O)c1cccc(C(F)(F)F)c1)NC1CN([C@H]2CC[C@@](O)(c3cncs3)CC2)C1
REMARK SMILES IDX 1 1 2 2 17 3 3 5 4 6 5 7 6 8 7 10 8 11 16 12 9 13 11 14
REMARK SMILES IDX 10 15 12 16 13 17 14 18 15 19 18 20 19 21 33 22 20 23 21 24
REMARK SMILES IDX 22 25 32 26 23 27 31 28 24 29 25 30 26 32 27 33 30 34 28 35
REMARK SMILES IDX 29 36
REMARK H PARENT 17 4 4 9 25 31
ROOT
ATOM      1  O   UNL     1       1.517  -2.855   1.382  1.00  0.00    -0.273 OA
ATOM      2  C   UNL     1       1.967  -1.816   1.857  1.00  0.00     0.239 C 
ATOM      3  N   UNL     1       1.408  -0.570   1.648  1.00  0.00    -0.349 N 
ATOM      4  H   UNL     1       2.045   0.214   1.808  1.00  0.00     0.163 HD
ENDROOT
BRANCH   2   5
ATOM      5  C   UNL     1       3.261  -1.777   2.669  1.00  0.00     0.216 C 
BRANCH   5   6
ATOM      6  N   UNL     1       4.386  -1.519   1.788  1.00  0.00    -0.343 N 
ATOM      7  C   UNL     1       4.650  -0.237   1.357  1.00  0.00     0.251 C 
ATOM      8  O   UNL     1       3.975   0.728   1.704  1.00  0.00    -0.269 OA
ATOM      9  H   UNL     1       4.716  -2.298   1.232  1.00  0.00     0.164 HD
BRANCH   7  10
ATOM     10  C   UNL     1       5.761  -0.079   0.378  1.00  0.00     0.040 A 
ATOM     11  C   UNL     1       6.829  -0.986   0.321  1.00  0.00     0.014 A 
ATOM     12  C   UNL     1       5.733   1.020  -0.494  1.00  0.00     0.027 A 
ATOM     13  C   UNL     1       7.847  -0.810  -0.619  1.00  0.00     0.001 A 
ATOM     14  C   UNL     1       6.756   1.206  -1.441  1.00  0.00     0.056 A 
ATOM     15  C   UNL     1       7.807   0.273  -1.500  1.00  0.00     0.013 A 
BRANCH  14  16
ATOM     16  C   UNL     1       6.699   2.369  -2.404  1.00  0.00     0.416 C 
ATOM     17  F   UNL     1       5.871   2.124  -3.457  1.00  0.00    -0.166 F 
ATOM     18  F   UNL     1       6.244   3.518  -1.828  1.00  0.00    -0.166 F 
ATOM     19  F   UNL     1       7.912   2.678  -2.946  1.00  0.00    -0.166 F 
ENDBRANCH  14  16
ENDBRANCH   7  10
ENDBRANCH   5   6
ENDBRANCH   2   5
BRANCH   3  20
ATOM     20  C   UNL     1       0.231  -0.373   0.777  1.00  0.00     0.110 C 
ATOM     21  C   UNL     1      -1.034  -1.183   1.127  1.00  0.00     0.111 C 
ATOM     22  C   UNL     1      -0.630   0.858   1.127  1.00  0.00     0.111 C 
ATOM     23  N   UNL     1      -1.866   0.045   0.969  1.00  0.00    -0.296 NA
BRANCH  23  24
ATOM     24  C   UNL     1      -2.436   0.176  -0.392  1.00  0.00     0.057 C 
ATOM     25  C   UNL     1      -3.433  -0.984  -0.652  1.00  0.00     0.022 C 
ATOM     26  C   UNL     1      -3.147   1.548  -0.536  1.00  0.00     0.022 C 
ATOM     27  C   UNL     1      -4.575  -0.580  -1.579  1.00  0.00     0.043 C 
ATOM     28  C   UNL     1      -4.603   1.491  -0.067  1.00  0.00     0.043 C 
ATOM     29  C   UNL     1      -5.429   0.564  -0.987  1.00  0.00     0.100 C 
BRANCH  29  30
ATOM     30  O   UNL     1      -5.852   1.362  -2.111  1.00  0.00    -0.384 OA
ATOM     31  H   UNL     1      -6.361   2.111  -1.758  1.00  0.00     0.211 HD
ENDBRANCH  29  30
BRANCH  29  32
ATOM     32  C   UNL     1      -6.701   0.039  -0.350  1.00  0.00     0.056 A 
ATOM     33  C   UNL     1      -7.972  -0.063  -0.898  1.00  0.00     0.129 A 
ATOM     34  S   UNL     1      -6.746  -0.629   1.239  1.00  0.00    -0.124 S 
ATOM     35  N   UNL     1      -8.960  -0.582  -0.080  1.00  0.00    -0.253 NA
ATOM     36  C   UNL     1      -8.428  -0.911   1.076  1.00  0.00     0.175 A 
ENDBRANCH  29  32
ENDBRANCH  23  24
ENDBRANCH   3  20
TORSDOF 8
