REMARK SMILES COCc1nc2c(C(=O)Nc3cccc(Cl)c3C)cc(NC(=O)c3ccccc3C(F)(F)F)cc2[nH]1
REMARK SMILES IDX 4 1 5 2 6 3 7 4 19 5 20 6 34 7 35 8 36 9 3 11 2 12 1 13 8 14
REMARK SMILES IDX 9 15 10 16 11 18 12 19 17 20 13 21 15 22 14 23 18 24 16 25
REMARK SMILES IDX 21 26 22 27 23 28 24 30 25 31 29 32 26 33 28 34 27 35 30 36
REMARK SMILES IDX 31 37 32 38 33 39
REMARK H PARENT 36 10 10 17 21 29
ROOT
ATOM      1  C   UNL     1      -1.889   2.144   1.398  1.00  0.00     0.133 A 
ATOM      2  N   UNL     1      -2.140   1.018   0.757  1.00  0.00    -0.230 NA
ATOM      3  C   UNL     1      -0.902   0.509   0.397  1.00  0.00     0.102 A 
ATOM      4  C   UNL     1      -0.566  -0.664  -0.303  1.00  0.00     0.070 A 
ATOM      5  C   UNL     1       0.800  -0.936  -0.526  1.00  0.00     0.042 A 
ATOM      6  C   UNL     1       1.810  -0.077  -0.073  1.00  0.00     0.044 A 
ATOM      7  C   UNL     1       1.476   1.090   0.624  1.00  0.00     0.054 A 
ATOM      8  C   UNL     1       0.116   1.345   0.838  1.00  0.00     0.068 A 
ATOM      9  N   UNL     1      -0.535   2.372   1.468  1.00  0.00    -0.340 N 
ATOM     10  H   UNL     1      -0.117   3.178   1.915  1.00  0.00     0.168 HD
ENDROOT
BRANCH   1  11
ATOM     11  C   UNL     1      -2.885   3.085   1.988  1.00  0.00     0.234 C 
BRANCH  11  12
ATOM     12  O   UNL     1      -2.163   4.164   2.588  1.00  0.00    -0.377 OA
ATOM     13  C   UNL     1      -3.048   5.157   3.093  1.00  0.00     0.195 C 
ENDBRANCH  11  12
ENDBRANCH   1  11
BRANCH   4  14
ATOM     14  C   UNL     1      -1.596  -1.616  -0.802  1.00  0.00     0.258 C 
ATOM     15  O   UNL     1      -1.204  -2.613  -1.404  1.00  0.00    -0.269 OA
ATOM     16  N   UNL     1      -2.909  -1.294  -0.514  1.00  0.00    -0.322 N 
ATOM     17  H   UNL     1      -3.032  -0.439   0.027  1.00  0.00     0.170 HD
BRANCH  16  18
ATOM     18  C   UNL     1      -4.088  -1.996  -0.865  1.00  0.00     0.045 A 
ATOM     19  C   UNL     1      -4.057  -3.090  -1.741  1.00  0.00     0.026 A 
ATOM     20  C   UNL     1      -5.332  -1.566  -0.334  1.00  0.00    -0.009 A 
ATOM     21  C   UNL     1      -5.227  -3.749  -2.117  1.00  0.00     0.004 A 
ATOM     22  C   UNL     1      -6.506  -2.233  -0.745  1.00  0.00     0.046 A 
ATOM     23  C   UNL     1      -6.451  -3.319  -1.622  1.00  0.00     0.021 A 
ATOM     24  C   UNL     1      -5.400  -0.405   0.629  1.00  0.00     0.048 C 
ATOM     25  Cl  UNL     1      -8.084  -1.748  -0.215  1.00  0.00    -0.084 Cl
ENDBRANCH  16  18
ENDBRANCH   4  14
BRANCH   6  26
ATOM     26  N   UNL     1       3.137  -0.463  -0.349  1.00  0.00    -0.322 N 
ATOM     27  C   UNL     1       4.292   0.226  -0.041  1.00  0.00     0.256 C 
ATOM     28  O   UNL     1       4.404   1.320   0.491  1.00  0.00    -0.269 OA
ATOM     29  H   UNL     1       3.246  -1.331  -0.862  1.00  0.00     0.170 HD
BRANCH  27  30
ATOM     30  C   UNL     1       5.531  -0.491  -0.426  1.00  0.00     0.052 A 
ATOM     31  C   UNL     1       5.753  -1.767   0.116  1.00  0.00     0.014 A 
ATOM     32  C   UNL     1       6.471   0.099  -1.283  1.00  0.00     0.068 A 
ATOM     33  C   UNL     1       6.915  -2.467  -0.203  1.00  0.00     0.001 A 
ATOM     34  C   UNL     1       7.639  -0.625  -1.590  1.00  0.00     0.014 A 
ATOM     35  C   UNL     1       7.856  -1.897  -1.058  1.00  0.00     0.001 A 
BRANCH  32  36
ATOM     36  C   UNL     1       6.256   1.470  -1.871  1.00  0.00     0.417 C 
ATOM     37  F   UNL     1       6.536   2.480  -1.010  1.00  0.00    -0.166 F 
ATOM     38  F   UNL     1       7.056   1.695  -2.959  1.00  0.00    -0.166 F 
ATOM     39  F   UNL     1       4.991   1.672  -2.324  1.00  0.00    -0.166 F 
ENDBRANCH  32  36
ENDBRANCH  27  30
ENDBRANCH   6  26
TORSDOF 7
