REMARK SMILES Cc1cccc(Oc2cc(Oc3cccc(C)n3)cc(Oc3cccc(C)n3)c2)n1
REMARK SMILES IDX 8 1 9 2 10 3 19 4 20 5 29 6 7 7 6 8 2 9 3 10 30 11 4 12 5 13
REMARK SMILES IDX 1 14 11 15 12 16 13 17 18 18 14 19 16 20 15 21 17 22 21 23
REMARK SMILES IDX 22 24 23 25 28 26 24 27 26 28 25 29 27 30
REMARK H PARENT
ROOT
ATOM      1  C   UNL     1       1.332   0.780   0.953  1.00  0.00     0.136 A 
ATOM      2  C   UNL     1       0.797  -0.120   0.027  1.00  0.00     0.094 A 
ATOM      3  C   UNL     1      -0.379   0.214  -0.651  1.00  0.00     0.136 A 
ATOM      4  C   UNL     1      -1.009   1.437  -0.415  1.00  0.00     0.094 A 
ATOM      5  C   UNL     1      -0.495   2.306   0.553  1.00  0.00     0.136 A 
ATOM      6  C   UNL     1       0.679   1.981   1.233  1.00  0.00     0.094 A 
ENDROOT
BRANCH   1   7
ATOM      7  O   UNL     1       2.479   0.512   1.665  1.00  0.00    -0.439 OA
BRANCH   7   8
ATOM      8  C   UNL     1       3.580   0.107   0.936  1.00  0.00     0.219 A 
ATOM      9  C   UNL     1       5.328  -1.396   0.769  1.00  0.00     0.041 A 
ATOM     10  C   UNL     1       5.836  -0.734  -0.347  1.00  0.00     0.024 A 
ATOM     11  N   UNL     1       4.217  -0.982   1.422  1.00  0.00    -0.219 NA
ATOM     12  C   UNL     1       5.169   0.391  -0.822  1.00  0.00     0.007 A 
ATOM     13  C   UNL     1       4.026   0.830  -0.165  1.00  0.00     0.069 A 
ATOM     14  C   UNL     1       6.040  -2.596   1.316  1.00  0.00     0.067 C 
ENDBRANCH   7   8
ENDBRANCH   1   7
BRANCH   3  15
ATOM     15  O   UNL     1      -0.931  -0.592  -1.620  1.00  0.00    -0.439 OA
BRANCH  15  16
ATOM     16  C   UNL     1      -1.067  -1.927  -1.296  1.00  0.00     0.219 A 
ATOM     17  C   UNL     1      -1.881  -2.316  -0.241  1.00  0.00     0.069 A 
ATOM     18  N   UNL     1      -0.431  -2.793  -2.117  1.00  0.00    -0.219 NA
ATOM     19  C   UNL     1      -2.029  -3.678   0.001  1.00  0.00     0.007 A 
ATOM     20  C   UNL     1      -0.586  -4.113  -1.863  1.00  0.00     0.041 A 
ATOM     21  C   UNL     1      -1.376  -4.591  -0.821  1.00  0.00     0.024 A 
ATOM     22  C   UNL     1       0.120  -5.075  -2.771  1.00  0.00     0.067 C 
ENDBRANCH  15  16
ENDBRANCH   3  15
BRANCH   5  23
ATOM     23  O   UNL     1      -1.061   3.527   0.846  1.00  0.00    -0.439 OA
BRANCH  23  24
ATOM     24  C   UNL     1      -2.437   3.533   0.950  1.00  0.00     0.219 A 
ATOM     25  C   UNL     1      -3.035   3.051   2.104  1.00  0.00     0.069 A 
ATOM     26  N   UNL     1      -3.114   4.078  -0.087  1.00  0.00    -0.219 NA
ATOM     27  C   UNL     1      -4.421   3.095   2.183  1.00  0.00     0.007 A 
ATOM     28  C   UNL     1      -4.462   4.110   0.010  1.00  0.00     0.041 A 
ATOM     29  C   UNL     1      -5.148   3.622   1.119  1.00  0.00     0.024 A 
ATOM     30  C   UNL     1      -5.214   4.729  -1.131  1.00  0.00     0.067 C 
ENDBRANCH  23  24
ENDBRANCH   5  23
TORSDOF 6
