REMARK SMILES CCN(Cc1nc2c(N)nc3cc(-c4cc[nH]n4)ccc3c2[nH]1)C(C)=O
REMARK SMILES IDX 4 1 3 2 2 3 1 4 24 5 26 6 25 7 5 8 6 9 23 10 7 11 22 12 8 13
REMARK SMILES IDX 21 14 10 15 20 16 11 17 19 18 12 19 13 20 9 22 14 25 15 26
REMARK SMILES IDX 18 27 16 28 17 29
REMARK H PARENT 23 21 9 23 9 24 17 30
ROOT
ATOM      1  C   UNL     1      -3.608  -0.133  -1.094  1.00  0.00     0.194 C 
ENDROOT
BRANCH   1   2
ATOM      2  N   UNL     1      -4.004   0.307   0.247  1.00  0.00    -0.336 N 
BRANCH   2   3
ATOM      3  C   UNL     1      -4.309  -0.736   1.228  1.00  0.00     0.116 C 
ATOM      4  C   UNL     1      -5.771  -1.153   1.176  1.00  0.00     0.027 C 
ENDBRANCH   2   3
BRANCH   2   5
ATOM      5  C   UNL     1      -4.213   1.634   0.601  1.00  0.00     0.219 C 
ATOM      6  O   UNL     1      -4.577   1.961   1.731  1.00  0.00    -0.275 OA
ATOM      7  C   UNL     1      -3.963   2.689  -0.447  1.00  0.00     0.114 C 
ENDBRANCH   2   5
ENDBRANCH   1   2
BRANCH   1   8
ATOM      8  C   UNL     1      -2.126  -0.319  -1.184  1.00  0.00     0.127 A 
ATOM      9  N   UNL     1      -1.465  -0.813  -2.213  1.00  0.00    -0.228 NA
ATOM     10  N   UNL     1      -1.258   0.025  -0.174  1.00  0.00    -0.340 N 
ATOM     11  C   UNL     1      -0.127  -0.768  -1.859  1.00  0.00     0.131 A 
ATOM     12  C   UNL     1       0.021  -0.254  -0.577  1.00  0.00     0.079 A 
ATOM     13  C   UNL     1       1.021  -1.162  -2.580  1.00  0.00     0.152 A 
ATOM     14  C   UNL     1       1.283  -0.116   0.026  1.00  0.00     0.026 A 
ATOM     15  N   UNL     1       2.242  -1.052  -1.999  1.00  0.00    -0.229 NA
ATOM     16  C   UNL     1       1.456   0.411   1.318  1.00  0.00     0.013 A 
ATOM     17  C   UNL     1       2.374  -0.545  -0.758  1.00  0.00     0.076 A 
ATOM     18  C   UNL     1       2.745   0.512   1.836  1.00  0.00     0.011 A 
ATOM     19  C   UNL     1       3.641  -0.429  -0.203  1.00  0.00     0.039 A 
ATOM     20  C   UNL     1       3.855   0.094   1.086  1.00  0.00     0.004 A 
ATOM     21  H   UNL     1      -1.537   0.417   0.715  1.00  0.00     0.168 HD
BRANCH  13  22
ATOM     22  N   UNL     1       0.959  -1.687  -3.865  1.00  0.00    -0.382 N 
ATOM     23  H   UNL     1       1.776  -2.245  -4.075  1.00  0.00     0.158 HD
ATOM     24  H   UNL     1       0.049  -2.074  -4.088  1.00  0.00     0.158 HD
ENDBRANCH  13  22
BRANCH  20  25
ATOM     25  C   UNL     1       5.209   0.207   1.643  1.00  0.00     0.092 A 
ATOM     26  C   UNL     1       6.434  -0.279   1.103  1.00  0.00     0.050 A 
ATOM     27  N   UNL     1       5.438   0.829   2.814  1.00  0.00    -0.176 NA
ATOM     28  C   UNL     1       7.409   0.084   1.998  1.00  0.00     0.106 A 
ATOM     29  N   UNL     1       6.763   0.745   2.996  1.00  0.00    -0.285 N 
ATOM     30  H   UNL     1       7.160   1.164   3.831  1.00  0.00     0.189 HD
ENDBRANCH  20  25
ENDBRANCH   1   8
TORSDOF 6
