REMARK SMILES CCc1nc(-c2ccc3c(c2)CC[C@H]3NC(=O)c2cnn(C)c2)no1
REMARK SMILES IDX 6 1 7 2 8 3 9 4 10 5 11 6 12 7 13 8 14 9 5 10 3 11 4 12
REMARK SMILES IDX 25 13 24 14 2 15 1 16 15 17 16 18 17 19 18 21 19 22 23 23
REMARK SMILES IDX 20 24 21 25 22 26
REMARK H PARENT 15 20
ROOT
ATOM      1  C   UNL     1       2.416  -0.253   0.699  1.00  0.00     0.023 A 
ATOM      2  C   UNL     1       1.728  -1.301   1.351  1.00  0.00     0.012 A 
ATOM      3  C   UNL     1       0.432  -1.121   1.846  1.00  0.00     0.007 A 
ATOM      4  C   UNL     1      -0.166   0.118   1.692  1.00  0.00    -0.022 A 
ATOM      5  C   UNL     1       0.506   1.165   1.052  1.00  0.00    -0.042 A 
ATOM      6  C   UNL     1       1.786   0.993   0.547  1.00  0.00     0.016 A 
ATOM      7  C   UNL     1      -0.360   2.384   0.970  1.00  0.00     0.038 C 
ATOM      8  C   UNL     1      -1.420   2.073   2.039  1.00  0.00     0.034 C 
ATOM      9  C   UNL     1      -1.550   0.536   2.100  1.00  0.00     0.113 C 
ENDROOT
BRANCH   1  10
ATOM     10  C   UNL     1       3.767  -0.455   0.180  1.00  0.00     0.202 A 
ATOM     11  C   UNL     1       5.602  -0.040  -0.754  1.00  0.00     0.226 A 
ATOM     12  N   UNL     1       4.468   0.549  -0.458  1.00  0.00    -0.191 NA
ATOM     13  O   UNL     1       5.658  -1.340  -0.351  1.00  0.00    -0.339 OA
ATOM     14  N   UNL     1       4.441  -1.615   0.266  1.00  0.00    -0.057 NA
BRANCH  11  15
ATOM     15  C   UNL     1       6.792   0.498  -1.450  1.00  0.00     0.097 C 
ATOM     16  C   UNL     1       6.724   0.239  -2.946  1.00  0.00     0.014 C 
ENDBRANCH  11  15
ENDBRANCH   1  10
BRANCH   9  17
ATOM     17  N   UNL     1      -2.526   0.025   1.167  1.00  0.00    -0.345 N 
ATOM     18  C   UNL     1      -3.872   0.067   1.443  1.00  0.00     0.254 C 
ATOM     19  O   UNL     1      -4.319   0.503   2.499  1.00  0.00    -0.269 OA
ATOM     20  H   UNL     1      -2.209  -0.265   0.255  1.00  0.00     0.164 HD
BRANCH  18  21
ATOM     21  C   UNL     1      -4.738  -0.431   0.389  1.00  0.00     0.077 A 
ATOM     22  C   UNL     1      -6.153  -0.449   0.403  1.00  0.00     0.149 A 
ATOM     23  C   UNL     1      -4.417  -0.993  -0.834  1.00  0.00     0.122 A 
ATOM     24  N   UNL     1      -6.678  -0.969  -0.709  1.00  0.00    -0.181 NA
ATOM     25  N   UNL     1      -5.602  -1.295  -1.443  1.00  0.00    -0.275 N 
ATOM     26  C   UNL     1      -5.785  -1.904  -2.738  1.00  0.00     0.173 C 
ENDBRANCH  18  21
ENDBRANCH   9  17
TORSDOF 4
