REMARK SMILES C[C@@H]1CC(=O)c2c(ccc3c2C(=O)c2cccc(O)c2C3=O)C1
REMARK SMILES IDX 1 1 2 2 3 3 4 4 5 5 6 6 7 7 8 8 9 9 10 10 11 11 12 12 13 13
REMARK SMILES IDX 14 14 15 15 16 16 17 17 18 18 20 19 21 20 22 21 23 22 19 23
REMARK H PARENT 19 24
ROOT
ATOM      1  C   UNL     1      -5.285   0.109   0.641  1.00  0.00     0.008 C 
ATOM      2  C   UNL     1      -3.762   0.019   0.578  1.00  0.00    -0.002 C 
ATOM      3  C   UNL     1      -3.143   1.408   0.394  1.00  0.00     0.084 C 
ATOM      4  C   UNL     1      -1.684   1.369  -0.013  1.00  0.00     0.164 C 
ATOM      5  O   UNL     1      -1.091   2.387  -0.361  1.00  0.00    -0.294 OA
ATOM      6  C   UNL     1      -1.014   0.051  -0.138  1.00  0.00     0.033 A 
ATOM      7  C   UNL     1      -1.811  -1.038  -0.538  1.00  0.00    -0.036 A 
ATOM      8  C   UNL     1      -1.195  -2.228  -0.943  1.00  0.00     0.005 A 
ATOM      9  C   UNL     1       0.196  -2.334  -0.937  1.00  0.00     0.013 A 
ATOM     10  C   UNL     1       0.979  -1.269  -0.473  1.00  0.00     0.035 A 
ATOM     11  C   UNL     1       0.375  -0.093  -0.024  1.00  0.00     0.045 A 
ATOM     12  C   UNL     1       1.218   0.893   0.683  1.00  0.00     0.195 C 
ATOM     13  O   UNL     1       0.750   1.611   1.558  1.00  0.00    -0.289 OA
ATOM     14  C   UNL     1       2.669   0.901   0.429  1.00  0.00     0.037 A 
ATOM     15  C   UNL     1       3.435   2.012   0.801  1.00  0.00     0.013 A 
ATOM     16  C   UNL     1       4.815   2.004   0.594  1.00  0.00     0.005 A 
ATOM     17  C   UNL     1       5.429   0.884   0.032  1.00  0.00     0.047 A 
ATOM     18  C   UNL     1       4.664  -0.225  -0.324  1.00  0.00     0.127 A 
ATOM     19  C   UNL     1       3.277  -0.220  -0.132  1.00  0.00     0.075 A 
ATOM     20  C   UNL     1       2.452  -1.387  -0.497  1.00  0.00     0.198 C 
ATOM     21  O   UNL     1       2.995  -2.429  -0.851  1.00  0.00    -0.288 OA
ATOM     22  C   UNL     1      -3.314  -0.912  -0.556  1.00  0.00     0.040 C 
ENDROOT
BRANCH  18  23
ATOM     23  O   UNL     1       5.340  -1.290  -0.855  1.00  0.00    -0.507 OA
ATOM     24  H   UNL     1       4.698  -2.021  -0.997  1.00  0.00     0.293 HD
ENDBRANCH  18  23
TORSDOF 1
