REMARK SMILES C[C@@H](Oc1nnc(-c2ccncc2)n1C)c1cc(-c2cccc(Cl)c2)on1
REMARK SMILES IDX 1 1 2 2 3 3 4 4 5 5 14 6 6 7 7 8 15 9 8 10 9 11 13 12 10 13
REMARK SMILES IDX 12 14 11 15 16 16 17 17 27 18 18 19 26 20 19 21 20 22 25 23
REMARK SMILES IDX 21 24 23 25 22 26 24 27
REMARK H PARENT
ROOT
ATOM      1  C   UNL     1       1.623  -3.370  -2.127  1.00  0.00     0.060 C 
ATOM      2  C   UNL     1       1.252  -2.015  -1.519  1.00  0.00     0.226 C 
ENDROOT
BRANCH   2   3
ATOM      3  O   UNL     1      -0.185  -1.914  -1.593  1.00  0.00    -0.454 OA
BRANCH   3   4
ATOM      4  C   UNL     1      -0.668  -0.675  -1.607  1.00  0.00     0.317 A 
ATOM      5  N   UNL     1       0.019   0.440  -1.666  1.00  0.00    -0.092 NA
ATOM      6  N   UNL     1      -2.005  -0.391  -1.567  1.00  0.00    -0.280 N 
ATOM      7  N   UNL     1      -0.879   1.476  -1.650  1.00  0.00    -0.127 NA
ATOM      8  C   UNL     1      -2.106   0.982  -1.568  1.00  0.00     0.166 A 
ATOM      9  C   UNL     1      -3.061  -1.368  -1.625  1.00  0.00     0.157 C 
BRANCH   8  10
ATOM     10  C   UNL     1      -3.326   1.794  -1.541  1.00  0.00     0.022 A 
ATOM     11  C   UNL     1      -4.463   1.440  -0.811  1.00  0.00     0.032 A 
ATOM     12  C   UNL     1      -3.345   3.004  -2.245  1.00  0.00     0.032 A 
ATOM     13  C   UNL     1      -5.568   2.280  -0.844  1.00  0.00     0.111 A 
ATOM     14  C   UNL     1      -4.493   3.777  -2.218  1.00  0.00     0.111 A 
ATOM     15  N   UNL     1      -5.609   3.435  -1.539  1.00  0.00    -0.265 NA
ENDBRANCH   8  10
ENDBRANCH   3   4
ENDBRANCH   2   3
BRANCH   2  16
ATOM     16  C   UNL     1       1.764  -1.850  -0.111  1.00  0.00     0.124 A 
ATOM     17  C   UNL     1       2.152  -0.641   0.523  1.00  0.00     0.082 A 
ATOM     18  N   UNL     1       1.911  -2.889   0.724  1.00  0.00    -0.080 NA
ATOM     19  C   UNL     1       2.569  -1.010   1.780  1.00  0.00     0.167 A 
ATOM     20  O   UNL     1       2.420  -2.362   1.899  1.00  0.00    -0.356 OA
BRANCH  19  21
ATOM     21  C   UNL     1       3.106  -0.305   2.937  1.00  0.00     0.022 A 
ATOM     22  C   UNL     1       3.511  -0.996   4.091  1.00  0.00     0.012 A 
ATOM     23  C   UNL     1       3.237   1.092   2.918  1.00  0.00     0.032 A 
ATOM     24  C   UNL     1       4.037  -0.315   5.193  1.00  0.00     0.002 A 
ATOM     25  C   UNL     1       3.764   1.770   4.020  1.00  0.00     0.041 A 
ATOM     26  C   UNL     1       4.163   1.071   5.157  1.00  0.00     0.020 A 
ATOM     27  Cl  UNL     1       3.922   3.483   3.972  1.00  0.00    -0.084 Cl
ENDBRANCH  19  21
ENDBRANCH   2  16
TORSDOF 5
