REMARK SMILES CCOP(=O)(Cc1ccc(C(=O)Nc2ccc(Br)cc2C#N)cc1)OCC
REMARK SMILES IDX 6 1 4 2 5 3 3 4 2 5 1 6 25 7 26 8 27 9 7 10 8 11 24 12 9 13
REMARK SMILES IDX 23 14 10 15 11 16 12 17 13 18 14 20 15 21 20 22 16 23 19 24
REMARK SMILES IDX 21 25 17 26 22 27 18 28
REMARK H PARENT 13 19
ROOT
ATOM      1  C   UNL     1      -2.604  -0.361  -1.024  1.00  0.00     0.164 C 
ENDROOT
BRANCH   1   2
ATOM      2  P   UNL     1      -3.873   0.733  -0.365  1.00  0.00     0.335 P 
ATOM      3  O   UNL     1      -3.897   2.104  -0.973  1.00  0.00    -0.260 OA
BRANCH   2   4
ATOM      4  O   UNL     1      -3.699   0.737   1.238  1.00  0.00    -0.309 OA
BRANCH   4   5
ATOM      5  C   UNL     1      -3.808  -0.467   1.972  1.00  0.00     0.167 C 
ATOM      6  C   UNL     1      -3.679  -0.146   3.447  1.00  0.00     0.035 C 
ENDBRANCH   4   5
ENDBRANCH   2   4
BRANCH   2   7
ATOM      7  O   UNL     1      -5.252  -0.083  -0.581  1.00  0.00    -0.309 OA
BRANCH   7   8
ATOM      8  C   UNL     1      -5.867  -0.027  -1.858  1.00  0.00     0.167 C 
ATOM      9  C   UNL     1      -7.043   0.927  -1.807  1.00  0.00     0.035 C 
ENDBRANCH   7   8
ENDBRANCH   2   7
ENDBRANCH   1   2
BRANCH   1  10
ATOM     10  C   UNL     1      -1.158  -0.060  -0.702  1.00  0.00    -0.036 A 
ATOM     11  C   UNL     1      -0.642   1.231  -0.872  1.00  0.00     0.005 A 
ATOM     12  C   UNL     1      -0.303  -1.080  -0.261  1.00  0.00     0.005 A 
ATOM     13  C   UNL     1       0.700   1.501  -0.592  1.00  0.00     0.014 A 
ATOM     14  C   UNL     1       1.041  -0.814   0.017  1.00  0.00     0.014 A 
ATOM     15  C   UNL     1       1.550   0.478  -0.160  1.00  0.00     0.040 A 
BRANCH  15  16
ATOM     16  C   UNL     1       2.978   0.809   0.118  1.00  0.00     0.255 C 
ATOM     17  O   UNL     1       3.243   1.920   0.560  1.00  0.00    -0.269 OA
ATOM     18  N   UNL     1       3.881  -0.192  -0.198  1.00  0.00    -0.321 N 
ATOM     19  H   UNL     1       3.493  -0.997  -0.678  1.00  0.00     0.170 HD
BRANCH  18  20
ATOM     20  C   UNL     1       5.291  -0.177  -0.017  1.00  0.00     0.059 A 
ATOM     21  C   UNL     1       5.958   0.887   0.604  1.00  0.00     0.029 A 
ATOM     22  C   UNL     1       6.061  -1.274  -0.463  1.00  0.00     0.077 A 
ATOM     23  C   UNL     1       7.349   0.871   0.768  1.00  0.00     0.018 A 
ATOM     24  C   UNL     1       7.455  -1.289  -0.298  1.00  0.00     0.037 A 
ATOM     25  C   UNL     1       5.445  -2.407  -1.090  1.00  0.00     0.101 C 
ATOM     26  C   UNL     1       8.090  -0.215   0.315  1.00  0.00     0.019 A 
ATOM     27  N   UNL     1       4.895  -3.302  -1.584  1.00  0.00    -0.192 NA
ATOM     28  Br  UNL     1       9.965  -0.233   0.539  1.00  0.00    -0.051 Br
ENDBRANCH  18  20
ENDBRANCH  15  16
ENDBRANCH   1  10
TORSDOF 8
