REMARK SMILES C[C@H](c1c[nH]c(=O)c2cc(F)c(F)cc12)N(C)C(=O)Nc1ccc(F)c(C#N)c1
REMARK SMILES IDX 16 1 17 2 2 3 1 4 3 5 4 6 15 7 5 8 14 9 8 10 6 11 12 12 9 13
REMARK SMILES IDX 7 14 10 15 13 17 11 18 18 19 19 20 20 21 21 23 22 24 29 25
REMARK SMILES IDX 23 26 26 27 24 28 27 29 28 30 25 31
REMARK H PARENT 5 16 20 22
ROOT
ATOM      1  N   UNL     1      -0.220   0.861   1.391  1.00  0.00    -0.321 N 
ATOM      2  C   UNL     1      -0.358   2.207   1.945  1.00  0.00     0.149 C 
ENDROOT
BRANCH   1   3
ATOM      3  C   UNL     1       1.076   0.153   1.532  1.00  0.00     0.116 C 
ATOM      4  C   UNL     1       1.847   0.545   2.801  1.00  0.00     0.036 C 
BRANCH   3   5
ATOM      5  C   UNL     1       1.951   0.311   0.281  1.00  0.00    -0.001 C 
ATOM      6  C   UNL     1       1.846   1.353  -0.566  1.00  0.00     0.092 C 
ATOM      7  C   UNL     1       2.958  -0.741  -0.062  1.00  0.00    -0.003 A 
ATOM      8  N   UNL     1       2.632   1.499  -1.674  1.00  0.00    -0.328 N 
ATOM      9  C   UNL     1       3.148  -1.905   0.701  1.00  0.00     0.051 A 
ATOM     10  C   UNL     1       3.769  -0.583  -1.209  1.00  0.00     0.050 A 
ATOM     11  C   UNL     1       3.602   0.614  -2.065  1.00  0.00     0.255 C 
ATOM     12  C   UNL     1       4.108  -2.850   0.335  1.00  0.00     0.159 A 
ATOM     13  C   UNL     1       4.732  -1.535  -1.575  1.00  0.00     0.057 A 
ATOM     14  O   UNL     1       4.291   0.804  -3.060  1.00  0.00    -0.269 OA
ATOM     15  C   UNL     1       4.894  -2.666  -0.792  1.00  0.00     0.159 A 
ATOM     16  H   UNL     1       2.512   2.303  -2.281  1.00  0.00     0.169 HD
ATOM     17  F   UNL     1       4.265  -3.944   1.093  1.00  0.00    -0.204 F 
ATOM     18  F   UNL     1       5.815  -3.578  -1.130  1.00  0.00    -0.204 F 
ENDBRANCH   3   5
ENDBRANCH   1   3
BRANCH   1  19
ATOM     19  C   UNL     1      -1.236   0.183   0.707  1.00  0.00     0.322 C 
ATOM     20  O   UNL     1      -1.017  -0.867   0.107  1.00  0.00    -0.248 OA
ATOM     21  N   UNL     1      -2.477   0.775   0.792  1.00  0.00    -0.308 N 
ATOM     22  H   UNL     1      -2.624   1.352   1.605  1.00  0.00     0.171 HD
BRANCH  21  23
ATOM     23  C   UNL     1      -3.637   0.418   0.072  1.00  0.00     0.044 A 
ATOM     24  C   UNL     1      -4.856   0.955   0.512  1.00  0.00     0.029 A 
ATOM     25  C   UNL     1      -3.625  -0.404  -1.060  1.00  0.00     0.048 A 
ATOM     26  C   UNL     1      -6.045   0.657  -0.157  1.00  0.00     0.043 A 
ATOM     27  C   UNL     1      -4.817  -0.705  -1.733  1.00  0.00     0.090 A 
ATOM     28  C   UNL     1      -6.018  -0.173  -1.273  1.00  0.00     0.141 A 
ATOM     29  C   UNL     1      -4.803  -1.546  -2.890  1.00  0.00     0.102 C 
ATOM     30  N   UNL     1      -4.775  -2.225  -3.831  1.00  0.00    -0.192 NA
ATOM     31  F   UNL     1      -7.171  -0.443  -1.900  1.00  0.00    -0.206 F 
ENDBRANCH  21  23
ENDBRANCH   1  19
TORSDOF 4
