REMARK SMILES CN(C)Cc1nccn1-c1ccc(NC(=O)c2cc(C(F)(F)F)nn2-c2ccc3onc(N)c3c2)c(F)c1
REMARK SMILES IDX 10 1 11 2 12 3 13 4 36 5 37 6 38 7 9 8 5 9 6 10 7 11 8 12
REMARK SMILES IDX 4 13 2 14 1 15 3 16 14 17 15 18 16 19 17 21 18 22 25 23
REMARK SMILES IDX 19 24 24 25 26 26 27 27 35 28 28 29 34 30 29 31 32 32 30 33
REMARK SMILES IDX 31 34 33 35 20 38 21 39 22 40 23 41
REMARK H PARENT 14 20 33 36 33 37
ROOT
ATOM      1  C   UNL     1       2.836  -0.968   0.447  1.00  0.00     0.050 A 
ATOM      2  C   UNL     1       2.075  -1.226   1.599  1.00  0.00     0.029 A 
ATOM      3  C   UNL     1       0.719  -1.565   1.501  1.00  0.00     0.031 A 
ATOM      4  C   UNL     1       0.112  -1.671   0.252  1.00  0.00     0.077 A 
ATOM      5  C   UNL     1       0.892  -1.446  -0.888  1.00  0.00     0.148 A 
ATOM      6  F   UNL     1       0.330  -1.569  -2.102  1.00  0.00    -0.205 F 
ATOM      7  C   UNL     1       2.240  -1.104  -0.806  1.00  0.00     0.068 A 
ENDROOT
BRANCH   1   8
ATOM      8  N   UNL     1       4.211  -0.627   0.575  1.00  0.00    -0.303 N 
ATOM      9  C   UNL     1       5.003   0.219  -0.200  1.00  0.00     0.127 A 
ATOM     10  N   UNL     1       6.275   0.132   0.167  1.00  0.00    -0.240 NA
ATOM     11  C   UNL     1       6.303  -0.676   1.262  1.00  0.00     0.131 A 
ATOM     12  C   UNL     1       5.042  -1.119   1.563  1.00  0.00     0.113 A 
BRANCH   9  13
ATOM     13  C   UNL     1       4.512   1.207  -1.227  1.00  0.00     0.159 C 
BRANCH  13  14
ATOM     14  N   UNL     1       4.289   2.584  -0.745  1.00  0.00    -0.302 NA
ATOM     15  C   UNL     1       5.506   3.197  -0.218  1.00  0.00     0.105 C 
ATOM     16  C   UNL     1       3.186   2.691   0.204  1.00  0.00     0.105 C 
ENDBRANCH  13  14
ENDBRANCH   9  13
ENDBRANCH   1   8
BRANCH   4  17
ATOM     17  N   UNL     1      -1.251  -1.973   0.043  1.00  0.00    -0.318 N 
ATOM     18  C   UNL     1      -2.225  -2.195   0.994  1.00  0.00     0.274 C 
ATOM     19  O   UNL     1      -2.032  -2.294   2.199  1.00  0.00    -0.267 OA
ATOM     20  H   UNL     1      -1.529  -2.000  -0.934  1.00  0.00     0.170 HD
BRANCH  18  21
ATOM     21  C   UNL     1      -3.544  -2.330   0.432  1.00  0.00     0.133 A 
ATOM     22  C   UNL     1      -4.416  -3.387   0.611  1.00  0.00     0.069 A 
ATOM     23  N   UNL     1      -4.208  -1.427  -0.383  1.00  0.00    -0.227 N 
ATOM     24  C   UNL     1      -5.498  -3.150  -0.268  1.00  0.00     0.167 A 
ATOM     25  N   UNL     1      -5.315  -1.995  -0.932  1.00  0.00    -0.163 NA
BRANCH  23  26
ATOM     26  C   UNL     1      -3.888  -0.069  -0.700  1.00  0.00     0.066 A 
ATOM     27  C   UNL     1      -4.509   0.535  -1.811  1.00  0.00     0.032 A 
ATOM     28  C   UNL     1      -2.988   0.675   0.090  1.00  0.00     0.044 A 
ATOM     29  C   UNL     1      -4.221   1.853  -2.192  1.00  0.00     0.053 A 
ATOM     30  C   UNL     1      -2.680   1.997  -0.291  1.00  0.00     0.068 A 
ATOM     31  C   UNL     1      -3.296   2.532  -1.406  1.00  0.00     0.169 A 
ATOM     32  C   UNL     1      -1.851   3.050   0.174  1.00  0.00     0.174 A 
ATOM     33  O   UNL     1      -2.862   3.806  -1.593  1.00  0.00    -0.354 OA
ATOM     34  N   UNL     1      -1.949   4.132  -0.601  1.00  0.00    -0.061 NA
BRANCH  32  35
ATOM     35  N   UNL     1      -1.063   2.966   1.266  1.00  0.00    -0.380 N 
ATOM     36  H   UNL     1      -1.303   2.316   2.006  1.00  0.00     0.158 HD
ATOM     37  H   UNL     1      -0.717   3.852   1.624  1.00  0.00     0.158 HD
ENDBRANCH  32  35
ENDBRANCH  23  26
BRANCH  24  38
ATOM     38  C   UNL     1      -6.675  -4.060  -0.509  1.00  0.00     0.435 C 
ATOM     39  F   UNL     1      -6.904  -4.874   0.558  1.00  0.00    -0.164 F 
ATOM     40  F   UNL     1      -7.832  -3.387  -0.740  1.00  0.00    -0.164 F 
ATOM     41  F   UNL     1      -6.469  -4.877  -1.576  1.00  0.00    -0.164 F 
ENDBRANCH  24  38
ENDBRANCH  18  21
ENDBRANCH   4  17
TORSDOF 8
