REMARK SMILES COc1ccc2cc(-c3cc(-c4cc(Cl)cc(Cl)c4)nn3[C@@H](C)c3ccc(C(=O)NCCC(=O)O)cc3)ccc2c1
REMARK SMILES IDX 24 1 25 2 26 3 27 4 36 5 37 6 22 7 23 8 21 9 9 10 10 11
REMARK SMILES IDX 11 12 20 13 8 14 3 15 4 16 41 17 5 18 40 19 6 20 39 21 7 22
REMARK SMILES IDX 38 23 2 24 1 25 12 26 13 27 19 28 14 29 17 30 16 31 15 32
REMARK SMILES IDX 18 33 28 34 29 35 30 36 31 38 32 39 33 40 34 41 35 42
REMARK H PARENT 30 37 35 43
ROOT
ATOM      1  C   UNL     1       0.868  -0.140  -1.172  1.00  0.00    -0.024 A 
ATOM      2  C   UNL     1       1.938   0.769  -1.105  1.00  0.00     0.007 A 
ATOM      3  C   UNL     1       3.041   0.522  -0.282  1.00  0.00     0.014 A 
ATOM      4  C   UNL     1       3.087  -0.643   0.491  1.00  0.00     0.039 A 
ATOM      5  C   UNL     1       2.020  -1.547   0.447  1.00  0.00     0.014 A 
ATOM      6  C   UNL     1       0.925  -1.304  -0.386  1.00  0.00     0.007 A 
ENDROOT
BRANCH   1   7
ATOM      7  C   UNL     1      -0.343   0.120  -2.059  1.00  0.00     0.135 C 
ATOM      8  C   UNL     1       0.035   0.198  -3.544  1.00  0.00     0.038 C 
BRANCH   7   9
ATOM      9  N   UNL     1      -1.090   1.296  -1.590  1.00  0.00    -0.257 N 
ATOM     10  C   UNL     1      -2.119   1.316  -0.675  1.00  0.00     0.070 A 
ATOM     11  C   UNL     1      -2.495   2.640  -0.585  1.00  0.00     0.059 A 
ATOM     12  C   UNL     1      -1.647   3.360  -1.466  1.00  0.00     0.093 A 
ATOM     13  N   UNL     1      -0.793   2.524  -2.076  1.00  0.00    -0.172 NA
BRANCH  10  14
ATOM     14  C   UNL     1      -2.629   0.154   0.035  1.00  0.00     0.000 A 
ATOM     15  C   UNL     1      -5.104  -4.024   1.516  1.00  0.00     0.119 A 
ATOM     16  C   UNL     1      -5.709  -3.604   0.332  1.00  0.00     0.047 A 
ATOM     17  C   UNL     1      -4.039  -3.288   2.038  1.00  0.00     0.055 A 
ATOM     18  C   UNL     1      -5.256  -2.463  -0.334  1.00  0.00     0.012 A 
ATOM     19  C   UNL     1      -3.572  -2.134   1.382  1.00  0.00    -0.015 A 
ATOM     20  C   UNL     1      -4.184  -1.718   0.178  1.00  0.00    -0.017 A 
ATOM     21  C   UNL     1      -2.505  -1.383   1.901  1.00  0.00     0.009 A 
ATOM     22  C   UNL     1      -3.706  -0.573  -0.482  1.00  0.00     0.019 A 
ATOM     23  C   UNL     1      -2.042  -0.246   1.236  1.00  0.00     0.011 A 
BRANCH  15  24
ATOM     24  O   UNL     1      -5.643  -5.157   2.059  1.00  0.00    -0.497 OA
ATOM     25  C   UNL     1      -5.061  -5.635   3.267  1.00  0.00     0.278 C 
ENDBRANCH  15  24
ENDBRANCH  10  14
BRANCH  12  26
ATOM     26  C   UNL     1      -1.621   4.802  -1.733  1.00  0.00     0.005 A 
ATOM     27  C   UNL     1      -0.554   5.371  -2.448  1.00  0.00     0.031 A 
ATOM     28  C   UNL     1      -2.650   5.642  -1.285  1.00  0.00     0.031 A 
ATOM     29  C   UNL     1      -0.521   6.742  -2.703  1.00  0.00     0.043 A 
ATOM     30  C   UNL     1      -2.606   7.013  -1.549  1.00  0.00     0.043 A 
ATOM     31  C   UNL     1      -1.545   7.571  -2.256  1.00  0.00     0.041 A 
ATOM     32  Cl  UNL     1       0.796   7.415  -3.583  1.00  0.00    -0.084 Cl
ATOM     33  Cl  UNL     1      -3.880   8.026  -0.990  1.00  0.00    -0.084 Cl
ENDBRANCH  12  26
ENDBRANCH   7   9
ENDBRANCH   1   7
BRANCH   4  34
ATOM     34  C   UNL     1       4.235  -0.951   1.384  1.00  0.00     0.251 C 
ATOM     35  O   UNL     1       4.066  -1.601   2.410  1.00  0.00    -0.269 OA
ATOM     36  N   UNL     1       5.473  -0.510   0.962  1.00  0.00    -0.351 N 
ATOM     37  H   UNL     1       5.574  -0.138   0.027  1.00  0.00     0.163 HD
BRANCH  36  38
ATOM     38  C   UNL     1       6.683  -0.859   1.687  1.00  0.00     0.128 C 
BRANCH  38  39
ATOM     39  C   UNL     1       7.130  -2.281   1.394  1.00  0.00     0.143 C 
BRANCH  39  40
ATOM     40  C   UNL     1       8.408  -2.589   2.110  1.00  0.00     0.305 C 
ATOM     41  O   UNL     1       8.557  -3.370   3.034  1.00  0.00    -0.252 OA
BRANCH  40  42
ATOM     42  O   UNL     1       9.462  -1.921   1.606  1.00  0.00    -0.481 OA
ATOM     43  H   UNL     1      10.220  -2.240   2.142  1.00  0.00     0.296 HD
ENDBRANCH  40  42
ENDBRANCH  39  40
ENDBRANCH  38  39
ENDBRANCH  36  38
ENDBRANCH   4  34
TORSDOF 10
