REMARK SMILES O=C1CCc2c(Oc3ccc4c(c3)[C@H]3[C@H](NC(=O)Nc5cc(F)c(F)cc5F)[C@H]3O4)ccnc2N1
REMARK SMILES IDX 8 1 9 2 10 3 11 4 12 5 13 6 14 7 15 8 29 9 30 10 7 11 6 12
REMARK SMILES IDX 1 13 2 14 3 15 35 16 4 17 34 18 5 19 33 20 32 21 31 22 16 24
REMARK SMILES IDX 17 25 18 26 19 27 20 30 21 31 27 32 22 33 26 34 24 35 28 36
REMARK SMILES IDX 23 37 25 38
REMARK H PARENT 35 23 16 28 19 29
ROOT
ATOM      1  C   UNL     1      -2.498  -0.523  -0.469  1.00  0.00     0.128 A 
ATOM      2  C   UNL     1      -2.679  -1.367   0.643  1.00  0.00     0.051 A 
ATOM      3  C   UNL     1      -1.577  -1.955   1.265  1.00  0.00     0.050 A 
ATOM      4  C   UNL     1      -0.329  -1.693   0.736  1.00  0.00     0.123 A 
ATOM      5  C   UNL     1      -0.131  -0.875  -0.384  1.00  0.00     0.007 A 
ATOM      6  C   UNL     1      -1.224  -0.288  -1.000  1.00  0.00     0.055 A 
ATOM      7  C   UNL     1       1.319  -0.802  -0.700  1.00  0.00     0.092 C 
ATOM      8  C   UNL     1       2.302  -0.287   0.330  1.00  0.00     0.136 C 
ATOM      9  C   UNL     1       1.921  -1.746   0.339  1.00  0.00     0.206 C 
ATOM     10  O   UNL     1       0.854  -2.192   1.256  1.00  0.00    -0.487 OA
ENDROOT
BRANCH   1  11
ATOM     11  O   UNL     1      -3.558   0.059  -1.133  1.00  0.00    -0.457 OA
BRANCH  11  12
ATOM     12  C   UNL     1      -4.521   0.677  -0.366  1.00  0.00     0.135 A 
ATOM     13  O   UNL     1      -9.859  -0.209  -1.184  1.00  0.00    -0.275 OA
ATOM     14  C   UNL     1      -8.660   0.044  -1.096  1.00  0.00     0.225 C 
ATOM     15  C   UNL     1      -7.680  -0.325  -2.186  1.00  0.00     0.105 C 
ATOM     16  N   UNL     1      -8.160   0.769  -0.055  1.00  0.00    -0.310 N 
ATOM     17  C   UNL     1      -6.298  -0.635  -1.633  1.00  0.00     0.053 C 
ATOM     18  C   UNL     1      -6.814   1.039   0.146  1.00  0.00     0.139 A 
ATOM     19  C   UNL     1      -5.861   0.399  -0.638  1.00  0.00     0.038 A 
ATOM     20  N   UNL     1      -6.521   1.906   1.133  1.00  0.00    -0.239 NA
ATOM     21  C   UNL     1      -5.215   2.181   1.339  1.00  0.00     0.117 A 
ATOM     22  C   UNL     1      -4.186   1.606   0.617  1.00  0.00     0.067 A 
ATOM     23  H   UNL     1      -8.808   1.153   0.618  1.00  0.00     0.171 HD
ENDBRANCH  11  12
ENDBRANCH   1  11
BRANCH   8  24
ATOM     24  N   UNL     1       3.613   0.144  -0.069  1.00  0.00    -0.331 N 
ATOM     25  C   UNL     1       4.692   0.060   0.793  1.00  0.00     0.319 C 
ATOM     26  O   UNL     1       4.590  -0.354   1.941  1.00  0.00    -0.248 OA
ATOM     27  N   UNL     1       5.848   0.509   0.192  1.00  0.00    -0.305 N 
ATOM     28  H   UNL     1       3.805   0.224  -1.057  1.00  0.00     0.165 HD
ATOM     29  H   UNL     1       5.746   0.989  -0.693  1.00  0.00     0.171 HD
BRANCH  27  30
ATOM     30  C   UNL     1       7.149   0.527   0.739  1.00  0.00     0.081 A 
ATOM     31  C   UNL     1       7.498  -0.045   1.964  1.00  0.00     0.071 A 
ATOM     32  C   UNL     1       8.150   1.156  -0.021  1.00  0.00     0.149 A 
ATOM     33  C   UNL     1       8.819   0.027   2.405  1.00  0.00     0.161 A 
ATOM     34  C   UNL     1       9.468   1.229   0.417  1.00  0.00     0.083 A 
ATOM     35  C   UNL     1       9.794   0.659   1.638  1.00  0.00     0.161 A 
ATOM     36  F   UNL     1       7.829   1.703  -1.204  1.00  0.00    -0.205 F 
ATOM     37  F   UNL     1       9.149  -0.525   3.581  1.00  0.00    -0.204 F 
ATOM     38  F   UNL     1      11.059   0.720   2.073  1.00  0.00    -0.204 F 
ENDBRANCH  27  30
ENDBRANCH   8  24
TORSDOF 4
