REMARK SMILES C[C@@H](c1nc(-c2ccc(C#N)cc2)cs1)[C@@](Cn1cncn1)(OCOP(=O)(O)O)c1ccc(F)cc1F
REMARK SMILES IDX 23 1 16 2 2 3 1 4 3 5 4 6 15 7 5 8 14 9 6 10 7 11 13 12 8 13
REMARK SMILES IDX 12 14 9 15 10 16 11 17 17 18 18 19 19 20 22 21 20 22 21 23
REMARK SMILES IDX 30 24 31 25 36 26 32 27 35 28 33 29 37 30 34 31 24 32 25 33
REMARK SMILES IDX 26 34 27 35 28 36 29 38
REMARK H PARENT 28 37 29 39
ROOT
ATOM      1  O   UNL     1      -1.704   1.195  -0.671  1.00  0.00    -0.341 OA
ENDROOT
BRANCH   1   2
ATOM      2  C   UNL     1      -1.446   0.093   0.232  1.00  0.00     0.127 C 
BRANCH   2   3
ATOM      3  C   UNL     1      -0.709   0.610   1.541  1.00  0.00     0.084 C 
ATOM      4  C   UNL     1      -0.720  -0.370   2.729  1.00  0.00     0.019 C 
BRANCH   3   5
ATOM      5  C   UNL     1       0.726   1.028   1.273  1.00  0.00     0.099 A 
ATOM      6  N   UNL     1       1.741   0.189   1.253  1.00  0.00    -0.241 NA
ATOM      7  S   UNL     1       1.141   2.675   1.013  1.00  0.00    -0.126 S 
ATOM      8  C   UNL     1       2.920   0.855   0.950  1.00  0.00     0.081 A 
ATOM      9  C   UNL     1       2.777   2.218   0.783  1.00  0.00     0.095 A 
BRANCH   8  10
ATOM     10  C   UNL     1       4.176   0.122   0.807  1.00  0.00     0.001 A 
ATOM     11  C   UNL     1       5.426   0.751   0.894  1.00  0.00     0.012 A 
ATOM     12  C   UNL     1       4.138  -1.262   0.577  1.00  0.00     0.012 A 
ATOM     13  C   UNL     1       6.608   0.014   0.747  1.00  0.00     0.020 A 
ATOM     14  C   UNL     1       5.316  -2.001   0.426  1.00  0.00     0.020 A 
ATOM     15  C   UNL     1       6.556  -1.363   0.511  1.00  0.00     0.052 A 
ATOM     16  C   UNL     1       7.767  -2.116   0.362  1.00  0.00     0.099 C 
ATOM     17  N   UNL     1       8.749  -2.723   0.244  1.00  0.00    -0.192 NA
ENDBRANCH   8  10
ENDBRANCH   3   5
ENDBRANCH   2   3
BRANCH   2  18
ATOM     18  C   UNL     1      -2.822  -0.557   0.604  1.00  0.00     0.187 C 
BRANCH  18  19
ATOM     19  N   UNL     1      -3.703  -0.833  -0.518  1.00  0.00    -0.250 N 
ATOM     20  C   UNL     1      -3.768  -1.967  -1.266  1.00  0.00     0.219 A 
ATOM     21  N   UNL     1      -4.728   0.003  -0.818  1.00  0.00    -0.160 NA
ATOM     22  N   UNL     1      -4.797  -1.904  -2.076  1.00  0.00    -0.224 NA
ATOM     23  C   UNL     1      -5.348  -0.693  -1.783  1.00  0.00     0.246 A 
ENDBRANCH  18  19
ENDBRANCH   2  18
BRANCH   2  24
ATOM     24  C   UNL     1      -0.559  -0.925  -0.539  1.00  0.00     0.022 A 
ATOM     25  C   UNL     1      -0.437  -2.270  -0.126  1.00  0.00     0.013 A 
ATOM     26  C   UNL     1       0.221  -0.534  -1.650  1.00  0.00     0.132 A 
ATOM     27  C   UNL     1       0.384  -3.171  -0.812  1.00  0.00     0.040 A 
ATOM     28  C   UNL     1       1.041  -1.427  -2.336  1.00  0.00     0.078 A 
ATOM     29  C   UNL     1       1.112  -2.741  -1.912  1.00  0.00     0.126 A 
ATOM     30  F   UNL     1       0.235   0.738  -2.072  1.00  0.00    -0.206 F 
ATOM     31  F   UNL     1       1.906  -3.606  -2.556  1.00  0.00    -0.207 F 
ENDBRANCH   2  24
ENDBRANCH   1   2
BRANCH   1  32
ATOM     32  C   UNL     1      -2.449   2.318  -0.218  1.00  0.00     0.337 C 
BRANCH  32  33
ATOM     33  O   UNL     1      -2.889   3.066  -1.326  1.00  0.00    -0.260 OA
BRANCH  33  34
ATOM     34  P   UNL     1      -4.325   3.755  -1.254  1.00  0.00     0.471 P 
ATOM     35  O   UNL     1      -4.511   4.959  -2.112  1.00  0.00    -0.228 OA
BRANCH  34  36
ATOM     36  O   UNL     1      -5.374   2.587  -1.516  1.00  0.00    -0.303 OA
ATOM     37  H   UNL     1      -5.133   1.732  -1.092  1.00  0.00     0.223 HD
ENDBRANCH  34  36
BRANCH  34  38
ATOM     38  O   UNL     1      -4.571   4.089   0.292  1.00  0.00    -0.303 OA
ATOM     39  H   UNL     1      -5.208   4.828   0.346  1.00  0.00     0.223 HD
ENDBRANCH  34  38
ENDBRANCH  33  34
ENDBRANCH  32  33
ENDBRANCH   1  32
TORSDOF 12
