REMARK SMILES COC(=O)Nc1nc2cc(Sc3ccc(NC(=O)[C@H](C)N)cc3)ccc2[nH]1
REMARK SMILES IDX 12 1 13 2 14 3 15 4 22 5 23 6 11 7 10 8 6 9 7 10 27 11 8 12
REMARK SMILES IDX 26 13 9 14 25 15 24 16 5 18 3 19 4 20 2 22 1 23 16 24 17 25
REMARK SMILES IDX 18 26 19 28 20 29 21 30
REMARK H PARENT 27 17 5 21 16 27 21 31 21 32
ROOT
ATOM      1  C   UNL     1      -1.247  -1.248  -2.000  1.00  0.00     0.012 A 
ATOM      2  C   UNL     1      -1.244  -1.462  -0.620  1.00  0.00     0.017 A 
ATOM      3  C   UNL     1      -2.383  -1.178   0.141  1.00  0.00     0.027 A 
ATOM      4  C   UNL     1      -3.546  -0.684  -0.463  1.00  0.00     0.041 A 
ATOM      5  C   UNL     1      -3.549  -0.480  -1.843  1.00  0.00     0.027 A 
ATOM      6  C   UNL     1      -2.409  -0.764  -2.606  1.00  0.00     0.017 A 
ENDROOT
BRANCH   1   7
ATOM      7  S   UNL     1       0.176  -1.619  -3.009  1.00  0.00    -0.090 SA
BRANCH   7   8
ATOM      8  C   UNL     1       1.467  -0.718  -2.164  1.00  0.00     0.014 A 
ATOM      9  C   UNL     1       5.273  -0.115   0.171  1.00  0.00     0.210 A 
ATOM     10  N   UNL     1       4.654  -1.186  -0.269  1.00  0.00    -0.213 NA
ATOM     11  N   UNL     1       4.597   1.028  -0.174  1.00  0.00    -0.324 N 
ATOM     12  C   UNL     1       3.536  -0.720  -0.920  1.00  0.00     0.092 A 
ATOM     13  C   UNL     1       3.473   0.668  -0.872  1.00  0.00     0.067 A 
ATOM     14  C   UNL     1       2.524  -1.433  -1.579  1.00  0.00     0.046 A 
ATOM     15  C   UNL     1       2.440   1.411  -1.447  1.00  0.00     0.029 A 
ATOM     16  C   UNL     1       1.435   0.683  -2.100  1.00  0.00     0.018 A 
ATOM     17  H   UNL     1       4.898   1.965   0.064  1.00  0.00     0.170 HD
BRANCH   9  18
ATOM     18  N   UNL     1       6.441  -0.134   0.880  1.00  0.00    -0.261 N 
ATOM     19  C   UNL     1       7.075   0.993   1.311  1.00  0.00     0.413 C 
ATOM     20  O   UNL     1       6.691   2.145   1.146  1.00  0.00    -0.224 OA
ATOM     21  H   UNL     1       6.854  -1.034   1.074  1.00  0.00     0.176 HD
BRANCH  19  22
ATOM     22  O   UNL     1       8.213   0.644   1.965  1.00  0.00    -0.453 OA
ATOM     23  C   UNL     1       8.966   1.752   2.461  1.00  0.00     0.284 C 
ENDBRANCH  19  22
ENDBRANCH   9  18
ENDBRANCH   7   8
ENDBRANCH   1   7
BRANCH   4  24
ATOM     24  N   UNL     1      -4.650  -0.433   0.380  1.00  0.00    -0.325 N 
ATOM     25  C   UNL     1      -5.892   0.068   0.020  1.00  0.00     0.240 C 
ATOM     26  O   UNL     1      -6.221   0.447  -1.103  1.00  0.00    -0.273 OA
ATOM     27  H   UNL     1      -4.506  -0.637   1.360  1.00  0.00     0.169 HD
BRANCH  25  28
ATOM     28  C   UNL     1      -6.880   0.187   1.215  1.00  0.00     0.138 C 
ATOM     29  C   UNL     1      -7.106  -1.143   1.923  1.00  0.00     0.035 C 
BRANCH  28  30
ATOM     30  N   UNL     1      -8.187   0.679   0.732  1.00  0.00    -0.320 NA
ATOM     31  H   UNL     1      -8.059   0.967  -0.248  1.00  0.00     0.119 HD
ATOM     32  H   UNL     1      -8.433   1.535   1.228  1.00  0.00     0.119 HD
ENDBRANCH  28  30
ENDBRANCH  25  28
ENDBRANCH   4  24
TORSDOF 7
