REMARK SMILES CCOc1cccnc1Oc1cncc(-c2ncc(C(=O)N[C@H]3CCOC3)cn2)c1
REMARK SMILES IDX 10 1 9 2 4 3 5 4 6 5 8 6 7 7 3 8 2 9 1 10 11 11 12 12 30 13
REMARK SMILES IDX 13 14 15 15 14 16 16 17 17 18 29 19 18 20 28 21 19 22 20 23
REMARK SMILES IDX 21 24 22 25 23 27 24 28 27 29 25 30 26 31
REMARK H PARENT 22 26
ROOT
ATOM      1  O   UNL     1      -4.078   0.475   0.583  1.00  0.00    -0.434 OA
ENDROOT
BRANCH   1   2
ATOM      2  C   UNL     1      -5.129  -0.156   1.238  1.00  0.00     0.262 A 
ATOM      3  C   UNL     1      -6.412   0.051   0.734  1.00  0.00     0.181 A 
ATOM      4  C   UNL     1      -7.485  -0.556   1.379  1.00  0.00     0.054 A 
ATOM      5  C   UNL     1      -7.240  -1.384   2.470  1.00  0.00     0.024 A 
ATOM      6  N   UNL     1      -4.866  -0.974   2.287  1.00  0.00    -0.218 NA
ATOM      7  C   UNL     1      -5.927  -1.564   2.878  1.00  0.00     0.115 A 
BRANCH   3   8
ATOM      8  O   UNL     1      -6.670   0.884  -0.320  1.00  0.00    -0.488 OA
BRANCH   8   9
ATOM      9  C   UNL     1      -6.459   0.198  -1.560  1.00  0.00     0.226 C 
ATOM     10  C   UNL     1      -6.767   1.167  -2.688  1.00  0.00     0.049 C 
ENDBRANCH   8   9
ENDBRANCH   3   8
ENDBRANCH   1   2
BRANCH   1  11
ATOM     11  C   UNL     1      -2.902   0.645   1.265  1.00  0.00     0.148 A 
ATOM     12  C   UNL     1      -2.814   1.161   2.550  1.00  0.00     0.158 A 
ATOM     13  C   UNL     1      -1.717   0.375   0.582  1.00  0.00     0.062 A 
ATOM     14  N   UNL     1      -1.642   1.393   3.185  1.00  0.00    -0.260 NA
ATOM     15  C   UNL     1      -0.470   0.585   1.195  1.00  0.00     0.041 A 
ATOM     16  C   UNL     1      -0.511   1.092   2.496  1.00  0.00     0.123 A 
BRANCH  15  17
ATOM     17  C   UNL     1       0.799   0.297   0.516  1.00  0.00     0.160 A 
ATOM     18  N   UNL     1       1.946   0.514   1.193  1.00  0.00    -0.236 NA
ATOM     19  N   UNL     1       0.751  -0.169  -0.748  1.00  0.00    -0.236 NA
ATOM     20  C   UNL     1       3.102   0.238   0.544  1.00  0.00     0.129 A 
ATOM     21  C   UNL     1       1.936  -0.426  -1.350  1.00  0.00     0.129 A 
ATOM     22  C   UNL     1       3.161  -0.225  -0.751  1.00  0.00     0.076 A 
BRANCH  22  23
ATOM     23  C   UNL     1       4.400  -0.536  -1.486  1.00  0.00     0.254 C 
ATOM     24  O   UNL     1       4.350  -1.284  -2.456  1.00  0.00    -0.269 OA
ATOM     25  N   UNL     1       5.574   0.047  -1.051  1.00  0.00    -0.347 N 
ATOM     26  H   UNL     1       5.602   0.587  -0.199  1.00  0.00     0.164 HD
BRANCH  25  27
ATOM     27  C   UNL     1       6.856  -0.343  -1.640  1.00  0.00     0.110 C 
ATOM     28  C   UNL     1       7.940   0.663  -1.323  1.00  0.00     0.056 C 
ATOM     29  C   UNL     1       7.416  -1.602  -0.989  1.00  0.00     0.185 C 
ATOM     30  C   UNL     1       8.418   0.229   0.049  1.00  0.00     0.162 C 
ATOM     31  O   UNL     1       8.125  -1.168   0.187  1.00  0.00    -0.379 OA
ENDBRANCH  25  27
ENDBRANCH  22  23
ENDBRANCH  15  17
ENDBRANCH   1  11
TORSDOF 7
