REMARK SMILES CC(C)COc1cc(F)cc(-c2ccc(C(=O)NS(=O)(=O)c3ccccc3)c(N3C[C@@H](C)CC3(C)C)n2)c1
REMARK SMILES IDX 6 1 7 2 8 3 9 4 10 5 11 6 38 7 5 8 4 9 2 10 1 11 3 12 12 13
REMARK SMILES IDX 13 14 37 15 14 16 28 17 15 18 29 19 30 20 34 21 31 22 33 23
REMARK SMILES IDX 35 24 36 25 32 26 16 27 17 28 18 29 19 31 20 32 21 33 22 34
REMARK SMILES IDX 23 35 27 36 24 37 26 38 25 39
REMARK H PARENT 18 30
ROOT
ATOM      1  C   UNL     1       4.860   0.191   0.175  1.00  0.00     0.122 A 
ATOM      2  C   UNL     1       4.932  -1.191   0.285  1.00  0.00     0.085 A 
ATOM      3  C   UNL     1       3.757  -1.923   0.388  1.00  0.00     0.127 A 
ATOM      4  F   UNL     1       3.820  -3.257   0.500  1.00  0.00    -0.207 F 
ATOM      5  C   UNL     1       2.512  -1.301   0.373  1.00  0.00     0.049 A 
ATOM      6  C   UNL     1       2.397   0.095   0.255  1.00  0.00     0.007 A 
ATOM      7  C   UNL     1       3.604   0.818   0.158  1.00  0.00     0.057 A 
ENDROOT
BRANCH   1   8
ATOM      8  O   UNL     1       5.918   1.050   0.062  1.00  0.00    -0.493 OA
BRANCH   8   9
ATOM      9  C   UNL     1       7.239   0.545   0.270  1.00  0.00     0.232 C 
BRANCH   9  10
ATOM     10  C   UNL     1       7.872   0.047  -1.041  1.00  0.00     0.020 C 
ATOM     11  C   UNL     1       7.952   1.168  -2.081  1.00  0.00     0.011 C 
ATOM     12  C   UNL     1       9.259  -0.532  -0.767  1.00  0.00     0.011 C 
ENDBRANCH   9  10
ENDBRANCH   8   9
ENDBRANCH   1   8
BRANCH   6  13
ATOM     13  C   UNL     1       1.064   0.746   0.253  1.00  0.00     0.073 A 
ATOM     14  C   UNL     1       0.844   2.061  -0.138  1.00  0.00     0.030 A 
ATOM     15  N   UNL     1       0.030  -0.037   0.662  1.00  0.00    -0.230 NA
ATOM     16  C   UNL     1      -0.446   2.581  -0.081  1.00  0.00     0.020 A 
ATOM     17  C   UNL     1      -1.227   0.464   0.742  1.00  0.00     0.142 A 
ATOM     18  C   UNL     1      -1.504   1.788   0.370  1.00  0.00     0.083 A 
BRANCH  17  19
ATOM     19  N   UNL     1      -2.281  -0.421   1.086  1.00  0.00    -0.351 N 
ATOM     20  C   UNL     1      -2.611  -1.200  -0.153  1.00  0.00     0.122 C 
ATOM     21  C   UNL     1      -2.049  -1.409   2.193  1.00  0.00     0.036 C 
ATOM     22  C   UNL     1      -2.516  -2.689   0.209  1.00  0.00     0.008 C 
ATOM     23  C   UNL     1      -1.661  -2.710   1.473  1.00  0.00     0.033 C 
ATOM     24  C   UNL     1      -1.018  -1.005   3.255  1.00  0.00     0.034 C 
ATOM     25  C   UNL     1      -3.400  -1.577   2.926  1.00  0.00     0.034 C 
ATOM     26  C   UNL     1      -1.931  -3.535  -0.911  1.00  0.00     0.009 C 
ENDBRANCH  17  19
BRANCH  18  27
ATOM     27  C   UNL     1      -2.853   2.412   0.414  1.00  0.00     0.268 C 
ATOM     28  O   UNL     1      -3.077   3.452  -0.187  1.00  0.00    -0.268 OA
ATOM     29  N   UNL     1      -3.819   1.733   1.157  1.00  0.00    -0.245 N 
ATOM     30  H   UNL     1      -3.583   0.805   1.517  1.00  0.00     0.183 HD
BRANCH  29  31
ATOM     31  S   UNL     1      -5.419   2.130   1.294  1.00  0.00     0.264 S 
ATOM     32  O   UNL     1      -6.023   1.085   2.100  1.00  0.00    -0.201 OA
ATOM     33  O   UNL     1      -5.551   3.524   1.666  1.00  0.00    -0.201 OA
BRANCH  31  34
ATOM     34  C   UNL     1      -6.003   1.918  -0.372  1.00  0.00     0.087 A 
ATOM     35  C   UNL     1      -6.049   3.016  -1.236  1.00  0.00     0.022 A 
ATOM     36  C   UNL     1      -6.432   0.655  -0.793  1.00  0.00     0.022 A 
ATOM     37  C   UNL     1      -6.493   2.839  -2.544  1.00  0.00     0.001 A 
ATOM     38  C   UNL     1      -6.877   0.486  -2.102  1.00  0.00     0.001 A 
ATOM     39  C   UNL     1      -6.903   1.576  -2.977  1.00  0.00     0.000 A 
ENDBRANCH  31  34
ENDBRANCH  29  31
ENDBRANCH  18  27
ENDBRANCH   6  13
TORSDOF 8
