REMARK SMILES O=C(c1ccc(OCCN2CCCCC2)cc1)c1c(-c2ccc(O)cc2)sc2cc(O)ccc12
REMARK SMILES IDX 3 1 4 2 5 3 6 4 16 5 17 6 2 7 1 8 18 9 19 10 34 11 27 12
REMARK SMILES IDX 33 13 28 14 32 15 29 16 30 17 20 18 21 19 26 20 22 21 25 22
REMARK SMILES IDX 23 23 24 24 31 26 7 28 8 29 9 30 10 31 11 32 15 33 12 34
REMARK SMILES IDX 14 35 13 36
REMARK H PARENT 24 25 31 27
ROOT
ATOM      1  C   UNL     1      -1.532  -0.321   1.143  1.00  0.00     0.023 A 
ATOM      2  C   UNL     1      -0.975  -0.736  -0.074  1.00  0.00     0.016 A 
ATOM      3  C   UNL     1       0.407  -0.943  -0.189  1.00  0.00     0.047 A 
ATOM      4  C   UNL     1       1.243  -0.728   0.906  1.00  0.00     0.119 A 
ATOM      5  C   UNL     1       0.689  -0.304   2.115  1.00  0.00     0.047 A 
ATOM      6  C   UNL     1      -0.687  -0.097   2.236  1.00  0.00     0.016 A 
ENDROOT
BRANCH   1   7
ATOM      7  C   UNL     1      -2.997  -0.080   1.316  1.00  0.00     0.195 C 
ATOM      8  O   UNL     1      -3.392   0.573   2.277  1.00  0.00    -0.289 OA
BRANCH   7   9
ATOM      9  C   UNL     1      -3.924  -0.628   0.330  1.00  0.00     0.049 A 
ATOM     10  C   UNL     1      -4.752   0.175  -0.438  1.00  0.00     0.047 A 
ATOM     11  C   UNL     1      -4.126  -2.038   0.059  1.00  0.00     0.005 A 
ATOM     12  S   UNL     1      -5.720  -0.742  -1.504  1.00  0.00    -0.134 S 
ATOM     13  C   UNL     1      -3.530  -3.190   0.636  1.00  0.00     0.014 A 
ATOM     14  C   UNL     1      -5.083  -2.235  -0.941  1.00  0.00     0.039 A 
ATOM     15  C   UNL     1      -3.880  -4.470   0.198  1.00  0.00     0.047 A 
ATOM     16  C   UNL     1      -5.442  -3.523  -1.389  1.00  0.00     0.065 A 
ATOM     17  C   UNL     1      -4.823  -4.623  -0.802  1.00  0.00     0.117 A 
BRANCH  10  18
ATOM     18  C   UNL     1      -4.856   1.636  -0.477  1.00  0.00    -0.007 A 
ATOM     19  C   UNL     1      -3.788   2.409  -0.958  1.00  0.00     0.013 A 
ATOM     20  C   UNL     1      -6.016   2.282  -0.026  1.00  0.00     0.013 A 
ATOM     21  C   UNL     1      -3.878   3.803  -0.991  1.00  0.00     0.047 A 
ATOM     22  C   UNL     1      -6.107   3.675  -0.061  1.00  0.00     0.047 A 
ATOM     23  C   UNL     1      -5.040   4.423  -0.542  1.00  0.00     0.115 A 
BRANCH  23  24
ATOM     24  O   UNL     1      -5.171   5.780  -0.556  1.00  0.00    -0.508 OA
ATOM     25  H   UNL     1      -4.343   6.168  -0.882  1.00  0.00     0.293 HD
ENDBRANCH  23  24
ENDBRANCH  10  18
BRANCH  17  26
ATOM     26  O   UNL     1      -5.128  -5.894  -1.193  1.00  0.00    -0.508 OA
ATOM     27  H   UNL     1      -5.821  -5.856  -1.873  1.00  0.00     0.293 HD
ENDBRANCH  17  26
ENDBRANCH   7   9
ENDBRANCH   1   7
BRANCH   4  28
ATOM     28  O   UNL     1       2.600  -0.891   0.927  1.00  0.00    -0.492 OA
BRANCH  28  29
ATOM     29  C   UNL     1       3.232  -1.296  -0.290  1.00  0.00     0.245 C 
BRANCH  29  30
ATOM     30  C   UNL     1       4.754  -1.391  -0.071  1.00  0.00     0.126 C 
BRANCH  30  31
ATOM     31  N   UNL     1       5.496  -0.139  -0.327  1.00  0.00    -0.300 NA
ATOM     32  C   UNL     1       5.149   0.942   0.598  1.00  0.00     0.084 C 
ATOM     33  C   UNL     1       6.948  -0.401  -0.331  1.00  0.00     0.084 C 
ATOM     34  C   UNL     1       5.765   2.266   0.127  1.00  0.00     0.016 C 
ATOM     35  C   UNL     1       7.815   0.825  -0.015  1.00  0.00     0.016 C 
ATOM     36  C   UNL     1       7.154   2.107  -0.492  1.00  0.00     0.003 C 
ENDBRANCH  30  31
ENDBRANCH  29  30
ENDBRANCH  28  29
ENDBRANCH   4  28
TORSDOF 9
