REMARK SMILES C[C@H]1CN(c2n[nH]c3nc(N[C@H]4CC[C@H](NS(=O)(=O)CCC(F)(F)F)CC4)ncc23)CCO1
REMARK SMILES IDX 16 1 15 3 12 4 27 5 13 6 26 7 14 8 11 9 10 11 5 12 6 13
REMARK SMILES IDX 30 14 7 15 29 16 8 17 28 18 9 19 4 21 2 22 3 23 33 24 32 25
REMARK SMILES IDX 31 26 1 27 17 28 18 29 19 30 20 31 21 32 22 33 23 34 24 35
REMARK SMILES IDX 25 36
REMARK H PARENT 16 2 11 10 7 20
ROOT
ATOM      1  N   UNL     1       5.284  -1.214  -0.371  1.00  0.00    -0.212 NA
ATOM      2  H   UNL     1       5.834  -1.687  -1.090  1.00  0.00     0.141 HD
ENDROOT
BRANCH   1   3
ATOM      3  C   UNL     1       3.899  -0.842  -0.716  1.00  0.00     0.069 C 
ATOM      4  C   UNL     1       1.494  -0.217  -2.104  1.00  0.00     0.082 C 
ATOM      5  C   UNL     1       2.785   0.385  -2.677  1.00  0.00     0.026 C 
ATOM      6  C   UNL     1       1.722  -1.687  -1.692  1.00  0.00     0.026 C 
ATOM      7  C   UNL     1       3.956   0.347  -1.688  1.00  0.00     0.022 C 
ATOM      8  C   UNL     1       3.178  -2.027  -1.350  1.00  0.00     0.022 C 
BRANCH   4   9
ATOM      9  N   UNL     1       1.079   0.585  -0.954  1.00  0.00    -0.351 N 
ATOM     10  H   UNL     1       1.352   1.564  -0.981  1.00  0.00     0.163 HD
BRANCH   9  11
ATOM     11  C   UNL     1      -0.293   0.633  -0.714  1.00  0.00     0.224 A 
ATOM     12  C   UNL     1      -4.208   1.293   0.183  1.00  0.00     0.161 A 
ATOM     13  N   UNL     1      -4.106   2.563   0.597  1.00  0.00    -0.155 NA
ATOM     14  C   UNL     1      -2.941   0.781  -0.217  1.00  0.00     0.082 A 
ATOM     15  N   UNL     1      -2.792   2.838   0.495  1.00  0.00    -0.259 N 
ATOM     16  C   UNL     1      -2.399  -0.375  -0.756  1.00  0.00     0.131 A 
ATOM     17  C   UNL     1      -2.050   1.808   0.007  1.00  0.00     0.163 A 
ATOM     18  N   UNL     1      -1.066  -0.434  -0.998  1.00  0.00    -0.221 NA
ATOM     19  N   UNL     1      -0.727   1.802  -0.216  1.00  0.00    -0.193 NA
ATOM     20  H   UNL     1      -2.457   3.753   0.768  1.00  0.00     0.192 HD
BRANCH  12  21
ATOM     21  N   UNL     1      -5.371   0.578   0.132  1.00  0.00    -0.350 N 
ATOM     22  C   UNL     1      -6.843  -1.280   0.972  1.00  0.00     0.134 C 
ATOM     23  C   UNL     1      -5.444  -0.625   0.994  1.00  0.00     0.150 C 
ATOM     24  O   UNL     1      -7.926  -0.384   1.275  1.00  0.00    -0.375 OA
ATOM     25  C   UNL     1      -7.555   1.001   1.248  1.00  0.00     0.182 C 
ATOM     26  C   UNL     1      -6.644   1.336   0.065  1.00  0.00     0.146 C 
ATOM     27  C   UNL     1      -7.141  -1.972  -0.356  1.00  0.00     0.040 C 
ENDBRANCH  12  21
ENDBRANCH   9  11
ENDBRANCH   4   9
ENDBRANCH   1   3
BRANCH   1  28
ATOM     28  S   UNL     1       5.635  -1.771   1.170  1.00  0.00     0.212 S 
ATOM     29  O   UNL     1       6.965  -2.334   1.088  1.00  0.00    -0.212 OA
ATOM     30  O   UNL     1       4.514  -2.548   1.642  1.00  0.00    -0.212 OA
BRANCH  28  31
ATOM     31  C   UNL     1       5.728  -0.257   2.108  1.00  0.00     0.163 C 
BRANCH  31  32
ATOM     32  C   UNL     1       6.811   0.672   1.590  1.00  0.00     0.133 C 
BRANCH  32  33
ATOM     33  C   UNL     1       6.800   1.963   2.360  1.00  0.00     0.390 C 
ATOM     34  F   UNL     1       7.006   1.750   3.676  1.00  0.00    -0.171 F 
ATOM     35  F   UNL     1       5.618   2.598   2.220  1.00  0.00    -0.171 F 
ATOM     36  F   UNL     1       7.767   2.793   1.917  1.00  0.00    -0.171 F 
ENDBRANCH  32  33
ENDBRANCH  31  32
ENDBRANCH  28  31
ENDBRANCH   1  28
TORSDOF 8
