REMARK SMILES Cc1cc(NCCCCCCCCCCNc2cc(C)nc3ccccc23)c2ccccc2n1
REMARK SMILES IDX 10 1 9 2 8 3 7 4 6 5 5 6 4 8 2 9 3 10 34 11 33 12 28 13
REMARK SMILES IDX 32 14 29 15 31 16 30 17 1 18 11 19 12 20 13 21 14 22 15 23
REMARK SMILES IDX 16 24 17 26 18 27 27 28 19 29 26 30 22 31 21 32 25 33 23 34
REMARK SMILES IDX 24 35 20 36
REMARK H PARENT 5 7 16 25
ROOT
ATOM      1  C   UNL     1      -0.235  -0.315   1.353  1.00  0.00     0.000 C 
ENDROOT
BRANCH   1   2
ATOM      2  C   UNL     1       0.662   0.263   0.256  1.00  0.00     0.000 C 
BRANCH   2   3
ATOM      3  C   UNL     1       1.695   1.265   0.780  1.00  0.00     0.002 C 
BRANCH   3   4
ATOM      4  C   UNL     1       2.642   0.744   1.869  1.00  0.00     0.021 C 
BRANCH   4   5
ATOM      5  C   UNL     1       3.434  -0.515   1.504  1.00  0.00     0.113 C 
BRANCH   5   6
ATOM      6  N   UNL     1       4.295  -0.323   0.341  1.00  0.00    -0.384 N 
ATOM      7  H   UNL     1       3.764  -0.138  -0.504  1.00  0.00     0.160 HD
BRANCH   6   8
ATOM      8  C   UNL     1       5.494   0.408   0.383  1.00  0.00     0.045 A 
ATOM      9  C   UNL     1       7.298   1.467   1.586  1.00  0.00     0.040 A 
ATOM     10  C   UNL     1       6.095   0.773   1.590  1.00  0.00     0.049 A 
ATOM     11  N   UNL     1       7.943   1.801   0.451  1.00  0.00    -0.253 NA
ATOM     12  C   UNL     1       7.417   1.411  -0.719  1.00  0.00     0.073 A 
ATOM     13  C   UNL     1       6.202   0.694  -0.821  1.00  0.00     0.023 A 
ATOM     14  C   UNL     1       8.119   1.728  -1.874  1.00  0.00     0.029 A 
ATOM     15  C   UNL     1       5.771   0.299  -2.114  1.00  0.00     0.012 A 
ATOM     16  C   UNL     1       7.673   1.347  -3.140  1.00  0.00     0.002 A 
ATOM     17  C   UNL     1       6.497   0.624  -3.260  1.00  0.00     0.001 A 
ATOM     18  C   UNL     1       7.924   1.894   2.880  1.00  0.00     0.067 C 
ENDBRANCH   6   8
ENDBRANCH   5   6
ENDBRANCH   4   5
ENDBRANCH   3   4
ENDBRANCH   2   3
ENDBRANCH   1   2
BRANCH   1  19
ATOM     19  C   UNL     1      -1.401  -1.150   0.810  1.00  0.00     0.000 C 
BRANCH  19  20
ATOM     20  C   UNL     1      -0.947  -2.385   0.024  1.00  0.00     0.000 C 
BRANCH  20  21
ATOM     21  C   UNL     1      -2.088  -3.354  -0.308  1.00  0.00     0.002 C 
BRANCH  21  22
ATOM     22  C   UNL     1      -2.755  -3.138  -1.673  1.00  0.00     0.021 C 
BRANCH  22  23
ATOM     23  C   UNL     1      -3.481  -1.807  -1.865  1.00  0.00     0.113 C 
BRANCH  23  24
ATOM     24  N   UNL     1      -4.500  -1.637  -0.838  1.00  0.00    -0.384 N 
ATOM     25  H   UNL     1      -5.069  -2.472  -0.712  1.00  0.00     0.160 HD
BRANCH  24  26
ATOM     26  C   UNL     1      -5.299  -0.479  -0.785  1.00  0.00     0.045 A 
ATOM     27  C   UNL     1      -5.041   0.639  -1.582  1.00  0.00     0.049 A 
ATOM     28  C   UNL     1      -6.342  -0.380   0.180  1.00  0.00     0.023 A 
ATOM     29  C   UNL     1      -5.843   1.767  -1.471  1.00  0.00     0.040 A 
ATOM     30  C   UNL     1      -6.653  -1.399   1.117  1.00  0.00     0.012 A 
ATOM     31  C   UNL     1      -7.105   0.810   0.211  1.00  0.00     0.073 A 
ATOM     32  N   UNL     1      -6.871   1.849  -0.602  1.00  0.00    -0.253 NA
ATOM     33  C   UNL     1      -7.697  -1.256   2.031  1.00  0.00     0.001 A 
ATOM     34  C   UNL     1      -8.142   0.926   1.127  1.00  0.00     0.029 A 
ATOM     35  C   UNL     1      -8.448  -0.091   2.032  1.00  0.00     0.002 A 
ATOM     36  C   UNL     1      -5.589   2.958  -2.346  1.00  0.00     0.067 C 
ENDBRANCH  24  26
ENDBRANCH  23  24
ENDBRANCH  22  23
ENDBRANCH  21  22
ENDBRANCH  20  21
ENDBRANCH  19  20
ENDBRANCH   1  19
TORSDOF 13
