REMARK SMILES O=c1c(CO)coc2cc(OCCCN3CCC(c4noc5cc(F)ccc45)CC3)ccc12
REMARK SMILES IDX 12 1 11 2 10 3 1 4 2 5 3 6 33 7 6 8 32 9 8 10 7 11 31 12
REMARK SMILES IDX 9 13 4 14 5 15 13 17 14 18 15 19 16 20 30 21 17 22 29 23
REMARK SMILES IDX 18 24 19 25 20 26 28 27 21 28 27 29 22 30 26 31 23 32 24 33
REMARK SMILES IDX 25 34
REMARK H PARENT 5 16
ROOT
ATOM      1  C   UNL     1       1.624  -1.697  -0.889  1.00  0.00     0.231 C 
ENDROOT
BRANCH   1   2
ATOM      2  O   UNL     1       2.149  -0.375  -1.018  1.00  0.00    -0.493 OA
BRANCH   2   3
ATOM      3  C   UNL     1       3.476  -0.197  -0.741  1.00  0.00     0.123 A 
ATOM      4  O   UNL     1       7.980   1.926   0.014  1.00  0.00    -0.289 OA
ATOM      5  C   UNL     1       7.553   0.781   0.098  1.00  0.00     0.198 C 
ATOM      6  C   UNL     1       8.409  -0.348   0.524  1.00  0.00     0.061 C 
ATOM      7  C   UNL     1       6.145   0.460  -0.208  1.00  0.00     0.065 A 
ATOM      8  C   UNL     1       7.843  -1.564   0.611  1.00  0.00     0.205 C 
ATOM      9  C   UNL     1       5.254   1.458  -0.609  1.00  0.00     0.020 A 
ATOM     10  C   UNL     1       5.708  -0.859  -0.077  1.00  0.00     0.141 A 
ATOM     11  O   UNL     1       6.536  -1.881   0.326  1.00  0.00    -0.464 OA
ATOM     12  C   UNL     1       3.923   1.124  -0.873  1.00  0.00     0.047 A 
ATOM     13  C   UNL     1       4.376  -1.192  -0.348  1.00  0.00     0.094 A 
BRANCH   6  14
ATOM     14  C   UNL     1       9.830  -0.065   0.867  1.00  0.00     0.199 C 
BRANCH  14  15
ATOM     15  O   UNL     1      10.638  -0.371  -0.259  1.00  0.00    -0.391 OA
ATOM     16  H   UNL     1      11.117   0.448  -0.500  1.00  0.00     0.211 HD
ENDBRANCH  14  15
ENDBRANCH   6  14
ENDBRANCH   2   3
ENDBRANCH   1   2
BRANCH   1  17
ATOM     17  C   UNL     1       0.120  -1.653  -1.158  1.00  0.00     0.057 C 
BRANCH  17  18
ATOM     18  C   UNL     1      -0.617  -0.836  -0.086  1.00  0.00     0.088 C 
BRANCH  18  19
ATOM     19  N   UNL     1      -2.082  -0.872  -0.261  1.00  0.00    -0.303 NA
ATOM     20  C   UNL     1      -2.789  -0.390   0.935  1.00  0.00     0.085 C 
ATOM     21  C   UNL     1      -2.496  -0.206  -1.507  1.00  0.00     0.085 C 
ATOM     22  C   UNL     1      -3.201   1.080   0.872  1.00  0.00     0.026 C 
ATOM     23  C   UNL     1      -3.932   0.313  -1.451  1.00  0.00     0.026 C 
ATOM     24  C   UNL     1      -4.051   1.399  -0.372  1.00  0.00     0.045 C 
BRANCH  24  25
ATOM     25  C   UNL     1      -5.478   1.733  -0.038  1.00  0.00     0.095 A 
ATOM     26  N   UNL     1      -5.890   3.003  -0.171  1.00  0.00    -0.083 NA
ATOM     27  C   UNL     1      -6.531   0.900   0.438  1.00  0.00     0.045 A 
ATOM     28  O   UNL     1      -7.217   3.019   0.214  1.00  0.00    -0.356 OA
ATOM     29  C   UNL     1      -6.724  -0.457   0.766  1.00  0.00     0.017 A 
ATOM     30  C   UNL     1      -7.602   1.769   0.579  1.00  0.00     0.170 A 
ATOM     31  C   UNL     1      -7.987  -0.863   1.223  1.00  0.00     0.040 A 
ATOM     32  C   UNL     1      -8.868   1.403   1.026  1.00  0.00     0.090 A 
ATOM     33  C   UNL     1      -9.027   0.056   1.347  1.00  0.00     0.127 A 
ATOM     34  F   UNL     1     -10.215  -0.373   1.792  1.00  0.00    -0.207 F 
ENDBRANCH  24  25
ENDBRANCH  18  19
ENDBRANCH  17  18
ENDBRANCH   1  17
TORSDOF 8
