MODEL 1
REMARK VINA RESULT:   -11.244      0.000      0.000
REMARK INTER + INTRA:         -15.762
REMARK INTER:                 -15.187
REMARK INTRA:                  -0.575
REMARK UNBOUND:                -0.575
REMARK SMILES Fc1ccc(C[n+]2ccc(CCNc3nc4ccc(F)cc4s3)cc2)cc1
REMARK SMILES IDX 11 1 10 2 7 3 8 4 25 5 9 6 24 7 6 8 5 9 2 10 3 11 27 12 4 13
REMARK SMILES IDX 26 14 1 15 12 16 13 17 14 19 15 20 23 21 16 22 22 23 17 24
REMARK SMILES IDX 21 25 18 26 19 27 20 28
REMARK H PARENT 13 18
ROOT
ATOM      1  C   UNL     1     -13.793 -45.105  26.570  1.00  0.00     0.057 C 
ENDROOT
BRANCH   1   2
ATOM      2  C   UNL     1     -13.012 -45.421  27.826  1.00  0.00    -0.034 A 
ATOM      3  N   UNL     1     -11.652 -46.112  30.142  1.00  0.00    -0.201 N 
ATOM      4  C   UNL     1     -11.142 -46.454  28.937  1.00  0.00     0.308 A 
ATOM      5  C   UNL     1     -12.820 -45.435  30.227  1.00  0.00     0.308 A 
ATOM      6  C   UNL     1     -11.803 -46.111  27.763  1.00  0.00     0.074 A 
ATOM      7  C   UNL     1     -13.519 -45.079  29.080  1.00  0.00     0.074 A 
BRANCH   3   8
ATOM      8  C   UNL     1     -10.914 -46.465  31.378  1.00  0.00     0.393 C 
BRANCH   8   9
ATOM      9  C   UNL     1      -9.789 -45.498  31.645  1.00  0.00     0.017 A 
ATOM     10  C   UNL     1      -7.710 -43.704  32.172  1.00  0.00     0.123 A 
ATOM     11  C   UNL     1      -7.417 -44.962  31.660  1.00  0.00     0.040 A 
ATOM     12  C   UNL     1      -9.021 -43.327  32.429  1.00  0.00     0.040 A 
ATOM     13  C   UNL     1      -8.454 -45.859  31.393  1.00  0.00     0.013 A 
ATOM     14  C   UNL     1     -10.061 -44.220  32.169  1.00  0.00     0.013 A 
ATOM     15  F   UNL     1      -6.716 -42.843  32.417  1.00  0.00    -0.207 F 
ENDBRANCH   8   9
ENDBRANCH   3   8
ENDBRANCH   1   2
BRANCH   1  16
ATOM     16  C   UNL     1     -13.942 -43.602  26.286  1.00  0.00     0.120 C 
BRANCH  16  17
ATOM     17  N   UNL     1     -14.811 -43.355  25.150  1.00  0.00    -0.361 N 
ATOM     18  H   UNL     1     -14.507 -43.690  24.243  1.00  0.00     0.162 HD
BRANCH  17  19
ATOM     19  C   UNL     1     -16.067 -42.887  25.308  1.00  0.00     0.183 A 
ATOM     20  N   UNL     1     -16.666 -42.699  26.460  1.00  0.00    -0.220 NA
ATOM     21  S   UNL     1     -16.998 -42.462  23.926  1.00  0.00    -0.097 S 
ATOM     22  C   UNL     1     -17.973 -42.287  26.264  1.00  0.00     0.084 A 
ATOM     23  C   UNL     1     -18.339 -42.085  24.931  1.00  0.00     0.059 A 
ATOM     24  C   UNL     1     -18.930 -42.062  27.276  1.00  0.00     0.033 A 
ATOM     25  C   UNL     1     -19.624 -41.651  24.571  1.00  0.00     0.060 A 
ATOM     26  C   UNL     1     -20.218 -41.640  26.928  1.00  0.00     0.041 A 
ATOM     27  C   UNL     1     -20.545 -41.438  25.595  1.00  0.00     0.124 A 
ATOM     28  F   UNL     1     -21.778 -41.019  25.282  1.00  0.00    -0.207 F 
ENDBRANCH  17  19
ENDBRANCH  16  17
ENDBRANCH   1  16
TORSDOF 6
ENDMDL
MODEL 2
REMARK VINA RESULT:   -11.207      1.543      2.491
REMARK INTER + INTRA:         -15.713
REMARK INTER:                 -15.174
REMARK INTRA:                  -0.539
REMARK UNBOUND:                -0.575
REMARK SMILES Fc1ccc(C[n+]2ccc(CCNc3nc4ccc(F)cc4s3)cc2)cc1
REMARK SMILES IDX 11 1 10 2 7 3 8 4 25 5 9 6 24 7 6 8 5 9 2 10 3 11 27 12 4 13
REMARK SMILES IDX 26 14 1 15 12 16 13 17 14 19 15 20 23 21 16 22 22 23 17 24
REMARK SMILES IDX 21 25 18 26 19 27 20 28
REMARK H PARENT 13 18
ROOT
ATOM      1  C   UNL     1     -13.778 -44.988  26.588  1.00  0.00     0.057 C 
ENDROOT
BRANCH   1   2
ATOM      2  C   UNL     1     -13.054 -45.421  27.843  1.00  0.00    -0.034 A 
ATOM      3  N   UNL     1     -11.653 -46.106  30.136  1.00  0.00    -0.201 N 
ATOM      4  C   UNL     1     -12.824 -45.435  30.240  1.00  0.00     0.308 A 
ATOM      5  C   UNL     1     -11.161 -46.445  28.923  1.00  0.00     0.308 A 
ATOM      6  C   UNL     1     -13.547 -45.088  29.104  1.00  0.00     0.074 A 
ATOM      7  C   UNL     1     -11.845 -46.112  27.761  1.00  0.00     0.074 A 
BRANCH   3   8
ATOM      8  C   UNL     1     -10.916 -46.487  31.364  1.00  0.00     0.393 C 
BRANCH   8   9
ATOM      9  C   UNL     1      -9.793 -45.524  31.655  1.00  0.00     0.017 A 
ATOM     10  C   UNL     1      -7.702 -43.738  32.163  1.00  0.00     0.123 A 
ATOM     11  C   UNL     1      -9.012 -43.353  32.423  1.00  0.00     0.040 A 
ATOM     12  C   UNL     1      -7.418 -44.996  31.650  1.00  0.00     0.040 A 
ATOM     13  C   UNL     1     -10.058 -44.244  32.173  1.00  0.00     0.013 A 
ATOM     14  C   UNL     1      -8.459 -45.889  31.393  1.00  0.00     0.013 A 
ATOM     15  F   UNL     1      -6.702 -42.885  32.413  1.00  0.00    -0.207 F 
ENDBRANCH   8   9
ENDBRANCH   3   8
ENDBRANCH   1   2
BRANCH   1  16
ATOM     16  C   UNL     1     -14.004 -43.471  26.485  1.00  0.00     0.120 C 
BRANCH  16  17
ATOM     17  N   UNL     1     -13.987 -43.020  25.106  1.00  0.00    -0.361 N 
ATOM     18  H   UNL     1     -13.141 -43.176  24.569  1.00  0.00     0.162 HD
BRANCH  17  19
ATOM     19  C   UNL     1     -15.108 -42.595  24.486  1.00  0.00     0.183 A 
ATOM     20  N   UNL     1     -15.144 -41.948  23.344  1.00  0.00    -0.220 NA
ATOM     21  S   UNL     1     -16.644 -42.916  25.188  1.00  0.00    -0.097 S 
ATOM     22  C   UNL     1     -16.444 -41.591  23.032  1.00  0.00     0.084 A 
ATOM     23  C   UNL     1     -17.417 -42.049  23.923  1.00  0.00     0.059 A 
ATOM     24  C   UNL     1     -16.845 -40.825  21.917  1.00  0.00     0.033 A 
ATOM     25  C   UNL     1     -18.782 -41.782  23.734  1.00  0.00     0.060 A 
ATOM     26  C   UNL     1     -18.202 -40.543  21.725  1.00  0.00     0.041 A 
ATOM     27  C   UNL     1     -19.144 -41.024  22.623  1.00  0.00     0.124 A 
ATOM     28  F   UNL     1     -20.440 -40.757  22.414  1.00  0.00    -0.207 F 
ENDBRANCH  17  19
ENDBRANCH  16  17
ENDBRANCH   1  16
TORSDOF 6
ENDMDL
MODEL 3
REMARK VINA RESULT:   -11.110      1.009      1.371
REMARK INTER + INTRA:         -15.582
REMARK INTER:                 -15.184
REMARK INTRA:                  -0.398
REMARK UNBOUND:                -0.575
REMARK SMILES Fc1ccc(C[n+]2ccc(CCNc3nc4ccc(F)cc4s3)cc2)cc1
REMARK SMILES IDX 11 1 10 2 7 3 8 4 25 5 9 6 24 7 6 8 5 9 2 10 3 11 27 12 4 13
REMARK SMILES IDX 26 14 1 15 12 16 13 17 14 19 15 20 23 21 16 22 22 23 17 24
REMARK SMILES IDX 21 25 18 26 19 27 20 28
REMARK H PARENT 13 18
ROOT
ATOM      1  C   UNL     1     -13.792 -45.088  26.619  1.00  0.00     0.057 C 
ENDROOT
BRANCH   1   2
ATOM      2  C   UNL     1     -12.977 -45.431  27.846  1.00  0.00    -0.034 A 
ATOM      3  N   UNL     1     -11.545 -46.175  30.102  1.00  0.00    -0.201 N 
ATOM      4  C   UNL     1     -11.029 -46.407  28.872  1.00  0.00     0.308 A 
ATOM      5  C   UNL     1     -12.753 -45.584  30.239  1.00  0.00     0.308 A 
ATOM      6  C   UNL     1     -11.726 -46.035  27.728  1.00  0.00     0.074 A 
ATOM      7  C   UNL     1     -13.489 -45.203  29.124  1.00  0.00     0.074 A 
BRANCH   3   8
ATOM      8  C   UNL     1     -10.770 -46.556  31.306  1.00  0.00     0.393 C 
BRANCH   8   9
ATOM      9  C   UNL     1      -9.668 -45.567  31.589  1.00  0.00     0.017 A 
ATOM     10  C   UNL     1      -7.633 -43.733  32.147  1.00  0.00     0.123 A 
ATOM     11  C   UNL     1      -7.309 -44.978  31.621  1.00  0.00     0.040 A 
ATOM     12  C   UNL     1      -8.953 -43.389  32.402  1.00  0.00     0.040 A 
ATOM     13  C   UNL     1      -8.324 -45.895  31.338  1.00  0.00     0.013 A 
ATOM     14  C   UNL     1      -9.971 -44.303  32.128  1.00  0.00     0.013 A 
ATOM     15  F   UNL     1      -6.659 -42.853  32.406  1.00  0.00    -0.207 F 
ENDBRANCH   8   9
ENDBRANCH   3   8
ENDBRANCH   1   2
BRANCH   1  16
ATOM     16  C   UNL     1     -14.040 -43.584  26.431  1.00  0.00     0.120 C 
BRANCH  16  17
ATOM     17  N   UNL     1     -15.034 -43.084  27.364  1.00  0.00    -0.361 N 
ATOM     18  H   UNL     1     -14.722 -42.838  28.297  1.00  0.00     0.162 HD
BRANCH  17  19
ATOM     19  C   UNL     1     -16.280 -42.759  26.963  1.00  0.00     0.183 A 
ATOM     20  N   UNL     1     -16.689 -42.718  25.716  1.00  0.00    -0.220 NA
ATOM     21  S   UNL     1     -17.482 -42.382  28.134  1.00  0.00    -0.097 S 
ATOM     22  C   UNL     1     -17.997 -42.271  25.650  1.00  0.00     0.084 A 
ATOM     23  C   UNL     1     -18.612 -42.047  26.884  1.00  0.00     0.059 A 
ATOM     24  C   UNL     1     -18.732 -42.035  24.469  1.00  0.00     0.033 A 
ATOM     25  C   UNL     1     -19.941 -41.609  26.984  1.00  0.00     0.060 A 
ATOM     26  C   UNL     1     -20.054 -41.587  24.556  1.00  0.00     0.041 A 
ATOM     27  C   UNL     1     -20.638 -41.385  25.798  1.00  0.00     0.124 A 
ATOM     28  F   UNL     1     -21.910 -40.971  25.862  1.00  0.00    -0.207 F 
ENDBRANCH  17  19
ENDBRANCH  16  17
ENDBRANCH   1  16
TORSDOF 6
ENDMDL
MODEL 4
REMARK VINA RESULT:   -11.058      0.961      1.860
REMARK INTER + INTRA:         -15.512
REMARK INTER:                 -14.929
REMARK INTRA:                  -0.583
REMARK UNBOUND:                -0.575
REMARK SMILES Fc1ccc(C[n+]2ccc(CCNc3nc4ccc(F)cc4s3)cc2)cc1
REMARK SMILES IDX 11 1 10 2 7 3 8 4 25 5 9 6 24 7 6 8 5 9 2 10 3 11 27 12 4 13
REMARK SMILES IDX 26 14 1 15 12 16 13 17 14 19 15 20 23 21 16 22 22 23 17 24
REMARK SMILES IDX 21 25 18 26 19 27 20 28
REMARK H PARENT 13 18
ROOT
ATOM      1  C   UNL     1     -13.971 -44.868  26.276  1.00  0.00     0.057 C 
ENDROOT
BRANCH   1   2
ATOM      2  C   UNL     1     -13.410 -45.248  27.628  1.00  0.00    -0.034 A 
ATOM      3  N   UNL     1     -12.300 -45.842  30.099  1.00  0.00    -0.201 N 
ATOM      4  C   UNL     1     -13.414 -45.077  30.030  1.00  0.00     0.308 A 
ATOM      5  C   UNL     1     -11.723 -46.319  28.973  1.00  0.00     0.308 A 
ATOM      6  C   UNL     1     -13.992 -44.774  28.803  1.00  0.00     0.074 A 
ATOM      7  C   UNL     1     -12.261 -46.034  27.724  1.00  0.00     0.074 A 
BRANCH   3   8
ATOM      8  C   UNL     1     -11.719 -46.173  31.422  1.00  0.00     0.393 C 
BRANCH   8   9
ATOM      9  C   UNL     1     -10.448 -45.402  31.676  1.00  0.00     0.017 A 
ATOM     10  C   UNL     1      -8.085 -43.974  32.114  1.00  0.00     0.123 A 
ATOM     11  C   UNL     1      -9.309 -43.372  32.379  1.00  0.00     0.040 A 
ATOM     12  C   UNL     1      -8.020 -45.274  31.631  1.00  0.00     0.040 A 
ATOM     13  C   UNL     1     -10.491 -44.085  32.164  1.00  0.00     0.013 A 
ATOM     14  C   UNL     1      -9.197 -45.989  31.408  1.00  0.00     0.013 A 
ATOM     15  F   UNL     1      -6.954 -43.293  32.331  1.00  0.00    -0.207 F 
ENDBRANCH   8   9
ENDBRANCH   3   8
ENDBRANCH   1   2
BRANCH   1  16
ATOM     16  C   UNL     1     -14.105 -43.354  26.055  1.00  0.00     0.120 C 
BRANCH  16  17
ATOM     17  N   UNL     1     -15.064 -43.048  25.009  1.00  0.00    -0.361 N 
ATOM     18  H   UNL     1     -14.798 -43.252  24.052  1.00  0.00     0.162 HD
BRANCH  17  19
ATOM     19  C   UNL     1     -16.336 -42.701  25.294  1.00  0.00     0.183 A 
ATOM     20  N   UNL     1     -17.264 -42.428  24.407  1.00  0.00    -0.220 NA
ATOM     21  S   UNL     1     -16.849 -42.614  26.933  1.00  0.00    -0.097 S 
ATOM     22  C   UNL     1     -18.432 -42.031  25.035  1.00  0.00     0.084 A 
ATOM     23  C   UNL     1     -18.404 -42.082  26.430  1.00  0.00     0.059 A 
ATOM     24  C   UNL     1     -19.609 -41.594  24.392  1.00  0.00     0.033 A 
ATOM     25  C   UNL     1     -19.515 -41.726  27.210  1.00  0.00     0.060 A 
ATOM     26  C   UNL     1     -20.720 -41.226  25.159  1.00  0.00     0.041 A 
ATOM     27  C   UNL     1     -20.662 -41.300  26.543  1.00  0.00     0.124 A 
ATOM     28  F   UNL     1     -21.740 -40.958  27.260  1.00  0.00    -0.207 F 
ENDBRANCH  17  19
ENDBRANCH  16  17
ENDBRANCH   1  16
TORSDOF 6
ENDMDL
MODEL 5
REMARK VINA RESULT:   -10.770      2.257     10.403
REMARK INTER + INTRA:         -15.122
REMARK INTER:                 -14.603
REMARK INTRA:                  -0.519
REMARK UNBOUND:                -0.575
REMARK SMILES Fc1ccc(C[n+]2ccc(CCNc3nc4ccc(F)cc4s3)cc2)cc1
REMARK SMILES IDX 11 1 10 2 7 3 8 4 25 5 9 6 24 7 6 8 5 9 2 10 3 11 27 12 4 13
REMARK SMILES IDX 26 14 1 15 12 16 13 17 14 19 15 20 23 21 16 22 22 23 17 24
REMARK SMILES IDX 21 25 18 26 19 27 20 28
REMARK H PARENT 13 18
ROOT
ATOM      1  C   UNL     1     -12.375 -45.884  28.475  1.00  0.00     0.057 C 
ENDROOT
BRANCH   1   2
ATOM      2  C   UNL     1     -12.958 -44.985  27.407  1.00  0.00    -0.034 A 
ATOM      3  N   UNL     1     -14.139 -43.334  25.517  1.00  0.00    -0.201 N 
ATOM      4  C   UNL     1     -13.398 -42.794  26.512  1.00  0.00     0.308 A 
ATOM      5  C   UNL     1     -14.309 -44.674  25.437  1.00  0.00     0.308 A 
ATOM      6  C   UNL     1     -12.790 -43.602  27.465  1.00  0.00     0.074 A 
ATOM      7  C   UNL     1     -13.727 -45.520  26.373  1.00  0.00     0.074 A 
BRANCH   3   8
ATOM      8  C   UNL     1     -14.754 -42.452  24.498  1.00  0.00     0.393 C 
BRANCH   8   9
ATOM      9  C   UNL     1     -16.259 -42.485  24.574  1.00  0.00     0.017 A 
ATOM     10  C   UNL     1     -19.051 -42.517  24.732  1.00  0.00     0.123 A 
ATOM     11  C   UNL     1     -18.434 -42.477  23.487  1.00  0.00     0.040 A 
ATOM     12  C   UNL     1     -18.299 -42.537  25.899  1.00  0.00     0.040 A 
ATOM     13  C   UNL     1     -17.040 -42.464  23.405  1.00  0.00     0.013 A 
ATOM     14  C   UNL     1     -16.905 -42.518  25.824  1.00  0.00     0.013 A 
ATOM     15  F   UNL     1     -20.386 -42.540  24.806  1.00  0.00    -0.207 F 
ENDBRANCH   8   9
ENDBRANCH   3   8
ENDBRANCH   1   2
BRANCH   1  16
ATOM     16  C   UNL     1     -13.240 -45.996  29.741  1.00  0.00     0.120 C 
BRANCH  16  17
ATOM     17  N   UNL     1     -12.459 -46.428  30.886  1.00  0.00    -0.361 N 
ATOM     18  H   UNL     1     -12.735 -47.287  31.347  1.00  0.00     0.162 HD
BRANCH  17  19
ATOM     19  C   UNL     1     -11.290 -45.836  31.209  1.00  0.00     0.183 A 
ATOM     20  N   UNL     1     -10.102 -46.376  31.066  1.00  0.00    -0.220 NA
ATOM     21  S   UNL     1     -11.290 -44.237  31.843  1.00  0.00    -0.097 S 
ATOM     22  C   UNL     1      -9.125 -45.535  31.568  1.00  0.00     0.084 A 
ATOM     23  C   UNL     1      -9.583 -44.298  32.029  1.00  0.00     0.059 A 
ATOM     24  C   UNL     1      -7.746 -45.823  31.645  1.00  0.00     0.033 A 
ATOM     25  C   UNL     1      -8.712 -43.330  32.552  1.00  0.00     0.060 A 
ATOM     26  C   UNL     1      -6.869 -44.870  32.176  1.00  0.00     0.041 A 
ATOM     27  C   UNL     1      -7.356 -43.647  32.613  1.00  0.00     0.124 A 
ATOM     28  F   UNL     1      -6.500 -42.741  33.104  1.00  0.00    -0.207 F 
ENDBRANCH  17  19
ENDBRANCH  16  17
ENDBRANCH   1  16
TORSDOF 6
ENDMDL
MODEL 6
REMARK VINA RESULT:   -10.730      1.663      2.298
REMARK INTER + INTRA:         -15.069
REMARK INTER:                 -14.622
REMARK INTRA:                  -0.447
REMARK UNBOUND:                -0.575
REMARK SMILES Fc1ccc(C[n+]2ccc(CCNc3nc4ccc(F)cc4s3)cc2)cc1
REMARK SMILES IDX 11 1 10 2 7 3 8 4 25 5 9 6 24 7 6 8 5 9 2 10 3 11 27 12 4 13
REMARK SMILES IDX 26 14 1 15 12 16 13 17 14 19 15 20 23 21 16 22 22 23 17 24
REMARK SMILES IDX 21 25 18 26 19 27 20 28
REMARK H PARENT 13 18
ROOT
ATOM      1  C   UNL     1     -14.147 -44.662  25.777  1.00  0.00     0.057 C 
ENDROOT
BRANCH   1   2
ATOM      2  C   UNL     1     -13.668 -45.031  27.164  1.00  0.00    -0.034 A 
ATOM      3  N   UNL     1     -12.889 -45.791  29.714  1.00  0.00    -0.201 N 
ATOM      4  C   UNL     1     -12.329 -46.387  28.636  1.00  0.00     0.308 A 
ATOM      5  C   UNL     1     -13.825 -44.828  29.559  1.00  0.00     0.308 A 
ATOM      6  C   UNL     1     -12.698 -46.016  27.348  1.00  0.00     0.074 A 
ATOM      7  C   UNL     1     -14.231 -44.431  28.291  1.00  0.00     0.074 A 
BRANCH   3   8
ATOM      8  C   UNL     1     -12.457 -46.186  31.076  1.00  0.00     0.393 C 
BRANCH   8   9
ATOM      9  C   UNL     1     -11.041 -45.748  31.355  1.00  0.00     0.017 A 
ATOM     10  C   UNL     1      -8.424 -44.931  31.906  1.00  0.00     0.123 A 
ATOM     11  C   UNL     1      -8.652 -46.197  31.377  1.00  0.00     0.040 A 
ATOM     12  C   UNL     1      -9.480 -44.069  32.168  1.00  0.00     0.040 A 
ATOM     13  C   UNL     1      -9.958 -46.606  31.098  1.00  0.00     0.013 A 
ATOM     14  C   UNL     1     -10.788 -44.474  31.897  1.00  0.00     0.013 A 
ATOM     15  F   UNL     1      -7.172 -44.539  32.162  1.00  0.00    -0.207 F 
ENDBRANCH   8   9
ENDBRANCH   3   8
ENDBRANCH   1   2
BRANCH   1  16
ATOM     16  C   UNL     1     -15.245 -43.587  25.759  1.00  0.00     0.120 C 
BRANCH  16  17
ATOM     17  N   UNL     1     -15.337 -42.938  24.463  1.00  0.00    -0.361 N 
ATOM     18  H   UNL     1     -14.549 -43.034  23.832  1.00  0.00     0.162 HD
BRANCH  17  19
ATOM     19  C   UNL     1     -16.493 -42.401  24.021  1.00  0.00     0.183 A 
ATOM     20  N   UNL     1     -16.645 -41.763  22.884  1.00  0.00    -0.220 NA
ATOM     21  S   UNL     1     -17.920 -42.550  24.967  1.00  0.00    -0.097 S 
ATOM     22  C   UNL     1     -17.934 -41.271  22.775  1.00  0.00     0.084 A 
ATOM     23  C   UNL     1     -18.793 -41.614  23.821  1.00  0.00     0.059 A 
ATOM     24  C   UNL     1     -18.428 -40.475  21.720  1.00  0.00     0.033 A 
ATOM     25  C   UNL     1     -20.135 -41.205  23.846  1.00  0.00     0.060 A 
ATOM     26  C   UNL     1     -19.761 -40.051  21.740  1.00  0.00     0.041 A 
ATOM     27  C   UNL     1     -20.590 -40.420  22.789  1.00  0.00     0.124 A 
ATOM     28  F   UNL     1     -21.868 -40.018  22.784  1.00  0.00    -0.207 F 
ENDBRANCH  17  19
ENDBRANCH  16  17
ENDBRANCH   1  16
TORSDOF 6
ENDMDL
MODEL 7
REMARK VINA RESULT:   -10.109      2.447     10.713
REMARK INTER + INTRA:         -14.230
REMARK INTER:                 -13.797
REMARK INTRA:                  -0.433
REMARK UNBOUND:                -0.575
REMARK SMILES Fc1ccc(C[n+]2ccc(CCNc3nc4ccc(F)cc4s3)cc2)cc1
REMARK SMILES IDX 11 1 10 2 7 3 8 4 25 5 9 6 24 7 6 8 5 9 2 10 3 11 27 12 4 13
REMARK SMILES IDX 26 14 1 15 12 16 13 17 14 19 15 20 23 21 16 22 22 23 17 24
REMARK SMILES IDX 21 25 18 26 19 27 20 28
REMARK H PARENT 13 18
ROOT
ATOM      1  C   UNL     1     -13.337 -44.218  26.947  1.00  0.00     0.057 C 
ENDROOT
BRANCH   1   2
ATOM      2  C   UNL     1     -14.584 -43.730  26.243  1.00  0.00    -0.034 A 
ATOM      3  N   UNL     1     -16.818 -42.716  24.951  1.00  0.00    -0.201 N 
ATOM      4  C   UNL     1     -15.822 -43.278  24.228  1.00  0.00     0.308 A 
ATOM      5  C   UNL     1     -16.734 -42.645  26.299  1.00  0.00     0.308 A 
ATOM      6  C   UNL     1     -14.697 -43.800  24.855  1.00  0.00     0.074 A 
ATOM      7  C   UNL     1     -15.624 -43.146  26.968  1.00  0.00     0.074 A 
BRANCH   3   8
ATOM      8  C   UNL     1     -18.020 -42.192  24.259  1.00  0.00     0.393 C 
BRANCH   8   9
ATOM      9  C   UNL     1     -19.266 -42.400  25.083  1.00  0.00     0.017 A 
ATOM     10  C   UNL     1     -21.592 -42.763  26.591  1.00  0.00     0.123 A 
ATOM     11  C   UNL     1     -21.077 -43.825  25.858  1.00  0.00     0.040 A 
ATOM     12  C   UNL     1     -20.969 -41.522  26.582  1.00  0.00     0.040 A 
ATOM     13  C   UNL     1     -19.913 -43.647  25.106  1.00  0.00     0.013 A 
ATOM     14  C   UNL     1     -19.809 -41.336  25.828  1.00  0.00     0.013 A 
ATOM     15  F   UNL     1     -22.701 -42.939  27.319  1.00  0.00    -0.207 F 
ENDBRANCH   8   9
ENDBRANCH   3   8
ENDBRANCH   1   2
BRANCH   1  16
ATOM     16  C   UNL     1     -13.614 -45.036  28.218  1.00  0.00     0.120 C 
BRANCH  16  17
ATOM     17  N   UNL     1     -13.206 -44.321  29.414  1.00  0.00    -0.361 N 
ATOM     18  H   UNL     1     -13.929 -43.864  29.958  1.00  0.00     0.162 HD
BRANCH  17  19
ATOM     19  C   UNL     1     -11.954 -44.423  29.907  1.00  0.00     0.183 A 
ATOM     20  N   UNL     1     -10.983 -43.568  29.690  1.00  0.00    -0.220 NA
ATOM     21  S   UNL     1     -11.546 -45.744  30.929  1.00  0.00    -0.097 S 
ATOM     22  C   UNL     1      -9.809 -44.011  30.275  1.00  0.00     0.084 A 
ATOM     23  C   UNL     1      -9.922 -45.189  31.017  1.00  0.00     0.059 A 
ATOM     24  C   UNL     1      -8.550 -43.381  30.183  1.00  0.00     0.033 A 
ATOM     25  C   UNL     1      -8.825 -45.756  31.685  1.00  0.00     0.060 A 
ATOM     26  C   UNL     1      -7.447 -43.943  30.834  1.00  0.00     0.041 A 
ATOM     27  C   UNL     1      -7.597 -45.108  31.572  1.00  0.00     0.124 A 
ATOM     28  F   UNL     1      -6.533 -45.623  32.202  1.00  0.00    -0.207 F 
ENDBRANCH  17  19
ENDBRANCH  16  17
ENDBRANCH   1  16
TORSDOF 6
ENDMDL
MODEL 8
REMARK VINA RESULT:   -10.056      2.856     11.302
REMARK INTER + INTRA:         -14.158
REMARK INTER:                 -13.587
REMARK INTRA:                  -0.571
REMARK UNBOUND:                -0.575
REMARK SMILES Fc1ccc(C[n+]2ccc(CCNc3nc4ccc(F)cc4s3)cc2)cc1
REMARK SMILES IDX 11 1 10 2 7 3 8 4 25 5 9 6 24 7 6 8 5 9 2 10 3 11 27 12 4 13
REMARK SMILES IDX 26 14 1 15 12 16 13 17 14 19 15 20 23 21 16 22 22 23 17 24
REMARK SMILES IDX 21 25 18 26 19 27 20 28
REMARK H PARENT 13 18
ROOT
ATOM      1  C   UNL     1     -14.915 -42.601  26.170  1.00  0.00     0.057 C 
ENDROOT
BRANCH   1   2
ATOM      2  C   UNL     1     -16.287 -42.637  25.536  1.00  0.00    -0.034 A 
ATOM      3  N   UNL     1     -18.801 -42.573  24.367  1.00  0.00    -0.201 N 
ATOM      4  C   UNL     1     -17.705 -42.751  23.593  1.00  0.00     0.308 A 
ATOM      5  C   UNL     1     -18.681 -42.427  25.706  1.00  0.00     0.308 A 
ATOM      6  C   UNL     1     -16.436 -42.795  24.159  1.00  0.00     0.074 A 
ATOM      7  C   UNL     1     -17.432 -42.455  26.314  1.00  0.00     0.074 A 
BRANCH   3   8
ATOM      8  C   UNL     1     -20.145 -42.558  23.742  1.00  0.00     0.393 C 
BRANCH   8   9
ATOM      9  C   UNL     1     -20.247 -41.495  22.677  1.00  0.00     0.017 A 
ATOM     10  C   UNL     1     -20.404 -39.513  20.711  1.00  0.00     0.123 A 
ATOM     11  C   UNL     1     -20.465 -40.852  20.343  1.00  0.00     0.040 A 
ATOM     12  C   UNL     1     -20.263 -39.147  22.043  1.00  0.00     0.040 A 
ATOM     13  C   UNL     1     -20.390 -41.844  21.323  1.00  0.00     0.013 A 
ATOM     14  C   UNL     1     -20.181 -40.133  23.027  1.00  0.00     0.013 A 
ATOM     15  F   UNL     1     -20.487 -38.565  19.771  1.00  0.00    -0.207 F 
ENDBRANCH   8   9
ENDBRANCH   3   8
ENDBRANCH   1   2
BRANCH   1  16
ATOM     16  C   UNL     1     -14.314 -43.988  26.445  1.00  0.00     0.120 C 
BRANCH  16  17
ATOM     17  N   UNL     1     -14.481 -44.378  27.833  1.00  0.00    -0.361 N 
ATOM     18  H   UNL     1     -15.427 -44.489  28.180  1.00  0.00     0.162 HD
BRANCH  17  19
ATOM     19  C   UNL     1     -13.437 -44.781  28.586  1.00  0.00     0.183 A 
ATOM     20  N   UNL     1     -13.159 -44.345  29.793  1.00  0.00    -0.220 NA
ATOM     21  S   UNL     1     -12.361 -45.978  27.981  1.00  0.00    -0.097 S 
ATOM     22  C   UNL     1     -11.978 -44.903  30.249  1.00  0.00     0.084 A 
ATOM     23  C   UNL     1     -11.394 -45.841  29.395  1.00  0.00     0.059 A 
ATOM     24  C   UNL     1     -11.341 -44.604  31.472  1.00  0.00     0.033 A 
ATOM     25  C   UNL     1     -10.203 -46.506  29.723  1.00  0.00     0.060 A 
ATOM     26  C   UNL     1     -10.146 -45.252  31.805  1.00  0.00     0.041 A 
ATOM     27  C   UNL     1      -9.600 -46.188  30.939  1.00  0.00     0.124 A 
ATOM     28  F   UNL     1      -8.465 -46.810  31.282  1.00  0.00    -0.207 F 
ENDBRANCH  17  19
ENDBRANCH  16  17
ENDBRANCH   1  16
TORSDOF 6
ENDMDL
MODEL 9
REMARK VINA RESULT:    -9.856      2.190     10.702
REMARK INTER + INTRA:         -13.888
REMARK INTER:                 -13.735
REMARK INTRA:                  -0.154
REMARK UNBOUND:                -0.575
REMARK SMILES Fc1ccc(C[n+]2ccc(CCNc3nc4ccc(F)cc4s3)cc2)cc1
REMARK SMILES IDX 11 1 10 2 7 3 8 4 25 5 9 6 24 7 6 8 5 9 2 10 3 11 27 12 4 13
REMARK SMILES IDX 26 14 1 15 12 16 13 17 14 19 15 20 23 21 16 22 22 23 17 24
REMARK SMILES IDX 21 25 18 26 19 27 20 28
REMARK H PARENT 13 18
ROOT
ATOM      1  C   UNL     1     -13.109 -44.688  27.205  1.00  0.00     0.057 C 
ENDROOT
BRANCH   1   2
ATOM      2  C   UNL     1     -13.981 -44.035  26.156  1.00  0.00    -0.034 A 
ATOM      3  N   UNL     1     -15.470 -42.793  24.173  1.00  0.00    -0.201 N 
ATOM      4  C   UNL     1     -15.141 -44.099  24.047  1.00  0.00     0.308 A 
ATOM      5  C   UNL     1     -15.079 -42.088  25.259  1.00  0.00     0.308 A 
ATOM      6  C   UNL     1     -14.402 -44.744  25.032  1.00  0.00     0.074 A 
ATOM      7  C   UNL     1     -14.332 -42.688  26.264  1.00  0.00     0.074 A 
BRANCH   3   8
ATOM      8  C   UNL     1     -16.283 -42.136  23.122  1.00  0.00     0.393 C 
BRANCH   8   9
ATOM      9  C   UNL     1     -17.690 -41.872  23.595  1.00  0.00     0.017 A 
ATOM     10  C   UNL     1     -20.286 -41.363  24.498  1.00  0.00     0.123 A 
ATOM     11  C   UNL     1     -19.908 -40.949  23.227  1.00  0.00     0.040 A 
ATOM     12  C   UNL     1     -19.390 -42.023  25.328  1.00  0.00     0.040 A 
ATOM     13  C   UNL     1     -18.613 -41.205  22.772  1.00  0.00     0.013 A 
ATOM     14  C   UNL     1     -18.092 -42.277  24.882  1.00  0.00     0.013 A 
ATOM     15  F   UNL     1     -21.531 -41.126  24.927  1.00  0.00    -0.207 F 
ENDBRANCH   8   9
ENDBRANCH   3   8
ENDBRANCH   1   2
BRANCH   1  16
ATOM     16  C   UNL     1     -13.847 -45.034  28.507  1.00  0.00     0.120 C 
BRANCH  16  17
ATOM     17  N   UNL     1     -13.281 -44.333  29.646  1.00  0.00    -0.361 N 
ATOM     18  H   UNL     1     -13.906 -43.769  30.210  1.00  0.00     0.162 HD
BRANCH  17  19
ATOM     19  C   UNL     1     -12.023 -44.574  30.070  1.00  0.00     0.183 A 
ATOM     20  N   UNL     1     -11.410 -45.733  30.006  1.00  0.00    -0.220 NA
ATOM     21  S   UNL     1     -11.089 -43.294  30.738  1.00  0.00    -0.097 S 
ATOM     22  C   UNL     1     -10.162 -45.653  30.600  1.00  0.00     0.084 A 
ATOM     23  C   UNL     1      -9.798 -44.383  31.053  1.00  0.00     0.059 A 
ATOM     24  C   UNL     1      -9.261 -46.724  30.775  1.00  0.00     0.033 A 
ATOM     25  C   UNL     1      -8.558 -44.138  31.662  1.00  0.00     0.060 A 
ATOM     26  C   UNL     1      -8.026 -46.494  31.392  1.00  0.00     0.041 A 
ATOM     27  C   UNL     1      -7.692 -45.218  31.820  1.00  0.00     0.124 A 
ATOM     28  F   UNL     1      -6.499 -45.014  32.394  1.00  0.00    -0.207 F 
ENDBRANCH  17  19
ENDBRANCH  16  17
ENDBRANCH   1  16
TORSDOF 6
ENDMDL
