MODEL 7
REMARK VINA RESULT:    -7.842      4.458      9.172
REMARK INTER + INTRA:         -14.073
REMARK INTER:                 -13.175
REMARK INTRA:                  -0.898
REMARK UNBOUND:                -1.647
REMARK SMILES CCOC(=O)[C@H](Oc1ccc2c(c1)CN(C(=N)N)CC2)c1ccc(O[C@H]2CCN(C(=N)N)C2)cc1
REMARK SMILES IDX 21 1 22 2 23 3 24 4 34 5 35 6 6 7 4 8 5 9 3 10 2 11 1 12
REMARK SMILES IDX 7 13 8 14 9 15 13 16 10 17 12 18 11 19 14 20 20 21 15 22
REMARK SMILES IDX 19 23 16 24 17 25 18 26 25 30 26 31 27 32 33 33 28 34 29 35
REMARK SMILES IDX 30 36 31 37 32 38
REMARK H PARENT 17 27 18 28 18 29 31 39 32 40 32 41
ROOT
ATOM      1  C   UNL     1      -3.078  11.767  23.075  1.00  0.00     0.004 A 
ATOM      2  C   UNL     1      -2.941  10.479  22.540  1.00  0.00     0.012 A 
ATOM      3  C   UNL     1      -3.046  10.273  21.163  1.00  0.00     0.047 A 
ATOM      4  C   UNL     1      -3.296  11.336  20.290  1.00  0.00     0.119 A 
ATOM      5  C   UNL     1      -3.393  12.623  20.816  1.00  0.00     0.047 A 
ATOM      6  C   UNL     1      -3.293  12.838  22.198  1.00  0.00     0.012 A 
ENDROOT
BRANCH   1   7
ATOM      7  C   UNL     1      -3.045  11.973  24.584  1.00  0.00     0.313 C 
BRANCH   7   8
ATOM      8  C   UNL     1      -2.036  11.002  25.233  1.00  0.00     0.352 C 
ATOM      9  O   UNL     1      -0.818  11.153  25.192  1.00  0.00    -0.247 OA
BRANCH   8  10
ATOM     10  O   UNL     1      -2.649   9.969  25.880  1.00  0.00    -0.463 OA
BRANCH  10  11
ATOM     11  C   UNL     1      -2.142   9.679  27.185  1.00  0.00     0.229 C 
ATOM     12  C   UNL     1      -1.280   8.433  27.092  1.00  0.00     0.049 C 
ENDBRANCH  10  11
ENDBRANCH   8  10
ENDBRANCH   7   8
BRANCH   7  13
ATOM     13  O   UNL     1      -4.390  11.885  25.072  1.00  0.00    -0.474 OA
BRANCH  13  14
ATOM     14  C   UNL     1      -4.987  13.107  25.228  1.00  0.00     0.121 A 
ATOM     15  C   UNL     1      -4.486  13.957  26.212  1.00  0.00     0.047 A 
ATOM     16  C   UNL     1      -6.098  13.482  24.472  1.00  0.00     0.052 A 
ATOM     17  C   UNL     1      -5.039  15.223  26.380  1.00  0.00     0.008 A 
ATOM     18  C   UNL     1      -6.673  14.752  24.641  1.00  0.00    -0.022 A 
ATOM     19  C   UNL     1      -6.118  15.639  25.586  1.00  0.00    -0.041 A 
ATOM     20  C   UNL     1      -7.831  15.168  23.751  1.00  0.00     0.155 C 
ATOM     21  C   UNL     1      -6.740  16.998  25.813  1.00  0.00     0.057 C 
ATOM     22  N   UNL     1      -8.534  16.350  24.285  1.00  0.00    -0.339 N 
ATOM     23  C   UNL     1      -7.609  17.428  24.632  1.00  0.00     0.124 C 
BRANCH  22  24
ATOM     24  C   UNL     1      -9.793  16.255  24.796  1.00  0.00     0.188 C 
ATOM     25  N   UNL     1     -10.169  16.417  26.015  1.00  0.00    -0.269 NA
ATOM     26  N   UNL     1     -10.773  16.021  23.891  1.00  0.00    -0.370 N 
ATOM     27  H   UNL     1      -9.361  16.594  26.611  1.00  0.00     0.191 HD
ATOM     28  H   UNL     1     -11.667  16.051  24.378  1.00  0.00     0.159 HD
ATOM     29  H   UNL     1     -10.755  16.729  23.170  1.00  0.00     0.159 HD
ENDBRANCH  22  24
ENDBRANCH  13  14
ENDBRANCH   7  13
ENDBRANCH   1   7
BRANCH   4  30
ATOM     30  O   UNL     1      -3.425  10.965  18.986  1.00  0.00    -0.489 OA
BRANCH  30  31
ATOM     31  C   UNL     1      -4.519  10.201  18.495  1.00  0.00     0.194 C 
ATOM     32  C   UNL     1      -4.765  10.254  16.993  1.00  0.00     0.068 C 
ATOM     33  C   UNL     1      -4.517   8.725  18.891  1.00  0.00     0.164 C 
ATOM     34  C   UNL     1      -5.449   8.937  16.672  1.00  0.00     0.123 C 
ATOM     35  N   UNL     1      -5.117   8.015  17.758  1.00  0.00    -0.340 N 
BRANCH  35  36
ATOM     36  C   UNL     1      -5.590   6.743  17.827  1.00  0.00     0.188 C 
ATOM     37  N   UNL     1      -4.973   5.702  18.268  1.00  0.00    -0.269 NA
ATOM     38  N   UNL     1      -6.846   6.552  17.368  1.00  0.00    -0.370 N 
ATOM     39  H   UNL     1      -4.058   5.977  18.615  1.00  0.00     0.191 HD
ATOM     40  H   UNL     1      -6.885   6.713  16.366  1.00  0.00     0.159 HD
ATOM     41  H   UNL     1      -7.080   5.577  17.537  1.00  0.00     0.159 HD
ENDBRANCH  35  36
ENDBRANCH  30  31
ENDBRANCH   4  30
TORSDOF 10
ENDMDL
