REMARK SMILES COc1ccc(C[C@@H](C)C(=O)O)cc1CNC(=O)c1ccc(C(F)(F)F)cc1
REMARK SMILES IDX 3 1 4 2 5 3 6 4 13 5 14 6 2 7 1 8 15 9 16 10 17 11 18 12
REMARK SMILES IDX 19 14 20 15 28 16 21 17 27 18 22 19 23 20 24 21 25 22 26 23
REMARK SMILES IDX 7 24 8 25 9 26 10 27 11 28 12 29
REMARK H PARENT 16 13 12 30
REMARK INDEX MAP 3 1 4 2 5 3 6 4 13 5 14 6 2 7 1 8 15 9 16 10 17 11 18 12
REMARK INDEX MAP 44 13 19 14 20 15 28 16 21 17 27 18 22 19 23 20 24 21 25 22
REMARK INDEX MAP 26 23 7 24 8 25 9 26 10 27 11 28 12 29 40 30
ROOT
ATOM      1  C   UNL     1       9.173  10.888  -4.518  1.00  0.00     0.123 A 
ATOM      2  C   UNL     1       8.466  10.704  -3.325  1.00  0.00     0.047 A 
ATOM      3  C   UNL     1       7.127  10.302  -3.345  1.00  0.00     0.007 A 
ATOM      4  C   UNL     1       6.472  10.066  -4.556  1.00  0.00    -0.047 A 
ATOM      5  C   UNL     1       7.177  10.254  -5.750  1.00  0.00     0.013 A 
ATOM      6  C   UNL     1       8.519  10.675  -5.744  1.00  0.00     0.014 A 
ENDROOT
BRANCH   1   7
ATOM      7  O   UNL     1      10.491  11.255  -4.594  1.00  0.00    -0.496 OA
ATOM      8  C   UNL     1      10.815  12.598  -4.252  1.00  0.00     0.278 C 
ENDBRANCH   1   7
BRANCH   6   9
ATOM      9  C   UNL     1       9.233  10.841  -7.063  1.00  0.00     0.156 C 
BRANCH   9  10
ATOM     10  N   UNL     1       9.486   9.554  -7.672  1.00  0.00    -0.348 N 
ATOM     11  C   UNL     1      10.040   9.434  -8.925  1.00  0.00     0.251 C 
ATOM     12  O   UNL     1      10.369  10.390  -9.619  1.00  0.00    -0.269 OA
ATOM     13  H   UNL     1       9.243   8.700  -7.151  1.00  0.00     0.164 HD
BRANCH  11  14
ATOM     14  C   UNL     1      10.201   8.047  -9.447  1.00  0.00     0.039 A 
ATOM     15  C   UNL     1      10.348   7.776 -10.812  1.00  0.00     0.014 A 
ATOM     16  C   UNL     1      10.178   6.988  -8.531  1.00  0.00     0.014 A 
ATOM     17  C   UNL     1      10.491   6.456 -11.252  1.00  0.00     0.014 A 
ATOM     18  C   UNL     1      10.323   5.670  -8.972  1.00  0.00     0.014 A 
ATOM     19  C   UNL     1      10.476   5.389 -10.339  1.00  0.00     0.056 A 
BRANCH  19  20
ATOM     20  C   UNL     1      10.653   3.968 -10.817  1.00  0.00     0.416 C 
ATOM     21  F   UNL     1       9.473   3.311 -11.000  1.00  0.00    -0.166 F 
ATOM     22  F   UNL     1      11.369   3.214  -9.938  1.00  0.00    -0.166 F 
ATOM     23  F   UNL     1      11.313   3.884 -12.006  1.00  0.00    -0.166 F 
ENDBRANCH  19  20
ENDBRANCH  11  14
ENDBRANCH   9  10
ENDBRANCH   6   9
BRANCH   4  24
ATOM     24  C   UNL     1       5.025   9.632  -4.581  1.00  0.00     0.050 C 
BRANCH  24  25
ATOM     25  C   UNL     1       4.837   8.223  -5.161  1.00  0.00     0.100 C 
ATOM     26  C   UNL     1       4.461   7.229  -4.065  1.00  0.00     0.020 C 
BRANCH  25  27
ATOM     27  C   UNL     1       3.747   8.214  -6.206  1.00  0.00     0.306 C 
ATOM     28  O   UNL     1       3.420   9.136  -6.935  1.00  0.00    -0.252 OA
BRANCH  27  29
ATOM     29  O   UNL     1       3.082   7.043  -6.247  1.00  0.00    -0.481 OA
ATOM     30  H   UNL     1       2.343   6.916  -6.893  1.00  0.00     0.296 HD
ENDBRANCH  27  29
ENDBRANCH  25  27
ENDBRANCH  24  25
ENDBRANCH   4  24
TORSDOF 9
