MODEL 9
REMARK VINA RESULT:    -8.193      5.924      8.682
REMARK INTER + INTRA:         -10.998
REMARK INTER:                 -10.583
REMARK INTRA:                  -0.415
REMARK UNBOUND:                -0.410
REMARK SMILES CS(=O)(=O)N1CCN(Cc2cc3nc(-c4cccc5[nH]ncc45)nc(N4CCOCC4)c3s2)CC1
REMARK SMILES IDX 9 1 8 2 5 3 35 4 6 5 34 6 7 7 2 8 3 9 4 10 1 11 10 12 33 13
REMARK SMILES IDX 11 14 32 15 12 16 25 17 13 18 24 19 14 20 26 21 31 22 27 23
REMARK SMILES IDX 30 24 28 25 29 26 15 27 23 28 16 29 19 30 22 31 17 32 18 33
REMARK SMILES IDX 20 34 21 35
REMARK H PARENT 20 36
ROOT
ATOM      1  C   UNL     1      37.259  46.228  35.972  1.00  0.00     0.131 C 
ENDROOT
BRANCH   1   2
ATOM      2  N   UNL     1      37.387  44.798  35.668  1.00  0.00    -0.296 NA
ATOM      3  N   UNL     1      38.808  42.325  35.312  1.00  0.00    -0.200 NA
ATOM      4  C   UNL     1      37.997  42.564  36.530  1.00  0.00     0.117 C 
ATOM      5  C   UNL     1      38.271  43.068  34.147  1.00  0.00     0.117 C 
ATOM      6  C   UNL     1      37.952  44.081  36.827  1.00  0.00     0.101 C 
ATOM      7  C   UNL     1      38.234  44.578  34.477  1.00  0.00     0.101 C 
BRANCH   3   8
ATOM      8  S   UNL     1      39.269  40.643  35.007  1.00  0.00     0.211 S 
ATOM      9  O   UNL     1      38.756  39.829  36.114  1.00  0.00    -0.213 OA
ATOM     10  O   UNL     1      40.697  40.614  34.671  1.00  0.00    -0.213 OA
ATOM     11  C   UNL     1      38.299  40.197  33.451  1.00  0.00     0.176 C 
ENDBRANCH   3   8
ENDBRANCH   1   2
BRANCH   1  12
ATOM     12  C   UNL     1      36.569  46.498  37.298  1.00  0.00     0.022 A 
ATOM     13  S   UNL     1      37.308  47.525  38.522  1.00  0.00    -0.133 S 
ATOM     14  C   UNL     1      35.346  46.020  37.732  1.00  0.00     0.046 A 
ATOM     15  C   UNL     1      35.944  47.323  39.622  1.00  0.00     0.096 A 
ATOM     16  C   UNL     1      34.987  46.452  39.035  1.00  0.00     0.088 A 
ATOM     17  C   UNL     1      35.694  47.813  40.927  1.00  0.00     0.150 A 
ATOM     18  N   UNL     1      33.869  46.088  39.672  1.00  0.00    -0.227 NA
ATOM     19  N   UNL     1      34.570  47.400  41.577  1.00  0.00    -0.209 NA
ATOM     20  C   UNL     1      33.706  46.574  40.932  1.00  0.00     0.162 A 
BRANCH  17  21
ATOM     21  N   UNL     1      36.555  48.684  41.603  1.00  0.00    -0.351 N 
ATOM     22  C   UNL     1      37.812  48.193  42.205  1.00  0.00     0.146 C 
ATOM     23  C   UNL     1      36.000  49.725  42.491  1.00  0.00     0.146 C 
ATOM     24  C   UNL     1      38.803  49.330  42.543  1.00  0.00     0.181 C 
ATOM     25  C   UNL     1      37.018  50.840  42.811  1.00  0.00     0.181 C 
ATOM     26  O   UNL     1      38.180  50.276  43.400  1.00  0.00    -0.378 OA
ENDBRANCH  17  21
BRANCH  20  27
ATOM     27  C   UNL     1      32.477  46.155  41.683  1.00  0.00     0.030 A 
ATOM     28  C   UNL     1      31.669  45.063  41.279  1.00  0.00     0.031 A 
ATOM     29  C   UNL     1      32.067  46.843  42.837  1.00  0.00     0.013 A 
ATOM     30  C   UNL     1      30.519  44.711  42.035  1.00  0.00     0.066 A 
ATOM     31  C   UNL     1      31.664  44.110  40.208  1.00  0.00     0.144 A 
ATOM     32  C   UNL     1      30.936  46.478  43.563  1.00  0.00     0.003 A 
ATOM     33  C   UNL     1      30.135  45.404  43.185  1.00  0.00     0.028 A 
ATOM     34  N   UNL     1      29.963  43.625  41.389  1.00  0.00    -0.278 N 
ATOM     35  N   UNL     1      30.660  43.278  40.295  1.00  0.00    -0.183 NA
ATOM     36  H   UNL     1      29.135  43.110  41.649  1.00  0.00     0.190 HD
ENDBRANCH  20  27
ENDBRANCH   1  12
TORSDOF 5
ENDMDL
