REMARK VINA RESULT:    -8.464      2.516      4.008
REMARK INTER + INTRA:         -15.118
REMARK INTER:                 -13.792
REMARK INTRA:                  -1.327
REMARK UNBOUND:                -1.706
REMARK SMILES N#Cc1cnc(NCC(F)(F)c2ccccc2)c(=O)n1CC(=O)NCCONC(=N)N
REMARK SMILES IDX 22 1 23 2 24 3 21 5 20 6 1 7 2 8 3 9 4 10 5 11 18 12 6 13
REMARK SMILES IDX 19 14 7 15 8 17 9 18 10 19 11 20 12 21 13 22 17 23 14 24
REMARK SMILES IDX 16 25 15 26 25 27 26 28 27 29 28 30 29 31 30 32 31 33
REMARK H PARENT 24 4 7 16 28 34 30 35 31 36 31 37
ROOT
ATOM      1  C   UNL     1     127.987 -15.435 163.252  1.00  0.00     0.240 C 
ATOM      2  O   UNL     1     127.903 -15.179 164.453  1.00  0.00    -0.273 OA
ATOM      3  N   UNL     1     127.037 -15.008 162.349  1.00  0.00    -0.352 N 
ATOM      4  H   UNL     1     127.017 -15.427 161.425  1.00  0.00     0.163 HD
ENDROOT
BRANCH   1   5
ATOM      5  C   UNL     1     129.033 -16.419 162.712  1.00  0.00     0.226 C 
BRANCH   5   6
ATOM      6  N   UNL     1     130.420 -15.952 162.750  1.00  0.00    -0.286 N 
ATOM      7  N   UNL     1     129.318 -13.711 160.255  1.00  0.00    -0.191 NA
ATOM      8  C   UNL     1     130.021 -14.258 161.000  1.00  0.00     0.119 C 
ATOM      9  C   UNL     1     130.870 -14.898 161.959  1.00  0.00     0.142 A 
ATOM     10  C   UNL     1     132.137 -14.464 162.093  1.00  0.00     0.151 A 
ATOM     11  N   UNL     1     133.069 -14.948 162.977  1.00  0.00    -0.231 NA
ATOM     12  C   UNL     1     131.311 -16.591 163.598  1.00  0.00     0.294 A 
ATOM     13  C   UNL     1     132.721 -15.965 163.712  1.00  0.00     0.193 A 
ATOM     14  O   UNL     1     131.069 -17.611 164.238  1.00  0.00    -0.265 OA
BRANCH  13  15
ATOM     15  N   UNL     1     133.574 -16.529 164.636  1.00  0.00    -0.359 N 
ATOM     16  H   UNL     1     133.512 -17.535 164.775  1.00  0.00     0.162 HD
BRANCH  15  17
ATOM     17  C   UNL     1     134.356 -15.760 165.597  1.00  0.00     0.196 C 
BRANCH  17  18
ATOM     18  C   UNL     1     134.004 -16.059 167.074  1.00  0.00     0.290 C 
ATOM     19  F   UNL     1     135.143 -16.537 167.674  1.00  0.00    -0.199 F 
ATOM     20  F   UNL     1     133.774 -14.856 167.690  1.00  0.00    -0.199 F 
BRANCH  18  21
ATOM     21  C   UNL     1     132.830 -17.002 167.245  1.00  0.00     0.023 A 
ATOM     22  C   UNL     1     131.532 -16.502 167.434  1.00  0.00     0.010 A 
ATOM     23  C   UNL     1     133.024 -18.391 167.227  1.00  0.00     0.010 A 
ATOM     24  C   UNL     1     130.455 -17.372 167.610  1.00  0.00     0.001 A 
ATOM     25  C   UNL     1     131.946 -19.259 167.405  1.00  0.00     0.001 A 
ATOM     26  C   UNL     1     130.663 -18.749 167.597  1.00  0.00     0.000 A 
ENDBRANCH  18  21
ENDBRANCH  17  18
ENDBRANCH  15  17
ENDBRANCH  13  15
ENDBRANCH   5   6
ENDBRANCH   1   5
BRANCH   3  27
ATOM     27  C   UNL     1     125.929 -14.154 162.750  1.00  0.00     0.147 C 
BRANCH  27  28
ATOM     28  C   UNL     1     126.356 -12.720 163.079  1.00  0.00     0.215 C 
BRANCH  28  29
ATOM     29  O   UNL     1     126.042 -12.448 164.455  1.00  0.00    -0.272 OA
BRANCH  29  30
ATOM     30  N   UNL     1     125.189 -13.459 164.892  1.00  0.00    -0.235 N 
ATOM     31  C   UNL     1     124.349 -13.134 165.904  1.00  0.00     0.210 C 
ATOM     32  N   UNL     1     124.288 -11.967 166.454  1.00  0.00    -0.268 NA
ATOM     33  N   UNL     1     123.562 -14.129 166.340  1.00  0.00    -0.368 N 
ATOM     34  H   UNL     1     125.005 -14.231 164.266  1.00  0.00     0.199 HD
ATOM     35  H   UNL     1     124.976 -11.411 165.926  1.00  0.00     0.191 HD
ATOM     36  H   UNL     1     123.772 -15.099 166.166  1.00  0.00     0.159 HD
ATOM     37  H   UNL     1     122.956 -13.917 167.123  1.00  0.00     0.159 HD
ENDBRANCH  29  30
ENDBRANCH  28  29
ENDBRANCH  27  28
ENDBRANCH   3  27
TORSDOF 10
