MODEL 1
REMARK VINA RESULT:    -8.875      0.000      0.000
REMARK INTER + INTRA:         -16.929
REMARK INTER:                 -15.620
REMARK INTRA:                  -1.309
REMARK UNBOUND:                -1.309
REMARK SMILES CCc1c(N2CCCC2=O)cccc1S(=O)(=O)N[C@@H](CNC(=O)c1ccc(Cl)s1)C(=O)OCC[S@@+](C)[O-]
REMARK SMILES IDX 30 1 31 2 19 3 18 4 15 6 16 7 17 8 14 9 3 10 4 11 11 12
REMARK SMILES IDX 13 13 12 14 2 15 1 16 5 17 6 18 9 19 7 20 8 21 10 22 20 23
REMARK SMILES IDX 21 24 22 25 23 26 24 28 25 29 29 30 26 31 27 32 28 33 32 34
REMARK SMILES IDX 33 35 34 36 35 37 36 38 37 39
REMARK H PARENT 18 5 21 27
ROOT
ATOM      1  C   UNL     1     128.697 -13.988 159.764  1.00  0.00     0.326 C 
ATOM      2  O   UNL     1     129.865 -13.640 159.623  1.00  0.00    -0.250 OA
ENDROOT
BRANCH   1   3
ATOM      3  C   UNL     1     128.194 -14.841 160.925  1.00  0.00     0.198 C 
BRANCH   3   4
ATOM      4  N   UNL     1     128.975 -14.490 162.138  1.00  0.00    -0.195 NA
ATOM      5  H   UNL     1     129.777 -13.870 161.994  1.00  0.00     0.142 HD
BRANCH   4   6
ATOM      6  S   UNL     1     129.178 -15.622 163.345  1.00  0.00     0.241 S 
ATOM      7  O   UNL     1     128.450 -15.143 164.500  1.00  0.00    -0.207 OA
ATOM      8  O   UNL     1     128.928 -16.926 162.778  1.00  0.00    -0.207 OA
BRANCH   6   9
ATOM      9  C   UNL     1     130.929 -15.489 163.674  1.00  0.00     0.087 A 
ATOM     10  C   UNL     1     131.514 -16.001 164.859  1.00  0.00    -0.004 A 
ATOM     11  C   UNL     1     132.928 -16.054 164.920  1.00  0.00     0.048 A 
ATOM     12  C   UNL     1     133.700 -15.463 163.906  1.00  0.00     0.027 A 
ATOM     13  C   UNL     1     131.718 -14.935 162.655  1.00  0.00     0.022 A 
ATOM     14  C   UNL     1     133.099 -14.894 162.787  1.00  0.00     0.004 A 
BRANCH  10  15
ATOM     15  C   UNL     1     130.678 -16.285 166.098  1.00  0.00     0.036 C 
ATOM     16  C   UNL     1     130.358 -17.773 166.213  1.00  0.00     0.009 C 
ENDBRANCH  10  15
BRANCH  11  17
ATOM     17  N   UNL     1     133.608 -16.758 165.937  1.00  0.00    -0.312 N 
ATOM     18  C   UNL     1     133.916 -18.164 165.868  1.00  0.00     0.126 C 
ATOM     19  C   UNL     1     133.997 -16.194 167.156  1.00  0.00     0.227 C 
ATOM     20  C   UNL     1     134.194 -18.546 167.310  1.00  0.00     0.032 C 
ATOM     21  C   UNL     1     134.727 -17.262 167.931  1.00  0.00     0.102 C 
ATOM     22  O   UNL     1     133.807 -15.052 167.552  1.00  0.00    -0.275 OA
ENDBRANCH  11  17
ENDBRANCH   6   9
ENDBRANCH   4   6
ENDBRANCH   3   4
BRANCH   3  23
ATOM     23  C   UNL     1     126.686 -14.683 161.191  1.00  0.00     0.148 C 
BRANCH  23  24
ATOM     24  N   UNL     1     126.342 -13.888 162.359  1.00  0.00    -0.349 N 
ATOM     25  C   UNL     1     125.509 -14.355 163.350  1.00  0.00     0.261 C 
ATOM     26  O   UNL     1     125.050 -15.495 163.285  1.00  0.00    -0.268 OA
ATOM     27  H   UNL     1     126.798 -12.981 162.475  1.00  0.00     0.163 HD
BRANCH  25  28
ATOM     28  C   UNL     1     125.211 -13.450 164.449  1.00  0.00     0.093 A 
ATOM     29  C   UNL     1     124.354 -13.700 165.511  1.00  0.00     0.027 A 
ATOM     30  S   UNL     1     125.885 -11.877 164.568  1.00  0.00    -0.118 S 
ATOM     31  C   UNL     1     124.267 -12.605 166.421  1.00  0.00     0.033 A 
ATOM     32  C   UNL     1     125.058 -11.565 166.008  1.00  0.00     0.094 A 
ATOM     33  Cl  UNL     1     125.258 -10.053 166.795  1.00  0.00    -0.072 Cl
ENDBRANCH  25  28
ENDBRANCH  23  24
ENDBRANCH   3  23
ENDBRANCH   1   3
BRANCH   1  34
ATOM     34  O   UNL     1     127.695 -13.729 158.871  1.00  0.00    -0.459 OA
BRANCH  34  35
ATOM     35  C   UNL     1     127.676 -14.582 157.712  1.00  0.00     0.287 C 
BRANCH  35  36
ATOM     36  C   UNL     1     129.075 -14.893 157.194  1.00  0.00     0.316 C 
BRANCH  36  37
ATOM     37  S   UNL     1     129.403 -13.996 155.638  1.00  0.00    -0.053 S 
ATOM     38  C   UNL     1     127.706 -13.464 155.322  1.00  0.00     0.339 C 
ATOM     39  O   UNL     1     130.285 -12.642 156.012  1.00  0.00    -0.616 OA
ENDBRANCH  36  37
ENDBRANCH  35  36
ENDBRANCH  34  35
ENDBRANCH   1  34
TORSDOF 13
ENDMDL
MODEL 2
REMARK VINA RESULT:    -8.792      3.258      5.727
REMARK INTER + INTRA:         -16.784
REMARK INTER:                 -14.745
REMARK INTRA:                  -2.038
REMARK UNBOUND:                -1.309
REMARK SMILES CCc1c(N2CCCC2=O)cccc1S(=O)(=O)N[C@@H](CNC(=O)c1ccc(Cl)s1)C(=O)OCC[S@@+](C)[O-]
REMARK SMILES IDX 30 1 31 2 19 3 18 4 15 6 16 7 17 8 14 9 3 10 4 11 11 12
REMARK SMILES IDX 13 13 12 14 2 15 1 16 5 17 6 18 9 19 7 20 8 21 10 22 20 23
REMARK SMILES IDX 21 24 22 25 23 26 24 28 25 29 29 30 26 31 27 32 28 33 32 34
REMARK SMILES IDX 33 35 34 36 35 37 36 38 37 39
REMARK H PARENT 18 5 21 27
ROOT
ATOM      1  C   UNL     1     126.827 -19.629 163.610  1.00  0.00     0.326 C 
ATOM      2  O   UNL     1     126.878 -20.325 162.600  1.00  0.00    -0.250 OA
ENDROOT
BRANCH   1   3
ATOM      3  C   UNL     1     126.938 -18.108 163.606  1.00  0.00     0.198 C 
BRANCH   3   4
ATOM      4  N   UNL     1     127.936 -17.713 162.580  1.00  0.00    -0.195 NA
ATOM      5  H   UNL     1     128.413 -18.479 162.097  1.00  0.00     0.142 HD
BRANCH   4   6
ATOM      6  S   UNL     1     128.867 -16.351 162.816  1.00  0.00     0.241 S 
ATOM      7  O   UNL     1     129.156 -15.805 161.508  1.00  0.00    -0.207 OA
ATOM      8  O   UNL     1     128.241 -15.557 163.847  1.00  0.00    -0.207 OA
BRANCH   6   9
ATOM      9  C   UNL     1     130.367 -17.051 163.489  1.00  0.00     0.087 A 
ATOM     10  C   UNL     1     131.341 -16.257 164.145  1.00  0.00    -0.004 A 
ATOM     11  C   UNL     1     132.372 -16.931 164.843  1.00  0.00     0.048 A 
ATOM     12  C   UNL     1     132.500 -18.326 164.735  1.00  0.00     0.027 A 
ATOM     13  C   UNL     1     130.491 -18.447 163.425  1.00  0.00     0.022 A 
ATOM     14  C   UNL     1     131.574 -19.079 164.019  1.00  0.00     0.004 A 
BRANCH  10  15
ATOM     15  C   UNL     1     131.407 -14.751 163.937  1.00  0.00     0.036 C 
ATOM     16  C   UNL     1     132.186 -14.407 162.671  1.00  0.00     0.009 C 
ENDBRANCH  10  15
BRANCH  11  17
ATOM     17  N   UNL     1     133.247 -16.257 165.721  1.00  0.00    -0.312 N 
ATOM     18  C   UNL     1     134.590 -15.868 165.370  1.00  0.00     0.126 C 
ATOM     19  C   UNL     1     132.942 -15.952 167.051  1.00  0.00     0.227 C 
ATOM     20  C   UNL     1     135.260 -15.632 166.711  1.00  0.00     0.032 C 
ATOM     21  C   UNL     1     134.118 -15.198 167.619  1.00  0.00     0.102 C 
ATOM     22  O   UNL     1     131.923 -16.223 167.671  1.00  0.00    -0.275 OA
ENDBRANCH  11  17
ENDBRANCH   6   9
ENDBRANCH   4   6
ENDBRANCH   3   4
BRANCH   3  23
ATOM     23  C   UNL     1     125.596 -17.398 163.354  1.00  0.00     0.148 C 
BRANCH  23  24
ATOM     24  N   UNL     1     125.334 -16.246 164.202  1.00  0.00    -0.349 N 
ATOM     25  C   UNL     1     125.251 -14.966 163.703  1.00  0.00     0.261 C 
ATOM     26  O   UNL     1     125.367 -14.766 162.495  1.00  0.00    -0.268 OA
ATOM     27  H   UNL     1     125.134 -16.412 165.190  1.00  0.00     0.163 HD
BRANCH  25  28
ATOM     28  C   UNL     1     125.023 -13.893 164.658  1.00  0.00     0.093 A 
ATOM     29  C   UNL     1     124.152 -13.924 165.737  1.00  0.00     0.027 A 
ATOM     30  S   UNL     1     125.812 -12.373 164.556  1.00  0.00    -0.118 S 
ATOM     31  C   UNL     1     124.148 -12.706 166.479  1.00  0.00     0.033 A 
ATOM     32  C   UNL     1     125.013 -11.797 165.929  1.00  0.00     0.094 A 
ATOM     33  Cl  UNL     1     125.326 -10.206 166.492  1.00  0.00    -0.072 Cl
ENDBRANCH  25  28
ENDBRANCH  23  24
ENDBRANCH   3  23
ENDBRANCH   1   3
BRANCH   1  34
ATOM     34  O   UNL     1     126.739 -20.114 164.885  1.00  0.00    -0.459 OA
BRANCH  34  35
ATOM     35  C   UNL     1     128.000 -20.319 165.548  1.00  0.00     0.287 C 
BRANCH  35  36
ATOM     36  C   UNL     1     128.590 -21.695 165.268  1.00  0.00     0.316 C 
BRANCH  36  37
ATOM     37  S   UNL     1     127.599 -23.001 166.073  1.00  0.00    -0.053 S 
ATOM     38  C   UNL     1     127.342 -22.150 167.646  1.00  0.00     0.339 C 
ATOM     39  O   UNL     1     126.133 -23.070 165.302  1.00  0.00    -0.616 OA
ENDBRANCH  36  37
ENDBRANCH  35  36
ENDBRANCH  34  35
ENDBRANCH   1  34
TORSDOF 13
ENDMDL
MODEL 3
REMARK VINA RESULT:    -8.432      3.059      4.727
REMARK INTER + INTRA:         -16.150
REMARK INTER:                 -14.127
REMARK INTRA:                  -2.023
REMARK UNBOUND:                -1.309
REMARK SMILES CCc1c(N2CCCC2=O)cccc1S(=O)(=O)N[C@@H](CNC(=O)c1ccc(Cl)s1)C(=O)OCC[S@@+](C)[O-]
REMARK SMILES IDX 30 1 31 2 19 3 18 4 15 6 16 7 17 8 14 9 3 10 4 11 11 12
REMARK SMILES IDX 13 13 12 14 2 15 1 16 5 17 6 18 9 19 7 20 8 21 10 22 20 23
REMARK SMILES IDX 21 24 22 25 23 26 24 28 25 29 29 30 26 31 27 32 28 33 32 34
REMARK SMILES IDX 33 35 34 36 35 37 36 38 37 39
REMARK H PARENT 18 5 21 27
ROOT
ATOM      1  C   UNL     1     128.074 -18.369 162.185  1.00  0.00     0.326 C 
ATOM      2  O   UNL     1     127.645 -18.597 161.058  1.00  0.00    -0.250 OA
ENDROOT
BRANCH   1   3
ATOM      3  C   UNL     1     127.693 -17.146 163.013  1.00  0.00     0.198 C 
BRANCH   3   4
ATOM      4  N   UNL     1     128.172 -15.932 162.305  1.00  0.00    -0.195 NA
ATOM      5  H   UNL     1     128.576 -16.082 161.377  1.00  0.00     0.142 HD
BRANCH   4   6
ATOM      6  S   UNL     1     128.864 -14.689 163.173  1.00  0.00     0.241 S 
ATOM      7  O   UNL     1     128.669 -13.478 162.406  1.00  0.00    -0.207 OA
ATOM      8  O   UNL     1     128.417 -14.800 164.542  1.00  0.00    -0.207 OA
BRANCH   6   9
ATOM      9  C   UNL     1     130.594 -15.130 163.119  1.00  0.00     0.087 A 
ATOM     10  C   UNL     1     131.118 -16.219 163.860  1.00  0.00    -0.004 A 
ATOM     11  C   UNL     1     132.443 -16.628 163.572  1.00  0.00     0.048 A 
ATOM     12  C   UNL     1     133.243 -15.867 162.704  1.00  0.00     0.027 A 
ATOM     13  C   UNL     1     131.398 -14.404 162.227  1.00  0.00     0.022 A 
ATOM     14  C   UNL     1     132.729 -14.754 162.046  1.00  0.00     0.004 A 
BRANCH  10  15
ATOM     15  C   UNL     1     130.378 -16.790 165.060  1.00  0.00     0.036 C 
ATOM     16  C   UNL     1     130.975 -16.278 166.367  1.00  0.00     0.009 C 
ENDBRANCH  10  15
BRANCH  11  17
ATOM     17  N   UNL     1     132.978 -17.836 164.069  1.00  0.00    -0.312 N 
ATOM     18  C   UNL     1     132.565 -19.140 163.617  1.00  0.00     0.126 C 
ATOM     19  C   UNL     1     133.916 -17.911 165.104  1.00  0.00     0.227 C 
ATOM     20  C   UNL     1     133.034 -20.072 164.720  1.00  0.00     0.032 C 
ATOM     21  C   UNL     1     134.254 -19.367 165.297  1.00  0.00     0.102 C 
ATOM     22  O   UNL     1     134.399 -16.992 165.751  1.00  0.00    -0.275 OA
ENDBRANCH  11  17
ENDBRANCH   6   9
ENDBRANCH   4   6
ENDBRANCH   3   4
BRANCH   3  23
ATOM     23  C   UNL     1     126.183 -17.045 163.295  1.00  0.00     0.148 C 
BRANCH  23  24
ATOM     24  N   UNL     1     125.790 -15.974 164.198  1.00  0.00    -0.349 N 
ATOM     25  C   UNL     1     125.396 -14.735 163.746  1.00  0.00     0.261 C 
ATOM     26  O   UNL     1     125.334 -14.510 162.538  1.00  0.00    -0.268 OA
ATOM     27  H   UNL     1     125.738 -16.182 165.197  1.00  0.00     0.163 HD
BRANCH  25  28
ATOM     28  C   UNL     1     125.064 -13.736 164.749  1.00  0.00     0.093 A 
ATOM     29  C   UNL     1     124.174 -13.892 165.801  1.00  0.00     0.027 A 
ATOM     30  S   UNL     1     125.735 -12.157 164.747  1.00  0.00    -0.118 S 
ATOM     31  C   UNL     1     124.058 -12.719 166.605  1.00  0.00     0.033 A 
ATOM     32  C   UNL     1     124.862 -11.719 166.126  1.00  0.00     0.094 A 
ATOM     33  Cl  UNL     1     125.038 -10.141 166.779  1.00  0.00    -0.072 Cl
ENDBRANCH  25  28
ENDBRANCH  23  24
ENDBRANCH   3  23
ENDBRANCH   1   3
BRANCH   1  34
ATOM     34  O   UNL     1     129.005 -19.132 162.832  1.00  0.00    -0.459 OA
BRANCH  34  35
ATOM     35  C   UNL     1     128.787 -20.553 162.757  1.00  0.00     0.287 C 
BRANCH  35  36
ATOM     36  C   UNL     1     129.287 -21.287 163.994  1.00  0.00     0.316 C 
BRANCH  36  37
ATOM     37  S   UNL     1     128.074 -21.169 165.353  1.00  0.00    -0.053 S 
ATOM     38  C   UNL     1     128.994 -19.997 166.375  1.00  0.00     0.339 C 
ATOM     39  O   UNL     1     126.739 -20.375 164.770  1.00  0.00    -0.616 OA
ENDBRANCH  36  37
ENDBRANCH  35  36
ENDBRANCH  34  35
ENDBRANCH   1  34
TORSDOF 13
ENDMDL
MODEL 4
REMARK VINA RESULT:    -8.426      1.485      2.070
REMARK INTER + INTRA:         -16.138
REMARK INTER:                 -14.796
REMARK INTRA:                  -1.342
REMARK UNBOUND:                -1.309
REMARK SMILES CCc1c(N2CCCC2=O)cccc1S(=O)(=O)N[C@@H](CNC(=O)c1ccc(Cl)s1)C(=O)OCC[S@@+](C)[O-]
REMARK SMILES IDX 30 1 31 2 19 3 18 4 15 6 16 7 17 8 14 9 3 10 4 11 11 12
REMARK SMILES IDX 13 13 12 14 2 15 1 16 5 17 6 18 9 19 7 20 8 21 10 22 20 23
REMARK SMILES IDX 21 24 22 25 23 26 24 28 25 29 29 30 26 31 27 32 28 33 32 34
REMARK SMILES IDX 33 35 34 36 35 37 36 38 37 39
REMARK H PARENT 18 5 21 27
ROOT
ATOM      1  C   UNL     1     128.830 -14.263 160.446  1.00  0.00     0.326 C 
ATOM      2  O   UNL     1     129.944 -13.820 160.711  1.00  0.00    -0.250 OA
ENDROOT
BRANCH   1   3
ATOM      3  C   UNL     1     128.287 -15.585 160.981  1.00  0.00     0.198 C 
BRANCH   3   4
ATOM      4  N   UNL     1     129.117 -15.998 162.141  1.00  0.00    -0.195 NA
ATOM      5  H   UNL     1     130.103 -15.726 162.109  1.00  0.00     0.142 HD
BRANCH   4   6
ATOM      6  S   UNL     1     128.821 -17.458 162.888  1.00  0.00     0.241 S 
ATOM      7  O   UNL     1     127.916 -17.196 163.985  1.00  0.00    -0.207 OA
ATOM      8  O   UNL     1     128.511 -18.427 161.863  1.00  0.00    -0.207 OA
BRANCH   6   9
ATOM      9  C   UNL     1     130.431 -17.855 163.555  1.00  0.00     0.087 A 
ATOM     10  C   UNL     1     131.132 -16.968 164.410  1.00  0.00    -0.004 A 
ATOM     11  C   UNL     1     132.284 -17.467 165.067  1.00  0.00     0.048 A 
ATOM     12  C   UNL     1     132.786 -18.738 164.740  1.00  0.00     0.027 A 
ATOM     13  C   UNL     1     130.929 -19.136 163.270  1.00  0.00     0.022 A 
ATOM     14  C   UNL     1     132.122 -19.562 163.837  1.00  0.00     0.004 A 
BRANCH  10  15
ATOM     15  C   UNL     1     130.797 -15.485 164.460  1.00  0.00     0.036 C 
ATOM     16  C   UNL     1     131.702 -14.687 163.526  1.00  0.00     0.009 C 
ENDBRANCH  10  15
BRANCH  11  17
ATOM     17  N   UNL     1     132.914 -16.760 166.112  1.00  0.00    -0.312 N 
ATOM     18  C   UNL     1     132.383 -16.666 167.448  1.00  0.00     0.126 C 
ATOM     19  C   UNL     1     134.086 -16.012 165.958  1.00  0.00     0.227 C 
ATOM     20  C   UNL     1     133.109 -15.474 168.044  1.00  0.00     0.032 C 
ATOM     21  C   UNL     1     134.445 -15.459 167.314  1.00  0.00     0.102 C 
ATOM     22  O   UNL     1     134.730 -15.824 164.935  1.00  0.00    -0.275 OA
ENDBRANCH  11  17
ENDBRANCH   6   9
ENDBRANCH   4   6
ENDBRANCH   3   4
BRANCH   3  23
ATOM     23  C   UNL     1     126.801 -15.520 161.377  1.00  0.00     0.148 C 
BRANCH  23  24
ATOM     24  N   UNL     1     126.491 -14.618 162.475  1.00  0.00    -0.349 N 
ATOM     25  C   UNL     1     125.414 -14.815 163.310  1.00  0.00     0.261 C 
ATOM     26  O   UNL     1     124.691 -15.799 163.162  1.00  0.00    -0.268 OA
ATOM     27  H   UNL     1     127.143 -13.856 162.671  1.00  0.00     0.163 HD
BRANCH  25  28
ATOM     28  C   UNL     1     125.188 -13.823 164.348  1.00  0.00     0.093 A 
ATOM     29  C   UNL     1     124.326 -13.945 165.428  1.00  0.00     0.027 A 
ATOM     30  S   UNL     1     125.966 -12.294 164.360  1.00  0.00    -0.118 S 
ATOM     31  C   UNL     1     124.321 -12.788 166.264  1.00  0.00     0.033 A 
ATOM     32  C   UNL     1     125.175 -11.834 165.780  1.00  0.00     0.094 A 
ATOM     33  Cl  UNL     1     125.483 -10.290 166.464  1.00  0.00    -0.072 Cl
ENDBRANCH  25  28
ENDBRANCH  23  24
ENDBRANCH   3  23
ENDBRANCH   1   3
BRANCH   1  34
ATOM     34  O   UNL     1     127.947 -13.680 159.582  1.00  0.00    -0.459 OA
BRANCH  34  35
ATOM     35  C   UNL     1     127.803 -14.348 158.315  1.00  0.00     0.287 C 
BRANCH  35  36
ATOM     36  C   UNL     1     129.121 -14.452 157.558  1.00  0.00     0.316 C 
BRANCH  36  37
ATOM     37  S   UNL     1     129.438 -12.933 156.596  1.00  0.00    -0.053 S 
ATOM     38  C   UNL     1     130.963 -12.450 157.435  1.00  0.00     0.339 C 
ATOM     39  O   UNL     1     129.845 -13.388 155.054  1.00  0.00    -0.616 OA
ENDBRANCH  36  37
ENDBRANCH  35  36
ENDBRANCH  34  35
ENDBRANCH   1  34
TORSDOF 13
ENDMDL
MODEL 5
REMARK VINA RESULT:    -8.425      2.402      3.288
REMARK INTER + INTRA:         -16.137
REMARK INTER:                 -14.484
REMARK INTRA:                  -1.653
REMARK UNBOUND:                -1.309
REMARK SMILES CCc1c(N2CCCC2=O)cccc1S(=O)(=O)N[C@@H](CNC(=O)c1ccc(Cl)s1)C(=O)OCC[S@@+](C)[O-]
REMARK SMILES IDX 30 1 31 2 19 3 18 4 15 6 16 7 17 8 14 9 3 10 4 11 11 12
REMARK SMILES IDX 13 13 12 14 2 15 1 16 5 17 6 18 9 19 7 20 8 21 10 22 20 23
REMARK SMILES IDX 21 24 22 25 23 26 24 28 25 29 29 30 26 31 27 32 28 33 32 34
REMARK SMILES IDX 33 35 34 36 35 37 36 38 37 39
REMARK H PARENT 18 5 21 27
ROOT
ATOM      1  C   UNL     1     127.888 -17.589 162.028  1.00  0.00     0.326 C 
ATOM      2  O   UNL     1     127.944 -18.038 160.887  1.00  0.00    -0.250 OA
ENDROOT
BRANCH   1   3
ATOM      3  C   UNL     1     127.342 -18.361 163.224  1.00  0.00     0.198 C 
BRANCH   3   4
ATOM      4  N   UNL     1     128.326 -18.268 164.333  1.00  0.00    -0.195 NA
ATOM      5  H   UNL     1     128.932 -17.443 164.329  1.00  0.00     0.142 HD
BRANCH   4   6
ATOM      6  S   UNL     1     129.041 -19.654 164.920  1.00  0.00     0.241 S 
ATOM      7  O   UNL     1     128.783 -19.693 166.343  1.00  0.00    -0.207 OA
ATOM      8  O   UNL     1     128.672 -20.747 164.052  1.00  0.00    -0.207 OA
BRANCH   6   9
ATOM      9  C   UNL     1     130.774 -19.304 164.661  1.00  0.00     0.087 A 
ATOM     10  C   UNL     1     131.447 -18.269 165.358  1.00  0.00    -0.004 A 
ATOM     11  C   UNL     1     132.859 -18.223 165.258  1.00  0.00     0.048 A 
ATOM     12  C   UNL     1     133.530 -19.075 164.364  1.00  0.00     0.027 A 
ATOM     13  C   UNL     1     131.467 -20.171 163.802  1.00  0.00     0.022 A 
ATOM     14  C   UNL     1     132.838 -20.033 163.630  1.00  0.00     0.004 A 
BRANCH  10  15
ATOM     15  C   UNL     1     130.683 -17.128 166.013  1.00  0.00     0.036 C 
ATOM     16  C   UNL     1     130.551 -15.941 165.063  1.00  0.00     0.009 C 
ENDBRANCH  10  15
BRANCH  11  17
ATOM     17  N   UNL     1     133.642 -17.395 166.090  1.00  0.00    -0.312 N 
ATOM     18  C   UNL     1     133.888 -17.667 167.483  1.00  0.00     0.126 C 
ATOM     19  C   UNL     1     134.209 -16.184 165.682  1.00  0.00     0.227 C 
ATOM     20  C   UNL     1     134.341 -16.329 168.039  1.00  0.00     0.032 C 
ATOM     21  C   UNL     1     134.997 -15.643 166.848  1.00  0.00     0.102 C 
ATOM     22  O   UNL     1     134.114 -15.638 164.592  1.00  0.00    -0.275 OA
ENDBRANCH  11  17
ENDBRANCH   6   9
ENDBRANCH   4   6
ENDBRANCH   3   4
BRANCH   3  23
ATOM     23  C   UNL     1     125.959 -17.871 163.689  1.00  0.00     0.148 C 
BRANCH  23  24
ATOM     24  N   UNL     1     125.926 -16.516 164.215  1.00  0.00    -0.349 N 
ATOM     25  C   UNL     1     125.430 -15.455 163.492  1.00  0.00     0.261 C 
ATOM     26  O   UNL     1     124.962 -15.639 162.369  1.00  0.00    -0.268 OA
ATOM     27  H   UNL     1     126.216 -16.369 165.184  1.00  0.00     0.163 HD
BRANCH  25  28
ATOM     28  C   UNL     1     125.486 -14.142 164.113  1.00  0.00     0.093 A 
ATOM     29  C   UNL     1     126.351 -13.110 163.780  1.00  0.00     0.027 A 
ATOM     30  S   UNL     1     124.467 -13.684 165.416  1.00  0.00    -0.118 S 
ATOM     31  C   UNL     1     126.163 -11.948 164.586  1.00  0.00     0.033 A 
ATOM     32  C   UNL     1     125.165 -12.148 165.503  1.00  0.00     0.094 A 
ATOM     33  Cl  UNL     1     124.605 -11.023 166.672  1.00  0.00    -0.072 Cl
ENDBRANCH  25  28
ENDBRANCH  23  24
ENDBRANCH   3  23
ENDBRANCH   1   3
BRANCH   1  34
ATOM     34  O   UNL     1     128.236 -16.314 162.380  1.00  0.00    -0.459 OA
BRANCH  34  35
ATOM     35  C   UNL     1     128.816 -15.527 161.323  1.00  0.00     0.287 C 
BRANCH  35  36
ATOM     36  C   UNL     1     127.763 -14.893 160.423  1.00  0.00     0.316 C 
BRANCH  36  37
ATOM     37  S   UNL     1     128.509 -14.314 158.861  1.00  0.00    -0.053 S 
ATOM     38  C   UNL     1     128.025 -15.726 157.843  1.00  0.00     0.339 C 
ATOM     39  O   UNL     1     127.635 -13.005 158.339  1.00  0.00    -0.616 OA
ENDBRANCH  36  37
ENDBRANCH  35  36
ENDBRANCH  34  35
ENDBRANCH   1  34
TORSDOF 13
ENDMDL
MODEL 6
REMARK VINA RESULT:    -8.314      2.056      3.205
REMARK INTER + INTRA:         -15.941
REMARK INTER:                 -14.460
REMARK INTRA:                  -1.481
REMARK UNBOUND:                -1.309
REMARK SMILES CCc1c(N2CCCC2=O)cccc1S(=O)(=O)N[C@@H](CNC(=O)c1ccc(Cl)s1)C(=O)OCC[S@@+](C)[O-]
REMARK SMILES IDX 30 1 31 2 19 3 18 4 15 6 16 7 17 8 14 9 3 10 4 11 11 12
REMARK SMILES IDX 13 13 12 14 2 15 1 16 5 17 6 18 9 19 7 20 8 21 10 22 20 23
REMARK SMILES IDX 21 24 22 25 23 26 24 28 25 29 29 30 26 31 27 32 28 33 32 34
REMARK SMILES IDX 33 35 34 36 35 37 36 38 37 39
REMARK H PARENT 18 5 21 27
ROOT
ATOM      1  C   UNL     1     128.549 -15.731 162.657  1.00  0.00     0.326 C 
ATOM      2  O   UNL     1     129.514 -15.217 163.217  1.00  0.00    -0.250 OA
ENDROOT
BRANCH   1   3
ATOM      3  C   UNL     1     127.965 -17.088 163.036  1.00  0.00     0.198 C 
BRANCH   3   4
ATOM      4  N   UNL     1     128.757 -17.642 164.164  1.00  0.00    -0.195 NA
ATOM      5  H   UNL     1     129.422 -17.001 164.604  1.00  0.00     0.142 HD
BRANCH   4   6
ATOM      6  S   UNL     1     129.246 -19.234 164.125  1.00  0.00     0.241 S 
ATOM      7  O   UNL     1     128.129 -20.031 164.583  1.00  0.00    -0.207 OA
ATOM      8  O   UNL     1     129.876 -19.475 162.848  1.00  0.00    -0.207 OA
BRANCH   6   9
ATOM      9  C   UNL     1     130.517 -19.253 165.380  1.00  0.00     0.087 A 
ATOM     10  C   UNL     1     131.507 -18.242 165.466  1.00  0.00    -0.004 A 
ATOM     11  C   UNL     1     132.320 -18.220 166.625  1.00  0.00     0.048 A 
ATOM     12  C   UNL     1     132.244 -19.267 167.560  1.00  0.00     0.027 A 
ATOM     13  C   UNL     1     130.431 -20.270 166.344  1.00  0.00     0.022 A 
ATOM     14  C   UNL     1     131.316 -20.293 167.413  1.00  0.00     0.004 A 
BRANCH  10  15
ATOM     15  C   UNL     1     131.832 -17.348 164.279  1.00  0.00     0.036 C 
ATOM     16  C   UNL     1     132.897 -17.984 163.391  1.00  0.00     0.009 C 
ENDBRANCH  10  15
BRANCH  11  17
ATOM     17  N   UNL     1     133.165 -17.131 166.927  1.00  0.00    -0.312 N 
ATOM     18  C   UNL     1     132.715 -15.926 167.577  1.00  0.00     0.126 C 
ATOM     19  C   UNL     1     134.515 -17.062 166.568  1.00  0.00     0.227 C 
ATOM     20  C   UNL     1     133.803 -14.916 167.261  1.00  0.00     0.032 C 
ATOM     21  C   UNL     1     135.057 -15.765 167.113  1.00  0.00     0.102 C 
ATOM     22  O   UNL     1     135.169 -17.881 165.938  1.00  0.00    -0.275 OA
ENDBRANCH  11  17
ENDBRANCH   6   9
ENDBRANCH   4   6
ENDBRANCH   3   4
BRANCH   3  23
ATOM     23  C   UNL     1     126.472 -17.030 163.404  1.00  0.00     0.148 C 
BRANCH  23  24
ATOM     24  N   UNL     1     126.090 -15.931 164.276  1.00  0.00    -0.349 N 
ATOM     25  C   UNL     1     125.381 -14.841 163.825  1.00  0.00     0.261 C 
ATOM     26  O   UNL     1     125.018 -14.785 162.650  1.00  0.00    -0.268 OA
ATOM     27  H   UNL     1     126.296 -16.015 165.274  1.00  0.00     0.163 HD
BRANCH  25  28
ATOM     28  C   UNL     1     125.093 -13.790 164.787  1.00  0.00     0.093 A 
ATOM     29  C   UNL     1     124.227 -13.879 165.867  1.00  0.00     0.027 A 
ATOM     30  S   UNL     1     125.792 -12.226 164.695  1.00  0.00    -0.118 S 
ATOM     31  C   UNL     1     124.153 -12.667 166.617  1.00  0.00     0.033 A 
ATOM     32  C   UNL     1     124.963 -11.707 166.072  1.00  0.00     0.094 A 
ATOM     33  Cl  UNL     1     125.184 -10.104 166.645  1.00  0.00    -0.072 Cl
ENDBRANCH  25  28
ENDBRANCH  23  24
ENDBRANCH   3  23
ENDBRANCH   1   3
BRANCH   1  34
ATOM     34  O   UNL     1     127.907 -15.202 161.573  1.00  0.00    -0.459 OA
BRANCH  34  35
ATOM     35  C   UNL     1     128.743 -14.966 160.425  1.00  0.00     0.287 C 
BRANCH  35  36
ATOM     36  C   UNL     1     128.068 -15.367 159.120  1.00  0.00     0.316 C 
BRANCH  36  37
ATOM     37  S   UNL     1     128.390 -14.130 157.816  1.00  0.00    -0.053 S 
ATOM     38  C   UNL     1     127.466 -14.948 156.497  1.00  0.00     0.339 C 
ATOM     39  O   UNL     1     127.564 -12.749 158.216  1.00  0.00    -0.616 OA
ENDBRANCH  36  37
ENDBRANCH  35  36
ENDBRANCH  34  35
ENDBRANCH   1  34
TORSDOF 13
ENDMDL
MODEL 7
REMARK VINA RESULT:    -8.251      2.039      2.785
REMARK INTER + INTRA:         -15.831
REMARK INTER:                 -13.830
REMARK INTRA:                  -2.000
REMARK UNBOUND:                -1.309
REMARK SMILES CCc1c(N2CCCC2=O)cccc1S(=O)(=O)N[C@@H](CNC(=O)c1ccc(Cl)s1)C(=O)OCC[S@@+](C)[O-]
REMARK SMILES IDX 30 1 31 2 19 3 18 4 15 6 16 7 17 8 14 9 3 10 4 11 11 12
REMARK SMILES IDX 13 13 12 14 2 15 1 16 5 17 6 18 9 19 7 20 8 21 10 22 20 23
REMARK SMILES IDX 21 24 22 25 23 26 24 28 25 29 29 30 26 31 27 32 28 33 32 34
REMARK SMILES IDX 33 35 34 36 35 37 36 38 37 39
REMARK H PARENT 18 5 21 27
ROOT
ATOM      1  C   UNL     1     130.222 -14.291 162.298  1.00  0.00     0.326 C 
ATOM      2  O   UNL     1     131.256 -13.740 162.665  1.00  0.00    -0.250 OA
ENDROOT
BRANCH   1   3
ATOM      3  C   UNL     1     129.805 -15.695 162.722  1.00  0.00     0.198 C 
BRANCH   3   4
ATOM      4  N   UNL     1     130.411 -15.985 164.047  1.00  0.00    -0.195 NA
ATOM      5  H   UNL     1     130.952 -15.226 164.470  1.00  0.00     0.142 HD
BRANCH   4   6
ATOM      6  S   UNL     1     130.982 -17.515 164.376  1.00  0.00     0.241 S 
ATOM      7  O   UNL     1     129.902 -18.242 165.008  1.00  0.00    -0.207 OA
ATOM      8  O   UNL     1     131.636 -18.011 163.188  1.00  0.00    -0.207 OA
BRANCH   6   9
ATOM      9  C   UNL     1     132.239 -17.177 165.600  1.00  0.00     0.087 A 
ATOM     10  C   UNL     1     133.199 -18.147 165.982  1.00  0.00    -0.004 A 
ATOM     11  C   UNL     1     134.286 -17.711 166.780  1.00  0.00     0.048 A 
ATOM     12  C   UNL     1     134.302 -16.405 167.297  1.00  0.00     0.027 A 
ATOM     13  C   UNL     1     132.292 -15.866 166.098  1.00  0.00     0.022 A 
ATOM     14  C   UNL     1     133.304 -15.492 166.971  1.00  0.00     0.004 A 
BRANCH  10  15
ATOM     15  C   UNL     1     132.971 -19.630 165.734  1.00  0.00     0.036 C 
ATOM     16  C   UNL     1     132.148 -20.253 166.857  1.00  0.00     0.009 C 
ENDBRANCH  10  15
BRANCH  11  17
ATOM     17  N   UNL     1     135.414 -18.525 167.016  1.00  0.00    -0.312 N 
ATOM     18  C   UNL     1     136.495 -18.687 166.077  1.00  0.00     0.126 C 
ATOM     19  C   UNL     1     135.582 -19.322 168.153  1.00  0.00     0.227 C 
ATOM     20  C   UNL     1     137.188 -19.956 166.536  1.00  0.00     0.032 C 
ATOM     21  C   UNL     1     136.929 -19.990 168.036  1.00  0.00     0.102 C 
ATOM     22  O   UNL     1     134.810 -19.470 169.089  1.00  0.00    -0.275 OA
ENDBRANCH  11  17
ENDBRANCH   6   9
ENDBRANCH   4   6
ENDBRANCH   3   4
BRANCH   3  23
ATOM     23  C   UNL     1     128.279 -15.891 162.773  1.00  0.00     0.148 C 
BRANCH  23  24
ATOM     24  N   UNL     1     127.568 -14.993 163.669  1.00  0.00    -0.349 N 
ATOM     25  C   UNL     1     126.243 -14.668 163.489  1.00  0.00     0.261 C 
ATOM     26  O   UNL     1     125.605 -15.166 162.563  1.00  0.00    -0.268 OA
ATOM     27  H   UNL     1     128.058 -14.655 164.499  1.00  0.00     0.163 HD
BRANCH  25  28
ATOM     28  C   UNL     1     125.655 -13.730 164.431  1.00  0.00     0.093 A 
ATOM     29  C   UNL     1     124.611 -13.989 165.307  1.00  0.00     0.027 A 
ATOM     30  S   UNL     1     126.176 -12.101 164.571  1.00  0.00    -0.118 S 
ATOM     31  C   UNL     1     124.255 -12.853 166.094  1.00  0.00     0.033 A 
ATOM     32  C   UNL     1     125.041 -11.777 165.780  1.00  0.00     0.094 A 
ATOM     33  Cl  UNL     1     124.963 -10.210 166.476  1.00  0.00    -0.072 Cl
ENDBRANCH  25  28
ENDBRANCH  23  24
ENDBRANCH   3  23
ENDBRANCH   1   3
BRANCH   1  34
ATOM     34  O   UNL     1     129.334 -13.760 161.404  1.00  0.00    -0.459 OA
BRANCH  34  35
ATOM     35  C   UNL     1     129.629 -14.027 160.021  1.00  0.00     0.287 C 
BRANCH  35  36
ATOM     36  C   UNL     1     128.380 -14.344 159.209  1.00  0.00     0.316 C 
BRANCH  36  37
ATOM     37  S   UNL     1     128.552 -13.742 157.494  1.00  0.00    -0.053 S 
ATOM     38  C   UNL     1     127.595 -15.051 156.698  1.00  0.00     0.339 C 
ATOM     39  O   UNL     1     127.677 -12.339 157.361  1.00  0.00    -0.616 OA
ENDBRANCH  36  37
ENDBRANCH  35  36
ENDBRANCH  34  35
ENDBRANCH   1  34
TORSDOF 13
ENDMDL
MODEL 8
REMARK VINA RESULT:    -8.148      3.681      4.979
REMARK INTER + INTRA:         -15.650
REMARK INTER:                 -13.387
REMARK INTRA:                  -2.263
REMARK UNBOUND:                -1.309
REMARK SMILES CCc1c(N2CCCC2=O)cccc1S(=O)(=O)N[C@@H](CNC(=O)c1ccc(Cl)s1)C(=O)OCC[S@@+](C)[O-]
REMARK SMILES IDX 30 1 31 2 19 3 18 4 15 6 16 7 17 8 14 9 3 10 4 11 11 12
REMARK SMILES IDX 13 13 12 14 2 15 1 16 5 17 6 18 9 19 7 20 8 21 10 22 20 23
REMARK SMILES IDX 21 24 22 25 23 26 24 28 25 29 29 30 26 31 27 32 28 33 32 34
REMARK SMILES IDX 33 35 34 36 35 37 36 38 37 39
REMARK H PARENT 18 5 21 27
ROOT
ATOM      1  C   UNL     1     125.163 -19.562 163.251  1.00  0.00     0.326 C 
ATOM      2  O   UNL     1     124.279 -19.503 162.401  1.00  0.00    -0.250 OA
ENDROOT
BRANCH   1   3
ATOM      3  C   UNL     1     126.100 -18.407 163.589  1.00  0.00     0.198 C 
BRANCH   3   4
ATOM      4  N   UNL     1     127.475 -18.779 163.169  1.00  0.00    -0.195 NA
ATOM      5  H   UNL     1     127.553 -19.284 162.282  1.00  0.00     0.142 HD
BRANCH   4   6
ATOM      6  S   UNL     1     128.601 -19.212 164.318  1.00  0.00     0.241 S 
ATOM      7  O   UNL     1     127.889 -19.370 165.568  1.00  0.00    -0.207 OA
ATOM      8  O   UNL     1     129.413 -20.271 163.769  1.00  0.00    -0.207 OA
BRANCH   6   9
ATOM      9  C   UNL     1     129.606 -17.737 164.413  1.00  0.00     0.087 A 
ATOM     10  C   UNL     1     130.670 -17.608 165.341  1.00  0.00    -0.004 A 
ATOM     11  C   UNL     1     131.546 -16.507 165.182  1.00  0.00     0.048 A 
ATOM     12  C   UNL     1     131.255 -15.505 164.241  1.00  0.00     0.027 A 
ATOM     13  C   UNL     1     129.353 -16.744 163.455  1.00  0.00     0.022 A 
ATOM     14  C   UNL     1     130.158 -15.615 163.392  1.00  0.00     0.004 A 
BRANCH  10  15
ATOM     15  C   UNL     1     130.751 -18.485 166.581  1.00  0.00     0.036 C 
ATOM     16  C   UNL     1     130.328 -17.712 167.827  1.00  0.00     0.009 C 
ENDBRANCH  10  15
BRANCH  11  17
ATOM     17  N   UNL     1     132.764 -16.411 165.888  1.00  0.00    -0.312 N 
ATOM     18  C   UNL     1     133.015 -15.439 166.922  1.00  0.00     0.126 C 
ATOM     19  C   UNL     1     133.890 -17.197 165.620  1.00  0.00     0.227 C 
ATOM     20  C   UNL     1     134.528 -15.410 167.032  1.00  0.00     0.032 C 
ATOM     21  C   UNL     1     134.951 -16.813 166.620  1.00  0.00     0.102 C 
ATOM     22  O   UNL     1     134.024 -18.049 164.753  1.00  0.00    -0.275 OA
ENDBRANCH  11  17
ENDBRANCH   6   9
ENDBRANCH   4   6
ENDBRANCH   3   4
BRANCH   3  23
ATOM     23  C   UNL     1     125.683 -17.072 162.946  1.00  0.00     0.148 C 
BRANCH  23  24
ATOM     24  N   UNL     1     125.385 -15.999 163.881  1.00  0.00    -0.349 N 
ATOM     25  C   UNL     1     125.481 -14.670 163.535  1.00  0.00     0.261 C 
ATOM     26  O   UNL     1     125.800 -14.352 162.390  1.00  0.00    -0.268 OA
ATOM     27  H   UNL     1     125.020 -16.251 164.802  1.00  0.00     0.163 HD
BRANCH  25  28
ATOM     28  C   UNL     1     125.193 -13.691 164.570  1.00  0.00     0.093 A 
ATOM     29  C   UNL     1     124.327 -13.857 165.641  1.00  0.00     0.027 A 
ATOM     30  S   UNL     1     125.892 -12.124 164.591  1.00  0.00    -0.118 S 
ATOM     31  C   UNL     1     124.253 -12.702 166.476  1.00  0.00     0.033 A 
ATOM     32  C   UNL     1     125.063 -11.705 166.002  1.00  0.00     0.094 A 
ATOM     33  Cl  UNL     1     125.284 -10.148 166.689  1.00  0.00    -0.072 Cl
ENDBRANCH  25  28
ENDBRANCH  23  24
ENDBRANCH   3  23
ENDBRANCH   1   3
BRANCH   1  34
ATOM     34  O   UNL     1     125.484 -20.683 163.964  1.00  0.00    -0.459 OA
BRANCH  34  35
ATOM     35  C   UNL     1     125.259 -21.927 163.275  1.00  0.00     0.287 C 
BRANCH  35  36
ATOM     36  C   UNL     1     126.557 -22.642 162.923  1.00  0.00     0.316 C 
BRANCH  36  37
ATOM     37  S   UNL     1     127.008 -22.347 161.179  1.00  0.00    -0.053 S 
ATOM     38  C   UNL     1     125.340 -22.457 160.494  1.00  0.00     0.339 C 
ATOM     39  O   UNL     1     127.495 -20.767 161.044  1.00  0.00    -0.616 OA
ENDBRANCH  36  37
ENDBRANCH  35  36
ENDBRANCH  34  35
ENDBRANCH   1  34
TORSDOF 13
ENDMDL
MODEL 9
REMARK VINA RESULT:    -8.031      3.596      5.391
REMARK INTER + INTRA:         -15.444
REMARK INTER:                 -14.069
REMARK INTRA:                  -1.375
REMARK UNBOUND:                -1.309
REMARK SMILES CCc1c(N2CCCC2=O)cccc1S(=O)(=O)N[C@@H](CNC(=O)c1ccc(Cl)s1)C(=O)OCC[S@@+](C)[O-]
REMARK SMILES IDX 30 1 31 2 19 3 18 4 15 6 16 7 17 8 14 9 3 10 4 11 11 12
REMARK SMILES IDX 13 13 12 14 2 15 1 16 5 17 6 18 9 19 7 20 8 21 10 22 20 23
REMARK SMILES IDX 21 24 22 25 23 26 24 28 25 29 29 30 26 31 27 32 28 33 32 34
REMARK SMILES IDX 33 35 34 36 35 37 36 38 37 39
REMARK H PARENT 18 5 21 27
ROOT
ATOM      1  C   UNL     1     126.411 -19.749 162.653  1.00  0.00     0.326 C 
ATOM      2  O   UNL     1     126.452 -19.597 161.435  1.00  0.00    -0.250 OA
ENDROOT
BRANCH   1   3
ATOM      3  C   UNL     1     126.240 -18.607 163.650  1.00  0.00     0.198 C 
BRANCH   3   4
ATOM      4  N   UNL     1     127.486 -18.490 164.449  1.00  0.00    -0.195 NA
ATOM      5  H   UNL     1     127.365 -18.358 165.456  1.00  0.00     0.142 HD
BRANCH   4   6
ATOM      6  S   UNL     1     128.812 -17.717 163.799  1.00  0.00     0.241 S 
ATOM      7  O   UNL     1     129.065 -18.323 162.510  1.00  0.00    -0.207 OA
ATOM      8  O   UNL     1     128.613 -16.294 163.943  1.00  0.00    -0.207 OA
BRANCH   6   9
ATOM      9  C   UNL     1     130.107 -18.211 164.928  1.00  0.00     0.087 A 
ATOM     10  C   UNL     1     131.201 -17.365 165.237  1.00  0.00    -0.004 A 
ATOM     11  C   UNL     1     132.042 -17.749 166.310  1.00  0.00     0.048 A 
ATOM     12  C   UNL     1     131.879 -19.005 166.919  1.00  0.00     0.027 A 
ATOM     13  C   UNL     1     129.938 -19.446 165.574  1.00  0.00     0.022 A 
ATOM     14  C   UNL     1     130.843 -19.854 166.544  1.00  0.00     0.004 A 
BRANCH  10  15
ATOM     15  C   UNL     1     131.588 -16.207 164.330  1.00  0.00     0.036 C 
ATOM     16  C   UNL     1     132.539 -16.669 163.229  1.00  0.00     0.009 C 
ENDBRANCH  10  15
BRANCH  11  17
ATOM     17  N   UNL     1     133.006 -16.875 166.856  1.00  0.00    -0.312 N 
ATOM     18  C   UNL     1     132.705 -15.866 167.840  1.00  0.00     0.126 C 
ATOM     19  C   UNL     1     134.346 -16.836 166.456  1.00  0.00     0.227 C 
ATOM     20  C   UNL     1     133.886 -14.916 167.757  1.00  0.00     0.032 C 
ATOM     21  C   UNL     1     135.038 -15.804 167.310  1.00  0.00     0.102 C 
ATOM     22  O   UNL     1     134.892 -17.502 165.587  1.00  0.00    -0.275 OA
ENDBRANCH  11  17
ENDBRANCH   6   9
ENDBRANCH   4   6
ENDBRANCH   3   4
BRANCH   3  23
ATOM     23  C   UNL     1     125.897 -17.261 162.986  1.00  0.00     0.148 C 
BRANCH  23  24
ATOM     24  N   UNL     1     125.548 -16.188 163.903  1.00  0.00    -0.349 N 
ATOM     25  C   UNL     1     125.510 -14.868 163.515  1.00  0.00     0.261 C 
ATOM     26  O   UNL     1     125.745 -14.562 162.346  1.00  0.00    -0.268 OA
ATOM     27  H   UNL     1     125.250 -16.440 164.847  1.00  0.00     0.163 HD
BRANCH  25  28
ATOM     28  C   UNL     1     125.183 -13.884 164.534  1.00  0.00     0.093 A 
ATOM     29  C   UNL     1     124.299 -14.055 165.589  1.00  0.00     0.027 A 
ATOM     30  S   UNL     1     125.854 -12.305 164.551  1.00  0.00    -0.118 S 
ATOM     31  C   UNL     1     124.188 -12.894 166.410  1.00  0.00     0.033 A 
ATOM     32  C   UNL     1     124.989 -11.887 165.941  1.00  0.00     0.094 A 
ATOM     33  Cl  UNL     1     125.169 -10.319 166.617  1.00  0.00    -0.072 Cl
ENDBRANCH  25  28
ENDBRANCH  23  24
ENDBRANCH   3  23
ENDBRANCH   1   3
BRANCH   1  34
ATOM     34  O   UNL     1     126.584 -20.943 163.294  1.00  0.00    -0.459 OA
BRANCH  34  35
ATOM     35  C   UNL     1     125.369 -21.600 163.697  1.00  0.00     0.287 C 
BRANCH  35  36
ATOM     36  C   UNL     1     125.435 -23.111 163.517  1.00  0.00     0.316 C 
BRANCH  36  37
ATOM     37  S   UNL     1     125.183 -23.568 161.768  1.00  0.00    -0.053 S 
ATOM     38  C   UNL     1     123.938 -22.315 161.386  1.00  0.00     0.339 C 
ATOM     39  O   UNL     1     126.561 -23.166 160.937  1.00  0.00    -0.616 OA
ENDBRANCH  36  37
ENDBRANCH  35  36
ENDBRANCH  34  35
ENDBRANCH   1  34
TORSDOF 13
ENDMDL
