MODEL 1
REMARK VINA RESULT:    -9.987      0.000      0.000
REMARK INTER + INTRA:         -15.023
REMARK INTER:                 -14.074
REMARK INTRA:                  -0.949
REMARK UNBOUND:                -0.949
REMARK SMILES CCOC(=O)C(C)(C)c1ccc2c(C)cc(Oc3ccc(C(=N)N)cc3)nc2c1
REMARK SMILES IDX 9 1 10 2 11 3 12 4 13 5 14 6 15 7 16 8 27 9 28 10 29 11 6 12
REMARK SMILES IDX 7 13 8 14 4 15 5 16 3 17 2 18 1 19 17 20 18 21 19 22 26 23
REMARK SMILES IDX 20 24 25 25 21 26 22 27 23 28 24 29
REMARK H PARENT 23 30 24 31 24 32
ROOT
ATOM      1  C   UNL     1      -4.486  10.118  20.355  1.00  0.00    -0.029 A 
ATOM      2  C   UNL     1      -3.484  10.705  19.579  1.00  0.00     0.005 A 
ATOM      3  C   UNL     1      -2.351  11.264  20.179  1.00  0.00     0.011 A 
ATOM      4  C   UNL     1      -2.182  11.259  21.579  1.00  0.00     0.003 A 
ATOM      5  C   UNL     1      -1.058  11.816  22.239  1.00  0.00    -0.036 A 
ATOM      6  C   UNL     1       0.068  12.472  21.488  1.00  0.00     0.045 C 
ATOM      7  C   UNL     1      -0.996  11.752  23.633  1.00  0.00     0.073 A 
ATOM      8  C   UNL     1      -2.031  11.141  24.316  1.00  0.00     0.220 A 
ATOM      9  N   UNL     1      -3.117  10.613  23.714  1.00  0.00    -0.213 NA
ATOM     10  C   UNL     1      -3.185  10.667  22.376  1.00  0.00     0.075 A 
ATOM     11  C   UNL     1      -4.299  10.117  21.754  1.00  0.00     0.034 A 
ENDROOT
BRANCH   1  12
ATOM     12  C   UNL     1      -5.762   9.493  19.755  1.00  0.00     0.087 C 
ATOM     13  C   UNL     1      -6.731  10.524  19.138  1.00  0.00     0.028 C 
ATOM     14  C   UNL     1      -6.513   8.760  20.889  1.00  0.00     0.028 C 
BRANCH  12  15
ATOM     15  C   UNL     1      -5.402   8.532  18.601  1.00  0.00     0.315 C 
ATOM     16  O   UNL     1      -5.494   8.803  17.409  1.00  0.00    -0.251 OA
BRANCH  15  17
ATOM     17  O   UNL     1      -5.035   7.304  19.072  1.00  0.00    -0.465 OA
BRANCH  17  18
ATOM     18  C   UNL     1      -5.040   6.265  18.085  1.00  0.00     0.229 C 
ATOM     19  C   UNL     1      -6.290   5.431  18.284  1.00  0.00     0.049 C 
ENDBRANCH  17  18
ENDBRANCH  15  17
ENDBRANCH  12  15
ENDBRANCH   1  12
BRANCH   8  20
ATOM     20  O   UNL     1      -1.926  11.131  25.703  1.00  0.00    -0.439 OA
BRANCH  20  21
ATOM     21  C   UNL     1      -1.636   9.924  26.293  1.00  0.00     0.129 A 
ATOM     22  C   UNL     1      -2.432   9.406  27.316  1.00  0.00     0.048 A 
ATOM     23  C   UNL     1      -0.569   9.185  25.780  1.00  0.00     0.048 A 
ATOM     24  C   UNL     1      -2.135   8.154  27.858  1.00  0.00     0.016 A 
ATOM     25  C   UNL     1      -0.271   7.933  26.319  1.00  0.00     0.016 A 
ATOM     26  C   UNL     1      -1.054   7.417  27.360  1.00  0.00     0.016 A 
BRANCH  26  27
ATOM     27  C   UNL     1      -0.732   6.091  27.947  1.00  0.00     0.122 C 
ATOM     28  N   UNL     1      -0.318   5.097  27.228  1.00  0.00    -0.284 NA
ATOM     29  N   UNL     1      -0.863   5.883  29.280  1.00  0.00    -0.384 N 
ATOM     30  H   UNL     1      -0.291   5.349  26.236  1.00  0.00     0.189 HD
ATOM     31  H   UNL     1      -1.076   6.618  29.937  1.00  0.00     0.158 HD
ATOM     32  H   UNL     1      -0.614   4.968  29.631  1.00  0.00     0.158 HD
ENDBRANCH  26  27
ENDBRANCH  20  21
ENDBRANCH   8  20
TORSDOF 7
ENDMDL
MODEL 2
REMARK VINA RESULT:    -9.320      1.742      2.393
REMARK INTER + INTRA:         -14.083
REMARK INTER:                 -12.970
REMARK INTRA:                  -1.113
REMARK UNBOUND:                -0.949
REMARK SMILES CCOC(=O)C(C)(C)c1ccc2c(C)cc(Oc3ccc(C(=N)N)cc3)nc2c1
REMARK SMILES IDX 9 1 10 2 11 3 12 4 13 5 14 6 15 7 16 8 27 9 28 10 29 11 6 12
REMARK SMILES IDX 7 13 8 14 4 15 5 16 3 17 2 18 1 19 17 20 18 21 19 22 26 23
REMARK SMILES IDX 20 24 25 25 21 26 22 27 23 28 24 29
REMARK H PARENT 23 30 24 31 24 32
ROOT
ATOM      1  C   UNL     1      -5.934  10.647  20.685  1.00  0.00    -0.029 A 
ATOM      2  C   UNL     1      -6.619  11.859  20.806  1.00  0.00     0.005 A 
ATOM      3  C   UNL     1      -6.140  12.868  21.648  1.00  0.00     0.011 A 
ATOM      4  C   UNL     1      -4.960  12.699  22.401  1.00  0.00     0.003 A 
ATOM      5  C   UNL     1      -4.434  13.685  23.273  1.00  0.00    -0.036 A 
ATOM      6  C   UNL     1      -5.103  15.018  23.471  1.00  0.00     0.045 C 
ATOM      7  C   UNL     1      -3.255  13.409  23.969  1.00  0.00     0.073 A 
ATOM      8  C   UNL     1      -2.642  12.185  23.775  1.00  0.00     0.220 A 
ATOM      9  N   UNL     1      -3.126  11.224  22.961  1.00  0.00    -0.213 NA
ATOM     10  C   UNL     1      -4.256  11.481  22.287  1.00  0.00     0.075 A 
ATOM     11  C   UNL     1      -4.753  10.496  21.441  1.00  0.00     0.034 A 
ENDROOT
BRANCH   1  12
ATOM     12  C   UNL     1      -6.415   9.492  19.781  1.00  0.00     0.087 C 
ATOM     13  C   UNL     1      -7.450   9.921  18.719  1.00  0.00     0.028 C 
ATOM     14  C   UNL     1      -7.077   8.426  20.682  1.00  0.00     0.028 C 
BRANCH  12  15
ATOM     15  C   UNL     1      -5.232   8.903  18.982  1.00  0.00     0.315 C 
ATOM     16  O   UNL     1      -4.609   9.499  18.111  1.00  0.00    -0.251 OA
BRANCH  15  17
ATOM     17  O   UNL     1      -5.008   7.598  19.315  1.00  0.00    -0.465 OA
BRANCH  17  18
ATOM     18  C   UNL     1      -4.993   6.697  18.200  1.00  0.00     0.229 C 
ATOM     19  C   UNL     1      -6.156   5.737  18.356  1.00  0.00     0.049 C 
ENDBRANCH  17  18
ENDBRANCH  15  17
ENDBRANCH  12  15
ENDBRANCH   1  12
BRANCH   8  20
ATOM     20  O   UNL     1      -1.486  11.957  24.515  1.00  0.00    -0.439 OA
BRANCH  20  21
ATOM     21  C   UNL     1      -1.429  10.783  25.227  1.00  0.00     0.129 A 
ATOM     22  C   UNL     1      -0.411   9.852  25.011  1.00  0.00     0.048 A 
ATOM     23  C   UNL     1      -2.371  10.583  26.237  1.00  0.00     0.048 A 
ATOM     24  C   UNL     1      -0.357   8.693  25.787  1.00  0.00     0.016 A 
ATOM     25  C   UNL     1      -2.319   9.424  27.014  1.00  0.00     0.016 A 
ATOM     26  C   UNL     1      -1.311   8.478  26.788  1.00  0.00     0.016 A 
BRANCH  26  27
ATOM     27  C   UNL     1      -1.259   7.237  27.603  1.00  0.00     0.122 C 
ATOM     28  N   UNL     1      -1.675   7.195  28.829  1.00  0.00    -0.284 NA
ATOM     29  N   UNL     1      -0.769   6.091  27.073  1.00  0.00    -0.384 N 
ATOM     30  H   UNL     1      -1.989   8.118  29.141  1.00  0.00     0.189 HD
ATOM     31  H   UNL     1      -0.519   5.992  26.101  1.00  0.00     0.158 HD
ATOM     32  H   UNL     1      -0.772   5.270  27.665  1.00  0.00     0.158 HD
ENDBRANCH  26  27
ENDBRANCH  20  21
ENDBRANCH   8  20
TORSDOF 7
ENDMDL
MODEL 3
REMARK VINA RESULT:    -9.200      1.071      1.943
REMARK INTER + INTRA:         -13.914
REMARK INTER:                 -12.684
REMARK INTRA:                  -1.230
REMARK UNBOUND:                -0.949
REMARK SMILES CCOC(=O)C(C)(C)c1ccc2c(C)cc(Oc3ccc(C(=N)N)cc3)nc2c1
REMARK SMILES IDX 9 1 10 2 11 3 12 4 13 5 14 6 15 7 16 8 27 9 28 10 29 11 6 12
REMARK SMILES IDX 7 13 8 14 4 15 5 16 3 17 2 18 1 19 17 20 18 21 19 22 26 23
REMARK SMILES IDX 20 24 25 25 21 26 22 27 23 28 24 29
REMARK H PARENT 23 30 24 31 24 32
ROOT
ATOM      1  C   UNL     1      -4.752   9.873  20.343  1.00  0.00    -0.029 A 
ATOM      2  C   UNL     1      -3.891  10.562  19.485  1.00  0.00     0.005 A 
ATOM      3  C   UNL     1      -2.765  11.225  19.985  1.00  0.00     0.011 A 
ATOM      4  C   UNL     1      -2.462  11.224  21.362  1.00  0.00     0.003 A 
ATOM      5  C   UNL     1      -1.340  11.884  21.922  1.00  0.00    -0.036 A 
ATOM      6  C   UNL     1      -0.361  12.654  21.080  1.00  0.00     0.045 C 
ATOM      7  C   UNL     1      -1.138  11.815  23.302  1.00  0.00     0.073 A 
ATOM      8  C   UNL     1      -2.038  11.099  24.069  1.00  0.00     0.220 A 
ATOM      9  N   UNL     1      -3.121  10.472  23.565  1.00  0.00    -0.213 NA
ATOM     10  C   UNL     1      -3.322  10.530  22.240  1.00  0.00     0.075 A 
ATOM     11  C   UNL     1      -4.432   9.878  21.717  1.00  0.00     0.034 A 
ENDROOT
BRANCH   1  12
ATOM     12  C   UNL     1      -6.013   9.130  19.855  1.00  0.00     0.087 C 
ATOM     13  C   UNL     1      -7.056   8.878  20.964  1.00  0.00     0.028 C 
ATOM     14  C   UNL     1      -5.573   7.756  19.301  1.00  0.00     0.028 C 
BRANCH  12  15
ATOM     15  C   UNL     1      -6.751   9.962  18.784  1.00  0.00     0.315 C 
ATOM     16  O   UNL     1      -7.403  10.974  19.010  1.00  0.00    -0.251 OA
BRANCH  15  17
ATOM     17  O   UNL     1      -6.649   9.387  17.549  1.00  0.00    -0.465 OA
BRANCH  17  18
ATOM     18  C   UNL     1      -6.384  10.311  16.486  1.00  0.00     0.229 C 
ATOM     19  C   UNL     1      -4.981  10.051  15.975  1.00  0.00     0.049 C 
ENDBRANCH  17  18
ENDBRANCH  15  17
ENDBRANCH  12  15
ENDBRANCH   1  12
BRANCH   8  20
ATOM     20  O   UNL     1      -1.800  11.088  25.440  1.00  0.00    -0.439 OA
BRANCH  20  21
ATOM     21  C   UNL     1      -1.532   9.868  26.011  1.00  0.00     0.129 A 
ATOM     22  C   UNL     1      -0.448   9.093  25.595  1.00  0.00     0.048 A 
ATOM     23  C   UNL     1      -2.326   9.459  27.084  1.00  0.00     0.048 A 
ATOM     24  C   UNL     1      -0.178   7.880  26.231  1.00  0.00     0.016 A 
ATOM     25  C   UNL     1      -2.058   8.247  27.723  1.00  0.00     0.016 A 
ATOM     26  C   UNL     1      -0.984   7.457  27.296  1.00  0.00     0.016 A 
BRANCH  26  27
ATOM     27  C   UNL     1      -0.702   6.159  27.963  1.00  0.00     0.122 C 
ATOM     28  N   UNL     1      -0.296   5.118  27.308  1.00  0.00    -0.284 NA
ATOM     29  N   UNL     1      -0.861   6.030  29.302  1.00  0.00    -0.384 N 
ATOM     30  H   UNL     1      -0.245   5.313  26.304  1.00  0.00     0.189 HD
ATOM     31  H   UNL     1      -1.070   6.805  29.912  1.00  0.00     0.158 HD
ATOM     32  H   UNL     1      -0.639   5.130  29.708  1.00  0.00     0.158 HD
ENDBRANCH  26  27
ENDBRANCH  20  21
ENDBRANCH   8  20
TORSDOF 7
ENDMDL
MODEL 4
REMARK VINA RESULT:    -8.970      1.499      2.094
REMARK INTER + INTRA:         -13.589
REMARK INTER:                 -12.823
REMARK INTRA:                  -0.766
REMARK UNBOUND:                -0.949
REMARK SMILES CCOC(=O)C(C)(C)c1ccc2c(C)cc(Oc3ccc(C(=N)N)cc3)nc2c1
REMARK SMILES IDX 9 1 10 2 11 3 12 4 13 5 14 6 15 7 16 8 27 9 28 10 29 11 6 12
REMARK SMILES IDX 7 13 8 14 4 15 5 16 3 17 2 18 1 19 17 20 18 21 19 22 26 23
REMARK SMILES IDX 20 24 25 25 21 26 22 27 23 28 24 29
REMARK H PARENT 23 30 24 31 24 32
ROOT
ATOM      1  C   UNL     1      -5.069   9.919  19.877  1.00  0.00    -0.029 A 
ATOM      2  C   UNL     1      -4.937  11.088  19.123  1.00  0.00     0.005 A 
ATOM      3  C   UNL     1      -3.901  11.992  19.383  1.00  0.00     0.011 A 
ATOM      4  C   UNL     1      -2.963  11.760  20.410  1.00  0.00     0.003 A 
ATOM      5  C   UNL     1      -1.900  12.645  20.720  1.00  0.00    -0.036 A 
ATOM      6  C   UNL     1      -1.680  13.928  19.967  1.00  0.00     0.045 C 
ATOM      7  C   UNL     1      -1.028  12.312  21.759  1.00  0.00     0.073 A 
ATOM      8  C   UNL     1      -1.233  11.127  22.442  1.00  0.00     0.220 A 
ATOM      9  N   UNL     1      -2.242  10.273  22.176  1.00  0.00    -0.213 NA
ATOM     10  C   UNL     1      -3.083  10.583  21.179  1.00  0.00     0.075 A 
ATOM     11  C   UNL     1      -4.119   9.700  20.897  1.00  0.00     0.034 A 
ENDROOT
BRANCH   1  12
ATOM     12  C   UNL     1      -6.193   8.888  19.646  1.00  0.00     0.087 C 
ATOM     13  C   UNL     1      -7.323   9.392  18.723  1.00  0.00     0.028 C 
ATOM     14  C   UNL     1      -6.819   8.549  21.017  1.00  0.00     0.028 C 
BRANCH  12  15
ATOM     15  C   UNL     1      -5.634   7.626  18.952  1.00  0.00     0.315 C 
ATOM     16  O   UNL     1      -4.583   7.579  18.324  1.00  0.00    -0.251 OA
BRANCH  15  17
ATOM     17  O   UNL     1      -6.498   6.574  19.060  1.00  0.00    -0.465 OA
BRANCH  17  18
ATOM     18  C   UNL     1      -6.782   5.910  17.822  1.00  0.00     0.229 C 
ATOM     19  C   UNL     1      -6.817   4.418  18.085  1.00  0.00     0.049 C 
ENDBRANCH  17  18
ENDBRANCH  15  17
ENDBRANCH  12  15
ENDBRANCH   1  12
BRANCH   8  20
ATOM     20  O   UNL     1      -0.349  10.863  23.484  1.00  0.00    -0.439 OA
BRANCH  20  21
ATOM     21  C   UNL     1      -0.867  10.230  24.589  1.00  0.00     0.129 A 
ATOM     22  C   UNL     1      -0.310   9.045  25.075  1.00  0.00     0.048 A 
ATOM     23  C   UNL     1      -1.915  10.852  25.267  1.00  0.00     0.048 A 
ATOM     24  C   UNL     1      -0.832   8.457  26.228  1.00  0.00     0.016 A 
ATOM     25  C   UNL     1      -2.439  10.266  26.421  1.00  0.00     0.016 A 
ATOM     26  C   UNL     1      -1.897   9.067  26.901  1.00  0.00     0.016 A 
BRANCH  26  27
ATOM     27  C   UNL     1      -2.459   8.431  28.121  1.00  0.00     0.122 C 
ATOM     28  N   UNL     1      -1.848   7.477  28.749  1.00  0.00    -0.284 NA
ATOM     29  N   UNL     1      -3.648   8.845  28.622  1.00  0.00    -0.384 N 
ATOM     30  H   UNL     1      -0.983   7.218  28.268  1.00  0.00     0.189 HD
ATOM     31  H   UNL     1      -4.148   9.647  28.271  1.00  0.00     0.158 HD
ATOM     32  H   UNL     1      -3.977   8.392  29.465  1.00  0.00     0.158 HD
ENDBRANCH  26  27
ENDBRANCH  20  21
ENDBRANCH   8  20
TORSDOF 7
ENDMDL
MODEL 5
REMARK VINA RESULT:    -8.871      1.262      2.214
REMARK INTER + INTRA:         -13.449
REMARK INTER:                 -12.397
REMARK INTRA:                  -1.053
REMARK UNBOUND:                -0.949
REMARK SMILES CCOC(=O)C(C)(C)c1ccc2c(C)cc(Oc3ccc(C(=N)N)cc3)nc2c1
REMARK SMILES IDX 9 1 10 2 11 3 12 4 13 5 14 6 15 7 16 8 27 9 28 10 29 11 6 12
REMARK SMILES IDX 7 13 8 14 4 15 5 16 3 17 2 18 1 19 17 20 18 21 19 22 26 23
REMARK SMILES IDX 20 24 25 25 21 26 22 27 23 28 24 29
REMARK H PARENT 23 30 24 31 24 32
ROOT
ATOM      1  C   UNL     1      -5.029   9.635  20.324  1.00  0.00    -0.029 A 
ATOM      2  C   UNL     1      -4.206  10.279  19.397  1.00  0.00     0.005 A 
ATOM      3  C   UNL     1      -3.092  11.012  19.820  1.00  0.00     0.011 A 
ATOM      4  C   UNL     1      -2.764  11.130  21.186  1.00  0.00     0.003 A 
ATOM      5  C   UNL     1      -1.653  11.865  21.669  1.00  0.00    -0.036 A 
ATOM      6  C   UNL     1      -0.714  12.594  20.748  1.00  0.00     0.045 C 
ATOM      7  C   UNL     1      -1.422  11.912  23.046  1.00  0.00     0.073 A 
ATOM      8  C   UNL     1      -2.286  11.232  23.885  1.00  0.00     0.220 A 
ATOM      9  N   UNL     1      -3.357  10.535  23.454  1.00  0.00    -0.213 NA
ATOM     10  C   UNL     1      -3.585  10.483  22.134  1.00  0.00     0.075 A 
ATOM     11  C   UNL     1      -4.683   9.758  21.687  1.00  0.00     0.034 A 
ENDROOT
BRANCH   1  12
ATOM     12  C   UNL     1      -6.275   8.818  19.924  1.00  0.00     0.087 C 
ATOM     13  C   UNL     1      -7.164   8.410  21.118  1.00  0.00     0.028 C 
ATOM     14  C   UNL     1      -5.795   7.525  19.229  1.00  0.00     0.028 C 
BRANCH  12  15
ATOM     15  C   UNL     1      -7.192   9.649  19.000  1.00  0.00     0.315 C 
ATOM     16  O   UNL     1      -7.388   9.416  17.813  1.00  0.00    -0.251 OA
BRANCH  15  17
ATOM     17  O   UNL     1      -7.708  10.732  19.654  1.00  0.00    -0.465 OA
BRANCH  17  18
ATOM     18  C   UNL     1      -8.856  11.313  19.023  1.00  0.00     0.229 C 
ATOM     19  C   UNL     1      -9.994  11.314  20.024  1.00  0.00     0.049 C 
ENDBRANCH  17  18
ENDBRANCH  15  17
ENDBRANCH  12  15
ENDBRANCH   1  12
BRANCH   8  20
ATOM     20  O   UNL     1      -2.021  11.337  25.247  1.00  0.00    -0.439 OA
BRANCH  20  21
ATOM     21  C   UNL     1      -1.737  10.169  25.913  1.00  0.00     0.129 A 
ATOM     22  C   UNL     1      -2.554   9.705  26.946  1.00  0.00     0.048 A 
ATOM     23  C   UNL     1      -0.653   9.410  25.470  1.00  0.00     0.048 A 
ATOM     24  C   UNL     1      -2.262   8.490  27.567  1.00  0.00     0.016 A 
ATOM     25  C   UNL     1      -0.359   8.194  26.090  1.00  0.00     0.016 A 
ATOM     26  C   UNL     1      -1.163   7.734  27.140  1.00  0.00     0.016 A 
BRANCH  26  27
ATOM     27  C   UNL     1      -0.847   6.447  27.812  1.00  0.00     0.122 C 
ATOM     28  N   UNL     1      -0.466   5.398  27.154  1.00  0.00    -0.284 NA
ATOM     29  N   UNL     1      -0.947   6.336  29.158  1.00  0.00    -0.384 N 
ATOM     30  H   UNL     1      -0.460   5.579  26.147  1.00  0.00     0.189 HD
ATOM     31  H   UNL     1      -1.133   7.119  29.767  1.00  0.00     0.158 HD
ATOM     32  H   UNL     1      -0.703   5.443  29.567  1.00  0.00     0.158 HD
ENDBRANCH  26  27
ENDBRANCH  20  21
ENDBRANCH   8  20
TORSDOF 7
ENDMDL
MODEL 6
REMARK VINA RESULT:    -8.676      1.748      2.894
REMARK INTER + INTRA:         -13.175
REMARK INTER:                 -11.958
REMARK INTRA:                  -1.217
REMARK UNBOUND:                -0.949
REMARK SMILES CCOC(=O)C(C)(C)c1ccc2c(C)cc(Oc3ccc(C(=N)N)cc3)nc2c1
REMARK SMILES IDX 9 1 10 2 11 3 12 4 13 5 14 6 15 7 16 8 27 9 28 10 29 11 6 12
REMARK SMILES IDX 7 13 8 14 4 15 5 16 3 17 2 18 1 19 17 20 18 21 19 22 26 23
REMARK SMILES IDX 20 24 25 25 21 26 22 27 23 28 24 29
REMARK H PARENT 23 30 24 31 24 32
ROOT
ATOM      1  C   UNL     1      -5.490  10.471  20.834  1.00  0.00    -0.029 A 
ATOM      2  C   UNL     1      -6.245  11.615  21.105  1.00  0.00     0.005 A 
ATOM      3  C   UNL     1      -5.840  12.519  22.092  1.00  0.00     0.011 A 
ATOM      4  C   UNL     1      -4.667  12.310  22.846  1.00  0.00     0.003 A 
ATOM      5  C   UNL     1      -4.215  13.190  23.861  1.00  0.00    -0.036 A 
ATOM      6  C   UNL     1      -4.962  14.443  24.226  1.00  0.00     0.045 C 
ATOM      7  C   UNL     1      -3.035  12.883  24.542  1.00  0.00     0.073 A 
ATOM      8  C   UNL     1      -2.350  11.733  24.196  1.00  0.00     0.220 A 
ATOM      9  N   UNL     1      -2.763  10.873  23.242  1.00  0.00    -0.213 NA
ATOM     10  C   UNL     1      -3.893  11.161  22.581  1.00  0.00     0.075 A 
ATOM     11  C   UNL     1      -4.316  10.280  21.593  1.00  0.00     0.034 A 
ENDROOT
BRANCH   1  12
ATOM     12  C   UNL     1      -5.886   9.432  19.765  1.00  0.00     0.087 C 
ATOM     13  C   UNL     1      -6.929   8.403  20.252  1.00  0.00     0.028 C 
ATOM     14  C   UNL     1      -4.613   8.656  19.358  1.00  0.00     0.028 C 
BRANCH  12  15
ATOM     15  C   UNL     1      -6.537  10.127  18.550  1.00  0.00     0.315 C 
ATOM     16  O   UNL     1      -5.953  10.875  17.774  1.00  0.00    -0.251 OA
BRANCH  15  17
ATOM     17  O   UNL     1      -7.876   9.863  18.483  1.00  0.00    -0.465 OA
BRANCH  17  18
ATOM     18  C   UNL     1      -8.699  11.021  18.299  1.00  0.00     0.229 C 
ATOM     19  C   UNL     1      -9.663  11.104  19.466  1.00  0.00     0.049 C 
ENDBRANCH  17  18
ENDBRANCH  15  17
ENDBRANCH  12  15
ENDBRANCH   1  12
BRANCH   8  20
ATOM     20  O   UNL     1      -1.196  11.466  24.927  1.00  0.00    -0.439 OA
BRANCH  20  21
ATOM     21  C   UNL     1      -1.132  10.246  25.555  1.00  0.00     0.129 A 
ATOM     22  C   UNL     1      -0.148   9.311  25.225  1.00  0.00     0.048 A 
ATOM     23  C   UNL     1      -2.025   9.998  26.597  1.00  0.00     0.048 A 
ATOM     24  C   UNL     1      -0.083   8.101  25.918  1.00  0.00     0.016 A 
ATOM     25  C   UNL     1      -1.962   8.789  27.293  1.00  0.00     0.016 A 
ATOM     26  C   UNL     1      -0.990   7.839  26.952  1.00  0.00     0.016 A 
BRANCH  26  27
ATOM     27  C   UNL     1      -0.927   6.544  27.679  1.00  0.00     0.122 C 
ATOM     28  N   UNL     1      -0.545   5.447  27.106  1.00  0.00    -0.284 NA
ATOM     29  N   UNL     1      -1.269   6.478  28.988  1.00  0.00    -0.384 N 
ATOM     30  H   UNL     1      -0.346   5.602  26.114  1.00  0.00     0.189 HD
ATOM     31  H   UNL     1      -1.477   7.290  29.548  1.00  0.00     0.158 HD
ATOM     32  H   UNL     1      -1.191   5.576  29.440  1.00  0.00     0.158 HD
ENDBRANCH  26  27
ENDBRANCH  20  21
ENDBRANCH   8  20
TORSDOF 7
ENDMDL
MODEL 7
REMARK VINA RESULT:    -8.648      1.864      2.756
REMARK INTER + INTRA:         -13.136
REMARK INTER:                 -12.071
REMARK INTRA:                  -1.065
REMARK UNBOUND:                -0.949
REMARK SMILES CCOC(=O)C(C)(C)c1ccc2c(C)cc(Oc3ccc(C(=N)N)cc3)nc2c1
REMARK SMILES IDX 9 1 10 2 11 3 12 4 13 5 14 6 15 7 16 8 27 9 28 10 29 11 6 12
REMARK SMILES IDX 7 13 8 14 4 15 5 16 3 17 2 18 1 19 17 20 18 21 19 22 26 23
REMARK SMILES IDX 20 24 25 25 21 26 22 27 23 28 24 29
REMARK H PARENT 23 30 24 31 24 32
ROOT
ATOM      1  C   UNL     1      -4.911   9.613  19.191  1.00  0.00    -0.029 A 
ATOM      2  C   UNL     1      -5.201  10.929  18.824  1.00  0.00     0.005 A 
ATOM      3  C   UNL     1      -4.507  11.999  19.399  1.00  0.00     0.011 A 
ATOM      4  C   UNL     1      -3.500  11.790  20.364  1.00  0.00     0.003 A 
ATOM      5  C   UNL     1      -2.772  12.837  20.982  1.00  0.00    -0.036 A 
ATOM      6  C   UNL     1      -3.015  14.284  20.654  1.00  0.00     0.045 C 
ATOM      7  C   UNL     1      -1.794  12.512  21.925  1.00  0.00     0.073 A 
ATOM      8  C   UNL     1      -1.571  11.178  22.215  1.00  0.00     0.220 A 
ATOM      9  N   UNL     1      -2.257  10.163  21.651  1.00  0.00    -0.213 NA
ATOM     10  C   UNL     1      -3.195  10.465  20.743  1.00  0.00     0.075 A 
ATOM     11  C   UNL     1      -3.898   9.421  20.154  1.00  0.00     0.034 A 
ENDROOT
BRANCH   1  12
ATOM     12  C   UNL     1      -5.646   8.391  18.602  1.00  0.00     0.087 C 
ATOM     13  C   UNL     1      -6.961   8.041  19.331  1.00  0.00     0.028 C 
ATOM     14  C   UNL     1      -4.706   7.170  18.712  1.00  0.00     0.028 C 
BRANCH  12  15
ATOM     15  C   UNL     1      -6.053   8.660  17.137  1.00  0.00     0.315 C 
ATOM     16  O   UNL     1      -5.268   8.807  16.207  1.00  0.00    -0.251 OA
BRANCH  15  17
ATOM     17  O   UNL     1      -7.407   8.788  17.011  1.00  0.00    -0.465 OA
BRANCH  17  18
ATOM     18  C   UNL     1      -7.826   9.558  15.878  1.00  0.00     0.229 C 
ATOM     19  C   UNL     1      -8.152  10.960  16.355  1.00  0.00     0.049 C 
ENDBRANCH  17  18
ENDBRANCH  15  17
ENDBRANCH  12  15
ENDBRANCH   1  12
BRANCH   8  20
ATOM     20  O   UNL     1      -0.604  10.918  23.181  1.00  0.00    -0.439 OA
BRANCH  20  21
ATOM     21  C   UNL     1      -1.045  10.387  24.370  1.00  0.00     0.129 A 
ATOM     22  C   UNL     1      -2.212  10.849  24.982  1.00  0.00     0.048 A 
ATOM     23  C   UNL     1      -0.340   9.310  24.908  1.00  0.00     0.048 A 
ATOM     24  C   UNL     1      -2.656  10.253  26.164  1.00  0.00     0.016 A 
ATOM     25  C   UNL     1      -0.782   8.713  26.089  1.00  0.00     0.016 A 
ATOM     26  C   UNL     1      -1.940   9.185  26.718  1.00  0.00     0.016 A 
BRANCH  26  27
ATOM     27  C   UNL     1      -2.409   8.562  27.984  1.00  0.00     0.122 C 
ATOM     28  N   UNL     1      -1.778   7.581  28.547  1.00  0.00    -0.284 NA
ATOM     29  N   UNL     1      -3.528   9.016  28.596  1.00  0.00    -0.384 N 
ATOM     30  H   UNL     1      -0.972   7.293  27.985  1.00  0.00     0.189 HD
ATOM     31  H   UNL     1      -4.029   9.839  28.297  1.00  0.00     0.158 HD
ATOM     32  H   UNL     1      -3.793   8.568  29.464  1.00  0.00     0.158 HD
ENDBRANCH  26  27
ENDBRANCH  20  21
ENDBRANCH   8  20
TORSDOF 7
ENDMDL
MODEL 8
REMARK VINA RESULT:    -8.626      1.841      2.991
REMARK INTER + INTRA:         -13.105
REMARK INTER:                 -11.785
REMARK INTRA:                  -1.320
REMARK UNBOUND:                -0.949
REMARK SMILES CCOC(=O)C(C)(C)c1ccc2c(C)cc(Oc3ccc(C(=N)N)cc3)nc2c1
REMARK SMILES IDX 9 1 10 2 11 3 12 4 13 5 14 6 15 7 16 8 27 9 28 10 29 11 6 12
REMARK SMILES IDX 7 13 8 14 4 15 5 16 3 17 2 18 1 19 17 20 18 21 19 22 26 23
REMARK SMILES IDX 20 24 25 25 21 26 22 27 23 28 24 29
REMARK H PARENT 23 30 24 31 24 32
ROOT
ATOM      1  C   UNL     1      -5.467  10.277  20.008  1.00  0.00    -0.029 A 
ATOM      2  C   UNL     1      -6.398  11.289  20.254  1.00  0.00     0.005 A 
ATOM      3  C   UNL     1      -6.177  12.231  21.264  1.00  0.00     0.011 A 
ATOM      4  C   UNL     1      -5.018  12.191  22.067  1.00  0.00     0.003 A 
ATOM      5  C   UNL     1      -4.749  13.115  23.107  1.00  0.00    -0.036 A 
ATOM      6  C   UNL     1      -5.692  14.236  23.448  1.00  0.00     0.045 C 
ATOM      7  C   UNL     1      -3.566  12.980  23.838  1.00  0.00     0.073 A 
ATOM      8  C   UNL     1      -2.700  11.952  23.514  1.00  0.00     0.220 A 
ATOM      9  N   UNL     1      -2.937  11.052  22.537  1.00  0.00    -0.213 NA
ATOM     10  C   UNL     1      -4.068  11.175  21.829  1.00  0.00     0.075 A 
ATOM     11  C   UNL     1      -4.311  10.254  20.816  1.00  0.00     0.034 A 
ENDROOT
BRANCH   1  12
ATOM     12  C   UNL     1      -5.655   9.204  18.915  1.00  0.00     0.087 C 
ATOM     13  C   UNL     1      -7.065   8.576  18.894  1.00  0.00     0.028 C 
ATOM     14  C   UNL     1      -4.638   8.071  19.178  1.00  0.00     0.028 C 
BRANCH  12  15
ATOM     15  C   UNL     1      -5.464   9.821  17.513  1.00  0.00     0.315 C 
ATOM     16  O   UNL     1      -6.232   9.668  16.569  1.00  0.00    -0.251 OA
BRANCH  15  17
ATOM     17  O   UNL     1      -4.286  10.506  17.426  1.00  0.00    -0.465 OA
BRANCH  17  18
ATOM     18  C   UNL     1      -4.408  11.828  16.888  1.00  0.00     0.229 C 
ATOM     19  C   UNL     1      -3.792  12.798  17.877  1.00  0.00     0.049 C 
ENDBRANCH  17  18
ENDBRANCH  15  17
ENDBRANCH  12  15
ENDBRANCH   1  12
BRANCH   8  20
ATOM     20  O   UNL     1      -1.552  11.852  24.293  1.00  0.00    -0.439 OA
BRANCH  20  21
ATOM     21  C   UNL     1      -1.479  10.781  25.152  1.00  0.00     0.129 A 
ATOM     22  C   UNL     1      -2.409  10.609  26.178  1.00  0.00     0.048 A 
ATOM     23  C   UNL     1      -0.496   9.819  24.915  1.00  0.00     0.048 A 
ATOM     24  C   UNL     1      -2.332   9.483  27.000  1.00  0.00     0.016 A 
ATOM     25  C   UNL     1      -0.417   8.692  25.735  1.00  0.00     0.016 A 
ATOM     26  C   UNL     1      -1.336   8.524  26.779  1.00  0.00     0.016 A 
BRANCH  26  27
ATOM     27  C   UNL     1      -1.249   7.334  27.664  1.00  0.00     0.122 C 
ATOM     28  N   UNL     1      -1.674   7.348  28.887  1.00  0.00    -0.284 NA
ATOM     29  N   UNL     1      -0.715   6.177  27.203  1.00  0.00    -0.384 N 
ATOM     30  H   UNL     1      -2.022   8.276  29.143  1.00  0.00     0.189 HD
ATOM     31  H   UNL     1      -0.454   6.032  26.240  1.00  0.00     0.158 HD
ATOM     32  H   UNL     1      -0.696   5.391  27.841  1.00  0.00     0.158 HD
ENDBRANCH  26  27
ENDBRANCH  20  21
ENDBRANCH   8  20
TORSDOF 7
ENDMDL
MODEL 9
REMARK VINA RESULT:    -8.513      2.172      3.930
REMARK INTER + INTRA:         -12.946
REMARK INTER:                 -11.737
REMARK INTRA:                  -1.209
REMARK UNBOUND:                -0.949
REMARK SMILES CCOC(=O)C(C)(C)c1ccc2c(C)cc(Oc3ccc(C(=N)N)cc3)nc2c1
REMARK SMILES IDX 9 1 10 2 11 3 12 4 13 5 14 6 15 7 16 8 27 9 28 10 29 11 6 12
REMARK SMILES IDX 7 13 8 14 4 15 5 16 3 17 2 18 1 19 17 20 18 21 19 22 26 23
REMARK SMILES IDX 20 24 25 25 21 26 22 27 23 28 24 29
REMARK H PARENT 23 30 24 31 24 32
ROOT
ATOM      1  C   UNL     1      -6.403   8.712  19.449  1.00  0.00    -0.029 A 
ATOM      2  C   UNL     1      -7.656   9.281  19.691  1.00  0.00     0.005 A 
ATOM      3  C   UNL     1      -7.792  10.360  20.571  1.00  0.00     0.011 A 
ATOM      4  C   UNL     1      -6.679  10.905  21.244  1.00  0.00     0.003 A 
ATOM      5  C   UNL     1      -6.761  11.992  22.149  1.00  0.00    -0.036 A 
ATOM      6  C   UNL     1      -8.066  12.667  22.475  1.00  0.00     0.045 C 
ATOM      7  C   UNL     1      -5.591  12.452  22.758  1.00  0.00     0.073 A 
ATOM      8  C   UNL     1      -4.395  11.831  22.448  1.00  0.00     0.220 A 
ATOM      9  N   UNL     1      -4.289  10.788  21.599  1.00  0.00    -0.213 NA
ATOM     10  C   UNL     1      -5.407  10.342  21.008  1.00  0.00     0.075 A 
ATOM     11  C   UNL     1      -5.300   9.273  20.126  1.00  0.00     0.034 A 
ENDROOT
BRANCH   1  12
ATOM     12  C   UNL     1      -6.188   7.516  18.498  1.00  0.00     0.087 C 
ATOM     13  C   UNL     1      -7.009   6.264  18.874  1.00  0.00     0.028 C 
ATOM     14  C   UNL     1      -4.693   7.132  18.545  1.00  0.00     0.028 C 
BRANCH  12  15
ATOM     15  C   UNL     1      -6.634   7.879  17.065  1.00  0.00     0.315 C 
ATOM     16  O   UNL     1      -7.764   7.716  16.620  1.00  0.00    -0.251 OA
BRANCH  15  17
ATOM     17  O   UNL     1      -5.587   8.341  16.319  1.00  0.00    -0.465 OA
BRANCH  17  18
ATOM     18  C   UNL     1      -5.773   9.659  15.789  1.00  0.00     0.229 C 
ATOM     19  C   UNL     1      -4.597  10.512  16.221  1.00  0.00     0.049 C 
ENDBRANCH  17  18
ENDBRANCH  15  17
ENDBRANCH  12  15
ENDBRANCH   1  12
BRANCH   8  20
ATOM     20  O   UNL     1      -3.268  12.315  23.104  1.00  0.00    -0.439 OA
BRANCH  20  21
ATOM     21  C   UNL     1      -2.655  11.462  23.990  1.00  0.00     0.129 A 
ATOM     22  C   UNL     1      -1.443  10.842  23.680  1.00  0.00     0.048 A 
ATOM     23  C   UNL     1      -3.234  11.299  25.249  1.00  0.00     0.048 A 
ATOM     24  C   UNL     1      -0.825  10.020  24.623  1.00  0.00     0.016 A 
ATOM     25  C   UNL     1      -2.617  10.477  26.195  1.00  0.00     0.016 A 
ATOM     26  C   UNL     1      -1.412   9.837  25.881  1.00  0.00     0.016 A 
BRANCH  26  27
ATOM     27  C   UNL     1      -0.757   8.950  26.879  1.00  0.00     0.122 C 
ATOM     28  N   UNL     1       0.495   9.063  27.189  1.00  0.00    -0.284 NA
ATOM     29  N   UNL     1      -1.470   7.984  27.506  1.00  0.00    -0.384 N 
ATOM     30  H   UNL     1       0.946   9.795  26.633  1.00  0.00     0.189 HD
ATOM     31  H   UNL     1      -2.469   7.884  27.413  1.00  0.00     0.158 HD
ATOM     32  H   UNL     1      -0.981   7.420  28.189  1.00  0.00     0.158 HD
ENDBRANCH  26  27
ENDBRANCH  20  21
ENDBRANCH   8  20
TORSDOF 7
ENDMDL
