MODEL 5
REMARK VINA RESULT:    -9.089      8.341     12.903
REMARK INTER + INTRA:         -13.765
REMARK INTER:                 -12.981
REMARK INTRA:                  -0.784
REMARK UNBOUND:                -0.957
REMARK SMILES O=C(NS(=O)(=O)c1ccc(OCc2ccccc2)cc1)c1cccc(-c2cc(Cl)cc(Cl)c2)c1
REMARK SMILES IDX 4 1 5 2 6 3 3 4 1 5 2 6 21 8 22 9 34 10 23 11 25 12 24 13
REMARK SMILES IDX 26 14 27 15 33 16 28 17 31 18 30 19 29 20 32 21 7 22 8 23
REMARK SMILES IDX 20 24 9 25 19 26 10 27 11 28 12 29 13 30 14 31 18 32 15 33
REMARK SMILES IDX 17 34 16 35
REMARK H PARENT 3 7
ROOT
ATOM      1  S   UNL     1      27.373  12.431 -43.987  1.00  0.00     0.264 S 
ATOM      2  O   UNL     1      26.207  11.579 -43.930  1.00  0.00    -0.201 OA
ATOM      3  O   UNL     1      27.504  13.523 -44.925  1.00  0.00    -0.201 OA
ENDROOT
BRANCH   1   4
ATOM      4  N   UNL     1      28.740  11.474 -44.072  1.00  0.00    -0.245 N 
ATOM      5  O   UNL     1      30.207  13.181 -44.621  1.00  0.00    -0.268 OA
ATOM      6  C   UNL     1      30.001  12.000 -44.392  1.00  0.00     0.265 C 
ATOM      7  H   UNL     1      28.570  10.477 -44.092  1.00  0.00     0.183 HD
BRANCH   6   8
ATOM      8  C   UNL     1      31.112  11.010 -44.451  1.00  0.00     0.041 A 
ATOM      9  C   UNL     1      31.195   9.916 -43.581  1.00  0.00     0.014 A 
ATOM     10  C   UNL     1      32.104  11.195 -45.429  1.00  0.00     0.022 A 
ATOM     11  C   UNL     1      32.251   9.014 -43.700  1.00  0.00     0.001 A 
ATOM     12  C   UNL     1      33.175  10.294 -45.561  1.00  0.00    -0.018 A 
ATOM     13  C   UNL     1      33.227   9.201 -44.683  1.00  0.00     0.009 A 
BRANCH  12  14
ATOM     14  C   UNL     1      34.210  10.492 -46.590  1.00  0.00    -0.015 A 
ATOM     15  C   UNL     1      35.429  11.118 -46.278  1.00  0.00     0.029 A 
ATOM     16  C   UNL     1      34.010  10.060 -47.912  1.00  0.00     0.029 A 
ATOM     17  C   UNL     1      36.408  11.302 -47.257  1.00  0.00     0.043 A 
ATOM     18  C   UNL     1      34.998  10.248 -48.881  1.00  0.00     0.043 A 
ATOM     19  C   UNL     1      36.200  10.869 -48.561  1.00  0.00     0.041 A 
ATOM     20  Cl  UNL     1      37.890  12.073 -46.840  1.00  0.00    -0.084 Cl
ATOM     21  Cl  UNL     1      34.725   9.700 -50.490  1.00  0.00    -0.084 Cl
ENDBRANCH  12  14
ENDBRANCH   6   8
ENDBRANCH   1   4
BRANCH   1  22
ATOM     22  C   UNL     1      27.583  13.120 -42.355  1.00  0.00     0.088 A 
ATOM     23  C   UNL     1      28.133  14.394 -42.210  1.00  0.00     0.026 A 
ATOM     24  C   UNL     1      27.210  12.372 -41.235  1.00  0.00     0.026 A 
ATOM     25  C   UNL     1      28.285  14.927 -40.930  1.00  0.00     0.048 A 
ATOM     26  C   UNL     1      27.371  12.915 -39.956  1.00  0.00     0.048 A 
ATOM     27  C   UNL     1      27.909  14.195 -39.799  1.00  0.00     0.119 A 
BRANCH  27  28
ATOM     28  O   UNL     1      28.115  14.841 -38.612  1.00  0.00    -0.489 OA
BRANCH  28  29
ATOM     29  C   UNL     1      27.134  15.795 -38.209  1.00  0.00     0.265 C 
BRANCH  29  30
ATOM     30  C   UNL     1      27.840  17.086 -37.880  1.00  0.00    -0.011 A 
ATOM     31  C   UNL     1      27.126  18.287 -37.771  1.00  0.00     0.007 A 
ATOM     32  C   UNL     1      29.232  17.104 -37.702  1.00  0.00     0.007 A 
ATOM     33  C   UNL     1      27.789  19.479 -37.472  1.00  0.00     0.000 A 
ATOM     34  C   UNL     1      29.892  18.297 -37.404  1.00  0.00     0.000 A 
ATOM     35  C   UNL     1      29.171  19.483 -37.287  1.00  0.00     0.000 A 
ENDBRANCH  29  30
ENDBRANCH  28  29
ENDBRANCH  27  28
ENDBRANCH   1  22
TORSDOF 7
ENDMDL
