MODEL 6
REMARK VINA RESULT:    -8.554     10.568     15.552
REMARK INTER + INTRA:         -13.012
REMARK INTER:                 -11.882
REMARK INTRA:                  -1.130
REMARK UNBOUND:                -0.957
REMARK SMILES O=C(NS(=O)(=O)c1ccc(OCc2ccccc2)cc1)c1cccc(-c2cc(Cl)cc(Cl)c2)c1
REMARK SMILES IDX 4 1 5 2 6 3 3 4 1 5 2 6 21 8 22 9 34 10 23 11 25 12 24 13
REMARK SMILES IDX 26 14 27 15 33 16 28 17 31 18 30 19 29 20 32 21 7 22 8 23
REMARK SMILES IDX 20 24 9 25 19 26 10 27 11 28 12 29 13 30 14 31 18 32 15 33
REMARK SMILES IDX 17 34 16 35
REMARK H PARENT 3 7
ROOT
ATOM      1  S   UNL     1      25.655  10.464 -42.173  1.00  0.00     0.264 S 
ATOM      2  O   UNL     1      24.829  10.979 -43.242  1.00  0.00    -0.201 OA
ATOM      3  O   UNL     1      25.143   9.607 -41.128  1.00  0.00    -0.201 OA
ENDROOT
BRANCH   1   4
ATOM      4  N   UNL     1      26.494  11.730 -41.477  1.00  0.00    -0.245 N 
ATOM      5  O   UNL     1      24.646  13.070 -41.084  1.00  0.00    -0.268 OA
ATOM      6  C   UNL     1      25.851  12.891 -41.023  1.00  0.00     0.265 C 
ATOM      7  H   UNL     1      27.498  11.703 -41.600  1.00  0.00     0.183 HD
BRANCH   6   8
ATOM      8  C   UNL     1      26.745  13.937 -40.451  1.00  0.00     0.041 A 
ATOM      9  C   UNL     1      28.142  13.836 -40.485  1.00  0.00     0.014 A 
ATOM     10  C   UNL     1      26.146  15.064 -39.865  1.00  0.00     0.022 A 
ATOM     11  C   UNL     1      28.923  14.858 -39.950  1.00  0.00     0.001 A 
ATOM     12  C   UNL     1      26.921  16.103 -39.321  1.00  0.00    -0.018 A 
ATOM     13  C   UNL     1      28.318  15.981 -39.378  1.00  0.00     0.009 A 
BRANCH  12  14
ATOM     14  C   UNL     1      26.286  17.283 -38.710  1.00  0.00    -0.015 A 
ATOM     15  C   UNL     1      27.038  18.201 -37.957  1.00  0.00     0.029 A 
ATOM     16  C   UNL     1      24.910  17.526 -38.862  1.00  0.00     0.029 A 
ATOM     17  C   UNL     1      26.431  19.319 -37.381  1.00  0.00     0.043 A 
ATOM     18  C   UNL     1      24.315  18.649 -38.282  1.00  0.00     0.043 A 
ATOM     19  C   UNL     1      25.070  19.550 -37.540  1.00  0.00     0.041 A 
ATOM     20  Cl  UNL     1      27.383  20.424 -36.465  1.00  0.00    -0.084 Cl
ATOM     21  Cl  UNL     1      22.629  18.922 -38.493  1.00  0.00    -0.084 Cl
ENDBRANCH  12  14
ENDBRANCH   6   8
ENDBRANCH   1   4
BRANCH   1  22
ATOM     22  C   UNL     1      27.005   9.591 -42.945  1.00  0.00     0.088 A 
ATOM     23  C   UNL     1      27.893  10.285 -43.769  1.00  0.00     0.026 A 
ATOM     24  C   UNL     1      27.154   8.218 -42.732  1.00  0.00     0.026 A 
ATOM     25  C   UNL     1      28.951   9.594 -44.362  1.00  0.00     0.048 A 
ATOM     26  C   UNL     1      28.215   7.535 -43.336  1.00  0.00     0.048 A 
ATOM     27  C   UNL     1      29.118   8.221 -44.152  1.00  0.00     0.119 A 
BRANCH  27  28
ATOM     28  O   UNL     1      30.195   7.678 -44.794  1.00  0.00    -0.489 OA
BRANCH  28  29
ATOM     29  C   UNL     1      31.409   7.564 -44.054  1.00  0.00     0.265 C 
BRANCH  29  30
ATOM     30  C   UNL     1      32.383   8.584 -44.587  1.00  0.00    -0.011 A 
ATOM     31  C   UNL     1      33.123   8.331 -45.750  1.00  0.00     0.007 A 
ATOM     32  C   UNL     1      32.580   9.795 -43.907  1.00  0.00     0.007 A 
ATOM     33  C   UNL     1      34.028   9.279 -46.233  1.00  0.00     0.000 A 
ATOM     34  C   UNL     1      33.485  10.741 -44.391  1.00  0.00     0.000 A 
ATOM     35  C   UNL     1      34.207  10.484 -45.554  1.00  0.00     0.000 A 
ENDBRANCH  29  30
ENDBRANCH  28  29
ENDBRANCH  27  28
ENDBRANCH   1  22
TORSDOF 7
ENDMDL
