MODEL 4
REMARK VINA RESULT:    -9.468      4.388     10.642
REMARK INTER + INTRA:         -14.300
REMARK INTER:                 -13.150
REMARK INTRA:                  -1.150
REMARK UNBOUND:                -0.957
REMARK SMILES O=C(NS(=O)(=O)c1ccc(OCc2ccccc2)cc1)c1cccc(-c2cc(Cl)cc(Cl)c2)c1
REMARK SMILES IDX 4 1 5 2 6 3 3 4 1 5 2 6 21 8 22 9 34 10 23 11 25 12 24 13
REMARK SMILES IDX 26 14 27 15 33 16 28 17 31 18 30 19 29 20 32 21 7 22 8 23
REMARK SMILES IDX 20 24 9 25 19 26 10 27 11 28 12 29 13 30 14 31 18 32 15 33
REMARK SMILES IDX 17 34 16 35
REMARK H PARENT 3 7
ROOT
ATOM      1  S   UNL     1      43.457  10.689 -47.434  1.00  0.00     0.264 S 
ATOM      2  O   UNL     1      43.882  11.292 -48.677  1.00  0.00    -0.201 OA
ATOM      3  O   UNL     1      43.492   9.264 -47.199  1.00  0.00    -0.201 OA
ENDROOT
BRANCH   1   4
ATOM      4  N   UNL     1      41.940  11.269 -47.040  1.00  0.00    -0.245 N 
ATOM      5  O   UNL     1      40.778  10.012 -48.599  1.00  0.00    -0.268 OA
ATOM      6  C   UNL     1      40.781  10.840 -47.702  1.00  0.00     0.265 C 
ATOM      7  H   UNL     1      41.932  12.094 -46.454  1.00  0.00     0.183 HD
BRANCH   6   8
ATOM      8  C   UNL     1      39.512  11.473 -47.248  1.00  0.00     0.041 A 
ATOM      9  C   UNL     1      39.477  12.719 -46.610  1.00  0.00     0.014 A 
ATOM     10  C   UNL     1      38.313  10.781 -47.484  1.00  0.00     0.022 A 
ATOM     11  C   UNL     1      38.253  13.267 -46.226  1.00  0.00     0.001 A 
ATOM     12  C   UNL     1      37.071  11.320 -47.103  1.00  0.00    -0.018 A 
ATOM     13  C   UNL     1      37.064  12.575 -46.474  1.00  0.00     0.009 A 
BRANCH  12  14
ATOM     14  C   UNL     1      35.817  10.590 -47.355  1.00  0.00    -0.015 A 
ATOM     15  C   UNL     1      34.973  10.215 -46.296  1.00  0.00     0.029 A 
ATOM     16  C   UNL     1      35.428  10.248 -48.662  1.00  0.00     0.029 A 
ATOM     17  C   UNL     1      33.784   9.524 -46.541  1.00  0.00     0.043 A 
ATOM     18  C   UNL     1      34.236   9.559 -48.894  1.00  0.00     0.043 A 
ATOM     19  C   UNL     1      33.408   9.193 -47.837  1.00  0.00     0.041 A 
ATOM     20  Cl  UNL     1      32.773   9.081 -45.220  1.00  0.00    -0.084 Cl
ATOM     21  Cl  UNL     1      33.784   9.161 -50.506  1.00  0.00    -0.084 Cl
ENDBRANCH  12  14
ENDBRANCH   6   8
ENDBRANCH   1   4
BRANCH   1  22
ATOM     22  C   UNL     1      44.421  11.452 -46.142  1.00  0.00     0.088 A 
ATOM     23  C   UNL     1      44.047  12.702 -45.649  1.00  0.00     0.026 A 
ATOM     24  C   UNL     1      45.552  10.798 -45.644  1.00  0.00     0.026 A 
ATOM     25  C   UNL     1      44.803  13.287 -44.633  1.00  0.00     0.048 A 
ATOM     26  C   UNL     1      46.305  11.395 -44.628  1.00  0.00     0.048 A 
ATOM     27  C   UNL     1      45.933  12.641 -44.118  1.00  0.00     0.119 A 
BRANCH  27  28
ATOM     28  O   UNL     1      46.575  13.330 -43.127  1.00  0.00    -0.489 OA
BRANCH  28  29
ATOM     29  C   UNL     1      46.211  13.031 -41.781  1.00  0.00     0.265 C 
BRANCH  29  30
ATOM     30  C   UNL     1      45.343  14.152 -41.268  1.00  0.00    -0.011 A 
ATOM     31  C   UNL     1      45.911  15.347 -40.806  1.00  0.00     0.007 A 
ATOM     32  C   UNL     1      43.949  14.001 -41.223  1.00  0.00     0.007 A 
ATOM     33  C   UNL     1      45.100  16.377 -40.326  1.00  0.00     0.000 A 
ATOM     34  C   UNL     1      43.140  15.032 -40.743  1.00  0.00     0.000 A 
ATOM     35  C   UNL     1      43.715  16.220 -40.297  1.00  0.00     0.000 A 
ENDBRANCH  29  30
ENDBRANCH  28  29
ENDBRANCH  27  28
ENDBRANCH   1  22
TORSDOF 7
ENDMDL
