MODEL 9
REMARK VINA RESULT:    -8.821      4.176      8.909
REMARK INTER + INTRA:         -10.575
REMARK INTER:                  -9.756
REMARK INTRA:                  -0.819
REMARK UNBOUND:                -0.722
REMARK SMILES Cc1cc(N2CC[C@H]3CCN(c4ncnc5[nH]ccc45)C[C@@]3(C)C2)ncc1Br
REMARK SMILES IDX 5 1 6 2 7 3 8 4 9 5 10 6 11 7 21 8 22 9 23 10 24 11 4 12
REMARK SMILES IDX 2 13 3 14 27 15 26 16 25 17 1 18 28 19 12 20 13 21 20 22
REMARK SMILES IDX 14 23 19 24 16 25 15 26 18 27 17 28
REMARK H PARENT 17 29
ROOT
ATOM      1  N   UNL     1       6.586 -22.963  21.189  1.00  0.00    -0.356 N 
ATOM      2  C   UNL     1       7.530 -22.252  22.051  1.00  0.00     0.118 C 
ATOM      3  C   UNL     1       7.999 -20.974  21.368  1.00  0.00     0.026 C 
ATOM      4  C   UNL     1       6.829 -20.010  21.100  1.00  0.00     0.002 C 
ATOM      5  C   UNL     1       7.267 -18.954  20.076  1.00  0.00     0.026 C 
ATOM      6  C   UNL     1       6.164 -17.942  19.755  1.00  0.00     0.118 C 
ATOM      7  N   UNL     1       4.837 -18.573  19.735  1.00  0.00    -0.355 N 
ATOM      8  C   UNL     1       4.833 -20.015  19.477  1.00  0.00     0.127 C 
ATOM      9  C   UNL     1       5.523 -20.751  20.661  1.00  0.00     0.006 C 
ATOM     10  C   UNL     1       4.529 -20.788  21.849  1.00  0.00     0.015 C 
ATOM     11  C   UNL     1       5.817 -22.202  20.202  1.00  0.00     0.126 C 
ENDROOT
BRANCH   1  12
ATOM     12  C   UNL     1       6.146 -24.196  21.649  1.00  0.00     0.128 A 
ATOM     13  C   UNL     1       4.439 -25.942  21.792  1.00  0.00    -0.032 A 
ATOM     14  C   UNL     1       4.877 -24.689  21.328  1.00  0.00     0.051 A 
ATOM     15  C   UNL     1       5.319 -26.689  22.573  1.00  0.00     0.039 A 
ATOM     16  C   UNL     1       6.568 -26.153  22.837  1.00  0.00     0.129 A 
ATOM     17  N   UNL     1       6.990 -24.945  22.390  1.00  0.00    -0.238 NA
ATOM     18  C   UNL     1       3.069 -26.431  21.422  1.00  0.00     0.046 C 
ATOM     19  Br  UNL     1       4.888 -28.393  23.270  1.00  0.00    -0.049 Br
ENDBRANCH   1  12
BRANCH   7  20
ATOM     20  C   UNL     1       3.856 -17.848  19.043  1.00  0.00     0.141 A 
ATOM     21  N   UNL     1       3.646 -18.078  17.718  1.00  0.00    -0.219 NA
ATOM     22  C   UNL     1       3.077 -16.829  19.641  1.00  0.00     0.061 A 
ATOM     23  C   UNL     1       2.698 -17.381  17.061  1.00  0.00     0.226 A 
ATOM     24  C   UNL     1       2.993 -16.197  20.918  1.00  0.00     0.033 A 
ATOM     25  C   UNL     1       2.139 -16.193  18.838  1.00  0.00     0.142 A 
ATOM     26  N   UNL     1       1.887 -16.428  17.544  1.00  0.00    -0.218 NA
ATOM     27  C   UNL     1       2.003 -15.239  20.860  1.00  0.00     0.085 A 
ATOM     28  N   UNL     1       1.492 -15.251  19.589  1.00  0.00    -0.346 N 
ATOM     29  H   UNL     1       0.763 -14.653  19.228  1.00  0.00     0.167 HD
ENDBRANCH   7  20
TORSDOF 2
ENDMDL
