REMARK VINA RESULT:    -7.929      2.765      4.378
REMARK INTER + INTRA:         -10.751
REMARK INTER:                 -10.154
REMARK INTRA:                  -0.597
REMARK UNBOUND:                -0.504
REMARK SMILES CN(C)CCCn1c(=O)c2cc([N+](=O)[O-])ccc2c2cnc3[nH]ccc3c21
REMARK SMILES IDX 5 1 4 2 2 3 1 4 3 5 6 6 7 7 8 8 27 9 9 10 10 11 26 12 19 13
REMARK SMILES IDX 11 14 18 15 25 16 22 17 20 18 12 19 17 20 24 21 21 22 23 23
REMARK SMILES IDX 16 24 13 26 14 27 15 28
REMARK H PARENT 23 25
ROOT
ATOM      1  C   UNL     1       9.166 -21.516  21.088  1.00  0.00     0.037 C 
ENDROOT
BRANCH   1   2
ATOM      2  C   UNL     1      10.308 -20.510  21.272  1.00  0.00     0.085 C 
BRANCH   2   3
ATOM      3  N   UNL     1      10.072 -19.574  22.384  1.00  0.00    -0.309 NA
ATOM      4  C   UNL     1       9.889 -18.203  21.891  1.00  0.00     0.104 C 
ATOM      5  C   UNL     1      11.202 -19.603  23.318  1.00  0.00     0.104 C 
ENDBRANCH   2   3
ENDBRANCH   1   2
BRANCH   1   6
ATOM      6  C   UNL     1       8.202 -21.526  22.280  1.00  0.00     0.127 C 
BRANCH   6   7
ATOM      7  N   UNL     1       7.693 -22.868  22.562  1.00  0.00    -0.307 N 
ATOM      8  C   UNL     1       8.534 -23.675  23.336  1.00  0.00     0.259 A 
ATOM      9  C   UNL     1       6.435 -23.335  22.043  1.00  0.00     0.064 A 
ATOM     10  O   UNL     1       9.645 -23.316  23.726  1.00  0.00    -0.269 OA
ATOM     11  C   UNL     1       8.078 -25.029  23.712  1.00  0.00     0.055 A 
ATOM     12  C   UNL     1       5.574 -22.573  21.192  1.00  0.00     0.043 A 
ATOM     13  C   UNL     1       6.009 -24.649  22.388  1.00  0.00     0.025 A 
ATOM     14  C   UNL     1       8.917 -25.807  24.536  1.00  0.00     0.100 A 
ATOM     15  C   UNL     1       6.842 -25.505  23.259  1.00  0.00    -0.001 A 
ATOM     16  C   UNL     1       5.540 -21.280  20.574  1.00  0.00     0.032 A 
ATOM     17  C   UNL     1       4.389 -23.181  20.775  1.00  0.00     0.139 A 
ATOM     18  C   UNL     1       4.783 -25.090  21.869  1.00  0.00     0.124 A 
ATOM     19  C   UNL     1       8.516 -27.086  24.921  1.00  0.00     0.270 A 
ATOM     20  C   UNL     1       6.466 -26.803  23.672  1.00  0.00     0.017 A 
ATOM     21  C   UNL     1       4.381 -21.155  19.839  1.00  0.00     0.085 A 
ATOM     22  N   UNL     1       3.942 -24.406  21.069  1.00  0.00    -0.238 NA
ATOM     23  N   UNL     1       3.690 -22.322  19.975  1.00  0.00    -0.346 N 
ATOM     24  C   UNL     1       7.289 -27.589  24.492  1.00  0.00     0.086 A 
ATOM     25  H   UNL     1       2.799 -22.548  19.560  1.00  0.00     0.167 HD
BRANCH  19  26
ATOM     26  N   UNL     1       9.382 -27.904  25.779  1.00  0.00     0.062 N 
ATOM     27  O   UNL     1      10.488 -27.437  26.088  1.00  0.00    -0.258 OA
ATOM     28  O   UNL     1       8.957 -29.008  26.143  1.00  0.00    -0.258 OA
ENDBRANCH  19  26
ENDBRANCH   6   7
ENDBRANCH   1   6
TORSDOF 5
