MODEL 5
REMARK VINA RESULT:    -6.657      3.197      7.954
REMARK INTER + INTRA:          -9.852
REMARK INTER:                  -9.296
REMARK INTRA:                  -0.555
REMARK UNBOUND:                -0.859
REMARK SMILES CC(C)COC(=O)N1CC[C@@H](N(C)c2ncnc3[nH]ccc23)C1
REMARK SMILES IDX 6 1 7 2 5 3 4 4 2 5 1 6 3 7 8 8 9 9 23 10 10 11 11 12 12 13
REMARK SMILES IDX 13 14 14 15 15 16 22 17 16 18 21 19 18 20 17 21 20 22 19 23
REMARK H PARENT 19 24
ROOT
ATOM      1  C   UNL     1       4.245 -24.896  21.427  1.00  0.00     0.409 C 
ATOM      2  O   UNL     1       3.100 -25.164  21.087  1.00  0.00    -0.224 OA
ENDROOT
BRANCH   1   3
ATOM      3  O   UNL     1       5.163 -25.819  21.820  1.00  0.00    -0.449 OA
BRANCH   3   4
ATOM      4  C   UNL     1       4.695 -26.730  22.823  1.00  0.00     0.238 C 
BRANCH   4   5
ATOM      5  C   UNL     1       5.640 -27.937  22.879  1.00  0.00     0.021 C 
ATOM      6  C   UNL     1       4.893 -29.177  23.364  1.00  0.00     0.011 C 
ATOM      7  C   UNL     1       6.849 -27.658  23.775  1.00  0.00     0.011 C 
ENDBRANCH   4   5
ENDBRANCH   3   4
ENDBRANCH   1   3
BRANCH   1   8
ATOM      8  N   UNL     1       4.754 -23.626  21.467  1.00  0.00    -0.306 N 
ATOM      9  C   UNL     1       5.819 -23.166  22.339  1.00  0.00     0.125 C 
ATOM     10  C   UNL     1       4.255 -22.558  20.616  1.00  0.00     0.148 C 
ATOM     11  C   UNL     1       6.174 -21.780  21.811  1.00  0.00     0.048 C 
ATOM     12  C   UNL     1       4.834 -21.286  21.254  1.00  0.00     0.104 C 
BRANCH  12  13
ATOM     13  N   UNL     1       4.915 -20.072  20.415  1.00  0.00    -0.354 N 
ATOM     14  C   UNL     1       6.084 -19.236  20.711  1.00  0.00     0.145 C 
BRANCH  13  15
ATOM     15  C   UNL     1       3.753 -19.284  20.396  1.00  0.00     0.141 A 
ATOM     16  N   UNL     1       2.953 -19.205  21.490  1.00  0.00    -0.219 NA
ATOM     17  C   UNL     1       3.397 -18.516  19.270  1.00  0.00     0.061 A 
ATOM     18  C   UNL     1       1.849 -18.431  21.436  1.00  0.00     0.226 A 
ATOM     19  C   UNL     1       3.940 -18.270  17.976  1.00  0.00     0.033 A 
ATOM     20  C   UNL     1       2.237 -17.765  19.362  1.00  0.00     0.142 A 
ATOM     21  N   UNL     1       1.409 -17.680  20.413  1.00  0.00    -0.218 NA
ATOM     22  C   UNL     1       3.094 -17.397  17.324  1.00  0.00     0.085 A 
ATOM     23  N   UNL     1       2.063 -17.100  18.179  1.00  0.00    -0.346 N 
ATOM     24  H   UNL     1       1.286 -16.483  17.991  1.00  0.00     0.167 HD
ENDBRANCH  13  15
ENDBRANCH  12  13
ENDBRANCH   1   8
TORSDOF 6
ENDMDL
