MODEL 7
REMARK VINA RESULT:   -10.237      1.919      2.692
REMARK INTER + INTRA:         -14.293
REMARK INTER:                 -13.455
REMARK INTRA:                  -0.838
REMARK UNBOUND:                -0.765
REMARK SMILES COc1cc(-c2ccc3c(c2)Nc2ccc(C(=O)NCc4cccc(F)c4)cc2NC3=O)ccc1O
REMARK SMILES IDX 6 1 7 2 8 3 9 4 10 5 11 6 12 7 13 8 14 9 15 10 16 11 28 12
REMARK SMILES IDX 29 13 30 14 31 15 32 16 5 19 3 20 35 21 4 22 34 23 33 24
REMARK SMILES IDX 2 25 1 26 36 27 17 29 18 30 19 31 20 33 21 34 27 35 22 36
REMARK SMILES IDX 25 37 23 38 24 39 26 40
REMARK H PARENT 12 17 30 18 36 28 19 32
ROOT
ATOM      1  C   UNL     1      17.719   4.669  23.381  1.00  0.00    -0.016 A 
ATOM      2  C   UNL     1      18.495   3.512  23.382  1.00  0.00     0.010 A 
ATOM      3  C   UNL     1      18.215   2.473  24.261  1.00  0.00     0.016 A 
ATOM      4  C   UNL     1      17.148   2.548  25.179  1.00  0.00     0.063 A 
ATOM      5  C   UNL     1      16.341   3.709  25.179  1.00  0.00     0.052 A 
ATOM      6  C   UNL     1      16.655   4.741  24.285  1.00  0.00     0.035 A 
ATOM      7  N   UNL     1      15.222   3.889  25.994  1.00  0.00    -0.353 N 
ATOM      8  C   UNL     1      14.521   3.177  26.966  1.00  0.00     0.062 A 
ATOM      9  C   UNL     1      13.301   3.685  27.424  1.00  0.00     0.029 A 
ATOM     10  C   UNL     1      12.543   3.027  28.385  1.00  0.00     0.016 A 
ATOM     11  C   UNL     1      12.990   1.819  28.933  1.00  0.00     0.042 A 
ATOM     12  C   UNL     1      14.215   1.314  28.480  1.00  0.00     0.042 A 
ATOM     13  C   UNL     1      14.997   1.972  27.521  1.00  0.00     0.066 A 
ATOM     14  N   UNL     1      16.196   1.352  27.163  1.00  0.00    -0.320 N 
ATOM     15  C   UNL     1      17.013   1.334  26.093  1.00  0.00     0.257 C 
ATOM     16  O   UNL     1      17.698   0.328  25.896  1.00  0.00    -0.269 OA
ATOM     17  H   UNL     1      14.764   4.765  25.788  1.00  0.00     0.167 HD
ATOM     18  H   UNL     1      16.340   0.514  27.706  1.00  0.00     0.170 HD
ENDROOT
BRANCH   1  19
ATOM     19  C   UNL     1      18.014   5.791  22.445  1.00  0.00    -0.014 A 
ATOM     20  C   UNL     1      19.537   6.918  20.890  1.00  0.00     0.161 A 
ATOM     21  C   UNL     1      18.567   7.905  20.675  1.00  0.00     0.157 A 
ATOM     22  C   UNL     1      19.245   5.868  21.779  1.00  0.00     0.059 A 
ATOM     23  C   UNL     1      17.340   7.842  21.332  1.00  0.00     0.051 A 
ATOM     24  C   UNL     1      17.066   6.794  22.207  1.00  0.00     0.013 A 
BRANCH  20  25
ATOM     25  O   UNL     1      20.736   7.039  20.206  1.00  0.00    -0.493 OA
ATOM     26  C   UNL     1      21.451   5.866  19.832  1.00  0.00     0.278 C 
ENDBRANCH  20  25
BRANCH  21  27
ATOM     27  O   UNL     1      18.807   8.949  19.818  1.00  0.00    -0.504 OA
ATOM     28  H   UNL     1      19.698   9.299  19.894  1.00  0.00     0.293 HD
ENDBRANCH  21  27
ENDBRANCH   1  19
BRANCH  11  29
ATOM     29  C   UNL     1      12.195   1.065  29.980  1.00  0.00     0.251 C 
ATOM     30  O   UNL     1      11.722  -0.047  29.731  1.00  0.00    -0.269 OA
ATOM     31  N   UNL     1      12.045   1.665  31.178  1.00  0.00    -0.348 N 
ATOM     32  H   UNL     1      12.430   2.589  31.301  1.00  0.00     0.164 HD
BRANCH  31  33
ATOM     33  C   UNL     1      11.276   1.132  32.304  1.00  0.00     0.152 C 
BRANCH  33  34
ATOM     34  C   UNL     1       9.788   1.460  32.247  1.00  0.00    -0.026 A 
ATOM     35  C   UNL     1       8.840   0.431  32.247  1.00  0.00     0.044 A 
ATOM     36  C   UNL     1       9.361   2.789  32.131  1.00  0.00     0.006 A 
ATOM     37  C   UNL     1       7.479   0.728  32.163  1.00  0.00     0.123 A 
ATOM     38  C   UNL     1       7.999   3.085  32.050  1.00  0.00     0.003 A 
ATOM     39  C   UNL     1       7.059   2.055  32.068  1.00  0.00     0.039 A 
ATOM     40  F   UNL     1       6.568  -0.270  32.173  1.00  0.00    -0.207 F 
ENDBRANCH  33  34
ENDBRANCH  31  33
ENDBRANCH  11  29
TORSDOF 6
ENDMDL
