MODEL 2
REMARK VINA RESULT:   -11.659      2.237      2.888
REMARK INTER + INTRA:         -16.172
REMARK INTER:                 -15.456
REMARK INTRA:                  -0.716
REMARK UNBOUND:                -0.765
REMARK SMILES COc1cc(-c2ccc3c(c2)Nc2ccc(C(=O)NCc4cccc(F)c4)cc2NC3=O)ccc1O
REMARK SMILES IDX 6 1 7 2 8 3 9 4 10 5 11 6 12 7 13 8 14 9 15 10 16 11 28 12
REMARK SMILES IDX 29 13 30 14 31 15 32 16 5 19 3 20 35 21 4 22 34 23 33 24
REMARK SMILES IDX 2 25 1 26 36 27 17 29 18 30 19 31 20 33 21 34 27 35 22 36
REMARK SMILES IDX 25 37 23 38 24 39 26 40
REMARK H PARENT 12 17 30 18 36 28 19 32
ROOT
ATOM      1  C   UNL     1      17.986   2.946  24.326  1.00  0.00    -0.016 A 
ATOM      2  C   UNL     1      18.445   1.637  24.459  1.00  0.00     0.010 A 
ATOM      3  C   UNL     1      17.827   0.758  25.340  1.00  0.00     0.016 A 
ATOM      4  C   UNL     1      16.726   1.151  26.127  1.00  0.00     0.063 A 
ATOM      5  C   UNL     1      16.239   2.472  25.991  1.00  0.00     0.052 A 
ATOM      6  C   UNL     1      16.889   3.334  25.099  1.00  0.00     0.035 A 
ATOM      7  N   UNL     1      15.124   2.971  26.666  1.00  0.00    -0.353 N 
ATOM      8  C   UNL     1      14.173   2.517  27.579  1.00  0.00     0.062 A 
ATOM      9  C   UNL     1      13.079   3.336  27.875  1.00  0.00     0.029 A 
ATOM     10  C   UNL     1      12.088   2.948  28.769  1.00  0.00     0.016 A 
ATOM     11  C   UNL     1      12.162   1.706  29.409  1.00  0.00     0.042 A 
ATOM     12  C   UNL     1      13.261   0.889  29.118  1.00  0.00     0.042 A 
ATOM     13  C   UNL     1      14.275   1.272  28.230  1.00  0.00     0.066 A 
ATOM     14  N   UNL     1      15.311   0.356  28.034  1.00  0.00    -0.320 N 
ATOM     15  C   UNL     1      16.201   0.069  27.066  1.00  0.00     0.257 C 
ATOM     16  O   UNL     1      16.629  -1.084  26.986  1.00  0.00    -0.269 OA
ATOM     17  H   UNL     1      14.923   3.918  26.376  1.00  0.00     0.167 HD
ATOM     18  H   UNL     1      15.186  -0.455  28.622  1.00  0.00     0.170 HD
ENDROOT
BRANCH   1  19
ATOM     19  C   UNL     1      18.645   3.899  23.387  1.00  0.00    -0.014 A 
ATOM     20  C   UNL     1      19.860   5.990  22.984  1.00  0.00     0.161 A 
ATOM     21  C   UNL     1      19.891   5.693  21.616  1.00  0.00     0.157 A 
ATOM     22  C   UNL     1      19.231   5.083  23.856  1.00  0.00     0.059 A 
ATOM     23  C   UNL     1      19.310   4.521  21.135  1.00  0.00     0.051 A 
ATOM     24  C   UNL     1      18.694   3.632  22.013  1.00  0.00     0.013 A 
BRANCH  20  25
ATOM     25  O   UNL     1      20.455   7.170  23.397  1.00  0.00    -0.493 OA
ATOM     26  C   UNL     1      21.761   7.136  23.964  1.00  0.00     0.278 C 
ENDBRANCH  20  25
BRANCH  21  27
ATOM     27  O   UNL     1      20.490   6.548  20.727  1.00  0.00    -0.504 OA
ATOM     28  H   UNL     1      21.024   6.094  20.071  1.00  0.00     0.293 HD
ENDBRANCH  21  27
ENDBRANCH   1  19
BRANCH  11  29
ATOM     29  C   UNL     1      11.102   1.238  30.387  1.00  0.00     0.251 C 
ATOM     30  O   UNL     1      10.864   0.037  30.530  1.00  0.00    -0.269 OA
ATOM     31  N   UNL     1      10.455   2.194  31.084  1.00  0.00    -0.348 N 
ATOM     32  H   UNL     1      10.677   3.159  30.892  1.00  0.00     0.164 HD
BRANCH  31  33
ATOM     33  C   UNL     1       9.368   1.961  32.037  1.00  0.00     0.152 C 
BRANCH  33  34
ATOM     34  C   UNL     1       8.247   2.992  31.962  1.00  0.00    -0.026 A 
ATOM     35  C   UNL     1       7.268   2.896  30.968  1.00  0.00     0.044 A 
ATOM     36  C   UNL     1       8.224   4.076  32.848  1.00  0.00     0.006 A 
ATOM     37  C   UNL     1       6.259   3.856  30.879  1.00  0.00     0.123 A 
ATOM     38  C   UNL     1       7.213   5.035  32.759  1.00  0.00     0.003 A 
ATOM     39  C   UNL     1       6.230   4.923  31.776  1.00  0.00     0.039 A 
ATOM     40  F   UNL     1       5.311   3.753  29.921  1.00  0.00    -0.207 F 
ENDBRANCH  33  34
ENDBRANCH  31  33
ENDBRANCH  11  29
TORSDOF 6
ENDMDL
