MODEL 1
REMARK VINA RESULT:    -9.428      0.000      0.000
REMARK INTER + INTRA:         -14.581
REMARK INTER:                 -13.837
REMARK INTRA:                  -0.743
REMARK UNBOUND:                -0.743
REMARK SMILES CCC(CC)n1cc(-c2nc(-c3cnn(CCN4CCNCC4=O)c3)cn3nccc23)cn1
REMARK SMILES IDX 9 1 10 2 11 3 26 4 27 5 28 6 29 7 30 8 31 9 8 10 6 11 7 12
REMARK SMILES IDX 33 13 32 14 3 15 2 16 1 17 4 18 5 19 12 20 13 21 25 22 14 23
REMARK SMILES IDX 15 24 16 25 17 26 18 27 19 28 23 29 20 30 22 31 24 32 21 33
REMARK H PARENT 21 34
ROOT
ATOM      1  C   UNL     1     -11.503  14.124  19.976  1.00  0.00     0.100 A 
ATOM      2  N   UNL     1     -12.259  15.140  20.282  1.00  0.00    -0.244 NA
ATOM      3  C   UNL     1     -13.636  14.982  20.265  1.00  0.00     0.092 A 
ATOM      4  C   UNL     1     -14.216  13.813  19.942  1.00  0.00     0.142 A 
ATOM      5  N   UNL     1     -13.427  12.722  19.635  1.00  0.00    -0.237 N 
ATOM      6  N   UNL     1     -13.824  11.469  19.307  1.00  0.00    -0.176 NA
ATOM      7  C   UNL     1     -12.691  10.781  19.179  1.00  0.00     0.136 A 
ATOM      8  C   UNL     1     -11.553  11.574  19.397  1.00  0.00     0.052 A 
ATOM      9  C   UNL     1     -12.050  12.831  19.658  1.00  0.00     0.093 A 
ENDROOT
BRANCH   1  10
ATOM     10  C   UNL     1     -10.072  14.346  19.974  1.00  0.00     0.040 A 
ATOM     11  N   UNL     1      -8.028  15.161  20.164  1.00  0.00    -0.269 N 
ATOM     12  C   UNL     1      -9.352  15.481  20.300  1.00  0.00     0.119 A 
ATOM     13  N   UNL     1      -7.829  13.890  19.774  1.00  0.00    -0.181 NA
ATOM     14  C   UNL     1      -9.064  13.393  19.683  1.00  0.00     0.145 A 
BRANCH  11  15
ATOM     15  C   UNL     1      -6.886  16.050  20.403  1.00  0.00     0.107 C 
BRANCH  15  16
ATOM     16  C   UNL     1      -7.303  17.188  21.357  1.00  0.00     0.024 C 
ATOM     17  C   UNL     1      -6.850  16.971  22.794  1.00  0.00     0.006 C 
ENDBRANCH  15  16
BRANCH  15  18
ATOM     18  C   UNL     1      -6.277  16.569  19.086  1.00  0.00     0.024 C 
ATOM     19  C   UNL     1      -6.952  17.835  18.571  1.00  0.00     0.006 C 
ENDBRANCH  15  18
ENDBRANCH  11  15
ENDBRANCH   1  10
BRANCH   3  20
ATOM     20  C   UNL     1     -14.365  16.166  20.610  1.00  0.00     0.040 A 
ATOM     21  C   UNL     1     -14.260  16.946  21.785  1.00  0.00     0.145 A 
ATOM     22  C   UNL     1     -15.337  16.805  19.869  1.00  0.00     0.119 A 
ATOM     23  N   UNL     1     -15.092  17.994  21.787  1.00  0.00    -0.181 NA
ATOM     24  N   UNL     1     -15.738  17.881  20.611  1.00  0.00    -0.270 N 
BRANCH  24  25
ATOM     25  C   UNL     1     -16.748  18.856  20.252  1.00  0.00     0.165 C 
BRANCH  25  26
ATOM     26  C   UNL     1     -18.056  18.181  19.852  1.00  0.00     0.143 C 
BRANCH  26  27
ATOM     27  N   UNL     1     -19.127  18.407  20.822  1.00  0.00    -0.338 N 
ATOM     28  C   UNL     1     -19.123  17.613  22.049  1.00  0.00     0.135 C 
ATOM     29  C   UNL     1     -20.254  19.123  20.431  1.00  0.00     0.236 C 
ATOM     30  C   UNL     1     -20.077  18.149  23.119  1.00  0.00     0.103 C 
ATOM     31  C   UNL     1     -21.333  19.384  21.493  1.00  0.00     0.182 C 
ATOM     32  O   UNL     1     -20.354  19.607  19.301  1.00  0.00    -0.273 OA
ATOM     33  N   UNL     1     -21.408  18.351  22.544  1.00  0.00    -0.307 NA
ATOM     34  H   UNL     1     -22.048  18.672  23.269  1.00  0.00     0.123 HD
ENDBRANCH  26  27
ENDBRANCH  25  26
ENDBRANCH  24  25
ENDBRANCH   3  20
TORSDOF 8
ENDMDL
MODEL 2
REMARK VINA RESULT:    -9.344      1.890      2.704
REMARK INTER + INTRA:         -14.458
REMARK INTER:                 -13.600
REMARK INTRA:                  -0.858
REMARK UNBOUND:                -0.743
REMARK SMILES CCC(CC)n1cc(-c2nc(-c3cnn(CCN4CCNCC4=O)c3)cn3nccc23)cn1
REMARK SMILES IDX 9 1 10 2 11 3 26 4 27 5 28 6 29 7 30 8 31 9 8 10 6 11 7 12
REMARK SMILES IDX 33 13 32 14 3 15 2 16 1 17 4 18 5 19 12 20 13 21 25 22 14 23
REMARK SMILES IDX 15 24 16 25 17 26 18 27 19 28 23 29 20 30 22 31 24 32 21 33
REMARK H PARENT 21 34
ROOT
ATOM      1  C   UNL     1     -12.757  15.560  20.004  1.00  0.00     0.100 A 
ATOM      2  N   UNL     1     -13.736  16.370  20.293  1.00  0.00    -0.244 NA
ATOM      3  C   UNL     1     -15.005  15.847  20.485  1.00  0.00     0.092 A 
ATOM      4  C   UNL     1     -15.257  14.530  20.382  1.00  0.00     0.142 A 
ATOM      5  N   UNL     1     -14.225  13.658  20.097  1.00  0.00    -0.237 N 
ATOM      6  N   UNL     1     -14.279  12.311  19.973  1.00  0.00    -0.176 NA
ATOM      7  C   UNL     1     -13.015  11.942  19.770  1.00  0.00     0.136 A 
ATOM      8  C   UNL     1     -12.135  13.035  19.736  1.00  0.00     0.052 A 
ATOM      9  C   UNL     1     -12.941  14.136  19.916  1.00  0.00     0.093 A 
ENDROOT
BRANCH   1  10
ATOM     10  C   UNL     1     -11.456  16.157  19.778  1.00  0.00     0.040 A 
ATOM     11  N   UNL     1      -9.302  16.638  19.698  1.00  0.00    -0.269 N 
ATOM     12  C   UNL     1     -10.207  15.747  20.208  1.00  0.00     0.119 A 
ATOM     13  N   UNL     1      -9.872  17.605  18.959  1.00  0.00    -0.181 NA
ATOM     14  C   UNL     1     -11.170  17.299  18.989  1.00  0.00     0.145 A 
BRANCH  11  15
ATOM     15  C   UNL     1      -7.848  16.609  19.887  1.00  0.00     0.107 C 
BRANCH  15  16
ATOM     16  C   UNL     1      -7.390  15.168  20.190  1.00  0.00     0.024 C 
ATOM     17  C   UNL     1      -6.165  14.741  19.394  1.00  0.00     0.006 C 
ENDBRANCH  15  16
BRANCH  15  18
ATOM     18  C   UNL     1      -7.389  17.619  20.958  1.00  0.00     0.024 C 
ATOM     19  C   UNL     1      -7.185  16.986  22.330  1.00  0.00     0.006 C 
ENDBRANCH  15  18
ENDBRANCH  11  15
ENDBRANCH   1  10
BRANCH   3  20
ATOM     20  C   UNL     1     -16.004  16.828  20.789  1.00  0.00     0.040 A 
ATOM     21  C   UNL     1     -16.028  17.746  21.865  1.00  0.00     0.145 A 
ATOM     22  C   UNL     1     -17.167  17.093  20.096  1.00  0.00     0.119 A 
ATOM     23  N   UNL     1     -17.113  18.528  21.853  1.00  0.00    -0.181 NA
ATOM     24  N   UNL     1     -17.791  18.106  20.769  1.00  0.00    -0.270 N 
BRANCH  24  25
ATOM     25  C   UNL     1     -19.053  18.728  20.426  1.00  0.00     0.165 C 
BRANCH  25  26
ATOM     26  C   UNL     1     -20.063  18.599  21.562  1.00  0.00     0.143 C 
BRANCH  26  27
ATOM     27  N   UNL     1     -21.296  19.343  21.308  1.00  0.00    -0.338 N 
ATOM     28  C   UNL     1     -21.477  19.944  19.988  1.00  0.00     0.135 C 
ATOM     29  C   UNL     1     -22.098  19.712  22.383  1.00  0.00     0.236 C 
ATOM     30  C   UNL     1     -22.911  20.410  19.726  1.00  0.00     0.103 C 
ATOM     31  C   UNL     1     -23.410  20.449  22.071  1.00  0.00     0.182 C 
ATOM     32  O   UNL     1     -21.817  19.392  23.540  1.00  0.00    -0.273 OA
ATOM     33  N   UNL     1     -23.372  21.249  20.832  1.00  0.00    -0.307 NA
ATOM     34  H   UNL     1     -24.314  21.588  20.636  1.00  0.00     0.123 HD
ENDBRANCH  26  27
ENDBRANCH  25  26
ENDBRANCH  24  25
ENDBRANCH   3  20
TORSDOF 8
ENDMDL
MODEL 3
REMARK VINA RESULT:    -9.344      1.433      1.801
REMARK INTER + INTRA:         -14.457
REMARK INTER:                 -13.797
REMARK INTRA:                  -0.659
REMARK UNBOUND:                -0.743
REMARK SMILES CCC(CC)n1cc(-c2nc(-c3cnn(CCN4CCNCC4=O)c3)cn3nccc23)cn1
REMARK SMILES IDX 9 1 10 2 11 3 26 4 27 5 28 6 29 7 30 8 31 9 8 10 6 11 7 12
REMARK SMILES IDX 33 13 32 14 3 15 2 16 1 17 4 18 5 19 12 20 13 21 25 22 14 23
REMARK SMILES IDX 15 24 16 25 17 26 18 27 19 28 23 29 20 30 22 31 24 32 21 33
REMARK H PARENT 21 34
ROOT
ATOM      1  C   UNL     1     -11.607  14.056  19.990  1.00  0.00     0.100 A 
ATOM      2  N   UNL     1     -12.361  15.049  20.367  1.00  0.00    -0.244 NA
ATOM      3  C   UNL     1     -13.736  14.880  20.383  1.00  0.00     0.092 A 
ATOM      4  C   UNL     1     -14.317  13.721  20.022  1.00  0.00     0.142 A 
ATOM      5  N   UNL     1     -13.529  12.654  19.641  1.00  0.00    -0.237 N 
ATOM      6  N   UNL     1     -13.926  11.414  19.266  1.00  0.00    -0.176 NA
ATOM      7  C   UNL     1     -12.791  10.743  19.072  1.00  0.00     0.136 A 
ATOM      8  C   UNL     1     -11.654  11.536  19.293  1.00  0.00     0.052 A 
ATOM      9  C   UNL     1     -12.153  12.774  19.628  1.00  0.00     0.093 A 
ENDROOT
BRANCH   1  10
ATOM     10  C   UNL     1     -10.178  14.291  19.956  1.00  0.00     0.040 A 
ATOM     11  N   UNL     1      -8.136  15.116  20.122  1.00  0.00    -0.269 N 
ATOM     12  C   UNL     1      -9.458  15.418  20.310  1.00  0.00     0.119 A 
ATOM     13  N   UNL     1      -7.938  13.865  19.673  1.00  0.00    -0.181 NA
ATOM     14  C   UNL     1      -9.172  13.361  19.595  1.00  0.00     0.145 A 
BRANCH  11  15
ATOM     15  C   UNL     1      -6.995  16.005  20.366  1.00  0.00     0.107 C 
BRANCH  15  16
ATOM     16  C   UNL     1      -7.443  17.204  21.224  1.00  0.00     0.024 C 
ATOM     17  C   UNL     1      -6.989  17.116  22.675  1.00  0.00     0.006 C 
ENDBRANCH  15  16
BRANCH  15  18
ATOM     18  C   UNL     1      -6.311  16.434  19.053  1.00  0.00     0.024 C 
ATOM     19  C   UNL     1      -6.756  17.808  18.566  1.00  0.00     0.006 C 
ENDBRANCH  15  18
ENDBRANCH  11  15
ENDBRANCH   1  10
BRANCH   3  20
ATOM     20  C   UNL     1     -14.465  16.039  20.805  1.00  0.00     0.040 A 
ATOM     21  C   UNL     1     -14.000  17.130  21.576  1.00  0.00     0.145 A 
ATOM     22  C   UNL     1     -15.786  16.345  20.553  1.00  0.00     0.119 A 
ATOM     23  N   UNL     1     -14.946  18.052  21.791  1.00  0.00    -0.181 NA
ATOM     24  N   UNL     1     -16.023  17.546  21.162  1.00  0.00    -0.270 N 
BRANCH  24  25
ATOM     25  C   UNL     1     -17.273  18.279  21.181  1.00  0.00     0.165 C 
BRANCH  25  26
ATOM     26  C   UNL     1     -17.094  19.696  20.643  1.00  0.00     0.143 C 
BRANCH  26  27
ATOM     27  N   UNL     1     -18.295  20.202  19.981  1.00  0.00    -0.338 N 
ATOM     28  C   UNL     1     -19.453  19.316  19.883  1.00  0.00     0.135 C 
ATOM     29  C   UNL     1     -18.208  21.360  19.214  1.00  0.00     0.236 C 
ATOM     30  C   UNL     1     -20.737  20.041  19.474  1.00  0.00     0.103 C 
ATOM     31  C   UNL     1     -19.501  21.889  18.576  1.00  0.00     0.182 C 
ATOM     32  O   UNL     1     -17.154  21.991  19.113  1.00  0.00    -0.273 OA
ATOM     33  N   UNL     1     -20.496  20.842  18.273  1.00  0.00    -0.307 NA
ATOM     34  H   UNL     1     -21.363  21.293  17.983  1.00  0.00     0.123 HD
ENDBRANCH  26  27
ENDBRANCH  25  26
ENDBRANCH  24  25
ENDBRANCH   3  20
TORSDOF 8
ENDMDL
MODEL 4
REMARK VINA RESULT:    -9.072      3.468     11.348
REMARK INTER + INTRA:         -14.058
REMARK INTER:                 -12.984
REMARK INTRA:                  -1.074
REMARK UNBOUND:                -0.743
REMARK SMILES CCC(CC)n1cc(-c2nc(-c3cnn(CCN4CCNCC4=O)c3)cn3nccc23)cn1
REMARK SMILES IDX 9 1 10 2 11 3 26 4 27 5 28 6 29 7 30 8 31 9 8 10 6 11 7 12
REMARK SMILES IDX 33 13 32 14 3 15 2 16 1 17 4 18 5 19 12 20 13 21 25 22 14 23
REMARK SMILES IDX 15 24 16 25 17 26 18 27 19 28 23 29 20 30 22 31 24 32 21 33
REMARK H PARENT 21 34
ROOT
ATOM      1  C   UNL     1     -18.731  20.080  19.865  1.00  0.00     0.100 A 
ATOM      2  N   UNL     1     -17.887  19.100  19.709  1.00  0.00    -0.244 NA
ATOM      3  C   UNL     1     -16.541  19.392  19.552  1.00  0.00     0.092 A 
ATOM      4  C   UNL     1     -16.080  20.656  19.555  1.00  0.00     0.142 A 
ATOM      5  N   UNL     1     -16.961  21.703  19.740  1.00  0.00    -0.237 N 
ATOM      6  N   UNL     1     -16.685  23.028  19.792  1.00  0.00    -0.176 NA
ATOM      7  C   UNL     1     -17.856  23.604  20.059  1.00  0.00     0.136 A 
ATOM      8  C   UNL     1     -18.902  22.673  20.161  1.00  0.00     0.052 A 
ATOM      9  C   UNL     1     -18.308  21.455  19.919  1.00  0.00     0.093 A 
ENDROOT
BRANCH   1  10
ATOM     10  C   UNL     1     -20.131  19.728  19.991  1.00  0.00     0.040 A 
ATOM     11  N   UNL     1     -22.133  19.112  20.692  1.00  0.00    -0.269 N 
ATOM     12  C   UNL     1     -20.831  19.259  21.088  1.00  0.00     0.119 A 
ATOM     13  N   UNL     1     -22.336  19.455  19.409  1.00  0.00    -0.181 NA
ATOM     14  C   UNL     1     -21.130  19.849  18.995  1.00  0.00     0.145 A 
BRANCH  11  15
ATOM     15  C   UNL     1     -23.248  18.639  21.519  1.00  0.00     0.107 C 
BRANCH  15  16
ATOM     16  C   UNL     1     -24.515  19.458  21.201  1.00  0.00     0.024 C 
ATOM     17  C   UNL     1     -24.471  20.880  21.744  1.00  0.00     0.006 C 
ENDBRANCH  15  16
BRANCH  15  18
ATOM     18  C   UNL     1     -22.894  18.646  23.019  1.00  0.00     0.024 C 
ATOM     19  C   UNL     1     -23.705  17.642  23.831  1.00  0.00     0.006 C 
ENDBRANCH  15  18
ENDBRANCH  11  15
ENDBRANCH   1  10
BRANCH   3  20
ATOM     20  C   UNL     1     -15.708  18.240  19.380  1.00  0.00     0.040 A 
ATOM     21  C   UNL     1     -14.311  18.196  19.165  1.00  0.00     0.145 A 
ATOM     22  C   UNL     1     -16.088  16.914  19.384  1.00  0.00     0.119 A 
ATOM     23  N   UNL     1     -13.844  16.948  19.046  1.00  0.00    -0.181 NA
ATOM     24  N   UNL     1     -14.948  16.188  19.179  1.00  0.00    -0.270 N 
BRANCH  24  25
ATOM     25  C   UNL     1     -14.839  14.746  19.099  1.00  0.00     0.165 C 
BRANCH  25  26
ATOM     26  C   UNL     1     -14.084  14.179  20.298  1.00  0.00     0.143 C 
BRANCH  26  27
ATOM     27  N   UNL     1     -13.009  13.268  19.907  1.00  0.00    -0.338 N 
ATOM     28  C   UNL     1     -11.736  13.847  19.484  1.00  0.00     0.135 C 
ATOM     29  C   UNL     1     -13.310  11.932  19.659  1.00  0.00     0.236 C 
ATOM     30  C   UNL     1     -10.599  12.824  19.412  1.00  0.00     0.103 C 
ATOM     31  C   UNL     1     -12.147  10.996  19.301  1.00  0.00     0.182 C 
ATOM     32  O   UNL     1     -14.453  11.489  19.802  1.00  0.00    -0.273 OA
ATOM     33  N   UNL     1     -11.020  11.665  18.623  1.00  0.00    -0.307 NA
ATOM     34  H   UNL     1     -10.248  11.005  18.547  1.00  0.00     0.123 HD
ENDBRANCH  26  27
ENDBRANCH  25  26
ENDBRANCH  24  25
ENDBRANCH   3  20
TORSDOF 8
ENDMDL
MODEL 5
REMARK VINA RESULT:    -8.999      4.007      6.951
REMARK INTER + INTRA:         -13.951
REMARK INTER:                 -12.692
REMARK INTRA:                  -1.259
REMARK UNBOUND:                -0.743
REMARK SMILES CCC(CC)n1cc(-c2nc(-c3cnn(CCN4CCNCC4=O)c3)cn3nccc23)cn1
REMARK SMILES IDX 9 1 10 2 11 3 26 4 27 5 28 6 29 7 30 8 31 9 8 10 6 11 7 12
REMARK SMILES IDX 33 13 32 14 3 15 2 16 1 17 4 18 5 19 12 20 13 21 25 22 14 23
REMARK SMILES IDX 15 24 16 25 17 26 18 27 19 28 23 29 20 30 22 31 24 32 21 33
REMARK H PARENT 21 34
ROOT
ATOM      1  C   UNL     1     -15.421  18.970  19.064  1.00  0.00     0.100 A 
ATOM      2  N   UNL     1     -16.587  19.543  19.164  1.00  0.00    -0.244 NA
ATOM      3  C   UNL     1     -16.651  20.926  19.241  1.00  0.00     0.092 A 
ATOM      4  C   UNL     1     -15.548  21.694  19.215  1.00  0.00     0.142 A 
ATOM      5  N   UNL     1     -14.307  21.101  19.088  1.00  0.00    -0.237 N 
ATOM      6  N   UNL     1     -13.095  21.703  19.026  1.00  0.00    -0.176 NA
ATOM      7  C   UNL     1     -12.234  20.705  18.833  1.00  0.00     0.136 A 
ATOM      8  C   UNL     1     -12.865  19.451  18.791  1.00  0.00     0.052 A 
ATOM      9  C   UNL     1     -14.199  19.728  18.990  1.00  0.00     0.093 A 
ENDROOT
BRANCH   1  10
ATOM     10  C   UNL     1     -15.402  17.522  19.021  1.00  0.00     0.040 A 
ATOM     11  N   UNL     1     -15.237  15.366  19.469  1.00  0.00    -0.269 N 
ATOM     12  C   UNL     1     -15.052  16.613  20.002  1.00  0.00     0.119 A 
ATOM     13  N   UNL     1     -15.690  15.395  18.204  1.00  0.00    -0.181 NA
ATOM     14  C   UNL     1     -15.811  16.698  17.944  1.00  0.00     0.145 A 
BRANCH  11  15
ATOM     15  C   UNL     1     -14.995  14.085  20.140  1.00  0.00     0.107 C 
BRANCH  15  16
ATOM     16  C   UNL     1     -13.552  13.617  19.864  1.00  0.00     0.024 C 
ATOM     17  C   UNL     1     -13.405  12.102  19.813  1.00  0.00     0.006 C 
ENDBRANCH  15  16
BRANCH  15  18
ATOM     18  C   UNL     1     -16.049  13.027  19.755  1.00  0.00     0.024 C 
ATOM     19  C   UNL     1     -17.321  13.116  20.591  1.00  0.00     0.006 C 
ENDBRANCH  15  18
ENDBRANCH  11  15
ENDBRANCH   1  10
BRANCH   3  20
ATOM     20  C   UNL     1     -17.982  21.445  19.357  1.00  0.00     0.040 A 
ATOM     21  C   UNL     1     -18.384  22.793  19.497  1.00  0.00     0.145 A 
ATOM     22  C   UNL     1     -19.167  20.739  19.359  1.00  0.00     0.119 A 
ATOM     23  N   UNL     1     -19.712  22.931  19.578  1.00  0.00    -0.181 NA
ATOM     24  N   UNL     1     -20.163  21.665  19.496  1.00  0.00    -0.270 N 
BRANCH  24  25
ATOM     25  C   UNL     1     -21.587  21.407  19.555  1.00  0.00     0.165 C 
BRANCH  25  26
ATOM     26  C   UNL     1     -21.879  19.909  19.607  1.00  0.00     0.143 C 
BRANCH  26  27
ATOM     27  N   UNL     1     -22.144  19.434  20.964  1.00  0.00    -0.338 N 
ATOM     28  C   UNL     1     -21.031  18.872  21.726  1.00  0.00     0.135 C 
ATOM     29  C   UNL     1     -23.462  19.248  21.370  1.00  0.00     0.236 C 
ATOM     30  C   UNL     1     -21.339  18.712  23.217  1.00  0.00     0.103 C 
ATOM     31  C   UNL     1     -23.702  18.797  22.819  1.00  0.00     0.182 C 
ATOM     32  O   UNL     1     -24.411  19.514  20.629  1.00  0.00    -0.273 OA
ATOM     33  N   UNL     1     -22.604  17.995  23.391  1.00  0.00    -0.307 NA
ATOM     34  H   UNL     1     -22.785  17.858  24.384  1.00  0.00     0.123 HD
ENDBRANCH  26  27
ENDBRANCH  25  26
ENDBRANCH  24  25
ENDBRANCH   3  20
TORSDOF 8
ENDMDL
MODEL 6
REMARK VINA RESULT:    -8.969      3.352     10.006
REMARK INTER + INTRA:         -13.908
REMARK INTER:                 -13.150
REMARK INTRA:                  -0.757
REMARK UNBOUND:                -0.743
REMARK SMILES CCC(CC)n1cc(-c2nc(-c3cnn(CCN4CCNCC4=O)c3)cn3nccc23)cn1
REMARK SMILES IDX 9 1 10 2 11 3 26 4 27 5 28 6 29 7 30 8 31 9 8 10 6 11 7 12
REMARK SMILES IDX 33 13 32 14 3 15 2 16 1 17 4 18 5 19 12 20 13 21 25 22 14 23
REMARK SMILES IDX 15 24 16 25 17 26 18 27 19 28 23 29 20 30 22 31 24 32 21 33
REMARK H PARENT 21 34
ROOT
ATOM      1  C   UNL     1     -13.042  13.825  19.907  1.00  0.00     0.100 A 
ATOM      2  N   UNL     1     -11.867  14.385  19.970  1.00  0.00    -0.244 NA
ATOM      3  C   UNL     1     -10.742  13.610  19.740  1.00  0.00     0.092 A 
ATOM      4  C   UNL     1     -10.825  12.298  19.454  1.00  0.00     0.142 A 
ATOM      5  N   UNL     1     -12.064  11.697  19.364  1.00  0.00    -0.237 N 
ATOM      6  N   UNL     1     -12.347  10.405  19.070  1.00  0.00    -0.176 NA
ATOM      7  C   UNL     1     -13.678  10.353  19.037  1.00  0.00     0.136 A 
ATOM      8  C   UNL     1     -14.272  11.592  19.328  1.00  0.00     0.052 A 
ATOM      9  C   UNL     1     -13.212  12.437  19.568  1.00  0.00     0.093 A 
ENDROOT
BRANCH   1  10
ATOM     10  C   UNL     1     -14.187  14.668  20.189  1.00  0.00     0.040 A 
ATOM     11  N   UNL     1     -15.569  16.250  20.870  1.00  0.00    -0.269 N 
ATOM     12  C   UNL     1     -14.272  15.821  20.947  1.00  0.00     0.119 A 
ATOM     13  N   UNL     1     -16.343  15.456  20.110  1.00  0.00    -0.181 NA
ATOM     14  C   UNL     1     -15.500  14.515  19.680  1.00  0.00     0.145 A 
BRANCH  11  15
ATOM     15  C   UNL     1     -16.136  17.438  21.516  1.00  0.00     0.107 C 
BRANCH  15  16
ATOM     16  C   UNL     1     -17.401  17.890  20.758  1.00  0.00     0.024 C 
ATOM     17  C   UNL     1     -18.652  17.912  21.625  1.00  0.00     0.006 C 
ENDBRANCH  15  16
BRANCH  15  18
ATOM     18  C   UNL     1     -15.093  18.565  21.660  1.00  0.00     0.024 C 
ATOM     19  C   UNL     1     -15.575  19.902  21.108  1.00  0.00     0.006 C 
ENDBRANCH  15  18
ENDBRANCH  11  15
ENDBRANCH   1  10
BRANCH   3  20
ATOM     20  C   UNL     1      -9.505  14.327  19.843  1.00  0.00     0.040 A 
ATOM     21  C   UNL     1      -9.310  15.691  20.161  1.00  0.00     0.145 A 
ATOM     22  C   UNL     1      -8.229  13.841  19.652  1.00  0.00     0.119 A 
ATOM     23  N   UNL     1      -8.019  16.040  20.174  1.00  0.00    -0.181 NA
ATOM     24  N   UNL     1      -7.384  14.896  19.856  1.00  0.00    -0.270 N 
BRANCH  24  25
ATOM     25  C   UNL     1      -5.938  14.882  19.764  1.00  0.00     0.165 C 
BRANCH  25  26
ATOM     26  C   UNL     1      -5.382  16.286  19.543  1.00  0.00     0.143 C 
BRANCH  26  27
ATOM     27  N   UNL     1      -4.709  16.429  18.252  1.00  0.00    -0.338 N 
ATOM     28  C   UNL     1      -3.570  15.557  17.970  1.00  0.00     0.135 C 
ATOM     29  C   UNL     1      -4.961  17.557  17.479  1.00  0.00     0.236 C 
ATOM     30  C   UNL     1      -3.156  15.562  16.496  1.00  0.00     0.103 C 
ATOM     31  C   UNL     1      -4.276  17.646  16.107  1.00  0.00     0.182 C 
ATOM     32  O   UNL     1      -5.769  18.418  17.835  1.00  0.00    -0.273 OA
ATOM     33  N   UNL     1      -2.983  16.939  16.032  1.00  0.00    -0.307 NA
ATOM     34  H   UNL     1      -2.670  16.937  15.062  1.00  0.00     0.123 HD
ENDBRANCH  26  27
ENDBRANCH  25  26
ENDBRANCH  24  25
ENDBRANCH   3  20
TORSDOF 8
ENDMDL
MODEL 7
REMARK VINA RESULT:    -8.925      3.703      9.944
REMARK INTER + INTRA:         -13.842
REMARK INTER:                 -12.630
REMARK INTRA:                  -1.212
REMARK UNBOUND:                -0.743
REMARK SMILES CCC(CC)n1cc(-c2nc(-c3cnn(CCN4CCNCC4=O)c3)cn3nccc23)cn1
REMARK SMILES IDX 9 1 10 2 11 3 26 4 27 5 28 6 29 7 30 8 31 9 8 10 6 11 7 12
REMARK SMILES IDX 33 13 32 14 3 15 2 16 1 17 4 18 5 19 12 20 13 21 25 22 14 23
REMARK SMILES IDX 15 24 16 25 17 26 18 27 19 28 23 29 20 30 22 31 24 32 21 33
REMARK H PARENT 21 34
ROOT
ATOM      1  C   UNL     1     -13.172  15.218  20.373  1.00  0.00     0.100 A 
ATOM      2  N   UNL     1     -11.873  15.267  20.290  1.00  0.00    -0.244 NA
ATOM      3  C   UNL     1     -11.176  14.112  19.973  1.00  0.00     0.092 A 
ATOM      4  C   UNL     1     -11.800  12.942  19.748  1.00  0.00     0.142 A 
ATOM      5  N   UNL     1     -13.177  12.880  19.812  1.00  0.00    -0.237 N 
ATOM      6  N   UNL     1     -13.977  11.807  19.600  1.00  0.00    -0.176 NA
ATOM      7  C   UNL     1     -15.215  12.285  19.709  1.00  0.00     0.136 A 
ATOM      8  C   UNL     1     -15.238  13.655  20.013  1.00  0.00     0.052 A 
ATOM      9  C   UNL     1     -13.912  14.012  20.107  1.00  0.00     0.093 A 
ENDROOT
BRANCH   1  10
ATOM     10  C   UNL     1     -13.854  16.442  20.741  1.00  0.00     0.040 A 
ATOM     11  N   UNL     1     -14.968  18.349  20.777  1.00  0.00    -0.269 N 
ATOM     12  C   UNL     1     -14.422  17.415  19.939  1.00  0.00     0.119 A 
ATOM     13  N   UNL     1     -14.799  18.054  22.077  1.00  0.00    -0.181 NA
ATOM     14  C   UNL     1     -14.148  16.889  22.053  1.00  0.00     0.145 A 
BRANCH  11  15
ATOM     15  C   UNL     1     -15.679  19.568  20.380  1.00  0.00     0.107 C 
BRANCH  15  16
ATOM     16  C   UNL     1     -17.166  19.454  20.770  1.00  0.00     0.024 C 
ATOM     17  C   UNL     1     -17.971  18.558  19.839  1.00  0.00     0.006 C 
ENDBRANCH  15  16
BRANCH  15  18
ATOM     18  C   UNL     1     -15.477  19.890  18.886  1.00  0.00     0.024 C 
ATOM     19  C   UNL     1     -14.483  21.021  18.645  1.00  0.00     0.006 C 
ENDBRANCH  15  18
ENDBRANCH  11  15
ENDBRANCH   1  10
BRANCH   3  20
ATOM     20  C   UNL     1      -9.754  14.282  19.918  1.00  0.00     0.040 A 
ATOM     21  C   UNL     1      -8.774  13.327  19.562  1.00  0.00     0.145 A 
ATOM     22  C   UNL     1      -9.028  15.418  20.205  1.00  0.00     0.119 A 
ATOM     23  N   UNL     1      -7.530  13.818  19.615  1.00  0.00    -0.181 NA
ATOM     24  N   UNL     1      -7.715  15.091  20.014  1.00  0.00    -0.270 N 
BRANCH  24  25
ATOM     25  C   UNL     1      -6.568  15.958  20.194  1.00  0.00     0.165 C 
BRANCH  25  26
ATOM     26  C   UNL     1      -5.338  15.409  19.475  1.00  0.00     0.143 C 
BRANCH  26  27
ATOM     27  N   UNL     1      -4.960  16.213  18.314  1.00  0.00    -0.338 N 
ATOM     28  C   UNL     1      -5.921  17.193  17.812  1.00  0.00     0.135 C 
ATOM     29  C   UNL     1      -3.862  15.826  17.552  1.00  0.00     0.236 C 
ATOM     30  C   UNL     1      -5.310  18.187  16.821  1.00  0.00     0.103 C 
ATOM     31  C   UNL     1      -3.465  16.724  16.370  1.00  0.00     0.182 C 
ATOM     32  O   UNL     1      -3.176  14.847  17.855  1.00  0.00    -0.273 OA
ATOM     33  N   UNL     1      -4.591  17.465  15.771  1.00  0.00    -0.307 NA
ATOM     34  H   UNL     1      -4.219  18.129  15.093  1.00  0.00     0.123 HD
ENDBRANCH  26  27
ENDBRANCH  25  26
ENDBRANCH  24  25
ENDBRANCH   3  20
TORSDOF 8
ENDMDL
MODEL 8
REMARK VINA RESULT:    -8.892      3.447      6.601
REMARK INTER + INTRA:         -13.795
REMARK INTER:                 -12.309
REMARK INTRA:                  -1.486
REMARK UNBOUND:                -0.743
REMARK SMILES CCC(CC)n1cc(-c2nc(-c3cnn(CCN4CCNCC4=O)c3)cn3nccc23)cn1
REMARK SMILES IDX 9 1 10 2 11 3 26 4 27 5 28 6 29 7 30 8 31 9 8 10 6 11 7 12
REMARK SMILES IDX 33 13 32 14 3 15 2 16 1 17 4 18 5 19 12 20 13 21 25 22 14 23
REMARK SMILES IDX 15 24 16 25 17 26 18 27 19 28 23 29 20 30 22 31 24 32 21 33
REMARK H PARENT 21 34
ROOT
ATOM      1  C   UNL     1     -14.302  19.408  20.276  1.00  0.00     0.100 A 
ATOM      2  N   UNL     1     -15.516  19.872  20.193  1.00  0.00    -0.244 NA
ATOM      3  C   UNL     1     -15.706  21.242  20.109  1.00  0.00     0.092 A 
ATOM      4  C   UNL     1     -14.676  22.107  20.109  1.00  0.00     0.142 A 
ATOM      5  N   UNL     1     -13.383  21.627  20.175  1.00  0.00    -0.237 N 
ATOM      6  N   UNL     1     -12.228  22.335  20.167  1.00  0.00    -0.176 NA
ATOM      7  C   UNL     1     -11.269  21.410  20.174  1.00  0.00     0.136 A 
ATOM      8  C   UNL     1     -11.782  20.103  20.209  1.00  0.00     0.052 A 
ATOM      9  C   UNL     1     -13.148  20.268  20.241  1.00  0.00     0.093 A 
ENDROOT
BRANCH   1  10
ATOM     10  C   UNL     1     -14.154  17.971  20.397  1.00  0.00     0.040 A 
ATOM     11  N   UNL     1     -14.049  15.791  20.064  1.00  0.00    -0.269 N 
ATOM     12  C   UNL     1     -14.355  16.978  19.456  1.00  0.00     0.119 A 
ATOM     13  N   UNL     1     -13.658  15.937  21.341  1.00  0.00    -0.181 NA
ATOM     14  C   UNL     1     -13.699  17.257  21.533  1.00  0.00     0.145 A 
BRANCH  11  15
ATOM     15  C   UNL     1     -14.112  14.457  19.456  1.00  0.00     0.107 C 
BRANCH  15  16
ATOM     16  C   UNL     1     -15.557  14.154  19.014  1.00  0.00     0.024 C 
ATOM     17  C   UNL     1     -16.482  13.792  20.168  1.00  0.00     0.006 C 
ENDBRANCH  15  16
BRANCH  15  18
ATOM     18  C   UNL     1     -13.534  13.374  20.388  1.00  0.00     0.024 C 
ATOM     19  C   UNL     1     -12.399  12.579  19.752  1.00  0.00     0.006 C 
ENDBRANCH  15  18
ENDBRANCH  11  15
ENDBRANCH   1  10
BRANCH   3  20
ATOM     20  C   UNL     1     -17.081  21.640  20.032  1.00  0.00     0.040 A 
ATOM     21  C   UNL     1     -17.685  22.803  20.562  1.00  0.00     0.145 A 
ATOM     22  C   UNL     1     -18.121  20.968  19.424  1.00  0.00     0.119 A 
ATOM     23  N   UNL     1     -18.997  22.867  20.307  1.00  0.00    -0.181 NA
ATOM     24  N   UNL     1     -19.236  21.735  19.618  1.00  0.00    -0.270 N 
BRANCH  24  25
ATOM     25  C   UNL     1     -20.581  21.444  19.164  1.00  0.00     0.165 C 
BRANCH  25  26
ATOM     26  C   UNL     1     -20.917  19.965  19.336  1.00  0.00     0.143 C 
BRANCH  26  27
ATOM     27  N   UNL     1     -21.330  19.637  20.701  1.00  0.00    -0.338 N 
ATOM     28  C   UNL     1     -22.396  20.431  21.307  1.00  0.00     0.135 C 
ATOM     29  C   UNL     1     -20.519  18.812  21.473  1.00  0.00     0.236 C 
ATOM     30  C   UNL     1     -22.963  19.808  22.585  1.00  0.00     0.103 C 
ATOM     31  C   UNL     1     -21.011  18.448  22.882  1.00  0.00     0.182 C 
ATOM     32  O   UNL     1     -19.483  18.317  21.022  1.00  0.00    -0.273 OA
ATOM     33  N   UNL     1     -21.874  19.472  23.502  1.00  0.00    -0.307 NA
ATOM     34  H   UNL     1     -22.258  19.092  24.366  1.00  0.00     0.123 HD
ENDBRANCH  26  27
ENDBRANCH  25  26
ENDBRANCH  24  25
ENDBRANCH   3  20
TORSDOF 8
ENDMDL
MODEL 9
REMARK VINA RESULT:    -8.820      3.248     10.183
REMARK INTER + INTRA:         -13.688
REMARK INTER:                 -12.527
REMARK INTRA:                  -1.161
REMARK UNBOUND:                -0.743
REMARK SMILES CCC(CC)n1cc(-c2nc(-c3cnn(CCN4CCNCC4=O)c3)cn3nccc23)cn1
REMARK SMILES IDX 9 1 10 2 11 3 26 4 27 5 28 6 29 7 30 8 31 9 8 10 6 11 7 12
REMARK SMILES IDX 33 13 32 14 3 15 2 16 1 17 4 18 5 19 12 20 13 21 25 22 14 23
REMARK SMILES IDX 15 24 16 25 17 26 18 27 19 28 23 29 20 30 22 31 24 32 21 33
REMARK H PARENT 21 34
ROOT
ATOM      1  C   UNL     1     -13.413  15.511  20.393  1.00  0.00     0.100 A 
ATOM      2  N   UNL     1     -12.145  15.796  20.305  1.00  0.00    -0.244 NA
ATOM      3  C   UNL     1     -11.244  14.776  20.043  1.00  0.00     0.092 A 
ATOM      4  C   UNL     1     -11.638  13.501  19.876  1.00  0.00     0.142 A 
ATOM      5  N   UNL     1     -12.981  13.188  19.946  1.00  0.00    -0.237 N 
ATOM      6  N   UNL     1     -13.566  11.977  19.787  1.00  0.00    -0.176 NA
ATOM      7  C   UNL     1     -14.873  12.221  19.875  1.00  0.00     0.136 A 
ATOM      8  C   UNL     1     -15.151  13.577  20.113  1.00  0.00     0.052 A 
ATOM      9  C   UNL     1     -13.914  14.177  20.187  1.00  0.00     0.093 A 
ENDROOT
BRANCH   1  10
ATOM     10  C   UNL     1     -14.313  16.603  20.703  1.00  0.00     0.040 A 
ATOM     11  N   UNL     1     -15.845  18.193  20.674  1.00  0.00    -0.269 N 
ATOM     12  C   UNL     1     -15.220  17.260  19.892  1.00  0.00     0.119 A 
ATOM     13  N   UNL     1     -15.412  18.192  21.946  1.00  0.00    -0.181 NA
ATOM     14  C   UNL     1     -14.503  17.214  21.967  1.00  0.00     0.145 A 
BRANCH  11  15
ATOM     15  C   UNL     1     -16.889  19.131  20.248  1.00  0.00     0.107 C 
BRANCH  15  16
ATOM     16  C   UNL     1     -18.211  18.371  20.020  1.00  0.00     0.024 C 
ATOM     17  C   UNL     1     -19.111  18.339  21.248  1.00  0.00     0.006 C 
ENDBRANCH  15  16
BRANCH  15  18
ATOM     18  C   UNL     1     -16.455  19.954  19.018  1.00  0.00     0.024 C 
ATOM     19  C   UNL     1     -17.212  21.270  18.881  1.00  0.00     0.006 C 
ENDBRANCH  15  18
ENDBRANCH  11  15
ENDBRANCH   1  10
BRANCH   3  20
ATOM     20  C   UNL     1      -9.878  15.204  19.977  1.00  0.00     0.040 A 
ATOM     21  C   UNL     1      -9.368  16.518  20.083  1.00  0.00     0.145 A 
ATOM     22  C   UNL     1      -8.756  14.422  19.792  1.00  0.00     0.119 A 
ATOM     23  N   UNL     1      -8.035  16.567  19.978  1.00  0.00    -0.181 NA
ATOM     24  N   UNL     1      -7.690  15.277  19.797  1.00  0.00    -0.270 N 
BRANCH  24  25
ATOM     25  C   UNL     1      -6.294  14.927  19.634  1.00  0.00     0.165 C 
BRANCH  25  26
ATOM     26  C   UNL     1      -5.408  16.169  19.605  1.00  0.00     0.143 C 
BRANCH  26  27
ATOM     27  N   UNL     1      -4.736  16.352  18.319  1.00  0.00    -0.338 N 
ATOM     28  C   UNL     1      -3.601  15.486  18.007  1.00  0.00     0.135 C 
ATOM     29  C   UNL     1      -4.986  17.505  17.582  1.00  0.00     0.236 C 
ATOM     30  C   UNL     1      -3.187  15.538  16.534  1.00  0.00     0.103 C 
ATOM     31  C   UNL     1      -4.301  17.637  16.214  1.00  0.00     0.182 C 
ATOM     32  O   UNL     1      -5.791  18.357  17.966  1.00  0.00    -0.273 OA
ATOM     33  N   UNL     1      -3.010  16.929  16.114  1.00  0.00    -0.307 NA
ATOM     34  H   UNL     1      -2.699  16.957  15.145  1.00  0.00     0.123 HD
ENDBRANCH  26  27
ENDBRANCH  25  26
ENDBRANCH  24  25
ENDBRANCH   3  20
TORSDOF 8
ENDMDL
