REMARK VINA RESULT:    -8.738      5.019      9.784
REMARK INTER + INTRA:         -15.159
REMARK INTER:                 -14.121
REMARK INTRA:                  -1.038
REMARK UNBOUND:                -1.058
REMARK SMILES Cc1oc(-c2cccs2)nc1CCOc1ccc(C[C@](C)(Oc2ccccc2)C(=O)O)cc1
REMARK SMILES IDX 15 1 16 2 17 3 18 4 32 5 33 6 14 7 13 8 12 9 11 10 2 11 3 12
REMARK SMILES IDX 4 13 10 14 1 15 5 16 6 17 9 18 7 19 8 20 19 21 20 22 21 23
REMARK SMILES IDX 22 24 23 25 24 26 28 27 25 28 27 29 26 30 29 31 30 32 31 33
REMARK H PARENT 31 34
ROOT
ATOM      1  C   UNL     1      42.000 -39.060 106.623  1.00  0.00     0.119 A 
ATOM      2  C   UNL     1      42.749 -37.988 107.102  1.00  0.00     0.047 A 
ATOM      3  C   UNL     1      43.867 -38.217 107.911  1.00  0.00     0.008 A 
ATOM      4  C   UNL     1      44.254 -39.520 108.250  1.00  0.00    -0.043 A 
ATOM      5  C   UNL     1      43.509 -40.594 107.752  1.00  0.00     0.008 A 
ATOM      6  C   UNL     1      42.392 -40.361 106.947  1.00  0.00     0.047 A 
ENDROOT
BRANCH   1   7
ATOM      7  O   UNL     1      40.875 -38.987 105.851  1.00  0.00    -0.493 OA
BRANCH   7   8
ATOM      8  C   UNL     1      40.965 -39.281 104.454  1.00  0.00     0.236 C 
BRANCH   8   9
ATOM      9  C   UNL     1      42.281 -38.793 103.843  1.00  0.00     0.101 C 
BRANCH   9  10
ATOM     10  C   UNL     1      42.842 -39.753 102.856  1.00  0.00     0.086 A 
ATOM     11  C   UNL     1      43.493 -40.949 103.062  1.00  0.00     0.125 A 
ATOM     12  O   UNL     1      43.818 -41.463 101.840  1.00  0.00    -0.440 OA
ATOM     13  C   UNL     1      43.341 -40.547 100.930  1.00  0.00     0.236 A 
ATOM     14  N   UNL     1      42.747 -39.511 101.503  1.00  0.00    -0.213 NA
ATOM     15  C   UNL     1      43.896 -41.727 104.245  1.00  0.00     0.090 C 
BRANCH  13  16
ATOM     16  C   UNL     1      43.468 -40.692  99.506  1.00  0.00     0.090 A 
ATOM     17  C   UNL     1      42.735 -40.033  98.536  1.00  0.00     0.025 A 
ATOM     18  S   UNL     1      44.609 -41.759  98.802  1.00  0.00    -0.139 S 
ATOM     19  C   UNL     1      43.114 -40.407  97.213  1.00  0.00     0.012 A 
ATOM     20  C   UNL     1      44.126 -41.340  97.216  1.00  0.00     0.065 A 
ENDBRANCH  13  16
ENDBRANCH   9  10
ENDBRANCH   8   9
ENDBRANCH   7   8
ENDBRANCH   1   7
BRANCH   4  21
ATOM     21  C   UNL     1      45.449 -39.759 109.151  1.00  0.00     0.096 C 
BRANCH  21  22
ATOM     22  C   UNL     1      46.791 -40.030 108.413  1.00  0.00     0.206 C 
ATOM     23  C   UNL     1      47.973 -39.999 109.403  1.00  0.00     0.070 C 
BRANCH  22  24
ATOM     24  O   UNL     1      46.869 -39.043 107.357  1.00  0.00    -0.476 OA
BRANCH  24  25
ATOM     25  C   UNL     1      47.818 -38.072 107.494  1.00  0.00     0.121 A 
ATOM     26  C   UNL     1      47.394 -36.803 107.892  1.00  0.00     0.046 A 
ATOM     27  C   UNL     1      49.151 -38.296 107.166  1.00  0.00     0.046 A 
ATOM     28  C   UNL     1      48.320 -35.768 108.016  1.00  0.00     0.004 A 
ATOM     29  C   UNL     1      50.078 -37.259 107.289  1.00  0.00     0.004 A 
ATOM     30  C   UNL     1      49.663 -35.998 107.720  1.00  0.00     0.000 A 
ENDBRANCH  24  25
ENDBRANCH  22  24
BRANCH  22  31
ATOM     31  C   UNL     1      46.632 -41.439 107.812  1.00  0.00     0.348 C 
ATOM     32  O   UNL     1      46.540 -42.498 108.416  1.00  0.00    -0.248 OA
BRANCH  31  33
ATOM     33  O   UNL     1      46.652 -41.461 106.460  1.00  0.00    -0.478 OA
ATOM     34  H   UNL     1      45.794 -41.056 106.208  1.00  0.00     0.296 HD
ENDBRANCH  31  33
ENDBRANCH  22  31
ENDBRANCH  21  22
ENDBRANCH   4  21
TORSDOF 11
