REMARK SMILES CNC(=O)Oc1cccc2c1OC[C@H]1CCN(C)[C@@H]21
REMARK SMILES IDX 5 1 3 2 2 3 4 4 1 5 6 7 7 8 11 9 8 10 10 11 12 12 9 13 19 14
REMARK SMILES IDX 13 15 17 16 14 17 16 18 15 19 18 20
REMARK H PARENT 2 6
REMARK INDEX MAP 5 1 3 2 2 3 4 4 1 5 23 6 6 7 7 8 11 9 8 10 10 11 12 12 9 13
REMARK INDEX MAP 19 14 13 15 17 16 14 17 16 18 15 19 18 20
ROOT
ATOM      1  O   UNL     1      -8.476 -44.672  31.822  1.00  0.00    -0.406 OA
ENDROOT
BRANCH   1   2
ATOM      2  C   UNL     1      -7.898 -44.146  30.679  1.00  0.00     0.412 C 
ATOM      3  N   UNL     1      -8.847 -43.453  29.979  1.00  0.00    -0.324 N 
ATOM      4  O   UNL     1      -6.734 -44.276  30.319  1.00  0.00    -0.224 OA
ATOM      5  C   UNL     1      -8.547 -42.779  28.747  1.00  0.00     0.146 C 
ATOM      6  H   UNL     1      -9.808 -43.413  30.348  1.00  0.00     0.166 HD
ENDBRANCH   1   2
BRANCH   1   7
ATOM      7  C   UNL     1      -9.302 -43.760  32.485  1.00  0.00     0.174 A 
ATOM      8  C   UNL     1      -8.727 -42.939  33.452  1.00  0.00     0.051 A 
ATOM      9  C   UNL     1     -10.676 -43.721  32.217  1.00  0.00     0.166 A 
ATOM     10  C   UNL     1      -9.533 -42.043  34.145  1.00  0.00     0.004 A 
ATOM     11  C   UNL     1     -11.499 -42.835  32.925  1.00  0.00     0.016 A 
ATOM     12  O   UNL     1     -11.158 -44.602  31.284  1.00  0.00    -0.489 OA
ATOM     13  C   UNL     1     -10.905 -41.989  33.881  1.00  0.00     0.009 A 
ATOM     14  C   UNL     1     -12.990 -42.767  32.664  1.00  0.00     0.097 C 
ATOM     15  C   UNL     1     -12.346 -44.140  30.646  1.00  0.00     0.235 C 
ATOM     16  N   UNL     1     -13.766 -43.072  33.887  1.00  0.00    -0.299 NA
ATOM     17  C   UNL     1     -13.442 -43.807  31.636  1.00  0.00     0.050 C 
ATOM     18  C   UNL     1     -14.604 -44.251  33.631  1.00  0.00     0.085 C 
ATOM     19  C   UNL     1     -13.904 -44.974  32.498  1.00  0.00     0.024 C 
ATOM     20  C   UNL     1     -14.556 -41.943  34.361  1.00  0.00     0.106 C 
ENDBRANCH   1   7
TORSDOF 2
