MODEL 4
REMARK VINA RESULT:   -11.601      4.141      8.597
REMARK INTER + INTRA:         -18.531
REMARK INTER:                 -16.594
REMARK INTRA:                  -1.937
REMARK UNBOUND:                -2.183
REMARK SMILES O=C(Nc1cccc(-c2nc3sccn3c2-c2ccnc(Nc3cccc(N4CCCC4=O)c3)n2)c1)c1c(F)cccc1F
REMARK SMILES IDX 9 1 10 2 11 3 12 4 13 5 14 6 15 7 16 8 8 9 4 10 36 11 5 12
REMARK SMILES IDX 6 13 7 14 3 15 1 16 2 17 37 19 43 20 38 21 42 22 40 23 41 24
REMARK SMILES IDX 44 25 39 26 17 27 35 28 18 29 21 30 19 31 20 32 22 33 23 35
REMARK SMILES IDX 34 36 24 37 27 38 25 39 26 40 28 41 32 42 29 43 31 44 33 45
REMARK SMILES IDX 30 46
REMARK H PARENT 3 18 22 34
ROOT
ATOM      1  C   UNL     1      14.241  36.861   9.890  1.00  0.00     0.100 A 
ATOM      2  N   UNL     1      13.557  37.782   9.237  1.00  0.00    -0.218 NA
ATOM      3  C   UNL     1      12.577  38.128  10.030  1.00  0.00     0.194 A 
ATOM      4  S   UNL     1      11.203  39.214   9.920  1.00  0.00    -0.105 S 
ATOM      5  C   UNL     1      10.755  38.785  11.563  1.00  0.00     0.087 A 
ATOM      6  C   UNL     1      11.621  37.878  12.135  1.00  0.00     0.105 A 
ATOM      7  N   UNL     1      12.631  37.503  11.259  1.00  0.00    -0.288 N 
ATOM      8  C   UNL     1      13.768  36.702  11.214  1.00  0.00     0.100 A 
ENDROOT
BRANCH   1   9
ATOM      9  C   UNL     1      15.439  36.232   9.238  1.00  0.00     0.005 A 
ATOM     10  C   UNL     1      16.517  34.319   8.170  1.00  0.00     0.042 A 
ATOM     11  C   UNL     1      15.413  34.893   8.823  1.00  0.00     0.036 A 
ATOM     12  C   UNL     1      17.652  35.099   7.935  1.00  0.00     0.026 A 
ATOM     13  C   UNL     1      17.699  36.420   8.371  1.00  0.00     0.003 A 
ATOM     14  C   UNL     1      16.603  36.979   9.025  1.00  0.00     0.010 A 
BRANCH  10  15
ATOM     15  N   UNL     1      16.544  33.005   7.672  1.00  0.00    -0.322 N 
ATOM     16  O   UNL     1      16.030  31.760   9.526  1.00  0.00    -0.269 OA
ATOM     17  C   UNL     1      16.290  31.849   8.324  1.00  0.00     0.261 C 
ATOM     18  H   UNL     1      16.836  32.924   6.710  1.00  0.00     0.170 HD
BRANCH  17  19
ATOM     19  C   UNL     1      16.334  30.606   7.466  1.00  0.00     0.111 A 
ATOM     20  C   UNL     1      17.555  30.087   6.990  1.00  0.00     0.138 A 
ATOM     21  C   UNL     1      15.142  29.932   7.139  1.00  0.00     0.138 A 
ATOM     22  C   UNL     1      17.574  28.937   6.199  1.00  0.00     0.040 A 
ATOM     23  C   UNL     1      15.173  28.784   6.347  1.00  0.00     0.040 A 
ATOM     24  C   UNL     1      16.385  28.286   5.876  1.00  0.00     0.006 A 
ATOM     25  F   UNL     1      18.738  30.675   7.292  1.00  0.00    -0.206 F 
ATOM     26  F   UNL     1      13.939  30.379   7.572  1.00  0.00    -0.206 F 
ENDBRANCH  17  19
ENDBRANCH  10  15
ENDBRANCH   1   9
BRANCH   8  27
ATOM     27  C   UNL     1      14.244  35.856  12.357  1.00  0.00     0.095 A 
ATOM     28  N   UNL     1      15.250  35.002  12.040  1.00  0.00    -0.211 NA
ATOM     29  C   UNL     1      13.730  35.914  13.658  1.00  0.00     0.051 A 
ATOM     30  C   UNL     1      15.733  34.187  13.014  1.00  0.00     0.227 A 
ATOM     31  C   UNL     1      14.297  35.055  14.605  1.00  0.00     0.117 A 
ATOM     32  N   UNL     1      15.295  34.184  14.300  1.00  0.00    -0.221 NA
BRANCH  30  33
ATOM     33  N   UNL     1      16.703  33.229  12.680  1.00  0.00    -0.324 N 
ATOM     34  H   UNL     1      16.349  32.294  12.543  1.00  0.00     0.170 HD
BRANCH  33  35
ATOM     35  C   UNL     1      18.079  33.394  12.439  1.00  0.00     0.043 A 
ATOM     36  C   UNL     1      19.001  33.559  13.481  1.00  0.00     0.052 A 
ATOM     37  C   UNL     1      18.534  33.392  11.121  1.00  0.00     0.026 A 
ATOM     38  C   UNL     1      20.369  33.777  13.228  1.00  0.00     0.046 A 
ATOM     39  C   UNL     1      19.885  33.584  10.846  1.00  0.00     0.004 A 
ATOM     40  C   UNL     1      20.790  33.780  11.888  1.00  0.00     0.026 A 
BRANCH  38  41
ATOM     41  N   UNL     1      21.334  33.979  14.263  1.00  0.00    -0.312 N 
ATOM     42  C   UNL     1      21.934  35.165  14.596  1.00  0.00     0.227 C 
ATOM     43  C   UNL     1      21.934  32.862  15.013  1.00  0.00     0.126 C 
ATOM     44  C   UNL     1      22.967  34.879  15.683  1.00  0.00     0.102 C 
ATOM     45  O   UNL     1      21.745  36.292  14.140  1.00  0.00    -0.275 OA
ATOM     46  C   UNL     1      22.692  33.481  16.162  1.00  0.00     0.032 C 
ENDBRANCH  38  41
ENDBRANCH  33  35
ENDBRANCH  30  33
ENDBRANCH   8  27
TORSDOF 7
ENDMDL
