MODEL 5
REMARK minimizedAffinity -9.49062443
REMARK CNNscore 0.493679821
REMARK CNNaffinity 7.5737586
REMARK SMILES Cc1c(C(=O)NCCCN2CC[NH+](C)CC2)[nH]c2cnnc(Nc3ccc(OCc4cccc(F)c4)c(Cl)c3)c12
REMARK SMILES IDX 1 1 2 2 3 3 17 4 18 5 19 6 20 7 21 8 22 9 40 10 4 12 5 13
REMARK SMILES IDX 6 14 7 16 8 17 9 18 10 19 16 20 11 21 15 22 12 23 13 24
REMARK SMILES IDX 14 25 23 27 24 29 39 30 25 31 37 32 26 33 27 34 38 35 28 36
REMARK SMILES IDX 29 37 30 38 36 39 31 40 34 41 32 42 33 43 35 44
REMARK H PARENT 17 11 6 15 13 26 23 28
ROOT
ATOM      1  C   UNL     1      18.829  35.197  14.941  1.00  0.00     0.048 C 
ATOM      2  C   UNL     1      17.663  34.852  15.853  1.00  0.00    -0.009 A 
ATOM      3  C   UNL     1      17.652  34.684  17.246  1.00  0.00     0.108 A 
ATOM      4  N   UNL     1      16.365  34.358  17.627  1.00  0.00    -0.349 N 
ATOM      5  C   UNL     1      15.521  34.338  16.546  1.00  0.00     0.071 A 
ATOM      6  C   UNL     1      14.156  34.083  16.421  1.00  0.00     0.162 A 
ATOM      7  N   UNL     1      13.571  34.130  15.199  1.00  0.00    -0.155 NA
ATOM      8  N   UNL     1      14.289  34.411  14.101  1.00  0.00    -0.132 NA
ATOM      9  C   UNL     1      15.626  34.658  14.166  1.00  0.00     0.162 A 
ATOM     10  C   UNL     1      16.305  34.638  15.404  1.00  0.00     0.049 A 
ATOM     11  H   UNL     1      16.125  34.166  18.589  1.00  0.00     0.167 HD
ENDROOT
BRANCH   3  12
ATOM     12  C   UNL     1      18.760  34.714  18.181  1.00  0.00     0.268 C 
ATOM     13  O   UNL     1      18.580  34.843  19.393  1.00  0.00    -0.268 OA
ATOM     14  N   UNL     1      19.981  34.592  17.623  1.00  0.00    -0.351 N 
ATOM     15  H   UNL     1      20.045  34.446  16.626  1.00  0.00     0.163 HD
BRANCH  14  16
ATOM     16  C   UNL     1      21.245  34.596  18.358  1.00  0.00     0.117 C 
BRANCH  16  17
ATOM     17  C   UNL     1      22.446  35.109  17.536  1.00  0.00     0.037 C 
BRANCH  17  18
ATOM     18  C   UNL     1      23.221  34.006  16.784  1.00  0.00     0.087 C 
BRANCH  18  19
ATOM     19  N   UNL     1      24.237  34.518  15.851  1.00  0.00    -0.292 NA
ATOM     20  C   UNL     1      23.709  35.513  14.908  1.00  0.00     0.146 C 
ATOM     21  C   UNL     1      25.014  33.503  15.123  1.00  0.00     0.146 C 
ATOM     22  C   UNL     1      22.800  34.882  13.823  1.00  0.00     0.277 C 
ATOM     23  C   UNL     1      24.164  32.764  14.061  1.00  0.00     0.277 C 
ATOM     24  N   UNL     1      23.609  33.806  13.063  1.00  0.00    -0.335 N 
ATOM     25  C   UNL     1      22.737  33.124  11.990  1.00  0.00     0.332 C 
ATOM     26  H   UNL     1      24.394  34.261  12.616  1.00  0.00     0.347 HD
ENDBRANCH  18  19
ENDBRANCH  17  18
ENDBRANCH  16  17
ENDBRANCH  14  16
ENDBRANCH   3  12
BRANCH   9  27
ATOM     27  N   UNL     1      16.347  34.951  12.993  1.00  0.00    -0.338 N 
ATOM     28  H   UNL     1      16.538  35.937  12.890  1.00  0.00     0.168 HD
BRANCH  27  29
ATOM     29  C   UNL     1      16.869  34.178  11.940  1.00  0.00     0.041 A 
ATOM     30  C   UNL     1      17.851  33.241  12.265  1.00  0.00     0.050 A 
ATOM     31  C   UNL     1      16.448  34.276  10.608  1.00  0.00     0.030 A 
ATOM     32  C   UNL     1      18.414  32.421  11.286  1.00  0.00     0.085 A 
ATOM     33  C   UNL     1      17.009  33.460   9.626  1.00  0.00     0.050 A 
ATOM     34  C   UNL     1      17.999  32.520   9.952  1.00  0.00     0.138 A 
ATOM     35  Cl  UNL     1      19.628  31.279  11.747  1.00  0.00    -0.080 Cl
BRANCH  34  36
ATOM     36  O   UNL     1      18.594  31.674   9.033  1.00  0.00    -0.487 OA
BRANCH  36  37
ATOM     37  C   UNL     1      18.286  31.807   7.646  1.00  0.00     0.265 C 
BRANCH  37  38
ATOM     38  C   UNL     1      17.311  30.726   7.189  1.00  0.00    -0.008 A 
ATOM     39  C   UNL     1      15.930  30.835   7.407  1.00  0.00     0.046 A 
ATOM     40  C   UNL     1      17.812  29.590   6.545  1.00  0.00     0.007 A 
ATOM     41  C   UNL     1      15.067  29.825   6.979  1.00  0.00     0.123 A 
ATOM     42  C   UNL     1      16.949  28.581   6.118  1.00  0.00     0.003 A 
ATOM     43  C   UNL     1      15.576  28.698   6.334  1.00  0.00     0.039 A 
ATOM     44  F   UNL     1      13.736  29.938   7.188  1.00  0.00    -0.207 F 
ENDBRANCH  37  38
ENDBRANCH  36  37
ENDBRANCH  34  36
ENDBRANCH  27  29
ENDBRANCH   9  27
TORSDOF 10
ENDMDL
