MODEL 4
REMARK VINA RESULT:    -8.720      6.082     10.885
REMARK INTER + INTRA:         -14.311
REMARK INTER:                 -14.382
REMARK INTRA:                   0.071
REMARK UNBOUND:                -0.239
REMARK SMILES Cc1oc(-c2cccs2)nc1CCOc1ccc(C[C@@](C)(Oc2ccccc2)C(=O)O)cc1
REMARK SMILES IDX 15 1 16 2 17 3 18 4 32 5 33 6 14 7 13 8 12 9 11 10 2 11 3 12
REMARK SMILES IDX 4 13 10 14 1 15 5 16 6 17 9 18 7 19 8 20 19 21 20 22 21 23
REMARK SMILES IDX 22 24 23 25 24 26 28 27 25 28 27 29 26 30 29 31 30 32 31 33
REMARK H PARENT 31 34
ROOT
ATOM      1  C   UNL     1       9.766   4.096  -8.789  1.00  0.00     0.119 A 
ATOM      2  C   UNL     1      10.404   5.304  -8.498  1.00  0.00     0.047 A 
ATOM      3  C   UNL     1      11.220   5.929  -9.445  1.00  0.00     0.008 A 
ATOM      4  C   UNL     1      11.402   5.359 -10.709  1.00  0.00    -0.043 A 
ATOM      5  C   UNL     1      10.759   4.148 -10.997  1.00  0.00     0.008 A 
ATOM      6  C   UNL     1       9.945   3.524 -10.046  1.00  0.00     0.047 A 
ENDROOT
BRANCH   1   7
ATOM      7  O   UNL     1       9.015   3.591  -7.764  1.00  0.00    -0.493 OA
BRANCH   7   8
ATOM      8  C   UNL     1       8.870   4.367  -6.573  1.00  0.00     0.236 C 
BRANCH   8   9
ATOM      9  C   UNL     1       8.358   3.510  -5.416  1.00  0.00     0.101 C 
BRANCH   9  10
ATOM     10  C   UNL     1       9.429   3.191  -4.440  1.00  0.00     0.086 A 
ATOM     11  C   UNL     1       9.470   3.404  -3.080  1.00  0.00     0.125 A 
ATOM     12  O   UNL     1      10.671   2.946  -2.623  1.00  0.00    -0.440 OA
ATOM     13  C   UNL     1      11.315   2.459  -3.738  1.00  0.00     0.236 A 
ATOM     14  N   UNL     1      10.603   2.599  -4.846  1.00  0.00    -0.213 NA
ATOM     15  C   UNL     1       8.554   3.988  -2.086  1.00  0.00     0.090 C 
BRANCH  13  16
ATOM     16  C   UNL     1      12.622   1.863  -3.711  1.00  0.00     0.090 A 
ATOM     17  C   UNL     1      13.087   0.845  -4.522  1.00  0.00     0.025 A 
ATOM     18  S   UNL     1      13.828   2.374  -2.605  1.00  0.00    -0.139 S 
ATOM     19  C   UNL     1      14.435   0.482  -4.229  1.00  0.00     0.012 A 
ATOM     20  C   UNL     1      14.957   1.238  -3.205  1.00  0.00     0.065 A 
ENDBRANCH  13  16
ENDBRANCH   9  10
ENDBRANCH   8   9
ENDBRANCH   7   8
ENDBRANCH   1   7
BRANCH   4  21
ATOM     21  C   UNL     1      12.291   6.025 -11.735  1.00  0.00     0.096 C 
BRANCH  21  22
ATOM     22  C   UNL     1      11.719   7.254 -12.502  1.00  0.00     0.206 C 
ATOM     23  C   UNL     1      10.792   6.778 -13.635  1.00  0.00     0.070 C 
BRANCH  22  24
ATOM     24  O   UNL     1      10.924   7.932 -11.495  1.00  0.00    -0.476 OA
BRANCH  24  25
ATOM     25  C   UNL     1      10.516   9.196 -11.813  1.00  0.00     0.121 A 
ATOM     26  C   UNL     1       9.746   9.404 -12.956  1.00  0.00     0.046 A 
ATOM     27  C   UNL     1      10.983  10.282 -11.075  1.00  0.00     0.046 A 
ATOM     28  C   UNL     1       9.378  10.699 -13.319  1.00  0.00     0.004 A 
ATOM     29  C   UNL     1      10.615  11.576 -11.439  1.00  0.00     0.004 A 
ATOM     30  C   UNL     1       9.807  11.785 -12.557  1.00  0.00     0.000 A 
ENDBRANCH  24  25
ENDBRANCH  22  24
BRANCH  22  31
ATOM     31  C   UNL     1      12.926   8.069 -13.024  1.00  0.00     0.348 C 
ATOM     32  O   UNL     1      12.874   9.090 -13.698  1.00  0.00    -0.248 OA
BRANCH  31  33
ATOM     33  O   UNL     1      14.131   7.570 -12.683  1.00  0.00    -0.478 OA
ATOM     34  H   UNL     1      14.075   7.450 -11.713  1.00  0.00     0.296 HD
ENDBRANCH  31  33
ENDBRANCH  22  31
ENDBRANCH  21  22
ENDBRANCH   4  21
TORSDOF 11
ENDMDL
