REMARK VINA RESULT:    -7.468      0.000      0.000
REMARK INTER + INTRA:         -14.830
REMARK INTER:                 -13.579
REMARK INTRA:                  -1.250
REMARK UNBOUND:                -1.250
REMARK SMILES CN(C)CCN(C)c1ccc2cc1COCC=CCOCc1cccc(c1)-c1ccnc(n1)N2
REMARK SMILES IDX 34 1 11 3 8 4 9 5 13 6 10 7 12 8 6 9 7 10 5 11 4 12 2 13
REMARK SMILES IDX 1 14 3 15 14 16 15 17 16 18 32 20 31 21 33 22 30 23 28 24
REMARK SMILES IDX 29 25 26 26 25 27 27 28 24 29 22 30 23 31 21 32 20 33 19 34
REMARK SMILES IDX 18 35 17 36
REMARK H PARENT 34 2
REMARK Flexibility Score:   96.900
ROOT
ATOM      1  N   UNL     1     -11.255  18.950  18.852  1.00  0.00    -0.324 N 
ATOM      2  H   UNL     1     -10.657  19.490  18.245  1.00  0.00     0.170 HD
ENDROOT
BRANCH   1   3
ATOM      3  C   UNL     1     -12.511  19.485  19.157  1.00  0.00     0.041 A 
ATOM      4  C   UNL     1     -15.092  20.614  19.661  1.00  0.00     0.042 A 
ATOM      5  C   UNL     1     -14.274  21.083  18.623  1.00  0.00     0.028 A 
ATOM      6  C   UNL     1     -14.597  19.567  20.459  1.00  0.00     0.003 A 
ATOM      7  C   UNL     1     -13.008  20.534  18.379  1.00  0.00     0.028 A 
ATOM      8  C   UNL     1     -13.330  19.004  20.180  1.00  0.00     0.034 A 
BRANCH   4   9
ATOM      9  N   UNL     1     -16.371  21.145  19.875  1.00  0.00    -0.373 N 
ATOM     10  C   UNL     1     -16.459  22.482  20.451  1.00  0.00     0.143 C 
BRANCH   9  11
ATOM     11  C   UNL     1     -17.356  20.794  18.828  1.00  0.00     0.131 C 
BRANCH  11  12
ATOM     12  C   UNL     1     -18.620  21.683  18.916  1.00  0.00     0.105 C 
BRANCH  12  13
ATOM     13  N   UNL     1     -19.682  21.134  19.790  1.00  0.00    -0.308 NA
ATOM     14  C   UNL     1     -20.667  20.371  19.020  1.00  0.00     0.105 C 
ATOM     15  C   UNL     1     -20.351  22.220  20.513  1.00  0.00     0.105 C 
ENDBRANCH  12  13
ENDBRANCH  11  12
ENDBRANCH   9  11
ENDBRANCH   4   9
BRANCH   6  16
ATOM     16  C   UNL     1     -15.354  19.024  21.645  1.00  0.00     0.198 C 
BRANCH  16  17
ATOM     17  O   UNL     1     -15.734  17.673  21.397  1.00  0.00    -0.373 OA
BRANCH  17  18
ATOM     18  C   UNL     1     -17.030  17.606  20.821  1.00  0.00     0.188 CG0
ATOM     19  G   UNL     1     -16.900  16.988  19.465  1.00  0.00     0.000 G0
ENDBRANCH  17  18
ENDBRANCH  16  17
ENDBRANCH   6  16
ENDBRANCH   1   3
BRANCH   1  20
ATOM     20  C   UNL     1     -10.583  17.804  19.266  1.00  0.00     0.227 A 
ATOM     21  N   UNL     1      -9.296  17.979  19.603  1.00  0.00    -0.221 NA
ATOM     22  N   UNL     1     -11.188  16.610  19.292  1.00  0.00    -0.213 NA
ATOM     23  C   UNL     1      -8.616  16.890  20.002  1.00  0.00     0.117 A 
ATOM     24  C   UNL     1     -10.482  15.528  19.684  1.00  0.00     0.076 A 
ATOM     25  C   UNL     1      -9.161  15.633  20.062  1.00  0.00     0.049 A 
BRANCH  24  26
ATOM     26  C   UNL     1     -11.213  14.245  19.638  1.00  0.00     0.001 A 
ATOM     27  C   UNL     1     -10.582  13.035  19.304  1.00  0.00     0.010 A 
ATOM     28  C   UNL     1     -12.591  14.202  19.927  1.00  0.00     0.016 A 
ATOM     29  C   UNL     1     -11.300  11.836  19.242  1.00  0.00     0.001 A 
ATOM     30  C   UNL     1     -13.326  13.005  19.871  1.00  0.00    -0.022 A 
ATOM     31  C   UNL     1     -12.666  11.825  19.514  1.00  0.00     0.006 A 
BRANCH  30  32
ATOM     32  C   UNL     1     -14.815  13.024  20.126  1.00  0.00     0.196 C 
BRANCH  32  33
ATOM     33  O   UNL     1     -15.294  14.332  20.456  1.00  0.00    -0.373 OA
BRANCH  33  34
ATOM     34  C   UNL     1     -16.665  14.535  20.113  1.00  0.00     0.188 C 
BRANCH  34  35
ATOM     35  C   UNL     1     -16.776  15.681  19.153  1.00  0.00    -0.001 C 
ATOM     36  C   UNL     1     -16.902  16.984  19.457  1.00  0.00    -0.001 CG0
ATOM     37  G   UNL     1     -17.042  17.588  20.818  1.00  0.00     0.000 G0
ENDBRANCH  34  35
ENDBRANCH  33  34
ENDBRANCH  32  33
ENDBRANCH  30  32
ENDBRANCH  24  26
ENDBRANCH   1  20
TORSDOF 4
