REMARK SMILES CN(c1ncnc2[nH]ccc12)[C@H]1C[C@@H](NS(=O)(=O)c2cccc(C(C)(C)O)c2)C1
REMARK SMILES IDX 16 1 17 2 18 3 15 4 14 6 12 7 13 8 29 9 2 10 1 11 3 12 4 13
REMARK SMILES IDX 11 14 5 15 10 16 7 17 6 18 9 19 8 20 19 22 20 23 28 24 21 25
REMARK SMILES IDX 23 26 22 27 24 28 25 29 26 30 27 31
REMARK H PARENT 15 5 8 21 27 32
REMARK INDEX MAP 16 1 17 2 18 3 15 4 41 5 14 6 12 7 13 8 29 9 2 10 1 11 3 12
REMARK INDEX MAP 4 13 11 14 5 15 10 16 7 17 6 18 9 19 8 20 34 21 19 22 20 23
REMARK INDEX MAP 28 24 21 25 23 26 22 27 24 28 25 29 26 30 27 31 51 32
ROOT
ATOM      1  S   UNL     1       8.025 -25.477  23.521  1.00  0.00     0.240 S 
ATOM      2  O   UNL     1       8.914 -25.542  22.382  1.00  0.00    -0.207 OA
ATOM      3  O   UNL     1       8.478 -25.753  24.865  1.00  0.00    -0.207 OA
ENDROOT
BRANCH   1   4
ATOM      4  N   UNL     1       7.340 -23.930  23.501  1.00  0.00    -0.208 NA
ATOM      5  H   UNL     1       7.639 -23.478  24.377  1.00  0.00     0.141 HD
BRANCH   4   6
ATOM      6  C   UNL     1       7.593 -22.935  22.421  1.00  0.00     0.074 C 
ATOM      7  C   UNL     1       7.282 -20.956  21.669  1.00  0.00     0.086 C 
ATOM      8  C   UNL     1       8.097 -21.543  22.858  1.00  0.00     0.045 C 
ATOM      9  C   UNL     1       6.366 -22.203  21.832  1.00  0.00     0.045 C 
BRANCH   7  10
ATOM     10  N   UNL     1       6.625 -19.711  21.951  1.00  0.00    -0.356 N 
ATOM     11  C   UNL     1       7.404 -18.512  22.239  1.00  0.00     0.145 C 
BRANCH  10  12
ATOM     12  C   UNL     1       5.237 -19.457  21.864  1.00  0.00     0.141 A 
ATOM     13  N   UNL     1       4.511 -19.431  23.021  1.00  0.00    -0.219 NA
ATOM     14  C   UNL     1       4.530 -19.215  20.664  1.00  0.00     0.061 A 
ATOM     15  C   UNL     1       3.180 -19.231  22.969  1.00  0.00     0.226 A 
ATOM     16  C   UNL     1       4.834 -19.064  19.276  1.00  0.00     0.033 A 
ATOM     17  C   UNL     1       3.158 -19.019  20.771  1.00  0.00     0.142 A 
ATOM     18  N   UNL     1       2.419 -19.023  21.888  1.00  0.00    -0.218 NA
ATOM     19  C   UNL     1       3.657 -18.824  18.597  1.00  0.00     0.085 A 
ATOM     20  N   UNL     1       2.646 -18.808  19.521  1.00  0.00    -0.346 N 
ATOM     21  H   UNL     1       1.650 -18.659  19.306  1.00  0.00     0.167 HD
ENDBRANCH  10  12
ENDBRANCH   7  10
ENDBRANCH   4   6
ENDBRANCH   1   4
BRANCH   1  22
ATOM     22  C   UNL     1       6.611 -26.488  23.176  1.00  0.00     0.082 A 
ATOM     23  C   UNL     1       6.586 -27.816  23.597  1.00  0.00     0.022 A 
ATOM     24  C   UNL     1       5.542 -25.948  22.450  1.00  0.00     0.028 A 
ATOM     25  C   UNL     1       5.475 -28.601  23.304  1.00  0.00     0.002 A 
ATOM     26  C   UNL     1       4.414 -26.733  22.139  1.00  0.00    -0.016 A 
ATOM     27  C   UNL     1       4.399 -28.064  22.588  1.00  0.00     0.007 A 
BRANCH  26  28
ATOM     28  C   UNL     1       3.253 -26.109  21.367  1.00  0.00     0.084 C 
ATOM     29  C   UNL     1       3.658 -24.737  20.820  1.00  0.00     0.047 C 
ATOM     30  C   UNL     1       1.946 -25.980  22.162  1.00  0.00     0.047 C 
BRANCH  28  31
ATOM     31  O   UNL     1       2.945 -26.943  20.241  1.00  0.00    -0.386 OA
ATOM     32  H   UNL     1       2.620 -27.822  20.560  1.00  0.00     0.211 HD
ENDBRANCH  28  31
ENDBRANCH  26  28
ENDBRANCH   1  22
TORSDOF 7
