REMARK VINA RESULT:    -8.756      3.722      6.726
REMARK INTER + INTRA:         -11.298
REMARK INTER:                 -10.464
REMARK INTRA:                  -0.834
REMARK UNBOUND:                -0.495
REMARK SMILES CN(C)[C@@H]1CC[C@H](n2nc(Nc3ccc(Cl)cc3)c3c(=O)[nH]ccc32)[C@@H](C#N)C1
REMARK SMILES IDX 8 1 9 2 10 3 19 4 20 5 21 6 22 7 23 8 24 9 25 10 7 12 4 13
REMARK SMILES IDX 5 14 29 15 6 16 26 17 27 18 28 19 2 20 1 21 3 22 11 23 12 25
REMARK SMILES IDX 13 26 18 27 14 28 17 29 15 30 16 31
REMARK H PARENT 22 11 11 24
ROOT
ATOM      1  N   UNL     1       6.122 -24.446  21.628  1.00  0.00    -0.258 N 
ATOM      2  N   UNL     1       5.801 -23.281  21.031  1.00  0.00    -0.153 NA
ATOM      3  C   UNL     1       4.495 -23.365  20.745  1.00  0.00     0.166 A 
ATOM      4  C   UNL     1       3.981 -24.596  21.191  1.00  0.00     0.109 A 
ATOM      5  C   UNL     1       2.675 -25.211  21.163  1.00  0.00     0.261 A 
ATOM      6  O   UNL     1       1.677 -24.670  20.697  1.00  0.00    -0.269 OA
ATOM      7  N   UNL     1       2.650 -26.487  21.723  1.00  0.00    -0.328 N 
ATOM      8  C   UNL     1       3.755 -27.136  22.262  1.00  0.00     0.088 A 
ATOM      9  C   UNL     1       4.977 -26.570  22.296  1.00  0.00     0.046 A 
ATOM     10  C   UNL     1       5.045 -25.274  21.743  1.00  0.00     0.078 A 
ATOM     11  H   UNL     1       1.748 -26.948  21.718  1.00  0.00     0.169 HD
ENDROOT
BRANCH   1  12
ATOM     12  C   UNL     1       7.503 -24.675  22.054  1.00  0.00     0.125 C 
ATOM     13  C   UNL     1       9.168 -22.180  22.550  1.00  0.00     0.057 C 
ATOM     14  C   UNL     1       8.735 -22.623  21.134  1.00  0.00     0.021 C 
ATOM     15  C   UNL     1       8.118 -22.670  23.576  1.00  0.00     0.040 C 
ATOM     16  C   UNL     1       8.505 -24.130  21.029  1.00  0.00     0.030 C 
ATOM     17  C   UNL     1       7.784 -24.169  23.482  1.00  0.00     0.119 C 
ATOM     18  C   UNL     1       8.894 -24.958  24.055  1.00  0.00     0.068 C 
ATOM     19  N   UNL     1       9.772 -25.591  24.474  1.00  0.00    -0.198 NA
BRANCH  13  20
ATOM     20  N   UNL     1       9.355 -20.705  22.634  1.00  0.00    -0.306 NA
ATOM     21  C   UNL     1      10.259 -20.193  21.596  1.00  0.00     0.105 C 
ATOM     22  C   UNL     1       8.088 -19.967  22.550  1.00  0.00     0.105 C 
ENDBRANCH  13  20
ENDBRANCH   1  12
BRANCH   3  23
ATOM     23  N   UNL     1       3.711 -22.441  20.135  1.00  0.00    -0.338 N 
ATOM     24  H   UNL     1       3.070 -22.793  19.426  1.00  0.00     0.168 HD
BRANCH  23  25
ATOM     25  C   UNL     1       3.642 -21.038  20.268  1.00  0.00     0.040 A 
ATOM     26  C   UNL     1       4.467 -20.246  19.451  1.00  0.00     0.027 A 
ATOM     27  C   UNL     1       2.770 -20.383  21.146  1.00  0.00     0.027 A 
ATOM     28  C   UNL     1       4.429 -18.848  19.518  1.00  0.00     0.022 A 
ATOM     29  C   UNL     1       2.728 -18.986  21.219  1.00  0.00     0.022 A 
ATOM     30  C   UNL     1       3.558 -18.225  20.404  1.00  0.00     0.041 A 
ATOM     31  Cl  UNL     1       3.506 -16.507  20.490  1.00  0.00    -0.084 Cl
ENDBRANCH  23  25
ENDBRANCH   3  23
TORSDOF 4
