MODEL 1
REMARK VINA RESULT:    -8.026      0.000      0.000
REMARK INTER + INTRA:         -14.822
REMARK INTER:                 -12.952
REMARK INTRA:                  -1.871
REMARK UNBOUND:                -1.871
REMARK SMILES CCCCOc1ccc(-c2c(C)ncc(C(=O)O)c2C)cc1CNC(=O)c1ccc(C(F)(F)F)cc1F
REMARK SMILES IDX 6 1 7 2 8 3 9 4 21 5 22 6 5 7 4 8 3 9 2 10 1 11 23 12 24 13
REMARK SMILES IDX 25 14 26 15 27 17 28 18 36 19 29 20 35 21 30 22 37 23 31 24
REMARK SMILES IDX 32 25 33 26 34 27 10 28 11 29 19 30 13 31 15 32 14 33 12 34
REMARK SMILES IDX 20 35 16 36 17 37 18 38
REMARK H PARENT 24 16 18 39
ROOT
ATOM      1  C   UNL     1       8.704   4.376  -5.957  1.00  0.00     0.124 A 
ATOM      2  C   UNL     1      10.063   4.633  -6.154  1.00  0.00     0.047 A 
ATOM      3  C   UNL     1      10.481   5.530  -7.143  1.00  0.00     0.012 A 
ATOM      4  C   UNL     1       9.552   6.189  -7.957  1.00  0.00    -0.016 A 
ATOM      5  C   UNL     1       8.190   5.943  -7.743  1.00  0.00     0.018 A 
ATOM      6  C   UNL     1       7.755   5.053  -6.742  1.00  0.00     0.014 A 
ENDROOT
BRANCH   1   7
ATOM      7  O   UNL     1       8.197   3.504  -5.031  1.00  0.00    -0.493 OA
BRANCH   7   8
ATOM      8  C   UNL     1       8.963   2.357  -4.665  1.00  0.00     0.229 C 
BRANCH   8   9
ATOM      9  C   UNL     1       9.063   2.249  -3.145  1.00  0.00     0.041 C 
BRANCH   9  10
ATOM     10  C   UNL     1      10.408   1.671  -2.712  1.00  0.00     0.000 C 
ATOM     11  C   UNL     1      11.481   1.909  -3.762  1.00  0.00     0.004 C 
ENDBRANCH   9  10
ENDBRANCH   8   9
ENDBRANCH   7   8
ENDBRANCH   1   7
BRANCH   6  12
ATOM     12  C   UNL     1       6.275   4.808  -6.581  1.00  0.00     0.156 C 
BRANCH  12  13
ATOM     13  N   UNL     1       5.816   5.264  -5.288  1.00  0.00    -0.348 N 
ATOM     14  C   UNL     1       4.987   6.352  -5.146  1.00  0.00     0.254 C 
ATOM     15  O   UNL     1       4.685   7.087  -6.082  1.00  0.00    -0.269 OA
ATOM     16  H   UNL     1       5.937   4.618  -4.517  1.00  0.00     0.164 HD
BRANCH  14  17
ATOM     17  C   UNL     1       4.437   6.624  -3.789  1.00  0.00     0.075 A 
ATOM     18  C   UNL     1       3.605   5.659  -3.203  1.00  0.00     0.017 A 
ATOM     19  C   UNL     1       4.710   7.790  -3.072  1.00  0.00     0.136 A 
ATOM     20  C   UNL     1       3.061   5.862  -1.929  1.00  0.00     0.014 A 
ATOM     21  C   UNL     1       4.171   8.000  -1.800  1.00  0.00     0.053 A 
ATOM     22  C   UNL     1       3.340   7.036  -1.214  1.00  0.00     0.058 A 
ATOM     23  F   UNL     1       5.505   8.747  -3.576  1.00  0.00    -0.206 F 
BRANCH  22  24
ATOM     24  C   UNL     1       2.745   7.247   0.158  1.00  0.00     0.416 C 
ATOM     25  F   UNL     1       3.696   7.433   1.114  1.00  0.00    -0.166 F 
ATOM     26  F   UNL     1       1.925   8.331   0.232  1.00  0.00    -0.166 F 
ATOM     27  F   UNL     1       2.000   6.185   0.568  1.00  0.00    -0.166 F 
ENDBRANCH  22  24
ENDBRANCH  14  17
ENDBRANCH  12  13
ENDBRANCH   6  12
BRANCH   4  28
ATOM     28  C   UNL     1       9.996   7.114  -9.012  1.00  0.00     0.007 A 
ATOM     29  C   UNL     1       9.890   8.510  -8.828  1.00  0.00     0.045 A 
ATOM     30  C   UNL     1      10.528   6.643 -10.242  1.00  0.00    -0.025 A 
ATOM     31  N   UNL     1      10.256   9.415  -9.770  1.00  0.00    -0.260 NA
ATOM     32  C   UNL     1      10.887   7.586 -11.229  1.00  0.00     0.081 A 
ATOM     33  C   UNL     1      10.738   8.936 -10.938  1.00  0.00     0.127 A 
ATOM     34  C   UNL     1       9.352   9.101  -7.552  1.00  0.00     0.067 C 
ATOM     35  C   UNL     1      10.688   5.165 -10.506  1.00  0.00     0.046 C 
BRANCH  32  36
ATOM     36  C   UNL     1      11.376   7.195 -12.572  1.00  0.00     0.337 C 
ATOM     37  O   UNL     1      10.708   7.018 -13.573  1.00  0.00    -0.246 OA
BRANCH  36  38
ATOM     38  O   UNL     1      12.710   7.023 -12.600  1.00  0.00    -0.478 OA
ATOM     39  H   UNL     1      12.872   6.553 -13.445  1.00  0.00     0.297 HD
ENDBRANCH  36  38
ENDBRANCH  32  36
ENDBRANCH   4  28
TORSDOF 11
ENDMDL
