MODEL 4
REMARK VINA RESULT:    -7.486      5.592     11.545
REMARK INTER + INTRA:         -13.317
REMARK INTER:                 -13.407
REMARK INTRA:                   0.090
REMARK UNBOUND:                -0.141
REMARK SMILES COCC(C)(C)CN1Cc2cc(Nc3nn([C@H]4CCCCC[C@@H]4C#N)c4cc[nH]c(=O)c34)ccc2S1(=O)=O
REMARK SMILES IDX 14 1 15 2 16 3 26 4 27 5 28 6 29 7 30 8 31 9 32 10 13 12
REMARK SMILES IDX 12 14 8 15 9 16 36 17 10 18 35 19 37 20 38 21 11 22 34 23
REMARK SMILES IDX 33 24 7 25 4 26 5 27 6 28 3 29 2 30 1 31 17 32 18 33 19 34
REMARK SMILES IDX 20 35 21 36 22 37 23 39 24 40 25 41
REMARK H PARENT 29 11 13 13
REMARK Flexibility Score:   39.900
ROOT
ATOM      1  C   UNL     1       7.300 -21.704  22.383  1.00  0.00     0.166 A 
ATOM      2  N   UNL     1       6.369 -22.497  21.841  1.00  0.00    -0.153 NA
ATOM      3  N   UNL     1       6.714 -23.750  22.218  1.00  0.00    -0.258 N 
ATOM      4  C   UNL     1       7.894 -23.773  22.902  1.00  0.00     0.078 A 
ATOM      5  C   UNL     1       8.592 -24.888  23.416  1.00  0.00     0.046 A 
ATOM      6  C   UNL     1       9.741 -24.594  24.055  1.00  0.00     0.088 A 
ATOM      7  N   UNL     1      10.200 -23.295  24.188  1.00  0.00    -0.328 N 
ATOM      8  C   UNL     1       9.555 -22.162  23.691  1.00  0.00     0.261 A 
ATOM      9  O   UNL     1      10.047 -21.047  23.822  1.00  0.00    -0.269 OA
ATOM     10  C   UNL     1       8.306 -22.459  23.019  1.00  0.00     0.109 A 
ATOM     11  H   UNL     1      11.073 -23.109  24.666  1.00  0.00     0.169 HD
ENDROOT
BRANCH   1  12
ATOM     12  N   UNL     1       7.249 -20.354  22.276  1.00  0.00    -0.338 N 
ATOM     13  H   UNL     1       7.975 -20.011  21.650  1.00  0.00     0.168 HD
BRANCH  12  14
ATOM     14  C   UNL     1       6.073 -19.598  22.024  1.00  0.00     0.040 A 
ATOM     15  N   UNL     1       3.459 -16.457  19.553  1.00  0.00    -0.193 NA
ATOM     16  C   UNL     1       4.898 -16.536  20.012  1.00  0.00     0.139 C 
ATOM     17  S   UNL     1       2.513 -17.120  20.850  1.00  0.00     0.243 S 
ATOM     18  C   UNL     1       5.017 -17.768  20.867  1.00  0.00    -0.011 A 
ATOM     19  C   UNL     1       3.791 -18.187  21.391  1.00  0.00     0.087 A 
ATOM     20  O   UNL     1       2.357 -16.101  21.865  1.00  0.00    -0.207 OA
ATOM     21  O   UNL     1       1.411 -17.891  20.326  1.00  0.00    -0.207 OA
ATOM     22  C   UNL     1       6.167 -18.479  21.178  1.00  0.00     0.032 A 
ATOM     23  C   UNL     1       3.646 -19.308  22.182  1.00  0.00     0.024 A 
ATOM     24  C   UNL     1       4.806 -20.020  22.496  1.00  0.00     0.027 A 
BRANCH  15  25
ATOM     25  C   UNL     1       3.266 -17.099  18.211  1.00  0.00     0.111 C 
BRANCH  25  26
ATOM     26  C   UNL     1       2.519 -16.134  17.252  1.00  0.00     0.002 C 
ATOM     27  C   UNL     1       1.679 -16.929  16.235  1.00  0.00     0.015 C 
ATOM     28  C   UNL     1       3.512 -15.232  16.496  1.00  0.00     0.015 C 
BRANCH  26  29
ATOM     29  C   UNL     1       1.587 -15.226  18.090  1.00  0.00     0.167 C 
BRANCH  29  30
ATOM     30  O   UNL     1       0.246 -15.715  18.044  1.00  0.00    -0.384 OA
ATOM     31  C   UNL     1      -0.613 -14.973  18.903  1.00  0.00     0.194 C 
ENDBRANCH  29  30
ENDBRANCH  26  29
ENDBRANCH  25  26
ENDBRANCH  15  25
ENDBRANCH  12  14
ENDBRANCH   1  12
BRANCH   3  32
ATOM     32  C   UNL     1       5.790 -24.838  21.864  1.00  0.00     0.125 C 
BRANCH  32  33
ATOM     33  C   UNL     1       5.226 -25.481  23.144  1.00  0.00     0.029 C 
BRANCH  33  34
ATOM     34  C   UNL     1       4.869 -26.961  23.022  1.00  0.00     0.002 C 
BRANCH  34  35
ATOM     35  C   UNL     1       3.604 -27.303  22.243  1.00  0.00     0.000 C 
BRANCH  35  36
ATOM     36  C   UNL     1       2.877 -26.106  21.642  1.00  0.00     0.001 C 
BRANCH  36  37
ATOM     37  C   UNL     1       3.658 -25.455  20.502  1.00  0.00     0.021 CG0
ATOM     38  G   UNL     1       4.668 -24.364  20.906  1.00  0.00     0.000 G0
ENDBRANCH  36  37
ENDBRANCH  35  36
ENDBRANCH  34  35
ENDBRANCH  33  34
ENDBRANCH  32  33
BRANCH  32  39
ATOM     39  C   UNL     1       4.685 -24.373  20.885  1.00  0.00     0.117 CG0
ATOM     40  C   UNL     1       5.261 -23.861  19.618  1.00  0.00     0.068 C 
ATOM     41  N   UNL     1       5.669 -23.440  18.616  1.00  0.00    -0.198 NA
ATOM     42  G   UNL     1       3.658 -25.463  20.523  1.00  0.00     0.000 G0
ENDBRANCH  32  39
ENDBRANCH   3  32
TORSDOF 7
ENDMDL
