MODEL 6
REMARK VINA RESULT:    -7.139      5.749      9.115
REMARK INTER + INTRA:         -12.706
REMARK INTER:                 -11.719
REMARK INTRA:                  -0.987
REMARK UNBOUND:                -0.141
REMARK SMILES COCC(C)(C)CN1Cc2cc(Nc3nn([C@H]4CCCCC[C@@H]4C#N)c4cc[nH]c(=O)c34)ccc2S1(=O)=O
REMARK SMILES IDX 14 1 15 2 16 3 26 4 27 5 28 6 29 7 30 8 31 9 32 10 13 12
REMARK SMILES IDX 12 14 8 15 9 16 36 17 10 18 35 19 37 20 38 21 11 22 34 23
REMARK SMILES IDX 33 24 7 25 4 26 5 27 6 28 3 29 2 30 1 31 17 32 18 33 19 34
REMARK SMILES IDX 20 35 21 36 22 37 23 39 24 40 25 41
REMARK H PARENT 29 11 13 13
REMARK Flexibility Score:   39.900
ROOT
ATOM      1  C   UNL     1       5.481 -21.456  22.334  1.00  0.00     0.166 A 
ATOM      2  N   UNL     1       5.927 -22.306  23.266  1.00  0.00    -0.153 NA
ATOM      3  N   UNL     1       6.116 -23.475  22.610  1.00  0.00    -0.258 N 
ATOM      4  C   UNL     1       5.707 -23.406  21.311  1.00  0.00     0.078 A 
ATOM      5  C   UNL     1       5.707 -24.424  20.332  1.00  0.00     0.046 A 
ATOM      6  C   UNL     1       5.243 -24.052  19.123  1.00  0.00     0.088 A 
ATOM      7  N   UNL     1       4.794 -22.768  18.869  1.00  0.00    -0.328 N 
ATOM      8  C   UNL     1       4.764 -21.729  19.801  1.00  0.00     0.261 A 
ATOM      9  O   UNL     1       4.318 -20.627  19.504  1.00  0.00    -0.269 OA
ATOM     10  C   UNL     1       5.280 -22.108  21.101  1.00  0.00     0.109 A 
ATOM     11  H   UNL     1       4.442 -22.522  17.952  1.00  0.00     0.169 HD
ENDROOT
BRANCH   1  12
ATOM     12  N   UNL     1       5.240 -20.150  22.606  1.00  0.00    -0.338 N 
ATOM     13  H   UNL     1       4.993 -20.022  23.586  1.00  0.00     0.168 HD
BRANCH  12  14
ATOM     14  C   UNL     1       6.081 -19.067  22.231  1.00  0.00     0.040 A 
ATOM     15  N   UNL     1      10.326 -17.021  21.461  1.00  0.00    -0.193 NA
ATOM     16  C   UNL     1       9.744 -17.927  22.522  1.00  0.00     0.139 C 
ATOM     17  S   UNL     1       9.054 -15.920  21.031  1.00  0.00     0.243 S 
ATOM     18  C   UNL     1       8.282 -18.092  22.203  1.00  0.00    -0.011 A 
ATOM     19  C   UNL     1       7.781 -17.063  21.403  1.00  0.00     0.087 A 
ATOM     20  O   UNL     1       8.995 -14.881  22.035  1.00  0.00    -0.207 OA
ATOM     21  O   UNL     1       9.080 -15.651  19.613  1.00  0.00    -0.207 OA
ATOM     22  C   UNL     1       7.432 -19.107  22.617  1.00  0.00     0.032 A 
ATOM     23  C   UNL     1       6.476 -17.013  20.959  1.00  0.00     0.024 A 
ATOM     24  C   UNL     1       5.621 -18.034  21.379  1.00  0.00     0.027 A 
BRANCH  15  25
ATOM     25  C   UNL     1      10.922 -17.803  20.328  1.00  0.00     0.111 C 
BRANCH  25  26
ATOM     26  C   UNL     1      12.470 -17.706  20.359  1.00  0.00     0.002 C 
ATOM     27  C   UNL     1      13.068 -18.882  21.155  1.00  0.00     0.015 C 
ATOM     28  C   UNL     1      12.926 -16.380  20.995  1.00  0.00     0.015 C 
BRANCH  26  29
ATOM     29  C   UNL     1      13.000 -17.748  18.905  1.00  0.00     0.167 C 
BRANCH  29  30
ATOM     30  O   UNL     1      12.913 -16.453  18.309  1.00  0.00    -0.384 OA
ATOM     31  C   UNL     1      13.041 -16.518  16.892  1.00  0.00     0.194 C 
ENDBRANCH  29  30
ENDBRANCH  26  29
ENDBRANCH  25  26
ENDBRANCH  15  25
ENDBRANCH  12  14
ENDBRANCH   1  12
BRANCH   3  32
ATOM     32  C   UNL     1       6.726 -24.579  23.365  1.00  0.00     0.125 C 
BRANCH  32  33
ATOM     33  C   UNL     1       5.839 -25.834  23.266  1.00  0.00     0.029 C 
BRANCH  33  34
ATOM     34  C   UNL     1       6.596 -27.156  23.167  1.00  0.00     0.002 C 
BRANCH  34  35
ATOM     35  C   UNL     1       7.426 -27.567  24.378  1.00  0.00     0.000 C 
BRANCH  35  36
ATOM     36  C   UNL     1       8.251 -26.447  25.001  1.00  0.00     0.001 C 
BRANCH  36  37
ATOM     37  C   UNL     1       9.036 -25.648  23.963  1.00  0.00     0.021 CG0
ATOM     38  G   UNL     1       8.199 -24.846  22.947  1.00  0.00     0.000 G0
ENDBRANCH  36  37
ENDBRANCH  35  36
ENDBRANCH  34  35
ENDBRANCH  33  34
ENDBRANCH  32  33
BRANCH  32  39
ATOM     39  C   UNL     1       8.191 -24.841  22.938  1.00  0.00     0.117 CG0
ATOM     40  C   UNL     1       8.910 -23.575  22.657  1.00  0.00     0.068 C 
ATOM     41  N   UNL     1       9.508 -22.610  22.415  1.00  0.00    -0.198 NA
ATOM     42  G   UNL     1       9.021 -25.630  23.970  1.00  0.00     0.000 G0
ENDBRANCH  32  39
ENDBRANCH   3  32
TORSDOF 7
ENDMDL
