REMARK VINA RESULT:    -8.570      8.302     11.845
REMARK INTER + INTRA:         -12.900
REMARK INTER:                 -12.565
REMARK INTRA:                  -0.335
REMARK UNBOUND:                -0.822
REMARK SMILES N#C[C@@H]1CCCC[C@H]1n1cc(C(N)=O)c(Nc2ccc(S(=O)(=O)CC(F)(F)F)cc2)n1
REMARK SMILES IDX 17 1 18 2 19 3 20 4 29 5 30 6 16 7 15 9 9 10 10 11 31 12
REMARK SMILES IDX 11 13 8 14 1 15 2 16 3 17 4 18 5 19 7 20 6 21 12 22 13 23
REMARK SMILES IDX 14 24 21 27 22 28 23 29 24 30 25 31 26 32 27 33 28 34
REMARK H PARENT 16 8 13 25 13 26
ROOT
ATOM      1  C   UNL     1       7.975 -27.211  24.666  1.00  0.00     0.040 A 
ATOM      2  C   UNL     1       8.361 -28.408  25.296  1.00  0.00     0.027 A 
ATOM      3  C   UNL     1       9.470 -28.461  26.147  1.00  0.00     0.022 A 
ATOM      4  C   UNL     1      10.213 -27.303  26.370  1.00  0.00     0.067 A 
ATOM      5  C   UNL     1       9.841 -26.096  25.779  1.00  0.00     0.022 A 
ATOM      6  C   UNL     1       8.728 -26.060  24.930  1.00  0.00     0.027 A 
ENDROOT
BRANCH   1   7
ATOM      7  N   UNL     1       6.845 -27.230  23.822  1.00  0.00    -0.338 N 
ATOM      8  H   UNL     1       6.341 -28.118  23.874  1.00  0.00     0.168 HD
BRANCH   7   9
ATOM      9  C   UNL     1       6.325 -26.312  22.971  1.00  0.00     0.165 A 
ATOM     10  N   UNL     1       5.974 -24.603  21.762  1.00  0.00    -0.265 N 
ATOM     11  C   UNL     1       4.867 -25.374  21.571  1.00  0.00     0.125 A 
ATOM     12  N   UNL     1       6.863 -25.145  22.603  1.00  0.00    -0.154 NA
ATOM     13  C   UNL     1       5.049 -26.504  22.350  1.00  0.00     0.101 A 
BRANCH  10  14
ATOM     14  C   UNL     1       6.226 -23.278  21.193  1.00  0.00     0.124 C 
ATOM     15  N   UNL     1       5.565 -24.059  17.898  1.00  0.00    -0.198 NA
ATOM     16  C   UNL     1       5.333 -23.544  18.911  1.00  0.00     0.068 C 
ATOM     17  C   UNL     1       5.094 -22.894  20.213  1.00  0.00     0.117 C 
ATOM     18  C   UNL     1       5.015 -21.374  20.041  1.00  0.00     0.021 C 
ATOM     19  C   UNL     1       4.698 -20.665  21.358  1.00  0.00     0.002 C 
ATOM     20  C   UNL     1       6.471 -22.217  22.287  1.00  0.00     0.029 C 
ATOM     21  C   UNL     1       5.222 -21.396  22.594  1.00  0.00     0.002 C 
ENDBRANCH  10  14
BRANCH  13  22
ATOM     22  C   UNL     1       4.163 -27.639  22.520  1.00  0.00     0.254 C 
ATOM     23  N   UNL     1       2.938 -27.555  21.927  1.00  0.00    -0.365 N 
ATOM     24  O   UNL     1       4.477 -28.637  23.165  1.00  0.00    -0.269 OA
ATOM     25  H   UNL     1       2.308 -28.338  22.040  1.00  0.00     0.159 HD
ATOM     26  H   UNL     1       2.623 -26.748  21.411  1.00  0.00     0.159 HD
ENDBRANCH  13  22
ENDBRANCH   7   9
ENDBRANCH   1   7
BRANCH   4  27
ATOM     27  S   UNL     1      11.637 -27.360  27.439  1.00  0.00     0.187 S 
ATOM     28  O   UNL     1      12.172 -26.014  27.490  1.00  0.00    -0.223 OA
ATOM     29  O   UNL     1      11.223 -28.053  28.642  1.00  0.00    -0.223 OA
BRANCH  27  30
ATOM     30  C   UNL     1      12.738 -28.384  26.534  1.00  0.00     0.257 C 
BRANCH  30  31
ATOM     31  C   UNL     1      13.421 -27.561  25.499  1.00  0.00     0.403 C 
ATOM     32  F   UNL     1      12.599 -27.173  24.506  1.00  0.00    -0.170 F 
ATOM     33  F   UNL     1      14.032 -26.474  26.005  1.00  0.00    -0.170 F 
ATOM     34  F   UNL     1      14.394 -28.314  24.919  1.00  0.00    -0.170 F 
ENDBRANCH  30  31
ENDBRANCH  27  30
ENDBRANCH   4  27
TORSDOF 7
