MODEL 5
REMARK VINA RESULT:    -7.469      3.238      5.898
REMARK INTER + INTRA:         -11.035
REMARK INTER:                 -10.273
REMARK INTRA:                  -0.762
REMARK UNBOUND:                -0.510
REMARK SMILES Cc1cnc(NCCN2CCOCC2)nc1-c1cnn(CCC#N)c1
REMARK SMILES IDX 1 1 2 2 3 3 4 4 5 5 15 6 16 7 17 8 18 9 25 10 19 11 20 12
REMARK SMILES IDX 21 13 22 14 23 15 24 16 6 17 7 19 8 20 9 21 10 22 14 23
REMARK SMILES IDX 11 24 13 25 12 26
REMARK H PARENT 6 18
ROOT
ATOM      1  C   UNL     1       8.417 -21.306  22.000  1.00  0.00     0.048 C 
ATOM      2  C   UNL     1       7.072 -20.705  22.237  1.00  0.00    -0.006 A 
ATOM      3  C   UNL     1       6.886 -19.344  22.105  1.00  0.00     0.120 A 
ATOM      4  N   UNL     1       5.717 -18.714  22.315  1.00  0.00    -0.221 NA
ATOM      5  C   UNL     1       4.675 -19.473  22.663  1.00  0.00     0.223 A 
ATOM      6  N   UNL     1       4.741 -20.795  22.822  1.00  0.00    -0.213 NA
ATOM      7  C   UNL     1       5.926 -21.402  22.583  1.00  0.00     0.082 A 
ENDROOT
BRANCH   7   8
ATOM      8  C   UNL     1       5.873 -22.844  22.756  1.00  0.00     0.039 A 
ATOM      9  C   UNL     1       6.441 -23.639  23.777  1.00  0.00     0.145 A 
ATOM     10  C   UNL     1       5.144 -23.741  22.002  1.00  0.00     0.119 A 
ATOM     11  N   UNL     1       6.149 -24.937  23.645  1.00  0.00    -0.181 NA
ATOM     12  N   UNL     1       5.352 -24.968  22.564  1.00  0.00    -0.271 N 
BRANCH  12  13
ATOM     13  C   UNL     1       4.799 -26.238  22.131  1.00  0.00     0.159 C 
BRANCH  13  14
ATOM     14  C   UNL     1       5.518 -27.423  22.758  1.00  0.00     0.144 C 
ATOM     15  C   UNL     1       4.757 -28.662  22.557  1.00  0.00     0.064 C 
ATOM     16  N   UNL     1       4.153 -29.632  22.356  1.00  0.00    -0.198 NA
ENDBRANCH  13  14
ENDBRANCH  12  13
ENDBRANCH   7   8
BRANCH   5  17
ATOM     17  N   UNL     1       3.430 -18.907  22.894  1.00  0.00    -0.353 N 
ATOM     18  H   UNL     1       3.431 -18.631  23.870  1.00  0.00     0.163 HD
BRANCH  17  19
ATOM     19  C   UNL     1       3.018 -17.876  21.951  1.00  0.00     0.131 C 
BRANCH  19  20
ATOM     20  C   UNL     1       1.860 -18.366  21.047  1.00  0.00     0.106 C 
BRANCH  20  21
ATOM     21  N   UNL     1       2.124 -18.464  19.602  1.00  0.00    -0.297 NA
ATOM     22  C   UNL     1       1.461 -17.439  18.780  1.00  0.00     0.113 C 
ATOM     23  C   UNL     1       3.555 -18.591  19.282  1.00  0.00     0.113 C 
ATOM     24  C   UNL     1       2.436 -16.406  18.191  1.00  0.00     0.175 C 
ATOM     25  C   UNL     1       3.810 -18.328  17.789  1.00  0.00     0.175 C 
ATOM     26  O   UNL     1       3.477 -16.989  17.396  1.00  0.00    -0.379 OA
ENDBRANCH  20  21
ENDBRANCH  19  20
ENDBRANCH  17  19
ENDBRANCH   5  17
TORSDOF 7
ENDMDL
