MODEL 6
REMARK VINA RESULT:    -8.564      2.003      3.416
REMARK INTER + INTRA:         -14.887
REMARK INTER:                 -13.354
REMARK INTRA:                  -1.533
REMARK UNBOUND:                -0.315
REMARK SMILES COC[C@@H](C)OC(=O)Cc1ccc(Nc2cc(Nc3ccccc3OC)c(C(N)=O)cn2)nc1
REMARK SMILES IDX 10 1 11 2 12 3 13 4 33 5 34 6 9 7 7 8 8 9 6 10 4 11 5 12
REMARK SMILES IDX 3 13 2 14 1 15 14 16 15 18 16 19 32 20 17 21 31 22 27 23
REMARK SMILES IDX 18 24 19 26 20 27 24 28 21 29 23 30 22 31 25 32 26 33 28 34
REMARK SMILES IDX 29 35 30 36
REMARK H PARENT 14 17 18 25 29 37 29 38
ROOT
ATOM      1  C   UNL     1     -21.613  19.276  21.328  1.00  0.00    -0.018 A 
ATOM      2  C   UNL     1     -21.504  18.929  22.674  1.00  0.00     0.010 A 
ATOM      3  C   UNL     1     -20.328  18.343  23.139  1.00  0.00     0.047 A 
ATOM      4  C   UNL     1     -19.281  18.113  22.254  1.00  0.00     0.131 A 
ATOM      5  N   UNL     1     -19.374  18.429  20.944  1.00  0.00    -0.239 NA
ATOM      6  C   UNL     1     -20.525  18.993  20.513  1.00  0.00     0.117 A 
ENDROOT
BRANCH   1   7
ATOM      7  C   UNL     1     -22.854  19.928  20.777  1.00  0.00     0.159 C 
BRANCH   7   8
ATOM      8  C   UNL     1     -22.668  21.373  20.368  1.00  0.00     0.310 C 
ATOM      9  O   UNL     1     -23.465  22.053  19.741  1.00  0.00    -0.252 OA
BRANCH   8  10
ATOM     10  O   UNL     1     -21.438  21.803  20.776  1.00  0.00    -0.460 OA
BRANCH  10  11
ATOM     11  C   UNL     1     -20.759  22.705  19.878  1.00  0.00     0.199 C 
ATOM     12  C   UNL     1     -20.295  21.876  18.679  1.00  0.00     0.055 C 
BRANCH  11  13
ATOM     13  C   UNL     1     -19.569  23.373  20.588  1.00  0.00     0.204 C 
BRANCH  13  14
ATOM     14  O   UNL     1     -18.371  22.602  20.486  1.00  0.00    -0.381 OA
ATOM     15  C   UNL     1     -17.226  23.406  20.219  1.00  0.00     0.195 C 
ENDBRANCH  13  14
ENDBRANCH  11  13
ENDBRANCH  10  11
ENDBRANCH   8  10
ENDBRANCH   7   8
ENDBRANCH   1   7
BRANCH   4  16
ATOM     16  N   UNL     1     -18.073  17.531  22.655  1.00  0.00    -0.325 N 
ATOM     17  H   UNL     1     -18.265  16.550  22.811  1.00  0.00     0.170 HD
BRANCH  16  18
ATOM     18  C   UNL     1     -16.841  17.757  22.027  1.00  0.00     0.133 A 
ATOM     19  C   UNL     1     -16.385  16.848  21.070  1.00  0.00     0.074 A 
ATOM     20  N   UNL     1     -16.152  18.880  22.322  1.00  0.00    -0.238 NA
ATOM     21  C   UNL     1     -15.166  17.053  20.411  1.00  0.00     0.057 A 
ATOM     22  C   UNL     1     -14.982  19.086  21.672  1.00  0.00     0.129 A 
ATOM     23  C   UNL     1     -14.441  18.210  20.738  1.00  0.00     0.081 A 
BRANCH  21  24
ATOM     24  N   UNL     1     -14.661  16.108  19.493  1.00  0.00    -0.352 N 
ATOM     25  H   UNL     1     -14.587  16.453  18.528  1.00  0.00     0.167 HD
BRANCH  24  26
ATOM     26  C   UNL     1     -13.998  14.869  19.650  1.00  0.00     0.081 A 
ATOM     27  C   UNL     1     -12.627  14.767  19.918  1.00  0.00     0.030 A 
ATOM     28  C   UNL     1     -14.761  13.678  19.581  1.00  0.00     0.142 A 
ATOM     29  C   UNL     1     -12.020  13.522  20.112  1.00  0.00     0.002 A 
ATOM     30  C   UNL     1     -14.146  12.433  19.776  1.00  0.00     0.048 A 
ATOM     31  C   UNL     1     -12.778  12.358  20.042  1.00  0.00     0.004 A 
BRANCH  28  32
ATOM     32  O   UNL     1     -16.098  13.859  19.310  1.00  0.00    -0.495 OA
ATOM     33  C   UNL     1     -17.026  13.267  20.207  1.00  0.00     0.278 C 
ENDBRANCH  28  32
ENDBRANCH  24  26
ENDBRANCH  21  24
BRANCH  23  34
ATOM     34  C   UNL     1     -13.149  18.523  20.088  1.00  0.00     0.252 C 
ATOM     35  N   UNL     1     -12.075  18.781  20.900  1.00  0.00    -0.365 N 
ATOM     36  O   UNL     1     -13.028  18.525  18.869  1.00  0.00    -0.269 OA
ATOM     37  H   UNL     1     -12.062  18.530  21.879  1.00  0.00     0.159 HD
ATOM     38  H   UNL     1     -11.179  18.851  20.431  1.00  0.00     0.159 HD
ENDBRANCH  23  34
ENDBRANCH  16  18
ENDBRANCH   4  16
TORSDOF 12
ENDMDL
