REMARK VINA RESULT:    -9.116      1.988      3.142
REMARK INTER + INTRA:         -16.174
REMARK INTER:                 -15.054
REMARK INTRA:                  -1.120
REMARK UNBOUND:                -1.996
REMARK SMILES O=C(O)Cc1cc(Cl)cc(OCCC2(N3CCCC3)CCN(c3nc4ccc(C(F)(F)F)nc4s3)CC2)c1
REMARK SMILES IDX 11 1 10 2 5 3 6 4 38 5 7 6 9 7 8 8 4 9 2 10 1 11 3 12 12 14
REMARK SMILES IDX 13 15 14 16 20 17 37 18 21 19 36 20 22 21 15 22 16 23 19 24
REMARK SMILES IDX 17 25 18 26 23 27 24 28 35 29 25 30 34 31 26 32 33 33 27 34
REMARK SMILES IDX 28 35 29 36 30 37 31 38 32 39
REMARK H PARENT 3 13
ROOT
ATOM      1  O   UNL     1      44.018 -39.024 109.971  1.00  0.00    -0.493 OA
ENDROOT
BRANCH   1   2
ATOM      2  C   UNL     1      45.214 -39.217 109.339  1.00  0.00     0.121 A 
ATOM      3  C   UNL     1      47.248 -38.543 108.182  1.00  0.00    -0.032 A 
ATOM      4  C   UNL     1      47.616 -39.891 108.067  1.00  0.00     0.025 A 
ATOM      5  C   UNL     1      46.039 -38.215 108.822  1.00  0.00     0.050 A 
ATOM      6  C   UNL     1      46.795 -40.886 108.593  1.00  0.00     0.045 A 
ATOM      7  C   UNL     1      45.602 -40.554 109.229  1.00  0.00     0.067 A 
ATOM      8  Cl  UNL     1      47.259 -42.539 108.448  1.00  0.00    -0.084 Cl
BRANCH   3   9
ATOM      9  C   UNL     1      48.121 -37.460 107.592  1.00  0.00     0.158 C 
BRANCH   9  10
ATOM     10  C   UNL     1      47.763 -36.069 108.058  1.00  0.00     0.307 C 
ATOM     11  O   UNL     1      47.843 -35.604 109.181  1.00  0.00    -0.252 OA
BRANCH  10  12
ATOM     12  O   UNL     1      47.319 -35.300 107.041  1.00  0.00    -0.481 OA
ATOM     13  H   UNL     1      48.020 -34.621 106.943  1.00  0.00     0.296 HD
ENDBRANCH  10  12
ENDBRANCH   9  10
ENDBRANCH   3   9
ENDBRANCH   1   2
BRANCH   1  14
ATOM     14  C   UNL     1      43.016 -38.277 109.276  1.00  0.00     0.231 C 
BRANCH  14  15
ATOM     15  C   UNL     1      41.801 -39.187 109.047  1.00  0.00     0.064 C 
BRANCH  15  16
ATOM     16  C   UNL     1      40.660 -38.574 108.160  1.00  0.00     0.028 C 
ATOM     17  C   UNL     1      41.228 -37.521 107.168  1.00  0.00     0.044 C 
ATOM     18  C   UNL     1      40.022 -39.694 107.294  1.00  0.00     0.044 C 
ATOM     19  C   UNL     1      42.205 -38.114 106.155  1.00  0.00     0.121 C 
ATOM     20  C   UNL     1      40.959 -40.269 106.226  1.00  0.00     0.121 C 
ATOM     21  N   UNL     1      41.575 -39.217 105.425  1.00  0.00    -0.348 N 
BRANCH  16  22
ATOM     22  N   UNL     1      39.678 -37.946 109.095  1.00  0.00    -0.297 NA
ATOM     23  C   UNL     1      39.581 -38.512 110.443  1.00  0.00     0.085 C 
ATOM     24  C   UNL     1      38.292 -37.830 108.632  1.00  0.00     0.085 C 
ATOM     25  C   UNL     1      38.433 -37.727 111.049  1.00  0.00     0.017 C 
ATOM     26  C   UNL     1      37.503 -37.445 109.878  1.00  0.00     0.017 C 
ENDBRANCH  16  22
BRANCH  21  27
ATOM     27  C   UNL     1      41.990 -39.440 104.137  1.00  0.00     0.187 A 
ATOM     28  N   UNL     1      41.481 -38.800 103.100  1.00  0.00    -0.218 NA
ATOM     29  S   UNL     1      43.204 -40.608 103.704  1.00  0.00    -0.077 S 
ATOM     30  C   UNL     1      42.060 -39.221 101.922  1.00  0.00     0.102 A 
ATOM     31  C   UNL     1      43.016 -40.216 102.064  1.00  0.00     0.145 A 
ATOM     32  C   UNL     1      41.792 -38.771 100.621  1.00  0.00     0.034 A 
ATOM     33  N   UNL     1      43.726 -40.814 101.084  1.00  0.00    -0.231 NA
ATOM     34  C   UNL     1      42.495 -39.361  99.567  1.00  0.00     0.036 A 
ATOM     35  C   UNL     1      43.434 -40.367  99.830  1.00  0.00     0.146 A 
BRANCH  35  36
ATOM     36  C   UNL     1      44.210 -40.960  98.656  1.00  0.00     0.433 C 
ATOM     37  F   UNL     1      45.036 -40.049  98.067  1.00  0.00    -0.165 F 
ATOM     38  F   UNL     1      43.393 -41.410  97.655  1.00  0.00    -0.165 F 
ATOM     39  F   UNL     1      44.993 -42.024  98.991  1.00  0.00    -0.165 F 
ENDBRANCH  35  36
ENDBRANCH  21  27
ENDBRANCH  15  16
ENDBRANCH  14  15
ENDBRANCH   1  14
TORSDOF 10
