MODEL 1
REMARK VINA RESULT:    -8.222      0.000      0.000
REMARK INTER + INTRA:         -12.832
REMARK INTER:                 -11.346
REMARK INTRA:                  -1.486
REMARK UNBOUND:                -1.486
REMARK SMILES Cc1nc2c(N)cc(N3CCOCC3)nn2c1Nc1cccc(C(F)(F)F)c1CN1CCN(C)CC1
REMARK SMILES IDX 19 1 20 2 21 3 22 4 23 5 28 6 18 7 17 9 2 10 3 11 4 12 16 13
REMARK SMILES IDX 5 14 15 15 7 16 8 17 1 18 6 19 9 22 10 23 14 24 11 25 13 26
REMARK SMILES IDX 12 27 29 28 30 29 31 30 36 31 32 32 35 33 33 34 34 35 24 36
REMARK SMILES IDX 25 37 26 38 27 39
REMARK H PARENT 18 8 6 20 6 21
ROOT
ATOM      1  C   UNL     1      -2.520 -10.088  19.975  1.00  0.00     0.045 A 
ATOM      2  C   UNL     1      -3.581 -10.533  20.772  1.00  0.00     0.026 A 
ATOM      3  C   UNL     1      -4.594 -11.315  20.227  1.00  0.00     0.003 A 
ATOM      4  C   UNL     1      -4.534 -11.690  18.887  1.00  0.00     0.013 A 
ATOM      5  C   UNL     1      -3.466 -11.280  18.064  1.00  0.00     0.062 A 
ATOM      6  C   UNL     1      -2.451 -10.452  18.607  1.00  0.00     0.002 A 
ENDROOT
BRANCH   1   7
ATOM      7  N   UNL     1      -1.543  -9.234  20.546  1.00  0.00    -0.338 N 
ATOM      8  H   UNL     1      -0.626  -9.561  20.216  1.00  0.00     0.168 HD
BRANCH   7   9
ATOM      9  C   UNL     1      -1.532  -8.766  21.834  1.00  0.00     0.156 A 
ATOM     10  C   UNL     1      -0.880  -9.320  22.927  1.00  0.00     0.083 A 
ATOM     11  N   UNL     1      -1.140  -8.620  24.077  1.00  0.00    -0.228 NA
ATOM     12  C   UNL     1      -1.926  -7.630  23.701  1.00  0.00     0.179 A 
ATOM     13  N   UNL     1      -2.201  -7.654  22.343  1.00  0.00    -0.193 N 
ATOM     14  C   UNL     1      -2.547  -6.628  24.495  1.00  0.00     0.081 A 
ATOM     15  N   UNL     1      -3.006  -6.781  21.664  1.00  0.00    -0.147 NA
ATOM     16  C   UNL     1      -3.370  -5.773  23.874  1.00  0.00     0.078 A 
ATOM     17  C   UNL     1      -3.567  -5.848  22.388  1.00  0.00     0.151 A 
ATOM     18  C   UNL     1      -0.013 -10.519  22.979  1.00  0.00     0.071 C 
BRANCH  14  19
ATOM     19  N   UNL     1      -2.322  -6.592  25.865  1.00  0.00    -0.396 N 
ATOM     20  H   UNL     1      -2.579  -5.707  26.289  1.00  0.00     0.156 HD
ATOM     21  H   UNL     1      -2.792  -7.382  26.313  1.00  0.00     0.156 HD
ENDBRANCH  14  19
BRANCH  17  22
ATOM     22  N   UNL     1      -4.397  -4.914  21.763  1.00  0.00    -0.350 N 
ATOM     23  C   UNL     1      -5.832  -4.809  22.114  1.00  0.00     0.146 C 
ATOM     24  C   UNL     1      -3.857  -3.574  21.434  1.00  0.00     0.146 C 
ATOM     25  C   UNL     1      -6.011  -3.817  23.274  1.00  0.00     0.181 C 
ATOM     26  C   UNL     1      -4.091  -2.614  22.609  1.00  0.00     0.181 C 
ATOM     27  O   UNL     1      -5.492  -2.520  22.932  1.00  0.00    -0.378 OA
ENDBRANCH  17  22
ENDBRANCH   7   9
ENDBRANCH   1   7
BRANCH   6  28
ATOM     28  C   UNL     1      -1.283  -9.952  17.763  1.00  0.00     0.123 C 
BRANCH  28  29
ATOM     29  N   UNL     1      -1.112  -8.488  17.846  1.00  0.00    -0.296 NA
ATOM     30  C   UNL     1       0.003  -8.027  17.005  1.00  0.00     0.100 C 
ATOM     31  C   UNL     1      -2.348  -7.759  17.478  1.00  0.00     0.100 C 
ATOM     32  C   UNL     1       0.277  -6.505  17.159  1.00  0.00     0.099 C 
ATOM     33  C   UNL     1      -2.125  -6.283  17.052  1.00  0.00     0.099 C 
ATOM     34  N   UNL     1      -0.879  -5.661  17.534  1.00  0.00    -0.304 NA
ATOM     35  C   UNL     1      -0.932  -5.437  18.979  1.00  0.00     0.105 C 
ENDBRANCH  28  29
ENDBRANCH   6  28
BRANCH   5  36
ATOM     36  C   UNL     1      -3.443 -11.733  16.622  1.00  0.00     0.416 C 
ATOM     37  F   UNL     1      -4.542 -12.463  16.283  1.00  0.00    -0.166 F 
ATOM     38  F   UNL     1      -2.366 -12.515  16.332  1.00  0.00    -0.166 F 
ATOM     39  F   UNL     1      -3.399 -10.706  15.726  1.00  0.00    -0.166 F 
ENDBRANCH   5  36
TORSDOF 7
ENDMDL
MODEL 2
REMARK VINA RESULT:    -8.152      3.529      7.028
REMARK INTER + INTRA:         -12.735
REMARK INTER:                 -11.185
REMARK INTRA:                  -1.550
REMARK UNBOUND:                -1.486
REMARK SMILES Cc1nc2c(N)cc(N3CCOCC3)nn2c1Nc1cccc(C(F)(F)F)c1CN1CCN(C)CC1
REMARK SMILES IDX 19 1 20 2 21 3 22 4 23 5 28 6 18 7 17 9 2 10 3 11 4 12 16 13
REMARK SMILES IDX 5 14 15 15 7 16 8 17 1 18 6 19 9 22 10 23 14 24 11 25 13 26
REMARK SMILES IDX 12 27 29 28 30 29 31 30 36 31 32 32 35 33 33 34 34 35 24 36
REMARK SMILES IDX 25 37 26 38 27 39
REMARK H PARENT 18 8 6 20 6 21
ROOT
ATOM      1  C   UNL     1      -2.331  -9.705  19.500  1.00  0.00     0.045 A 
ATOM      2  C   UNL     1      -2.839 -10.980  19.773  1.00  0.00     0.026 A 
ATOM      3  C   UNL     1      -2.459 -11.660  20.925  1.00  0.00     0.003 A 
ATOM      4  C   UNL     1      -1.595 -11.053  21.834  1.00  0.00     0.013 A 
ATOM      5  C   UNL     1      -1.086  -9.759  21.601  1.00  0.00     0.062 A 
ATOM      6  C   UNL     1      -1.442  -9.079  20.410  1.00  0.00     0.002 A 
ENDROOT
BRANCH   1   7
ATOM      7  N   UNL     1      -2.684  -9.071  18.282  1.00  0.00    -0.338 N 
ATOM      8  H   UNL     1      -3.692  -8.872  18.327  1.00  0.00     0.168 HD
BRANCH   7   9
ATOM      9  C   UNL     1      -2.243  -9.418  17.032  1.00  0.00     0.156 A 
ATOM     10  C   UNL     1      -2.512 -10.590  16.339  1.00  0.00     0.083 A 
ATOM     11  N   UNL     1      -1.852 -10.628  15.138  1.00  0.00    -0.228 NA
ATOM     12  C   UNL     1      -1.198  -9.484  15.073  1.00  0.00     0.179 A 
ATOM     13  N   UNL     1      -1.397  -8.694  16.194  1.00  0.00    -0.193 N 
ATOM     14  C   UNL     1      -0.306  -9.018  14.071  1.00  0.00     0.081 A 
ATOM     15  N   UNL     1      -0.832  -7.472  16.434  1.00  0.00    -0.147 NA
ATOM     16  C   UNL     1       0.294  -7.839  14.282  1.00  0.00     0.078 A 
ATOM     17  C   UNL     1      -0.022  -7.031  15.506  1.00  0.00     0.151 A 
ATOM     18  C   UNL     1      -3.360 -11.734  16.747  1.00  0.00     0.071 C 
BRANCH  14  19
ATOM     19  N   UNL     1      -0.057  -9.797  12.949  1.00  0.00    -0.396 N 
ATOM     20  H   UNL     1      -0.868 -10.324  12.640  1.00  0.00     0.156 HD
ATOM     21  H   UNL     1       0.327  -9.213  12.202  1.00  0.00     0.156 HD
ENDBRANCH  14  19
BRANCH  17  22
ATOM     22  N   UNL     1       0.588  -5.785  15.676  1.00  0.00    -0.350 N 
ATOM     23  C   UNL     1       0.243  -4.914  16.822  1.00  0.00     0.146 C 
ATOM     24  C   UNL     1       2.022  -5.630  15.336  1.00  0.00     0.146 C 
ATOM     25  C   UNL     1       1.155  -5.241  18.016  1.00  0.00     0.181 C 
ATOM     26  C   UNL     1       2.886  -5.935  16.568  1.00  0.00     0.181 C 
ATOM     27  O   UNL     1       2.541  -5.075  17.670  1.00  0.00    -0.378 OA
ENDBRANCH  17  22
ENDBRANCH   7   9
ENDBRANCH   1   7
BRANCH   6  28
ATOM     28  C   UNL     1      -0.904  -7.689  20.085  1.00  0.00     0.123 C 
BRANCH  28  29
ATOM     29  N   UNL     1      -1.809  -6.613  20.536  1.00  0.00    -0.296 NA
ATOM     30  C   UNL     1      -1.134  -5.699  21.470  1.00  0.00     0.100 C 
ATOM     31  C   UNL     1      -2.369  -5.843  19.402  1.00  0.00     0.100 C 
ATOM     32  C   UNL     1      -2.095  -4.622  22.047  1.00  0.00     0.099 C 
ATOM     33  C   UNL     1      -2.894  -4.431  19.777  1.00  0.00     0.099 C 
ATOM     34  N   UNL     1      -3.241  -4.235  21.196  1.00  0.00    -0.304 NA
ATOM     35  C   UNL     1      -4.446  -4.987  21.547  1.00  0.00     0.105 C 
ENDBRANCH  28  29
ENDBRANCH   6  28
BRANCH   5  36
ATOM     36  C   UNL     1      -0.168  -9.143  22.632  1.00  0.00     0.416 C 
ATOM     37  F   UNL     1       0.920  -8.541  22.074  1.00  0.00    -0.166 F 
ATOM     38  F   UNL     1       0.318 -10.056  23.518  1.00  0.00    -0.166 F 
ATOM     39  F   UNL     1      -0.766  -8.181  23.392  1.00  0.00    -0.166 F 
ENDBRANCH   5  36
TORSDOF 7
ENDMDL
MODEL 3
REMARK VINA RESULT:    -7.988      2.419      4.553
REMARK INTER + INTRA:         -12.509
REMARK INTER:                 -10.853
REMARK INTRA:                  -1.656
REMARK UNBOUND:                -1.486
REMARK SMILES Cc1nc2c(N)cc(N3CCOCC3)nn2c1Nc1cccc(C(F)(F)F)c1CN1CCN(C)CC1
REMARK SMILES IDX 19 1 20 2 21 3 22 4 23 5 28 6 18 7 17 9 2 10 3 11 4 12 16 13
REMARK SMILES IDX 5 14 15 15 7 16 8 17 1 18 6 19 9 22 10 23 14 24 11 25 13 26
REMARK SMILES IDX 12 27 29 28 30 29 31 30 36 31 32 32 35 33 33 34 34 35 24 36
REMARK SMILES IDX 25 37 26 38 27 39
REMARK H PARENT 18 8 6 20 6 21
ROOT
ATOM      1  C   UNL     1      -1.525  -9.738  20.399  1.00  0.00     0.045 A 
ATOM      2  C   UNL     1      -0.742  -9.807  21.556  1.00  0.00     0.026 A 
ATOM      3  C   UNL     1      -1.175 -10.533  22.661  1.00  0.00     0.003 A 
ATOM      4  C   UNL     1      -2.382 -11.228  22.603  1.00  0.00     0.013 A 
ATOM      5  C   UNL     1      -3.182 -11.200  21.443  1.00  0.00     0.062 A 
ATOM      6  C   UNL     1      -2.760 -10.431  20.329  1.00  0.00     0.002 A 
ENDROOT
BRANCH   1   7
ATOM      7  N   UNL     1      -1.086  -8.932  19.320  1.00  0.00    -0.338 N 
ATOM      8  H   UNL     1      -0.068  -9.054  19.246  1.00  0.00     0.168 HD
BRANCH   7   9
ATOM      9  C   UNL     1      -1.514  -7.662  19.033  1.00  0.00     0.156 A 
ATOM     10  C   UNL     1      -1.289  -6.939  17.869  1.00  0.00     0.083 A 
ATOM     11  N   UNL     1      -1.809  -5.674  17.952  1.00  0.00    -0.228 NA
ATOM     12  C   UNL     1      -2.371  -5.616  19.145  1.00  0.00     0.179 A 
ATOM     13  N   UNL     1      -2.233  -6.797  19.856  1.00  0.00    -0.193 N 
ATOM     14  C   UNL     1      -3.011  -4.518  19.781  1.00  0.00     0.081 A 
ATOM     15  N   UNL     1      -2.681  -7.035  21.127  1.00  0.00    -0.147 NA
ATOM     16  C   UNL     1      -3.435  -4.699  21.039  1.00  0.00     0.078 A 
ATOM     17  C   UNL     1      -3.284  -6.032  21.711  1.00  0.00     0.151 A 
ATOM     18  C   UNL     1      -0.573  -7.359  16.642  1.00  0.00     0.071 C 
BRANCH  14  19
ATOM     19  N   UNL     1      -3.138  -3.308  19.112  1.00  0.00    -0.396 N 
ATOM     20  H   UNL     1      -2.266  -2.982  18.709  1.00  0.00     0.156 HD
ATOM     21  H   UNL     1      -3.880  -3.378  18.412  1.00  0.00     0.156 HD
ENDBRANCH  14  19
BRANCH  17  22
ATOM     22  N   UNL     1      -3.776  -6.201  23.007  1.00  0.00    -0.350 N 
ATOM     23  C   UNL     1      -3.448  -7.407  23.800  1.00  0.00     0.146 C 
ATOM     24  C   UNL     1      -3.880  -5.022  23.900  1.00  0.00     0.146 C 
ATOM     25  C   UNL     1      -2.152  -7.171  24.593  1.00  0.00     0.181 C 
ATOM     26  C   UNL     1      -2.576  -4.851  24.691  1.00  0.00     0.181 C 
ATOM     27  O   UNL     1      -2.276  -6.031  25.460  1.00  0.00    -0.378 OA
ENDBRANCH  17  22
ENDBRANCH   7   9
ENDBRANCH   1   7
BRANCH   6  28
ATOM     28  C   UNL     1      -3.594 -10.336  19.055  1.00  0.00     0.123 C 
BRANCH  28  29
ATOM     29  N   UNL     1      -2.839 -10.746  17.854  1.00  0.00    -0.296 NA
ATOM     30  C   UNL     1      -2.790 -12.211  17.723  1.00  0.00     0.100 C 
ATOM     31  C   UNL     1      -3.395 -10.154  16.616  1.00  0.00     0.100 C 
ATOM     32  C   UNL     1      -1.908 -12.673  16.530  1.00  0.00     0.099 C 
ATOM     33  C   UNL     1      -3.010 -10.903  15.312  1.00  0.00     0.099 C 
ATOM     34  N   UNL     1      -1.797 -11.738  15.389  1.00  0.00    -0.304 NA
ATOM     35  C   UNL     1      -0.597 -10.906  15.494  1.00  0.00     0.105 C 
ENDBRANCH  28  29
ENDBRANCH   6  28
BRANCH   5  36
ATOM     36  C   UNL     1      -4.472 -11.988  21.430  1.00  0.00     0.416 C 
ATOM     37  F   UNL     1      -4.634 -12.749  22.549  1.00  0.00    -0.166 F 
ATOM     38  F   UNL     1      -4.555 -12.845  20.374  1.00  0.00    -0.166 F 
ATOM     39  F   UNL     1      -5.589 -11.209  21.355  1.00  0.00    -0.166 F 
ENDBRANCH   5  36
TORSDOF 7
ENDMDL
MODEL 4
REMARK VINA RESULT:    -7.956      1.677      4.695
REMARK INTER + INTRA:         -12.465
REMARK INTER:                 -11.573
REMARK INTRA:                  -0.892
REMARK UNBOUND:                -1.486
REMARK SMILES Cc1nc2c(N)cc(N3CCOCC3)nn2c1Nc1cccc(C(F)(F)F)c1CN1CCN(C)CC1
REMARK SMILES IDX 19 1 20 2 21 3 22 4 23 5 28 6 18 7 17 9 2 10 3 11 4 12 16 13
REMARK SMILES IDX 5 14 15 15 7 16 8 17 1 18 6 19 9 22 10 23 14 24 11 25 13 26
REMARK SMILES IDX 12 27 29 28 30 29 31 30 36 31 32 32 35 33 33 34 34 35 24 36
REMARK SMILES IDX 25 37 26 38 27 39
REMARK H PARENT 18 8 6 20 6 21
ROOT
ATOM      1  C   UNL     1      -1.299  -9.498  17.206  1.00  0.00     0.045 A 
ATOM      2  C   UNL     1      -0.517  -9.798  16.084  1.00  0.00     0.026 A 
ATOM      3  C   UNL     1      -0.840 -10.875  15.265  1.00  0.00     0.003 A 
ATOM      4  C   UNL     1      -1.972 -11.639  15.541  1.00  0.00     0.013 A 
ATOM      5  C   UNL     1      -2.795 -11.347  16.648  1.00  0.00     0.062 A 
ATOM      6  C   UNL     1      -2.447 -10.273  17.505  1.00  0.00     0.002 A 
ENDROOT
BRANCH   1   7
ATOM      7  N   UNL     1      -0.900  -8.438  18.057  1.00  0.00    -0.338 N 
ATOM      8  H   UNL     1      -1.079  -8.743  19.023  1.00  0.00     0.168 HD
BRANCH   7   9
ATOM      9  C   UNL     1      -1.126  -7.103  17.847  1.00  0.00     0.156 A 
ATOM     10  C   UNL     1      -0.755  -6.349  16.742  1.00  0.00     0.083 A 
ATOM     11  N   UNL     1      -1.089  -5.029  16.898  1.00  0.00    -0.228 NA
ATOM     12  C   UNL     1      -1.681  -4.965  18.075  1.00  0.00     0.179 A 
ATOM     13  N   UNL     1      -1.744  -6.196  18.706  1.00  0.00    -0.193 N 
ATOM     14  C   UNL     1      -2.179  -3.827  18.767  1.00  0.00     0.081 A 
ATOM     15  N   UNL     1      -2.269  -6.446  19.944  1.00  0.00    -0.147 NA
ATOM     16  C   UNL     1      -2.672  -4.024  19.997  1.00  0.00     0.078 A 
ATOM     17  C   UNL     1      -2.743  -5.405  20.579  1.00  0.00     0.151 A 
ATOM     18  C   UNL     1      -0.061  -6.789  15.510  1.00  0.00     0.071 C 
BRANCH  14  19
ATOM     19  N   UNL     1      -2.103  -2.572  18.179  1.00  0.00    -0.396 N 
ATOM     20  H   UNL     1      -1.526  -2.556  17.345  1.00  0.00     0.156 HD
ATOM     21  H   UNL     1      -3.046  -2.218  17.999  1.00  0.00     0.156 HD
ENDBRANCH  14  19
BRANCH  17  22
ATOM     22  N   UNL     1      -3.303  -5.582  21.846  1.00  0.00    -0.350 N 
ATOM     23  C   UNL     1      -3.188  -4.536  22.887  1.00  0.00     0.146 C 
ATOM     24  C   UNL     1      -4.606  -6.278  21.970  1.00  0.00     0.146 C 
ATOM     25  C   UNL     1      -4.371  -3.561  22.777  1.00  0.00     0.181 C 
ATOM     26  C   UNL     1      -5.751  -5.258  21.887  1.00  0.00     0.181 C 
ATOM     27  O   UNL     1      -5.626  -4.253  22.910  1.00  0.00    -0.378 OA
ENDBRANCH  17  22
ENDBRANCH   7   9
ENDBRANCH   1   7
BRANCH   6  28
ATOM     28  C   UNL     1      -3.280  -9.922  18.735  1.00  0.00     0.123 C 
BRANCH  28  29
ATOM     29  N   UNL     1      -2.492  -9.965  19.982  1.00  0.00    -0.296 NA
ATOM     30  C   UNL     1      -3.283  -9.507  21.134  1.00  0.00     0.100 C 
ATOM     31  C   UNL     1      -1.951 -11.317  20.254  1.00  0.00     0.100 C 
ATOM     32  C   UNL     1      -2.445  -9.437  22.441  1.00  0.00     0.099 C 
ATOM     33  C   UNL     1      -1.566 -11.572  21.737  1.00  0.00     0.099 C 
ATOM     34  N   UNL     1      -1.300 -10.367  22.544  1.00  0.00    -0.304 NA
ATOM     35  C   UNL     1      -0.051  -9.727  22.129  1.00  0.00     0.105 C 
ENDBRANCH  28  29
ENDBRANCH   6  28
BRANCH   5  36
ATOM     36  C   UNL     1      -4.021 -12.198  16.887  1.00  0.00     0.416 C 
ATOM     37  F   UNL     1      -3.764 -13.532  16.786  1.00  0.00    -0.166 F 
ATOM     38  F   UNL     1      -5.024 -11.938  16.002  1.00  0.00    -0.166 F 
ATOM     39  F   UNL     1      -4.574 -12.027  18.123  1.00  0.00    -0.166 F 
ENDBRANCH   5  36
TORSDOF 7
ENDMDL
MODEL 5
REMARK VINA RESULT:    -7.956      4.067      7.556
REMARK INTER + INTRA:         -12.464
REMARK INTER:                 -10.853
REMARK INTRA:                  -1.611
REMARK UNBOUND:                -1.486
REMARK SMILES Cc1nc2c(N)cc(N3CCOCC3)nn2c1Nc1cccc(C(F)(F)F)c1CN1CCN(C)CC1
REMARK SMILES IDX 19 1 20 2 21 3 22 4 23 5 28 6 18 7 17 9 2 10 3 11 4 12 16 13
REMARK SMILES IDX 5 14 15 15 7 16 8 17 1 18 6 19 9 22 10 23 14 24 11 25 13 26
REMARK SMILES IDX 12 27 29 28 30 29 31 30 36 31 32 32 35 33 33 34 34 35 24 36
REMARK SMILES IDX 25 37 26 38 27 39
REMARK H PARENT 18 8 6 20 6 21
ROOT
ATOM      1  C   UNL     1      -1.545  -8.465  20.614  1.00  0.00     0.045 A 
ATOM      2  C   UNL     1      -0.653  -9.543  20.641  1.00  0.00     0.026 A 
ATOM      3  C   UNL     1      -0.075  -9.952  21.839  1.00  0.00     0.003 A 
ATOM      4  C   UNL     1      -0.413  -9.308  23.026  1.00  0.00     0.013 A 
ATOM      5  C   UNL     1      -1.328  -8.235  23.037  1.00  0.00     0.062 A 
ATOM      6  C   UNL     1      -1.891  -7.793  21.813  1.00  0.00     0.002 A 
ENDROOT
BRANCH   1   7
ATOM      7  N   UNL     1      -2.060  -8.031  19.368  1.00  0.00    -0.338 N 
ATOM      8  H   UNL     1      -2.978  -7.606  19.552  1.00  0.00     0.168 HD
BRANCH   7   9
ATOM      9  C   UNL     1      -1.996  -8.718  18.183  1.00  0.00     0.156 A 
ATOM     10  C   UNL     1      -2.587  -9.938  17.883  1.00  0.00     0.083 A 
ATOM     11  N   UNL     1      -2.260 -10.359  16.620  1.00  0.00    -0.228 NA
ATOM     12  C   UNL     1      -1.493  -9.403  16.132  1.00  0.00     0.179 A 
ATOM     13  N   UNL     1      -1.296  -8.367  17.031  1.00  0.00    -0.193 N 
ATOM     14  C   UNL     1      -0.824  -9.343  14.879  1.00  0.00     0.081 A 
ATOM     15  N   UNL     1      -0.528  -7.254  16.827  1.00  0.00    -0.147 NA
ATOM     16  C   UNL     1      -0.036  -8.284  14.653  1.00  0.00     0.078 A 
ATOM     17  C   UNL     1       0.077  -7.187  15.670  1.00  0.00     0.151 A 
ATOM     18  C   UNL     1      -3.454 -10.783  18.737  1.00  0.00     0.071 C 
BRANCH  14  19
ATOM     19  N   UNL     1      -0.972 -10.379  13.966  1.00  0.00    -0.396 N 
ATOM     20  H   UNL     1      -1.935 -10.676  13.851  1.00  0.00     0.156 HD
ATOM     21  H   UNL     1      -0.544 -10.116  13.074  1.00  0.00     0.156 HD
ENDBRANCH  14  19
BRANCH  17  22
ATOM     22  N   UNL     1       0.873  -6.074  15.385  1.00  0.00    -0.350 N 
ATOM     23  C   UNL     1       1.704  -5.440  16.433  1.00  0.00     0.146 C 
ATOM     24  C   UNL     1       1.562  -5.995  14.075  1.00  0.00     0.146 C 
ATOM     25  C   UNL     1       3.089  -6.106  16.472  1.00  0.00     0.181 C 
ATOM     26  C   UNL     1       2.950  -6.643  14.176  1.00  0.00     0.181 C 
ATOM     27  O   UNL     1       3.746  -6.009  15.196  1.00  0.00    -0.378 OA
ENDBRANCH  17  22
ENDBRANCH   7   9
ENDBRANCH   1   7
BRANCH   6  28
ATOM     28  C   UNL     1      -2.865  -6.620  21.753  1.00  0.00     0.123 C 
BRANCH  28  29
ATOM     29  N   UNL     1      -2.371  -5.518  20.906  1.00  0.00    -0.296 NA
ATOM     30  C   UNL     1      -3.365  -4.439  20.792  1.00  0.00     0.100 C 
ATOM     31  C   UNL     1      -1.089  -4.964  21.401  1.00  0.00     0.100 C 
ATOM     32  C   UNL     1      -2.915  -3.316  19.816  1.00  0.00     0.099 C 
ATOM     33  C   UNL     1      -0.770  -3.529  20.902  1.00  0.00     0.099 C 
ATOM     34  N   UNL     1      -1.457  -3.115  19.666  1.00  0.00    -0.304 NA
ATOM     35  C   UNL     1      -0.933  -3.841  18.509  1.00  0.00     0.105 C 
ENDBRANCH  28  29
ENDBRANCH   6  28
BRANCH   5  36
ATOM     36  C   UNL     1      -1.673  -7.587  24.358  1.00  0.00     0.416 C 
ATOM     37  F   UNL     1      -0.825  -7.952  25.360  1.00  0.00    -0.166 F 
ATOM     38  F   UNL     1      -2.926  -7.902  24.789  1.00  0.00    -0.166 F 
ATOM     39  F   UNL     1      -1.632  -6.224  24.326  1.00  0.00    -0.166 F 
ENDBRANCH   5  36
TORSDOF 7
ENDMDL
MODEL 6
REMARK VINA RESULT:    -7.744      2.637      5.999
REMARK INTER + INTRA:         -12.173
REMARK INTER:                 -11.521
REMARK INTRA:                  -0.652
REMARK UNBOUND:                -1.486
REMARK SMILES Cc1nc2c(N)cc(N3CCOCC3)nn2c1Nc1cccc(C(F)(F)F)c1CN1CCN(C)CC1
REMARK SMILES IDX 19 1 20 2 21 3 22 4 23 5 28 6 18 7 17 9 2 10 3 11 4 12 16 13
REMARK SMILES IDX 5 14 15 15 7 16 8 17 1 18 6 19 9 22 10 23 14 24 11 25 13 26
REMARK SMILES IDX 12 27 29 28 30 29 31 30 36 31 32 32 35 33 33 34 34 35 24 36
REMARK SMILES IDX 25 37 26 38 27 39
REMARK H PARENT 18 8 6 20 6 21
ROOT
ATOM      1  C   UNL     1      -2.289 -10.177  18.889  1.00  0.00     0.045 A 
ATOM      2  C   UNL     1      -3.067 -10.719  17.860  1.00  0.00     0.026 A 
ATOM      3  C   UNL     1      -4.180 -11.501  18.153  1.00  0.00     0.003 A 
ATOM      4  C   UNL     1      -4.546 -11.715  19.480  1.00  0.00     0.013 A 
ATOM      5  C   UNL     1      -3.798 -11.161  20.539  1.00  0.00     0.062 A 
ATOM      6  C   UNL     1      -2.642 -10.394  20.244  1.00  0.00     0.002 A 
ENDROOT
BRANCH   1   7
ATOM      7  N   UNL     1      -1.123  -9.445  18.555  1.00  0.00    -0.338 N 
ATOM      8  H   UNL     1      -0.889  -8.861  19.368  1.00  0.00     0.168 HD
BRANCH   7   9
ATOM      9  C   UNL     1      -0.861  -8.846  17.350  1.00  0.00     0.156 A 
ATOM     10  C   UNL     1      -0.708  -9.464  16.116  1.00  0.00     0.083 A 
ATOM     11  N   UNL     1      -0.391  -8.561  15.136  1.00  0.00    -0.228 NA
ATOM     12  C   UNL     1      -0.368  -7.392  15.745  1.00  0.00     0.179 A 
ATOM     13  N   UNL     1      -0.653  -7.491  17.098  1.00  0.00    -0.193 N 
ATOM     14  C   UNL     1      -0.038  -6.113  15.220  1.00  0.00     0.081 A 
ATOM     15  N   UNL     1      -0.675  -6.462  17.998  1.00  0.00    -0.147 NA
ATOM     16  C   UNL     1      -0.016  -5.083  16.076  1.00  0.00     0.078 A 
ATOM     17  C   UNL     1      -0.388  -5.281  17.516  1.00  0.00     0.151 A 
ATOM     18  C   UNL     1      -0.821 -10.903  15.781  1.00  0.00     0.071 C 
BRANCH  14  19
ATOM     19  N   UNL     1       0.285  -5.980  13.876  1.00  0.00    -0.396 N 
ATOM     20  H   UNL     1       0.694  -5.079  13.650  1.00  0.00     0.156 HD
ATOM     21  H   UNL     1       0.887  -6.755  13.587  1.00  0.00     0.156 HD
ENDBRANCH  14  19
BRANCH  17  22
ATOM     22  N   UNL     1      -0.398  -4.179  18.374  1.00  0.00    -0.350 N 
ATOM     23  C   UNL     1      -0.139  -2.812  17.868  1.00  0.00     0.146 C 
ATOM     24  C   UNL     1      -1.387  -4.131  19.477  1.00  0.00     0.146 C 
ATOM     25  C   UNL     1      -1.460  -2.162  17.426  1.00  0.00     0.181 C 
ATOM     26  C   UNL     1      -2.673  -3.444  18.995  1.00  0.00     0.181 C 
ATOM     27  O   UNL     1      -2.402  -2.115  18.512  1.00  0.00    -0.378 OA
ENDBRANCH  17  22
ENDBRANCH   7   9
ENDBRANCH   1   7
BRANCH   6  28
ATOM     28  C   UNL     1      -1.775  -9.791  21.345  1.00  0.00     0.123 C 
BRANCH  28  29
ATOM     29  N   UNL     1      -2.376  -8.579  21.937  1.00  0.00    -0.296 NA
ATOM     30  C   UNL     1      -2.301  -8.604  23.406  1.00  0.00     0.100 C 
ATOM     31  C   UNL     1      -1.749  -7.339  21.427  1.00  0.00     0.100 C 
ATOM     32  C   UNL     1      -3.025  -7.395  24.059  1.00  0.00     0.099 C 
ATOM     33  C   UNL     1      -1.947  -6.095  22.334  1.00  0.00     0.099 C 
ATOM     34  N   UNL     1      -3.095  -6.154  23.257  1.00  0.00    -0.304 NA
ATOM     35  C   UNL     1      -4.358  -6.060  22.525  1.00  0.00     0.105 C 
ENDBRANCH  28  29
ENDBRANCH   6  28
BRANCH   5  36
ATOM     36  C   UNL     1      -4.253 -11.410  21.959  1.00  0.00     0.416 C 
ATOM     37  F   UNL     1      -3.217 -11.665  22.806  1.00  0.00    -0.166 F 
ATOM     38  F   UNL     1      -5.098 -12.474  22.062  1.00  0.00    -0.166 F 
ATOM     39  F   UNL     1      -4.924 -10.359  22.511  1.00  0.00    -0.166 F 
ENDBRANCH   5  36
TORSDOF 7
ENDMDL
MODEL 7
REMARK VINA RESULT:    -7.741      3.458      6.735
REMARK INTER + INTRA:         -12.168
REMARK INTER:                 -10.294
REMARK INTRA:                  -1.874
REMARK UNBOUND:                -1.486
REMARK SMILES Cc1nc2c(N)cc(N3CCOCC3)nn2c1Nc1cccc(C(F)(F)F)c1CN1CCN(C)CC1
REMARK SMILES IDX 19 1 20 2 21 3 22 4 23 5 28 6 18 7 17 9 2 10 3 11 4 12 16 13
REMARK SMILES IDX 5 14 15 15 7 16 8 17 1 18 6 19 9 22 10 23 14 24 11 25 13 26
REMARK SMILES IDX 12 27 29 28 30 29 31 30 36 31 32 32 35 33 33 34 34 35 24 36
REMARK SMILES IDX 25 37 26 38 27 39
REMARK H PARENT 18 8 6 20 6 21
ROOT
ATOM      1  C   UNL     1      -1.934  -9.107  19.428  1.00  0.00     0.045 A 
ATOM      2  C   UNL     1      -2.276 -10.450  19.235  1.00  0.00     0.026 A 
ATOM      3  C   UNL     1      -2.042 -11.390  20.234  1.00  0.00     0.003 A 
ATOM      4  C   UNL     1      -1.497 -10.985  21.450  1.00  0.00     0.013 A 
ATOM      5  C   UNL     1      -1.166  -9.635  21.686  1.00  0.00     0.062 A 
ATOM      6  C   UNL     1      -1.369  -8.682  20.656  1.00  0.00     0.002 A 
ENDROOT
BRANCH   1   7
ATOM      7  N   UNL     1      -2.121  -8.191  18.363  1.00  0.00    -0.338 N 
ATOM      8  H   UNL     1      -3.116  -8.226  18.105  1.00  0.00     0.168 HD
BRANCH   7   9
ATOM      9  C   UNL     1      -1.280  -8.008  17.297  1.00  0.00     0.156 A 
ATOM     10  C   UNL     1      -1.188  -8.787  16.151  1.00  0.00     0.083 A 
ATOM     11  N   UNL     1      -0.191  -8.346  15.321  1.00  0.00    -0.228 NA
ATOM     12  C   UNL     1       0.318  -7.293  15.930  1.00  0.00     0.179 A 
ATOM     13  N   UNL     1      -0.304  -7.025  17.139  1.00  0.00    -0.193 N 
ATOM     14  C   UNL     1       1.418  -6.479  15.545  1.00  0.00     0.081 A 
ATOM     15  N   UNL     1       0.018  -6.022  18.011  1.00  0.00    -0.147 NA
ATOM     16  C   UNL     1       1.786  -5.505  16.387  1.00  0.00     0.078 A 
ATOM     17  C   UNL     1       1.019  -5.261  17.653  1.00  0.00     0.151 A 
ATOM     18  C   UNL     1      -1.986  -9.976  15.773  1.00  0.00     0.071 C 
BRANCH  14  19
ATOM     19  N   UNL     1       2.087  -6.737  14.356  1.00  0.00    -0.396 N 
ATOM     20  H   UNL     1       1.740  -6.189  13.575  1.00  0.00     0.156 HD
ATOM     21  H   UNL     1       3.093  -6.614  14.492  1.00  0.00     0.156 HD
ENDBRANCH  14  19
BRANCH  17  22
ATOM     22  N   UNL     1       1.402  -4.209  18.489  1.00  0.00    -0.350 N 
ATOM     23  C   UNL     1       0.921  -4.127  19.887  1.00  0.00     0.146 C 
ATOM     24  C   UNL     1       2.784  -3.679  18.398  1.00  0.00     0.146 C 
ATOM     25  C   UNL     1       1.887  -4.882  20.814  1.00  0.00     0.181 C 
ATOM     26  C   UNL     1       3.699  -4.443  19.366  1.00  0.00     0.181 C 
ATOM     27  O   UNL     1       3.219  -4.347  20.720  1.00  0.00    -0.378 OA
ENDBRANCH  17  22
ENDBRANCH   7   9
ENDBRANCH   1   7
BRANCH   6  28
ATOM     28  C   UNL     1      -1.006  -7.212  20.838  1.00  0.00     0.123 C 
BRANCH  28  29
ATOM     29  N   UNL     1      -2.154  -6.397  21.284  1.00  0.00    -0.296 NA
ATOM     30  C   UNL     1      -1.879  -5.738  22.570  1.00  0.00     0.100 C 
ATOM     31  C   UNL     1      -2.543  -5.383  20.278  1.00  0.00     0.100 C 
ATOM     32  C   UNL     1      -3.110  -4.964  23.118  1.00  0.00     0.099 C 
ATOM     33  C   UNL     1      -3.363  -4.193  20.844  1.00  0.00     0.099 C 
ATOM     34  N   UNL     1      -4.067  -4.449  22.114  1.00  0.00    -0.304 NA
ATOM     35  C   UNL     1      -5.183  -5.374  21.914  1.00  0.00     0.105 C 
ENDBRANCH  28  29
ENDBRANCH   6  28
BRANCH   5  36
ATOM     36  C   UNL     1      -0.596  -9.251  23.032  1.00  0.00     0.416 C 
ATOM     37  F   UNL     1      -0.073 -10.314  23.705  1.00  0.00    -0.166 F 
ATOM     38  F   UNL     1      -1.527  -8.700  23.860  1.00  0.00    -0.166 F 
ATOM     39  F   UNL     1       0.412  -8.335  22.958  1.00  0.00    -0.166 F 
ENDBRANCH   5  36
TORSDOF 7
ENDMDL
MODEL 8
REMARK VINA RESULT:    -7.557      4.520      7.416
REMARK INTER + INTRA:         -11.914
REMARK INTER:                 -11.094
REMARK INTRA:                  -0.820
REMARK UNBOUND:                -1.486
REMARK SMILES Cc1nc2c(N)cc(N3CCOCC3)nn2c1Nc1cccc(C(F)(F)F)c1CN1CCN(C)CC1
REMARK SMILES IDX 19 1 20 2 21 3 22 4 23 5 28 6 18 7 17 9 2 10 3 11 4 12 16 13
REMARK SMILES IDX 5 14 15 15 7 16 8 17 1 18 6 19 9 22 10 23 14 24 11 25 13 26
REMARK SMILES IDX 12 27 29 28 30 29 31 30 36 31 32 32 35 33 33 34 34 35 24 36
REMARK SMILES IDX 25 37 26 38 27 39
REMARK H PARENT 18 8 6 20 6 21
ROOT
ATOM      1  C   UNL     1      -0.591  -7.414  16.971  1.00  0.00     0.045 A 
ATOM      2  C   UNL     1      -1.915  -7.249  17.394  1.00  0.00     0.026 A 
ATOM      3  C   UNL     1      -2.332  -6.048  17.959  1.00  0.00     0.003 A 
ATOM      4  C   UNL     1      -1.436  -4.988  18.070  1.00  0.00     0.013 A 
ATOM      5  C   UNL     1      -0.103  -5.112  17.629  1.00  0.00     0.062 A 
ATOM      6  C   UNL     1       0.335  -6.347  17.087  1.00  0.00     0.002 A 
ENDROOT
BRANCH   1   7
ATOM      7  N   UNL     1      -0.183  -8.674  16.466  1.00  0.00    -0.338 N 
ATOM      8  H   UNL     1       0.627  -8.506  15.856  1.00  0.00     0.168 HD
BRANCH   7   9
ATOM      9  C   UNL     1      -1.010  -9.674  16.025  1.00  0.00     0.156 A 
ATOM     10  C   UNL     1      -1.192 -10.102  14.717  1.00  0.00     0.083 A 
ATOM     11  N   UNL     1      -2.144 -11.085  14.636  1.00  0.00    -0.228 NA
ATOM     12  C   UNL     1      -2.534 -11.283  15.881  1.00  0.00     0.179 A 
ATOM     13  N   UNL     1      -1.878 -10.459  16.781  1.00  0.00    -0.193 N 
ATOM     14  C   UNL     1      -3.546 -12.150  16.376  1.00  0.00     0.081 A 
ATOM     15  N   UNL     1      -2.085 -10.409  18.133  1.00  0.00    -0.147 NA
ATOM     16  C   UNL     1      -3.803 -12.107  17.690  1.00  0.00     0.078 A 
ATOM     17  C   UNL     1      -3.004 -11.216  18.595  1.00  0.00     0.151 A 
ATOM     18  C   UNL     1      -0.527  -9.622  13.484  1.00  0.00     0.071 C 
BRANCH  14  19
ATOM     19  N   UNL     1      -4.248 -12.966  15.499  1.00  0.00    -0.396 N 
ATOM     20  H   UNL     1      -3.885 -13.913  15.458  1.00  0.00     0.156 HD
ATOM     21  H   UNL     1      -5.243 -12.947  15.733  1.00  0.00     0.156 HD
ENDBRANCH  14  19
BRANCH  17  22
ATOM     22  N   UNL     1      -3.267 -11.227  19.967  1.00  0.00    -0.350 N 
ATOM     23  C   UNL     1      -2.213 -11.576  20.946  1.00  0.00     0.146 C 
ATOM     24  C   UNL     1      -4.168 -10.198  20.538  1.00  0.00     0.146 C 
ATOM     25  C   UNL     1      -1.447 -10.309  21.359  1.00  0.00     0.181 C 
ATOM     26  C   UNL     1      -3.351  -8.970  20.964  1.00  0.00     0.181 C 
ATOM     27  O   UNL     1      -2.336  -9.327  21.921  1.00  0.00    -0.378 OA
ENDBRANCH  17  22
ENDBRANCH   7   9
ENDBRANCH   1   7
BRANCH   6  28
ATOM     28  C   UNL     1       1.771  -6.556  16.617  1.00  0.00     0.123 C 
BRANCH  28  29
ATOM     29  N   UNL     1       1.889  -6.565  15.146  1.00  0.00    -0.296 NA
ATOM     30  C   UNL     1       0.702  -5.974  14.508  1.00  0.00     0.100 C 
ATOM     31  C   UNL     1       3.106  -5.864  14.678  1.00  0.00     0.100 C 
ATOM     32  C   UNL     1       0.749  -6.071  12.957  1.00  0.00     0.099 C 
ATOM     33  C   UNL     1       3.052  -5.389  13.201  1.00  0.00     0.099 C 
ATOM     34  N   UNL     1       2.092  -6.100  12.337  1.00  0.00    -0.304 NA
ATOM     35  C   UNL     1       2.535  -7.471  12.083  1.00  0.00     0.105 C 
ENDBRANCH  28  29
ENDBRANCH   6  28
BRANCH   5  36
ATOM     36  C   UNL     1       0.820  -3.922  17.756  1.00  0.00     0.416 C 
ATOM     37  F   UNL     1       0.162  -2.783  18.113  1.00  0.00    -0.166 F 
ATOM     38  F   UNL     1       1.472  -3.634  16.596  1.00  0.00    -0.166 F 
ATOM     39  F   UNL     1       1.798  -4.085  18.693  1.00  0.00    -0.166 F 
ENDBRANCH   5  36
TORSDOF 7
ENDMDL
MODEL 9
REMARK VINA RESULT:    -7.362      4.135      7.465
REMARK INTER + INTRA:         -11.645
REMARK INTER:                 -10.213
REMARK INTRA:                  -1.431
REMARK UNBOUND:                -1.486
REMARK SMILES Cc1nc2c(N)cc(N3CCOCC3)nn2c1Nc1cccc(C(F)(F)F)c1CN1CCN(C)CC1
REMARK SMILES IDX 19 1 20 2 21 3 22 4 23 5 28 6 18 7 17 9 2 10 3 11 4 12 16 13
REMARK SMILES IDX 5 14 15 15 7 16 8 17 1 18 6 19 9 22 10 23 14 24 11 25 13 26
REMARK SMILES IDX 12 27 29 28 30 29 31 30 36 31 32 32 35 33 33 34 34 35 24 36
REMARK SMILES IDX 25 37 26 38 27 39
REMARK H PARENT 18 8 6 20 6 21
ROOT
ATOM      1  C   UNL     1       0.793  -6.409  16.417  1.00  0.00     0.045 A 
ATOM      2  C   UNL     1       1.945  -6.585  15.643  1.00  0.00     0.026 A 
ATOM      3  C   UNL     1       3.160  -6.043  16.051  1.00  0.00     0.003 A 
ATOM      4  C   UNL     1       3.239  -5.352  17.258  1.00  0.00     0.013 A 
ATOM      5  C   UNL     1       2.102  -5.180  18.074  1.00  0.00     0.062 A 
ATOM      6  C   UNL     1       0.855  -5.699  17.642  1.00  0.00     0.002 A 
ENDROOT
BRANCH   1   7
ATOM      7  N   UNL     1      -0.441  -6.913  15.936  1.00  0.00    -0.338 N 
ATOM      8  H   UNL     1      -1.185  -6.331  16.343  1.00  0.00     0.168 HD
BRANCH   7   9
ATOM      9  C   UNL     1      -0.780  -8.235  15.809  1.00  0.00     0.156 A 
ATOM     10  C   UNL     1      -0.630  -9.040  14.688  1.00  0.00     0.083 A 
ATOM     11  N   UNL     1      -1.136 -10.296  14.898  1.00  0.00    -0.228 NA
ATOM     12  C   UNL     1      -1.577 -10.281  16.141  1.00  0.00     0.179 A 
ATOM     13  N   UNL     1      -1.385  -9.055  16.759  1.00  0.00    -0.193 N 
ATOM     14  C   UNL     1      -2.251 -11.301  16.866  1.00  0.00     0.081 A 
ATOM     15  N   UNL     1      -1.762  -8.722  18.031  1.00  0.00    -0.147 NA
ATOM     16  C   UNL     1      -2.666 -11.004  18.104  1.00  0.00     0.078 A 
ATOM     17  C   UNL     1      -2.368  -9.663  18.707  1.00  0.00     0.151 A 
ATOM     18  C   UNL     1      -0.041  -8.696  13.373  1.00  0.00     0.071 C 
BRANCH  14  19
ATOM     19  N   UNL     1      -2.490 -12.532  16.268  1.00  0.00    -0.396 N 
ATOM     20  H   UNL     1      -3.217 -12.497  15.561  1.00  0.00     0.156 HD
ATOM     21  H   UNL     1      -1.615 -12.911  15.898  1.00  0.00     0.156 HD
ENDBRANCH  14  19
BRANCH  17  22
ATOM     22  N   UNL     1      -2.776  -9.399  20.017  1.00  0.00    -0.350 N 
ATOM     23  C   UNL     1      -2.909 -10.488  21.011  1.00  0.00     0.146 C 
ATOM     24  C   UNL     1      -2.312  -8.159  20.683  1.00  0.00     0.146 C 
ATOM     25  C   UNL     1      -1.570 -10.694  21.737  1.00  0.00     0.181 C 
ATOM     26  C   UNL     1      -0.992  -8.427  21.420  1.00  0.00     0.181 C 
ATOM     27  O   UNL     1      -1.141  -9.484  22.386  1.00  0.00    -0.378 OA
ENDBRANCH  17  22
ENDBRANCH   7   9
ENDBRANCH   1   7
BRANCH   6  28
ATOM     28  C   UNL     1      -0.418  -5.522  18.465  1.00  0.00     0.123 C 
BRANCH  28  29
ATOM     29  N   UNL     1      -0.851  -4.113  18.538  1.00  0.00    -0.296 NA
ATOM     30  C   UNL     1      -1.007  -3.527  17.198  1.00  0.00     0.100 C 
ATOM     31  C   UNL     1      -2.111  -3.956  19.301  1.00  0.00     0.100 C 
ATOM     32  C   UNL     1      -1.356  -2.014  17.246  1.00  0.00     0.099 C 
ATOM     33  C   UNL     1      -2.886  -2.644  19.004  1.00  0.00     0.099 C 
ATOM     34  N   UNL     1      -2.084  -1.541  18.444  1.00  0.00    -0.304 NA
ATOM     35  C   UNL     1      -1.168  -1.000  19.448  1.00  0.00     0.105 C 
ENDBRANCH  28  29
ENDBRANCH   6  28
BRANCH   5  36
ATOM     36  C   UNL     1       2.251  -4.438  19.382  1.00  0.00     0.416 C 
ATOM     37  F   UNL     1       1.776  -3.163  19.321  1.00  0.00    -0.166 F 
ATOM     38  F   UNL     1       3.548  -4.340  19.787  1.00  0.00    -0.166 F 
ATOM     39  F   UNL     1       1.589  -5.023  20.422  1.00  0.00    -0.166 F 
ENDBRANCH   5  36
TORSDOF 7
ENDMDL
