MODEL 1
REMARK VINA RESULT:   -10.018      0.000      0.000
REMARK INTER + INTRA:         -16.749
REMARK INTER:                 -15.581
REMARK INTRA:                  -1.167
REMARK UNBOUND:                -1.167
REMARK SMILES Cc1cc2c(CC(=O)O)csc2cc1OCc1ccccc1COc1ccc(C(F)(F)F)cc1
REMARK SMILES IDX 16 1 15 2 14 3 2 4 3 5 4 6 13 7 5 8 12 9 10 10 11 11 1 12
REMARK SMILES IDX 6 13 7 14 8 15 9 16 17 18 18 19 22 20 19 21 21 22 20 23
REMARK SMILES IDX 23 24 24 25 25 26 26 27 34 28 27 29 33 30 28 31 29 32 30 33
REMARK SMILES IDX 31 34 32 35
REMARK H PARENT 9 17
ROOT
ATOM      1  C   UNL     1      -8.968  -8.002 -21.597  1.00  0.00     0.265 C 
ENDROOT
BRANCH   1   2
ATOM      2  O   UNL     1      -8.483  -9.108 -22.361  1.00  0.00    -0.489 OA
BRANCH   2   3
ATOM      3  C   UNL     1      -8.498  -8.980 -23.728  1.00  0.00     0.124 A 
ATOM      4  C   UNL     1      -7.439  -9.594 -24.407  1.00  0.00    -0.008 A 
ATOM      5  C   UNL     1      -7.396  -9.552 -25.814  1.00  0.00     0.017 A 
ATOM      6  C   UNL     1      -8.397  -8.881 -26.562  1.00  0.00    -0.003 A 
ATOM      7  C   UNL     1      -9.477  -8.281 -24.439  1.00  0.00     0.066 A 
ATOM      8  C   UNL     1      -8.547  -8.705 -27.994  1.00  0.00    -0.018 A 
ATOM      9  C   UNL     1      -9.419  -8.250 -25.850  1.00  0.00     0.038 A 
ATOM     10  C   UNL     1      -9.670  -7.957 -28.291  1.00  0.00     0.070 A 
ATOM     11  S   UNL     1     -10.531  -7.470 -26.905  1.00  0.00    -0.143 S 
ATOM     12  C   UNL     1      -6.352 -10.310 -23.655  1.00  0.00     0.048 C 
BRANCH   8  13
ATOM     13  C   UNL     1      -7.598  -9.249 -29.029  1.00  0.00     0.159 C 
BRANCH  13  14
ATOM     14  C   UNL     1      -7.953  -8.795 -30.430  1.00  0.00     0.307 C 
ATOM     15  O   UNL     1      -8.634  -9.372 -31.260  1.00  0.00    -0.252 OA
BRANCH  14  16
ATOM     16  O   UNL     1      -7.403  -7.594 -30.737  1.00  0.00    -0.481 OA
ATOM     17  H   UNL     1      -7.247  -7.177 -29.861  1.00  0.00     0.296 HD
ENDBRANCH  14  16
ENDBRANCH  13  14
ENDBRANCH   8  13
ENDBRANCH   2   3
ENDBRANCH   1   2
BRANCH   1  18
ATOM     18  C   UNL     1      -7.807  -7.373 -20.855  1.00  0.00    -0.004 A 
ATOM     19  C   UNL     1      -6.498  -7.605 -21.319  1.00  0.00     0.007 A 
ATOM     20  C   UNL     1      -8.004  -6.547 -19.720  1.00  0.00    -0.004 A 
ATOM     21  C   UNL     1      -5.400  -7.027 -20.681  1.00  0.00     0.000 A 
ATOM     22  C   UNL     1      -6.885  -5.972 -19.094  1.00  0.00     0.007 A 
ATOM     23  C   UNL     1      -5.594  -6.208 -19.572  1.00  0.00     0.000 A 
BRANCH  20  24
ATOM     24  C   UNL     1      -9.383  -6.294 -19.138  1.00  0.00     0.265 C 
BRANCH  24  25
ATOM     25  O   UNL     1      -9.442  -6.835 -17.829  1.00  0.00    -0.489 OA
BRANCH  25  26
ATOM     26  C   UNL     1     -10.687  -7.045 -17.293  1.00  0.00     0.119 A 
ATOM     27  C   UNL     1     -11.289  -8.260 -17.656  1.00  0.00     0.047 A 
ATOM     28  C   UNL     1     -11.372  -6.177 -16.446  1.00  0.00     0.047 A 
ATOM     29  C   UNL     1     -12.566  -8.606 -17.187  1.00  0.00     0.017 A 
ATOM     30  C   UNL     1     -12.651  -6.523 -15.973  1.00  0.00     0.017 A 
ATOM     31  C   UNL     1     -13.264  -7.736 -16.344  1.00  0.00     0.056 A 
BRANCH  31  32
ATOM     32  C   UNL     1     -14.638  -8.099 -15.823  1.00  0.00     0.416 C 
ATOM     33  F   UNL     1     -14.595  -9.004 -14.802  1.00  0.00    -0.166 F 
ATOM     34  F   UNL     1     -15.431  -8.659 -16.783  1.00  0.00    -0.166 F 
ATOM     35  F   UNL     1     -15.333  -7.035 -15.333  1.00  0.00    -0.166 F 
ENDBRANCH  31  32
ENDBRANCH  25  26
ENDBRANCH  24  25
ENDBRANCH  20  24
ENDBRANCH   1  18
TORSDOF 10
ENDMDL
MODEL 2
REMARK VINA RESULT:    -9.283      1.563      2.271
REMARK INTER + INTRA:         -15.605
REMARK INTER:                 -15.008
REMARK INTRA:                  -0.597
REMARK UNBOUND:                -1.167
REMARK SMILES Cc1cc2c(CC(=O)O)csc2cc1OCc1ccccc1COc1ccc(C(F)(F)F)cc1
REMARK SMILES IDX 16 1 15 2 14 3 2 4 3 5 4 6 13 7 5 8 12 9 10 10 11 11 1 12
REMARK SMILES IDX 6 13 7 14 8 15 9 16 17 18 18 19 22 20 19 21 21 22 20 23
REMARK SMILES IDX 23 24 24 25 25 26 26 27 34 28 27 29 33 30 28 31 29 32 30 33
REMARK SMILES IDX 31 34 32 35
REMARK H PARENT 9 17
ROOT
ATOM      1  C   UNL     1      -9.212  -8.232 -21.308  1.00  0.00     0.265 C 
ENDROOT
BRANCH   1   2
ATOM      2  O   UNL     1      -8.820  -9.213 -22.270  1.00  0.00    -0.489 OA
BRANCH   2   3
ATOM      3  C   UNL     1      -9.083  -8.938 -23.590  1.00  0.00     0.124 A 
ATOM      4  C   UNL     1     -10.432  -8.759 -23.915  1.00  0.00    -0.008 A 
ATOM      5  C   UNL     1     -10.792  -8.430 -25.236  1.00  0.00     0.017 A 
ATOM      6  C   UNL     1      -9.814  -8.295 -26.254  1.00  0.00    -0.003 A 
ATOM      7  C   UNL     1      -8.102  -8.846 -24.581  1.00  0.00     0.066 A 
ATOM      8  C   UNL     1      -9.954  -7.976 -27.663  1.00  0.00    -0.018 A 
ATOM      9  C   UNL     1      -8.481  -8.514 -25.900  1.00  0.00     0.038 A 
ATOM     10  C   UNL     1      -8.727  -7.967 -28.298  1.00  0.00     0.070 A 
ATOM     11  S   UNL     1      -7.433  -8.330 -27.252  1.00  0.00    -0.143 S 
ATOM     12  C   UNL     1     -11.503  -8.901 -22.870  1.00  0.00     0.048 C 
BRANCH   8  13
ATOM     13  C   UNL     1     -11.264  -7.704 -28.354  1.00  0.00     0.159 C 
BRANCH  13  14
ATOM     14  C   UNL     1     -11.351  -6.288 -28.886  1.00  0.00     0.307 C 
ATOM     15  O   UNL     1     -11.270  -5.910 -30.041  1.00  0.00    -0.252 OA
BRANCH  14  16
ATOM     16  O   UNL     1     -11.530  -5.378 -27.896  1.00  0.00    -0.481 OA
ATOM     17  H   UNL     1     -11.385  -4.515 -28.343  1.00  0.00     0.296 HD
ENDBRANCH  14  16
ENDBRANCH  13  14
ENDBRANCH   8  13
ENDBRANCH   2   3
ENDBRANCH   1   2
BRANCH   1  18
ATOM     18  C   UNL     1      -7.972  -7.538 -20.783  1.00  0.00    -0.004 A 
ATOM     19  C   UNL     1      -6.718  -7.888 -21.320  1.00  0.00     0.007 A 
ATOM     20  C   UNL     1      -8.042  -6.538 -19.781  1.00  0.00    -0.004 A 
ATOM     21  C   UNL     1      -5.552  -7.259 -20.884  1.00  0.00     0.000 A 
ATOM     22  C   UNL     1      -6.856  -5.914 -19.357  1.00  0.00     0.007 A 
ATOM     23  C   UNL     1      -5.621  -6.270 -19.906  1.00  0.00     0.000 A 
BRANCH  20  24
ATOM     24  C   UNL     1      -9.354  -6.146 -19.126  1.00  0.00     0.265 C 
BRANCH  24  25
ATOM     25  O   UNL     1      -9.389  -6.667 -17.807  1.00  0.00    -0.489 OA
BRANCH  25  26
ATOM     26  C   UNL     1     -10.618  -6.997 -17.297  1.00  0.00     0.119 A 
ATOM     27  C   UNL     1     -11.106  -8.251 -17.695  1.00  0.00     0.047 A 
ATOM     28  C   UNL     1     -11.389  -6.212 -16.444  1.00  0.00     0.047 A 
ATOM     29  C   UNL     1     -12.355  -8.719 -17.254  1.00  0.00     0.017 A 
ATOM     30  C   UNL     1     -12.640  -6.679 -15.999  1.00  0.00     0.017 A 
ATOM     31  C   UNL     1     -13.139  -7.932 -16.405  1.00  0.00     0.056 A 
BRANCH  31  32
ATOM     32  C   UNL     1     -14.483  -8.426 -15.914  1.00  0.00     0.416 C 
ATOM     33  F   UNL     1     -15.244  -8.962 -16.911  1.00  0.00    -0.166 F 
ATOM     34  F   UNL     1     -15.237  -7.430 -15.365  1.00  0.00    -0.166 F 
ATOM     35  F   UNL     1     -14.392  -9.399 -14.966  1.00  0.00    -0.166 F 
ENDBRANCH  31  32
ENDBRANCH  25  26
ENDBRANCH  24  25
ENDBRANCH  20  24
ENDBRANCH   1  18
TORSDOF 10
ENDMDL
MODEL 3
REMARK VINA RESULT:    -9.020      5.237      7.492
REMARK INTER + INTRA:         -15.197
REMARK INTER:                 -13.856
REMARK INTRA:                  -1.341
REMARK UNBOUND:                -1.167
REMARK SMILES Cc1cc2c(CC(=O)O)csc2cc1OCc1ccccc1COc1ccc(C(F)(F)F)cc1
REMARK SMILES IDX 16 1 15 2 14 3 2 4 3 5 4 6 13 7 5 8 12 9 10 10 11 11 1 12
REMARK SMILES IDX 6 13 7 14 8 15 9 16 17 18 18 19 22 20 19 21 21 22 20 23
REMARK SMILES IDX 23 24 24 25 25 26 26 27 34 28 27 29 33 30 28 31 29 32 30 33
REMARK SMILES IDX 31 34 32 35
REMARK H PARENT 9 17
ROOT
ATOM      1  C   UNL     1      -8.482  -8.041 -25.778  1.00  0.00     0.265 C 
ENDROOT
BRANCH   1   2
ATOM      2  O   UNL     1      -9.752  -8.569 -26.166  1.00  0.00    -0.489 OA
BRANCH   2   3
ATOM      3  C   UNL     1     -10.751  -7.667 -26.437  1.00  0.00     0.124 A 
ATOM      4  C   UNL     1     -11.747  -7.551 -25.460  1.00  0.00    -0.008 A 
ATOM      5  C   UNL     1     -12.787  -6.618 -25.633  1.00  0.00     0.017 A 
ATOM      6  C   UNL     1     -12.859  -5.802 -26.790  1.00  0.00    -0.003 A 
ATOM      7  C   UNL     1     -10.818  -6.901 -27.604  1.00  0.00     0.066 A 
ATOM      8  C   UNL     1     -13.830  -4.796 -27.177  1.00  0.00    -0.018 A 
ATOM      9  C   UNL     1     -11.868  -5.969 -27.760  1.00  0.00     0.038 A 
ATOM     10  C   UNL     1     -13.524  -4.254 -28.411  1.00  0.00     0.070 A 
ATOM     11  S   UNL     1     -12.118  -4.921 -29.100  1.00  0.00    -0.143 S 
ATOM     12  C   UNL     1     -11.714  -8.402 -24.221  1.00  0.00     0.048 C 
BRANCH   8  13
ATOM     13  C   UNL     1     -15.029  -4.399 -26.355  1.00  0.00     0.159 C 
BRANCH  13  14
ATOM     14  C   UNL     1     -14.748  -3.202 -25.470  1.00  0.00     0.307 C 
ATOM     15  O   UNL     1     -15.005  -2.030 -25.681  1.00  0.00    -0.252 OA
BRANCH  14  16
ATOM     16  O   UNL     1     -14.118  -3.550 -24.319  1.00  0.00    -0.481 OA
ATOM     17  H   UNL     1     -13.919  -4.504 -24.441  1.00  0.00     0.296 HD
ENDBRANCH  14  16
ENDBRANCH  13  14
ENDBRANCH   8  13
ENDBRANCH   2   3
ENDBRANCH   1   2
BRANCH   1  18
ATOM     18  C   UNL     1      -7.710  -9.115 -25.039  1.00  0.00    -0.004 A 
ATOM     19  C   UNL     1      -6.959 -10.046 -25.783  1.00  0.00     0.007 A 
ATOM     20  C   UNL     1      -7.713  -9.199 -23.625  1.00  0.00    -0.004 A 
ATOM     21  C   UNL     1      -6.215 -11.037 -25.145  1.00  0.00     0.000 A 
ATOM     22  C   UNL     1      -6.953 -10.203 -23.001  1.00  0.00     0.007 A 
ATOM     23  C   UNL     1      -6.208 -11.114 -23.755  1.00  0.00     0.000 A 
BRANCH  20  24
ATOM     24  C   UNL     1      -8.538  -8.260 -22.765  1.00  0.00     0.265 C 
BRANCH  24  25
ATOM     25  O   UNL     1      -8.023  -8.266 -21.443  1.00  0.00    -0.489 OA
BRANCH  25  26
ATOM     26  C   UNL     1      -7.054  -7.343 -21.144  1.00  0.00     0.119 A 
ATOM     27  C   UNL     1      -7.513  -6.023 -21.022  1.00  0.00     0.047 A 
ATOM     28  C   UNL     1      -5.700  -7.608 -20.957  1.00  0.00     0.047 A 
ATOM     29  C   UNL     1      -6.631  -4.971 -20.723  1.00  0.00     0.017 A 
ATOM     30  C   UNL     1      -4.815  -6.557 -20.655  1.00  0.00     0.017 A 
ATOM     31  C   UNL     1      -5.269  -5.228 -20.543  1.00  0.00     0.056 A 
BRANCH  31  32
ATOM     32  C   UNL     1      -4.307  -4.107 -20.213  1.00  0.00     0.416 C 
ATOM     33  F   UNL     1      -3.052  -4.556 -19.919  1.00  0.00    -0.166 F 
ATOM     34  F   UNL     1      -4.705  -3.379 -19.129  1.00  0.00    -0.166 F 
ATOM     35  F   UNL     1      -4.142  -3.214 -21.229  1.00  0.00    -0.166 F 
ENDBRANCH  31  32
ENDBRANCH  25  26
ENDBRANCH  24  25
ENDBRANCH  20  24
ENDBRANCH   1  18
TORSDOF 10
ENDMDL
MODEL 4
REMARK VINA RESULT:    -9.001      4.902      6.833
REMARK INTER + INTRA:         -15.167
REMARK INTER:                 -13.956
REMARK INTRA:                  -1.211
REMARK UNBOUND:                -1.167
REMARK SMILES Cc1cc2c(CC(=O)O)csc2cc1OCc1ccccc1COc1ccc(C(F)(F)F)cc1
REMARK SMILES IDX 16 1 15 2 14 3 2 4 3 5 4 6 13 7 5 8 12 9 10 10 11 11 1 12
REMARK SMILES IDX 6 13 7 14 8 15 9 16 17 18 18 19 22 20 19 21 21 22 20 23
REMARK SMILES IDX 23 24 24 25 25 26 26 27 34 28 27 29 33 30 28 31 29 32 30 33
REMARK SMILES IDX 31 34 32 35
REMARK H PARENT 9 17
ROOT
ATOM      1  C   UNL     1      -8.497  -8.286 -24.963  1.00  0.00     0.265 C 
ENDROOT
BRANCH   1   2
ATOM      2  O   UNL     1      -9.383  -7.536 -25.797  1.00  0.00    -0.489 OA
BRANCH   2   3
ATOM      3  C   UNL     1      -9.696  -8.073 -27.022  1.00  0.00     0.124 A 
ATOM      4  C   UNL     1     -11.061  -8.145 -27.322  1.00  0.00    -0.008 A 
ATOM      5  C   UNL     1     -11.474  -8.641 -28.573  1.00  0.00     0.017 A 
ATOM      6  C   UNL     1     -10.533  -9.091 -29.534  1.00  0.00    -0.003 A 
ATOM      7  C   UNL     1      -8.749  -8.544 -27.936  1.00  0.00     0.066 A 
ATOM      8  C   UNL     1     -10.729  -9.640 -30.863  1.00  0.00    -0.018 A 
ATOM      9  C   UNL     1      -9.182  -9.037 -29.187  1.00  0.00     0.038 A 
ATOM     10  C   UNL     1      -9.522  -9.969 -31.450  1.00  0.00     0.070 A 
ATOM     11  S   UNL     1      -8.183  -9.637 -30.452  1.00  0.00    -0.143 S 
ATOM     12  C   UNL     1     -12.094  -7.687 -26.330  1.00  0.00     0.048 C 
BRANCH   8  13
ATOM     13  C   UNL     1     -12.070  -9.845 -31.517  1.00  0.00     0.159 C 
BRANCH  13  14
ATOM     14  C   UNL     1     -12.773 -11.087 -31.011  1.00  0.00     0.307 C 
ATOM     15  O   UNL     1     -13.753 -11.158 -30.290  1.00  0.00    -0.252 OA
BRANCH  14  16
ATOM     16  O   UNL     1     -12.178 -12.227 -31.442  1.00  0.00    -0.481 OA
ATOM     17  H   UNL     1     -11.354 -12.277 -30.910  1.00  0.00     0.296 HD
ENDBRANCH  14  16
ENDBRANCH  13  14
ENDBRANCH   8  13
ENDBRANCH   2   3
ENDBRANCH   1   2
BRANCH   1  18
ATOM     18  C   UNL     1      -9.228  -8.670 -23.693  1.00  0.00    -0.004 A 
ATOM     19  C   UNL     1     -10.636  -8.711 -23.705  1.00  0.00     0.007 A 
ATOM     20  C   UNL     1      -8.535  -9.002 -22.503  1.00  0.00    -0.004 A 
ATOM     21  C   UNL     1     -11.350  -9.082 -22.566  1.00  0.00     0.000 A 
ATOM     22  C   UNL     1      -9.273  -9.377 -21.367  1.00  0.00     0.007 A 
ATOM     23  C   UNL     1     -10.669  -9.419 -21.399  1.00  0.00     0.000 A 
BRANCH  20  24
ATOM     24  C   UNL     1      -7.022  -8.932 -22.406  1.00  0.00     0.265 C 
BRANCH  24  25
ATOM     25  O   UNL     1      -6.656  -8.571 -21.085  1.00  0.00    -0.489 OA
BRANCH  25  26
ATOM     26  C   UNL     1      -6.204  -7.292 -20.887  1.00  0.00     0.119 A 
ATOM     27  C   UNL     1      -4.816  -7.177 -20.711  1.00  0.00     0.047 A 
ATOM     28  C   UNL     1      -6.988  -6.142 -20.850  1.00  0.00     0.047 A 
ATOM     29  C   UNL     1      -4.213  -5.927 -20.493  1.00  0.00     0.017 A 
ATOM     30  C   UNL     1      -6.385  -4.889 -20.633  1.00  0.00     0.017 A 
ATOM     31  C   UNL     1      -4.994  -4.769 -20.445  1.00  0.00     0.056 A 
BRANCH  31  32
ATOM     32  C   UNL     1      -4.358  -3.415 -20.219  1.00  0.00     0.416 C 
ATOM     33  F   UNL     1      -2.995  -3.453 -20.288  1.00  0.00    -0.166 F 
ATOM     34  F   UNL     1      -4.654  -2.895 -18.992  1.00  0.00    -0.166 F 
ATOM     35  F   UNL     1      -4.739  -2.475 -21.129  1.00  0.00    -0.166 F 
ENDBRANCH  31  32
ENDBRANCH  25  26
ENDBRANCH  24  25
ENDBRANCH  20  24
ENDBRANCH   1  18
TORSDOF 10
ENDMDL
MODEL 5
REMARK VINA RESULT:    -8.867      4.742      6.494
REMARK INTER + INTRA:         -14.958
REMARK INTER:                 -13.771
REMARK INTRA:                  -1.187
REMARK UNBOUND:                -1.167
REMARK SMILES Cc1cc2c(CC(=O)O)csc2cc1OCc1ccccc1COc1ccc(C(F)(F)F)cc1
REMARK SMILES IDX 16 1 15 2 14 3 2 4 3 5 4 6 13 7 5 8 12 9 10 10 11 11 1 12
REMARK SMILES IDX 6 13 7 14 8 15 9 16 17 18 18 19 22 20 19 21 21 22 20 23
REMARK SMILES IDX 23 24 24 25 25 26 26 27 34 28 27 29 33 30 28 31 29 32 30 33
REMARK SMILES IDX 31 34 32 35
REMARK H PARENT 9 17
ROOT
ATOM      1  C   UNL     1      -8.814  -7.983 -25.039  1.00  0.00     0.265 C 
ENDROOT
BRANCH   1   2
ATOM      2  O   UNL     1      -8.901  -8.930 -26.105  1.00  0.00    -0.489 OA
BRANCH   2   3
ATOM      3  C   UNL     1      -8.987  -8.431 -27.382  1.00  0.00     0.124 A 
ATOM      4  C   UNL     1      -7.821  -8.526 -28.150  1.00  0.00    -0.008 A 
ATOM      5  C   UNL     1      -7.828  -8.079 -29.485  1.00  0.00     0.017 A 
ATOM      6  C   UNL     1      -8.992  -7.514 -30.067  1.00  0.00    -0.003 A 
ATOM      7  C   UNL     1     -10.136  -7.844 -27.918  1.00  0.00     0.066 A 
ATOM      8  C   UNL     1      -9.222  -6.988 -31.399  1.00  0.00    -0.018 A 
ATOM      9  C   UNL     1     -10.126  -7.404 -29.260  1.00  0.00     0.038 A 
ATOM     10  C   UNL     1     -10.513  -6.512 -31.532  1.00  0.00     0.070 A 
ATOM     11  S   UNL     1     -11.435  -6.681 -30.111  1.00  0.00    -0.143 S 
ATOM     12  C   UNL     1      -6.562  -9.110 -27.573  1.00  0.00     0.048 C 
BRANCH   8  13
ATOM     13  C   UNL     1      -8.190  -6.947 -32.496  1.00  0.00     0.159 C 
BRANCH  13  14
ATOM     14  C   UNL     1      -7.647  -8.322 -32.826  1.00  0.00     0.307 C 
ATOM     15  O   UNL     1      -6.485  -8.662 -32.959  1.00  0.00    -0.252 OA
BRANCH  14  16
ATOM     16  O   UNL     1      -8.634  -9.239 -32.991  1.00  0.00    -0.481 OA
ATOM     17  H   UNL     1      -8.408  -9.946 -32.348  1.00  0.00     0.296 HD
ENDBRANCH  14  16
ENDBRANCH  13  14
ENDBRANCH   8  13
ENDBRANCH   2   3
ENDBRANCH   1   2
BRANCH   1  18
ATOM     18  C   UNL     1      -9.583  -8.516 -23.847  1.00  0.00    -0.004 A 
ATOM     19  C   UNL     1     -10.987  -8.595 -23.924  1.00  0.00     0.007 A 
ATOM     20  C   UNL     1      -8.928  -8.948 -22.667  1.00  0.00    -0.004 A 
ATOM     21  C   UNL     1     -11.734  -9.101 -22.861  1.00  0.00     0.000 A 
ATOM     22  C   UNL     1      -9.699  -9.458 -21.608  1.00  0.00     0.007 A 
ATOM     23  C   UNL     1     -11.091  -9.535 -21.705  1.00  0.00     0.000 A 
BRANCH  20  24
ATOM     24  C   UNL     1      -7.424  -8.846 -22.498  1.00  0.00     0.265 C 
BRANCH  24  25
ATOM     25  O   UNL     1      -7.129  -8.502 -21.155  1.00  0.00    -0.489 OA
BRANCH  25  26
ATOM     26  C   UNL     1      -6.563  -7.273 -20.932  1.00  0.00     0.119 A 
ATOM     27  C   UNL     1      -5.164  -7.277 -20.824  1.00  0.00     0.047 A 
ATOM     28  C   UNL     1      -7.247  -6.066 -20.810  1.00  0.00     0.047 A 
ATOM     29  C   UNL     1      -4.450  -6.090 -20.589  1.00  0.00     0.017 A 
ATOM     30  C   UNL     1      -6.534  -4.876 -20.577  1.00  0.00     0.017 A 
ATOM     31  C   UNL     1      -5.131  -4.876 -20.457  1.00  0.00     0.056 A 
BRANCH  31  32
ATOM     32  C   UNL     1      -4.375  -3.588 -20.212  1.00  0.00     0.416 C 
ATOM     33  F   UNL     1      -4.682  -3.015 -19.012  1.00  0.00    -0.166 F 
ATOM     34  F   UNL     1      -4.638  -2.639 -21.157  1.00  0.00    -0.166 F 
ATOM     35  F   UNL     1      -3.021  -3.745 -20.201  1.00  0.00    -0.166 F 
ENDBRANCH  31  32
ENDBRANCH  25  26
ENDBRANCH  24  25
ENDBRANCH  20  24
ENDBRANCH   1  18
TORSDOF 10
ENDMDL
MODEL 6
REMARK VINA RESULT:    -8.855      5.385      7.296
REMARK INTER + INTRA:         -14.941
REMARK INTER:                 -13.851
REMARK INTRA:                  -1.090
REMARK UNBOUND:                -1.167
REMARK SMILES Cc1cc2c(CC(=O)O)csc2cc1OCc1ccccc1COc1ccc(C(F)(F)F)cc1
REMARK SMILES IDX 16 1 15 2 14 3 2 4 3 5 4 6 13 7 5 8 12 9 10 10 11 11 1 12
REMARK SMILES IDX 6 13 7 14 8 15 9 16 17 18 18 19 22 20 19 21 21 22 20 23
REMARK SMILES IDX 23 24 24 25 25 26 26 27 34 28 27 29 33 30 28 31 29 32 30 33
REMARK SMILES IDX 31 34 32 35
REMARK H PARENT 9 17
ROOT
ATOM      1  C   UNL     1      -6.593  -8.397 -22.090  1.00  0.00     0.265 C 
ENDROOT
BRANCH   1   2
ATOM      2  O   UNL     1      -7.467  -9.374 -22.661  1.00  0.00    -0.489 OA
BRANCH   2   3
ATOM      3  C   UNL     1      -7.769  -9.242 -23.994  1.00  0.00     0.124 A 
ATOM      4  C   UNL     1      -6.935  -9.939 -24.877  1.00  0.00    -0.008 A 
ATOM      5  C   UNL     1      -7.196  -9.897 -26.260  1.00  0.00     0.017 A 
ATOM      6  C   UNL     1      -8.278  -9.147 -26.783  1.00  0.00    -0.003 A 
ATOM      7  C   UNL     1      -8.821  -8.465 -24.486  1.00  0.00     0.066 A 
ATOM      8  C   UNL     1      -8.723  -8.956 -28.152  1.00  0.00    -0.018 A 
ATOM      9  C   UNL     1      -9.068  -8.437 -25.876  1.00  0.00     0.038 A 
ATOM     10  C   UNL     1      -9.821  -8.119 -28.209  1.00  0.00     0.070 A 
ATOM     11  S   UNL     1     -10.318  -7.568 -26.677  1.00  0.00    -0.143 S 
ATOM     12  C   UNL     1      -5.770 -10.741 -24.367  1.00  0.00     0.048 C 
BRANCH   8  13
ATOM     13  C   UNL     1      -8.067  -9.573 -29.360  1.00  0.00     0.159 C 
BRANCH  13  14
ATOM     14  C   UNL     1      -8.290  -8.755 -30.615  1.00  0.00     0.307 C 
ATOM     15  O   UNL     1      -9.120  -8.926 -31.490  1.00  0.00    -0.252 OA
BRANCH  14  16
ATOM     16  O   UNL     1      -7.412  -7.726 -30.720  1.00  0.00    -0.481 OA
ATOM     17  H   UNL     1      -7.097  -7.591 -29.800  1.00  0.00     0.296 HD
ENDBRANCH  14  16
ENDBRANCH  13  14
ENDBRANCH   8  13
ENDBRANCH   2   3
ENDBRANCH   1   2
BRANCH   1  18
ATOM     18  C   UNL     1      -7.363  -7.593 -21.063  1.00  0.00    -0.004 A 
ATOM     19  C   UNL     1      -8.718  -7.901 -20.835  1.00  0.00     0.007 A 
ATOM     20  C   UNL     1      -6.753  -6.555 -20.317  1.00  0.00    -0.004 A 
ATOM     21  C   UNL     1      -9.460  -7.202 -19.882  1.00  0.00     0.000 A 
ATOM     22  C   UNL     1      -7.516  -5.865 -19.359  1.00  0.00     0.007 A 
ATOM     23  C   UNL     1      -8.859  -6.188 -19.142  1.00  0.00     0.000 A 
BRANCH  20  24
ATOM     24  C   UNL     1      -5.311  -6.139 -20.545  1.00  0.00     0.265 C 
BRANCH  24  25
ATOM     25  O   UNL     1      -5.014  -5.020 -19.727  1.00  0.00    -0.489 OA
BRANCH  25  26
ATOM     26  C   UNL     1      -4.478  -3.918 -20.343  1.00  0.00     0.119 A 
ATOM     27  C   UNL     1      -4.283  -2.809 -19.506  1.00  0.00     0.047 A 
ATOM     28  C   UNL     1      -4.124  -3.822 -21.687  1.00  0.00     0.047 A 
ATOM     29  C   UNL     1      -3.746  -1.610 -20.002  1.00  0.00     0.017 A 
ATOM     30  C   UNL     1      -3.584  -2.622 -22.185  1.00  0.00     0.017 A 
ATOM     31  C   UNL     1      -3.397  -1.502 -21.351  1.00  0.00     0.056 A 
BRANCH  31  32
ATOM     32  C   UNL     1      -2.810  -0.219 -21.899  1.00  0.00     0.416 C 
ATOM     33  F   UNL     1      -2.885  -0.141 -23.259  1.00  0.00    -0.166 F 
ATOM     34  F   UNL     1      -1.488  -0.074 -21.590  1.00  0.00    -0.166 F 
ATOM     35  F   UNL     1      -3.430   0.903 -21.438  1.00  0.00    -0.166 F 
ENDBRANCH  31  32
ENDBRANCH  25  26
ENDBRANCH  24  25
ENDBRANCH  20  24
ENDBRANCH   1  18
TORSDOF 10
ENDMDL
MODEL 7
REMARK VINA RESULT:    -8.766      4.777      6.779
REMARK INTER + INTRA:         -14.802
REMARK INTER:                 -13.445
REMARK INTRA:                  -1.357
REMARK UNBOUND:                -1.167
REMARK SMILES Cc1cc2c(CC(=O)O)csc2cc1OCc1ccccc1COc1ccc(C(F)(F)F)cc1
REMARK SMILES IDX 16 1 15 2 14 3 2 4 3 5 4 6 13 7 5 8 12 9 10 10 11 11 1 12
REMARK SMILES IDX 6 13 7 14 8 15 9 16 17 18 18 19 22 20 19 21 21 22 20 23
REMARK SMILES IDX 23 24 24 25 25 26 26 27 34 28 27 29 33 30 28 31 29 32 30 33
REMARK SMILES IDX 31 34 32 35
REMARK H PARENT 9 17
ROOT
ATOM      1  C   UNL     1      -9.425  -8.241 -25.103  1.00  0.00     0.265 C 
ENDROOT
BRANCH   1   2
ATOM      2  O   UNL     1     -10.373  -8.542 -26.129  1.00  0.00    -0.489 OA
BRANCH   2   3
ATOM      3  C   UNL     1     -10.012  -8.253 -27.421  1.00  0.00     0.124 A 
ATOM      4  C   UNL     1     -10.795  -7.292 -28.071  1.00  0.00    -0.008 A 
ATOM      5  C   UNL     1     -10.471  -6.901 -29.384  1.00  0.00     0.017 A 
ATOM      6  C   UNL     1      -9.375  -7.476 -30.074  1.00  0.00    -0.003 A 
ATOM      7  C   UNL     1      -8.948  -8.863 -28.092  1.00  0.00     0.066 A 
ATOM      8  C   UNL     1      -8.870  -7.236 -31.413  1.00  0.00    -0.018 A 
ATOM      9  C   UNL     1      -8.636  -8.457 -29.408  1.00  0.00     0.038 A 
ATOM     10  C   UNL     1      -7.781  -8.040 -31.689  1.00  0.00     0.070 A 
ATOM     11  S   UNL     1      -7.362  -9.061 -30.393  1.00  0.00    -0.143 S 
ATOM     12  C   UNL     1     -11.972  -6.662 -27.380  1.00  0.00     0.048 C 
BRANCH   8  13
ATOM     13  C   UNL     1      -9.461  -6.252 -32.389  1.00  0.00     0.159 C 
BRANCH  13  14
ATOM     14  C   UNL     1      -8.912  -4.853 -32.198  1.00  0.00     0.307 C 
ATOM     15  O   UNL     1      -9.313  -3.981 -31.448  1.00  0.00    -0.252 OA
BRANCH  14  16
ATOM     16  O   UNL     1      -7.849  -4.604 -33.003  1.00  0.00    -0.481 OA
ATOM     17  H   UNL     1      -7.489  -3.757 -32.661  1.00  0.00     0.296 HD
ENDBRANCH  14  16
ENDBRANCH  13  14
ENDBRANCH   8  13
ENDBRANCH   2   3
ENDBRANCH   1   2
BRANCH   1  18
ATOM     18  C   UNL     1     -10.021  -8.613 -23.761  1.00  0.00    -0.004 A 
ATOM     19  C   UNL     1     -11.418  -8.760 -23.654  1.00  0.00     0.007 A 
ATOM     20  C   UNL     1      -9.212  -8.832 -22.618  1.00  0.00    -0.004 A 
ATOM     21  C   UNL     1     -12.008  -9.124 -22.444  1.00  0.00     0.000 A 
ATOM     22  C   UNL     1      -9.826  -9.202 -21.409  1.00  0.00     0.007 A 
ATOM     23  C   UNL     1     -11.213  -9.349 -21.324  1.00  0.00     0.000 A 
BRANCH  20  24
ATOM     24  C   UNL     1      -7.706  -8.645 -22.650  1.00  0.00     0.265 C 
BRANCH  24  25
ATOM     25  O   UNL     1      -7.234  -8.443 -21.329  1.00  0.00    -0.489 OA
BRANCH  25  26
ATOM     26  C   UNL     1      -6.659  -7.230 -21.047  1.00  0.00     0.119 A 
ATOM     27  C   UNL     1      -5.264  -7.259 -20.896  1.00  0.00     0.047 A 
ATOM     28  C   UNL     1      -7.330  -6.019 -20.905  1.00  0.00     0.047 A 
ATOM     29  C   UNL     1      -4.541  -6.092 -20.599  1.00  0.00     0.017 A 
ATOM     30  C   UNL     1      -6.608  -4.847 -20.610  1.00  0.00     0.017 A 
ATOM     31  C   UNL     1      -5.209  -4.873 -20.447  1.00  0.00     0.056 A 
BRANCH  31  32
ATOM     32  C   UNL     1      -4.443  -3.605 -20.135  1.00  0.00     0.416 C 
ATOM     33  F   UNL     1      -4.738  -3.098 -18.903  1.00  0.00    -0.166 F 
ATOM     34  F   UNL     1      -4.707  -2.602 -21.023  1.00  0.00    -0.166 F 
ATOM     35  F   UNL     1      -3.091  -3.770 -20.143  1.00  0.00    -0.166 F 
ENDBRANCH  31  32
ENDBRANCH  25  26
ENDBRANCH  24  25
ENDBRANCH  20  24
ENDBRANCH   1  18
TORSDOF 10
ENDMDL
MODEL 8
REMARK VINA RESULT:    -8.715      5.098      7.218
REMARK INTER + INTRA:         -14.722
REMARK INTER:                 -13.163
REMARK INTRA:                  -1.559
REMARK UNBOUND:                -1.167
REMARK SMILES Cc1cc2c(CC(=O)O)csc2cc1OCc1ccccc1COc1ccc(C(F)(F)F)cc1
REMARK SMILES IDX 16 1 15 2 14 3 2 4 3 5 4 6 13 7 5 8 12 9 10 10 11 11 1 12
REMARK SMILES IDX 6 13 7 14 8 15 9 16 17 18 18 19 22 20 19 21 21 22 20 23
REMARK SMILES IDX 23 24 24 25 25 26 26 27 34 28 27 29 33 30 28 31 29 32 30 33
REMARK SMILES IDX 31 34 32 35
REMARK H PARENT 9 17
ROOT
ATOM      1  C   UNL     1      -9.516  -7.694 -24.956  1.00  0.00     0.265 C 
ENDROOT
BRANCH   1   2
ATOM      2  O   UNL     1     -10.355  -8.047 -26.058  1.00  0.00    -0.489 OA
BRANCH   2   3
ATOM      3  C   UNL     1     -11.042  -7.029 -26.673  1.00  0.00     0.124 A 
ATOM      4  C   UNL     1     -10.798  -6.872 -28.042  1.00  0.00    -0.008 A 
ATOM      5  C   UNL     1     -11.492  -5.883 -28.764  1.00  0.00     0.017 A 
ATOM      6  C   UNL     1     -12.424  -5.024 -28.128  1.00  0.00    -0.003 A 
ATOM      7  C   UNL     1     -11.928  -6.172 -26.014  1.00  0.00     0.066 A 
ATOM      8  C   UNL     1     -13.234  -3.946 -28.664  1.00  0.00    -0.018 A 
ATOM      9  C   UNL     1     -12.617  -5.187 -26.755  1.00  0.00     0.038 A 
ATOM     10  C   UNL     1     -13.995  -3.353 -27.675  1.00  0.00     0.070 A 
ATOM     11  S   UNL     1     -13.758  -4.055 -26.142  1.00  0.00    -0.143 S 
ATOM     12  C   UNL     1      -9.813  -7.755 -28.756  1.00  0.00     0.048 C 
BRANCH   8  13
ATOM     13  C   UNL     1     -13.238  -3.511 -30.106  1.00  0.00     0.159 C 
BRANCH  13  14
ATOM     14  C   UNL     1     -12.227  -2.416 -30.379  1.00  0.00     0.307 C 
ATOM     15  O   UNL     1     -11.011  -2.481 -30.327  1.00  0.00    -0.252 OA
BRANCH  14  16
ATOM     16  O   UNL     1     -12.819  -1.240 -30.706  1.00  0.00    -0.481 OA
ATOM     17  H   UNL     1     -13.327  -1.451 -31.520  1.00  0.00     0.296 HD
ENDBRANCH  14  16
ENDBRANCH  13  14
ENDBRANCH   8  13
ENDBRANCH   2   3
ENDBRANCH   1   2
BRANCH   1  18
ATOM     18  C   UNL     1      -8.418  -8.730 -24.825  1.00  0.00    -0.004 A 
ATOM     19  C   UNL     1      -7.834  -9.253 -25.996  1.00  0.00     0.007 A 
ATOM     20  C   UNL     1      -7.956  -9.175 -23.562  1.00  0.00    -0.004 A 
ATOM     21  C   UNL     1      -6.805 -10.192 -25.923  1.00  0.00     0.000 A 
ATOM     22  C   UNL     1      -6.916 -10.119 -23.510  1.00  0.00     0.007 A 
ATOM     23  C   UNL     1      -6.344 -10.621 -24.682  1.00  0.00     0.000 A 
BRANCH  20  24
ATOM     24  C   UNL     1      -8.573  -8.689 -22.263  1.00  0.00     0.265 C 
BRANCH  24  25
ATOM     25  O   UNL     1      -7.581  -8.686 -21.250  1.00  0.00    -0.489 OA
BRANCH  25  26
ATOM     26  C   UNL     1      -6.936  -7.500 -21.008  1.00  0.00     0.119 A 
ATOM     27  C   UNL     1      -5.537  -7.593 -20.939  1.00  0.00     0.047 A 
ATOM     28  C   UNL     1      -7.541  -6.258 -20.834  1.00  0.00     0.047 A 
ATOM     29  C   UNL     1      -4.745  -6.459 -20.691  1.00  0.00     0.017 A 
ATOM     30  C   UNL     1      -6.750  -5.121 -20.588  1.00  0.00     0.017 A 
ATOM     31  C   UNL     1      -5.346  -5.210 -20.506  1.00  0.00     0.056 A 
BRANCH  31  32
ATOM     32  C   UNL     1      -4.506  -3.978 -20.247  1.00  0.00     0.416 C 
ATOM     33  F   UNL     1      -4.832  -3.352 -19.079  1.00  0.00    -0.166 F 
ATOM     34  F   UNL     1      -4.643  -3.036 -21.225  1.00  0.00    -0.166 F 
ATOM     35  F   UNL     1      -3.172  -4.239 -20.156  1.00  0.00    -0.166 F 
ENDBRANCH  31  32
ENDBRANCH  25  26
ENDBRANCH  24  25
ENDBRANCH  20  24
ENDBRANCH   1  18
TORSDOF 10
ENDMDL
MODEL 9
REMARK VINA RESULT:    -8.633      5.021      6.779
REMARK INTER + INTRA:         -14.594
REMARK INTER:                 -13.519
REMARK INTRA:                  -1.075
REMARK UNBOUND:                -1.167
REMARK SMILES Cc1cc2c(CC(=O)O)csc2cc1OCc1ccccc1COc1ccc(C(F)(F)F)cc1
REMARK SMILES IDX 16 1 15 2 14 3 2 4 3 5 4 6 13 7 5 8 12 9 10 10 11 11 1 12
REMARK SMILES IDX 6 13 7 14 8 15 9 16 17 18 18 19 22 20 19 21 21 22 20 23
REMARK SMILES IDX 23 24 24 25 25 26 26 27 34 28 27 29 33 30 28 31 29 32 30 33
REMARK SMILES IDX 31 34 32 35
REMARK H PARENT 9 17
ROOT
ATOM      1  C   UNL     1      -8.784  -8.047 -25.569  1.00  0.00     0.265 C 
ENDROOT
BRANCH   1   2
ATOM      2  O   UNL     1      -9.612  -8.691 -26.539  1.00  0.00    -0.489 OA
BRANCH   2   3
ATOM      3  C   UNL     1      -9.490  -8.277 -27.843  1.00  0.00     0.124 A 
ATOM      4  C   UNL     1     -10.406  -7.304 -28.259  1.00  0.00    -0.008 A 
ATOM      5  C   UNL     1     -10.328  -6.788 -29.567  1.00  0.00     0.017 A 
ATOM      6  C   UNL     1      -9.349  -7.248 -30.483  1.00  0.00    -0.003 A 
ATOM      7  C   UNL     1      -8.539  -8.775 -28.737  1.00  0.00     0.066 A 
ATOM      8  C   UNL     1      -9.092  -6.871 -31.860  1.00  0.00    -0.018 A 
ATOM      9  C   UNL     1      -8.474  -8.244 -30.044  1.00  0.00     0.038 A 
ATOM     10  C   UNL     1      -8.041  -7.595 -32.389  1.00  0.00     0.070 A 
ATOM     11  S   UNL     1      -7.369  -8.700 -31.282  1.00  0.00    -0.143 S 
ATOM     12  C   UNL     1     -11.466  -6.792 -27.324  1.00  0.00     0.048 C 
BRANCH   8  13
ATOM     13  C   UNL     1      -9.876  -5.838 -32.627  1.00  0.00     0.159 C 
BRANCH  13  14
ATOM     14  C   UNL     1      -9.591  -4.429 -32.150  1.00  0.00     0.307 C 
ATOM     15  O   UNL     1     -10.373  -3.504 -32.019  1.00  0.00    -0.252 OA
BRANCH  14  16
ATOM     16  O   UNL     1      -8.279  -4.240 -31.860  1.00  0.00    -0.481 OA
ATOM     17  H   UNL     1      -7.867  -5.109 -32.061  1.00  0.00     0.296 HD
ENDBRANCH  14  16
ENDBRANCH  13  14
ENDBRANCH   8  13
ENDBRANCH   2   3
ENDBRANCH   1   2
BRANCH   1  18
ATOM     18  C   UNL     1      -7.865  -9.079 -24.948  1.00  0.00    -0.004 A 
ATOM     19  C   UNL     1      -7.063  -9.872 -25.792  1.00  0.00     0.007 A 
ATOM     20  C   UNL     1      -7.781  -9.257 -23.545  1.00  0.00    -0.004 A 
ATOM     21  C   UNL     1      -6.186 -10.818 -25.263  1.00  0.00     0.000 A 
ATOM     22  C   UNL     1      -6.888 -10.213 -23.031  1.00  0.00     0.007 A 
ATOM     23  C   UNL     1      -6.095 -10.986 -23.884  1.00  0.00     0.000 A 
BRANCH  20  24
ATOM     24  C   UNL     1      -8.651  -8.471 -22.580  1.00  0.00     0.265 C 
BRANCH  24  25
ATOM     25  O   UNL     1      -8.009  -8.412 -21.317  1.00  0.00    -0.489 OA
BRANCH  25  26
ATOM     26  C   UNL     1      -7.235  -7.309 -21.059  1.00  0.00     0.119 A 
ATOM     27  C   UNL     1      -5.861  -7.568 -20.936  1.00  0.00     0.047 A 
ATOM     28  C   UNL     1      -7.693  -6.002 -20.916  1.00  0.00     0.047 A 
ATOM     29  C   UNL     1      -4.949  -6.535 -20.665  1.00  0.00     0.017 A 
ATOM     30  C   UNL     1      -6.781  -4.965 -20.646  1.00  0.00     0.017 A 
ATOM     31  C   UNL     1      -5.402  -5.221 -20.511  1.00  0.00     0.056 A 
BRANCH  31  32
ATOM     32  C   UNL     1      -4.430  -4.096 -20.227  1.00  0.00     0.416 C 
ATOM     33  F   UNL     1      -4.768  -3.372 -19.121  1.00  0.00    -0.166 F 
ATOM     34  F   UNL     1      -4.356  -3.197 -21.252  1.00  0.00    -0.166 F 
ATOM     35  F   UNL     1      -3.155  -4.521 -20.004  1.00  0.00    -0.166 F 
ENDBRANCH  31  32
ENDBRANCH  25  26
ENDBRANCH  24  25
ENDBRANCH  20  24
ENDBRANCH   1  18
TORSDOF 10
ENDMDL
