REMARK VINA RESULT:    -9.010      0.806      1.628
REMARK INTER + INTRA:         -14.998
REMARK INTER:                 -13.938
REMARK INTRA:                  -1.060
REMARK UNBOUND:                -0.984
REMARK SMILES CCC(CC)n1cc(-c2nc(-c3cnn(CCN4CCC(CO)CC4)c3)cn3nccc23)cn1
REMARK SMILES IDX 12 1 13 2 14 3 15 4 26 5 11 6 9 7 10 8 32 9 31 10 28 11
REMARK SMILES IDX 27 12 30 13 29 14 8 15 6 16 7 17 34 18 33 19 3 20 2 21 1 22
REMARK SMILES IDX 4 23 5 24 16 25 17 26 18 27 19 28 25 29 20 30 24 31 21 32
REMARK SMILES IDX 22 33 23 34
REMARK H PARENT 23 35
ROOT
ATOM      1  C   UNL     1     -16.006  15.711  19.837  1.00  0.00     0.040 A 
ATOM      2  C   UNL     1     -16.544  14.544  19.249  1.00  0.00     0.145 A 
ATOM      3  N   UNL     1     -15.756  13.475  19.406  1.00  0.00    -0.181 NA
ATOM      4  N   UNL     1     -14.710  13.957  20.102  1.00  0.00    -0.271 N 
ATOM      5  C   UNL     1     -14.810  15.291  20.382  1.00  0.00     0.119 A 
ENDROOT
BRANCH   1   6
ATOM      6  C   UNL     1     -16.568  17.028  19.863  1.00  0.00     0.092 A 
ATOM      7  C   UNL     1     -18.259  18.317  20.784  1.00  0.00     0.100 A 
ATOM      8  N   UNL     1     -17.665  17.161  20.700  1.00  0.00    -0.244 NA
ATOM      9  C   UNL     1     -17.789  19.473  20.068  1.00  0.00     0.093 A 
ATOM     10  C   UNL     1     -18.113  20.811  20.011  1.00  0.00     0.052 A 
ATOM     11  N   UNL     1     -16.704  19.295  19.233  1.00  0.00    -0.237 N 
ATOM     12  C   UNL     1     -16.096  18.058  19.137  1.00  0.00     0.142 A 
ATOM     13  C   UNL     1     -17.209  21.354  19.086  1.00  0.00     0.136 A 
ATOM     14  N   UNL     1     -16.365  20.443  18.601  1.00  0.00    -0.176 NA
BRANCH   7  15
ATOM     15  C   UNL     1     -19.422  18.401  21.644  1.00  0.00     0.040 A 
ATOM     16  N   UNL     1     -21.427  18.736  22.512  1.00  0.00    -0.269 N 
ATOM     17  C   UNL     1     -20.679  18.910  21.379  1.00  0.00     0.119 A 
ATOM     18  N   UNL     1     -20.745  18.126  23.499  1.00  0.00    -0.181 NA
ATOM     19  C   UNL     1     -19.542  17.906  22.964  1.00  0.00     0.145 A 
BRANCH  16  20
ATOM     20  C   UNL     1     -22.823  19.107  22.743  1.00  0.00     0.107 C 
BRANCH  20  21
ATOM     21  C   UNL     1     -23.778  17.933  22.445  1.00  0.00     0.024 C 
ATOM     22  C   UNL     1     -24.518  17.362  23.647  1.00  0.00     0.006 C 
ENDBRANCH  20  21
BRANCH  20  23
ATOM     23  C   UNL     1     -23.247  20.415  22.043  1.00  0.00     0.024 C 
ATOM     24  C   UNL     1     -24.340  20.201  21.002  1.00  0.00     0.006 C 
ENDBRANCH  20  23
ENDBRANCH  16  20
ENDBRANCH   7  15
ENDBRANCH   1   6
BRANCH   4  25
ATOM     25  C   UNL     1     -13.615  13.071  20.460  1.00  0.00     0.159 C 
BRANCH  25  26
ATOM     26  C   UNL     1     -12.459  13.178  19.458  1.00  0.00     0.108 C 
BRANCH  26  27
ATOM     27  N   UNL     1     -11.234  13.868  19.909  1.00  0.00    -0.301 NA
ATOM     28  C   UNL     1     -10.014  13.253  19.374  1.00  0.00     0.085 C 
ATOM     29  C   UNL     1     -11.265  15.313  19.662  1.00  0.00     0.085 C 
ATOM     30  C   UNL     1      -8.772  13.868  20.021  1.00  0.00     0.021 C 
ATOM     31  C   UNL     1     -10.066  16.001  20.316  1.00  0.00     0.021 C 
ATOM     32  C   UNL     1      -8.741  15.390  19.837  1.00  0.00     0.017 C 
BRANCH  32  33
ATOM     33  C   UNL     1      -7.544  16.001  20.567  1.00  0.00     0.159 C 
BRANCH  33  34
ATOM     34  O   UNL     1      -8.001  16.777  21.667  1.00  0.00    -0.396 OA
ATOM     35  H   UNL     1      -7.538  17.631  21.622  1.00  0.00     0.210 HD
ENDBRANCH  33  34
ENDBRANCH  32  33
ENDBRANCH  26  27
ENDBRANCH  25  26
ENDBRANCH   4  25
TORSDOF 10
