REMARK VINA RESULT:    -6.689      2.645      7.008
REMARK INTER + INTRA:         -14.637
REMARK INTER:                 -12.428
REMARK INTRA:                  -2.210
REMARK UNBOUND:                -1.887
REMARK SMILES CCCCC/C=C(\C/C=C\CCCCCCCC(=O)O)[N+](=O)[O-]
REMARK SMILES IDX 11 1 10 2 9 3 8 4 7 5 6 6 5 7 4 8 3 9 2 10 1 11 21 12 22 13
REMARK SMILES IDX 23 14 12 15 13 16 14 17 15 18 16 19 17 20 18 21 19 22 20 23
REMARK H PARENT 20 24
ROOT
ATOM      1  C   UNL     1       5.637   7.077  -5.942  1.00  0.00     0.027 C 
ENDROOT
BRANCH   1   2
ATOM      2  C   UNL     1       4.887   6.019  -5.181  1.00  0.00    -0.031 C 
ATOM      3  C   UNL     1       3.944   6.197  -4.241  1.00  0.00    -0.020 C 
BRANCH   3   4
ATOM      4  C   UNL     1       3.400   7.501  -3.717  1.00  0.00     0.141 C 
BRANCH   4   5
ATOM      5  C   UNL     1       4.077   7.921  -2.448  1.00  0.00     0.246 C 
ATOM      6  C   UNL     1       3.823   7.537  -1.180  1.00  0.00     0.054 C 
BRANCH   6   7
ATOM      7  C   UNL     1       2.784   6.542  -0.743  1.00  0.00     0.034 C 
BRANCH   7   8
ATOM      8  C   UNL     1       3.436   5.347  -0.041  1.00  0.00     0.004 C 
BRANCH   8   9
ATOM      9  C   UNL     1       4.036   4.325  -1.012  1.00  0.00     0.000 C 
BRANCH   9  10
ATOM     10  C   UNL     1       5.503   4.003  -0.726  1.00  0.00    -0.003 C 
ATOM     11  C   UNL     1       6.424   4.671  -1.736  1.00  0.00     0.004 C 
ENDBRANCH   9  10
ENDBRANCH   8   9
ENDBRANCH   7   8
ENDBRANCH   6   7
BRANCH   5  12
ATOM     12  N   UNL     1       5.155   8.900  -2.631  1.00  0.00     0.058 N 
ATOM     13  O   UNL     1       5.071   9.685  -3.587  1.00  0.00    -0.259 OA
ATOM     14  O   UNL     1       6.093   8.877  -1.825  1.00  0.00    -0.259 OA
ENDBRANCH   5  12
ENDBRANCH   4   5
ENDBRANCH   3   4
ENDBRANCH   1   2
BRANCH   1  15
ATOM     15  C   UNL     1       6.940   6.521  -6.517  1.00  0.00     0.004 C 
BRANCH  15  16
ATOM     16  C   UNL     1       7.027   5.004  -6.330  1.00  0.00     0.000 C 
BRANCH  16  17
ATOM     17  C   UNL     1       8.304   4.439  -6.955  1.00  0.00     0.000 C 
BRANCH  17  18
ATOM     18  C   UNL     1       9.169   3.652  -5.967  1.00  0.00     0.001 C 
BRANCH  18  19
ATOM     19  C   UNL     1       8.624   3.548  -4.540  1.00  0.00     0.012 C 
BRANCH  19  20
ATOM     20  C   UNL     1       9.166   2.347  -3.768  1.00  0.00     0.122 C 
BRANCH  20  21
ATOM     21  C   UNL     1      10.121   2.770  -2.684  1.00  0.00     0.303 C 
ATOM     22  O   UNL     1      10.792   2.054  -1.961  1.00  0.00    -0.252 OA
BRANCH  21  23
ATOM     23  O   UNL     1      10.167   4.110  -2.550  1.00  0.00    -0.481 OA
ATOM     24  H   UNL     1       9.667   4.283  -1.725  1.00  0.00     0.296 HD
ENDBRANCH  21  23
ENDBRANCH  20  21
ENDBRANCH  19  20
ENDBRANCH  18  19
ENDBRANCH  17  18
ENDBRANCH  16  17
ENDBRANCH  15  16
ENDBRANCH   1  15
TORSDOF 16
