MODEL 3
REMARK minimizedAffinity -8.45518684
REMARK CNNscore 0.557341456
REMARK CNNaffinity 8.38747501
REMARK SMILES CCOc1cc2ncc(C#N)c(Nc3ccc(OCc4ccccc4)c(Cl)c3)c2cc1NC(=O)/C=C/CN1CCOCC1
REMARK SMILES IDX 4 1 5 2 6 3 7 4 8 5 9 6 10 7 11 8 12 9 29 10 30 11 31 12
REMARK SMILES IDX 3 13 2 14 1 15 32 16 33 17 34 18 35 20 36 21 37 22 38 23
REMARK SMILES IDX 43 24 39 25 42 26 40 27 41 28 13 29 14 31 28 32 15 33 26 34
REMARK SMILES IDX 16 35 17 36 27 37 18 38 19 39 20 40 25 41 21 42 24 43 22 44
REMARK SMILES IDX 23 45
REMARK H PARENT 32 19 13 30
ROOT
ATOM      1  C   UNL     1      16.011   5.668  23.981  1.00  0.00     0.144 A 
ATOM      2  C   UNL     1      17.118   4.889  24.345  1.00  0.00     0.077 A 
ATOM      3  C   UNL     1      16.957   3.664  25.033  1.00  0.00     0.076 A 
ATOM      4  N   UNL     1      18.077   2.967  25.352  1.00  0.00    -0.255 NA
ATOM      5  C   UNL     1      17.938   1.784  25.985  1.00  0.00     0.133 A 
ATOM      6  C   UNL     1      16.712   1.229  26.350  1.00  0.00     0.094 A 
ATOM      7  C   UNL     1      16.751  -0.102  26.952  1.00  0.00     0.103 C 
ATOM      8  N   UNL     1      16.782  -1.157  27.428  1.00  0.00    -0.192 NA
ATOM      9  C   UNL     1      15.524   1.949  26.070  1.00  0.00     0.068 A 
ATOM     10  C   UNL     1      15.650   3.197  25.364  1.00  0.00     0.027 A 
ATOM     11  C   UNL     1      14.543   4.005  24.983  1.00  0.00     0.042 A 
ATOM     12  C   UNL     1      14.724   5.223  24.315  1.00  0.00     0.084 A 
ENDROOT
BRANCH   1  13
ATOM     13  O   UNL     1      16.120   6.873  23.303  1.00  0.00    -0.492 OA
BRANCH  13  14
ATOM     14  C   UNL     1      16.597   6.891  21.960  1.00  0.00     0.226 C 
ATOM     15  C   UNL     1      15.751   7.881  21.154  1.00  0.00     0.049 C 
ENDBRANCH  13  14
ENDBRANCH   1  13
BRANCH  12  16
ATOM     16  N   UNL     1      13.628   6.011  23.912  1.00  0.00    -0.319 N 
ATOM     17  C   UNL     1      12.749   6.659  24.706  1.00  0.00     0.248 C 
ATOM     18  O   UNL     1      12.788   6.654  25.940  1.00  0.00    -0.270 OA
ATOM     19  H   UNL     1      13.569   6.191  22.920  1.00  0.00     0.170 HD
BRANCH  17  20
ATOM     20  C   UNL     1      11.740   7.364  23.950  1.00  0.00     0.068 C 
ATOM     21  C   UNL     1      12.035   8.153  22.894  1.00  0.00    -0.006 C 
BRANCH  21  22
ATOM     22  C   UNL     1      11.043   8.937  22.041  1.00  0.00     0.112 C 
BRANCH  22  23
ATOM     23  N   UNL     1      11.226  10.387  21.938  1.00  0.00    -0.295 NA
ATOM     24  C   UNL     1      10.117  11.123  22.560  1.00  0.00     0.113 C 
ATOM     25  C   UNL     1      12.528  10.802  22.476  1.00  0.00     0.113 C 
ATOM     26  C   UNL     1      10.352  12.648  22.506  1.00  0.00     0.175 C 
ATOM     27  C   UNL     1      12.696  12.335  22.428  1.00  0.00     0.175 C 
ATOM     28  O   UNL     1      11.609  12.968  23.094  1.00  0.00    -0.379 OA
ENDBRANCH  22  23
ENDBRANCH  21  22
ENDBRANCH  17  20
ENDBRANCH  12  16
BRANCH   9  29
ATOM     29  N   UNL     1      14.226   1.498  26.407  1.00  0.00    -0.354 N 
ATOM     30  H   UNL     1      13.757   1.000  25.665  1.00  0.00     0.167 HD
BRANCH  29  31
ATOM     31  C   UNL     1      13.403   1.773  27.508  1.00  0.00     0.040 A 
ATOM     32  C   UNL     1      13.951   1.755  28.791  1.00  0.00     0.050 A 
ATOM     33  C   UNL     1      12.035   2.016  27.352  1.00  0.00     0.030 A 
ATOM     34  C   UNL     1      13.150   2.009  29.907  1.00  0.00     0.085 A 
ATOM     35  C   UNL     1      11.234   2.272  28.463  1.00  0.00     0.050 A 
ATOM     36  C   UNL     1      11.782   2.275  29.757  1.00  0.00     0.138 A 
ATOM     37  Cl  UNL     1      13.877   1.988  31.476  1.00  0.00    -0.080 Cl
BRANCH  36  38
ATOM     38  O   UNL     1      11.051   2.523  30.905  1.00  0.00    -0.487 OA
BRANCH  38  39
ATOM     39  C   UNL     1       9.774   1.909  31.074  1.00  0.00     0.265 C 
BRANCH  39  40
ATOM     40  C   UNL     1       8.711   2.974  31.304  1.00  0.00    -0.011 A 
ATOM     41  C   UNL     1       7.851   3.332  30.261  1.00  0.00     0.007 A 
ATOM     42  C   UNL     1       8.580   3.580  32.557  1.00  0.00     0.007 A 
ATOM     43  C   UNL     1       6.868   4.297  30.470  1.00  0.00     0.000 A 
ATOM     44  C   UNL     1       7.598   4.545  32.765  1.00  0.00     0.000 A 
ATOM     45  C   UNL     1       6.747   4.900  31.720  1.00  0.00     0.000 A 
ENDBRANCH  39  40
ENDBRANCH  38  39
ENDBRANCH  36  38
ENDBRANCH  29  31
ENDBRANCH   9  29
TORSDOF 11
ENDMDL
