REMARK SMILES CCC(CC)n1cc(-c2nc(-c3cnn(C[C@@H]4CCCN4)c3)cn3nccc23)cn1
REMARK SMILES IDX 9 1 10 2 11 3 23 4 24 5 25 6 26 7 27 8 28 9 8 10 6 11 7 12
REMARK SMILES IDX 30 13 29 14 3 15 2 16 1 17 4 18 5 19 12 20 13 21 22 22 14 23
REMARK SMILES IDX 15 24 16 25 17 26 18 27 21 28 19 29 20 30
REMARK H PARENT 21 31
REMARK INDEX MAP 9 1 10 2 11 3 23 4 24 5 25 6 26 7 27 8 28 9 8 10 6 11 7 12
REMARK INDEX MAP 30 13 29 14 3 15 2 16 1 17 4 18 5 19 12 20 13 21 22 22 14 23
REMARK INDEX MAP 15 24 16 25 17 26 18 27 21 28 19 29 20 30 53 31
ROOT
ATOM      1  C   UNL     1     -11.566  14.071  20.001  1.00  0.00     0.100 A 
ATOM      2  N   UNL     1     -12.345  15.047  20.369  1.00  0.00    -0.244 NA
ATOM      3  C   UNL     1     -13.710  14.825  20.450  1.00  0.00     0.092 A 
ATOM      4  C   UNL     1     -14.256  13.630  20.157  1.00  0.00     0.142 A 
ATOM      5  N   UNL     1     -13.444  12.592  19.744  1.00  0.00    -0.237 N 
ATOM      6  N   UNL     1     -13.810  11.337  19.391  1.00  0.00    -0.176 NA
ATOM      7  C   UNL     1     -12.675  10.754  19.008  1.00  0.00     0.136 A 
ATOM      8  C   UNL     1     -11.565  11.606  19.127  1.00  0.00     0.052 A 
ATOM      9  C   UNL     1     -12.081  12.778  19.635  1.00  0.00     0.093 A 
ENDROOT
BRANCH   1  10
ATOM     10  C   UNL     1     -10.143  14.340  19.967  1.00  0.00     0.040 A 
ATOM     11  N   UNL     1      -8.132  15.256  19.985  1.00  0.00    -0.269 N 
ATOM     12  C   UNL     1      -9.464  15.532  20.138  1.00  0.00     0.119 A 
ATOM     13  N   UNL     1      -7.893  13.961  19.714  1.00  0.00    -0.181 NA
ATOM     14  C   UNL     1      -9.110  13.414  19.682  1.00  0.00     0.145 A 
BRANCH  11  15
ATOM     15  C   UNL     1      -7.012  16.190  20.073  1.00  0.00     0.107 C 
BRANCH  15  16
ATOM     16  C   UNL     1      -6.473  16.307  21.513  1.00  0.00     0.024 C 
ATOM     17  C   UNL     1      -7.060  17.487  22.277  1.00  0.00     0.006 C 
ENDBRANCH  15  16
BRANCH  15  18
ATOM     18  C   UNL     1      -7.381  17.582  19.521  1.00  0.00     0.024 C 
ATOM     19  C   UNL     1      -6.620  17.945  18.252  1.00  0.00     0.006 C 
ENDBRANCH  15  18
ENDBRANCH  11  15
ENDBRANCH   1  10
BRANCH   3  20
ATOM     20  C   UNL     1     -14.467  15.964  20.875  1.00  0.00     0.040 A 
ATOM     21  C   UNL     1     -14.129  16.919  21.860  1.00  0.00     0.145 A 
ATOM     22  C   UNL     1     -15.698  16.381  20.415  1.00  0.00     0.119 A 
ATOM     23  N   UNL     1     -15.064  17.862  22.011  1.00  0.00    -0.181 NA
ATOM     24  N   UNL     1     -16.006  17.514  21.116  1.00  0.00    -0.270 N 
BRANCH  24  25
ATOM     25  C   UNL     1     -17.209  18.315  20.984  1.00  0.00     0.163 C 
BRANCH  25  26
ATOM     26  C   UNL     1     -16.927  19.693  20.378  1.00  0.00     0.075 C 
ATOM     27  C   UNL     1     -16.229  19.648  19.023  1.00  0.00     0.022 C 
ATOM     28  N   UNL     1     -15.992  20.497  21.197  1.00  0.00    -0.312 NA
ATOM     29  C   UNL     1     -15.533  20.996  18.910  1.00  0.00     0.017 C 
ATOM     30  C   UNL     1     -15.584  21.594  20.309  1.00  0.00     0.081 C 
ATOM     31  H   UNL     1     -15.177  19.934  21.479  1.00  0.00     0.123 HD
ENDBRANCH  25  26
ENDBRANCH  24  25
ENDBRANCH   3  20
TORSDOF 7
