REMARK SMILES CCC(CC)n1cc(-c2nc(-c3cnn(C[C@H]4CCCN4)c3)cn3nccc23)cn1
REMARK SMILES IDX 9 1 10 2 11 3 23 4 24 5 25 6 26 7 27 8 28 9 8 10 6 11 7 12
REMARK SMILES IDX 30 13 29 14 3 15 2 16 1 17 4 18 5 19 12 20 13 21 22 22 14 23
REMARK SMILES IDX 15 24 16 25 17 26 18 27 21 28 19 29 20 30
REMARK H PARENT 21 31
REMARK INDEX MAP 9 1 10 2 11 3 23 4 24 5 25 6 26 7 27 8 28 9 8 10 6 11 7 12
REMARK INDEX MAP 30 13 29 14 3 15 2 16 1 17 4 18 5 19 12 20 13 21 22 22 14 23
REMARK INDEX MAP 15 24 16 25 17 26 18 27 21 28 19 29 20 30 53 31
ROOT
ATOM      1  C   UNL     1       5.504 -24.955  22.095  1.00  0.00     0.100 A 
ATOM      2  N   UNL     1       6.470 -25.305  22.895  1.00  0.00    -0.244 NA
ATOM      3  C   UNL     1       6.458 -26.577  23.446  1.00  0.00     0.092 A 
ATOM      4  C   UNL     1       5.480 -27.460  23.181  1.00  0.00     0.142 A 
ATOM      5  N   UNL     1       4.439 -27.095  22.351  1.00  0.00    -0.237 N 
ATOM      6  N   UNL     1       3.364 -27.835  21.985  1.00  0.00    -0.176 NA
ATOM      7  C   UNL     1       2.629 -27.011  21.239  1.00  0.00     0.136 A 
ATOM      8  C   UNL     1       3.220 -25.746  21.093  1.00  0.00     0.052 A 
ATOM      9  C   UNL     1       4.403 -25.833  21.793  1.00  0.00     0.093 A 
ENDROOT
BRANCH   1  10
ATOM     10  C   UNL     1       5.574 -23.628  21.517  1.00  0.00     0.040 A 
ATOM     11  N   UNL     1       5.363 -21.481  21.045  1.00  0.00    -0.269 N 
ATOM     12  C   UNL     1       5.039 -22.437  21.970  1.00  0.00     0.119 A 
ATOM     13  N   UNL     1       6.077 -21.966  20.014  1.00  0.00    -0.181 NA
ATOM     14  C   UNL     1       6.180 -23.268  20.289  1.00  0.00     0.145 A 
BRANCH  11  15
ATOM     15  C   UNL     1       5.008 -20.060  21.098  1.00  0.00     0.107 C 
BRANCH  15  16
ATOM     16  C   UNL     1       3.711 -19.819  20.300  1.00  0.00     0.024 C 
ATOM     17  C   UNL     1       3.897 -18.894  19.105  1.00  0.00     0.006 C 
ENDBRANCH  15  16
BRANCH  15  18
ATOM     18  C   UNL     1       4.922 -19.542  22.548  1.00  0.00     0.024 C 
ATOM     19  C   UNL     1       3.494 -19.259  22.999  1.00  0.00     0.006 C 
ENDBRANCH  15  18
ENDBRANCH  11  15
ENDBRANCH   1  10
BRANCH   3  20
ATOM     20  C   UNL     1       7.575 -26.857  24.298  1.00  0.00     0.040 A 
ATOM     21  C   UNL     1       7.945 -28.094  24.875  1.00  0.00     0.145 A 
ATOM     22  C   UNL     1       8.542 -25.979  24.741  1.00  0.00     0.119 A 
ATOM     23  N   UNL     1       9.048 -28.005  25.625  1.00  0.00    -0.181 NA
ATOM     24  N   UNL     1       9.391 -26.708  25.528  1.00  0.00    -0.270 N 
BRANCH  24  25
ATOM     25  C   UNL     1      10.571 -26.217  26.215  1.00  0.00     0.163 C 
BRANCH  25  26
ATOM     26  C   UNL     1      11.863 -26.803  25.641  1.00  0.00     0.075 C 
ATOM     27  C   UNL     1      13.135 -26.214  26.241  1.00  0.00     0.022 C 
ATOM     28  N   UNL     1      12.012 -28.249  25.924  1.00  0.00    -0.312 NA
ATOM     29  C   UNL     1      14.192 -27.284  26.006  1.00  0.00     0.017 C 
ATOM     30  C   UNL     1      13.419 -28.535  25.618  1.00  0.00     0.081 C 
ATOM     31  H   UNL     1      11.387 -28.805  25.323  1.00  0.00     0.123 HD
ENDBRANCH  25  26
ENDBRANCH  24  25
ENDBRANCH   3  20
TORSDOF 7
