MODEL 1
REMARK VINA RESULT:   -10.681      0.000      0.000
REMARK INTER + INTRA:         -16.480
REMARK INTER:                 -15.052
REMARK INTRA:                  -1.428
REMARK UNBOUND:                -1.428
REMARK SMILES N=C(N)c1ccc2[nH]cc([C@H](Cc3ccccc3)C(=O)Nc3ccc(-n4cnc5ccccc54)cc3F)c2c1
REMARK SMILES IDX 11 1 10 2 4 3 5 4 39 5 6 6 38 7 7 8 8 9 9 10 2 12 1 13 3 14
REMARK SMILES IDX 12 18 13 19 14 20 18 21 15 22 17 23 16 24 19 25 20 26 21 27
REMARK SMILES IDX 22 29 23 30 36 31 24 32 35 33 25 34 37 35 26 36 27 37 34 38
REMARK SMILES IDX 28 39 33 40 29 41 32 42 30 43 31 44
REMARK H PARENT 8 11 1 15 3 16 3 17 21 28
ROOT
ATOM      1  C   UNL     1      -2.967  12.671  24.264  1.00  0.00     0.115 C 
ENDROOT
BRANCH   1   2
ATOM      2  C   UNL     1      -1.763  11.769  24.436  1.00  0.00    -0.010 A 
ATOM      3  C   UNL     1      -1.923   9.060  27.141  1.00  0.00     0.017 A 
ATOM      4  C   UNL     1      -0.639   8.555  26.923  1.00  0.00     0.014 A 
ATOM      5  C   UNL     1      -2.416  10.126  26.374  1.00  0.00     0.022 A 
ATOM      6  C   UNL     1       0.188   9.102  25.937  1.00  0.00     0.027 A 
ATOM      7  C   UNL     1      -1.597  10.695  25.375  1.00  0.00     0.004 A 
ATOM      8  C   UNL     1      -0.320  10.167  25.181  1.00  0.00     0.046 A 
ATOM      9  N   UNL     1       0.269  10.885  24.167  1.00  0.00    -0.361 N 
ATOM     10  C   UNL     1      -0.591  11.843  23.706  1.00  0.00     0.088 A 
ATOM     11  H   UNL     1       1.206  10.727  23.821  1.00  0.00     0.166 HD
BRANCH   3  12
ATOM     12  C   UNL     1      -2.779   8.452  28.195  1.00  0.00     0.122 C 
ATOM     13  N   UNL     1      -3.606   9.151  28.906  1.00  0.00    -0.284 NA
ATOM     14  N   UNL     1      -2.721   7.121  28.442  1.00  0.00    -0.384 N 
ATOM     15  H   UNL     1      -3.554  10.144  28.663  1.00  0.00     0.189 HD
ATOM     16  H   UNL     1      -3.346   6.762  29.153  1.00  0.00     0.158 HD
ATOM     17  H   UNL     1      -2.212   6.469  27.863  1.00  0.00     0.158 HD
ENDBRANCH   3  12
ENDBRANCH   1   2
BRANCH   1  18
ATOM     18  C   UNL     1      -4.104  12.348  25.253  1.00  0.00     0.054 C 
BRANCH  18  19
ATOM     19  C   UNL     1      -5.123  13.459  25.378  1.00  0.00    -0.047 A 
ATOM     20  C   UNL     1      -4.880  14.557  26.215  1.00  0.00     0.004 A 
ATOM     21  C   UNL     1      -6.315  13.415  24.644  1.00  0.00     0.004 A 
ATOM     22  C   UNL     1      -5.815  15.587  26.320  1.00  0.00     0.000 A 
ATOM     23  C   UNL     1      -7.250  14.446  24.751  1.00  0.00     0.000 A 
ATOM     24  C   UNL     1      -7.000  15.530  25.589  1.00  0.00     0.000 A 
ENDBRANCH  18  19
ENDBRANCH   1  18
BRANCH   1  25
ATOM     25  C   UNL     1      -3.478  12.617  22.814  1.00  0.00     0.232 C 
ATOM     26  O   UNL     1      -3.282  13.533  22.019  1.00  0.00    -0.274 OA
ATOM     27  N   UNL     1      -4.136  11.433  22.522  1.00  0.00    -0.323 N 
ATOM     28  H   UNL     1      -4.246  10.767  23.284  1.00  0.00     0.170 HD
BRANCH  27  29
ATOM     29  C   UNL     1      -4.719  11.041  21.300  1.00  0.00     0.077 A 
ATOM     30  C   UNL     1      -6.016  11.359  20.904  1.00  0.00     0.031 A 
ATOM     31  C   UNL     1      -3.930  10.282  20.429  1.00  0.00     0.148 A 
ATOM     32  C   UNL     1      -6.506  10.924  19.662  1.00  0.00     0.029 A 
ATOM     33  C   UNL     1      -4.402   9.845  19.192  1.00  0.00     0.068 A 
ATOM     34  C   UNL     1      -5.708  10.154  18.801  1.00  0.00     0.050 A 
ATOM     35  F   UNL     1      -2.668   9.982  20.778  1.00  0.00    -0.205 F 
BRANCH  34  36
ATOM     36  N   UNL     1      -6.215   9.737  17.535  1.00  0.00    -0.299 N 
ATOM     37  C   UNL     1      -7.311   8.915  17.354  1.00  0.00     0.205 A 
ATOM     38  C   UNL     1      -5.767  10.063  16.257  1.00  0.00     0.073 A 
ATOM     39  N   UNL     1      -7.636   8.759  16.092  1.00  0.00    -0.236 NA
ATOM     40  C   UNL     1      -4.653  10.756  15.748  1.00  0.00     0.029 A 
ATOM     41  C   UNL     1      -6.693   9.461  15.399  1.00  0.00     0.089 A 
ATOM     42  C   UNL     1      -4.538  10.889  14.357  1.00  0.00     0.002 A 
ATOM     43  C   UNL     1      -6.562   9.607  14.008  1.00  0.00     0.030 A 
ATOM     44  C   UNL     1      -5.483  10.334  13.498  1.00  0.00     0.002 A 
ENDBRANCH  34  36
ENDBRANCH  27  29
ENDBRANCH   1  25
TORSDOF 7
ENDMDL
MODEL 2
REMARK VINA RESULT:   -10.594      3.091      8.362
REMARK INTER + INTRA:         -16.356
REMARK INTER:                 -14.708
REMARK INTRA:                  -1.648
REMARK UNBOUND:                -1.428
REMARK SMILES N=C(N)c1ccc2[nH]cc([C@H](Cc3ccccc3)C(=O)Nc3ccc(-n4cnc5ccccc54)cc3F)c2c1
REMARK SMILES IDX 11 1 10 2 4 3 5 4 39 5 6 6 38 7 7 8 8 9 9 10 2 12 1 13 3 14
REMARK SMILES IDX 12 18 13 19 14 20 18 21 15 22 17 23 16 24 19 25 20 26 21 27
REMARK SMILES IDX 22 29 23 30 36 31 24 32 35 33 25 34 37 35 26 36 27 37 34 38
REMARK SMILES IDX 28 39 33 40 29 41 32 42 30 43 31 44
REMARK H PARENT 8 11 1 15 3 16 3 17 21 28
ROOT
ATOM      1  C   UNL     1      -4.668  10.487  21.124  1.00  0.00     0.115 C 
ENDROOT
BRANCH   1   2
ATOM      2  C   UNL     1      -3.244  10.969  21.304  1.00  0.00    -0.010 A 
ATOM      3  C   UNL     1      -1.594  10.458  24.724  1.00  0.00     0.017 A 
ATOM      4  C   UNL     1      -0.378  11.062  24.394  1.00  0.00     0.014 A 
ATOM      5  C   UNL     1      -2.627  10.361  23.780  1.00  0.00     0.022 A 
ATOM      6  C   UNL     1      -0.162  11.586  23.116  1.00  0.00     0.027 A 
ATOM      7  C   UNL     1      -2.431  10.886  22.484  1.00  0.00     0.004 A 
ATOM      8  C   UNL     1      -1.204  11.481  22.186  1.00  0.00     0.046 A 
ATOM      9  N   UNL     1      -1.264  11.908  20.881  1.00  0.00    -0.361 N 
ATOM     10  C   UNL     1      -2.480  11.599  20.337  1.00  0.00     0.088 A 
ATOM     11  H   UNL     1      -0.515  12.387  20.399  1.00  0.00     0.166 HD
BRANCH   3  12
ATOM     12  C   UNL     1      -1.790   9.907  26.091  1.00  0.00     0.122 C 
ATOM     13  N   UNL     1      -2.917  10.005  26.724  1.00  0.00    -0.284 NA
ATOM     14  N   UNL     1      -0.777   9.268  26.725  1.00  0.00    -0.384 N 
ATOM     15  H   UNL     1      -3.605  10.526  26.174  1.00  0.00     0.189 HD
ATOM     16  H   UNL     1      -0.980   8.892  27.642  1.00  0.00     0.158 HD
ATOM     17  H   UNL     1       0.093   9.023  26.276  1.00  0.00     0.158 HD
ENDBRANCH   3  12
ENDBRANCH   1   2
BRANCH   1  18
ATOM     18  C   UNL     1      -5.044  10.268  19.645  1.00  0.00     0.054 C 
BRANCH  18  19
ATOM     19  C   UNL     1      -5.435   8.841  19.331  1.00  0.00    -0.047 A 
ATOM     20  C   UNL     1      -6.743   8.393  19.567  1.00  0.00     0.004 A 
ATOM     21  C   UNL     1      -4.501   7.952  18.784  1.00  0.00     0.004 A 
ATOM     22  C   UNL     1      -7.106   7.080  19.266  1.00  0.00     0.000 A 
ATOM     23  C   UNL     1      -4.866   6.638  18.485  1.00  0.00     0.000 A 
ATOM     24  C   UNL     1      -6.167   6.203  18.726  1.00  0.00     0.000 A 
ENDBRANCH  18  19
ENDBRANCH   1  18
BRANCH   1  25
ATOM     25  C   UNL     1      -5.655  11.458  21.796  1.00  0.00     0.232 C 
ATOM     26  O   UNL     1      -6.868  11.266  21.784  1.00  0.00    -0.274 OA
ATOM     27  N   UNL     1      -5.019  12.521  22.419  1.00  0.00    -0.323 N 
ATOM     28  H   UNL     1      -4.007  12.568  22.332  1.00  0.00     0.170 HD
BRANCH  27  29
ATOM     29  C   UNL     1      -5.606  13.584  23.136  1.00  0.00     0.077 A 
ATOM     30  C   UNL     1      -6.103  14.749  22.556  1.00  0.00     0.031 A 
ATOM     31  C   UNL     1      -5.692  13.449  24.525  1.00  0.00     0.148 A 
ATOM     32  C   UNL     1      -6.672  15.753  23.356  1.00  0.00     0.029 A 
ATOM     33  C   UNL     1      -6.257  14.436  25.331  1.00  0.00     0.068 A 
ATOM     34  C   UNL     1      -6.744  15.610  24.751  1.00  0.00     0.050 A 
ATOM     35  F   UNL     1      -5.241  12.325  25.106  1.00  0.00    -0.205 F 
BRANCH  34  36
ATOM     36  N   UNL     1      -7.343  16.632  25.546  1.00  0.00    -0.299 N 
ATOM     37  C   UNL     1      -6.662  17.453  26.424  1.00  0.00     0.205 A 
ATOM     38  C   UNL     1      -8.675  17.036  25.600  1.00  0.00     0.073 A 
ATOM     39  N   UNL     1      -7.422  18.376  26.962  1.00  0.00    -0.236 NA
ATOM     40  C   UNL     1      -9.877  16.553  25.051  1.00  0.00     0.029 A 
ATOM     41  C   UNL     1      -8.671  18.135  26.464  1.00  0.00     0.089 A 
ATOM     42  C   UNL     1     -11.059  17.249  25.335  1.00  0.00     0.002 A 
ATOM     43  C   UNL     1      -9.865  18.822  26.736  1.00  0.00     0.030 A 
ATOM     44  C   UNL     1     -11.055  18.374  26.156  1.00  0.00     0.002 A 
ENDBRANCH  34  36
ENDBRANCH  27  29
ENDBRANCH   1  25
TORSDOF 7
ENDMDL
MODEL 3
REMARK VINA RESULT:   -10.313      3.125      7.991
REMARK INTER + INTRA:         -15.961
REMARK INTER:                 -14.497
REMARK INTRA:                  -1.464
REMARK UNBOUND:                -1.428
REMARK SMILES N=C(N)c1ccc2[nH]cc([C@H](Cc3ccccc3)C(=O)Nc3ccc(-n4cnc5ccccc54)cc3F)c2c1
REMARK SMILES IDX 11 1 10 2 4 3 5 4 39 5 6 6 38 7 7 8 8 9 9 10 2 12 1 13 3 14
REMARK SMILES IDX 12 18 13 19 14 20 18 21 15 22 17 23 16 24 19 25 20 26 21 27
REMARK SMILES IDX 22 29 23 30 36 31 24 32 35 33 25 34 37 35 26 36 27 37 34 38
REMARK SMILES IDX 28 39 33 40 29 41 32 42 30 43 31 44
REMARK H PARENT 8 11 1 15 3 16 3 17 21 28
ROOT
ATOM      1  C   UNL     1      -4.135  10.409  20.670  1.00  0.00     0.115 C 
ENDROOT
BRANCH   1   2
ATOM      2  C   UNL     1      -2.767  10.950  21.029  1.00  0.00    -0.010 A 
ATOM      3  C   UNL     1      -1.572  10.551  24.647  1.00  0.00     0.017 A 
ATOM      4  C   UNL     1      -0.346  11.197  24.472  1.00  0.00     0.014 A 
ATOM      5  C   UNL     1      -2.465  10.400  23.576  1.00  0.00     0.022 A 
ATOM      6  C   UNL     1       0.020  11.712  23.224  1.00  0.00     0.027 A 
ATOM      7  C   UNL     1      -2.117  10.915  22.308  1.00  0.00     0.004 A 
ATOM      8  C   UNL     1      -0.884  11.554  22.166  1.00  0.00     0.046 A 
ATOM      9  N   UNL     1      -0.784  11.961  20.856  1.00  0.00    -0.361 N 
ATOM     10  C   UNL     1      -1.905  11.596  20.162  1.00  0.00     0.088 A 
ATOM     11  H   UNL     1       0.003  12.463  20.470  1.00  0.00     0.166 HD
BRANCH   3  12
ATOM     12  C   UNL     1      -1.929  10.010  25.986  1.00  0.00     0.122 C 
ATOM     13  N   UNL     1      -3.104  10.169  26.508  1.00  0.00    -0.284 NA
ATOM     14  N   UNL     1      -1.017   9.316  26.711  1.00  0.00    -0.384 N 
ATOM     15  H   UNL     1      -3.707  10.728  25.898  1.00  0.00     0.189 HD
ATOM     16  H   UNL     1      -1.327   8.951  27.603  1.00  0.00     0.158 HD
ATOM     17  H   UNL     1      -0.123   9.025  26.347  1.00  0.00     0.158 HD
ENDBRANCH   3  12
ENDBRANCH   1   2
BRANCH   1  18
ATOM     18  C   UNL     1      -4.190   9.815  19.249  1.00  0.00     0.054 C 
BRANCH  18  19
ATOM     19  C   UNL     1      -5.042   8.569  19.153  1.00  0.00    -0.047 A 
ATOM     20  C   UNL     1      -4.557   7.423  18.507  1.00  0.00     0.004 A 
ATOM     21  C   UNL     1      -6.320   8.536  19.724  1.00  0.00     0.004 A 
ATOM     22  C   UNL     1      -5.338   6.270  18.430  1.00  0.00     0.000 A 
ATOM     23  C   UNL     1      -7.102   7.383  19.645  1.00  0.00     0.000 A 
ATOM     24  C   UNL     1      -6.611   6.251  18.998  1.00  0.00     0.000 A 
ENDBRANCH  18  19
ENDBRANCH   1  18
BRANCH   1  25
ATOM     25  C   UNL     1      -5.208  11.499  20.844  1.00  0.00     0.232 C 
ATOM     26  O   UNL     1      -5.780  12.010  19.884  1.00  0.00    -0.274 OA
ATOM     27  N   UNL     1      -5.457  11.797  22.175  1.00  0.00    -0.323 N 
ATOM     28  H   UNL     1      -4.893  11.312  22.869  1.00  0.00     0.170 HD
BRANCH  27  29
ATOM     29  C   UNL     1      -6.377  12.729  22.698  1.00  0.00     0.077 A 
ATOM     30  C   UNL     1      -6.102  14.078  22.909  1.00  0.00     0.031 A 
ATOM     31  C   UNL     1      -7.652  12.256  23.024  1.00  0.00     0.148 A 
ATOM     32  C   UNL     1      -7.088  14.929  23.434  1.00  0.00     0.029 A 
ATOM     33  C   UNL     1      -8.641  13.089  23.544  1.00  0.00     0.068 A 
ATOM     34  C   UNL     1      -8.361  14.440  23.766  1.00  0.00     0.050 A 
ATOM     35  F   UNL     1      -7.949  10.963  22.808  1.00  0.00    -0.205 F 
BRANCH  34  36
ATOM     36  N   UNL     1      -9.356  15.324  24.281  1.00  0.00    -0.299 N 
ATOM     37  C   UNL     1     -10.707  15.241  24.004  1.00  0.00     0.205 A 
ATOM     38  C   UNL     1      -9.211  16.398  25.156  1.00  0.00     0.073 A 
ATOM     39  N   UNL     1     -11.426  16.108  24.677  1.00  0.00    -0.236 NA
ATOM     40  C   UNL     1      -8.111  17.071  25.720  1.00  0.00     0.029 A 
ATOM     41  C   UNL     1     -10.518  16.832  25.395  1.00  0.00     0.089 A 
ATOM     42  C   UNL     1      -8.366  18.141  26.587  1.00  0.00     0.002 A 
ATOM     43  C   UNL     1     -10.755  17.906  26.268  1.00  0.00     0.030 A 
ATOM     44  C   UNL     1      -9.668  18.548  26.868  1.00  0.00     0.002 A 
ENDBRANCH  34  36
ENDBRANCH  27  29
ENDBRANCH   1  25
TORSDOF 7
ENDMDL
MODEL 4
REMARK VINA RESULT:   -10.308      1.322      1.738
REMARK INTER + INTRA:         -15.954
REMARK INTER:                 -14.383
REMARK INTRA:                  -1.572
REMARK UNBOUND:                -1.428
REMARK SMILES N=C(N)c1ccc2[nH]cc([C@H](Cc3ccccc3)C(=O)Nc3ccc(-n4cnc5ccccc54)cc3F)c2c1
REMARK SMILES IDX 11 1 10 2 4 3 5 4 39 5 6 6 38 7 7 8 8 9 9 10 2 12 1 13 3 14
REMARK SMILES IDX 12 18 13 19 14 20 18 21 15 22 17 23 16 24 19 25 20 26 21 27
REMARK SMILES IDX 22 29 23 30 36 31 24 32 35 33 25 34 37 35 26 36 27 37 34 38
REMARK SMILES IDX 28 39 33 40 29 41 32 42 30 43 31 44
REMARK H PARENT 8 11 1 15 3 16 3 17 21 28
ROOT
ATOM      1  C   UNL     1      -2.937  12.644  24.162  1.00  0.00     0.115 C 
ENDROOT
BRANCH   1   2
ATOM      2  C   UNL     1      -1.691  11.800  24.327  1.00  0.00    -0.010 A 
ATOM      3  C   UNL     1      -1.679   9.140  27.085  1.00  0.00     0.017 A 
ATOM      4  C   UNL     1      -0.377   8.689  26.851  1.00  0.00     0.014 A 
ATOM      5  C   UNL     1      -2.233  10.168  26.308  1.00  0.00     0.022 A 
ATOM      6  C   UNL     1       0.405   9.253  25.839  1.00  0.00     0.027 A 
ATOM      7  C   UNL     1      -1.460  10.754  25.282  1.00  0.00     0.004 A 
ATOM      8  C   UNL     1      -0.163  10.279  25.074  1.00  0.00     0.046 A 
ATOM      9  N   UNL     1       0.373  11.003  24.035  1.00  0.00    -0.361 N 
ATOM     10  C   UNL     1      -0.537  11.913  23.572  1.00  0.00     0.088 A 
ATOM     11  H   UNL     1       1.310  10.880  23.674  1.00  0.00     0.166 HD
BRANCH   3  12
ATOM     12  C   UNL     1      -2.486   8.515  28.166  1.00  0.00     0.122 C 
ATOM     13  N   UNL     1      -3.595   9.033  28.592  1.00  0.00    -0.284 NA
ATOM     14  N   UNL     1      -2.080   7.360  28.745  1.00  0.00    -0.384 N 
ATOM     15  H   UNL     1      -3.799   9.915  28.113  1.00  0.00     0.189 HD
ATOM     16  H   UNL     1      -2.685   6.970  29.457  1.00  0.00     0.158 HD
ATOM     17  H   UNL     1      -1.307   6.808  28.404  1.00  0.00     0.158 HD
ENDBRANCH   3  12
ENDBRANCH   1   2
BRANCH   1  18
ATOM     18  C   UNL     1      -3.982  12.393  25.267  1.00  0.00     0.054 C 
BRANCH  18  19
ATOM     19  C   UNL     1      -4.973  13.525  25.423  1.00  0.00    -0.047 A 
ATOM     20  C   UNL     1      -6.211  13.482  24.765  1.00  0.00     0.004 A 
ATOM     21  C   UNL     1      -4.676  14.622  26.240  1.00  0.00     0.004 A 
ATOM     22  C   UNL     1      -7.130  14.521  24.920  1.00  0.00     0.000 A 
ATOM     23  C   UNL     1      -5.595  15.661  26.392  1.00  0.00     0.000 A 
ATOM     24  C   UNL     1      -6.821  15.610  25.732  1.00  0.00     0.000 A 
ENDBRANCH  18  19
ENDBRANCH   1  18
BRANCH   1  25
ATOM     25  C   UNL     1      -3.556  12.425  22.770  1.00  0.00     0.232 C 
ATOM     26  O   UNL     1      -3.589  13.315  21.924  1.00  0.00    -0.274 OA
ATOM     27  N   UNL     1      -4.026  11.133  22.591  1.00  0.00    -0.323 N 
ATOM     28  H   UNL     1      -3.954  10.502  23.386  1.00  0.00     0.170 HD
BRANCH  27  29
ATOM     29  C   UNL     1      -4.637  10.583  21.446  1.00  0.00     0.077 A 
ATOM     30  C   UNL     1      -3.967   9.862  20.461  1.00  0.00     0.031 A 
ATOM     31  C   UNL     1      -6.014  10.778  21.300  1.00  0.00     0.148 A 
ATOM     32  C   UNL     1      -4.666   9.350  19.356  1.00  0.00     0.029 A 
ATOM     33  C   UNL     1      -6.722  10.274  20.210  1.00  0.00     0.068 A 
ATOM     34  C   UNL     1      -6.047   9.561  19.215  1.00  0.00     0.050 A 
ATOM     35  F   UNL     1      -6.688  11.450  22.248  1.00  0.00    -0.205 F 
BRANCH  34  36
ATOM     36  N   UNL     1      -6.745   9.018  18.096  1.00  0.00    -0.299 N 
ATOM     37  C   UNL     1      -7.064   7.683  17.934  1.00  0.00     0.205 A 
ATOM     38  C   UNL     1      -7.263   9.672  16.981  1.00  0.00     0.073 A 
ATOM     39  N   UNL     1      -7.794   7.453  16.869  1.00  0.00    -0.236 NA
ATOM     40  C   UNL     1      -7.191  10.987  16.485  1.00  0.00     0.029 A 
ATOM     41  C   UNL     1      -7.928   8.670  16.267  1.00  0.00     0.089 A 
ATOM     42  C   UNL     1      -7.867  11.281  15.293  1.00  0.00     0.002 A 
ATOM     43  C   UNL     1      -8.601   8.984  15.075  1.00  0.00     0.030 A 
ATOM     44  C   UNL     1      -8.571  10.299  14.602  1.00  0.00     0.002 A 
ENDBRANCH  34  36
ENDBRANCH  27  29
ENDBRANCH   1  25
TORSDOF 7
ENDMDL
MODEL 5
REMARK VINA RESULT:    -9.990      2.067      5.263
REMARK INTER + INTRA:         -15.506
REMARK INTER:                 -13.558
REMARK INTRA:                  -1.948
REMARK UNBOUND:                -1.428
REMARK SMILES N=C(N)c1ccc2[nH]cc([C@H](Cc3ccccc3)C(=O)Nc3ccc(-n4cnc5ccccc54)cc3F)c2c1
REMARK SMILES IDX 11 1 10 2 4 3 5 4 39 5 6 6 38 7 7 8 8 9 9 10 2 12 1 13 3 14
REMARK SMILES IDX 12 18 13 19 14 20 18 21 15 22 17 23 16 24 19 25 20 26 21 27
REMARK SMILES IDX 22 29 23 30 36 31 24 32 35 33 25 34 37 35 26 36 27 37 34 38
REMARK SMILES IDX 28 39 33 40 29 41 32 42 30 43 31 44
REMARK H PARENT 8 11 1 15 3 16 3 17 21 28
ROOT
ATOM      1  C   UNL     1      -3.559  11.930  24.182  1.00  0.00     0.115 C 
ENDROOT
BRANCH   1   2
ATOM      2  C   UNL     1      -4.240  13.124  24.816  1.00  0.00    -0.010 A 
ATOM      3  C   UNL     1      -7.991  13.593  24.196  1.00  0.00     0.017 A 
ATOM      4  C   UNL     1      -8.117  14.776  24.928  1.00  0.00     0.014 A 
ATOM      5  C   UNL     1      -6.753  12.943  24.088  1.00  0.00     0.022 A 
ATOM      6  C   UNL     1      -7.011  15.343  25.568  1.00  0.00     0.027 A 
ATOM      7  C   UNL     1      -5.622  13.499  24.724  1.00  0.00     0.004 A 
ATOM      8  C   UNL     1      -5.782  14.682  25.449  1.00  0.00     0.046 A 
ATOM      9  N   UNL     1      -4.551  15.014  25.964  1.00  0.00    -0.361 N 
ATOM     10  C   UNL     1      -3.619  14.082  25.598  1.00  0.00     0.088 A 
ATOM     11  H   UNL     1      -4.366  15.834  26.525  1.00  0.00     0.166 HD
BRANCH   3  12
ATOM     12  C   UNL     1      -9.189  13.013  23.531  1.00  0.00     0.122 C 
ATOM     13  N   UNL     1     -10.017  12.233  24.150  1.00  0.00    -0.284 NA
ATOM     14  N   UNL     1      -9.456  13.295  22.232  1.00  0.00    -0.384 N 
ATOM     15  H   UNL     1      -9.713  12.060  25.112  1.00  0.00     0.189 HD
ATOM     16  H   UNL     1     -10.299  12.892  21.843  1.00  0.00     0.158 HD
ATOM     17  H   UNL     1      -8.953  13.988  21.699  1.00  0.00     0.158 HD
ENDBRANCH   3  12
ENDBRANCH   1   2
BRANCH   1  18
ATOM     18  C   UNL     1      -2.059  11.843  24.525  1.00  0.00     0.054 C 
BRANCH  18  19
ATOM     19  C   UNL     1      -1.710  10.655  25.393  1.00  0.00    -0.047 A 
ATOM     20  C   UNL     1      -0.578   9.877  25.114  1.00  0.00     0.004 A 
ATOM     21  C   UNL     1      -2.504  10.326  26.499  1.00  0.00     0.004 A 
ATOM     22  C   UNL     1      -0.250   8.788  25.923  1.00  0.00     0.000 A 
ATOM     23  C   UNL     1      -2.176   9.235  27.307  1.00  0.00     0.000 A 
ATOM     24  C   UNL     1      -1.050   8.467  27.018  1.00  0.00     0.000 A 
ENDBRANCH  18  19
ENDBRANCH   1  18
BRANCH   1  25
ATOM     25  C   UNL     1      -3.768  11.938  22.658  1.00  0.00     0.232 C 
ATOM     26  O   UNL     1      -3.320  12.832  21.943  1.00  0.00    -0.274 OA
ATOM     27  N   UNL     1      -4.473  10.833  22.208  1.00  0.00    -0.323 N 
ATOM     28  H   UNL     1      -4.804  10.179  22.913  1.00  0.00     0.170 HD
BRANCH  27  29
ATOM     29  C   UNL     1      -4.832  10.512  20.882  1.00  0.00     0.077 A 
ATOM     30  C   UNL     1      -4.130   9.630  20.064  1.00  0.00     0.031 A 
ATOM     31  C   UNL     1      -5.975  11.127  20.363  1.00  0.00     0.148 A 
ATOM     32  C   UNL     1      -4.570   9.373  18.755  1.00  0.00     0.029 A 
ATOM     33  C   UNL     1      -6.425  10.880  19.066  1.00  0.00     0.068 A 
ATOM     34  C   UNL     1      -5.714  10.004  18.242  1.00  0.00     0.050 A 
ATOM     35  F   UNL     1      -6.683  11.964  21.140  1.00  0.00    -0.205 F 
BRANCH  34  36
ATOM     36  N   UNL     1      -6.157   9.717  16.916  1.00  0.00    -0.299 N 
ATOM     37  C   UNL     1      -7.267   8.958  16.600  1.00  0.00     0.205 A 
ATOM     38  C   UNL     1      -5.620  10.134  15.700  1.00  0.00     0.073 A 
ATOM     39  N   UNL     1      -7.519   8.923  15.313  1.00  0.00    -0.236 NA
ATOM     40  C   UNL     1      -4.454  10.823  15.320  1.00  0.00     0.029 A 
ATOM     41  C   UNL     1      -6.512   9.645  14.741  1.00  0.00     0.089 A 
ATOM     42  C   UNL     1      -4.249  11.071  13.956  1.00  0.00     0.002 A 
ATOM     43  C   UNL     1      -6.291   9.904  13.378  1.00  0.00     0.030 A 
ATOM     44  C   UNL     1      -5.158  10.629  12.998  1.00  0.00     0.002 A 
ENDBRANCH  34  36
ENDBRANCH  27  29
ENDBRANCH   1  25
TORSDOF 7
ENDMDL
MODEL 6
REMARK VINA RESULT:    -9.624      4.520      7.408
REMARK INTER + INTRA:         -14.990
REMARK INTER:                 -13.136
REMARK INTRA:                  -1.854
REMARK UNBOUND:                -1.428
REMARK SMILES N=C(N)c1ccc2[nH]cc([C@H](Cc3ccccc3)C(=O)Nc3ccc(-n4cnc5ccccc54)cc3F)c2c1
REMARK SMILES IDX 11 1 10 2 4 3 5 4 39 5 6 6 38 7 7 8 8 9 9 10 2 12 1 13 3 14
REMARK SMILES IDX 12 18 13 19 14 20 18 21 15 22 17 23 16 24 19 25 20 26 21 27
REMARK SMILES IDX 22 29 23 30 36 31 24 32 35 33 25 34 37 35 26 36 27 37 34 38
REMARK SMILES IDX 28 39 33 40 29 41 32 42 30 43 31 44
REMARK H PARENT 8 11 1 15 3 16 3 17 21 28
ROOT
ATOM      1  C   UNL     1      -5.278  10.896  19.787  1.00  0.00     0.115 C 
ENDROOT
BRANCH   1   2
ATOM      2  C   UNL     1      -5.223  11.417  21.208  1.00  0.00    -0.010 A 
ATOM      3  C   UNL     1      -1.796  11.638  22.907  1.00  0.00     0.017 A 
ATOM      4  C   UNL     1      -2.267  12.118  24.131  1.00  0.00     0.014 A 
ATOM      5  C   UNL     1      -2.680  11.370  21.852  1.00  0.00     0.022 A 
ATOM      6  C   UNL     1      -3.632  12.342  24.336  1.00  0.00     0.027 A 
ATOM      7  C   UNL     1      -4.063  11.586  22.037  1.00  0.00     0.004 A 
ATOM      8  C   UNL     1      -4.501  12.068  23.272  1.00  0.00     0.046 A 
ATOM      9  N   UNL     1      -5.869  12.191  23.200  1.00  0.00    -0.361 N 
ATOM     10  C   UNL     1      -6.313  11.811  21.963  1.00  0.00     0.088 A 
ATOM     11  H   UNL     1      -6.457  12.509  23.958  1.00  0.00     0.166 HD
BRANCH   3  12
ATOM     12  C   UNL     1      -0.337  11.415  22.721  1.00  0.00     0.122 C 
ATOM     13  N   UNL     1       0.131  10.446  22.000  1.00  0.00    -0.284 NA
ATOM     14  N   UNL     1       0.563  12.241  23.308  1.00  0.00    -0.384 N 
ATOM     15  H   UNL     1      -0.625   9.866  21.626  1.00  0.00     0.189 HD
ATOM     16  H   UNL     1       1.541  12.054  23.124  1.00  0.00     0.158 HD
ATOM     17  H   UNL     1       0.309  13.096  23.779  1.00  0.00     0.158 HD
ENDBRANCH   3  12
ENDBRANCH   1   2
BRANCH   1  18
ATOM     18  C   UNL     1      -4.363   9.676  19.561  1.00  0.00     0.054 C 
BRANCH  18  19
ATOM     19  C   UNL     1      -5.125   8.403  19.264  1.00  0.00    -0.047 A 
ATOM     20  C   UNL     1      -6.423   8.220  19.759  1.00  0.00     0.004 A 
ATOM     21  C   UNL     1      -4.550   7.399  18.476  1.00  0.00     0.004 A 
ATOM     22  C   UNL     1      -7.130   7.051  19.475  1.00  0.00     0.000 A 
ATOM     23  C   UNL     1      -5.258   6.229  18.193  1.00  0.00     0.000 A 
ATOM     24  C   UNL     1      -6.546   6.056  18.694  1.00  0.00     0.000 A 
ENDBRANCH  18  19
ENDBRANCH   1  18
BRANCH   1  25
ATOM     25  C   UNL     1      -4.943  12.019  18.790  1.00  0.00     0.232 C 
ATOM     26  O   UNL     1      -5.766  12.871  18.466  1.00  0.00    -0.274 OA
ATOM     27  N   UNL     1      -3.632  11.963  18.342  1.00  0.00    -0.323 N 
ATOM     28  H   UNL     1      -3.064  11.188  18.675  1.00  0.00     0.170 HD
BRANCH  27  29
ATOM     29  C   UNL     1      -2.985  12.831  17.439  1.00  0.00     0.077 A 
ATOM     30  C   UNL     1      -2.345  14.014  17.800  1.00  0.00     0.031 A 
ATOM     31  C   UNL     1      -2.990  12.469  16.088  1.00  0.00     0.148 A 
ATOM     32  C   UNL     1      -1.726  14.813  16.825  1.00  0.00     0.029 A 
ATOM     33  C   UNL     1      -2.378  13.250  15.109  1.00  0.00     0.068 A 
ATOM     34  C   UNL     1      -1.746  14.443  15.470  1.00  0.00     0.050 A 
ATOM     35  F   UNL     1      -3.581  11.321  15.717  1.00  0.00    -0.205 F 
BRANCH  34  36
ATOM     36  N   UNL     1      -1.095  15.257  14.496  1.00  0.00    -0.299 N 
ATOM     37  C   UNL     1      -0.048  14.846  13.695  1.00  0.00     0.205 A 
ATOM     38  C   UNL     1      -1.367  16.572  14.125  1.00  0.00     0.073 A 
ATOM     39  N   UNL     1       0.311  15.746  12.811  1.00  0.00    -0.236 NA
ATOM     40  C   UNL     1      -2.217  17.580  14.614  1.00  0.00     0.029 A 
ATOM     41  C   UNL     1      -0.494  16.821  13.062  1.00  0.00     0.089 A 
ATOM     42  C   UNL     1      -2.219  18.818  13.957  1.00  0.00     0.002 A 
ATOM     43  C   UNL     1      -0.511  18.067  12.414  1.00  0.00     0.030 A 
ATOM     44  C   UNL     1      -1.387  19.057  12.866  1.00  0.00     0.002 A 
ENDBRANCH  34  36
ENDBRANCH  27  29
ENDBRANCH   1  25
TORSDOF 7
ENDMDL
MODEL 7
REMARK VINA RESULT:    -9.451      3.982      9.042
REMARK INTER + INTRA:         -14.746
REMARK INTER:                 -13.032
REMARK INTRA:                  -1.714
REMARK UNBOUND:                -1.428
REMARK SMILES N=C(N)c1ccc2[nH]cc([C@H](Cc3ccccc3)C(=O)Nc3ccc(-n4cnc5ccccc54)cc3F)c2c1
REMARK SMILES IDX 11 1 10 2 4 3 5 4 39 5 6 6 38 7 7 8 8 9 9 10 2 12 1 13 3 14
REMARK SMILES IDX 12 18 13 19 14 20 18 21 15 22 17 23 16 24 19 25 20 26 21 27
REMARK SMILES IDX 22 29 23 30 36 31 24 32 35 33 25 34 37 35 26 36 27 37 34 38
REMARK SMILES IDX 28 39 33 40 29 41 32 42 30 43 31 44
REMARK H PARENT 8 11 1 15 3 16 3 17 21 28
ROOT
ATOM      1  C   UNL     1      -4.220  10.033  20.587  1.00  0.00     0.115 C 
ENDROOT
BRANCH   1   2
ATOM      2  C   UNL     1      -2.823  10.471  20.973  1.00  0.00    -0.010 A 
ATOM      3  C   UNL     1      -1.426  13.649  19.353  1.00  0.00     0.017 A 
ATOM      4  C   UNL     1      -0.179  13.602  19.981  1.00  0.00     0.014 A 
ATOM      5  C   UNL     1      -2.395  12.667  19.604  1.00  0.00     0.022 A 
ATOM      6  C   UNL     1       0.134  12.572  20.874  1.00  0.00     0.027 A 
ATOM      7  C   UNL     1      -2.099  11.617  20.500  1.00  0.00     0.004 A 
ATOM      8  C   UNL     1      -0.845  11.600  21.113  1.00  0.00     0.046 A 
ATOM      9  N   UNL     1      -0.805  10.492  21.927  1.00  0.00    -0.361 N 
ATOM     10  C   UNL     1      -1.989   9.812  21.858  1.00  0.00     0.088 A 
ATOM     11  H   UNL     1      -0.008  10.221  22.488  1.00  0.00     0.166 HD
BRANCH   3  12
ATOM     12  C   UNL     1      -1.728  14.761  18.411  1.00  0.00     0.122 C 
ATOM     13  N   UNL     1      -1.366  14.734  17.168  1.00  0.00    -0.284 NA
ATOM     14  N   UNL     1      -2.410  15.852  18.836  1.00  0.00    -0.384 N 
ATOM     15  H   UNL     1      -0.836  13.885  16.955  1.00  0.00     0.189 HD
ATOM     16  H   UNL     1      -2.608  16.563  18.143  1.00  0.00     0.158 HD
ATOM     17  H   UNL     1      -2.849  15.916  19.742  1.00  0.00     0.158 HD
ENDBRANCH   3  12
ENDBRANCH   1   2
BRANCH   1  18
ATOM     18  C   UNL     1      -4.302   9.496  19.145  1.00  0.00     0.054 C 
BRANCH  18  19
ATOM     19  C   UNL     1      -5.116   8.226  19.024  1.00  0.00    -0.047 A 
ATOM     20  C   UNL     1      -6.445   8.188  19.470  1.00  0.00     0.004 A 
ATOM     21  C   UNL     1      -4.560   7.077  18.449  1.00  0.00     0.004 A 
ATOM     22  C   UNL     1      -7.199   7.021  19.347  1.00  0.00     0.000 A 
ATOM     23  C   UNL     1      -5.315   5.910  18.328  1.00  0.00     0.000 A 
ATOM     24  C   UNL     1      -6.633   5.882  18.777  1.00  0.00     0.000 A 
ENDBRANCH  18  19
ENDBRANCH   1  18
BRANCH   1  25
ATOM     25  C   UNL     1      -5.222  11.183  20.795  1.00  0.00     0.232 C 
ATOM     26  O   UNL     1      -5.804  11.718  19.855  1.00  0.00    -0.274 OA
ATOM     27  N   UNL     1      -5.397  11.505  22.132  1.00  0.00    -0.323 N 
ATOM     28  H   UNL     1      -4.832  10.995  22.807  1.00  0.00     0.170 HD
BRANCH  27  29
ATOM     29  C   UNL     1      -6.240  12.491  22.684  1.00  0.00     0.077 A 
ATOM     30  C   UNL     1      -7.510  12.247  23.200  1.00  0.00     0.031 A 
ATOM     31  C   UNL     1      -5.756  13.802  22.714  1.00  0.00     0.148 A 
ATOM     32  C   UNL     1      -8.275  13.298  23.732  1.00  0.00     0.029 A 
ATOM     33  C   UNL     1      -6.502  14.856  23.241  1.00  0.00     0.068 A 
ATOM     34  C   UNL     1      -7.782  14.613  23.747  1.00  0.00     0.050 A 
ATOM     35  F   UNL     1      -4.523  14.060  22.244  1.00  0.00    -0.205 F 
BRANCH  34  36
ATOM     36  N   UNL     1      -8.564  15.665  24.309  1.00  0.00    -0.299 N 
ATOM     37  C   UNL     1      -9.882  15.927  23.992  1.00  0.00     0.205 A 
ATOM     38  C   UNL     1      -8.209  16.605  25.275  1.00  0.00     0.073 A 
ATOM     39  N   UNL     1     -10.407  16.886  24.717  1.00  0.00    -0.236 NA
ATOM     40  C   UNL     1      -7.009  16.952  25.921  1.00  0.00     0.029 A 
ATOM     41  C   UNL     1      -9.388  17.317  25.516  1.00  0.00     0.089 A 
ATOM     42  C   UNL     1      -7.044  17.984  26.869  1.00  0.00     0.002 A 
ATOM     43  C   UNL     1      -9.405  18.347  26.471  1.00  0.00     0.030 A 
ATOM     44  C   UNL     1      -8.225  18.666  27.150  1.00  0.00     0.002 A 
ENDBRANCH  34  36
ENDBRANCH  27  29
ENDBRANCH   1  25
TORSDOF 7
ENDMDL
MODEL 8
REMARK VINA RESULT:    -9.401      3.901      9.005
REMARK INTER + INTRA:         -14.676
REMARK INTER:                 -13.085
REMARK INTRA:                  -1.591
REMARK UNBOUND:                -1.428
REMARK SMILES N=C(N)c1ccc2[nH]cc([C@H](Cc3ccccc3)C(=O)Nc3ccc(-n4cnc5ccccc54)cc3F)c2c1
REMARK SMILES IDX 11 1 10 2 4 3 5 4 39 5 6 6 38 7 7 8 8 9 9 10 2 12 1 13 3 14
REMARK SMILES IDX 12 18 13 19 14 20 18 21 15 22 17 23 16 24 19 25 20 26 21 27
REMARK SMILES IDX 22 29 23 30 36 31 24 32 35 33 25 34 37 35 26 36 27 37 34 38
REMARK SMILES IDX 28 39 33 40 29 41 32 42 30 43 31 44
REMARK H PARENT 8 11 1 15 3 16 3 17 21 28
ROOT
ATOM      1  C   UNL     1      -3.834  10.555  21.088  1.00  0.00     0.115 C 
ENDROOT
BRANCH   1   2
ATOM      2  C   UNL     1      -2.377  10.805  21.413  1.00  0.00    -0.010 A 
ATOM      3  C   UNL     1      -0.693  13.880  19.869  1.00  0.00     0.017 A 
ATOM      4  C   UNL     1       0.569  13.652  20.422  1.00  0.00     0.014 A 
ATOM      5  C   UNL     1      -1.759  13.006  20.128  1.00  0.00     0.022 A 
ATOM      6  C   UNL     1       0.802  12.547  21.246  1.00  0.00     0.027 A 
ATOM      7  C   UNL     1      -1.546  11.881  20.955  1.00  0.00     0.004 A 
ATOM      8  C   UNL     1      -0.273  11.684  21.493  1.00  0.00     0.046 A 
ATOM      9  N   UNL     1      -0.324  10.537  22.249  1.00  0.00    -0.361 N 
ATOM     10  C   UNL     1      -1.584  10.004  22.217  1.00  0.00     0.088 A 
ATOM     11  H   UNL     1       0.462  10.144  22.750  1.00  0.00     0.166 HD
BRANCH   3  12
ATOM     12  C   UNL     1      -0.908  15.068  19.001  1.00  0.00     0.122 C 
ATOM     13  N   UNL     1      -1.447  14.981  17.826  1.00  0.00    -0.284 NA
ATOM     14  N   UNL     1      -0.544  16.303  19.425  1.00  0.00    -0.384 N 
ATOM     15  H   UNL     1      -1.659  14.008  17.588  1.00  0.00     0.189 HD
ATOM     16  H   UNL     1      -0.739  17.075  18.801  1.00  0.00     0.158 HD
ATOM     17  H   UNL     1      -0.238  16.499  20.367  1.00  0.00     0.158 HD
ENDBRANCH   3  12
ENDBRANCH   1   2
BRANCH   1  18
ATOM     18  C   UNL     1      -4.059  10.157  19.615  1.00  0.00     0.054 C 
BRANCH  18  19
ATOM     19  C   UNL     1      -4.952   8.947  19.452  1.00  0.00    -0.047 A 
ATOM     20  C   UNL     1      -4.520   7.839  18.710  1.00  0.00     0.004 A 
ATOM     21  C   UNL     1      -6.216   8.911  20.054  1.00  0.00     0.004 A 
ATOM     22  C   UNL     1      -5.339   6.718  18.571  1.00  0.00     0.000 A 
ATOM     23  C   UNL     1      -7.035   7.789  19.911  1.00  0.00     0.000 A 
ATOM     24  C   UNL     1      -6.597   6.695  19.170  1.00  0.00     0.000 A 
ENDBRANCH  18  19
ENDBRANCH   1  18
BRANCH   1  25
ATOM     25  C   UNL     1      -4.686  11.783  21.454  1.00  0.00     0.232 C 
ATOM     26  O   UNL     1      -5.454  12.307  20.651  1.00  0.00    -0.274 OA
ATOM     27  N   UNL     1      -4.503  12.189  22.767  1.00  0.00    -0.323 N 
ATOM     28  H   UNL     1      -3.817  11.676  23.316  1.00  0.00     0.170 HD
BRANCH  27  29
ATOM     29  C   UNL     1      -5.125  13.261  23.439  1.00  0.00     0.077 A 
ATOM     30  C   UNL     1      -4.529  14.497  23.676  1.00  0.00     0.031 A 
ATOM     31  C   UNL     1      -6.432  13.061  23.893  1.00  0.00     0.148 A 
ATOM     32  C   UNL     1      -5.232  15.507  24.353  1.00  0.00     0.029 A 
ATOM     33  C   UNL     1      -7.143  14.054  24.565  1.00  0.00     0.068 A 
ATOM     34  C   UNL     1      -6.540  15.290  24.813  1.00  0.00     0.050 A 
ATOM     35  F   UNL     1      -7.037  11.885  23.656  1.00  0.00    -0.205 F 
BRANCH  34  36
ATOM     36  N   UNL     1      -7.247  16.333  25.483  1.00  0.00    -0.299 N 
ATOM     37  C   UNL     1      -6.721  17.131  26.480  1.00  0.00     0.205 A 
ATOM     38  C   UNL     1      -8.550  16.782  25.281  1.00  0.00     0.073 A 
ATOM     39  N   UNL     1      -7.539  18.081  26.866  1.00  0.00    -0.236 NA
ATOM     40  C   UNL     1      -9.639  16.340  24.508  1.00  0.00     0.029 A 
ATOM     41  C   UNL     1      -8.675  17.882  26.135  1.00  0.00     0.089 A 
ATOM     42  C   UNL     1     -10.829  17.077  24.562  1.00  0.00     0.002 A 
ATOM     43  C   UNL     1      -9.875  18.610  26.175  1.00  0.00     0.030 A 
ATOM     44  C   UNL     1     -10.945  18.202  25.374  1.00  0.00     0.002 A 
ENDBRANCH  34  36
ENDBRANCH  27  29
ENDBRANCH   1  25
TORSDOF 7
ENDMDL
MODEL 9
REMARK VINA RESULT:    -9.235      4.096      7.132
REMARK INTER + INTRA:         -14.442
REMARK INTER:                 -12.508
REMARK INTRA:                  -1.935
REMARK UNBOUND:                -1.428
REMARK SMILES N=C(N)c1ccc2[nH]cc([C@H](Cc3ccccc3)C(=O)Nc3ccc(-n4cnc5ccccc54)cc3F)c2c1
REMARK SMILES IDX 11 1 10 2 4 3 5 4 39 5 6 6 38 7 7 8 8 9 9 10 2 12 1 13 3 14
REMARK SMILES IDX 12 18 13 19 14 20 18 21 15 22 17 23 16 24 19 25 20 26 21 27
REMARK SMILES IDX 22 29 23 30 36 31 24 32 35 33 25 34 37 35 26 36 27 37 34 38
REMARK SMILES IDX 28 39 33 40 29 41 32 42 30 43 31 44
REMARK H PARENT 8 11 1 15 3 16 3 17 21 28
ROOT
ATOM      1  C   UNL     1      -2.865  10.875  21.969  1.00  0.00     0.115 C 
ENDROOT
BRANCH   1   2
ATOM      2  C   UNL     1      -4.358  10.718  21.777  1.00  0.00    -0.010 A 
ATOM      3  C   UNL     1      -5.574   8.230  19.129  1.00  0.00     0.017 A 
ATOM      4  C   UNL     1      -6.937   8.467  19.316  1.00  0.00     0.014 A 
ATOM      5  C   UNL     1      -4.614   8.913  19.891  1.00  0.00     0.022 A 
ATOM      6  C   UNL     1      -7.380   9.393  20.266  1.00  0.00     0.027 A 
ATOM      7  C   UNL     1      -5.038   9.854  20.854  1.00  0.00     0.004 A 
ATOM      8  C   UNL     1      -6.408  10.067  21.017  1.00  0.00     0.046 A 
ATOM      9  N   UNL     1      -6.559  11.018  21.998  1.00  0.00    -0.361 N 
ATOM     10  C   UNL     1      -5.336  11.410  22.469  1.00  0.00     0.088 A 
ATOM     11  H   UNL     1      -7.448  11.377  22.318  1.00  0.00     0.166 HD
BRANCH   3  12
ATOM     12  C   UNL     1      -5.137   7.234  18.114  1.00  0.00     0.122 C 
ATOM     13  N   UNL     1      -4.769   6.034  18.433  1.00  0.00    -0.284 NA
ATOM     14  N   UNL     1      -5.116   7.560  16.798  1.00  0.00    -0.384 N 
ATOM     15  H   UNL     1      -4.793   5.897  19.447  1.00  0.00     0.189 HD
ATOM     16  H   UNL     1      -4.834   6.832  16.154  1.00  0.00     0.158 HD
ATOM     17  H   UNL     1      -5.502   8.417  16.431  1.00  0.00     0.158 HD
ENDBRANCH   3  12
ENDBRANCH   1   2
BRANCH   1  18
ATOM     18  C   UNL     1      -2.505  11.653  23.251  1.00  0.00     0.054 C 
BRANCH  18  19
ATOM     19  C   UNL     1      -1.965  10.771  24.355  1.00  0.00    -0.047 A 
ATOM     20  C   UNL     1      -2.649  10.657  25.574  1.00  0.00     0.004 A 
ATOM     21  C   UNL     1      -0.784  10.042  24.168  1.00  0.00     0.004 A 
ATOM     22  C   UNL     1      -2.157   9.833  26.587  1.00  0.00     0.000 A 
ATOM     23  C   UNL     1      -0.292   9.220  25.183  1.00  0.00     0.000 A 
ATOM     24  C   UNL     1      -0.978   9.117  26.391  1.00  0.00     0.000 A 
ENDBRANCH  18  19
ENDBRANCH   1  18
BRANCH   1  25
ATOM     25  C   UNL     1      -2.229  11.540  20.736  1.00  0.00     0.232 C 
ATOM     26  O   UNL     1      -1.163  11.153  20.263  1.00  0.00    -0.274 OA
ATOM     27  N   UNL     1      -3.001  12.574  20.228  1.00  0.00    -0.323 N 
ATOM     28  H   UNL     1      -3.854  12.804  20.733  1.00  0.00     0.170 HD
BRANCH  27  29
ATOM     29  C   UNL     1      -2.734  13.388  19.109  1.00  0.00     0.077 A 
ATOM     30  C   UNL     1      -1.942  14.534  19.135  1.00  0.00     0.031 A 
ATOM     31  C   UNL     1      -3.306  13.009  17.890  1.00  0.00     0.148 A 
ATOM     32  C   UNL     1      -1.732  15.279  17.964  1.00  0.00     0.029 A 
ATOM     33  C   UNL     1      -3.105  13.738  16.719  1.00  0.00     0.068 A 
ATOM     34  C   UNL     1      -2.321  14.894  16.748  1.00  0.00     0.050 A 
ATOM     35  F   UNL     1      -4.054  11.895  17.834  1.00  0.00    -0.205 F 
BRANCH  34  36
ATOM     36  N   UNL     1      -2.081  15.652  15.564  1.00  0.00    -0.299 N 
ATOM     37  C   UNL     1      -2.772  16.792  15.201  1.00  0.00     0.205 A 
ATOM     38  C   UNL     1      -1.130  15.448  14.566  1.00  0.00     0.073 A 
ATOM     39  N   UNL     1      -2.298  17.360  14.118  1.00  0.00    -0.236 NA
ATOM     40  C   UNL     1      -0.204  14.429  14.279  1.00  0.00     0.029 A 
ATOM     41  C   UNL     1      -1.282  16.544  13.712  1.00  0.00     0.089 A 
ATOM     42  C   UNL     1       0.614  14.580  13.151  1.00  0.00     0.002 A 
ATOM     43  C   UNL     1      -0.451  16.679  12.587  1.00  0.00     0.030 A 
ATOM     44  C   UNL     1       0.502  15.693  12.322  1.00  0.00     0.002 A 
ENDBRANCH  34  36
ENDBRANCH  27  29
ENDBRANCH   1  25
TORSDOF 7
ENDMDL
