MODEL 1
REMARK VINA RESULT:    -9.128      0.000      0.000
REMARK INTER + INTRA:         -12.443
REMARK INTER:                 -12.063
REMARK INTRA:                  -0.380
REMARK UNBOUND:                -0.380
REMARK SMILES N#C[C@H]1C[C@@H](O)CC[C@@H]1n1cc(C(N)=O)c(Nc2ccc(C3CC3)cc2)n1
REMARK SMILES IDX 10 1 11 2 12 3 16 4 27 5 9 6 1 7 2 8 3 9 4 10 5 11 8 12 7 13
REMARK SMILES IDX 6 14 13 16 14 17 15 18 17 21 18 23 19 24 26 25 20 26 25 27
REMARK SMILES IDX 21 28 22 29 23 30 24 31
REMARK H PARENT 6 15 14 19 14 20 17 22
ROOT
ATOM      1  N   UNL     1     -17.268  19.395  20.046  1.00  0.00    -0.265 N 
ATOM      2  C   UNL     1     -16.241  19.609  19.177  1.00  0.00     0.125 A 
ATOM      3  C   UNL     1     -15.265  18.687  19.507  1.00  0.00     0.101 A 
ATOM      4  C   UNL     1     -15.819  17.948  20.602  1.00  0.00     0.165 A 
ATOM      5  N   UNL     1     -17.031  18.413  20.924  1.00  0.00    -0.154 NA
ENDROOT
BRANCH   1   6
ATOM      6  C   UNL     1     -18.521  20.144  20.120  1.00  0.00     0.125 C 
ATOM      7  N   UNL     1     -20.334  17.953  22.102  1.00  0.00    -0.198 NA
ATOM      8  C   UNL     1     -20.068  18.501  21.115  1.00  0.00     0.068 C 
ATOM      9  C   UNL     1     -19.730  19.212  19.865  1.00  0.00     0.120 C 
ATOM     10  C   UNL     1     -20.961  19.967  19.320  1.00  0.00     0.052 C 
ATOM     11  C   UNL     1     -21.005  21.419  19.786  1.00  0.00     0.115 C 
ATOM     12  C   UNL     1     -18.521  21.341  19.159  1.00  0.00     0.031 C 
ATOM     13  C   UNL     1     -19.781  22.204  19.303  1.00  0.00     0.034 C 
BRANCH  11  14
ATOM     14  O   UNL     1     -21.013  21.447  21.210  1.00  0.00    -0.393 OA
ATOM     15  H   UNL     1     -20.394  20.766  21.531  1.00  0.00     0.210 HD
ENDBRANCH  11  14
ENDBRANCH   1   6
BRANCH   3  16
ATOM     16  C   UNL     1     -13.965  18.492  18.894  1.00  0.00     0.254 C 
ATOM     17  N   UNL     1     -13.907  17.602  17.859  1.00  0.00    -0.365 N 
ATOM     18  O   UNL     1     -12.958  19.097  19.252  1.00  0.00    -0.269 OA
ATOM     19  H   UNL     1     -13.033  17.556  17.354  1.00  0.00     0.159 HD
ATOM     20  H   UNL     1     -14.738  17.260  17.403  1.00  0.00     0.159 HD
ENDBRANCH   3  16
BRANCH   4  21
ATOM     21  N   UNL     1     -15.136  16.937  21.194  1.00  0.00    -0.338 N 
ATOM     22  H   UNL     1     -14.879  17.088  22.171  1.00  0.00     0.168 HD
BRANCH  21  23
ATOM     23  C   UNL     1     -14.652  15.705  20.709  1.00  0.00     0.040 A 
ATOM     24  C   UNL     1     -15.438  14.762  20.051  1.00  0.00     0.026 A 
ATOM     25  C   UNL     1     -13.304  15.382  20.916  1.00  0.00     0.026 A 
ATOM     26  C   UNL     1     -14.896  13.548  19.605  1.00  0.00     0.006 A 
ATOM     27  C   UNL     1     -12.765  14.166  20.471  1.00  0.00     0.006 A 
ATOM     28  C   UNL     1     -13.545  13.216  19.798  1.00  0.00    -0.045 A 
BRANCH  28  29
ATOM     29  C   UNL     1     -13.017  11.886  19.292  1.00  0.00     0.019 C 
ATOM     30  C   UNL     1     -11.837  11.244  19.985  1.00  0.00     0.009 C 
ATOM     31  C   UNL     1     -11.698  11.741  18.574  1.00  0.00     0.009 C 
ENDBRANCH  28  29
ENDBRANCH  21  23
ENDBRANCH   4  21
TORSDOF 6
ENDMDL
