REMARK SMILES CCOc1cc([C@@H](Nc2ccc(C(=N)N)cc2)C(=O)NCc2ccccc2)ccc1OCc1ccccc1
REMARK SMILES IDX 7 1 6 2 4 3 5 4 30 5 29 6 28 7 3 8 2 9 1 10 31 11 32 12
REMARK SMILES IDX 33 13 34 14 38 15 35 16 37 17 36 18 8 19 9 21 10 22 17 23
REMARK SMILES IDX 11 24 16 25 12 26 13 27 14 28 15 29 18 33 19 34 20 35 21 37
REMARK SMILES IDX 22 38 23 39 27 40 24 41 26 42 25 43
REMARK H PARENT 8 20 14 30 15 31 15 32 20 36
REMARK INDEX MAP 7 1 6 2 4 3 5 4 30 5 29 6 28 7 3 8 2 9 1 10 31 11 32 12 33 13
REMARK INDEX MAP 34 14 38 15 35 16 37 17 36 18 8 19 46 20 9 21 10 22 17 23
REMARK INDEX MAP 11 24 16 25 12 26 13 27 14 28 15 29 49 30 50 31 51 32 18 33
REMARK INDEX MAP 19 34 20 35 54 36 21 37 22 38 23 39 27 40 24 41 26 42 25 43
ROOT
ATOM      1  C   UNL     1      -4.307  12.359  19.993  1.00  0.00     0.200 C 
ENDROOT
BRANCH   1   2
ATOM      2  C   UNL     1      -3.340  11.759  21.006  1.00  0.00    -0.012 A 
ATOM      3  C   UNL     1      -1.048  11.350  21.712  1.00  0.00     0.161 A 
ATOM      4  C   UNL     1      -1.959  11.915  20.816  1.00  0.00     0.056 A 
ATOM      5  C   UNL     1      -1.485  10.576  22.796  1.00  0.00     0.161 A 
ATOM      6  C   UNL     1      -2.858  10.403  22.981  1.00  0.00     0.051 A 
ATOM      7  C   UNL     1      -3.776  10.983  22.093  1.00  0.00     0.010 A 
BRANCH   3   8
ATOM      8  O   UNL     1       0.281  11.521  21.418  1.00  0.00    -0.490 OA
BRANCH   8   9
ATOM      9  C   UNL     1       0.493  12.740  20.695  1.00  0.00     0.226 C 
ATOM     10  C   UNL     1       1.933  13.166  20.919  1.00  0.00     0.049 C 
ENDBRANCH   8   9
ENDBRANCH   3   8
BRANCH   5  11
ATOM     11  O   UNL     1      -0.510  10.027  23.582  1.00  0.00    -0.485 OA
BRANCH  11  12
ATOM     12  C   UNL     1      -0.280  10.602  24.866  1.00  0.00     0.265 C 
BRANCH  12  13
ATOM     13  C   UNL     1      -0.872   9.708  25.933  1.00  0.00    -0.011 A 
ATOM     14  C   UNL     1      -0.285   8.474  26.249  1.00  0.00     0.007 A 
ATOM     15  C   UNL     1      -2.060  10.076  26.584  1.00  0.00     0.007 A 
ATOM     16  C   UNL     1      -0.856   7.639  27.211  1.00  0.00     0.000 A 
ATOM     17  C   UNL     1      -2.630   9.239  27.545  1.00  0.00     0.000 A 
ATOM     18  C   UNL     1      -2.029   8.021  27.859  1.00  0.00     0.000 A 
ENDBRANCH  12  13
ENDBRANCH  11  12
ENDBRANCH   5  11
ENDBRANCH   1   2
BRANCH   1  19
ATOM     19  N   UNL     1      -5.522  11.522  19.982  1.00  0.00    -0.370 N 
ATOM     20  H   UNL     1      -6.393  11.944  20.335  1.00  0.00     0.161 HD
BRANCH  19  21
ATOM     21  C   UNL     1      -5.582  10.216  19.534  1.00  0.00     0.035 A 
ATOM     22  C   UNL     1      -6.523   9.351  20.114  1.00  0.00     0.026 A 
ATOM     23  C   UNL     1      -4.804   9.719  18.482  1.00  0.00     0.026 A 
ATOM     24  C   UNL     1      -6.661   8.026  19.685  1.00  0.00     0.014 A 
ATOM     25  C   UNL     1      -4.934   8.395  18.043  1.00  0.00     0.014 A 
ATOM     26  C   UNL     1      -5.859   7.546  18.649  1.00  0.00     0.016 A 
BRANCH  26  27
ATOM     27  C   UNL     1      -6.003   6.144  18.179  1.00  0.00     0.122 C 
ATOM     28  N   UNL     1      -5.160   5.215  18.502  1.00  0.00    -0.284 NA
ATOM     29  N   UNL     1      -7.043   5.790  17.385  1.00  0.00    -0.384 N 
ATOM     30  H   UNL     1      -5.295   4.254  18.156  1.00  0.00     0.189 HD
ATOM     31  H   UNL     1      -7.137   4.816  17.063  1.00  0.00     0.158 HD
ATOM     32  H   UNL     1      -7.739   6.495  17.104  1.00  0.00     0.158 HD
ENDBRANCH  26  27
ENDBRANCH  19  21
ENDBRANCH   1  19
BRANCH   1  33
ATOM     33  C   UNL     1      -4.621  13.852  20.292  1.00  0.00     0.247 C 
ATOM     34  O   UNL     1      -4.374  14.756  19.497  1.00  0.00    -0.272 OA
ATOM     35  N   UNL     1      -5.153  14.078  21.544  1.00  0.00    -0.350 N 
ATOM     36  H   UNL     1      -5.391  13.263  22.127  1.00  0.00     0.163 HD
BRANCH  35  37
ATOM     37  C   UNL     1      -5.393  15.392  22.080  1.00  0.00     0.151 C 
BRANCH  37  38
ATOM     38  C   UNL     1      -5.392  15.349  23.586  1.00  0.00    -0.029 A 
ATOM     39  C   UNL     1      -4.218  15.060  24.295  1.00  0.00     0.005 A 
ATOM     40  C   UNL     1      -6.563  15.646  24.300  1.00  0.00     0.005 A 
ATOM     41  C   UNL     1      -4.220  15.055  25.692  1.00  0.00     0.000 A 
ATOM     42  C   UNL     1      -6.561  15.642  25.694  1.00  0.00     0.000 A 
ATOM     43  C   UNL     1      -5.391  15.345  26.390  1.00  0.00     0.000 A 
ENDBRANCH  37  38
ENDBRANCH  35  37
ENDBRANCH   1  33
TORSDOF 12
