REMARK SMILES C[C@@H](NC(=O)/C(C#N)=C/c1ccc(O)c(O)c1)c1ccccc1
REMARK SMILES IDX 6 1 7 2 8 3 9 4 4 5 3 6 5 7 2 9 1 10 18 11 19 12 23 13 20 14
REMARK SMILES IDX 22 15 21 16 10 17 11 18 17 19 12 20 15 21 13 22 16 23 14 25
REMARK H PARENT 3 8 16 24 14 26
REMARK INDEX MAP 6 1 7 2 8 3 9 4 4 5 3 6 5 7 28 8 2 9 1 10 18 11 19 12 23 13
REMARK INDEX MAP 20 14 22 15 21 16 10 17 11 18 17 19 12 20 15 21 13 22 16 23
REMARK INDEX MAP 33 24 14 25 32 26
ROOT
ATOM      1  C   UNL     1      17.184  33.426  11.039  1.00  0.00     0.117 C 
ATOM      2  C   UNL     1      16.582  34.643  10.622  1.00  0.00     0.105 C 
ATOM      3  N   UNL     1      16.095  35.622  10.231  1.00  0.00    -0.192 NA
ATOM      4  C   UNL     1      17.131  32.982  12.311  1.00  0.00     0.033 C 
ENDROOT
BRANCH   1   5
ATOM      5  C   UNL     1      17.939  32.583  10.052  1.00  0.00     0.262 C 
ATOM      6  N   UNL     1      17.197  32.017   9.043  1.00  0.00    -0.345 N 
ATOM      7  O   UNL     1      19.151  32.411  10.151  1.00  0.00    -0.268 OA
ATOM      8  H   UNL     1      16.182  32.189   9.011  1.00  0.00     0.164 HD
BRANCH   6   9
ATOM      9  C   UNL     1      17.806  31.180   8.018  1.00  0.00     0.109 C 
ATOM     10  C   UNL     1      18.511  32.029   6.957  1.00  0.00     0.036 C 
BRANCH   9  11
ATOM     11  C   UNL     1      16.753  30.261   7.424  1.00  0.00    -0.026 A 
ATOM     12  C   UNL     1      15.393  30.565   7.592  1.00  0.00     0.006 A 
ATOM     13  C   UNL     1      17.099  29.126   6.672  1.00  0.00     0.006 A 
ATOM     14  C   UNL     1      14.406  29.748   7.036  1.00  0.00     0.000 A 
ATOM     15  C   UNL     1      16.110  28.310   6.117  1.00  0.00     0.000 A 
ATOM     16  C   UNL     1      14.764  28.621   6.301  1.00  0.00     0.000 A 
ENDBRANCH   9  11
ENDBRANCH   6   9
ENDBRANCH   1   5
BRANCH   4  17
ATOM     17  C   UNL     1      16.462  33.658  13.431  1.00  0.00    -0.020 A 
ATOM     18  C   UNL     1      17.177  34.450  14.344  1.00  0.00     0.012 A 
ATOM     19  C   UNL     1      15.075  33.534  13.565  1.00  0.00     0.058 A 
ATOM     20  C   UNL     1      16.519  35.093  15.398  1.00  0.00     0.051 A 
ATOM     21  C   UNL     1      14.431  34.177  14.613  1.00  0.00     0.157 A 
ATOM     22  C   UNL     1      15.144  34.949  15.526  1.00  0.00     0.157 A 
BRANCH  21  23
ATOM     23  O   UNL     1      13.078  34.046  14.743  1.00  0.00    -0.504 OA
ATOM     24  H   UNL     1      12.569  33.497  14.095  1.00  0.00     0.293 HD
ENDBRANCH  21  23
BRANCH  22  25
ATOM     25  O   UNL     1      14.443  35.551  16.534  1.00  0.00    -0.504 OA
ATOM     26  H   UNL     1      13.463  35.428  16.597  1.00  0.00     0.293 HD
ENDBRANCH  22  25
ENDBRANCH   4  17
TORSDOF 6
