MODEL 1
REMARK VINA RESULT:    -9.261      0.000      0.000
REMARK INTER + INTRA:         -13.306
REMARK INTER:                 -12.239
REMARK INTRA:                  -1.067
REMARK UNBOUND:                -1.067
REMARK SMILES O=C(O)c1cccc(NC(=O)c2ccccc2NC(=O)c2ccc(Br)cc2)c1
REMARK SMILES IDX 9 1 10 2 11 3 8 5 4 6 5 7 28 8 6 9 7 10 2 11 1 12 3 13 12 15
REMARK SMILES IDX 13 16 17 17 14 18 16 19 15 20 18 21 19 22 20 23 21 25 22 26
REMARK SMILES IDX 27 27 23 28 26 29 24 30 25 31
REMARK H PARENT 9 4 3 14 18 24
ROOT
ATOM      1  N   UNL     1      -6.616  -6.645 -19.659  1.00  0.00    -0.322 N 
ATOM      2  C   UNL     1      -7.717  -6.415 -20.463  1.00  0.00     0.257 C 
ATOM      3  O   UNL     1      -7.735  -5.757 -21.501  1.00  0.00    -0.269 OA
ATOM      4  H   UNL     1      -6.720  -7.333 -18.922  1.00  0.00     0.170 HD
ENDROOT
BRANCH   1   5
ATOM      5  C   UNL     1      -5.328  -6.081 -19.785  1.00  0.00     0.042 A 
ATOM      6  C   UNL     1      -4.011  -4.051 -20.068  1.00  0.00     0.061 A 
ATOM      7  C   UNL     1      -2.835  -4.806 -20.059  1.00  0.00     0.016 A 
ATOM      8  C   UNL     1      -5.252  -4.691 -19.931  1.00  0.00     0.041 A 
ATOM      9  C   UNL     1      -2.906  -6.191 -19.919  1.00  0.00     0.003 A 
ATOM     10  C   UNL     1      -4.145  -6.824 -19.785  1.00  0.00     0.026 A 
BRANCH   6  11
ATOM     11  C   UNL     1      -3.999  -2.576 -20.218  1.00  0.00     0.335 C 
ATOM     12  O   UNL     1      -4.774  -1.928 -20.898  1.00  0.00    -0.246 OA
BRANCH  11  13
ATOM     13  O   UNL     1      -3.021  -1.985 -19.511  1.00  0.00    -0.478 OA
ATOM     14  H   UNL     1      -3.071  -1.043 -19.777  1.00  0.00     0.297 HD
ENDBRANCH  11  13
ENDBRANCH   6  11
ENDBRANCH   1   5
BRANCH   2  15
ATOM     15  C   UNL     1      -8.975  -7.107 -20.039  1.00  0.00     0.063 A 
ATOM     16  C   UNL     1      -9.512  -6.843 -18.764  1.00  0.00     0.016 A 
ATOM     17  C   UNL     1      -9.630  -8.008 -20.912  1.00  0.00     0.054 A 
ATOM     18  C   UNL     1     -10.664  -7.498 -18.337  1.00  0.00     0.001 A 
ATOM     19  C   UNL     1     -10.782  -8.659 -20.459  1.00  0.00     0.027 A 
ATOM     20  C   UNL     1     -11.291  -8.410 -19.179  1.00  0.00     0.002 A 
BRANCH  17  21
ATOM     21  N   UNL     1      -9.113  -8.205 -22.218  1.00  0.00    -0.321 N 
ATOM     22  C   UNL     1      -8.353  -9.254 -22.690  1.00  0.00     0.255 C 
ATOM     23  O   UNL     1      -7.881 -10.168 -22.025  1.00  0.00    -0.269 OA
ATOM     24  H   UNL     1      -9.346  -7.458 -22.874  1.00  0.00     0.170 HD
BRANCH  22  25
ATOM     25  C   UNL     1      -8.058  -9.217 -24.155  1.00  0.00     0.040 A 
ATOM     26  C   UNL     1      -7.116 -10.068 -24.751  1.00  0.00     0.015 A 
ATOM     27  C   UNL     1      -8.732  -8.274 -24.945  1.00  0.00     0.015 A 
ATOM     28  C   UNL     1      -6.872  -9.991 -26.126  1.00  0.00     0.016 A 
ATOM     29  C   UNL     1      -8.488  -8.199 -26.319  1.00  0.00     0.016 A 
ATOM     30  C   UNL     1      -7.561  -9.060 -26.902  1.00  0.00     0.018 A 
ATOM     31  Br  UNL     1      -7.227  -8.959 -28.761  1.00  0.00    -0.051 Br
ENDBRANCH  22  25
ENDBRANCH  17  21
ENDBRANCH   2  15
TORSDOF 6
ENDMDL
MODEL 2
REMARK VINA RESULT:    -8.459      5.116      8.376
REMARK INTER + INTRA:         -12.246
REMARK INTER:                 -10.968
REMARK INTRA:                  -1.279
REMARK UNBOUND:                -1.067
REMARK SMILES O=C(O)c1cccc(NC(=O)c2ccccc2NC(=O)c2ccc(Br)cc2)c1
REMARK SMILES IDX 9 1 10 2 11 3 8 5 4 6 5 7 28 8 6 9 7 10 2 11 1 12 3 13 12 15
REMARK SMILES IDX 13 16 17 17 14 18 16 19 15 20 18 21 19 22 20 23 21 25 22 26
REMARK SMILES IDX 27 27 23 28 26 29 24 30 25 31
REMARK H PARENT 9 4 3 14 18 24
ROOT
ATOM      1  N   UNL     1      -9.834  -9.109 -24.129  1.00  0.00    -0.322 N 
ATOM      2  C   UNL     1      -9.106  -8.090 -24.717  1.00  0.00     0.257 C 
ATOM      3  O   UNL     1      -8.794  -7.024 -24.192  1.00  0.00    -0.269 OA
ATOM      4  H   UNL     1      -9.880  -9.990 -24.629  1.00  0.00     0.170 HD
ENDROOT
BRANCH   1   5
ATOM      5  C   UNL     1     -10.473  -9.093 -22.870  1.00  0.00     0.042 A 
ATOM      6  C   UNL     1     -12.547  -9.415 -21.633  1.00  0.00     0.061 A 
ATOM      7  C   UNL     1     -11.892  -9.093 -20.441  1.00  0.00     0.016 A 
ATOM      8  C   UNL     1     -11.835  -9.413 -22.842  1.00  0.00     0.041 A 
ATOM      9  C   UNL     1     -10.537  -8.768 -20.465  1.00  0.00     0.003 A 
ATOM     10  C   UNL     1      -9.832  -8.767 -21.673  1.00  0.00     0.026 A 
BRANCH   6  11
ATOM     11  C   UNL     1     -13.986  -9.763 -21.672  1.00  0.00     0.335 C 
ATOM     12  O   UNL     1     -14.448 -10.827 -22.044  1.00  0.00    -0.246 OA
BRANCH  11  13
ATOM     13  O   UNL     1     -14.779  -8.766 -21.244  1.00  0.00    -0.478 OA
ATOM     14  H   UNL     1     -15.003  -8.272 -22.060  1.00  0.00     0.297 HD
ENDBRANCH  11  13
ENDBRANCH   6  11
ENDBRANCH   1   5
BRANCH   2  15
ATOM     15  C   UNL     1      -8.604  -8.377 -26.098  1.00  0.00     0.063 A 
ATOM     16  C   UNL     1      -7.516  -9.253 -26.269  1.00  0.00     0.016 A 
ATOM     17  C   UNL     1      -9.224  -7.786 -27.225  1.00  0.00     0.054 A 
ATOM     18  C   UNL     1      -7.014  -9.510 -27.543  1.00  0.00     0.001 A 
ATOM     19  C   UNL     1      -8.699  -8.054 -28.493  1.00  0.00     0.027 A 
ATOM     20  C   UNL     1      -7.599  -8.905 -28.650  1.00  0.00     0.002 A 
BRANCH  17  21
ATOM     21  N   UNL     1     -10.364  -6.963 -27.036  1.00  0.00    -0.321 N 
ATOM     22  C   UNL     1     -11.641  -7.337 -26.674  1.00  0.00     0.255 C 
ATOM     23  O   UNL     1     -12.059  -8.483 -26.558  1.00  0.00    -0.269 OA
ATOM     24  H   UNL     1     -10.191  -5.971 -27.197  1.00  0.00     0.170 HD
BRANCH  22  25
ATOM     25  C   UNL     1     -12.595  -6.210 -26.450  1.00  0.00     0.040 A 
ATOM     26  C   UNL     1     -13.689  -6.314 -25.579  1.00  0.00     0.015 A 
ATOM     27  C   UNL     1     -12.397  -5.019 -27.167  1.00  0.00     0.015 A 
ATOM     28  C   UNL     1     -14.557  -5.230 -25.408  1.00  0.00     0.016 A 
ATOM     29  C   UNL     1     -13.264  -3.938 -26.994  1.00  0.00     0.016 A 
ATOM     30  C   UNL     1     -14.338  -4.048 -26.113  1.00  0.00     0.018 A 
ATOM     31  Br  UNL     1     -15.514  -2.586 -25.880  1.00  0.00    -0.051 Br
ENDBRANCH  22  25
ENDBRANCH  17  21
ENDBRANCH   2  15
TORSDOF 6
ENDMDL
MODEL 3
REMARK VINA RESULT:    -8.301      6.158      9.364
REMARK INTER + INTRA:         -12.037
REMARK INTER:                 -10.735
REMARK INTRA:                  -1.302
REMARK UNBOUND:                -1.067
REMARK SMILES O=C(O)c1cccc(NC(=O)c2ccccc2NC(=O)c2ccc(Br)cc2)c1
REMARK SMILES IDX 9 1 10 2 11 3 8 5 4 6 5 7 28 8 6 9 7 10 2 11 1 12 3 13 12 15
REMARK SMILES IDX 13 16 17 17 14 18 16 19 15 20 18 21 19 22 20 23 21 25 22 26
REMARK SMILES IDX 27 27 23 28 26 29 24 30 25 31
REMARK H PARENT 9 4 3 14 18 24
ROOT
ATOM      1  N   UNL     1      -7.713  -8.410 -28.976  1.00  0.00    -0.322 N 
ATOM      2  C   UNL     1      -8.771  -8.712 -28.138  1.00  0.00     0.257 C 
ATOM      3  O   UNL     1      -9.941  -8.875 -28.474  1.00  0.00    -0.269 OA
ATOM      4  H   UNL     1      -6.782  -8.458 -28.579  1.00  0.00     0.170 HD
ENDROOT
BRANCH   1   5
ATOM      5  C   UNL     1      -7.769  -8.104 -30.353  1.00  0.00     0.042 A 
ATOM      6  C   UNL     1      -8.420  -6.488 -32.057  1.00  0.00     0.061 A 
ATOM      7  C   UNL     1      -7.963  -7.351 -33.057  1.00  0.00     0.016 A 
ATOM      8  C   UNL     1      -8.321  -6.868 -30.710  1.00  0.00     0.041 A 
ATOM      9  C   UNL     1      -7.417  -8.585 -32.707  1.00  0.00     0.003 A 
ATOM     10  C   UNL     1      -7.322  -8.959 -31.363  1.00  0.00     0.026 A 
BRANCH   6  11
ATOM     11  C   UNL     1      -9.015  -5.167 -32.368  1.00  0.00     0.335 C 
ATOM     12  O   UNL     1     -10.013  -4.980 -33.039  1.00  0.00    -0.246 OA
BRANCH  11  13
ATOM     13  O   UNL     1      -8.333  -4.144 -31.825  1.00  0.00    -0.478 OA
ATOM     14  H   UNL     1      -7.754  -4.570 -31.158  1.00  0.00     0.297 HD
ENDBRANCH  11  13
ENDBRANCH   6  11
ENDBRANCH   1   5
BRANCH   2  15
ATOM     15  C   UNL     1      -8.407  -8.925 -26.701  1.00  0.00     0.063 A 
ATOM     16  C   UNL     1      -7.372  -9.821 -26.376  1.00  0.00     0.016 A 
ATOM     17  C   UNL     1      -9.087  -8.222 -25.676  1.00  0.00     0.054 A 
ATOM     18  C   UNL     1      -7.038 -10.056 -25.044  1.00  0.00     0.001 A 
ATOM     19  C   UNL     1      -8.738  -8.480 -24.346  1.00  0.00     0.027 A 
ATOM     20  C   UNL     1      -7.726  -9.394 -24.033  1.00  0.00     0.002 A 
BRANCH  17  21
ATOM     21  N   UNL     1     -10.078  -7.271 -26.029  1.00  0.00    -0.321 N 
ATOM     22  C   UNL     1     -11.444  -7.351 -25.856  1.00  0.00     0.255 C 
ATOM     23  O   UNL     1     -12.072  -8.326 -25.462  1.00  0.00    -0.269 OA
ATOM     24  H   UNL     1      -9.707  -6.428 -26.469  1.00  0.00     0.170 HD
BRANCH  22  25
ATOM     25  C   UNL     1     -12.206  -6.124 -26.238  1.00  0.00     0.040 A 
ATOM     26  C   UNL     1     -13.298  -5.658 -25.491  1.00  0.00     0.015 A 
ATOM     27  C   UNL     1     -11.826  -5.441 -27.403  1.00  0.00     0.015 A 
ATOM     28  C   UNL     1     -13.982  -4.506 -25.894  1.00  0.00     0.016 A 
ATOM     29  C   UNL     1     -12.510  -4.291 -27.803  1.00  0.00     0.016 A 
ATOM     30  C   UNL     1     -13.583  -3.827 -27.044  1.00  0.00     0.018 A 
ATOM     31  Br  UNL     1     -14.513  -2.272 -27.585  1.00  0.00    -0.051 Br
ENDBRANCH  22  25
ENDBRANCH  17  21
ENDBRANCH   2  15
TORSDOF 6
ENDMDL
MODEL 4
REMARK VINA RESULT:    -8.291      4.092      6.847
REMARK INTER + INTRA:         -12.024
REMARK INTER:                 -11.364
REMARK INTRA:                  -0.660
REMARK UNBOUND:                -1.067
REMARK SMILES O=C(O)c1cccc(NC(=O)c2ccccc2NC(=O)c2ccc(Br)cc2)c1
REMARK SMILES IDX 9 1 10 2 11 3 8 5 4 6 5 7 28 8 6 9 7 10 2 11 1 12 3 13 12 15
REMARK SMILES IDX 13 16 17 17 14 18 16 19 15 20 18 21 19 22 20 23 21 25 22 26
REMARK SMILES IDX 27 27 23 28 26 29 24 30 25 31
REMARK H PARENT 9 4 3 14 18 24
ROOT
ATOM      1  N   UNL     1      -8.122  -7.723 -22.799  1.00  0.00    -0.322 N 
ATOM      2  C   UNL     1      -9.036  -8.220 -23.711  1.00  0.00     0.257 C 
ATOM      3  O   UNL     1     -10.254  -8.269 -23.566  1.00  0.00    -0.269 OA
ATOM      4  H   UNL     1      -7.168  -7.605 -23.119  1.00  0.00     0.170 HD
ENDROOT
BRANCH   1   5
ATOM      5  C   UNL     1      -8.376  -7.291 -21.479  1.00  0.00     0.042 A 
ATOM      6  C   UNL     1      -9.856  -7.404 -19.547  1.00  0.00     0.061 A 
ATOM      7  C   UNL     1      -9.028  -6.516 -18.854  1.00  0.00     0.016 A 
ATOM      8  C   UNL     1      -9.527  -7.787 -20.855  1.00  0.00     0.041 A 
ATOM      9  C   UNL     1      -7.884  -6.015 -19.472  1.00  0.00     0.003 A 
ATOM     10  C   UNL     1      -7.561  -6.399 -20.778  1.00  0.00     0.026 A 
BRANCH   6  11
ATOM     11  C   UNL     1     -11.087  -7.966 -18.943  1.00  0.00     0.335 C 
ATOM     12  O   UNL     1     -12.069  -8.340 -19.558  1.00  0.00    -0.246 OA
BRANCH  11  13
ATOM     13  O   UNL     1     -11.031  -8.032 -17.602  1.00  0.00    -0.478 OA
ATOM     14  H   UNL     1     -11.971  -8.082 -17.327  1.00  0.00     0.297 HD
ENDBRANCH  11  13
ENDBRANCH   6  11
ENDBRANCH   1   5
BRANCH   2  15
ATOM     15  C   UNL     1      -8.456  -8.666 -25.018  1.00  0.00     0.063 A 
ATOM     16  C   UNL     1      -7.407  -9.605 -25.024  1.00  0.00     0.016 A 
ATOM     17  C   UNL     1      -8.964  -8.160 -26.239  1.00  0.00     0.054 A 
ATOM     18  C   UNL     1      -6.833 -10.010 -26.226  1.00  0.00     0.001 A 
ATOM     19  C   UNL     1      -8.367  -8.577 -27.433  1.00  0.00     0.027 A 
ATOM     20  C   UNL     1      -7.306  -9.490 -27.426  1.00  0.00     0.002 A 
BRANCH  17  21
ATOM     21  N   UNL     1     -10.067  -7.271 -26.214  1.00  0.00    -0.321 N 
ATOM     22  C   UNL     1     -11.396  -7.544 -26.464  1.00  0.00     0.255 C 
ATOM     23  O   UNL     1     -11.857  -8.604 -26.871  1.00  0.00    -0.269 OA
ATOM     24  H   UNL     1      -9.820  -6.308 -25.982  1.00  0.00     0.170 HD
BRANCH  22  25
ATOM     25  C   UNL     1     -12.333  -6.401 -26.247  1.00  0.00     0.040 A 
ATOM     26  C   UNL     1     -13.447  -6.495 -25.401  1.00  0.00     0.015 A 
ATOM     27  C   UNL     1     -12.096  -5.206 -26.944  1.00  0.00     0.015 A 
ATOM     28  C   UNL     1     -14.298  -5.397 -25.236  1.00  0.00     0.016 A 
ATOM     29  C   UNL     1     -12.946  -4.110 -26.777  1.00  0.00     0.016 A 
ATOM     30  C   UNL     1     -14.041  -4.210 -25.921  1.00  0.00     0.018 A 
ATOM     31  Br  UNL     1     -15.194  -2.729 -25.695  1.00  0.00    -0.051 Br
ENDBRANCH  22  25
ENDBRANCH  17  21
ENDBRANCH   2  15
TORSDOF 6
ENDMDL
MODEL 5
REMARK VINA RESULT:    -8.248      5.735      9.727
REMARK INTER + INTRA:         -11.967
REMARK INTER:                 -10.632
REMARK INTRA:                  -1.335
REMARK UNBOUND:                -1.067
REMARK SMILES O=C(O)c1cccc(NC(=O)c2ccccc2NC(=O)c2ccc(Br)cc2)c1
REMARK SMILES IDX 9 1 10 2 11 3 8 5 4 6 5 7 28 8 6 9 7 10 2 11 1 12 3 13 12 15
REMARK SMILES IDX 13 16 17 17 14 18 16 19 15 20 18 21 19 22 20 23 21 25 22 26
REMARK SMILES IDX 27 27 23 28 26 29 24 30 25 31
REMARK H PARENT 9 4 3 14 18 24
ROOT
ATOM      1  N   UNL     1     -10.983  -6.024 -29.289  1.00  0.00    -0.322 N 
ATOM      2  C   UNL     1     -11.062  -7.362 -29.632  1.00  0.00     0.257 C 
ATOM      3  O   UNL     1     -12.059  -8.075 -29.549  1.00  0.00    -0.269 OA
ATOM      4  H   UNL     1     -10.139  -5.530 -29.556  1.00  0.00     0.170 HD
ENDROOT
BRANCH   1   5
ATOM      5  C   UNL     1     -11.974  -5.238 -28.663  1.00  0.00     0.042 A 
ATOM      6  C   UNL     1     -13.432  -4.955 -26.732  1.00  0.00     0.061 A 
ATOM      7  C   UNL     1     -13.958  -3.788 -27.294  1.00  0.00     0.016 A 
ATOM      8  C   UNL     1     -12.443  -5.674 -27.419  1.00  0.00     0.041 A 
ATOM      9  C   UNL     1     -13.498  -3.352 -28.535  1.00  0.00     0.003 A 
ATOM     10  C   UNL     1     -12.513  -4.074 -29.216  1.00  0.00     0.026 A 
BRANCH   6  11
ATOM     11  C   UNL     1     -13.885  -5.470 -25.418  1.00  0.00     0.335 C 
ATOM     12  O   UNL     1     -13.819  -6.629 -25.052  1.00  0.00    -0.246 OA
BRANCH  11  13
ATOM     13  O   UNL     1     -14.399  -4.512 -24.628  1.00  0.00    -0.478 OA
ATOM     14  H   UNL     1     -15.255  -4.883 -24.329  1.00  0.00     0.297 HD
ENDBRANCH  11  13
ENDBRANCH   6  11
ENDBRANCH   1   5
BRANCH   2  15
ATOM     15  C   UNL     1      -9.816  -7.946 -30.223  1.00  0.00     0.063 A 
ATOM     16  C   UNL     1      -9.544  -7.750 -31.590  1.00  0.00     0.016 A 
ATOM     17  C   UNL     1      -8.911  -8.676 -29.416  1.00  0.00     0.054 A 
ATOM     18  C   UNL     1      -8.407  -8.309 -32.168  1.00  0.00     0.001 A 
ATOM     19  C   UNL     1      -7.779  -9.233 -30.020  1.00  0.00     0.027 A 
ATOM     20  C   UNL     1      -7.532  -9.056 -31.385  1.00  0.00     0.002 A 
BRANCH  17  21
ATOM     21  N   UNL     1      -9.168  -8.800 -28.027  1.00  0.00    -0.321 N 
ATOM     22  C   UNL     1      -8.447  -8.281 -26.972  1.00  0.00     0.255 C 
ATOM     23  O   UNL     1      -7.370  -7.701 -27.041  1.00  0.00    -0.269 OA
ATOM     24  H   UNL     1      -9.996  -9.352 -27.805  1.00  0.00     0.170 HD
BRANCH  22  25
ATOM     25  C   UNL     1      -9.047  -8.502 -25.621  1.00  0.00     0.040 A 
ATOM     26  C   UNL     1     -10.404  -8.266 -25.356  1.00  0.00     0.015 A 
ATOM     27  C   UNL     1      -8.207  -8.932 -24.583  1.00  0.00     0.015 A 
ATOM     28  C   UNL     1     -10.916  -8.484 -24.072  1.00  0.00     0.016 A 
ATOM     29  C   UNL     1      -8.720  -9.149 -23.302  1.00  0.00     0.016 A 
ATOM     30  C   UNL     1     -10.073  -8.927 -23.054  1.00  0.00     0.018 A 
ATOM     31  Br  UNL     1     -10.770  -9.219 -21.321  1.00  0.00    -0.051 Br
ENDBRANCH  22  25
ENDBRANCH  17  21
ENDBRANCH   2  15
TORSDOF 6
ENDMDL
MODEL 6
REMARK VINA RESULT:    -8.216      5.795      8.368
REMARK INTER + INTRA:         -11.925
REMARK INTER:                 -10.931
REMARK INTRA:                  -0.994
REMARK UNBOUND:                -1.067
REMARK SMILES O=C(O)c1cccc(NC(=O)c2ccccc2NC(=O)c2ccc(Br)cc2)c1
REMARK SMILES IDX 9 1 10 2 11 3 8 5 4 6 5 7 28 8 6 9 7 10 2 11 1 12 3 13 12 15
REMARK SMILES IDX 13 16 17 17 14 18 16 19 15 20 18 21 19 22 20 23 21 25 22 26
REMARK SMILES IDX 27 27 23 28 26 29 24 30 25 31
REMARK H PARENT 9 4 3 14 18 24
ROOT
ATOM      1  N   UNL     1     -11.534  -6.284 -26.175  1.00  0.00    -0.322 N 
ATOM      2  C   UNL     1     -11.510  -7.659 -26.022  1.00  0.00     0.257 C 
ATOM      3  O   UNL     1     -12.236  -8.467 -26.595  1.00  0.00    -0.269 OA
ATOM      4  H   UNL     1     -10.775  -5.761 -25.755  1.00  0.00     0.170 HD
ENDROOT
BRANCH   1   5
ATOM      5  C   UNL     1     -12.464  -5.519 -26.911  1.00  0.00     0.042 A 
ATOM      6  C   UNL     1     -14.099  -3.712 -26.875  1.00  0.00     0.061 A 
ATOM      7  C   UNL     1     -14.360  -3.914 -28.233  1.00  0.00     0.016 A 
ATOM      8  C   UNL     1     -13.153  -4.515 -26.220  1.00  0.00     0.041 A 
ATOM      9  C   UNL     1     -13.680  -4.916 -28.925  1.00  0.00     0.003 A 
ATOM     10  C   UNL     1     -12.739  -5.714 -28.266  1.00  0.00     0.026 A 
BRANCH   6  11
ATOM     11  C   UNL     1     -14.793  -2.667 -26.087  1.00  0.00     0.335 C 
ATOM     12  O   UNL     1     -15.485  -1.776 -26.546  1.00  0.00    -0.246 OA
BRANCH  11  13
ATOM     13  O   UNL     1     -14.589  -2.785 -24.764  1.00  0.00    -0.478 OA
ATOM     14  H   UNL     1     -15.451  -2.541 -24.367  1.00  0.00     0.297 HD
ENDBRANCH  11  13
ENDBRANCH   6  11
ENDBRANCH   1   5
BRANCH   2  15
ATOM     15  C   UNL     1     -10.437  -8.183 -25.119  1.00  0.00     0.063 A 
ATOM     16  C   UNL     1     -10.745  -8.476 -23.777  1.00  0.00     0.016 A 
ATOM     17  C   UNL     1      -9.126  -8.396 -25.609  1.00  0.00     0.054 A 
ATOM     18  C   UNL     1      -9.755  -8.936 -22.912  1.00  0.00     0.001 A 
ATOM     19  C   UNL     1      -8.147  -8.852 -24.720  1.00  0.00     0.027 A 
ATOM     20  C   UNL     1      -8.458  -9.114 -23.382  1.00  0.00     0.002 A 
BRANCH  17  21
ATOM     21  N   UNL     1      -8.853  -8.162 -26.981  1.00  0.00    -0.321 N 
ATOM     22  C   UNL     1      -8.441  -9.064 -27.940  1.00  0.00     0.255 C 
ATOM     23  O   UNL     1      -8.118 -10.231 -27.750  1.00  0.00    -0.269 OA
ATOM     24  H   UNL     1      -8.985  -7.193 -27.272  1.00  0.00     0.170 HD
BRANCH  22  25
ATOM     25  C   UNL     1      -8.347  -8.520 -29.328  1.00  0.00     0.040 A 
ATOM     26  C   UNL     1      -7.335  -8.907 -30.218  1.00  0.00     0.015 A 
ATOM     27  C   UNL     1      -9.292  -7.565 -29.732  1.00  0.00     0.015 A 
ATOM     28  C   UNL     1      -7.288  -8.363 -31.506  1.00  0.00     0.016 A 
ATOM     29  C   UNL     1      -9.244  -7.024 -31.020  1.00  0.00     0.016 A 
ATOM     30  C   UNL     1      -8.244  -7.429 -31.901  1.00  0.00     0.018 A 
ATOM     31  Br  UNL     1      -8.175  -6.696 -33.643  1.00  0.00    -0.051 Br
ENDBRANCH  22  25
ENDBRANCH  17  21
ENDBRANCH   2  15
TORSDOF 6
ENDMDL
MODEL 7
REMARK VINA RESULT:    -8.216      4.011      6.320
REMARK INTER + INTRA:         -11.925
REMARK INTER:                 -11.140
REMARK INTRA:                  -0.784
REMARK UNBOUND:                -1.067
REMARK SMILES O=C(O)c1cccc(NC(=O)c2ccccc2NC(=O)c2ccc(Br)cc2)c1
REMARK SMILES IDX 9 1 10 2 11 3 8 5 4 6 5 7 28 8 6 9 7 10 2 11 1 12 3 13 12 15
REMARK SMILES IDX 13 16 17 17 14 18 16 19 15 20 18 21 19 22 20 23 21 25 22 26
REMARK SMILES IDX 27 27 23 28 26 29 24 30 25 31
REMARK H PARENT 9 4 3 14 18 24
ROOT
ATOM      1  N   UNL     1      -8.030  -7.659 -23.383  1.00  0.00    -0.322 N 
ATOM      2  C   UNL     1      -9.053  -8.088 -24.209  1.00  0.00     0.257 C 
ATOM      3  O   UNL     1     -10.255  -8.053 -23.955  1.00  0.00    -0.269 OA
ATOM      4  H   UNL     1      -7.103  -7.606 -23.789  1.00  0.00     0.170 HD
ENDROOT
BRANCH   1   5
ATOM      5  C   UNL     1      -8.133  -7.216 -22.047  1.00  0.00     0.042 A 
ATOM      6  C   UNL     1      -7.278  -5.722 -20.323  1.00  0.00     0.061 A 
ATOM      7  C   UNL     1      -8.203  -6.236 -19.411  1.00  0.00     0.016 A 
ATOM      8  C   UNL     1      -7.246  -6.214 -21.637  1.00  0.00     0.041 A 
ATOM      9  C   UNL     1      -9.085  -7.237 -19.813  1.00  0.00     0.003 A 
ATOM     10  C   UNL     1      -9.048  -7.726 -21.124  1.00  0.00     0.026 A 
BRANCH   6  11
ATOM     11  C   UNL     1      -6.313  -4.660 -19.953  1.00  0.00     0.335 C 
ATOM     12  O   UNL     1      -5.830  -4.497 -18.847  1.00  0.00    -0.246 OA
BRANCH  11  13
ATOM     13  O   UNL     1      -5.998  -3.854 -20.981  1.00  0.00    -0.478 OA
ATOM     14  H   UNL     1      -6.861  -3.492 -21.273  1.00  0.00     0.297 HD
ENDBRANCH  11  13
ENDBRANCH   6  11
ENDBRANCH   1   5
BRANCH   2  15
ATOM     15  C   UNL     1      -8.626  -8.566 -25.562  1.00  0.00     0.063 A 
ATOM     16  C   UNL     1      -7.604  -9.529 -25.663  1.00  0.00     0.016 A 
ATOM     17  C   UNL     1      -9.251  -8.068 -26.731  1.00  0.00     0.054 A 
ATOM     18  C   UNL     1      -7.170  -9.965 -26.912  1.00  0.00     0.001 A 
ATOM     19  C   UNL     1      -8.793  -8.516 -27.975  1.00  0.00     0.027 A 
ATOM     20  C   UNL     1      -7.758  -9.453 -28.064  1.00  0.00     0.002 A 
BRANCH  17  21
ATOM     21  N   UNL     1     -10.326  -7.153 -26.604  1.00  0.00    -0.321 N 
ATOM     22  C   UNL     1     -11.681  -7.408 -26.659  1.00  0.00     0.255 C 
ATOM     23  O   UNL     1     -12.209  -8.476 -26.945  1.00  0.00    -0.269 OA
ATOM     24  H   UNL     1     -10.035  -6.186 -26.458  1.00  0.00     0.170 HD
BRANCH  22  25
ATOM     25  C   UNL     1     -12.561  -6.234 -26.378  1.00  0.00     0.040 A 
ATOM     26  C   UNL     1     -13.623  -6.296 -25.464  1.00  0.00     0.015 A 
ATOM     27  C   UNL     1     -12.326  -5.044 -27.082  1.00  0.00     0.015 A 
ATOM     28  C   UNL     1     -14.423  -5.169 -25.240  1.00  0.00     0.016 A 
ATOM     29  C   UNL     1     -13.125  -3.920 -26.856  1.00  0.00     0.016 A 
ATOM     30  C   UNL     1     -14.167  -3.988 -25.934  1.00  0.00     0.018 A 
ATOM     31  Br  UNL     1     -15.251  -2.469 -25.629  1.00  0.00    -0.051 Br
ENDBRANCH  22  25
ENDBRANCH  17  21
ENDBRANCH   2  15
TORSDOF 6
ENDMDL
MODEL 8
REMARK VINA RESULT:    -8.123      6.001      9.287
REMARK INTER + INTRA:         -11.801
REMARK INTER:                 -10.714
REMARK INTRA:                  -1.088
REMARK UNBOUND:                -1.067
REMARK SMILES O=C(O)c1cccc(NC(=O)c2ccccc2NC(=O)c2ccc(Br)cc2)c1
REMARK SMILES IDX 9 1 10 2 11 3 8 5 4 6 5 7 28 8 6 9 7 10 2 11 1 12 3 13 12 15
REMARK SMILES IDX 13 16 17 17 14 18 16 19 15 20 18 21 19 22 20 23 21 25 22 26
REMARK SMILES IDX 27 27 23 28 26 29 24 30 25 31
REMARK H PARENT 9 4 3 14 18 24
ROOT
ATOM      1  N   UNL     1     -10.429  -6.798 -28.814  1.00  0.00    -0.322 N 
ATOM      2  C   UNL     1     -11.807  -6.904 -28.889  1.00  0.00     0.257 C 
ATOM      3  O   UNL     1     -12.439  -7.868 -29.313  1.00  0.00    -0.269 OA
ATOM      4  H   UNL     1     -10.055  -6.009 -28.300  1.00  0.00     0.170 HD
ENDROOT
BRANCH   1   5
ATOM      5  C   UNL     1      -9.470  -7.704 -29.317  1.00  0.00     0.042 A 
ATOM      6  C   UNL     1      -7.933  -8.247 -31.128  1.00  0.00     0.061 A 
ATOM      7  C   UNL     1      -7.551  -9.414 -30.460  1.00  0.00     0.016 A 
ATOM      8  C   UNL     1      -8.891  -7.398 -30.554  1.00  0.00     0.041 A 
ATOM      9  C   UNL     1      -8.128  -9.726 -29.230  1.00  0.00     0.003 A 
ATOM     10  C   UNL     1      -9.083  -8.876 -28.663  1.00  0.00     0.026 A 
BRANCH   6  11
ATOM     11  C   UNL     1      -7.358  -7.866 -32.439  1.00  0.00     0.335 C 
ATOM     12  O   UNL     1      -6.602  -8.548 -33.106  1.00  0.00    -0.246 OA
BRANCH  11  13
ATOM     13  O   UNL     1      -7.756  -6.651 -32.853  1.00  0.00    -0.478 OA
ATOM     14  H   UNL     1      -7.074  -6.043 -32.498  1.00  0.00     0.297 HD
ENDBRANCH  11  13
ENDBRANCH   6  11
ENDBRANCH   1   5
BRANCH   2  15
ATOM     15  C   UNL     1     -12.569  -5.746 -28.324  1.00  0.00     0.063 A 
ATOM     16  C   UNL     1     -13.434  -5.015 -29.160  1.00  0.00     0.016 A 
ATOM     17  C   UNL     1     -12.434  -5.394 -26.959  1.00  0.00     0.054 A 
ATOM     18  C   UNL     1     -14.129  -3.915 -28.662  1.00  0.00     0.001 A 
ATOM     19  C   UNL     1     -13.137  -4.282 -26.484  1.00  0.00     0.027 A 
ATOM     20  C   UNL     1     -13.973  -3.546 -27.330  1.00  0.00     0.002 A 
BRANCH  17  21
ATOM     21  N   UNL     1     -11.613  -6.187 -26.118  1.00  0.00    -0.321 N 
ATOM     22  C   UNL     1     -11.965  -7.290 -25.368  1.00  0.00     0.255 C 
ATOM     23  O   UNL     1     -13.098  -7.725 -25.200  1.00  0.00    -0.269 OA
ATOM     24  H   UNL     1     -10.641  -5.880 -26.077  1.00  0.00     0.170 HD
BRANCH  22  25
ATOM     25  C   UNL     1     -10.834  -7.972 -24.669  1.00  0.00     0.040 A 
ATOM     26  C   UNL     1     -11.028  -8.777 -23.537  1.00  0.00     0.015 A 
ATOM     27  C   UNL     1      -9.533  -7.767 -25.154  1.00  0.00     0.015 A 
ATOM     28  C   UNL     1      -9.934  -9.389 -22.916  1.00  0.00     0.016 A 
ATOM     29  C   UNL     1      -8.443  -8.381 -24.533  1.00  0.00     0.016 A 
ATOM     30  C   UNL     1      -8.649  -9.191 -23.419  1.00  0.00     0.018 A 
ATOM     31  Br  UNL     1      -7.175 -10.021 -22.575  1.00  0.00    -0.051 Br
ENDBRANCH  22  25
ENDBRANCH  17  21
ENDBRANCH   2  15
TORSDOF 6
ENDMDL
MODEL 9
REMARK VINA RESULT:    -7.937      5.450      7.610
REMARK INTER + INTRA:         -11.555
REMARK INTER:                 -10.131
REMARK INTRA:                  -1.424
REMARK UNBOUND:                -1.067
REMARK SMILES O=C(O)c1cccc(NC(=O)c2ccccc2NC(=O)c2ccc(Br)cc2)c1
REMARK SMILES IDX 9 1 10 2 11 3 8 5 4 6 5 7 28 8 6 9 7 10 2 11 1 12 3 13 12 15
REMARK SMILES IDX 13 16 17 17 14 18 16 19 15 20 18 21 19 22 20 23 21 25 22 26
REMARK SMILES IDX 27 27 23 28 26 29 24 30 25 31
REMARK H PARENT 9 4 3 14 18 24
ROOT
ATOM      1  N   UNL     1     -10.608  -7.029 -25.116  1.00  0.00    -0.322 N 
ATOM      2  C   UNL     1     -11.739  -7.272 -25.875  1.00  0.00     0.257 C 
ATOM      3  O   UNL     1     -12.214  -8.374 -26.138  1.00  0.00    -0.269 OA
ATOM      4  H   UNL     1     -10.426  -6.067 -24.856  1.00  0.00     0.170 HD
ENDROOT
BRANCH   1   5
ATOM      5  C   UNL     1      -9.701  -7.979 -24.598  1.00  0.00     0.042 A 
ATOM      6  C   UNL     1      -7.738  -9.361 -25.013  1.00  0.00     0.061 A 
ATOM      7  C   UNL     1      -7.822  -9.879 -23.718  1.00  0.00     0.016 A 
ATOM      8  C   UNL     1      -8.677  -8.414 -25.448  1.00  0.00     0.041 A 
ATOM      9  C   UNL     1      -8.842  -9.453 -22.870  1.00  0.00     0.003 A 
ATOM     10  C   UNL     1      -9.778  -8.510 -23.308  1.00  0.00     0.026 A 
BRANCH   6  11
ATOM     11  C   UNL     1      -6.679  -9.779 -25.961  1.00  0.00     0.335 C 
ATOM     12  O   UNL     1      -6.648  -9.515 -27.149  1.00  0.00    -0.246 OA
BRANCH  11  13
ATOM     13  O   UNL     1      -5.710 -10.506 -25.379  1.00  0.00    -0.478 OA
ATOM     14  H   UNL     1      -4.879 -10.119 -25.726  1.00  0.00     0.297 HD
ENDBRANCH  11  13
ENDBRANCH   6  11
ENDBRANCH   1   5
BRANCH   2  15
ATOM     15  C   UNL     1     -12.469  -6.052 -26.343  1.00  0.00     0.063 A 
ATOM     16  C   UNL     1     -13.371  -5.410 -25.473  1.00  0.00     0.016 A 
ATOM     17  C   UNL     1     -12.246  -5.536 -27.643  1.00  0.00     0.054 A 
ATOM     18  C   UNL     1     -14.083  -4.292 -25.899  1.00  0.00     0.001 A 
ATOM     19  C   UNL     1     -12.978  -4.415 -28.050  1.00  0.00     0.027 A 
ATOM     20  C   UNL     1     -13.892  -3.802 -27.187  1.00  0.00     0.002 A 
BRANCH  17  21
ATOM     21  N   UNL     1     -11.280  -6.154 -28.477  1.00  0.00    -0.321 N 
ATOM     22  C   UNL     1     -11.458  -7.183 -29.378  1.00  0.00     0.255 C 
ATOM     23  O   UNL     1     -12.480  -7.839 -29.542  1.00  0.00    -0.269 OA
ATOM     24  H   UNL     1     -10.339  -5.772 -28.377  1.00  0.00     0.170 HD
BRANCH  22  25
ATOM     25  C   UNL     1     -10.252  -7.535 -30.187  1.00  0.00     0.040 A 
ATOM     26  C   UNL     1      -9.035  -7.902 -29.597  1.00  0.00     0.015 A 
ATOM     27  C   UNL     1     -10.346  -7.463 -31.585  1.00  0.00     0.015 A 
ATOM     28  C   UNL     1      -7.933  -8.218 -30.400  1.00  0.00     0.016 A 
ATOM     29  C   UNL     1      -9.245  -7.780 -32.385  1.00  0.00     0.016 A 
ATOM     30  C   UNL     1      -8.045  -8.159 -31.788  1.00  0.00     0.018 A 
ATOM     31  Br  UNL     1      -6.553  -8.585 -32.868  1.00  0.00    -0.051 Br
ENDBRANCH  22  25
ENDBRANCH  17  21
ENDBRANCH   2  15
TORSDOF 6
ENDMDL
