MODEL 1
REMARK VINA RESULT:    -9.202      0.000      0.000
REMARK INTER + INTRA:         -16.330
REMARK INTER:                 -15.388
REMARK INTRA:                  -0.942
REMARK UNBOUND:                -0.942
REMARK SMILES COC(=O)N(CC(=O)O)Cc1cccc(OCc2coc(-c3ccc(C(F)(F)F)cc3)n2)c1
REMARK SMILES IDX 11 1 12 2 13 3 14 4 15 5 33 6 10 7 5 8 3 9 4 10 2 11 1 12
REMARK SMILES IDX 6 13 7 14 8 15 9 16 16 18 17 19 18 20 19 21 32 22 20 23
REMARK SMILES IDX 21 24 22 25 23 26 31 27 24 28 30 29 25 30 26 31 27 32 28 33
REMARK SMILES IDX 29 34
REMARK H PARENT 9 17
ROOT
ATOM      1  C   UNL     1       4.237   6.760  -4.687  1.00  0.00    -0.025 A 
ATOM      2  C   UNL     1       4.518   8.052  -5.148  1.00  0.00     0.006 A 
ATOM      3  C   UNL     1       5.590   8.271  -6.013  1.00  0.00     0.004 A 
ATOM      4  C   UNL     1       6.393   7.206  -6.429  1.00  0.00     0.046 A 
ATOM      5  C   UNL     1       6.128   5.913  -5.979  1.00  0.00     0.120 A 
ATOM      6  C   UNL     1       5.056   5.700  -5.107  1.00  0.00     0.052 A 
ENDROOT
BRANCH   1   7
ATOM      7  C   UNL     1       3.075   6.502  -3.758  1.00  0.00     0.159 C 
BRANCH   7   8
ATOM      8  N   UNL     1       3.486   6.477  -2.361  1.00  0.00    -0.293 N 
BRANCH   8   9
ATOM      9  C   UNL     1       3.968   5.303  -1.820  1.00  0.00     0.410 C 
ATOM     10  O   UNL     1       3.356   4.241  -1.823  1.00  0.00    -0.224 OA
BRANCH   9  11
ATOM     11  O   UNL     1       5.210   5.451  -1.282  1.00  0.00    -0.453 OA
ATOM     12  C   UNL     1       5.796   4.234  -0.819  1.00  0.00     0.284 C 
ENDBRANCH   9  11
ENDBRANCH   8   9
BRANCH   8  13
ATOM     13  C   UNL     1       3.549   7.748  -1.634  1.00  0.00     0.245 C 
BRANCH  13  14
ATOM     14  C   UNL     1       2.555   7.862  -0.486  1.00  0.00     0.323 C 
ATOM     15  O   UNL     1       2.016   6.919   0.077  1.00  0.00    -0.250 OA
BRANCH  14  16
ATOM     16  O   UNL     1       2.259   9.122  -0.107  1.00  0.00    -0.480 OA
ATOM     17  H   UNL     1       2.085   9.049   0.854  1.00  0.00     0.296 HD
ENDBRANCH  14  16
ENDBRANCH  13  14
ENDBRANCH   8  13
ENDBRANCH   7   8
ENDBRANCH   1   7
BRANCH   5  18
ATOM     18  O   UNL     1       6.829   4.785  -6.304  1.00  0.00    -0.487 OA
BRANCH  18  19
ATOM     19  C   UNL     1       8.243   4.814  -6.097  1.00  0.00     0.289 C 
BRANCH  19  20
ATOM     20  C   UNL     1       8.982   4.832  -7.390  1.00  0.00     0.117 A 
ATOM     21  C   UNL     1       9.409   3.780  -8.166  1.00  0.00     0.225 A 
ATOM     22  N   UNL     1       9.353   6.019  -7.991  1.00  0.00    -0.211 NA
ATOM     23  O   UNL     1      10.050   4.284  -9.255  1.00  0.00    -0.444 OA
ATOM     24  C   UNL     1       9.978   5.644  -9.092  1.00  0.00     0.226 A 
BRANCH  24  25
ATOM     25  C   UNL     1      10.582   6.468 -10.136  1.00  0.00     0.037 A 
ATOM     26  C   UNL     1      11.600   5.933 -10.939  1.00  0.00     0.014 A 
ATOM     27  C   UNL     1      10.175   7.790 -10.369  1.00  0.00     0.014 A 
ATOM     28  C   UNL     1      12.199   6.697 -11.945  1.00  0.00     0.014 A 
ATOM     29  C   UNL     1      10.770   8.556 -11.377  1.00  0.00     0.014 A 
ATOM     30  C   UNL     1      11.794   8.020 -12.172  1.00  0.00     0.056 A 
BRANCH  30  31
ATOM     31  C   UNL     1      12.420   8.839 -13.274  1.00  0.00     0.416 C 
ATOM     32  F   UNL     1      12.618  10.141 -12.927  1.00  0.00    -0.166 F 
ATOM     33  F   UNL     1      13.637   8.371 -13.665  1.00  0.00    -0.166 F 
ATOM     34  F   UNL     1      11.653   8.865 -14.397  1.00  0.00    -0.166 F 
ENDBRANCH  30  31
ENDBRANCH  24  25
ENDBRANCH  19  20
ENDBRANCH  18  19
ENDBRANCH   5  18
TORSDOF 12
ENDMDL
