MODEL 3
REMARK minimizedAffinity -7.27492571
REMARK CNNscore 0.852803946
REMARK CNNaffinity 7.05686188
REMARK SMILES FC(F)c1nc2ccccc2n1-c1nc(N2CCOCC2)nc(N2CCOCC2)n1
REMARK SMILES IDX 4 1 5 2 6 3 7 4 8 5 9 6 10 7 11 8 12 9 2 10 1 11 3 12 13 13
REMARK SMILES IDX 14 14 30 15 15 16 23 17 22 18 16 19 17 20 21 21 18 22 20 23
REMARK SMILES IDX 19 24 24 25 25 26 29 27 26 28 28 29 27 30
REMARK H PARENT
ROOT
ATOM      1  C   UNL     1      32.390  45.868  39.532  1.00  0.00     0.184 A 
ATOM      2  N   UNL     1      32.860  45.586  38.326  1.00  0.00    -0.227 NA
ATOM      3  C   UNL     1      34.135  46.064  38.297  1.00  0.00     0.090 A 
ATOM      4  C   UNL     1      35.059  46.020  37.242  1.00  0.00     0.030 A 
ATOM      5  C   UNL     1      36.328  46.574  37.426  1.00  0.00     0.002 A 
ATOM      6  C   UNL     1      36.669  47.162  38.641  1.00  0.00     0.002 A 
ATOM      7  C   UNL     1      35.755  47.214  39.702  1.00  0.00     0.029 A 
ATOM      8  C   UNL     1      34.479  46.655  39.509  1.00  0.00     0.076 A 
ATOM      9  N   UNL     1      33.342  46.522  40.313  1.00  0.00    -0.259 N 
ENDROOT
BRANCH   1  10
ATOM     10  C   UNL     1      31.011  45.523  39.970  1.00  0.00     0.408 C 
ATOM     11  F   UNL     1      30.288  46.616  40.331  1.00  0.00    -0.201 F 
ATOM     12  F   UNL     1      30.990  44.651  41.012  1.00  0.00    -0.201 F 
ENDBRANCH   1  10
BRANCH   9  13
ATOM     13  C   UNL     1      33.201  46.977  41.668  1.00  0.00     0.242 A 
ATOM     14  N   UNL     1      32.130  46.585  42.358  1.00  0.00    -0.176 NA
ATOM     15  N   UNL     1      34.144  47.767  42.166  1.00  0.00    -0.176 NA
ATOM     16  C   UNL     1      32.038  47.014  43.610  1.00  0.00     0.232 A 
ATOM     17  C   UNL     1      33.983  48.180  43.417  1.00  0.00     0.232 A 
ATOM     18  N   UNL     1      32.945  47.812  44.157  1.00  0.00    -0.176 NA
BRANCH  16  19
ATOM     19  N   UNL     1      30.941  46.648  44.365  1.00  0.00    -0.336 N 
ATOM     20  C   UNL     1      30.686  45.221  44.568  1.00  0.00     0.148 C 
ATOM     21  C   UNL     1      30.485  47.546  45.434  1.00  0.00     0.148 C 
ATOM     22  C   UNL     1      29.441  45.037  45.449  1.00  0.00     0.181 C 
ATOM     23  C   UNL     1      30.424  46.785  46.770  1.00  0.00     0.181 C 
ATOM     24  O   UNL     1      29.562  45.636  46.748  1.00  0.00    -0.378 OA
ENDBRANCH  16  19
BRANCH  17  25
ATOM     25  N   UNL     1      34.944  48.996  43.981  1.00  0.00    -0.336 N 
ATOM     26  C   UNL     1      35.261  50.251  43.294  1.00  0.00     0.148 C 
ATOM     27  C   UNL     1      35.109  48.998  45.440  1.00  0.00     0.148 C 
ATOM     28  C   UNL     1      36.340  51.011  44.079  1.00  0.00     0.181 C 
ATOM     29  C   UNL     1      34.995  50.432  45.982  1.00  0.00     0.181 C 
ATOM     30  O   UNL     1      35.954  51.342  45.423  1.00  0.00    -0.378 OA
ENDBRANCH  17  25
ENDBRANCH   9  13
TORSDOF 4
ENDMDL
