MODEL 1
REMARK VINA RESULT:    -8.143      0.000      0.000
REMARK INTER + INTRA:         -11.178
REMARK INTER:                 -10.523
REMARK INTRA:                  -0.655
REMARK UNBOUND:                -0.655
REMARK SMILES CC(C)NC(=O)N1[C@@H]2CC[C@H]1CN(c1ccnc(Nc3cnn(C)c3)n1)C2
REMARK SMILES IDX 7 1 8 2 9 3 10 4 11 5 12 6 13 7 27 8 5 9 4 10 6 11 2 13 1 14
REMARK SMILES IDX 3 15 14 16 15 17 26 18 16 19 18 20 17 21 19 22 20 24 21 25
REMARK SMILES IDX 25 26 22 27 23 28 24 29
REMARK H PARENT 4 12 19 23
ROOT
ATOM      1  N   UNL     1       0.237 -15.233  18.383  1.00  0.00    -0.315 N 
ATOM      2  C   UNL     1       1.447 -14.601  18.895  1.00  0.00     0.106 C 
ATOM      3  C   UNL     1       2.219 -14.298  17.603  1.00  0.00     0.029 C 
ATOM      4  C   UNL     1       1.740 -15.375  16.611  1.00  0.00     0.029 C 
ATOM      5  C   UNL     1       0.716 -16.200  17.403  1.00  0.00     0.106 C 
ATOM      6  C   UNL     1       1.410 -17.374  18.155  1.00  0.00     0.143 C 
ATOM      7  N   UNL     1       2.510 -16.889  19.030  1.00  0.00    -0.352 N 
ATOM      8  C   UNL     1       2.226 -15.621  19.775  1.00  0.00     0.143 C 
ENDROOT
BRANCH   1   9
ATOM      9  C   UNL     1      -0.852 -15.405  19.208  1.00  0.00     0.318 C 
ATOM     10  N   UNL     1      -1.947 -15.938  18.574  1.00  0.00    -0.336 N 
ATOM     11  O   UNL     1      -0.839 -15.117  20.399  1.00  0.00    -0.249 OA
ATOM     12  H   UNL     1      -2.047 -15.621  17.621  1.00  0.00     0.165 HD
BRANCH  10  13
ATOM     13  C   UNL     1      -3.189 -16.166  19.299  1.00  0.00     0.077 C 
ATOM     14  C   UNL     1      -4.087 -14.931  19.258  1.00  0.00     0.030 C 
ATOM     15  C   UNL     1      -3.910 -17.377  18.712  1.00  0.00     0.030 C 
ENDBRANCH  10  13
ENDBRANCH   1   9
BRANCH   7  16
ATOM     16  C   UNL     1       3.202 -17.843  19.799  1.00  0.00     0.134 A 
ATOM     17  C   UNL     1       3.464 -17.638  21.139  1.00  0.00     0.067 A 
ATOM     18  N   UNL     1       3.570 -19.003  19.218  1.00  0.00    -0.195 NA
ATOM     19  C   UNL     1       4.140 -18.630  21.807  1.00  0.00     0.119 A 
ATOM     20  C   UNL     1       4.229 -19.926  19.938  1.00  0.00     0.229 A 
ATOM     21  N   UNL     1       4.539 -19.772  21.232  1.00  0.00    -0.221 NA
BRANCH  20  22
ATOM     22  N   UNL     1       4.650 -21.133  19.375  1.00  0.00    -0.321 N 
ATOM     23  H   UNL     1       4.766 -20.979  18.382  1.00  0.00     0.170 HD
BRANCH  22  24
ATOM     24  C   UNL     1       4.907 -22.330  19.933  1.00  0.00     0.079 A 
ATOM     25  C   UNL     1       6.119 -22.897  20.376  1.00  0.00     0.161 A 
ATOM     26  C   UNL     1       3.959 -23.294  20.181  1.00  0.00     0.134 A 
ATOM     27  N   UNL     1       5.955 -24.131  20.867  1.00  0.00    -0.180 NA
ATOM     28  N   UNL     1       4.631 -24.342  20.743  1.00  0.00    -0.274 N 
ATOM     29  C   UNL     1       4.068 -25.593  21.188  1.00  0.00     0.173 C 
ENDBRANCH  22  24
ENDBRANCH  20  22
ENDBRANCH   7  16
TORSDOF 5
ENDMDL
