MODEL 1
REMARK VINA RESULT:   -11.117      0.000      0.000
REMARK INTER + INTRA:         -15.541
REMARK INTER:                 -15.016
REMARK INTRA:                  -0.524
REMARK UNBOUND:                -0.524
REMARK SMILES COC(=O)N1CCC(n2ncc3c(N4[C@@H]5CC[C@H]4COC5)nc(-c4ccc(NC(=O)Nc5cccnc5)cc4)nc32)CC1
REMARK SMILES IDX 9 1 10 2 11 3 12 4 13 5 22 6 23 7 40 8 41 9 8 10 3 11 4 12
REMARK SMILES IDX 5 13 6 14 43 15 7 16 42 17 2 18 1 19 24 20 25 21 39 22 26 23
REMARK SMILES IDX 38 24 27 25 28 26 29 27 30 28 31 29 32 32 33 33 37 34 34 35
REMARK SMILES IDX 36 36 35 37 14 38 15 39 18 40 16 41 21 42 17 43 19 44 20 45
REMARK H PARENT 28 30 31 31
ROOT
ATOM      1  N   UNL     1      48.963  -2.226 -45.581  1.00  0.00    -0.244 N 
ATOM      2  N   UNL     1      48.143  -2.573 -46.600  1.00  0.00    -0.178 NA
ATOM      3  C   UNL     1      48.754  -2.058 -47.672  1.00  0.00     0.149 A 
ATOM      4  C   UNL     1      49.934  -1.348 -47.359  1.00  0.00     0.082 A 
ATOM      5  C   UNL     1      50.940  -0.625 -48.019  1.00  0.00     0.144 A 
ATOM      6  N   UNL     1      51.966  -0.165 -47.249  1.00  0.00    -0.210 NA
ATOM      7  C   UNL     1      51.981  -0.385 -45.913  1.00  0.00     0.163 A 
ATOM      8  N   UNL     1      51.044  -1.042 -45.210  1.00  0.00    -0.208 NA
ATOM      9  C   UNL     1      50.054  -1.502 -45.989  1.00  0.00     0.164 A 
ENDROOT
BRANCH   1  10
ATOM     10  C   UNL     1      48.656  -2.623 -44.214  1.00  0.00     0.113 C 
ATOM     11  C   UNL     1      49.549  -2.501 -40.104  1.00  0.00     0.409 C 
ATOM     12  O   UNL     1      49.209  -1.558 -39.398  1.00  0.00    -0.224 OA
ATOM     13  N   UNL     1      49.048  -2.739 -41.374  1.00  0.00    -0.308 N 
ATOM     14  C   UNL     1      48.011  -1.867 -41.909  1.00  0.00     0.125 C 
ATOM     15  C   UNL     1      49.414  -3.896 -42.184  1.00  0.00     0.125 C 
ATOM     16  C   UNL     1      48.351  -1.412 -43.324  1.00  0.00     0.049 C 
ATOM     17  C   UNL     1      49.773  -3.480 -43.605  1.00  0.00     0.049 C 
BRANCH  11  18
ATOM     18  O   UNL     1      50.462  -3.432 -39.719  1.00  0.00    -0.453 OA
ATOM     19  C   UNL     1      51.767  -2.906 -39.474  1.00  0.00     0.284 C 
ENDBRANCH  11  18
ENDBRANCH   1  10
BRANCH   7  20
ATOM     20  C   UNL     1      53.127   0.160 -45.152  1.00  0.00     0.019 A 
ATOM     21  C   UNL     1      53.150   0.146 -43.746  1.00  0.00     0.014 A 
ATOM     22  C   UNL     1      54.243   0.721 -45.797  1.00  0.00     0.014 A 
ATOM     23  C   UNL     1      54.233   0.660 -43.017  1.00  0.00     0.027 A 
ATOM     24  C   UNL     1      55.324   1.243 -45.073  1.00  0.00     0.027 A 
ATOM     25  C   UNL     1      55.330   1.211 -43.674  1.00  0.00     0.042 A 
BRANCH  25  26
ATOM     26  N   UNL     1      56.454   1.756 -43.019  1.00  0.00    -0.308 N 
ATOM     27  C   UNL     1      56.828   1.576 -41.696  1.00  0.00     0.323 C 
ATOM     28  O   UNL     1      56.283   0.819 -40.904  1.00  0.00    -0.248 OA
ATOM     29  N   UNL     1      57.920   2.374 -41.388  1.00  0.00    -0.306 N 
ATOM     30  H   UNL     1      57.092   2.275 -43.599  1.00  0.00     0.171 HD
ATOM     31  H   UNL     1      58.167   3.085 -42.059  1.00  0.00     0.171 HD
BRANCH  29  32
ATOM     32  C   UNL     1      58.667   2.359 -40.190  1.00  0.00     0.061 A 
ATOM     33  C   UNL     1      57.985   2.621 -38.999  1.00  0.00     0.029 A 
ATOM     34  C   UNL     1      60.037   2.126 -40.098  1.00  0.00     0.137 A 
ATOM     35  C   UNL     1      58.676   2.644 -37.789  1.00  0.00     0.022 A 
ATOM     36  N   UNL     1      60.735   2.144 -38.933  1.00  0.00    -0.263 NA
ATOM     37  C   UNL     1      60.040   2.404 -37.808  1.00  0.00     0.111 A 
ENDBRANCH  29  32
ENDBRANCH  25  26
ENDBRANCH   7  20
BRANCH   5  38
ATOM     38  N   UNL     1      50.978  -0.374 -49.366  1.00  0.00    -0.345 N 
ATOM     39  C   UNL     1      50.164   0.618 -50.071  1.00  0.00     0.110 C 
ATOM     40  C   UNL     1      52.238  -0.421 -50.119  1.00  0.00     0.110 C 
ATOM     41  C   UNL     1      50.334   0.150 -51.529  1.00  0.00     0.030 C 
ATOM     42  C   UNL     1      50.832   2.007 -49.870  1.00  0.00     0.185 C 
ATOM     43  C   UNL     1      51.706  -0.546 -51.559  1.00  0.00     0.030 C 
ATOM     44  C   UNL     1      52.966   0.936 -49.931  1.00  0.00     0.185 C 
ATOM     45  O   UNL     1      52.173   2.046 -50.408  1.00  0.00    -0.377 OA
ENDBRANCH   5  38
TORSDOF 6
ENDMDL
MODEL 2
REMARK VINA RESULT:   -10.675      1.386      2.098
REMARK INTER + INTRA:         -14.943
REMARK INTER:                 -14.420
REMARK INTRA:                  -0.524
REMARK UNBOUND:                -0.524
REMARK SMILES COC(=O)N1CCC(n2ncc3c(N4[C@@H]5CC[C@H]4COC5)nc(-c4ccc(NC(=O)Nc5cccnc5)cc4)nc32)CC1
REMARK SMILES IDX 9 1 10 2 11 3 12 4 13 5 22 6 23 7 40 8 41 9 8 10 3 11 4 12
REMARK SMILES IDX 5 13 6 14 43 15 7 16 42 17 2 18 1 19 24 20 25 21 39 22 26 23
REMARK SMILES IDX 38 24 27 25 28 26 29 27 30 28 31 29 32 32 33 33 37 34 34 35
REMARK SMILES IDX 36 36 35 37 14 38 15 39 18 40 16 41 21 42 17 43 19 44 20 45
REMARK H PARENT 28 30 31 31
ROOT
ATOM      1  N   UNL     1      49.033  -2.006 -45.285  1.00  0.00    -0.244 N 
ATOM      2  N   UNL     1      48.173  -2.392 -46.255  1.00  0.00    -0.178 NA
ATOM      3  C   UNL     1      48.763  -1.961 -47.375  1.00  0.00     0.149 A 
ATOM      4  C   UNL     1      49.970  -1.268 -47.142  1.00  0.00     0.082 A 
ATOM      5  C   UNL     1      50.975  -0.615 -47.875  1.00  0.00     0.144 A 
ATOM      6  N   UNL     1      52.036  -0.138 -47.166  1.00  0.00    -0.210 NA
ATOM      7  C   UNL     1      52.087  -0.275 -45.820  1.00  0.00     0.163 A 
ATOM      8  N   UNL     1      51.155  -0.862 -45.050  1.00  0.00    -0.208 NA
ATOM      9  C   UNL     1      50.129  -1.340 -45.769  1.00  0.00     0.164 A 
ENDROOT
BRANCH   1  10
ATOM     10  C   UNL     1      48.758  -2.309 -43.887  1.00  0.00     0.113 C 
ATOM     11  C   UNL     1      47.275  -4.943 -40.961  1.00  0.00     0.409 C 
ATOM     12  O   UNL     1      47.946  -5.876 -40.533  1.00  0.00    -0.224 OA
ATOM     13  N   UNL     1      47.792  -3.888 -41.694  1.00  0.00    -0.308 N 
ATOM     14  C   UNL     1      49.226  -3.823 -41.941  1.00  0.00     0.125 C 
ATOM     15  C   UNL     1      46.997  -2.752 -42.149  1.00  0.00     0.125 C 
ATOM     16  C   UNL     1      49.520  -3.552 -43.412  1.00  0.00     0.049 C 
ATOM     17  C   UNL     1      47.254  -2.457 -43.623  1.00  0.00     0.049 C 
BRANCH  11  18
ATOM     18  O   UNL     1      45.934  -4.833 -40.760  1.00  0.00    -0.453 OA
ATOM     19  C   UNL     1      45.154  -5.793 -41.475  1.00  0.00     0.284 C 
ENDBRANCH  11  18
ENDBRANCH   1  10
BRANCH   7  20
ATOM     20  C   UNL     1      53.271   0.282 -45.129  1.00  0.00     0.019 A 
ATOM     21  C   UNL     1      54.339   0.852 -45.844  1.00  0.00     0.014 A 
ATOM     22  C   UNL     1      53.386   0.264 -43.728  1.00  0.00     0.014 A 
ATOM     23  C   UNL     1      55.464   1.382 -45.197  1.00  0.00     0.027 A 
ATOM     24  C   UNL     1      54.513   0.786 -43.077  1.00  0.00     0.027 A 
ATOM     25  C   UNL     1      55.560   1.357 -43.808  1.00  0.00     0.042 A 
BRANCH  25  26
ATOM     26  N   UNL     1      56.659   1.859 -43.080  1.00  0.00    -0.308 N 
ATOM     27  C   UNL     1      56.901   1.728 -41.722  1.00  0.00     0.323 C 
ATOM     28  O   UNL     1      56.233   1.057 -40.946  1.00  0.00    -0.248 OA
ATOM     29  N   UNL     1      58.018   2.465 -41.355  1.00  0.00    -0.306 N 
ATOM     30  H   UNL     1      57.382   2.299 -43.625  1.00  0.00     0.171 HD
ATOM     31  H   UNL     1      58.374   3.118 -42.035  1.00  0.00     0.171 HD
BRANCH  29  32
ATOM     32  C   UNL     1      58.653   2.466 -40.094  1.00  0.00     0.061 A 
ATOM     33  C   UNL     1      59.981   2.035 -40.037  1.00  0.00     0.029 A 
ATOM     34  C   UNL     1      58.056   2.838 -38.892  1.00  0.00     0.137 A 
ATOM     35  C   UNL     1      60.649   1.990 -38.815  1.00  0.00     0.022 A 
ATOM     36  N   UNL     1      58.683   2.802 -37.688  1.00  0.00    -0.263 NA
ATOM     37  C   UNL     1      59.962   2.378 -37.677  1.00  0.00     0.111 A 
ENDBRANCH  29  32
ENDBRANCH  25  26
ENDBRANCH   7  20
BRANCH   5  38
ATOM     38  N   UNL     1      50.978  -0.449 -49.235  1.00  0.00    -0.345 N 
ATOM     39  C   UNL     1      50.132   0.486 -49.981  1.00  0.00     0.110 C 
ATOM     40  C   UNL     1      52.220  -0.526 -50.015  1.00  0.00     0.110 C 
ATOM     41  C   UNL     1      50.275  -0.071 -51.411  1.00  0.00     0.030 C 
ATOM     42  C   UNL     1      50.782   1.893 -49.884  1.00  0.00     0.185 C 
ATOM     43  C   UNL     1      51.657  -0.749 -51.431  1.00  0.00     0.030 C 
ATOM     44  C   UNL     1      52.931   0.851 -49.930  1.00  0.00     0.185 C 
ATOM     45  O   UNL     1      52.110   1.917 -50.456  1.00  0.00    -0.377 OA
ENDBRANCH   5  38
TORSDOF 6
ENDMDL
MODEL 3
REMARK VINA RESULT:    -9.120      1.389      6.788
REMARK INTER + INTRA:         -12.844
REMARK INTER:                 -13.030
REMARK INTRA:                   0.186
REMARK UNBOUND:                -0.524
REMARK SMILES COC(=O)N1CCC(n2ncc3c(N4[C@@H]5CC[C@H]4COC5)nc(-c4ccc(NC(=O)Nc5cccnc5)cc4)nc32)CC1
REMARK SMILES IDX 9 1 10 2 11 3 12 4 13 5 22 6 23 7 40 8 41 9 8 10 3 11 4 12
REMARK SMILES IDX 5 13 6 14 43 15 7 16 42 17 2 18 1 19 24 20 25 21 39 22 26 23
REMARK SMILES IDX 38 24 27 25 28 26 29 27 30 28 31 29 32 32 33 33 37 34 34 35
REMARK SMILES IDX 36 36 35 37 14 38 15 39 18 40 16 41 21 42 17 43 19 44 20 45
REMARK H PARENT 28 30 31 31
ROOT
ATOM      1  N   UNL     1      49.099  -1.474 -46.888  1.00  0.00    -0.244 N 
ATOM      2  N   UNL     1      47.996  -2.259 -46.887  1.00  0.00    -0.178 NA
ATOM      3  C   UNL     1      48.046  -2.852 -45.689  1.00  0.00     0.149 A 
ATOM      4  C   UNL     1      49.184  -2.494 -44.933  1.00  0.00     0.082 A 
ATOM      5  C   UNL     1      49.755  -2.777 -43.681  1.00  0.00     0.144 A 
ATOM      6  N   UNL     1      50.886  -2.090 -43.357  1.00  0.00    -0.210 NA
ATOM      7  C   UNL     1      51.430  -1.203 -44.224  1.00  0.00     0.163 A 
ATOM      8  N   UNL     1      50.957  -0.901 -45.444  1.00  0.00    -0.208 NA
ATOM      9  C   UNL     1      49.834  -1.573 -45.736  1.00  0.00     0.164 A 
ENDROOT
BRANCH   1  10
ATOM     10  C   UNL     1      49.406  -0.630 -48.035  1.00  0.00     0.113 C 
ATOM     11  C   UNL     1      51.465  -0.020 -51.653  1.00  0.00     0.409 C 
ATOM     12  O   UNL     1      51.061  -0.488 -52.712  1.00  0.00    -0.224 OA
ATOM     13  N   UNL     1      50.702   0.062 -50.500  1.00  0.00    -0.308 N 
ATOM     14  C   UNL     1      49.311  -0.372 -50.530  1.00  0.00     0.125 C 
ATOM     15  C   UNL     1      51.171   0.673 -49.261  1.00  0.00     0.125 C 
ATOM     16  C   UNL     1      48.997  -1.293 -49.357  1.00  0.00     0.049 C 
ATOM     17  C   UNL     1      50.885  -0.225 -48.063  1.00  0.00     0.049 C 
BRANCH  11  18
ATOM     18  O   UNL     1      52.719   0.479 -51.487  1.00  0.00    -0.453 OA
ATOM     19  C   UNL     1      53.763  -0.461 -51.748  1.00  0.00     0.284 C 
ENDBRANCH  11  18
ENDBRANCH   1  10
BRANCH   7  20
ATOM     20  C   UNL     1      52.665  -0.511 -43.795  1.00  0.00     0.019 A 
ATOM     21  C   UNL     1      53.427   0.257 -44.692  1.00  0.00     0.014 A 
ATOM     22  C   UNL     1      53.137  -0.593 -42.474  1.00  0.00     0.014 A 
ATOM     23  C   UNL     1      54.599   0.916 -44.294  1.00  0.00     0.027 A 
ATOM     24  C   UNL     1      54.313   0.058 -42.072  1.00  0.00     0.027 A 
ATOM     25  C   UNL     1      55.050   0.825 -42.980  1.00  0.00     0.042 A 
BRANCH  25  26
ATOM     26  N   UNL     1      56.221   1.448 -42.500  1.00  0.00    -0.308 N 
ATOM     27  C   UNL     1      56.705   1.446 -41.201  1.00  0.00     0.323 C 
ATOM     28  O   UNL     1      56.231   0.807 -40.271  1.00  0.00    -0.248 OA
ATOM     29  N   UNL     1      57.815   2.273 -41.095  1.00  0.00    -0.306 N 
ATOM     30  H   UNL     1      56.806   1.879 -43.196  1.00  0.00     0.171 HD
ATOM     31  H   UNL     1      58.000   2.885 -41.874  1.00  0.00     0.171 HD
BRANCH  29  32
ATOM     32  C   UNL     1      58.658   2.415 -39.972  1.00  0.00     0.061 A 
ATOM     33  C   UNL     1      60.010   2.102 -40.133  1.00  0.00     0.029 A 
ATOM     34  C   UNL     1      58.248   2.821 -38.704  1.00  0.00     0.137 A 
ATOM     35  C   UNL     1      60.883   2.199 -39.051  1.00  0.00     0.022 A 
ATOM     36  N   UNL     1      59.077   2.922 -37.633  1.00  0.00    -0.263 NA
ATOM     37  C   UNL     1      60.373   2.608 -37.831  1.00  0.00     0.111 A 
ENDBRANCH  29  32
ENDBRANCH  25  26
ENDBRANCH   7  20
BRANCH   5  38
ATOM     38  N   UNL     1      49.249  -3.662 -42.765  1.00  0.00    -0.345 N 
ATOM     39  C   UNL     1      49.567  -5.090 -42.693  1.00  0.00     0.110 C 
ATOM     40  C   UNL     1      49.006  -3.267 -41.372  1.00  0.00     0.110 C 
ATOM     41  C   UNL     1      48.425  -5.597 -41.791  1.00  0.00     0.030 C 
ATOM     42  C   UNL     1      50.932  -5.235 -41.967  1.00  0.00     0.185 C 
ATOM     43  C   UNL     1      48.048  -4.386 -40.919  1.00  0.00     0.030 C 
ATOM     44  C   UNL     1      50.348  -3.365 -40.599  1.00  0.00     0.185 C 
ATOM     45  O   UNL     1      50.889  -4.706 -40.622  1.00  0.00    -0.377 OA
ENDBRANCH   5  38
TORSDOF 6
ENDMDL
MODEL 4
REMARK VINA RESULT:    -8.887      4.235     12.235
REMARK INTER + INTRA:         -12.528
REMARK INTER:                 -11.907
REMARK INTRA:                  -0.622
REMARK UNBOUND:                -0.524
REMARK SMILES COC(=O)N1CCC(n2ncc3c(N4[C@@H]5CC[C@H]4COC5)nc(-c4ccc(NC(=O)Nc5cccnc5)cc4)nc32)CC1
REMARK SMILES IDX 9 1 10 2 11 3 12 4 13 5 22 6 23 7 40 8 41 9 8 10 3 11 4 12
REMARK SMILES IDX 5 13 6 14 43 15 7 16 42 17 2 18 1 19 24 20 25 21 39 22 26 23
REMARK SMILES IDX 38 24 27 25 28 26 29 27 30 28 31 29 32 32 33 33 37 34 34 35
REMARK SMILES IDX 36 36 35 37 14 38 15 39 18 40 16 41 21 42 17 43 19 44 20 45
REMARK H PARENT 28 30 31 31
ROOT
ATOM      1  N   UNL     1      51.160  -0.849 -42.089  1.00  0.00    -0.244 N 
ATOM      2  N   UNL     1      51.702  -1.150 -40.886  1.00  0.00    -0.178 NA
ATOM      3  C   UNL     1      50.847  -2.047 -40.384  1.00  0.00     0.149 A 
ATOM      4  C   UNL     1      49.741  -2.301 -41.224  1.00  0.00     0.082 A 
ATOM      5  C   UNL     1      48.579  -3.091 -41.235  1.00  0.00     0.144 A 
ATOM      6  N   UNL     1      47.819  -3.040 -42.365  1.00  0.00    -0.210 NA
ATOM      7  C   UNL     1      48.170  -2.243 -43.401  1.00  0.00     0.163 A 
ATOM      8  N   UNL     1      49.248  -1.443 -43.452  1.00  0.00    -0.208 NA
ATOM      9  C   UNL     1      49.993  -1.522 -42.340  1.00  0.00     0.164 A 
ENDROOT
BRANCH   1  10
ATOM     10  C   UNL     1      51.813   0.102 -42.979  1.00  0.00     0.113 C 
ATOM     11  C   UNL     1      54.754   0.953 -45.865  1.00  0.00     0.409 C 
ATOM     12  O   UNL     1      54.589   0.688 -47.051  1.00  0.00    -0.224 OA
ATOM     13  N   UNL     1      53.736   0.967 -44.925  1.00  0.00    -0.308 N 
ATOM     14  C   UNL     1      52.366   0.712 -45.350  1.00  0.00     0.125 C 
ATOM     15  C   UNL     1      53.930   1.340 -43.528  1.00  0.00     0.125 C 
ATOM     16  C   UNL     1      51.693  -0.317 -44.449  1.00  0.00     0.049 C 
ATOM     17  C   UNL     1      53.281   0.326 -42.593  1.00  0.00     0.049 C 
BRANCH  11  18
ATOM     18  O   UNL     1      55.964   1.270 -45.331  1.00  0.00    -0.453 OA
ATOM     19  C   UNL     1      56.448   2.562 -45.701  1.00  0.00     0.284 C 
ENDBRANCH  11  18
ENDBRANCH   1  10
BRANCH   7  20
ATOM     20  C   UNL     1      47.280  -2.242 -44.583  1.00  0.00     0.019 A 
ATOM     21  C   UNL     1      47.210  -1.137 -45.449  1.00  0.00     0.014 A 
ATOM     22  C   UNL     1      46.460  -3.341 -44.892  1.00  0.00     0.014 A 
ATOM     23  C   UNL     1      46.369  -1.127 -46.572  1.00  0.00     0.027 A 
ATOM     24  C   UNL     1      45.612  -3.333 -46.009  1.00  0.00     0.027 A 
ATOM     25  C   UNL     1      45.565  -2.226 -46.863  1.00  0.00     0.042 A 
BRANCH  25  26
ATOM     26  N   UNL     1      44.686  -2.295 -47.964  1.00  0.00    -0.308 N 
ATOM     27  C   UNL     1      44.830  -3.060 -49.111  1.00  0.00     0.323 C 
ATOM     28  O   UNL     1      45.713  -3.886 -49.304  1.00  0.00    -0.248 OA
ATOM     29  N   UNL     1      43.825  -2.764 -50.021  1.00  0.00    -0.306 N 
ATOM     30  H   UNL     1      43.823  -1.786 -47.869  1.00  0.00     0.171 HD
ATOM     31  H   UNL     1      43.268  -1.946 -49.832  1.00  0.00     0.171 HD
BRANCH  29  32
ATOM     32  C   UNL     1      43.559  -3.436 -51.234  1.00  0.00     0.061 A 
ATOM     33  C   UNL     1      42.742  -4.568 -51.182  1.00  0.00     0.029 A 
ATOM     34  C   UNL     1      44.066  -3.077 -52.480  1.00  0.00     0.137 A 
ATOM     35  C   UNL     1      42.467  -5.285 -52.345  1.00  0.00     0.022 A 
ATOM     36  N   UNL     1      43.816  -3.759 -53.628  1.00  0.00    -0.263 NA
ATOM     37  C   UNL     1      43.025  -4.846 -53.534  1.00  0.00     0.111 A 
ENDBRANCH  29  32
ENDBRANCH  25  26
ENDBRANCH   7  20
BRANCH   5  38
ATOM     38  N   UNL     1      48.176  -3.915 -40.218  1.00  0.00    -0.345 N 
ATOM     39  C   UNL     1      47.075  -4.878 -40.287  1.00  0.00     0.110 C 
ATOM     40  C   UNL     1      49.144  -4.526 -39.297  1.00  0.00     0.110 C 
ATOM     41  C   UNL     1      46.847  -5.167 -38.790  1.00  0.00     0.030 C 
ATOM     42  C   UNL     1      47.602  -6.150 -41.007  1.00  0.00     0.185 C 
ATOM     43  C   UNL     1      48.218  -4.926 -38.132  1.00  0.00     0.030 C 
ATOM     44  C   UNL     1      49.729  -5.792 -39.978  1.00  0.00     0.185 C 
ATOM     45  O   UNL     1      48.702  -6.759 -40.293  1.00  0.00    -0.377 OA
ENDBRANCH   5  38
TORSDOF 6
ENDMDL
MODEL 5
REMARK VINA RESULT:    -8.690      3.124      3.860
REMARK INTER + INTRA:         -12.262
REMARK INTER:                 -12.004
REMARK INTRA:                  -0.258
REMARK UNBOUND:                -0.524
REMARK SMILES COC(=O)N1CCC(n2ncc3c(N4[C@@H]5CC[C@H]4COC5)nc(-c4ccc(NC(=O)Nc5cccnc5)cc4)nc32)CC1
REMARK SMILES IDX 9 1 10 2 11 3 12 4 13 5 22 6 23 7 40 8 41 9 8 10 3 11 4 12
REMARK SMILES IDX 5 13 6 14 43 15 7 16 42 17 2 18 1 19 24 20 25 21 39 22 26 23
REMARK SMILES IDX 38 24 27 25 28 26 29 27 30 28 31 29 32 32 33 33 37 34 34 35
REMARK SMILES IDX 36 36 35 37 14 38 15 39 18 40 16 41 21 42 17 43 19 44 20 45
REMARK H PARENT 28 30 31 31
ROOT
ATOM      1  N   UNL     1      47.211  -2.793 -46.936  1.00  0.00    -0.244 N 
ATOM      2  N   UNL     1      46.708  -2.850 -48.191  1.00  0.00    -0.178 NA
ATOM      3  C   UNL     1      47.655  -2.258 -48.926  1.00  0.00     0.149 A 
ATOM      4  C   UNL     1      48.743  -1.782 -48.162  1.00  0.00     0.082 A 
ATOM      5  C   UNL     1      49.961  -1.109 -48.358  1.00  0.00     0.144 A 
ATOM      6  N   UNL     1      50.743  -0.931 -47.257  1.00  0.00    -0.210 NA
ATOM      7  C   UNL     1      50.337  -1.366 -46.041  1.00  0.00     0.163 A 
ATOM      8  N   UNL     1      49.178  -1.991 -45.772  1.00  0.00    -0.208 NA
ATOM      9  C   UNL     1      48.432  -2.173 -46.871  1.00  0.00     0.164 A 
ENDROOT
BRANCH   1  10
ATOM     10  C   UNL     1      46.474  -3.361 -45.815  1.00  0.00     0.113 C 
ATOM     11  C   UNL     1      44.147  -6.468 -44.194  1.00  0.00     0.409 C 
ATOM     12  O   UNL     1      44.656  -7.495 -43.759  1.00  0.00    -0.224 OA
ATOM     13  N   UNL     1      44.853  -5.309 -44.470  1.00  0.00    -0.308 N 
ATOM     14  C   UNL     1      46.280  -5.255 -44.181  1.00  0.00     0.125 C 
ATOM     15  C   UNL     1      44.231  -4.073 -44.932  1.00  0.00     0.125 C 
ATOM     16  C   UNL     1      47.062  -4.704 -45.368  1.00  0.00     0.049 C 
ATOM     17  C   UNL     1      44.978  -3.497 -46.130  1.00  0.00     0.049 C 
BRANCH  11  18
ATOM     18  O   UNL     1      42.818  -6.346 -44.457  1.00  0.00    -0.453 OA
ATOM     19  C   UNL     1      41.991  -7.258 -43.733  1.00  0.00     0.284 C 
ENDBRANCH  11  18
ENDBRANCH   1  10
BRANCH   7  20
ATOM     20  C   UNL     1      51.244  -1.119 -44.898  1.00  0.00     0.019 A 
ATOM     21  C   UNL     1      51.252  -1.960 -43.771  1.00  0.00     0.014 A 
ATOM     22  C   UNL     1      52.135  -0.033 -44.883  1.00  0.00     0.014 A 
ATOM     23  C   UNL     1      52.108  -1.734 -42.684  1.00  0.00     0.027 A 
ATOM     24  C   UNL     1      52.988   0.202 -43.795  1.00  0.00     0.027 A 
ATOM     25  C   UNL     1      52.986  -0.653 -42.687  1.00  0.00     0.042 A 
BRANCH  25  26
ATOM     26  N   UNL     1      53.873  -0.349 -41.633  1.00  0.00    -0.308 N 
ATOM     27  C   UNL     1      55.072   0.341 -41.714  1.00  0.00     0.323 C 
ATOM     28  O   UNL     1      55.506   0.890 -42.717  1.00  0.00    -0.248 OA
ATOM     29  N   UNL     1      55.721   0.330 -40.486  1.00  0.00    -0.306 N 
ATOM     30  H   UNL     1      53.559  -0.600 -40.710  1.00  0.00     0.171 HD
ATOM     31  H   UNL     1      55.361  -0.303 -39.789  1.00  0.00     0.171 HD
BRANCH  29  32
ATOM     32  C   UNL     1      56.889   1.043 -40.143  1.00  0.00     0.061 A 
ATOM     33  C   UNL     1      57.477   0.766 -38.905  1.00  0.00     0.029 A 
ATOM     34  C   UNL     1      57.496   2.021 -40.927  1.00  0.00     0.137 A 
ATOM     35  C   UNL     1      58.618   1.458 -38.503  1.00  0.00     0.022 A 
ATOM     36  N   UNL     1      58.606   2.712 -40.558  1.00  0.00    -0.263 NA
ATOM     37  C   UNL     1      59.139   2.416 -39.356  1.00  0.00     0.111 A 
ENDBRANCH  29  32
ENDBRANCH  25  26
ENDBRANCH   7  20
BRANCH   5  38
ATOM     38  N   UNL     1      50.423  -0.650 -49.563  1.00  0.00    -0.345 N 
ATOM     39  C   UNL     1      49.917   0.523 -50.279  1.00  0.00     0.110 C 
ATOM     40  C   UNL     1      51.849  -0.707 -49.909  1.00  0.00     0.110 C 
ATOM     41  C   UNL     1      50.502   0.281 -51.684  1.00  0.00     0.030 C 
ATOM     42  C   UNL     1      50.560   1.783 -49.638  1.00  0.00     0.185 C 
ATOM     43  C   UNL     1      51.781  -0.541 -51.439  1.00  0.00     0.030 C 
ATOM     44  C   UNL     1      52.553   0.519 -49.268  1.00  0.00     0.185 C 
ATOM     45  O   UNL     1      52.001   1.768 -49.742  1.00  0.00    -0.377 OA
ENDBRANCH   5  38
TORSDOF 6
ENDMDL
MODEL 6
REMARK VINA RESULT:    -8.685      5.529     10.025
REMARK INTER + INTRA:         -12.256
REMARK INTER:                 -11.444
REMARK INTRA:                  -0.812
REMARK UNBOUND:                -0.524
REMARK SMILES COC(=O)N1CCC(n2ncc3c(N4[C@@H]5CC[C@H]4COC5)nc(-c4ccc(NC(=O)Nc5cccnc5)cc4)nc32)CC1
REMARK SMILES IDX 9 1 10 2 11 3 12 4 13 5 22 6 23 7 40 8 41 9 8 10 3 11 4 12
REMARK SMILES IDX 5 13 6 14 43 15 7 16 42 17 2 18 1 19 24 20 25 21 39 22 26 23
REMARK SMILES IDX 38 24 27 25 28 26 29 27 30 28 31 29 32 32 33 33 37 34 34 35
REMARK SMILES IDX 36 36 35 37 14 38 15 39 18 40 16 41 21 42 17 43 19 44 20 45
REMARK H PARENT 28 30 31 31
ROOT
ATOM      1  N   UNL     1      43.351  -3.789 -48.862  1.00  0.00    -0.244 N 
ATOM      2  N   UNL     1      42.316  -4.658 -48.908  1.00  0.00    -0.178 NA
ATOM      3  C   UNL     1      42.368  -5.258 -47.714  1.00  0.00     0.149 A 
ATOM      4  C   UNL     1      43.445  -4.819 -46.912  1.00  0.00     0.082 A 
ATOM      5  C   UNL     1      43.989  -5.070 -45.642  1.00  0.00     0.144 A 
ATOM      6  N   UNL     1      45.050  -4.299 -45.270  1.00  0.00    -0.210 NA
ATOM      7  C   UNL     1      45.553  -3.363 -46.109  1.00  0.00     0.163 A 
ATOM      8  N   UNL     1      45.103  -3.086 -47.345  1.00  0.00    -0.208 NA
ATOM      9  C   UNL     1      44.049  -3.841 -47.683  1.00  0.00     0.164 A 
ENDROOT
BRANCH   1  10
ATOM     10  C   UNL     1      43.633  -2.911 -49.990  1.00  0.00     0.113 C 
ATOM     11  C   UNL     1      43.383  -2.090 -54.109  1.00  0.00     0.409 C 
ATOM     12  O   UNL     1      42.369  -1.619 -54.612  1.00  0.00    -0.224 OA
ATOM     13  N   UNL     1      43.633  -2.114 -52.747  1.00  0.00    -0.308 N 
ATOM     14  C   UNL     1      42.680  -1.499 -51.833  1.00  0.00     0.125 C 
ATOM     15  C   UNL     1      44.868  -2.624 -52.160  1.00  0.00     0.125 C 
ATOM     16  C   UNL     1      42.347  -2.432 -50.674  1.00  0.00     0.049 C 
ATOM     17  C   UNL     1      44.576  -3.573 -51.003  1.00  0.00     0.049 C 
BRANCH  11  18
ATOM     18  O   UNL     1      44.389  -2.646 -54.836  1.00  0.00    -0.453 OA
ATOM     19  C   UNL     1      45.140  -1.708 -55.610  1.00  0.00     0.284 C 
ENDBRANCH  11  18
ENDBRANCH   1  10
BRANCH   7  20
ATOM     20  C   UNL     1      46.713  -2.579 -45.628  1.00  0.00     0.019 A 
ATOM     21  C   UNL     1      46.799  -1.191 -45.836  1.00  0.00     0.014 A 
ATOM     22  C   UNL     1      47.783  -3.185 -44.948  1.00  0.00     0.014 A 
ATOM     23  C   UNL     1      47.895  -0.441 -45.384  1.00  0.00     0.027 A 
ATOM     24  C   UNL     1      48.884  -2.441 -44.501  1.00  0.00     0.027 A 
ATOM     25  C   UNL     1      48.945  -1.059 -44.710  1.00  0.00     0.042 A 
BRANCH  25  26
ATOM     26  N   UNL     1      50.086  -0.382 -44.231  1.00  0.00    -0.308 N 
ATOM     27  C   UNL     1      51.321  -0.269 -44.850  1.00  0.00     0.323 C 
ATOM     28  O   UNL     1      51.586  -0.666 -45.976  1.00  0.00    -0.248 OA
ATOM     29  N   UNL     1      52.227   0.366 -44.011  1.00  0.00    -0.306 N 
ATOM     30  H   UNL     1      49.962   0.138 -43.378  1.00  0.00     0.171 HD
ATOM     31  H   UNL     1      51.951   0.481 -43.049  1.00  0.00     0.171 HD
BRANCH  29  32
ATOM     32  C   UNL     1      53.534   0.783 -44.343  1.00  0.00     0.061 A 
ATOM     33  C   UNL     1      54.334   1.289 -43.314  1.00  0.00     0.029 A 
ATOM     34  C   UNL     1      54.089   0.756 -45.620  1.00  0.00     0.137 A 
ATOM     35  C   UNL     1      55.623   1.739 -43.588  1.00  0.00     0.022 A 
ATOM     36  N   UNL     1      55.342   1.191 -45.915  1.00  0.00    -0.263 NA
ATOM     37  C   UNL     1      56.078   1.673 -44.894  1.00  0.00     0.111 A 
ENDBRANCH  29  32
ENDBRANCH  25  26
ENDBRANCH   7  20
BRANCH   5  38
ATOM     38  N   UNL     1      43.522  -6.001 -44.752  1.00  0.00    -0.345 N 
ATOM     39  C   UNL     1      43.094  -7.361 -45.088  1.00  0.00     0.110 C 
ATOM     40  C   UNL     1      44.076  -6.112 -43.397  1.00  0.00     0.110 C 
ATOM     41  C   UNL     1      42.313  -7.742 -43.816  1.00  0.00     0.030 C 
ATOM     42  C   UNL     1      44.368  -8.239 -45.222  1.00  0.00     0.185 C 
ATOM     43  C   UNL     1      42.960  -6.909 -42.695  1.00  0.00     0.030 C 
ATOM     44  C   UNL     1      45.374  -6.960 -43.472  1.00  0.00     0.185 C 
ATOM     45  O   UNL     1      45.125  -8.286 -43.991  1.00  0.00    -0.377 OA
ENDBRANCH   5  38
TORSDOF 6
ENDMDL
MODEL 7
REMARK VINA RESULT:    -8.673      4.730     11.276
REMARK INTER + INTRA:         -12.239
REMARK INTER:                 -11.417
REMARK INTRA:                  -0.822
REMARK UNBOUND:                -0.524
REMARK SMILES COC(=O)N1CCC(n2ncc3c(N4[C@@H]5CC[C@H]4COC5)nc(-c4ccc(NC(=O)Nc5cccnc5)cc4)nc32)CC1
REMARK SMILES IDX 9 1 10 2 11 3 12 4 13 5 22 6 23 7 40 8 41 9 8 10 3 11 4 12
REMARK SMILES IDX 5 13 6 14 43 15 7 16 42 17 2 18 1 19 24 20 25 21 39 22 26 23
REMARK SMILES IDX 38 24 27 25 28 26 29 27 30 28 31 29 32 32 33 33 37 34 34 35
REMARK SMILES IDX 36 36 35 37 14 38 15 39 18 40 16 41 21 42 17 43 19 44 20 45
REMARK H PARENT 28 30 31 31
ROOT
ATOM      1  N   UNL     1      50.464  -0.978 -44.312  1.00  0.00    -0.244 N 
ATOM      2  N   UNL     1      51.613  -0.268 -44.239  1.00  0.00    -0.178 NA
ATOM      3  C   UNL     1      51.918  -0.047 -45.522  1.00  0.00     0.149 A 
ATOM      4  C   UNL     1      51.006  -0.638 -46.425  1.00  0.00     0.082 A 
ATOM      5  C   UNL     1      50.814  -0.752 -47.811  1.00  0.00     0.144 A 
ATOM      6  N   UNL     1      49.684  -1.396 -48.219  1.00  0.00    -0.210 NA
ATOM      7  C   UNL     1      48.819  -1.915 -47.316  1.00  0.00     0.163 A 
ATOM      8  N   UNL     1      48.949  -1.868 -45.980  1.00  0.00    -0.208 NA
ATOM      9  C   UNL     1      50.056  -1.214 -45.600  1.00  0.00     0.164 A 
ENDROOT
BRANCH   1  10
ATOM     10  C   UNL     1      49.781  -1.411 -43.100  1.00  0.00     0.113 C 
ATOM     11  C   UNL     1      49.820  -3.522 -39.462  1.00  0.00     0.409 C 
ATOM     12  O   UNL     1      50.306  -3.042 -38.443  1.00  0.00    -0.224 OA
ATOM     13  N   UNL     1      49.518  -2.788 -40.597  1.00  0.00    -0.308 N 
ATOM     14  C   UNL     1      49.725  -1.346 -40.592  1.00  0.00     0.125 C 
ATOM     15  C   UNL     1      48.887  -3.356 -41.783  1.00  0.00     0.125 C 
ATOM     16  C   UNL     1      50.480  -0.894 -41.837  1.00  0.00     0.049 C 
ATOM     17  C   UNL     1      49.622  -2.936 -43.051  1.00  0.00     0.049 C 
BRANCH  11  18
ATOM     18  O   UNL     1      49.516  -4.841 -39.595  1.00  0.00    -0.453 OA
ATOM     19  C   UNL     1      49.231  -5.505 -38.363  1.00  0.00     0.284 C 
ENDBRANCH  11  18
ENDBRANCH   1  10
BRANCH   7  20
ATOM     20  C   UNL     1      47.624  -2.608 -47.848  1.00  0.00     0.019 A 
ATOM     21  C   UNL     1      46.693  -3.226 -46.995  1.00  0.00     0.014 A 
ATOM     22  C   UNL     1      47.368  -2.687 -49.227  1.00  0.00     0.014 A 
ATOM     23  C   UNL     1      45.558  -3.885 -47.490  1.00  0.00     0.027 A 
ATOM     24  C   UNL     1      46.239  -3.352 -49.728  1.00  0.00     0.027 A 
ATOM     25  C   UNL     1      45.320  -3.951 -48.860  1.00  0.00     0.042 A 
BRANCH  25  26
ATOM     26  N   UNL     1      44.211  -4.601 -49.441  1.00  0.00    -0.308 N 
ATOM     27  C   UNL     1      44.210  -5.447 -50.539  1.00  0.00     0.323 C 
ATOM     28  O   UNL     1      45.207  -5.846 -51.125  1.00  0.00    -0.248 OA
ATOM     29  N   UNL     1      42.910  -5.788 -50.886  1.00  0.00    -0.306 N 
ATOM     30  H   UNL     1      43.336  -4.493 -48.956  1.00  0.00     0.171 HD
ATOM     31  H   UNL     1      42.170  -5.259 -50.452  1.00  0.00     0.171 HD
BRANCH  29  32
ATOM     32  C   UNL     1      42.516  -6.737 -51.855  1.00  0.00     0.061 A 
ATOM     33  C   UNL     1      42.506  -8.082 -51.478  1.00  0.00     0.029 A 
ATOM     34  C   UNL     1      42.159  -6.444 -53.169  1.00  0.00     0.137 A 
ATOM     35  C   UNL     1      42.150  -9.064 -52.401  1.00  0.00     0.022 A 
ATOM     36  N   UNL     1      41.811  -7.381 -54.089  1.00  0.00    -0.263 NA
ATOM     37  C   UNL     1      41.816  -8.667 -53.685  1.00  0.00     0.111 A 
ENDBRANCH  29  32
ENDBRANCH  25  26
ENDBRANCH   7  20
BRANCH   5  38
ATOM     38  N   UNL     1      51.654  -0.247 -48.769  1.00  0.00    -0.345 N 
ATOM     39  C   UNL     1      51.706  -0.675 -50.168  1.00  0.00     0.110 C 
ATOM     40  C   UNL     1      52.004   1.179 -48.805  1.00  0.00     0.110 C 
ATOM     41  C   UNL     1      53.062  -0.084 -50.602  1.00  0.00     0.030 C 
ATOM     42  C   UNL     1      50.545   0.029 -50.923  1.00  0.00     0.185 C 
ATOM     43  C   UNL     1      53.263   1.142 -49.693  1.00  0.00     0.030 C 
ATOM     44  C   UNL     1      50.861   1.942 -49.526  1.00  0.00     0.185 C 
ATOM     45  O   UNL     1      50.664   1.469 -50.878  1.00  0.00    -0.377 OA
ENDBRANCH   5  38
TORSDOF 6
ENDMDL
MODEL 8
REMARK VINA RESULT:    -8.482      4.113     12.146
REMARK INTER + INTRA:         -11.982
REMARK INTER:                 -11.496
REMARK INTRA:                  -0.486
REMARK UNBOUND:                -0.524
REMARK SMILES COC(=O)N1CCC(n2ncc3c(N4[C@@H]5CC[C@H]4COC5)nc(-c4ccc(NC(=O)Nc5cccnc5)cc4)nc32)CC1
REMARK SMILES IDX 9 1 10 2 11 3 12 4 13 5 22 6 23 7 40 8 41 9 8 10 3 11 4 12
REMARK SMILES IDX 5 13 6 14 43 15 7 16 42 17 2 18 1 19 24 20 25 21 39 22 26 23
REMARK SMILES IDX 38 24 27 25 28 26 29 27 30 28 31 29 32 32 33 33 37 34 34 35
REMARK SMILES IDX 36 36 35 37 14 38 15 39 18 40 16 41 21 42 17 43 19 44 20 45
REMARK H PARENT 28 30 31 31
ROOT
ATOM      1  N   UNL     1      51.306  -1.702 -42.460  1.00  0.00    -0.244 N 
ATOM      2  N   UNL     1      51.621  -2.003 -41.179  1.00  0.00    -0.178 NA
ATOM      3  C   UNL     1      50.883  -3.091 -40.932  1.00  0.00     0.149 A 
ATOM      4  C   UNL     1      50.066  -3.474 -42.018  1.00  0.00     0.082 A 
ATOM      5  C   UNL     1      49.126  -4.468 -42.336  1.00  0.00     0.144 A 
ATOM      6  N   UNL     1      48.639  -4.462 -43.609  1.00  0.00    -0.210 NA
ATOM      7  C   UNL     1      49.035  -3.520 -44.497  1.00  0.00     0.163 A 
ATOM      8  N   UNL     1      49.907  -2.525 -44.258  1.00  0.00    -0.208 NA
ATOM      9  C   UNL     1      50.388  -2.561 -43.007  1.00  0.00     0.164 A 
ENDROOT
BRANCH   1  10
ATOM     10  C   UNL     1      51.925  -0.565 -43.128  1.00  0.00     0.113 C 
ATOM     11  C   UNL     1      54.690   0.952 -45.913  1.00  0.00     0.409 C 
ATOM     12  O   UNL     1      54.438   0.996 -47.112  1.00  0.00    -0.224 OA
ATOM     13  N   UNL     1      53.738   0.740 -44.929  1.00  0.00    -0.308 N 
ATOM     14  C   UNL     1      52.336   0.615 -45.304  1.00  0.00     0.125 C 
ATOM     15  C   UNL     1      54.036   0.747 -43.501  1.00  0.00     0.125 C 
ATOM     16  C   UNL     1      51.695  -0.600 -44.644  1.00  0.00     0.049 C 
ATOM     17  C   UNL     1      53.421  -0.462 -42.805  1.00  0.00     0.049 C 
BRANCH  11  18
ATOM     18  O   UNL     1      55.941   1.110 -45.405  1.00  0.00    -0.453 OA
ATOM     19  C   UNL     1      56.447   2.443 -45.497  1.00  0.00     0.284 C 
ENDBRANCH  11  18
ENDBRANCH   1  10
BRANCH   7  20
ATOM     20  C   UNL     1      48.446  -3.581 -45.853  1.00  0.00     0.019 A 
ATOM     21  C   UNL     1      47.415  -4.483 -46.167  1.00  0.00     0.014 A 
ATOM     22  C   UNL     1      48.893  -2.745 -46.891  1.00  0.00     0.014 A 
ATOM     23  C   UNL     1      46.851  -4.548 -47.449  1.00  0.00     0.027 A 
ATOM     24  C   UNL     1      48.338  -2.812 -48.177  1.00  0.00     0.027 A 
ATOM     25  C   UNL     1      47.306  -3.711 -48.465  1.00  0.00     0.042 A 
BRANCH  25  26
ATOM     26  N   UNL     1      46.801  -3.717 -49.782  1.00  0.00    -0.308 N 
ATOM     27  C   UNL     1      45.532  -3.346 -50.200  1.00  0.00     0.323 C 
ATOM     28  O   UNL     1      44.669  -2.851 -49.487  1.00  0.00    -0.248 OA
ATOM     29  N   UNL     1      45.371  -3.609 -51.553  1.00  0.00    -0.306 N 
ATOM     30  H   UNL     1      47.462  -3.949 -50.504  1.00  0.00     0.171 HD
ATOM     31  H   UNL     1      46.077  -4.181 -51.991  1.00  0.00     0.171 HD
BRANCH  29  32
ATOM     32  C   UNL     1      44.274  -3.239 -52.361  1.00  0.00     0.061 A 
ATOM     33  C   UNL     1      44.335  -2.002 -53.009  1.00  0.00     0.029 A 
ATOM     34  C   UNL     1      43.121  -3.996 -52.548  1.00  0.00     0.137 A 
ATOM     35  C   UNL     1      43.269  -1.574 -53.798  1.00  0.00     0.022 A 
ATOM     36  N   UNL     1      42.067  -3.602 -53.310  1.00  0.00    -0.263 NA
ATOM     37  C   UNL     1      42.165  -2.401 -53.914  1.00  0.00     0.111 A 
ENDBRANCH  29  32
ENDBRANCH  25  26
ENDBRANCH   7  20
BRANCH   5  38
ATOM     38  N   UNL     1      48.691  -5.446 -41.480  1.00  0.00    -0.345 N 
ATOM     39  C   UNL     1      48.835  -5.429 -40.023  1.00  0.00     0.110 C 
ATOM     40  C   UNL     1      47.435  -6.169 -41.719  1.00  0.00     0.110 C 
ATOM     41  C   UNL     1      48.560  -6.907 -39.687  1.00  0.00     0.030 C 
ATOM     42  C   UNL     1      47.709  -4.527 -39.446  1.00  0.00     0.185 C 
ATOM     43  C   UNL     1      47.637  -7.400 -40.816  1.00  0.00     0.030 C 
ATOM     44  C   UNL     1      46.265  -5.299 -41.186  1.00  0.00     0.185 C 
ATOM     45  O   UNL     1      46.393  -5.028 -39.772  1.00  0.00    -0.377 OA
ENDBRANCH   5  38
TORSDOF 6
ENDMDL
MODEL 9
REMARK VINA RESULT:    -8.339      4.730      7.400
REMARK INTER + INTRA:         -11.788
REMARK INTER:                 -10.943
REMARK INTRA:                  -0.845
REMARK UNBOUND:                -0.524
REMARK SMILES COC(=O)N1CCC(n2ncc3c(N4[C@@H]5CC[C@H]4COC5)nc(-c4ccc(NC(=O)Nc5cccnc5)cc4)nc32)CC1
REMARK SMILES IDX 9 1 10 2 11 3 12 4 13 5 22 6 23 7 40 8 41 9 8 10 3 11 4 12
REMARK SMILES IDX 5 13 6 14 43 15 7 16 42 17 2 18 1 19 24 20 25 21 39 22 26 23
REMARK SMILES IDX 38 24 27 25 28 26 29 27 30 28 31 29 32 32 33 33 37 34 34 35
REMARK SMILES IDX 36 36 35 37 14 38 15 39 18 40 16 41 21 42 17 43 19 44 20 45
REMARK H PARENT 28 30 31 31
ROOT
ATOM      1  N   UNL     1      44.017  -6.429 -44.495  1.00  0.00    -0.244 N 
ATOM      2  N   UNL     1      42.944  -7.153 -44.889  1.00  0.00    -0.178 NA
ATOM      3  C   UNL     1      42.801  -6.813 -46.174  1.00  0.00     0.149 A 
ATOM      4  C   UNL     1      43.740  -5.850 -46.607  1.00  0.00     0.082 A 
ATOM      5  C   UNL     1      44.066  -5.141 -47.775  1.00  0.00     0.144 A 
ATOM      6  N   UNL     1      45.163  -4.334 -47.711  1.00  0.00    -0.210 NA
ATOM      7  C   UNL     1      45.871  -4.217 -46.563  1.00  0.00     0.163 A 
ATOM      8  N   UNL     1      45.604  -4.840 -45.404  1.00  0.00    -0.208 NA
ATOM      9  C   UNL     1      44.534  -5.644 -45.493  1.00  0.00     0.164 A 
ENDROOT
BRANCH   1  10
ATOM     10  C   UNL     1      44.521  -6.531 -43.132  1.00  0.00     0.113 C 
ATOM     11  C   UNL     1      47.261  -5.342 -40.169  1.00  0.00     0.409 C 
ATOM     12  O   UNL     1      47.106  -4.310 -39.525  1.00  0.00    -0.224 OA
ATOM     13  N   UNL     1      46.271  -5.930 -40.939  1.00  0.00    -0.308 N 
ATOM     14  C   UNL     1      44.937  -5.345 -40.960  1.00  0.00     0.125 C 
ATOM     15  C   UNL     1      46.445  -7.189 -41.656  1.00  0.00     0.125 C 
ATOM     16  C   UNL     1      44.424  -5.194 -42.387  1.00  0.00     0.049 C 
ATOM     17  C   UNL     1      45.955  -7.075 -43.095  1.00  0.00     0.049 C 
BRANCH  11  18
ATOM     18  O   UNL     1      48.430  -6.035 -40.201  1.00  0.00    -0.453 OA
ATOM     19  C   UNL     1      49.585  -5.226 -40.431  1.00  0.00     0.284 C 
ENDBRANCH  11  18
ENDBRANCH   1  10
BRANCH   7  20
ATOM     20  C   UNL     1      47.039  -3.309 -46.581  1.00  0.00     0.019 A 
ATOM     21  C   UNL     1      46.885  -1.913 -46.638  1.00  0.00     0.014 A 
ATOM     22  C   UNL     1      48.356  -3.799 -46.548  1.00  0.00     0.014 A 
ATOM     23  C   UNL     1      47.987  -1.045 -46.655  1.00  0.00     0.027 A 
ATOM     24  C   UNL     1      49.461  -2.936 -46.573  1.00  0.00     0.027 A 
ATOM     25  C   UNL     1      49.284  -1.549 -46.620  1.00  0.00     0.042 A 
BRANCH  25  26
ATOM     26  N   UNL     1      50.446  -0.749 -46.643  1.00  0.00    -0.308 N 
ATOM     27  C   UNL     1      51.305  -0.480 -45.589  1.00  0.00     0.323 C 
ATOM     28  O   UNL     1      51.240  -0.986 -44.477  1.00  0.00    -0.248 OA
ATOM     29  N   UNL     1      52.263   0.449 -45.970  1.00  0.00    -0.306 N 
ATOM     30  H   UNL     1      50.717  -0.395 -47.545  1.00  0.00     0.171 HD
ATOM     31  H   UNL     1      52.108   0.929 -46.842  1.00  0.00     0.171 HD
BRANCH  29  32
ATOM     32  C   UNL     1      53.385   0.861 -45.218  1.00  0.00     0.061 A 
ATOM     33  C   UNL     1      54.593   1.035 -45.899  1.00  0.00     0.029 A 
ATOM     34  C   UNL     1      53.395   1.087 -43.844  1.00  0.00     0.137 A 
ATOM     35  C   UNL     1      55.739   1.416 -45.204  1.00  0.00     0.022 A 
ATOM     36  N   UNL     1      54.497   1.457 -43.141  1.00  0.00    -0.263 NA
ATOM     37  C   UNL     1      55.642   1.611 -43.836  1.00  0.00     0.111 A 
ENDBRANCH  29  32
ENDBRANCH  25  26
ENDBRANCH   7  20
BRANCH   5  38
ATOM     38  N   UNL     1      43.388  -5.221 -48.963  1.00  0.00    -0.345 N 
ATOM     39  C   UNL     1      43.184  -4.118 -49.904  1.00  0.00     0.110 C 
ATOM     40  C   UNL     1      43.463  -6.419 -49.808  1.00  0.00     0.110 C 
ATOM     41  C   UNL     1      42.048  -4.687 -50.776  1.00  0.00     0.030 C 
ATOM     42  C   UNL     1      44.482  -3.965 -50.743  1.00  0.00     0.185 C 
ATOM     43  C   UNL     1      42.229  -6.214 -50.707  1.00  0.00     0.030 C 
ATOM     44  C   UNL     1      44.763  -6.335 -50.653  1.00  0.00     0.185 C 
ATOM     45  O   UNL     1      44.785  -5.161 -51.495  1.00  0.00    -0.377 OA
ENDBRANCH   5  38
TORSDOF 6
ENDMDL
