MODEL 9
REMARK minimizedAffinity -6.07718468
REMARK CNNscore 0.122904435
REMARK CNNaffinity 6.00009537
REMARK SMILES CCOC(=O)C1=C(C(F)(F)F)NC2=C(C(=O)CC(C)(C)C2)[C@@H]1c1ccc(S(=O)(=O)c2ccccc2)cc1
REMARK SMILES IDX 6 1 7 2 12 3 13 4 14 5 15 6 16 7 17 8 18 9 19 10 20 11 21 12
REMARK SMILES IDX 22 13 4 15 5 16 3 17 2 18 1 19 8 20 9 21 10 22 11 23 23 24
REMARK SMILES IDX 24 25 37 26 25 27 36 28 26 29 27 30 28 31 29 32 30 33 31 34
REMARK SMILES IDX 35 35 32 36 34 37 33 38
REMARK H PARENT 12 14
ROOT
ATOM      1  C   UNL     1       8.771   0.234  32.329  1.00  0.00     0.078 C 
ATOM      2  C   UNL     1       7.491  -0.171  32.151  1.00  0.00     0.132 C 
ATOM      3  N   UNL     1       6.499   0.798  31.931  1.00  0.00    -0.354 N 
ATOM      4  C   UNL     1       6.710   2.159  32.073  1.00  0.00     0.023 C 
ATOM      5  C   UNL     1       7.959   2.629  32.264  1.00  0.00     0.027 C 
ATOM      6  C   UNL     1       8.182   4.083  32.502  1.00  0.00     0.162 C 
ATOM      7  O   UNL     1       9.288   4.500  32.836  1.00  0.00    -0.294 OA
ATOM      8  C   UNL     1       7.018   5.028  32.297  1.00  0.00     0.087 C 
ATOM      9  C   UNL     1       5.683   4.410  32.741  1.00  0.00    -0.023 C 
ATOM     10  C   UNL     1       4.532   5.352  32.346  1.00  0.00     0.012 C 
ATOM     11  C   UNL     1       5.655   4.238  34.275  1.00  0.00     0.012 C 
ATOM     12  C   UNL     1       5.489   3.050  32.039  1.00  0.00     0.061 C 
ATOM     13  C   UNL     1       9.169   1.705  32.293  1.00  0.00     0.094 C 
ATOM     14  H   UNL     1       5.534   0.463  31.947  1.00  0.00     0.166 HD
ENDROOT
BRANCH   1  15
ATOM     15  C   UNL     1       9.883  -0.703  32.585  1.00  0.00     0.337 C 
ATOM     16  O   UNL     1      10.910  -0.385  33.163  1.00  0.00    -0.246 OA
BRANCH  15  17
ATOM     17  O   UNL     1       9.604  -1.903  32.024  1.00  0.00    -0.463 OA
BRANCH  17  18
ATOM     18  C   UNL     1      10.268  -2.180  30.782  1.00  0.00     0.230 C 
ATOM     19  C   UNL     1      11.276  -1.090  30.475  1.00  0.00     0.049 C 
ENDBRANCH  17  18
ENDBRANCH  15  17
ENDBRANCH   1  15
BRANCH   2  20
ATOM     20  C   UNL     1       7.048  -1.626  32.244  1.00  0.00     0.431 C 
ATOM     21  F   UNL     1       5.699  -1.747  32.310  1.00  0.00    -0.165 F 
ATOM     22  F   UNL     1       7.539  -2.196  33.382  1.00  0.00    -0.165 F 
ATOM     23  F   UNL     1       7.487  -2.392  31.216  1.00  0.00    -0.165 F 
ENDBRANCH   2  20
BRANCH  13  24
ATOM     24  C   UNL     1      10.105   1.973  31.109  1.00  0.00    -0.035 A 
ATOM     25  C   UNL     1      11.484   2.121  31.331  1.00  0.00     0.006 A 
ATOM     26  C   UNL     1       9.614   2.067  29.794  1.00  0.00     0.006 A 
ATOM     27  C   UNL     1      12.358   2.348  30.266  1.00  0.00     0.021 A 
ATOM     28  C   UNL     1      10.482   2.290  28.724  1.00  0.00     0.021 A 
ATOM     29  C   UNL     1      11.852   2.416  28.966  1.00  0.00     0.072 A 
BRANCH  29  30
ATOM     30  S   UNL     1      12.956   2.696  27.602  1.00  0.00     0.206 S 
ATOM     31  O   UNL     1      13.103   1.445  26.881  1.00  0.00    -0.219 OA
ATOM     32  O   UNL     1      14.125   3.378  28.130  1.00  0.00    -0.219 OA
BRANCH  30  33
ATOM     33  C   UNL     1      12.113   3.828  26.520  1.00  0.00     0.072 A 
ATOM     34  C   UNL     1      11.905   5.151  26.920  1.00  0.00     0.021 A 
ATOM     35  C   UNL     1      11.689   3.385  25.263  1.00  0.00     0.021 A 
ATOM     36  C   UNL     1      11.247   6.030  26.061  1.00  0.00     0.001 A 
ATOM     37  C   UNL     1      11.032   4.270  24.410  1.00  0.00     0.001 A 
ATOM     38  C   UNL     1      10.809   5.589  24.811  1.00  0.00     0.000 A 
ENDBRANCH  30  33
ENDBRANCH  29  30
ENDBRANCH  13  24
TORSDOF 7
ENDMDL
