MODEL 1
REMARK VINA RESULT:    -7.530      0.000      0.000
REMARK INTER + INTRA:         -11.030
REMARK INTER:                  -9.951
REMARK INTRA:                  -1.079
REMARK UNBOUND:                -1.079
REMARK SMILES CCC(CC)n1cnc2c(-c3cnc(N)cn3)nc(N3C[C@H]4CC[C@@H](C3)O4)nc21
REMARK SMILES IDX 6 1 7 2 8 3 9 4 10 5 18 6 19 7 28 8 29 9 3 10 2 11 1 12 4 13
REMARK SMILES IDX 5 14 11 15 17 16 12 17 16 18 13 19 14 20 15 21 20 24 21 25
REMARK SMILES IDX 26 26 22 27 25 28 23 29 27 30 24 31
REMARK H PARENT 15 22 15 23
ROOT
ATOM      1  N   UNL     1      49.606  -0.738 -50.114  1.00  0.00    -0.312 N 
ATOM      2  C   UNL     1      49.321  -1.255 -51.362  1.00  0.00     0.202 A 
ATOM      3  N   UNL     1      48.387  -2.173 -51.373  1.00  0.00    -0.233 NA
ATOM      4  C   UNL     1      48.018  -2.293 -50.059  1.00  0.00     0.136 A 
ATOM      5  C   UNL     1      47.063  -3.099 -49.404  1.00  0.00     0.124 A 
ATOM      6  N   UNL     1      46.918  -2.990 -48.051  1.00  0.00    -0.209 NA
ATOM      7  C   UNL     1      47.709  -2.117 -47.364  1.00  0.00     0.228 A 
ATOM      8  N   UNL     1      48.629  -1.276 -47.923  1.00  0.00    -0.193 NA
ATOM      9  C   UNL     1      48.761  -1.404 -49.246  1.00  0.00     0.166 A 
ENDROOT
BRANCH   1  10
ATOM     10  C   UNL     1      50.596   0.309 -49.818  1.00  0.00     0.090 C 
BRANCH  10  11
ATOM     11  C   UNL     1      51.162   0.933 -51.119  1.00  0.00     0.022 C 
ATOM     12  C   UNL     1      52.594   0.495 -51.471  1.00  0.00     0.006 C 
ENDBRANCH  10  11
BRANCH  10  13
ATOM     13  C   UNL     1      51.715  -0.235 -48.894  1.00  0.00     0.022 C 
ATOM     14  C   UNL     1      51.889   0.537 -47.575  1.00  0.00     0.006 C 
ENDBRANCH  10  13
ENDBRANCH   1  10
BRANCH   5  15
ATOM     15  C   UNL     1      46.186  -4.085 -50.105  1.00  0.00     0.110 A 
ATOM     16  N   UNL     1      45.292  -3.592 -51.013  1.00  0.00    -0.249 NA
ATOM     17  C   UNL     1      46.255  -5.466 -49.866  1.00  0.00     0.144 A 
ATOM     18  C   UNL     1      44.490  -4.473 -51.664  1.00  0.00     0.158 A 
ATOM     19  N   UNL     1      45.451  -6.349 -50.517  1.00  0.00    -0.236 NA
ATOM     20  C   UNL     1      44.569  -5.846 -51.417  1.00  0.00     0.141 A 
BRANCH  20  21
ATOM     21  N   UNL     1      43.740  -6.738 -52.094  1.00  0.00    -0.382 N 
ATOM     22  H   UNL     1      42.743  -6.707 -51.940  1.00  0.00     0.158 HD
ATOM     23  H   UNL     1      44.148  -7.404 -52.734  1.00  0.00     0.158 HD
ENDBRANCH  20  21
ENDBRANCH   5  15
BRANCH   7  24
ATOM     24  N   UNL     1      47.500  -2.012 -45.984  1.00  0.00    -0.336 N 
ATOM     25  C   UNL     1      46.541  -2.866 -45.249  1.00  0.00     0.151 C 
ATOM     26  C   UNL     1      48.566  -1.630 -45.030  1.00  0.00     0.151 C 
ATOM     27  C   UNL     1      47.252  -4.045 -44.517  1.00  0.00     0.138 C 
ATOM     28  C   UNL     1      49.176  -2.869 -44.308  1.00  0.00     0.138 C 
ATOM     29  C   UNL     1      48.265  -4.845 -45.356  1.00  0.00     0.037 C 
ATOM     30  O   UNL     1      48.139  -3.488 -43.550  1.00  0.00    -0.371 OA
ATOM     31  C   UNL     1      49.566  -4.052 -45.212  1.00  0.00     0.037 C 
ENDBRANCH   7  24
TORSDOF 6
ENDMDL
