REMARK SMILES O=C(O)C[C@@H]1CCc2cc(OCCCOc3ccc(-c4cncnc4)cc3)ccc21
REMARK SMILES IDX 11 1 10 2 5 3 6 4 30 5 7 6 29 7 8 8 28 9 9 10 4 11 2 12 1 13
REMARK SMILES IDX 3 14 12 16 13 17 14 18 15 19 16 20 17 21 27 22 18 23 26 24
REMARK SMILES IDX 19 25 20 26 21 27 25 28 22 29 24 30 23 31
REMARK H PARENT 3 15
REMARK INDEX MAP 11 1 10 2 5 3 6 4 30 5 7 6 29 7 8 8 28 9 9 10 4 11 2 12 1 13
REMARK INDEX MAP 3 14 31 15 12 16 13 17 14 18 15 19 16 20 17 21 27 22 18 23
REMARK INDEX MAP 26 24 19 25 20 26 21 27 25 28 22 29 24 30 23 31
ROOT
ATOM      1  O   UNL     1      44.277 -41.961 105.048  1.00  0.00    -0.493 OA
ENDROOT
BRANCH   1   2
ATOM      2  C   UNL     1      44.030 -41.683 103.731  1.00  0.00     0.119 A 
ATOM      3  C   UNL     1      42.848 -40.356  99.835  1.00  0.00     0.031 C 
ATOM      4  C   UNL     1      42.365 -38.968 100.319  1.00  0.00     0.014 C 
ATOM      5  C   UNL     1      43.381 -40.925 101.126  1.00  0.00    -0.041 A 
ATOM      6  C   UNL     1      41.932 -39.143 101.780  1.00  0.00     0.036 C 
ATOM      7  C   UNL     1      44.224 -42.007 101.320  1.00  0.00     0.008 A 
ATOM      8  C   UNL     1      42.856 -40.232 102.221  1.00  0.00    -0.041 A 
ATOM      9  C   UNL     1      44.554 -42.380 102.631  1.00  0.00     0.047 A 
ATOM     10  C   UNL     1      43.166 -40.603 103.520  1.00  0.00     0.050 A 
BRANCH   3  11
ATOM     11  C   UNL     1      43.877 -40.267  98.709  1.00  0.00     0.131 C 
BRANCH  11  12
ATOM     12  C   UNL     1      43.226 -40.285  97.354  1.00  0.00     0.303 C 
ATOM     13  O   UNL     1      43.284 -39.429  96.490  1.00  0.00    -0.252 OA
BRANCH  12  14
ATOM     14  O   UNL     1      42.494 -41.401  97.162  1.00  0.00    -0.481 OA
ATOM     15  H   UNL     1      42.451 -42.093  97.869  1.00  0.00     0.296 HD
ENDBRANCH  12  14
ENDBRANCH  11  12
ENDBRANCH   3  11
ENDBRANCH   1   2
BRANCH   1  16
ATOM     16  C   UNL     1      45.175 -43.033 105.331  1.00  0.00     0.233 C 
BRANCH  16  17
ATOM     17  C   UNL     1      44.660 -43.760 106.567  1.00  0.00     0.083 C 
BRANCH  17  18
ATOM     18  C   UNL     1      44.278 -42.786 107.673  1.00  0.00     0.233 C 
BRANCH  18  19
ATOM     19  O   UNL     1      45.409 -42.630 108.529  1.00  0.00    -0.493 OA
BRANCH  19  20
ATOM     20  C   UNL     1      45.945 -41.377 108.636  1.00  0.00     0.119 A 
ATOM     21  C   UNL     1      47.300 -41.057 108.630  1.00  0.00     0.047 A 
ATOM     22  C   UNL     1      45.008 -40.351 108.759  1.00  0.00     0.047 A 
ATOM     23  C   UNL     1      47.710 -39.722 108.749  1.00  0.00     0.012 A 
ATOM     24  C   UNL     1      45.416 -39.019 108.874  1.00  0.00     0.012 A 
ATOM     25  C   UNL     1      46.778 -38.678 108.872  1.00  0.00    -0.015 A 
BRANCH  25  26
ATOM     26  C   UNL     1      47.212 -37.283 108.993  1.00  0.00     0.018 A 
ATOM     27  C   UNL     1      46.872 -36.471 110.064  1.00  0.00     0.123 A 
ATOM     28  C   UNL     1      48.003 -36.649 108.050  1.00  0.00     0.123 A 
ATOM     29  N   UNL     1      47.258 -35.185 110.208  1.00  0.00    -0.244 NA
ATOM     30  N   UNL     1      48.421 -35.366 108.132  1.00  0.00    -0.244 NA
ATOM     31  C   UNL     1      48.020 -34.695 109.220  1.00  0.00     0.221 A 
ENDBRANCH  25  26
ENDBRANCH  19  20
ENDBRANCH  18  19
ENDBRANCH  17  18
ENDBRANCH  16  17
ENDBRANCH   1  16
TORSDOF 10
