REMARK VINA RESULT:    -6.101      2.088      3.530
REMARK INTER + INTRA:         -13.214
REMARK INTER:                 -11.721
REMARK INTRA:                  -1.493
REMARK UNBOUND:                -1.585
REMARK SMILES CCCCC/C=C(\C/C=C\CCCCCCCC(=O)O)[N+](=O)[O-]
REMARK SMILES IDX 11 1 10 2 9 3 8 4 7 5 6 6 5 7 4 8 3 9 2 10 1 11 21 12 22 13
REMARK SMILES IDX 23 14 12 15 13 16 14 17 15 18 16 19 17 20 18 21 19 22 20 23
REMARK H PARENT 20 24
ROOT
ATOM      1  C   UNL     1      -5.633  -7.248 -20.901  1.00  0.00     0.027 C 
ENDROOT
BRANCH   1   2
ATOM      2  C   UNL     1      -7.040  -6.788 -20.640  1.00  0.00    -0.031 C 
ATOM      3  C   UNL     1      -8.100  -6.885 -21.459  1.00  0.00    -0.020 C 
BRANCH   3   4
ATOM      4  C   UNL     1      -8.146  -7.486 -22.840  1.00  0.00     0.141 C 
BRANCH   4   5
ATOM      5  C   UNL     1      -8.662  -8.894 -22.820  1.00  0.00     0.246 C 
ATOM      6  C   UNL     1      -7.972 -10.053 -22.829  1.00  0.00     0.054 C 
BRANCH   6   7
ATOM      7  C   UNL     1      -6.475 -10.198 -22.830  1.00  0.00     0.034 C 
BRANCH   7   8
ATOM      8  C   UNL     1      -5.981 -10.736 -24.176  1.00  0.00     0.004 C 
BRANCH   8   9
ATOM      9  C   UNL     1      -7.051 -10.703 -25.273  1.00  0.00     0.000 C 
BRANCH   9  10
ATOM     10  C   UNL     1      -6.775  -9.664 -26.360  1.00  0.00    -0.003 C 
ATOM     11  C   UNL     1      -7.968  -8.742 -26.562  1.00  0.00     0.004 C 
ENDBRANCH   9  10
ENDBRANCH   8   9
ENDBRANCH   7   8
ENDBRANCH   6   7
BRANCH   5  12
ATOM     12  N   UNL     1     -10.125  -9.004 -22.806  1.00  0.00     0.058 N 
ATOM     13  O   UNL     1     -10.747  -8.618 -23.806  1.00  0.00    -0.259 OA
ATOM     14  O   UNL     1     -10.655  -9.466 -21.787  1.00  0.00    -0.259 OA
ENDBRANCH   5  12
ENDBRANCH   4   5
ENDBRANCH   3   4
ENDBRANCH   1   2
BRANCH   1  15
ATOM     15  C   UNL     1      -4.706  -6.865 -19.746  1.00  0.00     0.004 C 
BRANCH  15  16
ATOM     16  C   UNL     1      -3.602  -5.913 -20.213  1.00  0.00     0.000 C 
BRANCH  16  17
ATOM     17  C   UNL     1      -4.179  -4.567 -20.653  1.00  0.00     0.000 C 
BRANCH  17  18
ATOM     18  C   UNL     1      -3.197  -3.402 -20.495  1.00  0.00     0.001 C 
BRANCH  18  19
ATOM     19  C   UNL     1      -2.932  -2.579 -21.759  1.00  0.00     0.012 C 
BRANCH  19  20
ATOM     20  C   UNL     1      -3.039  -1.072 -21.536  1.00  0.00     0.122 C 
BRANCH  20  21
ATOM     21  C   UNL     1      -4.433  -0.668 -21.133  1.00  0.00     0.303 C 
ATOM     22  O   UNL     1      -5.484  -1.001 -21.652  1.00  0.00    -0.252 OA
BRANCH  21  23
ATOM     23  O   UNL     1      -4.427   0.172 -20.079  1.00  0.00    -0.481 OA
ATOM     24  H   UNL     1      -3.600   0.686 -20.191  1.00  0.00     0.296 HD
ENDBRANCH  21  23
ENDBRANCH  20  21
ENDBRANCH  19  20
ENDBRANCH  18  19
ENDBRANCH  17  18
ENDBRANCH  16  17
ENDBRANCH  15  16
ENDBRANCH   1  15
TORSDOF 16
