REMARK VINA RESULT:    -7.137      2.009      2.778
REMARK INTER + INTRA:         -14.583
REMARK INTER:                 -13.936
REMARK INTRA:                  -0.647
REMARK UNBOUND:                -0.771
REMARK SMILES C#CCN(CC)C(=O)Oc1cccc2c(CN(C)CCC3CCCCCC3)c[nH]c12
REMARK SMILES IDX 16 1 15 2 10 3 11 4 30 5 12 6 29 7 14 8 13 9 28 10 9 12 7 13
REMARK SMILES IDX 8 14 4 15 3 16 2 17 1 18 5 19 6 20 17 21 18 22 19 23 20 24
REMARK SMILES IDX 21 25 22 26 23 27 24 28 27 30 26 31 25 32
REMARK H PARENT 29 11
REMARK Flexibility Score:   48.900
ROOT
ATOM      1  C   UNL     1     -13.816 -43.157  26.047  1.00  0.00     0.122 C 
ENDROOT
BRANCH   1   2
ATOM      2  C   UNL     1     -15.283 -42.847  26.132  1.00  0.00    -0.008 A 
ATOM      3  C   UNL     1     -18.578 -42.206  24.747  1.00  0.00     0.156 A 
ATOM      4  C   UNL     1     -18.397 -42.213  23.357  1.00  0.00     0.049 A 
ATOM      5  C   UNL     1     -17.463 -42.419  25.567  1.00  0.00     0.089 A 
ATOM      6  C   UNL     1     -17.137 -42.417  22.805  1.00  0.00     0.005 A 
ATOM      7  N   UNL     1     -17.330 -42.471  26.933  1.00  0.00    -0.358 N 
ATOM      8  C   UNL     1     -16.186 -42.637  25.034  1.00  0.00     0.008 A 
ATOM      9  C   UNL     1     -16.029 -42.630  23.630  1.00  0.00     0.011 A 
ATOM     10  C   UNL     1     -16.042 -42.748  27.284  1.00  0.00     0.088 A 
ATOM     11  H   UNL     1     -18.098 -42.309  27.578  1.00  0.00     0.166 HD
BRANCH   3  12
ATOM     12  O   UNL     1     -19.945 -42.002  25.156  1.00  0.00    -0.408 OA
BRANCH  12  13
ATOM     13  C   UNL     1     -21.119 -42.255  24.442  1.00  0.00     0.416 C 
ATOM     14  O   UNL     1     -21.427 -43.353  23.989  1.00  0.00    -0.224 OA
BRANCH  13  15
ATOM     15  N   UNL     1     -21.912 -41.126  24.301  1.00  0.00    -0.297 N 
BRANCH  15  16
ATOM     16  C   UNL     1     -22.246 -40.558  23.003  1.00  0.00     0.212 C 
ATOM     17  C   UNL     1     -21.105 -39.806  22.462  1.00  0.00    -0.085 C 
ATOM     18  C   UNL     1     -20.166 -39.191  22.035  1.00  0.00     0.006 C 
ENDBRANCH  15  16
BRANCH  15  19
ATOM     19  C   UNL     1     -22.453 -40.481  25.493  1.00  0.00     0.121 C 
ATOM     20  C   UNL     1     -23.823 -39.877  25.230  1.00  0.00     0.027 C 
ENDBRANCH  15  19
ENDBRANCH  13  15
ENDBRANCH  12  13
ENDBRANCH   3  12
ENDBRANCH   1   2
BRANCH   1  21
ATOM     21  N   UNL     1     -13.299 -43.614  27.350  1.00  0.00    -0.302 NA
ATOM     22  C   UNL     1     -11.925 -43.145  27.557  1.00  0.00     0.105 C 
BRANCH  21  23
ATOM     23  C   UNL     1     -13.346 -45.080  27.485  1.00  0.00     0.085 C 
BRANCH  23  24
ATOM     24  C   UNL     1     -12.087 -45.722  28.095  1.00  0.00     0.019 C 
BRANCH  24  25
ATOM     25  C   UNL     1     -12.229 -46.223  29.554  1.00  0.00    -0.010 C 
BRANCH  25  26
ATOM     26  C   UNL     1     -10.882 -46.092  30.290  1.00  0.00     0.003 C 
BRANCH  26  27
ATOM     27  C   UNL     1     -10.405 -44.665  30.546  1.00  0.00     0.000 C 
BRANCH  27  28
ATOM     28  C   UNL     1     -10.903 -44.115  31.882  1.00  0.00     0.000 CG0
ATOM     29  G   UNL     1     -12.416 -43.964  31.989  1.00  0.00     0.000 G0
ENDBRANCH  27  28
ENDBRANCH  26  27
ENDBRANCH  25  26
BRANCH  25  30
ATOM     30  C   UNL     1     -13.424 -45.557  30.258  1.00  0.00     0.003 C 
BRANCH  30  31
ATOM     31  C   UNL     1     -13.224 -45.255  31.742  1.00  0.00     0.000 C 
BRANCH  31  32
ATOM     32  C   UNL     1     -12.445 -43.963  31.984  1.00  0.00     0.000 CG0
ATOM     33  G   UNL     1     -10.929 -44.093  31.891  1.00  0.00     0.000 G0
ENDBRANCH  31  32
ENDBRANCH  30  31
ENDBRANCH  25  30
ENDBRANCH  24  25
ENDBRANCH  23  24
ENDBRANCH  21  23
ENDBRANCH   1  21
TORSDOF 10
