REMARK SMILES Cc1ccn2ncnc(Nc3ccc4c(cnn4Cc4cccnc4)c3)c12
REMARK SMILES IDX 11 1 12 2 13 3 14 4 15 5 16 6 17 7 18 8 26 9 10 10 9 12 2 13
REMARK SMILES IDX 3 14 27 15 4 16 5 17 8 18 6 19 7 20 1 21 19 22 20 23 21 24
REMARK SMILES IDX 25 25 22 26 24 27 23 28
REMARK H PARENT 10 11
REMARK INDEX MAP 11 1 12 2 13 3 14 4 15 5 16 6 17 7 18 8 26 9 10 10 34 11 9 12
REMARK INDEX MAP 2 13 3 14 27 15 4 16 5 17 8 18 6 19 7 20 1 21 19 22 20 23
REMARK INDEX MAP 21 24 25 25 22 26 24 27 23 28
ROOT
ATOM      1  C   UNL     1      18.426  34.030  15.640  1.00  0.00     0.040 A 
ATOM      2  C   UNL     1      19.386  34.302  14.659  1.00  0.00     0.028 A 
ATOM      3  C   UNL     1      19.069  34.372  13.294  1.00  0.00     0.031 A 
ATOM      4  C   UNL     1      17.738  34.151  12.927  1.00  0.00     0.069 A 
ATOM      5  C   UNL     1      16.752  33.872  13.866  1.00  0.00     0.022 A 
ATOM      6  C   UNL     1      15.571  33.711  13.109  1.00  0.00     0.144 A 
ATOM      7  N   UNL     1      15.770  33.871  11.799  1.00  0.00    -0.180 NA
ATOM      8  N   UNL     1      17.092  34.147  11.712  1.00  0.00    -0.260 N 
ATOM      9  C   UNL     1      17.096  33.809  15.230  1.00  0.00     0.038 A 
ENDROOT
BRANCH   1  10
ATOM     10  N   UNL     1      18.717  33.933  17.016  1.00  0.00    -0.338 N 
ATOM     11  H   UNL     1      18.267  33.142  17.498  1.00  0.00     0.168 HD
BRANCH  10  12
ATOM     12  C   UNL     1      19.508  34.728  17.820  1.00  0.00     0.158 A 
ATOM     13  C   UNL     1      17.689  36.427  18.633  1.00  0.00    -0.020 A 
ATOM     14  C   UNL     1      17.807  37.507  19.558  1.00  0.00     0.026 A 
ATOM     15  C   UNL     1      18.949  35.842  18.553  1.00  0.00     0.110 A 
ATOM     16  C   UNL     1      19.112  37.549  19.986  1.00  0.00     0.114 A 
ATOM     17  N   UNL     1      19.797  36.545  19.363  1.00  0.00    -0.235 N 
ATOM     18  N   UNL     1      20.779  34.501  17.983  1.00  0.00    -0.215 NA
ATOM     19  N   UNL     1      21.103  36.294  19.520  1.00  0.00    -0.156 NA
ATOM     20  C   UNL     1      21.522  35.290  18.819  1.00  0.00     0.247 A 
ATOM     21  C   UNL     1      16.436  36.060  17.923  1.00  0.00     0.047 C 
ENDBRANCH  10  12
ENDBRANCH   1  10
BRANCH   8  22
ATOM     22  C   UNL     1      17.686  34.370  10.400  1.00  0.00     0.182 C 
BRANCH  22  23
ATOM     23  C   UNL     1      17.352  33.266   9.437  1.00  0.00    -0.008 A 
ATOM     24  C   UNL     1      16.484  33.470   8.360  1.00  0.00     0.009 A 
ATOM     25  C   UNL     1      17.917  31.999   9.572  1.00  0.00     0.116 A 
ATOM     26  C   UNL     1      16.212  32.423   7.484  1.00  0.00     0.020 A 
ATOM     27  N   UNL     1      17.674  30.968   8.732  1.00  0.00    -0.264 NA
ATOM     28  C   UNL     1      16.825  31.202   7.710  1.00  0.00     0.111 A 
ENDBRANCH  22  23
ENDBRANCH   8  22
TORSDOF 4
