MODEL 7
REMARK VINA RESULT:    -7.980      4.035      9.878
REMARK INTER + INTRA:         -15.145
REMARK INTER:                 -12.625
REMARK INTRA:                  -2.520
REMARK UNBOUND:                -1.334
REMARK SMILES CCOC(=O)N1C[C@H](CC(=O)O)[C@@H](Cc2cccc(OCCc3nc(-c4ccccc4)oc3C)c2)C1
REMARK SMILES IDX 15 1 16 2 17 3 18 4 19 5 35 6 14 7 13 8 6 9 7 10 36 11 8 12
REMARK SMILES IDX 4 13 5 14 3 15 2 16 1 17 9 18 10 19 11 20 12 21 20 23 21 24
REMARK SMILES IDX 22 25 23 26 24 27 33 28 25 29 32 30 34 31 26 32 27 33 31 34
REMARK SMILES IDX 28 35 30 36 29 37
REMARK H PARENT 12 22
ROOT
ATOM      1  C   UNL     1     -12.647  -6.436 -26.075  1.00  0.00    -0.044 A 
ATOM      2  C   UNL     1     -13.692  -5.950 -25.284  1.00  0.00     0.004 A 
ATOM      3  C   UNL     1     -14.223  -4.681 -25.518  1.00  0.00     0.004 A 
ATOM      4  C   UNL     1     -13.723  -3.885 -26.553  1.00  0.00     0.046 A 
ATOM      5  C   UNL     1     -12.693  -4.359 -27.362  1.00  0.00     0.119 A 
ATOM      6  C   UNL     1     -12.159  -5.629 -27.115  1.00  0.00     0.050 A 
ENDROOT
BRANCH   1   7
ATOM      7  C   UNL     1     -12.061  -7.805 -25.833  1.00  0.00     0.041 C 
BRANCH   7   8
ATOM      8  C   UNL     1     -10.662  -7.860 -25.207  1.00  0.00     0.018 C 
ATOM      9  N   UNL     1      -9.194  -8.772 -23.629  1.00  0.00    -0.308 N 
ATOM     10  C   UNL     1      -8.482  -8.810 -24.894  1.00  0.00     0.127 C 
ATOM     11  C   UNL     1     -10.599  -8.463 -23.803  1.00  0.00     0.127 C 
ATOM     12  C   UNL     1      -9.580  -8.668 -25.960  1.00  0.00     0.025 C 
BRANCH   9  13
ATOM     13  C   UNL     1      -8.653  -9.058 -22.404  1.00  0.00     0.409 C 
ATOM     14  O   UNL     1      -8.085 -10.111 -22.138  1.00  0.00    -0.224 OA
BRANCH  13  15
ATOM     15  O   UNL     1      -8.838  -8.039 -21.521  1.00  0.00    -0.450 OA
BRANCH  15  16
ATOM     16  C   UNL     1      -7.754  -7.110 -21.401  1.00  0.00     0.231 C 
ATOM     17  C   UNL     1      -7.723  -6.510 -20.007  1.00  0.00     0.049 C 
ENDBRANCH  15  16
ENDBRANCH  13  15
ENDBRANCH   9  13
BRANCH  12  18
ATOM     18  C   UNL     1      -9.095  -7.984 -27.237  1.00  0.00     0.128 C 
BRANCH  18  19
ATOM     19  C   UNL     1      -7.883  -8.658 -27.820  1.00  0.00     0.303 C 
ATOM     20  O   UNL     1      -7.688  -9.854 -27.949  1.00  0.00    -0.252 OA
BRANCH  19  21
ATOM     21  O   UNL     1      -6.957  -7.766 -28.218  1.00  0.00    -0.481 OA
ATOM     22  H   UNL     1      -6.696  -7.305 -27.394  1.00  0.00     0.296 HD
ENDBRANCH  19  21
ENDBRANCH  18  19
ENDBRANCH  12  18
ENDBRANCH   7   8
ENDBRANCH   1   7
BRANCH   5  23
ATOM     23  O   UNL     1     -12.118  -3.707 -28.417  1.00  0.00    -0.493 OA
BRANCH  23  24
ATOM     24  C   UNL     1     -12.834  -3.621 -29.651  1.00  0.00     0.236 C 
BRANCH  24  25
ATOM     25  C   UNL     1     -11.928  -3.129 -30.778  1.00  0.00     0.101 C 
BRANCH  25  26
ATOM     26  C   UNL     1     -10.828  -4.083 -31.063  1.00  0.00     0.086 A 
ATOM     27  N   UNL     1     -11.003  -5.436 -30.875  1.00  0.00    -0.214 NA
ATOM     28  C   UNL     1      -9.545  -3.843 -31.507  1.00  0.00     0.125 A 
ATOM     29  C   UNL     1      -9.840  -5.966 -31.207  1.00  0.00     0.226 A 
ATOM     30  O   UNL     1      -8.902  -5.045 -31.600  1.00  0.00    -0.441 OA
ATOM     31  C   UNL     1      -8.776  -2.640 -31.866  1.00  0.00     0.090 C 
BRANCH  29  32
ATOM     32  C   UNL     1      -9.432  -7.369 -31.206  1.00  0.00     0.037 A 
ATOM     33  C   UNL     1     -10.321  -8.401 -30.868  1.00  0.00     0.014 A 
ATOM     34  C   UNL     1      -8.115  -7.708 -31.554  1.00  0.00     0.014 A 
ATOM     35  C   UNL     1      -9.903  -9.736 -30.879  1.00  0.00     0.001 A 
ATOM     36  C   UNL     1      -7.696  -9.041 -31.564  1.00  0.00     0.001 A 
ATOM     37  C   UNL     1      -8.591 -10.054 -31.227  1.00  0.00     0.000 A 
ENDBRANCH  29  32
ENDBRANCH  25  26
ENDBRANCH  24  25
ENDBRANCH  23  24
ENDBRANCH   5  23
TORSDOF 13
ENDMDL
