MODEL 1
REMARK VINA RESULT:   -10.142      0.000      0.000
REMARK INTER + INTRA:         -15.784
REMARK INTER:                 -14.293
REMARK INTRA:                  -1.492
REMARK UNBOUND:                -1.492
REMARK SMILES FC(F)(CNc1nccc2oc(Cc3cc(Cl)ccc3-n3cncn3)nc12)[C@@H]1CCCCN1
REMARK SMILES IDX 5 1 4 3 2 4 1 5 3 6 28 7 29 8 33 9 30 10 32 11 31 12 6 14
REMARK SMILES IDX 7 15 27 16 8 17 26 18 10 19 9 20 12 21 11 22 13 23 14 24
REMARK SMILES IDX 15 25 20 26 16 27 19 28 18 29 17 30 21 31 22 32 25 33 23 34
REMARK SMILES IDX 24 35
REMARK H PARENT 5 2 33 13
ROOT
ATOM      1  N   UNL     1      -0.655  10.071  22.732  1.00  0.00    -0.362 N 
ATOM      2  H   UNL     1      -0.674   9.130  22.356  1.00  0.00     0.162 HD
ENDROOT
BRANCH   1   3
ATOM      3  C   UNL     1      -0.401  10.273  24.157  1.00  0.00     0.193 C 
BRANCH   3   4
ATOM      4  C   UNL     1      -1.677  10.562  24.972  1.00  0.00     0.279 C 
ATOM      5  F   UNL     1      -1.794  11.911  25.166  1.00  0.00    -0.203 F 
ATOM      6  F   UNL     1      -2.791  10.180  24.286  1.00  0.00    -0.203 F 
BRANCH   4   7
ATOM      7  C   UNL     1      -1.674   9.851  26.356  1.00  0.00     0.126 C 
ATOM      8  C   UNL     1      -0.766   8.607  26.298  1.00  0.00     0.025 C 
ATOM      9  N   UNL     1      -3.033   9.464  26.818  1.00  0.00    -0.309 NA
ATOM     10  C   UNL     1      -0.720   7.874  27.636  1.00  0.00     0.003 C 
ATOM     11  C   UNL     1      -2.992   8.828  28.137  1.00  0.00     0.081 C 
ATOM     12  C   UNL     1      -2.128   7.571  28.133  1.00  0.00     0.015 C 
ATOM     13  H   UNL     1      -3.427   8.805  26.142  1.00  0.00     0.123 HD
ENDBRANCH   4   7
ENDBRANCH   3   4
ENDBRANCH   1   3
BRANCH   1  14
ATOM     14  C   UNL     1      -0.502  11.102  21.829  1.00  0.00     0.156 A 
ATOM     15  N   UNL     1       0.601  11.904  21.867  1.00  0.00    -0.237 NA
ATOM     16  C   UNL     1      -1.476  11.370  20.845  1.00  0.00     0.152 A 
ATOM     17  C   UNL     1       0.750  12.911  20.967  1.00  0.00     0.117 A 
ATOM     18  N   UNL     1      -2.686  10.763  20.557  1.00  0.00    -0.209 NA
ATOM     19  C   UNL     1      -1.259  12.413  19.963  1.00  0.00     0.160 A 
ATOM     20  C   UNL     1      -0.149  13.234  19.966  1.00  0.00     0.070 A 
ATOM     21  C   UNL     1      -3.146  11.458  19.535  1.00  0.00     0.200 A 
ATOM     22  O   UNL     1      -2.326  12.473  19.113  1.00  0.00    -0.440 OA
BRANCH  21  23
ATOM     23  C   UNL     1      -4.429  11.288  18.795  1.00  0.00     0.135 C 
BRANCH  23  24
ATOM     24  C   UNL     1      -5.216  10.075  19.254  1.00  0.00    -0.011 A 
ATOM     25  C   UNL     1      -4.880   8.863  18.590  1.00  0.00     0.027 A 
ATOM     26  C   UNL     1      -6.200  10.029  20.270  1.00  0.00     0.070 A 
ATOM     27  C   UNL     1      -5.471   7.647  18.928  1.00  0.00     0.041 A 
ATOM     28  C   UNL     1      -6.770   8.773  20.602  1.00  0.00     0.030 A 
ATOM     29  C   UNL     1      -6.413   7.597  19.938  1.00  0.00     0.023 A 
ATOM     30  Cl  UNL     1      -5.017   6.212  18.100  1.00  0.00    -0.084 Cl
BRANCH  26  31
ATOM     31  N   UNL     1      -6.682  11.150  21.025  1.00  0.00    -0.221 N 
ATOM     32  C   UNL     1      -7.857  11.859  20.969  1.00  0.00     0.225 A 
ATOM     33  N   UNL     1      -5.913  11.689  22.015  1.00  0.00    -0.155 NA
ATOM     34  N   UNL     1      -7.839  12.870  21.810  1.00  0.00    -0.223 NA
ATOM     35  C   UNL     1      -6.646  12.718  22.432  1.00  0.00     0.246 A 
ENDBRANCH  26  31
ENDBRANCH  23  24
ENDBRANCH  21  23
ENDBRANCH   1  14
TORSDOF 7
ENDMDL
MODEL 2
REMARK VINA RESULT:   -10.128      2.146      3.163
REMARK INTER + INTRA:         -15.764
REMARK INTER:                 -14.602
REMARK INTRA:                  -1.163
REMARK UNBOUND:                -1.492
REMARK SMILES FC(F)(CNc1nccc2oc(Cc3cc(Cl)ccc3-n3cncn3)nc12)[C@@H]1CCCCN1
REMARK SMILES IDX 5 1 4 3 2 4 1 5 3 6 28 7 29 8 33 9 30 10 32 11 31 12 6 14
REMARK SMILES IDX 7 15 27 16 8 17 26 18 10 19 9 20 12 21 11 22 13 23 14 24
REMARK SMILES IDX 15 25 20 26 16 27 19 28 18 29 17 30 21 31 22 32 25 33 23 34
REMARK SMILES IDX 24 35
REMARK H PARENT 5 2 33 13
ROOT
ATOM      1  N   UNL     1      -0.717  10.005  22.954  1.00  0.00    -0.362 N 
ATOM      2  H   UNL     1      -0.666   9.033  22.672  1.00  0.00     0.162 HD
ENDROOT
BRANCH   1   3
ATOM      3  C   UNL     1      -0.464  10.367  24.346  1.00  0.00     0.193 C 
BRANCH   3   4
ATOM      4  C   UNL     1      -1.750  10.581  25.169  1.00  0.00     0.279 C 
ATOM      5  F   UNL     1      -1.911  11.916  25.416  1.00  0.00    -0.203 F 
ATOM      6  F   UNL     1      -2.849  10.191  24.464  1.00  0.00    -0.203 F 
BRANCH   4   7
ATOM      7  C   UNL     1      -1.727   9.815  26.522  1.00  0.00     0.126 C 
ATOM      8  C   UNL     1      -0.798   8.589  26.409  1.00  0.00     0.025 C 
ATOM      9  N   UNL     1      -3.076   9.388  26.976  1.00  0.00    -0.309 NA
ATOM     10  C   UNL     1      -0.733   7.804  27.716  1.00  0.00     0.003 C 
ATOM     11  C   UNL     1      -3.016   8.700  28.268  1.00  0.00     0.081 C 
ATOM     12  C   UNL     1      -2.132   7.458  28.209  1.00  0.00     0.015 C 
ATOM     13  H   UNL     1      -3.464   8.749  26.277  1.00  0.00     0.123 HD
ENDBRANCH   4   7
ENDBRANCH   3   4
ENDBRANCH   1   3
BRANCH   1  14
ATOM     14  C   UNL     1      -0.657  10.950  21.951  1.00  0.00     0.156 A 
ATOM     15  N   UNL     1       0.390  11.822  21.876  1.00  0.00    -0.237 NA
ATOM     16  C   UNL     1      -1.673  11.056  20.977  1.00  0.00     0.152 A 
ATOM     17  C   UNL     1       0.447  12.743  20.879  1.00  0.00     0.117 A 
ATOM     18  N   UNL     1      -2.845  10.348  20.788  1.00  0.00    -0.209 NA
ATOM     19  C   UNL     1      -1.549  12.020  19.993  1.00  0.00     0.160 A 
ATOM     20  C   UNL     1      -0.498  12.907  19.880  1.00  0.00     0.070 A 
ATOM     21  C   UNL     1      -3.378  10.907  19.719  1.00  0.00     0.200 A 
ATOM     22  O   UNL     1      -2.639  11.927  19.176  1.00  0.00    -0.440 OA
BRANCH  21  23
ATOM     23  C   UNL     1      -4.664  10.583  19.041  1.00  0.00     0.135 C 
BRANCH  23  24
ATOM     24  C   UNL     1      -5.756  10.178  20.014  1.00  0.00    -0.011 A 
ATOM     25  C   UNL     1      -6.239  11.232  20.836  1.00  0.00     0.027 A 
ATOM     26  C   UNL     1      -6.342   8.898  20.157  1.00  0.00     0.070 A 
ATOM     27  C   UNL     1      -7.277  11.043  21.747  1.00  0.00     0.041 A 
ATOM     28  C   UNL     1      -7.408   8.742  21.080  1.00  0.00     0.030 A 
ATOM     29  C   UNL     1      -7.869   9.799  21.868  1.00  0.00     0.023 A 
ATOM     30  Cl  UNL     1      -7.829  12.357  22.705  1.00  0.00    -0.084 Cl
BRANCH  26  31
ATOM     31  N   UNL     1      -5.967   7.716  19.434  1.00  0.00    -0.221 N 
ATOM     32  C   UNL     1      -4.784   7.333  18.850  1.00  0.00     0.225 A 
ATOM     33  N   UNL     1      -6.876   6.717  19.236  1.00  0.00    -0.155 NA
ATOM     34  N   UNL     1      -4.918   6.186  18.221  1.00  0.00    -0.223 NA
ATOM     35  C   UNL     1      -6.200   5.845  18.494  1.00  0.00     0.246 A 
ENDBRANCH  26  31
ENDBRANCH  23  24
ENDBRANCH  21  23
ENDBRANCH   1  14
TORSDOF 7
ENDMDL
MODEL 3
REMARK VINA RESULT:   -10.116      1.811      2.602
REMARK INTER + INTRA:         -15.747
REMARK INTER:                 -14.432
REMARK INTRA:                  -1.315
REMARK UNBOUND:                -1.492
REMARK SMILES FC(F)(CNc1nccc2oc(Cc3cc(Cl)ccc3-n3cncn3)nc12)[C@@H]1CCCCN1
REMARK SMILES IDX 5 1 4 3 2 4 1 5 3 6 28 7 29 8 33 9 30 10 32 11 31 12 6 14
REMARK SMILES IDX 7 15 27 16 8 17 26 18 10 19 9 20 12 21 11 22 13 23 14 24
REMARK SMILES IDX 15 25 20 26 16 27 19 28 18 29 17 30 21 31 22 32 25 33 23 34
REMARK SMILES IDX 24 35
REMARK H PARENT 5 2 33 13
ROOT
ATOM      1  N   UNL     1      -0.307  10.235  23.244  1.00  0.00    -0.362 N 
ATOM      2  H   UNL     1       0.035   9.297  23.069  1.00  0.00     0.162 HD
ENDROOT
BRANCH   1   3
ATOM      3  C   UNL     1      -0.332  10.749  24.611  1.00  0.00     0.193 C 
BRANCH   3   4
ATOM      4  C   UNL     1      -1.724  10.678  25.268  1.00  0.00     0.279 C 
ATOM      5  F   UNL     1      -2.158  11.945  25.545  1.00  0.00    -0.203 F 
ATOM      6  F   UNL     1      -2.640  10.143  24.413  1.00  0.00    -0.203 F 
BRANCH   4   7
ATOM      7  C   UNL     1      -1.722   9.846  26.582  1.00  0.00     0.126 C 
ATOM      8  C   UNL     1      -0.842   8.593  26.402  1.00  0.00     0.025 C 
ATOM      9  N   UNL     1      -3.083   9.448  27.026  1.00  0.00    -0.309 NA
ATOM     10  C   UNL     1      -0.798   7.743  27.668  1.00  0.00     0.003 C 
ATOM     11  C   UNL     1      -3.042   8.696  28.281  1.00  0.00     0.081 C 
ATOM     12  C   UNL     1      -2.206   7.425  28.154  1.00  0.00     0.015 C 
ATOM     13  H   UNL     1      -3.500   8.860  26.299  1.00  0.00     0.123 HD
ENDBRANCH   4   7
ENDBRANCH   3   4
ENDBRANCH   1   3
BRANCH   1  14
ATOM     14  C   UNL     1      -0.377  11.087  22.162  1.00  0.00     0.156 A 
ATOM     15  N   UNL     1       0.675  11.894  21.840  1.00  0.00    -0.237 NA
ATOM     16  C   UNL     1      -1.534  11.163  21.358  1.00  0.00     0.152 A 
ATOM     17  C   UNL     1       0.601  12.723  20.766  1.00  0.00     0.117 A 
ATOM     18  N   UNL     1      -2.748  10.502  21.426  1.00  0.00    -0.209 NA
ATOM     19  C   UNL     1      -1.538  12.032  20.282  1.00  0.00     0.160 A 
ATOM     20  C   UNL     1      -0.487  12.850  19.921  1.00  0.00     0.070 A 
ATOM     21  C   UNL     1      -3.427  10.996  20.409  1.00  0.00     0.200 A 
ATOM     22  O   UNL     1      -2.750  11.926  19.663  1.00  0.00    -0.440 OA
BRANCH  21  23
ATOM     23  C   UNL     1      -4.819  10.682  19.979  1.00  0.00     0.135 C 
BRANCH  23  24
ATOM     24  C   UNL     1      -4.869   9.767  18.771  1.00  0.00    -0.011 A 
ATOM     25  C   UNL     1      -4.994   8.384  19.078  1.00  0.00     0.027 A 
ATOM     26  C   UNL     1      -4.834  10.147  17.408  1.00  0.00     0.070 A 
ATOM     27  C   UNL     1      -5.106   7.413  18.085  1.00  0.00     0.041 A 
ATOM     28  C   UNL     1      -4.968   9.137  16.421  1.00  0.00     0.030 A 
ATOM     29  C   UNL     1      -5.100   7.786  16.753  1.00  0.00     0.023 A 
ATOM     30  Cl  UNL     1      -5.268   5.759  18.515  1.00  0.00    -0.084 Cl
BRANCH  26  31
ATOM     31  N   UNL     1      -4.688  11.486  16.912  1.00  0.00    -0.221 N 
ATOM     32  C   UNL     1      -5.548  12.557  16.894  1.00  0.00     0.225 A 
ATOM     33  N   UNL     1      -3.515  11.879  16.338  1.00  0.00    -0.155 NA
ATOM     34  N   UNL     1      -5.014  13.580  16.263  1.00  0.00    -0.223 NA
ATOM     35  C   UNL     1      -3.776  13.126  15.956  1.00  0.00     0.246 A 
ENDBRANCH  26  31
ENDBRANCH  23  24
ENDBRANCH  21  23
ENDBRANCH   1  14
TORSDOF 7
ENDMDL
MODEL 4
REMARK VINA RESULT:    -9.560      3.097      7.535
REMARK INTER + INTRA:         -14.964
REMARK INTER:                 -12.966
REMARK INTRA:                  -1.999
REMARK UNBOUND:                -1.492
REMARK SMILES FC(F)(CNc1nccc2oc(Cc3cc(Cl)ccc3-n3cncn3)nc12)[C@@H]1CCCCN1
REMARK SMILES IDX 5 1 4 3 2 4 1 5 3 6 28 7 29 8 33 9 30 10 32 11 31 12 6 14
REMARK SMILES IDX 7 15 27 16 8 17 26 18 10 19 9 20 12 21 11 22 13 23 14 24
REMARK SMILES IDX 15 25 20 26 16 27 19 28 18 29 17 30 21 31 22 32 25 33 23 34
REMARK SMILES IDX 24 35
REMARK H PARENT 5 2 33 13
ROOT
ATOM      1  N   UNL     1      -5.653  12.314  19.199  1.00  0.00    -0.362 N 
ATOM      2  H   UNL     1      -4.890  12.978  19.143  1.00  0.00     0.162 HD
ENDROOT
BRANCH   1   3
ATOM      3  C   UNL     1      -5.811  11.307  18.152  1.00  0.00     0.193 C 
BRANCH   3   4
ATOM      4  C   UNL     1      -4.703  10.236  18.159  1.00  0.00     0.279 C 
ATOM      5  F   UNL     1      -4.313   9.981  16.873  1.00  0.00    -0.203 F 
ATOM      6  F   UNL     1      -3.593  10.687  18.808  1.00  0.00    -0.203 F 
BRANCH   4   7
ATOM      7  C   UNL     1      -5.163   8.906  18.821  1.00  0.00     0.126 C 
ATOM      8  C   UNL     1      -4.926   7.733  17.849  1.00  0.00     0.025 C 
ATOM      9  N   UNL     1      -6.585   8.927  19.251  1.00  0.00    -0.309 NA
ATOM     10  C   UNL     1      -5.354   6.399  18.455  1.00  0.00     0.003 C 
ATOM     11  C   UNL     1      -6.971   7.671  19.899  1.00  0.00     0.081 C 
ATOM     12  C   UNL     1      -6.784   6.474  18.971  1.00  0.00     0.015 C 
ATOM     13  H   UNL     1      -7.170   9.068  18.423  1.00  0.00     0.123 HD
ENDBRANCH   4   7
ENDBRANCH   3   4
ENDBRANCH   1   3
BRANCH   1  14
ATOM     14  C   UNL     1      -6.263  12.165  20.427  1.00  0.00     0.156 A 
ATOM     15  N   UNL     1      -7.586  11.842  20.514  1.00  0.00    -0.237 NA
ATOM     16  C   UNL     1      -5.550  12.348  21.631  1.00  0.00     0.152 A 
ATOM     17  C   UNL     1      -8.177  11.687  21.728  1.00  0.00     0.117 A 
ATOM     18  N   UNL     1      -4.232  12.684  21.878  1.00  0.00    -0.209 NA
ATOM     19  C   UNL     1      -6.218  12.175  22.830  1.00  0.00     0.160 A 
ATOM     20  C   UNL     1      -7.550  11.836  22.953  1.00  0.00     0.070 A 
ATOM     21  C   UNL     1      -4.159  12.709  23.195  1.00  0.00     0.200 A 
ATOM     22  O   UNL     1      -5.329  12.400  23.841  1.00  0.00    -0.440 OA
BRANCH  21  23
ATOM     23  C   UNL     1      -2.987  13.032  24.057  1.00  0.00     0.135 C 
BRANCH  23  24
ATOM     24  C   UNL     1      -2.199  11.801  24.463  1.00  0.00    -0.011 A 
ATOM     25  C   UNL     1      -2.571  11.244  25.717  1.00  0.00     0.027 A 
ATOM     26  C   UNL     1      -1.180  11.157  23.722  1.00  0.00     0.070 A 
ATOM     27  C   UNL     1      -1.983  10.082  26.213  1.00  0.00     0.041 A 
ATOM     28  C   UNL     1      -0.613   9.967  24.246  1.00  0.00     0.030 A 
ATOM     29  C   UNL     1      -1.006   9.436  25.478  1.00  0.00     0.023 A 
ATOM     30  Cl  UNL     1      -2.481   9.447  27.729  1.00  0.00    -0.084 Cl
BRANCH  26  31
ATOM     31  N   UNL     1      -0.660  11.588  22.456  1.00  0.00    -0.221 N 
ATOM     32  C   UNL     1      -1.016  11.282  21.164  1.00  0.00     0.225 A 
ATOM     33  N   UNL     1       0.379  12.471  22.407  1.00  0.00    -0.155 NA
ATOM     34  N   UNL     1      -0.206  11.856  20.303  1.00  0.00    -0.223 NA
ATOM     35  C   UNL     1       0.615  12.578  21.103  1.00  0.00     0.246 A 
ENDBRANCH  26  31
ENDBRANCH  23  24
ENDBRANCH  21  23
ENDBRANCH   1  14
TORSDOF 7
ENDMDL
MODEL 5
REMARK VINA RESULT:    -9.463      2.267      3.335
REMARK INTER + INTRA:         -14.828
REMARK INTER:                 -14.342
REMARK INTRA:                  -0.486
REMARK UNBOUND:                -1.492
REMARK SMILES FC(F)(CNc1nccc2oc(Cc3cc(Cl)ccc3-n3cncn3)nc12)[C@@H]1CCCCN1
REMARK SMILES IDX 5 1 4 3 2 4 1 5 3 6 28 7 29 8 33 9 30 10 32 11 31 12 6 14
REMARK SMILES IDX 7 15 27 16 8 17 26 18 10 19 9 20 12 21 11 22 13 23 14 24
REMARK SMILES IDX 15 25 20 26 16 27 19 28 18 29 17 30 21 31 22 32 25 33 23 34
REMARK SMILES IDX 24 35
REMARK H PARENT 5 2 33 13
ROOT
ATOM      1  N   UNL     1      -0.281  10.226  23.133  1.00  0.00    -0.362 N 
ATOM      2  H   UNL     1       0.066   9.294  22.938  1.00  0.00     0.162 HD
ENDROOT
BRANCH   1   3
ATOM      3  C   UNL     1      -0.294  10.717  24.509  1.00  0.00     0.193 C 
BRANCH   3   4
ATOM      4  C   UNL     1      -1.685  10.655  25.170  1.00  0.00     0.279 C 
ATOM      5  F   UNL     1      -2.126  11.925  25.416  1.00  0.00    -0.203 F 
ATOM      6  F   UNL     1      -2.599  10.092  24.330  1.00  0.00    -0.203 F 
BRANCH   4   7
ATOM      7  C   UNL     1      -1.675   9.855  26.504  1.00  0.00     0.126 C 
ATOM      8  C   UNL     1      -0.807   8.591  26.346  1.00  0.00     0.025 C 
ATOM      9  N   UNL     1      -3.035   9.480  26.971  1.00  0.00    -0.309 NA
ATOM     10  C   UNL     1      -0.757   7.772  27.633  1.00  0.00     0.003 C 
ATOM     11  C   UNL     1      -2.987   8.758  28.245  1.00  0.00     0.081 C 
ATOM     12  C   UNL     1      -2.162   7.478  28.141  1.00  0.00     0.015 C 
ATOM     13  H   UNL     1      -3.464   8.877  26.264  1.00  0.00     0.123 HD
ENDBRANCH   4   7
ENDBRANCH   3   4
ENDBRANCH   1   3
BRANCH   1  14
ATOM     14  C   UNL     1      -0.371  11.096  22.067  1.00  0.00     0.156 A 
ATOM     15  N   UNL     1       0.636  11.977  21.798  1.00  0.00    -0.237 NA
ATOM     16  C   UNL     1      -1.503  11.114  21.224  1.00  0.00     0.152 A 
ATOM     17  C   UNL     1       0.545  12.823  20.739  1.00  0.00     0.117 A 
ATOM     18  N   UNL     1      -2.671  10.375  21.236  1.00  0.00    -0.209 NA
ATOM     19  C   UNL     1      -1.527  12.005  20.166  1.00  0.00     0.160 A 
ATOM     20  C   UNL     1      -0.521  12.898  19.859  1.00  0.00     0.070 A 
ATOM     21  C   UNL     1      -3.348  10.846  20.206  1.00  0.00     0.200 A 
ATOM     22  O   UNL     1      -2.708  11.835  19.503  1.00  0.00    -0.440 OA
BRANCH  21  23
ATOM     23  C   UNL     1      -4.701  10.452  19.721  1.00  0.00     0.135 C 
BRANCH  23  24
ATOM     24  C   UNL     1      -4.767  10.317  18.212  1.00  0.00    -0.011 A 
ATOM     25  C   UNL     1      -4.375  11.480  17.493  1.00  0.00     0.027 A 
ATOM     26  C   UNL     1      -5.142   9.170  17.472  1.00  0.00     0.070 A 
ATOM     27  C   UNL     1      -4.328  11.508  16.101  1.00  0.00     0.041 A 
ATOM     28  C   UNL     1      -5.067   9.225  16.056  1.00  0.00     0.030 A 
ATOM     29  C   UNL     1      -4.668  10.379  15.378  1.00  0.00     0.023 A 
ATOM     30  Cl  UNL     1      -3.834  12.936  15.286  1.00  0.00    -0.084 Cl
BRANCH  26  31
ATOM     31  N   UNL     1      -5.588   7.923  18.023  1.00  0.00    -0.221 N 
ATOM     32  C   UNL     1      -4.919   6.761  18.324  1.00  0.00     0.225 A 
ATOM     33  N   UNL     1      -6.900   7.750  18.354  1.00  0.00    -0.155 NA
ATOM     34  N   UNL     1      -5.751   5.834  18.747  1.00  0.00    -0.223 NA
ATOM     35  C   UNL     1      -6.939   6.484  18.761  1.00  0.00     0.246 A 
ENDBRANCH  26  31
ENDBRANCH  23  24
ENDBRANCH  21  23
ENDBRANCH   1  14
TORSDOF 7
ENDMDL
MODEL 6
REMARK VINA RESULT:    -9.230      2.301      3.585
REMARK INTER + INTRA:         -14.499
REMARK INTER:                 -12.910
REMARK INTRA:                  -1.589
REMARK UNBOUND:                -1.492
REMARK SMILES FC(F)(CNc1nccc2oc(Cc3cc(Cl)ccc3-n3cncn3)nc12)[C@@H]1CCCCN1
REMARK SMILES IDX 5 1 4 3 2 4 1 5 3 6 28 7 29 8 33 9 30 10 32 11 31 12 6 14
REMARK SMILES IDX 7 15 27 16 8 17 26 18 10 19 9 20 12 21 11 22 13 23 14 24
REMARK SMILES IDX 15 25 20 26 16 27 19 28 18 29 17 30 21 31 22 32 25 33 23 34
REMARK SMILES IDX 24 35
REMARK H PARENT 5 2 33 13
ROOT
ATOM      1  N   UNL     1      -4.011  11.505  23.979  1.00  0.00    -0.362 N 
ATOM      2  H   UNL     1      -4.456  11.232  24.847  1.00  0.00     0.162 HD
ENDROOT
BRANCH   1   3
ATOM      3  C   UNL     1      -2.927  10.689  23.437  1.00  0.00     0.193 C 
BRANCH   3   4
ATOM      4  C   UNL     1      -1.555  10.991  24.070  1.00  0.00     0.279 C 
ATOM      5  F   UNL     1      -0.569  10.439  23.299  1.00  0.00    -0.203 F 
ATOM      6  F   UNL     1      -1.313  12.332  24.091  1.00  0.00    -0.203 F 
BRANCH   4   7
ATOM      7  C   UNL     1      -1.432  10.439  25.519  1.00  0.00     0.126 C 
ATOM      8  C   UNL     1      -0.379   9.314  25.558  1.00  0.00     0.025 C 
ATOM      9  N   UNL     1      -2.721   9.945  26.068  1.00  0.00    -0.309 NA
ATOM     10  C   UNL     1      -0.212   8.740  26.962  1.00  0.00     0.003 C 
ATOM     11  C   UNL     1      -2.571   9.464  27.444  1.00  0.00     0.081 C 
ATOM     12  C   UNL     1      -1.559   8.325  27.540  1.00  0.00     0.015 C 
ATOM     13  H   UNL     1      -3.048   9.173  25.480  1.00  0.00     0.123 HD
ENDBRANCH   4   7
ENDBRANCH   3   4
ENDBRANCH   1   3
BRANCH   1  14
ATOM     14  C   UNL     1      -4.688  12.406  23.185  1.00  0.00     0.156 A 
ATOM     15  N   UNL     1      -4.536  13.750  23.367  1.00  0.00    -0.237 NA
ATOM     16  C   UNL     1      -5.565  11.976  22.166  1.00  0.00     0.152 A 
ATOM     17  C   UNL     1      -5.200  14.630  22.573  1.00  0.00     0.117 A 
ATOM     18  N   UNL     1      -5.939  10.712  21.746  1.00  0.00    -0.209 NA
ATOM     19  C   UNL     1      -6.208  12.930  21.398  1.00  0.00     0.160 A 
ATOM     20  C   UNL     1      -6.066  14.294  21.548  1.00  0.00     0.070 A 
ATOM     21  C   UNL     1      -6.784  10.949  20.762  1.00  0.00     0.200 A 
ATOM     22  O   UNL     1      -6.990  12.278  20.489  1.00  0.00    -0.440 OA
BRANCH  21  23
ATOM     23  C   UNL     1      -7.540   9.973  19.927  1.00  0.00     0.135 C 
BRANCH  23  24
ATOM     24  C   UNL     1      -6.633   9.043  19.144  1.00  0.00    -0.011 A 
ATOM     25  C   UNL     1      -6.979   7.667  19.227  1.00  0.00     0.027 A 
ATOM     26  C   UNL     1      -5.526   9.406  18.340  1.00  0.00     0.070 A 
ATOM     27  C   UNL     1      -6.282   6.685  18.526  1.00  0.00     0.041 A 
ATOM     28  C   UNL     1      -4.847   8.385  17.625  1.00  0.00     0.030 A 
ATOM     29  C   UNL     1      -5.217   7.041  17.718  1.00  0.00     0.023 A 
ATOM     30  Cl  UNL     1      -6.753   5.039  18.654  1.00  0.00    -0.084 Cl
BRANCH  26  31
ATOM     31  N   UNL     1      -5.019  10.736  18.158  1.00  0.00    -0.221 N 
ATOM     32  C   UNL     1      -5.462  11.792  17.400  1.00  0.00     0.225 A 
ATOM     33  N   UNL     1      -3.894  11.135  18.819  1.00  0.00    -0.155 NA
ATOM     34  N   UNL     1      -4.632  12.810  17.478  1.00  0.00    -0.223 NA
ATOM     35  C   UNL     1      -3.704  12.369  18.360  1.00  0.00     0.246 A 
ENDBRANCH  26  31
ENDBRANCH  23  24
ENDBRANCH  21  23
ENDBRANCH   1  14
TORSDOF 7
ENDMDL
MODEL 7
REMARK VINA RESULT:    -9.192      3.217      8.004
REMARK INTER + INTRA:         -14.446
REMARK INTER:                 -12.615
REMARK INTRA:                  -1.831
REMARK UNBOUND:                -1.492
REMARK SMILES FC(F)(CNc1nccc2oc(Cc3cc(Cl)ccc3-n3cncn3)nc12)[C@@H]1CCCCN1
REMARK SMILES IDX 5 1 4 3 2 4 1 5 3 6 28 7 29 8 33 9 30 10 32 11 31 12 6 14
REMARK SMILES IDX 7 15 27 16 8 17 26 18 10 19 9 20 12 21 11 22 13 23 14 24
REMARK SMILES IDX 15 25 20 26 16 27 19 28 18 29 17 30 21 31 22 32 25 33 23 34
REMARK SMILES IDX 24 35
REMARK H PARENT 5 2 33 13
ROOT
ATOM      1  N   UNL     1      -5.259   9.329  20.428  1.00  0.00    -0.362 N 
ATOM      2  H   UNL     1      -4.260   9.191  20.523  1.00  0.00     0.162 HD
ENDROOT
BRANCH   1   3
ATOM      3  C   UNL     1      -6.139   8.169  20.306  1.00  0.00     0.193 C 
BRANCH   3   4
ATOM      4  C   UNL     1      -5.882   7.336  19.034  1.00  0.00     0.279 C 
ATOM      5  F   UNL     1      -4.536   7.167  18.868  1.00  0.00    -0.203 F 
ATOM      6  F   UNL     1      -6.409   6.084  19.157  1.00  0.00    -0.203 F 
BRANCH   4   7
ATOM      7  C   UNL     1      -6.470   8.001  17.757  1.00  0.00     0.126 C 
ATOM      8  C   UNL     1      -5.331   8.630  16.929  1.00  0.00     0.025 C 
ATOM      9  N   UNL     1      -7.505   9.025  18.053  1.00  0.00    -0.309 NA
ATOM     10  C   UNL     1      -5.853   9.292  15.656  1.00  0.00     0.003 C 
ATOM     11  C   UNL     1      -8.056   9.605  16.826  1.00  0.00     0.081 C 
ATOM     12  C   UNL     1      -6.976  10.270  15.978  1.00  0.00     0.015 C 
ATOM     13  H   UNL     1      -7.073   9.769  18.608  1.00  0.00     0.123 HD
ENDBRANCH   4   7
ENDBRANCH   3   4
ENDBRANCH   1   3
BRANCH   1  14
ATOM     14  C   UNL     1      -5.757  10.563  20.787  1.00  0.00     0.156 A 
ATOM     15  N   UNL     1      -6.867  11.073  20.178  1.00  0.00    -0.237 NA
ATOM     16  C   UNL     1      -5.137  11.346  21.785  1.00  0.00     0.152 A 
ATOM     17  C   UNL     1      -7.357  12.286  20.545  1.00  0.00     0.117 A 
ATOM     18  N   UNL     1      -4.016  11.125  22.564  1.00  0.00    -0.209 NA
ATOM     19  C   UNL     1      -5.691  12.572  22.105  1.00  0.00     0.160 A 
ATOM     20  C   UNL     1      -6.819  13.110  21.518  1.00  0.00     0.070 A 
ATOM     21  C   UNL     1      -3.934  12.212  23.306  1.00  0.00     0.200 A 
ATOM     22  O   UNL     1      -4.926  13.133  23.087  1.00  0.00    -0.440 OA
BRANCH  21  23
ATOM     23  C   UNL     1      -2.912  12.566  24.331  1.00  0.00     0.135 C 
BRANCH  23  24
ATOM     24  C   UNL     1      -2.027  11.392  24.708  1.00  0.00    -0.011 A 
ATOM     25  C   UNL     1      -2.390  10.740  25.919  1.00  0.00     0.027 A 
ATOM     26  C   UNL     1      -0.928  10.881  23.978  1.00  0.00     0.070 A 
ATOM     27  C   UNL     1      -1.715   9.613  26.382  1.00  0.00     0.041 A 
ATOM     28  C   UNL     1      -0.272   9.722  24.468  1.00  0.00     0.030 A 
ATOM     29  C   UNL     1      -0.658   9.096  25.656  1.00  0.00     0.023 A 
ATOM     30  Cl  UNL     1      -2.205   8.859  27.845  1.00  0.00    -0.084 Cl
BRANCH  26  31
ATOM     31  N   UNL     1      -0.406  11.421  22.755  1.00  0.00    -0.221 N 
ATOM     32  C   UNL     1      -0.666  11.130  21.438  1.00  0.00     0.225 A 
ATOM     33  N   UNL     1       0.523  12.420  22.790  1.00  0.00    -0.155 NA
ATOM     34  N   UNL     1       0.109  11.830  20.639  1.00  0.00    -0.223 NA
ATOM     35  C   UNL     1       0.804  12.607  21.503  1.00  0.00     0.246 A 
ENDBRANCH  26  31
ENDBRANCH  23  24
ENDBRANCH  21  23
ENDBRANCH   1  14
TORSDOF 7
ENDMDL
MODEL 8
REMARK VINA RESULT:    -9.051      2.585      4.723
REMARK INTER + INTRA:         -14.246
REMARK INTER:                 -11.780
REMARK INTRA:                  -2.467
REMARK UNBOUND:                -1.492
REMARK SMILES FC(F)(CNc1nccc2oc(Cc3cc(Cl)ccc3-n3cncn3)nc12)[C@@H]1CCCCN1
REMARK SMILES IDX 5 1 4 3 2 4 1 5 3 6 28 7 29 8 33 9 30 10 32 11 31 12 6 14
REMARK SMILES IDX 7 15 27 16 8 17 26 18 10 19 9 20 12 21 11 22 13 23 14 24
REMARK SMILES IDX 15 25 20 26 16 27 19 28 18 29 17 30 21 31 22 32 25 33 23 34
REMARK SMILES IDX 24 35
REMARK H PARENT 5 2 33 13
ROOT
ATOM      1  N   UNL     1      -4.203  11.582  25.373  1.00  0.00    -0.362 N 
ATOM      2  H   UNL     1      -4.827  10.859  25.712  1.00  0.00     0.162 HD
ENDROOT
BRANCH   1   3
ATOM      3  C   UNL     1      -4.342  12.948  25.874  1.00  0.00     0.193 C 
BRANCH   3   4
ATOM      4  C   UNL     1      -5.281  13.822  25.020  1.00  0.00     0.279 C 
ATOM      5  F   UNL     1      -6.299  13.050  24.533  1.00  0.00    -0.203 F 
ATOM      6  F   UNL     1      -5.870  14.790  25.779  1.00  0.00    -0.203 F 
BRANCH   4   7
ATOM      7  C   UNL     1      -4.546  14.500  23.829  1.00  0.00     0.126 C 
ATOM      8  C   UNL     1      -4.807  16.019  23.854  1.00  0.00     0.025 C 
ATOM      9  N   UNL     1      -4.935  13.942  22.507  1.00  0.00    -0.309 NA
ATOM     10  C   UNL     1      -4.100  16.737  22.708  1.00  0.00     0.003 C 
ATOM     11  C   UNL     1      -4.199  14.582  21.415  1.00  0.00     0.081 C 
ATOM     12  C   UNL     1      -4.443  16.088  21.372  1.00  0.00     0.015 C 
ATOM     13  H   UNL     1      -5.937  14.102  22.372  1.00  0.00     0.123 HD
ENDBRANCH   4   7
ENDBRANCH   3   4
ENDBRANCH   1   3
BRANCH   1  14
ATOM     14  C   UNL     1      -3.044  11.167  24.752  1.00  0.00     0.156 A 
ATOM     15  N   UNL     1      -1.897  10.979  25.467  1.00  0.00    -0.237 NA
ATOM     16  C   UNL     1      -2.997  10.931  23.361  1.00  0.00     0.152 A 
ATOM     17  C   UNL     1      -0.762  10.560  24.849  1.00  0.00     0.117 A 
ATOM     18  N   UNL     1      -3.962  11.040  22.376  1.00  0.00    -0.209 NA
ATOM     19  C   UNL     1      -1.806  10.507  22.800  1.00  0.00     0.160 A 
ATOM     20  C   UNL     1      -0.634  10.295  23.497  1.00  0.00     0.070 A 
ATOM     21  C   UNL     1      -3.323  10.691  21.276  1.00  0.00     0.200 A 
ATOM     22  O   UNL     1      -2.009  10.345  21.460  1.00  0.00    -0.440 OA
BRANCH  21  23
ATOM     23  C   UNL     1      -3.837  10.634  19.878  1.00  0.00     0.135 C 
BRANCH  23  24
ATOM     24  C   UNL     1      -4.973   9.642  19.711  1.00  0.00    -0.011 A 
ATOM     25  C   UNL     1      -4.585   8.377  19.188  1.00  0.00     0.027 A 
ATOM     26  C   UNL     1      -6.335   9.838  20.042  1.00  0.00     0.070 A 
ATOM     27  C   UNL     1      -5.496   7.336  19.021  1.00  0.00     0.041 A 
ATOM     28  C   UNL     1      -7.233   8.753  19.876  1.00  0.00     0.030 A 
ATOM     29  C   UNL     1      -6.822   7.518  19.370  1.00  0.00     0.023 A 
ATOM     30  Cl  UNL     1      -4.969   5.826  18.397  1.00  0.00    -0.084 Cl
BRANCH  26  31
ATOM     31  N   UNL     1      -6.910  11.049  20.555  1.00  0.00    -0.221 N 
ATOM     32  C   UNL     1      -7.358  11.394  21.806  1.00  0.00     0.225 A 
ATOM     33  N   UNL     1      -7.084  12.125  19.734  1.00  0.00    -0.155 NA
ATOM     34  N   UNL     1      -7.884  12.600  21.803  1.00  0.00    -0.223 NA
ATOM     35  C   UNL     1      -7.683  13.008  20.528  1.00  0.00     0.246 A 
ENDBRANCH  26  31
ENDBRANCH  23  24
ENDBRANCH  21  23
ENDBRANCH   1  14
TORSDOF 7
ENDMDL
MODEL 9
REMARK VINA RESULT:    -8.874      2.713      4.819
REMARK INTER + INTRA:         -13.998
REMARK INTER:                 -12.695
REMARK INTRA:                  -1.303
REMARK UNBOUND:                -1.492
REMARK SMILES FC(F)(CNc1nccc2oc(Cc3cc(Cl)ccc3-n3cncn3)nc12)[C@@H]1CCCCN1
REMARK SMILES IDX 5 1 4 3 2 4 1 5 3 6 28 7 29 8 33 9 30 10 32 11 31 12 6 14
REMARK SMILES IDX 7 15 27 16 8 17 26 18 10 19 9 20 12 21 11 22 13 23 14 24
REMARK SMILES IDX 15 25 20 26 16 27 19 28 18 29 17 30 21 31 22 32 25 33 23 34
REMARK SMILES IDX 24 35
REMARK H PARENT 5 2 33 13
ROOT
ATOM      1  N   UNL     1      -4.362  11.518  25.291  1.00  0.00    -0.362 N 
ATOM      2  H   UNL     1      -4.537  11.169  26.227  1.00  0.00     0.162 HD
ENDROOT
BRANCH   1   3
ATOM      3  C   UNL     1      -5.174  12.613  24.767  1.00  0.00     0.193 C 
BRANCH   3   4
ATOM      4  C   UNL     1      -4.604  14.009  25.089  1.00  0.00     0.279 C 
ATOM      5  F   UNL     1      -3.972  13.970  26.301  1.00  0.00    -0.203 F 
ATOM      6  F   UNL     1      -3.655  14.370  24.179  1.00  0.00    -0.203 F 
BRANCH   4   7
ATOM      7  C   UNL     1      -5.703  15.108  25.128  1.00  0.00     0.126 C 
ATOM      8  C   UNL     1      -5.746  15.847  23.775  1.00  0.00     0.025 C 
ATOM      9  N   UNL     1      -5.517  16.084  26.232  1.00  0.00    -0.309 NA
ATOM     10  C   UNL     1      -6.817  16.934  23.756  1.00  0.00     0.003 C 
ATOM     11  C   UNL     1      -6.589  17.083  26.255  1.00  0.00     0.081 C 
ATOM     12  C   UNL     1      -6.660  17.868  24.949  1.00  0.00     0.015 C 
ATOM     13  H   UNL     1      -4.622  16.561  26.094  1.00  0.00     0.123 HD
ENDBRANCH   4   7
ENDBRANCH   3   4
ENDBRANCH   1   3
BRANCH   1  14
ATOM     14  C   UNL     1      -3.149  11.195  24.721  1.00  0.00     0.156 A 
ATOM     15  N   UNL     1      -2.017  11.128  25.480  1.00  0.00    -0.237 NA
ATOM     16  C   UNL     1      -3.030  10.933  23.340  1.00  0.00     0.152 A 
ATOM     17  C   UNL     1      -0.827  10.799  24.913  1.00  0.00     0.117 A 
ATOM     18  N   UNL     1      -3.964  10.933  22.319  1.00  0.00    -0.209 NA
ATOM     19  C   UNL     1      -1.786  10.607  22.831  1.00  0.00     0.160 A 
ATOM     20  C   UNL     1      -0.625  10.517  23.573  1.00  0.00     0.070 A 
ATOM     21  C   UNL     1      -3.257  10.619  21.251  1.00  0.00     0.200 A 
ATOM     22  O   UNL     1      -1.924  10.397  21.489  1.00  0.00    -0.440 OA
BRANCH  21  23
ATOM     23  C   UNL     1      -3.712  10.483  19.839  1.00  0.00     0.135 C 
BRANCH  23  24
ATOM     24  C   UNL     1      -4.889   9.538  19.689  1.00  0.00    -0.011 A 
ATOM     25  C   UNL     1      -4.559   8.257  19.166  1.00  0.00     0.027 A 
ATOM     26  C   UNL     1      -6.237   9.789  20.037  1.00  0.00     0.070 A 
ATOM     27  C   UNL     1      -5.512   7.253  19.014  1.00  0.00     0.041 A 
ATOM     28  C   UNL     1      -7.181   8.740  19.886  1.00  0.00     0.030 A 
ATOM     29  C   UNL     1      -6.825   7.488  19.379  1.00  0.00     0.023 A 
ATOM     30  Cl  UNL     1      -5.054   5.720  18.389  1.00  0.00    -0.084 Cl
BRANCH  26  31
ATOM     31  N   UNL     1      -6.756  11.024  20.552  1.00  0.00    -0.221 N 
ATOM     32  C   UNL     1      -6.760  12.301  20.047  1.00  0.00     0.225 A 
ATOM     33  N   UNL     1      -7.392  11.048  21.760  1.00  0.00    -0.155 NA
ATOM     34  N   UNL     1      -7.286  13.147  20.905  1.00  0.00    -0.223 NA
ATOM     35  C   UNL     1      -7.667  12.339  21.923  1.00  0.00     0.246 A 
ENDBRANCH  26  31
ENDBRANCH  23  24
ENDBRANCH  21  23
ENDBRANCH   1  14
TORSDOF 7
ENDMDL
