MODEL 6
REMARK VINA RESULT:    -7.825      1.996      5.883
REMARK INTER + INTRA:         -10.584
REMARK INTER:                 -11.329
REMARK INTRA:                   0.746
REMARK UNBOUND:                -1.157
REMARK SMILES Cc1nc(-c2ccccc2C)c(NC(=O)c2cnn3ccc(N)nc23)s1
REMARK SMILES IDX 13 1 14 2 15 3 12 5 2 6 3 7 26 8 4 9 1 10 5 11 6 12 10 13
REMARK SMILES IDX 7 14 9 15 8 16 11 17 16 18 17 19 25 20 18 21 24 22 19 23
REMARK SMILES IDX 22 24 20 25 21 26 23 27
REMARK H PARENT 13 4 23 28 23 29
ROOT
ATOM      1  N   UNL     1      -3.163  25.760 -29.447  1.00  0.00    -0.312 N 
ATOM      2  C   UNL     1      -3.394  26.189 -28.150  1.00  0.00     0.261 C 
ATOM      3  O   UNL     1      -4.449  26.626 -27.712  1.00  0.00    -0.269 OA
ATOM      4  H   UNL     1      -2.278  25.311 -29.646  1.00  0.00     0.171 HD
ENDROOT
BRANCH   1   5
ATOM      5  C   UNL     1      -4.053  25.797 -30.509  1.00  0.00     0.124 A 
ATOM      6  C   UNL     1      -5.537  26.357 -32.338  1.00  0.00     0.092 A 
ATOM      7  N   UNL     1      -5.408  25.049 -32.273  1.00  0.00    -0.239 NA
ATOM      8  S   UNL     1      -4.653  27.248 -31.167  1.00  0.00    -0.101 S 
ATOM      9  C   UNL     1      -4.568  24.724 -31.222  1.00  0.00     0.106 A 
ATOM     10  C   UNL     1      -6.374  27.071 -33.339  1.00  0.00     0.079 C 
BRANCH   9  11
ATOM     11  C   UNL     1      -4.248  23.336 -30.926  1.00  0.00     0.006 A 
ATOM     12  C   UNL     1      -3.381  23.056 -29.857  1.00  0.00     0.011 A 
ATOM     13  C   UNL     1      -4.776  22.281 -31.695  1.00  0.00    -0.042 A 
ATOM     14  C   UNL     1      -3.027  21.741 -29.558  1.00  0.00     0.001 A 
ATOM     15  C   UNL     1      -4.415  20.963 -31.377  1.00  0.00     0.004 A 
ATOM     16  C   UNL     1      -3.543  20.696 -30.320  1.00  0.00     0.000 A 
ATOM     17  C   UNL     1      -5.733  22.530 -32.829  1.00  0.00     0.045 C 
ENDBRANCH   9  11
ENDBRANCH   1   5
BRANCH   2  18
ATOM     18  C   UNL     1      -2.212  26.066 -27.307  1.00  0.00     0.105 A 
ATOM     19  C   UNL     1      -1.247  27.041 -26.973  1.00  0.00     0.151 A 
ATOM     20  C   UNL     1      -1.797  24.936 -26.623  1.00  0.00     0.170 A 
ATOM     21  N   UNL     1      -0.290  26.588 -26.165  1.00  0.00    -0.174 NA
ATOM     22  N   UNL     1      -2.302  23.667 -26.550  1.00  0.00    -0.211 NA
ATOM     23  N   UNL     1      -0.637  25.298 -25.932  1.00  0.00    -0.222 N 
ATOM     24  C   UNL     1      -1.676  22.805 -25.790  1.00  0.00     0.127 A 
ATOM     25  C   UNL     1       0.024  24.379 -25.129  1.00  0.00     0.119 A 
ATOM     26  C   UNL     1      -0.441  23.129 -25.008  1.00  0.00     0.067 A 
BRANCH  24  27
ATOM     27  N   UNL     1      -2.208  21.549 -25.719  1.00  0.00    -0.384 N 
ATOM     28  H   UNL     1      -1.667  20.861 -25.212  1.00  0.00     0.158 HD
ATOM     29  H   UNL     1      -3.177  21.585 -25.408  1.00  0.00     0.158 HD
ENDBRANCH  24  27
ENDBRANCH   2  18
TORSDOF 4
ENDMDL
