MODEL 1
REMARK VINA RESULT:   -10.012      0.000      0.000
REMARK INTER + INTRA:         -14.080
REMARK INTER:                 -13.524
REMARK INTRA:                  -0.556
REMARK UNBOUND:                -0.556
REMARK SMILES COc1cc2c(cc1OC)C(=O)[C@H](CC1CCN(Cc3ccc(F)cc3)CC1)C2
REMARK SMILES IDX 15 1 16 2 17 3 18 4 27 5 28 6 14 7 13 8 3 9 4 10 8 11 5 12
REMARK SMILES IDX 7 13 6 14 29 15 11 16 12 17 2 18 1 19 9 20 10 21 19 22 20 23
REMARK SMILES IDX 21 24 26 25 22 26 25 27 23 28 24 29
REMARK H PARENT
ROOT
ATOM      1  C   UNL     1     135.742 112.106  39.172  1.00  0.00    -0.008 C 
ATOM      2  C   UNL     1     136.189 110.904  40.012  1.00  0.00     0.019 C 
ATOM      3  C   UNL     1     137.317 111.278  40.977  1.00  0.00     0.085 C 
ATOM      4  N   UNL     1     138.468 111.848  40.263  1.00  0.00    -0.299 NA
ATOM      5  C   UNL     1     138.068 113.060  39.532  1.00  0.00     0.085 C 
ATOM      6  C   UNL     1     136.972 112.747  38.510  1.00  0.00     0.019 C 
ENDROOT
BRANCH   1   7
ATOM      7  C   UNL     1     134.700 111.739  38.096  1.00  0.00     0.016 C 
BRANCH   7   8
ATOM      8  C   UNL     1     133.291 112.310  38.309  1.00  0.00     0.066 C 
ATOM      9  C   UNL     1     132.344 115.901  41.295  1.00  0.00     0.161 A 
ATOM     10  C   UNL     1     132.770 115.655  39.979  1.00  0.00     0.055 A 
ATOM     11  C   UNL     1     132.028 114.818  42.162  1.00  0.00     0.161 A 
ATOM     12  C   UNL     1     132.877 114.341  39.546  1.00  0.00    -0.033 A 
ATOM     13  C   UNL     1     132.139 113.502  41.710  1.00  0.00     0.062 A 
ATOM     14  C   UNL     1     132.563 113.304  40.408  1.00  0.00     0.025 A 
ATOM     15  C   UNL     1     133.289 113.858  38.192  1.00  0.00     0.048 C 
ATOM     16  C   UNL     1     132.763 112.043  39.709  1.00  0.00     0.166 C 
ATOM     17  O   UNL     1     132.527 110.956  40.207  1.00  0.00    -0.294 OA
BRANCH   9  18
ATOM     18  O   UNL     1     132.202 117.157  41.835  1.00  0.00    -0.493 OA
ATOM     19  C   UNL     1     132.683 118.260  41.082  1.00  0.00     0.278 C 
ENDBRANCH   9  18
BRANCH  11  20
ATOM     20  O   UNL     1     131.620 115.166  43.428  1.00  0.00    -0.493 OA
ATOM     21  C   UNL     1     130.509 114.471  43.976  1.00  0.00     0.278 C 
ENDBRANCH  11  20
ENDBRANCH   7   8
ENDBRANCH   1   7
BRANCH   4  22
ATOM     22  C   UNL     1     139.556 112.135  41.217  1.00  0.00     0.120 C 
BRANCH  22  23
ATOM     23  C   UNL     1     139.727 113.613  41.509  1.00  0.00    -0.034 A 
ATOM     24  C   UNL     1     138.632 114.390  41.918  1.00  0.00     0.008 A 
ATOM     25  C   UNL     1     140.990 114.218  41.393  1.00  0.00     0.008 A 
ATOM     26  C   UNL     1     138.798 115.749  42.199  1.00  0.00     0.039 A 
ATOM     27  C   UNL     1     141.154 115.575  41.673  1.00  0.00     0.039 A 
ATOM     28  C   UNL     1     140.056 116.327  42.073  1.00  0.00     0.123 A 
ATOM     29  F   UNL     1     140.212 117.630  42.343  1.00  0.00    -0.207 F 
ENDBRANCH  22  23
ENDBRANCH   4  22
TORSDOF 6
ENDMDL
MODEL 2
REMARK VINA RESULT:    -9.596      1.550      2.527
REMARK INTER + INTRA:         -13.518
REMARK INTER:                 -13.364
REMARK INTRA:                  -0.154
REMARK UNBOUND:                -0.556
REMARK SMILES COc1cc2c(cc1OC)C(=O)[C@H](CC1CCN(Cc3ccc(F)cc3)CC1)C2
REMARK SMILES IDX 15 1 16 2 17 3 18 4 27 5 28 6 14 7 13 8 3 9 4 10 8 11 5 12
REMARK SMILES IDX 7 13 6 14 29 15 11 16 12 17 2 18 1 19 9 20 10 21 19 22 20 23
REMARK SMILES IDX 21 24 26 25 22 26 25 27 23 28 24 29
REMARK H PARENT
ROOT
ATOM      1  C   UNL     1     135.390 111.641  40.399  1.00  0.00    -0.008 C 
ATOM      2  C   UNL     1     136.253 111.282  41.614  1.00  0.00     0.019 C 
ATOM      3  C   UNL     1     137.643 111.918  41.525  1.00  0.00     0.085 C 
ATOM      4  N   UNL     1     138.333 111.530  40.286  1.00  0.00    -0.299 NA
ATOM      5  C   UNL     1     137.556 111.958  39.113  1.00  0.00     0.085 C 
ATOM      6  C   UNL     1     136.166 111.319  39.112  1.00  0.00     0.019 C 
ENDROOT
BRANCH   1   7
ATOM      7  C   UNL     1     134.030 110.913  40.387  1.00  0.00     0.016 C 
BRANCH   7   8
ATOM      8  C   UNL     1     132.818 111.771  39.998  1.00  0.00     0.066 C 
ATOM      9  C   UNL     1     133.187 116.181  38.232  1.00  0.00     0.161 A 
ATOM     10  C   UNL     1     133.207 114.836  37.829  1.00  0.00     0.055 A 
ATOM     11  C   UNL     1     132.978 116.520  39.598  1.00  0.00     0.161 A 
ATOM     12  C   UNL     1     133.021 113.849  38.786  1.00  0.00    -0.033 A 
ATOM     13  C   UNL     1     132.790 115.514  40.549  1.00  0.00     0.062 A 
ATOM     14  C   UNL     1     132.818 114.202  40.110  1.00  0.00     0.025 A 
ATOM     15  C   UNL     1     132.986 112.369  38.575  1.00  0.00     0.048 C 
ATOM     16  C   UNL     1     132.656 112.987  40.894  1.00  0.00     0.166 C 
ATOM     17  O   UNL     1     132.423 112.989  42.091  1.00  0.00    -0.294 OA
BRANCH   9  18
ATOM     18  O   UNL     1     133.361 117.243  37.377  1.00  0.00    -0.493 OA
ATOM     19  C   UNL     1     132.712 117.189  36.114  1.00  0.00     0.278 C 
ENDBRANCH   9  18
BRANCH  11  20
ATOM     20  O   UNL     1     132.976 117.863  39.887  1.00  0.00    -0.493 OA
ATOM     21  C   UNL     1     132.497 118.260  41.165  1.00  0.00     0.278 C 
ENDBRANCH  11  20
ENDBRANCH   7   8
ENDBRANCH   1   7
BRANCH   4  22
ATOM     22  C   UNL     1     139.690 112.107  40.268  1.00  0.00     0.120 C 
BRANCH  22  23
ATOM     23  C   UNL     1     139.771 113.475  40.917  1.00  0.00    -0.034 A 
ATOM     24  C   UNL     1     140.947 113.889  41.564  1.00  0.00     0.008 A 
ATOM     25  C   UNL     1     138.677 114.354  40.862  1.00  0.00     0.008 A 
ATOM     26  C   UNL     1     141.022 115.155  42.149  1.00  0.00     0.039 A 
ATOM     27  C   UNL     1     138.753 115.619  41.447  1.00  0.00     0.039 A 
ATOM     28  C   UNL     1     139.925 116.007  42.085  1.00  0.00     0.123 A 
ATOM     29  F   UNL     1     139.999 117.220  42.648  1.00  0.00    -0.207 F 
ENDBRANCH  22  23
ENDBRANCH   4  22
TORSDOF 6
ENDMDL
MODEL 3
REMARK VINA RESULT:    -9.508      4.580      8.571
REMARK INTER + INTRA:         -13.399
REMARK INTER:                 -12.665
REMARK INTRA:                  -0.734
REMARK UNBOUND:                -0.556
REMARK SMILES COc1cc2c(cc1OC)C(=O)[C@H](CC1CCN(Cc3ccc(F)cc3)CC1)C2
REMARK SMILES IDX 15 1 16 2 17 3 18 4 27 5 28 6 14 7 13 8 3 9 4 10 8 11 5 12
REMARK SMILES IDX 7 13 6 14 29 15 11 16 12 17 2 18 1 19 9 20 10 21 19 22 20 23
REMARK SMILES IDX 21 24 26 25 22 26 25 27 23 28 24 29
REMARK H PARENT
ROOT
ATOM      1  C   UNL     1     134.191 109.969  40.082  1.00  0.00    -0.008 C 
ATOM      2  C   UNL     1     134.693 110.662  41.354  1.00  0.00     0.019 C 
ATOM      3  C   UNL     1     133.612 111.547  41.978  1.00  0.00     0.085 C 
ATOM      4  N   UNL     1     133.120 112.549  41.021  1.00  0.00    -0.299 NA
ATOM      5  C   UNL     1     132.547 111.889  39.838  1.00  0.00     0.085 C 
ATOM      6  C   UNL     1     133.592 111.021  39.134  1.00  0.00     0.019 C 
ENDROOT
BRANCH   1   7
ATOM      7  C   UNL     1     135.291 109.172  39.351  1.00  0.00     0.016 C 
BRANCH   7   8
ATOM      8  C   UNL     1     136.381 110.012  38.669  1.00  0.00     0.066 C 
ATOM      9  C   UNL     1     140.074 108.109  36.336  1.00  0.00     0.161 A 
ATOM     10  C   UNL     1     138.733 108.480  36.145  1.00  0.00     0.055 A 
ATOM     11  C   UNL     1     140.708 108.322  37.592  1.00  0.00     0.161 A 
ATOM     12  C   UNL     1     138.042 109.053  37.202  1.00  0.00    -0.033 A 
ATOM     13  C   UNL     1     139.998 108.903  38.645  1.00  0.00     0.062 A 
ATOM     14  C   UNL     1     138.680 109.252  38.415  1.00  0.00     0.025 A 
ATOM     15  C   UNL     1     136.626 109.535  37.212  1.00  0.00     0.048 C 
ATOM     16  C   UNL     1     137.735 109.860  39.342  1.00  0.00     0.166 C 
ATOM     17  O   UNL     1     138.029 110.187  40.479  1.00  0.00    -0.294 OA
BRANCH   9  18
ATOM     18  O   UNL     1     140.858 107.533  35.365  1.00  0.00    -0.493 OA
ATOM     19  C   UNL     1     141.042 108.247  34.151  1.00  0.00     0.278 C 
ENDBRANCH   9  18
BRANCH  11  20
ATOM     20  O   UNL     1     142.021 107.925  37.674  1.00  0.00    -0.493 OA
ATOM     21  C   UNL     1     142.335 106.874  38.577  1.00  0.00     0.278 C 
ENDBRANCH  11  20
ENDBRANCH   7   8
ENDBRANCH   1   7
BRANCH   4  22
ATOM     22  C   UNL     1     132.130 113.423  41.677  1.00  0.00     0.120 C 
BRANCH  22  23
ATOM     23  C   UNL     1     132.291 114.888  41.323  1.00  0.00    -0.034 A 
ATOM     24  C   UNL     1     131.918 115.888  42.236  1.00  0.00     0.008 A 
ATOM     25  C   UNL     1     132.837 115.264  40.084  1.00  0.00     0.008 A 
ATOM     26  C   UNL     1     132.082 117.236  41.910  1.00  0.00     0.039 A 
ATOM     27  C   UNL     1     132.999 116.612  39.760  1.00  0.00     0.039 A 
ATOM     28  C   UNL     1     132.620 117.585  40.676  1.00  0.00     0.123 A 
ATOM     29  F   UNL     1     132.774 118.879  40.367  1.00  0.00    -0.207 F 
ENDBRANCH  22  23
ENDBRANCH   4  22
TORSDOF 6
ENDMDL
MODEL 4
REMARK VINA RESULT:    -9.303      4.095      7.061
REMARK INTER + INTRA:         -13.123
REMARK INTER:                 -12.644
REMARK INTRA:                  -0.479
REMARK UNBOUND:                -0.556
REMARK SMILES COc1cc2c(cc1OC)C(=O)[C@H](CC1CCN(Cc3ccc(F)cc3)CC1)C2
REMARK SMILES IDX 15 1 16 2 17 3 18 4 27 5 28 6 14 7 13 8 3 9 4 10 8 11 5 12
REMARK SMILES IDX 7 13 6 14 29 15 11 16 12 17 2 18 1 19 9 20 10 21 19 22 20 23
REMARK SMILES IDX 21 24 26 25 22 26 25 27 23 28 24 29
REMARK H PARENT
ROOT
ATOM      1  C   UNL     1     132.886 114.689  42.461  1.00  0.00    -0.008 C 
ATOM      2  C   UNL     1     132.159 116.034  42.341  1.00  0.00     0.019 C 
ATOM      3  C   UNL     1     132.597 116.802  41.091  1.00  0.00     0.085 C 
ATOM      4  N   UNL     1     134.052 117.014  41.073  1.00  0.00    -0.299 NA
ATOM      5  C   UNL     1     134.757 115.722  41.090  1.00  0.00     0.085 C 
ATOM      6  C   UNL     1     134.401 114.920  42.343  1.00  0.00     0.019 C 
ENDROOT
BRANCH   1   7
ATOM      7  C   UNL     1     132.570 113.946  43.775  1.00  0.00     0.016 C 
BRANCH   7   8
ATOM      8  C   UNL     1     132.566 112.413  43.690  1.00  0.00     0.066 C 
ATOM      9  C   UNL     1     135.783 109.919  41.212  1.00  0.00     0.161 A 
ATOM     10  C   UNL     1     135.593 110.516  42.469  1.00  0.00     0.055 A 
ATOM     11  C   UNL     1     134.754 109.968  40.230  1.00  0.00     0.161 A 
ATOM     12  C   UNL     1     134.389 111.153  42.731  1.00  0.00    -0.033 A 
ATOM     13  C   UNL     1     133.546 110.611  40.512  1.00  0.00     0.062 A 
ATOM     14  C   UNL     1     133.401 111.186  41.761  1.00  0.00     0.025 A 
ATOM     15  C   UNL     1     133.972 111.831  43.997  1.00  0.00     0.048 C 
ATOM     16  C   UNL     1     132.255 111.911  42.290  1.00  0.00     0.166 C 
ATOM     17  O   UNL     1     131.217 112.066  41.671  1.00  0.00    -0.294 OA
BRANCH   9  18
ATOM     18  O   UNL     1     136.931 109.264  40.837  1.00  0.00    -0.493 OA
ATOM     19  C   UNL     1     137.070 107.902  41.216  1.00  0.00     0.278 C 
ENDBRANCH   9  18
BRANCH  11  20
ATOM     20  O   UNL     1     135.039 109.354  39.034  1.00  0.00    -0.493 OA
ATOM     21  C   UNL     1     134.930 110.133  37.852  1.00  0.00     0.278 C 
ENDBRANCH  11  20
ENDBRANCH   7   8
ENDBRANCH   1   7
BRANCH   4  22
ATOM     22  C   UNL     1     134.426 117.811  39.891  1.00  0.00     0.120 C 
BRANCH  22  23
ATOM     23  C   UNL     1     133.907 117.237  38.587  1.00  0.00    -0.034 A 
ATOM     24  C   UNL     1     133.230 118.053  37.667  1.00  0.00     0.008 A 
ATOM     25  C   UNL     1     134.115 115.883  38.275  1.00  0.00     0.008 A 
ATOM     26  C   UNL     1     132.765 117.522  36.462  1.00  0.00     0.039 A 
ATOM     27  C   UNL     1     133.649 115.354  37.070  1.00  0.00     0.039 A 
ATOM     28  C   UNL     1     132.979 116.178  36.176  1.00  0.00     0.123 A 
ATOM     29  F   UNL     1     132.531 115.672  35.020  1.00  0.00    -0.207 F 
ENDBRANCH  22  23
ENDBRANCH   4  22
TORSDOF 6
ENDMDL
MODEL 5
REMARK VINA RESULT:    -8.861      3.523      5.008
REMARK INTER + INTRA:         -12.525
REMARK INTER:                 -11.843
REMARK INTRA:                  -0.683
REMARK UNBOUND:                -0.556
REMARK SMILES COc1cc2c(cc1OC)C(=O)[C@H](CC1CCN(Cc3ccc(F)cc3)CC1)C2
REMARK SMILES IDX 15 1 16 2 17 3 18 4 27 5 28 6 14 7 13 8 3 9 4 10 8 11 5 12
REMARK SMILES IDX 7 13 6 14 29 15 11 16 12 17 2 18 1 19 9 20 10 21 19 22 20 23
REMARK SMILES IDX 21 24 26 25 22 26 25 27 23 28 24 29
REMARK H PARENT
ROOT
ATOM      1  C   UNL     1     135.003 110.823  40.375  1.00  0.00    -0.008 C 
ATOM      2  C   UNL     1     135.907 112.016  40.706  1.00  0.00     0.019 C 
ATOM      3  C   UNL     1     137.263 111.907  40.004  1.00  0.00     0.085 C 
ATOM      4  N   UNL     1     137.945 110.650  40.346  1.00  0.00    -0.299 NA
ATOM      5  C   UNL     1     137.124 109.497  39.943  1.00  0.00     0.085 C 
ATOM      6  C   UNL     1     135.766 109.517  40.648  1.00  0.00     0.019 C 
ENDROOT
BRANCH   1   7
ATOM      7  C   UNL     1     133.679 110.830  41.166  1.00  0.00     0.016 C 
BRANCH   7   8
ATOM      8  C   UNL     1     132.545 111.671  40.563  1.00  0.00     0.066 C 
ATOM      9  C   UNL     1     133.257 115.851  38.388  1.00  0.00     0.161 A 
ATOM     10  C   UNL     1     133.267 114.469  38.134  1.00  0.00     0.055 A 
ATOM     11  C   UNL     1     132.921 116.342  39.681  1.00  0.00     0.161 A 
ATOM     12  C   UNL     1     132.948 113.598  39.166  1.00  0.00    -0.033 A 
ATOM     13  C   UNL     1     132.600 115.451  40.708  1.00  0.00     0.062 A 
ATOM     14  C   UNL     1     132.625 114.099  40.416  1.00  0.00     0.025 A 
ATOM     15  C   UNL     1     132.880 112.105  39.111  1.00  0.00     0.048 C 
ATOM     16  C   UNL     1     132.338 112.982  41.304  1.00  0.00     0.166 C 
ATOM     17  O   UNL     1     131.985 113.120  42.462  1.00  0.00    -0.294 OA
BRANCH   9  18
ATOM     18  O   UNL     1     133.556 116.807  37.448  1.00  0.00    -0.493 OA
ATOM     19  C   UNL     1     132.740 116.874  36.288  1.00  0.00     0.278 C 
ENDBRANCH   9  18
BRANCH  11  20
ATOM     20  O   UNL     1     132.940 117.708  39.824  1.00  0.00    -0.493 OA
ATOM     21  C   UNL     1     132.681 118.237  41.118  1.00  0.00     0.278 C 
ENDBRANCH  11  20
ENDBRANCH   7   8
ENDBRANCH   1   7
BRANCH   4  22
ATOM     22  C   UNL     1     139.272 110.611  39.705  1.00  0.00     0.120 C 
BRANCH  22  23
ATOM     23  C   UNL     1     139.314 109.751  38.457  1.00  0.00    -0.034 A 
ATOM     24  C   UNL     1     138.688 110.180  37.275  1.00  0.00     0.008 A 
ATOM     25  C   UNL     1     139.997 108.524  38.462  1.00  0.00     0.008 A 
ATOM     26  C   UNL     1     138.740 109.390  36.124  1.00  0.00     0.039 A 
ATOM     27  C   UNL     1     140.048 107.736  37.310  1.00  0.00     0.039 A 
ATOM     28  C   UNL     1     139.419 108.177  36.153  1.00  0.00     0.123 A 
ATOM     29  F   UNL     1     139.467 107.423  35.048  1.00  0.00    -0.207 F 
ENDBRANCH  22  23
ENDBRANCH   4  22
TORSDOF 6
ENDMDL
MODEL 6
REMARK VINA RESULT:    -8.724      3.651      6.045
REMARK INTER + INTRA:         -12.340
REMARK INTER:                 -12.423
REMARK INTRA:                   0.083
REMARK UNBOUND:                -0.556
REMARK SMILES COc1cc2c(cc1OC)C(=O)[C@H](CC1CCN(Cc3ccc(F)cc3)CC1)C2
REMARK SMILES IDX 15 1 16 2 17 3 18 4 27 5 28 6 14 7 13 8 3 9 4 10 8 11 5 12
REMARK SMILES IDX 7 13 6 14 29 15 11 16 12 17 2 18 1 19 9 20 10 21 19 22 20 23
REMARK SMILES IDX 21 24 26 25 22 26 25 27 23 28 24 29
REMARK H PARENT
ROOT
ATOM      1  C   UNL     1     134.315 113.057  43.045  1.00  0.00    -0.008 C 
ATOM      2  C   UNL     1     133.669 111.712  42.692  1.00  0.00     0.019 C 
ATOM      3  C   UNL     1     134.715 110.681  42.259  1.00  0.00     0.085 C 
ATOM      4  N   UNL     1     135.511 111.168  41.124  1.00  0.00    -0.299 NA
ATOM      5  C   UNL     1     136.212 112.410  41.486  1.00  0.00     0.085 C 
ATOM      6  C   UNL     1     135.220 113.504  41.885  1.00  0.00     0.019 C 
ENDROOT
BRANCH   1   7
ATOM      7  C   UNL     1     133.283 114.160  43.358  1.00  0.00     0.016 C 
BRANCH   7   8
ATOM      8  C   UNL     1     132.224 114.410  42.275  1.00  0.00     0.066 C 
ATOM      9  C   UNL     1     133.144 114.160  37.606  1.00  0.00     0.161 A 
ATOM     10  C   UNL     1     132.798 113.347  38.699  1.00  0.00     0.055 A 
ATOM     11  C   UNL     1     133.293 115.565  37.774  1.00  0.00     0.161 A 
ATOM     12  C   UNL     1     132.608 113.940  39.938  1.00  0.00    -0.033 A 
ATOM     13  C   UNL     1     133.096 116.146  39.029  1.00  0.00     0.062 A 
ATOM     14  C   UNL     1     132.758 115.310  40.077  1.00  0.00     0.025 A 
ATOM     15  C   UNL     1     132.222 113.272  41.219  1.00  0.00     0.048 C 
ATOM     16  C   UNL     1     132.508 115.665  41.467  1.00  0.00     0.166 C 
ATOM     17  O   UNL     1     132.530 116.812  41.879  1.00  0.00    -0.294 OA
BRANCH   9  18
ATOM     18  O   UNL     1     133.358 113.687  36.334  1.00  0.00    -0.493 OA
ATOM     19  C   UNL     1     132.737 112.463  35.969  1.00  0.00     0.278 C 
ENDBRANCH   9  18
BRANCH  11  20
ATOM     20  O   UNL     1     133.632 116.269  36.643  1.00  0.00    -0.493 OA
ATOM     21  C   UNL     1     132.691 117.211  36.149  1.00  0.00     0.278 C 
ENDBRANCH  11  20
ENDBRANCH   7   8
ENDBRANCH   1   7
BRANCH   4  22
ATOM     22  C   UNL     1     136.460 110.124  40.694  1.00  0.00     0.120 C 
BRANCH  22  23
ATOM     23  C   UNL     1     136.212 109.629  39.283  1.00  0.00    -0.034 A 
ATOM     24  C   UNL     1     135.210 110.208  38.489  1.00  0.00     0.008 A 
ATOM     25  C   UNL     1     136.998 108.596  38.745  1.00  0.00     0.008 A 
ATOM     26  C   UNL     1     134.994 109.757  37.185  1.00  0.00     0.039 A 
ATOM     27  C   UNL     1     136.781 108.146  37.441  1.00  0.00     0.039 A 
ATOM     28  C   UNL     1     135.782 108.731  36.674  1.00  0.00     0.123 A 
ATOM     29  F   UNL     1     135.572 108.300  35.424  1.00  0.00    -0.207 F 
ENDBRANCH  22  23
ENDBRANCH   4  22
TORSDOF 6
ENDMDL
MODEL 7
REMARK VINA RESULT:    -8.716      1.263      1.858
REMARK INTER + INTRA:         -12.330
REMARK INTER:                 -12.398
REMARK INTRA:                   0.068
REMARK UNBOUND:                -0.556
REMARK SMILES COc1cc2c(cc1OC)C(=O)[C@H](CC1CCN(Cc3ccc(F)cc3)CC1)C2
REMARK SMILES IDX 15 1 16 2 17 3 18 4 27 5 28 6 14 7 13 8 3 9 4 10 8 11 5 12
REMARK SMILES IDX 7 13 6 14 29 15 11 16 12 17 2 18 1 19 9 20 10 21 19 22 20 23
REMARK SMILES IDX 21 24 26 25 22 26 25 27 23 28 24 29
REMARK H PARENT
ROOT
ATOM      1  C   UNL     1     135.726 110.321  39.168  1.00  0.00    -0.008 C 
ATOM      2  C   UNL     1     136.727 111.080  38.289  1.00  0.00     0.019 C 
ATOM      3  C   UNL     1     138.081 111.240  38.985  1.00  0.00     0.085 C 
ATOM      4  N   UNL     1     137.941 111.914  40.284  1.00  0.00    -0.299 NA
ATOM      5  C   UNL     1     137.058 111.140  41.169  1.00  0.00     0.085 C 
ATOM      6  C   UNL     1     135.665 110.982  40.554  1.00  0.00     0.019 C 
ENDROOT
BRANCH   1   7
ATOM      7  C   UNL     1     134.312 110.255  38.557  1.00  0.00     0.016 C 
BRANCH   7   8
ATOM      8  C   UNL     1     133.714 111.597  38.114  1.00  0.00     0.066 C 
ATOM      9  C   UNL     1     134.342 115.665  40.514  1.00  0.00     0.161 A 
ATOM     10  C   UNL     1     134.961 114.861  39.544  1.00  0.00     0.055 A 
ATOM     11  C   UNL     1     133.082 115.293  41.059  1.00  0.00     0.161 A 
ATOM     12  C   UNL     1     134.323 113.700  39.132  1.00  0.00    -0.033 A 
ATOM     13  C   UNL     1     132.451 114.123  40.632  1.00  0.00     0.062 A 
ATOM     14  C   UNL     1     133.096 113.358  39.676  1.00  0.00     0.025 A 
ATOM     15  C   UNL     1     134.790 112.716  38.107  1.00  0.00     0.048 C 
ATOM     16  C   UNL     1     132.655 112.107  39.078  1.00  0.00     0.166 C 
ATOM     17  O   UNL     1     131.586 111.581  39.336  1.00  0.00    -0.294 OA
BRANCH   9  18
ATOM     18  O   UNL     1     134.879 116.834  41.000  1.00  0.00    -0.493 OA
ATOM     19  C   UNL     1     135.058 117.909  40.089  1.00  0.00     0.278 C 
ENDBRANCH   9  18
BRANCH  11  20
ATOM     20  O   UNL     1     132.562 116.149  42.001  1.00  0.00    -0.493 OA
ATOM     21  C   UNL     1     131.486 115.674  42.798  1.00  0.00     0.278 C 
ENDBRANCH  11  20
ENDBRANCH   7   8
ENDBRANCH   1   7
BRANCH   4  22
ATOM     22  C   UNL     1     139.270 112.108  40.892  1.00  0.00     0.120 C 
BRANCH  22  23
ATOM     23  C   UNL     1     139.545 113.543  41.294  1.00  0.00    -0.034 A 
ATOM     24  C   UNL     1     140.825 113.932  41.719  1.00  0.00     0.008 A 
ATOM     25  C   UNL     1     138.526 114.508  41.226  1.00  0.00     0.008 A 
ATOM     26  C   UNL     1     141.077 115.259  42.076  1.00  0.00     0.039 A 
ATOM     27  C   UNL     1     138.779 115.833  41.583  1.00  0.00     0.039 A 
ATOM     28  C   UNL     1     140.051 116.196  42.005  1.00  0.00     0.123 A 
ATOM     29  F   UNL     1     140.296 117.467  42.348  1.00  0.00    -0.207 F 
ENDBRANCH  22  23
ENDBRANCH   4  22
TORSDOF 6
ENDMDL
MODEL 8
REMARK VINA RESULT:    -8.647      4.116      5.446
REMARK INTER + INTRA:         -12.237
REMARK INTER:                 -11.401
REMARK INTRA:                  -0.836
REMARK UNBOUND:                -0.556
REMARK SMILES COc1cc2c(cc1OC)C(=O)[C@H](CC1CCN(Cc3ccc(F)cc3)CC1)C2
REMARK SMILES IDX 15 1 16 2 17 3 18 4 27 5 28 6 14 7 13 8 3 9 4 10 8 11 5 12
REMARK SMILES IDX 7 13 6 14 29 15 11 16 12 17 2 18 1 19 9 20 10 21 19 22 20 23
REMARK SMILES IDX 21 24 26 25 22 26 25 27 23 28 24 29
REMARK H PARENT
ROOT
ATOM      1  C   UNL     1     137.227 110.448  40.656  1.00  0.00    -0.008 C 
ATOM      2  C   UNL     1     136.349 109.238  40.317  1.00  0.00     0.019 C 
ATOM      3  C   UNL     1     137.147 108.146  39.599  1.00  0.00     0.085 C 
ATOM      4  N   UNL     1     137.785 108.662  38.379  1.00  0.00    -0.299 NA
ATOM      5  C   UNL     1     138.704 109.763  38.708  1.00  0.00     0.085 C 
ATOM      6  C   UNL     1     137.960 110.914  39.388  1.00  0.00     0.019 C 
ENDROOT
BRANCH   1   7
ATOM      7  C   UNL     1     136.431 111.623  41.261  1.00  0.00     0.016 C 
BRANCH   7   8
ATOM      8  C   UNL     1     135.169 112.039  40.493  1.00  0.00     0.066 C 
ATOM      9  C   UNL     1     132.417 115.713  41.773  1.00  0.00     0.161 A 
ATOM     10  C   UNL     1     133.576 115.418  41.037  1.00  0.00     0.055 A 
ATOM     11  C   UNL     1     131.680 114.670  42.402  1.00  0.00     0.161 A 
ATOM     12  C   UNL     1     133.987 114.097  40.938  1.00  0.00    -0.033 A 
ATOM     13  C   UNL     1     132.106 113.345  42.290  1.00  0.00     0.062 A 
ATOM     14  C   UNL     1     133.254 113.099  41.558  1.00  0.00     0.025 A 
ATOM     15  C   UNL     1     135.170 113.562  40.195  1.00  0.00     0.048 C 
ATOM     16  C   UNL     1     133.900 111.820  41.301  1.00  0.00     0.166 C 
ATOM     17  O   UNL     1     133.455 110.755  41.691  1.00  0.00    -0.294 OA
BRANCH   9  18
ATOM     18  O   UNL     1     131.914 116.981  41.941  1.00  0.00    -0.493 OA
ATOM     19  C   UNL     1     132.529 118.038  41.220  1.00  0.00     0.278 C 
ENDBRANCH   9  18
BRANCH  11  20
ATOM     20  O   UNL     1     130.562 115.064  43.097  1.00  0.00    -0.493 OA
ATOM     21  C   UNL     1     129.893 114.083  43.877  1.00  0.00     0.278 C 
ENDBRANCH  11  20
ENDBRANCH   7   8
ENDBRANCH   1   7
BRANCH   4  22
ATOM     22  C   UNL     1     138.488 107.569  37.682  1.00  0.00     0.120 C 
BRANCH  22  23
ATOM     23  C   UNL     1     138.962 107.947  36.293  1.00  0.00    -0.034 A 
ATOM     24  C   UNL     1     138.078 108.533  35.373  1.00  0.00     0.008 A 
ATOM     25  C   UNL     1     140.299 107.734  35.916  1.00  0.00     0.008 A 
ATOM     26  C   UNL     1     138.523 108.892  34.098  1.00  0.00     0.039 A 
ATOM     27  C   UNL     1     140.741 108.093  34.642  1.00  0.00     0.039 A 
ATOM     28  C   UNL     1     139.849 108.668  33.745  1.00  0.00     0.123 A 
ATOM     29  F   UNL     1     140.273 109.012  32.522  1.00  0.00    -0.207 F 
ENDBRANCH  22  23
ENDBRANCH   4  22
TORSDOF 6
ENDMDL
MODEL 9
REMARK VINA RESULT:    -8.646      3.992      5.909
REMARK INTER + INTRA:         -12.235
REMARK INTER:                 -11.738
REMARK INTRA:                  -0.497
REMARK UNBOUND:                -0.556
REMARK SMILES COc1cc2c(cc1OC)C(=O)[C@H](CC1CCN(Cc3ccc(F)cc3)CC1)C2
REMARK SMILES IDX 15 1 16 2 17 3 18 4 27 5 28 6 14 7 13 8 3 9 4 10 8 11 5 12
REMARK SMILES IDX 7 13 6 14 29 15 11 16 12 17 2 18 1 19 9 20 10 21 19 22 20 23
REMARK SMILES IDX 21 24 26 25 22 26 25 27 23 28 24 29
REMARK H PARENT
ROOT
ATOM      1  C   UNL     1     134.584 110.291  39.744  1.00  0.00    -0.008 C 
ATOM      2  C   UNL     1     134.731 108.771  39.600  1.00  0.00     0.019 C 
ATOM      3  C   UNL     1     135.627 108.401  38.415  1.00  0.00     0.085 C 
ATOM      4  N   UNL     1     135.123 108.978  37.161  1.00  0.00    -0.299 NA
ATOM      5  C   UNL     1     135.071 110.445  37.257  1.00  0.00     0.085 C 
ATOM      6  C   UNL     1     134.150 110.888  38.396  1.00  0.00     0.019 C 
ENDROOT
BRANCH   1   7
ATOM      7  C   UNL     1     133.584 110.700  40.844  1.00  0.00     0.016 C 
BRANCH   7   8
ATOM      8  C   UNL     1     134.120 111.669  41.907  1.00  0.00     0.066 C 
ATOM      9  C   UNL     1     135.731 116.038  40.894  1.00  0.00     0.161 A 
ATOM     10  C   UNL     1     134.539 115.347  41.166  1.00  0.00     0.055 A 
ATOM     11  C   UNL     1     136.978 115.352  40.902  1.00  0.00     0.161 A 
ATOM     12  C   UNL     1     134.601 113.988  41.439  1.00  0.00    -0.033 A 
ATOM     13  C   UNL     1     137.023 113.984  41.181  1.00  0.00     0.062 A 
ATOM     14  C   UNL     1     135.826 113.341  41.441  1.00  0.00     0.025 A 
ATOM     15  C   UNL     1     133.468 113.071  41.770  1.00  0.00     0.048 C 
ATOM     16  C   UNL     1     135.608 111.936  41.750  1.00  0.00     0.166 C 
ATOM     17  O   UNL     1     136.513 111.126  41.860  1.00  0.00    -0.294 OA
BRANCH   9  18
ATOM     18  O   UNL     1     135.794 117.381  40.610  1.00  0.00    -0.493 OA
ATOM     19  C   UNL     1     134.802 117.923  39.751  1.00  0.00     0.278 C 
ENDBRANCH   9  18
BRANCH  11  20
ATOM     20  O   UNL     1     138.084 116.119  40.625  1.00  0.00    -0.493 OA
ATOM     21  C   UNL     1     139.184 116.034  41.520  1.00  0.00     0.278 C 
ENDBRANCH  11  20
ENDBRANCH   7   8
ENDBRANCH   1   7
BRANCH   4  22
ATOM     22  C   UNL     1     135.973 108.546  36.036  1.00  0.00     0.120 C 
BRANCH  22  23
ATOM     23  C   UNL     1     137.443 108.452  36.393  1.00  0.00    -0.034 A 
ATOM     24  C   UNL     1     138.184 109.610  36.678  1.00  0.00     0.008 A 
ATOM     25  C   UNL     1     138.078 107.200  36.465  1.00  0.00     0.008 A 
ATOM     26  C   UNL     1     139.535 109.516  37.020  1.00  0.00     0.039 A 
ATOM     27  C   UNL     1     139.428 107.108  36.806  1.00  0.00     0.039 A 
ATOM     28  C   UNL     1     140.144 108.267  37.080  1.00  0.00     0.123 A 
ATOM     29  F   UNL     1     141.439 108.181  37.407  1.00  0.00    -0.207 F 
ENDBRANCH  22  23
ENDBRANCH   4  22
TORSDOF 6
ENDMDL
