REMARK SMILES COC(=O)N(CC(=O)O)Cc1cccc(OCc2coc(-c3ccc(C(F)(F)F)cc3)n2)c1
REMARK SMILES IDX 11 1 12 2 13 3 14 4 15 5 33 6 10 7 5 8 3 9 4 10 2 11 1 12
REMARK SMILES IDX 6 13 7 14 8 15 9 16 16 18 17 19 18 20 19 21 32 22 20 23
REMARK SMILES IDX 21 24 22 25 23 26 31 27 24 28 30 29 25 30 26 31 27 32 28 33
REMARK SMILES IDX 29 34
REMARK H PARENT 9 17
REMARK INDEX MAP 11 1 12 2 13 3 14 4 15 5 33 6 10 7 5 8 3 9 4 10 2 11 1 12
REMARK INDEX MAP 6 13 7 14 8 15 9 16 39 17 16 18 17 19 18 20 19 21 32 22 20 23
REMARK INDEX MAP 21 24 22 25 23 26 31 27 24 28 30 29 25 30 26 31 27 32 28 33
REMARK INDEX MAP 29 34
ROOT
ATOM      1  C   UNL     1      -7.496  -7.478 -21.818  1.00  0.00    -0.025 A 
ATOM      2  C   UNL     1      -6.605  -8.515 -21.510  1.00  0.00     0.006 A 
ATOM      3  C   UNL     1      -6.882  -9.820 -21.914  1.00  0.00     0.004 A 
ATOM      4  C   UNL     1      -8.046 -10.094 -22.632  1.00  0.00     0.046 A 
ATOM      5  C   UNL     1      -8.941  -9.072 -22.956  1.00  0.00     0.120 A 
ATOM      6  C   UNL     1      -8.668  -7.769 -22.537  1.00  0.00     0.052 A 
ENDROOT
BRANCH   1   7
ATOM      7  C   UNL     1      -7.199  -6.056 -21.403  1.00  0.00     0.159 C 
BRANCH   7   8
ATOM      8  N   UNL     1      -7.367  -5.835 -19.974  1.00  0.00    -0.293 N 
BRANCH   8   9
ATOM      9  C   UNL     1      -8.628  -5.598 -19.465  1.00  0.00     0.410 C 
ATOM     10  O   UNL     1      -9.190  -4.510 -19.503  1.00  0.00    -0.224 OA
BRANCH   9  11
ATOM     11  O   UNL     1      -9.185  -6.714 -18.918  1.00  0.00    -0.453 OA
ATOM     12  C   UNL     1     -10.279  -6.452 -18.038  1.00  0.00     0.284 C 
ENDBRANCH   9  11
ENDBRANCH   8   9
BRANCH   8  13
ATOM     13  C   UNL     1      -6.169  -5.780 -19.131  1.00  0.00     0.245 C 
BRANCH  13  14
ATOM     14  C   UNL     1      -5.070  -4.839 -19.614  1.00  0.00     0.323 C 
ATOM     15  O   UNL     1      -5.087  -3.623 -19.481  1.00  0.00    -0.250 OA
BRANCH  14  16
ATOM     16  O   UNL     1      -4.054  -5.427 -20.273  1.00  0.00    -0.480 OA
ATOM     17  H   UNL     1      -3.304  -4.880 -20.616  1.00  0.00     0.296 HD
ENDBRANCH  14  16
ENDBRANCH  13  14
ENDBRANCH   8  13
ENDBRANCH   7   8
ENDBRANCH   1   7
BRANCH   5  18
ATOM     18  O   UNL     1     -10.032  -9.474 -23.675  1.00  0.00    -0.487 OA
BRANCH  18  19
ATOM     19  C   UNL     1     -11.025  -8.480 -23.954  1.00  0.00     0.289 C 
BRANCH  19  20
ATOM     20  C   UNL     1     -11.074  -8.165 -25.409  1.00  0.00     0.117 A 
ATOM     21  C   UNL     1     -12.095  -7.611 -26.146  1.00  0.00     0.225 A 
ATOM     22  N   UNL     1      -9.997  -8.409 -26.239  1.00  0.00    -0.211 NA
ATOM     23  O   UNL     1     -11.683  -7.505 -27.438  1.00  0.00    -0.444 OA
ATOM     24  C   UNL     1     -10.406  -8.008 -27.429  1.00  0.00     0.226 A 
BRANCH  24  25
ATOM     25  C   UNL     1      -9.697  -8.034 -28.706  1.00  0.00     0.037 A 
ATOM     26  C   UNL     1     -10.144  -7.310 -29.820  1.00  0.00     0.014 A 
ATOM     27  C   UNL     1      -8.532  -8.806 -28.835  1.00  0.00     0.014 A 
ATOM     28  C   UNL     1      -9.448  -7.359 -31.033  1.00  0.00     0.014 A 
ATOM     29  C   UNL     1      -7.835  -8.857 -30.046  1.00  0.00     0.014 A 
ATOM     30  C   UNL     1      -8.291  -8.141 -31.162  1.00  0.00     0.056 A 
BRANCH  30  31
ATOM     31  C   UNL     1      -7.526  -8.179 -32.463  1.00  0.00     0.416 C 
ATOM     32  F   UNL     1      -6.258  -8.647 -32.305  1.00  0.00    -0.166 F 
ATOM     33  F   UNL     1      -8.108  -8.980 -33.400  1.00  0.00    -0.166 F 
ATOM     34  F   UNL     1      -7.403  -6.954 -33.049  1.00  0.00    -0.166 F 
ENDBRANCH  30  31
ENDBRANCH  24  25
ENDBRANCH  19  20
ENDBRANCH  18  19
ENDBRANCH   5  18
TORSDOF 12
