REMARK VINA RESULT:   -11.792      3.495      7.142
REMARK INTER + INTRA:         -17.977
REMARK INTER:                 -15.643
REMARK INTRA:                  -2.334
REMARK UNBOUND:                -1.360
REMARK SMILES O=C(Nc1cccc(-c2nc3sccn3c2-c2ccnc(Nc3cccc(N4CCCC4=O)c3)n2)c1)c1c(F)cccc1F
REMARK SMILES IDX 9 1 10 2 11 3 12 4 13 5 14 6 15 7 16 8 8 9 4 10 5 11 36 12
REMARK SMILES IDX 6 13 7 14 3 15 1 16 2 17 37 19 38 20 43 21 40 22 42 23 41 24
REMARK SMILES IDX 39 25 44 26 17 27 18 28 35 29 19 30 21 31 20 32 22 33 23 35
REMARK SMILES IDX 24 36 34 37 25 38 27 39 26 40 28 41 29 42 32 43 30 44 31 45
REMARK SMILES IDX 33 46
REMARK H PARENT 3 18 22 34
ROOT
ATOM      1  C   UNL     1      25.932  33.185  15.183  1.00  0.00     0.100 A 
ATOM      2  N   UNL     1      27.258  32.782  15.258  1.00  0.00    -0.218 NA
ATOM      3  C   UNL     1      27.588  32.623  14.010  1.00  0.00     0.194 A 
ATOM      4  S   UNL     1      29.035  32.127  13.189  1.00  0.00    -0.105 S 
ATOM      5  C   UNL     1      28.198  32.356  11.647  1.00  0.00     0.087 A 
ATOM      6  C   UNL     1      26.930  32.777  11.798  1.00  0.00     0.105 A 
ATOM      7  N   UNL     1      26.592  32.922  13.129  1.00  0.00    -0.288 N 
ATOM      8  C   UNL     1      25.500  33.329  13.859  1.00  0.00     0.100 A 
ENDROOT
BRANCH   1   9
ATOM      9  C   UNL     1      25.152  33.429  16.386  1.00  0.00     0.005 A 
ATOM     10  C   UNL     1      22.976  33.870  17.408  1.00  0.00     0.042 A 
ATOM     11  C   UNL     1      23.587  33.898  18.661  1.00  0.00     0.026 A 
ATOM     12  C   UNL     1      23.769  33.640  16.274  1.00  0.00     0.036 A 
ATOM     13  C   UNL     1      24.967  33.712  18.782  1.00  0.00     0.003 A 
ATOM     14  C   UNL     1      25.748  33.488  17.649  1.00  0.00     0.010 A 
BRANCH  10  15
ATOM     15  N   UNL     1      21.596  34.075  17.193  1.00  0.00    -0.322 N 
ATOM     16  O   UNL     1      21.415  36.383  17.341  1.00  0.00    -0.269 OA
ATOM     17  C   UNL     1      20.916  35.282  17.144  1.00  0.00     0.261 C 
ATOM     18  H   UNL     1      21.050  33.228  17.073  1.00  0.00     0.170 HD
BRANCH  17  19
ATOM     19  C   UNL     1      19.459  35.203  16.839  1.00  0.00     0.111 A 
ATOM     20  C   UNL     1      18.992  35.554  15.569  1.00  0.00     0.138 A 
ATOM     21  C   UNL     1      18.516  34.800  17.788  1.00  0.00     0.138 A 
ATOM     22  C   UNL     1      17.629  35.508  15.258  1.00  0.00     0.040 A 
ATOM     23  C   UNL     1      17.153  34.751  17.491  1.00  0.00     0.040 A 
ATOM     24  C   UNL     1      16.706  35.107  16.222  1.00  0.00     0.006 A 
ATOM     25  F   UNL     1      19.829  35.926  14.591  1.00  0.00    -0.206 F 
ATOM     26  F   UNL     1      18.894  34.444  19.027  1.00  0.00    -0.206 F 
ENDBRANCH  17  19
ENDBRANCH  10  15
ENDBRANCH   1   9
BRANCH   8  27
ATOM     27  C   UNL     1      24.264  33.803  13.261  1.00  0.00     0.095 A 
ATOM     28  C   UNL     1      24.094  35.106  12.856  1.00  0.00     0.051 A 
ATOM     29  N   UNL     1      23.311  32.862  13.138  1.00  0.00    -0.211 NA
ATOM     30  C   UNL     1      22.866  35.393  12.321  1.00  0.00     0.117 A 
ATOM     31  C   UNL     1      22.136  33.233  12.610  1.00  0.00     0.227 A 
ATOM     32  N   UNL     1      21.884  34.482  12.189  1.00  0.00    -0.221 NA
BRANCH  31  33
ATOM     33  N   UNL     1      21.089  32.333  12.443  1.00  0.00    -0.324 N 
ATOM     34  H   UNL     1      21.465  31.399  12.355  1.00  0.00     0.170 HD
BRANCH  33  35
ATOM     35  C   UNL     1      19.698  32.461  12.346  1.00  0.00     0.043 A 
ATOM     36  C   UNL     1      18.838  32.456  13.444  1.00  0.00     0.026 A 
ATOM     37  C   UNL     1      19.126  32.579  11.062  1.00  0.00     0.052 A 
ATOM     38  C   UNL     1      17.459  32.566  13.270  1.00  0.00     0.004 A 
ATOM     39  C   UNL     1      17.742  32.694  10.857  1.00  0.00     0.046 A 
ATOM     40  C   UNL     1      16.917  32.682  11.989  1.00  0.00     0.026 A 
BRANCH  39  41
ATOM     41  N   UNL     1      17.182  32.821   9.553  1.00  0.00    -0.312 N 
ATOM     42  C   UNL     1      16.580  34.046   9.082  1.00  0.00     0.126 C 
ATOM     43  C   UNL     1      17.203  31.854   8.535  1.00  0.00     0.227 C 
ATOM     44  C   UNL     1      15.788  33.629   7.860  1.00  0.00     0.032 C 
ATOM     45  C   UNL     1      16.596  32.477   7.300  1.00  0.00     0.102 C 
ATOM     46  O   UNL     1      17.662  30.722   8.546  1.00  0.00    -0.275 OA
ENDBRANCH  39  41
ENDBRANCH  33  35
ENDBRANCH  31  33
ENDBRANCH   8  27
TORSDOF 7
