MODEL 9
REMARK minimizedAffinity -7.70000458
REMARK CNNscore 0.347982198
REMARK CNNaffinity 7.20011473
REMARK SMILES O=C(Nc1ccc(-c2nc(N3C[C@@H]4C[C@H]3CO4)c3cnn(CC(F)(F)F)c3n2)cc1)NC1CC1
REMARK SMILES IDX 8 1 9 2 10 3 18 4 19 5 20 6 21 7 27 8 28 9 7 10 4 11 5 12
REMARK SMILES IDX 30 13 6 14 29 15 3 16 1 17 2 18 31 19 32 22 33 23 34 24
REMARK SMILES IDX 11 25 12 26 15 27 13 28 14 29 16 30 17 31 22 32 23 33 24 34
REMARK SMILES IDX 25 35 26 36
REMARK H PARENT 3 20 31 21
ROOT
ATOM      1  C   UNL     1      50.564  -0.977 -45.842  1.00  0.00     0.163 A 
ATOM      2  N   UNL     1      50.602  -0.395 -47.061  1.00  0.00    -0.210 NA
ATOM      3  C   UNL     1      49.673  -0.685 -48.016  1.00  0.00     0.144 A 
ATOM      4  C   UNL     1      48.655  -1.578 -47.637  1.00  0.00     0.082 A 
ATOM      5  C   UNL     1      47.470  -2.138 -48.167  1.00  0.00     0.149 A 
ATOM      6  N   UNL     1      46.855  -2.977 -47.325  1.00  0.00    -0.178 NA
ATOM      7  N   UNL     1      47.653  -2.957 -46.237  1.00  0.00    -0.238 N 
ATOM      8  C   UNL     1      48.721  -2.113 -46.363  1.00  0.00     0.164 A 
ATOM      9  N   UNL     1      49.641  -1.862 -45.422  1.00  0.00    -0.208 NA
ENDROOT
BRANCH   1  10
ATOM     10  C   UNL     1      51.636  -0.614 -44.887  1.00  0.00     0.019 A 
ATOM     11  C   UNL     1      53.704   0.093 -43.054  1.00  0.00     0.042 A 
ATOM     12  C   UNL     1      53.801   0.438 -44.400  1.00  0.00     0.027 A 
ATOM     13  C   UNL     1      52.577  -0.613 -42.624  1.00  0.00     0.027 A 
ATOM     14  C   UNL     1      52.782   0.089 -45.299  1.00  0.00     0.014 A 
ATOM     15  C   UNL     1      51.561  -0.958 -43.526  1.00  0.00     0.014 A 
BRANCH  11  16
ATOM     16  N   UNL     1      54.686   0.395 -42.091  1.00  0.00    -0.308 N 
ATOM     17  O   UNL     1      56.038   1.931 -43.204  1.00  0.00    -0.248 OA
ATOM     18  C   UNL     1      55.777   1.229 -42.235  1.00  0.00     0.319 C 
ATOM     19  N   UNL     1      56.570   1.198 -41.096  1.00  0.00    -0.335 N 
ATOM     20  H   UNL     1      54.503   0.080 -41.151  1.00  0.00     0.171 HD
ATOM     21  H   UNL     1      56.529   0.344 -40.558  1.00  0.00     0.165 HD
BRANCH  19  22
ATOM     22  C   UNL     1      57.783   1.955 -41.011  1.00  0.00     0.084 C 
ATOM     23  C   UNL     1      58.056   2.832 -39.820  1.00  0.00     0.027 C 
ATOM     24  C   UNL     1      58.854   1.579 -40.027  1.00  0.00     0.027 C 
ENDBRANCH  19  22
ENDBRANCH  11  16
ENDBRANCH   1  10
BRANCH   3  25
ATOM     25  N   UNL     1      49.777  -0.048 -49.238  1.00  0.00    -0.348 N 
ATOM     26  C   UNL     1      50.102   1.402 -49.230  1.00  0.00     0.150 C 
ATOM     27  C   UNL     1      50.513  -0.610 -50.391  1.00  0.00     0.112 C 
ATOM     28  C   UNL     1      50.959   1.528 -50.519  1.00  0.00     0.139 C 
ATOM     29  C   UNL     1      50.323   0.494 -51.429  1.00  0.00     0.061 C 
ATOM     30  C   UNL     1      52.028  -0.475 -50.149  1.00  0.00     0.185 C 
ATOM     31  O   UNL     1      52.273   0.958 -50.258  1.00  0.00    -0.374 OA
ENDBRANCH   3  25
BRANCH   7  32
ATOM     32  C   UNL     1      47.290  -3.709 -45.060  1.00  0.00     0.261 C 
BRANCH  32  33
ATOM     33  C   UNL     1      47.786  -5.126 -45.130  1.00  0.00     0.408 C 
ATOM     34  F   UNL     1      47.775  -5.741 -43.928  1.00  0.00    -0.169 F 
ATOM     35  F   UNL     1      49.072  -5.139 -45.565  1.00  0.00    -0.169 F 
ATOM     36  F   UNL     1      47.080  -5.887 -45.992  1.00  0.00    -0.169 F 
ENDBRANCH  32  33
ENDBRANCH   7  32
TORSDOF 6
ENDMDL
