MODEL 1
REMARK VINA RESULT:    -9.309      0.000      0.000
REMARK INTER + INTRA:         -15.946
REMARK INTER:                 -15.024
REMARK INTRA:                  -0.923
REMARK UNBOUND:                -0.923
REMARK SMILES Cc1oc(-c2cccs2)nc1CCOc1ccc(C[C@](C)(Oc2ccccc2)C(=O)O)cc1
REMARK SMILES IDX 15 1 16 2 17 3 18 4 32 5 33 6 14 7 13 8 12 9 11 10 2 11 3 12
REMARK SMILES IDX 4 13 10 14 1 15 5 16 6 17 9 18 7 19 8 20 19 21 20 22 21 23
REMARK SMILES IDX 22 24 23 25 24 26 28 27 25 28 27 29 26 30 29 31 30 32 31 33
REMARK H PARENT 31 34
ROOT
ATOM      1  C   UNL     1      41.747 -37.658 108.047  1.00  0.00     0.119 A 
ATOM      2  C   UNL     1      41.050 -36.913 108.996  1.00  0.00     0.047 A 
ATOM      3  C   UNL     1      39.766 -37.303 109.390  1.00  0.00     0.008 A 
ATOM      4  C   UNL     1      39.162 -38.444 108.846  1.00  0.00    -0.043 A 
ATOM      5  C   UNL     1      39.873 -39.198 107.907  1.00  0.00     0.008 A 
ATOM      6  C   UNL     1      41.153 -38.804 107.514  1.00  0.00     0.047 A 
ENDROOT
BRANCH   1   7
ATOM      7  O   UNL     1      42.989 -37.384 107.549  1.00  0.00    -0.493 OA
BRANCH   7   8
ATOM      8  C   UNL     1      43.698 -38.403 106.838  1.00  0.00     0.236 C 
BRANCH   8   9
ATOM      9  C   UNL     1      44.637 -39.197 107.747  1.00  0.00     0.101 C 
BRANCH   9  10
ATOM     10  C   UNL     1      45.994 -38.594 107.832  1.00  0.00     0.086 A 
ATOM     11  C   UNL     1      47.222 -39.204 107.967  1.00  0.00     0.125 A 
ATOM     12  O   UNL     1      48.172 -38.225 108.001  1.00  0.00    -0.440 OA
ATOM     13  C   UNL     1      47.473 -37.046 107.880  1.00  0.00     0.236 A 
ATOM     14  N   UNL     1      46.166 -37.229 107.773  1.00  0.00    -0.213 NA
ATOM     15  C   UNL     1      47.688 -40.595 108.089  1.00  0.00     0.090 C 
BRANCH  13  16
ATOM     16  C   UNL     1      48.089 -35.747 107.867  1.00  0.00     0.090 A 
ATOM     17  C   UNL     1      48.700 -35.129 106.791  1.00  0.00     0.025 A 
ATOM     18  S   UNL     1      48.141 -34.755 109.263  1.00  0.00    -0.139 S 
ATOM     19  C   UNL     1      49.210 -33.838 107.117  1.00  0.00     0.012 A 
ATOM     20  C   UNL     1      48.971 -33.511 108.433  1.00  0.00     0.065 A 
ENDBRANCH  13  16
ENDBRANCH   9  10
ENDBRANCH   8   9
ENDBRANCH   7   8
ENDBRANCH   1   7
BRANCH   4  21
ATOM     21  C   UNL     1      37.759 -38.843 109.257  1.00  0.00     0.096 C 
BRANCH  21  22
ATOM     22  C   UNL     1      36.615 -38.038 108.576  1.00  0.00     0.206 C 
ATOM     23  C   UNL     1      35.437 -38.966 108.212  1.00  0.00     0.070 C 
BRANCH  22  24
ATOM     24  O   UNL     1      37.221 -37.369 107.445  1.00  0.00    -0.476 OA
BRANCH  24  25
ATOM     25  C   UNL     1      36.747 -37.703 106.209  1.00  0.00     0.121 A 
ATOM     26  C   UNL     1      37.353 -38.774 105.550  1.00  0.00     0.046 A 
ATOM     27  C   UNL     1      35.758 -36.958 105.575  1.00  0.00     0.046 A 
ATOM     28  C   UNL     1      36.928 -39.135 104.273  1.00  0.00     0.004 A 
ATOM     29  C   UNL     1      35.333 -37.320 104.296  1.00  0.00     0.004 A 
ATOM     30  C   UNL     1      35.913 -38.411 103.648  1.00  0.00     0.000 A 
ENDBRANCH  24  25
ENDBRANCH  22  24
BRANCH  22  31
ATOM     31  C   UNL     1      36.178 -37.006 109.632  1.00  0.00     0.348 C 
ATOM     32  O   UNL     1      35.988 -37.198 110.824  1.00  0.00    -0.248 OA
BRANCH  31  33
ATOM     33  O   UNL     1      35.943 -35.773 109.126  1.00  0.00    -0.478 OA
ATOM     34  H   UNL     1      35.094 -35.509 109.542  1.00  0.00     0.296 HD
ENDBRANCH  31  33
ENDBRANCH  22  31
ENDBRANCH  21  22
ENDBRANCH   4  21
TORSDOF 11
ENDMDL
MODEL 2
REMARK VINA RESULT:    -9.232      4.482      7.801
REMARK INTER + INTRA:         -15.822
REMARK INTER:                 -14.631
REMARK INTRA:                  -1.191
REMARK UNBOUND:                -0.923
REMARK SMILES Cc1oc(-c2cccs2)nc1CCOc1ccc(C[C@](C)(Oc2ccccc2)C(=O)O)cc1
REMARK SMILES IDX 15 1 16 2 17 3 18 4 32 5 33 6 14 7 13 8 12 9 11 10 2 11 3 12
REMARK SMILES IDX 4 13 10 14 1 15 5 16 6 17 9 18 7 19 8 20 19 21 20 22 21 23
REMARK SMILES IDX 22 24 23 25 24 26 28 27 25 28 27 29 26 30 29 31 30 32 31 33
REMARK H PARENT 31 34
ROOT
ATOM      1  C   UNL     1      36.011 -37.109 104.603  1.00  0.00     0.119 A 
ATOM      2  C   UNL     1      36.735 -38.296 104.685  1.00  0.00     0.047 A 
ATOM      3  C   UNL     1      36.961 -38.897 105.927  1.00  0.00     0.008 A 
ATOM      4  C   UNL     1      36.465 -38.323 107.105  1.00  0.00    -0.043 A 
ATOM      5  C   UNL     1      35.724 -37.140 107.016  1.00  0.00     0.008 A 
ATOM      6  C   UNL     1      35.503 -36.542 105.774  1.00  0.00     0.047 A 
ENDROOT
BRANCH   1   7
ATOM      7  O   UNL     1      35.738 -36.399 103.469  1.00  0.00    -0.493 OA
BRANCH   7   8
ATOM      8  C   UNL     1      36.808 -35.752 102.773  1.00  0.00     0.236 C 
BRANCH   8   9
ATOM      9  C   UNL     1      37.003 -36.310 101.362  1.00  0.00     0.101 C 
BRANCH   9  10
ATOM     10  C   UNL     1      38.437 -36.459 101.001  1.00  0.00     0.086 A 
ATOM     11  C   UNL     1      39.293 -35.560 100.404  1.00  0.00     0.125 A 
ATOM     12  O   UNL     1      40.511 -36.164 100.279  1.00  0.00    -0.440 OA
ATOM     13  C   UNL     1      40.343 -37.420 100.816  1.00  0.00     0.236 A 
ATOM     14  N   UNL     1      39.114 -37.631 101.261  1.00  0.00    -0.213 NA
ATOM     15  C   UNL     1      39.171 -34.184  99.895  1.00  0.00     0.090 C 
BRANCH  13  16
ATOM     16  C   UNL     1      41.387 -38.405 100.890  1.00  0.00     0.090 A 
ATOM     17  C   UNL     1      41.899 -39.151  99.845  1.00  0.00     0.025 A 
ATOM     18  S   UNL     1      42.163 -38.793 102.367  1.00  0.00    -0.139 S 
ATOM     19  C   UNL     1      42.933 -40.041 100.262  1.00  0.00     0.012 A 
ATOM     20  C   UNL     1      43.177 -39.945 101.613  1.00  0.00     0.065 A 
ENDBRANCH  13  16
ENDBRANCH   9  10
ENDBRANCH   8   9
ENDBRANCH   7   8
ENDBRANCH   1   7
BRANCH   4  21
ATOM     21  C   UNL     1      36.739 -38.964 108.450  1.00  0.00     0.096 C 
BRANCH  21  22
ATOM     22  C   UNL     1      38.045 -38.494 109.154  1.00  0.00     0.206 C 
ATOM     23  C   UNL     1      38.523 -37.148 108.573  1.00  0.00     0.070 C 
BRANCH  22  24
ATOM     24  O   UNL     1      38.989 -39.580 109.003  1.00  0.00    -0.476 OA
BRANCH  24  25
ATOM     25  C   UNL     1      40.177 -39.280 108.403  1.00  0.00     0.121 A 
ATOM     26  C   UNL     1      41.219 -38.831 109.216  1.00  0.00     0.046 A 
ATOM     27  C   UNL     1      40.336 -39.329 107.022  1.00  0.00     0.046 A 
ATOM     28  C   UNL     1      42.443 -38.482 108.649  1.00  0.00     0.004 A 
ATOM     29  C   UNL     1      41.562 -38.978 106.454  1.00  0.00     0.004 A 
ATOM     30  C   UNL     1      42.617 -38.561 107.267  1.00  0.00     0.000 A 
ENDBRANCH  24  25
ENDBRANCH  22  24
BRANCH  22  31
ATOM     31  C   UNL     1      37.655 -38.332 110.635  1.00  0.00     0.348 C 
ATOM     32  O   UNL     1      36.566 -38.004 111.085  1.00  0.00    -0.248 OA
BRANCH  31  33
ATOM     33  O   UNL     1      38.679 -38.535 111.495  1.00  0.00    -0.478 OA
ATOM     34  H   UNL     1      38.252 -38.963 112.268  1.00  0.00     0.296 HD
ENDBRANCH  31  33
ENDBRANCH  22  31
ENDBRANCH  21  22
ENDBRANCH   4  21
TORSDOF 11
ENDMDL
MODEL 3
REMARK VINA RESULT:    -9.157      3.703      8.648
REMARK INTER + INTRA:         -15.700
REMARK INTER:                 -14.932
REMARK INTRA:                  -0.767
REMARK UNBOUND:                -0.923
REMARK SMILES Cc1oc(-c2cccs2)nc1CCOc1ccc(C[C@](C)(Oc2ccccc2)C(=O)O)cc1
REMARK SMILES IDX 15 1 16 2 17 3 18 4 32 5 33 6 14 7 13 8 12 9 11 10 2 11 3 12
REMARK SMILES IDX 4 13 10 14 1 15 5 16 6 17 9 18 7 19 8 20 19 21 20 22 21 23
REMARK SMILES IDX 22 24 23 25 24 26 28 27 25 28 27 29 26 30 29 31 30 32 31 33
REMARK H PARENT 31 34
ROOT
ATOM      1  C   UNL     1      37.863 -38.452 106.649  1.00  0.00     0.119 A 
ATOM      2  C   UNL     1      37.886 -37.954 107.950  1.00  0.00     0.047 A 
ATOM      3  C   UNL     1      39.024 -38.120 108.745  1.00  0.00     0.008 A 
ATOM      4  C   UNL     1      40.156 -38.782 108.253  1.00  0.00    -0.043 A 
ATOM      5  C   UNL     1      40.134 -39.265 106.940  1.00  0.00     0.008 A 
ATOM      6  C   UNL     1      38.996 -39.099 106.149  1.00  0.00     0.047 A 
ENDROOT
BRANCH   1   7
ATOM      7  O   UNL     1      36.819 -38.389 105.771  1.00  0.00    -0.493 OA
BRANCH   7   8
ATOM      8  C   UNL     1      36.990 -38.890 104.443  1.00  0.00     0.236 C 
BRANCH   8   9
ATOM      9  C   UNL     1      36.757 -37.813 103.382  1.00  0.00     0.101 C 
BRANCH   9  10
ATOM     10  C   UNL     1      37.917 -37.653 102.466  1.00  0.00     0.086 A 
ATOM     11  C   UNL     1      38.089 -36.792 101.404  1.00  0.00     0.125 A 
ATOM     12  O   UNL     1      39.325 -37.026 100.874  1.00  0.00    -0.440 OA
ATOM     13  C   UNL     1      39.860 -38.030 101.648  1.00  0.00     0.236 A 
ATOM     14  N   UNL     1      39.046 -38.428 102.614  1.00  0.00    -0.213 NA
ATOM     15  C   UNL     1      37.268 -35.754 100.759  1.00  0.00     0.090 C 
BRANCH  13  16
ATOM     16  C   UNL     1      41.166 -38.593 101.439  1.00  0.00     0.090 A 
ATOM     17  C   UNL     1      41.699 -39.027 100.239  1.00  0.00     0.025 A 
ATOM     18  S   UNL     1      42.279 -38.803 102.724  1.00  0.00    -0.139 S 
ATOM     19  C   UNL     1      43.026 -39.531 100.379  1.00  0.00     0.012 A 
ATOM     20  C   UNL     1      43.463 -39.466 101.683  1.00  0.00     0.065 A 
ENDBRANCH  13  16
ENDBRANCH   9  10
ENDBRANCH   8   9
ENDBRANCH   7   8
ENDBRANCH   1   7
BRANCH   4  21
ATOM     21  C   UNL     1      41.374 -38.984 109.131  1.00  0.00     0.096 C 
BRANCH  21  22
ATOM     22  C   UNL     1      42.717 -38.485 108.526  1.00  0.00     0.206 C 
ATOM     23  C   UNL     1      43.076 -39.287 107.258  1.00  0.00     0.070 C 
BRANCH  22  24
ATOM     24  O   UNL     1      43.692 -38.583 109.591  1.00  0.00    -0.476 OA
BRANCH  24  25
ATOM     25  C   UNL     1      44.952 -38.968 109.236  1.00  0.00     0.121 A 
ATOM     26  C   UNL     1      45.273 -40.321 109.354  1.00  0.00     0.046 A 
ATOM     27  C   UNL     1      45.922 -38.047 108.854  1.00  0.00     0.046 A 
ATOM     28  C   UNL     1      46.556 -40.762 109.034  1.00  0.00     0.004 A 
ATOM     29  C   UNL     1      47.207 -38.489 108.535  1.00  0.00     0.004 A 
ATOM     30  C   UNL     1      47.522 -39.846 108.619  1.00  0.00     0.000 A 
ENDBRANCH  24  25
ENDBRANCH  22  24
BRANCH  22  31
ATOM     31  C   UNL     1      42.464 -37.008 108.172  1.00  0.00     0.348 C 
ATOM     32  O   UNL     1      41.952 -36.152 108.878  1.00  0.00    -0.248 OA
BRANCH  31  33
ATOM     33  O   UNL     1      42.820 -36.681 106.909  1.00  0.00    -0.478 OA
ATOM     34  H   UNL     1      42.503 -37.439 106.373  1.00  0.00     0.296 HD
ENDBRANCH  31  33
ENDBRANCH  22  31
ENDBRANCH  21  22
ENDBRANCH   4  21
TORSDOF 11
ENDMDL
MODEL 4
REMARK VINA RESULT:    -9.107      5.194     10.019
REMARK INTER + INTRA:         -15.619
REMARK INTER:                 -14.593
REMARK INTRA:                  -1.027
REMARK UNBOUND:                -0.923
REMARK SMILES Cc1oc(-c2cccs2)nc1CCOc1ccc(C[C@](C)(Oc2ccccc2)C(=O)O)cc1
REMARK SMILES IDX 15 1 16 2 17 3 18 4 32 5 33 6 14 7 13 8 12 9 11 10 2 11 3 12
REMARK SMILES IDX 4 13 10 14 1 15 5 16 6 17 9 18 7 19 8 20 19 21 20 22 21 23
REMARK SMILES IDX 22 24 23 25 24 26 28 27 25 28 27 29 26 30 29 31 30 32 31 33
REMARK H PARENT 31 34
ROOT
ATOM      1  C   UNL     1      42.070 -39.202 106.370  1.00  0.00     0.119 A 
ATOM      2  C   UNL     1      42.572 -40.493 106.518  1.00  0.00     0.047 A 
ATOM      3  C   UNL     1      43.599 -40.747 107.433  1.00  0.00     0.008 A 
ATOM      4  C   UNL     1      44.139 -39.717 108.213  1.00  0.00    -0.043 A 
ATOM      5  C   UNL     1      43.620 -38.425 108.072  1.00  0.00     0.008 A 
ATOM      6  C   UNL     1      42.596 -38.175 107.157  1.00  0.00     0.047 A 
ENDROOT
BRANCH   1   7
ATOM      7  O   UNL     1      41.094 -38.803 105.503  1.00  0.00    -0.493 OA
BRANCH   7   8
ATOM      8  C   UNL     1      41.146 -39.239 104.141  1.00  0.00     0.236 C 
BRANCH   8   9
ATOM      9  C   UNL     1      42.396 -38.732 103.418  1.00  0.00     0.101 C 
BRANCH   9  10
ATOM     10  C   UNL     1      42.405 -39.090 101.975  1.00  0.00     0.086 A 
ATOM     11  C   UNL     1      41.650 -38.588 100.938  1.00  0.00     0.125 A 
ATOM     12  O   UNL     1      42.023 -39.238  99.797  1.00  0.00    -0.440 OA
ATOM     13  C   UNL     1      43.004 -40.118 100.194  1.00  0.00     0.236 A 
ATOM     14  N   UNL     1      43.262 -40.054 101.491  1.00  0.00    -0.213 NA
ATOM     15  C   UNL     1      40.587 -37.576 100.816  1.00  0.00     0.090 C 
BRANCH  13  16
ATOM     16  C   UNL     1      43.685 -41.014  99.300  1.00  0.00     0.090 A 
ATOM     17  C   UNL     1      44.719 -41.876  99.618  1.00  0.00     0.025 A 
ATOM     18  S   UNL     1      43.274 -41.125  97.641  1.00  0.00    -0.139 S 
ATOM     19  C   UNL     1      45.170 -42.629  98.494  1.00  0.00     0.012 A 
ATOM     20  C   UNL     1      44.465 -42.318  97.353  1.00  0.00     0.065 A 
ENDBRANCH  13  16
ENDBRANCH   9  10
ENDBRANCH   8   9
ENDBRANCH   7   8
ENDBRANCH   1   7
BRANCH   4  21
ATOM     21  C   UNL     1      45.272 -39.994 109.179  1.00  0.00     0.096 C 
BRANCH  21  22
ATOM     22  C   UNL     1      46.688 -40.062 108.538  1.00  0.00     0.206 C 
ATOM     23  C   UNL     1      47.782 -39.902 109.614  1.00  0.00     0.070 C 
BRANCH  22  24
ATOM     24  O   UNL     1      46.706 -39.044 107.510  1.00  0.00    -0.476 OA
BRANCH  24  25
ATOM     25  C   UNL     1      47.680 -38.093 107.606  1.00  0.00     0.121 A 
ATOM     26  C   UNL     1      47.321 -36.848 108.124  1.00  0.00     0.046 A 
ATOM     27  C   UNL     1      48.968 -38.310 107.127  1.00  0.00     0.046 A 
ATOM     28  C   UNL     1      48.272 -35.832 108.214  1.00  0.00     0.004 A 
ATOM     29  C   UNL     1      49.919 -37.292 107.216  1.00  0.00     0.004 A 
ATOM     30  C   UNL     1      49.573 -36.056 107.764  1.00  0.00     0.000 A 
ENDBRANCH  24  25
ENDBRANCH  22  24
BRANCH  22  31
ATOM     31  C   UNL     1      46.763 -41.462 107.901  1.00  0.00     0.348 C 
ATOM     32  O   UNL     1      46.778 -42.540 108.476  1.00  0.00    -0.248 OA
BRANCH  31  33
ATOM     33  O   UNL     1      46.876 -41.443 106.553  1.00  0.00    -0.478 OA
ATOM     34  H   UNL     1      47.380 -42.260 106.350  1.00  0.00     0.296 HD
ENDBRANCH  31  33
ENDBRANCH  22  31
ENDBRANCH  21  22
ENDBRANCH   4  21
TORSDOF 11
ENDMDL
MODEL 5
REMARK VINA RESULT:    -9.046      3.358      8.654
REMARK INTER + INTRA:         -15.522
REMARK INTER:                 -13.836
REMARK INTRA:                  -1.686
REMARK UNBOUND:                -0.923
REMARK SMILES Cc1oc(-c2cccs2)nc1CCOc1ccc(C[C@](C)(Oc2ccccc2)C(=O)O)cc1
REMARK SMILES IDX 15 1 16 2 17 3 18 4 32 5 33 6 14 7 13 8 12 9 11 10 2 11 3 12
REMARK SMILES IDX 4 13 10 14 1 15 5 16 6 17 9 18 7 19 8 20 19 21 20 22 21 23
REMARK SMILES IDX 22 24 23 25 24 26 28 27 25 28 27 29 26 30 29 31 30 32 31 33
REMARK H PARENT 31 34
ROOT
ATOM      1  C   UNL     1      40.385 -37.641 108.647  1.00  0.00     0.119 A 
ATOM      2  C   UNL     1      41.352 -36.645 108.528  1.00  0.00     0.047 A 
ATOM      3  C   UNL     1      42.703 -36.951 108.716  1.00  0.00     0.008 A 
ATOM      4  C   UNL     1      43.110 -38.256 109.022  1.00  0.00    -0.043 A 
ATOM      5  C   UNL     1      42.137 -39.256 109.124  1.00  0.00     0.008 A 
ATOM      6  C   UNL     1      40.789 -38.946 108.938  1.00  0.00     0.047 A 
ENDROOT
BRANCH   1   7
ATOM      7  O   UNL     1      39.035 -37.485 108.519  1.00  0.00    -0.493 OA
BRANCH   7   8
ATOM      8  C   UNL     1      38.228 -38.619 108.189  1.00  0.00     0.236 C 
BRANCH   8   9
ATOM      9  C   UNL     1      37.348 -38.366 106.963  1.00  0.00     0.101 C 
BRANCH   9  10
ATOM     10  C   UNL     1      38.004 -38.778 105.695  1.00  0.00     0.086 A 
ATOM     11  C   UNL     1      37.454 -39.019 104.455  1.00  0.00     0.125 A 
ATOM     12  O   UNL     1      38.466 -39.373 103.610  1.00  0.00    -0.440 OA
ATOM     13  C   UNL     1      39.605 -39.329 104.382  1.00  0.00     0.236 A 
ATOM     14  N   UNL     1      39.367 -38.974 105.635  1.00  0.00    -0.213 NA
ATOM     15  C   UNL     1      36.092 -38.988 103.895  1.00  0.00     0.090 C 
BRANCH  13  16
ATOM     16  C   UNL     1      40.919 -39.635 103.887  1.00  0.00     0.090 A 
ATOM     17  C   UNL     1      41.814 -40.546 104.416  1.00  0.00     0.025 A 
ATOM     18  S   UNL     1      41.569 -38.861 102.503  1.00  0.00    -0.139 S 
ATOM     19  C   UNL     1      43.034 -40.608 103.681  1.00  0.00     0.012 A 
ATOM     20  C   UNL     1      43.032 -39.741 102.612  1.00  0.00     0.065 A 
ENDBRANCH  13  16
ENDBRANCH   9  10
ENDBRANCH   8   9
ENDBRANCH   7   8
ENDBRANCH   1   7
BRANCH   4  21
ATOM     21  C   UNL     1      44.573 -38.573 109.253  1.00  0.00     0.096 C 
BRANCH  21  22
ATOM     22  C   UNL     1      45.338 -39.115 108.012  1.00  0.00     0.206 C 
ATOM     23  C   UNL     1      44.447 -39.055 106.754  1.00  0.00     0.070 C 
BRANCH  22  24
ATOM     24  O   UNL     1      45.780 -40.445 108.369  1.00  0.00    -0.476 OA
BRANCH  24  25
ATOM     25  C   UNL     1      45.466 -41.450 107.500  1.00  0.00     0.121 A 
ATOM     26  C   UNL     1      44.685 -42.502 107.980  1.00  0.00     0.046 A 
ATOM     27  C   UNL     1      45.973 -41.486 106.205  1.00  0.00     0.046 A 
ATOM     28  C   UNL     1      44.363 -43.568 107.142  1.00  0.00     0.004 A 
ATOM     29  C   UNL     1      45.651 -42.554 105.366  1.00  0.00     0.004 A 
ATOM     30  C   UNL     1      44.842 -43.591 105.832  1.00  0.00     0.000 A 
ENDBRANCH  24  25
ENDBRANCH  22  24
BRANCH  22  31
ATOM     31  C   UNL     1      46.549 -38.177 107.856  1.00  0.00     0.348 C 
ATOM     32  O   UNL     1      47.718 -38.423 108.118  1.00  0.00    -0.248 OA
BRANCH  31  33
ATOM     33  O   UNL     1      46.227 -36.936 107.425  1.00  0.00    -0.478 OA
ATOM     34  H   UNL     1      47.085 -36.460 107.423  1.00  0.00     0.296 HD
ENDBRANCH  31  33
ENDBRANCH  22  31
ENDBRANCH  21  22
ENDBRANCH   4  21
TORSDOF 11
ENDMDL
MODEL 6
REMARK VINA RESULT:    -8.964      4.134      8.699
REMARK INTER + INTRA:         -15.388
REMARK INTER:                 -14.476
REMARK INTRA:                  -0.912
REMARK UNBOUND:                -0.923
REMARK SMILES Cc1oc(-c2cccs2)nc1CCOc1ccc(C[C@](C)(Oc2ccccc2)C(=O)O)cc1
REMARK SMILES IDX 15 1 16 2 17 3 18 4 32 5 33 6 14 7 13 8 12 9 11 10 2 11 3 12
REMARK SMILES IDX 4 13 10 14 1 15 5 16 6 17 9 18 7 19 8 20 19 21 20 22 21 23
REMARK SMILES IDX 22 24 23 25 24 26 28 27 25 28 27 29 26 30 29 31 30 32 31 33
REMARK H PARENT 31 34
ROOT
ATOM      1  C   UNL     1      38.777 -39.060 105.894  1.00  0.00     0.119 A 
ATOM      2  C   UNL     1      39.777 -39.654 105.126  1.00  0.00     0.047 A 
ATOM      3  C   UNL     1      41.010 -39.972 105.704  1.00  0.00     0.008 A 
ATOM      4  C   UNL     1      41.262 -39.705 107.055  1.00  0.00    -0.043 A 
ATOM      5  C   UNL     1      40.250 -39.124 107.825  1.00  0.00     0.008 A 
ATOM      6  C   UNL     1      39.020 -38.806 107.245  1.00  0.00     0.047 A 
ENDROOT
BRANCH   1   7
ATOM      7  O   UNL     1      37.542 -38.671 105.461  1.00  0.00    -0.493 OA
BRANCH   7   8
ATOM      8  C   UNL     1      37.150 -38.957 104.115  1.00  0.00     0.236 C 
BRANCH   8   9
ATOM      9  C   UNL     1      37.056 -37.693 103.258  1.00  0.00     0.101 C 
BRANCH   9  10
ATOM     10  C   UNL     1      38.183 -37.571 102.296  1.00  0.00     0.086 A 
ATOM     11  C   UNL     1      38.352 -36.698 101.243  1.00  0.00     0.125 A 
ATOM     12  O   UNL     1      39.551 -36.981 100.655  1.00  0.00    -0.440 OA
ATOM     13  C   UNL     1      40.068 -38.026 101.387  1.00  0.00     0.236 A 
ATOM     14  N   UNL     1      39.278 -38.403 102.380  1.00  0.00    -0.213 NA
ATOM     15  C   UNL     1      37.556 -35.609 100.653  1.00  0.00     0.090 C 
BRANCH  13  16
ATOM     16  C   UNL     1      41.335 -38.647 101.111  1.00  0.00     0.090 A 
ATOM     17  C   UNL     1      41.770 -39.137  99.893  1.00  0.00     0.025 A 
ATOM     18  S   UNL     1      42.522 -38.864 102.326  1.00  0.00    -0.139 S 
ATOM     19  C   UNL     1      43.083 -39.691  99.962  1.00  0.00     0.012 A 
ATOM     20  C   UNL     1      43.608 -39.605 101.231  1.00  0.00     0.065 A 
ENDBRANCH  13  16
ENDBRANCH   9  10
ENDBRANCH   8   9
ENDBRANCH   7   8
ENDBRANCH   1   7
BRANCH   4  21
ATOM     21  C   UNL     1      42.611 -40.026 107.666  1.00  0.00     0.096 C 
BRANCH  21  22
ATOM     22  C   UNL     1      43.665 -38.885 107.580  1.00  0.00     0.206 C 
ATOM     23  C   UNL     1      43.169 -37.752 106.659  1.00  0.00     0.070 C 
BRANCH  22  24
ATOM     24  O   UNL     1      44.895 -39.513 107.147  1.00  0.00    -0.476 OA
BRANCH  24  25
ATOM     25  C   UNL     1      44.875 -40.871 107.013  1.00  0.00     0.121 A 
ATOM     26  C   UNL     1      45.201 -41.638 108.133  1.00  0.00     0.046 A 
ATOM     27  C   UNL     1      44.630 -41.486 105.789  1.00  0.00     0.046 A 
ATOM     28  C   UNL     1      45.226 -43.028 108.040  1.00  0.00     0.004 A 
ATOM     29  C   UNL     1      44.656 -42.878 105.696  1.00  0.00     0.004 A 
ATOM     30  C   UNL     1      44.948 -43.649 106.822  1.00  0.00     0.000 A 
ENDBRANCH  24  25
ENDBRANCH  22  24
BRANCH  22  31
ATOM     31  C   UNL     1      43.811 -38.375 109.026  1.00  0.00     0.348 C 
ATOM     32  O   UNL     1      44.343 -37.339 109.398  1.00  0.00    -0.248 OA
BRANCH  31  33
ATOM     33  O   UNL     1      43.324 -39.227 109.957  1.00  0.00    -0.478 OA
ATOM     34  H   UNL     1      42.378 -39.323 109.713  1.00  0.00     0.296 HD
ENDBRANCH  31  33
ENDBRANCH  22  31
ENDBRANCH  21  22
ENDBRANCH   4  21
TORSDOF 11
ENDMDL
MODEL 7
REMARK VINA RESULT:    -8.897      3.424      9.793
REMARK INTER + INTRA:         -15.281
REMARK INTER:                 -14.656
REMARK INTRA:                  -0.625
REMARK UNBOUND:                -0.923
REMARK SMILES Cc1oc(-c2cccs2)nc1CCOc1ccc(C[C@](C)(Oc2ccccc2)C(=O)O)cc1
REMARK SMILES IDX 15 1 16 2 17 3 18 4 32 5 33 6 14 7 13 8 12 9 11 10 2 11 3 12
REMARK SMILES IDX 4 13 10 14 1 15 5 16 6 17 9 18 7 19 8 20 19 21 20 22 21 23
REMARK SMILES IDX 22 24 23 25 24 26 28 27 25 28 27 29 26 30 29 31 30 32 31 33
REMARK H PARENT 31 34
ROOT
ATOM      1  C   UNL     1      41.089 -37.738 109.252  1.00  0.00     0.119 A 
ATOM      2  C   UNL     1      42.078 -36.877 108.779  1.00  0.00     0.047 A 
ATOM      3  C   UNL     1      43.411 -37.298 108.730  1.00  0.00     0.008 A 
ATOM      4  C   UNL     1      43.776 -38.583 109.150  1.00  0.00    -0.043 A 
ATOM      5  C   UNL     1      42.777 -39.449 109.607  1.00  0.00     0.008 A 
ATOM      6  C   UNL     1      41.448 -39.026 109.657  1.00  0.00     0.047 A 
ENDROOT
BRANCH   1   7
ATOM      7  O   UNL     1      39.759 -37.457 109.382  1.00  0.00    -0.493 OA
BRANCH   7   8
ATOM      8  C   UNL     1      39.055 -37.922 110.537  1.00  0.00     0.236 C 
BRANCH   8   9
ATOM      9  C   UNL     1      37.783 -38.690 110.170  1.00  0.00     0.101 C 
BRANCH   9  10
ATOM     10  C   UNL     1      37.011 -38.030 109.085  1.00  0.00     0.086 A 
ATOM     11  C   UNL     1      35.999 -37.098 109.165  1.00  0.00     0.125 A 
ATOM     12  O   UNL     1      35.608 -36.798 107.892  1.00  0.00    -0.440 OA
ATOM     13  C   UNL     1      36.412 -37.567 107.082  1.00  0.00     0.236 A 
ATOM     14  N   UNL     1      37.267 -38.314 107.762  1.00  0.00    -0.213 NA
ATOM     15  C   UNL     1      35.292 -36.419 110.262  1.00  0.00     0.090 C 
BRANCH  13  16
ATOM     16  C   UNL     1      36.339 -37.562 105.646  1.00  0.00     0.090 A 
ATOM     17  C   UNL     1      35.741 -36.604 104.849  1.00  0.00     0.025 A 
ATOM     18  S   UNL     1      37.024 -38.815 104.700  1.00  0.00    -0.139 S 
ATOM     19  C   UNL     1      35.848 -36.902 103.458  1.00  0.00     0.012 A 
ATOM     20  C   UNL     1      36.526 -38.079 103.238  1.00  0.00     0.065 A 
ENDBRANCH  13  16
ENDBRANCH   9  10
ENDBRANCH   8   9
ENDBRANCH   7   8
ENDBRANCH   1   7
BRANCH   4  21
ATOM     21  C   UNL     1      45.226 -39.020 109.122  1.00  0.00     0.096 C 
BRANCH  21  22
ATOM     22  C   UNL     1      45.810 -39.286 107.705  1.00  0.00     0.206 C 
ATOM     23  C   UNL     1      44.691 -39.286 106.644  1.00  0.00     0.070 C 
BRANCH  22  24
ATOM     24  O   UNL     1      46.539 -40.532 107.805  1.00  0.00    -0.476 OA
BRANCH  24  25
ATOM     25  C   UNL     1      45.898 -41.655 107.368  1.00  0.00     0.121 A 
ATOM     26  C   UNL     1      45.882 -41.899 105.994  1.00  0.00     0.046 A 
ATOM     27  C   UNL     1      45.202 -42.490 108.237  1.00  0.00     0.046 A 
ATOM     28  C   UNL     1      45.214 -43.015 105.493  1.00  0.00     0.004 A 
ATOM     29  C   UNL     1      44.532 -43.607 107.735  1.00  0.00     0.004 A 
ATOM     30  C   UNL     1      44.543 -43.873 106.365  1.00  0.00     0.000 A 
ENDBRANCH  24  25
ENDBRANCH  22  24
BRANCH  22  31
ATOM     31  C   UNL     1      46.785 -38.120 107.456  1.00  0.00     0.348 C 
ATOM     32  O   UNL     1      46.533 -36.924 107.481  1.00  0.00    -0.248 OA
BRANCH  31  33
ATOM     33  O   UNL     1      48.036 -38.515 107.128  1.00  0.00    -0.478 OA
ATOM     34  H   UNL     1      48.526 -37.671 107.021  1.00  0.00     0.296 HD
ENDBRANCH  31  33
ENDBRANCH  22  31
ENDBRANCH  21  22
ENDBRANCH   4  21
TORSDOF 11
ENDMDL
MODEL 8
REMARK VINA RESULT:    -8.860      4.480      9.426
REMARK INTER + INTRA:         -15.221
REMARK INTER:                 -13.792
REMARK INTRA:                  -1.429
REMARK UNBOUND:                -0.923
REMARK SMILES Cc1oc(-c2cccs2)nc1CCOc1ccc(C[C@](C)(Oc2ccccc2)C(=O)O)cc1
REMARK SMILES IDX 15 1 16 2 17 3 18 4 32 5 33 6 14 7 13 8 12 9 11 10 2 11 3 12
REMARK SMILES IDX 4 13 10 14 1 15 5 16 6 17 9 18 7 19 8 20 19 21 20 22 21 23
REMARK SMILES IDX 22 24 23 25 24 26 28 27 25 28 27 29 26 30 29 31 30 32 31 33
REMARK H PARENT 31 34
ROOT
ATOM      1  C   UNL     1      37.567 -38.025 102.851  1.00  0.00     0.119 A 
ATOM      2  C   UNL     1      38.755 -38.036 102.124  1.00  0.00     0.047 A 
ATOM      3  C   UNL     1      39.839 -38.805 102.561  1.00  0.00     0.008 A 
ATOM      4  C   UNL     1      39.751 -39.575 103.727  1.00  0.00    -0.043 A 
ATOM      5  C   UNL     1      38.550 -39.574 104.444  1.00  0.00     0.008 A 
ATOM      6  C   UNL     1      37.471 -38.804 104.006  1.00  0.00     0.047 A 
ENDROOT
BRANCH   1   7
ATOM      7  O   UNL     1      36.443 -37.306 102.562  1.00  0.00    -0.493 OA
BRANCH   7   8
ATOM      8  C   UNL     1      35.580 -36.898 103.627  1.00  0.00     0.236 C 
BRANCH   8   9
ATOM      9  C   UNL     1      36.042 -35.594 104.280  1.00  0.00     0.101 C 
BRANCH   9  10
ATOM     10  C   UNL     1      36.018 -35.659 105.765  1.00  0.00     0.086 A 
ATOM     11  C   UNL     1      35.856 -34.650 106.689  1.00  0.00     0.125 A 
ATOM     12  O   UNL     1      35.908 -35.210 107.932  1.00  0.00    -0.440 OA
ATOM     13  C   UNL     1      36.099 -36.555 107.709  1.00  0.00     0.236 A 
ATOM     14  N   UNL     1      36.166 -36.861 106.422  1.00  0.00    -0.213 NA
ATOM     15  C   UNL     1      35.665 -33.191 106.618  1.00  0.00     0.090 C 
BRANCH  13  16
ATOM     16  C   UNL     1      36.213 -37.532 108.757  1.00  0.00     0.090 A 
ATOM     17  C   UNL     1      36.743 -38.805 108.650  1.00  0.00     0.025 A 
ATOM     18  S   UNL     1      35.676 -37.217 110.352  1.00  0.00    -0.139 S 
ATOM     19  C   UNL     1      36.707 -39.520 109.883  1.00  0.00     0.012 A 
ATOM     20  C   UNL     1      36.151 -38.769 110.893  1.00  0.00     0.065 A 
ENDBRANCH  13  16
ENDBRANCH   9  10
ENDBRANCH   8   9
ENDBRANCH   7   8
ENDBRANCH   1   7
BRANCH   4  21
ATOM     21  C   UNL     1      40.939 -40.381 104.210  1.00  0.00     0.096 C 
BRANCH  21  22
ATOM     22  C   UNL     1      42.173 -39.543 104.651  1.00  0.00     0.206 C 
ATOM     23  C   UNL     1      43.188 -40.423 105.410  1.00  0.00     0.070 C 
BRANCH  22  24
ATOM     24  O   UNL     1      41.646 -38.438 105.422  1.00  0.00    -0.476 OA
BRANCH  24  25
ATOM     25  C   UNL     1      41.666 -38.573 106.780  1.00  0.00     0.121 A 
ATOM     26  C   UNL     1      40.512 -39.053 107.401  1.00  0.00     0.046 A 
ATOM     27  C   UNL     1      42.757 -38.167 107.543  1.00  0.00     0.046 A 
ATOM     28  C   UNL     1      40.470 -39.179 108.788  1.00  0.00     0.004 A 
ATOM     29  C   UNL     1      42.713 -38.293 108.933  1.00  0.00     0.004 A 
ATOM     30  C   UNL     1      41.573 -38.804 109.554  1.00  0.00     0.000 A 
ENDBRANCH  24  25
ENDBRANCH  22  24
BRANCH  22  31
ATOM     31  C   UNL     1      42.788 -39.027 103.337  1.00  0.00     0.348 C 
ATOM     32  O   UNL     1      43.294 -39.691 102.443  1.00  0.00    -0.248 OA
BRANCH  31  33
ATOM     33  O   UNL     1      42.791 -37.679 103.227  1.00  0.00    -0.478 OA
ATOM     34  H   UNL     1      42.287 -37.381 104.014  1.00  0.00     0.296 HD
ENDBRANCH  31  33
ENDBRANCH  22  31
ENDBRANCH  21  22
ENDBRANCH   4  21
TORSDOF 11
ENDMDL
MODEL 9
REMARK VINA RESULT:    -8.795      3.595      9.821
REMARK INTER + INTRA:         -15.116
REMARK INTER:                 -13.972
REMARK INTRA:                  -1.145
REMARK UNBOUND:                -0.923
REMARK SMILES Cc1oc(-c2cccs2)nc1CCOc1ccc(C[C@](C)(Oc2ccccc2)C(=O)O)cc1
REMARK SMILES IDX 15 1 16 2 17 3 18 4 32 5 33 6 14 7 13 8 12 9 11 10 2 11 3 12
REMARK SMILES IDX 4 13 10 14 1 15 5 16 6 17 9 18 7 19 8 20 19 21 20 22 21 23
REMARK SMILES IDX 22 24 23 25 24 26 28 27 25 28 27 29 26 30 29 31 30 32 31 33
REMARK H PARENT 31 34
ROOT
ATOM      1  C   UNL     1      40.545 -37.564 108.870  1.00  0.00     0.119 A 
ATOM      2  C   UNL     1      41.723 -37.040 108.342  1.00  0.00     0.047 A 
ATOM      3  C   UNL     1      42.459 -37.771 107.403  1.00  0.00     0.008 A 
ATOM      4  C   UNL     1      42.027 -39.033 106.975  1.00  0.00    -0.043 A 
ATOM      5  C   UNL     1      40.834 -39.547 107.495  1.00  0.00     0.008 A 
ATOM      6  C   UNL     1      40.104 -38.816 108.434  1.00  0.00     0.047 A 
ENDROOT
BRANCH   1   7
ATOM      7  O   UNL     1      39.743 -36.980 109.808  1.00  0.00    -0.493 OA
BRANCH   7   8
ATOM      8  C   UNL     1      38.848 -37.796 110.569  1.00  0.00     0.236 C 
BRANCH   8   9
ATOM      9  C   UNL     1      37.388 -37.374 110.394  1.00  0.00     0.101 C 
BRANCH   9  10
ATOM     10  C   UNL     1      36.782 -37.918 109.151  1.00  0.00     0.086 A 
ATOM     11  C   UNL     1      35.952 -39.004 108.977  1.00  0.00     0.125 A 
ATOM     12  O   UNL     1      35.664 -39.100 107.646  1.00  0.00    -0.440 OA
ATOM     13  C   UNL     1      36.336 -38.052 107.060  1.00  0.00     0.236 A 
ATOM     14  N   UNL     1      37.014 -37.320 107.931  1.00  0.00    -0.213 NA
ATOM     15  C   UNL     1      35.365 -40.020 109.866  1.00  0.00     0.090 C 
BRANCH  13  16
ATOM     16  C   UNL     1      36.310 -37.772 105.650  1.00  0.00     0.090 A 
ATOM     17  C   UNL     1      35.782 -36.651 105.037  1.00  0.00     0.025 A 
ATOM     18  S   UNL     1      36.966 -38.857 104.498  1.00  0.00    -0.139 S 
ATOM     19  C   UNL     1      35.920 -36.685 103.618  1.00  0.00     0.012 A 
ATOM     20  C   UNL     1      36.550 -37.833 103.193  1.00  0.00     0.065 A 
ENDBRANCH  13  16
ENDBRANCH   9  10
ENDBRANCH   8   9
ENDBRANCH   7   8
ENDBRANCH   1   7
BRANCH   4  21
ATOM     21  C   UNL     1      42.845 -39.831 105.980  1.00  0.00     0.096 C 
BRANCH  21  22
ATOM     22  C   UNL     1      44.124 -40.500 106.559  1.00  0.00     0.206 C 
ATOM     23  C   UNL     1      43.912 -40.897 108.035  1.00  0.00     0.070 C 
BRANCH  22  24
ATOM     24  O   UNL     1      45.198 -39.554 106.343  1.00  0.00    -0.476 OA
BRANCH  24  25
ATOM     25  C   UNL     1      46.190 -39.528 107.279  1.00  0.00     0.121 A 
ATOM     26  C   UNL     1      47.156 -40.534 107.228  1.00  0.00     0.046 A 
ATOM     27  C   UNL     1      46.205 -38.593 108.310  1.00  0.00     0.046 A 
ATOM     28  C   UNL     1      48.174 -40.572 108.180  1.00  0.00     0.004 A 
ATOM     29  C   UNL     1      47.224 -38.632 109.264  1.00  0.00     0.004 A 
ATOM     30  C   UNL     1      48.211 -39.616 109.195  1.00  0.00     0.000 A 
ENDBRANCH  24  25
ENDBRANCH  22  24
BRANCH  22  31
ATOM     31  C   UNL     1      44.339 -41.754 105.692  1.00  0.00     0.348 C 
ATOM     32  O   UNL     1      44.721 -42.855 106.060  1.00  0.00    -0.248 OA
BRANCH  31  33
ATOM     33  O   UNL     1      44.115 -41.550 104.373  1.00  0.00    -0.478 OA
ATOM     34  H   UNL     1      43.241 -41.105 104.352  1.00  0.00     0.296 HD
ENDBRANCH  31  33
ENDBRANCH  22  31
ENDBRANCH  21  22
ENDBRANCH   4  21
TORSDOF 11
ENDMDL
