MODEL 6
REMARK minimizedAffinity -7.1417408
REMARK CNNscore 0.60951221
REMARK CNNaffinity 6.86109352
REMARK SMILES Nc1ncnc2c1c(-c1ccc(Cl)c(O)c1)nn2C[C@H]1CCCNC1
REMARK SMILES IDX 2 1 3 2 4 3 5 4 6 5 7 6 8 7 17 8 18 9 1 10 9 13 10 14 16 15
REMARK SMILES IDX 11 16 14 17 12 18 13 19 15 20 19 22 20 23 21 24 25 25 22 26
REMARK SMILES IDX 24 27 23 28
REMARK H PARENT 1 11 1 12 15 21 24 29
ROOT
ATOM      1  C   UNL     1      49.176  -1.116 -51.841  1.00  0.00     0.138 A 
ATOM      2  N   UNL     1      50.065  -0.148 -52.141  1.00  0.00    -0.219 NA
ATOM      3  C   UNL     1      50.591   0.582 -51.138  1.00  0.00     0.226 A 
ATOM      4  N   UNL     1      50.352   0.464 -49.822  1.00  0.00    -0.217 NA
ATOM      5  C   UNL     1      49.458  -0.506 -49.571  1.00  0.00     0.163 A 
ATOM      6  C   UNL     1      48.825  -1.315 -50.500  1.00  0.00     0.089 A 
ATOM      7  C   UNL     1      47.962  -2.151 -49.726  1.00  0.00     0.106 A 
ATOM      8  N   UNL     1      48.098  -1.909 -48.409  1.00  0.00    -0.170 NA
ATOM      9  N   UNL     1      48.996  -0.904 -48.348  1.00  0.00    -0.246 N 
ENDROOT
BRANCH   1  10
ATOM     10  N   UNL     1      48.696  -1.864 -52.909  1.00  0.00    -0.383 N 
ATOM     11  H   UNL     1      49.276  -1.701 -53.726  1.00  0.00     0.158 HD
ATOM     12  H   UNL     1      48.530  -2.840 -52.695  1.00  0.00     0.158 HD
ENDBRANCH   1  10
BRANCH   7  13
ATOM     13  C   UNL     1      47.019  -3.167 -50.187  1.00  0.00     0.007 A 
ATOM     14  C   UNL     1      46.090  -2.856 -51.191  1.00  0.00     0.012 A 
ATOM     15  C   UNL     1      47.044  -4.463 -49.654  1.00  0.00     0.058 A 
ATOM     16  C   UNL     1      45.182  -3.818 -51.640  1.00  0.00     0.025 A 
ATOM     17  C   UNL     1      46.132  -5.422 -50.101  1.00  0.00     0.134 A 
ATOM     18  C   UNL     1      45.198  -5.101 -51.092  1.00  0.00     0.082 A 
ATOM     19  Cl  UNL     1      44.055  -6.259 -51.664  1.00  0.00    -0.080 Cl
BRANCH  17  20
ATOM     20  O   UNL     1      46.153  -6.679 -49.562  1.00  0.00    -0.506 OA
ATOM     21  H   UNL     1      46.868  -6.743 -48.908  1.00  0.00     0.293 HD
ENDBRANCH  17  20
ENDBRANCH   7  13
BRANCH   9  22
ATOM     22  C   UNL     1      49.367  -0.353 -47.059  1.00  0.00     0.151 C 
BRANCH  22  23
ATOM     23  C   UNL     1      50.736  -0.844 -46.560  1.00  0.00     0.025 C 
ATOM     24  C   UNL     1      51.848   0.190 -46.841  1.00  0.00     0.008 C 
ATOM     25  C   UNL     1      50.679  -1.219 -45.067  1.00  0.00     0.086 C 
ATOM     26  C   UNL     1      52.914   0.156 -45.753  1.00  0.00     0.016 C 
ATOM     27  N   UNL     1      50.939  -0.074 -44.197  1.00  0.00    -0.316 NA
ATOM     28  C   UNL     1      52.298   0.449 -44.380  1.00  0.00     0.081 C 
ATOM     29  H   UNL     1      50.268   0.670 -44.394  1.00  0.00     0.122 HD
ENDBRANCH  22  23
ENDBRANCH   9  22
TORSDOF 5
ENDMDL
