MODEL 2
REMARK VINA RESULT:    -9.486      2.047      2.910
REMARK INTER + INTRA:         -13.532
REMARK INTER:                 -12.981
REMARK INTRA:                  -0.551
REMARK UNBOUND:                -0.718
REMARK SMILES Cc1nc(-c2cc3ncccc3c(-c3ccn(C4(CC#N)CN(CC(F)(F)F)C4)n3)n2)c[nH]1
REMARK SMILES IDX 14 1 15 2 16 3 17 4 30 5 13 6 5 7 6 8 31 9 7 10 8 11 12 12
REMARK SMILES IDX 9 13 11 14 10 15 4 16 2 17 3 18 33 19 32 20 1 21 18 23 22 24
REMARK SMILES IDX 29 25 23 26 19 27 20 28 21 29 24 30 25 31 26 32 27 33 28 34
REMARK H PARENT 33 22
ROOT
ATOM      1  C   UNL     1      -4.617  27.649 -30.768  1.00  0.00     0.111 A 
ATOM      2  C   UNL     1      -5.254  28.580 -31.634  1.00  0.00     0.052 A 
ATOM      3  C   UNL     1      -5.065  29.814 -31.063  1.00  0.00     0.110 A 
ATOM      4  N   UNL     1      -4.347  29.594 -29.920  1.00  0.00    -0.262 N 
ATOM      5  N   UNL     1      -4.101  28.288 -29.704  1.00  0.00    -0.171 NA
ENDROOT
BRANCH   1   6
ATOM      6  C   UNL     1      -4.575  26.190 -30.947  1.00  0.00     0.101 A 
ATOM      7  C   UNL     1      -3.680  24.224 -30.091  1.00  0.00     0.093 A 
ATOM      8  C   UNL     1      -4.289  23.483 -31.087  1.00  0.00     0.059 A 
ATOM      9  N   UNL     1      -3.817  25.562 -30.012  1.00  0.00    -0.244 NA
ATOM     10  C   UNL     1      -5.080  24.109 -32.030  1.00  0.00     0.075 A 
ATOM     11  N   UNL     1      -5.664  23.332 -32.960  1.00  0.00    -0.256 NA
ATOM     12  C   UNL     1      -5.255  25.503 -31.978  1.00  0.00     0.028 A 
ATOM     13  C   UNL     1      -6.464  23.916 -33.878  1.00  0.00     0.112 A 
ATOM     14  C   UNL     1      -6.115  26.067 -32.954  1.00  0.00     0.014 A 
ATOM     15  C   UNL     1      -6.723  25.268 -33.914  1.00  0.00     0.021 A 
BRANCH   7  16
ATOM     16  C   UNL     1      -2.851  23.604 -29.058  1.00  0.00     0.107 A 
ATOM     17  C   UNL     1      -1.924  23.276 -27.135  1.00  0.00     0.103 A 
ATOM     18  N   UNL     1      -2.752  24.081 -27.765  1.00  0.00    -0.232 NA
ATOM     19  N   UNL     1      -1.478  22.289 -27.975  1.00  0.00    -0.348 N 
ATOM     20  C   UNL     1      -2.059  22.482 -29.199  1.00  0.00     0.114 A 
ATOM     21  C   UNL     1      -1.492  23.373 -25.722  1.00  0.00     0.087 C 
ATOM     22  H   UNL     1      -0.833  21.551 -27.727  1.00  0.00     0.167 HD
ENDBRANCH   7  16
ENDBRANCH   1   6
BRANCH   4  23
ATOM     23  C   UNL     1      -3.945  30.628 -28.921  1.00  0.00     0.101 C 
ATOM     24  C   UNL     1      -2.476  31.081 -29.135  1.00  0.00     0.118 C 
ATOM     25  C   UNL     1      -3.426  30.069 -27.566  1.00  0.00     0.118 C 
ATOM     26  N   UNL     1      -2.307  31.046 -27.660  1.00  0.00    -0.290 NA
BRANCH  23  27
ATOM     27  C   UNL     1      -4.949  31.782 -28.815  1.00  0.00     0.153 C 
ATOM     28  C   UNL     1      -4.493  32.973 -29.547  1.00  0.00     0.065 C 
ATOM     29  N   UNL     1      -4.132  33.903 -30.140  1.00  0.00    -0.198 NA
ENDBRANCH  23  27
BRANCH  26  30
ATOM     30  C   UNL     1      -1.015  30.420 -27.293  1.00  0.00     0.200 C 
BRANCH  30  31
ATOM     31  C   UNL     1      -0.340  30.975 -26.028  1.00  0.00     0.401 C 
ATOM     32  F   UNL     1       0.682  31.797 -26.366  1.00  0.00    -0.170 F 
ATOM     33  F   UNL     1      -1.198  31.687 -25.265  1.00  0.00    -0.170 F 
ATOM     34  F   UNL     1       0.177  29.983 -25.267  1.00  0.00    -0.170 F 
ENDBRANCH  30  31
ENDBRANCH  26  30
ENDBRANCH   4  23
TORSDOF 6
ENDMDL
