MODEL 7
REMARK minimizedAffinity -9.94718933
REMARK CNNscore 0.848419428
REMARK CNNaffinity 8.30373478
REMARK SMILES C=CC(=O)N1CCC[C@@H](n2nc(-c3ccc(Oc4ccn5ncnc5c4)c(C)c3)c3c(N)ncnc32)C1
REMARK SMILES IDX 10 1 11 2 12 3 30 4 31 5 33 6 34 7 35 8 36 9 9 10 5 11 6 12
REMARK SMILES IDX 37 13 7 14 8 15 3 16 4 17 2 18 1 19 13 20 14 21 29 22 15 23
REMARK SMILES IDX 27 24 16 25 28 26 17 27 18 28 19 29 26 30 20 31 25 32 21 33
REMARK SMILES IDX 24 34 22 35 23 36 32 37
REMARK H PARENT 32 38 32 39
ROOT
ATOM      1  N   UNL     1      15.049   3.414  26.010  1.00  0.00    -0.242 N 
ATOM      2  N   UNL     1      14.109   3.532  26.972  1.00  0.00    -0.170 NA
ATOM      3  C   UNL     1      14.227   2.400  27.686  1.00  0.00     0.106 A 
ATOM      4  C   UNL     1      15.237   1.546  27.156  1.00  0.00     0.089 A 
ATOM      5  C   UNL     1      15.787   0.282  27.404  1.00  0.00     0.138 A 
ATOM      6  N   UNL     1      16.799  -0.147  26.620  1.00  0.00    -0.219 NA
ATOM      7  C   UNL     1      17.218   0.645  25.613  1.00  0.00     0.226 A 
ATOM      8  N   UNL     1      16.756   1.857  25.270  1.00  0.00    -0.217 NA
ATOM      9  C   UNL     1      15.759   2.249  26.082  1.00  0.00     0.164 A 
ENDROOT
BRANCH   1  10
ATOM     10  C   UNL     1      15.217   4.470  25.023  1.00  0.00     0.129 C 
ATOM     11  N   UNL     1      16.908   5.856  23.814  1.00  0.00    -0.337 N 
ATOM     12  C   UNL     1      16.288   5.559  22.518  1.00  0.00     0.120 C 
ATOM     13  C   UNL     1      16.695   4.839  24.854  1.00  0.00     0.147 C 
ATOM     14  C   UNL     1      14.807   5.220  22.661  1.00  0.00     0.024 C 
ATOM     15  C   UNL     1      14.585   4.100  23.674  1.00  0.00     0.031 C 
BRANCH  11  16
ATOM     16  C   UNL     1      18.066   6.622  23.939  1.00  0.00     0.246 C 
ATOM     17  O   UNL     1      18.056   7.807  24.266  1.00  0.00    -0.270 OA
BRANCH  16  18
ATOM     18  C   UNL     1      19.353   5.951  23.620  1.00  0.00     0.063 C 
ATOM     19  C   UNL     1      20.515   6.560  23.890  1.00  0.00     0.014 C 
ENDBRANCH  16  18
ENDBRANCH  11  16
ENDBRANCH   1  10
BRANCH   3  20
ATOM     20  C   UNL     1      13.374   2.177  28.847  1.00  0.00     0.003 A 
ATOM     21  C   UNL     1      13.924   2.138  30.133  1.00  0.00     0.014 A 
ATOM     22  C   UNL     1      11.990   2.028  28.678  1.00  0.00     0.017 A 
ATOM     23  C   UNL     1      13.102   1.915  31.236  1.00  0.00     0.048 A 
ATOM     24  C   UNL     1      11.148   1.820  29.781  1.00  0.00    -0.008 A 
ATOM     25  C   UNL     1      11.729   1.727  31.055  1.00  0.00     0.130 A 
ATOM     26  C   UNL     1       9.669   1.675  29.571  1.00  0.00     0.048 C 
BRANCH  25  27
ATOM     27  O   UNL     1      10.964   1.534  32.179  1.00  0.00    -0.457 OA
BRANCH  27  28
ATOM     28  C   UNL     1       9.616   1.892  32.173  1.00  0.00     0.132 A 
ATOM     29  C   UNL     1       8.567   0.873  32.082  1.00  0.00     0.067 A 
ATOM     30  C   UNL     1       9.294   3.197  32.290  1.00  0.00     0.096 A 
ATOM     31  C   UNL     1       7.277   1.257  32.094  1.00  0.00     0.119 A 
ATOM     32  C   UNL     1       7.931   3.602  32.301  1.00  0.00     0.158 A 
ATOM     33  N   UNL     1       6.956   2.608  32.201  1.00  0.00    -0.221 N 
ATOM     34  N   UNL     1       7.364   4.784  32.391  1.00  0.00    -0.215 NA
ATOM     35  N   UNL     1       5.733   3.188  32.232  1.00  0.00    -0.155 NA
ATOM     36  C   UNL     1       6.036   4.483  32.344  1.00  0.00     0.247 A 
ENDBRANCH  27  28
ENDBRANCH  25  27
ENDBRANCH   3  20
BRANCH   5  37
ATOM     37  N   UNL     1      15.369  -0.585  28.395  1.00  0.00    -0.383 N 
ATOM     38  H   UNL     1      16.035  -1.328  28.568  1.00  0.00     0.158 HD
ATOM     39  H   UNL     1      14.861  -0.211  29.180  1.00  0.00     0.158 HD
ENDBRANCH   5  37
TORSDOF 7
ENDMDL
