MODEL 7
REMARK VINA RESULT:    -9.467      4.233      9.525
REMARK INTER + INTRA:         -16.396
REMARK INTER:                 -15.532
REMARK INTRA:                  -0.864
REMARK UNBOUND:                -1.117
REMARK SMILES COc1cc(-c2nc3c(s2)CCC3)ccc1OCCCOc1ccc2c(c1)CC[C@H]2CC(=O)O
REMARK SMILES IDX 20 1 19 2 18 3 17 4 16 5 3 6 4 7 5 8 15 9 14 10 2 11 1 12
REMARK SMILES IDX 6 13 7 14 10 15 8 16 9 17 13 18 11 19 12 20 21 21 22 22
REMARK SMILES IDX 23 23 27 24 24 25 26 26 25 27 28 28 30 29 29 30 31 31 32 32
REMARK SMILES IDX 33 33 34 34
REMARK H PARENT 34 35
ROOT
ATOM      1  C   UNL     1      39.657   5.569 133.340  1.00  0.00     0.233 C 
ENDROOT
BRANCH   1   2
ATOM      2  C   UNL     1      39.623   5.008 134.761  1.00  0.00     0.083 C 
BRANCH   2   3
ATOM      3  C   UNL     1      38.190   4.823 135.252  1.00  0.00     0.233 C 
BRANCH   3   4
ATOM      4  O   UNL     1      38.242   4.290 136.581  1.00  0.00    -0.490 OA
BRANCH   4   5
ATOM      5  C   UNL     1      37.350   3.261 136.736  1.00  0.00     0.161 A 
ATOM      6  C   UNL     1      36.798   2.943 137.984  1.00  0.00     0.161 A 
ATOM      7  C   UNL     1      35.846   1.917 138.069  1.00  0.00     0.061 A 
ATOM      8  C   UNL     1      35.402   1.237 136.920  1.00  0.00     0.014 A 
ATOM      9  C   UNL     1      36.922   2.605 135.584  1.00  0.00     0.051 A 
ATOM     10  C   UNL     1      35.962   1.594 135.679  1.00  0.00     0.015 A 
BRANCH   6  11
ATOM     11  O   UNL     1      37.260   3.639 139.070  1.00  0.00    -0.493 OA
ATOM     12  C   UNL     1      37.305   2.906 140.291  1.00  0.00     0.278 C 
ENDBRANCH   6  11
BRANCH   8  13
ATOM     13  C   UNL     1      34.389   0.162 136.955  1.00  0.00     0.124 A 
ATOM     14  N   UNL     1      34.587  -1.027 137.519  1.00  0.00    -0.241 NA
ATOM     15  S   UNL     1      32.823   0.356 136.186  1.00  0.00    -0.119 S 
ATOM     16  C   UNL     1      33.463  -1.772 137.349  1.00  0.00     0.055 A 
ATOM     17  C   UNL     1      32.439  -1.192 136.666  1.00  0.00     0.028 A 
ATOM     18  C   UNL     1      33.151  -3.156 137.763  1.00  0.00     0.058 C 
ATOM     19  C   UNL     1      31.261  -2.065 136.491  1.00  0.00     0.049 C 
ATOM     20  C   UNL     1      31.612  -3.233 137.476  1.00  0.00     0.012 C 
ENDBRANCH   8  13
ENDBRANCH   4   5
ENDBRANCH   3   4
ENDBRANCH   2   3
ENDBRANCH   1   2
BRANCH   1  21
ATOM     21  O   UNL     1      40.484   4.754 132.504  1.00  0.00    -0.493 OA
BRANCH  21  22
ATOM     22  C   UNL     1      39.844   3.815 131.735  1.00  0.00     0.119 A 
ATOM     23  C   UNL     1      40.409   3.136 130.641  1.00  0.00     0.047 A 
ATOM     24  C   UNL     1      38.531   3.531 132.131  1.00  0.00     0.050 A 
ATOM     25  C   UNL     1      39.658   2.211 129.909  1.00  0.00     0.008 A 
ATOM     26  C   UNL     1      37.798   2.606 131.406  1.00  0.00    -0.041 A 
ATOM     27  C   UNL     1      38.349   1.967 130.294  1.00  0.00    -0.041 A 
ATOM     28  C   UNL     1      36.374   2.197 131.614  1.00  0.00     0.036 C 
ATOM     29  C   UNL     1      37.343   1.065 129.631  1.00  0.00     0.031 C 
ATOM     30  C   UNL     1      36.303   0.918 130.767  1.00  0.00     0.014 C 
BRANCH  29  31
ATOM     31  C   UNL     1      36.769   1.717 128.369  1.00  0.00     0.131 C 
BRANCH  31  32
ATOM     32  C   UNL     1      35.844   0.785 127.634  1.00  0.00     0.303 C 
ATOM     33  O   UNL     1      35.458  -0.314 127.990  1.00  0.00    -0.252 OA
BRANCH  32  34
ATOM     34  O   UNL     1      35.457   1.290 126.444  1.00  0.00    -0.481 OA
ATOM     35  H   UNL     1      36.255   1.207 125.879  1.00  0.00     0.296 HD
ENDBRANCH  32  34
ENDBRANCH  31  32
ENDBRANCH  29  31
ENDBRANCH  21  22
ENDBRANCH   1  21
TORSDOF 11
ENDMDL
