MODEL 4
REMARK VINA RESULT:    -9.815      2.866      5.160
REMARK INTER + INTRA:         -19.615
REMARK INTER:                 -17.699
REMARK INTRA:                  -1.916
REMARK UNBOUND:                -2.340
REMARK SMILES CC(=N)N1CCC(Oc2ccc(N(C/C=C/c3cccc(C(=N)N)c3)C(=O)c3ccc(C(=O)O)c(C(=O)O)c3)cc2C(F)(F)F)CC1
REMARK SMILES IDX 13 1 12 2 9 3 10 4 41 5 11 6 40 7 8 8 7 9 2 10 3 11 4 12
REMARK SMILES IDX 5 13 47 14 6 15 46 16 1 17 42 19 43 20 44 21 45 22 14 23
REMARK SMILES IDX 15 24 16 25 17 26 18 27 25 28 19 29 21 30 20 31 22 32 23 33
REMARK SMILES IDX 24 34 26 38 27 39 28 40 29 41 39 42 30 43 35 44 31 45 36 46
REMARK SMILES IDX 37 47 38 48 32 50 33 51 34 52
REMARK H PARENT 3 18 23 35 24 36 24 37 38 49 34 53
ROOT
ATOM      1  N   UNL     1     127.609 -14.953 161.874  1.00  0.00    -0.305 N 
ENDROOT
BRANCH   1   2
ATOM      2  C   UNL     1     128.823 -15.088 162.622  1.00  0.00     0.045 A 
ATOM      3  C   UNL     1     131.230 -15.360 164.100  1.00  0.00     0.132 A 
ATOM      4  C   UNL     1     129.993 -15.528 164.720  1.00  0.00     0.049 A 
ATOM      5  C   UNL     1     131.273 -15.031 162.738  1.00  0.00     0.100 A 
ATOM      6  C   UNL     1     128.805 -15.397 163.987  1.00  0.00     0.030 A 
ATOM      7  C   UNL     1     130.068 -14.887 162.016  1.00  0.00     0.043 A 
BRANCH   3   8
ATOM      8  O   UNL     1     132.443 -15.481 164.711  1.00  0.00    -0.490 OA
BRANCH   8   9
ATOM      9  C   UNL     1     132.651 -16.447 165.750  1.00  0.00     0.176 C 
ATOM     10  C   UNL     1     136.408 -18.516 166.405  1.00  0.00     0.093 C 
ATOM     11  N   UNL     1     137.511 -17.832 166.406  1.00  0.00    -0.289 NA
ATOM     12  N   UNL     1     135.179 -17.891 166.300  1.00  0.00    -0.361 N 
ATOM     13  C   UNL     1     135.111 -16.422 166.321  1.00  0.00     0.121 C 
ATOM     14  C   UNL     1     133.952 -18.607 165.946  1.00  0.00     0.121 C 
ATOM     15  C   UNL     1     133.719 -15.953 166.732  1.00  0.00     0.066 C 
ATOM     16  C   UNL     1     133.073 -17.746 165.051  1.00  0.00     0.066 C 
ATOM     17  C   UNL     1     136.489 -20.028 166.501  1.00  0.00     0.086 C 
ATOM     18  H   UNL     1     138.324 -18.452 166.473  1.00  0.00     0.189 HD
ENDBRANCH   8   9
ENDBRANCH   3   8
BRANCH   5  19
ATOM     19  C   UNL     1     132.596 -14.844 162.036  1.00  0.00     0.420 C 
ATOM     20  F   UNL     1     133.413 -13.949 162.672  1.00  0.00    -0.166 F 
ATOM     21  F   UNL     1     133.328 -15.989 161.945  1.00  0.00    -0.166 F 
ATOM     22  F   UNL     1     132.464 -14.365 160.766  1.00  0.00    -0.166 F 
ENDBRANCH   5  19
ENDBRANCH   1   2
BRANCH   1  23
ATOM     23  C   UNL     1     127.228 -16.028 160.959  1.00  0.00     0.153 C 
BRANCH  23  24
ATOM     24  C   UNL     1     126.730 -17.203 161.756  1.00  0.00    -0.005 C 
ATOM     25  C   UNL     1     126.271 -18.337 161.197  1.00  0.00     0.005 C 
BRANCH  25  26
ATOM     26  C   UNL     1     125.826 -19.514 161.955  1.00  0.00    -0.025 A 
ATOM     27  C   UNL     1     124.782 -20.346 161.518  1.00  0.00     0.008 A 
ATOM     28  C   UNL     1     126.496 -19.838 163.142  1.00  0.00     0.020 A 
ATOM     29  C   UNL     1     124.394 -21.461 162.269  1.00  0.00     0.001 A 
ATOM     30  C   UNL     1     126.106 -20.954 163.893  1.00  0.00     0.017 A 
ATOM     31  C   UNL     1     125.051 -21.763 163.462  1.00  0.00     0.012 A 
BRANCH  30  32
ATOM     32  C   UNL     1     126.821 -21.268 165.154  1.00  0.00     0.122 C 
ATOM     33  N   UNL     1     126.386 -22.164 165.979  1.00  0.00    -0.284 NA
ATOM     34  N   UNL     1     127.969 -20.615 165.480  1.00  0.00    -0.384 N 
ATOM     35  H   UNL     1     125.507 -22.573 165.645  1.00  0.00     0.189 HD
ATOM     36  H   UNL     1     128.235 -20.734 166.451  1.00  0.00     0.158 HD
ATOM     37  H   UNL     1     128.159 -19.707 165.084  1.00  0.00     0.158 HD
ENDBRANCH  30  32
ENDBRANCH  25  26
ENDBRANCH  23  24
ENDBRANCH   1  23
BRANCH   1  38
ATOM     38  C   UNL     1     126.885 -13.754 161.760  1.00  0.00     0.258 C 
ATOM     39  O   UNL     1     126.519 -13.274 160.687  1.00  0.00    -0.269 OA
BRANCH  38  40
ATOM     40  C   UNL     1     126.422 -13.073 163.000  1.00  0.00     0.041 A 
ATOM     41  C   UNL     1     126.828 -11.755 163.242  1.00  0.00     0.015 A 
ATOM     42  C   UNL     1     125.543 -13.703 163.886  1.00  0.00     0.030 A 
ATOM     43  C   UNL     1     126.381 -11.081 164.384  1.00  0.00     0.017 A 
ATOM     44  C   UNL     1     125.116 -13.036 165.042  1.00  0.00     0.075 A 
ATOM     45  C   UNL     1     125.520 -11.719 165.293  1.00  0.00     0.074 A 
BRANCH  44  46
ATOM     46  C   UNL     1     124.273 -13.802 165.973  1.00  0.00     0.336 C 
ATOM     47  O   UNL     1     124.262 -13.684 167.182  1.00  0.00    -0.246 OA
BRANCH  46  48
ATOM     48  O   UNL     1     123.382 -14.549 165.303  1.00  0.00    -0.478 OA
ATOM     49  H   UNL     1     123.645 -14.443 164.365  1.00  0.00     0.297 HD
ENDBRANCH  46  48
ENDBRANCH  44  46
BRANCH  45  50
ATOM     50  C   UNL     1     124.980 -10.968 166.447  1.00  0.00     0.336 C 
ATOM     51  O   UNL     1     123.808 -10.795 166.716  1.00  0.00    -0.246 OA
BRANCH  50  52
ATOM     52  O   UNL     1     125.961 -10.451 167.208  1.00  0.00    -0.478 OA
ATOM     53  H   UNL     1     126.516  -9.961 166.565  1.00  0.00     0.297 HD
ENDBRANCH  50  52
ENDBRANCH  45  50
ENDBRANCH  38  40
ENDBRANCH   1  38
TORSDOF 14
ENDMDL
