REMARK VINA RESULT:   -10.405      1.560      3.525
REMARK INTER + INTRA:         -20.255
REMARK INTER:                 -18.108
REMARK INTRA:                  -2.147
REMARK UNBOUND:                -2.550
REMARK SMILES O=C(NCCCNc1c2c(nc3ccccc13)CCCC2)c1sc(-c2ccnc(NC(=O)C3CC3)c2)nc1OCC1CC1
REMARK SMILES IDX 1 1 2 2 3 3 22 5 23 6 38 7 24 8 37 9 39 10 40 11 41 12 42 13
REMARK SMILES IDX 43 14 25 15 26 16 36 17 27 18 29 19 28 20 30 21 31 22 32 23
REMARK SMILES IDX 33 25 34 26 35 27 4 28 5 29 6 30 7 31 8 33 9 34 17 35 10 36
REMARK SMILES IDX 21 37 16 38 12 39 11 40 18 41 20 42 15 43 13 44 19 45 14 46
REMARK H PARENT 3 4 30 24 7 32
ROOT
ATOM      1  O   UNL     1     136.601 114.978  41.666  1.00  0.00    -0.268 OA
ATOM      2  C   UNL     1     137.389 115.090  40.729  1.00  0.00     0.267 C 
ATOM      3  N   UNL     1     137.687 116.338  40.211  1.00  0.00    -0.351 N 
ATOM      4  H   UNL     1     138.348 116.401  39.446  1.00  0.00     0.163 HD
ENDROOT
BRANCH   2   5
ATOM      5  C   UNL     1     138.069 113.976  40.093  1.00  0.00     0.156 A 
ATOM      6  S   UNL     1     137.210 112.641  39.438  1.00  0.00    -0.105 S 
ATOM      7  C   UNL     1     139.426 113.771  39.915  1.00  0.00     0.238 A 
ATOM      8  C   UNL     1     138.688 111.897  38.974  1.00  0.00     0.128 A 
ATOM      9  N   UNL     1     139.767 112.583  39.291  1.00  0.00    -0.201 NA
BRANCH   7  10
ATOM     10  O   UNL     1     140.316 114.706  40.326  1.00  0.00    -0.476 OA
BRANCH  10  11
ATOM     11  C   UNL     1     140.809 114.507  41.649  1.00  0.00     0.235 C 
BRANCH  11  12
ATOM     12  C   UNL     1     140.560 115.736  42.472  1.00  0.00     0.027 C 
ATOM     13  C   UNL     1     140.968 117.094  41.958  1.00  0.00     0.007 C 
ATOM     14  C   UNL     1     141.701 116.481  43.119  1.00  0.00     0.007 C 
ENDBRANCH  11  12
ENDBRANCH  10  11
ENDBRANCH   7  10
BRANCH   8  15
ATOM     15  C   UNL     1     138.720 110.579  38.315  1.00  0.00     0.016 A 
ATOM     16  C   UNL     1     137.737 109.639  38.636  1.00  0.00     0.031 A 
ATOM     17  C   UNL     1     139.703 110.215  37.385  1.00  0.00     0.058 A 
ATOM     18  C   UNL     1     137.769 108.407  38.011  1.00  0.00     0.114 A 
ATOM     19  C   UNL     1     139.657 108.956  36.804  1.00  0.00     0.133 A 
ATOM     20  N   UNL     1     138.701 108.051  37.103  1.00  0.00    -0.239 NA
BRANCH  19  21
ATOM     21  N   UNL     1     140.582 108.493  35.871  1.00  0.00    -0.310 N 
ATOM     22  C   UNL     1     140.714 108.853  34.558  1.00  0.00     0.228 C 
ATOM     23  O   UNL     1     140.012 109.628  33.926  1.00  0.00    -0.274 OA
ATOM     24  H   UNL     1     141.211 107.803  36.257  1.00  0.00     0.171 HD
BRANCH  22  25
ATOM     25  C   UNL     1     141.835 108.165  33.856  1.00  0.00     0.079 C 
ATOM     26  C   UNL     1     142.985 107.525  34.597  1.00  0.00     0.014 C 
ATOM     27  C   UNL     1     143.201 108.813  33.861  1.00  0.00     0.014 C 
ENDBRANCH  22  25
ENDBRANCH  19  21
ENDBRANCH   8  15
ENDBRANCH   2   5
BRANCH   3  28
ATOM     28  C   UNL     1     137.077 117.560  40.686  1.00  0.00     0.118 C 
BRANCH  28  29
ATOM     29  C   UNL     1     135.687 117.818  40.107  1.00  0.00     0.042 C 
BRANCH  29  30
ATOM     30  C   UNL     1     134.551 117.636  41.110  1.00  0.00     0.115 C 
BRANCH  30  31
ATOM     31  N   UNL     1     133.356 117.122  40.445  1.00  0.00    -0.384 N 
ATOM     32  H   UNL     1     133.176 117.485  39.514  1.00  0.00     0.160 HD
BRANCH  31  33
ATOM     33  C   UNL     1     133.129 115.735  40.568  1.00  0.00     0.049 A 
ATOM     34  C   UNL     1     133.449 114.873  39.503  1.00  0.00    -0.003 A 
ATOM     35  C   UNL     1     132.533 115.206  41.747  1.00  0.00     0.024 A 
ATOM     36  C   UNL     1     133.158 113.515  39.653  1.00  0.00     0.046 A 
ATOM     37  C   UNL     1     134.063 115.395  38.225  1.00  0.00     0.039 C 
ATOM     38  C   UNL     1     132.160 115.990  42.869  1.00  0.00     0.012 A 
ATOM     39  C   UNL     1     132.296 113.819  41.787  1.00  0.00     0.073 A 
ATOM     40  N   UNL     1     132.602 112.997  40.773  1.00  0.00    -0.252 NA
ATOM     41  C   UNL     1     133.513 112.502  38.594  1.00  0.00     0.056 C 
ATOM     42  C   UNL     1     134.719 114.312  37.370  1.00  0.00     0.005 C 
ATOM     43  C   UNL     1     131.581 115.414  43.999  1.00  0.00     0.001 A 
ATOM     44  C   UNL     1     131.718 113.268  42.924  1.00  0.00     0.029 A 
ATOM     45  C   UNL     1     133.788 113.118  37.226  1.00  0.00     0.007 C 
ATOM     46  C   UNL     1     131.359 114.047  44.027  1.00  0.00     0.002 A 
ENDBRANCH  31  33
ENDBRANCH  30  31
ENDBRANCH  29  30
ENDBRANCH  28  29
ENDBRANCH   3  28
TORSDOF 12
