MODEL 1
REMARK VINA RESULT:    -8.817      0.000      0.000
REMARK INTER + INTRA:         -11.108
REMARK INTER:                 -10.879
REMARK INTRA:                  -0.229
REMARK UNBOUND:                -0.229
REMARK SMILES FC(F)c1nc2ccccc2n1-c1nc(N2CCOCC2)nc(N2CCOCC2)n1
REMARK SMILES IDX 4 1 5 2 6 3 7 4 8 5 9 6 10 7 11 8 12 9 2 10 1 11 3 12 13 13
REMARK SMILES IDX 14 14 30 15 15 16 23 17 22 18 16 19 17 20 21 21 18 22 20 23
REMARK SMILES IDX 19 24 24 25 25 26 29 27 26 28 28 29 27 30
REMARK H PARENT
ROOT
ATOM      1  C   UNL     1      32.216  46.523  38.453  1.00  0.00     0.184 A 
ATOM      2  N   UNL     1      31.712  45.956  37.369  1.00  0.00    -0.227 NA
ATOM      3  C   UNL     1      31.067  44.835  37.794  1.00  0.00     0.090 A 
ATOM      4  C   UNL     1      30.379  43.881  37.028  1.00  0.00     0.030 A 
ATOM      5  C   UNL     1      29.775  42.800  37.674  1.00  0.00     0.002 A 
ATOM      6  C   UNL     1      29.853  42.674  39.058  1.00  0.00     0.002 A 
ATOM      7  C   UNL     1      30.535  43.618  39.834  1.00  0.00     0.029 A 
ATOM      8  C   UNL     1      31.147  44.700  39.177  1.00  0.00     0.076 A 
ATOM      9  N   UNL     1      31.883  45.807  39.603  1.00  0.00    -0.259 N 
ENDROOT
BRANCH   1  10
ATOM     10  C   UNL     1      33.048  47.760  38.459  1.00  0.00     0.408 C 
ATOM     11  F   UNL     1      32.530  48.718  37.637  1.00  0.00    -0.201 F 
ATOM     12  F   UNL     1      34.302  47.521  37.986  1.00  0.00    -0.201 F 
ENDBRANCH   1  10
BRANCH   9  13
ATOM     13  C   UNL     1      32.211  46.152  40.958  1.00  0.00     0.242 A 
ATOM     14  N   UNL     1      31.403  45.731  41.931  1.00  0.00    -0.176 NA
ATOM     15  N   UNL     1      33.294  46.901  41.164  1.00  0.00    -0.176 NA
ATOM     16  C   UNL     1      31.729  46.085  43.167  1.00  0.00     0.232 A 
ATOM     17  C   UNL     1      33.567  47.212  42.426  1.00  0.00     0.232 A 
ATOM     18  N   UNL     1      32.795  46.829  43.434  1.00  0.00    -0.176 NA
BRANCH  16  19
ATOM     19  N   UNL     1      30.945  45.656  44.223  1.00  0.00    -0.336 N 
ATOM     20  C   UNL     1      29.761  44.848  43.936  1.00  0.00     0.148 C 
ATOM     21  C   UNL     1      30.888  46.506  45.416  1.00  0.00     0.148 C 
ATOM     22  C   UNL     1      29.225  44.185  45.213  1.00  0.00     0.181 C 
ATOM     23  C   UNL     1      30.290  45.741  46.605  1.00  0.00     0.181 C 
ATOM     24  O   UNL     1      29.033  45.138  46.267  1.00  0.00    -0.378 OA
ENDBRANCH  16  19
BRANCH  17  25
ATOM     25  N   UNL     1      34.697  47.954  42.707  1.00  0.00    -0.336 N 
ATOM     26  C   UNL     1      34.648  48.961  43.766  1.00  0.00     0.148 C 
ATOM     27  C   UNL     1      36.003  47.338  42.447  1.00  0.00     0.148 C 
ATOM     28  C   UNL     1      35.840  49.924  43.667  1.00  0.00     0.181 C 
ATOM     29  C   UNL     1      37.114  48.398  42.425  1.00  0.00     0.181 C 
ATOM     30  O   UNL     1      37.087  49.218  43.602  1.00  0.00    -0.378 OA
ENDBRANCH  17  25
ENDBRANCH   9  13
TORSDOF 4
ENDMDL
MODEL 2
REMARK VINA RESULT:    -8.764      0.117      4.729
REMARK INTER + INTRA:         -11.043
REMARK INTER:                 -10.786
REMARK INTRA:                  -0.256
REMARK UNBOUND:                -0.229
REMARK SMILES FC(F)c1nc2ccccc2n1-c1nc(N2CCOCC2)nc(N2CCOCC2)n1
REMARK SMILES IDX 4 1 5 2 6 3 7 4 8 5 9 6 10 7 11 8 12 9 2 10 1 11 3 12 13 13
REMARK SMILES IDX 14 14 30 15 15 16 23 17 22 18 16 19 17 20 21 21 18 22 20 23
REMARK SMILES IDX 19 24 24 25 25 26 29 27 26 28 28 29 27 30
REMARK H PARENT
ROOT
ATOM      1  C   UNL     1      32.241  46.509  38.425  1.00  0.00     0.184 A 
ATOM      2  N   UNL     1      31.715  45.921  37.362  1.00  0.00    -0.227 NA
ATOM      3  C   UNL     1      31.063  44.819  37.824  1.00  0.00     0.090 A 
ATOM      4  C   UNL     1      30.352  43.855  37.092  1.00  0.00     0.030 A 
ATOM      5  C   UNL     1      29.743  42.798  37.773  1.00  0.00     0.002 A 
ATOM      6  C   UNL     1      29.839  42.706  39.159  1.00  0.00     0.002 A 
ATOM      7  C   UNL     1      30.543  43.661  39.902  1.00  0.00     0.029 A 
ATOM      8  C   UNL     1      31.160  44.719  39.209  1.00  0.00     0.076 A 
ATOM      9  N   UNL     1      31.914  45.827  39.597  1.00  0.00    -0.259 N 
ENDROOT
BRANCH   1  10
ATOM     10  C   UNL     1      33.088  47.735  38.388  1.00  0.00     0.408 C 
ATOM     11  F   UNL     1      32.537  48.703  37.599  1.00  0.00    -0.201 F 
ATOM     12  F   UNL     1      34.310  47.482  37.845  1.00  0.00    -0.201 F 
ENDBRANCH   1  10
BRANCH   9  13
ATOM     13  C   UNL     1      32.265  46.202  40.938  1.00  0.00     0.242 A 
ATOM     14  N   UNL     1      33.381  46.903  41.128  1.00  0.00    -0.176 NA
ATOM     15  N   UNL     1      31.463  45.801  41.925  1.00  0.00    -0.176 NA
ATOM     16  C   UNL     1      33.680  47.214  42.383  1.00  0.00     0.232 A 
ATOM     17  C   UNL     1      31.817  46.153  43.155  1.00  0.00     0.232 A 
ATOM     18  N   UNL     1      32.922  46.843  43.405  1.00  0.00    -0.176 NA
BRANCH  16  19
ATOM     19  N   UNL     1      34.813  47.964  42.642  1.00  0.00    -0.336 N 
ATOM     20  C   UNL     1      36.125  47.358  42.419  1.00  0.00     0.148 C 
ATOM     21  C   UNL     1      34.729  48.980  43.696  1.00  0.00     0.148 C 
ATOM     22  C   UNL     1      37.231  48.423  42.422  1.00  0.00     0.181 C 
ATOM     23  C   UNL     1      35.916  49.950  43.617  1.00  0.00     0.181 C 
ATOM     24  O   UNL     1      37.169  49.252  43.589  1.00  0.00    -0.378 OA
ENDBRANCH  16  19
BRANCH  17  25
ATOM     25  N   UNL     1      31.007  45.800  44.216  1.00  0.00    -0.336 N 
ATOM     26  C   UNL     1      30.920  46.686  45.377  1.00  0.00     0.148 C 
ATOM     27  C   UNL     1      29.831  44.970  43.934  1.00  0.00     0.148 C 
ATOM     28  C   UNL     1      30.303  45.958  46.580  1.00  0.00     0.181 C 
ATOM     29  C   UNL     1      29.280  44.344  45.224  1.00  0.00     0.181 C 
ATOM     30  O   UNL     1      29.058  45.332  46.240  1.00  0.00    -0.378 OA
ENDBRANCH  17  25
ENDBRANCH   9  13
TORSDOF 4
ENDMDL
MODEL 3
REMARK VINA RESULT:    -8.252      2.927      6.221
REMARK INTER + INTRA:         -10.411
REMARK INTER:                  -9.867
REMARK INTRA:                  -0.544
REMARK UNBOUND:                -0.229
REMARK SMILES FC(F)c1nc2ccccc2n1-c1nc(N2CCOCC2)nc(N2CCOCC2)n1
REMARK SMILES IDX 4 1 5 2 6 3 7 4 8 5 9 6 10 7 11 8 12 9 2 10 1 11 3 12 13 13
REMARK SMILES IDX 14 14 30 15 15 16 23 17 22 18 16 19 17 20 21 21 18 22 20 23
REMARK SMILES IDX 19 24 24 25 25 26 29 27 26 28 28 29 27 30
REMARK H PARENT
ROOT
ATOM      1  C   UNL     1      35.840  49.120  43.581  1.00  0.00     0.184 A 
ATOM      2  N   UNL     1      37.105  49.478  43.429  1.00  0.00    -0.227 NA
ATOM      3  C   UNL     1      37.620  48.650  42.479  1.00  0.00     0.090 A 
ATOM      4  C   UNL     1      38.927  48.613  41.969  1.00  0.00     0.030 A 
ATOM      5  C   UNL     1      39.244  47.680  40.979  1.00  0.00     0.002 A 
ATOM      6  C   UNL     1      38.275  46.800  40.505  1.00  0.00     0.002 A 
ATOM      7  C   UNL     1      36.967  46.827  41.004  1.00  0.00     0.029 A 
ATOM      8  C   UNL     1      36.657  47.764  42.005  1.00  0.00     0.076 A 
ATOM      9  N   UNL     1      35.497  48.083  42.714  1.00  0.00    -0.259 N 
ENDROOT
BRANCH   1  10
ATOM     10  C   UNL     1      34.895  49.729  44.559  1.00  0.00     0.408 C 
ATOM     11  F   UNL     1      35.156  51.054  44.752  1.00  0.00    -0.201 F 
ATOM     12  F   UNL     1      35.012  49.158  45.790  1.00  0.00    -0.201 F 
ENDBRANCH   1  10
BRANCH   9  13
ATOM     13  C   UNL     1      34.203  47.478  42.563  1.00  0.00     0.242 A 
ATOM     14  N   UNL     1      33.499  47.209  43.661  1.00  0.00    -0.176 NA
ATOM     15  N   UNL     1      33.791  47.193  41.328  1.00  0.00    -0.176 NA
ATOM     16  C   UNL     1      32.317  46.633  43.482  1.00  0.00     0.232 A 
ATOM     17  C   UNL     1      32.596  46.625  41.219  1.00  0.00     0.232 A 
ATOM     18  N   UNL     1      31.853  46.326  42.278  1.00  0.00    -0.176 NA
BRANCH  16  19
ATOM     19  N   UNL     1      31.527  46.353  44.582  1.00  0.00    -0.336 N 
ATOM     20  C   UNL     1      30.501  45.318  44.466  1.00  0.00     0.148 C 
ATOM     21  C   UNL     1      31.254  47.448  45.518  1.00  0.00     0.148 C 
ATOM     22  C   UNL     1      29.973  44.909  45.849  1.00  0.00     0.181 C 
ATOM     23  C   UNL     1      30.687  46.910  46.840  1.00  0.00     0.181 C 
ATOM     24  O   UNL     1      29.562  46.046  46.620  1.00  0.00    -0.378 OA
ENDBRANCH  16  19
BRANCH  17  25
ATOM     25  N   UNL     1      32.097  46.340  39.964  1.00  0.00    -0.336 N 
ATOM     26  C   UNL     1      31.942  47.422  38.992  1.00  0.00     0.148 C 
ATOM     27  C   UNL     1      32.332  44.998  39.421  1.00  0.00     0.148 C 
ATOM     28  C   UNL     1      31.033  46.995  37.831  1.00  0.00     0.181 C 
ATOM     29  C   UNL     1      31.399  44.715  38.235  1.00  0.00     0.181 C 
ATOM     30  O   UNL     1      31.463  45.755  37.250  1.00  0.00    -0.378 OA
ENDBRANCH  17  25
ENDBRANCH   9  13
TORSDOF 4
ENDMDL
MODEL 4
REMARK VINA RESULT:    -8.221      2.905      6.995
REMARK INTER + INTRA:         -10.372
REMARK INTER:                  -9.840
REMARK INTRA:                  -0.533
REMARK UNBOUND:                -0.229
REMARK SMILES FC(F)c1nc2ccccc2n1-c1nc(N2CCOCC2)nc(N2CCOCC2)n1
REMARK SMILES IDX 4 1 5 2 6 3 7 4 8 5 9 6 10 7 11 8 12 9 2 10 1 11 3 12 13 13
REMARK SMILES IDX 14 14 30 15 15 16 23 17 22 18 16 19 17 20 21 21 18 22 20 23
REMARK SMILES IDX 19 24 24 25 25 26 29 27 26 28 28 29 27 30
REMARK H PARENT
ROOT
ATOM      1  C   UNL     1      35.787  49.135  43.645  1.00  0.00     0.184 A 
ATOM      2  N   UNL     1      37.053  49.504  43.527  1.00  0.00    -0.227 NA
ATOM      3  C   UNL     1      37.601  48.680  42.593  1.00  0.00     0.090 A 
ATOM      4  C   UNL     1      38.921  48.654  42.118  1.00  0.00     0.030 A 
ATOM      5  C   UNL     1      39.274  47.722  41.139  1.00  0.00     0.002 A 
ATOM      6  C   UNL     1      38.325  46.834  40.640  1.00  0.00     0.002 A 
ATOM      7  C   UNL     1      37.004  46.849  41.103  1.00  0.00     0.029 A 
ATOM      8  C   UNL     1      36.659  47.785  42.094  1.00  0.00     0.076 A 
ATOM      9  N   UNL     1      35.478  48.094  42.771  1.00  0.00    -0.259 N 
ENDROOT
BRANCH   1  10
ATOM     10  C   UNL     1      34.810  49.736  44.597  1.00  0.00     0.408 C 
ATOM     11  F   UNL     1      35.014  51.077  44.746  1.00  0.00    -0.201 F 
ATOM     12  F   UNL     1      34.943  49.213  45.847  1.00  0.00    -0.201 F 
ENDBRANCH   1  10
BRANCH   9  13
ATOM     13  C   UNL     1      34.194  47.476  42.585  1.00  0.00     0.242 A 
ATOM     14  N   UNL     1      33.794  47.209  41.343  1.00  0.00    -0.176 NA
ATOM     15  N   UNL     1      33.460  47.231  43.671  1.00  0.00    -0.176 NA
ATOM     16  C   UNL     1      32.595  46.656  41.212  1.00  0.00     0.232 A 
ATOM     17  C   UNL     1      32.274  46.669  43.469  1.00  0.00     0.232 A 
ATOM     18  N   UNL     1      31.820  46.389  42.254  1.00  0.00    -0.176 NA
BRANCH  16  19
ATOM     19  N   UNL     1      32.135  46.330  39.949  1.00  0.00    -0.336 N 
ATOM     20  C   UNL     1      32.157  44.929  39.533  1.00  0.00     0.148 C 
ATOM     21  C   UNL     1      32.287  47.333  38.891  1.00  0.00     0.148 C 
ATOM     22  C   UNL     1      31.306  44.716  38.272  1.00  0.00     0.181 C 
ATOM     23  C   UNL     1      31.424  46.978  37.672  1.00  0.00     0.181 C 
ATOM     24  O   UNL     1      31.660  45.634  37.229  1.00  0.00    -0.378 OA
ENDBRANCH  16  19
BRANCH  17  25
ATOM     25  N   UNL     1      31.483  46.355  44.556  1.00  0.00    -0.336 N 
ATOM     26  C   UNL     1      31.231  47.373  45.577  1.00  0.00     0.148 C 
ATOM     27  C   UNL     1      30.446  45.334  44.377  1.00  0.00     0.148 C 
ATOM     28  C   UNL     1      30.678  46.739  46.861  1.00  0.00     0.181 C 
ATOM     29  C   UNL     1      29.941  44.822  45.733  1.00  0.00     0.181 C 
ATOM     30  O   UNL     1      29.546  45.899  46.594  1.00  0.00    -0.378 OA
ENDBRANCH  17  25
ENDBRANCH   9  13
TORSDOF 4
ENDMDL
MODEL 5
REMARK VINA RESULT:    -8.097      2.500      3.047
REMARK INTER + INTRA:         -10.219
REMARK INTER:                  -9.266
REMARK INTRA:                  -0.953
REMARK UNBOUND:                -0.229
REMARK SMILES FC(F)c1nc2ccccc2n1-c1nc(N2CCOCC2)nc(N2CCOCC2)n1
REMARK SMILES IDX 4 1 5 2 6 3 7 4 8 5 9 6 10 7 11 8 12 9 2 10 1 11 3 12 13 13
REMARK SMILES IDX 14 14 30 15 15 16 23 17 22 18 16 19 17 20 21 21 18 22 20 23
REMARK SMILES IDX 19 24 24 25 25 26 29 27 26 28 28 29 27 30
REMARK H PARENT
ROOT
ATOM      1  C   UNL     1      35.082  46.508  40.303  1.00  0.00     0.184 A 
ATOM      2  N   UNL     1      35.027  46.304  38.997  1.00  0.00    -0.227 NA
ATOM      3  C   UNL     1      33.736  46.537  38.632  1.00  0.00     0.090 A 
ATOM      4  C   UNL     1      33.159  46.443  37.356  1.00  0.00     0.030 A 
ATOM      5  C   UNL     1      31.803  46.739  37.200  1.00  0.00     0.002 A 
ATOM      6  C   UNL     1      31.037  47.124  38.297  1.00  0.00     0.002 A 
ATOM      7  C   UNL     1      31.599  47.222  39.575  1.00  0.00     0.029 A 
ATOM      8  C   UNL     1      32.964  46.916  39.725  1.00  0.00     0.076 A 
ATOM      9  N   UNL     1      33.845  46.909  40.807  1.00  0.00    -0.259 N 
ENDROOT
BRANCH   1  10
ATOM     10  C   UNL     1      36.299  46.322  41.143  1.00  0.00     0.408 C 
ATOM     11  F   UNL     1      36.912  47.511  41.409  1.00  0.00    -0.201 F 
ATOM     12  F   UNL     1      37.237  45.570  40.505  1.00  0.00    -0.201 F 
ENDBRANCH   1  10
BRANCH   9  13
ATOM     13  C   UNL     1      33.543  47.268  42.165  1.00  0.00     0.242 A 
ATOM     14  N   UNL     1      32.600  46.580  42.806  1.00  0.00    -0.176 NA
ATOM     15  N   UNL     1      34.208  48.292  42.700  1.00  0.00    -0.176 NA
ATOM     16  C   UNL     1      32.337  46.953  44.052  1.00  0.00     0.232 A 
ATOM     17  C   UNL     1      33.902  48.607  43.953  1.00  0.00     0.232 A 
ATOM     18  N   UNL     1      32.965  47.964  44.637  1.00  0.00    -0.176 NA
BRANCH  16  19
ATOM     19  N   UNL     1      31.386  46.260  44.779  1.00  0.00    -0.336 N 
ATOM     20  C   UNL     1      30.350  45.522  44.058  1.00  0.00     0.148 C 
ATOM     21  C   UNL     1      31.021  46.788  46.097  1.00  0.00     0.148 C 
ATOM     22  C   UNL     1      29.612  44.553  44.994  1.00  0.00     0.181 C 
ATOM     23  C   UNL     1      30.249  45.740  46.912  1.00  0.00     0.181 C 
ATOM     24  O   UNL     1      29.137  45.212  46.175  1.00  0.00    -0.378 OA
ENDBRANCH  16  19
BRANCH  17  25
ATOM     25  N   UNL     1      34.583  49.634  44.575  1.00  0.00    -0.336 N 
ATOM     26  C   UNL     1      34.699  49.637  46.033  1.00  0.00     0.148 C 
ATOM     27  C   UNL     1      35.661  50.292  43.829  1.00  0.00     0.148 C 
ATOM     28  C   UNL     1      35.132  51.017  46.549  1.00  0.00     0.181 C 
ATOM     29  C   UNL     1      36.036  51.634  44.476  1.00  0.00     0.181 C 
ATOM     30  O   UNL     1      36.308  51.489  45.876  1.00  0.00    -0.378 OA
ENDBRANCH  17  25
ENDBRANCH   9  13
TORSDOF 4
ENDMDL
MODEL 6
REMARK VINA RESULT:    -8.092      2.633      5.862
REMARK INTER + INTRA:         -10.213
REMARK INTER:                 -10.420
REMARK INTRA:                   0.206
REMARK UNBOUND:                -0.229
REMARK SMILES FC(F)c1nc2ccccc2n1-c1nc(N2CCOCC2)nc(N2CCOCC2)n1
REMARK SMILES IDX 4 1 5 2 6 3 7 4 8 5 9 6 10 7 11 8 12 9 2 10 1 11 3 12 13 13
REMARK SMILES IDX 14 14 30 15 15 16 23 17 22 18 16 19 17 20 21 21 18 22 20 23
REMARK SMILES IDX 19 24 24 25 25 26 29 27 26 28 28 29 27 30
REMARK H PARENT
ROOT
ATOM      1  C   UNL     1      30.781  44.380  41.235  1.00  0.00     0.184 A 
ATOM      2  N   UNL     1      29.811  43.930  42.014  1.00  0.00    -0.227 NA
ATOM      3  C   UNL     1      29.954  44.572  43.206  1.00  0.00     0.090 A 
ATOM      4  C   UNL     1      29.181  44.437  44.369  1.00  0.00     0.030 A 
ATOM      5  C   UNL     1      29.499  45.208  45.490  1.00  0.00     0.002 A 
ATOM      6  C   UNL     1      30.566  46.100  45.450  1.00  0.00     0.002 A 
ATOM      7  C   UNL     1      31.345  46.247  44.296  1.00  0.00     0.029 A 
ATOM      8  C   UNL     1      31.024  45.462  43.174  1.00  0.00     0.076 A 
ATOM      9  N   UNL     1      31.550  45.344  41.886  1.00  0.00    -0.259 N 
ENDROOT
BRANCH   1  10
ATOM     10  C   UNL     1      31.041  43.914  39.843  1.00  0.00     0.408 C 
ATOM     11  F   UNL     1      30.660  44.847  38.922  1.00  0.00    -0.201 F 
ATOM     12  F   UNL     1      30.316  42.800  39.546  1.00  0.00    -0.201 F 
ENDBRANCH   1  10
BRANCH   9  13
ATOM     13  C   UNL     1      32.651  46.085  41.336  1.00  0.00     0.242 A 
ATOM     14  N   UNL     1      32.941  45.921  40.046  1.00  0.00    -0.176 NA
ATOM     15  N   UNL     1      33.338  46.877  42.157  1.00  0.00    -0.176 NA
ATOM     16  C   UNL     1      33.975  46.608  39.579  1.00  0.00     0.232 A 
ATOM     17  C   UNL     1      34.356  47.543  41.623  1.00  0.00     0.232 A 
ATOM     18  N   UNL     1      34.698  47.413  40.348  1.00  0.00    -0.176 NA
BRANCH  16  19
ATOM     19  N   UNL     1      34.311  46.501  38.241  1.00  0.00    -0.336 N 
ATOM     20  C   UNL     1      35.709  46.674  37.850  1.00  0.00     0.148 C 
ATOM     21  C   UNL     1      33.299  46.890  37.254  1.00  0.00     0.148 C 
ATOM     22  C   UNL     1      35.943  46.185  36.414  1.00  0.00     0.181 C 
ATOM     23  C   UNL     1      33.676  46.382  35.855  1.00  0.00     0.181 C 
ATOM     24  O   UNL     1      35.010  46.767  35.494  1.00  0.00    -0.378 OA
ENDBRANCH  16  19
BRANCH  17  25
ATOM     25  N   UNL     1      35.084  48.410  42.414  1.00  0.00    -0.336 N 
ATOM     26  C   UNL     1      34.475  48.956  43.626  1.00  0.00     0.148 C 
ATOM     27  C   UNL     1      36.544  48.272  42.417  1.00  0.00     0.148 C 
ATOM     28  C   UNL     1      35.266  50.167  44.143  1.00  0.00     0.181 C 
ATOM     29  C   UNL     1      37.211  49.523  43.004  1.00  0.00     0.181 C 
ATOM     30  O   UNL     1      36.662  49.866  44.284  1.00  0.00    -0.378 OA
ENDBRANCH  17  25
ENDBRANCH   9  13
TORSDOF 4
ENDMDL
MODEL 7
REMARK VINA RESULT:    -8.025      2.326      5.723
REMARK INTER + INTRA:         -10.131
REMARK INTER:                  -9.189
REMARK INTRA:                  -0.942
REMARK UNBOUND:                -0.229
REMARK SMILES FC(F)c1nc2ccccc2n1-c1nc(N2CCOCC2)nc(N2CCOCC2)n1
REMARK SMILES IDX 4 1 5 2 6 3 7 4 8 5 9 6 10 7 11 8 12 9 2 10 1 11 3 12 13 13
REMARK SMILES IDX 14 14 30 15 15 16 23 17 22 18 16 19 17 20 21 21 18 22 20 23
REMARK SMILES IDX 19 24 24 25 25 26 29 27 26 28 28 29 27 30
REMARK H PARENT
ROOT
ATOM      1  C   UNL     1      32.833  46.795  39.660  1.00  0.00     0.184 A 
ATOM      2  N   UNL     1      33.407  46.334  38.561  1.00  0.00    -0.227 NA
ATOM      3  C   UNL     1      34.709  46.099  38.885  1.00  0.00     0.090 A 
ATOM      4  C   UNL     1      35.739  45.616  38.063  1.00  0.00     0.030 A 
ATOM      5  C   UNL     1      37.013  45.437  38.607  1.00  0.00     0.002 A 
ATOM      6  C   UNL     1      37.255  45.732  39.946  1.00  0.00     0.002 A 
ATOM      7  C   UNL     1      36.237  46.213  40.777  1.00  0.00     0.029 A 
ATOM      8  C   UNL     1      34.958  46.397  40.221  1.00  0.00     0.076 A 
ATOM      9  N   UNL     1      33.732  46.836  40.725  1.00  0.00    -0.259 N 
ENDROOT
BRANCH   1  10
ATOM     10  C   UNL     1      31.411  47.231  39.759  1.00  0.00     0.408 C 
ATOM     11  F   UNL     1      30.564  46.167  39.863  1.00  0.00    -0.201 F 
ATOM     12  F   UNL     1      31.014  47.897  38.639  1.00  0.00    -0.201 F 
ENDBRANCH   1  10
BRANCH   9  13
ATOM     13  C   UNL     1      33.449  47.229  42.078  1.00  0.00     0.242 A 
ATOM     14  N   UNL     1      34.140  48.241  42.599  1.00  0.00    -0.176 NA
ATOM     15  N   UNL     1      32.527  46.536  42.746  1.00  0.00    -0.176 NA
ATOM     16  C   UNL     1      33.863  48.562  43.857  1.00  0.00     0.232 A 
ATOM     17  C   UNL     1      32.293  46.915  43.997  1.00  0.00     0.232 A 
ATOM     18  N   UNL     1      32.956  47.910  44.572  1.00  0.00    -0.176 NA
BRANCH  16  19
ATOM     19  N   UNL     1      34.528  49.622  44.446  1.00  0.00    -0.336 N 
ATOM     20  C   UNL     1      35.550  50.328  43.675  1.00  0.00     0.148 C 
ATOM     21  C   UNL     1      34.710  49.586  45.901  1.00  0.00     0.148 C 
ATOM     22  C   UNL     1      35.923  51.660  44.343  1.00  0.00     0.181 C 
ATOM     23  C   UNL     1      35.127  50.964  46.435  1.00  0.00     0.181 C 
ATOM     24  O   UNL     1      36.260  51.485  45.726  1.00  0.00    -0.378 OA
ENDBRANCH  16  19
BRANCH  17  25
ATOM     25  N   UNL     1      31.322  46.262  44.729  1.00  0.00    -0.336 N 
ATOM     26  C   UNL     1      31.024  46.712  46.088  1.00  0.00     0.148 C 
ATOM     27  C   UNL     1      30.226  45.621  43.994  1.00  0.00     0.148 C 
ATOM     28  C   UNL     1      30.226  45.651  46.858  1.00  0.00     0.181 C 
ATOM     29  C   UNL     1      29.476  44.624  44.889  1.00  0.00     0.181 C 
ATOM     30  O   UNL     1      29.068  45.224  46.126  1.00  0.00    -0.378 OA
ENDBRANCH  17  25
ENDBRANCH   9  13
TORSDOF 4
ENDMDL
MODEL 8
REMARK VINA RESULT:    -7.993      2.286      3.491
REMARK INTER + INTRA:         -10.092
REMARK INTER:                  -9.235
REMARK INTRA:                  -0.857
REMARK UNBOUND:                -0.229
REMARK SMILES FC(F)c1nc2ccccc2n1-c1nc(N2CCOCC2)nc(N2CCOCC2)n1
REMARK SMILES IDX 4 1 5 2 6 3 7 4 8 5 9 6 10 7 11 8 12 9 2 10 1 11 3 12 13 13
REMARK SMILES IDX 14 14 30 15 15 16 23 17 22 18 16 19 17 20 21 21 18 22 20 23
REMARK SMILES IDX 19 24 24 25 25 26 29 27 26 28 28 29 27 30
REMARK H PARENT
ROOT
ATOM      1  C   UNL     1      32.943  46.698  39.687  1.00  0.00     0.184 A 
ATOM      2  N   UNL     1      33.534  46.244  38.594  1.00  0.00    -0.227 NA
ATOM      3  C   UNL     1      34.847  46.079  38.915  1.00  0.00     0.090 A 
ATOM      4  C   UNL     1      35.895  45.630  38.097  1.00  0.00     0.030 A 
ATOM      5  C   UNL     1      37.179  45.524  38.637  1.00  0.00     0.002 A 
ATOM      6  C   UNL     1      37.413  45.856  39.968  1.00  0.00     0.002 A 
ATOM      7  C   UNL     1      36.376  46.304  40.795  1.00  0.00     0.029 A 
ATOM      8  C   UNL     1      35.087  46.415  40.243  1.00  0.00     0.076 A 
ATOM      9  N   UNL     1      33.844  46.804  40.745  1.00  0.00    -0.259 N 
ENDROOT
BRANCH   1  10
ATOM     10  C   UNL     1      31.502  47.068  39.785  1.00  0.00     0.408 C 
ATOM     11  F   UNL     1      30.691  45.998  39.543  1.00  0.00    -0.201 F 
ATOM     12  F   UNL     1      31.160  47.996  38.849  1.00  0.00    -0.201 F 
ENDBRANCH   1  10
BRANCH   9  13
ATOM     13  C   UNL     1      33.549  47.211  42.092  1.00  0.00     0.242 A 
ATOM     14  N   UNL     1      32.598  46.555  42.755  1.00  0.00    -0.176 NA
ATOM     15  N   UNL     1      34.228  48.242  42.592  1.00  0.00    -0.176 NA
ATOM     16  C   UNL     1      32.342  46.972  43.989  1.00  0.00     0.232 A 
ATOM     17  C   UNL     1      33.928  48.602  43.834  1.00  0.00     0.232 A 
ATOM     18  N   UNL     1      32.984  47.993  44.541  1.00  0.00    -0.176 NA
BRANCH  16  19
ATOM     19  N   UNL     1      31.383  46.315  44.739  1.00  0.00    -0.336 N 
ATOM     20  C   UNL     1      30.320  45.592  44.044  1.00  0.00     0.148 C 
ATOM     21  C   UNL     1      31.049  46.873  46.053  1.00  0.00     0.148 C 
ATOM     22  C   UNL     1      29.571  44.657  45.005  1.00  0.00     0.181 C 
ATOM     23  C   UNL     1      30.262  45.858  46.895  1.00  0.00     0.181 C 
ATOM     24  O   UNL     1      29.128  45.346  46.181  1.00  0.00    -0.378 OA
ENDBRANCH  16  19
BRANCH  17  25
ATOM     25  N   UNL     1      34.623  49.640  44.422  1.00  0.00    -0.336 N 
ATOM     26  C   UNL     1      34.755  49.680  45.878  1.00  0.00     0.148 C 
ATOM     27  C   UNL     1      35.697  50.271  43.648  1.00  0.00     0.148 C 
ATOM     28  C   UNL     1      35.203  51.070  46.353  1.00  0.00     0.181 C 
ATOM     29  C   UNL     1      36.088  51.626  44.255  1.00  0.00     0.181 C 
ATOM     30  O   UNL     1      36.375  51.516  45.656  1.00  0.00    -0.378 OA
ENDBRANCH  17  25
ENDBRANCH   9  13
TORSDOF 4
ENDMDL
MODEL 9
REMARK VINA RESULT:    -7.924      2.336      6.959
REMARK INTER + INTRA:         -10.006
REMARK INTER:                  -9.251
REMARK INTRA:                  -0.755
REMARK UNBOUND:                -0.229
REMARK SMILES FC(F)c1nc2ccccc2n1-c1nc(N2CCOCC2)nc(N2CCOCC2)n1
REMARK SMILES IDX 4 1 5 2 6 3 7 4 8 5 9 6 10 7 11 8 12 9 2 10 1 11 3 12 13 13
REMARK SMILES IDX 14 14 30 15 15 16 23 17 22 18 16 19 17 20 21 21 18 22 20 23
REMARK SMILES IDX 19 24 24 25 25 26 29 27 26 28 28 29 27 30
REMARK H PARENT
ROOT
ATOM      1  C   UNL     1      36.579  47.745  41.797  1.00  0.00     0.184 A 
ATOM      2  N   UNL     1      37.560  48.594  42.062  1.00  0.00    -0.227 NA
ATOM      3  C   UNL     1      36.990  49.633  42.732  1.00  0.00     0.090 A 
ATOM      4  C   UNL     1      37.602  50.796  43.223  1.00  0.00     0.030 A 
ATOM      5  C   UNL     1      36.824  51.740  43.898  1.00  0.00     0.002 A 
ATOM      6  C   UNL     1      35.461  51.527  44.081  1.00  0.00     0.002 A 
ATOM      7  C   UNL     1      34.837  50.371  43.597  1.00  0.00     0.029 A 
ATOM      8  C   UNL     1      35.625  49.428  42.913  1.00  0.00     0.076 A 
ATOM      9  N   UNL     1      35.365  48.193  42.316  1.00  0.00    -0.259 N 
ENDROOT
BRANCH   1  10
ATOM     10  C   UNL     1      36.736  46.476  41.031  1.00  0.00     0.408 C 
ATOM     11  F   UNL     1      38.035  46.062  41.004  1.00  0.00    -0.201 F 
ATOM     12  F   UNL     1      36.382  46.634  39.726  1.00  0.00    -0.201 F 
ENDBRANCH   1  10
BRANCH   9  13
ATOM     13  C   UNL     1      34.102  47.510  42.267  1.00  0.00     0.242 A 
ATOM     14  N   UNL     1      33.639  47.122  41.080  1.00  0.00    -0.176 NA
ATOM     15  N   UNL     1      33.450  47.327  43.415  1.00  0.00    -0.176 NA
ATOM     16  C   UNL     1      32.461  46.511  41.074  1.00  0.00     0.232 A 
ATOM     17  C   UNL     1      32.281  46.702  43.339  1.00  0.00     0.232 A 
ATOM     18  N   UNL     1      31.765  46.301  42.184  1.00  0.00    -0.176 NA
BRANCH  16  19
ATOM     19  N   UNL     1      31.938  46.061  39.876  1.00  0.00    -0.336 N 
ATOM     20  C   UNL     1      31.983  44.629  39.582  1.00  0.00     0.148 C 
ATOM     21  C   UNL     1      31.994  46.970  38.726  1.00  0.00     0.148 C 
ATOM     22  C   UNL     1      31.067  44.281  38.400  1.00  0.00     0.181 C 
ATOM     23  C   UNL     1      31.072  46.483  37.599  1.00  0.00     0.181 C 
ATOM     24  O   UNL     1      31.328  45.112  37.261  1.00  0.00    -0.378 OA
ENDBRANCH  16  19
BRANCH  17  25
ATOM     25  N   UNL     1      31.576  46.448  44.498  1.00  0.00    -0.336 N 
ATOM     26  C   UNL     1      31.277  47.552  45.411  1.00  0.00     0.148 C 
ATOM     27  C   UNL     1      30.633  45.325  44.495  1.00  0.00     0.148 C 
ATOM     28  C   UNL     1      30.847  47.027  46.788  1.00  0.00     0.181 C 
ATOM     29  C   UNL     1      30.243  44.932  45.927  1.00  0.00     0.181 C 
ATOM     30  O   UNL     1      29.789  46.064  46.682  1.00  0.00    -0.378 OA
ENDBRANCH  17  25
ENDBRANCH   9  13
TORSDOF 4
ENDMDL
