MODEL 2
REMARK VINA RESULT:   -10.065      1.578      1.888
REMARK INTER + INTRA:         -15.718
REMARK INTER:                 -14.943
REMARK INTRA:                  -0.775
REMARK UNBOUND:                -1.534
REMARK SMILES Cc1cnc(Nc2cccc(S(C)(=O)=O)c2F)nc1-c1c[nH]c2c(NC(=O)[C@H](C)N3C[C@H](C)N[C@@H](C)C3)cccc12
REMARK SMILES IDX 20 1 21 2 22 3 23 4 24 5 38 6 39 7 40 8 41 9 19 11 2 12 3 13
REMARK SMILES IDX 4 14 18 15 5 16 1 17 6 18 7 20 8 21 16 22 9 23 11 24 10 25
REMARK SMILES IDX 17 26 12 27 14 28 15 29 13 30 25 31 26 32 27 33 28 35 29 36
REMARK SMILES IDX 30 37 31 38 37 39 32 40 35 41 34 42 33 43 36 44
REMARK H PARENT 22 10 6 19 25 34 34 45
ROOT
ATOM      1  C   UNL     1     -13.284  15.649  20.480  1.00  0.00     0.026 A 
ATOM      2  C   UNL     1     -13.539  16.253  21.694  1.00  0.00     0.094 A 
ATOM      3  N   UNL     1     -14.763  16.854  21.609  1.00  0.00    -0.359 N 
ATOM      4  C   UNL     1     -15.320  16.689  20.360  1.00  0.00     0.070 A 
ATOM      5  C   UNL     1     -16.533  17.149  19.819  1.00  0.00     0.065 A 
ATOM      6  C   UNL     1     -16.800  16.786  18.486  1.00  0.00     0.028 A 
ATOM      7  C   UNL     1     -15.911  16.019  17.734  1.00  0.00     0.003 A 
ATOM      8  C   UNL     1     -14.710  15.586  18.293  1.00  0.00     0.011 A 
ATOM      9  C   UNL     1     -14.404  15.922  19.629  1.00  0.00     0.011 A 
ATOM     10  H   UNL     1     -15.216  17.385  22.350  1.00  0.00     0.166 HD
ENDROOT
BRANCH   1  11
ATOM     11  C   UNL     1     -12.030  14.980  20.169  1.00  0.00     0.081 A 
ATOM     12  C   UNL     1     -11.948  13.638  19.847  1.00  0.00    -0.006 A 
ATOM     13  C   UNL     1     -10.658  13.173  19.701  1.00  0.00     0.120 A 
ATOM     14  N   UNL     1      -9.555  13.936  19.837  1.00  0.00    -0.221 NA
ATOM     15  N   UNL     1     -10.948  15.784  20.268  1.00  0.00    -0.212 NA
ATOM     16  C   UNL     1      -9.740  15.234  20.110  1.00  0.00     0.227 A 
ATOM     17  C   UNL     1     -13.105  12.705  19.715  1.00  0.00     0.048 C 
BRANCH  16  18
ATOM     18  N   UNL     1      -8.580  15.978  20.289  1.00  0.00    -0.322 N 
ATOM     19  H   UNL     1      -8.791  16.862  20.735  1.00  0.00     0.170 HD
BRANCH  18  20
ATOM     20  C   UNL     1      -7.236  15.738  19.981  1.00  0.00     0.078 A 
ATOM     21  C   UNL     1      -6.499  14.669  20.513  1.00  0.00     0.029 A 
ATOM     22  C   UNL     1      -6.597  16.572  19.049  1.00  0.00     0.165 A 
ATOM     23  C   UNL     1      -5.164  14.459  20.155  1.00  0.00     0.004 A 
ATOM     24  C   UNL     1      -5.272  16.358  18.682  1.00  0.00     0.104 A 
ATOM     25  C   UNL     1      -4.541  15.310  19.244  1.00  0.00     0.023 A 
ATOM     26  F   UNL     1      -7.303  17.569  18.489  1.00  0.00    -0.203 F 
BRANCH  24  27
ATOM     27  S   UNL     1      -4.536  17.426  17.493  1.00  0.00     0.178 S 
ATOM     28  O   UNL     1      -5.596  17.978  16.669  1.00  0.00    -0.224 OA
ATOM     29  O   UNL     1      -3.633  18.313  18.207  1.00  0.00    -0.224 OA
ATOM     30  C   UNL     1      -3.542  16.345  16.496  1.00  0.00     0.164 C 
ENDBRANCH  24  27
ENDBRANCH  18  20
ENDBRANCH  16  18
ENDBRANCH   1  11
BRANCH   5  31
ATOM     31  N   UNL     1     -17.513  17.932  20.467  1.00  0.00    -0.323 N 
ATOM     32  C   UNL     1     -18.355  17.585  21.512  1.00  0.00     0.241 C 
ATOM     33  O   UNL     1     -18.386  16.493  22.074  1.00  0.00    -0.273 OA
ATOM     34  H   UNL     1     -17.619  18.870  20.102  1.00  0.00     0.170 HD
BRANCH  32  35
ATOM     35  C   UNL     1     -19.335  18.734  21.889  1.00  0.00     0.143 C 
ATOM     36  C   UNL     1     -20.323  18.171  22.919  1.00  0.00     0.035 C 
BRANCH  35  37
ATOM     37  N   UNL     1     -20.029  19.246  20.678  1.00  0.00    -0.289 NA
ATOM     38  C   UNL     1     -21.497  19.043  20.738  1.00  0.00     0.104 C 
ATOM     39  C   UNL     1     -19.732  20.649  20.350  1.00  0.00     0.104 C 
ATOM     40  C   UNL     1     -22.326  20.031  19.863  1.00  0.00     0.064 C 
ATOM     41  C   UNL     1     -20.323  21.041  18.963  1.00  0.00     0.064 C 
ATOM     42  N   UNL     1     -21.619  20.413  18.627  1.00  0.00    -0.309 NA
ATOM     43  C   UNL     1     -23.685  19.433  19.506  1.00  0.00     0.026 C 
ATOM     44  C   UNL     1     -20.433  22.560  18.831  1.00  0.00     0.026 C 
ATOM     45  H   UNL     1     -21.399  19.543  18.138  1.00  0.00     0.123 HD
ENDBRANCH  35  37
ENDBRANCH  32  35
ENDBRANCH   5  31
TORSDOF 7
ENDMDL
