REMARK VINA RESULT:    -6.553      7.175      8.793
REMARK INTER + INTRA:         -15.800
REMARK INTER:                 -14.058
REMARK INTRA:                  -1.742
REMARK UNBOUND:                -1.395
REMARK SMILES CCCCCCCCCCCCCCCCCCCCCC(=O)O
REMARK SMILES IDX 12 1 11 2 10 3 9 4 8 5 7 6 6 7 5 8 4 9 3 10 2 11 1 12 13 13
REMARK SMILES IDX 14 14 15 15 16 16 17 17 18 18 19 19 20 20 21 21 22 22 23 23
REMARK SMILES IDX 24 24
REMARK H PARENT 24 25
ROOT
ATOM      1  C   UNL     1       9.939   4.087  -9.442  1.00  0.00     0.000 C 
ENDROOT
BRANCH   1   2
ATOM      2  C   UNL     1      10.301   4.336 -10.910  1.00  0.00     0.000 C 
BRANCH   2   3
ATOM      3  C   UNL     1      11.042   5.656 -11.137  1.00  0.00     0.000 C 
BRANCH   3   4
ATOM      4  C   UNL     1      10.281   6.626 -12.049  1.00  0.00    -0.000 C 
BRANCH   4   5
ATOM      5  C   UNL     1      11.100   7.087 -13.257  1.00  0.00    -0.000 C 
BRANCH   5   6
ATOM      6  C   UNL     1      12.399   7.802 -12.874  1.00  0.00    -0.000 C 
BRANCH   6   7
ATOM      7  C   UNL     1      12.653   9.148 -13.563  1.00  0.00    -0.000 C 
BRANCH   7   8
ATOM      8  C   UNL     1      11.458   9.651 -14.377  1.00  0.00    -0.000 C 
BRANCH   8   9
ATOM      9  C   UNL     1      10.985  11.047 -13.957  1.00  0.00    -0.000 C 
BRANCH   9  10
ATOM     10  C   UNL     1       9.904  11.021 -12.874  1.00  0.00    -0.000 C 
BRANCH  10  11
ATOM     11  C   UNL     1      10.498  11.287 -11.491  1.00  0.00    -0.003 C 
ATOM     12  C   UNL     1      10.464  10.042 -10.619  1.00  0.00     0.004 C 
ENDBRANCH  10  11
ENDBRANCH   9  10
ENDBRANCH   8   9
ENDBRANCH   7   8
ENDBRANCH   6   7
ENDBRANCH   5   6
ENDBRANCH   4   5
ENDBRANCH   3   4
ENDBRANCH   2   3
ENDBRANCH   1   2
BRANCH   1  13
ATOM     13  C   UNL     1      10.170   5.306  -8.545  1.00  0.00     0.000 C 
BRANCH  13  14
ATOM     14  C   UNL     1       9.782   5.066  -7.083  1.00  0.00     0.000 C 
BRANCH  14  15
ATOM     15  C   UNL     1       8.270   5.000  -6.854  1.00  0.00     0.000 C 
BRANCH  15  16
ATOM     16  C   UNL     1       7.932   4.112  -5.653  1.00  0.00     0.000 C 
BRANCH  16  17
ATOM     17  C   UNL     1       9.199   3.570  -4.984  1.00  0.00     0.000 C 
BRANCH  17  18
ATOM     18  C   UNL     1       9.180   2.042  -4.924  1.00  0.00     0.000 C 
BRANCH  18  19
ATOM     19  C   UNL     1       9.913   1.471  -3.707  1.00  0.00     0.001 C 
BRANCH  19  20
ATOM     20  C   UNL     1      11.319   0.961  -4.028  1.00  0.00     0.012 C 
BRANCH  20  21
ATOM     21  C   UNL     1      12.163   0.835  -2.761  1.00  0.00     0.122 C 
BRANCH  21  22
ATOM     22  C   UNL     1      13.531   1.438  -2.942  1.00  0.00     0.303 C 
ATOM     23  O   UNL     1      14.563   0.866  -3.241  1.00  0.00    -0.252 OA
BRANCH  22  24
ATOM     24  O   UNL     1      13.523   2.769  -2.725  1.00  0.00    -0.481 OA
ATOM     25  H   UNL     1      13.671   3.154  -3.614  1.00  0.00     0.296 HD
ENDBRANCH  22  24
ENDBRANCH  21  22
ENDBRANCH  20  21
ENDBRANCH  19  20
ENDBRANCH  18  19
ENDBRANCH  17  18
ENDBRANCH  16  17
ENDBRANCH  15  16
ENDBRANCH  14  15
ENDBRANCH  13  14
ENDBRANCH   1  13
TORSDOF 21
