REMARK VINA RESULT:   -10.373      2.967     10.284
REMARK INTER + INTRA:         -14.188
REMARK INTER:                 -12.868
REMARK INTRA:                  -1.320
REMARK UNBOUND:                -0.177
REMARK SMILES Cc1cc(Nc2cc3ncccc3c(N[C@@H]3C[C@H]4CC[C@@H](C3)N4Cc3cccnc3)n2)n[nH]1
REMARK SMILES IDX 6 1 7 2 8 3 9 4 10 5 11 6 12 7 13 8 14 9 31 10 5 11 4 13
REMARK SMILES IDX 2 14 3 15 33 16 32 17 1 18 15 20 16 22 17 23 22 24 18 25
REMARK SMILES IDX 21 26 19 27 23 28 20 29 24 30 25 31 26 32 30 33 27 34 29 35
REMARK SMILES IDX 28 36
REMARK H PARENT 5 12 33 19 15 21
ROOT
ATOM      1  C   UNL     1       0.079  20.703 -24.404  1.00  0.00     0.136 A 
ATOM      2  C   UNL     1       0.950  21.733 -24.112  1.00  0.00     0.076 A 
ATOM      3  C   UNL     1       0.636  23.032 -24.453  1.00  0.00     0.078 A 
ATOM      4  N   UNL     1       1.510  24.005 -24.127  1.00  0.00    -0.256 NA
ATOM      5  C   UNL     1       1.196  25.281 -24.439  1.00  0.00     0.112 A 
ATOM      6  C   UNL     1       0.030  25.649 -25.075  1.00  0.00     0.021 A 
ATOM      7  C   UNL     1      -0.864  24.641 -25.417  1.00  0.00     0.016 A 
ATOM      8  C   UNL     1      -0.571  23.291 -25.118  1.00  0.00     0.043 A 
ATOM      9  C   UNL     1      -1.397  22.192 -25.433  1.00  0.00     0.138 A 
ATOM     10  N   UNL     1      -1.073  20.935 -25.062  1.00  0.00    -0.213 NA
ENDROOT
BRANCH   1  11
ATOM     11  N   UNL     1       0.302  19.366 -24.086  1.00  0.00    -0.323 N 
ATOM     12  H   UNL     1      -0.576  18.964 -23.775  1.00  0.00     0.170 HD
BRANCH  11  13
ATOM     13  C   UNL     1       1.357  18.534 -24.065  1.00  0.00     0.153 A 
ATOM     14  C   UNL     1       3.037  17.215 -23.430  1.00  0.00     0.034 A 
ATOM     15  C   UNL     1       2.059  18.052 -22.936  1.00  0.00     0.071 A 
ATOM     16  N   UNL     1       2.865  17.231 -24.784  1.00  0.00    -0.281 N 
ATOM     17  N   UNL     1       1.842  17.994 -25.188  1.00  0.00    -0.158 NA
ATOM     18  C   UNL     1       4.087  16.416 -22.767  1.00  0.00     0.066 C 
ATOM     19  H   UNL     1       3.403  16.737 -25.490  1.00  0.00     0.190 HD
ENDBRANCH  11  13
ENDBRANCH   1  11
BRANCH   9  20
ATOM     20  N   UNL     1      -2.602  22.387 -26.100  1.00  0.00    -0.367 N 
ATOM     21  H   UNL     1      -3.118  23.217 -25.841  1.00  0.00     0.162 HD
BRANCH  20  22
ATOM     22  C   UNL     1      -2.771  21.934 -27.478  1.00  0.00     0.083 C 
ATOM     23  C   UNL     1      -1.909  22.771 -28.442  1.00  0.00     0.044 C 
ATOM     24  C   UNL     1      -4.265  22.011 -27.848  1.00  0.00     0.044 C 
ATOM     25  C   UNL     1      -2.367  22.633 -29.905  1.00  0.00     0.059 C 
ATOM     26  C   UNL     1      -4.495  21.940 -29.369  1.00  0.00     0.059 C 
ATOM     27  C   UNL     1      -2.422  21.171 -30.358  1.00  0.00     0.021 C 
ATOM     28  N   UNL     1      -3.770  23.089 -29.948  1.00  0.00    -0.293 NA
ATOM     29  C   UNL     1      -3.835  20.709 -29.998  1.00  0.00     0.021 C 
BRANCH  28  30
ATOM     30  C   UNL     1      -4.208  23.438 -31.309  1.00  0.00     0.122 C 
BRANCH  30  31
ATOM     31  C   UNL     1      -4.586  24.892 -31.442  1.00  0.00    -0.016 A 
ATOM     32  C   UNL     1      -5.438  25.341 -32.456  1.00  0.00     0.008 A 
ATOM     33  C   UNL     1      -4.120  25.841 -30.537  1.00  0.00     0.116 A 
ATOM     34  C   UNL     1      -5.773  26.690 -32.534  1.00  0.00     0.020 A 
ATOM     35  N   UNL     1      -4.429  27.157 -30.585  1.00  0.00    -0.264 NA
ATOM     36  C   UNL     1      -5.248  27.551 -31.585  1.00  0.00     0.111 A 
ENDBRANCH  30  31
ENDBRANCH  28  30
ENDBRANCH  20  22
ENDBRANCH   9  20
TORSDOF 6
