MODEL 3
REMARK VINA RESULT:    -9.350      1.839      3.061
REMARK INTER + INTRA:         -17.414
REMARK INTER:                 -14.971
REMARK INTRA:                  -2.443
REMARK UNBOUND:                -2.050
REMARK SMILES CC1=C(C2=C(C)C(=O)c3c(cc(O)c(O)c3CCCc3ccccc3)C2=O)C(=O)c2cc(O)c(O)c(CCCc3ccccc3)c2C1=O
REMARK SMILES IDX 1 1 2 2 3 3 28 4 29 5 30 6 31 7 32 8 34 9 36 10 46 11 47 12
REMARK SMILES IDX 48 13 4 14 5 15 26 16 7 17 10 18 27 19 8 20 9 21 11 22 16 23
REMARK SMILES IDX 12 24 14 25 6 26 17 27 18 28 19 29 20 30 21 31 25 32 22 33
REMARK SMILES IDX 24 34 23 35 13 36 15 38 37 40 38 41 39 42 40 43 41 44 45 45
REMARK SMILES IDX 42 46 44 47 43 48 35 49 33 51
REMARK H PARENT 13 37 15 39 35 50 33 52
ROOT
ATOM      1  C   UNL     1      41.570  15.550 -47.858  1.00  0.00     0.049 C 
ATOM      2  C   UNL     1      42.118  14.169 -47.609  1.00  0.00     0.009 C 
ATOM      3  C   UNL     1      41.414  13.028 -47.711  1.00  0.00     0.041 C 
ATOM      4  C   UNL     1      42.063  11.714 -47.460  1.00  0.00     0.195 C 
ATOM      5  O   UNL     1      41.477  10.666 -47.719  1.00  0.00    -0.289 OA
ATOM      6  C   UNL     1      43.428  11.697 -46.907  1.00  0.00     0.038 A 
ATOM      7  C   UNL     1      43.963  10.458 -46.545  1.00  0.00     0.063 A 
ATOM      8  C   UNL     1      45.245  10.402 -46.033  1.00  0.00     0.158 A 
ATOM      9  C   UNL     1      46.001  11.558 -45.852  1.00  0.00     0.161 A 
ATOM     10  C   UNL     1      45.477  12.826 -46.167  1.00  0.00     0.010 A 
ATOM     11  C   UNL     1      44.172  12.878 -46.745  1.00  0.00     0.040 A 
ATOM     12  C   UNL     1      43.561  14.149 -47.229  1.00  0.00     0.190 C 
ATOM     13  O   UNL     1      44.215  15.179 -47.343  1.00  0.00    -0.289 OA
ENDROOT
BRANCH   3  14
ATOM     14  C   UNL     1      39.991  12.992 -48.050  1.00  0.00     0.041 C 
ATOM     15  C   UNL     1      39.007  13.025 -47.135  1.00  0.00     0.009 C 
ATOM     16  C   UNL     1      39.674  12.945 -49.500  1.00  0.00     0.195 C 
ATOM     17  C   UNL     1      37.571  13.024 -47.545  1.00  0.00     0.190 C 
ATOM     18  C   UNL     1      38.264  12.818 -49.915  1.00  0.00     0.038 A 
ATOM     19  O   UNL     1      40.566  12.972 -50.342  1.00  0.00    -0.289 OA
ATOM     20  O   UNL     1      36.717  13.183 -46.682  1.00  0.00    -0.289 OA
ATOM     21  C   UNL     1      37.215  12.831 -48.980  1.00  0.00     0.040 A 
ATOM     22  C   UNL     1      38.021  12.657 -51.291  1.00  0.00     0.063 A 
ATOM     23  C   UNL     1      35.878  12.668 -49.435  1.00  0.00     0.010 A 
ATOM     24  C   UNL     1      36.723  12.498 -51.730  1.00  0.00     0.158 A 
ATOM     25  C   UNL     1      35.672  12.501 -50.819  1.00  0.00     0.161 A 
ATOM     26  C   UNL     1      39.221  13.101 -45.644  1.00  0.00     0.049 C 
BRANCH  23  27
ATOM     27  C   UNL     1      34.647  12.660 -48.545  1.00  0.00     0.041 C 
BRANCH  27  28
ATOM     28  C   UNL     1      34.057  11.261 -48.306  1.00  0.00     0.010 C 
BRANCH  28  29
ATOM     29  C   UNL     1      34.939  10.354 -47.449  1.00  0.00     0.036 C 
BRANCH  29  30
ATOM     30  C   UNL     1      34.184   9.831 -46.248  1.00  0.00    -0.048 A 
ATOM     31  C   UNL     1      33.828   8.479 -46.167  1.00  0.00     0.004 A 
ATOM     32  C   UNL     1      33.810  10.698 -45.213  1.00  0.00     0.004 A 
ATOM     33  C   UNL     1      33.119   7.999 -45.064  1.00  0.00     0.000 A 
ATOM     34  C   UNL     1      33.099  10.217 -44.113  1.00  0.00     0.000 A 
ATOM     35  C   UNL     1      32.757   8.869 -44.037  1.00  0.00     0.000 A 
ENDBRANCH  29  30
ENDBRANCH  28  29
ENDBRANCH  27  28
ENDBRANCH  23  27
BRANCH  24  36
ATOM     36  O   UNL     1      36.422  12.328 -53.052  1.00  0.00    -0.504 OA
ATOM     37  H   UNL     1      35.636  11.760 -53.121  1.00  0.00     0.293 HD
ENDBRANCH  24  36
BRANCH  25  38
ATOM     38  O   UNL     1      34.404  12.326 -51.312  1.00  0.00    -0.504 OA
ATOM     39  H   UNL     1      34.294  11.358 -51.406  1.00  0.00     0.293 HD
ENDBRANCH  25  38
ENDBRANCH   3  14
BRANCH  10  40
ATOM     40  C   UNL     1      46.291  14.073 -45.881  1.00  0.00     0.041 C 
BRANCH  40  41
ATOM     41  C   UNL     1      46.482  14.316 -44.383  1.00  0.00     0.010 C 
BRANCH  41  42
ATOM     42  C   UNL     1      45.893  15.666 -43.972  1.00  0.00     0.036 C 
BRANCH  42  43
ATOM     43  C   UNL     1      45.048  15.553 -42.729  1.00  0.00    -0.048 A 
ATOM     44  C   UNL     1      44.092  14.534 -42.616  1.00  0.00     0.004 A 
ATOM     45  C   UNL     1      45.188  16.471 -41.679  1.00  0.00     0.004 A 
ATOM     46  C   UNL     1      43.305  14.423 -41.470  1.00  0.00     0.000 A 
ATOM     47  C   UNL     1      44.397  16.358 -40.533  1.00  0.00     0.000 A 
ATOM     48  C   UNL     1      43.458  15.333 -40.426  1.00  0.00     0.000 A 
ENDBRANCH  42  43
ENDBRANCH  41  42
ENDBRANCH  40  41
ENDBRANCH  10  40
BRANCH   9  49
ATOM     49  O   UNL     1      47.262  11.343 -45.354  1.00  0.00    -0.504 OA
ATOM     50  H   UNL     1      47.252  11.357 -44.386  1.00  0.00     0.293 HD
ENDBRANCH   9  49
BRANCH   8  51
ATOM     51  O   UNL     1      45.766   9.189 -45.688  1.00  0.00    -0.504 OA
ATOM     52  H   UNL     1      46.698   9.371 -45.449  1.00  0.00     0.293 HD
ENDBRANCH   8  51
TORSDOF 13
ENDMDL
