MODEL 1
REMARK VINA RESULT:   -10.038      0.000      0.000
REMARK INTER + INTRA:         -14.704
REMARK INTER:                 -14.146
REMARK INTRA:                  -0.558
REMARK UNBOUND:                -0.558
REMARK SMILES CCOC(=O)C1(c2ccc3c(c2)nc(Cc2ccc(C(=N)N)cc2)c(=O)n3C)CC1
REMARK SMILES IDX 7 1 8 2 9 3 10 4 11 5 12 6 13 7 14 8 25 9 26 10 27 11 28 12
REMARK SMILES IDX 6 13 29 14 30 15 4 16 5 17 3 18 2 19 1 20 15 21 16 22 17 23
REMARK SMILES IDX 24 24 18 25 23 26 19 27 20 28 21 29 22 30
REMARK H PARENT 21 31 22 32 22 33
ROOT
ATOM      1  C   UNL     1      -4.991   9.747  20.448  1.00  0.00    -0.028 A 
ATOM      2  C   UNL     1      -4.018  10.218  19.555  1.00  0.00     0.007 A 
ATOM      3  C   UNL     1      -2.861  10.864  20.006  1.00  0.00     0.029 A 
ATOM      4  C   UNL     1      -2.636  11.048  21.375  1.00  0.00     0.069 A 
ATOM      5  C   UNL     1      -3.590  10.571  22.289  1.00  0.00     0.088 A 
ATOM      6  C   UNL     1      -4.744   9.933  21.818  1.00  0.00     0.035 A 
ATOM      7  N   UNL     1      -3.440  10.682  23.679  1.00  0.00    -0.245 NA
ATOM      8  C   UNL     1      -2.378  11.277  24.136  1.00  0.00     0.111 A 
ATOM      9  C   UNL     1      -1.302  11.879  23.242  1.00  0.00     0.272 A 
ATOM     10  O   UNL     1      -0.375  12.486  23.764  1.00  0.00    -0.267 OA
ATOM     11  N   UNL     1      -1.477  11.706  21.872  1.00  0.00    -0.308 N 
ATOM     12  C   UNL     1      -0.475  12.233  20.964  1.00  0.00     0.154 C 
ENDROOT
BRANCH   1  13
ATOM     13  C   UNL     1      -6.247   9.032  19.958  1.00  0.00     0.093 C 
ATOM     14  C   UNL     1      -7.243   8.534  21.006  1.00  0.00     0.025 C 
ATOM     15  C   UNL     1      -7.593   9.726  20.173  1.00  0.00     0.025 C 
BRANCH  13  16
ATOM     16  C   UNL     1      -6.080   8.233  18.696  1.00  0.00     0.316 C 
ATOM     17  O   UNL     1      -6.567   8.593  17.632  1.00  0.00    -0.251 OA
BRANCH  16  18
ATOM     18  O   UNL     1      -5.334   7.116  18.904  1.00  0.00    -0.465 OA
BRANCH  18  19
ATOM     19  C   UNL     1      -5.539   6.083  17.934  1.00  0.00     0.229 C 
ATOM     20  C   UNL     1      -6.638   5.171  18.445  1.00  0.00     0.049 C 
ENDBRANCH  18  19
ENDBRANCH  16  18
ENDBRANCH  13  16
ENDBRANCH   1  13
BRANCH   8  21
ATOM     21  C   UNL     1      -2.156  11.372  25.627  1.00  0.00     0.097 C 
BRANCH  21  22
ATOM     22  C   UNL     1      -1.783  10.040  26.235  1.00  0.00    -0.042 A 
ATOM     23  C   UNL     1      -0.668   9.333  25.762  1.00  0.00     0.005 A 
ATOM     24  C   UNL     1      -2.536   9.505  27.290  1.00  0.00     0.005 A 
ATOM     25  C   UNL     1      -0.317   8.105  26.327  1.00  0.00     0.012 A 
ATOM     26  C   UNL     1      -2.187   8.276  27.855  1.00  0.00     0.012 A 
ATOM     27  C   UNL     1      -1.079   7.574  27.371  1.00  0.00     0.016 A 
BRANCH  27  28
ATOM     28  C   UNL     1      -0.712   6.265  27.973  1.00  0.00     0.122 C 
ATOM     29  N   UNL     1      -0.346   5.251  27.254  1.00  0.00    -0.284 NA
ATOM     30  N   UNL     1      -0.749   6.095  29.317  1.00  0.00    -0.384 N 
ATOM     31  H   UNL     1      -0.386   5.473  26.255  1.00  0.00     0.189 HD
ATOM     32  H   UNL     1      -0.911   6.847  29.969  1.00  0.00     0.158 HD
ATOM     33  H   UNL     1      -0.488   5.184  29.674  1.00  0.00     0.158 HD
ENDBRANCH  27  28
ENDBRANCH  21  22
ENDBRANCH   8  21
TORSDOF 7
ENDMDL
MODEL 2
REMARK VINA RESULT:    -9.575      1.335      1.859
REMARK INTER + INTRA:         -14.051
REMARK INTER:                 -13.941
REMARK INTRA:                  -0.110
REMARK UNBOUND:                -0.558
REMARK SMILES CCOC(=O)C1(c2ccc3c(c2)nc(Cc2ccc(C(=N)N)cc2)c(=O)n3C)CC1
REMARK SMILES IDX 7 1 8 2 9 3 10 4 11 5 12 6 13 7 14 8 25 9 26 10 27 11 28 12
REMARK SMILES IDX 6 13 29 14 30 15 4 16 5 17 3 18 2 19 1 20 15 21 16 22 17 23
REMARK SMILES IDX 24 24 18 25 23 26 19 27 20 28 21 29 22 30
REMARK H PARENT 21 31 22 32 22 33
ROOT
ATOM      1  C   UNL     1      -5.243   9.948  20.204  1.00  0.00    -0.028 A 
ATOM      2  C   UNL     1      -4.982  10.836  19.152  1.00  0.00     0.007 A 
ATOM      3  C   UNL     1      -3.845  11.654  19.149  1.00  0.00     0.029 A 
ATOM      4  C   UNL     1      -2.926  11.598  20.202  1.00  0.00     0.069 A 
ATOM      5  C   UNL     1      -3.159  10.704  21.259  1.00  0.00     0.088 A 
ATOM      6  C   UNL     1      -4.305   9.899  21.247  1.00  0.00     0.035 A 
ATOM      7  N   UNL     1      -2.281  10.554  22.343  1.00  0.00    -0.245 NA
ATOM      8  C   UNL     1      -1.215  11.298  22.376  1.00  0.00     0.111 A 
ATOM      9  C   UNL     1      -0.883  12.337  21.314  1.00  0.00     0.272 A 
ATOM     10  O   UNL     1       0.107  13.042  21.470  1.00  0.00    -0.267 OA
ATOM     11  N   UNL     1      -1.763  12.417  20.239  1.00  0.00    -0.308 N 
ATOM     12  C   UNL     1      -1.492  13.369  19.178  1.00  0.00     0.154 C 
ENDROOT
BRANCH   1  13
ATOM     13  C   UNL     1      -6.475   9.046  20.202  1.00  0.00     0.093 C 
ATOM     14  C   UNL     1      -7.069   8.640  21.551  1.00  0.00     0.025 C 
ATOM     15  C   UNL     1      -7.793   9.638  20.706  1.00  0.00     0.025 C 
BRANCH  13  16
ATOM     16  C   UNL     1      -6.553   8.067  19.065  1.00  0.00     0.316 C 
ATOM     17  O   UNL     1      -7.391   8.168  18.179  1.00  0.00    -0.251 OA
BRANCH  16  18
ATOM     18  O   UNL     1      -5.591   7.110  19.159  1.00  0.00    -0.465 OA
BRANCH  18  19
ATOM     19  C   UNL     1      -5.591   6.168  18.082  1.00  0.00     0.229 C 
ATOM     20  C   UNL     1      -6.613   5.092  18.400  1.00  0.00     0.049 C 
ENDBRANCH  18  19
ENDBRANCH  16  18
ENDBRANCH  13  16
ENDBRANCH   1  13
BRANCH   8  21
ATOM     21  C   UNL     1      -0.221  11.130  23.500  1.00  0.00     0.097 C 
BRANCH  21  22
ATOM     22  C   UNL     1      -0.828  10.447  24.703  1.00  0.00    -0.042 A 
ATOM     23  C   UNL     1      -0.253   9.275  25.216  1.00  0.00     0.005 A 
ATOM     24  C   UNL     1      -1.960  10.985  25.330  1.00  0.00     0.005 A 
ATOM     25  C   UNL     1      -0.807   8.645  26.332  1.00  0.00     0.012 A 
ATOM     26  C   UNL     1      -2.518  10.355  26.445  1.00  0.00     0.012 A 
ATOM     27  C   UNL     1      -1.943   9.182  26.945  1.00  0.00     0.016 A 
BRANCH  27  28
ATOM     28  C   UNL     1      -2.540   8.513  28.130  1.00  0.00     0.122 C 
ATOM     29  N   UNL     1      -3.652   8.913  28.664  1.00  0.00    -0.284 NA
ATOM     30  N   UNL     1      -1.926   7.445  28.696  1.00  0.00    -0.384 N 
ATOM     31  H   UNL     1      -4.012   9.744  28.186  1.00  0.00     0.189 HD
ATOM     32  H   UNL     1      -1.122   6.988  28.294  1.00  0.00     0.158 HD
ATOM     33  H   UNL     1      -2.377   7.027  29.500  1.00  0.00     0.158 HD
ENDBRANCH  27  28
ENDBRANCH  21  22
ENDBRANCH   8  21
TORSDOF 7
ENDMDL
MODEL 3
REMARK VINA RESULT:    -9.335      1.288      2.346
REMARK INTER + INTRA:         -13.712
REMARK INTER:                 -12.858
REMARK INTRA:                  -0.855
REMARK UNBOUND:                -0.558
REMARK SMILES CCOC(=O)C1(c2ccc3c(c2)nc(Cc2ccc(C(=N)N)cc2)c(=O)n3C)CC1
REMARK SMILES IDX 7 1 8 2 9 3 10 4 11 5 12 6 13 7 14 8 25 9 26 10 27 11 28 12
REMARK SMILES IDX 6 13 29 14 30 15 4 16 5 17 3 18 2 19 1 20 15 21 16 22 17 23
REMARK SMILES IDX 24 24 18 25 23 26 19 27 20 28 21 29 22 30
REMARK H PARENT 21 31 22 32 22 33
ROOT
ATOM      1  C   UNL     1      -5.161   9.760  20.478  1.00  0.00    -0.028 A 
ATOM      2  C   UNL     1      -4.183  10.139  19.547  1.00  0.00     0.007 A 
ATOM      3  C   UNL     1      -2.976  10.721  19.949  1.00  0.00     0.029 A 
ATOM      4  C   UNL     1      -2.705  10.934  21.305  1.00  0.00     0.069 A 
ATOM      5  C   UNL     1      -3.663  10.548  22.257  1.00  0.00     0.088 A 
ATOM      6  C   UNL     1      -4.868   9.972  21.834  1.00  0.00     0.035 A 
ATOM      7  N   UNL     1      -3.471  10.692  23.639  1.00  0.00    -0.245 NA
ATOM      8  C   UNL     1      -2.361  11.231  24.051  1.00  0.00     0.111 A 
ATOM      9  C   UNL     1      -1.273  11.734  23.112  1.00  0.00     0.272 A 
ATOM     10  O   UNL     1      -0.295  12.295  23.592  1.00  0.00    -0.267 OA
ATOM     11  N   UNL     1      -1.493  11.530  21.754  1.00  0.00    -0.308 N 
ATOM     12  C   UNL     1      -0.484  11.962  20.805  1.00  0.00     0.154 C 
ENDROOT
BRANCH   1  13
ATOM     13  C   UNL     1      -6.473   9.112  20.041  1.00  0.00     0.093 C 
ATOM     14  C   UNL     1      -6.612   8.689  18.579  1.00  0.00     0.025 C 
ATOM     15  C   UNL     1      -6.438   7.639  19.629  1.00  0.00     0.025 C 
BRANCH  13  16
ATOM     16  C   UNL     1      -7.699   9.593  20.765  1.00  0.00     0.316 C 
ATOM     17  O   UNL     1      -8.029   9.142  21.853  1.00  0.00    -0.251 OA
BRANCH  16  18
ATOM     18  O   UNL     1      -8.344  10.566  20.068  1.00  0.00    -0.465 OA
BRANCH  18  19
ATOM     19  C   UNL     1      -7.922  11.897  20.386  1.00  0.00     0.229 C 
ATOM     20  C   UNL     1      -7.416  12.545  19.111  1.00  0.00     0.049 C 
ENDBRANCH  18  19
ENDBRANCH  16  18
ENDBRANCH  13  16
ENDBRANCH   1  13
BRANCH   8  21
ATOM     21  C   UNL     1      -2.096  11.357  25.532  1.00  0.00     0.097 C 
BRANCH  21  22
ATOM     22  C   UNL     1      -1.739  10.032  26.164  1.00  0.00    -0.042 A 
ATOM     23  C   UNL     1      -0.638   9.300  25.697  1.00  0.00     0.005 A 
ATOM     24  C   UNL     1      -2.491   9.530  27.235  1.00  0.00     0.005 A 
ATOM     25  C   UNL     1      -0.301   8.078  26.283  1.00  0.00     0.012 A 
ATOM     26  C   UNL     1      -2.156   8.307  27.822  1.00  0.00     0.012 A 
ATOM     27  C   UNL     1      -1.063   7.579  27.343  1.00  0.00     0.016 A 
BRANCH  27  28
ATOM     28  C   UNL     1      -0.711   6.277  27.969  1.00  0.00     0.122 C 
ATOM     29  N   UNL     1      -0.370   5.242  27.267  1.00  0.00    -0.284 NA
ATOM     30  N   UNL     1      -0.736   6.135  29.317  1.00  0.00    -0.384 N 
ATOM     31  H   UNL     1      -0.417   5.444  26.264  1.00  0.00     0.189 HD
ATOM     32  H   UNL     1      -0.877   6.903  29.954  1.00  0.00     0.158 HD
ATOM     33  H   UNL     1      -0.486   5.228  29.689  1.00  0.00     0.158 HD
ENDBRANCH  27  28
ENDBRANCH  21  22
ENDBRANCH   8  21
TORSDOF 7
ENDMDL
MODEL 4
REMARK VINA RESULT:    -9.282      1.934      2.919
REMARK INTER + INTRA:         -13.638
REMARK INTER:                 -12.687
REMARK INTRA:                  -0.951
REMARK UNBOUND:                -0.558
REMARK SMILES CCOC(=O)C1(c2ccc3c(c2)nc(Cc2ccc(C(=N)N)cc2)c(=O)n3C)CC1
REMARK SMILES IDX 7 1 8 2 9 3 10 4 11 5 12 6 13 7 14 8 25 9 26 10 27 11 28 12
REMARK SMILES IDX 6 13 29 14 30 15 4 16 5 17 3 18 2 19 1 20 15 21 16 22 17 23
REMARK SMILES IDX 24 24 18 25 23 26 19 27 20 28 21 29 22 30
REMARK H PARENT 21 31 22 32 22 33
ROOT
ATOM      1  C   UNL     1      -5.374   9.692  19.595  1.00  0.00    -0.028 A 
ATOM      2  C   UNL     1      -6.240  10.794  19.632  1.00  0.00     0.007 A 
ATOM      3  C   UNL     1      -6.013  11.875  20.491  1.00  0.00     0.029 A 
ATOM      4  C   UNL     1      -4.898  11.890  21.337  1.00  0.00     0.069 A 
ATOM      5  C   UNL     1      -4.009  10.805  21.306  1.00  0.00     0.088 A 
ATOM      6  C   UNL     1      -4.256   9.729  20.444  1.00  0.00     0.035 A 
ATOM      7  N   UNL     1      -2.849  10.742  22.093  1.00  0.00    -0.245 NA
ATOM      8  C   UNL     1      -2.605  11.728  22.905  1.00  0.00     0.111 A 
ATOM      9  C   UNL     1      -3.523  12.933  23.062  1.00  0.00     0.272 A 
ATOM     10  O   UNL     1      -3.247  13.776  23.907  1.00  0.00    -0.267 OA
ATOM     11  N   UNL     1      -4.637  12.967  22.229  1.00  0.00    -0.308 N 
ATOM     12  C   UNL     1      -5.540  14.100  22.309  1.00  0.00     0.154 C 
ENDROOT
BRANCH   1  13
ATOM     13  C   UNL     1      -5.613   8.517  18.649  1.00  0.00     0.093 C 
ATOM     14  C   UNL     1      -4.764   7.261  18.838  1.00  0.00     0.025 C 
ATOM     15  C   UNL     1      -6.203   7.235  19.239  1.00  0.00     0.025 C 
BRANCH  13  16
ATOM     16  C   UNL     1      -6.037   8.891  17.257  1.00  0.00     0.316 C 
ATOM     17  O   UNL     1      -7.215   9.001  16.945  1.00  0.00    -0.251 OA
BRANCH  16  18
ATOM     18  O   UNL     1      -4.966   9.089  16.442  1.00  0.00    -0.465 OA
BRANCH  18  19
ATOM     19  C   UNL     1      -5.021  10.300  15.682  1.00  0.00     0.229 C 
ATOM     20  C   UNL     1      -4.291  11.377  16.462  1.00  0.00     0.049 C 
ENDBRANCH  18  19
ENDBRANCH  16  18
ENDBRANCH  13  16
ENDBRANCH   1  13
BRANCH   8  21
ATOM     21  C   UNL     1      -1.342  11.721  23.732  1.00  0.00     0.097 C 
BRANCH  21  22
ATOM     22  C   UNL     1      -1.390  10.695  24.840  1.00  0.00    -0.042 A 
ATOM     23  C   UNL     1      -2.395  10.755  25.816  1.00  0.00     0.005 A 
ATOM     24  C   UNL     1      -0.443   9.663  24.895  1.00  0.00     0.005 A 
ATOM     25  C   UNL     1      -2.447   9.804  26.838  1.00  0.00     0.012 A 
ATOM     26  C   UNL     1      -0.492   8.712  25.917  1.00  0.00     0.012 A 
ATOM     27  C   UNL     1      -1.492   8.785  26.892  1.00  0.00     0.016 A 
BRANCH  27  28
ATOM     28  C   UNL     1      -1.540   7.773  27.980  1.00  0.00     0.122 C 
ATOM     29  N   UNL     1      -2.441   7.800  28.911  1.00  0.00    -0.284 NA
ATOM     30  N   UNL     1      -0.625   6.774  28.027  1.00  0.00    -0.384 N 
ATOM     31  H   UNL     1      -3.058   8.611  28.804  1.00  0.00     0.189 HD
ATOM     32  H   UNL     1       0.044   6.598  27.294  1.00  0.00     0.158 HD
ATOM     33  H   UNL     1      -0.705   6.112  28.788  1.00  0.00     0.158 HD
ENDBRANCH  27  28
ENDBRANCH  21  22
ENDBRANCH   8  21
TORSDOF 7
ENDMDL
MODEL 5
REMARK VINA RESULT:    -8.947      1.896      3.113
REMARK INTER + INTRA:         -13.165
REMARK INTER:                 -12.955
REMARK INTRA:                  -0.211
REMARK UNBOUND:                -0.558
REMARK SMILES CCOC(=O)C1(c2ccc3c(c2)nc(Cc2ccc(C(=N)N)cc2)c(=O)n3C)CC1
REMARK SMILES IDX 7 1 8 2 9 3 10 4 11 5 12 6 13 7 14 8 25 9 26 10 27 11 28 12
REMARK SMILES IDX 6 13 29 14 30 15 4 16 5 17 3 18 2 19 1 20 15 21 16 22 17 23
REMARK SMILES IDX 24 24 18 25 23 26 19 27 20 28 21 29 22 30
REMARK H PARENT 21 31 22 32 22 33
ROOT
ATOM      1  C   UNL     1      -5.299   9.797  20.126  1.00  0.00    -0.028 A 
ATOM      2  C   UNL     1      -5.092  10.733  19.103  1.00  0.00     0.007 A 
ATOM      3  C   UNL     1      -3.980  11.583  19.102  1.00  0.00     0.029 A 
ATOM      4  C   UNL     1      -3.031  11.515  20.127  1.00  0.00     0.069 A 
ATOM      5  C   UNL     1      -3.209  10.574  21.155  1.00  0.00     0.088 A 
ATOM      6  C   UNL     1      -4.331   9.736  21.141  1.00  0.00     0.035 A 
ATOM      7  N   UNL     1      -2.298  10.409  22.208  1.00  0.00    -0.245 NA
ATOM      8  C   UNL     1      -1.253  11.183  22.243  1.00  0.00     0.111 A 
ATOM      9  C   UNL     1      -0.981  12.272  21.214  1.00  0.00     0.272 A 
ATOM     10  O   UNL     1      -0.008  13.000  21.371  1.00  0.00    -0.267 OA
ATOM     11  N   UNL     1      -1.892  12.367  20.167  1.00  0.00    -0.308 N 
ATOM     12  C   UNL     1      -1.678  13.367  19.137  1.00  0.00     0.154 C 
ENDROOT
BRANCH   1  13
ATOM     13  C   UNL     1      -6.504   8.860  20.121  1.00  0.00     0.093 C 
ATOM     14  C   UNL     1      -7.059   8.413  18.769  1.00  0.00     0.025 C 
ATOM     15  C   UNL     1      -6.296   7.435  19.604  1.00  0.00     0.025 C 
BRANCH  13  16
ATOM     16  C   UNL     1      -7.464   9.042  21.262  1.00  0.00     0.316 C 
ATOM     17  O   UNL     1      -7.738   8.132  22.032  1.00  0.00    -0.251 OA
BRANCH  16  18
ATOM     18  O   UNL     1      -7.948  10.312  21.313  1.00  0.00    -0.465 OA
BRANCH  18  19
ATOM     19  C   UNL     1      -9.171  10.448  22.044  1.00  0.00     0.229 C 
ATOM     20  C   UNL     1     -10.184  11.126  21.141  1.00  0.00     0.049 C 
ENDBRANCH  18  19
ENDBRANCH  16  18
ENDBRANCH  13  16
ENDBRANCH   1  13
BRANCH   8  21
ATOM     21  C   UNL     1      -0.224  11.003  23.333  1.00  0.00     0.097 C 
BRANCH  21  22
ATOM     22  C   UNL     1      -0.810  10.369  24.573  1.00  0.00    -0.042 A 
ATOM     23  C   UNL     1      -1.971  10.898  25.156  1.00  0.00     0.005 A 
ATOM     24  C   UNL     1      -0.213   9.237  25.143  1.00  0.00     0.005 A 
ATOM     25  C   UNL     1      -2.519  10.310  26.299  1.00  0.00     0.012 A 
ATOM     26  C   UNL     1      -0.758   8.648  26.286  1.00  0.00     0.012 A 
ATOM     27  C   UNL     1      -1.910   9.188  26.867  1.00  0.00     0.016 A 
BRANCH  27  28
ATOM     28  C   UNL     1      -2.488   8.561  28.085  1.00  0.00     0.122 C 
ATOM     29  N   UNL     1      -3.574   8.999  28.640  1.00  0.00    -0.284 NA
ATOM     30  N   UNL     1      -1.882   7.493  28.659  1.00  0.00    -0.384 N 
ATOM     31  H   UNL     1      -3.930   9.826  28.153  1.00  0.00     0.189 HD
ATOM     32  H   UNL     1      -1.100   7.008  28.246  1.00  0.00     0.158 HD
ATOM     33  H   UNL     1      -2.318   7.104  29.485  1.00  0.00     0.158 HD
ENDBRANCH  27  28
ENDBRANCH  21  22
ENDBRANCH   8  21
TORSDOF 7
ENDMDL
MODEL 6
REMARK VINA RESULT:    -8.838      2.238      3.717
REMARK INTER + INTRA:         -13.013
REMARK INTER:                 -12.029
REMARK INTRA:                  -0.984
REMARK UNBOUND:                -0.558
REMARK SMILES CCOC(=O)C1(c2ccc3c(c2)nc(Cc2ccc(C(=N)N)cc2)c(=O)n3C)CC1
REMARK SMILES IDX 7 1 8 2 9 3 10 4 11 5 12 6 13 7 14 8 25 9 26 10 27 11 28 12
REMARK SMILES IDX 6 13 29 14 30 15 4 16 5 17 3 18 2 19 1 20 15 21 16 22 17 23
REMARK SMILES IDX 24 24 18 25 23 26 19 27 20 28 21 29 22 30
REMARK H PARENT 21 31 22 32 22 33
ROOT
ATOM      1  C   UNL     1      -6.458   8.985  19.523  1.00  0.00    -0.028 A 
ATOM      2  C   UNL     1      -7.736   9.476  19.826  1.00  0.00     0.007 A 
ATOM      3  C   UNL     1      -7.927  10.477  20.786  1.00  0.00     0.029 A 
ATOM      4  C   UNL     1      -6.836  11.027  21.468  1.00  0.00     0.069 A 
ATOM      5  C   UNL     1      -5.545  10.561  21.170  1.00  0.00     0.088 A 
ATOM      6  C   UNL     1      -5.375   9.556  20.211  1.00  0.00     0.035 A 
ATOM      7  N   UNL     1      -4.388  11.071  21.778  1.00  0.00    -0.245 NA
ATOM      8  C   UNL     1      -4.526  12.001  22.676  1.00  0.00     0.111 A 
ATOM      9  C   UNL     1      -5.877  12.547  23.119  1.00  0.00     0.272 A 
ATOM     10  O   UNL     1      -5.910  13.370  24.026  1.00  0.00    -0.267 OA
ATOM     11  N   UNL     1      -6.990  12.039  22.456  1.00  0.00    -0.308 N 
ATOM     12  C   UNL     1      -8.307  12.536  22.810  1.00  0.00     0.154 C 
ENDROOT
BRANCH   1  13
ATOM     13  C   UNL     1      -6.246   7.904  18.467  1.00  0.00     0.093 C 
ATOM     14  C   UNL     1      -5.102   6.912  18.675  1.00  0.00     0.025 C 
ATOM     15  C   UNL     1      -6.510   6.452  18.870  1.00  0.00     0.025 C 
BRANCH  13  16
ATOM     16  C   UNL     1      -6.600   8.301  17.061  1.00  0.00     0.316 C 
ATOM     17  O   UNL     1      -7.754   8.291  16.655  1.00  0.00    -0.251 OA
BRANCH  16  18
ATOM     18  O   UNL     1      -5.499   8.666  16.351  1.00  0.00    -0.465 OA
BRANCH  18  19
ATOM     19  C   UNL     1      -5.503  10.032  15.922  1.00  0.00     0.229 C 
ATOM     20  C   UNL     1      -4.497  10.791  16.765  1.00  0.00     0.049 C 
ENDBRANCH  18  19
ENDBRANCH  16  18
ENDBRANCH  13  16
ENDBRANCH   1  13
BRANCH   8  21
ATOM     21  C   UNL     1      -3.302  12.609  23.317  1.00  0.00     0.097 C 
BRANCH  21  22
ATOM     22  C   UNL     1      -2.625  11.657  24.275  1.00  0.00    -0.042 A 
ATOM     23  C   UNL     1      -1.330  11.188  24.010  1.00  0.00     0.005 A 
ATOM     24  C   UNL     1      -3.275  11.246  25.447  1.00  0.00     0.005 A 
ATOM     25  C   UNL     1      -0.699  10.313  24.896  1.00  0.00     0.012 A 
ATOM     26  C   UNL     1      -2.646  10.369  26.334  1.00  0.00     0.012 A 
ATOM     27  C   UNL     1      -1.358   9.899  26.057  1.00  0.00     0.016 A 
BRANCH  27  28
ATOM     28  C   UNL     1      -0.693   8.965  27.003  1.00  0.00     0.122 C 
ATOM     29  N   UNL     1       0.561   9.073  27.315  1.00  0.00    -0.284 NA
ATOM     30  N   UNL     1      -1.393   7.956  27.575  1.00  0.00    -0.384 N 
ATOM     31  H   UNL     1       1.003   9.841  26.803  1.00  0.00     0.189 HD
ATOM     32  H   UNL     1      -2.392   7.852  27.488  1.00  0.00     0.158 HD
ATOM     33  H   UNL     1      -0.891   7.350  28.213  1.00  0.00     0.158 HD
ENDBRANCH  27  28
ENDBRANCH  21  22
ENDBRANCH   8  21
TORSDOF 7
ENDMDL
MODEL 7
REMARK VINA RESULT:    -8.726      1.993      2.728
REMARK INTER + INTRA:         -12.854
REMARK INTER:                 -12.977
REMARK INTRA:                   0.123
REMARK UNBOUND:                -0.558
REMARK SMILES CCOC(=O)C1(c2ccc3c(c2)nc(Cc2ccc(C(=N)N)cc2)c(=O)n3C)CC1
REMARK SMILES IDX 7 1 8 2 9 3 10 4 11 5 12 6 13 7 14 8 25 9 26 10 27 11 28 12
REMARK SMILES IDX 6 13 29 14 30 15 4 16 5 17 3 18 2 19 1 20 15 21 16 22 17 23
REMARK SMILES IDX 24 24 18 25 23 26 19 27 20 28 21 29 22 30
REMARK H PARENT 21 31 22 32 22 33
ROOT
ATOM      1  C   UNL     1      -5.970  10.889  20.179  1.00  0.00    -0.028 A 
ATOM      2  C   UNL     1      -6.975  11.694  20.735  1.00  0.00     0.007 A 
ATOM      3  C   UNL     1      -6.783  12.373  21.944  1.00  0.00     0.029 A 
ATOM      4  C   UNL     1      -5.568  12.275  22.631  1.00  0.00     0.069 A 
ATOM      5  C   UNL     1      -4.542  11.487  22.085  1.00  0.00     0.088 A 
ATOM      6  C   UNL     1      -4.755  10.810  20.878  1.00  0.00     0.035 A 
ATOM      7  N   UNL     1      -3.281  11.350  22.683  1.00  0.00    -0.245 NA
ATOM      8  C   UNL     1      -3.066  11.966  23.808  1.00  0.00     0.111 A 
ATOM      9  C   UNL     1      -4.117  12.805  24.520  1.00  0.00     0.272 A 
ATOM     10  O   UNL     1      -3.845  13.286  25.614  1.00  0.00    -0.267 OA
ATOM     11  N   UNL     1      -5.337  12.943  23.866  1.00  0.00    -0.308 N 
ATOM     12  C   UNL     1      -6.376  13.752  24.477  1.00  0.00     0.154 C 
ENDROOT
BRANCH   1  13
ATOM     13  C   UNL     1      -6.173  10.158  18.854  1.00  0.00     0.093 C 
ATOM     14  C   UNL     1      -7.386   9.238  18.721  1.00  0.00     0.025 C 
ATOM     15  C   UNL     1      -7.381  10.549  18.002  1.00  0.00     0.025 C 
BRANCH  13  16
ATOM     16  C   UNL     1      -4.912   9.786  18.127  1.00  0.00     0.316 C 
ATOM     17  O   UNL     1      -4.022  10.599  17.912  1.00  0.00    -0.251 OA
BRANCH  16  18
ATOM     18  O   UNL     1      -4.905   8.473  17.773  1.00  0.00    -0.465 OA
BRANCH  18  19
ATOM     19  C   UNL     1      -4.618   7.575  18.850  1.00  0.00     0.229 C 
ATOM     20  C   UNL     1      -5.189   6.216  18.492  1.00  0.00     0.049 C 
ENDBRANCH  18  19
ENDBRANCH  16  18
ENDBRANCH  13  16
ENDBRANCH   1  13
BRANCH   8  21
ATOM     21  C   UNL     1      -1.705  11.883  24.458  1.00  0.00     0.097 C 
BRANCH  21  22
ATOM     22  C   UNL     1      -1.549  10.640  25.302  1.00  0.00    -0.042 A 
ATOM     23  C   UNL     1      -2.424  10.395  26.370  1.00  0.00     0.005 A 
ATOM     24  C   UNL     1      -0.540   9.709  25.017  1.00  0.00     0.005 A 
ATOM     25  C   UNL     1      -2.287   9.243  27.148  1.00  0.00     0.012 A 
ATOM     26  C   UNL     1      -0.400   8.557  25.794  1.00  0.00     0.012 A 
ATOM     27  C   UNL     1      -1.271   8.326  26.863  1.00  0.00     0.016 A 
BRANCH  27  28
ATOM     28  C   UNL     1      -1.118   7.100  27.690  1.00  0.00     0.122 C 
ATOM     29  N   UNL     1      -0.668   5.987  27.201  1.00  0.00    -0.284 NA
ATOM     30  N   UNL     1      -1.449   7.114  29.004  1.00  0.00    -0.384 N 
ATOM     31  H   UNL     1      -0.484   6.074  26.197  1.00  0.00     0.189 HD
ATOM     32  H   UNL     1      -1.699   7.952  29.506  1.00  0.00     0.158 HD
ATOM     33  H   UNL     1      -1.323   6.253  29.521  1.00  0.00     0.158 HD
ENDBRANCH  27  28
ENDBRANCH  21  22
ENDBRANCH   8  21
TORSDOF 7
ENDMDL
MODEL 8
REMARK VINA RESULT:    -8.416      3.695      8.079
REMARK INTER + INTRA:         -12.417
REMARK INTER:                 -12.161
REMARK INTRA:                  -0.256
REMARK UNBOUND:                -0.558
REMARK SMILES CCOC(=O)C1(c2ccc3c(c2)nc(Cc2ccc(C(=N)N)cc2)c(=O)n3C)CC1
REMARK SMILES IDX 7 1 8 2 9 3 10 4 11 5 12 6 13 7 14 8 25 9 26 10 27 11 28 12
REMARK SMILES IDX 6 13 29 14 30 15 4 16 5 17 3 18 2 19 1 20 15 21 16 22 17 23
REMARK SMILES IDX 24 24 18 25 23 26 19 27 20 28 21 29 22 30
REMARK H PARENT 21 31 22 32 22 33
ROOT
ATOM      1  C   UNL     1      -2.579  11.781  23.171  1.00  0.00    -0.028 A 
ATOM      2  C   UNL     1      -2.945  12.694  24.170  1.00  0.00     0.007 A 
ATOM      3  C   UNL     1      -4.261  13.157  24.292  1.00  0.00     0.029 A 
ATOM      4  C   UNL     1      -5.257  12.709  23.418  1.00  0.00     0.069 A 
ATOM      5  C   UNL     1      -4.917  11.782  22.420  1.00  0.00     0.088 A 
ATOM      6  C   UNL     1      -3.595  11.335  22.309  1.00  0.00     0.035 A 
ATOM      7  N   UNL     1      -5.851  11.252  21.517  1.00  0.00    -0.245 NA
ATOM      8  C   UNL     1      -7.083  11.660  21.599  1.00  0.00     0.111 A 
ATOM      9  C   UNL     1      -7.558  12.698  22.605  1.00  0.00     0.272 A 
ATOM     10  O   UNL     1      -8.723  13.075  22.557  1.00  0.00    -0.267 OA
ATOM     11  N   UNL     1      -6.603  13.162  23.505  1.00  0.00    -0.308 N 
ATOM     12  C   UNL     1      -6.995  14.134  24.509  1.00  0.00     0.154 C 
ENDROOT
BRANCH   1  13
ATOM     13  C   UNL     1      -1.148  11.264  23.044  1.00  0.00     0.093 C 
ATOM     14  C   UNL     1      -0.757  10.545  21.753  1.00  0.00     0.025 C 
ATOM     15  C   UNL     1      -0.240  11.925  22.006  1.00  0.00     0.025 C 
BRANCH  13  16
ATOM     16  C   UNL     1      -0.510  10.820  24.330  1.00  0.00     0.316 C 
ATOM     17  O   UNL     1       0.419  11.433  24.839  1.00  0.00    -0.251 OA
BRANCH  16  18
ATOM     18  O   UNL     1      -1.100   9.699  24.823  1.00  0.00    -0.465 OA
BRANCH  18  19
ATOM     19  C   UNL     1      -1.491   9.794  26.197  1.00  0.00     0.229 C 
ATOM     20  C   UNL     1      -0.693   8.772  26.983  1.00  0.00     0.049 C 
ENDBRANCH  18  19
ENDBRANCH  16  18
ENDBRANCH  13  16
ENDBRANCH   1  13
BRANCH   8  21
ATOM     21  C   UNL     1      -8.127  11.076  20.677  1.00  0.00     0.097 C 
BRANCH  21  22
ATOM     22  C   UNL     1      -7.655   9.803  20.013  1.00  0.00    -0.042 A 
ATOM     23  C   UNL     1      -7.621   9.706  18.615  1.00  0.00     0.005 A 
ATOM     24  C   UNL     1      -7.231   8.713  20.785  1.00  0.00     0.005 A 
ATOM     25  C   UNL     1      -7.179   8.534  17.997  1.00  0.00     0.012 A 
ATOM     26  C   UNL     1      -6.790   7.539  20.171  1.00  0.00     0.012 A 
ATOM     27  C   UNL     1      -6.768   7.448  18.775  1.00  0.00     0.016 A 
BRANCH  27  28
ATOM     28  C   UNL     1      -6.301   6.196  18.124  1.00  0.00     0.122 C 
ATOM     29  N   UNL     1      -5.085   5.764  18.247  1.00  0.00    -0.284 NA
ATOM     30  N   UNL     1      -7.151   5.457  17.369  1.00  0.00    -0.384 N 
ATOM     31  H   UNL     1      -4.519   6.410  18.804  1.00  0.00     0.189 HD
ATOM     32  H   UNL     1      -8.139   5.644  17.302  1.00  0.00     0.158 HD
ATOM     33  H   UNL     1      -6.781   4.614  16.950  1.00  0.00     0.158 HD
ENDBRANCH  27  28
ENDBRANCH  21  22
ENDBRANCH   8  21
TORSDOF 7
ENDMDL
MODEL 9
REMARK VINA RESULT:    -8.287      3.994      8.064
REMARK INTER + INTRA:         -12.236
REMARK INTER:                 -11.979
REMARK INTRA:                  -0.257
REMARK UNBOUND:                -0.558
REMARK SMILES CCOC(=O)C1(c2ccc3c(c2)nc(Cc2ccc(C(=N)N)cc2)c(=O)n3C)CC1
REMARK SMILES IDX 7 1 8 2 9 3 10 4 11 5 12 6 13 7 14 8 25 9 26 10 27 11 28 12
REMARK SMILES IDX 6 13 29 14 30 15 4 16 5 17 3 18 2 19 1 20 15 21 16 22 17 23
REMARK SMILES IDX 24 24 18 25 23 26 19 27 20 28 21 29 22 30
REMARK H PARENT 21 31 22 32 22 33
ROOT
ATOM      1  C   UNL     1      -2.516  11.756  23.106  1.00  0.00    -0.028 A 
ATOM      2  C   UNL     1      -2.913  12.690  24.074  1.00  0.00     0.007 A 
ATOM      3  C   UNL     1      -4.219  13.191  24.116  1.00  0.00     0.029 A 
ATOM      4  C   UNL     1      -5.176  12.761  23.191  1.00  0.00     0.069 A 
ATOM      5  C   UNL     1      -4.806  11.814  22.222  1.00  0.00     0.088 A 
ATOM      6  C   UNL     1      -3.493  11.329  22.192  1.00  0.00     0.035 A 
ATOM      7  N   UNL     1      -5.702  11.301  21.273  1.00  0.00    -0.245 NA
ATOM      8  C   UNL     1      -6.925  11.744  21.280  1.00  0.00     0.111 A 
ATOM      9  C   UNL     1      -7.427  12.806  22.248  1.00  0.00     0.272 A 
ATOM     10  O   UNL     1      -8.576  13.215  22.129  1.00  0.00    -0.267 OA
ATOM     11  N   UNL     1      -6.512  13.253  23.196  1.00  0.00    -0.308 N 
ATOM     12  C   UNL     1      -6.933  14.247  24.166  1.00  0.00     0.154 C 
ENDROOT
BRANCH   1  13
ATOM     13  C   UNL     1      -1.096  11.198  23.067  1.00  0.00     0.093 C 
ATOM     14  C   UNL     1      -0.289  11.199  24.365  1.00  0.00     0.025 C 
ATOM     15  C   UNL     1      -0.816   9.905  23.835  1.00  0.00     0.025 C 
BRANCH  13  16
ATOM     16  C   UNL     1      -0.363  11.398  21.771  1.00  0.00     0.316 C 
ATOM     17  O   UNL     1      -0.686  10.814  20.745  1.00  0.00    -0.251 OA
BRANCH  16  18
ATOM     18  O   UNL     1       0.654  12.292  21.902  1.00  0.00    -0.465 OA
BRANCH  18  19
ATOM     19  C   UNL     1       0.933  13.045  20.717  1.00  0.00     0.229 C 
ATOM     20  C   UNL     1       2.397  13.440  20.746  1.00  0.00     0.049 C 
ENDBRANCH  18  19
ENDBRANCH  16  18
ENDBRANCH  13  16
ENDBRANCH   1  13
BRANCH   8  21
ATOM     21  C   UNL     1      -7.931  11.179  20.306  1.00  0.00     0.097 C 
BRANCH  21  22
ATOM     22  C   UNL     1      -7.498   9.844  19.747  1.00  0.00    -0.042 A 
ATOM     23  C   UNL     1      -7.213   8.775  20.609  1.00  0.00     0.005 A 
ATOM     24  C   UNL     1      -7.393   9.653  18.362  1.00  0.00     0.005 A 
ATOM     25  C   UNL     1      -6.819   7.537  20.095  1.00  0.00     0.012 A 
ATOM     26  C   UNL     1      -6.998   8.417  17.846  1.00  0.00     0.012 A 
ATOM     27  C   UNL     1      -6.707   7.359  18.713  1.00  0.00     0.016 A 
BRANCH  27  28
ATOM     28  C   UNL     1      -6.284   6.045  18.161  1.00  0.00     0.122 C 
ATOM     29  N   UNL     1      -5.125   5.526  18.420  1.00  0.00    -0.284 NA
ATOM     30  N   UNL     1      -7.117   5.339  17.357  1.00  0.00    -0.384 N 
ATOM     31  H   UNL     1      -4.563   6.153  19.003  1.00  0.00     0.189 HD
ATOM     32  H   UNL     1      -8.076   5.598  17.186  1.00  0.00     0.158 HD
ATOM     33  H   UNL     1      -6.779   4.451  17.010  1.00  0.00     0.158 HD
ENDBRANCH  27  28
ENDBRANCH  21  22
ENDBRANCH   8  21
TORSDOF 7
ENDMDL
