REMARK VINA RESULT:    -9.998      5.124      8.282
REMARK INTER + INTRA:         -14.125
REMARK INTER:                 -13.272
REMARK INTRA:                  -0.853
REMARK UNBOUND:                -0.620
REMARK SMILES Cn1ccc(NC(=O)Cc2cccc(Nc3nn([C@@H]4CCCC[C@H]4C#N)c4cc[nH]c(=O)c34)c2)n1
REMARK SMILES IDX 10 1 11 2 12 3 13 4 14 5 34 6 9 7 7 8 6 9 8 10 5 12 2 13
REMARK SMILES IDX 3 14 35 15 4 16 1 17 15 18 16 20 17 21 33 22 18 23 31 24
REMARK SMILES IDX 27 25 30 26 32 27 28 28 29 29 19 31 20 32 24 33 21 34 23 35
REMARK SMILES IDX 25 36 22 37 26 38
REMARK H PARENT 6 11 15 19 30 30
ROOT
ATOM      1  C   UNL     1      -8.466  15.824  20.146  1.00  0.00    -0.037 A 
ATOM      2  C   UNL     1      -7.743  14.682  19.789  1.00  0.00     0.004 A 
ATOM      3  C   UNL     1      -8.401  13.469  19.602  1.00  0.00     0.002 A 
ATOM      4  C   UNL     1      -9.786  13.386  19.773  1.00  0.00     0.026 A 
ATOM      5  C   UNL     1     -10.537  14.503  20.147  1.00  0.00     0.040 A 
ATOM      6  C   UNL     1      -9.855  15.720  20.331  1.00  0.00     0.030 A 
ENDROOT
BRANCH   1   7
ATOM      7  C   UNL     1      -7.762  17.145  20.335  1.00  0.00     0.136 C 
BRANCH   7   8
ATOM      8  C   UNL     1      -6.361  17.209  19.740  1.00  0.00     0.229 C 
ATOM      9  N   UNL     1      -6.383  17.041  18.369  1.00  0.00    -0.309 N 
ATOM     10  O   UNL     1      -5.350  17.354  20.418  1.00  0.00    -0.274 OA
ATOM     11  H   UNL     1      -7.251  16.912  17.870  1.00  0.00     0.171 HD
BRANCH   9  12
ATOM     12  C   UNL     1      -5.283  17.013  17.549  1.00  0.00     0.154 A 
ATOM     13  N   UNL     1      -3.520  16.215  16.698  1.00  0.00    -0.274 N 
ATOM     14  C   UNL     1      -3.663  17.428  16.099  1.00  0.00     0.110 A 
ATOM     15  N   UNL     1      -4.496  15.933  17.580  1.00  0.00    -0.155 NA
ATOM     16  C   UNL     1      -4.807  17.975  16.635  1.00  0.00     0.068 A 
ATOM     17  C   UNL     1      -2.463  15.257  16.478  1.00  0.00     0.173 C 
ENDBRANCH   9  12
ENDBRANCH   7   8
ENDBRANCH   1   7
BRANCH   5  18
ATOM     18  N   UNL     1     -11.940  14.485  20.306  1.00  0.00    -0.338 N 
ATOM     19  H   UNL     1     -12.271  13.599  20.684  1.00  0.00     0.168 HD
BRANCH  18  20
ATOM     20  C   UNL     1     -12.893  15.409  20.031  1.00  0.00     0.166 A 
ATOM     21  N   UNL     1     -12.780  16.744  20.042  1.00  0.00    -0.153 NA
ATOM     22  C   UNL     1     -14.212  15.037  19.706  1.00  0.00     0.109 A 
ATOM     23  N   UNL     1     -14.005  17.214  19.713  1.00  0.00    -0.258 N 
ATOM     24  C   UNL     1     -14.897  13.773  19.572  1.00  0.00     0.261 A 
ATOM     25  C   UNL     1     -14.902  16.213  19.511  1.00  0.00     0.078 A 
ATOM     26  N   UNL     1     -16.246  13.904  19.245  1.00  0.00    -0.328 N 
ATOM     27  O   UNL     1     -14.354  12.684  19.727  1.00  0.00    -0.269 OA
ATOM     28  C   UNL     1     -16.272  16.302  19.185  1.00  0.00     0.046 A 
ATOM     29  C   UNL     1     -16.902  15.116  19.064  1.00  0.00     0.088 A 
ATOM     30  H   UNL     1     -16.756  13.036  19.147  1.00  0.00     0.169 HD
BRANCH  23  31
ATOM     31  C   UNL     1     -14.193  18.662  19.642  1.00  0.00     0.125 C 
ATOM     32  C   UNL     1     -13.177  19.282  18.665  1.00  0.00     0.029 C 
ATOM     33  C   UNL     1     -14.124  19.307  21.044  1.00  0.00     0.117 C 
ATOM     34  C   UNL     1     -13.289  20.801  18.609  1.00  0.00     0.002 C 
ATOM     35  C   UNL     1     -14.190  20.841  20.955  1.00  0.00     0.021 C 
ATOM     36  C   UNL     1     -15.244  18.826  21.876  1.00  0.00     0.068 C 
ATOM     37  C   UNL     1     -13.149  21.410  20.000  1.00  0.00     0.002 C 
ATOM     38  N   UNL     1     -16.160  18.473  22.495  1.00  0.00    -0.198 NA
ENDBRANCH  23  31
ENDBRANCH  18  20
ENDBRANCH   5  18
TORSDOF 6
