REMARK SMILES N=C(N)[C@@H]1CCC[C@H](NC(=O)CN2CCCC[C@H](NS(=O)(=O)Cc3ccccc3)C2=O)[C@@H]1O
REMARK SMILES IDX 13 1 14 2 15 3 16 4 17 5 18 6 30 7 31 8 12 9 10 10 9 11
REMARK SMILES IDX 11 12 8 14 4 15 5 16 32 17 6 18 7 19 2 20 1 21 3 22 33 26
REMARK SMILES IDX 19 28 20 30 21 31 22 32 23 33 24 34 25 35 29 36 26 37 28 38
REMARK SMILES IDX 27 39
REMARK H PARENT 9 13 1 23 3 24 3 25 33 27 19 29
REMARK INDEX MAP 13 1 14 2 15 3 16 4 17 5 18 6 30 7 31 8 12 9 10 10 9 11 11 12
REMARK INDEX MAP 45 13 8 14 4 15 5 16 32 17 6 18 7 19 2 20 1 21 3 22 34 23
REMARK INDEX MAP 35 24 36 25 33 26 66 27 19 28 57 29 20 30 21 31 22 32 23 33
REMARK INDEX MAP 24 34 25 35 29 36 26 37 28 38 27 39
ROOT
ATOM      1  N   UNL     1      -2.758  11.764  24.195  1.00  0.00    -0.332 N 
ATOM      2  C   UNL     1      -1.487  11.155  24.568  1.00  0.00     0.120 C 
ATOM      3  C   UNL     1      -0.782  10.393  23.414  1.00  0.00     0.022 C 
ATOM      4  C   UNL     1      -0.588  11.135  22.087  1.00  0.00     0.004 C 
ATOM      5  C   UNL     1      -1.778  11.142  21.121  1.00  0.00     0.030 C 
ATOM      6  C   UNL     1      -3.130  11.440  21.764  1.00  0.00     0.158 C 
ATOM      7  C   UNL     1      -2.954  12.380  22.967  1.00  0.00     0.241 C 
ATOM      8  O   UNL     1      -2.973  13.604  22.837  1.00  0.00    -0.273 OA
ENDROOT
BRANCH   1   9
ATOM      9  C   UNL     1      -3.879  11.659  25.132  1.00  0.00     0.219 C 
BRANCH   9  10
ATOM     10  C   UNL     1      -5.019  12.648  24.854  1.00  0.00     0.239 C 
ATOM     11  N   UNL     1      -4.807  13.951  25.260  1.00  0.00    -0.349 N 
ATOM     12  O   UNL     1      -6.094  12.267  24.395  1.00  0.00    -0.273 OA
ATOM     13  H   UNL     1      -3.882  14.218  25.627  1.00  0.00     0.163 HD
BRANCH  11  14
ATOM     14  C   UNL     1      -5.863  14.964  25.182  1.00  0.00     0.111 C 
ATOM     15  C   UNL     1      -6.934  16.776  23.779  1.00  0.00     0.085 C 
ATOM     16  C   UNL     1      -6.763  17.785  24.919  1.00  0.00     0.014 C 
ATOM     17  C   UNL     1      -5.845  15.693  23.815  1.00  0.00     0.147 C 
ATOM     18  C   UNL     1      -6.754  17.080  26.274  1.00  0.00     0.003 C 
ATOM     19  C   UNL     1      -5.708  15.970  26.335  1.00  0.00     0.028 C 
BRANCH  15  20
ATOM     20  C   UNL     1      -6.991  17.502  22.441  1.00  0.00     0.096 C 
ATOM     21  N   UNL     1      -7.980  17.265  21.645  1.00  0.00    -0.288 NA
ATOM     22  N   UNL     1      -6.023  18.396  22.123  1.00  0.00    -0.387 N 
ATOM     23  H   UNL     1      -8.702  16.581  21.911  1.00  0.00     0.189 HD
ATOM     24  H   UNL     1      -5.245  18.567  22.776  1.00  0.00     0.157 HD
ATOM     25  H   UNL     1      -6.066  18.905  21.229  1.00  0.00     0.157 HD
ENDBRANCH  15  20
BRANCH  17  26
ATOM     26  O   UNL     1      -4.533  16.272  23.621  1.00  0.00    -0.390 OA
ATOM     27  H   UNL     1      -4.119  16.455  24.502  1.00  0.00     0.211 HD
ENDBRANCH  17  26
ENDBRANCH  11  14
ENDBRANCH   9  10
ENDBRANCH   1   9
BRANCH   6  28
ATOM     28  N   UNL     1      -4.040  12.063  20.776  1.00  0.00    -0.202 NA
ATOM     29  H   UNL     1      -4.723  12.635  21.293  1.00  0.00     0.141 HD
BRANCH  28  30
ATOM     30  S   UNL     1      -4.900  10.992  19.790  1.00  0.00     0.216 S 
ATOM     31  O   UNL     1      -4.188  10.941  18.533  1.00  0.00    -0.212 OA
ATOM     32  O   UNL     1      -6.298  11.376  19.844  1.00  0.00    -0.212 OA
BRANCH  30  33
ATOM     33  C   UNL     1      -4.720   9.410  20.631  1.00  0.00     0.189 C 
BRANCH  33  34
ATOM     34  C   UNL     1      -5.227   8.272  19.782  1.00  0.00    -0.032 A 
ATOM     35  C   UNL     1      -6.549   7.820  19.917  1.00  0.00     0.005 A 
ATOM     36  C   UNL     1      -4.395   7.654  18.837  1.00  0.00     0.005 A 
ATOM     37  C   UNL     1      -7.023   6.768  19.131  1.00  0.00     0.000 A 
ATOM     38  C   UNL     1      -4.872   6.604  18.051  1.00  0.00     0.000 A 
ATOM     39  C   UNL     1      -6.185   6.162  18.198  1.00  0.00     0.000 A 
ENDBRANCH  33  34
ENDBRANCH  30  33
ENDBRANCH  28  30
ENDBRANCH   6  28
TORSDOF 9
