REMARK SMILES N=C(N)[C@@H]1CCC[C@H](NC(=O)CN2CCCC[C@H](NS(=O)(=O)Cc3ccccc3)C2=O)[C@@H]1O
REMARK SMILES IDX 13 1 14 2 15 3 16 4 17 5 18 6 30 7 31 8 12 9 10 10 9 11
REMARK SMILES IDX 11 12 8 14 4 15 5 16 32 17 6 18 7 19 2 20 1 21 3 22 33 26
REMARK SMILES IDX 19 28 20 30 21 31 22 32 23 33 24 34 25 35 29 36 26 37 28 38
REMARK SMILES IDX 27 39
REMARK H PARENT 9 13 1 23 3 24 3 25 33 27 19 29
REMARK INDEX MAP 13 1 14 2 15 3 16 4 17 5 18 6 30 7 31 8 12 9 10 10 9 11 11 12
REMARK INDEX MAP 45 13 8 14 4 15 5 16 32 17 6 18 7 19 2 20 1 21 3 22 34 23
REMARK INDEX MAP 35 24 36 25 33 26 66 27 19 28 57 29 20 30 21 31 22 32 23 33
REMARK INDEX MAP 24 34 25 35 29 36 26 37 28 38 27 39
ROOT
ATOM      1  N   UNL     1      -6.735  14.344  23.595  1.00  0.00    -0.332 N 
ATOM      2  C   UNL     1      -6.736  15.526  22.742  1.00  0.00     0.120 C 
ATOM      3  C   UNL     1      -8.134  16.171  22.527  1.00  0.00     0.022 C 
ATOM      4  C   UNL     1      -9.356  15.354  22.958  1.00  0.00     0.004 C 
ATOM      5  C   UNL     1      -9.547  13.991  22.285  1.00  0.00     0.030 C 
ATOM      6  C   UNL     1      -8.255  13.236  21.978  1.00  0.00     0.158 C 
ATOM      7  C   UNL     1      -7.368  13.164  23.231  1.00  0.00     0.241 C 
ATOM      8  O   UNL     1      -7.245  12.122  23.875  1.00  0.00    -0.273 OA
ENDROOT
BRANCH   1   9
ATOM      9  C   UNL     1      -5.982  14.396  24.850  1.00  0.00     0.219 C 
BRANCH   9  10
ATOM     10  C   UNL     1      -4.510  13.984  24.711  1.00  0.00     0.239 C 
ATOM     11  N   UNL     1      -4.224  12.655  24.955  1.00  0.00    -0.349 N 
ATOM     12  O   UNL     1      -3.632  14.819  24.502  1.00  0.00    -0.273 OA
ATOM     13  H   UNL     1      -5.000  11.996  25.113  1.00  0.00     0.163 HD
BRANCH  11  14
ATOM     14  C   UNL     1      -2.846  12.157  24.995  1.00  0.00     0.111 C 
ATOM     15  C   UNL     1      -0.875  11.331  23.643  1.00  0.00     0.085 C 
ATOM     16  C   UNL     1      -0.814  10.050  24.480  1.00  0.00     0.014 C 
ATOM     17  C   UNL     1      -2.303  11.891  23.567  1.00  0.00     0.147 C 
ATOM     18  C   UNL     1      -1.369  10.288  25.883  1.00  0.00     0.003 C 
ATOM     19  C   UNL     1      -2.776  10.881  25.849  1.00  0.00     0.028 C 
BRANCH  15  20
ATOM     20  C   UNL     1      -0.271  11.085  22.265  1.00  0.00     0.096 C 
ATOM     21  N   UNL     1       0.646  11.887  21.835  1.00  0.00    -0.288 NA
ATOM     22  N   UNL     1      -0.687  10.023  21.533  1.00  0.00    -0.387 N 
ATOM     23  H   UNL     1       0.943  12.687  22.412  1.00  0.00     0.189 HD
ATOM     24  H   UNL     1      -1.420   9.400  21.900  1.00  0.00     0.157 HD
ATOM     25  H   UNL     1      -0.270   9.839  20.609  1.00  0.00     0.157 HD
ENDBRANCH  15  20
BRANCH  17  26
ATOM     26  O   UNL     1      -3.189  10.958  22.906  1.00  0.00    -0.390 OA
ATOM     27  H   UNL     1      -3.685  10.436  23.585  1.00  0.00     0.211 HD
ENDBRANCH  17  26
ENDBRANCH  11  14
ENDBRANCH   9  10
ENDBRANCH   1   9
BRANCH   6  28
ATOM     28  N   UNL     1      -8.563  11.867  21.508  1.00  0.00    -0.202 NA
ATOM     29  H   UNL     1      -8.471  11.229  22.311  1.00  0.00     0.141 HD
BRANCH  28  30
ATOM     30  S   UNL     1      -7.583  11.278  20.263  1.00  0.00     0.216 S 
ATOM     31  O   UNL     1      -6.733  12.378  19.865  1.00  0.00    -0.212 OA
ATOM     32  O   UNL     1      -8.446  10.614  19.304  1.00  0.00    -0.212 OA
BRANCH  30  33
ATOM     33  C   UNL     1      -6.579  10.023  21.076  1.00  0.00     0.189 C 
BRANCH  33  34
ATOM     34  C   UNL     1      -6.219   8.906  20.130  1.00  0.00    -0.032 A 
ATOM     35  C   UNL     1      -7.019   7.755  20.056  1.00  0.00     0.005 A 
ATOM     36  C   UNL     1      -5.091   8.999  19.303  1.00  0.00     0.005 A 
ATOM     37  C   UNL     1      -6.691   6.718  19.179  1.00  0.00     0.000 A 
ATOM     38  C   UNL     1      -4.766   7.963  18.427  1.00  0.00     0.000 A 
ATOM     39  C   UNL     1      -5.566   6.824  18.365  1.00  0.00     0.000 A 
ENDBRANCH  33  34
ENDBRANCH  30  33
ENDBRANCH  28  30
ENDBRANCH   6  28
TORSDOF 9
