REMARK VINA RESULT:   -10.338      4.625      8.354
REMARK INTER + INTRA:         -12.962
REMARK INTER:                 -13.148
REMARK INTRA:                   0.186
REMARK UNBOUND:                 0.398
REMARK SMILES N#CCC1(n2cc(-c3ccnc4[nH]ccc34)cn2)CN(C2CCN(C(=O)c3ccc(C#N)cc3F)CC2)C1
REMARK SMILES IDX 4 1 19 2 20 3 38 4 3 5 1 6 2 7 5 8 6 9 18 10 7 11 17 12 8 13
REMARK SMILES IDX 9 14 16 15 10 16 15 17 12 18 11 19 14 20 13 21 21 23 22 24
REMARK SMILES IDX 37 25 23 26 36 27 24 28 25 29 26 30 27 31 28 32 34 33 29 34
REMARK SMILES IDX 33 35 30 36 31 37 32 38 35 39
REMARK H PARENT 13 22
ROOT
ATOM      1  C   UNL     1       4.810 -21.995  20.920  1.00  0.00     0.101 C 
ATOM      2  C   UNL     1       6.171 -21.924  20.170  1.00  0.00     0.118 C 
ATOM      3  N   UNL     1       6.594 -20.903  21.173  1.00  0.00    -0.295 NA
ATOM      4  C   UNL     1       5.660 -21.542  22.142  1.00  0.00     0.118 C 
ENDROOT
BRANCH   1   5
ATOM      5  C   UNL     1       3.735 -21.058  20.379  1.00  0.00     0.153 C 
ATOM      6  N   UNL     1       2.875 -19.444  22.266  1.00  0.00    -0.198 NA
ATOM      7  C   UNL     1       3.239 -20.151  21.422  1.00  0.00     0.065 C 
ENDBRANCH   1   5
BRANCH   1   8
ATOM      8  N   UNL     1       4.324 -23.390  21.021  1.00  0.00    -0.262 N 
ATOM      9  C   UNL     1       4.970 -24.404  21.674  1.00  0.00     0.118 A 
ATOM     10  N   UNL     1       3.128 -23.754  20.524  1.00  0.00    -0.180 NA
ATOM     11  C   UNL     1       4.154 -25.512  21.572  1.00  0.00     0.021 A 
ATOM     12  C   UNL     1       3.034 -25.048  20.845  1.00  0.00     0.143 A 
BRANCH  11  13
ATOM     13  C   UNL     1       4.462 -26.814  22.118  1.00  0.00    -0.003 A 
ATOM     14  C   UNL     1       3.650 -27.929  21.877  1.00  0.00     0.030 A 
ATOM     15  C   UNL     1       5.604 -26.996  22.928  1.00  0.00     0.027 A 
ATOM     16  C   UNL     1       3.989 -29.147  22.449  1.00  0.00     0.114 A 
ATOM     17  C   UNL     1       6.693 -26.201  23.397  1.00  0.00     0.030 A 
ATOM     18  C   UNL     1       5.815 -28.277  23.435  1.00  0.00     0.137 A 
ATOM     19  N   UNL     1       5.059 -29.373  23.244  1.00  0.00    -0.239 NA
ATOM     20  C   UNL     1       7.504 -27.002  24.174  1.00  0.00     0.085 A 
ATOM     21  N   UNL     1       6.956 -28.259  24.189  1.00  0.00    -0.346 N 
ATOM     22  H   UNL     1       7.323 -29.070  24.663  1.00  0.00     0.167 HD
ENDBRANCH  11  13
ENDBRANCH   1   8
BRANCH   3  23
ATOM     23  C   UNL     1       8.004 -21.088  21.570  1.00  0.00     0.060 C 
ATOM     24  C   UNL     1       8.925 -20.340  20.585  1.00  0.00     0.041 C 
ATOM     25  C   UNL     1       8.234 -20.536  22.990  1.00  0.00     0.041 C 
ATOM     26  C   UNL     1      10.383 -20.440  21.021  1.00  0.00     0.121 C 
ATOM     27  C   UNL     1       9.707 -20.636  23.384  1.00  0.00     0.121 C 
ATOM     28  N   UNL     1      10.555 -19.979  22.397  1.00  0.00    -0.338 N 
ATOM     29  C   UNL     1      11.527 -19.087  22.840  1.00  0.00     0.256 C 
ATOM     30  O   UNL     1      11.807 -18.920  24.026  1.00  0.00    -0.269 OA
BRANCH  29  31
ATOM     31  C   UNL     1      12.302 -18.299  21.867  1.00  0.00     0.075 A 
ATOM     32  C   UNL     1      13.669 -18.556  21.722  1.00  0.00     0.018 A 
ATOM     33  C   UNL     1      11.716 -17.245  21.168  1.00  0.00     0.137 A 
ATOM     34  C   UNL     1      14.432 -17.778  20.846  1.00  0.00     0.020 A 
ATOM     35  C   UNL     1      12.471 -16.466  20.292  1.00  0.00     0.059 A 
ATOM     36  C   UNL     1      13.835 -16.734  20.126  1.00  0.00     0.055 A 
ATOM     37  C   UNL     1      14.617 -15.936  19.230  1.00  0.00     0.099 C 
ATOM     38  N   UNL     1      15.249 -15.292  18.500  1.00  0.00    -0.192 NA
ATOM     39  F   UNL     1      10.416 -16.955  21.321  1.00  0.00    -0.206 F 
ENDBRANCH  29  31
ENDBRANCH   3  23
TORSDOF 5
