REMARK SMILES O=C(NC1CCCC1)c1ccc(N(CCCl)CCCl)cc1
REMARK SMILES IDX 13 1 12 2 9 3 10 4 21 5 11 6 20 7 2 8 1 9 3 10 4 12 5 13
REMARK SMILES IDX 8 14 6 15 7 16 14 17 15 18 16 19 17 20 18 21 19 22
REMARK H PARENT 3 11
REMARK INDEX MAP 13 1 12 2 9 3 10 4 21 5 11 6 20 7 2 8 1 9 3 10 22 11 4 12
REMARK INDEX MAP 5 13 8 14 6 15 7 16 14 17 15 18 16 19 17 20 18 21 19 22
ROOT
ATOM      1  N   UNL     1      14.619   3.420  25.177  1.00  0.00    -0.369 N 
ENDROOT
BRANCH   1   2
ATOM      2  C   UNL     1      14.258   3.060  26.471  1.00  0.00     0.037 A 
ATOM      3  C   UNL     1      13.527   2.325  29.143  1.00  0.00     0.039 A 
ATOM      4  C   UNL     1      12.899   3.388  28.501  1.00  0.00     0.016 A 
ATOM      5  C   UNL     1      14.502   1.607  28.453  1.00  0.00     0.016 A 
ATOM      6  C   UNL     1      13.266   3.746  27.194  1.00  0.00     0.027 A 
ATOM      7  C   UNL     1      14.857   1.978  27.145  1.00  0.00     0.027 A 
BRANCH   3   8
ATOM      8  C   UNL     1      13.106   1.977  30.527  1.00  0.00     0.251 C 
ATOM      9  O   UNL     1      13.750   2.389  31.485  1.00  0.00    -0.269 OA
ATOM     10  N   UNL     1      11.996   1.166  30.646  1.00  0.00    -0.349 N 
ATOM     11  H   UNL     1      11.532   0.818  29.795  1.00  0.00     0.164 HD
BRANCH  10  12
ATOM     12  C   UNL     1      11.468   0.793  31.949  1.00  0.00     0.082 C 
ATOM     13  C   UNL     1      10.504  -0.386  31.845  1.00  0.00     0.025 C 
ATOM     14  C   UNL     1      10.579   1.890  32.530  1.00  0.00     0.025 C 
ATOM     15  C   UNL     1       9.169   0.229  31.429  1.00  0.00     0.002 C 
ATOM     16  C   UNL     1       9.235   1.703  31.830  1.00  0.00     0.002 C 
ENDBRANCH  10  12
ENDBRANCH   3   8
ENDBRANCH   1   2
BRANCH   1  17
ATOM     17  C   UNL     1      13.763   4.279  24.334  1.00  0.00     0.132 C 
BRANCH  17  18
ATOM     18  C   UNL     1      13.068   3.468  23.238  1.00  0.00     0.131 C 
ATOM     19  Cl  UNL     1      11.971   2.260  23.952  1.00  0.00    -0.125 Cl
ENDBRANCH  17  18
ENDBRANCH   1  17
BRANCH   1  20
ATOM     20  C   UNL     1      15.876   2.963  24.554  1.00  0.00     0.132 C 
BRANCH  20  21
ATOM     21  C   UNL     1      16.814   4.136  24.264  1.00  0.00     0.131 C 
ATOM     22  Cl  UNL     1      18.513   3.601  24.292  1.00  0.00    -0.125 Cl
ENDBRANCH  20  21
ENDBRANCH   1  20
TORSDOF 7
