REMARK SMILES COc1cn([C@@H](Cc2ccccc2)c2cn(-c3ccc(C(=O)O)cc3)nn2)c(=O)cc1-c1cc(Cl)ccc1-n1cc(Cl)nn1
REMARK SMILES IDX 14 1 15 2 16 3 26 4 27 5 6 6 5 7 3 8 4 9 31 10 30 11 28 12
REMARK SMILES IDX 29 13 2 14 1 15 32 16 33 17 38 18 34 19 37 20 36 21 35 22
REMARK SMILES IDX 39 23 40 24 44 25 41 26 43 27 42 28 7 29 8 30 9 31 13 32
REMARK SMILES IDX 10 33 12 34 11 35 17 36 18 37 25 38 19 39 24 40 20 41 21 42
REMARK SMILES IDX 22 43 23 44
REMARK H PARENT 23 45
REMARK INDEX MAP 14 1 15 2 16 3 26 4 27 5 6 6 5 7 3 8 4 9 31 10 30 11 28 12
REMARK INDEX MAP 29 13 2 14 1 15 32 16 33 17 38 18 34 19 37 20 36 21 35 22
REMARK INDEX MAP 39 23 40 24 44 25 41 26 43 27 42 28 7 29 8 30 9 31 13 32
REMARK INDEX MAP 10 33 12 34 11 35 17 36 18 37 25 38 19 39 24 40 20 41 21 42
REMARK INDEX MAP 22 43 23 44 60 45
ROOT
ATOM      1  C   UNL     1      -3.838  13.450  23.864  1.00  0.00     0.106 A 
ATOM      2  C   UNL     1      -4.657  14.121  24.748  1.00  0.00     0.143 A 
ATOM      3  N   UNL     1      -4.767  15.394  24.240  1.00  0.00    -0.220 N 
ATOM      4  N   UNL     1      -4.036  15.482  23.099  1.00  0.00    -0.062 NA
ATOM      5  N   UNL     1      -3.467  14.310  22.867  1.00  0.00    -0.133 NA
ENDROOT
BRANCH   1   6
ATOM      6  C   UNL     1      -3.392  12.014  23.881  1.00  0.00     0.147 C 
BRANCH   6   7
ATOM      7  N   UNL     1      -3.789  11.391  22.596  1.00  0.00    -0.302 N 
ATOM      8  C   UNL     1      -5.536  10.704  21.112  1.00  0.00     0.143 A 
ATOM      9  C   UNL     1      -5.132  11.322  22.235  1.00  0.00     0.137 A 
ATOM     10  C   UNL     1      -4.544  10.068  20.249  1.00  0.00     0.033 A 
ATOM     11  C   UNL     1      -3.240  10.146  20.567  1.00  0.00     0.084 A 
ATOM     12  C   UNL     1      -2.792  10.830  21.806  1.00  0.00     0.252 A 
ATOM     13  O   UNL     1      -1.592  10.850  22.066  1.00  0.00    -0.269 OA
BRANCH   8  14
ATOM     14  O   UNL     1      -6.831  10.562  20.671  1.00  0.00    -0.495 OA
ATOM     15  C   UNL     1      -7.692   9.691  21.394  1.00  0.00     0.278 C 
ENDBRANCH   8  14
BRANCH  10  16
ATOM     16  C   UNL     1      -4.898   9.331  19.011  1.00  0.00     0.013 A 
ATOM     17  C   UNL     1      -5.149   7.951  19.178  1.00  0.00     0.031 A 
ATOM     18  C   UNL     1      -4.896   9.871  17.703  1.00  0.00     0.074 A 
ATOM     19  C   UNL     1      -5.393   7.125  18.084  1.00  0.00     0.041 A 
ATOM     20  C   UNL     1      -5.123   9.005  16.608  1.00  0.00     0.030 A 
ATOM     21  C   UNL     1      -5.376   7.645  16.799  1.00  0.00     0.023 A 
ATOM     22  Cl  UNL     1      -5.701   5.450  18.327  1.00  0.00    -0.084 Cl
BRANCH  18  23
ATOM     23  N   UNL     1      -4.671  11.250  17.403  1.00  0.00    -0.219 N 
ATOM     24  C   UNL     1      -5.438  12.362  17.654  1.00  0.00     0.158 A 
ATOM     25  N   UNL     1      -3.564  11.634  16.708  1.00  0.00    -0.061 NA
ATOM     26  C   UNL     1      -4.711  13.419  17.167  1.00  0.00     0.171 A 
ATOM     27  N   UNL     1      -3.569  12.956  16.594  1.00  0.00    -0.118 NA
ATOM     28  Cl  UNL     1      -5.146  15.058  17.214  1.00  0.00    -0.058 Cl
ENDBRANCH  18  23
ENDBRANCH  10  16
ENDBRANCH   6   7
BRANCH   6  29
ATOM     29  C   UNL     1      -1.894  11.827  24.203  1.00  0.00     0.067 C 
BRANCH  29  30
ATOM     30  C   UNL     1      -1.649  10.787  25.274  1.00  0.00    -0.046 A 
ATOM     31  C   UNL     1      -2.617  10.534  26.256  1.00  0.00     0.004 A 
ATOM     32  C   UNL     1      -0.463  10.040  25.277  1.00  0.00     0.004 A 
ATOM     33  C   UNL     1      -2.398   9.556  27.226  1.00  0.00     0.000 A 
ATOM     34  C   UNL     1      -0.247   9.063  26.249  1.00  0.00     0.000 A 
ATOM     35  C   UNL     1      -1.213   8.821  27.223  1.00  0.00     0.000 A 
ENDBRANCH  29  30
ENDBRANCH   6  29
ENDBRANCH   1   6
BRANCH   3  36
ATOM     36  C   UNL     1      -5.504  16.495  24.746  1.00  0.00     0.066 A 
ATOM     37  C   UNL     1      -6.223  16.354  25.943  1.00  0.00     0.029 A 
ATOM     38  C   UNL     1      -5.523  17.723  24.070  1.00  0.00     0.029 A 
ATOM     39  C   UNL     1      -6.948  17.432  26.461  1.00  0.00     0.018 A 
ATOM     40  C   UNL     1      -6.256  18.798  24.589  1.00  0.00     0.018 A 
ATOM     41  C   UNL     1      -6.968  18.657  25.785  1.00  0.00     0.060 A 
BRANCH  41  42
ATOM     42  C   UNL     1      -7.743  19.774  26.378  1.00  0.00     0.335 C 
ATOM     43  O   UNL     1      -8.951  19.809  26.514  1.00  0.00    -0.246 OA
BRANCH  42  44
ATOM     44  O   UNL     1      -6.964  20.797  26.774  1.00  0.00    -0.478 OA
ATOM     45  H   UNL     1      -7.372  21.600  27.185  1.00  0.00     0.297 HD
ENDBRANCH  42  44
ENDBRANCH  41  42
ENDBRANCH   3  36
TORSDOF 10
