MODEL 3
REMARK VINA RESULT:    -9.750      3.262      4.296
REMARK INTER + INTRA:         -15.718
REMARK INTER:                 -15.031
REMARK INTRA:                  -0.686
REMARK UNBOUND:                -0.838
REMARK SMILES COCC(=O)NC/C=C/c1ccc2ncnc(Nc3ccc(Oc4ccc(C)nc4)c(C)c3)c2c1
REMARK SMILES IDX 10 1 11 2 12 3 13 4 14 5 15 6 16 7 17 8 34 9 35 10 9 11 8 12
REMARK SMILES IDX 7 13 6 14 4 15 5 16 3 18 2 19 1 20 18 21 19 23 33 24 20 25
REMARK SMILES IDX 31 26 21 27 22 28 32 29 23 30 24 31 30 32 25 33 29 34 26 35
REMARK SMILES IDX 27 36 28 37
REMARK H PARENT 6 17 18 22
ROOT
ATOM      1  C   UNL     1      17.400   3.057  25.201  1.00  0.00    -0.025 A 
ATOM      2  C   UNL     1      18.265   2.030  24.819  1.00  0.00     0.010 A 
ATOM      3  C   UNL     1      18.137   0.743  25.334  1.00  0.00     0.030 A 
ATOM      4  C   UNL     1      17.113   0.449  26.264  1.00  0.00     0.076 A 
ATOM      5  N   UNL     1      17.015  -0.820  26.753  1.00  0.00    -0.236 NA
ATOM      6  C   UNL     1      16.021  -1.050  27.645  1.00  0.00     0.224 A 
ATOM      7  N   UNL     1      15.116  -0.154  28.099  1.00  0.00    -0.219 NA
ATOM      8  C   UNL     1      15.207   1.110  27.610  1.00  0.00     0.141 A 
ATOM      9  C   UNL     1      16.215   1.484  26.668  1.00  0.00     0.044 A 
ATOM     10  C   UNL     1      16.378   2.786  26.120  1.00  0.00     0.022 A 
ENDROOT
BRANCH   1  11
ATOM     11  C   UNL     1      17.585   4.398  24.609  1.00  0.00     0.005 C 
ATOM     12  C   UNL     1      18.717   4.882  24.064  1.00  0.00    -0.005 C 
BRANCH  12  13
ATOM     13  C   UNL     1      18.861   6.261  23.443  1.00  0.00     0.143 C 
BRANCH  13  14
ATOM     14  N   UNL     1      20.110   6.932  23.801  1.00  0.00    -0.351 N 
ATOM     15  C   UNL     1      21.192   7.044  23.007  1.00  0.00     0.246 C 
ATOM     16  O   UNL     1      21.243   6.573  21.870  1.00  0.00    -0.272 OA
ATOM     17  H   UNL     1      20.125   7.399  24.697  1.00  0.00     0.163 HD
BRANCH  15  18
ATOM     18  C   UNL     1      22.404   7.829  23.546  1.00  0.00     0.259 C 
BRANCH  18  19
ATOM     19  O   UNL     1      22.930   7.257  24.747  1.00  0.00    -0.375 OA
ATOM     20  C   UNL     1      24.088   6.445  24.575  1.00  0.00     0.195 C 
ENDBRANCH  18  19
ENDBRANCH  15  18
ENDBRANCH  13  14
ENDBRANCH  12  13
ENDBRANCH   1  11
BRANCH   8  21
ATOM     21  N   UNL     1      14.291   2.074  28.077  1.00  0.00    -0.340 N 
ATOM     22  H   UNL     1      14.475   3.002  27.726  1.00  0.00     0.168 HD
BRANCH  21  23
ATOM     23  C   UNL     1      13.166   2.008  28.918  1.00  0.00     0.040 A 
ATOM     24  C   UNL     1      13.389   1.829  30.286  1.00  0.00     0.033 A 
ATOM     25  C   UNL     1      11.850   2.150  28.458  1.00  0.00     0.030 A 
ATOM     26  C   UNL     1      12.322   1.771  31.188  1.00  0.00    -0.006 A 
ATOM     27  C   UNL     1      10.781   2.093  29.349  1.00  0.00     0.049 A 
ATOM     28  C   UNL     1      11.009   1.906  30.714  1.00  0.00     0.130 A 
ATOM     29  C   UNL     1      12.592   1.558  32.668  1.00  0.00     0.048 C 
BRANCH  28  30
ATOM     30  O   UNL     1       9.938   1.858  31.575  1.00  0.00    -0.455 OA
BRANCH  30  31
ATOM     31  C   UNL     1       9.257   0.675  31.787  1.00  0.00     0.145 A 
ATOM     32  C   UNL     1       9.958  -0.522  31.617  1.00  0.00     0.158 A 
ATOM     33  C   UNL     1       7.906   0.587  32.167  1.00  0.00     0.050 A 
ATOM     34  N   UNL     1       9.403  -1.749  31.797  1.00  0.00    -0.258 NA
ATOM     35  C   UNL     1       7.315  -0.664  32.358  1.00  0.00     0.027 A 
ATOM     36  C   UNL     1       8.097  -1.806  32.163  1.00  0.00     0.038 A 
ATOM     37  C   UNL     1       7.525  -3.198  32.354  1.00  0.00     0.066 C 
ENDBRANCH  30  31
ENDBRANCH  28  30
ENDBRANCH  21  23
ENDBRANCH   8  21
TORSDOF 9
ENDMDL
