REMARK SMILES COc1ccc2c(ccn2S(=O)(=O)c2cccc(C(=O)Nc3ccc(Cl)cc3C(=O)O)c2)c1C
REMARK SMILES IDX 14 1 15 2 16 3 17 4 18 5 32 6 11 7 12 8 13 9 10 10 3 11 4 12
REMARK SMILES IDX 33 13 5 14 7 15 6 16 8 17 9 18 34 19 2 20 1 21 19 22 20 23
REMARK SMILES IDX 21 24 22 26 23 27 28 28 24 29 27 30 25 31 26 32 29 33 30 34
REMARK SMILES IDX 31 35
REMARK H PARENT 21 25 31 36
REMARK INDEX MAP 14 1 15 2 16 3 17 4 18 5 32 6 11 7 12 8 13 9 10 10 3 11 4 12
REMARK INDEX MAP 33 13 5 14 7 15 6 16 8 17 9 18 34 19 2 20 1 21 19 22 20 23
REMARK INDEX MAP 21 24 45 25 22 26 23 27 28 28 24 29 27 30 25 31 26 32 29 33
REMARK INDEX MAP 30 34 31 35 49 36
ROOT
ATOM      1  C   UNL     1       9.765  11.463  -6.353  1.00  0.00     0.089 A 
ATOM      2  C   UNL     1      10.444  11.726  -5.158  1.00  0.00     0.022 A 
ATOM      3  C   UNL     1       9.862  11.369  -3.943  1.00  0.00     0.002 A 
ATOM      4  C   UNL     1       8.608  10.754  -3.924  1.00  0.00     0.014 A 
ATOM      5  C   UNL     1       7.924  10.501  -5.120  1.00  0.00     0.041 A 
ATOM      6  C   UNL     1       8.510  10.841  -6.346  1.00  0.00     0.036 A 
ENDROOT
BRANCH   1   7
ATOM      7  S   UNL     1      10.525  11.882  -7.901  1.00  0.00     0.268 S 
ATOM      8  O   UNL     1      11.951  12.013  -7.687  1.00  0.00    -0.201 OA
ATOM      9  O   UNL     1       9.743  12.927  -8.534  1.00  0.00    -0.201 OA
BRANCH   7  10
ATOM     10  N   UNL     1      10.268  10.488  -8.852  1.00  0.00    -0.241 N 
ATOM     11  C   UNL     1      10.724   9.523 -12.869  1.00  0.00     0.122 A 
ATOM     12  C   UNL     1      10.822  10.876 -12.549  1.00  0.00     0.049 A 
ATOM     13  C   UNL     1      10.489   8.561 -11.857  1.00  0.00     0.000 A 
ATOM     14  C   UNL     1      10.699  11.320 -11.228  1.00  0.00     0.032 A 
ATOM     15  C   UNL     1      10.348   9.007 -10.517  1.00  0.00     0.007 A 
ATOM     16  C   UNL     1      10.460  10.375 -10.218  1.00  0.00     0.065 A 
ATOM     17  C   UNL     1      10.098   8.326  -9.286  1.00  0.00     0.030 A 
ATOM     18  C   UNL     1      10.067   9.258  -8.279  1.00  0.00     0.105 A 
ATOM     19  C   UNL     1      10.386   7.104 -12.243  1.00  0.00     0.049 C 
BRANCH  11  20
ATOM     20  O   UNL     1      10.857   9.016 -14.136  1.00  0.00    -0.496 OA
ATOM     21  C   UNL     1      11.430   9.854 -15.132  1.00  0.00     0.278 C 
ENDBRANCH  11  20
ENDBRANCH   7  10
ENDBRANCH   1   7
BRANCH   5  22
ATOM     22  C   UNL     1       6.598   9.827  -5.043  1.00  0.00     0.255 C 
ATOM     23  O   UNL     1       5.694  10.248  -5.754  1.00  0.00    -0.269 OA
ATOM     24  N   UNL     1       6.541   8.749  -4.182  1.00  0.00    -0.321 N 
ATOM     25  H   UNL     1       7.429   8.492  -3.727  1.00  0.00     0.170 HD
BRANCH  24  26
ATOM     26  C   UNL     1       5.422   7.950  -3.843  1.00  0.00     0.056 A 
ATOM     27  C   UNL     1       4.647   8.211  -2.704  1.00  0.00     0.028 A 
ATOM     28  C   UNL     1       5.074   6.842  -4.654  1.00  0.00     0.084 A 
ATOM     29  C   UNL     1       3.552   7.406  -2.373  1.00  0.00     0.023 A 
ATOM     30  C   UNL     1       3.970   6.039  -4.311  1.00  0.00     0.038 A 
ATOM     31  C   UNL     1       3.218   6.324  -3.177  1.00  0.00     0.042 A 
ATOM     32  Cl  UNL     1       1.873   5.335  -2.769  1.00  0.00    -0.084 Cl
BRANCH  28  33
ATOM     33  C   UNL     1       5.808   6.421  -5.879  1.00  0.00     0.337 C 
ATOM     34  O   UNL     1       6.570   7.125  -6.516  1.00  0.00    -0.246 OA
BRANCH  33  35
ATOM     35  O   UNL     1       5.570   5.151  -6.264  1.00  0.00    -0.478 OA
ATOM     36  H   UNL     1       6.016   4.786  -7.069  1.00  0.00     0.297 HD
ENDBRANCH  33  35
ENDBRANCH  28  33
ENDBRANCH  24  26
ENDBRANCH   5  22
TORSDOF 7
