MODEL 3
REMARK VINA RESULT:    -7.758      2.632     10.517
REMARK INTER + INTRA:         -14.998
REMARK INTER:                 -13.992
REMARK INTRA:                  -1.006
REMARK UNBOUND:                -1.344
REMARK SMILES CCCc1c(OCCCSc2ccc(CC(=O)O)cc2Cl)ccc(C(=O)CC)c1O
REMARK SMILES IDX 8 1 7 2 6 3 5 4 4 5 29 6 22 7 24 8 23 9 3 10 2 11 1 12 30 13
REMARK SMILES IDX 25 15 26 16 27 17 28 18 9 19 10 20 11 21 12 22 20 23 13 24
REMARK SMILES IDX 19 25 14 26 21 27 15 28 16 29 17 30 18 31
REMARK H PARENT 30 14 18 32
ROOT
ATOM      1  C   UNL     1       7.926   4.989  -6.508  1.00  0.00     0.053 C 
ENDROOT
BRANCH   1   2
ATOM      2  C   UNL     1       6.400   5.048  -6.448  1.00  0.00     0.230 C 
BRANCH   2   3
ATOM      3  O   UNL     1       5.998   6.379  -6.129  1.00  0.00    -0.493 OA
BRANCH   3   4
ATOM      4  C   UNL     1       5.272   6.575  -4.984  1.00  0.00     0.126 A 
ATOM      5  C   UNL     1       4.877   7.900  -4.716  1.00  0.00     0.037 A 
ATOM      6  C   UNL     1       4.125   8.166  -3.552  1.00  0.00     0.133 A 
ATOM      7  C   UNL     1       4.904   5.552  -4.105  1.00  0.00     0.048 A 
ATOM      8  C   UNL     1       3.768   7.139  -2.658  1.00  0.00     0.060 A 
ATOM      9  C   UNL     1       4.158   5.830  -2.952  1.00  0.00     0.019 A 
BRANCH   5  10
ATOM     10  C   UNL     1       5.234   9.033  -5.662  1.00  0.00     0.043 C 
BRANCH  10  11
ATOM     11  C   UNL     1       6.627   9.625  -5.418  1.00  0.00     0.002 C 
ATOM     12  C   UNL     1       6.791  10.239  -4.036  1.00  0.00     0.004 C 
ENDBRANCH  10  11
ENDBRANCH   5  10
BRANCH   6  13
ATOM     13  O   UNL     1       3.765   9.474  -3.330  1.00  0.00    -0.507 OA
ATOM     14  H   UNL     1       3.012   9.695  -3.923  1.00  0.00     0.293 HD
ENDBRANCH   6  13
BRANCH   8  15
ATOM     15  C   UNL     1       2.980   7.461  -1.427  1.00  0.00     0.166 C 
ATOM     16  O   UNL     1       3.171   8.544  -0.868  1.00  0.00    -0.294 OA
BRANCH  15  17
ATOM     17  C   UNL     1       1.962   6.482  -0.881  1.00  0.00     0.078 C 
ATOM     18  C   UNL     1       1.929   6.518   0.634  1.00  0.00     0.012 C 
ENDBRANCH  15  17
ENDBRANCH   8  15
ENDBRANCH   3   4
ENDBRANCH   2   3
ENDBRANCH   1   2
BRANCH   1  19
ATOM     19  C   UNL     1       8.506   6.190  -7.254  1.00  0.00     0.078 C 
BRANCH  19  20
ATOM     20  S   UNL     1      10.052   5.755  -8.130  1.00  0.00    -0.124 SA
BRANCH  20  21
ATOM     21  C   UNL     1      10.214   7.172  -9.215  1.00  0.00     0.026 A 
ATOM     22  C   UNL     1      10.027   8.437  -8.640  1.00  0.00     0.017 A 
ATOM     23  C   UNL     1      10.477   7.091 -10.591  1.00  0.00     0.054 A 
ATOM     24  C   UNL     1      10.133   9.600  -9.410  1.00  0.00     0.005 A 
ATOM     25  C   UNL     1      10.581   8.257 -11.361  1.00  0.00     0.026 A 
ATOM     26  C   UNL     1      10.420   9.521 -10.776  1.00  0.00    -0.035 A 
ATOM     27  Cl  UNL     1      10.673   5.582 -11.416  1.00  0.00    -0.083 Cl
BRANCH  26  28
ATOM     28  C   UNL     1      10.516  10.774 -11.614  1.00  0.00     0.158 C 
BRANCH  28  29
ATOM     29  C   UNL     1      10.344  10.537 -13.094  1.00  0.00     0.307 C 
ATOM     30  O   UNL     1       9.308  10.429 -13.727  1.00  0.00    -0.252 OA
BRANCH  29  31
ATOM     31  O   UNL     1      11.533  10.447 -13.728  1.00  0.00    -0.481 OA
ATOM     32  H   UNL     1      11.930   9.626 -13.367  1.00  0.00     0.296 HD
ENDBRANCH  29  31
ENDBRANCH  28  29
ENDBRANCH  26  28
ENDBRANCH  20  21
ENDBRANCH  19  20
ENDBRANCH   1  19
TORSDOF 14
ENDMDL
