REMARK VINA RESULT:   -11.601      0.000      0.000
REMARK INTER + INTRA:         -23.581
REMARK INTER:                 -21.096
REMARK INTRA:                  -2.484
REMARK UNBOUND:                -2.484
REMARK SMILES COc1cccc2cc(CN(CCCCCCNc3c4c(nc5ccccc35)CCC4)Cc3cc4cccc(OC)c4o3)oc12
REMARK SMILES IDX 13 1 12 2 11 3 10 4 9 5 3 6 4 7 45 8 5 9 44 10 7 11 6 12
REMARK SMILES IDX 8 13 2 14 1 15 32 16 33 17 34 18 43 19 35 20 42 21 36 22
REMARK SMILES IDX 39 23 37 24 38 25 40 26 41 27 14 28 15 29 16 30 17 31 18 32
REMARK SMILES IDX 19 34 20 35 28 36 21 37 31 38 27 39 23 40 22 41 29 42 30 43
REMARK SMILES IDX 26 44 24 45 25 46
REMARK H PARENT 18 33
ROOT
ATOM      1  C   UNL     1     136.323 112.605  41.307  1.00  0.00     0.016 C 
ENDROOT
BRANCH   1   2
ATOM      2  C   UNL     1     136.792 111.730  40.134  1.00  0.00     0.085 C 
BRANCH   2   3
ATOM      3  N   UNL     1     138.205 111.312  40.217  1.00  0.00    -0.289 NA
BRANCH   3   4
ATOM      4  C   UNL     1     139.129 112.203  39.479  1.00  0.00     0.160 C 
BRANCH   4   5
ATOM      5  C   UNL     1     139.778 113.282  40.282  1.00  0.00     0.119 A 
ATOM      6  C   UNL     1     139.752 116.734  41.158  1.00  0.00     0.162 A 
ATOM      7  C   UNL     1     140.645 117.381  42.026  1.00  0.00     0.050 A 
ATOM      8  C   UNL     1     139.969 115.360  40.986  1.00  0.00     0.176 A 
ATOM      9  C   UNL     1     141.684 116.688  42.662  1.00  0.00     0.005 A 
ATOM     10  O   UNL     1     139.231 114.529  40.192  1.00  0.00    -0.456 OA
ATOM     11  C   UNL     1     140.989 114.640  41.600  1.00  0.00     0.024 A 
ATOM     12  C   UNL     1     141.871 115.316  42.458  1.00  0.00     0.012 A 
ATOM     13  C   UNL     1     140.848 113.300  41.153  1.00  0.00     0.056 A 
BRANCH   6  14
ATOM     14  O   UNL     1     138.711 117.321  40.495  1.00  0.00    -0.493 OA
ATOM     15  C   UNL     1     137.401 117.009  40.952  1.00  0.00     0.278 C 
ENDBRANCH   6  14
ENDBRANCH   4   5
ENDBRANCH   3   4
BRANCH   3  16
ATOM     16  C   UNL     1     138.325 109.900  39.799  1.00  0.00     0.160 C 
BRANCH  16  17
ATOM     17  C   UNL     1     138.838 109.735  38.406  1.00  0.00     0.119 A 
ATOM     18  C   UNL     1     138.268 109.891  37.158  1.00  0.00     0.056 A 
ATOM     19  O   UNL     1     140.147 109.371  38.279  1.00  0.00    -0.456 OA
ATOM     20  C   UNL     1     139.290 109.628  36.209  1.00  0.00     0.024 A 
ATOM     21  C   UNL     1     140.425 109.305  36.945  1.00  0.00     0.176 A 
ATOM     22  C   UNL     1     139.377 109.631  34.807  1.00  0.00     0.012 A 
ATOM     23  C   UNL     1     141.663 108.962  36.388  1.00  0.00     0.162 A 
ATOM     24  C   UNL     1     140.606 109.317  34.212  1.00  0.00     0.005 A 
ATOM     25  C   UNL     1     141.725 108.991  34.988  1.00  0.00     0.050 A 
BRANCH  23  26
ATOM     26  O   UNL     1     142.700 108.659  37.228  1.00  0.00    -0.493 OA
ATOM     27  C   UNL     1     142.787 107.305  37.656  1.00  0.00     0.278 C 
ENDBRANCH  23  26
ENDBRANCH  16  17
ENDBRANCH   3  16
ENDBRANCH   2   3
ENDBRANCH   1   2
BRANCH   1  28
ATOM     28  C   UNL     1     135.611 111.757  42.367  1.00  0.00     0.001 C 
BRANCH  28  29
ATOM     29  C   UNL     1     134.922 112.628  43.421  1.00  0.00     0.002 C 
BRANCH  29  30
ATOM     30  C   UNL     1     134.646 114.034  42.876  1.00  0.00     0.021 C 
BRANCH  30  31
ATOM     31  C   UNL     1     133.254 114.573  43.225  1.00  0.00     0.113 C 
BRANCH  31  32
ATOM     32  N   UNL     1     132.507 114.858  42.015  1.00  0.00    -0.384 N 
ATOM     33  H   UNL     1     131.497 114.793  42.055  1.00  0.00     0.160 HD
BRANCH  32  34
ATOM     34  C   UNL     1     133.062 115.187  40.787  1.00  0.00     0.049 A 
ATOM     35  C   UNL     1     133.348 114.248  39.806  1.00  0.00    -0.003 A 
ATOM     36  C   UNL     1     133.397 116.546  40.500  1.00  0.00     0.024 A 
ATOM     37  C   UNL     1     133.925 114.666  38.614  1.00  0.00     0.046 A 
ATOM     38  C   UNL     1     133.111 112.769  39.766  1.00  0.00     0.040 C 
ATOM     39  C   UNL     1     133.193 117.607  41.417  1.00  0.00     0.012 A 
ATOM     40  C   UNL     1     133.986 116.852  39.243  1.00  0.00     0.073 A 
ATOM     41  N   UNL     1     134.253 115.928  38.308  1.00  0.00    -0.252 NA
ATOM     42  C   UNL     1     134.159 113.511  37.680  1.00  0.00     0.057 C 
ATOM     43  C   UNL     1     133.197 112.475  38.261  1.00  0.00     0.011 C 
ATOM     44  C   UNL     1     133.534 118.924  41.102  1.00  0.00     0.001 A 
ATOM     45  C   UNL     1     134.318 118.170  38.958  1.00  0.00     0.029 A 
ATOM     46  C   UNL     1     134.098 119.206  39.868  1.00  0.00     0.002 A 
ENDBRANCH  32  34
ENDBRANCH  31  32
ENDBRANCH  30  31
ENDBRANCH  29  30
ENDBRANCH  28  29
ENDBRANCH   1  28
TORSDOF 14
