MODEL 4
REMARK VINA RESULT:    -8.328      1.690      3.454
REMARK INTER + INTRA:         -18.486
REMARK INTER:                 -15.945
REMARK INTRA:                  -2.541
REMARK UNBOUND:                -3.099
REMARK SMILES CO/N=C(\c1ccccc1)c1ccc2c(c1)C(C)(C)CCN2CCOc1ccc(C[C@H](Nc2ccccc2C(=O)c2ccccc2)C(=O)O)cc1
REMARK SMILES IDX 26 1 27 2 28 3 29 4 50 5 51 6 25 7 24 8 23 9 22 10 11 11
REMARK SMILES IDX 12 12 16 13 13 14 15 15 14 16 17 17 20 18 21 19 18 20 19 21
REMARK SMILES IDX 4 22 3 23 2 24 1 25 5 26 6 27 10 28 7 29 9 30 8 31 30 32
REMARK SMILES IDX 31 33 32 34 33 36 34 37 38 38 35 39 37 40 36 41 39 42 40 43
REMARK SMILES IDX 41 44 42 45 46 46 43 47 45 48 44 49 47 50 48 51 49 52
REMARK H PARENT 32 35 49 53
ROOT
ATOM      1  C   UNL     1       7.596   4.344  -5.368  1.00  0.00     0.119 A 
ATOM      2  C   UNL     1       7.121   5.032  -6.486  1.00  0.00     0.047 A 
ATOM      3  C   UNL     1       5.913   5.733  -6.434  1.00  0.00     0.007 A 
ATOM      4  C   UNL     1       5.160   5.752  -5.255  1.00  0.00    -0.045 A 
ATOM      5  C   UNL     1       5.632   5.049  -4.139  1.00  0.00     0.007 A 
ATOM      6  C   UNL     1       6.842   4.348  -4.194  1.00  0.00     0.047 A 
ENDROOT
BRANCH   1   7
ATOM      7  O   UNL     1       8.792   3.710  -5.556  1.00  0.00    -0.492 OA
BRANCH   7   8
ATOM      8  C   UNL     1       9.751   4.370  -6.388  1.00  0.00     0.251 C 
BRANCH   8   9
ATOM      9  C   UNL     1       9.340   4.230  -7.863  1.00  0.00     0.158 C 
BRANCH   9  10
ATOM     10  N   UNL     1      10.388   4.749  -8.768  1.00  0.00    -0.368 N 
ATOM     11  C   UNL     1      10.240   8.863  -9.785  1.00  0.00     0.005 A 
ATOM     12  C   UNL     1      10.121   8.447  -8.461  1.00  0.00     0.012 A 
ATOM     13  C   UNL     1      10.406   7.894 -10.784  1.00  0.00     0.017 A 
ATOM     14  C   UNL     1      10.167   7.085  -8.150  1.00  0.00     0.027 A 
ATOM     15  C   UNL     1      10.434   6.512 -10.485  1.00  0.00    -0.018 A 
ATOM     16  C   UNL     1      10.315   6.095  -9.139  1.00  0.00     0.041 A 
ATOM     17  C   UNL     1      10.610   5.493 -11.617  1.00  0.00    -0.007 C 
ATOM     18  C   UNL     1      10.298   4.068 -11.110  1.00  0.00     0.032 C 
ATOM     19  C   UNL     1      10.934   3.820  -9.754  1.00  0.00     0.117 C 
ATOM     20  C   UNL     1       9.648   5.769 -12.795  1.00  0.00     0.016 C 
ATOM     21  C   UNL     1      12.061   5.567 -12.137  1.00  0.00     0.016 C 
BRANCH  11  22
ATOM     22  C   UNL     1      10.221  10.314 -10.169  1.00  0.00     0.117 C 
ATOM     23  N   UNL     1      10.138  11.210  -9.226  1.00  0.00    -0.086 NA
BRANCH  23  24
ATOM     24  O   UNL     1      10.170  12.519  -9.730  1.00  0.00    -0.399 OA
ATOM     25  C   UNL     1       9.991  13.423  -8.650  1.00  0.00     0.315 C 
ENDBRANCH  23  24
BRANCH  22  26
ATOM     26  C   UNL     1      10.304  10.660 -11.613  1.00  0.00     0.004 A 
ATOM     27  C   UNL     1      11.545  10.963 -12.178  1.00  0.00     0.010 A 
ATOM     28  C   UNL     1       9.140  10.685 -12.386  1.00  0.00     0.010 A 
ATOM     29  C   UNL     1      11.618  11.300 -13.528  1.00  0.00     0.001 A 
ATOM     30  C   UNL     1       9.223  11.024 -13.736  1.00  0.00     0.001 A 
ATOM     31  C   UNL     1      10.459  11.334 -14.304  1.00  0.00     0.000 A 
ENDBRANCH  22  26
ENDBRANCH  11  22
ENDBRANCH   9  10
ENDBRANCH   8   9
ENDBRANCH   7   8
ENDBRANCH   1   7
BRANCH   4  32
ATOM     32  C   UNL     1       3.857   6.517  -5.189  1.00  0.00     0.072 C 
BRANCH  32  33
ATOM     33  C   UNL     1       3.979   7.983  -5.644  1.00  0.00     0.194 C 
BRANCH  33  34
ATOM     34  N   UNL     1       3.762   8.859  -4.472  1.00  0.00    -0.371 N 
ATOM     35  H   UNL     1       3.141   9.655  -4.682  1.00  0.00     0.161 HD
BRANCH  34  36
ATOM     36  C   UNL     1       4.841   9.281  -3.676  1.00  0.00     0.046 A 
ATOM     37  C   UNL     1       5.919   9.981  -4.246  1.00  0.00     0.026 A 
ATOM     38  C   UNL     1       4.933   8.927  -2.304  1.00  0.00     0.046 A 
ATOM     39  C   UNL     1       7.046  10.328  -3.495  1.00  0.00     0.002 A 
ATOM     40  C   UNL     1       6.089   9.252  -1.569  1.00  0.00     0.014 A 
ATOM     41  C   UNL     1       7.136   9.958  -2.161  1.00  0.00     0.001 A 
BRANCH  38  42
ATOM     42  C   UNL     1       3.806   8.203  -1.626  1.00  0.00     0.195 C 
ATOM     43  O   UNL     1       2.864   8.822  -1.131  1.00  0.00    -0.289 OA
BRANCH  42  44
ATOM     44  C   UNL     1       3.786   6.726  -1.508  1.00  0.00     0.023 A 
ATOM     45  C   UNL     1       2.714   5.970  -2.001  1.00  0.00     0.012 A 
ATOM     46  C   UNL     1       4.893   6.087  -0.937  1.00  0.00     0.012 A 
ATOM     47  C   UNL     1       2.734   4.578  -1.875  1.00  0.00     0.001 A 
ATOM     48  C   UNL     1       4.908   4.697  -0.813  1.00  0.00     0.001 A 
ATOM     49  C   UNL     1       3.825   3.946  -1.275  1.00  0.00     0.000 A 
ENDBRANCH  42  44
ENDBRANCH  38  42
ENDBRANCH  34  36
ENDBRANCH  33  34
BRANCH  33  50
ATOM     50  C   UNL     1       2.944   8.260  -6.739  1.00  0.00     0.326 C 
ATOM     51  O   UNL     1       3.004   9.115  -7.612  1.00  0.00    -0.250 OA
BRANCH  50  52
ATOM     52  O   UNL     1       1.891   7.416  -6.696  1.00  0.00    -0.480 OA
ATOM     53  H   UNL     1       1.923   7.047  -5.789  1.00  0.00     0.296 HD
ENDBRANCH  50  52
ENDBRANCH  33  50
ENDBRANCH  32  33
ENDBRANCH   4  32
TORSDOF 15
ENDMDL
