REMARK VINA RESULT:    -6.876      4.917      6.431
REMARK INTER + INTRA:         -11.518
REMARK INTER:                 -10.411
REMARK INTRA:                  -1.107
REMARK UNBOUND:                -0.623
REMARK SMILES C1=C/COCc2ccc(o2)-c2ccnc(n2)Nc2cccc(c2)COC/1
REMARK SMILES IDX 11 1 12 2 13 3 14 4 15 5 16 6 9 7 6 8 7 9 10 10 8 11 5 12
REMARK SMILES IDX 4 13 3 14 2 15 1 16 17 18 18 20 19 21 23 22 20 23 22 24
REMARK SMILES IDX 21 25 24 26 25 27 26 28
REMARK H PARENT 17 19
REMARK Flexibility Score:   53.900
ROOT
ATOM      1  C   UNL     1     -11.536  18.412  19.258  1.00  0.00     0.111 A 
ATOM      2  C   UNL     1     -10.251  18.820  18.986  1.00  0.00     0.052 A 
ATOM      3  C   UNL     1      -9.272  17.905  19.276  1.00  0.00     0.117 A 
ATOM      4  N   UNL     1      -9.520  16.686  19.789  1.00  0.00    -0.221 NA
ATOM      5  C   UNL     1     -10.804  16.362  20.016  1.00  0.00     0.227 A 
ATOM      6  N   UNL     1     -11.816  17.197  19.767  1.00  0.00    -0.209 NA
ENDROOT
BRANCH   1   7
ATOM      7  C   UNL     1     -12.691  19.273  19.021  1.00  0.00     0.152 A 
ATOM      8  C   UNL     1     -14.861  19.674  19.056  1.00  0.00     0.130 A 
ATOM      9  C   UNL     1     -14.265  20.819  18.575  1.00  0.00     0.049 A 
ATOM     10  O   UNL     1     -13.911  18.736  19.323  1.00  0.00    -0.457 OA
ATOM     11  C   UNL     1     -12.870  20.561  18.551  1.00  0.00     0.053 A 
BRANCH   8  12
ATOM     12  C   UNL     1     -16.261  19.276  19.341  1.00  0.00     0.235 C 
BRANCH  12  13
ATOM     13  O   UNL     1     -16.311  17.893  19.701  1.00  0.00    -0.369 OA
BRANCH  13  14
ATOM     14  C   UNL     1     -16.875  17.043  18.702  1.00  0.00     0.188 C 
BRANCH  14  15
ATOM     15  C   UNL     1     -16.529  15.609  18.965  1.00  0.00    -0.001 C 
ATOM     16  C   UNL     1     -16.898  14.951  20.076  1.00  0.00    -0.001 CG0
ATOM     17  G   UNL     1     -16.619  13.506  20.347  1.00  0.00     0.000 G0
ENDBRANCH  14  15
ENDBRANCH  13  14
ENDBRANCH  12  13
ENDBRANCH   8  12
ENDBRANCH   1   7
BRANCH   5  18
ATOM     18  N   UNL     1     -11.012  15.093  20.549  1.00  0.00    -0.324 N 
ATOM     19  H   UNL     1     -10.644  15.062  21.487  1.00  0.00     0.170 HD
BRANCH  18  20
ATOM     20  C   UNL     1     -11.567  13.912  20.041  1.00  0.00     0.041 A 
ATOM     21  C   UNL     1     -10.746  13.048  19.300  1.00  0.00     0.026 A 
ATOM     22  C   UNL     1     -12.896  13.525  20.246  1.00  0.00     0.032 A 
ATOM     23  C   UNL     1     -11.240  11.852  18.770  1.00  0.00     0.003 A 
ATOM     24  C   UNL     1     -13.408  12.320  19.728  1.00  0.00    -0.020 A 
ATOM     25  C   UNL     1     -12.569  11.492  18.977  1.00  0.00     0.006 A 
BRANCH  24  26
ATOM     26  C   UNL     1     -14.856  11.968  19.941  1.00  0.00     0.196 C 
BRANCH  26  27
ATOM     27  O   UNL     1     -15.648  13.031  19.421  1.00  0.00    -0.373 OA
BRANCH  27  28
ATOM     28  C   UNL     1     -16.633  13.496  20.337  1.00  0.00     0.188 CG0
ATOM     29  G   UNL     1     -16.895  14.948  20.084  1.00  0.00     0.000 G0
ENDBRANCH  27  28
ENDBRANCH  26  27
ENDBRANCH  24  26
ENDBRANCH  18  20
ENDBRANCH   5  18
TORSDOF 0
