REMARK VINA RESULT:    -9.988      1.910      2.775
REMARK INTER + INTRA:         -11.822
REMARK INTER:                 -11.323
REMARK INTRA:                  -0.500
REMARK UNBOUND:                -0.083
REMARK SMILES Cc1ccccc1NC(=O)Oc1ccc2c(c1)[C@@]1(C)CO[C@H](C1)O2
REMARK SMILES IDX 8 1 9 2 10 3 7 5 2 6 3 7 4 8 6 9 5 10 1 11 11 12 12 13 13 14
REMARK SMILES IDX 17 15 14 16 16 17 15 18 18 19 24 20 20 21 23 22 22 23 21 24
REMARK SMILES IDX 19 25
REMARK H PARENT 8 4
ROOT
ATOM      1  N   UNL     1     138.827 114.030  40.920  1.00  0.00    -0.291 N 
ATOM      2  C   UNL     1     138.764 113.436  39.687  1.00  0.00     0.417 C 
ATOM      3  O   UNL     1     139.557 113.543  38.764  1.00  0.00    -0.224 OA
ATOM      4  H   UNL     1     138.050 113.786  41.517  1.00  0.00     0.173 HD
ENDROOT
BRANCH   1   5
ATOM      5  C   UNL     1     139.807 114.903  41.436  1.00  0.00     0.047 A 
ATOM      6  C   UNL     1     139.541 116.290  41.458  1.00  0.00    -0.027 A 
ATOM      7  C   UNL     1     140.510 117.172  41.970  1.00  0.00     0.005 A 
ATOM      8  C   UNL     1     141.725 116.695  42.453  1.00  0.00     0.000 A 
ATOM      9  C   UNL     1     141.035 114.442  41.926  1.00  0.00     0.026 A 
ATOM     10  C   UNL     1     141.988 115.331  42.431  1.00  0.00     0.002 A 
ATOM     11  C   UNL     1     138.247 116.870  40.950  1.00  0.00     0.046 C 
ENDBRANCH   1   5
BRANCH   2  12
ATOM     12  O   UNL     1     137.606 112.661  39.649  1.00  0.00    -0.410 OA
BRANCH  12  13
ATOM     13  C   UNL     1     136.416 113.283  40.055  1.00  0.00     0.133 A 
ATOM     14  C   UNL     1     135.750 114.065  39.114  1.00  0.00     0.051 A 
ATOM     15  C   UNL     1     135.968 113.192  41.377  1.00  0.00     0.055 A 
ATOM     16  C   UNL     1     134.596 114.747  39.489  1.00  0.00     0.051 A 
ATOM     17  C   UNL     1     134.801 113.863  41.758  1.00  0.00     0.006 A 
ATOM     18  C   UNL     1     134.128 114.647  40.799  1.00  0.00     0.126 A 
ATOM     19  C   UNL     1     134.218 113.821  43.167  1.00  0.00     0.026 C 
ATOM     20  O   UNL     1     132.979 115.339  41.096  1.00  0.00    -0.465 OA
ATOM     21  C   UNL     1     134.458 115.186  43.830  1.00  0.00     0.176 C 
ATOM     22  C   UNL     1     132.703 113.858  43.016  1.00  0.00     0.090 C 
ATOM     23  C   UNL     1     132.585 115.272  42.475  1.00  0.00     0.307 C 
ATOM     24  O   UNL     1     133.445 116.073  43.309  1.00  0.00    -0.342 OA
ATOM     25  C   UNL     1     134.684 112.657  44.036  1.00  0.00     0.019 C 
ENDBRANCH  12  13
ENDBRANCH   2  12
TORSDOF 3
