REMARK SMILES COc1ccc(C[C@H]2SC(=O)NC2=O)cc1C(=O)NCc1ccc(C(F)(F)F)cc1
REMARK SMILES IDX 17 1 18 2 19 3 16 5 3 6 4 7 5 8 15 9 6 10 2 11 1 12 7 13
REMARK SMILES IDX 8 14 9 15 13 16 10 17 12 18 14 19 11 20 20 22 21 23 22 24
REMARK SMILES IDX 30 25 23 26 29 27 24 28 25 29 26 30 27 31 28 32
REMARK H PARENT 19 4 12 21
REMARK INDEX MAP 17 1 18 2 19 3 41 4 16 5 3 6 4 7 5 8 15 9 6 10 2 11 1 12 7 13
REMARK INDEX MAP 8 14 9 15 13 16 10 17 12 18 14 19 11 20 39 21 20 22 21 23
REMARK INDEX MAP 22 24 30 25 23 26 29 27 24 28 25 29 26 30 27 31 28 32
ROOT
ATOM      1  C   UNL     1       9.713   4.446  -8.274  1.00  0.00     0.255 C 
ATOM      2  O   UNL     1       9.753   3.501  -9.056  1.00  0.00    -0.269 OA
ATOM      3  N   UNL     1      10.433   5.594  -8.484  1.00  0.00    -0.348 N 
ATOM      4  H   UNL     1      10.367   6.358  -7.797  1.00  0.00     0.164 HD
ENDROOT
BRANCH   1   5
ATOM      5  C   UNL     1       8.861   4.373  -7.038  1.00  0.00     0.082 A 
ATOM      6  C   UNL     1       9.243   3.742  -5.836  1.00  0.00     0.131 A 
ATOM      7  C   UNL     1       8.353   3.754  -4.754  1.00  0.00     0.047 A 
ATOM      8  C   UNL     1       7.110   4.388  -4.849  1.00  0.00     0.007 A 
ATOM      9  C   UNL     1       7.603   5.004  -7.119  1.00  0.00     0.021 A 
ATOM     10  C   UNL     1       6.723   5.026  -6.029  1.00  0.00    -0.045 A 
BRANCH   6  11
ATOM     11  O   UNL     1      10.474   3.138  -5.788  1.00  0.00    -0.496 OA
ATOM     12  C   UNL     1      10.789   2.347  -4.647  1.00  0.00     0.278 C 
ENDBRANCH   6  11
BRANCH  10  13
ATOM     13  C   UNL     1       5.389   5.736  -6.120  1.00  0.00     0.060 C 
BRANCH  13  14
ATOM     14  C   UNL     1       5.130   6.831  -5.076  1.00  0.00     0.150 C 
ATOM     15  S   UNL     1       5.239   8.535  -5.721  1.00  0.00    -0.051 SA
ATOM     16  C   UNL     1       3.750   6.723  -4.469  1.00  0.00     0.241 C 
ATOM     17  C   UNL     1       3.571   8.883  -5.342  1.00  0.00     0.286 C 
ATOM     18  N   UNL     1       3.003   7.839  -4.695  1.00  0.00    -0.286 N 
ATOM     19  O   UNL     1       3.342   5.753  -3.844  1.00  0.00    -0.273 OA
ATOM     20  O   UNL     1       3.020   9.935  -5.616  1.00  0.00    -0.261 OA
ATOM     21  H   UNL     1       2.024   7.888  -4.379  1.00  0.00     0.173 HD
ENDBRANCH  13  14
ENDBRANCH  10  13
ENDBRANCH   1   5
BRANCH   3  22
ATOM     22  C   UNL     1      11.279   5.762  -9.638  1.00  0.00     0.152 C 
BRANCH  22  23
ATOM     23  C   UNL     1      10.782   6.889 -10.504  1.00  0.00    -0.029 A 
ATOM     24  C   UNL     1      10.756   6.757 -11.898  1.00  0.00     0.006 A 
ATOM     25  C   UNL     1      10.394   8.107  -9.929  1.00  0.00     0.006 A 
ATOM     26  C   UNL     1      10.327   7.814 -12.702  1.00  0.00     0.013 A 
ATOM     27  C   UNL     1       9.963   9.164 -10.734  1.00  0.00     0.013 A 
ATOM     28  C   UNL     1       9.918   9.026 -12.130  1.00  0.00     0.056 A 
BRANCH  28  29
ATOM     29  C   UNL     1       9.478  10.178 -13.000  1.00  0.00     0.416 C 
ATOM     30  F   UNL     1       9.664  11.383 -12.393  1.00  0.00    -0.166 F 
ATOM     31  F   UNL     1       8.157  10.126 -13.331  1.00  0.00    -0.166 F 
ATOM     32  F   UNL     1      10.154  10.246 -14.181  1.00  0.00    -0.166 F 
ENDBRANCH  28  29
ENDBRANCH  22  23
ENDBRANCH   3  22
TORSDOF 7
