REMARK VINA RESULT:    -8.780      2.393      3.338
REMARK INTER + INTRA:         -15.527
REMARK INTER:                 -14.343
REMARK INTRA:                  -1.184
REMARK UNBOUND:                -0.845
REMARK SMILES CC(C)O[C@H](Cc1ccc(OCc2noc(-c3ccc(OC(F)(F)F)cc3)n2)cc1)C(=O)O
REMARK SMILES IDX 11 1 10 2 7 3 8 4 30 5 9 6 29 7 6 8 5 9 4 10 2 11 1 12 3 13
REMARK SMILES IDX 31 14 32 15 33 16 12 18 13 19 14 20 28 21 15 22 16 23 17 24
REMARK SMILES IDX 18 25 27 26 19 27 26 28 20 29 21 30 22 31 23 32 24 33 25 34
REMARK H PARENT 33 17
ROOT
ATOM      1  O   UNL     1       6.564   5.067  -6.455  1.00  0.00    -0.485 OA
ENDROOT
BRANCH   1   2
ATOM      2  C   UNL     1       5.661   5.514  -5.531  1.00  0.00     0.120 A 
ATOM      3  C   UNL     1       3.955   6.289  -3.425  1.00  0.00    -0.045 A 
ATOM      4  C   UNL     1       3.691   6.682  -4.744  1.00  0.00     0.007 A 
ATOM      5  C   UNL     1       5.085   5.507  -3.169  1.00  0.00     0.007 A 
ATOM      6  C   UNL     1       4.537   6.298  -5.790  1.00  0.00     0.047 A 
ATOM      7  C   UNL     1       5.927   5.121  -4.216  1.00  0.00     0.047 A 
BRANCH   3   8
ATOM      8  C   UNL     1       3.043   6.726  -2.299  1.00  0.00     0.079 C 
BRANCH   8   9
ATOM      9  C   UNL     1       3.763   7.626  -1.282  1.00  0.00     0.232 C 
BRANCH   9  10
ATOM     10  O   UNL     1       4.123   8.842  -1.950  1.00  0.00    -0.364 OA
BRANCH  10  11
ATOM     11  C   UNL     1       5.479   8.893  -2.402  1.00  0.00     0.113 C 
ATOM     12  C   UNL     1       6.284   9.581  -1.306  1.00  0.00     0.038 C 
ATOM     13  C   UNL     1       5.571   9.689  -3.699  1.00  0.00     0.038 C 
ENDBRANCH  10  11
ENDBRANCH   9  10
BRANCH   9  14
ATOM     14  C   UNL     1       2.824   7.879  -0.098  1.00  0.00     0.333 C 
ATOM     15  O   UNL     1       2.499   7.089   0.774  1.00  0.00    -0.249 OA
BRANCH  14  16
ATOM     16  O   UNL     1       2.294   9.122  -0.101  1.00  0.00    -0.479 OA
ATOM     17  H   UNL     1       2.059   9.271  -1.042  1.00  0.00     0.296 HD
ENDBRANCH  14  16
ENDBRANCH   9  14
ENDBRANCH   8   9
ENDBRANCH   3   8
ENDBRANCH   1   2
BRANCH   1  18
ATOM     18  C   UNL     1       7.920   4.926  -6.018  1.00  0.00     0.310 C 
BRANCH  18  19
ATOM     19  C   UNL     1       8.879   5.448  -7.033  1.00  0.00     0.209 A 
ATOM     20  N   UNL     1       9.964   4.761  -7.420  1.00  0.00    -0.058 NA
ATOM     21  N   UNL     1       8.694   6.646  -7.685  1.00  0.00    -0.188 NA
ATOM     22  O   UNL     1      10.535   5.587  -8.390  1.00  0.00    -0.334 OA
ATOM     23  C   UNL     1       9.728   6.686  -8.497  1.00  0.00     0.258 A 
BRANCH  23  24
ATOM     24  C   UNL     1      10.118   7.706  -9.463  1.00  0.00     0.040 A 
ATOM     25  C   UNL     1      10.514   7.385 -10.768  1.00  0.00     0.017 A 
ATOM     26  C   UNL     1      10.093   9.058  -9.094  1.00  0.00     0.017 A 
ATOM     27  C   UNL     1      10.876   8.385 -11.682  1.00  0.00     0.047 A 
ATOM     28  C   UNL     1      10.460  10.054 -10.004  1.00  0.00     0.047 A 
ATOM     29  C   UNL     1      10.852   9.726 -11.303  1.00  0.00     0.129 A 
BRANCH  29  30
ATOM     30  O   UNL     1      11.182  10.797 -12.082  1.00  0.00    -0.406 OA
BRANCH  30  31
ATOM     31  C   UNL     1      10.542  10.918 -13.341  1.00  0.00     0.573 C 
ATOM     32  F   UNL     1      10.807  12.144 -13.844  1.00  0.00    -0.132 F 
ATOM     33  F   UNL     1      11.005   9.999 -14.216  1.00  0.00    -0.132 F 
ATOM     34  F   UNL     1       9.203  10.792 -13.222  1.00  0.00    -0.132 F 
ENDBRANCH  30  31
ENDBRANCH  29  30
ENDBRANCH  23  24
ENDBRANCH  18  19
ENDBRANCH   1  18
TORSDOF 12
