MODEL 5
REMARK VINA RESULT:    -6.552      4.423      6.205
REMARK INTER + INTRA:          -9.275
REMARK INTER:                  -8.146
REMARK INTRA:                  -1.128
REMARK UNBOUND:                -0.999
REMARK SMILES NNC(=O)c1csc2nc(CN3CCOCC3)c(-c3ccc(Br)cc3)n12
REMARK SMILES IDX 5 1 6 2 7 3 8 4 9 5 10 6 18 7 26 8 3 9 2 10 4 11 1 13 19 16
REMARK SMILES IDX 25 17 20 18 24 19 21 20 22 21 23 22 11 23 12 24 17 25 13 26
REMARK SMILES IDX 16 27 14 28 15 29
REMARK H PARENT 2 12 1 14 1 15
ROOT
ATOM      1  C   UNL     1      22.952  35.063  11.204  1.00  0.00     0.125 A 
ATOM      2  C   UNL     1      23.006  35.100   9.815  1.00  0.00     0.101 A 
ATOM      3  S   UNL     1      21.624  34.389   9.010  1.00  0.00    -0.104 S 
ATOM      4  C   UNL     1      20.944  34.015  10.575  1.00  0.00     0.195 A 
ATOM      5  N   UNL     1      19.855  33.414  10.984  1.00  0.00    -0.222 NA
ATOM      6  C   UNL     1      19.895  33.467  12.298  1.00  0.00     0.082 A 
ATOM      7  C   UNL     1      21.038  34.127  12.761  1.00  0.00     0.079 A 
ATOM      8  N   UNL     1      21.753  34.460  11.609  1.00  0.00    -0.278 N 
ENDROOT
BRANCH   1   9
ATOM      9  C   UNL     1      24.030  35.490  12.068  1.00  0.00     0.283 C 
ATOM     10  N   UNL     1      24.337  36.799  11.968  1.00  0.00    -0.289 N 
ATOM     11  O   UNL     1      24.603  34.692  12.813  1.00  0.00    -0.266 OA
ATOM     12  H   UNL     1      23.859  37.457  11.370  1.00  0.00     0.185 HD
BRANCH  10  13
ATOM     13  N   UNL     1      25.357  37.352  12.742  1.00  0.00    -0.248 NA
ATOM     14  H   UNL     1      25.764  38.112  12.214  1.00  0.00     0.143 HD
ATOM     15  H   UNL     1      24.937  37.728  13.580  1.00  0.00     0.143 HD
ENDBRANCH  10  13
ENDBRANCH   1   9
BRANCH   7  16
ATOM     16  C   UNL     1      21.418  34.488  14.156  1.00  0.00     0.001 A 
ATOM     17  C   UNL     1      21.116  35.757  14.659  1.00  0.00     0.011 A 
ATOM     18  C   UNL     1      22.038  33.542  14.976  1.00  0.00     0.011 A 
ATOM     19  C   UNL     1      21.453  36.085  15.969  1.00  0.00     0.016 A 
ATOM     20  C   UNL     1      22.375  33.870  16.287  1.00  0.00     0.016 A 
ATOM     21  C   UNL     1      22.082  35.140  16.778  1.00  0.00     0.018 A 
ATOM     22  Br  UNL     1      22.543  35.589  18.569  1.00  0.00    -0.051 Br
ENDBRANCH   7  16
BRANCH   6  23
ATOM     23  C   UNL     1      18.736  32.887  13.096  1.00  0.00     0.143 C 
BRANCH  23  24
ATOM     24  N   UNL     1      17.738  33.897  13.460  1.00  0.00    -0.293 NA
ATOM     25  C   UNL     1      16.431  33.562  12.880  1.00  0.00     0.113 C 
ATOM     26  C   UNL     1      17.644  34.084  14.916  1.00  0.00     0.113 C 
ATOM     27  C   UNL     1      15.344  34.573  13.306  1.00  0.00     0.175 C 
ATOM     28  C   UNL     1      16.525  35.078  15.291  1.00  0.00     0.175 C 
ATOM     29  O   UNL     1      15.288  34.658  14.726  1.00  0.00    -0.379 OA
ENDBRANCH  23  24
ENDBRANCH   6  23
TORSDOF 5
ENDMDL
