MODEL 2
REMARK VINA RESULT:    -7.006      2.030      6.322
REMARK INTER + INTRA:          -9.847
REMARK INTER:                  -8.693
REMARK INTRA:                  -1.154
REMARK UNBOUND:                -0.999
REMARK SMILES NNC(=O)c1csc2nc(CN3CCOCC3)c(-c3ccc(Br)cc3)n12
REMARK SMILES IDX 5 1 6 2 7 3 8 4 9 5 10 6 18 7 26 8 3 9 2 10 4 11 1 13 19 16
REMARK SMILES IDX 25 17 20 18 24 19 21 20 22 21 23 22 11 23 12 24 17 25 13 26
REMARK SMILES IDX 16 27 14 28 15 29
REMARK H PARENT 2 12 1 14 1 15
ROOT
ATOM      1  C   UNL     1      15.596  34.419  12.570  1.00  0.00     0.125 A 
ATOM      2  C   UNL     1      14.263  34.796  12.442  1.00  0.00     0.101 A 
ATOM      3  S   UNL     1      13.444  35.116  13.955  1.00  0.00    -0.104 S 
ATOM      4  C   UNL     1      14.923  34.728  14.801  1.00  0.00     0.195 A 
ATOM      5  N   UNL     1      15.272  34.667  16.061  1.00  0.00    -0.222 NA
ATOM      6  C   UNL     1      16.546  34.338  16.061  1.00  0.00     0.082 A 
ATOM      7  C   UNL     1      17.046  34.187  14.763  1.00  0.00     0.079 A 
ATOM      8  N   UNL     1      15.951  34.413  13.926  1.00  0.00    -0.278 N 
ENDROOT
BRANCH   1   9
ATOM      9  C   UNL     1      16.428  34.001  11.464  1.00  0.00     0.283 C 
ATOM     10  N   UNL     1      16.456  32.669  11.263  1.00  0.00    -0.289 N 
ATOM     11  O   UNL     1      17.052  34.823  10.790  1.00  0.00    -0.266 OA
ATOM     12  H   UNL     1      15.934  31.995  11.804  1.00  0.00     0.185 HD
BRANCH  10  13
ATOM     13  N   UNL     1      17.218  32.120  10.231  1.00  0.00    -0.248 NA
ATOM     14  H   UNL     1      17.418  32.861   9.572  1.00  0.00     0.143 HD
ATOM     15  H   UNL     1      18.088  31.797  10.630  1.00  0.00     0.143 HD
ENDBRANCH  10  13
ENDBRANCH   1   9
BRANCH   7  16
ATOM     16  C   UNL     1      18.442  33.920  14.316  1.00  0.00     0.001 A 
ATOM     17  C   UNL     1      19.374  34.962  14.266  1.00  0.00     0.011 A 
ATOM     18  C   UNL     1      18.832  32.620  13.986  1.00  0.00     0.011 A 
ATOM     19  C   UNL     1      20.683  34.707  13.869  1.00  0.00     0.016 A 
ATOM     20  C   UNL     1      20.142  32.364  13.589  1.00  0.00     0.016 A 
ATOM     21  C   UNL     1      21.062  33.409  13.531  1.00  0.00     0.018 A 
ATOM     22  Br  UNL     1      22.853  33.060  12.987  1.00  0.00    -0.051 Br
ENDBRANCH   7  16
BRANCH   6  23
ATOM     23  C   UNL     1      17.281  34.225  17.387  1.00  0.00     0.143 C 
BRANCH  23  24
ATOM     24  N   UNL     1      17.941  35.475  17.777  1.00  0.00    -0.293 NA
ATOM     25  C   UNL     1      17.276  36.066  18.947  1.00  0.00     0.113 C 
ATOM     26  C   UNL     1      19.380  35.291  18.018  1.00  0.00     0.113 C 
ATOM     27  C   UNL     1      17.995  37.348  19.422  1.00  0.00     0.175 C 
ATOM     28  C   UNL     1      20.045  36.590  18.519  1.00  0.00     0.175 C 
ATOM     29  O   UNL     1      19.368  37.071  19.676  1.00  0.00    -0.379 OA
ENDBRANCH  23  24
ENDBRANCH   6  23
TORSDOF 5
ENDMDL
