MODEL 1
REMARK VINA RESULT:    -7.959      0.000      0.000
REMARK INTER + INTRA:          -8.226
REMARK INTER:                  -8.890
REMARK INTRA:                   0.663
REMARK UNBOUND:                 0.663
REMARK SMILES Nc1cccc(-c2n[nH]c3ncnc(N)c23)c1
REMARK SMILES IDX 7 1 8 2 9 3 10 4 11 5 12 6 13 7 14 8 16 9 6 11 2 12 3 13
REMARK SMILES IDX 17 14 4 15 5 16 1 17 15 20
REMARK H PARENT 9 10 1 18 1 19 15 21 15 22
ROOT
ATOM      1  C   UNL     1     -14.772  13.380  28.038  1.00  0.00     0.105 A 
ATOM      2  N   UNL     1     -13.563  13.963  27.919  1.00  0.00    -0.173 NA
ATOM      3  N   UNL     1     -13.614  14.993  28.783  1.00  0.00    -0.260 N 
ATOM      4  C   UNL     1     -14.807  15.121  29.421  1.00  0.00     0.161 A 
ATOM      5  N   UNL     1     -15.132  16.064  30.318  1.00  0.00    -0.217 NA
ATOM      6  C   UNL     1     -16.396  15.907  30.744  1.00  0.00     0.226 A 
ATOM      7  N   UNL     1     -17.289  14.972  30.364  1.00  0.00    -0.219 NA
ATOM      8  C   UNL     1     -16.912  14.046  29.455  1.00  0.00     0.138 A 
ATOM      9  C   UNL     1     -15.606  14.094  28.952  1.00  0.00     0.089 A 
ATOM     10  H   UNL     1     -12.799  15.585  28.891  1.00  0.00     0.192 HD
ENDROOT
BRANCH   1  11
ATOM     11  C   UNL     1     -15.089  12.179  27.269  1.00  0.00     0.005 A 
ATOM     12  C   UNL     1     -14.421  10.499  25.634  1.00  0.00     0.032 A 
ATOM     13  C   UNL     1     -15.685   9.916  25.745  1.00  0.00     0.025 A 
ATOM     14  C   UNL     1     -14.150  11.658  26.366  1.00  0.00     0.036 A 
ATOM     15  C   UNL     1     -16.624  10.413  26.650  1.00  0.00     0.003 A 
ATOM     16  C   UNL     1     -16.322  11.535  27.421  1.00  0.00     0.010 A 
BRANCH  12  17
ATOM     17  N   UNL     1     -13.528  10.064  24.646  1.00  0.00    -0.399 N 
ATOM     18  H   UNL     1     -13.990   9.658  23.836  1.00  0.00     0.156 HD
ATOM     19  H   UNL     1     -12.840  10.762  24.382  1.00  0.00     0.156 HD
ENDBRANCH  12  17
ENDBRANCH   1  11
BRANCH   8  20
ATOM     20  N   UNL     1     -17.877  13.125  29.072  1.00  0.00    -0.383 N 
ATOM     21  H   UNL     1     -18.522  12.849  29.805  1.00  0.00     0.158 HD
ATOM     22  H   UNL     1     -17.455  12.365  28.551  1.00  0.00     0.158 HD
ENDBRANCH   8  20
TORSDOF 3
ENDMDL
MODEL 2
REMARK VINA RESULT:    -7.836      1.288      1.708
REMARK INTER + INTRA:          -8.089
REMARK INTER:                  -8.131
REMARK INTRA:                   0.043
REMARK UNBOUND:                 0.663
REMARK SMILES Nc1cccc(-c2n[nH]c3ncnc(N)c23)c1
REMARK SMILES IDX 7 1 8 2 9 3 10 4 11 5 12 6 13 7 14 8 16 9 6 11 2 12 3 13
REMARK SMILES IDX 17 14 4 15 5 16 1 17 15 20
REMARK H PARENT 9 10 1 18 1 19 15 21 15 22
ROOT
ATOM      1  C   UNL     1     -14.819  13.115  28.094  1.00  0.00     0.105 A 
ATOM      2  N   UNL     1     -13.585  13.633  27.939  1.00  0.00    -0.173 NA
ATOM      3  N   UNL     1     -13.601  14.742  28.701  1.00  0.00    -0.260 N 
ATOM      4  C   UNL     1     -14.796  14.979  29.306  1.00  0.00     0.161 A 
ATOM      5  N   UNL     1     -15.091  16.016  30.104  1.00  0.00    -0.217 NA
ATOM      6  C   UNL     1     -16.365  15.953  30.523  1.00  0.00     0.226 A 
ATOM      7  N   UNL     1     -17.293  15.023  30.219  1.00  0.00    -0.219 NA
ATOM      8  C   UNL     1     -16.945  14.000  29.409  1.00  0.00     0.138 A 
ATOM      9  C   UNL     1     -15.632  13.946  28.924  1.00  0.00     0.089 A 
ATOM     10  H   UNL     1     -12.764  15.308  28.766  1.00  0.00     0.192 HD
ENDROOT
BRANCH   1  11
ATOM     11  C   UNL     1     -15.177  11.859  27.438  1.00  0.00     0.005 A 
ATOM     12  C   UNL     1     -16.277   9.686  27.525  1.00  0.00     0.032 A 
ATOM     13  C   UNL     1     -15.827   9.427  26.228  1.00  0.00     0.025 A 
ATOM     14  C   UNL     1     -15.906  10.887  28.137  1.00  0.00     0.036 A 
ATOM     15  C   UNL     1     -15.114  10.392  25.514  1.00  0.00     0.003 A 
ATOM     16  C   UNL     1     -14.800  11.612  26.112  1.00  0.00     0.010 A 
BRANCH  12  17
ATOM     17  N   UNL     1     -16.893   8.675  28.272  1.00  0.00    -0.399 N 
ATOM     18  H   UNL     1     -17.861   8.878  28.505  1.00  0.00     0.156 HD
ATOM     19  H   UNL     1     -16.783   7.747  27.872  1.00  0.00     0.156 HD
ENDBRANCH  12  17
ENDBRANCH   1  11
BRANCH   8  20
ATOM     20  N   UNL     1     -17.944  13.087  29.099  1.00  0.00    -0.383 N 
ATOM     21  H   UNL     1     -17.637  12.278  28.572  1.00  0.00     0.158 HD
ATOM     22  H   UNL     1     -18.760  13.565  28.734  1.00  0.00     0.158 HD
ENDBRANCH   8  20
TORSDOF 3
ENDMDL
MODEL 3
REMARK VINA RESULT:    -7.780      1.674      5.825
REMARK INTER + INTRA:          -8.026
REMARK INTER:                  -8.622
REMARK INTRA:                   0.596
REMARK UNBOUND:                 0.663
REMARK SMILES Nc1cccc(-c2n[nH]c3ncnc(N)c23)c1
REMARK SMILES IDX 7 1 8 2 9 3 10 4 11 5 12 6 13 7 14 8 16 9 6 11 2 12 3 13
REMARK SMILES IDX 17 14 4 15 5 16 1 17 15 20
REMARK H PARENT 9 10 1 18 1 19 15 21 15 22
ROOT
ATOM      1  C   UNL     1     -16.364  12.179  27.927  1.00  0.00     0.105 A 
ATOM      2  N   UNL     1     -17.533  12.058  28.587  1.00  0.00    -0.173 NA
ATOM      3  N   UNL     1     -18.041  10.897  28.134  1.00  0.00    -0.260 N 
ATOM      4  C   UNL     1     -17.274  10.288  27.191  1.00  0.00     0.161 A 
ATOM      5  N   UNL     1     -17.549   9.134  26.565  1.00  0.00    -0.217 NA
ATOM      6  C   UNL     1     -16.587   8.825  25.682  1.00  0.00     0.226 A 
ATOM      7  N   UNL     1     -15.473   9.526  25.389  1.00  0.00    -0.219 NA
ATOM      8  C   UNL     1     -15.243  10.684  26.046  1.00  0.00     0.138 A 
ATOM      9  C   UNL     1     -16.170  11.101  27.010  1.00  0.00     0.089 A 
ATOM     10  H   UNL     1     -18.926  10.570  28.502  1.00  0.00     0.192 HD
ENDROOT
BRANCH   1  11
ATOM     11  C   UNL     1     -15.489  13.320  28.187  1.00  0.00     0.005 A 
ATOM     12  C   UNL     1     -15.133  15.498  29.221  1.00  0.00     0.032 A 
ATOM     13  C   UNL     1     -13.857  15.538  28.654  1.00  0.00     0.025 A 
ATOM     14  C   UNL     1     -15.958  14.404  28.942  1.00  0.00     0.036 A 
ATOM     15  C   UNL     1     -13.371  14.459  27.914  1.00  0.00     0.003 A 
ATOM     16  C   UNL     1     -14.180  13.345  27.691  1.00  0.00     0.010 A 
BRANCH  12  17
ATOM     17  N   UNL     1     -15.653  16.627  29.866  1.00  0.00    -0.399 N 
ATOM     18  H   UNL     1     -15.797  17.417  29.242  1.00  0.00     0.156 HD
ATOM     19  H   UNL     1     -16.475  16.433  30.430  1.00  0.00     0.156 HD
ENDBRANCH  12  17
ENDBRANCH   1  11
BRANCH   8  20
ATOM     20  N   UNL     1     -14.102  11.385  25.685  1.00  0.00    -0.383 N 
ATOM     21  H   UNL     1     -13.353  11.366  26.369  1.00  0.00     0.158 HD
ATOM     22  H   UNL     1     -14.347  12.301  25.328  1.00  0.00     0.158 HD
ENDBRANCH   8  20
TORSDOF 3
ENDMDL
MODEL 4
REMARK VINA RESULT:    -7.540      1.880      5.609
REMARK INTER + INTRA:          -7.758
REMARK INTER:                  -8.120
REMARK INTRA:                   0.362
REMARK UNBOUND:                 0.663
REMARK SMILES Nc1cccc(-c2n[nH]c3ncnc(N)c23)c1
REMARK SMILES IDX 7 1 8 2 9 3 10 4 11 5 12 6 13 7 14 8 16 9 6 11 2 12 3 13
REMARK SMILES IDX 17 14 4 15 5 16 1 17 15 20
REMARK H PARENT 9 10 1 18 1 19 15 21 15 22
ROOT
ATOM      1  C   UNL     1     -15.035  11.217  26.438  1.00  0.00     0.105 A 
ATOM      2  N   UNL     1     -14.089  11.176  25.479  1.00  0.00    -0.173 NA
ATOM      3  N   UNL     1     -14.284   9.986  24.883  1.00  0.00    -0.260 N 
ATOM      4  C   UNL     1     -15.283   9.248  25.436  1.00  0.00     0.161 A 
ATOM      5  N   UNL     1     -15.676   8.025  25.048  1.00  0.00    -0.217 NA
ATOM      6  C   UNL     1     -16.681   7.577  25.818  1.00  0.00     0.226 A 
ATOM      7  N   UNL     1     -17.263   8.195  26.865  1.00  0.00    -0.219 NA
ATOM      8  C   UNL     1     -16.829   9.426  27.216  1.00  0.00     0.138 A 
ATOM      9  C   UNL     1     -15.795  10.008  26.471  1.00  0.00     0.089 A 
ATOM     10  H   UNL     1     -13.696   9.725  24.101  1.00  0.00     0.192 HD
ENDROOT
BRANCH   1  11
ATOM     11  C   UNL     1     -15.169  12.398  27.289  1.00  0.00     0.005 A 
ATOM     12  C   UNL     1     -14.169  14.375  28.304  1.00  0.00     0.032 A 
ATOM     13  C   UNL     1     -15.379  14.629  28.955  1.00  0.00     0.025 A 
ATOM     14  C   UNL     1     -14.062  13.230  27.510  1.00  0.00     0.036 A 
ATOM     15  C   UNL     1     -16.493  13.819  28.732  1.00  0.00     0.003 A 
ATOM     16  C   UNL     1     -16.393  12.711  27.891  1.00  0.00     0.010 A 
BRANCH  12  17
ATOM     17  N   UNL     1     -13.029  15.125  28.618  1.00  0.00    -0.399 N 
ATOM     18  H   UNL     1     -12.509  14.755  29.409  1.00  0.00     0.156 HD
ATOM     19  H   UNL     1     -12.429  15.310  27.819  1.00  0.00     0.156 HD
ENDBRANCH  12  17
ENDBRANCH   1  11
BRANCH   8  20
ATOM     20  N   UNL     1     -17.437  10.006  28.320  1.00  0.00    -0.383 N 
ATOM     21  H   UNL     1     -18.338   9.613  28.569  1.00  0.00     0.158 HD
ATOM     22  H   UNL     1     -17.403  11.017  28.252  1.00  0.00     0.158 HD
ENDBRANCH   8  20
TORSDOF 3
ENDMDL
MODEL 5
REMARK VINA RESULT:    -7.523      2.368      3.933
REMARK INTER + INTRA:          -7.739
REMARK INTER:                  -8.206
REMARK INTRA:                   0.467
REMARK UNBOUND:                 0.663
REMARK SMILES Nc1cccc(-c2n[nH]c3ncnc(N)c23)c1
REMARK SMILES IDX 7 1 8 2 9 3 10 4 11 5 12 6 13 7 14 8 16 9 6 11 2 12 3 13
REMARK SMILES IDX 17 14 4 15 5 16 1 17 15 20
REMARK H PARENT 9 10 1 18 1 19 15 21 15 22
ROOT
ATOM      1  C   UNL     1     -16.444  15.598  30.316  1.00  0.00     0.105 A 
ATOM      2  N   UNL     1     -15.991  16.640  31.041  1.00  0.00    -0.173 NA
ATOM      3  N   UNL     1     -17.027  16.955  31.838  1.00  0.00    -0.260 N 
ATOM      4  C   UNL     1     -18.134  16.191  31.634  1.00  0.00     0.161 A 
ATOM      5  N   UNL     1     -19.305  16.300  32.278  1.00  0.00    -0.217 NA
ATOM      6  C   UNL     1     -20.190  15.399  31.823  1.00  0.00     0.226 A 
ATOM      7  N   UNL     1     -20.016  14.485  30.847  1.00  0.00    -0.219 NA
ATOM      8  C   UNL     1     -18.817  14.418  30.228  1.00  0.00     0.138 A 
ATOM      9  C   UNL     1     -17.804  15.297  30.632  1.00  0.00     0.089 A 
ATOM     10  H   UNL     1     -16.925  17.711  32.503  1.00  0.00     0.192 HD
ENDROOT
BRANCH   1  11
ATOM     11  C   UNL     1     -15.570  14.941  29.346  1.00  0.00     0.005 A 
ATOM     12  C   UNL     1     -15.028  12.982  28.001  1.00  0.00     0.032 A 
ATOM     13  C   UNL     1     -13.887  13.641  27.536  1.00  0.00     0.025 A 
ATOM     14  C   UNL     1     -15.837  13.625  28.942  1.00  0.00     0.036 A 
ATOM     15  C   UNL     1     -13.617  14.956  27.917  1.00  0.00     0.003 A 
ATOM     16  C   UNL     1     -14.464  15.611  28.811  1.00  0.00     0.010 A 
BRANCH  12  17
ATOM     17  N   UNL     1     -15.231  11.629  27.703  1.00  0.00    -0.399 N 
ATOM     18  H   UNL     1     -15.825  11.153  28.377  1.00  0.00     0.156 HD
ATOM     19  H   UNL     1     -15.530  11.463  26.747  1.00  0.00     0.156 HD
ENDBRANCH  12  17
ENDBRANCH   1  11
BRANCH   8  20
ATOM     20  N   UNL     1     -18.698  13.484  29.208  1.00  0.00    -0.383 N 
ATOM     21  H   UNL     1     -18.401  12.561  29.504  1.00  0.00     0.158 HD
ATOM     22  H   UNL     1     -18.190  13.878  28.425  1.00  0.00     0.158 HD
ENDBRANCH   8  20
TORSDOF 3
ENDMDL
MODEL 6
REMARK VINA RESULT:    -7.520      2.055      4.002
REMARK INTER + INTRA:          -7.736
REMARK INTER:                  -8.419
REMARK INTRA:                   0.683
REMARK UNBOUND:                 0.663
REMARK SMILES Nc1cccc(-c2n[nH]c3ncnc(N)c23)c1
REMARK SMILES IDX 7 1 8 2 9 3 10 4 11 5 12 6 13 7 14 8 16 9 6 11 2 12 3 13
REMARK SMILES IDX 17 14 4 15 5 16 1 17 15 20
REMARK H PARENT 9 10 1 18 1 19 15 21 15 22
ROOT
ATOM      1  C   UNL     1     -17.510  13.793  29.757  1.00  0.00     0.105 A 
ATOM      2  N   UNL     1     -18.525  12.909  29.817  1.00  0.00    -0.173 NA
ATOM      3  N   UNL     1     -19.422  13.500  30.627  1.00  0.00    -0.260 N 
ATOM      4  C   UNL     1     -19.015  14.702  31.118  1.00  0.00     0.161 A 
ATOM      5  N   UNL     1     -19.705  15.493  31.953  1.00  0.00    -0.217 NA
ATOM      6  C   UNL     1     -19.007  16.601  32.250  1.00  0.00     0.226 A 
ATOM      7  N   UNL     1     -17.774  16.944  31.826  1.00  0.00    -0.219 NA
ATOM      8  C   UNL     1     -17.122  16.110  30.986  1.00  0.00     0.138 A 
ATOM      9  C   UNL     1     -17.759  14.928  30.587  1.00  0.00     0.089 A 
ATOM     10  H   UNL     1     -20.298  13.031  30.817  1.00  0.00     0.192 HD
ENDROOT
BRANCH   1  11
ATOM     11  C   UNL     1     -16.342  13.516  28.924  1.00  0.00     0.005 A 
ATOM     12  C   UNL     1     -14.057  14.056  28.269  1.00  0.00     0.032 A 
ATOM     13  C   UNL     1     -14.114  13.046  27.306  1.00  0.00     0.025 A 
ATOM     14  C   UNL     1     -15.194  14.313  29.041  1.00  0.00     0.036 A 
ATOM     15  C   UNL     1     -15.244  12.234  27.189  1.00  0.00     0.003 A 
ATOM     16  C   UNL     1     -16.352  12.460  28.005  1.00  0.00     0.010 A 
BRANCH  12  17
ATOM     17  N   UNL     1     -12.967  14.935  28.304  1.00  0.00    -0.399 N 
ATOM     18  H   UNL     1     -12.128  14.553  27.876  1.00  0.00     0.156 HD
ATOM     19  H   UNL     1     -13.182  15.866  27.958  1.00  0.00     0.156 HD
ENDBRANCH  12  17
ENDBRANCH   1  11
BRANCH   8  20
ATOM     20  N   UNL     1     -15.843  16.492  30.604  1.00  0.00    -0.383 N 
ATOM     21  H   UNL     1     -15.802  17.109  29.802  1.00  0.00     0.158 HD
ATOM     22  H   UNL     1     -15.229  15.686  30.570  1.00  0.00     0.158 HD
ENDBRANCH   8  20
TORSDOF 3
ENDMDL
MODEL 7
REMARK VINA RESULT:    -7.349      1.165      2.743
REMARK INTER + INTRA:          -7.545
REMARK INTER:                  -8.213
REMARK INTRA:                   0.668
REMARK UNBOUND:                 0.663
REMARK SMILES Nc1cccc(-c2n[nH]c3ncnc(N)c23)c1
REMARK SMILES IDX 7 1 8 2 9 3 10 4 11 5 12 6 13 7 14 8 16 9 6 11 2 12 3 13
REMARK SMILES IDX 17 14 4 15 5 16 1 17 15 20
REMARK H PARENT 9 10 1 18 1 19 15 21 15 22
ROOT
ATOM      1  C   UNL     1     -16.501  12.623  28.211  1.00  0.00     0.105 A 
ATOM      2  N   UNL     1     -17.758  12.439  28.663  1.00  0.00    -0.173 NA
ATOM      3  N   UNL     1     -17.952  13.468  29.508  1.00  0.00    -0.260 N 
ATOM      4  C   UNL     1     -16.871  14.280  29.648  1.00  0.00     0.161 A 
ATOM      5  N   UNL     1     -16.788  15.365  30.433  1.00  0.00    -0.217 NA
ATOM      6  C   UNL     1     -15.573  15.930  30.344  1.00  0.00     0.226 A 
ATOM      7  N   UNL     1     -14.520  15.522  29.608  1.00  0.00    -0.219 NA
ATOM      8  C   UNL     1     -14.655  14.422  28.835  1.00  0.00     0.138 A 
ATOM      9  C   UNL     1     -15.888  13.756  28.828  1.00  0.00     0.089 A 
ATOM     10  H   UNL     1     -18.848  13.563  29.970  1.00  0.00     0.192 HD
ENDROOT
BRANCH   1  11
ATOM     11  C   UNL     1     -15.933  11.709  27.223  1.00  0.00     0.005 A 
ATOM     12  C   UNL     1     -16.175   9.743  25.803  1.00  0.00     0.032 A 
ATOM     13  C   UNL     1     -14.855   9.912  25.377  1.00  0.00     0.025 A 
ATOM     14  C   UNL     1     -16.688  10.621  26.762  1.00  0.00     0.036 A 
ATOM     15  C   UNL     1     -14.097  11.000  25.815  1.00  0.00     0.003 A 
ATOM     16  C   UNL     1     -14.639  11.905  26.727  1.00  0.00     0.010 A 
BRANCH  12  17
ATOM     17  N   UNL     1     -16.888   8.592  25.446  1.00  0.00    -0.399 N 
ATOM     18  H   UNL     1     -16.537   7.747  25.889  1.00  0.00     0.156 HD
ATOM     19  H   UNL     1     -17.894   8.687  25.550  1.00  0.00     0.156 HD
ENDBRANCH  12  17
ENDBRANCH   1  11
BRANCH   8  20
ATOM     20  N   UNL     1     -13.534  14.024  28.122  1.00  0.00    -0.383 N 
ATOM     21  H   UNL     1     -12.753  13.713  28.689  1.00  0.00     0.158 HD
ATOM     22  H   UNL     1     -13.310  14.704  27.404  1.00  0.00     0.158 HD
ENDBRANCH   8  20
TORSDOF 3
ENDMDL
MODEL 8
REMARK VINA RESULT:    -7.338      2.087      6.172
REMARK INTER + INTRA:          -7.532
REMARK INTER:                  -7.786
REMARK INTRA:                   0.253
REMARK UNBOUND:                 0.663
REMARK SMILES Nc1cccc(-c2n[nH]c3ncnc(N)c23)c1
REMARK SMILES IDX 7 1 8 2 9 3 10 4 11 5 12 6 13 7 14 8 16 9 6 11 2 12 3 13
REMARK SMILES IDX 17 14 4 15 5 16 1 17 15 20
REMARK H PARENT 9 10 1 18 1 19 15 21 15 22
ROOT
ATOM      1  C   UNL     1     -16.428  10.313  27.377  1.00  0.00     0.105 A 
ATOM      2  N   UNL     1     -17.387   9.579  27.977  1.00  0.00    -0.173 NA
ATOM      3  N   UNL     1     -17.304   8.381  27.372  1.00  0.00    -0.260 N 
ATOM      4  C   UNL     1     -16.365   8.322  26.390  1.00  0.00     0.161 A 
ATOM      5  N   UNL     1     -16.084   7.258  25.622  1.00  0.00    -0.217 NA
ATOM      6  C   UNL     1     -15.111   7.545  24.742  1.00  0.00     0.226 A 
ATOM      7  N   UNL     1     -14.464   8.715  24.573  1.00  0.00    -0.219 NA
ATOM      8  C   UNL     1     -14.786   9.756  25.371  1.00  0.00     0.138 A 
ATOM      9  C   UNL     1     -15.775   9.571  26.346  1.00  0.00     0.089 A 
ATOM     10  H   UNL     1     -17.922   7.636  27.667  1.00  0.00     0.192 HD
ENDROOT
BRANCH   1  11
ATOM     11  C   UNL     1     -16.182  11.689  27.802  1.00  0.00     0.005 A 
ATOM     12  C   UNL     1     -14.626  13.536  28.129  1.00  0.00     0.032 A 
ATOM     13  C   UNL     1     -15.670  14.297  28.659  1.00  0.00     0.025 A 
ATOM     14  C   UNL     1     -14.884  12.217  27.747  1.00  0.00     0.036 A 
ATOM     15  C   UNL     1     -16.970  13.791  28.706  1.00  0.00     0.003 A 
ATOM     16  C   UNL     1     -17.229  12.493  28.266  1.00  0.00     0.010 A 
BRANCH  12  17
ATOM     17  N   UNL     1     -13.309  14.008  28.189  1.00  0.00    -0.399 N 
ATOM     18  H   UNL     1     -13.246  15.004  28.386  1.00  0.00     0.156 HD
ATOM     19  H   UNL     1     -12.706  13.461  28.797  1.00  0.00     0.156 HD
ENDBRANCH  12  17
ENDBRANCH   1  11
BRANCH   8  20
ATOM     20  N   UNL     1     -14.115  10.948  25.137  1.00  0.00    -0.383 N 
ATOM     21  H   UNL     1     -13.113  10.858  25.010  1.00  0.00     0.158 HD
ATOM     22  H   UNL     1     -14.412  11.658  25.797  1.00  0.00     0.158 HD
ENDBRANCH   8  20
TORSDOF 3
ENDMDL
MODEL 9
REMARK VINA RESULT:    -7.058      2.450      3.620
REMARK INTER + INTRA:          -7.220
REMARK INTER:                  -6.907
REMARK INTRA:                  -0.313
REMARK UNBOUND:                 0.663
REMARK SMILES Nc1cccc(-c2n[nH]c3ncnc(N)c23)c1
REMARK SMILES IDX 7 1 8 2 9 3 10 4 11 5 12 6 13 7 14 8 16 9 6 11 2 12 3 13
REMARK SMILES IDX 17 14 4 15 5 16 1 17 15 20
REMARK H PARENT 9 10 1 18 1 19 15 21 15 22
ROOT
ATOM      1  C   UNL     1     -15.863  10.639  26.630  1.00  0.00     0.105 A 
ATOM      2  N   UNL     1     -14.687  10.672  25.972  1.00  0.00    -0.173 NA
ATOM      3  N   UNL     1     -14.099  11.798  26.416  1.00  0.00    -0.260 N 
ATOM      4  C   UNL     1     -14.856  12.506  27.297  1.00  0.00     0.161 A 
ATOM      5  N   UNL     1     -14.519  13.666  27.881  1.00  0.00    -0.217 NA
ATOM      6  C   UNL     1     -15.501  14.101  28.686  1.00  0.00     0.226 A 
ATOM      7  N   UNL     1     -16.698  13.525  28.922  1.00  0.00    -0.219 NA
ATOM      8  C   UNL     1     -16.988  12.358  28.307  1.00  0.00     0.138 A 
ATOM      9  C   UNL     1     -16.030  11.793  27.456  1.00  0.00     0.089 A 
ATOM     10  H   UNL     1     -13.177  12.039  26.076  1.00  0.00     0.192 HD
ENDROOT
BRANCH   1  11
ATOM     11  C   UNL     1     -16.783   9.520  26.436  1.00  0.00     0.005 A 
ATOM     12  C   UNL     1     -18.748   8.587  25.338  1.00  0.00     0.032 A 
ATOM     13  C   UNL     1     -18.589   7.419  26.087  1.00  0.00     0.025 A 
ATOM     14  C   UNL     1     -17.866   9.649  25.555  1.00  0.00     0.036 A 
ATOM     15  C   UNL     1     -17.507   7.270  26.956  1.00  0.00     0.003 A 
ATOM     16  C   UNL     1     -16.597   8.314  27.122  1.00  0.00     0.010 A 
BRANCH  12  17
ATOM     17  N   UNL     1     -19.895   8.771  24.555  1.00  0.00    -0.399 N 
ATOM     18  H   UNL     1     -19.790   8.434  23.602  1.00  0.00     0.156 HD
ATOM     19  H   UNL     1     -20.745   8.426  24.990  1.00  0.00     0.156 HD
ENDBRANCH  12  17
ENDBRANCH   1  11
BRANCH   8  20
ATOM     20  N   UNL     1     -18.243  11.822  28.556  1.00  0.00    -0.383 N 
ATOM     21  H   UNL     1     -18.770  11.560  27.731  1.00  0.00     0.158 HD
ATOM     22  H   UNL     1     -18.743  12.389  29.233  1.00  0.00     0.158 HD
ENDBRANCH   8  20
TORSDOF 3
ENDMDL
