MODEL 8
REMARK VINA RESULT:    -8.241      2.868      3.712
REMARK INTER + INTRA:         -14.881
REMARK INTER:                 -13.446
REMARK INTRA:                  -1.436
REMARK UNBOUND:                -1.100
REMARK SMILES COC(=O)N(CC(=O)O)Cc1cccc(OCc2csc(-c3ccc(C(F)(F)F)cc3)n2)c1
REMARK SMILES IDX 11 1 12 2 13 3 14 4 15 5 33 6 10 7 5 8 3 9 4 10 2 11 1 12
REMARK SMILES IDX 6 13 7 14 8 15 9 16 16 18 17 19 18 20 19 21 32 22 20 23
REMARK SMILES IDX 21 24 22 25 23 26 31 27 24 28 30 29 25 30 26 31 27 32 28 33
REMARK SMILES IDX 29 34
REMARK H PARENT 9 17
ROOT
ATOM      1  C   UNL     1       3.164   6.808  -3.847  1.00  0.00    -0.025 A 
ATOM      2  C   UNL     1       2.507   7.905  -4.415  1.00  0.00     0.006 A 
ATOM      3  C   UNL     1       3.034   8.533  -5.543  1.00  0.00     0.004 A 
ATOM      4  C   UNL     1       4.221   8.073  -6.120  1.00  0.00     0.046 A 
ATOM      5  C   UNL     1       4.888   6.980  -5.568  1.00  0.00     0.120 A 
ATOM      6  C   UNL     1       4.354   6.353  -4.437  1.00  0.00     0.052 A 
ENDROOT
BRANCH   1   7
ATOM      7  C   UNL     1       2.605   6.114  -2.628  1.00  0.00     0.159 C 
BRANCH   7   8
ATOM      8  N   UNL     1       3.280   6.519  -1.403  1.00  0.00    -0.293 N 
BRANCH   8   9
ATOM      9  C   UNL     1       3.621   7.845  -1.229  1.00  0.00     0.410 C 
ATOM     10  O   UNL     1       2.809   8.751  -1.080  1.00  0.00    -0.224 OA
BRANCH   9  11
ATOM     11  O   UNL     1       4.969   8.041  -1.239  1.00  0.00    -0.453 OA
ATOM     12  C   UNL     1       5.421   8.952  -2.240  1.00  0.00     0.284 C 
ENDBRANCH   9  11
ENDBRANCH   8   9
BRANCH   8  13
ATOM     13  C   UNL     1       3.750   5.472  -0.490  1.00  0.00     0.245 C 
BRANCH  13  14
ATOM     14  C   UNL     1       4.855   4.592  -1.059  1.00  0.00     0.323 C 
ATOM     15  O   UNL     1       4.792   3.377  -1.182  1.00  0.00    -0.250 OA
BRANCH  14  16
ATOM     16  O   UNL     1       5.960   5.248  -1.464  1.00  0.00    -0.480 OA
ATOM     17  H   UNL     1       6.379   5.551  -0.632  1.00  0.00     0.296 HD
ENDBRANCH  14  16
ENDBRANCH  13  14
ENDBRANCH   8  13
ENDBRANCH   7   8
ENDBRANCH   1   7
BRANCH   5  18
ATOM     18  O   UNL     1       6.053   6.430  -6.027  1.00  0.00    -0.487 OA
BRANCH  18  19
ATOM     19  C   UNL     1       6.461   5.189  -5.444  1.00  0.00     0.286 C 
BRANCH  19  20
ATOM     20  C   UNL     1       7.719   4.666  -6.073  1.00  0.00     0.089 A 
ATOM     21  C   UNL     1       8.555   3.687  -5.573  1.00  0.00     0.094 A 
ATOM     22  N   UNL     1       8.136   5.213  -7.280  1.00  0.00    -0.237 NA
ATOM     23  S   UNL     1       9.876   3.442  -6.627  1.00  0.00    -0.122 S 
ATOM     24  C   UNL     1       9.265   4.659  -7.686  1.00  0.00     0.123 A 
BRANCH  24  25
ATOM     25  C   UNL     1       9.949   5.019  -8.945  1.00  0.00     0.010 A 
ATOM     26  C   UNL     1      10.354   6.352  -9.139  1.00  0.00     0.012 A 
ATOM     27  C   UNL     1      10.234   4.095  -9.963  1.00  0.00     0.012 A 
ATOM     28  C   UNL     1      11.010   6.752 -10.308  1.00  0.00     0.014 A 
ATOM     29  C   UNL     1      10.891   4.493 -11.135  1.00  0.00     0.014 A 
ATOM     30  C   UNL     1      11.279   5.826 -11.323  1.00  0.00     0.056 A 
BRANCH  30  31
ATOM     31  C   UNL     1      12.009   6.247 -12.575  1.00  0.00     0.416 C 
ATOM     32  F   UNL     1      13.158   6.934 -12.323  1.00  0.00    -0.166 F 
ATOM     33  F   UNL     1      12.371   5.182 -13.345  1.00  0.00    -0.166 F 
ATOM     34  F   UNL     1      11.264   7.053 -13.382  1.00  0.00    -0.166 F 
ENDBRANCH  30  31
ENDBRANCH  24  25
ENDBRANCH  19  20
ENDBRANCH  18  19
ENDBRANCH   5  18
TORSDOF 12
ENDMDL
