REMARK SMILES Cn1cc(-c2cc(-c3cnn([C@]4(CC#N)C[C@H](C#N)C4)n3)c3cccnc3c2)nn1
REMARK SMILES IDX 5 1 6 2 7 3 22 4 23 5 24 6 25 7 26 8 27 9 28 10 4 11 2 12
REMARK SMILES IDX 3 13 30 14 29 15 1 16 8 17 9 18 21 19 10 20 11 21 12 22
REMARK SMILES IDX 16 23 20 24 17 25 18 26 19 27 13 28 14 29 15 30
REMARK H PARENT
REMARK INDEX MAP 5 1 6 2 7 3 22 4 23 5 24 6 25 7 26 8 27 9 28 10 4 11 2 12
REMARK INDEX MAP 3 13 30 14 29 15 1 16 8 17 9 18 21 19 10 20 11 21 12 22 16 23
REMARK INDEX MAP 20 24 17 25 18 26 19 27 13 28 14 29 15 30
ROOT
ATOM      1  C   UNL     1     -10.482  14.413  19.804  1.00  0.00     0.007 A 
ATOM      2  C   UNL     1     -11.257  15.563  19.630  1.00  0.00     0.021 A 
ATOM      3  C   UNL     1     -12.655  15.483  19.585  1.00  0.00     0.014 A 
ATOM      4  C   UNL     1     -13.305  14.225  19.707  1.00  0.00     0.010 A 
ATOM      5  C   UNL     1     -14.705  14.034  19.652  1.00  0.00     0.012 A 
ATOM      6  C   UNL     1     -15.254  12.764  19.773  1.00  0.00     0.021 A 
ATOM      7  C   UNL     1     -14.390  11.705  19.947  1.00  0.00     0.112 A 
ATOM      8  N   UNL     1     -13.047  11.836  20.002  1.00  0.00    -0.256 NA
ATOM      9  C   UNL     1     -12.519  13.066  19.883  1.00  0.00     0.072 A 
ATOM     10  C   UNL     1     -11.137  13.182  19.929  1.00  0.00     0.039 A 
ENDROOT
BRANCH   1  11
ATOM     11  C   UNL     1      -9.034  14.524  19.847  1.00  0.00     0.113 A 
ATOM     12  N   UNL     1      -6.998  15.203  20.057  1.00  0.00    -0.255 N 
ATOM     13  C   UNL     1      -8.285  15.633  20.173  1.00  0.00     0.139 A 
ATOM     14  N   UNL     1      -6.937  13.915  19.687  1.00  0.00    -0.067 NA
ATOM     15  N   UNL     1      -8.185  13.485  19.552  1.00  0.00    -0.130 NA
ATOM     16  C   UNL     1      -5.787  15.947  20.279  1.00  0.00     0.175 C 
ENDBRANCH   1  11
BRANCH   3  17
ATOM     17  C   UNL     1     -13.401  16.717  19.406  1.00  0.00     0.113 A 
ATOM     18  C   UNL     1     -14.281  17.072  18.362  1.00  0.00     0.166 A 
ATOM     19  N   UNL     1     -13.328  17.740  20.272  1.00  0.00    -0.153 NA
ATOM     20  N   UNL     1     -14.780  18.291  18.575  1.00  0.00    -0.161 NA
ATOM     21  N   UNL     1     -14.176  18.638  19.727  1.00  0.00    -0.177 N 
BRANCH  21  22
ATOM     22  C   UNL     1     -14.459  19.924  20.429  1.00  0.00     0.098 C 
ATOM     23  C   UNL     1     -13.292  20.281  21.402  1.00  0.00     0.052 C 
ATOM     24  C   UNL     1     -14.048  21.199  19.623  1.00  0.00     0.052 C 
ATOM     25  C   UNL     1     -13.405  21.749  20.922  1.00  0.00     0.097 C 
ATOM     26  C   UNL     1     -12.154  22.458  20.761  1.00  0.00     0.066 C 
ATOM     27  N   UNL     1     -11.152  23.030  20.642  1.00  0.00    -0.198 NA
BRANCH  22  28
ATOM     28  C   UNL     1     -15.854  19.909  21.057  1.00  0.00     0.152 C 
ATOM     29  C   UNL     1     -16.012  18.817  22.028  1.00  0.00     0.065 C 
ATOM     30  N   UNL     1     -16.137  17.958  22.797  1.00  0.00    -0.198 NA
ENDBRANCH  22  28
ENDBRANCH  21  22
ENDBRANCH   3  17
TORSDOF 4
