MODEL 1
REMARK VINA RESULT:   -10.397      0.000      0.000
REMARK INTER + INTRA:         -16.261
REMARK INTER:                 -15.563
REMARK INTRA:                  -0.697
REMARK UNBOUND:                -0.697
REMARK SMILES C[C@]1(C(=O)O)CCc2ccc(OCCCOc3ccc(C4CCCC4)cc3Cl)cc2O1
REMARK SMILES IDX 13 1 12 2 11 3 2 4 6 5 31 6 7 7 30 8 8 9 29 10 9 11 10 12
REMARK SMILES IDX 1 13 3 14 4 15 5 16 14 18 15 19 16 20 17 21 18 22 27 23
REMARK SMILES IDX 19 24 26 25 20 26 28 27 21 28 22 29 25 30 23 31 24 32
REMARK H PARENT 5 17
ROOT
ATOM      1  C   UNL     1       7.162  10.265  -4.460  1.00  0.00     0.233 C 
ENDROOT
BRANCH   1   2
ATOM      2  O   UNL     1       5.760  10.494  -4.576  1.00  0.00    -0.493 OA
BRANCH   2   3
ATOM      3  C   UNL     1       4.931   9.432  -4.340  1.00  0.00     0.123 A 
ATOM      4  C   UNL     1       4.233   5.690  -1.421  1.00  0.00     0.203 C 
ATOM      5  C   UNL     1       3.444   4.957  -2.515  1.00  0.00     0.065 C 
ATOM      6  O   UNL     1       5.127   6.656  -1.995  1.00  0.00    -0.475 OA
ATOM      7  C   UNL     1       2.607   5.947  -3.313  1.00  0.00     0.044 C 
ATOM      8  C   UNL     1       4.610   7.441  -2.990  1.00  0.00     0.127 A 
ATOM      9  C   UNL     1       3.422   7.156  -3.664  1.00  0.00    -0.005 A 
ATOM     10  C   UNL     1       5.363   8.564  -3.335  1.00  0.00     0.093 A 
ATOM     11  C   UNL     1       2.981   8.033  -4.662  1.00  0.00     0.011 A 
ATOM     12  C   UNL     1       3.731   9.164  -5.000  1.00  0.00     0.047 A 
ATOM     13  C   UNL     1       5.131   4.689  -0.682  1.00  0.00     0.069 C 
BRANCH   4  14
ATOM     14  C   UNL     1       3.314   6.335  -0.365  1.00  0.00     0.347 C 
ATOM     15  O   UNL     1       2.223   5.937   0.013  1.00  0.00    -0.248 OA
BRANCH  14  16
ATOM     16  O   UNL     1       3.806   7.486   0.143  1.00  0.00    -0.478 OA
ATOM     17  H   UNL     1       3.637   7.396   1.106  1.00  0.00     0.296 HD
ENDBRANCH  14  16
ENDBRANCH   4  14
ENDBRANCH   2   3
ENDBRANCH   1   2
BRANCH   1  18
ATOM     18  C   UNL     1       7.748  10.071  -5.854  1.00  0.00     0.083 C 
BRANCH  18  19
ATOM     19  C   UNL     1       8.854  11.078  -6.160  1.00  0.00     0.233 C 
BRANCH  19  20
ATOM     20  O   UNL     1       9.987  10.348  -6.630  1.00  0.00    -0.492 OA
BRANCH  20  21
ATOM     21  C   UNL     1      10.078  10.106  -7.975  1.00  0.00     0.137 A 
ATOM     22  C   UNL     1       9.828   8.870  -8.578  1.00  0.00     0.048 A 
ATOM     23  C   UNL     1      10.457  11.184  -8.790  1.00  0.00     0.083 A 
ATOM     24  C   UNL     1       9.949   8.716  -9.965  1.00  0.00     0.008 A 
ATOM     25  C   UNL     1      10.577  11.028 -10.176  1.00  0.00     0.028 A 
ATOM     26  C   UNL     1      10.318   9.793 -10.784  1.00  0.00    -0.043 A 
ATOM     27  Cl  UNL     1      10.788  12.745  -8.121  1.00  0.00    -0.080 Cl
BRANCH  26  28
ATOM     28  C   UNL     1      10.464   9.645 -12.282  1.00  0.00     0.019 C 
ATOM     29  C   UNL     1       9.267  10.235 -13.050  1.00  0.00     0.008 C 
ATOM     30  C   UNL     1      11.715  10.325 -12.875  1.00  0.00     0.008 C 
ATOM     31  C   UNL     1       9.871  10.824 -14.316  1.00  0.00     0.001 C 
ATOM     32  C   UNL     1      11.194  11.392 -13.832  1.00  0.00     0.001 C 
ENDBRANCH  26  28
ENDBRANCH  20  21
ENDBRANCH  19  20
ENDBRANCH  18  19
ENDBRANCH   1  18
TORSDOF 9
ENDMDL
MODEL 2
REMARK VINA RESULT:    -9.916      2.666      3.391
REMARK INTER + INTRA:         -15.540
REMARK INTER:                 -14.460
REMARK INTRA:                  -1.081
REMARK UNBOUND:                -0.697
REMARK SMILES C[C@]1(C(=O)O)CCc2ccc(OCCCOc3ccc(C4CCCC4)cc3Cl)cc2O1
REMARK SMILES IDX 13 1 12 2 11 3 2 4 6 5 31 6 7 7 30 8 8 9 29 10 9 11 10 12
REMARK SMILES IDX 1 13 3 14 4 15 5 16 14 18 15 19 16 20 17 21 18 22 27 23
REMARK SMILES IDX 19 24 26 25 20 26 28 27 21 28 22 29 25 30 23 31 24 32
REMARK H PARENT 5 17
ROOT
ATOM      1  C   UNL     1       8.334   4.248  -6.124  1.00  0.00     0.233 C 
ENDROOT
BRANCH   1   2
ATOM      2  O   UNL     1       7.402   4.964  -6.931  1.00  0.00    -0.493 OA
BRANCH   2   3
ATOM      3  C   UNL     1       6.586   5.860  -6.299  1.00  0.00     0.123 A 
ATOM      4  C   UNL     1       3.360   6.280  -2.773  1.00  0.00     0.203 C 
ATOM      5  C   UNL     1       2.744   7.510  -3.455  1.00  0.00     0.065 C 
ATOM      6  O   UNL     1       4.042   5.453  -3.729  1.00  0.00    -0.475 OA
ATOM      7  C   UNL     1       3.834   8.352  -4.105  1.00  0.00     0.044 C 
ATOM      8  C   UNL     1       4.841   6.103  -4.629  1.00  0.00     0.127 A 
ATOM      9  C   UNL     1       4.786   7.478  -4.864  1.00  0.00    -0.005 A 
ATOM     10  C   UNL     1       5.726   5.301  -5.351  1.00  0.00     0.093 A 
ATOM     11  C   UNL     1       5.658   8.041  -5.804  1.00  0.00     0.011 A 
ATOM     12  C   UNL     1       6.552   7.237  -6.520  1.00  0.00     0.047 A 
ATOM     13  C   UNL     1       2.242   5.403  -2.195  1.00  0.00     0.069 C 
BRANCH   4  14
ATOM     14  C   UNL     1       4.286   6.660  -1.601  1.00  0.00     0.347 C 
ATOM     15  O   UNL     1       4.211   7.646  -0.884  1.00  0.00    -0.248 OA
BRANCH  14  16
ATOM     16  O   UNL     1       5.297   5.784  -1.409  1.00  0.00    -0.478 OA
ATOM     17  H   UNL     1       5.402   5.774  -0.433  1.00  0.00     0.296 HD
ENDBRANCH  14  16
ENDBRANCH   4  14
ENDBRANCH   2   3
ENDBRANCH   1   2
BRANCH   1  18
ATOM     18  C   UNL     1       9.748   4.655  -6.523  1.00  0.00     0.083 C 
BRANCH  18  19
ATOM     19  C   UNL     1       9.857   4.976  -8.012  1.00  0.00     0.233 C 
BRANCH  19  20
ATOM     20  O   UNL     1      10.285   6.332  -8.132  1.00  0.00    -0.492 OA
BRANCH  20  21
ATOM     21  C   UNL     1      10.301   6.889  -9.383  1.00  0.00     0.137 A 
ATOM     22  C   UNL     1      10.492   6.173 -10.568  1.00  0.00     0.048 A 
ATOM     23  C   UNL     1      10.121   8.279  -9.462  1.00  0.00     0.083 A 
ATOM     24  C   UNL     1      10.495   6.831 -11.805  1.00  0.00     0.008 A 
ATOM     25  C   UNL     1      10.125   8.934 -10.699  1.00  0.00     0.028 A 
ATOM     26  C   UNL     1      10.306   8.217 -11.889  1.00  0.00    -0.043 A 
ATOM     27  Cl  UNL     1       9.884   9.238  -8.041  1.00  0.00    -0.080 Cl
BRANCH  26  28
ATOM     28  C   UNL     1      10.316   8.947 -13.214  1.00  0.00     0.019 C 
ATOM     29  C   UNL     1       9.430  10.206 -13.198  1.00  0.00     0.008 C 
ATOM     30  C   UNL     1      11.710   9.424 -13.673  1.00  0.00     0.008 C 
ATOM     31  C   UNL     1      10.168  11.209 -14.072  1.00  0.00     0.001 C 
ATOM     32  C   UNL     1      11.626  10.945 -13.741  1.00  0.00     0.001 C 
ENDBRANCH  26  28
ENDBRANCH  20  21
ENDBRANCH  19  20
ENDBRANCH  18  19
ENDBRANCH   1  18
TORSDOF 9
ENDMDL
MODEL 3
REMARK VINA RESULT:    -9.832      3.167      3.868
REMARK INTER + INTRA:         -15.415
REMARK INTER:                 -14.462
REMARK INTRA:                  -0.953
REMARK UNBOUND:                -0.697
REMARK SMILES C[C@]1(C(=O)O)CCc2ccc(OCCCOc3ccc(C4CCCC4)cc3Cl)cc2O1
REMARK SMILES IDX 13 1 12 2 11 3 2 4 6 5 31 6 7 7 30 8 8 9 29 10 9 11 10 12
REMARK SMILES IDX 1 13 3 14 4 15 5 16 14 18 15 19 16 20 17 21 18 22 27 23
REMARK SMILES IDX 19 24 26 25 20 26 28 27 21 28 22 29 25 30 23 31 24 32
REMARK H PARENT 5 17
ROOT
ATOM      1  C   UNL     1       8.259   4.253  -6.135  1.00  0.00     0.233 C 
ENDROOT
BRANCH   1   2
ATOM      2  O   UNL     1       7.332   4.991  -6.928  1.00  0.00    -0.493 OA
BRANCH   2   3
ATOM      3  C   UNL     1       6.495   5.852  -6.274  1.00  0.00     0.123 A 
ATOM      4  C   UNL     1       3.353   6.138  -2.660  1.00  0.00     0.203 C 
ATOM      5  C   UNL     1       2.666   7.340  -3.325  1.00  0.00     0.065 C 
ATOM      6  O   UNL     1       4.043   5.340  -3.634  1.00  0.00    -0.475 OA
ATOM      7  C   UNL     1       3.700   8.227  -4.005  1.00  0.00     0.044 C 
ATOM      8  C   UNL     1       4.788   6.022  -4.556  1.00  0.00     0.127 A 
ATOM      9  C   UNL     1       4.668   7.393  -4.789  1.00  0.00    -0.005 A 
ATOM     10  C   UNL     1       5.686   5.258  -5.302  1.00  0.00     0.093 A 
ATOM     11  C   UNL     1       5.489   7.992  -5.754  1.00  0.00     0.011 A 
ATOM     12  C   UNL     1       6.396   7.226  -6.493  1.00  0.00     0.047 A 
ATOM     13  C   UNL     1       2.289   5.215  -2.052  1.00  0.00     0.069 C 
BRANCH   4  14
ATOM     14  C   UNL     1       4.293   6.559  -1.514  1.00  0.00     0.347 C 
ATOM     15  O   UNL     1       4.233   7.574  -0.838  1.00  0.00    -0.248 OA
BRANCH  14  16
ATOM     16  O   UNL     1       5.299   5.683  -1.296  1.00  0.00    -0.478 OA
ATOM     17  H   UNL     1       4.846   4.812  -1.318  1.00  0.00     0.296 HD
ENDBRANCH  14  16
ENDBRANCH   4  14
ENDBRANCH   2   3
ENDBRANCH   1   2
BRANCH   1  18
ATOM     18  C   UNL     1       9.644   4.365  -6.763  1.00  0.00     0.083 C 
BRANCH  18  19
ATOM     19  C   UNL     1       9.828   5.677  -7.523  1.00  0.00     0.233 C 
BRANCH  19  20
ATOM     20  O   UNL     1      10.625   5.402  -8.674  1.00  0.00    -0.492 OA
BRANCH  20  21
ATOM     21  C   UNL     1      10.550   6.274  -9.728  1.00  0.00     0.137 A 
ATOM     22  C   UNL     1      10.441   7.662  -9.603  1.00  0.00     0.048 A 
ATOM     23  C   UNL     1      10.577   5.718 -11.016  1.00  0.00     0.083 A 
ATOM     24  C   UNL     1      10.368   8.477 -10.740  1.00  0.00     0.008 A 
ATOM     25  C   UNL     1      10.504   6.534 -12.151  1.00  0.00     0.028 A 
ATOM     26  C   UNL     1      10.405   7.926 -12.029  1.00  0.00    -0.043 A 
ATOM     27  Cl  UNL     1      10.704   4.009 -11.257  1.00  0.00    -0.080 Cl
BRANCH  26  28
ATOM     28  C   UNL     1      10.317   8.787 -13.269  1.00  0.00     0.019 C 
ATOM     29  C   UNL     1       9.369   9.986 -13.086  1.00  0.00     0.008 C 
ATOM     30  C   UNL     1      11.661   9.385 -13.732  1.00  0.00     0.008 C 
ATOM     31  C   UNL     1      10.014  11.113 -13.879  1.00  0.00     0.001 C 
ATOM     32  C   UNL     1      11.497  10.898 -13.638  1.00  0.00     0.001 C 
ENDBRANCH  26  28
ENDBRANCH  20  21
ENDBRANCH  19  20
ENDBRANCH  18  19
ENDBRANCH   1  18
TORSDOF 9
ENDMDL
MODEL 4
REMARK VINA RESULT:    -9.324      2.914     10.820
REMARK INTER + INTRA:         -14.655
REMARK INTER:                 -13.798
REMARK INTRA:                  -0.856
REMARK UNBOUND:                -0.697
REMARK SMILES C[C@]1(C(=O)O)CCc2ccc(OCCCOc3ccc(C4CCCC4)cc3Cl)cc2O1
REMARK SMILES IDX 13 1 12 2 11 3 2 4 6 5 31 6 7 7 30 8 8 9 29 10 9 11 10 12
REMARK SMILES IDX 1 13 3 14 4 15 5 16 14 18 15 19 16 20 17 21 18 22 27 23
REMARK SMILES IDX 19 24 26 25 20 26 28 27 21 28 22 29 25 30 23 31 24 32
REMARK H PARENT 5 17
ROOT
ATOM      1  C   UNL     1       9.854  10.528  -7.636  1.00  0.00     0.233 C 
ENDROOT
BRANCH   1   2
ATOM      2  O   UNL     1       9.426   9.169  -7.676  1.00  0.00    -0.493 OA
BRANCH   2   3
ATOM      3  C   UNL     1       9.829   8.417  -8.746  1.00  0.00     0.123 A 
ATOM      4  C   UNL     1      11.207   8.706 -13.331  1.00  0.00     0.203 C 
ATOM      5  C   UNL     1      10.765   7.256 -13.577  1.00  0.00     0.065 C 
ATOM      6  O   UNL     1      10.501   9.274 -12.218  1.00  0.00    -0.475 OA
ATOM      7  C   UNL     1      11.061   6.401 -12.353  1.00  0.00     0.044 C 
ATOM      8  C   UNL     1      10.389   8.485 -11.106  1.00  0.00     0.127 A 
ATOM      9  C   UNL     1      10.632   7.110 -11.104  1.00  0.00    -0.005 A 
ATOM     10  C   UNL     1       9.979   9.128  -9.938  1.00  0.00     0.093 A 
ATOM     11  C   UNL     1      10.494   6.398  -9.905  1.00  0.00     0.011 A 
ATOM     12  C   UNL     1      10.094   7.047  -8.733  1.00  0.00     0.047 A 
ATOM     13  C   UNL     1      10.826   9.568 -14.542  1.00  0.00     0.069 C 
BRANCH   4  14
ATOM     14  C   UNL     1      12.732   8.832 -13.150  1.00  0.00     0.347 C 
ATOM     15  O   UNL     1      13.556   7.931 -13.131  1.00  0.00    -0.248 OA
BRANCH  14  16
ATOM     16  O   UNL     1      13.147  10.105 -12.965  1.00  0.00    -0.478 OA
ATOM     17  H   UNL     1      13.347  10.410 -13.877  1.00  0.00     0.296 HD
ENDBRANCH  14  16
ENDBRANCH   4  14
ENDBRANCH   2   3
ENDBRANCH   1   2
BRANCH   1  18
ATOM     18  C   UNL     1       9.020  11.278  -6.604  1.00  0.00     0.083 C 
BRANCH  18  19
ATOM     19  C   UNL     1       8.300  10.332  -5.646  1.00  0.00     0.233 C 
BRANCH  19  20
ATOM     20  O   UNL     1       6.978  10.134  -6.146  1.00  0.00    -0.492 OA
BRANCH  20  21
ATOM     21  C   UNL     1       6.092   9.446  -5.358  1.00  0.00     0.137 A 
ATOM     22  C   UNL     1       5.327  10.019  -4.338  1.00  0.00     0.048 A 
ATOM     23  C   UNL     1       5.963   8.070  -5.600  1.00  0.00     0.083 A 
ATOM     24  C   UNL     1       4.447   9.234  -3.582  1.00  0.00     0.008 A 
ATOM     25  C   UNL     1       5.083   7.288  -4.843  1.00  0.00     0.028 A 
ATOM     26  C   UNL     1       4.308   7.861  -3.827  1.00  0.00    -0.043 A 
ATOM     27  Cl  UNL     1       6.879   7.284  -6.841  1.00  0.00    -0.080 Cl
BRANCH  26  28
ATOM     28  C   UNL     1       3.371   6.994  -3.015  1.00  0.00     0.019 C 
ATOM     29  C   UNL     1       3.464   5.507  -3.401  1.00  0.00     0.008 C 
ATOM     30  C   UNL     1       3.609   7.045  -1.492  1.00  0.00     0.008 C 
ATOM     31  C   UNL     1       3.268   4.754  -2.093  1.00  0.00     0.001 C 
ATOM     32  C   UNL     1       3.993   5.626  -1.084  1.00  0.00     0.001 C 
ENDBRANCH  26  28
ENDBRANCH  20  21
ENDBRANCH  19  20
ENDBRANCH  18  19
ENDBRANCH   1  18
TORSDOF 9
ENDMDL
MODEL 5
REMARK VINA RESULT:    -9.159      6.518      7.788
REMARK INTER + INTRA:         -14.407
REMARK INTER:                 -13.975
REMARK INTRA:                  -0.432
REMARK UNBOUND:                -0.697
REMARK SMILES C[C@]1(C(=O)O)CCc2ccc(OCCCOc3ccc(C4CCCC4)cc3Cl)cc2O1
REMARK SMILES IDX 13 1 12 2 11 3 2 4 6 5 31 6 7 7 30 8 8 9 29 10 9 11 10 12
REMARK SMILES IDX 1 13 3 14 4 15 5 16 14 18 15 19 16 20 17 21 18 22 27 23
REMARK SMILES IDX 19 24 26 25 20 26 28 27 21 28 22 29 25 30 23 31 24 32
REMARK H PARENT 5 17
ROOT
ATOM      1  C   UNL     1       8.108   4.136  -5.460  1.00  0.00     0.233 C 
ENDROOT
BRANCH   1   2
ATOM      2  O   UNL     1       8.558   3.638  -4.202  1.00  0.00    -0.493 OA
BRANCH   2   3
ATOM      3  C   UNL     1       9.530   2.676  -4.222  1.00  0.00     0.123 A 
ATOM      4  C   UNL     1      14.101   1.823  -3.042  1.00  0.00     0.203 C 
ATOM      5  C   UNL     1      14.187   0.709  -4.096  1.00  0.00     0.065 C 
ATOM      6  O   UNL     1      13.068   2.763  -3.374  1.00  0.00    -0.475 OA
ATOM      7  C   UNL     1      12.870  -0.052  -4.166  1.00  0.00     0.044 C 
ATOM      8  C   UNL     1      11.876   2.232  -3.784  1.00  0.00     0.127 A 
ATOM      9  C   UNL     1      11.715   0.904  -4.183  1.00  0.00    -0.005 A 
ATOM     10  C   UNL     1      10.794   3.112  -3.815  1.00  0.00     0.093 A 
ATOM     11  C   UNL     1      10.446   0.463  -4.577  1.00  0.00     0.011 A 
ATOM     12  C   UNL     1       9.359   1.343  -4.598  1.00  0.00     0.047 A 
ATOM     13  C   UNL     1      15.406   2.629  -3.043  1.00  0.00     0.069 C 
BRANCH   4  14
ATOM     14  C   UNL     1      13.916   1.268  -1.616  1.00  0.00     0.347 C 
ATOM     15  O   UNL     1      12.881   0.882  -1.097  1.00  0.00    -0.248 OA
BRANCH  14  16
ATOM     16  O   UNL     1      15.057   1.259  -0.892  1.00  0.00    -0.478 OA
ATOM     17  H   UNL     1      15.671   0.729  -1.447  1.00  0.00     0.296 HD
ENDBRANCH  14  16
ENDBRANCH   4  14
ENDBRANCH   2   3
ENDBRANCH   1   2
BRANCH   1  18
ATOM     18  C   UNL     1       9.320   4.477  -6.319  1.00  0.00     0.083 C 
BRANCH  18  19
ATOM     19  C   UNL     1       9.048   5.650  -7.259  1.00  0.00     0.233 C 
BRANCH  19  20
ATOM     20  O   UNL     1      10.297   6.052  -7.821  1.00  0.00    -0.492 OA
BRANCH  20  21
ATOM     21  C   UNL     1      10.272   6.777  -8.983  1.00  0.00     0.137 A 
ATOM     22  C   UNL     1      10.079   8.160  -9.051  1.00  0.00     0.048 A 
ATOM     23  C   UNL     1      10.446   6.065 -10.179  1.00  0.00     0.083 A 
ATOM     24  C   UNL     1      10.067   8.817 -10.288  1.00  0.00     0.008 A 
ATOM     25  C   UNL     1      10.433   6.723 -11.414  1.00  0.00     0.028 A 
ATOM     26  C   UNL     1      10.249   8.111 -11.486  1.00  0.00    -0.043 A 
ATOM     27  Cl  UNL     1      10.685   4.351 -10.181  1.00  0.00    -0.080 Cl
BRANCH  26  28
ATOM     28  C   UNL     1      10.229   8.800 -12.832  1.00  0.00     0.019 C 
ATOM     29  C   UNL     1       9.709  10.246 -12.744  1.00  0.00     0.008 C 
ATOM     30  C   UNL     1      11.603   8.892 -13.527  1.00  0.00     0.008 C 
ATOM     31  C   UNL     1      10.526  11.014 -13.773  1.00  0.00     0.001 C 
ATOM     32  C   UNL     1      11.901  10.381 -13.660  1.00  0.00     0.001 C 
ENDBRANCH  26  28
ENDBRANCH  20  21
ENDBRANCH  19  20
ENDBRANCH  18  19
ENDBRANCH   1  18
TORSDOF 9
ENDMDL
MODEL 6
REMARK VINA RESULT:    -8.921      3.265     11.385
REMARK INTER + INTRA:         -14.051
REMARK INTER:                 -13.228
REMARK INTRA:                  -0.823
REMARK UNBOUND:                -0.697
REMARK SMILES C[C@]1(C(=O)O)CCc2ccc(OCCCOc3ccc(C4CCCC4)cc3Cl)cc2O1
REMARK SMILES IDX 13 1 12 2 11 3 2 4 6 5 31 6 7 7 30 8 8 9 29 10 9 11 10 12
REMARK SMILES IDX 1 13 3 14 4 15 5 16 14 18 15 19 16 20 17 21 18 22 27 23
REMARK SMILES IDX 19 24 26 25 20 26 28 27 21 28 22 29 25 30 23 31 24 32
REMARK H PARENT 5 17
ROOT
ATOM      1  C   UNL     1       9.163   5.366  -7.298  1.00  0.00     0.233 C 
ENDROOT
BRANCH   1   2
ATOM      2  O   UNL     1      10.347   6.097  -7.609  1.00  0.00    -0.493 OA
BRANCH   2   3
ATOM      3  C   UNL     1      10.665   6.239  -8.931  1.00  0.00     0.123 A 
ATOM      4  C   UNL     1      10.274   9.225 -12.666  1.00  0.00     0.203 C 
ATOM      5  C   UNL     1      10.421   8.051 -13.645  1.00  0.00     0.065 C 
ATOM      6  O   UNL     1       9.787   8.771 -11.394  1.00  0.00    -0.475 OA
ATOM      7  C   UNL     1      11.415   7.033 -13.103  1.00  0.00     0.044 C 
ATOM      8  C   UNL     1      10.370   7.640 -10.892  1.00  0.00     0.127 A 
ATOM      9  C   UNL     1      11.148   6.765 -11.652  1.00  0.00    -0.005 A 
ATOM     10  C   UNL     1      10.122   7.370  -9.545  1.00  0.00     0.093 A 
ATOM     11  C   UNL     1      11.704   5.639 -11.034  1.00  0.00     0.011 A 
ATOM     12  C   UNL     1      11.463   5.375  -9.681  1.00  0.00     0.047 A 
ATOM     13  C   UNL     1       9.209  10.197 -13.190  1.00  0.00     0.069 C 
BRANCH   4  14
ATOM     14  C   UNL     1      11.581  10.027 -12.512  1.00  0.00     0.347 C 
ATOM     15  O   UNL     1      12.548  10.023 -13.256  1.00  0.00    -0.248 OA
BRANCH  14  16
ATOM     16  O   UNL     1      11.617  10.781 -11.390  1.00  0.00    -0.478 OA
ATOM     17  H   UNL     1      12.404  11.353 -11.530  1.00  0.00     0.296 HD
ENDBRANCH  14  16
ENDBRANCH   4  14
ENDBRANCH   2   3
ENDBRANCH   1   2
BRANCH   1  18
ATOM     18  C   UNL     1       8.072   6.346  -6.881  1.00  0.00     0.083 C 
BRANCH  18  19
ATOM     19  C   UNL     1       6.773   5.636  -6.504  1.00  0.00     0.233 C 
BRANCH  19  20
ATOM     20  O   UNL     1       5.736   6.617  -6.480  1.00  0.00    -0.492 OA
BRANCH  20  21
ATOM     21  C   UNL     1       4.979   6.719  -5.343  1.00  0.00     0.137 A 
ATOM     22  C   UNL     1       4.254   5.668  -4.775  1.00  0.00     0.048 A 
ATOM     23  C   UNL     1       4.933   7.976  -4.722  1.00  0.00     0.083 A 
ATOM     24  C   UNL     1       3.505   5.867  -3.609  1.00  0.00     0.008 A 
ATOM     25  C   UNL     1       4.183   8.174  -3.556  1.00  0.00     0.028 A 
ATOM     26  C   UNL     1       3.463   7.119  -2.980  1.00  0.00    -0.043 A 
ATOM     27  Cl  UNL     1       5.798   9.331  -5.364  1.00  0.00    -0.080 Cl
BRANCH  26  28
ATOM     28  C   UNL     1       2.652   7.358  -1.726  1.00  0.00     0.019 C 
ATOM     29  C   UNL     1       1.886   6.101  -1.273  1.00  0.00     0.008 C 
ATOM     30  C   UNL     1       3.478   7.805  -0.503  1.00  0.00     0.008 C 
ATOM     31  C   UNL     1       1.913   6.158   0.247  1.00  0.00     0.001 C 
ATOM     32  C   UNL     1       3.295   6.712   0.544  1.00  0.00     0.001 C 
ENDBRANCH  26  28
ENDBRANCH  20  21
ENDBRANCH  19  20
ENDBRANCH  18  19
ENDBRANCH   1  18
TORSDOF 9
ENDMDL
MODEL 7
REMARK VINA RESULT:    -8.911      6.152      7.596
REMARK INTER + INTRA:         -14.037
REMARK INTER:                 -13.357
REMARK INTRA:                  -0.680
REMARK UNBOUND:                -0.697
REMARK SMILES C[C@]1(C(=O)O)CCc2ccc(OCCCOc3ccc(C4CCCC4)cc3Cl)cc2O1
REMARK SMILES IDX 13 1 12 2 11 3 2 4 6 5 31 6 7 7 30 8 8 9 29 10 9 11 10 12
REMARK SMILES IDX 1 13 3 14 4 15 5 16 14 18 15 19 16 20 17 21 18 22 27 23
REMARK SMILES IDX 19 24 26 25 20 26 28 27 21 28 22 29 25 30 23 31 24 32
REMARK H PARENT 5 17
ROOT
ATOM      1  C   UNL     1       8.885   3.853  -6.709  1.00  0.00     0.233 C 
ENDROOT
BRANCH   1   2
ATOM      2  O   UNL     1       8.409   3.873  -5.366  1.00  0.00    -0.493 OA
BRANCH   2   3
ATOM      3  C   UNL     1       9.147   3.202  -4.430  1.00  0.00     0.123 A 
ATOM      4  C   UNL     1      13.406   1.127  -3.677  1.00  0.00     0.203 C 
ATOM      5  C   UNL     1      12.800   0.232  -2.586  1.00  0.00     0.065 C 
ATOM      6  O   UNL     1      12.395   1.569  -4.596  1.00  0.00    -0.475 OA
ATOM      7  C   UNL     1      11.756   1.005  -1.791  1.00  0.00     0.044 C 
ATOM      8  C   UNL     1      11.224   2.009  -4.041  1.00  0.00     0.127 A 
ATOM      9  C   UNL     1      10.855   1.767  -2.716  1.00  0.00    -0.005 A 
ATOM     10  C   UNL     1      10.370   2.710  -4.892  1.00  0.00     0.093 A 
ATOM     11  C   UNL     1       9.635   2.272  -2.249  1.00  0.00     0.011 A 
ATOM     12  C   UNL     1       8.785   2.984  -3.101  1.00  0.00     0.047 A 
ATOM     13  C   UNL     1      14.395   0.308  -4.518  1.00  0.00     0.069 C 
BRANCH   4  14
ATOM     14  C   UNL     1      14.190   2.318  -3.092  1.00  0.00     0.347 C 
ATOM     15  O   UNL     1      13.928   2.958  -2.087  1.00  0.00    -0.248 OA
BRANCH  14  16
ATOM     16  O   UNL     1      15.264   2.669  -3.835  1.00  0.00    -0.478 OA
ATOM     17  H   UNL     1      14.862   3.101  -4.619  1.00  0.00     0.296 HD
ENDBRANCH  14  16
ENDBRANCH   4  14
ENDBRANCH   2   3
ENDBRANCH   1   2
BRANCH   1  18
ATOM     18  C   UNL     1       8.774   5.256  -7.294  1.00  0.00     0.083 C 
BRANCH  18  19
ATOM     19  C   UNL     1      10.141   5.907  -7.494  1.00  0.00     0.233 C 
BRANCH  19  20
ATOM     20  O   UNL     1      10.645   5.475  -8.758  1.00  0.00    -0.492 OA
BRANCH  20  21
ATOM     21  C   UNL     1      10.535   6.335  -9.818  1.00  0.00     0.137 A 
ATOM     22  C   UNL     1      10.394   7.721  -9.705  1.00  0.00     0.048 A 
ATOM     23  C   UNL     1      10.561   5.768 -11.101  1.00  0.00     0.083 A 
ATOM     24  C   UNL     1      10.287   8.522 -10.849  1.00  0.00     0.008 A 
ATOM     25  C   UNL     1      10.454   6.570 -12.243  1.00  0.00     0.028 A 
ATOM     26  C   UNL     1      10.322   7.960 -12.133  1.00  0.00    -0.043 A 
ATOM     27  Cl  UNL     1      10.728   4.060 -11.328  1.00  0.00    -0.080 Cl
BRANCH  26  28
ATOM     28  C   UNL     1      10.197   8.807 -13.380  1.00  0.00     0.019 C 
ATOM     29  C   UNL     1       9.343  10.067 -13.152  1.00  0.00     0.008 C 
ATOM     30  C   UNL     1      11.539   9.310 -13.950  1.00  0.00     0.008 C 
ATOM     31  C   UNL     1       9.998  11.138 -14.012  1.00  0.00     0.001 C 
ATOM     32  C   UNL     1      11.478  10.832 -13.874  1.00  0.00     0.001 C 
ENDBRANCH  26  28
ENDBRANCH  20  21
ENDBRANCH  19  20
ENDBRANCH  18  19
ENDBRANCH   1  18
TORSDOF 9
ENDMDL
MODEL 8
REMARK VINA RESULT:    -8.678      6.068     11.473
REMARK INTER + INTRA:         -13.688
REMARK INTER:                 -13.070
REMARK INTRA:                  -0.618
REMARK UNBOUND:                -0.697
REMARK SMILES C[C@]1(C(=O)O)CCc2ccc(OCCCOc3ccc(C4CCCC4)cc3Cl)cc2O1
REMARK SMILES IDX 13 1 12 2 11 3 2 4 6 5 31 6 7 7 30 8 8 9 29 10 9 11 10 12
REMARK SMILES IDX 1 13 3 14 4 15 5 16 14 18 15 19 16 20 17 21 18 22 27 23
REMARK SMILES IDX 19 24 26 25 20 26 28 27 21 28 22 29 25 30 23 31 24 32
REMARK H PARENT 5 17
ROOT
ATOM      1  C   UNL     1       9.742   4.976  -7.302  1.00  0.00     0.233 C 
ENDROOT
BRANCH   1   2
ATOM      2  O   UNL     1      10.307   6.229  -7.681  1.00  0.00    -0.493 OA
BRANCH   2   3
ATOM      3  C   UNL     1      10.658   6.386  -8.994  1.00  0.00     0.123 A 
ATOM      4  C   UNL     1      10.247   9.351 -12.742  1.00  0.00     0.203 C 
ATOM      5  C   UNL     1      10.475   8.185 -13.715  1.00  0.00     0.065 C 
ATOM      6  O   UNL     1       9.743   8.876 -11.484  1.00  0.00    -0.475 OA
ATOM      7  C   UNL     1      11.497   7.213 -13.142  1.00  0.00     0.044 C 
ATOM      8  C   UNL     1      10.360   7.772 -10.963  1.00  0.00     0.127 A 
ATOM      9  C   UNL     1      11.199   6.933 -11.700  1.00  0.00    -0.005 A 
ATOM     10  C   UNL     1      10.084   7.491  -9.625  1.00  0.00     0.093 A 
ATOM     11  C   UNL     1      11.786   5.832 -11.063  1.00  0.00     0.011 A 
ATOM     12  C   UNL     1      11.517   5.558  -9.718  1.00  0.00     0.047 A 
ATOM     13  C   UNL     1       9.157  10.275 -13.298  1.00  0.00     0.069 C 
BRANCH   4  14
ATOM     14  C   UNL     1      11.512  10.211 -12.549  1.00  0.00     0.347 C 
ATOM     15  O   UNL     1      12.502  10.247 -13.261  1.00  0.00    -0.248 OA
BRANCH  14  16
ATOM     16  O   UNL     1      11.478  10.971 -11.431  1.00  0.00    -0.478 OA
ATOM     17  H   UNL     1      10.644  11.479 -11.530  1.00  0.00     0.296 HD
ENDBRANCH  14  16
ENDBRANCH   4  14
ENDBRANCH   2   3
ENDBRANCH   1   2
BRANCH   1  18
ATOM     18  C   UNL     1       8.367   5.219  -6.691  1.00  0.00     0.083 C 
BRANCH  18  19
ATOM     19  C   UNL     1       7.773   3.950  -6.084  1.00  0.00     0.233 C 
BRANCH  19  20
ATOM     20  O   UNL     1       8.178   3.894  -4.717  1.00  0.00    -0.492 OA
BRANCH  20  21
ATOM     21  C   UNL     1       9.286   3.149  -4.408  1.00  0.00     0.137 A 
ATOM     22  C   UNL     1       9.958   2.317  -5.306  1.00  0.00     0.048 A 
ATOM     23  C   UNL     1       9.760   3.234  -3.090  1.00  0.00     0.083 A 
ATOM     24  C   UNL     1      11.084   1.590  -4.899  1.00  0.00     0.008 A 
ATOM     25  C   UNL     1      10.885   2.506  -2.684  1.00  0.00     0.028 A 
ATOM     26  C   UNL     1      11.567   1.679  -3.585  1.00  0.00    -0.043 A 
ATOM     27  Cl  UNL     1       8.981   4.237  -1.914  1.00  0.00    -0.080 Cl
BRANCH  26  28
ATOM     28  C   UNL     1      12.774   0.894  -3.122  1.00  0.00     0.019 C 
ATOM     29  C   UNL     1      13.913   0.902  -4.158  1.00  0.00     0.008 C 
ATOM     30  C   UNL     1      13.403   1.400  -1.808  1.00  0.00     0.008 C 
ATOM     31  C   UNL     1      15.189   0.935  -3.330  1.00  0.00     0.001 C 
ATOM     32  C   UNL     1      14.819   1.838  -2.167  1.00  0.00     0.001 C 
ENDBRANCH  26  28
ENDBRANCH  20  21
ENDBRANCH  19  20
ENDBRANCH  18  19
ENDBRANCH   1  18
TORSDOF 9
ENDMDL
MODEL 9
REMARK VINA RESULT:    -8.520      3.525     11.219
REMARK INTER + INTRA:         -13.451
REMARK INTER:                 -12.713
REMARK INTRA:                  -0.738
REMARK UNBOUND:                -0.697
REMARK SMILES C[C@]1(C(=O)O)CCc2ccc(OCCCOc3ccc(C4CCCC4)cc3Cl)cc2O1
REMARK SMILES IDX 13 1 12 2 11 3 2 4 6 5 31 6 7 7 30 8 8 9 29 10 9 11 10 12
REMARK SMILES IDX 1 13 3 14 4 15 5 16 14 18 15 19 16 20 17 21 18 22 27 23
REMARK SMILES IDX 19 24 26 25 20 26 28 27 21 28 22 29 25 30 23 31 24 32
REMARK H PARENT 5 17
ROOT
ATOM      1  C   UNL     1      10.815   5.089  -9.007  1.00  0.00     0.233 C 
ENDROOT
BRANCH   1   2
ATOM      2  O   UNL     1      10.481   5.056 -10.393  1.00  0.00    -0.493 OA
BRANCH   2   3
ATOM      3  C   UNL     1      11.036   6.015 -11.194  1.00  0.00     0.123 A 
ATOM      4  C   UNL     1      10.122  10.198 -13.358  1.00  0.00     0.203 C 
ATOM      5  C   UNL     1      11.213   9.920 -14.402  1.00  0.00     0.065 C 
ATOM      6  O   UNL     1       9.637   8.973 -12.787  1.00  0.00    -0.475 OA
ATOM      7  C   UNL     1      12.394   9.210 -13.753  1.00  0.00     0.044 C 
ATOM      8  C   UNL     1      10.586   8.054 -12.432  1.00  0.00     0.127 A 
ATOM      9  C   UNL     1      11.913   8.103 -12.864  1.00  0.00    -0.005 A 
ATOM     10  C   UNL     1      10.151   7.011 -11.613  1.00  0.00     0.093 A 
ATOM     11  C   UNL     1      12.804   7.113 -12.432  1.00  0.00     0.011 A 
ATOM     12  C   UNL     1      12.369   6.074 -11.603  1.00  0.00     0.047 A 
ATOM     13  C   UNL     1       8.909  10.838 -14.046  1.00  0.00     0.069 C 
BRANCH   4  14
ATOM     14  C   UNL     1      10.590  11.178 -12.266  1.00  0.00     0.347 C 
ATOM     15  O   UNL     1      10.891  10.918 -11.112  1.00  0.00    -0.248 OA
BRANCH  14  16
ATOM     16  O   UNL     1      10.623  12.465 -12.679  1.00  0.00    -0.478 OA
ATOM     17  H   UNL     1      11.581  12.681 -12.663  1.00  0.00     0.296 HD
ENDBRANCH  14  16
ENDBRANCH   4  14
ENDBRANCH   2   3
ENDBRANCH   1   2
BRANCH   1  18
ATOM     18  C   UNL     1      10.111   6.274  -8.358  1.00  0.00     0.083 C 
BRANCH  18  19
ATOM     19  C   UNL     1       8.987   5.835  -7.422  1.00  0.00     0.233 C 
BRANCH  19  20
ATOM     20  O   UNL     1       8.119   6.952  -7.234  1.00  0.00    -0.492 OA
BRANCH  20  21
ATOM     21  C   UNL     1       6.981   6.761  -6.496  1.00  0.00     0.137 A 
ATOM     22  C   UNL     1       6.348   5.528  -6.317  1.00  0.00     0.048 A 
ATOM     23  C   UNL     1       6.419   7.895  -5.890  1.00  0.00     0.083 A 
ATOM     24  C   UNL     1       5.184   5.429  -5.544  1.00  0.00     0.008 A 
ATOM     25  C   UNL     1       5.256   7.794  -5.118  1.00  0.00     0.028 A 
ATOM     26  C   UNL     1       4.625   6.558  -4.929  1.00  0.00    -0.043 A 
ATOM     27  Cl  UNL     1       7.138   9.460  -6.066  1.00  0.00    -0.080 Cl
BRANCH  26  28
ATOM     28  C   UNL     1       3.363   6.474  -4.100  1.00  0.00     0.019 C 
ATOM     29  C   UNL     1       3.179   5.092  -3.448  1.00  0.00     0.008 C 
ATOM     30  C   UNL     1       3.286   7.493  -2.945  1.00  0.00     0.008 C 
ATOM     31  C   UNL     1       2.544   5.383  -2.096  1.00  0.00     0.001 C 
ATOM     32  C   UNL     1       3.231   6.666  -1.665  1.00  0.00     0.001 C 
ENDBRANCH  26  28
ENDBRANCH  20  21
ENDBRANCH  19  20
ENDBRANCH  18  19
ENDBRANCH   1  18
TORSDOF 9
ENDMDL
