REMARK VINA RESULT:    -8.902      5.629     10.071
REMARK INTER + INTRA:         -11.693
REMARK INTER:                 -10.760
REMARK INTRA:                  -0.933
REMARK UNBOUND:                -1.230
REMARK SMILES Clc1ccc(C2=NN(c3ccccc3)[C@H](c3ccc4ccccc4c3)C2)cc1Cl
REMARK SMILES IDX 1 1 2 2 3 3 4 4 5 5 27 6 28 7 29 8 6 9 7 10 26 11 8 12 15 13
REMARK SMILES IDX 9 14 10 15 14 16 11 17 13 18 12 19 16 20 17 21 25 22 18 23
REMARK SMILES IDX 24 24 19 25 23 26 20 27 22 28 21 29
REMARK H PARENT
ROOT
ATOM      1  Cl  UNL     1      21.606   5.351  20.145  1.00  0.00    -0.083 Cl
ATOM      2  C   UNL     1      20.344   5.145  21.304  1.00  0.00     0.059 A 
ATOM      3  C   UNL     1      20.297   6.031  22.383  1.00  0.00     0.023 A 
ATOM      4  C   UNL     1      19.295   5.907  23.349  1.00  0.00     0.012 A 
ATOM      5  C   UNL     1      18.332   4.895  23.246  1.00  0.00    -0.001 A 
ATOM      6  C   UNL     1      18.377   4.009  22.166  1.00  0.00     0.032 A 
ATOM      7  C   UNL     1      19.381   4.133  21.196  1.00  0.00     0.060 A 
ATOM      8  Cl  UNL     1      19.373   3.002  19.890  1.00  0.00    -0.083 Cl
ENDROOT
BRANCH   5   9
ATOM      9  C   UNL     1      17.285   4.795  24.289  1.00  0.00     0.071 C 
ATOM     10  N   UNL     1      16.840   3.661  24.735  1.00  0.00    -0.176 NA
ATOM     11  C   UNL     1      16.686   6.014  24.937  1.00  0.00     0.091 C 
ATOM     12  N   UNL     1      15.875   3.943  25.660  1.00  0.00    -0.257 N 
ATOM     13  C   UNL     1      15.549   5.368  25.733  1.00  0.00     0.144 C 
BRANCH  12  14
ATOM     14  C   UNL     1      15.311   2.934  26.439  1.00  0.00     0.060 A 
ATOM     15  C   UNL     1      16.051   1.788  26.780  1.00  0.00     0.028 A 
ATOM     16  C   UNL     1      13.994   2.999  26.921  1.00  0.00     0.028 A 
ATOM     17  C   UNL     1      15.511   0.761  27.560  1.00  0.00     0.002 A 
ATOM     18  C   UNL     1      13.444   1.974  27.702  1.00  0.00     0.002 A 
ATOM     19  C   UNL     1      14.204   0.855  28.022  1.00  0.00     0.000 A 
ENDBRANCH  12  14
BRANCH  13  20
ATOM     20  C   UNL     1      14.199   5.725  25.127  1.00  0.00    -0.022 A 
ATOM     21  C   UNL     1      13.771   5.064  23.966  1.00  0.00     0.006 A 
ATOM     22  C   UNL     1      13.340   6.669  25.715  1.00  0.00     0.014 A 
ATOM     23  C   UNL     1      12.524   5.347  23.403  1.00  0.00     0.009 A 
ATOM     24  C   UNL     1      12.084   6.965  25.159  1.00  0.00    -0.018 A 
ATOM     25  C   UNL     1      11.670   6.294  23.987  1.00  0.00    -0.018 A 
ATOM     26  C   UNL     1      11.231   7.915  25.743  1.00  0.00     0.009 A 
ATOM     27  C   UNL     1      10.414   6.589  23.434  1.00  0.00     0.009 A 
ATOM     28  C   UNL     1       9.986   8.198  25.181  1.00  0.00     0.001 A 
ATOM     29  C   UNL     1       9.577   7.535  24.027  1.00  0.00     0.001 A 
ENDBRANCH  13  20
ENDBRANCH   5   9
TORSDOF 3
