REMARK SMILES Cc1ccccc1-c1nnc(Cc2nc3ccccc3[nH]2)o1
REMARK SMILES IDX 8 1 9 2 10 3 11 4 22 5 7 6 2 7 3 8 4 9 6 10 5 11 1 12 12 13
REMARK SMILES IDX 13 14 14 15 21 16 15 17 20 18 16 19 19 20 17 21 18 22
REMARK H PARENT 21 23
REMARK INDEX MAP 8 1 9 2 10 3 11 4 22 5 7 6 2 7 3 8 4 9 6 10 5 11 1 12 12 13
REMARK INDEX MAP 13 14 14 15 21 16 15 17 20 18 16 19 19 20 17 21 18 22 36 23
ROOT
ATOM      1  C   UNL     1      23.224  33.185  12.268  1.00  0.00     0.248 A 
ATOM      2  N   UNL     1      22.693  34.392  12.195  1.00  0.00    -0.108 NA
ATOM      3  N   UNL     1      21.324  34.236  12.223  1.00  0.00    -0.112 NA
ATOM      4  C   UNL     1      21.107  32.941  12.316  1.00  0.00     0.224 A 
ATOM      5  O   UNL     1      22.259  32.207  12.345  1.00  0.00    -0.420 OA
ENDROOT
BRANCH   1   6
ATOM      6  C   UNL     1      24.622  32.746  12.276  1.00  0.00     0.042 A 
ATOM      7  C   UNL     1      25.438  32.843  13.428  1.00  0.00    -0.038 A 
ATOM      8  C   UNL     1      26.774  32.398  13.372  1.00  0.00     0.004 A 
ATOM      9  C   UNL     1      27.306  31.866  12.199  1.00  0.00     0.000 A 
ATOM     10  C   UNL     1      25.187  32.203  11.103  1.00  0.00     0.014 A 
ATOM     11  C   UNL     1      26.513  31.768  11.064  1.00  0.00     0.001 A 
ATOM     12  C   UNL     1      24.936  33.406  14.732  1.00  0.00     0.045 C 
ENDBRANCH   1   6
BRANCH   4  13
ATOM     13  C   UNL     1      19.816  32.215  12.399  1.00  0.00     0.174 C 
BRANCH  13  14
ATOM     14  C   UNL     1      18.907  32.510  11.249  1.00  0.00     0.116 A 
ATOM     15  N   UNL     1      18.136  33.572  11.116  1.00  0.00    -0.233 NA
ATOM     16  N   UNL     1      18.747  31.656  10.180  1.00  0.00    -0.342 N 
ATOM     17  C   UNL     1      17.472  33.404   9.925  1.00  0.00     0.089 A 
ATOM     18  C   UNL     1      17.838  32.209   9.317  1.00  0.00     0.065 A 
ATOM     19  C   UNL     1      16.535  34.234   9.293  1.00  0.00     0.030 A 
ATOM     20  C   UNL     1      17.321  31.782   8.092  1.00  0.00     0.028 A 
ATOM     21  C   UNL     1      15.999  33.830   8.064  1.00  0.00     0.002 A 
ATOM     22  C   UNL     1      16.388  32.623   7.476  1.00  0.00     0.002 A 
ATOM     23  H   UNL     1      19.229  30.755  10.051  1.00  0.00     0.168 HD
ENDBRANCH  13  14
ENDBRANCH   4  13
TORSDOF 3
