REMARK SMILES Cc1cc(CN2C(=O)CN(c3ccccc3)C2=O)cc(C)c1OC(C)(C)C(=O)O
REMARK SMILES IDX 23 1 22 2 2 3 3 4 4 5 20 6 19 7 1 8 21 9 5 10 6 11 7 12
REMARK SMILES IDX 17 13 8 14 9 15 10 16 18 17 11 18 12 19 16 20 13 21 15 22
REMARK SMILES IDX 14 23 24 24 25 25 26 26 27 27 28 28 29 29
REMARK H PARENT 29 30
REMARK INDEX MAP 23 1 22 2 2 3 3 4 4 5 20 6 19 7 1 8 21 9 5 10 6 11 7 12 17 13
REMARK INDEX MAP 8 14 9 15 10 16 18 17 11 18 12 19 16 20 13 21 15 22 14 23
REMARK INDEX MAP 24 24 25 25 26 26 27 27 28 28 29 29 53 30
ROOT
ATOM      1  O   UNL     1      48.112 -37.230 109.277  1.00  0.00    -0.476 OA
ENDROOT
BRANCH   1   2
ATOM      2  C   UNL     1      47.082 -38.078 108.965  1.00  0.00     0.126 A 
ATOM      3  C   UNL     1      47.335 -39.252 108.233  1.00  0.00    -0.008 A 
ATOM      4  C   UNL     1      46.259 -40.087 107.891  1.00  0.00     0.012 A 
ATOM      5  C   UNL     1      44.957 -39.801 108.318  1.00  0.00    -0.027 A 
ATOM      6  C   UNL     1      45.795 -37.812 109.460  1.00  0.00    -0.008 A 
ATOM      7  C   UNL     1      44.737 -38.662 109.101  1.00  0.00     0.012 A 
ATOM      8  C   UNL     1      48.712 -39.634 107.771  1.00  0.00     0.048 C 
ATOM      9  C   UNL     1      45.493 -36.626 110.330  1.00  0.00     0.048 C 
BRANCH   5  10
ATOM     10  C   UNL     1      43.803 -40.686 107.910  1.00  0.00     0.166 C 
BRANCH  10  11
ATOM     11  N   UNL     1      43.975 -41.179 106.562  1.00  0.00    -0.258 N 
ATOM     12  C   UNL     1      44.632 -42.323 106.237  1.00  0.00     0.251 C 
ATOM     13  C   UNL     1      43.509 -40.541 105.443  1.00  0.00     0.332 C 
ATOM     14  O   UNL     1      45.144 -43.121 107.011  1.00  0.00    -0.272 OA
ATOM     15  C   UNL     1      44.633 -42.466 104.734  1.00  0.00     0.228 C 
ATOM     16  N   UNL     1      43.899 -41.292 104.321  1.00  0.00    -0.285 N 
ATOM     17  O   UNL     1      42.864 -39.502 105.468  1.00  0.00    -0.248 OA
BRANCH  16  18
ATOM     18  C   UNL     1      43.644 -40.999 102.954  1.00  0.00     0.046 A 
ATOM     19  C   UNL     1      43.911 -41.921 101.933  1.00  0.00     0.026 A 
ATOM     20  C   UNL     1      43.104 -39.755 102.583  1.00  0.00     0.026 A 
ATOM     21  C   UNL     1      43.652 -41.613 100.591  1.00  0.00     0.002 A 
ATOM     22  C   UNL     1      42.843 -39.446 101.241  1.00  0.00     0.002 A 
ATOM     23  C   UNL     1      43.117 -40.378 100.244  1.00  0.00     0.000 A 
ENDBRANCH  16  18
ENDBRANCH  10  11
ENDBRANCH   5  10
ENDBRANCH   1   2
BRANCH   1  24
ATOM     24  C   UNL     1      48.298 -36.123 108.379  1.00  0.00     0.200 C 
ATOM     25  C   UNL     1      47.318 -36.343 107.211  1.00  0.00     0.069 C 
ATOM     26  C   UNL     1      49.711 -36.258 107.776  1.00  0.00     0.069 C 
BRANCH  24  27
ATOM     27  C   UNL     1      48.105 -34.670 108.892  1.00  0.00     0.347 C 
ATOM     28  O   UNL     1      48.221 -34.280 110.044  1.00  0.00    -0.248 OA
BRANCH  27  29
ATOM     29  O   UNL     1      47.783 -33.787 107.923  1.00  0.00    -0.478 OA
ATOM     30  H   UNL     1      47.639 -32.834 108.150  1.00  0.00     0.296 HD
ENDBRANCH  27  29
ENDBRANCH  24  27
ENDBRANCH   1  24
TORSDOF 7
