REMARK VINA RESULT:    -9.232      0.610      2.027
REMARK INTER + INTRA:         -11.379
REMARK INTER:                 -11.055
REMARK INTRA:                  -0.324
REMARK UNBOUND:                -0.527
REMARK SMILES Cc1ccccc1-c1nnc(Cc2nc3ccccc3[nH]2)o1
REMARK SMILES IDX 8 1 9 2 10 3 11 4 22 5 7 6 2 7 3 8 4 9 6 10 5 11 1 12 12 13
REMARK SMILES IDX 13 14 14 15 21 16 15 17 20 18 16 19 19 20 17 21 18 22
REMARK H PARENT 21 23
ROOT
ATOM      1  C   UNL     1      16.729  33.452  12.932  1.00  0.00     0.248 A 
ATOM      2  N   UNL     1      17.602  32.473  12.785  1.00  0.00    -0.108 NA
ATOM      3  N   UNL     1      17.771  32.279  11.430  1.00  0.00    -0.112 NA
ATOM      4  C   UNL     1      16.990  33.159  10.837  1.00  0.00     0.224 A 
ATOM      5  O   UNL     1      16.293  33.935  11.720  1.00  0.00    -0.420 OA
ENDROOT
BRANCH   1   6
ATOM      6  C   UNL     1      16.174  34.074  14.137  1.00  0.00     0.042 A 
ATOM      7  C   UNL     1      14.792  34.031  14.443  1.00  0.00    -0.038 A 
ATOM      8  C   UNL     1      14.322  34.644  15.621  1.00  0.00     0.004 A 
ATOM      9  C   UNL     1      15.195  35.297  16.489  1.00  0.00     0.000 A 
ATOM     10  C   UNL     1      17.033  34.741  15.034  1.00  0.00     0.014 A 
ATOM     11  C   UNL     1      16.551  35.346  16.197  1.00  0.00     0.001 A 
ATOM     12  C   UNL     1      13.787  33.345  13.555  1.00  0.00     0.045 C 
ENDBRANCH   1   6
BRANCH   4  13
ATOM     13  C   UNL     1      16.793  33.402   9.387  1.00  0.00     0.174 C 
BRANCH  13  14
ATOM     14  C   UNL     1      16.577  32.143   8.609  1.00  0.00     0.116 A 
ATOM     15  N   UNL     1      17.499  31.463   7.955  1.00  0.00    -0.233 NA
ATOM     16  N   UNL     1      15.341  31.554   8.460  1.00  0.00    -0.342 N 
ATOM     17  C   UNL     1      16.843  30.402   7.380  1.00  0.00     0.089 A 
ATOM     18  C   UNL     1      15.486  30.436   7.682  1.00  0.00     0.065 A 
ATOM     19  C   UNL     1      17.340  29.364   6.580  1.00  0.00     0.030 A 
ATOM     20  C   UNL     1      14.576  29.478   7.231  1.00  0.00     0.028 A 
ATOM     21  C   UNL     1      16.450  28.389   6.113  1.00  0.00     0.002 A 
ATOM     22  C   UNL     1      15.091  28.448   6.436  1.00  0.00     0.002 A 
ATOM     23  H   UNL     1      14.478  31.882   8.877  1.00  0.00     0.168 HD
ENDBRANCH  13  14
ENDBRANCH   4  13
TORSDOF 3
