REMARK VINA RESULT:    -9.738      1.937      2.458
REMARK INTER + INTRA:         -17.877
REMARK INTER:                 -16.083
REMARK INTRA:                  -1.794
REMARK UNBOUND:                -1.876
REMARK SMILES CCOc1cc2ncc(C#N)c(Nc3ccc(OCc4ccccc4)c(Cl)c3)c2cc1NC(=O)/C=C/CN1CCOCC1
REMARK SMILES IDX 4 1 5 2 6 3 7 4 8 5 9 6 10 7 11 8 12 9 29 10 30 11 31 12
REMARK SMILES IDX 3 13 2 14 1 15 32 16 33 17 34 18 35 20 36 21 37 22 38 23
REMARK SMILES IDX 39 24 43 25 40 26 42 27 41 28 13 29 14 31 15 32 28 33 16 34
REMARK SMILES IDX 26 35 17 36 27 37 18 38 19 39 20 40 21 41 25 42 22 43 24 44
REMARK SMILES IDX 23 45
REMARK H PARENT 32 19 13 30
ROOT
ATOM      1  C   UNL     1      20.562  34.324  16.660  1.00  0.00     0.144 A 
ATOM      2  C   UNL     1      19.400  34.001  17.364  1.00  0.00     0.077 A 
ATOM      3  C   UNL     1      18.143  34.071  16.776  1.00  0.00     0.076 A 
ATOM      4  N   UNL     1      17.078  33.774  17.534  1.00  0.00    -0.255 NA
ATOM      5  C   UNL     1      15.849  33.877  16.979  1.00  0.00     0.133 A 
ATOM      6  C   UNL     1      15.616  34.276  15.676  1.00  0.00     0.094 A 
ATOM      7  C   UNL     1      14.265  34.349  15.213  1.00  0.00     0.103 C 
ATOM      8  N   UNL     1      13.149  34.405  14.904  1.00  0.00    -0.192 NA
ATOM      9  C   UNL     1      16.723  34.573  14.870  1.00  0.00     0.068 A 
ATOM     10  C   UNL     1      18.029  34.467  15.427  1.00  0.00     0.027 A 
ATOM     11  C   UNL     1      19.211  34.765  14.709  1.00  0.00     0.042 A 
ATOM     12  C   UNL     1      20.468  34.686  15.307  1.00  0.00     0.084 A 
ENDROOT
BRANCH   1  13
ATOM     13  O   UNL     1      21.835  34.304  17.179  1.00  0.00    -0.492 OA
BRANCH  13  14
ATOM     14  C   UNL     1      22.226  35.344  18.079  1.00  0.00     0.226 C 
ATOM     15  C   UNL     1      23.611  35.858  17.730  1.00  0.00     0.049 C 
ENDBRANCH  13  14
ENDBRANCH   1  13
BRANCH  12  16
ATOM     16  N   UNL     1      21.670  34.980  14.626  1.00  0.00    -0.319 N 
ATOM     17  C   UNL     1      22.201  34.331  13.538  1.00  0.00     0.248 C 
ATOM     18  O   UNL     1      21.784  33.309  13.007  1.00  0.00    -0.270 OA
ATOM     19  H   UNL     1      22.209  35.733  15.044  1.00  0.00     0.170 HD
BRANCH  17  20
ATOM     20  C   UNL     1      23.468  34.931  13.046  1.00  0.00     0.068 C 
ATOM     21  C   UNL     1      24.314  35.611  13.834  1.00  0.00    -0.006 C 
BRANCH  21  22
ATOM     22  C   UNL     1      25.572  36.263  13.334  1.00  0.00     0.112 C 
BRANCH  22  23
ATOM     23  N   UNL     1      26.767  35.745  14.005  1.00  0.00    -0.295 NA
ATOM     24  C   UNL     1      26.732  35.935  15.471  1.00  0.00     0.113 C 
ATOM     25  C   UNL     1      26.933  34.302  13.720  1.00  0.00     0.113 C 
ATOM     26  C   UNL     1      27.980  35.327  16.138  1.00  0.00     0.175 C 
ATOM     27  C   UNL     1      28.168  33.726  14.433  1.00  0.00     0.175 C 
ATOM     28  O   UNL     1      28.088  33.927  15.852  1.00  0.00    -0.379 OA
ENDBRANCH  22  23
ENDBRANCH  21  22
ENDBRANCH  17  20
ENDBRANCH  12  16
BRANCH   9  29
ATOM     29  N   UNL     1      16.562  35.008  13.532  1.00  0.00    -0.354 N 
ATOM     30  H   UNL     1      16.070  35.895  13.434  1.00  0.00     0.167 HD
BRANCH  29  31
ATOM     31  C   UNL     1      16.617  34.244  12.349  1.00  0.00     0.040 A 
ATOM     32  C   UNL     1      17.076  32.923  12.322  1.00  0.00     0.030 A 
ATOM     33  C   UNL     1      16.247  34.837  11.138  1.00  0.00     0.050 A 
ATOM     34  C   UNL     1      17.117  32.192  11.128  1.00  0.00     0.050 A 
ATOM     35  C   UNL     1      16.288  34.109   9.941  1.00  0.00     0.085 A 
ATOM     36  C   UNL     1      16.709  32.772   9.926  1.00  0.00     0.138 A 
ATOM     37  Cl  UNL     1      15.792  34.915   8.490  1.00  0.00    -0.080 Cl
BRANCH  36  38
ATOM     38  O   UNL     1      16.691  32.128   8.715  1.00  0.00    -0.487 OA
BRANCH  38  39
ATOM     39  C   UNL     1      15.441  31.621   8.261  1.00  0.00     0.265 C 
BRANCH  39  40
ATOM     40  C   UNL     1      15.693  30.382   7.438  1.00  0.00    -0.011 A 
ATOM     41  C   UNL     1      17.004  29.942   7.203  1.00  0.00     0.007 A 
ATOM     42  C   UNL     1      14.626  29.664   6.882  1.00  0.00     0.007 A 
ATOM     43  C   UNL     1      17.239  28.789   6.451  1.00  0.00     0.000 A 
ATOM     44  C   UNL     1      14.863  28.511   6.131  1.00  0.00     0.000 A 
ATOM     45  C   UNL     1      16.169  28.071   5.919  1.00  0.00     0.000 A 
ENDBRANCH  39  40
ENDBRANCH  38  39
ENDBRANCH  36  38
ENDBRANCH  29  31
ENDBRANCH   9  29
TORSDOF 11
