MODEL 1
REMARK VINA RESULT:    -9.688      0.000      0.000
REMARK INTER + INTRA:         -17.243
REMARK INTER:                 -15.634
REMARK INTRA:                  -1.609
REMARK UNBOUND:                -1.609
REMARK SMILES CC[C@@H](Cc1ccc(OC)c(CNC(=O)c2ccc(OC(F)(F)F)cc2)c1)C(=O)O
REMARK SMILES IDX 5 1 6 2 7 3 8 4 11 5 27 6 4 7 3 8 2 9 1 10 28 11 29 12 30 13
REMARK SMILES IDX 12 15 13 16 14 17 15 18 16 20 17 21 26 22 18 23 25 24 19 25
REMARK SMILES IDX 20 26 21 27 22 28 23 29 24 30 9 31 10 32
REMARK H PARENT 30 14 13 19
ROOT
ATOM      1  C   UNL     1      46.971  -0.518 131.510  1.00  0.00    -0.047 A 
ATOM      2  C   UNL     1      47.152   0.787 131.049  1.00  0.00     0.007 A 
ATOM      3  C   UNL     1      46.147   1.747 131.218  1.00  0.00     0.047 A 
ATOM      4  C   UNL     1      44.957   1.426 131.883  1.00  0.00     0.123 A 
ATOM      5  C   UNL     1      44.764   0.116 132.352  1.00  0.00     0.014 A 
ATOM      6  C   UNL     1      45.758  -0.848 132.124  1.00  0.00     0.013 A 
ENDROOT
BRANCH   1   7
ATOM      7  C   UNL     1      48.082  -1.541 131.434  1.00  0.00     0.050 C 
BRANCH   7   8
ATOM      8  C   UNL     1      48.307  -2.284 132.768  1.00  0.00     0.103 C 
BRANCH   8   9
ATOM      9  C   UNL     1      49.592  -1.792 133.453  1.00  0.00     0.012 C 
ATOM     10  C   UNL     1      49.492  -0.346 133.919  1.00  0.00     0.005 C 
ENDBRANCH   8   9
BRANCH   8  11
ATOM     11  C   UNL     1      48.397  -3.771 132.492  1.00  0.00     0.306 C 
ATOM     12  O   UNL     1      47.762  -4.642 133.064  1.00  0.00    -0.252 OA
BRANCH  11  13
ATOM     13  O   UNL     1      49.348  -4.061 131.582  1.00  0.00    -0.481 OA
ATOM     14  H   UNL     1      49.271  -3.360 130.883  1.00  0.00     0.296 HD
ENDBRANCH  11  13
ENDBRANCH   8  11
ENDBRANCH   7   8
ENDBRANCH   1   7
BRANCH   5  15
ATOM     15  C   UNL     1      43.566  -0.271 133.183  1.00  0.00     0.156 C 
BRANCH  15  16
ATOM     16  N   UNL     1      43.578   0.403 134.465  1.00  0.00    -0.348 N 
ATOM     17  C   UNL     1      42.441   0.629 135.203  1.00  0.00     0.251 C 
ATOM     18  O   UNL     1      41.302   0.325 134.864  1.00  0.00    -0.269 OA
ATOM     19  H   UNL     1      44.486   0.542 134.885  1.00  0.00     0.164 HD
BRANCH  17  20
ATOM     20  C   UNL     1      42.674   1.238 136.537  1.00  0.00     0.040 A 
ATOM     21  C   UNL     1      42.538   2.614 136.735  1.00  0.00     0.017 A 
ATOM     22  C   UNL     1      43.023   0.409 137.606  1.00  0.00     0.017 A 
ATOM     23  C   UNL     1      42.770   3.155 138.002  1.00  0.00     0.047 A 
ATOM     24  C   UNL     1      43.266   0.957 138.871  1.00  0.00     0.047 A 
ATOM     25  C   UNL     1      43.145   2.334 139.074  1.00  0.00     0.129 A 
BRANCH  25  26
ATOM     26  O   UNL     1      43.344   3.001 140.249  1.00  0.00    -0.406 OA
BRANCH  26  27
ATOM     27  C   UNL     1      42.490   2.693 141.337  1.00  0.00     0.573 C 
ATOM     28  F   UNL     1      43.058   1.706 142.065  1.00  0.00    -0.132 F 
ATOM     29  F   UNL     1      42.318   3.763 142.141  1.00  0.00    -0.132 F 
ATOM     30  F   UNL     1      41.288   2.255 140.903  1.00  0.00    -0.132 F 
ENDBRANCH  26  27
ENDBRANCH  25  26
ENDBRANCH  17  20
ENDBRANCH  15  16
ENDBRANCH   5  15
BRANCH   4  31
ATOM     31  O   UNL     1      43.938   2.309 132.135  1.00  0.00    -0.496 OA
ATOM     32  C   UNL     1      44.299   3.658 132.398  1.00  0.00     0.278 C 
ENDBRANCH   4  31
TORSDOF 11
ENDMDL
MODEL 2
REMARK VINA RESULT:    -8.932      1.395      2.006
REMARK INTER + INTRA:         -16.024
REMARK INTER:                 -14.523
REMARK INTRA:                  -1.501
REMARK UNBOUND:                -1.609
REMARK SMILES CC[C@@H](Cc1ccc(OC)c(CNC(=O)c2ccc(OC(F)(F)F)cc2)c1)C(=O)O
REMARK SMILES IDX 5 1 6 2 7 3 8 4 11 5 27 6 4 7 3 8 2 9 1 10 28 11 29 12 30 13
REMARK SMILES IDX 12 15 13 16 14 17 15 18 16 20 17 21 26 22 18 23 25 24 19 25
REMARK SMILES IDX 20 26 21 27 22 28 23 29 24 30 9 31 10 32
REMARK H PARENT 30 14 13 19
ROOT
ATOM      1  C   UNL     1      47.204  -0.608 131.787  1.00  0.00    -0.047 A 
ATOM      2  C   UNL     1      46.616  -1.378 130.782  1.00  0.00     0.007 A 
ATOM      3  C   UNL     1      45.341  -1.061 130.297  1.00  0.00     0.047 A 
ATOM      4  C   UNL     1      44.647   0.053 130.784  1.00  0.00     0.123 A 
ATOM      5  C   UNL     1      45.229   0.835 131.796  1.00  0.00     0.014 A 
ATOM      6  C   UNL     1      46.483   0.471 132.311  1.00  0.00     0.013 A 
ENDROOT
BRANCH   1   7
ATOM      7  C   UNL     1      48.619  -0.868 132.251  1.00  0.00     0.050 C 
BRANCH   7   8
ATOM      8  C   UNL     1      48.698  -1.919 133.379  1.00  0.00     0.103 C 
BRANCH   8   9
ATOM      9  C   UNL     1      49.957  -1.704 134.234  1.00  0.00     0.012 C 
ATOM     10  C   UNL     1      49.942  -0.376 134.977  1.00  0.00     0.005 C 
ENDBRANCH   8   9
BRANCH   8  11
ATOM     11  C   UNL     1      48.715  -3.301 132.759  1.00  0.00     0.306 C 
ATOM     12  O   UNL     1      49.534  -3.710 131.952  1.00  0.00    -0.252 OA
BRANCH  11  13
ATOM     13  O   UNL     1      47.649  -4.037 133.129  1.00  0.00    -0.481 OA
ATOM     14  H   UNL     1      47.310  -3.614 133.961  1.00  0.00     0.296 HD
ENDBRANCH  11  13
ENDBRANCH   8  11
ENDBRANCH   7   8
ENDBRANCH   1   7
BRANCH   5  15
ATOM     15  C   UNL     1      44.600   2.117 132.283  1.00  0.00     0.156 C 
BRANCH  15  16
ATOM     16  N   UNL     1      44.299   2.046 133.698  1.00  0.00    -0.348 N 
ATOM     17  C   UNL     1      43.140   1.496 134.192  1.00  0.00     0.251 C 
ATOM     18  O   UNL     1      42.226   1.037 133.513  1.00  0.00    -0.269 OA
ATOM     19  H   UNL     1      45.062   2.255 134.325  1.00  0.00     0.164 HD
BRANCH  17  20
ATOM     20  C   UNL     1      43.066   1.420 135.672  1.00  0.00     0.040 A 
ATOM     21  C   UNL     1      43.451   2.501 136.470  1.00  0.00     0.017 A 
ATOM     22  C   UNL     1      42.594   0.247 136.266  1.00  0.00     0.017 A 
ATOM     23  C   UNL     1      43.374   2.394 137.861  1.00  0.00     0.047 A 
ATOM     24  C   UNL     1      42.530   0.140 137.660  1.00  0.00     0.047 A 
ATOM     25  C   UNL     1      42.925   1.212 138.465  1.00  0.00     0.129 A 
BRANCH  25  26
ATOM     26  O   UNL     1      42.910   1.250 139.829  1.00  0.00    -0.406 OA
BRANCH  26  27
ATOM     27  C   UNL     1      41.667   1.481 140.471  1.00  0.00     0.573 C 
ATOM     28  F   UNL     1      41.759   2.621 141.191  1.00  0.00    -0.132 F 
ATOM     29  F   UNL     1      40.674   1.633 139.569  1.00  0.00    -0.132 F 
ATOM     30  F   UNL     1      41.361   0.474 141.316  1.00  0.00    -0.132 F 
ENDBRANCH  26  27
ENDBRANCH  25  26
ENDBRANCH  17  20
ENDBRANCH  15  16
ENDBRANCH   5  15
BRANCH   4  31
ATOM     31  O   UNL     1      43.418   0.467 130.339  1.00  0.00    -0.496 OA
ATOM     32  C   UNL     1      42.353  -0.471 130.412  1.00  0.00     0.278 C 
ENDBRANCH   4  31
TORSDOF 11
ENDMDL
MODEL 3
REMARK VINA RESULT:    -8.563      3.568      6.113
REMARK INTER + INTRA:         -15.429
REMARK INTER:                 -14.000
REMARK INTRA:                  -1.429
REMARK UNBOUND:                -1.609
REMARK SMILES CC[C@@H](Cc1ccc(OC)c(CNC(=O)c2ccc(OC(F)(F)F)cc2)c1)C(=O)O
REMARK SMILES IDX 5 1 6 2 7 3 8 4 11 5 27 6 4 7 3 8 2 9 1 10 28 11 29 12 30 13
REMARK SMILES IDX 12 15 13 16 14 17 15 18 16 20 17 21 26 22 18 23 25 24 19 25
REMARK SMILES IDX 20 26 21 27 22 28 23 29 24 30 9 31 10 32
REMARK H PARENT 30 14 13 19
ROOT
ATOM      1  C   UNL     1      41.282  -0.248 130.658  1.00  0.00    -0.047 A 
ATOM      2  C   UNL     1      41.717  -1.494 130.200  1.00  0.00     0.007 A 
ATOM      3  C   UNL     1      43.031  -1.918 130.434  1.00  0.00     0.047 A 
ATOM      4  C   UNL     1      43.922  -1.119 131.160  1.00  0.00     0.123 A 
ATOM      5  C   UNL     1      43.495   0.136 131.626  1.00  0.00     0.014 A 
ATOM      6  C   UNL     1      42.193   0.571 131.334  1.00  0.00     0.013 A 
ENDROOT
BRANCH   1   7
ATOM      7  C   UNL     1      39.841   0.185 130.509  1.00  0.00     0.050 C 
BRANCH   7   8
ATOM      8  C   UNL     1      39.043  -0.708 129.536  1.00  0.00     0.103 C 
BRANCH   8   9
ATOM      9  C   UNL     1      38.905  -0.028 128.165  1.00  0.00     0.012 C 
ATOM     10  C   UNL     1      39.820  -0.638 127.112  1.00  0.00     0.005 C 
ENDBRANCH   8   9
BRANCH   8  11
ATOM     11  C   UNL     1      37.674  -0.975 130.127  1.00  0.00     0.306 C 
ATOM     12  O   UNL     1      37.125  -0.304 130.986  1.00  0.00    -0.252 OA
BRANCH  11  13
ATOM     13  O   UNL     1      37.135  -2.120 129.663  1.00  0.00    -0.481 OA
ATOM     14  H   UNL     1      36.949  -1.956 128.702  1.00  0.00     0.296 HD
ENDBRANCH  11  13
ENDBRANCH   8  11
ENDBRANCH   7   8
ENDBRANCH   1   7
BRANCH   5  15
ATOM     15  C   UNL     1      44.354   0.997 132.518  1.00  0.00     0.156 C 
BRANCH  15  16
ATOM     16  N   UNL     1      43.846   1.016 133.874  1.00  0.00    -0.348 N 
ATOM     17  C   UNL     1      44.047   2.068 134.736  1.00  0.00     0.251 C 
ATOM     18  O   UNL     1      44.694   3.080 134.481  1.00  0.00    -0.269 OA
ATOM     19  H   UNL     1      43.174   0.298 134.107  1.00  0.00     0.164 HD
BRANCH  17  20
ATOM     20  C   UNL     1      43.356   1.947 136.043  1.00  0.00     0.040 A 
ATOM     21  C   UNL     1      42.615   0.806 136.364  1.00  0.00     0.017 A 
ATOM     22  C   UNL     1      43.463   2.991 136.965  1.00  0.00     0.017 A 
ATOM     23  C   UNL     1      41.972   0.726 137.601  1.00  0.00     0.047 A 
ATOM     24  C   UNL     1      42.807   2.912 138.198  1.00  0.00     0.047 A 
ATOM     25  C   UNL     1      42.054   1.781 138.521  1.00  0.00     0.129 A 
BRANCH  25  26
ATOM     26  O   UNL     1      41.370   1.565 139.683  1.00  0.00    -0.406 OA
BRANCH  26  27
ATOM     27  C   UNL     1      42.119   1.472 140.882  1.00  0.00     0.573 C 
ATOM     28  F   UNL     1      41.478   0.634 141.727  1.00  0.00    -0.132 F 
ATOM     29  F   UNL     1      43.351   0.972 140.650  1.00  0.00    -0.132 F 
ATOM     30  F   UNL     1      42.225   2.676 141.485  1.00  0.00    -0.132 F 
ENDBRANCH  26  27
ENDBRANCH  25  26
ENDBRANCH  17  20
ENDBRANCH  15  16
ENDBRANCH   5  15
BRANCH   4  31
ATOM     31  O   UNL     1      45.209  -1.469 131.478  1.00  0.00    -0.496 OA
ATOM     32  C   UNL     1      46.175  -1.400 130.437  1.00  0.00     0.278 C 
ENDBRANCH   4  31
TORSDOF 11
ENDMDL
MODEL 4
REMARK VINA RESULT:    -8.541      1.777      2.461
REMARK INTER + INTRA:         -15.392
REMARK INTER:                 -14.329
REMARK INTRA:                  -1.063
REMARK UNBOUND:                -1.609
REMARK SMILES CC[C@@H](Cc1ccc(OC)c(CNC(=O)c2ccc(OC(F)(F)F)cc2)c1)C(=O)O
REMARK SMILES IDX 5 1 6 2 7 3 8 4 11 5 27 6 4 7 3 8 2 9 1 10 28 11 29 12 30 13
REMARK SMILES IDX 12 15 13 16 14 17 15 18 16 20 17 21 26 22 18 23 25 24 19 25
REMARK SMILES IDX 20 26 21 27 22 28 23 29 24 30 9 31 10 32
REMARK H PARENT 30 14 13 19
ROOT
ATOM      1  C   UNL     1      46.020   0.212 131.993  1.00  0.00    -0.047 A 
ATOM      2  C   UNL     1      45.987   0.157 130.599  1.00  0.00     0.007 A 
ATOM      3  C   UNL     1      44.766   0.073 129.919  1.00  0.00     0.047 A 
ATOM      4  C   UNL     1      43.555   0.079 130.622  1.00  0.00     0.123 A 
ATOM      5  C   UNL     1      43.575   0.134 132.025  1.00  0.00     0.014 A 
ATOM      6  C   UNL     1      44.810   0.161 132.693  1.00  0.00     0.013 A 
ENDROOT
BRANCH   1   7
ATOM      7  C   UNL     1      47.319   0.409 132.743  1.00  0.00     0.050 C 
BRANCH   7   8
ATOM      8  C   UNL     1      48.362  -0.685 132.433  1.00  0.00     0.103 C 
BRANCH   8   9
ATOM      9  C   UNL     1      47.698  -2.070 132.384  1.00  0.00     0.012 C 
ATOM     10  C   UNL     1      48.063  -2.852 131.130  1.00  0.00     0.005 C 
ENDBRANCH   8   9
BRANCH   8  11
ATOM     11  C   UNL     1      49.435  -0.657 133.503  1.00  0.00     0.306 C 
ATOM     12  O   UNL     1      50.096  -1.613 133.875  1.00  0.00    -0.252 OA
BRANCH  11  13
ATOM     13  O   UNL     1      49.532   0.551 134.092  1.00  0.00    -0.481 OA
ATOM     14  H   UNL     1      50.402   0.545 134.571  1.00  0.00     0.296 HD
ENDBRANCH  11  13
ENDBRANCH   8  11
ENDBRANCH   7   8
ENDBRANCH   1   7
BRANCH   5  15
ATOM     15  C   UNL     1      42.315   0.268 132.843  1.00  0.00     0.156 C 
BRANCH  15  16
ATOM     16  N   UNL     1      42.599   0.806 134.158  1.00  0.00    -0.348 N 
ATOM     17  C   UNL     1      41.679   0.813 135.179  1.00  0.00     0.251 C 
ATOM     18  O   UNL     1      40.524   0.406 135.098  1.00  0.00    -0.269 OA
ATOM     19  H   UNL     1      43.568   1.012 134.353  1.00  0.00     0.164 HD
BRANCH  17  20
ATOM     20  C   UNL     1      42.195   1.307 136.480  1.00  0.00     0.040 A 
ATOM     21  C   UNL     1      42.532   0.420 137.506  1.00  0.00     0.017 A 
ATOM     22  C   UNL     1      42.351   2.683 136.667  1.00  0.00     0.017 A 
ATOM     23  C   UNL     1      43.009   0.919 138.721  1.00  0.00     0.047 A 
ATOM     24  C   UNL     1      42.818   3.178 137.890  1.00  0.00     0.047 A 
ATOM     25  C   UNL     1      43.145   2.299 138.925  1.00  0.00     0.129 A 
BRANCH  25  26
ATOM     26  O   UNL     1      43.615   2.639 140.160  1.00  0.00    -0.406 OA
BRANCH  26  27
ATOM     27  C   UNL     1      42.739   2.491 141.265  1.00  0.00     0.573 C 
ATOM     28  F   UNL     1      43.107   1.393 141.962  1.00  0.00    -0.132 F 
ATOM     29  F   UNL     1      42.811   3.556 142.090  1.00  0.00    -0.132 F 
ATOM     30  F   UNL     1      41.464   2.321 140.854  1.00  0.00    -0.132 F 
ENDBRANCH  26  27
ENDBRANCH  25  26
ENDBRANCH  17  20
ENDBRANCH  15  16
ENDBRANCH   5  15
BRANCH   4  31
ATOM     31  O   UNL     1      42.312   0.046 130.042  1.00  0.00    -0.496 OA
ATOM     32  C   UNL     1      41.709  -1.229 129.873  1.00  0.00     0.278 C 
ENDBRANCH   4  31
TORSDOF 11
ENDMDL
MODEL 5
REMARK VINA RESULT:    -8.540      4.441      8.999
REMARK INTER + INTRA:         -15.390
REMARK INTER:                 -14.127
REMARK INTRA:                  -1.263
REMARK UNBOUND:                -1.609
REMARK SMILES CC[C@@H](Cc1ccc(OC)c(CNC(=O)c2ccc(OC(F)(F)F)cc2)c1)C(=O)O
REMARK SMILES IDX 5 1 6 2 7 3 8 4 11 5 27 6 4 7 3 8 2 9 1 10 28 11 29 12 30 13
REMARK SMILES IDX 12 15 13 16 14 17 15 18 16 20 17 21 26 22 18 23 25 24 19 25
REMARK SMILES IDX 20 26 21 27 22 28 23 29 24 30 9 31 10 32
REMARK H PARENT 30 14 13 19
ROOT
ATOM      1  C   UNL     1      42.639   2.227 136.259  1.00  0.00    -0.047 A 
ATOM      2  C   UNL     1      41.699   1.376 135.677  1.00  0.00     0.007 A 
ATOM      3  C   UNL     1      41.900   0.870 134.386  1.00  0.00     0.047 A 
ATOM      4  C   UNL     1      43.063   1.180 133.671  1.00  0.00     0.123 A 
ATOM      5  C   UNL     1      44.017   2.034 134.247  1.00  0.00     0.014 A 
ATOM      6  C   UNL     1      43.773   2.578 135.518  1.00  0.00     0.013 A 
ENDROOT
BRANCH   1   7
ATOM      7  C   UNL     1      42.495   2.699 137.689  1.00  0.00     0.050 C 
BRANCH   7   8
ATOM      8  C   UNL     1      42.499   1.539 138.707  1.00  0.00     0.103 C 
BRANCH   8   9
ATOM      9  C   UNL     1      41.068   1.043 138.969  1.00  0.00     0.012 C 
ATOM     10  C   UNL     1      40.823  -0.356 138.420  1.00  0.00     0.005 C 
ENDBRANCH   8   9
BRANCH   8  11
ATOM     11  C   UNL     1      43.129   2.022 139.997  1.00  0.00     0.306 C 
ATOM     12  O   UNL     1      43.605   3.130 140.187  1.00  0.00    -0.252 OA
BRANCH  11  13
ATOM     13  O   UNL     1      43.199   1.046 140.924  1.00  0.00    -0.481 OA
ATOM     14  H   UNL     1      43.567   0.255 140.450  1.00  0.00     0.296 HD
ENDBRANCH  11  13
ENDBRANCH   8  11
ENDBRANCH   7   8
ENDBRANCH   1   7
BRANCH   5  15
ATOM     15  C   UNL     1      45.346   2.314 133.591  1.00  0.00     0.156 C 
BRANCH  15  16
ATOM     16  N   UNL     1      46.037   1.083 133.266  1.00  0.00    -0.348 N 
ATOM     17  C   UNL     1      47.182   1.045 132.504  1.00  0.00     0.251 C 
ATOM     18  O   UNL     1      47.726   2.018 131.993  1.00  0.00    -0.269 OA
ATOM     19  H   UNL     1      45.747   0.262 133.776  1.00  0.00     0.164 HD
BRANCH  17  20
ATOM     20  C   UNL     1      47.800  -0.298 132.373  1.00  0.00     0.040 A 
ATOM     21  C   UNL     1      47.394  -1.184 131.371  1.00  0.00     0.017 A 
ATOM     22  C   UNL     1      48.810  -0.668 133.264  1.00  0.00     0.017 A 
ATOM     23  C   UNL     1      47.993  -2.442 131.279  1.00  0.00     0.047 A 
ATOM     24  C   UNL     1      49.398  -1.934 133.176  1.00  0.00     0.047 A 
ATOM     25  C   UNL     1      48.989  -2.830 132.185  1.00  0.00     0.129 A 
BRANCH  25  26
ATOM     26  O   UNL     1      49.477  -4.088 131.977  1.00  0.00    -0.406 OA
BRANCH  26  27
ATOM     27  C   UNL     1      48.692  -5.182 132.420  1.00  0.00     0.573 C 
ATOM     28  F   UNL     1      49.485  -6.028 133.116  1.00  0.00    -0.132 F 
ATOM     29  F   UNL     1      47.699  -4.772 133.237  1.00  0.00    -0.132 F 
ATOM     30  F   UNL     1      48.169  -5.860 131.376  1.00  0.00    -0.132 F 
ENDBRANCH  26  27
ENDBRANCH  25  26
ENDBRANCH  17  20
ENDBRANCH  15  16
ENDBRANCH   5  15
BRANCH   4  31
ATOM     31  O   UNL     1      43.367   0.696 132.424  1.00  0.00    -0.496 OA
ATOM     32  C   UNL     1      43.230  -0.703 132.220  1.00  0.00     0.278 C 
ENDBRANCH   4  31
TORSDOF 11
ENDMDL
MODEL 6
REMARK VINA RESULT:    -8.486      5.252      7.931
REMARK INTER + INTRA:         -15.304
REMARK INTER:                 -14.247
REMARK INTRA:                  -1.057
REMARK UNBOUND:                -1.609
REMARK SMILES CC[C@@H](Cc1ccc(OC)c(CNC(=O)c2ccc(OC(F)(F)F)cc2)c1)C(=O)O
REMARK SMILES IDX 5 1 6 2 7 3 8 4 11 5 27 6 4 7 3 8 2 9 1 10 28 11 29 12 30 13
REMARK SMILES IDX 12 15 13 16 14 17 15 18 16 20 17 21 26 22 18 23 25 24 19 25
REMARK SMILES IDX 20 26 21 27 22 28 23 29 24 30 9 31 10 32
REMARK H PARENT 30 14 13 19
ROOT
ATOM      1  C   UNL     1      36.518  -2.043 135.524  1.00  0.00    -0.047 A 
ATOM      2  C   UNL     1      35.458  -2.117 134.619  1.00  0.00     0.007 A 
ATOM      3  C   UNL     1      35.435  -1.301 133.481  1.00  0.00     0.047 A 
ATOM      4  C   UNL     1      36.491  -0.422 133.211  1.00  0.00     0.123 A 
ATOM      5  C   UNL     1      37.564  -0.339 134.114  1.00  0.00     0.014 A 
ATOM      6  C   UNL     1      37.544  -1.122 135.278  1.00  0.00     0.013 A 
ENDROOT
BRANCH   1   7
ATOM      7  C   UNL     1      36.616  -2.987 136.701  1.00  0.00     0.050 C 
BRANCH   7   8
ATOM      8  C   UNL     1      37.768  -4.005 136.559  1.00  0.00     0.103 C 
BRANCH   8   9
ATOM      9  C   UNL     1      37.440  -5.047 135.478  1.00  0.00     0.012 C 
ATOM     10  C   UNL     1      37.804  -6.464 135.899  1.00  0.00     0.005 C 
ENDBRANCH   8   9
BRANCH   8  11
ATOM     11  C   UNL     1      37.986  -4.687 137.894  1.00  0.00     0.306 C 
ATOM     12  O   UNL     1      37.118  -5.196 138.585  1.00  0.00    -0.252 OA
BRANCH  11  13
ATOM     13  O   UNL     1      39.265  -4.597 138.307  1.00  0.00    -0.481 OA
ATOM     14  H   UNL     1      39.585  -5.533 138.391  1.00  0.00     0.296 HD
ENDBRANCH  11  13
ENDBRANCH   8  11
ENDBRANCH   7   8
ENDBRANCH   1   7
BRANCH   5  15
ATOM     15  C   UNL     1      38.791   0.491 133.830  1.00  0.00     0.156 C 
BRANCH  15  16
ATOM     16  N   UNL     1      39.558   0.720 135.037  1.00  0.00    -0.348 N 
ATOM     17  C   UNL     1      40.932   0.735 135.061  1.00  0.00     0.251 C 
ATOM     18  O   UNL     1      41.661   0.529 134.095  1.00  0.00    -0.269 OA
ATOM     19  H   UNL     1      39.039   1.053 135.837  1.00  0.00     0.164 HD
BRANCH  17  20
ATOM     20  C   UNL     1      41.531   1.094 136.370  1.00  0.00     0.040 A 
ATOM     21  C   UNL     1      42.205   2.306 136.548  1.00  0.00     0.017 A 
ATOM     22  C   UNL     1      41.403   0.204 137.439  1.00  0.00     0.017 A 
ATOM     23  C   UNL     1      42.761   2.610 137.792  1.00  0.00     0.047 A 
ATOM     24  C   UNL     1      41.972   0.508 138.681  1.00  0.00     0.047 A 
ATOM     25  C   UNL     1      42.659   1.711 138.862  1.00  0.00     0.129 A 
BRANCH  25  26
ATOM     26  O   UNL     1      43.255   2.139 140.013  1.00  0.00    -0.406 OA
BRANCH  26  27
ATOM     27  C   UNL     1      42.495   2.093 141.208  1.00  0.00     0.573 C 
ATOM     28  F   UNL     1      42.871   3.124 141.998  1.00  0.00    -0.132 F 
ATOM     29  F   UNL     1      41.176   2.221 140.952  1.00  0.00    -0.132 F 
ATOM     30  F   UNL     1      42.716   0.944 141.882  1.00  0.00    -0.132 F 
ENDBRANCH  26  27
ENDBRANCH  25  26
ENDBRANCH  17  20
ENDBRANCH  15  16
ENDBRANCH   5  15
BRANCH   4  31
ATOM     31  O   UNL     1      36.578   0.381 132.102  1.00  0.00    -0.496 OA
ATOM     32  C   UNL     1      36.298  -0.219 130.844  1.00  0.00     0.278 C 
ENDBRANCH   4  31
TORSDOF 11
ENDMDL
MODEL 7
REMARK VINA RESULT:    -8.443      4.705      9.120
REMARK INTER + INTRA:         -15.235
REMARK INTER:                 -13.921
REMARK INTRA:                  -1.314
REMARK UNBOUND:                -1.609
REMARK SMILES CC[C@@H](Cc1ccc(OC)c(CNC(=O)c2ccc(OC(F)(F)F)cc2)c1)C(=O)O
REMARK SMILES IDX 5 1 6 2 7 3 8 4 11 5 27 6 4 7 3 8 2 9 1 10 28 11 29 12 30 13
REMARK SMILES IDX 12 15 13 16 14 17 15 18 16 20 17 21 26 22 18 23 25 24 19 25
REMARK SMILES IDX 20 26 21 27 22 28 23 29 24 30 9 31 10 32
REMARK H PARENT 30 14 13 19
ROOT
ATOM      1  C   UNL     1      43.016   2.318 136.533  1.00  0.00    -0.047 A 
ATOM      2  C   UNL     1      44.128   3.160 136.498  1.00  0.00     0.007 A 
ATOM      3  C   UNL     1      44.949   3.207 135.364  1.00  0.00     0.047 A 
ATOM      4  C   UNL     1      44.650   2.438 134.233  1.00  0.00     0.123 A 
ATOM      5  C   UNL     1      43.533   1.587 134.257  1.00  0.00     0.014 A 
ATOM      6  C   UNL     1      42.753   1.509 135.422  1.00  0.00     0.013 A 
ENDROOT
BRANCH   1   7
ATOM      7  C   UNL     1      42.057   2.328 137.703  1.00  0.00     0.050 C 
BRANCH   7   8
ATOM      8  C   UNL     1      42.376   1.240 138.749  1.00  0.00     0.103 C 
BRANCH   8   9
ATOM      9  C   UNL     1      41.106   0.462 139.127  1.00  0.00     0.012 C 
ATOM     10  C   UNL     1      40.593  -0.412 137.991  1.00  0.00     0.005 C 
ENDBRANCH   8   9
BRANCH   8  11
ATOM     11  C   UNL     1      42.969   1.900 139.977  1.00  0.00     0.306 C 
ATOM     12  O   UNL     1      43.431   3.029 140.027  1.00  0.00    -0.252 OA
BRANCH  11  13
ATOM     13  O   UNL     1      43.024   1.059 141.029  1.00  0.00    -0.481 OA
ATOM     14  H   UNL     1      43.932   0.659 141.004  1.00  0.00     0.296 HD
ENDBRANCH  11  13
ENDBRANCH   8  11
ENDBRANCH   7   8
ENDBRANCH   1   7
BRANCH   5  15
ATOM     15  C   UNL     1      43.078   0.824 133.038  1.00  0.00     0.156 C 
BRANCH  15  16
ATOM     16  N   UNL     1      44.100  -0.098 132.586  1.00  0.00    -0.348 N 
ATOM     17  C   UNL     1      44.539  -0.151 131.284  1.00  0.00     0.251 C 
ATOM     18  O   UNL     1      44.109   0.534 130.362  1.00  0.00    -0.269 OA
ATOM     19  H   UNL     1      44.614  -0.581 133.309  1.00  0.00     0.164 HD
BRANCH  17  20
ATOM     20  C   UNL     1      45.667  -1.085 131.043  1.00  0.00     0.040 A 
ATOM     21  C   UNL     1      45.772  -1.793 129.843  1.00  0.00     0.017 A 
ATOM     22  C   UNL     1      46.638  -1.243 132.035  1.00  0.00     0.017 A 
ATOM     23  C   UNL     1      46.844  -2.669 129.651  1.00  0.00     0.047 A 
ATOM     24  C   UNL     1      47.702  -2.131 131.842  1.00  0.00     0.047 A 
ATOM     25  C   UNL     1      47.808  -2.852 130.651  1.00  0.00     0.129 A 
BRANCH  25  26
ATOM     26  O   UNL     1      48.791  -3.742 130.326  1.00  0.00    -0.406 OA
BRANCH  26  27
ATOM     27  C   UNL     1      49.114  -4.746 131.273  1.00  0.00     0.573 C 
ATOM     28  F   UNL     1      47.997  -5.458 131.543  1.00  0.00    -0.132 F 
ATOM     29  F   UNL     1      50.045  -5.593 130.788  1.00  0.00    -0.132 F 
ATOM     30  F   UNL     1      49.554  -4.201 132.428  1.00  0.00    -0.132 F 
ENDBRANCH  26  27
ENDBRANCH  25  26
ENDBRANCH  17  20
ENDBRANCH  15  16
ENDBRANCH   5  15
BRANCH   4  31
ATOM     31  O   UNL     1      45.367   2.452 133.063  1.00  0.00    -0.496 OA
ATOM     32  C   UNL     1      45.057   3.474 132.126  1.00  0.00     0.278 C 
ENDBRANCH   4  31
TORSDOF 11
ENDMDL
MODEL 8
REMARK VINA RESULT:    -8.276      6.472      9.731
REMARK INTER + INTRA:         -14.965
REMARK INTER:                 -13.746
REMARK INTRA:                  -1.219
REMARK UNBOUND:                -1.609
REMARK SMILES CC[C@@H](Cc1ccc(OC)c(CNC(=O)c2ccc(OC(F)(F)F)cc2)c1)C(=O)O
REMARK SMILES IDX 5 1 6 2 7 3 8 4 11 5 27 6 4 7 3 8 2 9 1 10 28 11 29 12 30 13
REMARK SMILES IDX 12 15 13 16 14 17 15 18 16 20 17 21 26 22 18 23 25 24 19 25
REMARK SMILES IDX 20 26 21 27 22 28 23 29 24 30 9 31 10 32
REMARK H PARENT 30 14 13 19
ROOT
ATOM      1  C   UNL     1      42.886   1.470 134.902  1.00  0.00    -0.047 A 
ATOM      2  C   UNL     1      43.844   2.438 134.596  1.00  0.00     0.007 A 
ATOM      3  C   UNL     1      44.650   2.307 133.458  1.00  0.00     0.047 A 
ATOM      4  C   UNL     1      44.486   1.222 132.588  1.00  0.00     0.123 A 
ATOM      5  C   UNL     1      43.525   0.242 132.885  1.00  0.00     0.014 A 
ATOM      6  C   UNL     1      42.765   0.359 134.060  1.00  0.00     0.013 A 
ENDROOT
BRANCH   1   7
ATOM      7  C   UNL     1      41.935   1.644 136.065  1.00  0.00     0.050 C 
BRANCH   7   8
ATOM      8  C   UNL     1      42.623   1.462 137.435  1.00  0.00     0.103 C 
BRANCH   8   9
ATOM      9  C   UNL     1      41.741   0.629 138.378  1.00  0.00     0.012 C 
ATOM     10  C   UNL     1      40.898  -0.400 137.638  1.00  0.00     0.005 C 
ENDBRANCH   8   9
BRANCH   8  11
ATOM     11  C   UNL     1      42.887   2.827 138.036  1.00  0.00     0.306 C 
ATOM     12  O   UNL     1      42.961   3.876 137.417  1.00  0.00    -0.252 OA
BRANCH  11  13
ATOM     13  O   UNL     1      43.133   2.760 139.359  1.00  0.00    -0.481 OA
ATOM     14  H   UNL     1      43.483   1.845 139.519  1.00  0.00     0.296 HD
ENDBRANCH  11  13
ENDBRANCH   8  11
ENDBRANCH   7   8
ENDBRANCH   1   7
BRANCH   5  15
ATOM     15  C   UNL     1      43.206  -0.886 131.936  1.00  0.00     0.156 C 
BRANCH  15  16
ATOM     16  N   UNL     1      42.152  -0.512 131.015  1.00  0.00    -0.348 N 
ATOM     17  C   UNL     1      41.533  -1.412 130.180  1.00  0.00     0.251 C 
ATOM     18  O   UNL     1      41.810  -2.604 130.090  1.00  0.00    -0.269 OA
ATOM     19  H   UNL     1      41.760   0.410 131.139  1.00  0.00     0.164 HD
BRANCH  17  20
ATOM     20  C   UNL     1      40.405  -0.857 129.390  1.00  0.00     0.040 A 
ATOM     21  C   UNL     1      39.141  -0.686 129.960  1.00  0.00     0.017 A 
ATOM     22  C   UNL     1      40.626  -0.492 128.060  1.00  0.00     0.017 A 
ATOM     23  C   UNL     1      38.100  -0.167 129.187  1.00  0.00     0.047 A 
ATOM     24  C   UNL     1      39.577   0.016 127.286  1.00  0.00     0.047 A 
ATOM     25  C   UNL     1      38.307   0.178 127.844  1.00  0.00     0.129 A 
BRANCH  25  26
ATOM     26  O   UNL     1      37.199   0.665 127.213  1.00  0.00    -0.406 OA
BRANCH  26  27
ATOM     27  C   UNL     1      36.348  -0.262 126.561  1.00  0.00     0.573 C 
ATOM     28  F   UNL     1      35.746   0.362 125.524  1.00  0.00    -0.132 F 
ATOM     29  F   UNL     1      37.049  -1.307 126.073  1.00  0.00    -0.132 F 
ATOM     30  F   UNL     1      35.388  -0.711 127.397  1.00  0.00    -0.132 F 
ENDBRANCH  26  27
ENDBRANCH  25  26
ENDBRANCH  17  20
ENDBRANCH  15  16
ENDBRANCH   5  15
BRANCH   4  31
ATOM     31  O   UNL     1      45.195   1.034 131.428  1.00  0.00    -0.496 OA
ATOM     32  C   UNL     1      46.443   1.702 131.316  1.00  0.00     0.278 C 
ENDBRANCH   4  31
TORSDOF 11
ENDMDL
MODEL 9
REMARK VINA RESULT:    -8.122      6.637      9.762
REMARK INTER + INTRA:         -14.717
REMARK INTER:                 -13.286
REMARK INTRA:                  -1.430
REMARK UNBOUND:                -1.609
REMARK SMILES CC[C@@H](Cc1ccc(OC)c(CNC(=O)c2ccc(OC(F)(F)F)cc2)c1)C(=O)O
REMARK SMILES IDX 5 1 6 2 7 3 8 4 11 5 27 6 4 7 3 8 2 9 1 10 28 11 29 12 30 13
REMARK SMILES IDX 12 15 13 16 14 17 15 18 16 20 17 21 26 22 18 23 25 24 19 25
REMARK SMILES IDX 20 26 21 27 22 28 23 29 24 30 9 31 10 32
REMARK H PARENT 30 14 13 19
ROOT
ATOM      1  C   UNL     1      35.852  -2.428 132.244  1.00  0.00    -0.047 A 
ATOM      2  C   UNL     1      35.509  -3.584 131.541  1.00  0.00     0.007 A 
ATOM      3  C   UNL     1      35.791  -3.695 130.174  1.00  0.00     0.047 A 
ATOM      4  C   UNL     1      36.452  -2.666 129.494  1.00  0.00     0.123 A 
ATOM      5  C   UNL     1      36.803  -1.498 130.191  1.00  0.00     0.014 A 
ATOM      6  C   UNL     1      36.463  -1.379 131.548  1.00  0.00     0.013 A 
ENDROOT
BRANCH   1   7
ATOM      7  C   UNL     1      35.654  -2.327 133.740  1.00  0.00     0.050 C 
BRANCH   7   8
ATOM      8  C   UNL     1      36.783  -3.009 134.541  1.00  0.00     0.103 C 
BRANCH   8   9
ATOM      9  C   UNL     1      36.339  -4.397 135.031  1.00  0.00     0.012 C 
ATOM     10  C   UNL     1      37.513  -5.331 135.290  1.00  0.00     0.005 C 
ENDBRANCH   8   9
BRANCH   8  11
ATOM     11  C   UNL     1      37.146  -2.130 135.721  1.00  0.00     0.306 C 
ATOM     12  O   UNL     1      38.013  -1.271 135.729  1.00  0.00    -0.252 OA
BRANCH  11  13
ATOM     13  O   UNL     1      36.457  -2.460 136.831  1.00  0.00    -0.481 OA
ATOM     14  H   UNL     1      35.513  -2.220 136.640  1.00  0.00     0.296 HD
ENDBRANCH  11  13
ENDBRANCH   8  11
ENDBRANCH   7   8
ENDBRANCH   1   7
BRANCH   5  15
ATOM     15  C   UNL     1      37.624  -0.401 129.560  1.00  0.00     0.156 C 
BRANCH  15  16
ATOM     16  N   UNL     1      38.879  -0.218 130.260  1.00  0.00    -0.348 N 
ATOM     17  C   UNL     1      40.091  -0.604 129.738  1.00  0.00     0.251 C 
ATOM     18  O   UNL     1      40.254  -1.165 128.659  1.00  0.00    -0.269 OA
ATOM     19  H   UNL     1      38.850   0.375 131.076  1.00  0.00     0.164 HD
BRANCH  17  20
ATOM     20  C   UNL     1      41.271  -0.233 130.560  1.00  0.00     0.040 A 
ATOM     21  C   UNL     1      42.558  -0.640 130.198  1.00  0.00     0.017 A 
ATOM     22  C   UNL     1      41.080   0.543 131.705  1.00  0.00     0.017 A 
ATOM     23  C   UNL     1      43.646  -0.278 130.997  1.00  0.00     0.047 A 
ATOM     24  C   UNL     1      42.171   0.892 132.509  1.00  0.00     0.047 A 
ATOM     25  C   UNL     1      43.459   0.479 132.161  1.00  0.00     0.129 A 
BRANCH  25  26
ATOM     26  O   UNL     1      44.610   0.751 132.843  1.00  0.00    -0.406 OA
BRANCH  26  27
ATOM     27  C   UNL     1      45.046   2.098 132.894  1.00  0.00     0.573 C 
ATOM     28  F   UNL     1      46.363   2.114 133.200  1.00  0.00    -0.132 F 
ATOM     29  F   UNL     1      44.885   2.708 131.701  1.00  0.00    -0.132 F 
ATOM     30  F   UNL     1      44.385   2.788 133.848  1.00  0.00    -0.132 F 
ENDBRANCH  26  27
ENDBRANCH  25  26
ENDBRANCH  17  20
ENDBRANCH  15  16
ENDBRANCH   5  15
BRANCH   4  31
ATOM     31  O   UNL     1      36.810  -2.704 128.170  1.00  0.00    -0.496 OA
ATOM     32  C   UNL     1      35.847  -2.258 127.226  1.00  0.00     0.278 C 
ENDBRANCH   4  31
TORSDOF 11
ENDMDL
