MODEL 7
REMARK VINA RESULT:    -7.678      5.145      8.954
REMARK INTER + INTRA:         -15.224
REMARK INTER:                 -12.814
REMARK INTRA:                  -2.409
REMARK UNBOUND:                -1.710
REMARK SMILES CCc1c(N2CCCC2=O)cccc1S(=O)(=O)N[C@@H](CNC(=O)c1ccc(Cl)s1)C(=O)OCC[S@@+](C)[O-]
REMARK SMILES IDX 30 1 31 2 19 3 18 4 15 6 16 7 17 8 14 9 3 10 4 11 11 12
REMARK SMILES IDX 13 13 12 14 2 15 1 16 5 17 6 18 9 19 7 20 8 21 10 22 20 23
REMARK SMILES IDX 21 24 22 25 23 26 24 28 25 29 29 30 26 31 27 32 28 33 32 34
REMARK SMILES IDX 33 35 34 36 35 37 36 38 37 39
REMARK H PARENT 18 5 21 27
ROOT
ATOM      1  C   UNL     1      -0.549  11.660  23.200  1.00  0.00     0.326 C 
ATOM      2  O   UNL     1       0.322  12.242  22.559  1.00  0.00    -0.250 OA
ENDROOT
BRANCH   1   3
ATOM      3  C   UNL     1      -1.993  11.517  22.731  1.00  0.00     0.198 C 
BRANCH   3   4
ATOM      4  N   UNL     1      -2.651  12.853  22.916  1.00  0.00    -0.195 NA
ATOM      5  H   UNL     1      -2.016  13.645  22.757  1.00  0.00     0.142 HD
BRANCH   4   6
ATOM      6  S   UNL     1      -3.697  13.024  24.209  1.00  0.00     0.241 S 
ATOM      7  O   UNL     1      -4.535  11.845  24.273  1.00  0.00    -0.207 OA
ATOM      8  O   UNL     1      -2.880  13.393  25.344  1.00  0.00    -0.207 OA
BRANCH   6   9
ATOM      9  C   UNL     1      -4.663  14.451  23.723  1.00  0.00     0.087 A 
ATOM     10  C   UNL     1      -5.672  15.042  24.530  1.00  0.00    -0.004 A 
ATOM     11  C   UNL     1      -6.340  16.186  24.006  1.00  0.00     0.048 A 
ATOM     12  C   UNL     1      -5.961  16.717  22.759  1.00  0.00     0.027 A 
ATOM     13  C   UNL     1      -4.325  14.996  22.470  1.00  0.00     0.022 A 
ATOM     14  C   UNL     1      -4.967  16.128  21.994  1.00  0.00     0.004 A 
BRANCH  10  15
ATOM     15  C   UNL     1      -5.955  14.574  25.949  1.00  0.00     0.036 C 
ATOM     16  C   UNL     1      -5.107  15.224  27.034  1.00  0.00     0.009 C 
ENDBRANCH  10  15
BRANCH  11  17
ATOM     17  N   UNL     1      -7.393  16.858  24.675  1.00  0.00    -0.312 N 
ATOM     18  C   UNL     1      -8.781  16.526  24.454  1.00  0.00     0.126 C 
ATOM     19  C   UNL     1      -7.255  17.927  25.564  1.00  0.00     0.227 C 
ATOM     20  C   UNL     1      -9.499  17.170  25.622  1.00  0.00     0.032 C 
ATOM     21  C   UNL     1      -8.643  18.385  25.941  1.00  0.00     0.102 C 
ATOM     22  O   UNL     1      -6.231  18.437  25.986  1.00  0.00    -0.275 OA
ENDBRANCH  11  17
ENDBRANCH   6   9
ENDBRANCH   4   6
ENDBRANCH   3   4
BRANCH   3  23
ATOM     23  C   UNL     1      -2.041  11.102  21.252  1.00  0.00     0.148 C 
BRANCH  23  24
ATOM     24  N   UNL     1      -3.027  10.061  20.999  1.00  0.00    -0.349 N 
ATOM     25  C   UNL     1      -4.350  10.397  20.767  1.00  0.00     0.261 C 
ATOM     26  O   UNL     1      -4.729  11.554  20.940  1.00  0.00    -0.268 OA
ATOM     27  H   UNL     1      -2.679   9.199  20.583  1.00  0.00     0.163 HD
BRANCH  25  28
ATOM     28  C   UNL     1      -5.198   9.313  20.289  1.00  0.00     0.093 A 
ATOM     29  C   UNL     1      -6.504   8.979  20.618  1.00  0.00     0.027 A 
ATOM     30  S   UNL     1      -4.565   8.215  19.124  1.00  0.00    -0.118 S 
ATOM     31  C   UNL     1      -6.967   7.820  19.925  1.00  0.00     0.033 A 
ATOM     32  C   UNL     1      -5.996   7.322  19.096  1.00  0.00     0.094 A 
ATOM     33  Cl  UNL     1      -6.124   5.941  18.083  1.00  0.00    -0.072 Cl
ENDBRANCH  25  28
ENDBRANCH  23  24
ENDBRANCH   3  23
ENDBRANCH   1   3
BRANCH   1  34
ATOM     34  O   UNL     1      -0.363  11.121  24.436  1.00  0.00    -0.459 OA
BRANCH  34  35
ATOM     35  C   UNL     1      -1.143   9.944  24.701  1.00  0.00     0.287 C 
BRANCH  35  36
ATOM     36  C   UNL     1      -1.532   9.946  26.171  1.00  0.00     0.316 C 
BRANCH  36  37
ATOM     37  S   UNL     1      -0.697   8.617  27.085  1.00  0.00    -0.053 S 
ATOM     38  C   UNL     1      -2.164   7.974  27.929  1.00  0.00     0.339 C 
ATOM     39  O   UNL     1      -0.228   7.474  25.980  1.00  0.00    -0.616 OA
ENDBRANCH  36  37
ENDBRANCH  35  36
ENDBRANCH  34  35
ENDBRANCH   1  34
TORSDOF 13
ENDMDL
