MODEL 3
REMARK VINA RESULT:    -8.460      1.705      2.112
REMARK INTER + INTRA:         -11.280
REMARK INTER:                 -10.523
REMARK INTRA:                  -0.757
REMARK UNBOUND:                -0.594
REMARK SMILES C[C@H](CO)n1cc(-c2nc(-c3cnn(C)c3)cn3nccc23)cn1
REMARK SMILES IDX 5 1 6 2 7 3 23 4 24 5 2 6 1 7 3 8 4 9 8 11 9 12 22 13 10 14
REMARK SMILES IDX 21 15 18 16 17 17 20 18 19 19 11 20 12 21 16 22 13 23 14 24
REMARK SMILES IDX 15 25
REMARK H PARENT 4 10
ROOT
ATOM      1  N   UNL     1      -2.119  23.842 -27.595  1.00  0.00    -0.267 N 
ATOM      2  C   UNL     1      -3.032  24.677 -28.169  1.00  0.00     0.119 A 
ATOM      3  C   UNL     1      -3.128  24.319 -29.503  1.00  0.00     0.040 A 
ATOM      4  C   UNL     1      -2.193  23.264 -29.621  1.00  0.00     0.145 A 
ATOM      5  N   UNL     1      -1.600  22.955 -28.466  1.00  0.00    -0.180 NA
ENDROOT
BRANCH   1   6
ATOM      6  C   UNL     1      -1.690  23.850 -26.202  1.00  0.00     0.129 C 
ATOM      7  C   UNL     1      -0.411  24.671 -26.026  1.00  0.00     0.036 C 
BRANCH   6   8
ATOM      8  C   UNL     1      -1.534  22.425 -25.661  1.00  0.00     0.183 C 
BRANCH   8   9
ATOM      9  O   UNL     1      -2.641  21.618 -26.066  1.00  0.00    -0.394 OA
ATOM     10  H   UNL     1      -3.274  22.211 -26.508  1.00  0.00     0.210 HD
ENDBRANCH   8   9
ENDBRANCH   6   8
ENDBRANCH   1   6
BRANCH   3  11
ATOM     11  C   UNL     1      -3.973  24.961 -30.491  1.00  0.00     0.100 A 
ATOM     12  N   UNL     1      -4.099  26.256 -30.422  1.00  0.00    -0.244 NA
ATOM     13  C   UNL     1      -4.642  24.179 -31.496  1.00  0.00     0.093 A 
ATOM     14  C   UNL     1      -4.872  26.908 -31.372  1.00  0.00     0.092 A 
ATOM     15  C   UNL     1      -4.796  22.840 -31.779  1.00  0.00     0.052 A 
ATOM     16  N   UNL     1      -5.389  24.868 -32.430  1.00  0.00    -0.237 N 
ATOM     17  C   UNL     1      -5.497  26.243 -32.359  1.00  0.00     0.142 A 
ATOM     18  C   UNL     1      -5.605  22.812 -32.926  1.00  0.00     0.136 A 
ATOM     19  N   UNL     1      -5.955  24.032 -33.333  1.00  0.00    -0.176 NA
BRANCH  14  20
ATOM     20  C   UNL     1      -4.936  28.332 -31.214  1.00  0.00     0.040 A 
ATOM     21  C   UNL     1      -5.711  29.283 -31.916  1.00  0.00     0.145 A 
ATOM     22  C   UNL     1      -4.223  29.089 -30.307  1.00  0.00     0.118 A 
ATOM     23  N   UNL     1      -5.504  30.534 -31.490  1.00  0.00    -0.181 NA
ATOM     24  N   UNL     1      -4.593  30.384 -30.512  1.00  0.00    -0.275 N 
ATOM     25  C   UNL     1      -4.115  31.547 -29.803  1.00  0.00     0.173 C 
ENDBRANCH  14  20
ENDBRANCH   3  11
TORSDOF 5
ENDMDL
