REMARK VINA RESULT:    -8.864      1.692      2.270
REMARK INTER + INTRA:         -17.404
REMARK INTER:                 -15.169
REMARK INTRA:                  -2.235
REMARK UNBOUND:                -2.321
REMARK SMILES COC(=O)[C@H](Cc1cccc(C(=N)N)c1)[C@H](/C=C/c1ccccc1)NC(=O)c1ccc(-c2ccccc2OC)cc1
REMARK SMILES IDX 16 1 5 2 3 3 4 4 2 5 1 6 6 7 7 8 8 9 15 10 9 11 11 12 10 13
REMARK SMILES IDX 12 14 13 15 14 16 17 20 18 21 19 22 20 23 24 24 21 25 23 26
REMARK SMILES IDX 22 27 25 28 26 29 27 30 28 32 29 33 41 34 30 35 40 36 31 37
REMARK SMILES IDX 32 38 33 39 37 40 34 41 36 42 35 43 38 44 39 45
REMARK H PARENT 13 17 14 18 14 19 25 31
ROOT
ATOM      1  C   UNL     1     128.486 -14.552 162.388  1.00  0.00     0.120 C 
ENDROOT
BRANCH   1   2
ATOM      2  C   UNL     1     127.063 -15.113 162.594  1.00  0.00     0.130 C 
BRANCH   2   3
ATOM      3  C   UNL     1     126.219 -14.027 163.232  1.00  0.00     0.311 C 
ATOM      4  O   UNL     1     125.839 -13.008 162.667  1.00  0.00    -0.252 OA
BRANCH   3   5
ATOM      5  O   UNL     1     125.944 -14.347 164.529  1.00  0.00    -0.469 OA
ATOM      6  C   UNL     1     124.672 -13.883 164.983  1.00  0.00     0.282 C 
ENDBRANCH   3   5
ENDBRANCH   2   3
BRANCH   2   7
ATOM      7  C   UNL     1     127.034 -16.363 163.493  1.00  0.00     0.053 C 
BRANCH   7   8
ATOM      8  C   UNL     1     126.969 -17.652 162.703  1.00  0.00    -0.046 A 
ATOM      9  C   UNL     1     127.944 -17.952 161.742  1.00  0.00     0.004 A 
ATOM     10  C   UNL     1     125.912 -18.551 162.905  1.00  0.00     0.015 A 
ATOM     11  C   UNL     1     127.862 -19.127 160.993  1.00  0.00     0.001 A 
ATOM     12  C   UNL     1     125.826 -19.727 162.151  1.00  0.00     0.016 A 
ATOM     13  C   UNL     1     126.801 -20.013 161.192  1.00  0.00     0.012 A 
BRANCH  12  14
ATOM     14  C   UNL     1     124.680 -20.655 162.356  1.00  0.00     0.122 C 
ATOM     15  N   UNL     1     124.571 -21.397 163.412  1.00  0.00    -0.284 NA
ATOM     16  N   UNL     1     123.702 -20.755 161.424  1.00  0.00    -0.384 N 
ATOM     17  H   UNL     1     125.332 -21.214 164.071  1.00  0.00     0.189 HD
ATOM     18  H   UNL     1     123.717 -20.268 160.540  1.00  0.00     0.158 HD
ATOM     19  H   UNL     1     122.949 -21.403 161.612  1.00  0.00     0.158 HD
ENDBRANCH  12  14
ENDBRANCH   7   8
ENDBRANCH   2   7
ENDBRANCH   1   2
BRANCH   1  20
ATOM     20  C   UNL     1     128.943 -14.698 160.954  1.00  0.00    -0.001 C 
ATOM     21  C   UNL     1     128.099 -14.731 159.909  1.00  0.00     0.006 C 
BRANCH  21  22
ATOM     22  C   UNL     1     128.526 -14.898 158.514  1.00  0.00    -0.026 A 
ATOM     23  C   UNL     1     129.317 -13.904 157.924  1.00  0.00     0.008 A 
ATOM     24  C   UNL     1     128.119 -15.989 157.735  1.00  0.00     0.008 A 
ATOM     25  C   UNL     1     129.715 -14.012 156.589  1.00  0.00     0.001 A 
ATOM     26  C   UNL     1     128.518 -16.097 156.400  1.00  0.00     0.001 A 
ATOM     27  C   UNL     1     129.318 -15.109 155.828  1.00  0.00     0.000 A 
ENDBRANCH  21  22
ENDBRANCH   1  20
BRANCH   1  28
ATOM     28  N   UNL     1     129.482 -15.268 163.176  1.00  0.00    -0.345 N 
ATOM     29  C   UNL     1     130.734 -14.744 163.418  1.00  0.00     0.251 C 
ATOM     30  O   UNL     1     131.105 -13.658 162.991  1.00  0.00    -0.269 OA
ATOM     31  H   UNL     1     129.282 -16.217 163.461  1.00  0.00     0.164 HD
BRANCH  29  32
ATOM     32  C   UNL     1     131.652 -15.579 164.238  1.00  0.00     0.039 A 
ATOM     33  C   UNL     1     131.111 -16.640 164.971  1.00  0.00     0.014 A 
ATOM     34  C   UNL     1     133.033 -15.353 164.263  1.00  0.00     0.014 A 
ATOM     35  C   UNL     1     131.941 -17.452 165.747  1.00  0.00     0.010 A 
ATOM     36  C   UNL     1     133.861 -16.173 165.038  1.00  0.00     0.010 A 
ATOM     37  C   UNL     1     133.326 -17.229 165.794  1.00  0.00    -0.015 A 
BRANCH  37  38
ATOM     38  C   UNL     1     134.200 -18.097 166.597  1.00  0.00     0.024 A 
ATOM     39  C   UNL     1     134.355 -17.829 167.971  1.00  0.00     0.012 A 
ATOM     40  C   UNL     1     134.897 -19.191 166.033  1.00  0.00     0.126 A 
ATOM     41  C   UNL     1     135.181 -18.620 168.769  1.00  0.00     0.001 A 
ATOM     42  C   UNL     1     135.723 -19.978 166.845  1.00  0.00     0.047 A 
ATOM     43  C   UNL     1     135.863 -19.692 168.206  1.00  0.00     0.004 A 
BRANCH  40  44
ATOM     44  O   UNL     1     134.695 -19.408 164.693  1.00  0.00    -0.496 OA
ATOM     45  C   UNL     1     135.259 -20.582 164.123  1.00  0.00     0.278 C 
ENDBRANCH  40  44
ENDBRANCH  37  38
ENDBRANCH  29  32
ENDBRANCH   1  28
TORSDOF 12
