REMARK SMILES CN1C/C=C/COCc2ccc(s2)-c2ccnc(n2)Nc2ccc(OCCN3CCCC3)c(c2)C1
REMARK SMILES IDX 25 1 24 2 2 3 3 4 35 5 4 6 33 7 5 8 34 9 6 10 23 11 21 12
REMARK SMILES IDX 7 13 22 14 20 15 8 16 18 17 9 18 17 19 19 20 10 21 13 22
REMARK SMILES IDX 16 23 14 24 11 25 12 26 15 27 1 28 26 30 27 31 28 32 29 33
REMARK SMILES IDX 32 34 30 35 31 36
REMARK H PARENT 20 29
REMARK INDEX MAP 25 1 24 2 2 3 3 4 35 5 4 6 33 7 5 8 34 9 6 10 23 11 21 12
REMARK INDEX MAP 7 13 22 14 20 15 8 16 18 17 9 18 17 19 19 20 10 21 13 22
REMARK INDEX MAP 16 23 14 24 11 25 12 26 15 27 1 28 51 29 26 30 27 31 28 32
REMARK INDEX MAP 29 33 32 34 30 35 31 36
ROOT
ATOM      1  O   UNL     1      -1.424  21.653 -26.260  1.00  0.00    -0.492 OA
ENDROOT
BRANCH   1   2
ATOM      2  C   UNL     1      -1.860  22.944 -26.367  1.00  0.00     0.124 A 
ATOM      3  N   UNL     1      -3.179  21.197 -28.661  1.00  0.00    -0.298 NA
ATOM      4  C   UNL     1      -3.212  20.386 -29.885  1.00  0.00     0.111 C 
ATOM      5  C   UNL     1      -2.359  22.413 -28.830  1.00  0.00     0.124 C 
ATOM      6  C   UNL     1      -3.882  21.029 -31.074  1.00  0.00    -0.014 C 
ATOM      7  C   UNL     1      -2.306  23.344 -27.632  1.00  0.00     0.010 A 
ATOM      8  C   UNL     1      -5.212  21.048 -31.276  1.00  0.00    -0.002 C 
ATOM      9  C   UNL     1      -2.752  24.670 -27.812  1.00  0.00     0.035 A 
ATOM     10  C   UNL     1      -5.878  21.694 -32.456  1.00  0.00     0.188 C 
ATOM     11  C   UNL     1      -1.860  23.876 -25.323  1.00  0.00     0.049 A 
ATOM     12  C   UNL     1      -2.782  25.605 -26.776  1.00  0.00     0.041 A 
ATOM     13  O   UNL     1      -5.150  22.878 -32.773  1.00  0.00    -0.372 OA
ATOM     14  C   UNL     1      -2.323  25.187 -25.525  1.00  0.00     0.030 A 
ATOM     15  N   UNL     1      -3.310  26.892 -26.931  1.00  0.00    -0.324 N 
ATOM     16  C   UNL     1      -5.912  23.851 -33.485  1.00  0.00     0.207 C 
ATOM     17  C   UNL     1      -3.615  27.626 -28.077  1.00  0.00     0.227 A 
ATOM     18  C   UNL     1      -5.696  25.181 -32.833  1.00  0.00     0.031 A 
ATOM     19  N   UNL     1      -3.355  28.941 -28.036  1.00  0.00    -0.221 NA
ATOM     20  N   UNL     1      -4.152  27.025 -29.144  1.00  0.00    -0.212 NA
ATOM     21  C   UNL     1      -6.263  26.395 -33.173  1.00  0.00     0.018 A 
ATOM     22  S   UNL     1      -4.628  25.340 -31.502  1.00  0.00    -0.136 S 
ATOM     23  C   UNL     1      -3.613  29.654 -29.152  1.00  0.00     0.117 A 
ATOM     24  C   UNL     1      -4.386  27.767 -30.238  1.00  0.00     0.086 A 
ATOM     25  C   UNL     1      -5.845  27.447 -32.310  1.00  0.00     0.022 A 
ATOM     26  C   UNL     1      -4.964  27.011 -31.341  1.00  0.00     0.053 A 
ATOM     27  C   UNL     1      -4.131  29.113 -30.303  1.00  0.00     0.050 A 
ATOM     28  C   UNL     1      -4.530  21.455 -28.160  1.00  0.00     0.106 C 
ATOM     29  H   UNL     1      -3.507  27.381 -26.046  1.00  0.00     0.170 HD
ENDBRANCH   1   2
BRANCH   1  30
ATOM     30  C   UNL     1      -0.816  21.263 -25.027  1.00  0.00     0.245 C 
BRANCH  30  31
ATOM     31  C   UNL     1      -0.376  19.789 -25.120  1.00  0.00     0.126 C 
BRANCH  31  32
ATOM     32  N   UNL     1       0.988  19.541 -24.624  1.00  0.00    -0.300 NA
ATOM     33  C   UNL     1       1.032  18.423 -23.680  1.00  0.00     0.084 C 
ATOM     34  C   UNL     1       1.553  20.681 -23.890  1.00  0.00     0.084 C 
ATOM     35  C   UNL     1       2.381  18.590 -22.996  1.00  0.00     0.017 C 
ATOM     36  C   UNL     1       2.740  20.061 -23.166  1.00  0.00     0.017 C 
ENDBRANCH  31  32
ENDBRANCH  30  31
ENDBRANCH   1  30
TORSDOF 4
