MODEL 6
REMARK VINA RESULT:    -6.448      5.856      8.959
REMARK INTER + INTRA:          -9.946
REMARK INTER:                  -9.504
REMARK INTRA:                  -0.442
REMARK UNBOUND:                -0.106
REMARK SMILES Cc1nc(-c2cn3c(n2)-c2ccc(-c4cnn(C(C)(C)C(N)=O)c4)cc2OCC3)n(C(C)C)n1
REMARK SMILES IDX 10 1 11 2 12 3 13 4 25 5 26 6 8 7 5 8 9 9 6 10 7 11 4 12
REMARK SMILES IDX 2 13 34 14 3 15 30 16 1 17 31 18 32 19 33 20 29 21 27 23
REMARK SMILES IDX 28 24 14 26 24 27 15 28 17 29 16 30 18 31 19 32 20 33 21 34
REMARK SMILES IDX 22 35 23 36
REMARK H PARENT 22 37 22 38
REMARK Flexibility Score:   21.900
ROOT
ATOM      1  C   UNL     1      47.280  -4.937 -45.654  1.00  0.00     0.060 A 
ATOM      2  C   UNL     1      48.559  -4.406 -45.421  1.00  0.00     0.016 A 
ATOM      3  C   UNL     1      49.123  -3.455 -46.266  1.00  0.00     0.010 A 
ATOM      4  C   UNL     1      48.423  -3.000 -47.384  1.00  0.00    -0.012 A 
ATOM      5  C   UNL     1      47.150  -3.518 -47.629  1.00  0.00     0.056 A 
ATOM      6  C   UNL     1      46.573  -4.468 -46.782  1.00  0.00     0.130 A 
ENDROOT
BRANCH   1   7
ATOM      7  C   UNL     1      46.767  -6.000 -44.708  1.00  0.00     0.144 A 
ATOM      8  C   UNL     1      46.644  -7.193 -42.936  1.00  0.00     0.126 A 
ATOM      9  N   UNL     1      47.316  -6.227 -43.529  1.00  0.00    -0.225 NA
ATOM     10  C   UNL     1      45.625  -7.612 -43.771  1.00  0.00     0.120 A 
ATOM     11  N   UNL     1      45.692  -6.857 -44.915  1.00  0.00    -0.327 N 
BRANCH   8  12
ATOM     12  C   UNL     1      46.954  -7.719 -41.594  1.00  0.00     0.178 A 
ATOM     13  C   UNL     1      47.963  -8.674 -40.055  1.00  0.00     0.148 A 
ATOM     14  N   UNL     1      46.909  -8.205 -39.430  1.00  0.00    -0.156 NA
ATOM     15  N   UNL     1      48.039  -8.417 -41.349  1.00  0.00    -0.210 NA
ATOM     16  N   UNL     1      46.235  -7.596 -40.418  1.00  0.00    -0.242 N 
ATOM     17  C   UNL     1      49.015  -9.492 -39.338  1.00  0.00     0.092 C 
BRANCH  16  18
ATOM     18  C   UNL     1      44.982  -6.883 -40.110  1.00  0.00     0.103 C 
ATOM     19  C   UNL     1      45.181  -5.367 -40.305  1.00  0.00     0.033 C 
ATOM     20  C   UNL     1      44.475  -7.231 -38.694  1.00  0.00     0.033 C 
ENDBRANCH  16  18
ENDBRANCH   8  12
BRANCH  11  21
ATOM     21  C   UNL     1      44.778  -6.992 -46.042  1.00  0.00     0.165 CG0
ATOM     22  G   UNL     1      45.185  -6.256 -47.317  1.00  0.00     0.000 G0
ENDBRANCH  11  21
ENDBRANCH   1   7
BRANCH   6  23
ATOM     23  O   UNL     1      45.302  -4.883 -47.089  1.00  0.00    -0.491 OA
BRANCH  23  24
ATOM     24  C   UNL     1      45.154  -6.272 -47.318  1.00  0.00     0.251 CG0
ATOM     25  G   UNL     1      44.760  -7.017 -46.045  1.00  0.00     0.000 G0
ENDBRANCH  23  24
ENDBRANCH   6  23
BRANCH   4  26
ATOM     26  C   UNL     1      49.018  -1.975 -48.291  1.00  0.00     0.020 A 
ATOM     27  C   UNL     1      50.083  -1.119 -48.044  1.00  0.00     0.118 A 
ATOM     28  C   UNL     1      48.643  -1.635 -49.600  1.00  0.00     0.143 A 
ATOM     29  N   UNL     1      50.281  -0.367 -49.180  1.00  0.00    -0.257 N 
ATOM     30  N   UNL     1      49.376  -0.681 -50.126  1.00  0.00    -0.180 NA
BRANCH  29  31
ATOM     31  C   UNL     1      51.270   0.724 -49.430  1.00  0.00     0.135 C 
ATOM     32  C   UNL     1      50.536   2.087 -49.580  1.00  0.00     0.047 C 
ATOM     33  C   UNL     1      52.207   0.817 -48.191  1.00  0.00     0.047 C 
BRANCH  31  34
ATOM     34  C   UNL     1      52.117   0.492 -50.719  1.00  0.00     0.244 C 
ATOM     35  N   UNL     1      51.500   0.102 -51.840  1.00  0.00    -0.368 N 
ATOM     36  O   UNL     1      53.317   0.766 -50.735  1.00  0.00    -0.273 OA
ATOM     37  H   UNL     1      50.510  -0.094 -51.838  1.00  0.00     0.159 HD
ATOM     38  H   UNL     1      52.028  -0.011 -52.694  1.00  0.00     0.159 HD
ENDBRANCH  31  34
ENDBRANCH  29  31
ENDBRANCH   4  26
TORSDOF 5
ENDMDL
