MODEL 1
REMARK minimizedAffinity -10.2687159
REMARK CNNscore 0.94626981
REMARK CNNaffinity 7.88495588
REMARK SMILES Cc1c(CCOc2ccc3c(c2)CC[C@H]3CC(=O)O)nc(-c2ccc(-c3ccccc3)cc2)n1C
REMARK SMILES IDX 6 1 5 2 4 3 3 4 2 5 34 6 20 7 21 8 1 9 35 10 22 11 23 12
REMARK SMILES IDX 33 13 24 14 32 15 25 16 26 17 27 18 31 19 28 20 30 21 29 22
REMARK SMILES IDX 7 23 8 24 12 25 9 26 11 27 10 28 13 29 15 30 14 31 16 32
REMARK SMILES IDX 17 33 18 34 19 35
REMARK H PARENT 19 36
ROOT
ATOM      1  O   UNL     1      -7.832  -8.213 -21.217  1.00  0.00    -0.493 OA
ENDROOT
BRANCH   1   2
ATOM      2  C   UNL     1      -9.120  -7.803 -21.692  1.00  0.00     0.236 C 
BRANCH   2   3
ATOM      3  C   UNL     1      -9.687  -8.890 -22.604  1.00  0.00     0.099 C 
BRANCH   3   4
ATOM      4  C   UNL     1      -8.822  -9.139 -23.793  1.00  0.00     0.065 A 
ATOM      5  C   UNL     1      -7.625  -9.822 -23.890  1.00  0.00     0.038 A 
ATOM      6  N   UNL     1      -7.264  -9.708 -25.215  1.00  0.00    -0.331 N 
ATOM      7  N   UNL     1      -9.192  -8.640 -25.017  1.00  0.00    -0.233 NA
ATOM      8  C   UNL     1      -8.264  -9.020 -25.877  1.00  0.00     0.140 A 
ATOM      9  C   UNL     1      -6.817 -10.517 -22.858  1.00  0.00     0.066 C 
ATOM     10  C   UNL     1      -6.026 -10.172 -25.797  1.00  0.00     0.151 C 
BRANCH   8  11
ATOM     11  C   UNL     1      -8.283  -8.706 -27.306  1.00  0.00     0.017 A 
ATOM     12  C   UNL     1      -7.144  -8.950 -28.078  1.00  0.00     0.012 A 
ATOM     13  C   UNL     1      -9.403  -8.135 -27.920  1.00  0.00     0.012 A 
ATOM     14  C   UNL     1      -7.134  -8.662 -29.448  1.00  0.00     0.009 A 
ATOM     15  C   UNL     1      -9.390  -7.843 -29.289  1.00  0.00     0.009 A 
ATOM     16  C   UNL     1      -8.258  -8.107 -30.078  1.00  0.00    -0.018 A 
BRANCH  16  17
ATOM     17  C   UNL     1      -8.247  -7.805 -31.518  1.00  0.00    -0.018 A 
ATOM     18  C   UNL     1      -7.430  -8.527 -32.406  1.00  0.00     0.009 A 
ATOM     19  C   UNL     1      -9.058  -6.788 -32.050  1.00  0.00     0.009 A 
ATOM     20  C   UNL     1      -7.424  -8.243 -33.774  1.00  0.00     0.001 A 
ATOM     21  C   UNL     1      -9.051  -6.501 -33.417  1.00  0.00     0.001 A 
ATOM     22  C   UNL     1      -8.234  -7.229 -34.279  1.00  0.00     0.000 A 
ENDBRANCH  16  17
ENDBRANCH   8  11
ENDBRANCH   3   4
ENDBRANCH   2   3
ENDBRANCH   1   2
BRANCH   1  23
ATOM     23  C   UNL     1      -6.940  -7.222 -20.909  1.00  0.00     0.119 A 
ATOM     24  C   UNL     1      -7.481  -5.925 -20.930  1.00  0.00     0.047 A 
ATOM     25  C   UNL     1      -5.594  -7.406 -20.584  1.00  0.00     0.050 A 
ATOM     26  C   UNL     1      -6.697  -4.804 -20.639  1.00  0.00     0.008 A 
ATOM     27  C   UNL     1      -4.819  -6.288 -20.309  1.00  0.00    -0.041 A 
ATOM     28  C   UNL     1      -5.358  -4.996 -20.341  1.00  0.00    -0.041 A 
ATOM     29  C   UNL     1      -3.380  -6.259 -19.903  1.00  0.00     0.036 C 
ATOM     30  C   UNL     1      -4.314  -3.974 -19.966  1.00  0.00     0.031 C 
ATOM     31  C   UNL     1      -3.023  -4.796 -20.194  1.00  0.00     0.014 C 
BRANCH  30  32
ATOM     32  C   UNL     1      -4.357  -2.694 -20.799  1.00  0.00     0.131 C 
BRANCH  32  33
ATOM     33  C   UNL     1      -3.940  -1.492 -20.001  1.00  0.00     0.303 C 
ATOM     34  O   UNL     1      -4.399  -0.363 -20.059  1.00  0.00    -0.252 OA
BRANCH  33  35
ATOM     35  O   UNL     1      -2.921  -1.772 -19.165  1.00  0.00    -0.481 OA
ATOM     36  H   UNL     1      -2.738  -0.919 -18.716  1.00  0.00     0.296 HD
ENDBRANCH  33  35
ENDBRANCH  32  33
ENDBRANCH  30  32
ENDBRANCH   1  23
TORSDOF 9
ENDMDL
MODEL 2
REMARK minimizedAffinity -10.500515
REMARK CNNscore 0.90905261
REMARK CNNaffinity 7.90225363
REMARK SMILES Cc1c(CCOc2ccc3c(c2)CC[C@H]3CC(=O)O)nc(-c2ccc(-c3ccccc3)cc2)n1C
REMARK SMILES IDX 6 1 5 2 4 3 3 4 2 5 34 6 20 7 21 8 1 9 35 10 22 11 23 12
REMARK SMILES IDX 33 13 24 14 32 15 25 16 26 17 27 18 31 19 28 20 30 21 29 22
REMARK SMILES IDX 7 23 8 24 12 25 9 26 11 27 10 28 13 29 15 30 14 31 16 32
REMARK SMILES IDX 17 33 18 34 19 35
REMARK H PARENT 19 36
ROOT
ATOM      1  O   UNL     1      -7.822  -8.304 -21.573  1.00  0.00    -0.493 OA
ENDROOT
BRANCH   1   2
ATOM      2  C   UNL     1      -7.358  -9.658 -21.514  1.00  0.00     0.236 C 
BRANCH   2   3
ATOM      3  C   UNL     1      -7.107 -10.163 -22.934  1.00  0.00     0.099 C 
BRANCH   3   4
ATOM      4  C   UNL     1      -8.034  -9.547 -23.926  1.00  0.00     0.065 A 
ATOM      5  C   UNL     1      -9.328  -9.090 -23.764  1.00  0.00     0.038 A 
ATOM      6  N   UNL     1      -9.704  -8.654 -25.016  1.00  0.00    -0.331 N 
ATOM      7  N   UNL     1      -7.624  -9.380 -25.225  1.00  0.00    -0.233 NA
ATOM      8  C   UNL     1      -8.626  -8.806 -25.868  1.00  0.00     0.140 A 
ATOM      9  C   UNL     1     -10.207  -9.067 -22.569  1.00  0.00     0.066 C 
ATOM     10  C   UNL     1     -11.016  -8.179 -25.386  1.00  0.00     0.151 C 
BRANCH   8  11
ATOM     11  C   UNL     1      -8.598  -8.440 -27.284  1.00  0.00     0.017 A 
ATOM     12  C   UNL     1      -7.390  -8.502 -27.986  1.00  0.00     0.012 A 
ATOM     13  C   UNL     1      -9.743  -7.994 -27.953  1.00  0.00     0.012 A 
ATOM     14  C   UNL     1      -7.334  -8.161 -29.342  1.00  0.00     0.009 A 
ATOM     15  C   UNL     1      -9.684  -7.649 -29.309  1.00  0.00     0.009 A 
ATOM     16  C   UNL     1      -8.480  -7.732 -30.028  1.00  0.00    -0.018 A 
BRANCH  16  17
ATOM     17  C   UNL     1      -8.420  -7.374 -31.454  1.00  0.00    -0.018 A 
ATOM     18  C   UNL     1      -7.723  -8.176 -32.375  1.00  0.00     0.009 A 
ATOM     19  C   UNL     1      -9.062  -6.222 -31.938  1.00  0.00     0.009 A 
ATOM     20  C   UNL     1      -7.670  -7.837 -33.731  1.00  0.00     0.001 A 
ATOM     21  C   UNL     1      -9.008  -5.881 -33.292  1.00  0.00     0.001 A 
ATOM     22  C   UNL     1      -8.312  -6.689 -34.188  1.00  0.00     0.000 A 
ENDBRANCH  16  17
ENDBRANCH   8  11
ENDBRANCH   3   4
ENDBRANCH   2   3
ENDBRANCH   1   2
BRANCH   1  23
ATOM     23  C   UNL     1      -6.945  -7.330 -21.177  1.00  0.00     0.119 A 
ATOM     24  C   UNL     1      -7.482  -6.031 -21.177  1.00  0.00     0.047 A 
ATOM     25  C   UNL     1      -5.620  -7.533 -20.785  1.00  0.00     0.050 A 
ATOM     26  C   UNL     1      -6.713  -4.926 -20.800  1.00  0.00     0.008 A 
ATOM     27  C   UNL     1      -4.860  -6.429 -20.425  1.00  0.00    -0.041 A 
ATOM     28  C   UNL     1      -5.393  -5.135 -20.436  1.00  0.00    -0.041 A 
ATOM     29  C   UNL     1      -3.445  -6.422 -19.940  1.00  0.00     0.036 C 
ATOM     30  C   UNL     1      -4.370  -4.132 -19.964  1.00  0.00     0.031 C 
ATOM     31  C   UNL     1      -3.069  -4.950 -20.153  1.00  0.00     0.014 C 
BRANCH  30  32
ATOM     32  C   UNL     1      -4.364  -2.821 -20.748  1.00  0.00     0.131 C 
BRANCH  32  33
ATOM     33  C   UNL     1      -3.986  -1.652 -19.883  1.00  0.00     0.303 C 
ATOM     34  O   UNL     1      -4.611  -0.620 -19.710  1.00  0.00    -0.252 OA
BRANCH  33  35
ATOM     35  O   UNL     1      -2.794  -1.837 -19.282  1.00  0.00    -0.481 OA
ATOM     36  H   UNL     1      -2.658  -1.017 -18.762  1.00  0.00     0.296 HD
ENDBRANCH  33  35
ENDBRANCH  32  33
ENDBRANCH  30  32
ENDBRANCH   1  23
TORSDOF 9
ENDMDL
MODEL 3
REMARK minimizedAffinity -10.2585526
REMARK CNNscore 0.875647604
REMARK CNNaffinity 7.81060076
REMARK SMILES Cc1c(CCOc2ccc3c(c2)CC[C@H]3CC(=O)O)nc(-c2ccc(-c3ccccc3)cc2)n1C
REMARK SMILES IDX 6 1 5 2 4 3 3 4 2 5 34 6 20 7 21 8 1 9 35 10 22 11 23 12
REMARK SMILES IDX 33 13 24 14 32 15 25 16 26 17 27 18 31 19 28 20 30 21 29 22
REMARK SMILES IDX 7 23 8 24 12 25 9 26 11 27 10 28 13 29 15 30 14 31 16 32
REMARK SMILES IDX 17 33 18 34 19 35
REMARK H PARENT 19 36
ROOT
ATOM      1  O   UNL     1      -7.198  -8.125 -21.064  1.00  0.00    -0.493 OA
ENDROOT
BRANCH   1   2
ATOM      2  C   UNL     1      -6.516  -9.254 -21.621  1.00  0.00     0.236 C 
BRANCH   2   3
ATOM      3  C   UNL     1      -7.544 -10.218 -22.211  1.00  0.00     0.099 C 
BRANCH   3   4
ATOM      4  C   UNL     1      -8.339  -9.596 -23.308  1.00  0.00     0.065 A 
ATOM      5  C   UNL     1      -9.607  -9.048 -23.282  1.00  0.00     0.038 A 
ATOM      6  N   UNL     1      -9.844  -8.654 -24.581  1.00  0.00    -0.331 N 
ATOM      7  N   UNL     1      -7.810  -9.524 -24.572  1.00  0.00    -0.233 NA
ATOM      8  C   UNL     1      -8.711  -8.920 -25.326  1.00  0.00     0.140 A 
ATOM      9  C   UNL     1     -10.581  -8.906 -22.172  1.00  0.00     0.066 C 
ATOM     10  C   UNL     1     -11.085  -8.115 -25.087  1.00  0.00     0.151 C 
BRANCH   8  11
ATOM     11  C   UNL     1      -8.538  -8.630 -26.750  1.00  0.00     0.017 A 
ATOM     12  C   UNL     1      -9.633  -8.194 -27.501  1.00  0.00     0.012 A 
ATOM     13  C   UNL     1      -7.309  -8.810 -27.394  1.00  0.00     0.012 A 
ATOM     14  C   UNL     1      -9.497  -7.907 -28.864  1.00  0.00     0.009 A 
ATOM     15  C   UNL     1      -7.175  -8.527 -28.759  1.00  0.00     0.009 A 
ATOM     16  C   UNL     1      -8.264  -8.064 -29.516  1.00  0.00    -0.018 A 
BRANCH  16  17
ATOM     17  C   UNL     1      -8.121  -7.762 -30.949  1.00  0.00    -0.018 A 
ATOM     18  C   UNL     1      -7.283  -8.533 -31.773  1.00  0.00     0.009 A 
ATOM     19  C   UNL     1      -8.821  -6.695 -31.536  1.00  0.00     0.009 A 
ATOM     20  C   UNL     1      -7.150  -8.248 -33.135  1.00  0.00     0.001 A 
ATOM     21  C   UNL     1      -8.687  -6.407 -32.897  1.00  0.00     0.001 A 
ATOM     22  C   UNL     1      -7.852  -7.184 -33.696  1.00  0.00     0.000 A 
ENDBRANCH  16  17
ENDBRANCH   8  11
ENDBRANCH   3   4
ENDBRANCH   2   3
ENDBRANCH   1   2
BRANCH   1  23
ATOM     23  C   UNL     1      -6.456  -6.995 -20.848  1.00  0.00     0.119 A 
ATOM     24  C   UNL     1      -7.180  -5.795 -20.954  1.00  0.00     0.047 A 
ATOM     25  C   UNL     1      -5.095  -6.958 -20.537  1.00  0.00     0.050 A 
ATOM     26  C   UNL     1      -6.565  -4.554 -20.763  1.00  0.00     0.008 A 
ATOM     27  C   UNL     1      -4.489  -5.722 -20.361  1.00  0.00    -0.041 A 
ATOM     28  C   UNL     1      -5.210  -4.527 -20.478  1.00  0.00    -0.041 A 
ATOM     29  C   UNL     1      -3.065  -5.455 -19.988  1.00  0.00     0.036 C 
ATOM     30  C   UNL     1      -4.322  -3.340 -20.201  1.00  0.00     0.031 C 
ATOM     31  C   UNL     1      -2.927  -3.982 -20.394  1.00  0.00     0.014 C 
BRANCH  30  32
ATOM     32  C   UNL     1      -4.558  -2.147 -21.126  1.00  0.00     0.131 C 
BRANCH  32  33
ATOM     33  C   UNL     1      -3.944  -0.888 -20.585  1.00  0.00     0.303 C 
ATOM     34  O   UNL     1      -4.493  -0.005 -19.947  1.00  0.00    -0.252 OA
BRANCH  33  35
ATOM     35  O   UNL     1      -2.638  -0.788 -20.904  1.00  0.00    -0.481 OA
ATOM     36  H   UNL     1      -2.360   0.065 -20.508  1.00  0.00     0.296 HD
ENDBRANCH  33  35
ENDBRANCH  32  33
ENDBRANCH  30  32
ENDBRANCH   1  23
TORSDOF 9
ENDMDL
MODEL 4
REMARK minimizedAffinity -9.34935188
REMARK CNNscore 0.866255522
REMARK CNNaffinity 7.7068634
REMARK SMILES Cc1c(CCOc2ccc3c(c2)CC[C@H]3CC(=O)O)nc(-c2ccc(-c3ccccc3)cc2)n1C
REMARK SMILES IDX 6 1 5 2 4 3 3 4 2 5 34 6 20 7 21 8 1 9 35 10 22 11 23 12
REMARK SMILES IDX 33 13 24 14 32 15 25 16 26 17 27 18 31 19 28 20 30 21 29 22
REMARK SMILES IDX 7 23 8 24 12 25 9 26 11 27 10 28 13 29 15 30 14 31 16 32
REMARK SMILES IDX 17 33 18 34 19 35
REMARK H PARENT 19 36
ROOT
ATOM      1  O   UNL     1      -7.604  -8.380 -21.526  1.00  0.00    -0.493 OA
ENDROOT
BRANCH   1   2
ATOM      2  C   UNL     1      -8.968  -8.030 -21.790  1.00  0.00     0.236 C 
BRANCH   2   3
ATOM      3  C   UNL     1      -9.593  -9.096 -22.689  1.00  0.00     0.099 C 
BRANCH   3   4
ATOM      4  C   UNL     1      -9.115  -9.000 -24.098  1.00  0.00     0.065 A 
ATOM      5  C   UNL     1      -7.944  -9.461 -24.669  1.00  0.00     0.038 A 
ATOM      6  N   UNL     1      -8.020  -9.068 -25.987  1.00  0.00    -0.331 N 
ATOM      7  N   UNL     1      -9.890  -8.365 -25.035  1.00  0.00    -0.233 NA
ATOM      8  C   UNL     1      -9.238  -8.443 -26.182  1.00  0.00     0.140 A 
ATOM      9  C   UNL     1      -6.794 -10.186 -24.076  1.00  0.00     0.066 C 
ATOM     10  C   UNL     1      -6.981  -9.227 -26.978  1.00  0.00     0.151 C 
BRANCH   8  11
ATOM     11  C   UNL     1      -9.725  -7.897 -27.449  1.00  0.00     0.017 A 
ATOM     12  C   UNL     1     -10.793  -6.995 -27.443  1.00  0.00     0.012 A 
ATOM     13  C   UNL     1      -9.173  -8.278 -28.676  1.00  0.00     0.012 A 
ATOM     14  C   UNL     1     -11.279  -6.455 -28.638  1.00  0.00     0.009 A 
ATOM     15  C   UNL     1      -9.663  -7.739 -29.873  1.00  0.00     0.009 A 
ATOM     16  C   UNL     1     -10.720  -6.814 -29.874  1.00  0.00    -0.018 A 
BRANCH  16  17
ATOM     17  C   UNL     1     -11.231  -6.245 -31.132  1.00  0.00    -0.018 A 
ATOM     18  C   UNL     1     -10.867  -4.950 -31.543  1.00  0.00     0.009 A 
ATOM     19  C   UNL     1     -12.094  -6.980 -31.960  1.00  0.00     0.009 A 
ATOM     20  C   UNL     1     -11.349  -4.412 -32.739  1.00  0.00     0.001 A 
ATOM     21  C   UNL     1     -12.578  -6.442 -33.156  1.00  0.00     0.001 A 
ATOM     22  C   UNL     1     -12.205  -5.158 -33.545  1.00  0.00     0.000 A 
ENDBRANCH  16  17
ENDBRANCH   8  11
ENDBRANCH   3   4
ENDBRANCH   2   3
ENDBRANCH   1   2
BRANCH   1  23
ATOM     23  C   UNL     1      -6.767  -7.368 -21.140  1.00  0.00     0.119 A 
ATOM     24  C   UNL     1      -7.355  -6.091 -21.150  1.00  0.00     0.047 A 
ATOM     25  C   UNL     1      -5.435  -7.515 -20.747  1.00  0.00     0.050 A 
ATOM     26  C   UNL     1      -6.630  -4.953 -20.782  1.00  0.00     0.008 A 
ATOM     27  C   UNL     1      -4.719  -6.378 -20.396  1.00  0.00    -0.041 A 
ATOM     28  C   UNL     1      -5.303  -5.107 -20.418  1.00  0.00    -0.041 A 
ATOM     29  C   UNL     1      -3.305  -6.312 -19.912  1.00  0.00     0.036 C 
ATOM     30  C   UNL     1      -4.320  -4.061 -19.955  1.00  0.00     0.031 C 
ATOM     31  C   UNL     1      -2.988  -4.828 -20.138  1.00  0.00     0.014 C 
BRANCH  30  32
ATOM     32  C   UNL     1      -4.366  -2.757 -20.749  1.00  0.00     0.131 C 
BRANCH  32  33
ATOM     33  C   UNL     1      -4.046  -1.566 -19.892  1.00  0.00     0.303 C 
ATOM     34  O   UNL     1      -4.670  -0.523 -19.801  1.00  0.00    -0.252 OA
BRANCH  33  35
ATOM     35  O   UNL     1      -2.909  -1.744 -19.190  1.00  0.00    -0.481 OA
ATOM     36  H   UNL     1      -2.805  -0.909 -18.686  1.00  0.00     0.296 HD
ENDBRANCH  33  35
ENDBRANCH  32  33
ENDBRANCH  30  32
ENDBRANCH   1  23
TORSDOF 9
ENDMDL
MODEL 5
REMARK minimizedAffinity -9.52289104
REMARK CNNscore 0.842276156
REMARK CNNaffinity 7.60528135
REMARK SMILES Cc1c(CCOc2ccc3c(c2)CC[C@H]3CC(=O)O)nc(-c2ccc(-c3ccccc3)cc2)n1C
REMARK SMILES IDX 6 1 5 2 4 3 3 4 2 5 34 6 20 7 21 8 1 9 35 10 22 11 23 12
REMARK SMILES IDX 33 13 24 14 32 15 25 16 26 17 27 18 31 19 28 20 30 21 29 22
REMARK SMILES IDX 7 23 8 24 12 25 9 26 11 27 10 28 13 29 15 30 14 31 16 32
REMARK SMILES IDX 17 33 18 34 19 35
REMARK H PARENT 19 36
ROOT
ATOM      1  O   UNL     1      -8.254  -8.209 -21.562  1.00  0.00    -0.493 OA
ENDROOT
BRANCH   1   2
ATOM      2  C   UNL     1      -7.803  -9.556 -21.746  1.00  0.00     0.236 C 
BRANCH   2   3
ATOM      3  C   UNL     1      -6.813  -9.597 -22.909  1.00  0.00     0.099 C 
BRANCH   3   4
ATOM      4  C   UNL     1      -7.475  -9.369 -24.225  1.00  0.00     0.065 A 
ATOM      5  C   UNL     1      -7.098  -9.778 -25.490  1.00  0.00     0.038 A 
ATOM      6  N   UNL     1      -8.061  -9.259 -26.327  1.00  0.00    -0.331 N 
ATOM      7  N   UNL     1      -8.638  -8.641 -24.282  1.00  0.00    -0.233 NA
ATOM      8  C   UNL     1      -9.005  -8.612 -25.551  1.00  0.00     0.140 A 
ATOM      9  C   UNL     1      -5.925 -10.563 -25.946  1.00  0.00     0.066 C 
ATOM     10  C   UNL     1      -8.053  -9.327 -27.769  1.00  0.00     0.151 C 
BRANCH   8  11
ATOM     11  C   UNL     1     -10.208  -7.944 -26.048  1.00  0.00     0.017 A 
ATOM     12  C   UNL     1     -11.326  -7.833 -25.216  1.00  0.00     0.012 A 
ATOM     13  C   UNL     1     -10.285  -7.438 -27.350  1.00  0.00     0.012 A 
ATOM     14  C   UNL     1     -12.489  -7.197 -25.663  1.00  0.00     0.009 A 
ATOM     15  C   UNL     1     -11.451  -6.806 -27.798  1.00  0.00     0.009 A 
ATOM     16  C   UNL     1     -12.571  -6.669 -26.960  1.00  0.00    -0.018 A 
BRANCH  16  17
ATOM     17  C   UNL     1     -13.794  -5.999 -27.430  1.00  0.00    -0.018 A 
ATOM     18  C   UNL     1     -14.586  -5.236 -26.554  1.00  0.00     0.009 A 
ATOM     19  C   UNL     1     -14.204  -6.099 -28.770  1.00  0.00     0.009 A 
ATOM     20  C   UNL     1     -15.746  -4.596 -27.002  1.00  0.00     0.001 A 
ATOM     21  C   UNL     1     -15.365  -5.463 -29.219  1.00  0.00     0.001 A 
ATOM     22  C   UNL     1     -16.135  -4.711 -28.334  1.00  0.00     0.000 A 
ENDBRANCH  16  17
ENDBRANCH   8  11
ENDBRANCH   3   4
ENDBRANCH   2   3
ENDBRANCH   1   2
BRANCH   1  23
ATOM     23  C   UNL     1      -7.321  -7.291 -21.161  1.00  0.00     0.119 A 
ATOM     24  C   UNL     1      -7.779  -5.962 -21.157  1.00  0.00     0.047 A 
ATOM     25  C   UNL     1      -6.011  -7.575 -20.769  1.00  0.00     0.050 A 
ATOM     26  C   UNL     1      -6.945  -4.906 -20.775  1.00  0.00     0.008 A 
ATOM     27  C   UNL     1      -5.186  -6.520 -20.403  1.00  0.00    -0.041 A 
ATOM     28  C   UNL     1      -5.641  -5.196 -20.410  1.00  0.00    -0.041 A 
ATOM     29  C   UNL     1      -3.774  -6.601 -19.916  1.00  0.00     0.036 C 
ATOM     30  C   UNL     1      -4.559  -4.259 -19.933  1.00  0.00     0.031 C 
ATOM     31  C   UNL     1      -3.310  -5.154 -20.123  1.00  0.00     0.014 C 
BRANCH  30  32
ATOM     32  C   UNL     1      -4.473  -2.948 -20.712  1.00  0.00     0.131 C 
BRANCH  32  33
ATOM     33  C   UNL     1      -3.873  -1.844 -19.887  1.00  0.00     0.303 C 
ATOM     34  O   UNL     1      -2.776  -1.825 -19.353  1.00  0.00    -0.252 OA
BRANCH  33  35
ATOM     35  O   UNL     1      -4.716  -0.802 -19.752  1.00  0.00    -0.481 OA
ATOM     36  H   UNL     1      -4.220  -0.164 -19.197  1.00  0.00     0.296 HD
ENDBRANCH  33  35
ENDBRANCH  32  33
ENDBRANCH  30  32
ENDBRANCH   1  23
TORSDOF 9
ENDMDL
MODEL 6
REMARK minimizedAffinity -9.4201088
REMARK CNNscore 0.828445852
REMARK CNNaffinity 7.51641035
REMARK SMILES Cc1c(CCOc2ccc3c(c2)CC[C@H]3CC(=O)O)nc(-c2ccc(-c3ccccc3)cc2)n1C
REMARK SMILES IDX 6 1 5 2 4 3 3 4 2 5 34 6 20 7 21 8 1 9 35 10 22 11 23 12
REMARK SMILES IDX 33 13 24 14 32 15 25 16 26 17 27 18 31 19 28 20 30 21 29 22
REMARK SMILES IDX 7 23 8 24 12 25 9 26 11 27 10 28 13 29 15 30 14 31 16 32
REMARK SMILES IDX 17 33 18 34 19 35
REMARK H PARENT 19 36
ROOT
ATOM      1  O   UNL     1      -7.648  -8.347 -21.418  1.00  0.00    -0.493 OA
ENDROOT
BRANCH   1   2
ATOM      2  C   UNL     1      -7.017  -9.549 -21.874  1.00  0.00     0.236 C 
BRANCH   2   3
ATOM      3  C   UNL     1      -8.006 -10.339 -22.730  1.00  0.00     0.099 C 
BRANCH   3   4
ATOM      4  C   UNL     1      -8.282  -9.674 -24.035  1.00  0.00     0.065 A 
ATOM      5  C   UNL     1      -7.515  -9.622 -25.183  1.00  0.00     0.038 A 
ATOM      6  N   UNL     1      -8.247  -8.850 -26.059  1.00  0.00    -0.331 N 
ATOM      7  N   UNL     1      -9.451  -8.975 -24.206  1.00  0.00    -0.233 NA
ATOM      8  C   UNL     1      -9.438  -8.512 -25.444  1.00  0.00     0.140 A 
ATOM      9  C   UNL     1      -6.183 -10.199 -25.487  1.00  0.00     0.066 C 
ATOM     10  C   UNL     1      -7.816  -8.418 -27.368  1.00  0.00     0.151 C 
BRANCH   8  11
ATOM     11  C   UNL     1     -10.512  -7.717 -26.040  1.00  0.00     0.017 A 
ATOM     12  C   UNL     1     -10.368  -7.236 -27.345  1.00  0.00     0.012 A 
ATOM     13  C   UNL     1     -11.671  -7.392 -25.328  1.00  0.00     0.012 A 
ATOM     14  C   UNL     1     -11.379  -6.475 -27.942  1.00  0.00     0.009 A 
ATOM     15  C   UNL     1     -12.681  -6.628 -25.925  1.00  0.00     0.009 A 
ATOM     16  C   UNL     1     -12.555  -6.161 -27.245  1.00  0.00    -0.018 A 
BRANCH  16  17
ATOM     17  C   UNL     1     -13.619  -5.362 -27.873  1.00  0.00    -0.018 A 
ATOM     18  C   UNL     1     -13.483  -3.971 -28.034  1.00  0.00     0.009 A 
ATOM     19  C   UNL     1     -14.800  -5.966 -28.334  1.00  0.00     0.009 A 
ATOM     20  C   UNL     1     -14.492  -3.214 -28.636  1.00  0.00     0.001 A 
ATOM     21  C   UNL     1     -15.811  -5.209 -28.933  1.00  0.00     0.001 A 
ATOM     22  C   UNL     1     -15.656  -3.833 -29.084  1.00  0.00     0.000 A 
ENDBRANCH  16  17
ENDBRANCH   8  11
ENDBRANCH   3   4
ENDBRANCH   2   3
ENDBRANCH   1   2
BRANCH   1  23
ATOM     23  C   UNL     1      -6.827  -7.302 -21.087  1.00  0.00     0.119 A 
ATOM     24  C   UNL     1      -7.439  -6.038 -21.154  1.00  0.00     0.047 A 
ATOM     25  C   UNL     1      -5.489  -7.404 -20.700  1.00  0.00     0.050 A 
ATOM     26  C   UNL     1      -6.734  -4.871 -20.848  1.00  0.00     0.008 A 
ATOM     27  C   UNL     1      -4.792  -6.239 -20.410  1.00  0.00    -0.041 A 
ATOM     28  C   UNL     1      -5.401  -4.981 -20.488  1.00  0.00    -0.041 A 
ATOM     29  C   UNL     1      -3.377  -6.123 -19.942  1.00  0.00     0.036 C 
ATOM     30  C   UNL     1      -4.435  -3.896 -20.085  1.00  0.00     0.031 C 
ATOM     31  C   UNL     1      -3.090  -4.646 -20.242  1.00  0.00     0.014 C 
BRANCH  30  32
ATOM     32  C   UNL     1      -4.513  -2.633 -20.941  1.00  0.00     0.131 C 
BRANCH  32  33
ATOM     33  C   UNL     1      -3.997  -1.427 -20.209  1.00  0.00     0.303 C 
ATOM     34  O   UNL     1      -4.647  -0.524 -19.709  1.00  0.00    -0.252 OA
BRANCH  33  35
ATOM     35  O   UNL     1      -2.651  -1.404 -20.162  1.00  0.00    -0.481 OA
ATOM     36  H   UNL     1      -2.441  -0.579 -19.675  1.00  0.00     0.296 HD
ENDBRANCH  33  35
ENDBRANCH  32  33
ENDBRANCH  30  32
ENDBRANCH   1  23
TORSDOF 9
ENDMDL
MODEL 7
REMARK minimizedAffinity -9.85791779
REMARK CNNscore 0.74018389
REMARK CNNaffinity 7.10066986
REMARK SMILES Cc1c(CCOc2ccc3c(c2)CC[C@H]3CC(=O)O)nc(-c2ccc(-c3ccccc3)cc2)n1C
REMARK SMILES IDX 6 1 5 2 4 3 3 4 2 5 34 6 20 7 21 8 1 9 35 10 22 11 23 12
REMARK SMILES IDX 33 13 24 14 32 15 25 16 26 17 27 18 31 19 28 20 30 21 29 22
REMARK SMILES IDX 7 23 8 24 12 25 9 26 11 27 10 28 13 29 15 30 14 31 16 32
REMARK SMILES IDX 17 33 18 34 19 35
REMARK H PARENT 19 36
ROOT
ATOM      1  O   UNL     1      -8.764  -6.314 -19.915  1.00  0.00    -0.493 OA
ENDROOT
BRANCH   1   2
ATOM      2  C   UNL     1      -8.205  -7.386 -20.683  1.00  0.00     0.236 C 
BRANCH   2   3
ATOM      3  C   UNL     1      -9.231  -7.849 -21.716  1.00  0.00     0.099 C 
BRANCH   3   4
ATOM      4  C   UNL     1      -8.590  -8.467 -22.912  1.00  0.00     0.065 A 
ATOM      5  C   UNL     1      -7.691  -9.513 -22.994  1.00  0.00     0.038 A 
ATOM      6  N   UNL     1      -7.419  -9.635 -24.339  1.00  0.00    -0.331 N 
ATOM      7  N   UNL     1      -8.874  -7.978 -24.162  1.00  0.00    -0.233 NA
ATOM      8  C   UNL     1      -8.190  -8.713 -25.021  1.00  0.00     0.140 A 
ATOM      9  C   UNL     1      -7.074 -10.348 -21.935  1.00  0.00     0.066 C 
ATOM     10  C   UNL     1      -6.449 -10.529 -24.927  1.00  0.00     0.151 C 
BRANCH   8  11
ATOM     11  C   UNL     1      -8.219  -8.530 -26.473  1.00  0.00     0.017 A 
ATOM     12  C   UNL     1      -7.076  -8.819 -27.225  1.00  0.00     0.012 A 
ATOM     13  C   UNL     1      -9.352  -8.040 -27.131  1.00  0.00     0.012 A 
ATOM     14  C   UNL     1      -7.075  -8.655 -28.614  1.00  0.00     0.009 A 
ATOM     15  C   UNL     1      -9.348  -7.873 -28.521  1.00  0.00     0.009 A 
ATOM     16  C   UNL     1      -8.212  -8.184 -29.288  1.00  0.00    -0.018 A 
BRANCH  16  17
ATOM     17  C   UNL     1      -8.211  -8.013 -30.750  1.00  0.00    -0.018 A 
ATOM     18  C   UNL     1      -7.190  -8.564 -31.544  1.00  0.00     0.009 A 
ATOM     19  C   UNL     1      -9.233  -7.296 -31.394  1.00  0.00     0.009 A 
ATOM     20  C   UNL     1      -7.192  -8.405 -32.933  1.00  0.00     0.001 A 
ATOM     21  C   UNL     1      -9.235  -7.135 -32.783  1.00  0.00     0.001 A 
ATOM     22  C   UNL     1      -8.214  -7.690 -33.551  1.00  0.00     0.000 A 
ENDBRANCH  16  17
ENDBRANCH   8  11
ENDBRANCH   3   4
ENDBRANCH   2   3
ENDBRANCH   1   2
BRANCH   1  23
ATOM     23  C   UNL     1      -9.729  -6.642 -19.001  1.00  0.00     0.119 A 
ATOM     24  C   UNL     1     -10.273  -7.927 -19.166  1.00  0.00     0.047 A 
ATOM     25  C   UNL     1     -10.182  -5.825 -17.963  1.00  0.00     0.050 A 
ATOM     26  C   UNL     1     -11.271  -8.410 -18.314  1.00  0.00     0.008 A 
ATOM     27  C   UNL     1     -11.182  -6.307 -17.129  1.00  0.00    -0.041 A 
ATOM     28  C   UNL     1     -11.730  -7.584 -17.302  1.00  0.00    -0.041 A 
ATOM     29  C   UNL     1     -11.781  -5.622 -15.942  1.00  0.00     0.036 C 
ATOM     30  C   UNL     1     -12.764  -7.868 -16.241  1.00  0.00     0.031 C 
ATOM     31  C   UNL     1     -13.072  -6.430 -15.758  1.00  0.00     0.014 C 
BRANCH  30  32
ATOM     32  C   UNL     1     -14.004  -8.601 -16.750  1.00  0.00     0.131 C 
BRANCH  32  33
ATOM     33  C   UNL     1     -15.265  -7.839 -16.457  1.00  0.00     0.303 C 
ATOM     34  O   UNL     1     -15.773  -6.954 -17.123  1.00  0.00    -0.252 OA
BRANCH  33  35
ATOM     35  O   UNL     1     -15.825  -8.225 -15.293  1.00  0.00    -0.481 OA
ATOM     36  H   UNL     1     -16.621  -7.658 -15.212  1.00  0.00     0.296 HD
ENDBRANCH  33  35
ENDBRANCH  32  33
ENDBRANCH  30  32
ENDBRANCH   1  23
TORSDOF 9
ENDMDL
MODEL 8
REMARK minimizedAffinity -7.41814756
REMARK CNNscore 0.735774159
REMARK CNNaffinity 7.3521533
REMARK SMILES Cc1c(CCOc2ccc3c(c2)CC[C@H]3CC(=O)O)nc(-c2ccc(-c3ccccc3)cc2)n1C
REMARK SMILES IDX 6 1 5 2 4 3 3 4 2 5 34 6 20 7 21 8 1 9 35 10 22 11 23 12
REMARK SMILES IDX 33 13 24 14 32 15 25 16 26 17 27 18 31 19 28 20 30 21 29 22
REMARK SMILES IDX 7 23 8 24 12 25 9 26 11 27 10 28 13 29 15 30 14 31 16 32
REMARK SMILES IDX 17 33 18 34 19 35
REMARK H PARENT 19 36
ROOT
ATOM      1  O   UNL     1      -9.410  -6.682 -19.472  1.00  0.00    -0.493 OA
ENDROOT
BRANCH   1   2
ATOM      2  C   UNL     1      -9.869  -6.937 -18.140  1.00  0.00     0.236 C 
BRANCH   2   3
ATOM      3  C   UNL     1     -10.861  -8.098 -18.166  1.00  0.00     0.099 C 
BRANCH   3   4
ATOM      4  C   UNL     1     -11.306  -8.432 -19.549  1.00  0.00     0.065 A 
ATOM      5  C   UNL     1     -12.548  -8.825 -20.010  1.00  0.00     0.038 A 
ATOM      6  N   UNL     1     -12.372  -9.026 -21.361  1.00  0.00    -0.331 N 
ATOM      7  N   UNL     1     -10.405  -8.376 -20.583  1.00  0.00    -0.233 NA
ATOM      8  C   UNL     1     -11.066  -8.700 -21.680  1.00  0.00     0.140 A 
ATOM      9  C   UNL     1     -13.826  -9.045 -19.289  1.00  0.00     0.066 C 
ATOM     10  C   UNL     1     -13.362  -9.546 -22.274  1.00  0.00     0.151 C 
BRANCH   8  11
ATOM     11  C   UNL     1     -10.475  -8.751 -23.017  1.00  0.00     0.017 A 
ATOM     12  C   UNL     1     -11.261  -8.434 -24.129  1.00  0.00     0.012 A 
ATOM     13  C   UNL     1      -9.148  -9.143 -23.221  1.00  0.00     0.012 A 
ATOM     14  C   UNL     1     -10.722  -8.471 -25.419  1.00  0.00     0.009 A 
ATOM     15  C   UNL     1      -8.610  -9.184 -24.514  1.00  0.00     0.009 A 
ATOM     16  C   UNL     1      -9.386  -8.843 -25.634  1.00  0.00    -0.018 A 
BRANCH  16  17
ATOM     17  C   UNL     1      -8.818  -8.882 -26.992  1.00  0.00    -0.018 A 
ATOM     18  C   UNL     1      -7.429  -8.946 -27.196  1.00  0.00     0.009 A 
ATOM     19  C   UNL     1      -9.650  -8.860 -28.124  1.00  0.00     0.009 A 
ATOM     20  C   UNL     1      -6.891  -8.987 -28.486  1.00  0.00     0.001 A 
ATOM     21  C   UNL     1      -9.113  -8.898 -29.414  1.00  0.00     0.001 A 
ATOM     22  C   UNL     1      -7.734  -8.962 -29.594  1.00  0.00     0.000 A 
ENDBRANCH  16  17
ENDBRANCH   8  11
ENDBRANCH   3   4
ENDBRANCH   2   3
ENDBRANCH   1   2
BRANCH   1  23
ATOM     23  C   UNL     1      -8.135  -6.202 -19.609  1.00  0.00     0.119 A 
ATOM     24  C   UNL     1      -8.053  -4.806 -19.760  1.00  0.00     0.047 A 
ATOM     25  C   UNL     1      -6.968  -6.969 -19.602  1.00  0.00     0.050 A 
ATOM     26  C   UNL     1      -6.821  -4.163 -19.912  1.00  0.00     0.008 A 
ATOM     27  C   UNL     1      -5.750  -6.323 -19.767  1.00  0.00    -0.041 A 
ATOM     28  C   UNL     1      -5.671  -4.935 -19.927  1.00  0.00    -0.041 A 
ATOM     29  C   UNL     1      -4.388  -6.940 -19.751  1.00  0.00     0.036 C 
ATOM     30  C   UNL     1      -4.234  -4.493 -20.045  1.00  0.00     0.031 C 
ATOM     31  C   UNL     1      -3.558  -5.835 -20.417  1.00  0.00     0.014 C 
BRANCH  30  32
ATOM     32  C   UNL     1      -3.994  -3.401 -21.086  1.00  0.00     0.131 C 
BRANCH  32  33
ATOM     33  C   UNL     1      -3.768  -2.059 -20.448  1.00  0.00     0.303 C 
ATOM     34  O   UNL     1      -2.896  -1.749 -19.654  1.00  0.00    -0.252 OA
BRANCH  33  35
ATOM     35  O   UNL     1      -4.691  -1.157 -20.835  1.00  0.00    -0.481 OA
ATOM     36  H   UNL     1      -4.445  -0.340 -20.352  1.00  0.00     0.296 HD
ENDBRANCH  33  35
ENDBRANCH  32  33
ENDBRANCH  30  32
ENDBRANCH   1  23
TORSDOF 9
ENDMDL
MODEL 9
REMARK minimizedAffinity -9.44519997
REMARK CNNscore 0.727277756
REMARK CNNaffinity 7.5377636
REMARK SMILES Cc1c(CCOc2ccc3c(c2)CC[C@H]3CC(=O)O)nc(-c2ccc(-c3ccccc3)cc2)n1C
REMARK SMILES IDX 6 1 5 2 4 3 3 4 2 5 34 6 20 7 21 8 1 9 35 10 22 11 23 12
REMARK SMILES IDX 33 13 24 14 32 15 25 16 26 17 27 18 31 19 28 20 30 21 29 22
REMARK SMILES IDX 7 23 8 24 12 25 9 26 11 27 10 28 13 29 15 30 14 31 16 32
REMARK SMILES IDX 17 33 18 34 19 35
REMARK H PARENT 19 36
ROOT
ATOM      1  O   UNL     1      -7.817  -8.293 -21.626  1.00  0.00    -0.493 OA
ENDROOT
BRANCH   1   2
ATOM      2  C   UNL     1      -7.265  -9.593 -21.864  1.00  0.00     0.236 C 
BRANCH   2   3
ATOM      3  C   UNL     1      -7.253  -9.864 -23.368  1.00  0.00     0.099 C 
BRANCH   3   4
ATOM      4  C   UNL     1      -8.433  -9.270 -24.059  1.00  0.00     0.065 A 
ATOM      5  C   UNL     1      -9.702  -9.009 -23.578  1.00  0.00     0.038 A 
ATOM      6  N   UNL     1     -10.384  -8.491 -24.658  1.00  0.00    -0.331 N 
ATOM      7  N   UNL     1      -8.334  -8.908 -25.379  1.00  0.00    -0.233 NA
ATOM      8  C   UNL     1      -9.506  -8.404 -25.722  1.00  0.00     0.140 A 
ATOM      9  C   UNL     1     -10.298  -9.234 -22.239  1.00  0.00     0.066 C 
ATOM     10  C   UNL     1     -11.788  -8.155 -24.688  1.00  0.00     0.151 C 
BRANCH   8  11
ATOM     11  C   UNL     1      -9.825  -7.884 -27.052  1.00  0.00     0.017 A 
ATOM     12  C   UNL     1     -10.987  -7.128 -27.234  1.00  0.00     0.012 A 
ATOM     13  C   UNL     1      -9.014  -8.149 -28.161  1.00  0.00     0.012 A 
ATOM     14  C   UNL     1     -11.315  -6.615 -28.494  1.00  0.00     0.009 A 
ATOM     15  C   UNL     1      -9.346  -7.639 -29.422  1.00  0.00     0.009 A 
ATOM     16  C   UNL     1     -10.499  -6.858 -29.609  1.00  0.00    -0.018 A 
BRANCH  16  17
ATOM     17  C   UNL     1     -10.845  -6.318 -30.934  1.00  0.00    -0.018 A 
ATOM     18  C   UNL     1     -11.896  -5.397 -31.090  1.00  0.00     0.009 A 
ATOM     19  C   UNL     1     -10.132  -6.704 -32.080  1.00  0.00     0.009 A 
ATOM     20  C   UNL     1     -12.220  -4.880 -32.348  1.00  0.00     0.001 A 
ATOM     21  C   UNL     1     -10.457  -6.191 -33.339  1.00  0.00     0.001 A 
ATOM     22  C   UNL     1     -11.501  -5.279 -33.472  1.00  0.00     0.000 A 
ENDBRANCH  16  17
ENDBRANCH   8  11
ENDBRANCH   3   4
ENDBRANCH   2   3
ENDBRANCH   1   2
BRANCH   1  23
ATOM     23  C   UNL     1      -6.950  -7.316 -21.216  1.00  0.00     0.119 A 
ATOM     24  C   UNL     1      -7.506  -6.025 -21.179  1.00  0.00     0.047 A 
ATOM     25  C   UNL     1      -5.618  -7.509 -20.843  1.00  0.00     0.050 A 
ATOM     26  C   UNL     1      -6.748  -4.918 -20.784  1.00  0.00     0.008 A 
ATOM     27  C   UNL     1      -4.870  -6.402 -20.464  1.00  0.00    -0.041 A 
ATOM     28  C   UNL     1      -5.422  -5.116 -20.439  1.00  0.00    -0.041 A 
ATOM     29  C   UNL     1      -3.450  -6.387 -19.994  1.00  0.00     0.036 C 
ATOM     30  C   UNL     1      -4.408  -4.110 -19.954  1.00  0.00     0.031 C 
ATOM     31  C   UNL     1      -3.098  -4.905 -20.176  1.00  0.00     0.014 C 
BRANCH  30  32
ATOM     32  C   UNL     1      -4.430  -2.781 -20.706  1.00  0.00     0.131 C 
BRANCH  32  33
ATOM     33  C   UNL     1      -3.143  -2.023 -20.541  1.00  0.00     0.303 C 
ATOM     34  O   UNL     1      -2.332  -1.735 -21.405  1.00  0.00    -0.252 OA
BRANCH  33  35
ATOM     35  O   UNL     1      -2.925  -1.676 -19.257  1.00  0.00    -0.481 OA
ATOM     36  H   UNL     1      -2.066  -1.204 -19.280  1.00  0.00     0.296 HD
ENDBRANCH  33  35
ENDBRANCH  32  33
ENDBRANCH  30  32
ENDBRANCH   1  23
TORSDOF 9
ENDMDL
