MODEL 1
REMARK VINA RESULT:    -9.370      0.000      0.000
REMARK INTER + INTRA:         -15.527
REMARK INTER:                 -14.573
REMARK INTRA:                  -0.954
REMARK UNBOUND:                -0.954
REMARK SMILES CC[C@@H](Cc1ccc(OC)c(CNC(=O)c2ccc(C(F)(F)F)c(F)c2)c1)C(=O)O
REMARK SMILES IDX 5 1 6 2 7 3 8 4 11 5 27 6 4 7 3 8 2 9 1 10 28 11 29 12 30 13
REMARK SMILES IDX 12 15 13 16 14 17 15 18 16 20 17 21 26 22 18 23 24 24 19 25
REMARK SMILES IDX 25 26 20 27 21 28 22 29 23 30 9 31 10 32
REMARK H PARENT 30 14 13 19
ROOT
ATOM      1  C   UNL     1       3.474   6.290  -3.569  1.00  0.00    -0.047 A 
ATOM      2  C   UNL     1       3.384   7.681  -3.605  1.00  0.00     0.007 A 
ATOM      3  C   UNL     1       4.237   8.424  -4.431  1.00  0.00     0.047 A 
ATOM      4  C   UNL     1       5.165   7.785  -5.264  1.00  0.00     0.123 A 
ATOM      5  C   UNL     1       5.265   6.386  -5.229  1.00  0.00     0.014 A 
ATOM      6  C   UNL     1       4.451   5.661  -4.346  1.00  0.00     0.013 A 
ENDROOT
BRANCH   1   7
ATOM      7  C   UNL     1       2.472   5.443  -2.820  1.00  0.00     0.050 C 
BRANCH   7   8
ATOM      8  C   UNL     1       2.758   5.378  -1.303  1.00  0.00     0.103 C 
BRANCH   8   9
ATOM      9  C   UNL     1       2.561   6.757  -0.655  1.00  0.00     0.012 C 
ATOM     10  C   UNL     1       2.028   6.669   0.768  1.00  0.00     0.005 C 
ENDBRANCH   8   9
BRANCH   8  11
ATOM     11  C   UNL     1       4.148   4.840  -1.017  1.00  0.00     0.306 C 
ATOM     12  O   UNL     1       5.153   5.525  -0.892  1.00  0.00    -0.252 OA
BRANCH  11  13
ATOM     13  O   UNL     1       4.189   3.501  -0.884  1.00  0.00    -0.481 OA
ATOM     14  H   UNL     1       3.277   3.182  -1.115  1.00  0.00     0.296 HD
ENDBRANCH  11  13
ENDBRANCH   8  11
ENDBRANCH   7   8
ENDBRANCH   1   7
BRANCH   5  15
ATOM     15  C   UNL     1       6.120   5.609  -6.198  1.00  0.00     0.156 C 
BRANCH  15  16
ATOM     16  N   UNL     1       7.063   4.768  -5.487  1.00  0.00    -0.348 N 
ATOM     17  C   UNL     1       8.186   4.227  -6.074  1.00  0.00     0.251 C 
ATOM     18  O   UNL     1       8.511   4.384  -7.249  1.00  0.00    -0.269 OA
ATOM     19  H   UNL     1       6.955   4.740  -4.484  1.00  0.00     0.164 HD
BRANCH  17  20
ATOM     20  C   UNL     1       9.062   3.432  -5.171  1.00  0.00     0.042 A 
ATOM     21  C   UNL     1       8.870   3.526  -3.787  1.00  0.00     0.014 A 
ATOM     22  C   UNL     1      10.083   2.621  -5.674  1.00  0.00     0.053 A 
ATOM     23  C   UNL     1       9.679   2.795  -2.911  1.00  0.00     0.017 A 
ATOM     24  C   UNL     1      10.883   1.900  -4.790  1.00  0.00     0.136 A 
ATOM     25  C   UNL     1      10.697   1.970  -3.410  1.00  0.00     0.091 A 
ATOM     26  F   UNL     1      11.855   1.127  -5.294  1.00  0.00    -0.206 F 
BRANCH  25  27
ATOM     27  C   UNL     1      11.588   1.167  -2.509  1.00  0.00     0.419 C 
ATOM     28  F   UNL     1      12.875   1.616  -2.494  1.00  0.00    -0.166 F 
ATOM     29  F   UNL     1      11.180   1.182  -1.211  1.00  0.00    -0.166 F 
ATOM     30  F   UNL     1      11.663  -0.143  -2.872  1.00  0.00    -0.166 F 
ENDBRANCH  25  27
ENDBRANCH  17  20
ENDBRANCH  15  16
ENDBRANCH   5  15
BRANCH   4  31
ATOM     31  O   UNL     1       5.989   8.421  -6.155  1.00  0.00    -0.496 OA
ATOM     32  C   UNL     1       6.689   9.567  -5.686  1.00  0.00     0.278 C 
ENDBRANCH   4  31
TORSDOF 10
ENDMDL
MODEL 2
REMARK VINA RESULT:    -9.191      6.505     10.283
REMARK INTER + INTRA:         -15.248
REMARK INTER:                 -13.806
REMARK INTRA:                  -1.442
REMARK UNBOUND:                -0.954
REMARK SMILES CC[C@@H](Cc1ccc(OC)c(CNC(=O)c2ccc(C(F)(F)F)c(F)c2)c1)C(=O)O
REMARK SMILES IDX 5 1 6 2 7 3 8 4 11 5 27 6 4 7 3 8 2 9 1 10 28 11 29 12 30 13
REMARK SMILES IDX 12 15 13 16 14 17 15 18 16 20 17 21 26 22 18 23 24 24 19 25
REMARK SMILES IDX 25 26 20 27 21 28 22 29 23 30 9 31 10 32
REMARK H PARENT 30 14 13 19
ROOT
ATOM      1  C   UNL     1      10.343   7.780 -11.085  1.00  0.00    -0.047 A 
ATOM      2  C   UNL     1      10.287   6.761 -12.036  1.00  0.00     0.007 A 
ATOM      3  C   UNL     1      10.321   5.419 -11.638  1.00  0.00     0.047 A 
ATOM      4  C   UNL     1      10.370   5.075 -10.280  1.00  0.00     0.123 A 
ATOM      5  C   UNL     1      10.433   6.094  -9.318  1.00  0.00     0.014 A 
ATOM      6  C   UNL     1      10.467   7.431  -9.736  1.00  0.00     0.013 A 
ENDROOT
BRANCH   1   7
ATOM      7  C   UNL     1      10.147   9.231 -11.455  1.00  0.00     0.050 C 
BRANCH   7   8
ATOM      8  C   UNL     1      10.526   9.531 -12.922  1.00  0.00     0.103 C 
BRANCH   8   9
ATOM      9  C   UNL     1      11.967  10.056 -13.014  1.00  0.00     0.012 C 
ATOM     10  C   UNL     1      12.957   8.987 -13.457  1.00  0.00     0.005 C 
ENDBRANCH   8   9
BRANCH   8  11
ATOM     11  C   UNL     1       9.556  10.505 -13.565  1.00  0.00     0.306 C 
ATOM     12  O   UNL     1       8.339  10.466 -13.445  1.00  0.00    -0.252 OA
BRANCH  11  13
ATOM     13  O   UNL     1      10.159  11.469 -14.288  1.00  0.00    -0.481 OA
ATOM     14  H   UNL     1      10.110  11.163 -15.231  1.00  0.00     0.296 HD
ENDBRANCH  11  13
ENDBRANCH   8  11
ENDBRANCH   7   8
ENDBRANCH   1   7
BRANCH   5  15
ATOM     15  C   UNL     1      10.331   5.820  -7.839  1.00  0.00     0.156 C 
BRANCH  15  16
ATOM     16  N   UNL     1       9.030   6.213  -7.334  1.00  0.00    -0.348 N 
ATOM     17  C   UNL     1       8.107   5.317  -6.840  1.00  0.00     0.251 C 
ATOM     18  O   UNL     1       8.272   4.101  -6.778  1.00  0.00    -0.269 OA
ATOM     19  H   UNL     1       8.895   7.204  -7.194  1.00  0.00     0.164 HD
BRANCH  17  20
ATOM     20  C   UNL     1       6.847   5.914  -6.321  1.00  0.00     0.042 A 
ATOM     21  C   UNL     1       5.909   5.079  -5.701  1.00  0.00     0.014 A 
ATOM     22  C   UNL     1       6.572   7.277  -6.463  1.00  0.00     0.053 A 
ATOM     23  C   UNL     1       4.712   5.607  -5.206  1.00  0.00     0.017 A 
ATOM     24  C   UNL     1       5.376   7.789  -5.967  1.00  0.00     0.136 A 
ATOM     25  C   UNL     1       4.437   6.976  -5.335  1.00  0.00     0.091 A 
ATOM     26  F   UNL     1       5.133   9.099  -6.113  1.00  0.00    -0.206 F 
BRANCH  25  27
ATOM     27  C   UNL     1       3.167   7.586  -4.819  1.00  0.00     0.419 C 
ATOM     28  F   UNL     1       2.488   6.766  -3.967  1.00  0.00    -0.166 F 
ATOM     29  F   UNL     1       3.378   8.739  -4.126  1.00  0.00    -0.166 F 
ATOM     30  F   UNL     1       2.287   7.892  -5.811  1.00  0.00    -0.166 F 
ENDBRANCH  25  27
ENDBRANCH  17  20
ENDBRANCH  15  16
ENDBRANCH   5  15
BRANCH   4  31
ATOM     31  O   UNL     1      10.335   3.794  -9.794  1.00  0.00    -0.496 OA
ATOM     32  C   UNL     1       9.575   2.842 -10.527  1.00  0.00     0.278 C 
ENDBRANCH   4  31
TORSDOF 10
ENDMDL
MODEL 3
REMARK VINA RESULT:    -9.068      6.480     10.315
REMARK INTER + INTRA:         -15.057
REMARK INTER:                 -13.564
REMARK INTRA:                  -1.492
REMARK UNBOUND:                -0.954
REMARK SMILES CC[C@@H](Cc1ccc(OC)c(CNC(=O)c2ccc(C(F)(F)F)c(F)c2)c1)C(=O)O
REMARK SMILES IDX 5 1 6 2 7 3 8 4 11 5 27 6 4 7 3 8 2 9 1 10 28 11 29 12 30 13
REMARK SMILES IDX 12 15 13 16 14 17 15 18 16 20 17 21 26 22 18 23 24 24 19 25
REMARK SMILES IDX 25 26 20 27 21 28 22 29 23 30 9 31 10 32
REMARK H PARENT 30 14 13 19
ROOT
ATOM      1  C   UNL     1      10.435   7.705 -11.028  1.00  0.00    -0.047 A 
ATOM      2  C   UNL     1      10.323   6.684 -11.973  1.00  0.00     0.007 A 
ATOM      3  C   UNL     1      10.270   5.345 -11.565  1.00  0.00     0.047 A 
ATOM      4  C   UNL     1      10.288   5.009 -10.205  1.00  0.00     0.123 A 
ATOM      5  C   UNL     1      10.407   6.030  -9.249  1.00  0.00     0.014 A 
ATOM      6  C   UNL     1      10.528   7.359  -9.677  1.00  0.00     0.013 A 
ENDROOT
BRANCH   1   7
ATOM      7  C   UNL     1      10.334   9.163 -11.411  1.00  0.00     0.050 C 
BRANCH   7   8
ATOM      8  C   UNL     1      10.620   9.410 -12.908  1.00  0.00     0.103 C 
BRANCH   8   9
ATOM      9  C   UNL     1      12.051   9.933 -13.107  1.00  0.00     0.012 C 
ATOM     10  C   UNL     1      13.042   8.826 -13.443  1.00  0.00     0.005 C 
ENDBRANCH   8   9
BRANCH   8  11
ATOM     11  C   UNL     1       9.609  10.360 -13.523  1.00  0.00     0.306 C 
ATOM     12  O   UNL     1       8.403  10.325 -13.324  1.00  0.00    -0.252 OA
BRANCH  11  13
ATOM     13  O   UNL     1      10.163  11.295 -14.319  1.00  0.00    -0.481 OA
ATOM     14  H   UNL     1       9.985  10.993 -15.248  1.00  0.00     0.296 HD
ENDBRANCH  11  13
ENDBRANCH   8  11
ENDBRANCH   7   8
ENDBRANCH   1   7
BRANCH   5  15
ATOM     15  C   UNL     1      10.277   5.774  -7.769  1.00  0.00     0.156 C 
BRANCH  15  16
ATOM     16  N   UNL     1       9.011   6.277  -7.272  1.00  0.00    -0.348 N 
ATOM     17  C   UNL     1       7.985   5.461  -6.851  1.00  0.00     0.251 C 
ATOM     18  O   UNL     1       8.017   4.232  -6.855  1.00  0.00    -0.269 OA
ATOM     19  H   UNL     1       8.980   7.268  -7.077  1.00  0.00     0.164 HD
BRANCH  17  20
ATOM     20  C   UNL     1       6.781   6.161  -6.326  1.00  0.00     0.042 A 
ATOM     21  C   UNL     1       6.683   7.549  -6.485  1.00  0.00     0.014 A 
ATOM     22  C   UNL     1       5.768   5.468  -5.658  1.00  0.00     0.053 A 
ATOM     23  C   UNL     1       5.567   8.238  -5.999  1.00  0.00     0.017 A 
ATOM     24  C   UNL     1       4.663   6.167  -5.178  1.00  0.00     0.136 A 
ATOM     25  C   UNL     1       4.542   7.547  -5.340  1.00  0.00     0.091 A 
ATOM     26  F   UNL     1       3.702   5.484  -4.541  1.00  0.00    -0.206 F 
BRANCH  25  27
ATOM     27  C   UNL     1       3.327   8.243  -4.803  1.00  0.00     0.419 C 
ATOM     28  F   UNL     1       2.169   7.822  -5.387  1.00  0.00    -0.166 F 
ATOM     29  F   UNL     1       3.153   8.052  -3.466  1.00  0.00    -0.166 F 
ATOM     30  F   UNL     1       3.363   9.591  -4.995  1.00  0.00    -0.166 F 
ENDBRANCH  25  27
ENDBRANCH  17  20
ENDBRANCH  15  16
ENDBRANCH   5  15
BRANCH   4  31
ATOM     31  O   UNL     1      10.169   3.737  -9.709  1.00  0.00    -0.496 OA
ATOM     32  C   UNL     1       9.616   2.752 -10.575  1.00  0.00     0.278 C 
ENDBRANCH   4  31
TORSDOF 10
ENDMDL
MODEL 4
REMARK VINA RESULT:    -8.800      6.140      8.452
REMARK INTER + INTRA:         -14.641
REMARK INTER:                 -13.402
REMARK INTRA:                  -1.238
REMARK UNBOUND:                -0.954
REMARK SMILES CC[C@@H](Cc1ccc(OC)c(CNC(=O)c2ccc(C(F)(F)F)c(F)c2)c1)C(=O)O
REMARK SMILES IDX 5 1 6 2 7 3 8 4 11 5 27 6 4 7 3 8 2 9 1 10 28 11 29 12 30 13
REMARK SMILES IDX 12 15 13 16 14 17 15 18 16 20 17 21 26 22 18 23 24 24 19 25
REMARK SMILES IDX 25 26 20 27 21 28 22 29 23 30 9 31 10 32
REMARK H PARENT 30 14 13 19
ROOT
ATOM      1  C   UNL     1       6.495   6.631  -6.346  1.00  0.00    -0.047 A 
ATOM      2  C   UNL     1       6.002   5.450  -5.790  1.00  0.00     0.007 A 
ATOM      3  C   UNL     1       6.779   4.285  -5.803  1.00  0.00     0.047 A 
ATOM      4  C   UNL     1       8.075   4.292  -6.335  1.00  0.00     0.123 A 
ATOM      5  C   UNL     1       8.575   5.475  -6.901  1.00  0.00     0.014 A 
ATOM      6  C   UNL     1       7.759   6.614  -6.942  1.00  0.00     0.013 A 
ENDROOT
BRANCH   1   7
ATOM      7  C   UNL     1       5.761   7.945  -6.211  1.00  0.00     0.050 C 
BRANCH   7   8
ATOM      8  C   UNL     1       4.728   7.939  -5.063  1.00  0.00     0.103 C 
BRANCH   8   9
ATOM      9  C   UNL     1       3.335   7.559  -5.589  1.00  0.00     0.012 C 
ATOM     10  C   UNL     1       2.871   8.453  -6.731  1.00  0.00     0.005 C 
ENDBRANCH   8   9
BRANCH   8  11
ATOM     11  C   UNL     1       4.686   9.272  -4.339  1.00  0.00     0.306 C 
ATOM     12  O   UNL     1       5.210  10.303  -4.736  1.00  0.00    -0.252 OA
BRANCH  11  13
ATOM     13  O   UNL     1       3.981   9.239  -3.192  1.00  0.00    -0.481 OA
ATOM     14  H   UNL     1       4.186   8.359  -2.779  1.00  0.00     0.296 HD
ENDBRANCH  11  13
ENDBRANCH   8  11
ENDBRANCH   7   8
ENDBRANCH   1   7
BRANCH   5  15
ATOM     15  C   UNL     1      10.007   5.616  -7.352  1.00  0.00     0.156 C 
BRANCH  15  16
ATOM     16  N   UNL     1      10.119   6.621  -8.391  1.00  0.00    -0.348 N 
ATOM     17  C   UNL     1      10.496   6.334  -9.684  1.00  0.00     0.251 C 
ATOM     18  O   UNL     1      10.784   5.214 -10.100  1.00  0.00    -0.269 OA
ATOM     19  H   UNL     1       9.732   7.527  -8.167  1.00  0.00     0.164 HD
BRANCH  17  20
ATOM     20  C   UNL     1      10.505   7.490 -10.622  1.00  0.00     0.042 A 
ATOM     21  C   UNL     1      10.168   8.759 -10.134  1.00  0.00     0.014 A 
ATOM     22  C   UNL     1      10.815   7.329 -11.974  1.00  0.00     0.053 A 
ATOM     23  C   UNL     1      10.162   9.865 -10.990  1.00  0.00     0.017 A 
ATOM     24  C   UNL     1      10.804   8.438 -12.816  1.00  0.00     0.136 A 
ATOM     25  C   UNL     1      10.484   9.711 -12.346  1.00  0.00     0.091 A 
ATOM     26  F   UNL     1      11.105   8.262 -14.110  1.00  0.00    -0.206 F 
BRANCH  25  27
ATOM     27  C   UNL     1      10.493  10.869 -13.300  1.00  0.00     0.419 C 
ATOM     28  F   UNL     1      11.667  10.989 -13.983  1.00  0.00    -0.166 F 
ATOM     29  F   UNL     1       9.523  10.778 -14.251  1.00  0.00    -0.166 F 
ATOM     30  F   UNL     1      10.308  12.067 -12.679  1.00  0.00    -0.166 F 
ENDBRANCH  25  27
ENDBRANCH  17  20
ENDBRANCH  15  16
ENDBRANCH   5  15
BRANCH   4  31
ATOM     31  O   UNL     1       8.933   3.224  -6.327  1.00  0.00    -0.496 OA
ATOM     32  C   UNL     1       8.948   2.412  -5.159  1.00  0.00     0.278 C 
ENDBRANCH   4  31
TORSDOF 10
ENDMDL
MODEL 5
REMARK VINA RESULT:    -8.676      1.927      4.576
REMARK INTER + INTRA:         -14.448
REMARK INTER:                 -13.538
REMARK INTRA:                  -0.909
REMARK UNBOUND:                -0.954
REMARK SMILES CC[C@@H](Cc1ccc(OC)c(CNC(=O)c2ccc(C(F)(F)F)c(F)c2)c1)C(=O)O
REMARK SMILES IDX 5 1 6 2 7 3 8 4 11 5 27 6 4 7 3 8 2 9 1 10 28 11 29 12 30 13
REMARK SMILES IDX 12 15 13 16 14 17 15 18 16 20 17 21 26 22 18 23 24 24 19 25
REMARK SMILES IDX 25 26 20 27 21 28 22 29 23 30 9 31 10 32
REMARK H PARENT 30 14 13 19
ROOT
ATOM      1  C   UNL     1       4.412   6.376  -4.516  1.00  0.00    -0.047 A 
ATOM      2  C   UNL     1       3.058   6.512  -4.210  1.00  0.00     0.007 A 
ATOM      3  C   UNL     1       2.560   6.049  -2.986  1.00  0.00     0.047 A 
ATOM      4  C   UNL     1       3.415   5.479  -2.033  1.00  0.00     0.123 A 
ATOM      5  C   UNL     1       4.777   5.334  -2.337  1.00  0.00     0.014 A 
ATOM      6  C   UNL     1       5.247   5.740  -3.593  1.00  0.00     0.013 A 
ENDROOT
BRANCH   1   7
ATOM      7  C   UNL     1       5.020   7.003  -5.749  1.00  0.00     0.050 C 
BRANCH   7   8
ATOM      8  C   UNL     1       4.919   8.545  -5.748  1.00  0.00     0.103 C 
BRANCH   8   9
ATOM      9  C   UNL     1       5.353   9.116  -4.390  1.00  0.00     0.012 C 
ATOM     10  C   UNL     1       6.391  10.223  -4.519  1.00  0.00     0.005 C 
ENDBRANCH   8   9
BRANCH   8  11
ATOM     11  C   UNL     1       3.523   9.016  -6.110  1.00  0.00     0.306 C 
ATOM     12  O   UNL     1       2.925   8.717  -7.134  1.00  0.00    -0.252 OA
BRANCH  11  13
ATOM     13  O   UNL     1       2.959   9.801  -5.172  1.00  0.00    -0.481 OA
ATOM     14  H   UNL     1       2.920  10.709  -5.573  1.00  0.00     0.296 HD
ENDBRANCH  11  13
ENDBRANCH   8  11
ENDBRANCH   7   8
ENDBRANCH   1   7
BRANCH   5  15
ATOM     15  C   UNL     1       5.791   4.879  -1.318  1.00  0.00     0.156 C 
BRANCH  15  16
ATOM     16  N   UNL     1       6.819   4.071  -1.944  1.00  0.00    -0.348 N 
ATOM     17  C   UNL     1       8.159   4.190  -1.650  1.00  0.00     0.251 C 
ATOM     18  O   UNL     1       8.634   4.988  -0.844  1.00  0.00    -0.269 OA
ATOM     19  H   UNL     1       6.489   3.283  -2.483  1.00  0.00     0.164 HD
BRANCH  17  20
ATOM     20  C   UNL     1       9.059   3.240  -2.358  1.00  0.00     0.042 A 
ATOM     21  C   UNL     1       8.931   3.093  -3.745  1.00  0.00     0.014 A 
ATOM     22  C   UNL     1      10.003   2.477  -1.667  1.00  0.00     0.053 A 
ATOM     23  C   UNL     1       9.758   2.204  -4.441  1.00  0.00     0.017 A 
ATOM     24  C   UNL     1      10.819   1.594  -2.371  1.00  0.00     0.136 A 
ATOM     25  C   UNL     1      10.715   1.445  -3.753  1.00  0.00     0.091 A 
ATOM     26  F   UNL     1      11.719   0.873  -1.689  1.00  0.00    -0.206 F 
BRANCH  25  27
ATOM     27  C   UNL     1      11.624   0.481  -4.457  1.00  0.00     0.419 C 
ATOM     28  F   UNL     1      11.714   0.713  -5.798  1.00  0.00    -0.166 F 
ATOM     29  F   UNL     1      12.903   0.523  -3.992  1.00  0.00    -0.166 F 
ATOM     30  F   UNL     1      11.216  -0.813  -4.337  1.00  0.00    -0.166 F 
ENDBRANCH  25  27
ENDBRANCH  17  20
ENDBRANCH  15  16
ENDBRANCH   5  15
BRANCH   4  31
ATOM     31  O   UNL     1       3.033   5.064  -0.784  1.00  0.00    -0.496 OA
ATOM     32  C   UNL     1       2.563   6.060   0.116  1.00  0.00     0.278 C 
ENDBRANCH   4  31
TORSDOF 10
ENDMDL
MODEL 6
REMARK VINA RESULT:    -8.620      5.879      8.896
REMARK INTER + INTRA:         -14.360
REMARK INTER:                 -12.949
REMARK INTRA:                  -1.412
REMARK UNBOUND:                -0.954
REMARK SMILES CC[C@@H](Cc1ccc(OC)c(CNC(=O)c2ccc(C(F)(F)F)c(F)c2)c1)C(=O)O
REMARK SMILES IDX 5 1 6 2 7 3 8 4 11 5 27 6 4 7 3 8 2 9 1 10 28 11 29 12 30 13
REMARK SMILES IDX 12 15 13 16 14 17 15 18 16 20 17 21 26 22 18 23 24 24 19 25
REMARK SMILES IDX 25 26 20 27 21 28 22 29 23 30 9 31 10 32
REMARK H PARENT 30 14 13 19
ROOT
ATOM      1  C   UNL     1       9.926   2.809  -4.064  1.00  0.00    -0.047 A 
ATOM      2  C   UNL     1       8.820   3.466  -3.525  1.00  0.00     0.007 A 
ATOM      3  C   UNL     1       7.953   4.189  -4.354  1.00  0.00     0.047 A 
ATOM      4  C   UNL     1       8.156   4.232  -5.740  1.00  0.00     0.123 A 
ATOM      5  C   UNL     1       9.270   3.579  -6.288  1.00  0.00     0.014 A 
ATOM      6  C   UNL     1      10.166   2.917  -5.437  1.00  0.00     0.013 A 
ENDROOT
BRANCH   1   7
ATOM      7  C   UNL     1      10.792   1.889  -3.235  1.00  0.00     0.050 C 
BRANCH   7   8
ATOM      8  C   UNL     1      12.217   1.730  -3.810  1.00  0.00     0.103 C 
BRANCH   8   9
ATOM      9  C   UNL     1      12.359   0.388  -4.544  1.00  0.00     0.012 C 
ATOM     10  C   UNL     1      11.252  -0.597  -4.192  1.00  0.00     0.005 C 
ENDBRANCH   8   9
BRANCH   8  11
ATOM     11  C   UNL     1      13.275   1.870  -2.731  1.00  0.00     0.306 C 
ATOM     12  O   UNL     1      13.490   1.051  -1.849  1.00  0.00    -0.252 OA
BRANCH  11  13
ATOM     13  O   UNL     1      14.006   2.997  -2.837  1.00  0.00    -0.481 OA
ATOM     14  H   UNL     1      14.786   2.864  -2.237  1.00  0.00     0.296 HD
ENDBRANCH  11  13
ENDBRANCH   8  11
ENDBRANCH   7   8
ENDBRANCH   1   7
BRANCH   5  15
ATOM     15  C   UNL     1       9.479   3.442  -7.776  1.00  0.00     0.156 C 
BRANCH  15  16
ATOM     16  N   UNL     1       9.686   4.741  -8.385  1.00  0.00    -0.348 N 
ATOM     17  C   UNL     1      10.303   4.915  -9.604  1.00  0.00     0.251 C 
ATOM     18  O   UNL     1      10.751   4.008 -10.302  1.00  0.00    -0.269 OA
ATOM     19  H   UNL     1       9.193   5.510  -7.955  1.00  0.00     0.164 HD
BRANCH  17  20
ATOM     20  C   UNL     1      10.380   6.320 -10.089  1.00  0.00     0.042 A 
ATOM     21  C   UNL     1      10.182   7.363  -9.176  1.00  0.00     0.014 A 
ATOM     22  C   UNL     1      10.617   6.614 -11.435  1.00  0.00     0.053 A 
ATOM     23  C   UNL     1      10.242   8.694  -9.601  1.00  0.00     0.017 A 
ATOM     24  C   UNL     1      10.673   7.944 -11.845  1.00  0.00     0.136 A 
ATOM     25  C   UNL     1      10.492   8.996 -10.947  1.00  0.00     0.091 A 
ATOM     26  F   UNL     1      10.902   8.205 -13.139  1.00  0.00    -0.206 F 
BRANCH  25  27
ATOM     27  C   UNL     1      10.567  10.408 -11.448  1.00  0.00     0.419 C 
ATOM     28  F   UNL     1      11.745  10.690 -12.074  1.00  0.00    -0.166 F 
ATOM     29  F   UNL     1       9.592  10.701 -12.352  1.00  0.00    -0.166 F 
ATOM     30  F   UNL     1      10.454  11.329 -10.451  1.00  0.00    -0.166 F 
ENDBRANCH  25  27
ENDBRANCH  17  20
ENDBRANCH  15  16
ENDBRANCH   5  15
BRANCH   4  31
ATOM     31  O   UNL     1       7.325   4.852  -6.636  1.00  0.00    -0.496 OA
ATOM     32  C   UNL     1       6.120   5.410  -6.125  1.00  0.00     0.278 C 
ENDBRANCH   4  31
TORSDOF 10
ENDMDL
MODEL 7
REMARK VINA RESULT:    -8.610      5.804      9.130
REMARK INTER + INTRA:         -14.345
REMARK INTER:                 -13.232
REMARK INTRA:                  -1.113
REMARK UNBOUND:                -0.954
REMARK SMILES CC[C@@H](Cc1ccc(OC)c(CNC(=O)c2ccc(C(F)(F)F)c(F)c2)c1)C(=O)O
REMARK SMILES IDX 5 1 6 2 7 3 8 4 11 5 27 6 4 7 3 8 2 9 1 10 28 11 29 12 30 13
REMARK SMILES IDX 12 15 13 16 14 17 15 18 16 20 17 21 26 22 18 23 24 24 19 25
REMARK SMILES IDX 25 26 20 27 21 28 22 29 23 30 9 31 10 32
REMARK H PARENT 30 14 13 19
ROOT
ATOM      1  C   UNL     1      10.533   9.789  -9.889  1.00  0.00    -0.047 A 
ATOM      2  C   UNL     1      10.546   9.473 -11.247  1.00  0.00     0.007 A 
ATOM      3  C   UNL     1      10.483   8.136 -11.662  1.00  0.00     0.047 A 
ATOM      4  C   UNL     1      10.365   7.100 -10.727  1.00  0.00     0.123 A 
ATOM      5  C   UNL     1      10.356   7.411  -9.359  1.00  0.00     0.014 A 
ATOM      6  C   UNL     1      10.489   8.747  -8.958  1.00  0.00     0.013 A 
ENDROOT
BRANCH   1   7
ATOM      7  C   UNL     1      10.436  11.216  -9.402  1.00  0.00     0.050 C 
BRANCH   7   8
ATOM      8  C   UNL     1      10.163  11.314  -7.884  1.00  0.00     0.103 C 
BRANCH   8   9
ATOM      9  C   UNL     1       9.514  12.662  -7.535  1.00  0.00     0.012 C 
ATOM     10  C   UNL     1       9.842  13.754  -8.544  1.00  0.00     0.005 C 
ENDBRANCH   8   9
BRANCH   8  11
ATOM     11  C   UNL     1      11.427  11.097  -7.072  1.00  0.00     0.306 C 
ATOM     12  O   UNL     1      12.550  11.436  -7.417  1.00  0.00    -0.252 OA
BRANCH  11  13
ATOM     13  O   UNL     1      11.208  10.500  -5.884  1.00  0.00    -0.481 OA
ATOM     14  H   UNL     1      10.467   9.858  -6.043  1.00  0.00     0.296 HD
ENDBRANCH  11  13
ENDBRANCH   8  11
ENDBRANCH   7   8
ENDBRANCH   1   7
BRANCH   5  15
ATOM     15  C   UNL     1      10.076   6.380  -8.294  1.00  0.00     0.156 C 
BRANCH  15  16
ATOM     16  N   UNL     1       8.810   6.650  -7.641  1.00  0.00    -0.348 N 
ATOM     17  C   UNL     1       8.032   5.671  -7.064  1.00  0.00     0.251 C 
ATOM     18  O   UNL     1       8.310   4.473  -7.043  1.00  0.00    -0.269 OA
ATOM     19  H   UNL     1       8.606   7.624  -7.468  1.00  0.00     0.164 HD
BRANCH  17  20
ATOM     20  C   UNL     1       6.791   6.147  -6.397  1.00  0.00     0.042 A 
ATOM     21  C   UNL     1       5.972   5.215  -5.747  1.00  0.00     0.014 A 
ATOM     22  C   UNL     1       6.415   7.493  -6.430  1.00  0.00     0.053 A 
ATOM     23  C   UNL     1       4.795   5.629  -5.114  1.00  0.00     0.017 A 
ATOM     24  C   UNL     1       5.240   7.891  -5.797  1.00  0.00     0.136 A 
ATOM     25  C   UNL     1       4.420   6.980  -5.133  1.00  0.00     0.091 A 
ATOM     26  F   UNL     1       4.899   9.186  -5.839  1.00  0.00    -0.206 F 
BRANCH  25  27
ATOM     27  C   UNL     1       3.168   7.470  -4.467  1.00  0.00     0.419 C 
ATOM     28  F   UNL     1       2.521   6.496  -3.765  1.00  0.00    -0.166 F 
ATOM     29  F   UNL     1       3.401   8.472  -3.575  1.00  0.00    -0.166 F 
ATOM     30  F   UNL     1       2.253   7.951  -5.353  1.00  0.00    -0.166 F 
ENDBRANCH  25  27
ENDBRANCH  17  20
ENDBRANCH  15  16
ENDBRANCH   5  15
BRANCH   4  31
ATOM     31  O   UNL     1      10.225   5.773 -11.039  1.00  0.00    -0.496 OA
ATOM     32  C   UNL     1      11.394   5.079 -11.460  1.00  0.00     0.278 C 
ENDBRANCH   4  31
TORSDOF 10
ENDMDL
MODEL 8
REMARK VINA RESULT:    -8.196      8.125     11.827
REMARK INTER + INTRA:         -13.702
REMARK INTER:                 -12.548
REMARK INTRA:                  -1.153
REMARK UNBOUND:                -0.954
REMARK SMILES CC[C@@H](Cc1ccc(OC)c(CNC(=O)c2ccc(C(F)(F)F)c(F)c2)c1)C(=O)O
REMARK SMILES IDX 5 1 6 2 7 3 8 4 11 5 27 6 4 7 3 8 2 9 1 10 28 11 29 12 30 13
REMARK SMILES IDX 12 15 13 16 14 17 15 18 16 20 17 21 26 22 18 23 24 24 19 25
REMARK SMILES IDX 25 26 20 27 21 28 22 29 23 30 9 31 10 32
REMARK H PARENT 30 14 13 19
ROOT
ATOM      1  C   UNL     1      10.728   7.180 -11.535  1.00  0.00    -0.047 A 
ATOM      2  C   UNL     1      10.958   5.834 -11.250  1.00  0.00     0.007 A 
ATOM      3  C   UNL     1      10.832   5.358  -9.939  1.00  0.00     0.047 A 
ATOM      4  C   UNL     1      10.434   6.211  -8.901  1.00  0.00     0.123 A 
ATOM      5  C   UNL     1      10.206   7.567  -9.180  1.00  0.00     0.014 A 
ATOM      6  C   UNL     1      10.403   8.042 -10.484  1.00  0.00     0.013 A 
ENDROOT
BRANCH   1   7
ATOM      7  C   UNL     1      10.694   7.702 -12.953  1.00  0.00     0.050 C 
BRANCH   7   8
ATOM      8  C   UNL     1      11.446   9.042 -13.115  1.00  0.00     0.103 C 
BRANCH   8   9
ATOM      9  C   UNL     1      10.894   9.832 -14.311  1.00  0.00     0.012 C 
ATOM     10  C   UNL     1      10.575  11.280 -13.966  1.00  0.00     0.005 C 
ENDBRANCH   8   9
BRANCH   8  11
ATOM     11  C   UNL     1      12.943   8.833 -13.250  1.00  0.00     0.306 C 
ATOM     12  O   UNL     1      13.770   9.727 -13.351  1.00  0.00    -0.252 OA
BRANCH  11  13
ATOM     13  O   UNL     1      13.310   7.537 -13.226  1.00  0.00    -0.481 OA
ATOM     14  H   UNL     1      12.744   7.114 -12.528  1.00  0.00     0.296 HD
ENDBRANCH  11  13
ENDBRANCH   8  11
ENDBRANCH   7   8
ENDBRANCH   1   7
BRANCH   5  15
ATOM     15  C   UNL     1       9.627   8.518  -8.163  1.00  0.00     0.156 C 
BRANCH  15  16
ATOM     16  N   UNL     1      10.498   9.662  -7.979  1.00  0.00    -0.348 N 
ATOM     17  C   UNL     1      10.189  10.724  -7.157  1.00  0.00     0.251 C 
ATOM     18  O   UNL     1       9.154  10.828  -6.501  1.00  0.00    -0.269 OA
ATOM     19  H   UNL     1      11.433   9.564  -8.347  1.00  0.00     0.164 HD
BRANCH  17  20
ATOM     20  C   UNL     1      11.230  11.782  -7.058  1.00  0.00     0.042 A 
ATOM     21  C   UNL     1      10.907  12.991  -6.427  1.00  0.00     0.014 A 
ATOM     22  C   UNL     1      12.504  11.606  -7.602  1.00  0.00     0.053 A 
ATOM     23  C   UNL     1      11.861  14.008  -6.321  1.00  0.00     0.017 A 
ATOM     24  C   UNL     1      13.444  12.628  -7.491  1.00  0.00     0.136 A 
ATOM     25  C   UNL     1      13.145  13.831  -6.854  1.00  0.00     0.091 A 
ATOM     26  F   UNL     1      14.661  12.437  -8.019  1.00  0.00    -0.206 F 
BRANCH  25  27
ATOM     27  C   UNL     1      14.200  14.894  -6.763  1.00  0.00     0.419 C 
ATOM     28  F   UNL     1      15.418  14.407  -6.389  1.00  0.00    -0.166 F 
ATOM     29  F   UNL     1      14.410  15.535  -7.946  1.00  0.00    -0.166 F 
ATOM     30  F   UNL     1      13.899  15.861  -5.852  1.00  0.00    -0.166 F 
ENDBRANCH  25  27
ENDBRANCH  17  20
ENDBRANCH  15  16
ENDBRANCH   5  15
BRANCH   4  31
ATOM     31  O   UNL     1      10.215   5.821  -7.605  1.00  0.00    -0.496 OA
ATOM     32  C   UNL     1       9.520   4.597  -7.404  1.00  0.00     0.278 C 
ENDBRANCH   4  31
TORSDOF 10
ENDMDL
MODEL 9
REMARK VINA RESULT:    -8.074      5.744      8.257
REMARK INTER + INTRA:         -13.511
REMARK INTER:                 -12.065
REMARK INTRA:                  -1.446
REMARK UNBOUND:                -0.954
REMARK SMILES CC[C@@H](Cc1ccc(OC)c(CNC(=O)c2ccc(C(F)(F)F)c(F)c2)c1)C(=O)O
REMARK SMILES IDX 5 1 6 2 7 3 8 4 11 5 27 6 4 7 3 8 2 9 1 10 28 11 29 12 30 13
REMARK SMILES IDX 12 15 13 16 14 17 15 18 16 20 17 21 26 22 18 23 24 24 19 25
REMARK SMILES IDX 25 26 20 27 21 28 22 29 23 30 9 31 10 32
REMARK H PARENT 30 14 13 19
ROOT
ATOM      1  C   UNL     1       6.980   5.015  -6.159  1.00  0.00    -0.047 A 
ATOM      2  C   UNL     1       7.193   4.575  -4.853  1.00  0.00     0.007 A 
ATOM      3  C   UNL     1       8.340   3.836  -4.534  1.00  0.00     0.047 A 
ATOM      4  C   UNL     1       9.309   3.561  -5.507  1.00  0.00     0.123 A 
ATOM      5  C   UNL     1       9.099   3.996  -6.824  1.00  0.00     0.014 A 
ATOM      6  C   UNL     1       7.915   4.674  -7.142  1.00  0.00     0.013 A 
ENDROOT
BRANCH   1   7
ATOM      7  C   UNL     1       5.845   5.947  -6.513  1.00  0.00     0.050 C 
BRANCH   7   8
ATOM      8  C   UNL     1       5.587   7.015  -5.428  1.00  0.00     0.103 C 
BRANCH   8   9
ATOM      9  C   UNL     1       4.152   6.906  -4.889  1.00  0.00     0.012 C 
ATOM     10  C   UNL     1       4.097   6.818  -3.370  1.00  0.00     0.005 C 
ENDBRANCH   8   9
BRANCH   8  11
ATOM     11  C   UNL     1       5.865   8.416  -5.941  1.00  0.00     0.306 C 
ATOM     12  O   UNL     1       6.977   8.875  -6.158  1.00  0.00    -0.252 OA
BRANCH  11  13
ATOM     13  O   UNL     1       4.751   9.136  -6.171  1.00  0.00    -0.481 OA
ATOM     14  H   UNL     1       4.232   8.616  -6.840  1.00  0.00     0.296 HD
ENDBRANCH  11  13
ENDBRANCH   8  11
ENDBRANCH   7   8
ENDBRANCH   1   7
BRANCH   5  15
ATOM     15  C   UNL     1      10.155   3.882  -7.894  1.00  0.00     0.156 C 
BRANCH  15  16
ATOM     16  N   UNL     1      10.173   5.071  -8.724  1.00  0.00    -0.348 N 
ATOM     17  C   UNL     1      10.512   5.057 -10.059  1.00  0.00     0.251 C 
ATOM     18  O   UNL     1      10.842   4.055 -10.691  1.00  0.00    -0.269 OA
ATOM     19  H   UNL     1       9.748   5.893  -8.320  1.00  0.00     0.164 HD
BRANCH  17  20
ATOM     20  C   UNL     1      10.423   6.368 -10.758  1.00  0.00     0.042 A 
ATOM     21  C   UNL     1      10.590   6.406 -12.148  1.00  0.00     0.014 A 
ATOM     22  C   UNL     1      10.205   7.555 -10.055  1.00  0.00     0.053 A 
ATOM     23  C   UNL     1      10.517   7.622 -12.835  1.00  0.00     0.017 A 
ATOM     24  C   UNL     1      10.136   8.760 -10.751  1.00  0.00     0.136 A 
ATOM     25  C   UNL     1      10.286   8.815 -12.136  1.00  0.00     0.091 A 
ATOM     26  F   UNL     1       9.925   9.887 -10.058  1.00  0.00    -0.206 F 
BRANCH  25  27
ATOM     27  C   UNL     1      10.198  10.142 -12.830  1.00  0.00     0.419 C 
ATOM     28  F   UNL     1       8.938  10.662 -12.832  1.00  0.00    -0.166 F 
ATOM     29  F   UNL     1      10.985  11.093 -12.255  1.00  0.00    -0.166 F 
ATOM     30  F   UNL     1      10.569  10.079 -14.139  1.00  0.00    -0.166 F 
ENDBRANCH  25  27
ENDBRANCH  17  20
ENDBRANCH  15  16
ENDBRANCH   5  15
BRANCH   4  31
ATOM     31  O   UNL     1      10.492   2.909  -5.274  1.00  0.00    -0.496 OA
ATOM     32  C   UNL     1      10.860   2.698  -3.916  1.00  0.00     0.278 C 
ENDBRANCH   4  31
TORSDOF 10
ENDMDL
