MODEL 1
REMARK VINA RESULT:    -9.195      0.000      0.000
REMARK INTER + INTRA:         -10.748
REMARK INTER:                 -10.538
REMARK INTRA:                  -0.210
REMARK UNBOUND:                -0.210
REMARK SMILES CC1(C)OCCn2c1nc1c(N3CCOCC3)nc(-c3cnc(N)nc3)nc12
REMARK SMILES IDX 20 1 21 2 22 3 23 4 25 5 26 6 19 7 2 8 8 9 4 10 7 11 9 12
REMARK SMILES IDX 5 13 6 14 28 15 10 16 27 17 11 18 18 19 1 20 3 21 12 22
REMARK SMILES IDX 17 23 13 24 16 25 14 26 15 27 24 28
REMARK H PARENT 24 29 24 30
ROOT
ATOM      1  C   UNL     1      53.277   0.473 -45.324  1.00  0.00     0.056 A 
ATOM      2  C   UNL     1      54.492   0.691 -45.999  1.00  0.00     0.128 A 
ATOM      3  N   UNL     1      55.603   1.197 -45.402  1.00  0.00    -0.221 NA
ATOM      4  C   UNL     1      55.494   1.496 -44.085  1.00  0.00     0.219 A 
ATOM      5  N   UNL     1      54.382   1.332 -43.329  1.00  0.00    -0.221 NA
ATOM      6  C   UNL     1      53.292   0.823 -43.961  1.00  0.00     0.128 A 
ENDROOT
BRANCH   1   7
ATOM      7  C   UNL     1      52.064  -0.092 -46.001  1.00  0.00     0.167 A 
ATOM      8  C   UNL     1      46.768  -2.694 -46.293  1.00  0.00     0.120 C 
ATOM      9  C   UNL     1      48.117  -1.987 -46.469  1.00  0.00     0.143 A 
ATOM     10  O   UNL     1      46.409  -2.716 -44.901  1.00  0.00    -0.366 OA
ATOM     11  N   UNL     1      48.920  -1.725 -45.374  1.00  0.00    -0.308 N 
ATOM     12  N   UNL     1      48.666  -1.632 -47.607  1.00  0.00    -0.224 NA
ATOM     13  C   UNL     1      47.444  -3.043 -43.970  1.00  0.00     0.183 C 
ATOM     14  C   UNL     1      48.542  -1.960 -43.984  1.00  0.00     0.154 C 
ATOM     15  C   UNL     1      50.051  -1.113 -45.870  1.00  0.00     0.166 A 
ATOM     16  C   UNL     1      49.875  -1.072 -47.276  1.00  0.00     0.151 A 
ATOM     17  N   UNL     1      51.106  -0.643 -45.200  1.00  0.00    -0.208 NA
ATOM     18  C   UNL     1      50.931  -0.496 -48.031  1.00  0.00     0.161 A 
ATOM     19  N   UNL     1      52.014  -0.004 -47.360  1.00  0.00    -0.208 NA
ATOM     20  C   UNL     1      46.845  -4.145 -46.814  1.00  0.00     0.051 C 
ATOM     21  C   UNL     1      45.651  -1.870 -46.961  1.00  0.00     0.051 C 
BRANCH  18  22
ATOM     22  N   UNL     1      50.915  -0.341 -49.428  1.00  0.00    -0.350 N 
ATOM     23  C   UNL     1      52.015   0.306 -50.171  1.00  0.00     0.146 C 
ATOM     24  C   UNL     1      49.633  -0.312 -50.170  1.00  0.00     0.146 C 
ATOM     25  C   UNL     1      51.982   0.149 -51.706  1.00  0.00     0.181 C 
ATOM     26  C   UNL     1      49.736  -0.463 -51.700  1.00  0.00     0.181 C 
ATOM     27  O   UNL     1      50.694   0.445 -52.211  1.00  0.00    -0.378 OA
ENDBRANCH  18  22
ENDBRANCH   1   7
BRANCH   4  28
ATOM     28  N   UNL     1      56.621   2.013 -43.454  1.00  0.00    -0.368 N 
ATOM     29  H   UNL     1      56.634   2.088 -42.447  1.00  0.00     0.159 HD
ATOM     30  H   UNL     1      57.411   2.305 -44.011  1.00  0.00     0.159 HD
ENDBRANCH   4  28
TORSDOF 3
ENDMDL
