MODEL 5
REMARK VINA RESULT:    -7.735      1.570      2.034
REMARK INTER + INTRA:         -10.208
REMARK INTER:                 -11.085
REMARK INTRA:                   0.878
REMARK UNBOUND:                 0.693
REMARK SMILES CO[C@H]1C[C@H](N2CC(S(=O)(=O)C[C@H]3C[C@@H](N(C)c4ncnc5[nH]ccc45)C3)C2)C1
REMARK SMILES IDX 9 1 10 2 11 3 8 4 6 5 7 6 28 7 5 8 3 9 29 10 4 11 2 12 1 13
REMARK SMILES IDX 12 14 13 15 14 16 27 17 15 18 16 19 17 20 18 21 19 22 26 23
REMARK SMILES IDX 20 24 25 25 22 26 21 27 24 28 23 29
REMARK H PARENT 23 30
ROOT
ATOM      1  S   UNL     1       7.543 -19.479  20.440  1.00  0.00     0.155 S 
ATOM      2  O   UNL     1       8.432 -18.338  20.561  1.00  0.00    -0.228 OA
ATOM      3  O   UNL     1       7.404 -20.135  19.150  1.00  0.00    -0.228 OA
ENDROOT
BRANCH   1   4
ATOM      4  C   UNL     1       5.939 -19.027  21.042  1.00  0.00     0.136 C 
ATOM      5  N   UNL     1       4.227 -17.937  20.573  1.00  0.00    -0.298 NA
ATOM      6  C   UNL     1       5.603 -17.525  20.929  1.00  0.00     0.106 C 
ATOM      7  C   UNL     1       4.768 -19.215  20.059  1.00  0.00     0.106 C 
BRANCH   5   8
ATOM      8  C   UNL     1       3.457 -17.197  19.570  1.00  0.00     0.061 C 
ATOM      9  C   UNL     1       1.340 -17.023  20.034  1.00  0.00     0.121 C 
ATOM     10  C   UNL     1       2.196 -17.997  19.193  1.00  0.00     0.051 C 
ATOM     11  C   UNL     1       2.557 -16.070  20.096  1.00  0.00     0.051 C 
BRANCH   9  12
ATOM     12  O   UNL     1       0.159 -16.512  19.376  1.00  0.00    -0.381 OA
ATOM     13  C   UNL     1      -0.993 -16.386  20.196  1.00  0.00     0.195 C 
ENDBRANCH   9  12
ENDBRANCH   5   8
ENDBRANCH   1   4
BRANCH   1  14
ATOM     14  C   UNL     1       8.110 -20.731  21.572  1.00  0.00     0.141 C 
BRANCH  14  15
ATOM     15  C   UNL     1       7.775 -22.143  21.128  1.00  0.00     0.008 C 
ATOM     16  C   UNL     1       8.498 -23.338  21.802  1.00  0.00     0.029 C 
ATOM     17  C   UNL     1       6.472 -22.697  21.764  1.00  0.00     0.029 C 
ATOM     18  C   UNL     1       7.145 -24.093  21.777  1.00  0.00     0.084 C 
BRANCH  18  19
ATOM     19  N   UNL     1       6.903 -24.837  22.996  1.00  0.00    -0.356 N 
ATOM     20  C   UNL     1       8.119 -25.122  23.776  1.00  0.00     0.145 C 
BRANCH  19  21
ATOM     21  C   UNL     1       6.129 -26.032  22.926  1.00  0.00     0.141 A 
ATOM     22  N   UNL     1       6.644 -27.188  23.424  1.00  0.00    -0.219 NA
ATOM     23  C   UNL     1       4.856 -26.096  22.321  1.00  0.00     0.061 A 
ATOM     24  C   UNL     1       5.913 -28.317  23.351  1.00  0.00     0.226 A 
ATOM     25  C   UNL     1       3.987 -25.198  21.636  1.00  0.00     0.033 A 
ATOM     26  C   UNL     1       4.223 -27.330  22.322  1.00  0.00     0.142 A 
ATOM     27  N   UNL     1       4.689 -28.479  22.827  1.00  0.00    -0.218 NA
ATOM     28  C   UNL     1       2.857 -25.899  21.273  1.00  0.00     0.085 A 
ATOM     29  N   UNL     1       3.013 -27.192  21.700  1.00  0.00    -0.346 N 
ATOM     30  H   UNL     1       2.358 -27.951  21.572  1.00  0.00     0.167 HD
ENDBRANCH  19  21
ENDBRANCH  18  19
ENDBRANCH  14  15
ENDBRANCH   1  14
TORSDOF 7
ENDMDL
