MODEL 7
REMARK VINA RESULT:    -7.584      2.891     10.116
REMARK INTER + INTRA:          -9.993
REMARK INTER:                 -10.481
REMARK INTRA:                   0.487
REMARK UNBOUND:                 0.693
REMARK SMILES CO[C@H]1C[C@H](N2CC(S(=O)(=O)C[C@H]3C[C@@H](N(C)c4ncnc5[nH]ccc45)C3)C2)C1
REMARK SMILES IDX 9 1 10 2 11 3 8 4 6 5 7 6 28 7 5 8 3 9 29 10 4 11 2 12 1 13
REMARK SMILES IDX 12 14 13 15 14 16 27 17 15 18 16 19 17 20 18 21 19 22 26 23
REMARK SMILES IDX 20 24 25 25 22 26 21 27 24 28 23 29
REMARK H PARENT 23 30
ROOT
ATOM      1  S   UNL     1       7.602 -21.051  21.162  1.00  0.00     0.155 S 
ATOM      2  O   UNL     1       9.015 -20.994  20.837  1.00  0.00    -0.228 OA
ATOM      3  O   UNL     1       7.171 -20.731  22.513  1.00  0.00    -0.228 OA
ENDROOT
BRANCH   1   4
ATOM      4  C   UNL     1       6.969 -22.642  20.707  1.00  0.00     0.136 C 
ATOM      5  N   UNL     1       5.994 -24.325  21.453  1.00  0.00    -0.298 NA
ATOM      6  C   UNL     1       7.358 -23.792  21.661  1.00  0.00     0.106 C 
ATOM      7  C   UNL     1       5.528 -22.952  21.156  1.00  0.00     0.106 C 
BRANCH   5   8
ATOM      8  C   UNL     1       5.257 -24.953  22.554  1.00  0.00     0.061 C 
ATOM      9  C   UNL     1       4.964 -27.093  22.313  1.00  0.00     0.121 C 
ATOM     10  C   UNL     1       4.130 -25.835  21.984  1.00  0.00     0.051 C 
ATOM     11  C   UNL     1       5.893 -26.205  23.173  1.00  0.00     0.051 C 
BRANCH   9  12
ATOM     12  O   UNL     1       4.254 -28.142  23.010  1.00  0.00    -0.381 OA
ATOM     13  C   UNL     1       4.424 -29.450  22.484  1.00  0.00     0.195 C 
ENDBRANCH   9  12
ENDBRANCH   5   8
ENDBRANCH   1   4
BRANCH   1  14
ATOM     14  C   UNL     1       6.753 -19.909  20.090  1.00  0.00     0.141 C 
BRANCH  14  15
ATOM     15  C   UNL     1       5.271 -19.786  20.393  1.00  0.00     0.008 C 
ATOM     16  C   UNL     1       4.777 -18.610  21.277  1.00  0.00     0.029 C 
ATOM     17  C   UNL     1       4.458 -19.136  19.242  1.00  0.00     0.029 C 
ATOM     18  C   UNL     1       3.559 -18.487  20.325  1.00  0.00     0.084 C 
BRANCH  18  19
ATOM     19  N   UNL     1       3.217 -17.109  20.039  1.00  0.00    -0.356 N 
ATOM     20  C   UNL     1       2.508 -16.428  21.135  1.00  0.00     0.145 C 
BRANCH  19  21
ATOM     21  C   UNL     1       2.542 -16.811  18.819  1.00  0.00     0.141 A 
ATOM     22  N   UNL     1       1.335 -17.386  18.570  1.00  0.00    -0.219 NA
ATOM     23  C   UNL     1       3.081 -15.974  17.820  1.00  0.00     0.061 A 
ATOM     24  C   UNL     1       0.702 -17.107  17.414  1.00  0.00     0.226 A 
ATOM     25  C   UNL     1       4.289 -15.244  17.619  1.00  0.00     0.033 A 
ATOM     26  C   UNL     1       2.313 -15.781  16.682  1.00  0.00     0.142 A 
ATOM     27  N   UNL     1       1.111 -16.308  16.418  1.00  0.00    -0.218 NA
ATOM     28  C   UNL     1       4.204 -14.615  16.395  1.00  0.00     0.085 A 
ATOM     29  N   UNL     1       2.995 -14.947  15.839  1.00  0.00    -0.346 N 
ATOM     30  H   UNL     1       2.645 -14.651  14.938  1.00  0.00     0.167 HD
ENDBRANCH  19  21
ENDBRANCH  18  19
ENDBRANCH  14  15
ENDBRANCH   1  14
TORSDOF 7
ENDMDL
