MODEL 1
REMARK VINA RESULT:    -9.193      0.000      0.000
REMARK INTER + INTRA:         -12.165
REMARK INTER:                 -11.880
REMARK INTRA:                  -0.286
REMARK UNBOUND:                -0.286
REMARK SMILES CS(=O)(=O)N1CCN(Cc2cc3nc(-c4cccc5[nH]ncc45)nc(N4CCOCC4)c3s2)CC1
REMARK SMILES IDX 9 1 8 2 5 3 6 4 35 5 7 6 34 7 2 8 3 9 4 10 1 11 10 12 11 13
REMARK SMILES IDX 33 14 12 15 32 16 13 17 25 18 14 19 24 20 26 21 27 22 31 23
REMARK SMILES IDX 28 24 30 25 29 26 15 27 16 28 23 29 17 30 22 31 19 32 18 33
REMARK SMILES IDX 21 34 20 35
REMARK H PARENT 20 36
ROOT
ATOM      1  C   UNL     1      36.148  48.532  39.753  1.00  0.00     0.131 C 
ENDROOT
BRANCH   1   2
ATOM      2  N   UNL     1      37.344  47.678  39.644  1.00  0.00    -0.296 NA
ATOM      3  N   UNL     1      39.263  48.632  41.689  1.00  0.00    -0.200 NA
ATOM      4  C   UNL     1      38.127  47.761  42.073  1.00  0.00     0.117 C 
ATOM      5  C   UNL     1      39.079  49.381  40.423  1.00  0.00     0.117 C 
ATOM      6  C   UNL     1      37.624  46.921  40.884  1.00  0.00     0.101 C 
ATOM      7  C   UNL     1      38.537  48.480  39.296  1.00  0.00     0.101 C 
BRANCH   3   8
ATOM      8  S   UNL     1      40.809  48.284  42.239  1.00  0.00     0.211 S 
ATOM      9  O   UNL     1      41.662  48.089  41.086  1.00  0.00    -0.213 OA
ATOM     10  O   UNL     1      40.700  47.271  43.267  1.00  0.00    -0.213 OA
ATOM     11  C   UNL     1      41.308  49.801  43.028  1.00  0.00     0.176 C 
ENDBRANCH   3   8
ENDBRANCH   1   2
BRANCH   1  12
ATOM     12  C   UNL     1      34.950  47.758  40.232  1.00  0.00     0.022 A 
ATOM     13  C   UNL     1      34.469  47.638  41.515  1.00  0.00     0.046 A 
ATOM     14  S   UNL     1      33.989  46.875  39.135  1.00  0.00    -0.133 S 
ATOM     15  C   UNL     1      33.298  46.828  41.594  1.00  0.00     0.088 A 
ATOM     16  C   UNL     1      32.907  46.309  40.361  1.00  0.00     0.096 A 
ATOM     17  N   UNL     1      32.635  46.591  42.746  1.00  0.00    -0.227 NA
ATOM     18  C   UNL     1      31.758  45.492  40.298  1.00  0.00     0.150 A 
ATOM     19  C   UNL     1      31.549  45.830  42.631  1.00  0.00     0.162 A 
ATOM     20  N   UNL     1      31.104  45.301  41.477  1.00  0.00    -0.209 NA
BRANCH  18  21
ATOM     21  N   UNL     1      31.221  44.856  39.186  1.00  0.00    -0.351 N 
ATOM     22  C   UNL     1      30.276  43.758  39.453  1.00  0.00     0.146 C 
ATOM     23  C   UNL     1      31.102  45.483  37.868  1.00  0.00     0.146 C 
ATOM     24  C   UNL     1      30.190  42.798  38.258  1.00  0.00     0.181 C 
ATOM     25  C   UNL     1      30.967  44.424  36.763  1.00  0.00     0.181 C 
ATOM     26  O   UNL     1      29.908  43.497  37.038  1.00  0.00    -0.378 OA
ENDBRANCH  18  21
BRANCH  19  27
ATOM     27  C   UNL     1      30.768  45.528  43.845  1.00  0.00     0.030 A 
ATOM     28  C   UNL     1      29.824  44.470  43.881  1.00  0.00     0.013 A 
ATOM     29  C   UNL     1      30.916  46.277  45.043  1.00  0.00     0.031 A 
ATOM     30  C   UNL     1      29.076  44.165  45.019  1.00  0.00     0.003 A 
ATOM     31  C   UNL     1      31.693  47.381  45.485  1.00  0.00     0.144 A 
ATOM     32  C   UNL     1      30.156  45.947  46.165  1.00  0.00     0.066 A 
ATOM     33  C   UNL     1      29.231  44.901  46.191  1.00  0.00     0.028 A 
ATOM     34  N   UNL     1      31.456  47.721  46.756  1.00  0.00    -0.183 NA
ATOM     35  N   UNL     1      30.526  46.835  47.141  1.00  0.00    -0.278 N 
ATOM     36  H   UNL     1      30.179  46.888  48.091  1.00  0.00     0.190 HD
ENDBRANCH  19  27
ENDBRANCH   1  12
TORSDOF 5
ENDMDL
MODEL 2
REMARK VINA RESULT:    -9.068      3.064      3.376
REMARK INTER + INTRA:         -12.005
REMARK INTER:                 -11.577
REMARK INTRA:                  -0.427
REMARK UNBOUND:                -0.286
REMARK SMILES CS(=O)(=O)N1CCN(Cc2cc3nc(-c4cccc5[nH]ncc45)nc(N4CCOCC4)c3s2)CC1
REMARK SMILES IDX 9 1 8 2 5 3 6 4 35 5 7 6 34 7 2 8 3 9 4 10 1 11 10 12 11 13
REMARK SMILES IDX 33 14 12 15 32 16 13 17 25 18 14 19 24 20 26 21 27 22 31 23
REMARK SMILES IDX 28 24 30 25 29 26 15 27 16 28 23 29 17 30 22 31 19 32 18 33
REMARK SMILES IDX 21 34 20 35
REMARK H PARENT 20 36
ROOT
ATOM      1  C   UNL     1      37.274  49.250  41.790  1.00  0.00     0.131 C 
ENDROOT
BRANCH   1   2
ATOM      2  N   UNL     1      37.273  50.423  42.683  1.00  0.00    -0.296 NA
ATOM      3  N   UNL     1      37.633  52.806  40.961  1.00  0.00    -0.200 NA
ATOM      4  C   UNL     1      36.305  52.157  41.076  1.00  0.00     0.117 C 
ATOM      5  C   UNL     1      38.786  51.939  41.295  1.00  0.00     0.117 C 
ATOM      6  C   UNL     1      36.169  51.366  42.391  1.00  0.00     0.101 C 
ATOM      7  C   UNL     1      38.557  51.154  42.601  1.00  0.00     0.101 C 
BRANCH   3   8
ATOM      8  S   UNL     1      37.765  54.472  41.110  1.00  0.00     0.211 S 
ATOM      9  O   UNL     1      36.675  55.076  40.373  1.00  0.00    -0.213 OA
ATOM     10  O   UNL     1      39.139  54.838  40.844  1.00  0.00    -0.213 OA
ATOM     11  C   UNL     1      37.460  54.747  42.843  1.00  0.00     0.176 C 
ENDBRANCH   3   8
ENDBRANCH   1   2
BRANCH   1  12
ATOM     12  C   UNL     1      35.976  48.493  41.860  1.00  0.00     0.022 A 
ATOM     13  C   UNL     1      35.269  48.113  42.978  1.00  0.00     0.046 A 
ATOM     14  S   UNL     1      35.188  47.984  40.437  1.00  0.00    -0.133 S 
ATOM     15  C   UNL     1      34.068  47.413  42.661  1.00  0.00     0.088 A 
ATOM     16  C   UNL     1      33.881  47.239  41.290  1.00  0.00     0.096 A 
ATOM     17  N   UNL     1      33.200  46.968  43.594  1.00  0.00    -0.227 NA
ATOM     18  C   UNL     1      32.725  46.564  40.840  1.00  0.00     0.150 A 
ATOM     19  C   UNL     1      32.119  46.354  43.119  1.00  0.00     0.162 A 
ATOM     20  N   UNL     1      31.864  46.156  41.812  1.00  0.00    -0.209 NA
BRANCH  18  21
ATOM     21  N   UNL     1      32.367  46.262  39.533  1.00  0.00    -0.351 N 
ATOM     22  C   UNL     1      31.291  45.270  39.362  1.00  0.00     0.146 C 
ATOM     23  C   UNL     1      32.574  47.167  38.401  1.00  0.00     0.146 C 
ATOM     24  C   UNL     1      31.360  44.611  37.978  1.00  0.00     0.181 C 
ATOM     25  C   UNL     1      32.567  46.399  37.071  1.00  0.00     0.181 C 
ATOM     26  O   UNL     1      31.395  45.588  36.928  1.00  0.00    -0.378 OA
ENDBRANCH  18  21
BRANCH  19  27
ATOM     27  C   UNL     1      31.121  45.841  44.075  1.00  0.00     0.030 A 
ATOM     28  C   UNL     1      30.240  44.781  43.738  1.00  0.00     0.013 A 
ATOM     29  C   UNL     1      30.986  46.377  45.383  1.00  0.00     0.031 A 
ATOM     30  C   UNL     1      29.290  44.278  44.629  1.00  0.00     0.003 A 
ATOM     31  C   UNL     1      31.602  47.399  46.153  1.00  0.00     0.144 A 
ATOM     32  C   UNL     1      30.028  45.852  46.252  1.00  0.00     0.066 A 
ATOM     33  C   UNL     1      29.167  44.806  45.912  1.00  0.00     0.028 A 
ATOM     34  N   UNL     1      31.095  47.515  47.384  1.00  0.00    -0.183 NA
ATOM     35  N   UNL     1      30.148  46.566  47.415  1.00  0.00    -0.278 N 
ATOM     36  H   UNL     1      29.612  46.453  48.267  1.00  0.00     0.190 HD
ENDBRANCH  19  27
ENDBRANCH   1  12
TORSDOF 5
ENDMDL
MODEL 3
REMARK VINA RESULT:    -9.044      1.553      2.051
REMARK INTER + INTRA:         -11.973
REMARK INTER:                 -11.580
REMARK INTRA:                  -0.392
REMARK UNBOUND:                -0.286
REMARK SMILES CS(=O)(=O)N1CCN(Cc2cc3nc(-c4cccc5[nH]ncc45)nc(N4CCOCC4)c3s2)CC1
REMARK SMILES IDX 9 1 8 2 5 3 6 4 35 5 7 6 34 7 2 8 3 9 4 10 1 11 10 12 11 13
REMARK SMILES IDX 33 14 12 15 32 16 13 17 25 18 14 19 24 20 26 21 27 22 31 23
REMARK SMILES IDX 28 24 30 25 29 26 15 27 16 28 23 29 17 30 22 31 19 32 18 33
REMARK SMILES IDX 21 34 20 35
REMARK H PARENT 20 36
ROOT
ATOM      1  C   UNL     1      37.022  49.147  41.181  1.00  0.00     0.131 C 
ENDROOT
BRANCH   1   2
ATOM      2  N   UNL     1      38.209  48.367  41.577  1.00  0.00    -0.296 NA
ATOM      3  N   UNL     1      39.932  48.158  39.177  1.00  0.00    -0.200 NA
ATOM      4  C   UNL     1      39.922  49.398  39.989  1.00  0.00     0.117 C 
ATOM      5  C   UNL     1      38.723  47.312  39.311  1.00  0.00     0.117 C 
ATOM      6  C   UNL     1      39.470  49.129  41.437  1.00  0.00     0.101 C 
ATOM      7  C   UNL     1      38.314  47.123  40.784  1.00  0.00     0.101 C 
BRANCH   3   8
ATOM      8  S   UNL     1      41.392  47.469  38.719  1.00  0.00     0.211 S 
ATOM      9  O   UNL     1      41.112  46.179  38.124  1.00  0.00    -0.213 OA
ATOM     10  O   UNL     1      42.314  47.596  39.826  1.00  0.00    -0.213 OA
ATOM     11  C   UNL     1      41.957  48.549  37.420  1.00  0.00     0.176 C 
ENDBRANCH   3   8
ENDBRANCH   1   2
BRANCH   1  12
ATOM     12  C   UNL     1      35.750  48.370  41.380  1.00  0.00     0.022 A 
ATOM     13  C   UNL     1      35.106  48.076  42.560  1.00  0.00     0.046 A 
ATOM     14  S   UNL     1      34.910  47.717  40.048  1.00  0.00    -0.133 S 
ATOM     15  C   UNL     1      33.910  47.324  42.366  1.00  0.00     0.088 A 
ATOM     16  C   UNL     1      33.664  47.023  41.026  1.00  0.00     0.096 A 
ATOM     17  N   UNL     1      33.098  46.945  43.376  1.00  0.00    -0.227 NA
ATOM     18  C   UNL     1      32.507  46.285  40.695  1.00  0.00     0.150 A 
ATOM     19  C   UNL     1      32.013  46.267  43.010  1.00  0.00     0.162 A 
ATOM     20  N   UNL     1      31.703  45.946  41.740  1.00  0.00    -0.209 NA
BRANCH  18  21
ATOM     21  N   UNL     1      32.097  45.858  39.439  1.00  0.00    -0.351 N 
ATOM     22  C   UNL     1      31.014  44.860  39.409  1.00  0.00     0.146 C 
ATOM     23  C   UNL     1      32.260  46.648  38.217  1.00  0.00     0.146 C 
ATOM     24  C   UNL     1      31.027  44.068  38.093  1.00  0.00     0.181 C 
ATOM     25  C   UNL     1      32.199  45.754  36.969  1.00  0.00     0.181 C 
ATOM     26  O   UNL     1      31.021  44.938  36.953  1.00  0.00    -0.378 OA
ENDBRANCH  18  21
BRANCH  19  27
ATOM     27  C   UNL     1      31.075  45.820  44.056  1.00  0.00     0.030 A 
ATOM     28  C   UNL     1      30.162  44.757  43.834  1.00  0.00     0.013 A 
ATOM     29  C   UNL     1      31.032  46.426  45.339  1.00  0.00     0.031 A 
ATOM     30  C   UNL     1      29.267  44.315  44.811  1.00  0.00     0.003 A 
ATOM     31  C   UNL     1      31.710  47.478  46.012  1.00  0.00     0.144 A 
ATOM     32  C   UNL     1      30.128  45.962  46.296  1.00  0.00     0.066 A 
ATOM     33  C   UNL     1      29.234  44.912  46.069  1.00  0.00     0.028 A 
ATOM     34  N   UNL     1      31.286  47.667  47.265  1.00  0.00    -0.183 NA
ATOM     35  N   UNL     1      30.333  46.735  47.409  1.00  0.00    -0.278 N 
ATOM     36  H   UNL     1      29.852  46.674  48.298  1.00  0.00     0.190 HD
ENDBRANCH  19  27
ENDBRANCH   1  12
TORSDOF 5
ENDMDL
MODEL 4
REMARK VINA RESULT:    -8.804      3.942      6.413
REMARK INTER + INTRA:         -11.662
REMARK INTER:                 -11.131
REMARK INTRA:                  -0.531
REMARK UNBOUND:                -0.286
REMARK SMILES CS(=O)(=O)N1CCN(Cc2cc3nc(-c4cccc5[nH]ncc45)nc(N4CCOCC4)c3s2)CC1
REMARK SMILES IDX 9 1 8 2 5 3 6 4 35 5 7 6 34 7 2 8 3 9 4 10 1 11 10 12 11 13
REMARK SMILES IDX 33 14 12 15 32 16 13 17 25 18 14 19 24 20 26 21 27 22 31 23
REMARK SMILES IDX 28 24 30 25 29 26 15 27 16 28 23 29 17 30 22 31 19 32 18 33
REMARK SMILES IDX 21 34 20 35
REMARK H PARENT 20 36
ROOT
ATOM      1  C   UNL     1      36.460  49.591  43.120  1.00  0.00     0.131 C 
ENDROOT
BRANCH   1   2
ATOM      2  N   UNL     1      36.035  50.909  43.623  1.00  0.00    -0.296 NA
ATOM      3  N   UNL     1      37.127  52.929  41.751  1.00  0.00    -0.200 NA
ATOM      4  C   UNL     1      35.902  52.168  41.406  1.00  0.00     0.117 C 
ATOM      5  C   UNL     1      38.004  52.281  42.754  1.00  0.00     0.117 C 
ATOM      6  C   UNL     1      35.182  51.643  42.662  1.00  0.00     0.101 C 
ATOM      7  C   UNL     1      37.205  51.750  43.960  1.00  0.00     0.101 C 
BRANCH   3   8
ATOM      8  S   UNL     1      37.159  54.595  41.559  1.00  0.00     0.211 S 
ATOM      9  O   UNL     1      36.327  54.932  40.424  1.00  0.00    -0.213 OA
ATOM     10  O   UNL     1      38.538  55.027  41.628  1.00  0.00    -0.213 OA
ATOM     11  C   UNL     1      36.335  55.186  43.024  1.00  0.00     0.176 C 
ENDBRANCH   3   8
ENDBRANCH   1   2
BRANCH   1  12
ATOM     12  C   UNL     1      35.292  48.662  42.926  1.00  0.00     0.022 A 
ATOM     13  C   UNL     1      34.903  48.010  41.779  1.00  0.00     0.046 A 
ATOM     14  S   UNL     1      34.243  48.300  44.220  1.00  0.00    -0.133 S 
ATOM     15  C   UNL     1      33.746  47.198  41.970  1.00  0.00     0.088 A 
ATOM     16  C   UNL     1      33.241  47.261  43.268  1.00  0.00     0.096 A 
ATOM     17  N   UNL     1      33.198  46.443  40.993  1.00  0.00    -0.227 NA
ATOM     18  C   UNL     1      32.098  46.499  43.593  1.00  0.00     0.150 A 
ATOM     19  C   UNL     1      32.134  45.731  41.354  1.00  0.00     0.162 A 
ATOM     20  N   UNL     1      31.594  45.732  42.587  1.00  0.00    -0.209 NA
BRANCH  18  21
ATOM     21  N   UNL     1      31.424  46.444  44.806  1.00  0.00    -0.351 N 
ATOM     22  C   UNL     1      31.027  47.736  45.392  1.00  0.00     0.146 C 
ATOM     23  C   UNL     1      30.655  45.283  45.258  1.00  0.00     0.146 C 
ATOM     24  C   UNL     1      30.821  47.615  46.909  1.00  0.00     0.181 C 
ATOM     25  C   UNL     1      30.468  45.305  46.783  1.00  0.00     0.181 C 
ATOM     26  O   UNL     1      29.920  46.548  47.237  1.00  0.00    -0.378 OA
ENDBRANCH  18  21
BRANCH  19  27
ATOM     27  C   UNL     1      31.480  44.879  40.344  1.00  0.00     0.030 A 
ATOM     28  C   UNL     1      30.597  43.831  40.710  1.00  0.00     0.013 A 
ATOM     29  C   UNL     1      31.696  45.059  38.952  1.00  0.00     0.031 A 
ATOM     30  C   UNL     1      29.965  43.015  39.770  1.00  0.00     0.003 A 
ATOM     31  C   UNL     1      32.458  45.927  38.125  1.00  0.00     0.144 A 
ATOM     32  C   UNL     1      31.049  44.228  38.036  1.00  0.00     0.066 A 
ATOM     33  C   UNL     1      30.179  43.200  38.407  1.00  0.00     0.028 A 
ATOM     34  N   UNL     1      32.313  45.680  36.820  1.00  0.00    -0.183 NA
ATOM     35  N   UNL     1      31.455  44.651  36.797  1.00  0.00    -0.278 N 
ATOM     36  H   UNL     1      31.180  44.276  35.897  1.00  0.00     0.190 HD
ENDBRANCH  19  27
ENDBRANCH   1  12
TORSDOF 5
ENDMDL
MODEL 5
REMARK VINA RESULT:    -8.666      2.597      5.497
REMARK INTER + INTRA:         -11.484
REMARK INTER:                 -10.900
REMARK INTRA:                  -0.584
REMARK UNBOUND:                -0.286
REMARK SMILES CS(=O)(=O)N1CCN(Cc2cc3nc(-c4cccc5[nH]ncc45)nc(N4CCOCC4)c3s2)CC1
REMARK SMILES IDX 9 1 8 2 5 3 6 4 35 5 7 6 34 7 2 8 3 9 4 10 1 11 10 12 11 13
REMARK SMILES IDX 33 14 12 15 32 16 13 17 25 18 14 19 24 20 26 21 27 22 31 23
REMARK SMILES IDX 28 24 30 25 29 26 15 27 16 28 23 29 17 30 22 31 19 32 18 33
REMARK SMILES IDX 21 34 20 35
REMARK H PARENT 20 36
ROOT
ATOM      1  C   UNL     1      36.811  49.174  43.278  1.00  0.00     0.131 C 
ENDROOT
BRANCH   1   2
ATOM      2  N   UNL     1      37.762  49.384  42.172  1.00  0.00    -0.296 NA
ATOM      3  N   UNL     1      40.243  50.469  43.373  1.00  0.00    -0.200 NA
ATOM      4  C   UNL     1      39.949  49.017  43.438  1.00  0.00     0.117 C 
ATOM      5  C   UNL     1      39.060  51.339  43.175  1.00  0.00     0.117 C 
ATOM      6  C   UNL     1      38.994  48.577  42.312  1.00  0.00     0.101 C 
ATOM      7  C   UNL     1      38.137  50.811  42.060  1.00  0.00     0.101 C 
BRANCH   3   8
ATOM      8  S   UNL     1      41.762  50.994  42.892  1.00  0.00     0.211 S 
ATOM      9  O   UNL     1      42.031  50.446  41.579  1.00  0.00    -0.213 OA
ATOM     10  O   UNL     1      42.678  50.781  43.992  1.00  0.00    -0.213 OA
ATOM     11  C   UNL     1      41.540  52.751  42.707  1.00  0.00     0.176 C 
ENDBRANCH   3   8
ENDBRANCH   1   2
BRANCH   1  12
ATOM     12  C   UNL     1      35.604  48.391  42.838  1.00  0.00     0.022 A 
ATOM     13  C   UNL     1      35.318  47.898  41.585  1.00  0.00     0.046 A 
ATOM     14  S   UNL     1      34.364  48.007  43.942  1.00  0.00    -0.133 S 
ATOM     15  C   UNL     1      34.081  47.191  41.539  1.00  0.00     0.088 A 
ATOM     16  C   UNL     1      33.413  47.174  42.763  1.00  0.00     0.096 A 
ATOM     17  N   UNL     1      33.607  46.596  40.423  1.00  0.00    -0.227 NA
ATOM     18  C   UNL     1      32.176  46.500  42.855  1.00  0.00     0.150 A 
ATOM     19  C   UNL     1      32.446  45.961  40.566  1.00  0.00     0.162 A 
ATOM     20  N   UNL     1      31.748  45.892  41.715  1.00  0.00    -0.209 NA
BRANCH  18  21
ATOM     21  N   UNL     1      31.343  46.391  43.961  1.00  0.00    -0.351 N 
ATOM     22  C   UNL     1      30.866  47.656  44.547  1.00  0.00     0.146 C 
ATOM     23  C   UNL     1      30.523  45.214  44.250  1.00  0.00     0.146 C 
ATOM     24  C   UNL     1      30.455  47.466  46.014  1.00  0.00     0.181 C 
ATOM     25  C   UNL     1      30.130  45.165  45.735  1.00  0.00     0.181 C 
ATOM     26  O   UNL     1      29.522  46.388  46.167  1.00  0.00    -0.378 OA
ENDBRANCH  18  21
BRANCH  19  27
ATOM     27  C   UNL     1      31.863  45.284  39.393  1.00  0.00     0.030 A 
ATOM     28  C   UNL     1      32.154  45.700  38.069  1.00  0.00     0.013 A 
ATOM     29  C   UNL     1      30.980  44.178  39.523  1.00  0.00     0.031 A 
ATOM     30  C   UNL     1      31.615  45.071  36.945  1.00  0.00     0.003 A 
ATOM     31  C   UNL     1      30.408  43.428  40.586  1.00  0.00     0.144 A 
ATOM     32  C   UNL     1      30.459  43.569  38.382  1.00  0.00     0.066 A 
ATOM     33  C   UNL     1      30.754  43.986  37.081  1.00  0.00     0.028 A 
ATOM     34  N   UNL     1      29.608  42.443  40.168  1.00  0.00    -0.183 NA
ATOM     35  N   UNL     1      29.661  42.551  38.833  1.00  0.00    -0.278 N 
ATOM     36  H   UNL     1      29.124  41.895  38.278  1.00  0.00     0.190 HD
ENDBRANCH  19  27
ENDBRANCH   1  12
TORSDOF 5
ENDMDL
MODEL 6
REMARK VINA RESULT:    -8.625      2.061      2.807
REMARK INTER + INTRA:         -11.431
REMARK INTER:                 -10.755
REMARK INTRA:                  -0.676
REMARK UNBOUND:                -0.286
REMARK SMILES CS(=O)(=O)N1CCN(Cc2cc3nc(-c4cccc5[nH]ncc45)nc(N4CCOCC4)c3s2)CC1
REMARK SMILES IDX 9 1 8 2 5 3 6 4 35 5 7 6 34 7 2 8 3 9 4 10 1 11 10 12 11 13
REMARK SMILES IDX 33 14 12 15 32 16 13 17 25 18 14 19 24 20 26 21 27 22 31 23
REMARK SMILES IDX 28 24 30 25 29 26 15 27 16 28 23 29 17 30 22 31 19 32 18 33
REMARK SMILES IDX 21 34 20 35
REMARK H PARENT 20 36
ROOT
ATOM      1  C   UNL     1      38.262  47.416  40.890  1.00  0.00     0.131 C 
ENDROOT
BRANCH   1   2
ATOM      2  N   UNL     1      38.612  48.818  40.602  1.00  0.00    -0.296 NA
ATOM      3  N   UNL     1      40.692  49.597  42.562  1.00  0.00    -0.200 NA
ATOM      4  C   UNL     1      41.048  48.795  41.368  1.00  0.00     0.117 C 
ATOM      5  C   UNL     1      39.269  49.522  42.966  1.00  0.00     0.117 C 
ATOM      6  C   UNL     1      40.034  48.989  40.225  1.00  0.00     0.101 C 
ATOM      7  C   UNL     1      38.320  49.687  41.763  1.00  0.00     0.101 C 
BRANCH   3   8
ATOM      8  S   UNL     1      41.610  50.940  42.972  1.00  0.00     0.211 S 
ATOM      9  O   UNL     1      40.704  52.032  43.258  1.00  0.00    -0.213 OA
ATOM     10  O   UNL     1      42.662  51.081  41.988  1.00  0.00    -0.213 OA
ATOM     11  C   UNL     1      42.371  50.455  44.507  1.00  0.00     0.176 C 
ENDBRANCH   3   8
ENDBRANCH   1   2
BRANCH   1  12
ATOM     12  C   UNL     1      36.806  47.262  41.234  1.00  0.00     0.022 A 
ATOM     13  C   UNL     1      36.226  47.202  42.480  1.00  0.00     0.046 A 
ATOM     14  S   UNL     1      35.629  47.133  40.007  1.00  0.00    -0.133 S 
ATOM     15  C   UNL     1      34.808  47.063  42.424  1.00  0.00     0.088 A 
ATOM     16  C   UNL     1      34.315  46.990  41.122  1.00  0.00     0.096 A 
ATOM     17  N   UNL     1      34.022  47.011  43.521  1.00  0.00    -0.227 NA
ATOM     18  C   UNL     1      32.924  46.856  40.925  1.00  0.00     0.150 A 
ATOM     19  C   UNL     1      32.718  46.901  43.283  1.00  0.00     0.162 A 
ATOM     20  N   UNL     1      32.167  46.834  42.057  1.00  0.00    -0.209 NA
BRANCH  18  21
ATOM     21  N   UNL     1      32.238  46.736  39.724  1.00  0.00    -0.351 N 
ATOM     22  C   UNL     1      32.497  45.514  38.942  1.00  0.00     0.146 C 
ATOM     23  C   UNL     1      30.970  47.409  39.438  1.00  0.00     0.146 C 
ATOM     24  C   UNL     1      32.166  45.725  37.458  1.00  0.00     0.181 C 
ATOM     25  C   UNL     1      30.725  47.510  37.925  1.00  0.00     0.181 C 
ATOM     26  O   UNL     1      30.838  46.235  37.280  1.00  0.00    -0.378 OA
ENDBRANCH  18  21
BRANCH  19  27
ATOM     27  C   UNL     1      31.793  46.841  44.430  1.00  0.00     0.030 A 
ATOM     28  C   UNL     1      31.923  47.714  45.540  1.00  0.00     0.013 A 
ATOM     29  C   UNL     1      30.724  45.908  44.487  1.00  0.00     0.031 A 
ATOM     30  C   UNL     1      31.057  47.676  46.635  1.00  0.00     0.003 A 
ATOM     31  C   UNL     1      30.207  44.873  43.664  1.00  0.00     0.144 A 
ATOM     32  C   UNL     1      29.874  45.895  45.594  1.00  0.00     0.066 A 
ATOM     33  C   UNL     1      30.008  46.761  46.682  1.00  0.00     0.028 A 
ATOM     34  N   UNL     1      29.139  44.263  44.186  1.00  0.00    -0.183 NA
ATOM     35  N   UNL     1      28.960  44.903  45.350  1.00  0.00    -0.278 N 
ATOM     36  H   UNL     1      28.189  44.616  45.942  1.00  0.00     0.190 HD
ENDBRANCH  19  27
ENDBRANCH   1  12
TORSDOF 5
ENDMDL
MODEL 7
REMARK VINA RESULT:    -8.606      1.720      2.347
REMARK INTER + INTRA:         -11.407
REMARK INTER:                 -10.997
REMARK INTRA:                  -0.410
REMARK UNBOUND:                -0.286
REMARK SMILES CS(=O)(=O)N1CCN(Cc2cc3nc(-c4cccc5[nH]ncc45)nc(N4CCOCC4)c3s2)CC1
REMARK SMILES IDX 9 1 8 2 5 3 6 4 35 5 7 6 34 7 2 8 3 9 4 10 1 11 10 12 11 13
REMARK SMILES IDX 33 14 12 15 32 16 13 17 25 18 14 19 24 20 26 21 27 22 31 23
REMARK SMILES IDX 28 24 30 25 29 26 15 27 16 28 23 29 17 30 22 31 19 32 18 33
REMARK SMILES IDX 21 34 20 35
REMARK H PARENT 20 36
ROOT
ATOM      1  C   UNL     1      36.536  47.823  38.727  1.00  0.00     0.131 C 
ENDROOT
BRANCH   1   2
ATOM      2  N   UNL     1      37.566  46.776  38.593  1.00  0.00    -0.296 NA
ATOM      3  N   UNL     1      40.184  48.096  39.017  1.00  0.00    -0.200 NA
ATOM      4  C   UNL     1      39.328  47.734  40.173  1.00  0.00     0.117 C 
ATOM      5  C   UNL     1      39.466  48.245  37.730  1.00  0.00     0.117 C 
ATOM      6  C   UNL     1      38.358  46.588  39.829  1.00  0.00     0.101 C 
ATOM      7  C   UNL     1      38.489  47.081  37.477  1.00  0.00     0.101 C 
BRANCH   3   8
ATOM      8  S   UNL     1      41.815  47.705  39.029  1.00  0.00     0.211 S 
ATOM      9  O   UNL     1      41.973  46.422  38.378  1.00  0.00    -0.213 OA
ATOM     10  O   UNL     1      42.320  47.931  40.366  1.00  0.00    -0.213 OA
ATOM     11  C   UNL     1      42.533  48.940  37.965  1.00  0.00     0.176 C 
ENDBRANCH   3   8
ENDBRANCH   1   2
BRANCH   1  12
ATOM     12  C   UNL     1      35.351  47.344  39.521  1.00  0.00     0.022 A 
ATOM     13  C   UNL     1      35.041  47.612  40.834  1.00  0.00     0.046 A 
ATOM     14  S   UNL     1      34.179  46.331  38.810  1.00  0.00    -0.133 S 
ATOM     15  C   UNL     1      33.826  46.993  41.252  1.00  0.00     0.088 A 
ATOM     16  C   UNL     1      33.228  46.227  40.251  1.00  0.00     0.096 A 
ATOM     17  N   UNL     1      33.306  47.137  42.490  1.00  0.00    -0.227 NA
ATOM     18  C   UNL     1      32.014  45.564  40.533  1.00  0.00     0.150 A 
ATOM     19  C   UNL     1      32.153  46.506  42.700  1.00  0.00     0.162 A 
ATOM     20  N   UNL     1      31.512  45.758  41.784  1.00  0.00    -0.209 NA
BRANCH  18  21
ATOM     21  N   UNL     1      31.279  44.735  39.696  1.00  0.00    -0.351 N 
ATOM     22  C   UNL     1      30.245  43.906  40.339  1.00  0.00     0.146 C 
ATOM     23  C   UNL     1      31.086  44.986  38.266  1.00  0.00     0.146 C 
ATOM     24  C   UNL     1      29.906  42.680  39.481  1.00  0.00     0.181 C 
ATOM     25  C   UNL     1      30.695  43.698  37.527  1.00  0.00     0.181 C 
ATOM     26  O   UNL     1      29.571  43.051  38.137  1.00  0.00    -0.378 OA
ENDBRANCH  18  21
BRANCH  19  27
ATOM     27  C   UNL     1      31.520  46.617  44.027  1.00  0.00     0.030 A 
ATOM     28  C   UNL     1      31.913  47.609  44.962  1.00  0.00     0.013 A 
ATOM     29  C   UNL     1      30.483  45.740  44.443  1.00  0.00     0.031 A 
ATOM     30  C   UNL     1      31.325  47.733  46.222  1.00  0.00     0.003 A 
ATOM     31  C   UNL     1      29.778  44.635  43.894  1.00  0.00     0.144 A 
ATOM     32  C   UNL     1      29.914  45.889  45.707  1.00  0.00     0.066 A 
ATOM     33  C   UNL     1      30.306  46.872  46.620  1.00  0.00     0.028 A 
ATOM     34  N   UNL     1      28.854  44.133  44.718  1.00  0.00    -0.183 NA
ATOM     35  N   UNL     1      28.957  44.913  45.804  1.00  0.00    -0.278 N 
ATOM     36  H   UNL     1      28.343  44.727  46.587  1.00  0.00     0.190 HD
ENDBRANCH  19  27
ENDBRANCH   1  12
TORSDOF 5
ENDMDL
MODEL 8
REMARK VINA RESULT:    -8.568      4.204      6.445
REMARK INTER + INTRA:         -11.358
REMARK INTER:                 -10.899
REMARK INTRA:                  -0.459
REMARK UNBOUND:                -0.286
REMARK SMILES CS(=O)(=O)N1CCN(Cc2cc3nc(-c4cccc5[nH]ncc45)nc(N4CCOCC4)c3s2)CC1
REMARK SMILES IDX 9 1 8 2 5 3 6 4 35 5 7 6 34 7 2 8 3 9 4 10 1 11 10 12 11 13
REMARK SMILES IDX 33 14 12 15 32 16 13 17 25 18 14 19 24 20 26 21 27 22 31 23
REMARK SMILES IDX 28 24 30 25 29 26 15 27 16 28 23 29 17 30 22 31 19 32 18 33
REMARK SMILES IDX 21 34 20 35
REMARK H PARENT 20 36
ROOT
ATOM      1  C   UNL     1      36.574  49.637  43.632  1.00  0.00     0.131 C 
ENDROOT
BRANCH   1   2
ATOM      2  N   UNL     1      36.790  50.794  42.745  1.00  0.00    -0.296 NA
ATOM      3  N   UNL     1      36.357  53.221  44.388  1.00  0.00    -0.200 NA
ATOM      4  C   UNL     1      37.636  52.477  44.469  1.00  0.00     0.117 C 
ATOM      5  C   UNL     1      35.204  52.433  43.893  1.00  0.00     0.117 C 
ATOM      6  C   UNL     1      37.905  51.660  43.191  1.00  0.00     0.101 C 
ATOM      7  C   UNL     1      35.564  51.615  42.637  1.00  0.00     0.101 C 
BRANCH   3   8
ATOM      8  S   UNL     1      36.369  54.890  44.215  1.00  0.00     0.211 S 
ATOM      9  O   UNL     1      35.895  55.206  42.884  1.00  0.00    -0.213 OA
ATOM     10  O   UNL     1      37.645  55.379  44.689  1.00  0.00    -0.213 OA
ATOM     11  C   UNL     1      35.123  55.423  45.371  1.00  0.00     0.176 C 
ENDBRANCH   3   8
ENDBRANCH   1   2
BRANCH   1  12
ATOM     12  C   UNL     1      35.430  48.779  43.164  1.00  0.00     0.022 A 
ATOM     13  C   UNL     1      35.179  48.310  41.895  1.00  0.00     0.046 A 
ATOM     14  S   UNL     1      34.226  48.262  44.255  1.00  0.00    -0.133 S 
ATOM     15  C   UNL     1      34.000  47.511  41.824  1.00  0.00     0.088 A 
ATOM     16  C   UNL     1      33.339  47.399  43.047  1.00  0.00     0.096 A 
ATOM     17  N   UNL     1      33.570  46.921  40.688  1.00  0.00    -0.227 NA
ATOM     18  C   UNL     1      32.158  46.630  43.115  1.00  0.00     0.150 A 
ATOM     19  C   UNL     1      32.463  46.194  40.809  1.00  0.00     0.162 A 
ATOM     20  N   UNL     1      31.775  46.031  41.954  1.00  0.00    -0.209 NA
BRANCH  18  21
ATOM     21  N   UNL     1      31.339  46.418  44.217  1.00  0.00    -0.351 N 
ATOM     22  C   UNL     1      30.906  47.620  44.951  1.00  0.00     0.146 C 
ATOM     23  C   UNL     1      30.490  45.237  44.386  1.00  0.00     0.146 C 
ATOM     24  C   UNL     1      30.513  47.276  46.394  1.00  0.00     0.181 C 
ATOM     25  C   UNL     1      30.119  45.031  45.863  1.00  0.00     0.181 C 
ATOM     26  O   UNL     1      29.551  46.213  46.441  1.00  0.00    -0.378 OA
ENDBRANCH  18  21
BRANCH  19  27
ATOM     27  C   UNL     1      31.930  45.515  39.613  1.00  0.00     0.030 A 
ATOM     28  C   UNL     1      32.233  45.964  38.303  1.00  0.00     0.013 A 
ATOM     29  C   UNL     1      31.087  44.376  39.706  1.00  0.00     0.031 A 
ATOM     30  C   UNL     1      31.742  45.334  37.157  1.00  0.00     0.003 A 
ATOM     31  C   UNL     1      30.521  43.587  40.744  1.00  0.00     0.144 A 
ATOM     32  C   UNL     1      30.613  43.767  38.544  1.00  0.00     0.066 A 
ATOM     33  C   UNL     1      30.919  44.215  37.257  1.00  0.00     0.028 A 
ATOM     34  N   UNL     1      29.767  42.580  40.294  1.00  0.00    -0.183 NA
ATOM     35  N   UNL     1      29.844  42.712  38.962  1.00  0.00    -0.278 N 
ATOM     36  H   UNL     1      29.345  42.046  38.385  1.00  0.00     0.190 HD
ENDBRANCH  19  27
ENDBRANCH   1  12
TORSDOF 5
ENDMDL
MODEL 9
REMARK VINA RESULT:    -8.173      3.798      6.344
REMARK INTER + INTRA:         -10.847
REMARK INTER:                 -10.373
REMARK INTRA:                  -0.474
REMARK UNBOUND:                -0.286
REMARK SMILES CS(=O)(=O)N1CCN(Cc2cc3nc(-c4cccc5[nH]ncc45)nc(N4CCOCC4)c3s2)CC1
REMARK SMILES IDX 9 1 8 2 5 3 6 4 35 5 7 6 34 7 2 8 3 9 4 10 1 11 10 12 11 13
REMARK SMILES IDX 33 14 12 15 32 16 13 17 25 18 14 19 24 20 26 21 27 22 31 23
REMARK SMILES IDX 28 24 30 25 29 26 15 27 16 28 23 29 17 30 22 31 19 32 18 33
REMARK SMILES IDX 21 34 20 35
REMARK H PARENT 20 36
ROOT
ATOM      1  C   UNL     1      35.683  46.249  37.484  1.00  0.00     0.131 C 
ENDROOT
BRANCH   1   2
ATOM      2  N   UNL     1      37.153  46.208  37.387  1.00  0.00    -0.296 NA
ATOM      3  N   UNL     1      37.846  43.693  35.983  1.00  0.00    -0.200 NA
ATOM      4  C   UNL     1      37.382  44.876  35.220  1.00  0.00     0.117 C 
ATOM      5  C   UNL     1      37.448  43.673  37.410  1.00  0.00     0.117 C 
ATOM      6  C   UNL     1      37.636  46.187  35.988  1.00  0.00     0.101 C 
ATOM      7  C   UNL     1      37.698  45.030  38.097  1.00  0.00     0.101 C 
BRANCH   3   8
ATOM      8  S   UNL     1      39.209  42.855  35.480  1.00  0.00     0.211 S 
ATOM      9  O   UNL     1      38.963  41.442  35.672  1.00  0.00    -0.213 OA
ATOM     10  O   UNL     1      40.369  43.496  36.061  1.00  0.00    -0.213 OA
ATOM     11  C   UNL     1      39.246  43.162  33.726  1.00  0.00     0.176 C 
ENDBRANCH   3   8
ENDBRANCH   1   2
BRANCH   1  12
ATOM     12  C   UNL     1      35.223  46.656  38.857  1.00  0.00     0.022 A 
ATOM     13  C   UNL     1      34.109  46.232  39.544  1.00  0.00     0.046 A 
ATOM     14  S   UNL     1      36.113  47.785  39.774  1.00  0.00    -0.133 S 
ATOM     15  C   UNL     1      33.996  46.826  40.835  1.00  0.00     0.088 A 
ATOM     16  C   UNL     1      35.020  47.731  41.114  1.00  0.00     0.096 A 
ATOM     17  N   UNL     1      32.999  46.540  41.700  1.00  0.00    -0.227 NA
ATOM     18  C   UNL     1      35.029  48.388  42.363  1.00  0.00     0.150 A 
ATOM     19  C   UNL     1      33.062  47.172  42.870  1.00  0.00     0.162 A 
ATOM     20  N   UNL     1      34.022  48.050  43.215  1.00  0.00    -0.209 NA
BRANCH  18  21
ATOM     21  N   UNL     1      35.931  49.337  42.823  1.00  0.00    -0.351 N 
ATOM     22  C   UNL     1      35.405  50.336  43.770  1.00  0.00     0.146 C 
ATOM     23  C   UNL     1      37.380  49.130  42.867  1.00  0.00     0.146 C 
ATOM     24  C   UNL     1      36.266  51.607  43.770  1.00  0.00     0.181 C 
ATOM     25  C   UNL     1      38.129  50.471  42.921  1.00  0.00     0.181 C 
ATOM     26  O   UNL     1      37.652  51.306  43.984  1.00  0.00    -0.378 OA
ENDBRANCH  18  21
BRANCH  19  27
ATOM     27  C   UNL     1      32.011  46.911  43.870  1.00  0.00     0.030 A 
ATOM     28  C   UNL     1      31.923  47.657  45.073  1.00  0.00     0.013 A 
ATOM     29  C   UNL     1      31.029  45.900  43.686  1.00  0.00     0.031 A 
ATOM     30  C   UNL     1      30.934  47.428  46.032  1.00  0.00     0.003 A 
ATOM     31  C   UNL     1      30.713  44.931  42.697  1.00  0.00     0.144 A 
ATOM     32  C   UNL     1      30.053  45.696  44.661  1.00  0.00     0.066 A 
ATOM     33  C   UNL     1      29.973  46.438  45.842  1.00  0.00     0.028 A 
ATOM     34  N   UNL     1      29.647  44.187  43.005  1.00  0.00    -0.183 NA
ATOM     35  N   UNL     1      29.268  44.674  44.195  1.00  0.00    -0.278 N 
ATOM     36  H   UNL     1      28.459  44.263  44.645  1.00  0.00     0.190 HD
ENDBRANCH  19  27
ENDBRANCH   1  12
TORSDOF 5
ENDMDL
