REMARK VINA RESULT:    -6.540      3.600      6.880
REMARK INTER + INTRA:         -11.078
REMARK INTER:                  -9.252
REMARK INTRA:                  -1.827
REMARK UNBOUND:                -0.334
REMARK SMILES N=C(N)c1ccc(/C=C2/CCCCC/C(=C/c3ccc(C(=N)N)cc3)C2=O)cc1
REMARK SMILES IDX 26 1 27 2 9 3 8 4 7 5 4 6 5 7 29 8 6 9 28 10 2 11 1 12 3 13
REMARK SMILES IDX 10 17 11 18 15 20 16 21 14 22 13 23 12 24 17 26 18 27 25 28
REMARK SMILES IDX 19 29 24 30 20 31 21 32 22 33 23 34
REMARK H PARENT 1 14 3 15 3 16 22 35 23 36 23 37
REMARK Flexibility Score:   38.900
ROOT
ATOM      1  C   UNL     1      -7.570  12.266  22.107  1.00  0.00     0.185 C 
ATOM      2  O   UNL     1      -6.576  12.198  22.822  1.00  0.00    -0.289 OA
ENDROOT
BRANCH   1   3
ATOM      3  C   UNL     1      -7.568  13.150  20.910  1.00  0.00     0.000 C 
ATOM      4  C   UNL     1      -6.441  13.368  20.204  1.00  0.00     0.015 C 
BRANCH   4   5
ATOM      5  C   UNL     1      -5.129  12.752  20.426  1.00  0.00    -0.025 A 
ATOM      6  C   UNL     1      -2.545  11.671  20.716  1.00  0.00     0.016 A 
ATOM      7  C   UNL     1      -3.509  10.993  19.965  1.00  0.00     0.012 A 
ATOM      8  C   UNL     1      -2.876  12.896  21.307  1.00  0.00     0.012 A 
ATOM      9  C   UNL     1      -4.795  11.531  19.824  1.00  0.00     0.009 A 
ATOM     10  C   UNL     1      -4.158  13.436  21.161  1.00  0.00     0.009 A 
BRANCH   6  11
ATOM     11  C   UNL     1      -1.162  11.129  20.874  1.00  0.00     0.122 C 
ATOM     12  N   UNL     1      -0.178  11.744  20.297  1.00  0.00    -0.284 NA
ATOM     13  N   UNL     1      -0.907  10.017  21.612  1.00  0.00    -0.384 N 
ATOM     14  H   UNL     1       0.690  11.245  20.503  1.00  0.00     0.189 HD
ATOM     15  H   UNL     1       0.028   9.652  21.712  1.00  0.00     0.158 HD
ATOM     16  H   UNL     1      -1.579   9.609  22.268  1.00  0.00     0.158 HD
ENDBRANCH   6  11
ENDBRANCH   4   5
BRANCH   3  17
ATOM     17  C   UNL     1      -8.915  13.668  20.481  1.00  0.00     0.039 C 
BRANCH  17  18
ATOM     18  C   UNL     1      -9.578  14.683  21.422  1.00  0.00     0.005 CG0
ATOM     19  G   UNL     1     -10.573  14.068  22.412  1.00  0.00     0.000 G0
ENDBRANCH  17  18
ENDBRANCH   3  17
ENDBRANCH   1   3
BRANCH   1  20
ATOM     20  C   UNL     1      -8.756  11.362  22.258  1.00  0.00     0.000 C 
ATOM     21  C   UNL     1      -8.923  10.240  21.527  1.00  0.00     0.015 C 
BRANCH  20  22
ATOM     22  C   UNL     1      -9.761  11.730  23.324  1.00  0.00     0.039 C 
BRANCH  22  23
ATOM     23  C   UNL     1      -9.956  13.231  23.551  1.00  0.00     0.005 C 
BRANCH  23  24
ATOM     24  C   UNL     1     -10.574  14.042  22.408  1.00  0.00     0.001 CG0
ATOM     25  G   UNL     1      -9.566  14.670  21.440  1.00  0.00     0.000 G0
ENDBRANCH  23  24
ENDBRANCH  22  23
ENDBRANCH  20  22
BRANCH  21  26
ATOM     26  C   UNL     1      -7.983   9.614  20.593  1.00  0.00    -0.025 A 
ATOM     27  C   UNL     1      -8.109   9.931  19.235  1.00  0.00     0.009 A 
ATOM     28  C   UNL     1      -6.976   8.731  20.993  1.00  0.00     0.009 A 
ATOM     29  C   UNL     1      -7.293   9.318  18.284  1.00  0.00     0.012 A 
ATOM     30  C   UNL     1      -6.169   8.096  20.042  1.00  0.00     0.012 A 
ATOM     31  C   UNL     1      -6.343   8.375  18.684  1.00  0.00     0.016 A 
BRANCH  31  32
ATOM     32  C   UNL     1      -5.571   7.636  17.648  1.00  0.00     0.122 C 
ATOM     33  N   UNL     1      -5.173   6.429  17.901  1.00  0.00    -0.284 NA
ATOM     34  N   UNL     1      -5.282   8.219  16.454  1.00  0.00    -0.384 N 
ATOM     35  H   UNL     1      -4.668   6.079  17.083  1.00  0.00     0.189 HD
ATOM     36  H   UNL     1      -4.766   7.733  15.734  1.00  0.00     0.158 HD
ATOM     37  H   UNL     1      -5.658   9.126  16.206  1.00  0.00     0.158 HD
ENDBRANCH  31  32
ENDBRANCH  21  26
ENDBRANCH   1  20
TORSDOF 4
