MODEL 9
REMARK VINA RESULT:    -7.866      3.206      9.692
REMARK INTER + INTRA:         -15.095
REMARK INTER:                 -13.168
REMARK INTRA:                  -1.927
REMARK UNBOUND:                -1.481
REMARK SMILES Cc1oc(-c2ccccc2)nc1CCOc1ccc(CCC(=O)O)c(CNC(=O)OC(C)C)c1
REMARK SMILES IDX 16 1 17 2 18 3 19 4 25 5 34 6 15 7 14 8 13 9 12 10 2 11 3 12
REMARK SMILES IDX 4 13 11 14 1 15 5 16 6 17 10 18 7 19 9 20 8 21 26 22 27 23
REMARK SMILES IDX 28 24 29 25 30 27 31 28 32 29 33 30 20 31 21 32 22 33 23 34
REMARK SMILES IDX 24 35
REMARK H PARENT 27 26 24 36
ROOT
ATOM      1  C   UNL     1      -9.422  -8.226 -25.609  1.00  0.00     0.119 A 
ATOM      2  C   UNL     1      -8.216  -8.867 -25.866  1.00  0.00     0.047 A 
ATOM      3  C   UNL     1      -7.873  -9.239 -27.166  1.00  0.00     0.008 A 
ATOM      4  C   UNL     1      -8.729  -8.974 -28.251  1.00  0.00    -0.042 A 
ATOM      5  C   UNL     1      -9.927  -8.268 -28.005  1.00  0.00    -0.022 A 
ATOM      6  C   UNL     1     -10.266  -7.924 -26.676  1.00  0.00     0.052 A 
ENDROOT
BRANCH   1   7
ATOM      7  O   UNL     1      -9.649  -7.931 -24.294  1.00  0.00    -0.493 OA
BRANCH   7   8
ATOM      8  C   UNL     1     -10.540  -8.793 -23.580  1.00  0.00     0.236 C 
BRANCH   8   9
ATOM      9  C   UNL     1     -10.128  -8.818 -22.109  1.00  0.00     0.101 C 
BRANCH   9  10
ATOM     10  C   UNL     1      -8.684  -8.518 -21.916  1.00  0.00     0.086 A 
ATOM     11  C   UNL     1      -7.577  -9.288 -22.207  1.00  0.00     0.125 A 
ATOM     12  O   UNL     1      -6.466  -8.576 -21.850  1.00  0.00    -0.441 OA
ATOM     13  C   UNL     1      -6.960  -7.396 -21.356  1.00  0.00     0.226 A 
ATOM     14  N   UNL     1      -8.279  -7.318 -21.375  1.00  0.00    -0.214 NA
ATOM     15  C   UNL     1      -7.360 -10.631 -22.768  1.00  0.00     0.090 C 
BRANCH  13  16
ATOM     16  C   UNL     1      -5.982  -6.416 -20.889  1.00  0.00     0.037 A 
ATOM     17  C   UNL     1      -6.337  -5.085 -20.617  1.00  0.00     0.014 A 
ATOM     18  C   UNL     1      -4.647  -6.804 -20.700  1.00  0.00     0.014 A 
ATOM     19  C   UNL     1      -5.381  -4.169 -20.168  1.00  0.00     0.001 A 
ATOM     20  C   UNL     1      -3.691  -5.888 -20.251  1.00  0.00     0.001 A 
ATOM     21  C   UNL     1      -4.060  -4.570 -19.986  1.00  0.00     0.000 A 
ENDBRANCH  13  16
ENDBRANCH   9  10
ENDBRANCH   8   9
ENDBRANCH   7   8
ENDBRANCH   1   7
BRANCH   5  22
ATOM     22  C   UNL     1     -10.898  -7.865 -29.090  1.00  0.00     0.155 C 
BRANCH  22  23
ATOM     23  N   UNL     1     -10.567  -6.584 -29.651  1.00  0.00    -0.317 N 
ATOM     24  C   UNL     1     -10.604  -6.371 -30.993  1.00  0.00     0.407 C 
ATOM     25  O   UNL     1     -10.759  -7.240 -31.839  1.00  0.00    -0.225 OA
ATOM     26  H   UNL     1     -10.651  -5.746 -29.079  1.00  0.00     0.167 HD
BRANCH  24  27
ATOM     27  O   UNL     1     -10.457  -5.048 -31.242  1.00  0.00    -0.447 OA
BRANCH  27  28
ATOM     28  C   UNL     1     -11.241  -4.157 -30.428  1.00  0.00     0.172 C 
ATOM     29  C   UNL     1     -10.505  -2.824 -30.388  1.00  0.00     0.053 C 
ATOM     30  C   UNL     1     -12.627  -3.987 -31.040  1.00  0.00     0.053 C 
ENDBRANCH  27  28
ENDBRANCH  24  27
ENDBRANCH  22  23
ENDBRANCH   5  22
BRANCH   4  31
ATOM     31  C   UNL     1      -8.309  -9.443 -29.631  1.00  0.00     0.047 C 
BRANCH  31  32
ATOM     32  C   UNL     1      -7.391  -8.471 -30.378  1.00  0.00     0.127 C 
BRANCH  32  33
ATOM     33  C   UNL     1      -7.436  -8.673 -31.867  1.00  0.00     0.303 C 
ATOM     34  O   UNL     1      -6.531  -8.493 -32.665  1.00  0.00    -0.252 OA
BRANCH  33  35
ATOM     35  O   UNL     1      -8.629  -9.147 -32.278  1.00  0.00    -0.481 OA
ATOM     36  H   UNL     1      -9.254  -8.884 -31.570  1.00  0.00     0.296 HD
ENDBRANCH  33  35
ENDBRANCH  32  33
ENDBRANCH  31  32
ENDBRANCH   4  31
TORSDOF 13
ENDMDL
