MODEL 3
REMARK VINA RESULT:    -9.511      3.088      6.103
REMARK INTER + INTRA:         -15.090
REMARK INTER:                 -12.945
REMARK INTRA:                  -2.145
REMARK UNBOUND:                -2.521
REMARK SMILES Cc1ccc(S(=O)(=O)c2ccc([C@H]3C4=C([O-])CC(C)(C)C=C4NC(N)=C3C(=O)c3ccccc3)cc2)cc1
REMARK SMILES IDX 9 1 10 2 11 3 12 4 35 5 36 6 6 7 7 8 8 9 5 10 2 11 38 12
REMARK SMILES IDX 3 13 37 14 4 15 1 16 13 17 14 18 26 19 22 20 15 21 24 22
REMARK SMILES IDX 23 23 21 24 17 25 18 26 16 27 19 29 20 30 27 31 28 32 29 33
REMARK SMILES IDX 34 34 30 35 33 36 31 37 32 38 25 39
REMARK H PARENT 23 28 25 40 25 41
ROOT
ATOM      1  C   UNL     1      18.457  32.761  11.588  1.00  0.00     0.072 A 
ATOM      2  C   UNL     1      19.548  33.630  11.620  1.00  0.00     0.021 A 
ATOM      3  C   UNL     1      20.158  33.927  12.835  1.00  0.00     0.006 A 
ATOM      4  C   UNL     1      19.676  33.363  14.022  1.00  0.00    -0.036 A 
ATOM      5  C   UNL     1      18.603  32.468  13.975  1.00  0.00     0.006 A 
ATOM      6  C   UNL     1      17.994  32.168  12.763  1.00  0.00     0.021 A 
ENDROOT
BRANCH   1   7
ATOM      7  S   UNL     1      17.595  32.445  10.052  1.00  0.00     0.206 S 
ATOM      8  O   UNL     1      16.169  32.295  10.368  1.00  0.00    -0.219 OA
ATOM      9  O   UNL     1      18.319  31.393   9.328  1.00  0.00    -0.219 OA
BRANCH   7  10
ATOM     10  C   UNL     1      17.791  33.975   9.144  1.00  0.00     0.072 A 
ATOM     11  C   UNL     1      18.141  36.389   7.805  1.00  0.00    -0.051 A 
ATOM     12  C   UNL     1      17.072  36.233   8.690  1.00  0.00     0.005 A 
ATOM     13  C   UNL     1      19.027  35.333   7.579  1.00  0.00     0.005 A 
ATOM     14  C   UNL     1      16.898  35.027   9.362  1.00  0.00     0.021 A 
ATOM     15  C   UNL     1      18.854  34.127   8.252  1.00  0.00     0.021 A 
ATOM     16  C   UNL     1      18.328  37.705   7.073  1.00  0.00     0.044 C 
ENDBRANCH   7  10
ENDBRANCH   1   7
BRANCH   4  17
ATOM     17  C   UNL     1      20.279  33.756  15.376  1.00  0.00     0.088 C 
ATOM     18  C   UNL     1      21.756  34.225  15.258  1.00  0.00    -0.024 C 
ATOM     19  C   UNL     1      19.475  34.851  16.124  1.00  0.00     0.052 C 
ATOM     20  C   UNL     1      22.003  35.670  15.128  1.00  0.00     0.039 C 
ATOM     21  C   UNL     1      22.831  33.396  15.232  1.00  0.00    -0.125 C 
ATOM     22  C   UNL     1      19.839  36.159  16.084  1.00  0.00     0.109 C 
ATOM     23  N   UNL     1      20.982  36.546  15.426  1.00  0.00    -0.342 N 
ATOM     24  C   UNL     1      23.191  36.147  14.703  1.00  0.00     0.006 C 
ATOM     25  C   UNL     1      24.281  33.901  15.143  1.00  0.00     0.029 C 
ATOM     26  C   UNL     1      24.383  35.248  14.342  1.00  0.00    -0.012 C 
ATOM     27  O   UNL     1      22.772  32.112  15.349  1.00  0.00    -0.875 OA
ATOM     28  H   UNL     1      21.215  37.528  15.440  1.00  0.00     0.168 HD
ATOM     29  C   UNL     1      25.674  35.982  14.759  1.00  0.00     0.016 C 
ATOM     30  C   UNL     1      24.304  34.969  12.824  1.00  0.00     0.016 C 
BRANCH  19  31
ATOM     31  C   UNL     1      18.370  34.383  16.979  1.00  0.00     0.193 C 
ATOM     32  O   UNL     1      18.619  33.815  18.044  1.00  0.00    -0.289 OA
BRANCH  31  33
ATOM     33  C   UNL     1      16.972  34.487  16.458  1.00  0.00     0.022 A 
ATOM     34  C   UNL     1      15.890  34.033  17.226  1.00  0.00     0.012 A 
ATOM     35  C   UNL     1      16.740  34.979  15.167  1.00  0.00     0.012 A 
ATOM     36  C   UNL     1      14.592  34.118  16.731  1.00  0.00     0.001 A 
ATOM     37  C   UNL     1      15.441  35.060  14.672  1.00  0.00     0.001 A 
ATOM     38  C   UNL     1      14.372  34.634  15.457  1.00  0.00     0.000 A 
ENDBRANCH  31  33
ENDBRANCH  19  31
BRANCH  22  39
ATOM     39  N   UNL     1      19.325  37.193  16.829  1.00  0.00    -0.385 N 
ATOM     40  H   UNL     1      19.752  38.109  16.812  1.00  0.00     0.158 HD
ATOM     41  H   UNL     1      18.483  37.076  17.373  1.00  0.00     0.158 HD
ENDBRANCH  22  39
ENDBRANCH   4  17
TORSDOF 6
ENDMDL
