REMARK VINA RESULT:    -8.608      2.699      5.990
REMARK INTER + INTRA:         -10.867
REMARK INTER:                 -10.748
REMARK INTRA:                  -0.119
REMARK UNBOUND:                -0.246
REMARK SMILES O=c1c(O)c(-c2cc(O)c(O)c(O)c2)oc2cc(O)cc(O)c12
REMARK SMILES IDX 1 1 2 2 3 3 5 4 15 5 16 6 17 7 18 8 20 9 21 10 23 11 4 12
REMARK SMILES IDX 6 14 7 15 14 16 8 17 12 18 10 19 9 20 13 22 11 24 22 26
REMARK SMILES IDX 19 28
REMARK H PARENT 4 13 9 21 13 23 11 25 22 27 19 29
ROOT
ATOM      1  O   UNL     1     133.176 114.496  43.220  1.00  0.00    -0.285 OA
ATOM      2  C   UNL     1     133.848 114.433  42.193  1.00  0.00     0.238 A 
ATOM      3  C   UNL     1     133.648 115.417  41.104  1.00  0.00     0.208 A 
ATOM      4  C   UNL     1     134.403 115.311  39.996  1.00  0.00     0.180 A 
ATOM      5  O   UNL     1     135.365 114.325  39.805  1.00  0.00    -0.452 OA
ATOM      6  C   UNL     1     135.578 113.404  40.798  1.00  0.00     0.146 A 
ATOM      7  C   UNL     1     136.556 112.438  40.570  1.00  0.00     0.094 A 
ATOM      8  C   UNL     1     136.814 111.477  41.543  1.00  0.00     0.123 A 
ATOM      9  C   UNL     1     136.109 111.465  42.744  1.00  0.00     0.093 A 
ATOM     10  C   UNL     1     135.132 112.432  42.968  1.00  0.00     0.134 A 
ATOM     11  C   UNL     1     134.867 113.402  41.995  1.00  0.00     0.111 A 
ENDROOT
BRANCH   3  12
ATOM     12  O   UNL     1     132.673 116.380  41.297  1.00  0.00    -0.502 OA
ATOM     13  H   UNL     1     133.133 117.238  41.180  1.00  0.00     0.293 HD
ENDBRANCH   3  12
BRANCH   4  14
ATOM     14  C   UNL     1     134.278 116.223  38.837  1.00  0.00     0.029 A 
ATOM     15  C   UNL     1     134.298 117.623  38.994  1.00  0.00     0.062 A 
ATOM     16  C   UNL     1     134.172 115.684  37.540  1.00  0.00     0.062 A 
ATOM     17  C   UNL     1     134.195 118.452  37.879  1.00  0.00     0.162 A 
ATOM     18  C   UNL     1     134.074 116.527  36.441  1.00  0.00     0.162 A 
ATOM     19  C   UNL     1     134.085 117.905  36.607  1.00  0.00     0.200 A 
BRANCH  17  20
ATOM     20  O   UNL     1     134.200 119.816  37.986  1.00  0.00    -0.504 OA
ATOM     21  H   UNL     1     133.987 120.047  38.908  1.00  0.00     0.293 HD
ENDBRANCH  17  20
BRANCH  18  22
ATOM     22  O   UNL     1     133.968 115.991  35.190  1.00  0.00    -0.504 OA
ATOM     23  H   UNL     1     134.019 116.760  34.587  1.00  0.00     0.293 HD
ENDBRANCH  18  22
BRANCH  19  24
ATOM     24  O   UNL     1     133.986 118.711  35.506  1.00  0.00    -0.502 OA
ATOM     25  H   UNL     1     133.116 119.149  35.609  1.00  0.00     0.293 HD
ENDBRANCH  19  24
ENDBRANCH   4  14
BRANCH  10  26
ATOM     26  O   UNL     1     134.470 112.374  44.164  1.00  0.00    -0.507 OA
ATOM     27  H   UNL     1     134.605 111.482  44.553  1.00  0.00     0.293 HD
ENDBRANCH  10  26
BRANCH   8  28
ATOM     28  O   UNL     1     137.779 110.551  41.279  1.00  0.00    -0.508 OA
ATOM     29  H   UNL     1     138.642 110.998  41.234  1.00  0.00     0.293 HD
ENDBRANCH   8  28
TORSDOF 7
