MODEL 3
REMARK VINA RESULT:    -9.002      2.564      6.400
REMARK INTER + INTRA:         -18.685
REMARK INTER:                 -16.968
REMARK INTRA:                  -1.717
REMARK UNBOUND:                -2.578
REMARK SMILES CCCc1cc(C(=O)c2ccc(OC)cc2)ccc1OCCCn1ccc2cc(OC(C)(C)C(=O)O)ccc21
REMARK SMILES IDX 22 1 21 2 20 3 19 4 4 5 5 6 6 7 18 8 17 9 3 10 2 11 1 12
REMARK SMILES IDX 7 13 8 14 9 15 10 16 16 17 11 18 15 19 12 20 13 21 14 22
REMARK SMILES IDX 23 23 24 24 25 25 39 26 26 27 38 28 27 29 37 30 28 31 29 32
REMARK SMILES IDX 30 33 31 34 32 35 33 36 34 37 35 38 36 39
REMARK H PARENT 36 40
ROOT
ATOM      1  C   UNL     1      30.517   1.043 130.391  1.00  0.00     0.063 C 
ENDROOT
BRANCH   1   2
ATOM      2  C   UNL     1      31.014   0.199 131.559  1.00  0.00     0.231 C 
BRANCH   2   3
ATOM      3  O   UNL     1      31.020   1.012 132.732  1.00  0.00    -0.493 OA
BRANCH   3   4
ATOM      4  C   UNL     1      32.209   1.143 133.396  1.00  0.00     0.122 A 
ATOM      5  C   UNL     1      32.338   0.407 134.590  1.00  0.00    -0.005 A 
ATOM      6  C   UNL     1      33.539   0.480 135.321  1.00  0.00     0.019 A 
ATOM      7  C   UNL     1      34.604   1.261 134.861  1.00  0.00     0.023 A 
ATOM      8  C   UNL     1      33.276   1.928 132.948  1.00  0.00     0.047 A 
ATOM      9  C   UNL     1      34.464   1.994 133.681  1.00  0.00     0.016 A 
BRANCH   5  10
ATOM     10  C   UNL     1      31.217  -0.467 135.117  1.00  0.00     0.039 C 
BRANCH  10  11
ATOM     11  C   UNL     1      31.580  -1.953 135.185  1.00  0.00     0.001 C 
ATOM     12  C   UNL     1      31.287  -2.587 136.538  1.00  0.00     0.004 C 
ENDBRANCH  10  11
ENDBRANCH   5  10
BRANCH   7  13
ATOM     13  C   UNL     1      35.877   1.376 135.617  1.00  0.00     0.193 C 
ATOM     14  O   UNL     1      36.905   0.919 135.123  1.00  0.00    -0.289 OA
BRANCH  13  15
ATOM     15  C   UNL     1      35.941   2.031 136.947  1.00  0.00     0.023 A 
ATOM     16  C   UNL     1      35.209   1.559 138.040  1.00  0.00     0.016 A 
ATOM     17  C   UNL     1      36.800   3.124 137.110  1.00  0.00     0.016 A 
ATOM     18  C   UNL     1      35.313   2.207 139.275  1.00  0.00     0.047 A 
ATOM     19  C   UNL     1      36.902   3.766 138.350  1.00  0.00     0.047 A 
ATOM     20  C   UNL     1      36.155   3.311 139.437  1.00  0.00     0.118 A 
BRANCH  20  21
ATOM     21  O   UNL     1      36.158   3.846 140.696  1.00  0.00    -0.497 OA
ATOM     22  C   UNL     1      37.176   4.795 140.988  1.00  0.00     0.278 C 
ENDBRANCH  20  21
ENDBRANCH  13  15
ENDBRANCH   7  13
ENDBRANCH   3   4
ENDBRANCH   2   3
ENDBRANCH   1   2
BRANCH   1  23
ATOM     23  C   UNL     1      30.850   0.394 129.048  1.00  0.00     0.125 C 
BRANCH  23  24
ATOM     24  N   UNL     1      31.942   1.077 128.369  1.00  0.00    -0.347 N 
ATOM     25  C   UNL     1      31.773   2.002 127.372  1.00  0.00     0.087 A 
ATOM     26  C   UNL     1      33.287   0.884 128.619  1.00  0.00     0.048 A 
ATOM     27  C   UNL     1      33.020   2.422 126.969  1.00  0.00     0.028 A 
ATOM     28  C   UNL     1      33.951   0.035 129.521  1.00  0.00     0.031 A 
ATOM     29  C   UNL     1      33.984   1.731 127.751  1.00  0.00     0.003 A 
ATOM     30  C   UNL     1      35.348   0.070 129.548  1.00  0.00     0.048 A 
ATOM     31  C   UNL     1      35.392   1.743 127.793  1.00  0.00     0.056 A 
ATOM     32  C   UNL     1      36.054   0.940 128.724  1.00  0.00     0.121 A 
BRANCH  32  33
ATOM     33  O   UNL     1      37.421   0.924 128.733  1.00  0.00    -0.476 OA
BRANCH  33  34
ATOM     34  C   UNL     1      38.058   1.384 129.946  1.00  0.00     0.199 C 
ATOM     35  C   UNL     1      37.033   1.948 130.939  1.00  0.00     0.069 C 
ATOM     36  C   UNL     1      39.204   2.382 129.729  1.00  0.00     0.069 C 
BRANCH  34  37
ATOM     37  C   UNL     1      38.671   0.113 130.554  1.00  0.00     0.347 C 
ATOM     38  O   UNL     1      38.127  -0.678 131.312  1.00  0.00    -0.248 OA
BRANCH  37  39
ATOM     39  O   UNL     1      39.956  -0.101 130.187  1.00  0.00    -0.478 OA
ATOM     40  H   UNL     1      39.963   0.088 129.225  1.00  0.00     0.296 HD
ENDBRANCH  37  39
ENDBRANCH  34  37
ENDBRANCH  33  34
ENDBRANCH  32  33
ENDBRANCH  23  24
ENDBRANCH   1  23
TORSDOF 14
ENDMDL
