REMARK SMILES COc1csc(-c2ccc(OCCCOc3ccc4c(c3)CC[C@H]4CC(=O)O)cc2)n1
REMARK SMILES IDX 13 1 12 2 11 3 10 4 7 5 8 6 30 7 9 8 29 9 6 10 3 11 4 12
REMARK SMILES IDX 31 13 5 14 2 15 1 16 14 17 15 18 16 19 17 20 21 21 18 22
REMARK SMILES IDX 20 23 19 24 22 25 24 26 23 27 25 28 26 29 27 30 28 31
REMARK H PARENT 28 32
REMARK INDEX MAP 13 1 12 2 11 3 10 4 7 5 8 6 30 7 9 8 29 9 6 10 3 11 4 12
REMARK INDEX MAP 31 13 5 14 2 15 1 16 14 17 15 18 16 19 17 20 21 21 18 22
REMARK INDEX MAP 20 23 19 24 22 25 24 26 23 27 25 28 26 29 27 30 28 31 54 32
ROOT
ATOM      1  C   UNL     1      45.996 -41.278 106.690  1.00  0.00     0.083 C 
ENDROOT
BRANCH   1   2
ATOM      2  C   UNL     1      44.850 -41.064 107.673  1.00  0.00     0.233 C 
BRANCH   2   3
ATOM      3  O   UNL     1      44.400 -39.714 107.569  1.00  0.00    -0.493 OA
BRANCH   3   4
ATOM      4  C   UNL     1      43.143 -39.439 108.029  1.00  0.00     0.119 A 
ATOM      5  C   UNL     1      40.439 -38.907 108.704  1.00  0.00     0.011 A 
ATOM      6  C   UNL     1      40.808 -39.212 107.387  1.00  0.00     0.015 A 
ATOM      7  C   UNL     1      41.458 -38.875 109.672  1.00  0.00     0.015 A 
ATOM      8  C   UNL     1      42.144 -39.474 107.056  1.00  0.00     0.047 A 
ATOM      9  C   UNL     1      42.795 -39.136 109.342  1.00  0.00     0.047 A 
BRANCH   5  10
ATOM     10  C   UNL     1      39.049 -38.620 109.123  1.00  0.00     0.127 A 
ATOM     11  C   UNL     1      36.865 -38.256 108.956  1.00  0.00     0.224 A 
ATOM     12  C   UNL     1      36.989 -38.136 110.320  1.00  0.00     0.135 A 
ATOM     13  N   UNL     1      38.035 -38.529 108.280  1.00  0.00    -0.202 NA
ATOM     14  S   UNL     1      38.618 -38.374 110.777  1.00  0.00    -0.118 S 
BRANCH  11  15
ATOM     15  O   UNL     1      35.649 -38.103 108.381  1.00  0.00    -0.480 OA
ATOM     16  C   UNL     1      35.519 -36.846 107.730  1.00  0.00     0.280 C 
ENDBRANCH  11  15
ENDBRANCH   5  10
ENDBRANCH   3   4
ENDBRANCH   2   3
ENDBRANCH   1   2
BRANCH   1  17
ATOM     17  C   UNL     1      45.651 -42.313 105.622  1.00  0.00     0.233 C 
BRANCH  17  18
ATOM     18  O   UNL     1      44.263 -42.169 105.312  1.00  0.00    -0.493 OA
BRANCH  18  19
ATOM     19  C   UNL     1      43.951 -41.721 104.055  1.00  0.00     0.119 A 
ATOM     20  C   UNL     1      44.568 -42.437 103.015  1.00  0.00     0.047 A 
ATOM     21  C   UNL     1      43.096 -40.659 103.754  1.00  0.00     0.050 A 
ATOM     22  C   UNL     1      44.346 -42.108 101.674  1.00  0.00     0.008 A 
ATOM     23  C   UNL     1      42.892 -40.330 102.420  1.00  0.00    -0.041 A 
ATOM     24  C   UNL     1      43.510 -41.043 101.387  1.00  0.00    -0.041 A 
ATOM     25  C   UNL     1      41.996 -39.262 101.875  1.00  0.00     0.036 C 
ATOM     26  C   UNL     1      43.077 -40.514 100.042  1.00  0.00     0.031 C 
ATOM     27  C   UNL     1      42.546 -39.119 100.451  1.00  0.00     0.014 C 
BRANCH  26  28
ATOM     28  C   UNL     1      44.192 -40.443  99.000  1.00  0.00     0.131 C 
BRANCH  28  29
ATOM     29  C   UNL     1      44.011 -41.468  97.916  1.00  0.00     0.303 C 
ATOM     30  O   UNL     1      44.778 -42.359  97.598  1.00  0.00    -0.252 OA
BRANCH  29  31
ATOM     31  O   UNL     1      42.850 -41.298  97.253  1.00  0.00    -0.481 OA
ATOM     32  H   UNL     1      42.609 -41.909  96.512  1.00  0.00     0.296 HD
ENDBRANCH  29  31
ENDBRANCH  28  29
ENDBRANCH  26  28
ENDBRANCH  18  19
ENDBRANCH  17  18
ENDBRANCH   1  17
TORSDOF 11
