MODEL 1
REMARK VINA RESULT:    -8.072      0.000      0.000
REMARK INTER + INTRA:         -10.847
REMARK INTER:                 -10.195
REMARK INTRA:                  -0.652
REMARK UNBOUND:                -0.652
REMARK SMILES Nc1cc(C(F)(F)F)c(-c2cc(N3CCOCC3)nc(N3CCOCC3)n2)cn1
REMARK SMILES IDX 2 1 3 2 4 3 9 4 28 5 29 6 1 7 5 10 6 11 7 12 8 13 10 14
REMARK SMILES IDX 11 15 27 16 12 17 20 18 19 19 13 20 14 21 18 22 15 23 17 24
REMARK SMILES IDX 16 25 21 26 22 27 26 28 23 29 25 30 24 31
REMARK H PARENT 1 8 1 9
ROOT
ATOM      1  C   UNL     1      30.526  43.668  37.840  1.00  0.00     0.123 A 
ATOM      2  C   UNL     1      30.729  45.023  37.646  1.00  0.00     0.060 A 
ATOM      3  C   UNL     1      31.302  45.803  38.671  1.00  0.00     0.070 A 
ATOM      4  C   UNL     1      31.628  45.187  39.893  1.00  0.00     0.031 A 
ATOM      5  C   UNL     1      31.353  43.821  39.983  1.00  0.00     0.124 A 
ATOM      6  N   UNL     1      30.824  43.061  38.995  1.00  0.00    -0.239 NA
ENDROOT
BRANCH   1   7
ATOM      7  N   UNL     1      29.939  42.891  36.867  1.00  0.00    -0.384 N 
ATOM      8  H   UNL     1      29.198  43.283  36.307  1.00  0.00     0.158 HD
ATOM      9  H   UNL     1      30.593  42.267  36.410  1.00  0.00     0.158 HD
ENDBRANCH   1   7
BRANCH   3  10
ATOM     10  C   UNL     1      31.536  47.271  38.417  1.00  0.00     0.417 C 
ATOM     11  F   UNL     1      32.852  47.603  38.289  1.00  0.00    -0.166 F 
ATOM     12  F   UNL     1      30.963  47.689  37.247  1.00  0.00    -0.166 F 
ATOM     13  F   UNL     1      31.011  48.083  39.375  1.00  0.00    -0.166 F 
ENDBRANCH   3  10
BRANCH   4  14
ATOM     14  C   UNL     1      32.198  45.906  41.037  1.00  0.00     0.080 A 
ATOM     15  C   UNL     1      33.420  46.542  40.985  1.00  0.00     0.076 A 
ATOM     16  N   UNL     1      31.446  45.891  42.147  1.00  0.00    -0.213 NA
ATOM     17  C   UNL     1      33.855  47.172  42.131  1.00  0.00     0.134 A 
ATOM     18  C   UNL     1      31.920  46.506  43.237  1.00  0.00     0.228 A 
ATOM     19  N   UNL     1      33.108  47.128  43.248  1.00  0.00    -0.196 NA
BRANCH  17  20
ATOM     20  N   UNL     1      35.084  47.828  42.172  1.00  0.00    -0.352 N 
ATOM     21  C   UNL     1      35.247  48.982  43.072  1.00  0.00     0.146 C 
ATOM     22  C   UNL     1      36.277  46.965  42.072  1.00  0.00     0.146 C 
ATOM     23  C   UNL     1      36.555  49.725  42.761  1.00  0.00     0.181 C 
ATOM     24  C   UNL     1      37.531  47.811  41.809  1.00  0.00     0.181 C 
ATOM     25  O   UNL     1      37.688  48.846  42.792  1.00  0.00    -0.378 OA
ENDBRANCH  17  20
BRANCH  18  26
ATOM     26  N   UNL     1      31.162  46.488  44.392  1.00  0.00    -0.336 N 
ATOM     27  C   UNL     1      30.590  45.206  44.806  1.00  0.00     0.148 C 
ATOM     28  C   UNL     1      31.533  47.414  45.463  1.00  0.00     0.148 C 
ATOM     29  C   UNL     1      29.527  45.416  45.893  1.00  0.00     0.181 C 
ATOM     30  C   UNL     1      30.419  47.497  46.517  1.00  0.00     0.181 C 
ATOM     31  O   UNL     1      30.030  46.197  46.987  1.00  0.00    -0.378 OA
ENDBRANCH  18  26
ENDBRANCH   4  14
TORSDOF 5
ENDMDL
MODEL 2
REMARK VINA RESULT:    -8.043      0.768      4.849
REMARK INTER + INTRA:         -10.810
REMARK INTER:                 -10.315
REMARK INTRA:                  -0.496
REMARK UNBOUND:                -0.652
REMARK SMILES Nc1cc(C(F)(F)F)c(-c2cc(N3CCOCC3)nc(N3CCOCC3)n2)cn1
REMARK SMILES IDX 2 1 3 2 4 3 9 4 28 5 29 6 1 7 5 10 6 11 7 12 8 13 10 14
REMARK SMILES IDX 11 15 27 16 12 17 20 18 19 19 13 20 14 21 18 22 15 23 17 24
REMARK SMILES IDX 16 25 21 26 22 27 26 28 23 29 25 30 24 31
REMARK H PARENT 1 8 1 9
ROOT
ATOM      1  C   UNL     1      30.509  43.730  37.670  1.00  0.00     0.123 A 
ATOM      2  C   UNL     1      30.723  45.092  37.562  1.00  0.00     0.060 A 
ATOM      3  C   UNL     1      31.204  45.820  38.669  1.00  0.00     0.070 A 
ATOM      4  C   UNL     1      31.427  45.143  39.882  1.00  0.00     0.031 A 
ATOM      5  C   UNL     1      31.151  43.775  39.881  1.00  0.00     0.124 A 
ATOM      6  N   UNL     1      30.709  43.066  38.814  1.00  0.00    -0.239 NA
ENDROOT
BRANCH   1   7
ATOM      7  N   UNL     1      30.010  43.004  36.614  1.00  0.00    -0.384 N 
ATOM      8  H   UNL     1      29.378  42.240  36.798  1.00  0.00     0.158 HD
ATOM      9  H   UNL     1      29.836  43.568  35.791  1.00  0.00     0.158 HD
ENDBRANCH   1   7
BRANCH   3  10
ATOM     10  C   UNL     1      31.454  47.299  38.510  1.00  0.00     0.417 C 
ATOM     11  F   UNL     1      32.775  47.636  38.521  1.00  0.00    -0.166 F 
ATOM     12  F   UNL     1      30.990  47.774  37.314  1.00  0.00    -0.166 F 
ATOM     13  F   UNL     1      30.839  48.063  39.454  1.00  0.00    -0.166 F 
ENDBRANCH   3  10
BRANCH   4  14
ATOM     14  C   UNL     1      31.896  45.804  41.106  1.00  0.00     0.080 A 
ATOM     15  C   UNL     1      31.190  45.768  42.290  1.00  0.00     0.076 A 
ATOM     16  N   UNL     1      33.061  46.457  40.986  1.00  0.00    -0.213 NA
ATOM     17  C   UNL     1      31.727  46.439  43.367  1.00  0.00     0.134 A 
ATOM     18  C   UNL     1      33.532  47.104  42.059  1.00  0.00     0.228 A 
ATOM     19  N   UNL     1      32.881  47.115  43.231  1.00  0.00    -0.196 NA
BRANCH  17  20
ATOM     20  N   UNL     1      31.074  46.467  44.598  1.00  0.00    -0.352 N 
ATOM     21  C   UNL     1      30.550  45.208  45.155  1.00  0.00     0.146 C 
ATOM     22  C   UNL     1      31.638  47.386  45.604  1.00  0.00     0.146 C 
ATOM     23  C   UNL     1      29.632  45.493  46.354  1.00  0.00     0.181 C 
ATOM     24  C   UNL     1      30.663  47.561  46.777  1.00  0.00     0.181 C 
ATOM     25  O   UNL     1      30.285  46.298  47.346  1.00  0.00    -0.378 OA
ENDBRANCH  17  20
BRANCH  18  26
ATOM     26  N   UNL     1      34.724  47.793  41.947  1.00  0.00    -0.336 N 
ATOM     27  C   UNL     1      35.527  47.958  43.159  1.00  0.00     0.148 C 
ATOM     28  C   UNL     1      35.460  47.678  40.687  1.00  0.00     0.148 C 
ATOM     29  C   UNL     1      36.626  49.007  42.940  1.00  0.00     0.181 C 
ATOM     30  C   UNL     1      36.566  48.740  40.608  1.00  0.00     0.181 C 
ATOM     31  O   UNL     1      37.408  48.722  41.771  1.00  0.00    -0.378 OA
ENDBRANCH  18  26
ENDBRANCH   4  14
TORSDOF 5
ENDMDL
MODEL 3
REMARK VINA RESULT:    -7.383      3.148      7.114
REMARK INTER + INTRA:          -9.977
REMARK INTER:                  -9.295
REMARK INTRA:                  -0.681
REMARK UNBOUND:                -0.652
REMARK SMILES Nc1cc(C(F)(F)F)c(-c2cc(N3CCOCC3)nc(N3CCOCC3)n2)cn1
REMARK SMILES IDX 2 1 3 2 4 3 9 4 28 5 29 6 1 7 5 10 6 11 7 12 8 13 10 14
REMARK SMILES IDX 11 15 27 16 12 17 20 18 19 19 13 20 14 21 18 22 15 23 17 24
REMARK SMILES IDX 16 25 21 26 22 27 26 28 23 29 25 30 24 31
REMARK H PARENT 1 8 1 9
ROOT
ATOM      1  C   UNL     1      38.833  47.973  42.369  1.00  0.00     0.123 A 
ATOM      2  C   UNL     1      38.006  48.924  42.941  1.00  0.00     0.060 A 
ATOM      3  C   UNL     1      36.613  48.715  42.979  1.00  0.00     0.070 A 
ATOM      4  C   UNL     1      36.085  47.546  42.400  1.00  0.00     0.031 A 
ATOM      5  C   UNL     1      37.012  46.673  41.829  1.00  0.00     0.124 A 
ATOM      6  N   UNL     1      38.354  46.858  41.808  1.00  0.00    -0.239 NA
ENDROOT
BRANCH   1   7
ATOM      7  N   UNL     1      40.193  48.169  42.291  1.00  0.00    -0.384 N 
ATOM      8  H   UNL     1      40.617  48.896  42.846  1.00  0.00     0.158 HD
ATOM      9  H   UNL     1      40.711  47.308  42.172  1.00  0.00     0.158 HD
ENDBRANCH   1   7
BRANCH   3  10
ATOM     10  C   UNL     1      35.742  49.757  43.636  1.00  0.00     0.417 C 
ATOM     11  F   UNL     1      35.217  49.361  44.829  1.00  0.00    -0.166 F 
ATOM     12  F   UNL     1      36.438  50.898  43.931  1.00  0.00    -0.166 F 
ATOM     13  F   UNL     1      34.704  50.171  42.859  1.00  0.00    -0.166 F 
ENDBRANCH   3  10
BRANCH   4  14
ATOM     14  C   UNL     1      34.651  47.240  42.354  1.00  0.00     0.080 A 
ATOM     15  C   UNL     1      33.895  47.037  43.489  1.00  0.00     0.076 A 
ATOM     16  N   UNL     1      34.128  47.162  41.122  1.00  0.00    -0.213 NA
ATOM     17  C   UNL     1      32.560  46.742  43.315  1.00  0.00     0.134 A 
ATOM     18  C   UNL     1      32.830  46.859  41.008  1.00  0.00     0.228 A 
ATOM     19  N   UNL     1      32.050  46.637  42.075  1.00  0.00    -0.196 NA
BRANCH  17  20
ATOM     20  N   UNL     1      31.725  46.508  44.406  1.00  0.00    -0.352 N 
ATOM     21  C   UNL     1      31.386  47.630  45.297  1.00  0.00     0.146 C 
ATOM     22  C   UNL     1      30.617  45.561  44.176  1.00  0.00     0.146 C 
ATOM     23  C   UNL     1      30.704  47.114  46.575  1.00  0.00     0.181 C 
ATOM     24  C   UNL     1      29.978  45.149  45.510  1.00  0.00     0.181 C 
ATOM     25  O   UNL     1      29.567  46.292  46.277  1.00  0.00    -0.378 OA
ENDBRANCH  17  20
BRANCH  18  26
ATOM     26  N   UNL     1      32.280  46.762  39.744  1.00  0.00    -0.336 N 
ATOM     27  C   UNL     1      32.571  45.555  38.970  1.00  0.00     0.148 C 
ATOM     28  C   UNL     1      30.971  47.381  39.522  1.00  0.00     0.148 C 
ATOM     29  C   UNL     1      32.173  45.747  37.501  1.00  0.00     0.181 C 
ATOM     30  C   UNL     1      30.661  47.467  38.021  1.00  0.00     0.181 C 
ATOM     31  O   UNL     1      30.817  46.196  37.369  1.00  0.00    -0.378 OA
ENDBRANCH  18  26
ENDBRANCH   4  14
TORSDOF 5
ENDMDL
MODEL 4
REMARK VINA RESULT:    -7.321      2.973      7.325
REMARK INTER + INTRA:          -9.899
REMARK INTER:                  -9.063
REMARK INTRA:                  -0.836
REMARK UNBOUND:                -0.652
REMARK SMILES Nc1cc(C(F)(F)F)c(-c2cc(N3CCOCC3)nc(N3CCOCC3)n2)cn1
REMARK SMILES IDX 2 1 3 2 4 3 9 4 28 5 29 6 1 7 5 10 6 11 7 12 8 13 10 14
REMARK SMILES IDX 11 15 27 16 12 17 20 18 19 19 13 20 14 21 18 22 15 23 17 24
REMARK SMILES IDX 16 25 21 26 22 27 26 28 23 29 25 30 24 31
REMARK H PARENT 1 8 1 9
ROOT
ATOM      1  C   UNL     1      37.810  50.409  42.827  1.00  0.00     0.123 A 
ATOM      2  C   UNL     1      38.002  49.069  42.539  1.00  0.00     0.060 A 
ATOM      3  C   UNL     1      36.893  48.213  42.396  1.00  0.00     0.070 A 
ATOM      4  C   UNL     1      35.601  48.736  42.584  1.00  0.00     0.031 A 
ATOM      5  C   UNL     1      35.530  50.095  42.897  1.00  0.00     0.124 A 
ATOM      6  N   UNL     1      36.591  50.929  43.014  1.00  0.00    -0.239 NA
ENDROOT
BRANCH   1   7
ATOM      7  N   UNL     1      38.877  51.258  43.002  1.00  0.00    -0.384 N 
ATOM      8  H   UNL     1      39.706  51.129  42.442  1.00  0.00     0.158 HD
ATOM      9  H   UNL     1      38.598  52.209  43.212  1.00  0.00     0.158 HD
ENDBRANCH   1   7
BRANCH   3  10
ATOM     10  C   UNL     1      37.137  46.764  42.054  1.00  0.00     0.417 C 
ATOM     11  F   UNL     1      36.827  46.445  40.766  1.00  0.00    -0.166 F 
ATOM     12  F   UNL     1      38.454  46.419  42.184  1.00  0.00    -0.166 F 
ATOM     13  F   UNL     1      36.465  45.892  42.855  1.00  0.00    -0.166 F 
ENDBRANCH   3  10
BRANCH   4  14
ATOM     14  C   UNL     1      34.377  47.932  42.491  1.00  0.00     0.080 A 
ATOM     15  C   UNL     1      33.616  47.603  43.593  1.00  0.00     0.076 A 
ATOM     16  N   UNL     1      34.057  47.528  41.253  1.00  0.00    -0.213 NA
ATOM     17  C   UNL     1      32.496  46.830  43.379  1.00  0.00     0.134 A 
ATOM     18  C   UNL     1      32.966  46.769  41.102  1.00  0.00     0.228 A 
ATOM     19  N   UNL     1      32.197  46.406  42.139  1.00  0.00    -0.196 NA
BRANCH  17  20
ATOM     20  N   UNL     1      31.677  46.439  44.437  1.00  0.00    -0.352 N 
ATOM     21  C   UNL     1      31.339  47.425  45.478  1.00  0.00     0.146 C 
ATOM     22  C   UNL     1      30.575  45.521  44.092  1.00  0.00     0.146 C 
ATOM     23  C   UNL     1      30.677  46.731  46.679  1.00  0.00     0.181 C 
ATOM     24  C   UNL     1      29.956  44.923  45.364  1.00  0.00     0.181 C 
ATOM     25  O   UNL     1      29.544  45.946  46.284  1.00  0.00    -0.378 OA
ENDBRANCH  17  20
BRANCH  18  26
ATOM     26  N   UNL     1      32.631  46.334  39.834  1.00  0.00    -0.336 N 
ATOM     27  C   UNL     1      31.465  45.460  39.704  1.00  0.00     0.148 C 
ATOM     28  C   UNL     1      32.899  47.237  38.713  1.00  0.00     0.148 C 
ATOM     29  C   UNL     1      31.429  44.812  38.313  1.00  0.00     0.181 C 
ATOM     30  C   UNL     1      32.778  46.491  37.377  1.00  0.00     0.181 C 
ATOM     31  O   UNL     1      31.529  45.790  37.267  1.00  0.00    -0.378 OA
ENDBRANCH  18  26
ENDBRANCH   4  14
TORSDOF 5
ENDMDL
MODEL 5
REMARK VINA RESULT:    -7.281      2.934      6.406
REMARK INTER + INTRA:          -9.848
REMARK INTER:                  -9.122
REMARK INTRA:                  -0.726
REMARK UNBOUND:                -0.652
REMARK SMILES Nc1cc(C(F)(F)F)c(-c2cc(N3CCOCC3)nc(N3CCOCC3)n2)cn1
REMARK SMILES IDX 2 1 3 2 4 3 9 4 28 5 29 6 1 7 5 10 6 11 7 12 8 13 10 14
REMARK SMILES IDX 11 15 27 16 12 17 20 18 19 19 13 20 14 21 18 22 15 23 17 24
REMARK SMILES IDX 16 25 21 26 22 27 26 28 23 29 25 30 24 31
REMARK H PARENT 1 8 1 9
ROOT
ATOM      1  C   UNL     1      37.437  50.398  43.041  1.00  0.00     0.123 A 
ATOM      2  C   UNL     1      37.730  49.091  42.693  1.00  0.00     0.060 A 
ATOM      3  C   UNL     1      36.687  48.181  42.430  1.00  0.00     0.070 A 
ATOM      4  C   UNL     1      35.356  48.616  42.561  1.00  0.00     0.031 A 
ATOM      5  C   UNL     1      35.181  49.947  42.945  1.00  0.00     0.124 A 
ATOM      6  N   UNL     1      36.179  50.833  43.177  1.00  0.00    -0.239 NA
ENDROOT
BRANCH   1   7
ATOM      7  N   UNL     1      38.437  51.296  43.334  1.00  0.00    -0.384 N 
ATOM      8  H   UNL     1      38.491  51.686  44.262  1.00  0.00     0.158 HD
ATOM      9  H   UNL     1      39.308  51.088  42.861  1.00  0.00     0.158 HD
ENDBRANCH   1   7
BRANCH   3  10
ATOM     10  C   UNL     1      37.041  46.772  42.024  1.00  0.00     0.417 C 
ATOM     11  F   UNL     1      38.358  46.466  42.196  1.00  0.00    -0.166 F 
ATOM     12  F   UNL     1      36.373  45.839  42.769  1.00  0.00    -0.166 F 
ATOM     13  F   UNL     1      36.728  46.480  40.732  1.00  0.00    -0.166 F 
ENDBRANCH   3  10
BRANCH   4  14
ATOM     14  C   UNL     1      34.193  47.748  42.344  1.00  0.00     0.080 A 
ATOM     15  C   UNL     1      33.855  47.250  41.104  1.00  0.00     0.076 A 
ATOM     16  N   UNL     1      33.472  47.482  43.444  1.00  0.00    -0.213 NA
ATOM     17  C   UNL     1      32.731  46.457  41.026  1.00  0.00     0.134 A 
ATOM     18  C   UNL     1      32.383  46.717  43.311  1.00  0.00     0.228 A 
ATOM     19  N   UNL     1      31.998  46.217  42.128  1.00  0.00    -0.196 NA
BRANCH  17  20
ATOM     20  N   UNL     1      32.309  45.922  39.810  1.00  0.00    -0.352 N 
ATOM     21  C   UNL     1      31.174  44.984  39.800  1.00  0.00     0.146 C 
ATOM     22  C   UNL     1      32.344  46.841  38.657  1.00  0.00     0.146 C 
ATOM     23  C   UNL     1      31.053  44.301  38.428  1.00  0.00     0.181 C 
ATOM     24  C   UNL     1      32.168  46.063  37.345  1.00  0.00     0.181 C 
ATOM     25  O   UNL     1      30.979  45.258  37.362  1.00  0.00    -0.378 OA
ENDBRANCH  17  20
BRANCH  18  26
ATOM     26  N   UNL     1      31.623  46.444  44.432  1.00  0.00    -0.336 N 
ATOM     27  C   UNL     1      31.289  47.564  45.312  1.00  0.00     0.148 C 
ATOM     28  C   UNL     1      30.633  45.369  44.339  1.00  0.00     0.148 C 
ATOM     29  C   UNL     1      30.742  47.053  46.652  1.00  0.00     0.181 C 
ATOM     30  C   UNL     1      30.119  44.984  45.733  1.00  0.00     0.181 C 
ATOM     31  O   UNL     1      29.659  46.129  46.468  1.00  0.00    -0.378 OA
ENDBRANCH  18  26
ENDBRANCH   4  14
TORSDOF 5
ENDMDL
MODEL 6
REMARK VINA RESULT:    -6.923      2.992      6.223
REMARK INTER + INTRA:          -9.397
REMARK INTER:                  -8.864
REMARK INTRA:                  -0.533
REMARK UNBOUND:                -0.652
REMARK SMILES Nc1cc(C(F)(F)F)c(-c2cc(N3CCOCC3)nc(N3CCOCC3)n2)cn1
REMARK SMILES IDX 2 1 3 2 4 3 9 4 28 5 29 6 1 7 5 10 6 11 7 12 8 13 10 14
REMARK SMILES IDX 11 15 27 16 12 17 20 18 19 19 13 20 14 21 18 22 15 23 17 24
REMARK SMILES IDX 16 25 21 26 22 27 26 28 23 29 25 30 24 31
REMARK H PARENT 1 8 1 9
ROOT
ATOM      1  C   UNL     1      38.465  48.403  42.689  1.00  0.00     0.123 A 
ATOM      2  C   UNL     1      37.497  49.236  43.220  1.00  0.00     0.060 A 
ATOM      3  C   UNL     1      36.138  48.869  43.157  1.00  0.00     0.070 A 
ATOM      4  C   UNL     1      35.789  47.664  42.519  1.00  0.00     0.031 A 
ATOM      5  C   UNL     1      36.847  46.918  41.997  1.00  0.00     0.124 A 
ATOM      6  N   UNL     1      38.157  47.255  42.074  1.00  0.00    -0.239 NA
ENDROOT
BRANCH   1   7
ATOM      7  N   UNL     1      39.795  48.755  42.710  1.00  0.00    -0.384 N 
ATOM      8  H   UNL     1      40.482  48.099  42.372  1.00  0.00     0.158 HD
ATOM      9  H   UNL     1      39.948  49.737  42.516  1.00  0.00     0.158 HD
ENDBRANCH   1   7
BRANCH   3  10
ATOM     10  C   UNL     1      35.110  49.786  43.771  1.00  0.00     0.417 C 
ATOM     11  F   UNL     1      34.594  49.325  44.944  1.00  0.00    -0.166 F 
ATOM     12  F   UNL     1      35.635  51.010  44.085  1.00  0.00    -0.166 F 
ATOM     13  F   UNL     1      34.058  50.056  42.950  1.00  0.00    -0.166 F 
ENDBRANCH   3  10
BRANCH   4  14
ATOM     14  C   UNL     1      34.406  47.197  42.367  1.00  0.00     0.080 A 
ATOM     15  C   UNL     1      33.831  46.959  41.137  1.00  0.00     0.076 A 
ATOM     16  N   UNL     1      33.736  47.028  43.516  1.00  0.00    -0.213 NA
ATOM     17  C   UNL     1      32.519  46.537  41.124  1.00  0.00     0.134 A 
ATOM     18  C   UNL     1      32.461  46.628  43.447  1.00  0.00     0.228 A 
ATOM     19  N   UNL     1      31.845  46.396  42.279  1.00  0.00    -0.196 NA
BRANCH  17  20
ATOM     20  N   UNL     1      31.855  46.286  39.924  1.00  0.00    -0.352 N 
ATOM     21  C   UNL     1      31.711  47.379  38.947  1.00  0.00     0.146 C 
ATOM     22  C   UNL     1      32.095  44.962  39.321  1.00  0.00     0.146 C 
ATOM     23  C   UNL     1      30.718  46.984  37.843  1.00  0.00     0.181 C 
ATOM     24  C   UNL     1      31.081  44.690  38.201  1.00  0.00     0.181 C 
ATOM     25  O   UNL     1      31.077  45.741  37.222  1.00  0.00    -0.378 OA
ENDBRANCH  17  20
BRANCH  18  26
ATOM     26  N   UNL     1      31.753  46.462  44.622  1.00  0.00    -0.336 N 
ATOM     27  C   UNL     1      31.515  47.649  45.442  1.00  0.00     0.148 C 
ATOM     28  C   UNL     1      30.716  45.429  44.651  1.00  0.00     0.148 C 
ATOM     29  C   UNL     1      31.021  47.249  46.840  1.00  0.00     0.181 C 
ATOM     30  C   UNL     1      30.263  45.156  46.092  1.00  0.00     0.181 C 
ATOM     31  O   UNL     1      29.893  46.365  46.774  1.00  0.00    -0.378 OA
ENDBRANCH  18  26
ENDBRANCH   4  14
TORSDOF 5
ENDMDL
MODEL 7
REMARK VINA RESULT:    -6.912      2.329      5.161
REMARK INTER + INTRA:          -9.382
REMARK INTER:                  -8.850
REMARK INTRA:                  -0.532
REMARK UNBOUND:                -0.652
REMARK SMILES Nc1cc(C(F)(F)F)c(-c2cc(N3CCOCC3)nc(N3CCOCC3)n2)cn1
REMARK SMILES IDX 2 1 3 2 4 3 9 4 28 5 29 6 1 7 5 10 6 11 7 12 8 13 10 14
REMARK SMILES IDX 11 15 27 16 12 17 20 18 19 19 13 20 14 21 18 22 15 23 17 24
REMARK SMILES IDX 16 25 21 26 22 27 26 28 23 29 25 30 24 31
REMARK H PARENT 1 8 1 9
ROOT
ATOM      1  C   UNL     1      34.194  46.127  37.420  1.00  0.00     0.123 A 
ATOM      2  C   UNL     1      32.868  46.372  37.734  1.00  0.00     0.060 A 
ATOM      3  C   UNL     1      32.500  46.652  39.064  1.00  0.00     0.070 A 
ATOM      4  C   UNL     1      33.493  46.646  40.061  1.00  0.00     0.031 A 
ATOM      5  C   UNL     1      34.790  46.360  39.631  1.00  0.00     0.124 A 
ATOM      6  N   UNL     1      35.155  46.111  38.350  1.00  0.00    -0.239 NA
ENDROOT
BRANCH   1   7
ATOM      7  N   UNL     1      34.573  45.819  36.134  1.00  0.00    -0.384 N 
ATOM      8  H   UNL     1      34.034  45.147  35.610  1.00  0.00     0.158 HD
ATOM      9  H   UNL     1      34.949  46.614  35.630  1.00  0.00     0.158 HD
ENDBRANCH   1   7
BRANCH   3  10
ATOM     10  C   UNL     1      31.051  46.943  39.369  1.00  0.00     0.417 C 
ATOM     11  F   UNL     1      30.862  48.069  40.112  1.00  0.00    -0.166 F 
ATOM     12  F   UNL     1      30.320  47.156  38.232  1.00  0.00    -0.166 F 
ATOM     13  F   UNL     1      30.413  45.927  40.012  1.00  0.00    -0.166 F 
ENDBRANCH   3  10
BRANCH   4  14
ATOM     14  C   UNL     1      33.220  46.893  41.481  1.00  0.00     0.080 A 
ATOM     15  C   UNL     1      32.298  46.163  42.201  1.00  0.00     0.076 A 
ATOM     16  N   UNL     1      33.928  47.892  42.029  1.00  0.00    -0.213 NA
ATOM     17  C   UNL     1      32.121  46.499  43.525  1.00  0.00     0.134 A 
ATOM     18  C   UNL     1      33.708  48.186  43.315  1.00  0.00     0.228 A 
ATOM     19  N   UNL     1      32.814  47.520  44.060  1.00  0.00    -0.196 NA
BRANCH  17  20
ATOM     20  N   UNL     1      31.199  45.824  44.324  1.00  0.00    -0.352 N 
ATOM     21  C   UNL     1      30.988  46.278  45.708  1.00  0.00     0.146 C 
ATOM     22  C   UNL     1      29.974  45.364  43.643  1.00  0.00     0.146 C 
ATOM     23  C   UNL     1      30.164  45.245  46.493  1.00  0.00     0.181 C 
ATOM     24  C   UNL     1      29.205  44.376  44.532  1.00  0.00     0.181 C 
ATOM     25  O   UNL     1      28.932  44.930  45.828  1.00  0.00    -0.378 OA
ENDBRANCH  17  20
BRANCH  18  26
ATOM     26  N   UNL     1      34.421  49.221  43.890  1.00  0.00    -0.336 N 
ATOM     27  C   UNL     1      34.549  49.227  45.347  1.00  0.00     0.148 C 
ATOM     28  C   UNL     1      35.544  49.776  43.133  1.00  0.00     0.148 C 
ATOM     29  C   UNL     1      35.067  50.587  45.837  1.00  0.00     0.181 C 
ATOM     30  C   UNL     1      36.010  51.103  43.749  1.00  0.00     0.181 C 
ATOM     31  O   UNL     1      36.269  50.976  45.156  1.00  0.00    -0.378 OA
ENDBRANCH  18  26
ENDBRANCH   4  14
TORSDOF 5
ENDMDL
MODEL 8
REMARK VINA RESULT:    -6.868      3.240      5.899
REMARK INTER + INTRA:          -9.327
REMARK INTER:                  -8.793
REMARK INTRA:                  -0.534
REMARK UNBOUND:                -0.652
REMARK SMILES Nc1cc(C(F)(F)F)c(-c2cc(N3CCOCC3)nc(N3CCOCC3)n2)cn1
REMARK SMILES IDX 2 1 3 2 4 3 9 4 28 5 29 6 1 7 5 10 6 11 7 12 8 13 10 14
REMARK SMILES IDX 11 15 27 16 12 17 20 18 19 19 13 20 14 21 18 22 15 23 17 24
REMARK SMILES IDX 16 25 21 26 22 27 26 28 23 29 25 30 24 31
REMARK H PARENT 1 8 1 9
ROOT
ATOM      1  C   UNL     1      34.898  46.477  38.021  1.00  0.00     0.123 A 
ATOM      2  C   UNL     1      35.895  46.420  38.978  1.00  0.00     0.060 A 
ATOM      3  C   UNL     1      35.592  46.686  40.328  1.00  0.00     0.070 A 
ATOM      4  C   UNL     1      34.275  47.040  40.672  1.00  0.00     0.031 A 
ATOM      5  C   UNL     1      33.360  47.093  39.619  1.00  0.00     0.124 A 
ATOM      6  N   UNL     1      33.639  46.816  38.323  1.00  0.00    -0.239 NA
ENDROOT
BRANCH   1   7
ATOM      7  N   UNL     1      35.175  46.252  36.692  1.00  0.00    -0.384 N 
ATOM      8  H   UNL     1      35.354  45.310  36.380  1.00  0.00     0.158 HD
ATOM      9  H   UNL     1      34.657  46.862  36.070  1.00  0.00     0.158 HD
ENDBRANCH   1   7
BRANCH   3  10
ATOM     10  C   UNL     1      36.697  46.587  41.351  1.00  0.00     0.417 C 
ATOM     11  F   UNL     1      37.812  45.952  40.894  1.00  0.00    -0.166 F 
ATOM     12  F   UNL     1      37.142  47.818  41.748  1.00  0.00    -0.166 F 
ATOM     13  F   UNL     1      36.323  45.961  42.500  1.00  0.00    -0.166 F 
ENDBRANCH   3  10
BRANCH   4  14
ATOM     14  C   UNL     1      33.853  47.369  42.038  1.00  0.00     0.080 A 
ATOM     15  C   UNL     1      32.871  46.668  42.705  1.00  0.00     0.076 A 
ATOM     16  N   UNL     1      34.488  48.413  42.591  1.00  0.00    -0.213 NA
ATOM     17  C   UNL     1      32.553  47.082  43.980  1.00  0.00     0.134 A 
ATOM     18  C   UNL     1      34.132  48.783  43.827  1.00  0.00     0.228 A 
ATOM     19  N   UNL     1      33.174  48.147  44.517  1.00  0.00    -0.196 NA
BRANCH  17  20
ATOM     20  N   UNL     1      31.563  46.439  44.722  1.00  0.00    -0.352 N 
ATOM     21  C   UNL     1      31.150  47.018  46.011  1.00  0.00     0.146 C 
ATOM     22  C   UNL     1      30.460  45.846  43.942  1.00  0.00     0.146 C 
ATOM     23  C   UNL     1      30.273  46.024  46.789  1.00  0.00     0.181 C 
ATOM     24  C   UNL     1      29.622  44.910  44.826  1.00  0.00     0.181 C 
ATOM     25  O   UNL     1      29.156  45.575  46.010  1.00  0.00    -0.378 OA
ENDBRANCH  17  20
BRANCH  18  26
ATOM     26  N   UNL     1      34.768  49.865  44.404  1.00  0.00    -0.336 N 
ATOM     27  C   UNL     1      34.856  49.899  45.864  1.00  0.00     0.148 C 
ATOM     28  C   UNL     1      35.878  50.474  43.668  1.00  0.00     0.148 C 
ATOM     29  C   UNL     1      35.281  51.293  46.346  1.00  0.00     0.181 C 
ATOM     30  C   UNL     1      36.249  51.834  44.276  1.00  0.00     0.181 C 
ATOM     31  O   UNL     1      36.477  51.742  45.691  1.00  0.00    -0.378 OA
ENDBRANCH  18  26
ENDBRANCH   4  14
TORSDOF 5
ENDMDL
MODEL 9
REMARK VINA RESULT:    -6.745      3.191      5.139
REMARK INTER + INTRA:          -9.171
REMARK INTER:                  -9.915
REMARK INTRA:                   0.744
REMARK UNBOUND:                -0.652
REMARK SMILES Nc1cc(C(F)(F)F)c(-c2cc(N3CCOCC3)nc(N3CCOCC3)n2)cn1
REMARK SMILES IDX 2 1 3 2 4 3 9 4 28 5 29 6 1 7 5 10 6 11 7 12 8 13 10 14
REMARK SMILES IDX 11 15 27 16 12 17 20 18 19 19 13 20 14 21 18 22 15 23 17 24
REMARK SMILES IDX 16 25 21 26 22 27 26 28 23 29 25 30 24 31
REMARK H PARENT 1 8 1 9
ROOT
ATOM      1  C   UNL     1      29.446  44.777  45.024  1.00  0.00     0.123 A 
ATOM      2  C   UNL     1      29.559  44.663  43.650  1.00  0.00     0.060 A 
ATOM      3  C   UNL     1      30.602  45.325  42.972  1.00  0.00     0.070 A 
ATOM      4  C   UNL     1      31.495  46.122  43.710  1.00  0.00     0.031 A 
ATOM      5  C   UNL     1      31.268  46.184  45.086  1.00  0.00     0.124 A 
ATOM      6  N   UNL     1      30.280  45.533  45.747  1.00  0.00    -0.239 NA
ENDROOT
BRANCH   1   7
ATOM      7  N   UNL     1      28.418  44.167  45.705  1.00  0.00    -0.384 N 
ATOM      8  H   UNL     1      28.004  44.638  46.494  1.00  0.00     0.158 HD
ATOM      9  H   UNL     1      27.804  43.634  45.102  1.00  0.00     0.158 HD
ENDBRANCH   1   7
BRANCH   3  10
ATOM     10  C   UNL     1      30.714  45.157  41.477  1.00  0.00     0.417 C 
ATOM     11  F   UNL     1      31.899  44.620  41.072  1.00  0.00    -0.166 F 
ATOM     12  F   UNL     1      29.766  44.304  40.982  1.00  0.00    -0.166 F 
ATOM     13  F   UNL     1      30.542  46.315  40.782  1.00  0.00    -0.166 F 
ENDBRANCH   3  10
BRANCH   4  14
ATOM     14  C   UNL     1      32.597  46.880  43.106  1.00  0.00     0.080 A 
ATOM     15  C   UNL     1      33.102  46.594  41.856  1.00  0.00     0.076 A 
ATOM     16  N   UNL     1      33.086  47.871  43.866  1.00  0.00    -0.213 NA
ATOM     17  C   UNL     1      34.147  47.369  41.403  1.00  0.00     0.134 A 
ATOM     18  C   UNL     1      34.109  48.586  43.385  1.00  0.00     0.228 A 
ATOM     19  N   UNL     1      34.651  48.342  42.182  1.00  0.00    -0.196 NA
BRANCH  17  20
ATOM     20  N   UNL     1      34.728  47.140  40.157  1.00  0.00    -0.352 N 
ATOM     21  C   UNL     1      33.855  46.993  38.980  1.00  0.00     0.146 C 
ATOM     22  C   UNL     1      35.986  47.863  39.891  1.00  0.00     0.146 C 
ATOM     23  C   UNL     1      34.657  46.471  37.778  1.00  0.00     0.181 C 
ATOM     24  C   UNL     1      36.680  47.294  38.646  1.00  0.00     0.181 C 
ATOM     25  O   UNL     1      35.805  47.288  37.507  1.00  0.00    -0.378 OA
ENDBRANCH  17  20
BRANCH  18  26
ATOM     26  N   UNL     1      34.633  49.601  44.162  1.00  0.00    -0.336 N 
ATOM     27  C   UNL     1      34.710  49.378  45.606  1.00  0.00     0.148 C 
ATOM     28  C   UNL     1      35.681  50.437  43.573  1.00  0.00     0.148 C 
ATOM     29  C   UNL     1      34.994  50.695  46.341  1.00  0.00     0.181 C 
ATOM     30  C   UNL     1      35.915  51.693  44.424  1.00  0.00     0.181 C 
ATOM     31  O   UNL     1      36.143  51.368  45.805  1.00  0.00    -0.378 OA
ENDBRANCH  18  26
ENDBRANCH   4  14
TORSDOF 5
ENDMDL
