MODEL 1
REMARK VINA RESULT:    -6.679      0.000      0.000
REMARK INTER + INTRA:         -13.578
REMARK INTER:                 -12.536
REMARK INTRA:                  -1.043
REMARK UNBOUND:                -1.043
REMARK SMILES CN(CCC1CCCCCC1)Cc1c[nH]c2c(OC(=O)N(C)N(C)C)cccc12
REMARK SMILES IDX 1 1 2 2 3 3 4 4 5 5 6 6 7 7 8 8 11 10 10 11 9 12 12 14 13 15
REMARK SMILES IDX 14 16 29 17 15 18 28 19 16 20 27 21 17 22 26 23 18 25 19 26
REMARK SMILES IDX 20 27 21 28 22 29 23 30 24 31 25 32
REMARK H PARENT 15 24
REMARK Flexibility Score:   47.900
ROOT
ATOM      1  C   UNL     1     131.017 115.530  43.623  1.00  0.00     0.105 C 
ATOM      2  N   UNL     1     131.780 114.985  42.491  1.00  0.00    -0.302 NA
ENDROOT
BRANCH   2   3
ATOM      3  C   UNL     1     133.100 115.638  42.441  1.00  0.00     0.085 C 
BRANCH   3   4
ATOM      4  C   UNL     1     133.104 117.123  42.031  1.00  0.00     0.019 C 
BRANCH   4   5
ATOM      5  C   UNL     1     133.367 117.433  40.535  1.00  0.00    -0.010 C 
BRANCH   5   6
ATOM      6  C   UNL     1     134.160 116.253  39.941  1.00  0.00     0.003 C 
BRANCH   6   7
ATOM      7  C   UNL     1     133.844 115.893  38.489  1.00  0.00     0.000 C 
BRANCH   7   8
ATOM      8  C   UNL     1     134.449 116.878  37.496  1.00  0.00     0.000 CG0
ATOM      9  G   UNL     1     134.200 118.347  37.817  1.00  0.00     0.000 G0
ENDBRANCH   7   8
ENDBRANCH   6   7
ENDBRANCH   5   6
BRANCH   5  10
ATOM     10  C   UNL     1     134.055 118.797  40.342  1.00  0.00     0.003 C 
BRANCH  10  11
ATOM     11  C   UNL     1     134.892 118.874  39.065  1.00  0.00     0.000 C 
BRANCH  11  12
ATOM     12  C   UNL     1     134.212 118.348  37.807  1.00  0.00     0.000 CG0
ATOM     13  G   UNL     1     134.442 116.880  37.466  1.00  0.00     0.000 G0
ENDBRANCH  11  12
ENDBRANCH  10  11
ENDBRANCH   5  10
ENDBRANCH   4   5
ENDBRANCH   3   4
ENDBRANCH   2   3
BRANCH   2  14
ATOM     14  C   UNL     1     131.902 113.518  42.590  1.00  0.00     0.122 C 
BRANCH  14  15
ATOM     15  C   UNL     1     132.743 112.933  41.489  1.00  0.00    -0.008 A 
ATOM     16  C   UNL     1     132.392 112.886  40.153  1.00  0.00     0.088 A 
ATOM     17  C   UNL     1     134.020 112.280  41.593  1.00  0.00     0.008 A 
ATOM     18  N   UNL     1     133.383 112.242  39.467  1.00  0.00    -0.358 N 
ATOM     19  C   UNL     1     134.893 112.008  42.672  1.00  0.00     0.011 A 
ATOM     20  C   UNL     1     134.399 111.867  40.311  1.00  0.00     0.089 A 
ATOM     21  C   UNL     1     136.109 111.356  42.445  1.00  0.00     0.005 A 
ATOM     22  C   UNL     1     135.613 111.206  40.075  1.00  0.00     0.156 A 
ATOM     23  C   UNL     1     136.466 110.963  41.159  1.00  0.00     0.049 A 
ATOM     24  H   UNL     1     133.381 112.041  38.472  1.00  0.00     0.166 HD
BRANCH  22  25
ATOM     25  O   UNL     1     136.133 110.745  38.813  1.00  0.00    -0.407 OA
BRANCH  25  26
ATOM     26  C   UNL     1     136.334 111.462  37.624  1.00  0.00     0.429 C 
ATOM     27  O   UNL     1     135.433 111.741  36.837  1.00  0.00    -0.222 OA
BRANCH  26  28
ATOM     28  N   UNL     1     137.683 111.805  37.452  1.00  0.00    -0.244 N 
ATOM     29  C   UNL     1     138.650 110.866  36.907  1.00  0.00     0.172 C 
BRANCH  28  30
ATOM     30  N   UNL     1     138.183 113.111  37.744  1.00  0.00    -0.222 NA
ATOM     31  C   UNL     1     139.464 113.082  38.453  1.00  0.00     0.131 C 
ATOM     32  C   UNL     1     137.202 113.945  38.439  1.00  0.00     0.131 C 
ENDBRANCH  28  30
ENDBRANCH  26  28
ENDBRANCH  25  26
ENDBRANCH  22  25
ENDBRANCH  14  15
ENDBRANCH   2  14
TORSDOF 9
ENDMDL
MODEL 2
REMARK VINA RESULT:    -6.563      1.915      2.294
REMARK INTER + INTRA:         -13.360
REMARK INTER:                 -12.202
REMARK INTRA:                  -1.159
REMARK UNBOUND:                -1.043
REMARK SMILES CN(CCC1CCCCCC1)Cc1c[nH]c2c(OC(=O)N(C)N(C)C)cccc12
REMARK SMILES IDX 1 1 2 2 3 3 4 4 5 5 6 6 7 7 8 8 11 10 10 11 9 12 12 14 13 15
REMARK SMILES IDX 14 16 29 17 15 18 28 19 16 20 27 21 17 22 26 23 18 25 19 26
REMARK SMILES IDX 20 27 21 28 22 29 23 30 24 31 25 32
REMARK H PARENT 15 24
REMARK Flexibility Score:   47.900
ROOT
ATOM      1  C   UNL     1     131.225 114.668  44.140  1.00  0.00     0.105 C 
ATOM      2  N   UNL     1     132.342 114.560  43.191  1.00  0.00    -0.302 NA
ENDROOT
BRANCH   2   3
ATOM      3  C   UNL     1     133.062 115.845  43.147  1.00  0.00     0.085 C 
BRANCH   3   4
ATOM      4  C   UNL     1     132.754 116.752  41.941  1.00  0.00     0.019 C 
BRANCH   4   5
ATOM      5  C   UNL     1     133.588 116.510  40.656  1.00  0.00    -0.010 C 
BRANCH   5   6
ATOM      6  C   UNL     1     134.937 115.896  41.077  1.00  0.00     0.003 C 
BRANCH   6   7
ATOM      7  C   UNL     1     136.111 116.137  40.127  1.00  0.00     0.000 C 
BRANCH   7   8
ATOM      8  C   UNL     1     136.869 117.420  40.447  1.00  0.00     0.000 CG0
ATOM      9  G   UNL     1     136.159 118.704  40.034  1.00  0.00     0.000 G0
ENDBRANCH   7   8
ENDBRANCH   6   7
ENDBRANCH   5   6
BRANCH   5  10
ATOM     10  C   UNL     1     133.730 117.791  39.813  1.00  0.00     0.003 C 
BRANCH  10  11
ATOM     11  C   UNL     1     134.673 118.820  40.436  1.00  0.00     0.000 C 
BRANCH  11  12
ATOM     12  C   UNL     1     136.134 118.703  40.019  1.00  0.00     0.000 CG0
ATOM     13  G   UNL     1     136.870 117.440  40.450  1.00  0.00     0.000 G0
ENDBRANCH  11  12
ENDBRANCH  10  11
ENDBRANCH   5  10
ENDBRANCH   4   5
ENDBRANCH   3   4
ENDBRANCH   2   3
BRANCH   2  14
ATOM     14  C   UNL     1     133.239 113.445  43.550  1.00  0.00     0.122 C 
BRANCH  14  15
ATOM     15  C   UNL     1     133.665 112.639  42.354  1.00  0.00    -0.008 A 
ATOM     16  C   UNL     1     133.011 112.608  41.136  1.00  0.00     0.088 A 
ATOM     17  C   UNL     1     134.772 111.728  42.240  1.00  0.00     0.008 A 
ATOM     18  N   UNL     1     133.663 111.731  40.316  1.00  0.00    -0.358 N 
ATOM     19  C   UNL     1     135.798 111.322  43.124  1.00  0.00     0.011 A 
ATOM     20  C   UNL     1     134.751 111.183  40.951  1.00  0.00     0.089 A 
ATOM     21  C   UNL     1     136.769 110.410  42.703  1.00  0.00     0.005 A 
ATOM     22  C   UNL     1     135.716 110.261  40.522  1.00  0.00     0.156 A 
ATOM     23  C   UNL     1     136.730 109.888  41.414  1.00  0.00     0.049 A 
ATOM     24  H   UNL     1     133.390 111.488  39.369  1.00  0.00     0.166 HD
BRANCH  22  25
ATOM     25  O   UNL     1     135.824 109.639  39.227  1.00  0.00    -0.407 OA
BRANCH  25  26
ATOM     26  C   UNL     1     136.704 109.932  38.175  1.00  0.00     0.429 C 
ATOM     27  O   UNL     1     137.923 109.803  38.250  1.00  0.00    -0.222 OA
BRANCH  26  28
ATOM     28  N   UNL     1     136.016 110.395  37.043  1.00  0.00    -0.244 N 
ATOM     29  C   UNL     1     136.191 109.782  35.736  1.00  0.00     0.172 C 
BRANCH  28  30
ATOM     30  N   UNL     1     135.059 111.454  37.108  1.00  0.00    -0.222 NA
ATOM     31  C   UNL     1     134.201 111.517  35.924  1.00  0.00     0.131 C 
ATOM     32  C   UNL     1     135.676 112.750  37.396  1.00  0.00     0.131 C 
ENDBRANCH  28  30
ENDBRANCH  26  28
ENDBRANCH  25  26
ENDBRANCH  22  25
ENDBRANCH  14  15
ENDBRANCH   2  14
TORSDOF 9
ENDMDL
MODEL 3
REMARK VINA RESULT:    -6.546      1.309      2.009
REMARK INTER + INTRA:         -13.328
REMARK INTER:                 -12.558
REMARK INTRA:                  -0.771
REMARK UNBOUND:                -1.043
REMARK SMILES CN(CCC1CCCCCC1)Cc1c[nH]c2c(OC(=O)N(C)N(C)C)cccc12
REMARK SMILES IDX 1 1 2 2 3 3 4 4 5 5 6 6 7 7 8 8 11 10 10 11 9 12 12 14 13 15
REMARK SMILES IDX 14 16 29 17 15 18 28 19 16 20 27 21 17 22 26 23 18 25 19 26
REMARK SMILES IDX 20 27 21 28 22 29 23 30 24 31 25 32
REMARK H PARENT 15 24
REMARK Flexibility Score:   47.900
ROOT
ATOM      1  C   UNL     1     131.283 114.206  43.341  1.00  0.00     0.105 C 
ATOM      2  N   UNL     1     132.617 114.373  42.746  1.00  0.00    -0.302 NA
ENDROOT
BRANCH   2   3
ATOM      3  C   UNL     1     133.128 115.714  43.080  1.00  0.00     0.085 C 
BRANCH   3   4
ATOM      4  C   UNL     1     132.789 116.835  42.080  1.00  0.00     0.019 C 
BRANCH   4   5
ATOM      5  C   UNL     1     133.821 117.101  40.954  1.00  0.00    -0.010 C 
BRANCH   5   6
ATOM      6  C   UNL     1     133.711 118.585  40.553  1.00  0.00     0.003 C 
BRANCH   6   7
ATOM      7  C   UNL     1     134.724 119.079  39.520  1.00  0.00     0.000 C 
BRANCH   7   8
ATOM      8  C   UNL     1     134.239 118.892  38.087  1.00  0.00     0.000 CG0
ATOM      9  G   UNL     1     134.190 117.445  37.611  1.00  0.00     0.000 G0
ENDBRANCH   7   8
ENDBRANCH   6   7
ENDBRANCH   5   6
BRANCH   5  10
ATOM     10  C   UNL     1     133.646 116.129  39.772  1.00  0.00     0.003 C 
BRANCH  10  11
ATOM     11  C   UNL     1     134.635 116.381  38.634  1.00  0.00     0.000 C 
BRANCH  11  12
ATOM     12  C   UNL     1     134.200 117.423  37.611  1.00  0.00     0.000 CG0
ATOM     13  G   UNL     1     134.230 118.879  38.060  1.00  0.00     0.000 G0
ENDBRANCH  11  12
ENDBRANCH  10  11
ENDBRANCH   5  10
ENDBRANCH   4   5
ENDBRANCH   3   4
ENDBRANCH   2   3
BRANCH   2  14
ATOM     14  C   UNL     1     133.536 113.312  43.198  1.00  0.00     0.122 C 
BRANCH  14  15
ATOM     15  C   UNL     1     134.034 112.458  42.064  1.00  0.00    -0.008 A 
ATOM     16  C   UNL     1     133.483 112.410  40.797  1.00  0.00     0.088 A 
ATOM     17  C   UNL     1     135.117 111.512  42.068  1.00  0.00     0.008 A 
ATOM     18  N   UNL     1     134.173 111.491  40.058  1.00  0.00    -0.358 N 
ATOM     19  C   UNL     1     136.053 111.103  43.045  1.00  0.00     0.011 A 
ATOM     20  C   UNL     1     135.186 110.930  40.797  1.00  0.00     0.089 A 
ATOM     21  C   UNL     1     137.027 110.150  42.731  1.00  0.00     0.005 A 
ATOM     22  C   UNL     1     136.154 109.968  40.475  1.00  0.00     0.156 A 
ATOM     23  C   UNL     1     137.078 109.592  41.458  1.00  0.00     0.049 A 
ATOM     24  H   UNL     1     133.971 111.229  39.099  1.00  0.00     0.166 HD
BRANCH  22  25
ATOM     25  O   UNL     1     136.349 109.306  39.211  1.00  0.00    -0.407 OA
BRANCH  25  26
ATOM     26  C   UNL     1     136.582 109.864  37.945  1.00  0.00     0.429 C 
ATOM     27  O   UNL     1     135.739 110.493  37.313  1.00  0.00    -0.222 OA
BRANCH  26  28
ATOM     28  N   UNL     1     137.888 109.604  37.501  1.00  0.00    -0.244 N 
ATOM     29  C   UNL     1     138.641 108.450  37.965  1.00  0.00     0.172 C 
BRANCH  28  30
ATOM     30  N   UNL     1     138.540 110.419  36.525  1.00  0.00    -0.222 NA
ATOM     31  C   UNL     1     139.553 109.688  35.762  1.00  0.00     0.131 C 
ATOM     32  C   UNL     1     139.083 111.653  37.096  1.00  0.00     0.131 C 
ENDBRANCH  28  30
ENDBRANCH  26  28
ENDBRANCH  25  26
ENDBRANCH  22  25
ENDBRANCH  14  15
ENDBRANCH   2  14
TORSDOF 9
ENDMDL
MODEL 4
REMARK VINA RESULT:    -6.467      3.814      6.777
REMARK INTER + INTRA:         -13.180
REMARK INTER:                 -11.739
REMARK INTRA:                  -1.441
REMARK UNBOUND:                -1.043
REMARK SMILES CN(CCC1CCCCCC1)Cc1c[nH]c2c(OC(=O)N(C)N(C)C)cccc12
REMARK SMILES IDX 1 1 2 2 3 3 4 4 5 5 6 6 7 7 8 8 11 10 10 11 9 12 12 14 13 15
REMARK SMILES IDX 14 16 29 17 15 18 28 19 16 20 27 21 17 22 26 23 18 25 19 26
REMARK SMILES IDX 20 27 21 28 22 29 23 30 24 31 25 32
REMARK H PARENT 15 24
REMARK Flexibility Score:   47.900
ROOT
ATOM      1  C   UNL     1     139.407 109.562  39.296  1.00  0.00     0.105 C 
ATOM      2  N   UNL     1     138.850 110.851  39.729  1.00  0.00    -0.302 NA
ENDROOT
BRANCH   2   3
ATOM      3  C   UNL     1     139.775 111.930  39.340  1.00  0.00     0.085 C 
BRANCH   3   4
ATOM      4  C   UNL     1     140.536 112.616  40.490  1.00  0.00     0.019 C 
BRANCH   4   5
ATOM      5  C   UNL     1     140.416 114.159  40.583  1.00  0.00    -0.010 C 
BRANCH   5   6
ATOM      6  C   UNL     1     141.785 114.713  41.023  1.00  0.00     0.003 C 
BRANCH   6   7
ATOM      7  C   UNL     1     141.834 115.363  42.406  1.00  0.00     0.000 C 
BRANCH   7   8
ATOM      8  C   UNL     1     141.322 116.798  42.398  1.00  0.00     0.000 CG0
ATOM      9  G   UNL     1     139.805 116.937  42.431  1.00  0.00     0.000 G0
ENDBRANCH   7   8
ENDBRANCH   6   7
ENDBRANCH   5   6
BRANCH   5  10
ATOM     10  C   UNL     1     139.254 114.593  41.495  1.00  0.00     0.003 C 
BRANCH  10  11
ATOM     11  C   UNL     1     138.983 116.096  41.451  1.00  0.00     0.000 C 
BRANCH  11  12
ATOM     12  C   UNL     1     139.782 116.933  42.443  1.00  0.00     0.000 CG0
ATOM     13  G   UNL     1     141.298 116.787  42.397  1.00  0.00     0.000 G0
ENDBRANCH  11  12
ENDBRANCH  10  11
ENDBRANCH   5  10
ENDBRANCH   4   5
ENDBRANCH   3   4
ENDBRANCH   2   3
BRANCH   2  14
ATOM     14  C   UNL     1     137.501 111.061  39.170  1.00  0.00     0.122 C 
BRANCH  14  15
ATOM     15  C   UNL     1     136.838 112.298  39.712  1.00  0.00    -0.008 A 
ATOM     16  C   UNL     1     136.753 113.512  39.057  1.00  0.00     0.088 A 
ATOM     17  C   UNL     1     136.218 112.488  40.996  1.00  0.00     0.008 A 
ATOM     18  N   UNL     1     136.124 114.405  39.879  1.00  0.00    -0.358 N 
ATOM     19  C   UNL     1     135.991 111.642  42.106  1.00  0.00     0.011 A 
ATOM     20  C   UNL     1     135.772 113.813  41.067  1.00  0.00     0.089 A 
ATOM     21  C   UNL     1     135.323 112.127  43.234  1.00  0.00     0.005 A 
ATOM     22  C   UNL     1     135.108 114.310  42.198  1.00  0.00     0.156 A 
ATOM     23  C   UNL     1     134.883 113.446  43.277  1.00  0.00     0.049 A 
ATOM     24  H   UNL     1     135.947 115.382  39.669  1.00  0.00     0.166 HD
BRANCH  22  25
ATOM     25  O   UNL     1     134.583 115.636  42.397  1.00  0.00    -0.407 OA
BRANCH  25  26
ATOM     26  C   UNL     1     133.501 116.265  41.763  1.00  0.00     0.429 C 
ATOM     27  O   UNL     1     132.345 115.858  41.828  1.00  0.00    -0.222 OA
BRANCH  26  28
ATOM     28  N   UNL     1     133.912 117.401  41.049  1.00  0.00    -0.244 N 
ATOM     29  C   UNL     1     133.379 118.722  41.337  1.00  0.00     0.172 C 
BRANCH  28  30
ATOM     30  N   UNL     1     134.918 117.345  40.036  1.00  0.00    -0.222 NA
ATOM     31  C   UNL     1     135.798 118.515  40.046  1.00  0.00     0.131 C 
ATOM     32  C   UNL     1     134.362 117.102  38.705  1.00  0.00     0.131 C 
ENDBRANCH  28  30
ENDBRANCH  26  28
ENDBRANCH  25  26
ENDBRANCH  22  25
ENDBRANCH  14  15
ENDBRANCH   2  14
TORSDOF 9
ENDMDL
MODEL 5
REMARK VINA RESULT:    -6.440      1.510      2.475
REMARK INTER + INTRA:         -13.129
REMARK INTER:                 -12.118
REMARK INTRA:                  -1.011
REMARK UNBOUND:                -1.043
REMARK SMILES CN(CCC1CCCCCC1)Cc1c[nH]c2c(OC(=O)N(C)N(C)C)cccc12
REMARK SMILES IDX 1 1 2 2 3 3 4 4 5 5 6 6 7 7 8 8 11 10 10 11 9 12 12 14 13 15
REMARK SMILES IDX 14 16 29 17 15 18 28 19 16 20 27 21 17 22 26 23 18 25 19 26
REMARK SMILES IDX 20 27 21 28 22 29 23 30 24 31 25 32
REMARK H PARENT 15 24
REMARK Flexibility Score:   47.900
ROOT
ATOM      1  C   UNL     1     130.520 114.924  43.667  1.00  0.00     0.105 C 
ATOM      2  N   UNL     1     131.713 114.595  42.874  1.00  0.00    -0.302 NA
ENDROOT
BRANCH   2   3
ATOM      3  C   UNL     1     132.719 115.655  43.058  1.00  0.00     0.085 C 
BRANCH   3   4
ATOM      4  C   UNL     1     132.577 116.888  42.144  1.00  0.00     0.019 C 
BRANCH   4   5
ATOM      5  C   UNL     1     133.707 117.122  41.108  1.00  0.00    -0.010 C 
BRANCH   5   6
ATOM      6  C   UNL     1     133.889 118.643  40.944  1.00  0.00     0.003 C 
BRANCH   6   7
ATOM      7  C   UNL     1     135.022 119.089  40.019  1.00  0.00     0.000 C 
BRANCH   7   8
ATOM      8  C   UNL     1     134.577 119.217  38.566  1.00  0.00     0.000 CG0
ATOM      9  G   UNL     1     134.309 117.894  37.859  1.00  0.00     0.000 G0
ENDBRANCH   7   8
ENDBRANCH   6   7
ENDBRANCH   5   6
BRANCH   5  10
ATOM     10  C   UNL     1     133.432 116.387  39.782  1.00  0.00     0.003 C 
BRANCH  10  11
ATOM     11  C   UNL     1     134.511 116.628  38.727  1.00  0.00     0.000 C 
BRANCH  11  12
ATOM     12  C   UNL     1     134.317 117.871  37.867  1.00  0.00     0.000 CG0
ATOM     13  G   UNL     1     134.568 119.215  38.540  1.00  0.00     0.000 G0
ENDBRANCH  11  12
ENDBRANCH  10  11
ENDBRANCH   5  10
ENDBRANCH   4   5
ENDBRANCH   3   4
ENDBRANCH   2   3
BRANCH   2  14
ATOM     14  C   UNL     1     132.245 113.270  43.241  1.00  0.00     0.122 C 
BRANCH  14  15
ATOM     15  C   UNL     1     133.531 112.947  42.531  1.00  0.00    -0.008 A 
ATOM     16  C   UNL     1     134.756 112.753  43.143  1.00  0.00     0.088 A 
ATOM     17  C   UNL     1     133.763 112.823  41.117  1.00  0.00     0.008 A 
ATOM     18  N   UNL     1     135.693 112.528  42.174  1.00  0.00    -0.358 N 
ATOM     19  C   UNL     1     132.929 112.914  39.979  1.00  0.00     0.011 A 
ATOM     20  C   UNL     1     135.123 112.551  40.925  1.00  0.00     0.089 A 
ATOM     21  C   UNL     1     133.461 112.719  38.701  1.00  0.00     0.005 A 
ATOM     22  C   UNL     1     135.666 112.361  39.647  1.00  0.00     0.156 A 
ATOM     23  C   UNL     1     134.814 112.442  38.538  1.00  0.00     0.049 A 
ATOM     24  H   UNL     1     136.685 112.378  42.332  1.00  0.00     0.166 HD
BRANCH  22  25
ATOM     25  O   UNL     1     137.033 112.059  39.308  1.00  0.00    -0.407 OA
BRANCH  25  26
ATOM     26  C   UNL     1     137.880 112.700  38.392  1.00  0.00     0.429 C 
ATOM     27  O   UNL     1     137.588 112.894  37.215  1.00  0.00    -0.222 OA
BRANCH  26  28
ATOM     28  N   UNL     1     139.093 113.077  38.989  1.00  0.00    -0.244 N 
ATOM     29  C   UNL     1     140.356 113.005  38.273  1.00  0.00     0.172 C 
BRANCH  28  30
ATOM     30  N   UNL     1     139.160 113.609  40.313  1.00  0.00    -0.222 NA
ATOM     31  C   UNL     1     138.758 115.015  40.381  1.00  0.00     0.131 C 
ATOM     32  C   UNL     1     140.465 113.393  40.939  1.00  0.00     0.131 C 
ENDBRANCH  28  30
ENDBRANCH  26  28
ENDBRANCH  25  26
ENDBRANCH  22  25
ENDBRANCH  14  15
ENDBRANCH   2  14
TORSDOF 9
ENDMDL
MODEL 6
REMARK VINA RESULT:    -6.307      3.485      7.028
REMARK INTER + INTRA:         -12.880
REMARK INTER:                 -11.543
REMARK INTRA:                  -1.337
REMARK UNBOUND:                -1.043
REMARK SMILES CN(CCC1CCCCCC1)Cc1c[nH]c2c(OC(=O)N(C)N(C)C)cccc12
REMARK SMILES IDX 1 1 2 2 3 3 4 4 5 5 6 6 7 7 8 8 11 10 10 11 9 12 12 14 13 15
REMARK SMILES IDX 14 16 29 17 15 18 28 19 16 20 27 21 17 22 26 23 18 25 19 26
REMARK SMILES IDX 20 27 21 28 22 29 23 30 24 31 25 32
REMARK H PARENT 15 24
REMARK Flexibility Score:   47.900
ROOT
ATOM      1  C   UNL     1     139.848 109.694  38.377  1.00  0.00     0.105 C 
ATOM      2  N   UNL     1     139.151 110.826  39.004  1.00  0.00    -0.302 NA
ENDROOT
BRANCH   2   3
ATOM      3  C   UNL     1     140.066 111.978  39.068  1.00  0.00     0.085 C 
BRANCH   3   4
ATOM      4  C   UNL     1     140.266 112.605  40.461  1.00  0.00     0.019 C 
BRANCH   4   5
ATOM      5  C   UNL     1     140.378 114.151  40.521  1.00  0.00    -0.010 C 
BRANCH   5   6
ATOM      6  C   UNL     1     141.662 114.501  41.298  1.00  0.00     0.003 C 
BRANCH   6   7
ATOM      7  C   UNL     1     141.983 115.991  41.429  1.00  0.00     0.000 C 
BRANCH   7   8
ATOM      8  C   UNL     1     141.318 116.630  42.642  1.00  0.00     0.000 CG0
ATOM      9  G   UNL     1     139.825 116.895  42.489  1.00  0.00     0.000 G0
ENDBRANCH   7   8
ENDBRANCH   6   7
ENDBRANCH   5   6
BRANCH   5  10
ATOM     10  C   UNL     1     139.108 114.797  41.105  1.00  0.00     0.003 C 
BRANCH  10  11
ATOM     11  C   UNL     1     139.194 116.321  41.194  1.00  0.00     0.000 C 
BRANCH  11  12
ATOM     12  C   UNL     1     139.820 116.865  42.472  1.00  0.00     0.000 CG0
ATOM     13  G   UNL     1     141.317 116.644  42.651  1.00  0.00     0.000 G0
ENDBRANCH  11  12
ENDBRANCH  10  11
ENDBRANCH   5  10
ENDBRANCH   4   5
ENDBRANCH   3   4
ENDBRANCH   2   3
BRANCH   2  14
ATOM     14  C   UNL     1     137.911 111.155  38.275  1.00  0.00     0.122 C 
BRANCH  14  15
ATOM     15  C   UNL     1     137.041 112.126  39.025  1.00  0.00    -0.008 A 
ATOM     16  C   UNL     1     136.586 113.335  38.534  1.00  0.00     0.088 A 
ATOM     17  C   UNL     1     136.555 112.030  40.375  1.00  0.00     0.008 A 
ATOM     18  N   UNL     1     135.866 113.958  39.515  1.00  0.00    -0.358 N 
ATOM     19  C   UNL     1     136.676 111.053  41.390  1.00  0.00     0.011 A 
ATOM     20  C   UNL     1     135.815 113.186  40.650  1.00  0.00     0.089 A 
ATOM     21  C   UNL     1     136.054 111.243  42.627  1.00  0.00     0.005 A 
ATOM     22  C   UNL     1     135.194 113.389  41.891  1.00  0.00     0.156 A 
ATOM     23  C   UNL     1     135.318 112.398  42.873  1.00  0.00     0.049 A 
ATOM     24  H   UNL     1     135.434 114.873  39.444  1.00  0.00     0.166 HD
BRANCH  22  25
ATOM     25  O   UNL     1     134.394 114.514  42.299  1.00  0.00    -0.407 OA
BRANCH  25  26
ATOM     26  C   UNL     1     133.223 115.025  41.720  1.00  0.00     0.429 C 
ATOM     27  O   UNL     1     133.189 115.569  40.619  1.00  0.00    -0.222 OA
BRANCH  26  28
ATOM     28  N   UNL     1     132.112 114.842  42.557  1.00  0.00    -0.244 N 
ATOM     29  C   UNL     1     131.564 115.928  43.354  1.00  0.00     0.172 C 
BRANCH  28  30
ATOM     30  N   UNL     1     131.412 113.599  42.638  1.00  0.00    -0.222 NA
ATOM     31  C   UNL     1     131.764 112.826  43.831  1.00  0.00     0.131 C 
ATOM     32  C   UNL     1     131.546 112.798  41.420  1.00  0.00     0.131 C 
ENDBRANCH  28  30
ENDBRANCH  26  28
ENDBRANCH  25  26
ENDBRANCH  22  25
ENDBRANCH  14  15
ENDBRANCH   2  14
TORSDOF 9
ENDMDL
MODEL 7
REMARK VINA RESULT:    -6.285      2.729      6.457
REMARK INTER + INTRA:         -12.838
REMARK INTER:                 -11.118
REMARK INTRA:                  -1.720
REMARK UNBOUND:                -1.043
REMARK SMILES CN(CCC1CCCCCC1)Cc1c[nH]c2c(OC(=O)N(C)N(C)C)cccc12
REMARK SMILES IDX 1 1 2 2 3 3 4 4 5 5 6 6 7 7 8 8 11 10 10 11 9 12 12 14 13 15
REMARK SMILES IDX 14 16 29 17 15 18 28 19 16 20 27 21 17 22 26 23 18 25 19 26
REMARK SMILES IDX 20 27 21 28 22 29 23 30 24 31 25 32
REMARK H PARENT 15 24
REMARK Flexibility Score:   47.900
ROOT
ATOM      1  C   UNL     1     140.038 109.199  38.196  1.00  0.00     0.105 C 
ATOM      2  N   UNL     1     138.883 110.026  38.574  1.00  0.00    -0.302 NA
ENDROOT
BRANCH   2   3
ATOM      3  C   UNL     1     138.838 111.214  37.703  1.00  0.00     0.085 C 
BRANCH   3   4
ATOM      4  C   UNL     1     139.421 112.510  38.297  1.00  0.00     0.019 C 
BRANCH   4   5
ATOM      5  C   UNL     1     139.363 112.659  39.839  1.00  0.00    -0.010 C 
BRANCH   5   6
ATOM      6  C   UNL     1     138.141 113.533  40.184  1.00  0.00     0.003 C 
BRANCH   6   7
ATOM      7  C   UNL     1     138.285 115.029  39.905  1.00  0.00     0.000 C 
BRANCH   7   8
ATOM      8  C   UNL     1     138.769 115.808  41.123  1.00  0.00     0.000 CG0
ATOM      9  G   UNL     1     140.175 115.455  41.593  1.00  0.00     0.000 G0
ENDBRANCH   7   8
ENDBRANCH   6   7
ENDBRANCH   5   6
BRANCH   5  10
ATOM     10  C   UNL     1     140.686 113.195  40.416  1.00  0.00     0.003 C 
BRANCH  10  11
ATOM     11  C   UNL     1     140.506 113.953  41.731  1.00  0.00     0.000 C 
BRANCH  11  12
ATOM     12  C   UNL     1     140.202 115.440  41.590  1.00  0.00     0.000 CG0
ATOM     13  G   UNL     1     138.796 115.812  41.133  1.00  0.00     0.000 G0
ENDBRANCH  11  12
ENDBRANCH  10  11
ENDBRANCH   5  10
ENDBRANCH   4   5
ENDBRANCH   3   4
ENDBRANCH   2   3
BRANCH   2  14
ATOM     14  C   UNL     1     137.630 109.252  38.505  1.00  0.00     0.122 C 
BRANCH  14  15
ATOM     15  C   UNL     1     136.457 110.001  39.075  1.00  0.00    -0.008 A 
ATOM     16  C   UNL     1     135.351 110.419  38.358  1.00  0.00     0.088 A 
ATOM     17  C   UNL     1     136.264 110.466  40.422  1.00  0.00     0.008 A 
ATOM     18  N   UNL     1     134.522 111.105  39.201  1.00  0.00    -0.358 N 
ATOM     19  C   UNL     1     137.024 110.363  41.609  1.00  0.00     0.011 A 
ATOM     20  C   UNL     1     135.040 111.144  40.473  1.00  0.00     0.089 A 
ATOM     21  C   UNL     1     136.546 110.917  42.800  1.00  0.00     0.005 A 
ATOM     22  C   UNL     1     134.557 111.709  41.661  1.00  0.00     0.156 A 
ATOM     23  C   UNL     1     135.324 111.579  42.826  1.00  0.00     0.049 A 
ATOM     24  H   UNL     1     133.647 111.548  38.942  1.00  0.00     0.166 HD
BRANCH  22  25
ATOM     25  O   UNL     1     133.316 112.413  41.859  1.00  0.00    -0.407 OA
BRANCH  25  26
ATOM     26  C   UNL     1     132.719 113.397  41.057  1.00  0.00     0.429 C 
ATOM     27  O   UNL     1     132.229 113.172  39.954  1.00  0.00    -0.222 OA
BRANCH  26  28
ATOM     28  N   UNL     1     132.762 114.658  41.672  1.00  0.00    -0.244 N 
ATOM     29  C   UNL     1     131.958 114.967  42.844  1.00  0.00     0.172 C 
BRANCH  28  30
ATOM     30  N   UNL     1     133.635 115.697  41.228  1.00  0.00    -0.222 NA
ATOM     31  C   UNL     1     134.990 115.569  41.768  1.00  0.00     0.131 C 
ATOM     32  C   UNL     1     133.086 117.032  41.465  1.00  0.00     0.131 C 
ENDBRANCH  28  30
ENDBRANCH  26  28
ENDBRANCH  25  26
ENDBRANCH  22  25
ENDBRANCH  14  15
ENDBRANCH   2  14
TORSDOF 9
ENDMDL
MODEL 8
REMARK VINA RESULT:    -6.125      1.578      2.393
REMARK INTER + INTRA:         -12.538
REMARK INTER:                 -11.175
REMARK INTRA:                  -1.363
REMARK UNBOUND:                -1.043
REMARK SMILES CN(CCC1CCCCCC1)Cc1c[nH]c2c(OC(=O)N(C)N(C)C)cccc12
REMARK SMILES IDX 1 1 2 2 3 3 4 4 5 5 6 6 7 7 8 8 11 10 10 11 9 12 12 14 13 15
REMARK SMILES IDX 14 16 29 17 15 18 28 19 16 20 27 21 17 22 26 23 18 25 19 26
REMARK SMILES IDX 20 27 21 28 22 29 23 30 24 31 25 32
REMARK H PARENT 15 24
REMARK Flexibility Score:   47.900
ROOT
ATOM      1  C   UNL     1     131.233 114.042  44.237  1.00  0.00     0.105 C 
ATOM      2  N   UNL     1     132.220 114.017  43.148  1.00  0.00    -0.302 NA
ENDROOT
BRANCH   2   3
ATOM      3  C   UNL     1     133.037 115.241  43.211  1.00  0.00     0.085 C 
BRANCH   3   4
ATOM      4  C   UNL     1     132.413 116.503  42.583  1.00  0.00     0.019 C 
BRANCH   4   5
ATOM      5  C   UNL     1     133.076 117.037  41.287  1.00  0.00    -0.010 C 
BRANCH   5   6
ATOM      6  C   UNL     1     134.152 116.022  40.854  1.00  0.00     0.003 C 
BRANCH   6   7
ATOM      7  C   UNL     1     134.893 116.340  39.554  1.00  0.00     0.000 C 
BRANCH   7   8
ATOM      8  C   UNL     1     136.050 117.310  39.762  1.00  0.00     0.000 CG0
ATOM      9  G   UNL     1     135.644 118.772  39.902  1.00  0.00     0.000 G0
ENDBRANCH   7   8
ENDBRANCH   6   7
ENDBRANCH   5   6
BRANCH   5  10
ATOM     10  C   UNL     1     133.615 118.469  41.464  1.00  0.00     0.003 C 
BRANCH  10  11
ATOM     11  C   UNL     1     134.168 119.068  40.170  1.00  0.00     0.000 C 
BRANCH  11  12
ATOM     12  C   UNL     1     135.639 118.779  39.895  1.00  0.00     0.000 CG0
ATOM     13  G   UNL     1     136.034 117.314  39.753  1.00  0.00     0.000 G0
ENDBRANCH  11  12
ENDBRANCH  10  11
ENDBRANCH   5  10
ENDBRANCH   4   5
ENDBRANCH   3   4
ENDBRANCH   2   3
BRANCH   2  14
ATOM     14  C   UNL     1     133.054 112.802  43.215  1.00  0.00     0.122 C 
BRANCH  14  15
ATOM     15  C   UNL     1     133.874 112.595  41.971  1.00  0.00    -0.008 A 
ATOM     16  C   UNL     1     135.240 112.386  41.939  1.00  0.00     0.088 A 
ATOM     17  C   UNL     1     133.438 112.618  40.600  1.00  0.00     0.008 A 
ATOM     18  N   UNL     1     135.633 112.288  40.633  1.00  0.00    -0.358 N 
ATOM     19  C   UNL     1     132.179 112.789  39.979  1.00  0.00     0.011 A 
ATOM     20  C   UNL     1     134.558 112.413  39.788  1.00  0.00     0.089 A 
ATOM     21  C   UNL     1     132.071 112.738  38.586  1.00  0.00     0.005 A 
ATOM     22  C   UNL     1     134.460 112.368  38.390  1.00  0.00     0.156 A 
ATOM     23  C   UNL     1     133.199 112.526  37.801  1.00  0.00     0.049 A 
ATOM     24  H   UNL     1     136.586 112.159  40.309  1.00  0.00     0.166 HD
BRANCH  22  25
ATOM     25  O   UNL     1     135.521 112.148  37.440  1.00  0.00    -0.407 OA
BRANCH  25  26
ATOM     26  C   UNL     1     135.970 110.944  36.878  1.00  0.00     0.429 C 
ATOM     27  O   UNL     1     135.316 110.280  36.079  1.00  0.00    -0.222 OA
BRANCH  26  28
ATOM     28  N   UNL     1     137.246 110.600  37.350  1.00  0.00    -0.244 N 
ATOM     29  C   UNL     1     138.076 109.617  36.672  1.00  0.00     0.172 C 
BRANCH  28  30
ATOM     30  N   UNL     1     137.837 111.232  38.487  1.00  0.00    -0.222 NA
ATOM     31  C   UNL     1     138.860 112.214  38.123  1.00  0.00     0.131 C 
ATOM     32  C   UNL     1     138.343 110.267  39.465  1.00  0.00     0.131 C 
ENDBRANCH  28  30
ENDBRANCH  26  28
ENDBRANCH  25  26
ENDBRANCH  22  25
ENDBRANCH  14  15
ENDBRANCH   2  14
TORSDOF 9
ENDMDL
MODEL 9
REMARK VINA RESULT:    -6.104      1.442      2.642
REMARK INTER + INTRA:         -12.499
REMARK INTER:                 -11.264
REMARK INTRA:                  -1.235
REMARK UNBOUND:                -1.043
REMARK SMILES CN(CCC1CCCCCC1)Cc1c[nH]c2c(OC(=O)N(C)N(C)C)cccc12
REMARK SMILES IDX 1 1 2 2 3 3 4 4 5 5 6 6 7 7 8 8 11 10 10 11 9 12 12 14 13 15
REMARK SMILES IDX 14 16 29 17 15 18 28 19 16 20 27 21 17 22 26 23 18 25 19 26
REMARK SMILES IDX 20 27 21 28 22 29 23 30 24 31 25 32
REMARK H PARENT 15 24
REMARK Flexibility Score:   47.900
ROOT
ATOM      1  C   UNL     1     131.158 115.310  43.715  1.00  0.00     0.105 C 
ATOM      2  N   UNL     1     132.056 114.749  42.695  1.00  0.00    -0.302 NA
ENDROOT
BRANCH   2   3
ATOM      3  C   UNL     1     133.224 115.633  42.545  1.00  0.00     0.085 C 
BRANCH   3   4
ATOM      4  C   UNL     1     133.249 116.512  41.279  1.00  0.00     0.019 C 
BRANCH   4   5
ATOM      5  C   UNL     1     134.635 116.760  40.630  1.00  0.00    -0.010 C 
BRANCH   5   6
ATOM      6  C   UNL     1     134.904 118.277  40.655  1.00  0.00     0.003 C 
BRANCH   6   7
ATOM      7  C   UNL     1     133.956 119.142  39.824  1.00  0.00     0.000 C 
BRANCH   7   8
ATOM      8  C   UNL     1     134.446 119.343  38.395  1.00  0.00     0.000 CG0
ATOM      9  G   UNL     1     134.418 118.092  37.526  1.00  0.00     0.000 G0
ENDBRANCH   7   8
ENDBRANCH   6   7
ENDBRANCH   5   6
BRANCH   5  10
ATOM     10  C   UNL     1     134.730 116.141  39.222  1.00  0.00     0.003 C 
BRANCH  10  11
ATOM     11  C   UNL     1     133.827 116.831  38.200  1.00  0.00     0.000 C 
BRANCH  11  12
ATOM     12  C   UNL     1     134.412 118.080  37.551  1.00  0.00     0.000 CG0
ATOM     13  G   UNL     1     134.433 119.346  38.398  1.00  0.00     0.000 G0
ENDBRANCH  11  12
ENDBRANCH  10  11
ENDBRANCH   5  10
ENDBRANCH   4   5
ENDBRANCH   3   4
ENDBRANCH   2   3
BRANCH   2  14
ATOM     14  C   UNL     1     132.455 113.372  43.039  1.00  0.00     0.122 C 
BRANCH  14  15
ATOM     15  C   UNL     1     133.517 112.832  42.121  1.00  0.00    -0.008 A 
ATOM     16  C   UNL     1     134.745 112.338  42.521  1.00  0.00     0.088 A 
ATOM     17  C   UNL     1     133.504 112.762  40.684  1.00  0.00     0.008 A 
ATOM     18  N   UNL     1     135.454 111.986  41.407  1.00  0.00    -0.358 N 
ATOM     19  C   UNL     1     132.552 113.110  39.698  1.00  0.00     0.011 A 
ATOM     20  C   UNL     1     134.725 112.219  40.268  1.00  0.00     0.089 A 
ATOM     21  C   UNL     1     132.832 112.897  38.346  1.00  0.00     0.005 A 
ATOM     22  C   UNL     1     135.017 112.009  38.912  1.00  0.00     0.156 A 
ATOM     23  C   UNL     1     134.049 112.349  37.958  1.00  0.00     0.049 A 
ATOM     24  H   UNL     1     136.400 111.617  41.399  1.00  0.00     0.166 HD
BRANCH  22  25
ATOM     25  O   UNL     1     136.216 111.446  38.349  1.00  0.00    -0.407 OA
BRANCH  25  26
ATOM     26  C   UNL     1     137.470 112.045  38.157  1.00  0.00     0.429 C 
ATOM     27  O   UNL     1     137.633 113.112  37.571  1.00  0.00    -0.222 OA
BRANCH  26  28
ATOM     28  N   UNL     1     138.501 111.269  38.709  1.00  0.00    -0.244 N 
ATOM     29  C   UNL     1     139.634 111.873  39.392  1.00  0.00     0.172 C 
BRANCH  28  30
ATOM     30  N   UNL     1     138.478 109.841  38.689  1.00  0.00    -0.222 NA
ATOM     31  C   UNL     1     138.473 109.255  40.030  1.00  0.00     0.131 C 
ATOM     32  C   UNL     1     139.542 109.274  37.859  1.00  0.00     0.131 C 
ENDBRANCH  28  30
ENDBRANCH  26  28
ENDBRANCH  25  26
ENDBRANCH  22  25
ENDBRANCH  14  15
ENDBRANCH   2  14
TORSDOF 9
ENDMDL
