MODEL 7
REMARK VINA RESULT:    -8.475      3.673      7.775
REMARK INTER + INTRA:         -15.936
REMARK INTER:                 -14.559
REMARK INTRA:                  -1.377
REMARK UNBOUND:                -1.516
REMARK SMILES O=C(Cc1ccccc1)Nc1ccc(C(=O)NS(=O)(=O)c2ccc(NCCSc3ccccc3)c([N+](=O)[O-])c2)cc1
REMARK SMILES IDX 21 1 22 2 23 3 24 4 35 5 39 6 18 7 19 8 20 9 17 10 15 11
REMARK SMILES IDX 16 12 14 14 11 15 12 16 41 17 13 18 40 19 10 20 1 21 2 22
REMARK SMILES IDX 3 24 4 25 5 26 9 27 6 28 8 29 7 30 36 31 37 32 38 33 25 34
REMARK SMILES IDX 26 36 27 37 28 38 29 39 30 40 34 41 31 42 33 43 32 44
REMARK H PARENT 17 13 10 23 25 35
ROOT
ATOM      1  C   UNL     1      34.440  10.202 -46.904  1.00  0.00     0.094 A 
ATOM      2  C   UNL     1      34.304  11.054 -45.811  1.00  0.00     0.025 A 
ATOM      3  C   UNL     1      33.576  10.640 -44.686  1.00  0.00     0.034 A 
ATOM      4  C   UNL     1      33.007   9.356 -44.595  1.00  0.00     0.113 A 
ATOM      5  C   UNL     1      33.145   8.533 -45.740  1.00  0.00     0.293 A 
ATOM      6  C   UNL     1      33.867   8.933 -46.879  1.00  0.00     0.110 A 
ENDROOT
BRANCH   1   7
ATOM      7  S   UNL     1      35.402  10.708 -48.306  1.00  0.00     0.264 S 
ATOM      8  O   UNL     1      34.930  12.023 -48.691  1.00  0.00    -0.201 OA
ATOM      9  O   UNL     1      35.447   9.630 -49.266  1.00  0.00    -0.201 OA
BRANCH   7  10
ATOM     10  N   UNL     1      36.912  10.963 -47.660  1.00  0.00    -0.245 N 
ATOM     11  C   UNL     1      38.038  11.358 -48.394  1.00  0.00     0.264 C 
ATOM     12  O   UNL     1      38.037  11.481 -49.608  1.00  0.00    -0.268 OA
ATOM     13  H   UNL     1      36.897  10.951 -46.648  1.00  0.00     0.183 HD
BRANCH  11  14
ATOM     14  C   UNL     1      39.273  11.611 -47.600  1.00  0.00     0.040 A 
ATOM     15  C   UNL     1      41.532  12.134 -45.988  1.00  0.00     0.041 A 
ATOM     16  C   UNL     1      40.274  12.608 -45.616  1.00  0.00     0.027 A 
ATOM     17  C   UNL     1      41.652  11.399 -47.174  1.00  0.00     0.027 A 
ATOM     18  C   UNL     1      39.153  12.354 -46.419  1.00  0.00     0.016 A 
ATOM     19  C   UNL     1      40.535  11.135 -47.976  1.00  0.00     0.016 A 
BRANCH  15  20
ATOM     20  N   UNL     1      42.709  12.349 -45.244  1.00  0.00    -0.326 N 
ATOM     21  O   UNL     1      43.451  14.410 -46.043  1.00  0.00    -0.274 OA
ATOM     22  C   UNL     1      43.576  13.428 -45.317  1.00  0.00     0.228 C 
ATOM     23  H   UNL     1      42.984  11.600 -44.620  1.00  0.00     0.169 HD
BRANCH  22  24
ATOM     24  C   UNL     1      44.734  13.339 -44.330  1.00  0.00     0.135 C 
BRANCH  24  25
ATOM     25  C   UNL     1      44.639  14.322 -43.185  1.00  0.00    -0.039 A 
ATOM     26  C   UNL     1      45.404  15.497 -43.187  1.00  0.00     0.004 A 
ATOM     27  C   UNL     1      43.778  14.070 -42.106  1.00  0.00     0.004 A 
ATOM     28  C   UNL     1      45.298  16.409 -42.135  1.00  0.00     0.000 A 
ATOM     29  C   UNL     1      43.676  14.981 -41.054  1.00  0.00     0.000 A 
ATOM     30  C   UNL     1      44.432  16.151 -41.070  1.00  0.00     0.000 A 
ENDBRANCH  24  25
ENDBRANCH  22  24
ENDBRANCH  15  20
ENDBRANCH  11  14
ENDBRANCH   7  10
ENDBRANCH   1   7
BRANCH   5  31
ATOM     31  N   UNL     1      32.528   7.206 -45.786  1.00  0.00     0.065 N 
ATOM     32  O   UNL     1      32.847   6.401 -44.896  1.00  0.00    -0.258 OA
ATOM     33  O   UNL     1      31.712   6.973 -46.691  1.00  0.00    -0.258 OA
ENDBRANCH   5  31
BRANCH   4  34
ATOM     34  N   UNL     1      32.224   8.978 -43.497  1.00  0.00    -0.379 N 
ATOM     35  H   UNL     1      32.483   9.500 -42.647  1.00  0.00     0.160 HD
BRANCH  34  36
ATOM     36  C   UNL     1      30.764   8.840 -43.577  1.00  0.00     0.124 C 
BRANCH  36  37
ATOM     37  C   UNL     1      30.089   9.974 -44.359  1.00  0.00     0.096 C 
BRANCH  37  38
ATOM     38  S   UNL     1      28.266   9.923 -44.192  1.00  0.00    -0.124 SA
BRANCH  38  39
ATOM     39  C   UNL     1      28.024  11.448 -43.302  1.00  0.00     0.007 A 
ATOM     40  C   UNL     1      28.857  12.547 -43.532  1.00  0.00     0.015 A 
ATOM     41  C   UNL     1      27.002  11.546 -42.354  1.00  0.00     0.015 A 
ATOM     42  C   UNL     1      28.659  13.739 -42.833  1.00  0.00     0.001 A 
ATOM     43  C   UNL     1      26.802  12.740 -41.656  1.00  0.00     0.001 A 
ATOM     44  C   UNL     1      27.629  13.837 -41.897  1.00  0.00     0.000 A 
ENDBRANCH  38  39
ENDBRANCH  37  38
ENDBRANCH  36  37
ENDBRANCH  34  36
ENDBRANCH   4  34
TORSDOF 12
ENDMDL
