MODEL 1
REMARK VINA RESULT:    -6.946      0.000      0.000
REMARK INTER + INTRA:         -14.425
REMARK INTER:                 -12.630
REMARK INTRA:                  -1.795
REMARK UNBOUND:                -1.795
REMARK SMILES CN1C/C=C/COCc2ccc(s2)-c2ccnc(n2)Nc2ccc(OCCN3CCCC3)c(c2)C1
REMARK SMILES IDX 20 1 21 3 33 4 24 5 34 6 23 7 22 8 35 9 2 10 1 11 3 12 4 13
REMARK SMILES IDX 5 14 25 16 26 17 27 18 28 19 29 20 32 21 30 22 31 23 18 24
REMARK SMILES IDX 17 25 19 26 16 27 14 28 15 29 12 30 11 31 13 32 10 33 9 34
REMARK SMILES IDX 8 35 7 36 6 37
REMARK H PARENT 20 2
REMARK Flexibility Score:  104.900
ROOT
ATOM      1  N   UNL     1       4.556 -24.808  22.244  1.00  0.00    -0.324 N 
ATOM      2  H   UNL     1       3.570 -24.753  22.434  1.00  0.00     0.170 HD
ENDROOT
BRANCH   1   3
ATOM      3  C   UNL     1       5.170 -23.716  21.617  1.00  0.00     0.041 A 
ATOM      4  C   UNL     1       6.725 -21.804  21.637  1.00  0.00     0.010 A 
ATOM      5  C   UNL     1       6.267 -21.403  20.376  1.00  0.00     0.124 A 
ATOM      6  C   UNL     1       6.171 -22.959  22.229  1.00  0.00     0.035 A 
ATOM      7  C   UNL     1       5.282 -22.165  19.739  1.00  0.00     0.049 A 
ATOM      8  C   UNL     1       4.737 -23.302  20.356  1.00  0.00     0.030 A 
BRANCH   4   9
ATOM      9  C   UNL     1       7.780 -21.045  22.422  1.00  0.00     0.124 C 
BRANCH   9  10
ATOM     10  N   UNL     1       9.146 -21.600  22.361  1.00  0.00    -0.298 NA
ATOM     11  C   UNL     1       9.871 -21.265  21.135  1.00  0.00     0.106 C 
BRANCH  10  12
ATOM     12  C   UNL     1       9.930 -21.253  23.554  1.00  0.00     0.111 C 
BRANCH  12  13
ATOM     13  C   UNL     1      10.373 -22.419  24.403  1.00  0.00    -0.014 C 
ATOM     14  C   UNL     1      11.435 -22.396  25.228  1.00  0.00    -0.002 CG0
ATOM     15  G   UNL     1      11.865 -23.545  26.084  1.00  0.00     0.000 G0
ENDBRANCH  12  13
ENDBRANCH  10  12
ENDBRANCH   9  10
ENDBRANCH   4   9
BRANCH   5  16
ATOM     16  O   UNL     1       6.854 -20.287  19.848  1.00  0.00    -0.492 OA
BRANCH  16  17
ATOM     17  C   UNL     1       6.011 -19.167  19.570  1.00  0.00     0.245 C 
BRANCH  17  18
ATOM     18  C   UNL     1       5.884 -18.299  20.837  1.00  0.00     0.126 C 
BRANCH  18  19
ATOM     19  N   UNL     1       4.509 -18.198  21.354  1.00  0.00    -0.300 NA
ATOM     20  C   UNL     1       4.215 -19.247  22.333  1.00  0.00     0.084 C 
ATOM     21  C   UNL     1       3.485 -18.352  20.313  1.00  0.00     0.084 C 
ATOM     22  C   UNL     1       2.696 -19.228  22.426  1.00  0.00     0.017 C 
ATOM     23  C   UNL     1       2.220 -18.608  21.118  1.00  0.00     0.017 C 
ENDBRANCH  18  19
ENDBRANCH  17  18
ENDBRANCH  16  17
ENDBRANCH   5  16
ENDBRANCH   1   3
BRANCH   1  24
ATOM     24  C   UNL     1       5.063 -26.047  22.631  1.00  0.00     0.227 A 
ATOM     25  N   UNL     1       4.380 -27.129  22.228  1.00  0.00    -0.221 NA
ATOM     26  N   UNL     1       6.170 -26.124  23.376  1.00  0.00    -0.212 NA
ATOM     27  C   UNL     1       4.881 -28.335  22.567  1.00  0.00     0.117 A 
ATOM     28  C   UNL     1       6.643 -27.342  23.686  1.00  0.00     0.086 A 
ATOM     29  C   UNL     1       6.030 -28.507  23.300  1.00  0.00     0.050 A 
BRANCH  28  30
ATOM     30  C   UNL     1       7.855 -27.309  24.493  1.00  0.00     0.053 A 
ATOM     31  C   UNL     1       8.417 -28.327  25.237  1.00  0.00     0.022 A 
ATOM     32  S   UNL     1       8.726 -25.846  24.669  1.00  0.00    -0.136 S 
ATOM     33  C   UNL     1       9.556 -27.892  25.971  1.00  0.00     0.018 A 
ATOM     34  C   UNL     1       9.827 -26.551  25.776  1.00  0.00     0.031 A 
BRANCH  34  35
ATOM     35  C   UNL     1      10.919 -25.735  26.394  1.00  0.00     0.207 C 
BRANCH  35  36
ATOM     36  O   UNL     1      11.306 -24.730  25.458  1.00  0.00    -0.372 OA
BRANCH  36  37
ATOM     37  C   UNL     1      11.842 -23.555  26.062  1.00  0.00     0.188 CG0
ATOM     38  G   UNL     1      11.430 -22.376  25.237  1.00  0.00     0.000 G0
ENDBRANCH  36  37
ENDBRANCH  35  36
ENDBRANCH  34  35
ENDBRANCH  28  30
ENDBRANCH   1  24
TORSDOF 4
ENDMDL
MODEL 2
REMARK VINA RESULT:    -6.715      1.908      2.623
REMARK INTER + INTRA:         -14.007
REMARK INTER:                 -12.381
REMARK INTRA:                  -1.626
REMARK UNBOUND:                -1.795
REMARK SMILES CN1C/C=C/COCc2ccc(s2)-c2ccnc(n2)Nc2ccc(OCCN3CCCC3)c(c2)C1
REMARK SMILES IDX 20 1 21 3 33 4 24 5 34 6 23 7 22 8 35 9 2 10 1 11 3 12 4 13
REMARK SMILES IDX 5 14 25 16 26 17 27 18 28 19 29 20 32 21 30 22 31 23 18 24
REMARK SMILES IDX 17 25 19 26 16 27 14 28 15 29 12 30 11 31 13 32 10 33 9 34
REMARK SMILES IDX 8 35 7 36 6 37
REMARK H PARENT 20 2
REMARK Flexibility Score:  104.900
ROOT
ATOM      1  N   UNL     1       3.975 -23.691  19.997  1.00  0.00    -0.324 N 
ATOM      2  H   UNL     1       3.758 -23.898  19.037  1.00  0.00     0.170 HD
ENDROOT
BRANCH   1   3
ATOM      3  C   UNL     1       4.374 -22.388  20.319  1.00  0.00     0.041 A 
ATOM      4  C   UNL     1       6.120 -20.705  20.757  1.00  0.00     0.010 A 
ATOM      5  C   UNL     1       5.147 -19.778  21.148  1.00  0.00     0.124 A 
ATOM      6  C   UNL     1       5.712 -21.990  20.343  1.00  0.00     0.035 A 
ATOM      7  C   UNL     1       3.799 -20.151  21.106  1.00  0.00     0.049 A 
ATOM      8  C   UNL     1       3.420 -21.442  20.703  1.00  0.00     0.030 A 
BRANCH   4   9
ATOM      9  C   UNL     1       7.609 -20.409  20.775  1.00  0.00     0.124 C 
BRANCH   9  10
ATOM     10  N   UNL     1       8.461 -21.446  21.391  1.00  0.00    -0.298 NA
ATOM     11  C   UNL     1       9.760 -21.615  20.738  1.00  0.00     0.106 C 
BRANCH  10  12
ATOM     12  C   UNL     1       8.616 -21.237  22.837  1.00  0.00     0.111 C 
BRANCH  12  13
ATOM     13  C   UNL     1       8.908 -22.477  23.645  1.00  0.00    -0.014 C 
ATOM     14  C   UNL     1      10.127 -22.813  24.104  1.00  0.00    -0.002 CG0
ATOM     15  G   UNL     1      10.415 -24.033  24.921  1.00  0.00     0.000 G0
ENDBRANCH  12  13
ENDBRANCH  10  12
ENDBRANCH   9  10
ENDBRANCH   4   9
BRANCH   5  16
ATOM     16  O   UNL     1       5.603 -18.544  21.521  1.00  0.00    -0.492 OA
BRANCH  16  17
ATOM     17  C   UNL     1       5.091 -17.411  20.817  1.00  0.00     0.245 C 
BRANCH  17  18
ATOM     18  C   UNL     1       5.620 -17.428  19.370  1.00  0.00     0.126 C 
BRANCH  18  19
ATOM     19  N   UNL     1       4.602 -17.095  18.360  1.00  0.00    -0.300 NA
ATOM     20  C   UNL     1       4.395 -15.650  18.248  1.00  0.00     0.084 C 
ATOM     21  C   UNL     1       3.277 -17.646  18.669  1.00  0.00     0.084 C 
ATOM     22  C   UNL     1       3.075 -15.538  17.497  1.00  0.00     0.017 C 
ATOM     23  C   UNL     1       2.359 -16.861  17.743  1.00  0.00     0.017 C 
ENDBRANCH  18  19
ENDBRANCH  17  18
ENDBRANCH  16  17
ENDBRANCH   5  16
ENDBRANCH   1   3
BRANCH   1  24
ATOM     24  C   UNL     1       3.864 -24.836  20.785  1.00  0.00     0.227 A 
ATOM     25  N   UNL     1       2.690 -25.485  20.740  1.00  0.00    -0.221 NA
ATOM     26  N   UNL     1       4.886 -25.237  21.546  1.00  0.00    -0.212 NA
ATOM     27  C   UNL     1       2.583 -26.614  21.471  1.00  0.00     0.117 A 
ATOM     28  C   UNL     1       4.744 -26.371  22.252  1.00  0.00     0.086 A 
ATOM     29  C   UNL     1       3.593 -27.117  22.253  1.00  0.00     0.050 A 
BRANCH  28  30
ATOM     30  C   UNL     1       5.920 -26.718  23.038  1.00  0.00     0.053 A 
ATOM     31  C   UNL     1       6.208 -27.913  23.667  1.00  0.00     0.022 A 
ATOM     32  S   UNL     1       7.123 -25.540  23.346  1.00  0.00    -0.136 S 
ATOM     33  C   UNL     1       7.413 -27.848  24.422  1.00  0.00     0.018 A 
ATOM     34  C   UNL     1       8.007 -26.602  24.359  1.00  0.00     0.031 A 
BRANCH  34  35
ATOM     35  C   UNL     1       9.261 -26.146  25.037  1.00  0.00     0.207 C 
BRANCH  35  36
ATOM     36  O   UNL     1       9.895 -25.184  24.197  1.00  0.00    -0.372 OA
BRANCH  36  37
ATOM     37  C   UNL     1      10.415 -24.057  24.900  1.00  0.00     0.188 CG0
ATOM     38  G   UNL     1      10.103 -22.827  24.107  1.00  0.00     0.000 G0
ENDBRANCH  36  37
ENDBRANCH  35  36
ENDBRANCH  34  35
ENDBRANCH  28  30
ENDBRANCH   1  24
TORSDOF 4
ENDMDL
MODEL 3
REMARK VINA RESULT:    -6.671      3.425      5.802
REMARK INTER + INTRA:         -13.926
REMARK INTER:                 -12.220
REMARK INTRA:                  -1.706
REMARK UNBOUND:                -1.795
REMARK SMILES CN1C/C=C/COCc2ccc(s2)-c2ccnc(n2)Nc2ccc(OCCN3CCCC3)c(c2)C1
REMARK SMILES IDX 20 1 21 3 33 4 24 5 34 6 23 7 22 8 35 9 2 10 1 11 3 12 4 13
REMARK SMILES IDX 5 14 25 16 26 17 27 18 28 19 29 20 32 21 30 22 31 23 18 24
REMARK SMILES IDX 17 25 19 26 16 27 14 28 15 29 12 30 11 31 13 32 10 33 9 34
REMARK SMILES IDX 8 35 7 36 6 37
REMARK H PARENT 20 2
REMARK Flexibility Score:  104.900
ROOT
ATOM      1  N   UNL     1       9.603 -23.775  23.068  1.00  0.00    -0.324 N 
ATOM      2  H   UNL     1      10.555 -23.882  22.761  1.00  0.00     0.170 HD
ENDROOT
BRANCH   1   3
ATOM      3  C   UNL     1       8.972 -22.545  22.849  1.00  0.00     0.041 A 
ATOM      4  C   UNL     1       7.405 -21.108  21.601  1.00  0.00     0.010 A 
ATOM      5  C   UNL     1       7.840 -19.988  22.318  1.00  0.00     0.124 A 
ATOM      6  C   UNL     1       7.975 -22.367  21.887  1.00  0.00     0.035 A 
ATOM      7  C   UNL     1       8.820 -20.153  23.303  1.00  0.00     0.049 A 
ATOM      8  C   UNL     1       9.383 -21.414  23.558  1.00  0.00     0.030 A 
BRANCH   4   9
ATOM      9  C   UNL     1       6.357 -21.041  20.504  1.00  0.00     0.124 C 
BRANCH   9  10
ATOM     10  N   UNL     1       5.012 -21.523  20.873  1.00  0.00    -0.298 NA
ATOM     11  C   UNL     1       4.068 -20.456  21.209  1.00  0.00     0.106 C 
BRANCH  10  12
ATOM     12  C   UNL     1       4.456 -22.423  19.854  1.00  0.00     0.111 C 
BRANCH  12  13
ATOM     13  C   UNL     1       3.884 -23.719  20.373  1.00  0.00    -0.014 C 
ATOM     14  C   UNL     1       2.570 -23.965  20.516  1.00  0.00    -0.002 CG0
ATOM     15  G   UNL     1       2.001 -25.256  21.014  1.00  0.00     0.000 G0
ENDBRANCH  12  13
ENDBRANCH  10  12
ENDBRANCH   9  10
ENDBRANCH   4   9
BRANCH   5  16
ATOM     16  O   UNL     1       7.238 -18.801  22.009  1.00  0.00    -0.492 OA
BRANCH  16  17
ATOM     17  C   UNL     1       8.012 -17.834  21.295  1.00  0.00     0.245 C 
BRANCH  17  18
ATOM     18  C   UNL     1       7.363 -17.575  19.922  1.00  0.00     0.126 C 
BRANCH  18  19
ATOM     19  N   UNL     1       6.182 -16.697  19.977  1.00  0.00    -0.300 NA
ATOM     20  C   UNL     1       5.022 -17.300  19.317  1.00  0.00     0.084 C 
ATOM     21  C   UNL     1       6.382 -15.413  19.295  1.00  0.00     0.084 C 
ATOM     22  C   UNL     1       4.075 -16.124  19.121  1.00  0.00     0.017 C 
ATOM     23  C   UNL     1       4.963 -14.885  19.144  1.00  0.00     0.017 C 
ENDBRANCH  18  19
ENDBRANCH  17  18
ENDBRANCH  16  17
ENDBRANCH   5  16
ENDBRANCH   1   3
BRANCH   1  24
ATOM     24  C   UNL     1       9.161 -24.930  23.712  1.00  0.00     0.227 A 
ATOM     25  N   UNL     1       9.911 -25.375  24.732  1.00  0.00    -0.221 NA
ATOM     26  N   UNL     1       8.050 -25.551  23.303  1.00  0.00    -0.212 NA
ATOM     27  C   UNL     1       9.473 -26.472  25.384  1.00  0.00     0.117 A 
ATOM     28  C   UNL     1       7.642 -26.634  23.984  1.00  0.00     0.086 A 
ATOM     29  C   UNL     1       8.326 -27.150  25.055  1.00  0.00     0.050 A 
BRANCH  28  30
ATOM     30  C   UNL     1       6.419 -27.225  23.459  1.00  0.00     0.053 A 
ATOM     31  C   UNL     1       6.145 -28.557  23.221  1.00  0.00     0.022 A 
ATOM     32  S   UNL     1       5.121 -26.219  22.974  1.00  0.00    -0.136 S 
ATOM     33  C   UNL     1       4.870 -28.745  22.615  1.00  0.00     0.018 A 
ATOM     34  C   UNL     1       4.210 -27.551  22.398  1.00  0.00     0.031 A 
BRANCH  34  35
ATOM     35  C   UNL     1       2.870 -27.343  21.764  1.00  0.00     0.207 C 
BRANCH  35  36
ATOM     36  O   UNL     1       2.979 -26.263  20.840  1.00  0.00    -0.372 OA
BRANCH  36  37
ATOM     37  C   UNL     1       1.996 -25.246  21.023  1.00  0.00     0.188 CG0
ATOM     38  G   UNL     1       2.561 -23.954  20.522  1.00  0.00     0.000 G0
ENDBRANCH  36  37
ENDBRANCH  35  36
ENDBRANCH  34  35
ENDBRANCH  28  30
ENDBRANCH   1  24
TORSDOF 4
ENDMDL
MODEL 4
REMARK VINA RESULT:    -6.300      2.713      4.120
REMARK INTER + INTRA:         -13.252
REMARK INTER:                 -11.851
REMARK INTRA:                  -1.401
REMARK UNBOUND:                -1.795
REMARK SMILES CN1C/C=C/COCc2ccc(s2)-c2ccnc(n2)Nc2ccc(OCCN3CCCC3)c(c2)C1
REMARK SMILES IDX 20 1 21 3 33 4 24 5 34 6 23 7 22 8 35 9 2 10 1 11 3 12 4 13
REMARK SMILES IDX 5 14 25 16 26 17 27 18 28 19 29 20 32 21 30 22 31 23 18 24
REMARK SMILES IDX 17 25 19 26 16 27 14 28 15 29 12 30 11 31 13 32 10 33 9 34
REMARK SMILES IDX 8 35 7 36 6 37
REMARK H PARENT 20 2
REMARK Flexibility Score:  104.900
ROOT
ATOM      1  N   UNL     1       4.160 -22.824  19.863  1.00  0.00    -0.324 N 
ATOM      2  H   UNL     1       4.084 -22.888  18.862  1.00  0.00     0.170 HD
ENDROOT
BRANCH   1   3
ATOM      3  C   UNL     1       4.804 -21.706  20.407  1.00  0.00     0.041 A 
ATOM      4  C   UNL     1       6.563 -20.687  21.800  1.00  0.00     0.010 A 
ATOM      5  C   UNL     1       5.980 -19.425  21.637  1.00  0.00     0.124 A 
ATOM      6  C   UNL     1       5.967 -21.802  21.175  1.00  0.00     0.035 A 
ATOM      7  C   UNL     1       4.829 -19.307  20.850  1.00  0.00     0.049 A 
ATOM      8  C   UNL     1       4.246 -20.435  20.249  1.00  0.00     0.030 A 
BRANCH   4   9
ATOM      9  C   UNL     1       7.804 -20.930  22.641  1.00  0.00     0.124 C 
BRANCH   9  10
ATOM     10  N   UNL     1       8.646 -22.069  22.226  1.00  0.00    -0.298 NA
ATOM     11  C   UNL     1       9.485 -21.794  21.059  1.00  0.00     0.106 C 
BRANCH  10  12
ATOM     12  C   UNL     1       9.444 -22.593  23.342  1.00  0.00     0.111 C 
BRANCH  12  13
ATOM     13  C   UNL     1       9.176 -24.030  23.714  1.00  0.00    -0.014 C 
ATOM     14  C   UNL     1       9.983 -24.777  24.489  1.00  0.00    -0.002 CG0
ATOM     15  G   UNL     1       9.709 -26.197  24.873  1.00  0.00     0.000 G0
ENDBRANCH  12  13
ENDBRANCH  10  12
ENDBRANCH   9  10
ENDBRANCH   4   9
BRANCH   5  16
ATOM     16  O   UNL     1       6.614 -18.382  22.252  1.00  0.00    -0.492 OA
BRANCH  16  17
ATOM     17  C   UNL     1       7.185 -17.372  21.417  1.00  0.00     0.245 C 
BRANCH  17  18
ATOM     18  C   UNL     1       8.721 -17.495  21.446  1.00  0.00     0.126 C 
BRANCH  18  19
ATOM     19  N   UNL     1       9.405 -16.648  20.456  1.00  0.00    -0.300 NA
ATOM     20  C   UNL     1      10.832 -16.962  20.362  1.00  0.00     0.084 C 
ATOM     21  C   UNL     1       9.352 -15.217  20.783  1.00  0.00     0.084 C 
ATOM     22  C   UNL     1      11.413 -15.757  19.634  1.00  0.00     0.017 C 
ATOM     23  C   UNL     1      10.424 -14.624  19.879  1.00  0.00     0.017 C 
ENDBRANCH  18  19
ENDBRANCH  17  18
ENDBRANCH  16  17
ENDBRANCH   5  16
ENDBRANCH   1   3
BRANCH   1  24
ATOM     24  C   UNL     1       3.619 -23.956  20.471  1.00  0.00     0.227 A 
ATOM     25  N   UNL     1       2.294 -24.129  20.348  1.00  0.00    -0.221 NA
ATOM     26  N   UNL     1       4.402 -24.802  21.147  1.00  0.00    -0.212 NA
ATOM     27  C   UNL     1       1.765 -25.240  20.903  1.00  0.00     0.117 A 
ATOM     28  C   UNL     1       3.839 -25.900  21.677  1.00  0.00     0.086 A 
ATOM     29  C   UNL     1       2.499 -26.179  21.584  1.00  0.00     0.050 A 
BRANCH  28  30
ATOM     30  C   UNL     1       4.784 -26.755  22.384  1.00  0.00     0.053 A 
ATOM     31  C   UNL     1       4.709 -28.116  22.604  1.00  0.00     0.022 A 
ATOM     32  S   UNL     1       6.158 -26.070  23.141  1.00  0.00    -0.136 S 
ATOM     33  C   UNL     1       5.776 -28.590  23.418  1.00  0.00     0.018 A 
ATOM     34  C   UNL     1       6.631 -27.576  23.807  1.00  0.00     0.031 A 
BRANCH  34  35
ATOM     35  C   UNL     1       7.842 -27.680  24.680  1.00  0.00     0.207 C 
BRANCH  35  36
ATOM     36  O   UNL     1       8.287 -26.358  24.981  1.00  0.00    -0.372 OA
BRANCH  36  37
ATOM     37  C   UNL     1       9.700 -26.189  24.886  1.00  0.00     0.188 CG0
ATOM     38  G   UNL     1       9.976 -24.772  24.494  1.00  0.00     0.000 G0
ENDBRANCH  36  37
ENDBRANCH  35  36
ENDBRANCH  34  35
ENDBRANCH  28  30
ENDBRANCH   1  24
TORSDOF 4
ENDMDL
MODEL 5
REMARK VINA RESULT:    -6.266      2.244      3.991
REMARK INTER + INTRA:         -13.190
REMARK INTER:                 -11.622
REMARK INTRA:                  -1.568
REMARK UNBOUND:                -1.795
REMARK SMILES CN1C/C=C/COCc2ccc(s2)-c2ccnc(n2)Nc2ccc(OCCN3CCCC3)c(c2)C1
REMARK SMILES IDX 20 1 21 3 33 4 24 5 34 6 23 7 22 8 35 9 2 10 1 11 3 12 4 13
REMARK SMILES IDX 5 14 25 16 26 17 27 18 28 19 29 20 32 21 30 22 31 23 18 24
REMARK SMILES IDX 17 25 19 26 16 27 14 28 15 29 12 30 11 31 13 32 10 33 9 34
REMARK SMILES IDX 8 35 7 36 6 37
REMARK H PARENT 20 2
REMARK Flexibility Score:  104.900
ROOT
ATOM      1  N   UNL     1       4.006 -22.849  19.664  1.00  0.00    -0.324 N 
ATOM      2  H   UNL     1       3.773 -22.914  18.687  1.00  0.00     0.170 HD
ENDROOT
BRANCH   1   3
ATOM      3  C   UNL     1       4.767 -21.755  20.092  1.00  0.00     0.041 A 
ATOM      4  C   UNL     1       6.467 -20.744  21.561  1.00  0.00     0.010 A 
ATOM      5  C   UNL     1       6.168 -19.474  21.055  1.00  0.00     0.124 A 
ATOM      6  C   UNL     1       5.764 -21.861  21.063  1.00  0.00     0.035 A 
ATOM      7  C   UNL     1       5.189 -19.352  20.064  1.00  0.00     0.049 A 
ATOM      8  C   UNL     1       4.493 -20.479  19.594  1.00  0.00     0.030 A 
BRANCH   4   9
ATOM      9  C   UNL     1       7.501 -20.988  22.646  1.00  0.00     0.124 C 
BRANCH   9  10
ATOM     10  N   UNL     1       8.652 -21.825  22.256  1.00  0.00    -0.298 NA
ATOM     11  C   UNL     1       9.220 -21.488  20.950  1.00  0.00     0.106 C 
BRANCH  10  12
ATOM     12  C   UNL     1       9.689 -21.846  23.297  1.00  0.00     0.111 C 
BRANCH  12  13
ATOM     13  C   UNL     1       9.771 -23.115  24.109  1.00  0.00    -0.014 C 
ATOM     14  C   UNL     1       9.596 -24.350  23.605  1.00  0.00    -0.002 CG0
ATOM     15  G   UNL     1       9.694 -25.610  24.406  1.00  0.00     0.000 G0
ENDBRANCH  12  13
ENDBRANCH  10  12
ENDBRANCH   9  10
ENDBRANCH   4   9
BRANCH   5  16
ATOM     16  O   UNL     1       6.895 -18.434  21.565  1.00  0.00    -0.492 OA
BRANCH  16  17
ATOM     17  C   UNL     1       7.292 -17.401  20.660  1.00  0.00     0.245 C 
BRANCH  17  18
ATOM     18  C   UNL     1       8.666 -16.850  21.087  1.00  0.00     0.126 C 
BRANCH  18  19
ATOM     19  N   UNL     1       9.580 -17.874  21.619  1.00  0.00    -0.300 NA
ATOM     20  C   UNL     1      10.065 -17.532  22.957  1.00  0.00     0.084 C 
ATOM     21  C   UNL     1      10.791 -18.046  20.807  1.00  0.00     0.084 C 
ATOM     22  C   UNL     1      11.262 -18.453  23.146  1.00  0.00     0.017 C 
ATOM     23  C   UNL     1      11.714 -18.820  21.738  1.00  0.00     0.017 C 
ENDBRANCH  18  19
ENDBRANCH  17  18
ENDBRANCH  16  17
ENDBRANCH   5  16
ENDBRANCH   1   3
BRANCH   1  24
ATOM     24  C   UNL     1       3.523 -23.958  20.358  1.00  0.00     0.227 A 
ATOM     25  N   UNL     1       2.199 -24.170  20.306  1.00  0.00    -0.221 NA
ATOM     26  N   UNL     1       4.358 -24.744  21.045  1.00  0.00    -0.212 NA
ATOM     27  C   UNL     1       1.726 -25.260  20.946  1.00  0.00     0.117 A 
ATOM     28  C   UNL     1       3.849 -25.824  21.660  1.00  0.00     0.086 A 
ATOM     29  C   UNL     1       2.515 -26.140  21.644  1.00  0.00     0.050 A 
BRANCH  28  30
ATOM     30  C   UNL     1       4.847 -26.613  22.370  1.00  0.00     0.053 A 
ATOM     31  C   UNL     1       4.818 -27.960  22.672  1.00  0.00     0.022 A 
ATOM     32  S   UNL     1       6.236 -25.852  23.020  1.00  0.00    -0.136 S 
ATOM     33  C   UNL     1       5.933 -28.360  23.461  1.00  0.00     0.018 A 
ATOM     34  C   UNL     1       6.778 -27.305  23.749  1.00  0.00     0.031 A 
BRANCH  34  35
ATOM     35  C   UNL     1       8.031 -27.329  24.568  1.00  0.00     0.207 C 
BRANCH  35  36
ATOM     36  O   UNL     1       8.395 -25.981  24.862  1.00  0.00    -0.372 OA
BRANCH  36  37
ATOM     37  C   UNL     1       9.699 -25.624  24.411  1.00  0.00     0.188 CG0
ATOM     38  G   UNL     1       9.590 -24.357  23.622  1.00  0.00     0.000 G0
ENDBRANCH  36  37
ENDBRANCH  35  36
ENDBRANCH  34  35
ENDBRANCH  28  30
ENDBRANCH   1  24
TORSDOF 4
ENDMDL
MODEL 6
REMARK VINA RESULT:    -6.152      3.352      8.105
REMARK INTER + INTRA:         -12.983
REMARK INTER:                 -11.298
REMARK INTRA:                  -1.685
REMARK UNBOUND:                -1.795
REMARK SMILES CN1C/C=C/COCc2ccc(s2)-c2ccnc(n2)Nc2ccc(OCCN3CCCC3)c(c2)C1
REMARK SMILES IDX 20 1 21 3 33 4 24 5 34 6 23 7 22 8 35 9 2 10 1 11 3 12 4 13
REMARK SMILES IDX 5 14 25 16 26 17 27 18 28 19 29 20 32 21 30 22 31 23 18 24
REMARK SMILES IDX 17 25 19 26 16 27 14 28 15 29 12 30 11 31 13 32 10 33 9 34
REMARK SMILES IDX 8 35 7 36 6 37
REMARK H PARENT 20 2
REMARK Flexibility Score:  104.900
ROOT
ATOM      1  N   UNL     1       4.385 -20.643  18.979  1.00  0.00    -0.324 N 
ATOM      2  H   UNL     1       4.002 -20.838  18.069  1.00  0.00     0.170 HD
ENDROOT
BRANCH   1   3
ATOM      3  C   UNL     1       4.832 -21.720  19.753  1.00  0.00     0.041 A 
ATOM      4  C   UNL     1       6.640 -23.044  20.779  1.00  0.00     0.010 A 
ATOM      5  C   UNL     1       5.718 -24.016  21.182  1.00  0.00     0.124 A 
ATOM      6  C   UNL     1       6.177 -21.910  20.079  1.00  0.00     0.035 A 
ATOM      7  C   UNL     1       4.363 -23.829  20.886  1.00  0.00     0.049 A 
ATOM      8  C   UNL     1       3.929 -22.698  20.174  1.00  0.00     0.030 A 
BRANCH   4   9
ATOM      9  C   UNL     1       8.133 -23.152  21.038  1.00  0.00     0.124 C 
BRANCH   9  10
ATOM     10  N   UNL     1       8.713 -22.098  21.892  1.00  0.00    -0.298 NA
ATOM     11  C   UNL     1       8.890 -22.494  23.290  1.00  0.00     0.106 C 
BRANCH  10  12
ATOM     12  C   UNL     1       9.961 -21.564  21.330  1.00  0.00     0.111 C 
BRANCH  12  13
ATOM     13  C   UNL     1      10.140 -20.071  21.446  1.00  0.00    -0.014 C 
ATOM     14  C   UNL     1      11.039 -19.358  20.745  1.00  0.00    -0.002 CG0
ATOM     15  G   UNL     1      11.206 -17.874  20.846  1.00  0.00     0.000 G0
ENDBRANCH  12  13
ENDBRANCH  10  12
ENDBRANCH   9  10
ENDBRANCH   4   9
BRANCH   5  16
ATOM     16  O   UNL     1       6.225 -25.082  21.872  1.00  0.00    -0.492 OA
BRANCH  16  17
ATOM     17  C   UNL     1       6.060 -25.087  23.291  1.00  0.00     0.245 C 
BRANCH  17  18
ATOM     18  C   UNL     1       5.574 -26.478  23.742  1.00  0.00     0.126 C 
BRANCH  18  19
ATOM     19  N   UNL     1       5.061 -27.315  22.645  1.00  0.00    -0.300 NA
ATOM     20  C   UNL     1       3.638 -27.078  22.396  1.00  0.00     0.084 C 
ATOM     21  C   UNL     1       5.165 -28.754  22.917  1.00  0.00     0.084 C 
ATOM     22  C   UNL     1       3.220 -28.278  21.558  1.00  0.00     0.017 C 
ATOM     23  C   UNL     1       4.243 -29.363  21.871  1.00  0.00     0.017 C 
ENDBRANCH  18  19
ENDBRANCH  17  18
ENDBRANCH  16  17
ENDBRANCH   5  16
ENDBRANCH   1   3
BRANCH   1  24
ATOM     24  C   UNL     1       4.314 -19.279  19.259  1.00  0.00     0.227 A 
ATOM     25  N   UNL     1       3.098 -18.715  19.200  1.00  0.00    -0.221 NA
ATOM     26  N   UNL     1       5.421 -18.590  19.555  1.00  0.00    -0.212 NA
ATOM     27  C   UNL     1       3.014 -17.403  19.505  1.00  0.00     0.117 A 
ATOM     28  C   UNL     1       5.294 -17.288  19.861  1.00  0.00     0.086 A 
ATOM     29  C   UNL     1       4.092 -16.628  19.854  1.00  0.00     0.050 A 
BRANCH  28  30
ATOM     30  C   UNL     1       6.559 -16.638  20.175  1.00  0.00     0.053 A 
ATOM     31  C   UNL     1       7.183 -15.608  19.500  1.00  0.00     0.022 A 
ATOM     32  S   UNL     1       7.507 -17.198  21.485  1.00  0.00    -0.136 S 
ATOM     33  C   UNL     1       8.458 -15.297  20.052  1.00  0.00     0.018 A 
ATOM     34  C   UNL     1       8.777 -16.104  21.127  1.00  0.00     0.031 A 
BRANCH  34  35
ATOM     35  C   UNL     1      10.031 -16.094  21.944  1.00  0.00     0.207 C 
BRANCH  35  36
ATOM     36  O   UNL     1      10.522 -17.431  22.020  1.00  0.00    -0.372 OA
BRANCH  36  37
ATOM     37  C   UNL     1      11.205 -17.863  20.846  1.00  0.00     0.188 CG0
ATOM     38  G   UNL     1      11.060 -19.349  20.739  1.00  0.00     0.000 G0
ENDBRANCH  36  37
ENDBRANCH  35  36
ENDBRANCH  34  35
ENDBRANCH  28  30
ENDBRANCH   1  24
TORSDOF 4
ENDMDL
MODEL 7
REMARK VINA RESULT:    -6.138      3.299      6.247
REMARK INTER + INTRA:         -12.957
REMARK INTER:                 -11.179
REMARK INTRA:                  -1.778
REMARK UNBOUND:                -1.795
REMARK SMILES CN1C/C=C/COCc2ccc(s2)-c2ccnc(n2)Nc2ccc(OCCN3CCCC3)c(c2)C1
REMARK SMILES IDX 20 1 21 3 33 4 24 5 34 6 23 7 22 8 35 9 2 10 1 11 3 12 4 13
REMARK SMILES IDX 5 14 25 16 26 17 27 18 28 19 29 20 32 21 30 22 31 23 18 24
REMARK SMILES IDX 17 25 19 26 16 27 14 28 15 29 12 30 11 31 13 32 10 33 9 34
REMARK SMILES IDX 8 35 7 36 6 37
REMARK H PARENT 20 2
REMARK Flexibility Score:  104.900
ROOT
ATOM      1  N   UNL     1      10.031 -23.830  23.589  1.00  0.00    -0.324 N 
ATOM      2  H   UNL     1      10.990 -23.957  23.313  1.00  0.00     0.170 HD
ENDROOT
BRANCH   1   3
ATOM      3  C   UNL     1       9.463 -22.559  23.443  1.00  0.00     0.041 A 
ATOM      4  C   UNL     1       7.961 -20.980  22.294  1.00  0.00     0.010 A 
ATOM      5  C   UNL     1       8.461 -19.923  23.063  1.00  0.00     0.124 A 
ATOM      6  C   UNL     1       8.467 -22.279  22.505  1.00  0.00     0.035 A 
ATOM      7  C   UNL     1       9.442 -20.190  24.024  1.00  0.00     0.049 A 
ATOM      8  C   UNL     1       9.940 -21.491  24.206  1.00  0.00     0.030 A 
BRANCH   4   9
ATOM      9  C   UNL     1       6.906 -20.800  21.216  1.00  0.00     0.124 C 
BRANCH   9  10
ATOM     10  N   UNL     1       5.534 -21.196  21.590  1.00  0.00    -0.298 NA
ATOM     11  C   UNL     1       4.883 -20.276  22.524  1.00  0.00     0.106 C 
BRANCH  10  12
ATOM     12  C   UNL     1       4.694 -21.437  20.409  1.00  0.00     0.111 C 
BRANCH  12  13
ATOM     13  C   UNL     1       3.937 -22.742  20.405  1.00  0.00    -0.014 C 
ATOM     14  C   UNL     1       4.501 -23.945  20.196  1.00  0.00    -0.002 CG0
ATOM     15  G   UNL     1       3.755 -25.242  20.209  1.00  0.00     0.000 G0
ENDBRANCH  12  13
ENDBRANCH  10  12
ENDBRANCH   9  10
ENDBRANCH   4   9
BRANCH   5  16
ATOM     16  O   UNL     1       7.919 -18.691  22.824  1.00  0.00    -0.492 OA
BRANCH  16  17
ATOM     17  C   UNL     1       8.820 -17.606  22.597  1.00  0.00     0.245 C 
BRANCH  17  18
ATOM     18  C   UNL     1       9.187 -17.553  21.101  1.00  0.00     0.126 C 
BRANCH  18  19
ATOM     19  N   UNL     1      10.605 -17.839  20.824  1.00  0.00    -0.300 NA
ATOM     20  C   UNL     1      10.833 -19.261  20.563  1.00  0.00     0.084 C 
ATOM     21  C   UNL     1      11.492 -17.511  21.947  1.00  0.00     0.084 C 
ATOM     22  C   UNL     1      12.341 -19.410  20.711  1.00  0.00     0.017 C 
ATOM     23  C   UNL     1      12.777 -18.242  21.587  1.00  0.00     0.017 C 
ENDBRANCH  18  19
ENDBRANCH  17  18
ENDBRANCH  16  17
ENDBRANCH   5  16
ENDBRANCH   1   3
BRANCH   1  24
ATOM     24  C   UNL     1       9.513 -25.010  24.122  1.00  0.00     0.227 A 
ATOM     25  N   UNL     1      10.246 -25.616  25.069  1.00  0.00    -0.221 NA
ATOM     26  N   UNL     1       8.349 -25.499  23.682  1.00  0.00    -0.212 NA
ATOM     27  C   UNL     1       9.737 -26.739  25.616  1.00  0.00     0.117 A 
ATOM     28  C   UNL     1       7.872 -26.614  24.258  1.00  0.00     0.086 A 
ATOM     29  C   UNL     1       8.534 -27.291  25.251  1.00  0.00     0.050 A 
BRANCH  28  30
ATOM     30  C   UNL     1       6.596 -27.052  23.709  1.00  0.00     0.053 A 
ATOM     31  C   UNL     1       6.170 -28.340  23.453  1.00  0.00     0.022 A 
ATOM     32  S   UNL     1       5.434 -25.896  23.214  1.00  0.00    -0.136 S 
ATOM     33  C   UNL     1       4.892 -28.372  22.826  1.00  0.00     0.018 A 
ATOM     34  C   UNL     1       4.381 -27.106  22.611  1.00  0.00     0.031 A 
BRANCH  34  35
ATOM     35  C   UNL     1       3.086 -26.737  21.959  1.00  0.00     0.207 C 
BRANCH  35  36
ATOM     36  O   UNL     1       3.181 -25.385  21.515  1.00  0.00    -0.372 OA
BRANCH  36  37
ATOM     37  C   UNL     1       3.770 -25.241  20.224  1.00  0.00     0.188 CG0
ATOM     38  G   UNL     1       4.502 -23.937  20.187  1.00  0.00     0.000 G0
ENDBRANCH  36  37
ENDBRANCH  35  36
ENDBRANCH  34  35
ENDBRANCH  28  30
ENDBRANCH   1  24
TORSDOF 4
ENDMDL
MODEL 8
REMARK VINA RESULT:    -6.010      3.248      5.852
REMARK INTER + INTRA:         -12.724
REMARK INTER:                 -11.737
REMARK INTRA:                  -0.987
REMARK UNBOUND:                -1.795
REMARK SMILES CN1C/C=C/COCc2ccc(s2)-c2ccnc(n2)Nc2ccc(OCCN3CCCC3)c(c2)C1
REMARK SMILES IDX 20 1 21 3 33 4 24 5 34 6 23 7 22 8 35 9 2 10 1 11 3 12 4 13
REMARK SMILES IDX 5 14 25 16 26 17 27 18 28 19 29 20 32 21 30 22 31 23 18 24
REMARK SMILES IDX 17 25 19 26 16 27 14 28 15 29 12 30 11 31 13 32 10 33 9 34
REMARK SMILES IDX 8 35 7 36 6 37
REMARK H PARENT 20 2
REMARK Flexibility Score:  104.900
ROOT
ATOM      1  N   UNL     1       9.107 -20.785  21.128  1.00  0.00    -0.324 N 
ATOM      2  H   UNL     1       9.915 -20.531  20.584  1.00  0.00     0.170 HD
ENDROOT
BRANCH   1   3
ATOM      3  C   UNL     1       7.846 -20.391  20.666  1.00  0.00     0.041 A 
ATOM      4  C   UNL     1       5.435 -20.790  20.351  1.00  0.00     0.010 A 
ATOM      5  C   UNL     1       5.334 -19.641  19.559  1.00  0.00     0.124 A 
ATOM      6  C   UNL     1       6.689 -21.138  20.895  1.00  0.00     0.035 A 
ATOM      7  C   UNL     1       6.479 -18.867  19.339  1.00  0.00     0.049 A 
ATOM      8  C   UNL     1       7.719 -19.243  19.881  1.00  0.00     0.030 A 
BRANCH   4   9
ATOM      9  C   UNL     1       4.260 -21.707  20.642  1.00  0.00     0.124 C 
BRANCH   9  10
ATOM     10  N   UNL     1       4.109 -22.862  19.736  1.00  0.00    -0.298 NA
ATOM     11  C   UNL     1       5.377 -23.443  19.294  1.00  0.00     0.106 C 
BRANCH  10  12
ATOM     12  C   UNL     1       3.224 -23.889  20.303  1.00  0.00     0.111 C 
BRANCH  12  13
ATOM     13  C   UNL     1       3.870 -24.835  21.284  1.00  0.00    -0.014 C 
ATOM     14  C   UNL     1       3.450 -26.092  21.514  1.00  0.00    -0.002 CG0
ATOM     15  G   UNL     1       4.101 -27.038  22.473  1.00  0.00     0.000 G0
ENDBRANCH  12  13
ENDBRANCH  10  12
ENDBRANCH   9  10
ENDBRANCH   4   9
BRANCH   5  16
ATOM     16  O   UNL     1       4.090 -19.347  19.075  1.00  0.00    -0.492 OA
BRANCH  16  17
ATOM     17  C   UNL     1       3.335 -18.346  19.761  1.00  0.00     0.245 C 
BRANCH  17  18
ATOM     18  C   UNL     1       2.117 -17.950  18.904  1.00  0.00     0.126 C 
BRANCH  18  19
ATOM     19  N   UNL     1       2.237 -16.626  18.272  1.00  0.00    -0.300 NA
ATOM     20  C   UNL     1       1.820 -16.651  16.869  1.00  0.00     0.084 C 
ATOM     21  C   UNL     1       3.615 -16.118  18.250  1.00  0.00     0.084 C 
ATOM     22  C   UNL     1       2.389 -15.355  16.307  1.00  0.00     0.017 C 
ATOM     23  C   UNL     1       3.542 -14.987  17.234  1.00  0.00     0.017 C 
ENDBRANCH  18  19
ENDBRANCH  17  18
ENDBRANCH  16  17
ENDBRANCH   5  16
ENDBRANCH   1   3
BRANCH   1  24
ATOM     24  C   UNL     1       9.489 -21.457  22.289  1.00  0.00     0.227 A 
ATOM     25  N   UNL     1      10.369 -20.829  23.085  1.00  0.00    -0.221 NA
ATOM     26  N   UNL     1       8.998 -22.669  22.564  1.00  0.00    -0.212 NA
ATOM     27  C   UNL     1      10.718 -21.455  24.228  1.00  0.00     0.117 A 
ATOM     28  C   UNL     1       9.363 -23.255  23.716  1.00  0.00     0.086 A 
ATOM     29  C   UNL     1      10.236 -22.683  24.606  1.00  0.00     0.050 A 
BRANCH  28  30
ATOM     30  C   UNL     1       8.764 -24.567  23.917  1.00  0.00     0.053 A 
ATOM     31  C   UNL     1       9.261 -25.634  24.638  1.00  0.00     0.022 A 
ATOM     32  S   UNL     1       7.290 -24.963  23.141  1.00  0.00    -0.136 S 
ATOM     33  C   UNL     1       8.435 -26.789  24.531  1.00  0.00     0.018 A 
ATOM     34  C   UNL     1       7.335 -26.575  23.723  1.00  0.00     0.031 A 
BRANCH  34  35
ATOM     35  C   UNL     1       6.263 -27.551  23.352  1.00  0.00     0.207 C 
BRANCH  35  36
ATOM     36  O   UNL     1       5.508 -26.996  22.277  1.00  0.00    -0.372 OA
BRANCH  36  37
ATOM     37  C   UNL     1       4.097 -27.033  22.482  1.00  0.00     0.188 CG0
ATOM     38  G   UNL     1       3.457 -26.101  21.503  1.00  0.00     0.000 G0
ENDBRANCH  36  37
ENDBRANCH  35  36
ENDBRANCH  34  35
ENDBRANCH  28  30
ENDBRANCH   1  24
TORSDOF 4
ENDMDL
MODEL 9
REMARK VINA RESULT:    -5.981      3.033      8.258
REMARK INTER + INTRA:         -12.672
REMARK INTER:                 -12.159
REMARK INTRA:                  -0.513
REMARK UNBOUND:                -1.795
REMARK SMILES CN1C/C=C/COCc2ccc(s2)-c2ccnc(n2)Nc2ccc(OCCN3CCCC3)c(c2)C1
REMARK SMILES IDX 20 1 21 3 33 4 24 5 34 6 23 7 22 8 35 9 2 10 1 11 3 12 4 13
REMARK SMILES IDX 5 14 25 16 26 17 27 18 28 19 29 20 32 21 30 22 31 23 18 24
REMARK SMILES IDX 17 25 19 26 16 27 14 28 15 29 12 30 11 31 13 32 10 33 9 34
REMARK SMILES IDX 8 35 7 36 6 37
REMARK H PARENT 20 2
REMARK Flexibility Score:  104.900
ROOT
ATOM      1  N   UNL     1       5.475 -27.548  23.241  1.00  0.00    -0.324 N 
ATOM      2  H   UNL     1       5.191 -28.476  23.504  1.00  0.00     0.170 HD
ENDROOT
BRANCH   1   3
ATOM      3  C   UNL     1       6.644 -27.027  23.809  1.00  0.00     0.041 A 
ATOM      4  C   UNL     1       8.308 -25.228  24.069  1.00  0.00     0.010 A 
ATOM      5  C   UNL     1       9.115 -26.069  24.845  1.00  0.00     0.124 A 
ATOM      6  C   UNL     1       7.084 -25.723  23.573  1.00  0.00     0.035 A 
ATOM      7  C   UNL     1       8.678 -27.371  25.111  1.00  0.00     0.049 A 
ATOM      8  C   UNL     1       7.461 -27.844  24.593  1.00  0.00     0.030 A 
BRANCH   4   9
ATOM      9  C   UNL     1       8.691 -23.804  23.709  1.00  0.00     0.124 C 
BRANCH   9  10
ATOM     10  N   UNL     1       9.051 -23.575  22.297  1.00  0.00    -0.298 NA
ATOM     11  C   UNL     1       8.083 -24.114  21.340  1.00  0.00     0.106 C 
BRANCH  10  12
ATOM     12  C   UNL     1       9.331 -22.158  22.027  1.00  0.00     0.111 C 
BRANCH  12  13
ATOM     13  C   UNL     1       8.310 -21.443  21.178  1.00  0.00    -0.014 C 
ATOM     14  C   UNL     1       8.010 -20.137  21.291  1.00  0.00    -0.002 CG0
ATOM     15  G   UNL     1       7.010 -19.423  20.437  1.00  0.00     0.000 G0
ENDBRANCH  12  13
ENDBRANCH  10  12
ENDBRANCH   9  10
ENDBRANCH   4   9
BRANCH   5  16
ATOM     16  O   UNL     1      10.280 -25.527  25.311  1.00  0.00    -0.492 OA
BRANCH  16  17
ATOM     17  C   UNL     1      11.505 -26.123  24.879  1.00  0.00     0.245 C 
BRANCH  17  18
ATOM     18  C   UNL     1      12.373 -26.453  26.108  1.00  0.00     0.126 C 
BRANCH  18  19
ATOM     19  N   UNL     1      12.703 -27.882  26.238  1.00  0.00    -0.300 NA
ATOM     20  C   UNL     1      12.875 -28.278  27.637  1.00  0.00     0.084 C 
ATOM     21  C   UNL     1      13.965 -28.247  25.582  1.00  0.00     0.084 C 
ATOM     22  C   UNL     1      13.590 -29.618  27.541  1.00  0.00     0.017 C 
ATOM     23  C   UNL     1      14.273 -29.613  26.178  1.00  0.00     0.017 C 
ENDBRANCH  18  19
ENDBRANCH  17  18
ENDBRANCH  16  17
ENDBRANCH   5  16
ENDBRANCH   1   3
BRANCH   1  24
ATOM     24  C   UNL     1       4.547 -26.978  22.370  1.00  0.00     0.227 A 
ATOM     25  N   UNL     1       3.380 -27.624  22.229  1.00  0.00    -0.221 NA
ATOM     26  N   UNL     1       4.837 -25.850  21.713  1.00  0.00    -0.212 NA
ATOM     27  C   UNL     1       2.460 -27.062  21.416  1.00  0.00     0.117 A 
ATOM     28  C   UNL     1       3.892 -25.318  20.920  1.00  0.00     0.086 A 
ATOM     29  C   UNL     1       2.660 -25.890  20.730  1.00  0.00     0.050 A 
BRANCH  28  30
ATOM     30  C   UNL     1       4.311 -24.089  20.261  1.00  0.00     0.053 A 
ATOM     31  C   UNL     1       5.121 -23.945  19.152  1.00  0.00     0.022 A 
ATOM     32  S   UNL     1       3.856 -22.571  20.909  1.00  0.00    -0.136 S 
ATOM     33  C   UNL     1       5.386 -22.579  18.851  1.00  0.00     0.018 A 
ATOM     34  C   UNL     1       4.778 -21.717  19.744  1.00  0.00     0.031 A 
BRANCH  34  35
ATOM     35  C   UNL     1       4.845 -20.222  19.769  1.00  0.00     0.207 C 
BRANCH  35  36
ATOM     36  O   UNL     1       5.695 -19.833  20.846  1.00  0.00    -0.372 OA
BRANCH  36  37
ATOM     37  C   UNL     1       6.996 -19.419  20.435  1.00  0.00     0.188 CG0
ATOM     38  G   UNL     1       8.004 -20.134  21.279  1.00  0.00     0.000 G0
ENDBRANCH  36  37
ENDBRANCH  35  36
ENDBRANCH  34  35
ENDBRANCH  28  30
ENDBRANCH   1  24
TORSDOF 4
ENDMDL
