MODEL 9
REMARK minimizedAffinity -8.32548809
REMARK CNNscore 0.169093162
REMARK CNNaffinity 5.98700285
REMARK SMILES CC[NH+](CC)C/C=C/C(=O)Nc1ccc2ncnc(Nc3cccc(Br)c3)c2c1
REMARK SMILES IDX 9 1 10 2 11 3 8 5 7 6 6 7 3 8 2 10 1 11 4 12 5 13 12 14
REMARK SMILES IDX 29 15 13 16 28 17 14 18 15 19 19 20 16 21 18 22 17 23 20 24
REMARK SMILES IDX 21 26 27 27 22 28 25 29 23 30 24 31 26 32
REMARK H PARENT 11 4 3 9 20 25
ROOT
ATOM      1  C   UNL     1      16.055  40.253   8.471  1.00  0.00     0.248 C 
ATOM      2  O   UNL     1      16.196  39.545   9.470  1.00  0.00    -0.270 OA
ATOM      3  N   UNL     1      14.872  40.625   7.937  1.00  0.00    -0.322 N 
ATOM      4  H   UNL     1      14.921  41.182   7.096  1.00  0.00     0.170 HD
ENDROOT
BRANCH   1   5
ATOM      5  C   UNL     1      17.177  40.786   7.730  1.00  0.00     0.073 C 
ATOM      6  C   UNL     1      17.577  40.282   6.545  1.00  0.00     0.039 C 
BRANCH   6   7
ATOM      7  C   UNL     1      18.745  40.819   5.742  1.00  0.00     0.291 C 
BRANCH   7   8
ATOM      8  N   UNL     1      19.671  39.679   5.245  1.00  0.00    -0.332 N 
ATOM      9  H   UNL     1      19.486  39.569   4.257  1.00  0.00     0.348 HD
BRANCH   8  10
ATOM     10  C   UNL     1      21.177  40.020   5.356  1.00  0.00     0.259 C 
ATOM     11  C   UNL     1      21.821  39.335   6.573  1.00  0.00     0.071 C 
ENDBRANCH   8  10
BRANCH   8  12
ATOM     12  C   UNL     1      19.350  38.305   5.882  1.00  0.00     0.259 C 
ATOM     13  C   UNL     1      19.761  37.156   4.944  1.00  0.00     0.071 C 
ENDBRANCH   8  12
ENDBRANCH   7   8
ENDBRANCH   6   7
ENDBRANCH   1   5
BRANCH   3  14
ATOM     14  C   UNL     1      13.557  40.333   8.351  1.00  0.00     0.042 A 
ATOM     15  C   UNL     1      13.217  39.686   9.550  1.00  0.00     0.040 A 
ATOM     16  C   UNL     1      12.545  40.741   7.480  1.00  0.00     0.028 A 
ATOM     17  C   UNL     1      11.855  39.437   9.878  1.00  0.00     0.045 A 
ATOM     18  C   UNL     1      11.204  40.513   7.770  1.00  0.00     0.031 A 
ATOM     19  C   UNL     1      10.836  39.859   8.968  1.00  0.00     0.076 A 
ATOM     20  C   UNL     1      11.403  38.786  11.069  1.00  0.00     0.141 A 
ATOM     21  N   UNL     1       9.514  39.648   9.220  1.00  0.00    -0.236 NA
ATOM     22  N   UNL     1      10.084  38.573  11.312  1.00  0.00    -0.219 NA
ATOM     23  C   UNL     1       9.211  39.016  10.378  1.00  0.00     0.224 A 
BRANCH  20  24
ATOM     24  N   UNL     1      12.341  38.324  12.015  1.00  0.00    -0.340 N 
ATOM     25  H   UNL     1      12.513  38.986  12.756  1.00  0.00     0.168 HD
BRANCH  24  26
ATOM     26  C   UNL     1      13.166  37.187  12.082  1.00  0.00     0.041 A 
ATOM     27  C   UNL     1      14.070  36.981  11.034  1.00  0.00     0.041 A 
ATOM     28  C   UNL     1      13.151  36.280  13.152  1.00  0.00     0.026 A 
ATOM     29  C   UNL     1      14.927  35.880  11.041  1.00  0.00     0.020 A 
ATOM     30  C   UNL     1      14.008  35.179  13.159  1.00  0.00     0.003 A 
ATOM     31  C   UNL     1      14.894  34.977  12.102  1.00  0.00     0.016 A 
ATOM     32  Br  UNL     1      16.141  35.612   9.600  1.00  0.00    -0.051 Br
ENDBRANCH  24  26
ENDBRANCH  20  24
ENDBRANCH   3  14
TORSDOF 8
ENDMDL
