REMARK SMILES CN(c1ncnc2[nH]ccc12)[C@H]1CC[C@H](CS(=O)(=O)N2CC[C@H](CO)C2)CC1
REMARK SMILES IDX 17 1 18 2 19 3 16 4 15 5 12 6 13 7 28 8 14 9 27 10 2 11 1 12
REMARK SMILES IDX 3 13 4 14 11 15 5 16 10 17 7 18 6 19 9 20 8 21 20 23 21 24
REMARK SMILES IDX 26 25 22 26 23 27 24 28 25 29
REMARK H PARENT 8 22 25 30
REMARK INDEX MAP 17 1 18 2 19 3 16 4 15 5 12 6 13 7 28 8 14 9 27 10 2 11 1 12
REMARK INDEX MAP 3 13 4 14 11 15 5 16 10 17 7 18 6 19 9 20 8 21 33 22 20 23
REMARK INDEX MAP 21 24 26 25 22 26 23 27 24 28 25 29 51 30
ROOT
ATOM      1  S   UNL     1     -21.945  19.098  22.172  1.00  0.00     0.214 S 
ATOM      2  O   UNL     1     -22.505  20.023  23.135  1.00  0.00    -0.212 OA
ATOM      3  O   UNL     1     -22.666  17.916  21.756  1.00  0.00    -0.212 OA
ENDROOT
BRANCH   1   4
ATOM      4  C   UNL     1     -20.295  18.645  22.711  1.00  0.00     0.157 C 
BRANCH   4   5
ATOM      5  C   UNL     1     -19.477  17.930  21.625  1.00  0.00     0.005 C 
ATOM      6  C   UNL     1     -16.863  17.155  20.423  1.00  0.00     0.083 C 
ATOM      7  C   UNL     1     -17.686  16.162  21.260  1.00  0.00     0.025 C 
ATOM      8  C   UNL     1     -17.774  18.191  19.751  1.00  0.00     0.025 C 
ATOM      9  C   UNL     1     -18.551  16.892  22.286  1.00  0.00     0.007 C 
ATOM     10  C   UNL     1     -18.657  18.911  20.771  1.00  0.00     0.007 C 
BRANCH   6  11
ATOM     11  N   UNL     1     -16.030  16.463  19.430  1.00  0.00    -0.356 N 
ATOM     12  C   UNL     1     -16.271  16.643  18.010  1.00  0.00     0.145 C 
BRANCH  11  13
ATOM     13  C   UNL     1     -14.898  15.783  19.871  1.00  0.00     0.141 A 
ATOM     14  N   UNL     1     -13.854  16.521  20.351  1.00  0.00    -0.219 NA
ATOM     15  C   UNL     1     -14.717  14.373  19.870  1.00  0.00     0.061 A 
ATOM     16  C   UNL     1     -12.726  15.914  20.765  1.00  0.00     0.226 A 
ATOM     17  C   UNL     1     -15.479  13.211  19.531  1.00  0.00     0.033 A 
ATOM     18  C   UNL     1     -13.496  13.893  20.332  1.00  0.00     0.142 A 
ATOM     19  N   UNL     1     -12.458  14.603  20.788  1.00  0.00    -0.218 NA
ATOM     20  C   UNL     1     -14.706  12.095  19.773  1.00  0.00     0.085 A 
ATOM     21  N   UNL     1     -13.502  12.528  20.256  1.00  0.00    -0.346 N 
ATOM     22  H   UNL     1     -12.717  11.917  20.523  1.00  0.00     0.167 HD
ENDBRANCH  11  13
ENDBRANCH   6  11
ENDBRANCH   4   5
ENDBRANCH   1   4
BRANCH   1  23
ATOM     23  N   UNL     1     -21.603  19.994  20.772  1.00  0.00    -0.202 NA
ATOM     24  C   UNL     1     -22.668  20.088  19.735  1.00  0.00     0.102 C 
ATOM     25  C   UNL     1     -21.076  21.365  21.022  1.00  0.00     0.108 C 
ATOM     26  C   UNL     1     -22.769  21.568  19.388  1.00  0.00     0.024 C 
ATOM     27  C   UNL     1     -21.398  22.133  19.743  1.00  0.00     0.031 C 
BRANCH  27  28
ATOM     28  C   UNL     1     -20.367  21.896  18.639  1.00  0.00     0.161 C 
BRANCH  28  29
ATOM     29  O   UNL     1     -20.625  22.751  17.532  1.00  0.00    -0.396 OA
ATOM     30  H   UNL     1     -20.895  23.645  17.861  1.00  0.00     0.210 HD
ENDBRANCH  28  29
ENDBRANCH  27  28
ENDBRANCH   1  23
TORSDOF 7
