REMARK VINA RESULT:    -8.694      3.996      6.382
REMARK INTER + INTRA:         -13.799
REMARK INTER:                 -12.913
REMARK INTRA:                  -0.886
REMARK UNBOUND:                -0.786
REMARK SMILES CCO[C@@H](Cc1ccc2c(ccn2Cc2nc(-c3ccccc3Cl)oc2C)c1)C(=O)O
REMARK SMILES IDX 6 1 7 2 8 3 9 4 10 5 11 6 12 7 13 8 28 9 5 10 4 11 3 12 2 13
REMARK SMILES IDX 1 14 29 15 30 16 31 17 14 19 15 20 16 21 26 22 17 23 25 24
REMARK SMILES IDX 27 25 18 26 19 27 23 28 20 29 22 30 21 31 24 32
REMARK H PARENT 31 18
ROOT
ATOM      1  C   UNL     1       3.602   5.700  -2.970  1.00  0.00    -0.044 A 
ATOM      2  C   UNL     1       3.448   7.079  -2.793  1.00  0.00     0.006 A 
ATOM      3  C   UNL     1       4.082   7.999  -3.634  1.00  0.00     0.027 A 
ATOM      4  C   UNL     1       4.884   7.501  -4.673  1.00  0.00     0.048 A 
ATOM      5  C   UNL     1       5.059   6.130  -4.876  1.00  0.00    -0.000 A 
ATOM      6  C   UNL     1       5.917   5.975  -5.999  1.00  0.00     0.028 A 
ATOM      7  C   UNL     1       6.242   7.231  -6.456  1.00  0.00     0.087 A 
ATOM      8  N   UNL     1       5.625   8.150  -5.641  1.00  0.00    -0.341 N 
ATOM      9  C   UNL     1       4.409   5.222  -4.017  1.00  0.00     0.014 A 
ENDROOT
BRANCH   1  10
ATOM     10  C   UNL     1       2.880   4.727  -2.060  1.00  0.00     0.079 C 
BRANCH  10  11
ATOM     11  C   UNL     1       3.541   4.636  -0.676  1.00  0.00     0.231 C 
BRANCH  11  12
ATOM     12  O   UNL     1       3.442   5.919  -0.042  1.00  0.00    -0.366 OA
BRANCH  12  13
ATOM     13  C   UNL     1       2.115   6.216   0.386  1.00  0.00     0.158 C 
ATOM     14  C   UNL     1       1.962   7.722   0.456  1.00  0.00     0.035 C 
ENDBRANCH  12  13
ENDBRANCH  11  12
BRANCH  11  15
ATOM     15  C   UNL     1       5.008   4.230  -0.833  1.00  0.00     0.333 C 
ATOM     16  O   UNL     1       5.994   4.929  -0.656  1.00  0.00    -0.249 OA
BRANCH  15  17
ATOM     17  O   UNL     1       5.165   2.958  -1.264  1.00  0.00    -0.479 OA
ATOM     18  H   UNL     1       5.073   3.027  -2.238  1.00  0.00     0.296 HD
ENDBRANCH  15  17
ENDBRANCH  11  15
ENDBRANCH  10  11
ENDBRANCH   1  10
BRANCH   8  19
ATOM     19  C   UNL     1       5.707   9.596  -5.820  1.00  0.00     0.182 C 
BRANCH  19  20
ATOM     20  C   UNL     1       7.046  10.124  -5.450  1.00  0.00     0.102 A 
ATOM     21  N   UNL     1       7.960  10.483  -6.424  1.00  0.00    -0.212 NA
ATOM     22  C   UNL     1       7.606  10.331  -4.206  1.00  0.00     0.126 A 
ATOM     23  C   UNL     1       9.022  10.880  -5.746  1.00  0.00     0.228 A 
ATOM     24  O   UNL     1       8.863  10.832  -4.389  1.00  0.00    -0.441 OA
ATOM     25  C   UNL     1       7.153  10.158  -2.815  1.00  0.00     0.090 C 
BRANCH  23  26
ATOM     26  C   UNL     1      10.270  11.439  -6.253  1.00  0.00     0.056 A 
ATOM     27  C   UNL     1      10.771  12.593  -5.616  1.00  0.00     0.015 A 
ATOM     28  C   UNL     1      10.994  10.913  -7.335  1.00  0.00     0.053 A 
ATOM     29  C   UNL     1      11.966  13.187  -6.027  1.00  0.00     0.001 A 
ATOM     30  C   UNL     1      12.194  11.514  -7.744  1.00  0.00     0.021 A 
ATOM     31  C   UNL     1      12.680  12.645  -7.089  1.00  0.00     0.002 A 
ATOM     32  Cl  UNL     1      10.454   9.558  -8.268  1.00  0.00    -0.083 Cl
ENDBRANCH  23  26
ENDBRANCH  19  20
ENDBRANCH   8  19
TORSDOF 9
