MODEL 4
REMARK VINA RESULT:    -7.408      3.275      6.797
REMARK INTER + INTRA:         -10.322
REMARK INTER:                  -9.816
REMARK INTRA:                  -0.506
REMARK UNBOUND:                -0.531
REMARK SMILES NCCn1c(Cc2ccccc2)nc2cc(C(N)=O)ccc21
REMARK SMILES IDX 3 1 2 2 1 3 4 6 5 7 22 8 13 9 21 10 14 11 20 12 15 13 16 14
REMARK SMILES IDX 6 15 7 16 8 17 12 18 9 19 11 20 10 21 17 22 18 23 19 24
REMARK H PARENT 1 4 1 5 18 25 18 26
ROOT
ATOM      1  C   UNL     1       5.912 -22.369  23.133  1.00  0.00     0.139 C 
ENDROOT
BRANCH   1   2
ATOM      2  C   UNL     1       7.425 -22.270  22.920  1.00  0.00     0.099 C 
BRANCH   2   3
ATOM      3  N   UNL     1       8.141 -23.324  23.644  1.00  0.00    -0.329 NA
ATOM      4  H   UNL     1       8.800 -23.770  23.004  1.00  0.00     0.118 HD
ATOM      5  H   UNL     1       8.723 -22.896  24.365  1.00  0.00     0.118 HD
ENDBRANCH   2   3
ENDBRANCH   1   2
BRANCH   1   6
ATOM      6  N   UNL     1       5.164 -21.912  21.975  1.00  0.00    -0.326 N 
ATOM      7  C   UNL     1       4.969 -22.593  20.790  1.00  0.00     0.114 A 
ATOM      8  C   UNL     1       4.517 -20.697  21.883  1.00  0.00     0.068 A 
ATOM      9  N   UNL     1       4.215 -21.886  19.970  1.00  0.00    -0.233 NA
ATOM     10  C   UNL     1       4.385 -19.615  22.762  1.00  0.00     0.029 A 
ATOM     11  C   UNL     1       3.926 -20.718  20.626  1.00  0.00     0.090 A 
ATOM     12  C   UNL     1       3.623 -18.525  22.321  1.00  0.00     0.016 A 
ATOM     13  C   UNL     1       3.162 -19.624  20.197  1.00  0.00     0.044 A 
ATOM     14  C   UNL     1       3.026 -18.521  21.053  1.00  0.00     0.041 A 
BRANCH   7  15
ATOM     15  C   UNL     1       5.543 -23.941  20.465  1.00  0.00     0.111 C 
BRANCH  15  16
ATOM     16  C   UNL     1       4.841 -25.094  21.150  1.00  0.00    -0.040 A 
ATOM     17  C   UNL     1       3.519 -25.423  20.814  1.00  0.00     0.004 A 
ATOM     18  C   UNL     1       5.487 -25.830  22.154  1.00  0.00     0.004 A 
ATOM     19  C   UNL     1       2.869 -26.483  21.448  1.00  0.00     0.000 A 
ATOM     20  C   UNL     1       4.836 -26.890  22.787  1.00  0.00     0.000 A 
ATOM     21  C   UNL     1       3.529 -27.218  22.432  1.00  0.00     0.000 A 
ENDBRANCH  15  16
ENDBRANCH   7  15
BRANCH  14  22
ATOM     22  C   UNL     1       2.214 -17.371  20.577  1.00  0.00     0.248 C 
ATOM     23  N   UNL     1       1.595 -17.499  19.364  1.00  0.00    -0.366 N 
ATOM     24  O   UNL     1       2.066 -16.360  21.251  1.00  0.00    -0.270 OA
ATOM     25  H   UNL     1       0.939 -16.764  19.133  1.00  0.00     0.159 HD
ATOM     26  H   UNL     1       1.440 -18.404  18.942  1.00  0.00     0.159 HD
ENDBRANCH  14  22
ENDBRANCH   1   6
TORSDOF 6
ENDMDL
