REMARK SMILES O=C(NCCN1CCCCC1)Nc1ccc2ncnc(Nc3ccc(OCc4cccc(F)c4)c(Cl)c3)c2c1
REMARK SMILES IDX 21 1 20 3 13 4 14 5 39 6 15 7 38 8 16 9 17 10 19 11 18 12
REMARK SMILES IDX 12 13 1 14 2 15 3 16 4 19 5 20 6 21 7 22 11 23 8 24 10 25
REMARK SMILES IDX 9 26 22 27 23 28 37 29 24 30 35 31 25 32 36 33 26 34 27 35
REMARK SMILES IDX 28 36 29 37 34 38 30 39 32 40 31 41 33 42
REMARK H PARENT 21 2 3 17 12 18
REMARK INDEX MAP 21 1 59 2 20 3 13 4 14 5 39 6 15 7 38 8 16 9 17 10 19 11
REMARK INDEX MAP 18 12 12 13 1 14 2 15 3 16 40 17 55 18 4 19 5 20 6 21 7 22
REMARK INDEX MAP 11 23 8 24 10 25 9 26 22 27 23 28 37 29 24 30 35 31 25 32
REMARK INDEX MAP 36 33 26 34 27 35 28 36 29 37 34 38 30 39 32 40 31 41 33 42
ROOT
ATOM      1  N   UNL     1      12.931   3.824  23.865  1.00  0.00    -0.340 N 
ATOM      2  H   UNL     1      12.556   2.922  23.538  1.00  0.00     0.168 HD
ENDROOT
BRANCH   1   3
ATOM      3  C   UNL     1      14.284   3.787  24.278  1.00  0.00     0.141 A 
ATOM      4  C   UNL     1      14.170   1.602  27.366  1.00  0.00     0.043 A 
ATOM      5  C   UNL     1      15.531   1.572  27.634  1.00  0.00     0.028 A 
ATOM      6  C   UNL     1      13.728   2.338  26.260  1.00  0.00     0.040 A 
ATOM      7  C   UNL     1      16.427   2.273  26.817  1.00  0.00     0.031 A 
ATOM      8  C   UNL     1      14.638   3.036  25.419  1.00  0.00     0.045 A 
ATOM      9  C   UNL     1      16.005   3.009  25.719  1.00  0.00     0.076 A 
ATOM     10  N   UNL     1      16.920   3.659  24.995  1.00  0.00    -0.236 NA
ATOM     11  N   UNL     1      15.198   4.465  23.560  1.00  0.00    -0.219 NA
ATOM     12  C   UNL     1      16.471   4.363  23.953  1.00  0.00     0.224 A 
BRANCH   4  13
ATOM     13  N   UNL     1      13.195   0.942  28.137  1.00  0.00    -0.308 N 
ATOM     14  O   UNL     1      12.872   2.398  29.925  1.00  0.00    -0.249 OA
ATOM     15  C   UNL     1      12.629   1.361  29.323  1.00  0.00     0.319 C 
ATOM     16  N   UNL     1      11.710   0.449  29.780  1.00  0.00    -0.337 N 
ATOM     17  H   UNL     1      11.543  -0.405  29.228  1.00  0.00     0.165 HD
ATOM     18  H   UNL     1      12.864   0.037  27.772  1.00  0.00     0.171 HD
BRANCH  16  19
ATOM     19  C   UNL     1      10.964   0.640  31.010  1.00  0.00     0.133 C 
BRANCH  19  20
ATOM     20  C   UNL     1       9.507   1.030  30.702  1.00  0.00     0.105 C 
BRANCH  20  21
ATOM     21  N   UNL     1       8.549  -0.081  30.928  1.00  0.00    -0.302 NA
ATOM     22  C   UNL     1       7.507   0.347  31.878  1.00  0.00     0.084 C 
ATOM     23  C   UNL     1       9.238  -1.287  31.426  1.00  0.00     0.084 C 
ATOM     24  C   UNL     1       6.468  -0.755  32.096  1.00  0.00     0.016 C 
ATOM     25  C   UNL     1       8.255  -2.441  31.636  1.00  0.00     0.016 C 
ATOM     26  C   UNL     1       7.122  -2.044  32.574  1.00  0.00     0.003 C 
ENDBRANCH  20  21
ENDBRANCH  19  20
ENDBRANCH  16  19
ENDBRANCH   4  13
ENDBRANCH   1   3
BRANCH   1  27
ATOM     27  C   UNL     1      12.014   4.889  23.828  1.00  0.00     0.041 A 
ATOM     28  C   UNL     1      11.055   5.107  24.821  1.00  0.00     0.030 A 
ATOM     29  C   UNL     1      12.013   5.746  22.721  1.00  0.00     0.050 A 
ATOM     30  C   UNL     1      10.138   6.165  24.736  1.00  0.00     0.050 A 
ATOM     31  C   UNL     1      11.100   6.803  22.630  1.00  0.00     0.085 A 
ATOM     32  C   UNL     1      10.156   7.029  23.641  1.00  0.00     0.138 A 
ATOM     33  Cl  UNL     1      11.184   7.823  21.233  1.00  0.00    -0.080 Cl
BRANCH  32  34
ATOM     34  O   UNL     1       9.300   8.083  23.463  1.00  0.00    -0.487 OA
BRANCH  34  35
ATOM     35  C   UNL     1       8.659   8.624  24.618  1.00  0.00     0.265 C 
BRANCH  35  36
ATOM     36  C   UNL     1       7.288   9.117  24.221  1.00  0.00    -0.008 A 
ATOM     37  C   UNL     1       6.649  10.126  24.963  1.00  0.00     0.007 A 
ATOM     38  C   UNL     1       6.616   8.559  23.125  1.00  0.00     0.046 A 
ATOM     39  C   UNL     1       5.373  10.574  24.611  1.00  0.00     0.003 A 
ATOM     40  C   UNL     1       5.346   9.014  22.783  1.00  0.00     0.123 A 
ATOM     41  C   UNL     1       4.719  10.015  23.516  1.00  0.00     0.039 A 
ATOM     42  F   UNL     1       4.717   8.474  21.730  1.00  0.00    -0.207 F 
ENDBRANCH  35  36
ENDBRANCH  34  35
ENDBRANCH  32  34
ENDBRANCH   1  27
TORSDOF 9
