REMARK SMILES [2H]C1([2H])CCc2cc3c(c(NC(=O)[N-]S(=O)(=O)c4cc(C(C)(C)O)co4)c21)C([2H])([2H])CC3
REMARK SMILES IDX 18 1 19 2 20 3 25 4 26 5 15 6 16 7 17 8 14 9 12 10 11 11
REMARK SMILES IDX 13 12 10 14 2 15 4 16 27 17 5 18 6 19 9 20 7 21 8 22 28 23
REMARK SMILES IDX 32 24 31 25 21 26 22 27 23 28 24 29
REMARK H PARENT 11 13 24 30
ROOT
ATOM      1  C   UNL     1       1.773   1.478  -1.554  1.00  0.00     0.220 A 
ATOM      2  C   UNL     1       2.753   0.656  -1.014  1.00  0.00     0.069 A 
ATOM      3  C   UNL     1       2.628  -0.633  -1.600  1.00  0.00     0.023 A 
ATOM      4  C   UNL     1       1.585  -0.505  -2.494  1.00  0.00     0.203 A 
ATOM      5  O   UNL     1       1.073   0.743  -2.489  1.00  0.00    -0.452 OA
ENDROOT
BRANCH   1   6
ATOM      6  S   UNL     1       1.358   3.219  -1.175  1.00  0.00     0.238 S 
ATOM      7  O   UNL     1       0.021   3.348  -1.751  1.00  0.00    -0.218 OA
ATOM      8  O   UNL     1       2.430   3.904  -1.893  1.00  0.00    -0.218 OA
BRANCH   6   9
ATOM      9  N   UNL     1       1.426   3.293   0.408  1.00  0.00    -0.314 NA
BRANCH   9  10
ATOM     10  C   UNL     1       0.791   2.356   1.120  1.00  0.00     0.168 C 
ATOM     11  N   UNL     1      -0.513   2.125   0.724  1.00  0.00    -0.423 N 
ATOM     12  O   UNL     1       1.316   1.818   2.083  1.00  0.00    -0.298 OA
ATOM     13  H   UNL     1      -0.795   2.735  -0.040  1.00  0.00     0.029 HD
BRANCH  11  14
ATOM     14  C   UNL     1      -1.442   1.110   1.041  1.00  0.00    -0.034 A 
ATOM     15  C   UNL     1      -3.122   2.179  -0.658  1.00  0.00     0.036 C 
ATOM     16  C   UNL     1      -4.622   1.883  -0.758  1.00  0.00     0.010 C 
ATOM     17  C   UNL     1      -2.667   1.159   0.354  1.00  0.00    -0.041 A 
ATOM     18  C   UNL     1      -4.788   0.391  -0.466  1.00  0.00     0.036 C 
ATOM     19  C   UNL     1      -3.643   0.145   0.462  1.00  0.00    -0.044 A 
ATOM     20  C   UNL     1      -1.263   0.009   1.881  1.00  0.00    -0.041 A 
ATOM     21  C   UNL     1      -3.442  -0.964   1.257  1.00  0.00     0.008 A 
ATOM     22  C   UNL     1      -2.245  -1.017   1.955  1.00  0.00    -0.044 A 
ATOM     23  C   UNL     1      -0.086  -0.397   2.725  1.00  0.00     0.036 C 
ATOM     24  C   UNL     1      -1.762  -2.188   2.760  1.00  0.00     0.036 C 
ATOM     25  C   UNL     1      -0.637  -1.555   3.567  1.00  0.00     0.010 C 
ENDBRANCH  11  14
ENDBRANCH   9  10
ENDBRANCH   6   9
ENDBRANCH   1   6
BRANCH   3  26
ATOM     26  C   UNL     1       3.430  -1.874  -1.324  1.00  0.00     0.087 C 
ATOM     27  C   UNL     1       4.198  -1.816   0.004  1.00  0.00     0.047 C 
ATOM     28  C   UNL     1       4.404  -2.156  -2.477  1.00  0.00     0.047 C 
BRANCH  26  29
ATOM     29  O   UNL     1       2.552  -3.015  -1.230  1.00  0.00    -0.386 OA
ATOM     30  H   UNL     1       1.831  -2.739  -0.632  1.00  0.00     0.211 HD
ENDBRANCH  26  29
ENDBRANCH   3  26
TORSDOF 6
