MODEL 1
REMARK VINA RESULT:    -8.123      0.000      0.000
REMARK INTER + INTRA:         -13.635
REMARK INTER:                 -12.634
REMARK INTRA:                  -1.001
REMARK UNBOUND:                -1.001
REMARK SMILES Cc1cccc(-c2nc(COc3ccc(C[C@@H](OC(C)C)C(=O)O)cc3)no2)c1
REMARK SMILES IDX 12 1 13 2 14 3 15 4 25 5 26 6 11 7 10 8 9 9 7 10 8 11 28 12
REMARK SMILES IDX 27 13 6 14 2 15 3 16 29 17 4 18 5 19 1 20 16 21 17 22 18 23
REMARK SMILES IDX 19 24 20 25 21 26 22 27 23 28 24 29
REMARK H PARENT 24 30
ROOT
ATOM      1  C   UNL     1      -8.238  -8.347 -22.373  1.00  0.00     0.120 A 
ATOM      2  C   UNL     1      -9.413  -9.051 -22.113  1.00  0.00     0.047 A 
ATOM      3  C   UNL     1     -10.460  -9.039 -23.041  1.00  0.00     0.007 A 
ATOM      4  C   UNL     1     -10.347  -8.322 -24.240  1.00  0.00    -0.045 A 
ATOM      5  C   UNL     1      -9.165  -7.621 -24.498  1.00  0.00     0.007 A 
ATOM      6  C   UNL     1      -8.122  -7.633 -23.569  1.00  0.00     0.047 A 
ENDROOT
BRANCH   1   7
ATOM      7  O   UNL     1      -7.142  -8.273 -21.559  1.00  0.00    -0.485 OA
BRANCH   7   8
ATOM      8  C   UNL     1      -6.794  -6.982 -21.048  1.00  0.00     0.310 C 
BRANCH   8   9
ATOM      9  C   UNL     1      -7.879  -6.432 -20.187  1.00  0.00     0.209 A 
ATOM     10  C   UNL     1      -9.445  -6.348 -18.794  1.00  0.00     0.258 A 
ATOM     11  N   UNL     1      -8.627  -7.221 -19.343  1.00  0.00    -0.188 NA
ATOM     12  O   UNL     1      -9.234  -5.069 -19.233  1.00  0.00    -0.334 OA
ATOM     13  N   UNL     1      -8.186  -5.127 -20.155  1.00  0.00    -0.058 NA
BRANCH  10  14
ATOM     14  C   UNL     1     -10.502  -6.551 -17.811  1.00  0.00     0.040 A 
ATOM     15  C   UNL     1     -11.897  -5.766 -15.961  1.00  0.00    -0.050 A 
ATOM     16  C   UNL     1     -12.541  -7.007 -15.928  1.00  0.00     0.003 A 
ATOM     17  C   UNL     1     -10.872  -5.551 -16.896  1.00  0.00     0.017 A 
ATOM     18  C   UNL     1     -12.186  -8.008 -16.829  1.00  0.00     0.001 A 
ATOM     19  C   UNL     1     -11.176  -7.780 -17.765  1.00  0.00     0.014 A 
ATOM     20  C   UNL     1     -12.255  -4.698 -14.969  1.00  0.00     0.044 C 
ENDBRANCH  10  14
ENDBRANCH   8   9
ENDBRANCH   7   8
ENDBRANCH   1   7
BRANCH   4  21
ATOM     21  C   UNL     1     -11.473  -8.335 -25.251  1.00  0.00     0.079 C 
BRANCH  21  22
ATOM     22  C   UNL     1     -11.219  -7.349 -26.401  1.00  0.00     0.232 C 
BRANCH  22  23
ATOM     23  O   UNL     1     -11.028  -8.111 -27.601  1.00  0.00    -0.364 OA
BRANCH  23  24
ATOM     24  C   UNL     1      -9.785  -7.860 -28.260  1.00  0.00     0.113 C 
ATOM     25  C   UNL     1      -8.893  -9.095 -28.166  1.00  0.00     0.038 C 
ATOM     26  C   UNL     1     -10.103  -7.545 -29.717  1.00  0.00     0.038 C 
ENDBRANCH  23  24
ENDBRANCH  22  23
BRANCH  22  27
ATOM     27  C   UNL     1     -12.417  -6.402 -26.517  1.00  0.00     0.333 C 
ATOM     28  O   UNL     1     -13.573  -6.692 -26.781  1.00  0.00    -0.249 OA
BRANCH  27  29
ATOM     29  O   UNL     1     -12.080  -5.105 -26.340  1.00  0.00    -0.479 OA
ATOM     30  H   UNL     1     -11.191  -5.039 -26.751  1.00  0.00     0.296 HD
ENDBRANCH  27  29
ENDBRANCH  22  27
ENDBRANCH  21  22
ENDBRANCH   4  21
TORSDOF 10
ENDMDL
MODEL 2
REMARK VINA RESULT:    -7.968      3.446      8.632
REMARK INTER + INTRA:         -13.395
REMARK INTER:                 -12.376
REMARK INTRA:                  -1.019
REMARK UNBOUND:                -1.001
REMARK SMILES Cc1cccc(-c2nc(COc3ccc(C[C@@H](OC(C)C)C(=O)O)cc3)no2)c1
REMARK SMILES IDX 12 1 13 2 14 3 15 4 25 5 26 6 11 7 10 8 9 9 7 10 8 11 28 12
REMARK SMILES IDX 27 13 6 14 2 15 3 16 29 17 4 18 5 19 1 20 16 21 17 22 18 23
REMARK SMILES IDX 19 24 20 25 21 26 22 27 23 28 24 29
REMARK H PARENT 24 30
ROOT
ATOM      1  C   UNL     1     -10.557  -8.562 -24.024  1.00  0.00     0.120 A 
ATOM      2  C   UNL     1     -10.594  -9.112 -22.744  1.00  0.00     0.047 A 
ATOM      3  C   UNL     1      -9.570  -8.836 -21.831  1.00  0.00     0.007 A 
ATOM      4  C   UNL     1      -8.496  -8.009 -22.186  1.00  0.00    -0.045 A 
ATOM      5  C   UNL     1      -8.466  -7.457 -23.470  1.00  0.00     0.007 A 
ATOM      6  C   UNL     1      -9.488  -7.735 -24.380  1.00  0.00     0.047 A 
ENDROOT
BRANCH   1   7
ATOM      7  O   UNL     1     -11.485  -8.746 -25.011  1.00  0.00    -0.485 OA
BRANCH   7   8
ATOM      8  C   UNL     1     -11.478  -7.812 -26.097  1.00  0.00     0.310 C 
BRANCH   8   9
ATOM      9  C   UNL     1     -12.529  -6.770 -25.917  1.00  0.00     0.209 A 
ATOM     10  C   UNL     1     -13.575  -4.963 -26.120  1.00  0.00     0.258 A 
ATOM     11  N   UNL     1     -12.481  -5.552 -26.555  1.00  0.00    -0.188 NA
ATOM     12  O   UNL     1     -14.302  -5.751 -25.269  1.00  0.00    -0.334 OA
ATOM     13  N   UNL     1     -13.607  -6.956 -25.142  1.00  0.00    -0.058 NA
BRANCH  10  14
ATOM     14  C   UNL     1     -14.102  -3.637 -26.416  1.00  0.00     0.040 A 
ATOM     15  C   UNL     1     -14.518  -1.784 -27.958  1.00  0.00    -0.050 A 
ATOM     16  C   UNL     1     -15.126  -1.067 -26.923  1.00  0.00     0.003 A 
ATOM     17  C   UNL     1     -13.999  -3.061 -27.694  1.00  0.00     0.017 A 
ATOM     18  C   UNL     1     -15.237  -1.625 -25.651  1.00  0.00     0.001 A 
ATOM     19  C   UNL     1     -14.731  -2.901 -25.401  1.00  0.00     0.014 A 
ATOM     20  C   UNL     1     -14.368  -1.171 -29.320  1.00  0.00     0.044 C 
ENDBRANCH  10  14
ENDBRANCH   8   9
ENDBRANCH   7   8
ENDBRANCH   1   7
BRANCH   4  21
ATOM     21  C   UNL     1      -7.406  -7.694 -21.184  1.00  0.00     0.079 C 
BRANCH  21  22
ATOM     22  C   UNL     1      -7.592  -6.306 -20.555  1.00  0.00     0.232 C 
BRANCH  22  23
ATOM     23  O   UNL     1      -8.076  -6.490 -19.218  1.00  0.00    -0.364 OA
BRANCH  23  24
ATOM     24  C   UNL     1      -9.478  -6.250 -19.066  1.00  0.00     0.113 C 
ATOM     25  C   UNL     1      -9.963  -6.845 -17.747  1.00  0.00     0.038 C 
ATOM     26  C   UNL     1      -9.680  -4.740 -19.072  1.00  0.00     0.038 C 
ENDBRANCH  23  24
ENDBRANCH  22  23
BRANCH  22  27
ATOM     27  C   UNL     1      -6.251  -5.567 -20.574  1.00  0.00     0.333 C 
ATOM     28  O   UNL     1      -5.145  -6.024 -20.333  1.00  0.00    -0.249 OA
BRANCH  27  29
ATOM     29  O   UNL     1      -6.380  -4.251 -20.852  1.00  0.00    -0.479 OA
ATOM     30  H   UNL     1      -7.351  -4.106 -20.842  1.00  0.00     0.296 HD
ENDBRANCH  27  29
ENDBRANCH  22  27
ENDBRANCH  21  22
ENDBRANCH   4  21
TORSDOF 10
ENDMDL
MODEL 3
REMARK VINA RESULT:    -7.922      4.416      9.648
REMARK INTER + INTRA:         -13.323
REMARK INTER:                 -13.006
REMARK INTRA:                  -0.317
REMARK UNBOUND:                -1.001
REMARK SMILES Cc1cccc(-c2nc(COc3ccc(C[C@@H](OC(C)C)C(=O)O)cc3)no2)c1
REMARK SMILES IDX 12 1 13 2 14 3 15 4 25 5 26 6 11 7 10 8 9 9 7 10 8 11 28 12
REMARK SMILES IDX 27 13 6 14 2 15 3 16 29 17 4 18 5 19 1 20 16 21 17 22 18 23
REMARK SMILES IDX 19 24 20 25 21 26 22 27 23 28 24 29
REMARK H PARENT 24 30
ROOT
ATOM      1  C   UNL     1      -7.248  -7.650 -21.406  1.00  0.00     0.120 A 
ATOM      2  C   UNL     1      -5.923  -7.638 -20.970  1.00  0.00     0.047 A 
ATOM      3  C   UNL     1      -5.376  -6.474 -20.421  1.00  0.00     0.007 A 
ATOM      4  C   UNL     1      -6.142  -5.307 -20.300  1.00  0.00    -0.045 A 
ATOM      5  C   UNL     1      -7.472  -5.326 -20.735  1.00  0.00     0.007 A 
ATOM      6  C   UNL     1      -8.016  -6.489 -21.284  1.00  0.00     0.047 A 
ENDROOT
BRANCH   1   7
ATOM      7  O   UNL     1      -7.908  -8.712 -21.958  1.00  0.00    -0.485 OA
BRANCH   7   8
ATOM      8  C   UNL     1      -7.108  -9.787 -22.463  1.00  0.00     0.310 C 
BRANCH   8   9
ATOM      9  C   UNL     1      -7.104  -9.802 -23.954  1.00  0.00     0.209 A 
ATOM     10  C   UNL     1      -7.668  -9.408 -25.935  1.00  0.00     0.258 A 
ATOM     11  N   UNL     1      -8.039  -9.128 -24.704  1.00  0.00    -0.188 NA
ATOM     12  O   UNL     1      -6.551 -10.197 -25.988  1.00  0.00    -0.334 OA
ATOM     13  N   UNL     1      -6.173 -10.452 -24.667  1.00  0.00    -0.058 NA
BRANCH  10  14
ATOM     14  C   UNL     1      -8.259  -9.001 -27.204  1.00  0.00     0.040 A 
ATOM     15  C   UNL     1      -8.124  -8.631 -29.618  1.00  0.00    -0.050 A 
ATOM     16  C   UNL     1      -9.451  -8.190 -29.619  1.00  0.00     0.003 A 
ATOM     17  C   UNL     1      -7.533  -9.023 -28.406  1.00  0.00     0.017 A 
ATOM     18  C   UNL     1     -10.185  -8.165 -28.434  1.00  0.00     0.001 A 
ATOM     19  C   UNL     1      -9.593  -8.569 -27.237  1.00  0.00     0.014 A 
ATOM     20  C   UNL     1      -7.323  -8.629 -30.887  1.00  0.00     0.044 C 
ENDBRANCH  10  14
ENDBRANCH   8   9
ENDBRANCH   7   8
ENDBRANCH   1   7
BRANCH   4  21
ATOM     21  C   UNL     1      -5.551  -4.059 -19.681  1.00  0.00     0.079 C 
BRANCH  21  22
ATOM     22  C   UNL     1      -4.564  -3.363 -20.628  1.00  0.00     0.232 C 
BRANCH  22  23
ATOM     23  O   UNL     1      -5.016  -2.016 -20.822  1.00  0.00    -0.364 OA
BRANCH  23  24
ATOM     24  C   UNL     1      -4.599  -1.433 -22.060  1.00  0.00     0.113 C 
ATOM     25  C   UNL     1      -3.738  -0.203 -21.787  1.00  0.00     0.038 C 
ATOM     26  C   UNL     1      -3.794  -2.489 -22.807  1.00  0.00     0.038 C 
ENDBRANCH  23  24
ENDBRANCH  22  23
BRANCH  22  27
ATOM     27  C   UNL     1      -3.164  -3.406 -20.008  1.00  0.00     0.333 C 
ATOM     28  O   UNL     1      -2.420  -4.369 -19.917  1.00  0.00    -0.249 OA
BRANCH  27  29
ATOM     29  O   UNL     1      -2.787  -2.222 -19.478  1.00  0.00    -0.479 OA
ATOM     30  H   UNL     1      -3.284  -1.562 -20.010  1.00  0.00     0.296 HD
ENDBRANCH  27  29
ENDBRANCH  22  27
ENDBRANCH  21  22
ENDBRANCH   4  21
TORSDOF 10
ENDMDL
MODEL 4
REMARK VINA RESULT:    -7.840      3.008     10.132
REMARK INTER + INTRA:         -13.196
REMARK INTER:                 -12.248
REMARK INTRA:                  -0.947
REMARK UNBOUND:                -1.001
REMARK SMILES Cc1cccc(-c2nc(COc3ccc(C[C@@H](OC(C)C)C(=O)O)cc3)no2)c1
REMARK SMILES IDX 12 1 13 2 14 3 15 4 25 5 26 6 11 7 10 8 9 9 7 10 8 11 28 12
REMARK SMILES IDX 27 13 6 14 2 15 3 16 29 17 4 18 5 19 1 20 16 21 17 22 18 23
REMARK SMILES IDX 19 24 20 25 21 26 22 27 23 28 24 29
REMARK H PARENT 24 30
ROOT
ATOM      1  C   UNL     1     -10.550  -8.469 -24.109  1.00  0.00     0.120 A 
ATOM      2  C   UNL     1     -10.685  -9.039 -22.844  1.00  0.00     0.047 A 
ATOM      3  C   UNL     1      -9.713  -8.811 -21.864  1.00  0.00     0.007 A 
ATOM      4  C   UNL     1      -8.594  -8.013 -22.135  1.00  0.00    -0.045 A 
ATOM      5  C   UNL     1      -8.466  -7.441 -23.405  1.00  0.00     0.007 A 
ATOM      6  C   UNL     1      -9.436  -7.671 -24.382  1.00  0.00     0.047 A 
ENDROOT
BRANCH   1   7
ATOM      7  O   UNL     1     -11.420  -8.607 -25.155  1.00  0.00    -0.485 OA
BRANCH   7   8
ATOM      8  C   UNL     1     -11.770  -7.419 -25.874  1.00  0.00     0.310 C 
BRANCH   8   9
ATOM      9  C   UNL     1     -11.413  -7.537 -27.317  1.00  0.00     0.209 A 
ATOM     10  C   UNL     1     -10.259  -7.726 -29.057  1.00  0.00     0.258 A 
ATOM     11  N   UNL     1     -10.113  -7.650 -27.751  1.00  0.00    -0.188 NA
ATOM     12  O   UNL     1     -11.569  -7.687 -29.451  1.00  0.00    -0.334 OA
ATOM     13  N   UNL     1     -12.336  -7.569 -28.289  1.00  0.00    -0.058 NA
BRANCH  10  14
ATOM     14  C   UNL     1      -9.250  -7.850 -30.103  1.00  0.00     0.040 A 
ATOM     15  C   UNL     1      -8.250  -7.140 -32.219  1.00  0.00    -0.050 A 
ATOM     16  C   UNL     1      -7.287  -8.147 -32.095  1.00  0.00     0.003 A 
ATOM     17  C   UNL     1      -9.234  -7.007 -31.227  1.00  0.00     0.017 A 
ATOM     18  C   UNL     1      -7.290  -8.989 -30.985  1.00  0.00     0.001 A 
ATOM     19  C   UNL     1      -8.263  -8.840 -29.996  1.00  0.00     0.014 A 
ATOM     20  C   UNL     1      -8.268  -6.253 -33.430  1.00  0.00     0.044 C 
ENDBRANCH  10  14
ENDBRANCH   8   9
ENDBRANCH   7   8
ENDBRANCH   1   7
BRANCH   4  21
ATOM     21  C   UNL     1      -7.560  -7.749 -21.061  1.00  0.00     0.079 C 
BRANCH  21  22
ATOM     22  C   UNL     1      -7.739  -6.364 -20.424  1.00  0.00     0.232 C 
BRANCH  22  23
ATOM     23  O   UNL     1      -8.228  -6.554 -19.089  1.00  0.00    -0.364 OA
BRANCH  23  24
ATOM     24  C   UNL     1      -9.630  -6.318 -18.942  1.00  0.00     0.113 C 
ATOM     25  C   UNL     1     -10.105  -6.858 -17.596  1.00  0.00     0.038 C 
ATOM     26  C   UNL     1      -9.844  -4.810 -19.013  1.00  0.00     0.038 C 
ENDBRANCH  23  24
ENDBRANCH  22  23
BRANCH  22  27
ATOM     27  C   UNL     1      -6.393  -5.634 -20.435  1.00  0.00     0.333 C 
ATOM     28  O   UNL     1      -5.306  -6.070 -20.090  1.00  0.00    -0.249 OA
BRANCH  27  29
ATOM     29  O   UNL     1      -6.496  -4.349 -20.842  1.00  0.00    -0.479 OA
ATOM     30  H   UNL     1      -6.255  -3.833 -20.041  1.00  0.00     0.296 HD
ENDBRANCH  27  29
ENDBRANCH  22  27
ENDBRANCH  21  22
ENDBRANCH   4  21
TORSDOF 10
ENDMDL
MODEL 5
REMARK VINA RESULT:    -7.715      1.494      2.026
REMARK INTER + INTRA:         -13.000
REMARK INTER:                 -11.912
REMARK INTRA:                  -1.089
REMARK UNBOUND:                -1.001
REMARK SMILES Cc1cccc(-c2nc(COc3ccc(C[C@@H](OC(C)C)C(=O)O)cc3)no2)c1
REMARK SMILES IDX 12 1 13 2 14 3 15 4 25 5 26 6 11 7 10 8 9 9 7 10 8 11 28 12
REMARK SMILES IDX 27 13 6 14 2 15 3 16 29 17 4 18 5 19 1 20 16 21 17 22 18 23
REMARK SMILES IDX 19 24 20 25 21 26 22 27 23 28 24 29
REMARK H PARENT 24 30
ROOT
ATOM      1  C   UNL     1      -8.898  -8.571 -23.870  1.00  0.00     0.120 A 
ATOM      2  C   UNL     1      -8.212  -8.690 -25.079  1.00  0.00     0.047 A 
ATOM      3  C   UNL     1      -8.909  -8.632 -26.290  1.00  0.00     0.007 A 
ATOM      4  C   UNL     1     -10.298  -8.455 -26.311  1.00  0.00    -0.045 A 
ATOM      5  C   UNL     1     -10.981  -8.332 -25.097  1.00  0.00     0.007 A 
ATOM      6  C   UNL     1     -10.284  -8.392 -23.888  1.00  0.00     0.047 A 
ENDROOT
BRANCH   1   7
ATOM      7  O   UNL     1      -8.347  -8.609 -22.620  1.00  0.00    -0.485 OA
BRANCH   7   8
ATOM      8  C   UNL     1      -7.722  -7.411 -22.145  1.00  0.00     0.310 C 
BRANCH   8   9
ATOM      9  C   UNL     1      -8.281  -6.998 -20.827  1.00  0.00     0.209 A 
ATOM     10  C   UNL     1      -9.545  -6.916 -19.155  1.00  0.00     0.258 A 
ATOM     11  N   UNL     1      -9.419  -7.561 -20.295  1.00  0.00    -0.188 NA
ATOM     12  O   UNL     1      -8.545  -6.006 -18.943  1.00  0.00    -0.334 OA
ATOM     13  N   UNL     1      -7.702  -6.068 -20.055  1.00  0.00    -0.058 NA
BRANCH  10  14
ATOM     14  C   UNL     1     -10.564  -7.041 -18.120  1.00  0.00     0.040 A 
ATOM     15  C   UNL     1     -11.799  -6.161 -16.201  1.00  0.00    -0.050 A 
ATOM     16  C   UNL     1     -12.536  -7.348 -16.138  1.00  0.00     0.003 A 
ATOM     17  C   UNL     1     -10.809  -6.020 -17.186  1.00  0.00     0.017 A 
ATOM     18  C   UNL     1     -12.305  -8.369 -17.058  1.00  0.00     0.001 A 
ATOM     19  C   UNL     1     -11.329  -8.215 -18.042  1.00  0.00     0.014 A 
ATOM     20  C   UNL     1     -12.023  -5.073 -15.191  1.00  0.00     0.044 C 
ENDBRANCH  10  14
ENDBRANCH   8   9
ENDBRANCH   7   8
ENDBRANCH   1   7
BRANCH   4  21
ATOM     21  C   UNL     1     -11.042  -8.366 -27.627  1.00  0.00     0.079 C 
BRANCH  21  22
ATOM     22  C   UNL     1     -10.258  -7.562 -28.673  1.00  0.00     0.232 C 
BRANCH  22  23
ATOM     23  O   UNL     1     -10.138  -8.370 -29.852  1.00  0.00    -0.364 OA
BRANCH  23  24
ATOM     24  C   UNL     1      -9.026  -9.269 -29.832  1.00  0.00     0.113 C 
ATOM     25  C   UNL     1      -9.158 -10.277 -30.970  1.00  0.00     0.038 C 
ATOM     26  C   UNL     1      -7.766  -8.432 -30.009  1.00  0.00     0.038 C 
ENDBRANCH  23  24
ENDBRANCH  22  23
BRANCH  22  27
ATOM     27  C   UNL     1     -11.005  -6.255 -28.958  1.00  0.00     0.333 C 
ATOM     28  O   UNL     1     -11.196  -5.727 -30.042  1.00  0.00    -0.249 OA
BRANCH  27  29
ATOM     29  O   UNL     1     -11.439  -5.643 -27.834  1.00  0.00    -0.479 OA
ATOM     30  H   UNL     1     -10.735  -5.839 -27.177  1.00  0.00     0.296 HD
ENDBRANCH  27  29
ENDBRANCH  22  27
ENDBRANCH  21  22
ENDBRANCH   4  21
TORSDOF 10
ENDMDL
MODEL 6
REMARK VINA RESULT:    -7.701      3.405      5.361
REMARK INTER + INTRA:         -12.979
REMARK INTER:                 -11.970
REMARK INTRA:                  -1.009
REMARK UNBOUND:                -1.001
REMARK SMILES Cc1cccc(-c2nc(COc3ccc(C[C@@H](OC(C)C)C(=O)O)cc3)no2)c1
REMARK SMILES IDX 12 1 13 2 14 3 15 4 25 5 26 6 11 7 10 8 9 9 7 10 8 11 28 12
REMARK SMILES IDX 27 13 6 14 2 15 3 16 29 17 4 18 5 19 1 20 16 21 17 22 18 23
REMARK SMILES IDX 19 24 20 25 21 26 22 27 23 28 24 29
REMARK H PARENT 24 30
ROOT
ATOM      1  C   UNL     1      -8.736  -8.413 -23.147  1.00  0.00     0.120 A 
ATOM      2  C   UNL     1      -8.543  -7.875 -24.419  1.00  0.00     0.047 A 
ATOM      3  C   UNL     1      -9.617  -7.773 -25.309  1.00  0.00     0.007 A 
ATOM      4  C   UNL     1     -10.897  -8.208 -24.942  1.00  0.00    -0.045 A 
ATOM      5  C   UNL     1     -11.087  -8.743 -23.664  1.00  0.00     0.007 A 
ATOM      6  C   UNL     1     -10.013  -8.845 -22.777  1.00  0.00     0.047 A 
ENDROOT
BRANCH   1   7
ATOM      7  O   UNL     1      -7.781  -8.570 -22.182  1.00  0.00    -0.485 OA
BRANCH   7   8
ATOM      8  C   UNL     1      -7.858  -7.709 -21.041  1.00  0.00     0.310 C 
BRANCH   8   9
ATOM      9  C   UNL     1      -6.625  -6.883 -20.905  1.00  0.00     0.209 A 
ATOM     10  C   UNL     1      -5.382  -5.206 -20.701  1.00  0.00     0.258 A 
ATOM     11  N   UNL     1      -6.659  -5.512 -20.797  1.00  0.00    -0.188 NA
ATOM     12  O   UNL     1      -4.567  -6.305 -20.725  1.00  0.00    -0.334 OA
ATOM     13  N   UNL     1      -5.397  -7.421 -20.853  1.00  0.00    -0.058 NA
BRANCH  10  14
ATOM     14  C   UNL     1      -4.743  -3.902 -20.571  1.00  0.00     0.040 A 
ATOM     15  C   UNL     1      -3.509  -2.010 -21.507  1.00  0.00    -0.050 A 
ATOM     16  C   UNL     1      -3.514  -1.392 -20.253  1.00  0.00     0.003 A 
ATOM     17  C   UNL     1      -4.114  -3.268 -21.655  1.00  0.00     0.017 A 
ATOM     18  C   UNL     1      -4.136  -2.008 -19.168  1.00  0.00     0.001 A 
ATOM     19  C   UNL     1      -4.747  -3.253 -19.327  1.00  0.00     0.014 A 
ATOM     20  C   UNL     1      -2.811  -1.363 -22.669  1.00  0.00     0.044 C 
ENDBRANCH  10  14
ENDBRANCH   8   9
ENDBRANCH   7   8
ENDBRANCH   1   7
BRANCH   4  21
ATOM     21  C   UNL     1     -12.061  -8.070 -25.901  1.00  0.00     0.079 C 
BRANCH  21  22
ATOM     22  C   UNL     1     -11.870  -6.889 -26.864  1.00  0.00     0.232 C 
BRANCH  22  23
ATOM     23  O   UNL     1     -12.527  -7.216 -28.096  1.00  0.00    -0.364 OA
BRANCH  23  24
ATOM     24  C   UNL     1     -11.677  -7.838 -29.063  1.00  0.00     0.113 C 
ATOM     25  C   UNL     1     -12.227  -7.595 -30.466  1.00  0.00     0.038 C 
ATOM     26  C   UNL     1     -10.296  -7.211 -28.919  1.00  0.00     0.038 C 
ENDBRANCH  23  24
ENDBRANCH  22  23
BRANCH  22  27
ATOM     27  C   UNL     1     -12.460  -5.628 -26.227  1.00  0.00     0.333 C 
ATOM     28  O   UNL     1     -13.430  -5.549 -25.490  1.00  0.00    -0.249 OA
BRANCH  27  29
ATOM     29  O   UNL     1     -11.813  -4.500 -26.598  1.00  0.00    -0.479 OA
ATOM     30  H   UNL     1     -10.985  -4.833 -27.007  1.00  0.00     0.296 HD
ENDBRANCH  27  29
ENDBRANCH  22  27
ENDBRANCH  21  22
ENDBRANCH   4  21
TORSDOF 10
ENDMDL
MODEL 7
REMARK VINA RESULT:    -7.691      4.276      6.294
REMARK INTER + INTRA:         -12.964
REMARK INTER:                 -11.914
REMARK INTRA:                  -1.050
REMARK UNBOUND:                -1.001
REMARK SMILES Cc1cccc(-c2nc(COc3ccc(C[C@@H](OC(C)C)C(=O)O)cc3)no2)c1
REMARK SMILES IDX 12 1 13 2 14 3 15 4 25 5 26 6 11 7 10 8 9 9 7 10 8 11 28 12
REMARK SMILES IDX 27 13 6 14 2 15 3 16 29 17 4 18 5 19 1 20 16 21 17 22 18 23
REMARK SMILES IDX 19 24 20 25 21 26 22 27 23 28 24 29
REMARK H PARENT 24 30
ROOT
ATOM      1  C   UNL     1      -6.786  -7.634 -21.231  1.00  0.00     0.120 A 
ATOM      2  C   UNL     1      -6.744  -8.954 -21.678  1.00  0.00     0.047 A 
ATOM      3  C   UNL     1      -7.602  -9.377 -22.700  1.00  0.00     0.007 A 
ATOM      4  C   UNL     1      -8.512  -8.488 -23.286  1.00  0.00    -0.045 A 
ATOM      5  C   UNL     1      -8.546  -7.164 -22.837  1.00  0.00     0.007 A 
ATOM      6  C   UNL     1      -7.691  -6.744 -21.816  1.00  0.00     0.047 A 
ENDROOT
BRANCH   1   7
ATOM      7  O   UNL     1      -6.009  -7.089 -20.247  1.00  0.00    -0.485 OA
BRANCH   7   8
ATOM      8  C   UNL     1      -4.589  -7.176 -20.412  1.00  0.00     0.310 C 
BRANCH   8   9
ATOM      9  C   UNL     1      -3.952  -5.832 -20.307  1.00  0.00     0.209 A 
ATOM     10  C   UNL     1      -3.657  -3.765 -20.500  1.00  0.00     0.258 A 
ATOM     11  N   UNL     1      -4.541  -4.692 -20.801  1.00  0.00    -0.188 NA
ATOM     12  O   UNL     1      -2.569  -4.262 -19.834  1.00  0.00    -0.334 OA
ATOM     13  N   UNL     1      -2.772  -5.638 -19.701  1.00  0.00    -0.058 NA
BRANCH  10  14
ATOM     14  C   UNL     1      -3.681  -2.331 -20.763  1.00  0.00     0.040 A 
ATOM     15  C   UNL     1      -2.772  -0.325 -21.827  1.00  0.00    -0.050 A 
ATOM     16  C   UNL     1      -3.772   0.442 -21.222  1.00  0.00     0.003 A 
ATOM     17  C   UNL     1      -2.726  -1.707 -21.583  1.00  0.00     0.017 A 
ATOM     18  C   UNL     1      -4.727  -0.163 -20.408  1.00  0.00     0.001 A 
ATOM     19  C   UNL     1      -4.682  -1.540 -20.183  1.00  0.00     0.014 A 
ATOM     20  C   UNL     1      -1.723   0.330 -22.678  1.00  0.00     0.044 C 
ENDBRANCH  10  14
ENDBRANCH   8   9
ENDBRANCH   7   8
ENDBRANCH   1   7
BRANCH   4  21
ATOM     21  C   UNL     1      -9.418  -8.945 -24.409  1.00  0.00     0.079 C 
BRANCH  21  22
ATOM     22  C   UNL     1      -9.383  -7.979 -25.602  1.00  0.00     0.232 C 
BRANCH  22  23
ATOM     23  O   UNL     1      -8.951  -8.716 -26.754  1.00  0.00    -0.364 OA
BRANCH  23  24
ATOM     24  C   UNL     1      -7.609  -8.433 -27.159  1.00  0.00     0.113 C 
ATOM     25  C   UNL     1      -6.668  -9.500 -26.609  1.00  0.00     0.038 C 
ATOM     26  C   UNL     1      -7.588  -8.441 -28.683  1.00  0.00     0.038 C 
ENDBRANCH  23  24
ENDBRANCH  22  23
BRANCH  22  27
ATOM     27  C   UNL     1     -10.780  -7.384 -25.801  1.00  0.00     0.333 C 
ATOM     28  O   UNL     1     -11.779  -7.589 -25.131  1.00  0.00    -0.249 OA
BRANCH  27  29
ATOM     29  O   UNL     1     -10.860  -6.585 -26.888  1.00  0.00    -0.479 OA
ATOM     30  H   UNL     1     -11.811  -6.619 -27.131  1.00  0.00     0.296 HD
ENDBRANCH  27  29
ENDBRANCH  22  27
ENDBRANCH  21  22
ENDBRANCH   4  21
TORSDOF 10
ENDMDL
MODEL 8
REMARK VINA RESULT:    -7.549      2.896     10.010
REMARK INTER + INTRA:         -12.742
REMARK INTER:                 -11.980
REMARK INTRA:                  -0.762
REMARK UNBOUND:                -1.001
REMARK SMILES Cc1cccc(-c2nc(COc3ccc(C[C@@H](OC(C)C)C(=O)O)cc3)no2)c1
REMARK SMILES IDX 12 1 13 2 14 3 15 4 25 5 26 6 11 7 10 8 9 9 7 10 8 11 28 12
REMARK SMILES IDX 27 13 6 14 2 15 3 16 29 17 4 18 5 19 1 20 16 21 17 22 18 23
REMARK SMILES IDX 19 24 20 25 21 26 22 27 23 28 24 29
REMARK H PARENT 24 30
ROOT
ATOM      1  C   UNL     1      -9.958  -8.228 -20.564  1.00  0.00     0.120 A 
ATOM      2  C   UNL     1      -9.240  -7.214 -19.931  1.00  0.00     0.047 A 
ATOM      3  C   UNL     1      -9.639  -6.753 -18.671  1.00  0.00     0.007 A 
ATOM      4  C   UNL     1     -10.758  -7.297 -18.029  1.00  0.00    -0.045 A 
ATOM      5  C   UNL     1     -11.472  -8.318 -18.666  1.00  0.00     0.007 A 
ATOM      6  C   UNL     1     -11.074  -8.775 -19.924  1.00  0.00     0.047 A 
ENDROOT
BRANCH   1   7
ATOM      7  O   UNL     1      -9.682  -8.771 -21.787  1.00  0.00    -0.485 OA
BRANCH   7   8
ATOM      8  C   UNL     1      -8.861  -8.003 -22.673  1.00  0.00     0.310 C 
BRANCH   8   9
ATOM      9  C   UNL     1      -9.293  -8.170 -24.090  1.00  0.00     0.209 A 
ATOM     10  C   UNL     1      -9.197  -8.483 -26.162  1.00  0.00     0.258 A 
ATOM     11  N   UNL     1      -8.404  -8.404 -25.113  1.00  0.00    -0.188 NA
ATOM     12  O   UNL     1     -10.519  -8.330 -25.843  1.00  0.00    -0.334 OA
ATOM     13  N   UNL     1     -10.581  -8.129 -24.462  1.00  0.00    -0.058 NA
BRANCH  10  14
ATOM     14  C   UNL     1      -8.869  -8.709 -27.564  1.00  0.00     0.040 A 
ATOM     15  C   UNL     1      -9.514  -9.228 -29.866  1.00  0.00    -0.050 A 
ATOM     16  C   UNL     1      -8.172  -9.149 -30.253  1.00  0.00     0.003 A 
ATOM     17  C   UNL     1      -9.851  -9.019 -28.519  1.00  0.00     0.017 A 
ATOM     18  C   UNL     1      -7.187  -8.842 -29.317  1.00  0.00     0.001 A 
ATOM     19  C   UNL     1      -7.533  -8.621 -27.984  1.00  0.00     0.014 A 
ATOM     20  C   UNL     1     -10.573  -9.591 -30.866  1.00  0.00     0.044 C 
ENDBRANCH  10  14
ENDBRANCH   8   9
ENDBRANCH   7   8
ENDBRANCH   1   7
BRANCH   4  21
ATOM     21  C   UNL     1     -11.167  -6.813 -16.654  1.00  0.00     0.079 C 
BRANCH  21  22
ATOM     22  C   UNL     1     -12.694  -6.768 -16.495  1.00  0.00     0.232 C 
BRANCH  22  23
ATOM     23  O   UNL     1     -13.096  -7.941 -15.775  1.00  0.00    -0.364 OA
BRANCH  23  24
ATOM     24  C   UNL     1     -14.502  -8.196 -15.814  1.00  0.00     0.113 C 
ATOM     25  C   UNL     1     -14.902  -8.668 -17.209  1.00  0.00     0.038 C 
ATOM     26  C   UNL     1     -14.792  -9.281 -14.784  1.00  0.00     0.038 C 
ENDBRANCH  23  24
ENDBRANCH  22  23
BRANCH  22  27
ATOM     27  C   UNL     1     -13.078  -5.487 -15.749  1.00  0.00     0.333 C 
ATOM     28  O   UNL     1     -12.447  -4.916 -14.874  1.00  0.00    -0.249 OA
BRANCH  27  29
ATOM     29  O   UNL     1     -14.287  -5.007 -16.118  1.00  0.00    -0.479 OA
ATOM     30  H   UNL     1     -14.557  -4.449 -15.356  1.00  0.00     0.296 HD
ENDBRANCH  27  29
ENDBRANCH  22  27
ENDBRANCH  21  22
ENDBRANCH   4  21
TORSDOF 10
ENDMDL
MODEL 9
REMARK VINA RESULT:    -7.539      3.558      9.432
REMARK INTER + INTRA:         -12.728
REMARK INTER:                 -12.251
REMARK INTRA:                  -0.477
REMARK UNBOUND:                -1.001
REMARK SMILES Cc1cccc(-c2nc(COc3ccc(C[C@@H](OC(C)C)C(=O)O)cc3)no2)c1
REMARK SMILES IDX 12 1 13 2 14 3 15 4 25 5 26 6 11 7 10 8 9 9 7 10 8 11 28 12
REMARK SMILES IDX 27 13 6 14 2 15 3 16 29 17 4 18 5 19 1 20 16 21 17 22 18 23
REMARK SMILES IDX 19 24 20 25 21 26 22 27 23 28 24 29
REMARK H PARENT 24 30
ROOT
ATOM      1  C   UNL     1      -7.889  -7.974 -21.452  1.00  0.00     0.120 A 
ATOM      2  C   UNL     1      -8.544  -6.862 -20.923  1.00  0.00     0.047 A 
ATOM      3  C   UNL     1      -7.811  -5.847 -20.299  1.00  0.00     0.007 A 
ATOM      4  C   UNL     1      -6.417  -5.930 -20.193  1.00  0.00    -0.045 A 
ATOM      5  C   UNL     1      -5.764  -7.045 -20.728  1.00  0.00     0.007 A 
ATOM      6  C   UNL     1      -6.498  -8.058 -21.350  1.00  0.00     0.047 A 
ENDROOT
BRANCH   1   7
ATOM      7  O   UNL     1      -8.477  -9.033 -22.086  1.00  0.00    -0.485 OA
BRANCH   7   8
ATOM      8  C   UNL     1      -9.867  -8.913 -22.406  1.00  0.00     0.310 C 
BRANCH   8   9
ATOM      9  C   UNL     1     -10.066  -8.683 -23.865  1.00  0.00     0.209 A 
ATOM     10  C   UNL     1      -9.641  -8.471 -25.908  1.00  0.00     0.258 A 
ATOM     11  N   UNL     1      -9.030  -8.723 -24.769  1.00  0.00    -0.188 NA
ATOM     12  O   UNL     1     -10.990  -8.298 -25.762  1.00  0.00    -0.334 OA
ATOM     13  N   UNL     1     -11.272  -8.447 -24.402  1.00  0.00    -0.058 NA
BRANCH  10  14
ATOM     14  C   UNL     1      -9.095  -8.362 -27.256  1.00  0.00     0.040 A 
ATOM     15  C   UNL     1      -9.294  -7.737 -29.612  1.00  0.00    -0.050 A 
ATOM     16  C   UNL     1      -7.991  -8.192 -29.837  1.00  0.00     0.003 A 
ATOM     17  C   UNL     1      -9.842  -7.837 -28.323  1.00  0.00     0.017 A 
ATOM     18  C   UNL     1      -7.237  -8.714 -28.788  1.00  0.00     0.001 A 
ATOM     19  C   UNL     1      -7.785  -8.796 -27.507  1.00  0.00     0.014 A 
ATOM     20  C   UNL     1     -10.119  -7.204 -30.748  1.00  0.00     0.044 C 
ENDBRANCH  10  14
ENDBRANCH   8   9
ENDBRANCH   7   8
ENDBRANCH   1   7
BRANCH   4  21
ATOM     21  C   UNL     1      -5.628  -4.815 -19.539  1.00  0.00     0.079 C 
BRANCH  21  22
ATOM     22  C   UNL     1      -4.545  -4.258 -20.474  1.00  0.00     0.232 C 
BRANCH  22  23
ATOM     23  O   UNL     1      -4.555  -2.829 -20.356  1.00  0.00    -0.364 OA
BRANCH  23  24
ATOM     24  C   UNL     1      -4.797  -2.143 -21.587  1.00  0.00     0.113 C 
ATOM     25  C   UNL     1      -4.652  -0.639 -21.377  1.00  0.00     0.038 C 
ATOM     26  C   UNL     1      -3.763  -2.640 -22.591  1.00  0.00     0.038 C 
ENDBRANCH  23  24
ENDBRANCH  22  23
BRANCH  22  27
ATOM     27  C   UNL     1      -3.190  -4.849 -20.073  1.00  0.00     0.333 C 
ATOM     28  O   UNL     1      -2.922  -6.021 -19.863  1.00  0.00    -0.249 OA
BRANCH  27  29
ATOM     29  O   UNL     1      -2.235  -3.908 -19.904  1.00  0.00    -0.479 OA
ATOM     30  H   UNL     1      -1.401  -4.387 -20.102  1.00  0.00     0.296 HD
ENDBRANCH  27  29
ENDBRANCH  22  27
ENDBRANCH  21  22
ENDBRANCH   4  21
TORSDOF 10
ENDMDL
