MODEL 2
REMARK VINA RESULT:    -9.739      1.493      2.084
REMARK INTER + INTRA:         -15.175
REMARK INTER:                 -13.630
REMARK INTRA:                  -1.545
REMARK UNBOUND:                -1.451
REMARK SMILES c1ccc(-n2cnnn2)c(Cc2nc3c(NCC[C@@H]4CCCCN4)nccc3o2)c1
REMARK SMILES IDX 16 1 15 3 12 4 13 5 29 6 14 7 28 8 27 9 25 10 26 11 11 12
REMARK SMILES IDX 10 13 1 14 2 15 30 16 3 17 4 18 5 19 6 20 9 21 7 22 8 23
REMARK SMILES IDX 17 24 18 25 19 26 20 27 24 28 21 29 23 30 22 31
REMARK H PARENT 16 2 24 32
ROOT
ATOM      1  N   UNL     1      -5.031   9.429  20.550  1.00  0.00    -0.368 N 
ATOM      2  H   UNL     1      -5.747   8.742  20.320  1.00  0.00     0.162 HD
ENDROOT
BRANCH   1   3
ATOM      3  C   UNL     1      -5.641  10.568  21.088  1.00  0.00     0.155 A 
ATOM      4  C   UNL     1      -3.869  12.072  23.732  1.00  0.00     0.200 A 
ATOM      5  N   UNL     1      -3.886  11.072  22.868  1.00  0.00    -0.209 NA
ATOM      6  O   UNL     1      -4.936  12.926  23.642  1.00  0.00    -0.440 OA
ATOM      7  C   UNL     1      -5.049  11.286  22.150  1.00  0.00     0.152 A 
ATOM      8  C   UNL     1      -5.689  12.414  22.627  1.00  0.00     0.160 A 
ATOM      9  C   UNL     1      -6.882  12.912  22.144  1.00  0.00     0.070 A 
ATOM     10  N   UNL     1      -6.827  11.030  20.594  1.00  0.00    -0.237 NA
ATOM     11  C   UNL     1      -7.398  12.151  21.109  1.00  0.00     0.117 A 
BRANCH   4  12
ATOM     12  C   UNL     1      -2.850  12.374  24.778  1.00  0.00     0.135 C 
BRANCH  12  13
ATOM     13  C   UNL     1      -2.093  11.135  25.232  1.00  0.00    -0.013 A 
ATOM     14  C   UNL     1      -1.982   9.398  26.963  1.00  0.00     0.000 A 
ATOM     15  C   UNL     1      -0.824   8.893  26.393  1.00  0.00     0.002 A 
ATOM     16  C   UNL     1      -2.603  10.505  26.392  1.00  0.00     0.006 A 
ATOM     17  C   UNL     1      -0.287   9.497  25.255  1.00  0.00     0.029 A 
ATOM     18  C   UNL     1      -0.904  10.618  24.656  1.00  0.00     0.072 A 
BRANCH  18  19
ATOM     19  N   UNL     1      -0.292  11.166  23.490  1.00  0.00    -0.200 N 
ATOM     20  C   UNL     1      -0.380  10.738  22.182  1.00  0.00     0.252 A 
ATOM     21  N   UNL     1       0.484  12.269  23.490  1.00  0.00    -0.040 NA
ATOM     22  N   UNL     1       0.311  11.539  21.405  1.00  0.00    -0.117 NA
ATOM     23  N   UNL     1       0.843  12.485  22.234  1.00  0.00    -0.024 NA
ENDBRANCH  18  19
ENDBRANCH  12  13
ENDBRANCH   4  12
ENDBRANCH   1   3
BRANCH   1  24
ATOM     24  C   UNL     1      -4.058   9.692  19.500  1.00  0.00     0.116 C 
BRANCH  24  25
ATOM     25  C   UNL     1      -4.752   9.761  18.138  1.00  0.00     0.040 C 
BRANCH  25  26
ATOM     26  C   UNL     1      -5.106   8.396  17.512  1.00  0.00     0.055 C 
ATOM     27  C   UNL     1      -6.611   8.211  17.222  1.00  0.00     0.019 C 
ATOM     28  N   UNL     1      -4.568   7.364  18.426  1.00  0.00    -0.314 NA
ATOM     29  C   UNL     1      -7.372   7.726  18.451  1.00  0.00     0.003 C 
ATOM     30  C   UNL     1      -5.368   6.147  18.454  1.00  0.00     0.081 C 
ATOM     31  C   UNL     1      -6.764   6.437  19.007  1.00  0.00     0.015 C 
ATOM     32  H   UNL     1      -3.609   7.147  18.154  1.00  0.00     0.122 HD
ENDBRANCH  25  26
ENDBRANCH  24  25
ENDBRANCH   1  24
TORSDOF 7
ENDMDL
