MODEL 4
REMARK VINA RESULT:    -8.860      7.139     11.967
REMARK INTER + INTRA:         -14.341
REMARK INTER:                 -13.377
REMARK INTRA:                  -0.964
REMARK UNBOUND:                -1.597
REMARK SMILES C[C@@](O)(c1ccc(Nc2nn([C@H]3CC[C@@H](N4CCC4)C[C@@H]3C#N)cc2C(N)=O)cc1)C(F)(F)F
REMARK SMILES IDX 4 1 5 2 6 3 7 4 29 5 30 6 2 7 1 8 3 9 31 11 32 12 33 13
REMARK SMILES IDX 34 14 8 15 9 17 10 18 25 19 11 20 24 21 26 22 27 23 28 24
REMARK SMILES IDX 12 27 13 28 21 29 14 30 20 31 22 32 15 33 23 34 16 35 17 36
REMARK SMILES IDX 19 37 18 38
REMARK H PARENT 3 10 8 16 27 25 27 26
ROOT
ATOM      1  C   UNL     1       9.542 -27.068  25.962  1.00  0.00    -0.008 A 
ATOM      2  C   UNL     1       8.834 -28.265  25.796  1.00  0.00     0.009 A 
ATOM      3  C   UNL     1       7.781 -28.356  24.875  1.00  0.00     0.026 A 
ATOM      4  C   UNL     1       7.397 -27.257  24.097  1.00  0.00     0.040 A 
ATOM      5  C   UNL     1       8.091 -26.058  24.269  1.00  0.00     0.026 A 
ATOM      6  C   UNL     1       9.141 -25.963  25.188  1.00  0.00     0.009 A 
ENDROOT
BRANCH   1   7
ATOM      7  C   UNL     1      10.720 -26.917  26.933  1.00  0.00     0.182 C 
ATOM      8  C   UNL     1      10.788 -25.542  27.620  1.00  0.00     0.057 C 
BRANCH   7   9
ATOM      9  O   UNL     1      10.507 -27.857  28.016  1.00  0.00    -0.376 OA
ATOM     10  H   UNL     1       9.814 -27.481  28.589  1.00  0.00     0.212 HD
ENDBRANCH   7   9
BRANCH   7  11
ATOM     11  C   UNL     1      12.077 -27.171  26.211  1.00  0.00     0.421 C 
ATOM     12  F   UNL     1      11.890 -27.500  24.909  1.00  0.00    -0.167 F 
ATOM     13  F   UNL     1      12.794 -28.168  26.781  1.00  0.00    -0.167 F 
ATOM     14  F   UNL     1      12.861 -26.063  26.222  1.00  0.00    -0.167 F 
ENDBRANCH   7  11
ENDBRANCH   1   7
BRANCH   4  15
ATOM     15  N   UNL     1       6.361 -27.430  23.154  1.00  0.00    -0.338 N 
ATOM     16  H   UNL     1       5.822 -28.262  23.383  1.00  0.00     0.168 HD
BRANCH  15  17
ATOM     17  C   UNL     1       5.647 -26.512  22.466  1.00  0.00     0.165 A 
ATOM     18  N   UNL     1       6.100 -25.263  22.320  1.00  0.00    -0.154 NA
ATOM     19  C   UNL     1       4.358 -26.671  21.876  1.00  0.00     0.101 A 
ATOM     20  N   UNL     1       5.165 -24.641  21.594  1.00  0.00    -0.265 N 
ATOM     21  C   UNL     1       4.100 -25.437  21.299  1.00  0.00     0.125 A 
BRANCH  19  22
ATOM     22  C   UNL     1       3.451 -27.805  21.900  1.00  0.00     0.254 C 
ATOM     23  N   UNL     1       2.173 -27.537  21.484  1.00  0.00    -0.365 N 
ATOM     24  O   UNL     1       3.748 -28.940  22.252  1.00  0.00    -0.269 OA
ATOM     25  H   UNL     1       1.581 -28.347  21.366  1.00  0.00     0.159 HD
ATOM     26  H   UNL     1       1.968 -26.713  20.940  1.00  0.00     0.159 HD
ENDBRANCH  19  22
BRANCH  20  27
ATOM     27  C   UNL     1       5.344 -23.222  21.284  1.00  0.00     0.125 C 
ATOM     28  C   UNL     1       4.173 -22.659  20.471  1.00  0.00     0.030 C 
ATOM     29  C   UNL     1       5.602 -22.413  22.572  1.00  0.00     0.119 C 
ATOM     30  C   UNL     1       4.423 -21.213  20.035  1.00  0.00     0.021 C 
ATOM     31  C   UNL     1       5.037 -20.980  22.499  1.00  0.00     0.040 C 
ATOM     32  C   UNL     1       7.053 -22.368  22.854  1.00  0.00     0.068 C 
ATOM     33  C   UNL     1       5.173 -20.367  21.092  1.00  0.00     0.058 C 
ATOM     34  N   UNL     1       8.188 -22.302  23.080  1.00  0.00    -0.198 NA
BRANCH  33  35
ATOM     35  N   UNL     1       4.890 -18.929  21.166  1.00  0.00    -0.300 NA
ATOM     36  C   UNL     1       4.121 -18.400  20.020  1.00  0.00     0.086 C 
ATOM     37  C   UNL     1       3.796 -18.537  22.078  1.00  0.00     0.086 C 
ATOM     38  C   UNL     1       3.391 -17.484  21.026  1.00  0.00     0.031 C 
ENDBRANCH  33  35
ENDBRANCH  20  27
ENDBRANCH  15  17
ENDBRANCH   4  15
TORSDOF 8
ENDMDL
