MODEL 9
REMARK VINA RESULT:    -6.456      4.588      9.206
REMARK INTER + INTRA:          -8.623
REMARK INTER:                  -8.388
REMARK INTRA:                  -0.236
REMARK UNBOUND:                -0.280
REMARK SMILES NC(=O)c1ccc2c(c1)nc([C@H]1CC[C@H](O)CC1)n2CCO
REMARK SMILES IDX 4 1 5 2 6 3 7 4 8 5 9 6 10 7 11 8 19 9 2 10 1 11 3 12 20 15
REMARK SMILES IDX 21 16 22 17 12 19 18 20 13 21 17 22 14 23 15 24 16 25
REMARK H PARENT 1 13 1 14 22 18 16 26
ROOT
ATOM      1  C   UNL     1     -20.696  19.313  21.506  1.00  0.00     0.041 A 
ATOM      2  C   UNL     1     -20.503  20.534  20.842  1.00  0.00     0.016 A 
ATOM      3  C   UNL     1     -19.362  20.778  20.069  1.00  0.00     0.029 A 
ATOM      4  C   UNL     1     -18.417  19.748  19.993  1.00  0.00     0.068 A 
ATOM      5  C   UNL     1     -18.580  18.534  20.650  1.00  0.00     0.090 A 
ATOM      6  C   UNL     1     -19.727  18.303  21.425  1.00  0.00     0.044 A 
ATOM      7  N   UNL     1     -17.516  17.706  20.418  1.00  0.00    -0.233 NA
ATOM      8  C   UNL     1     -16.696  18.367  19.625  1.00  0.00     0.113 A 
ATOM      9  N   UNL     1     -17.204  19.624  19.352  1.00  0.00    -0.325 N 
ENDROOT
BRANCH   1  10
ATOM     10  C   UNL     1     -21.940  19.141  22.303  1.00  0.00     0.248 C 
ATOM     11  N   UNL     1     -23.026  18.594  21.678  1.00  0.00    -0.366 N 
ATOM     12  O   UNL     1     -22.009  19.504  23.470  1.00  0.00    -0.270 OA
ATOM     13  H   UNL     1     -23.890  18.596  22.207  1.00  0.00     0.159 HD
ATOM     14  H   UNL     1     -23.097  18.521  20.673  1.00  0.00     0.159 HD
ENDBRANCH   1  10
BRANCH   9  15
ATOM     15  C   UNL     1     -16.584  20.654  18.545  1.00  0.00     0.152 C 
BRANCH  15  16
ATOM     16  C   UNL     1     -15.723  21.600  19.373  1.00  0.00     0.178 C 
BRANCH  16  17
ATOM     17  O   UNL     1     -14.659  22.118  18.582  1.00  0.00    -0.395 OA
ATOM     18  H   UNL     1     -14.823  21.868  17.656  1.00  0.00     0.210 HD
ENDBRANCH  16  17
ENDBRANCH  15  16
ENDBRANCH   9  15
BRANCH   8  19
ATOM     19  C   UNL     1     -15.377  17.849  19.100  1.00  0.00     0.056 C 
ATOM     20  C   UNL     1     -14.353  17.707  20.237  1.00  0.00     0.014 C 
ATOM     21  C   UNL     1     -15.541  16.537  18.314  1.00  0.00     0.014 C 
ATOM     22  C   UNL     1     -14.599  16.480  21.118  1.00  0.00     0.032 C 
ATOM     23  C   UNL     1     -15.731  15.297  19.192  1.00  0.00     0.032 C 
ATOM     24  C   UNL     1     -14.685  15.196  20.296  1.00  0.00     0.114 C 
BRANCH  24  25
ATOM     25  O   UNL     1     -13.415  14.932  19.697  1.00  0.00    -0.393 OA
ATOM     26  H   UNL     1     -12.783  15.572  20.067  1.00  0.00     0.210 HD
ENDBRANCH  24  25
ENDBRANCH   8  19
TORSDOF 6
ENDMDL
