MODEL 2
REMARK VINA RESULT:    -7.834      2.825      5.888
REMARK INTER + INTRA:         -15.377
REMARK INTER:                 -14.255
REMARK INTRA:                  -1.122
REMARK UNBOUND:                -1.819
REMARK SMILES Cc1ccc(-c2nc(CCCCCO/N=C(/CCC(=O)O)c3ccccc3)c(C)o2)cc1
REMARK SMILES IDX 13 1 12 2 11 3 10 4 9 5 8 6 6 7 7 8 30 9 28 10 29 11 5 12
REMARK SMILES IDX 2 13 3 14 32 15 4 16 31 17 1 18 14 19 15 20 16 21 17 22
REMARK SMILES IDX 18 23 19 24 20 25 21 26 22 28 23 29 27 30 24 31 26 32 25 33
REMARK H PARENT 21 27
ROOT
ATOM      1  C   UNL     1      -7.929  -8.374 -22.780  1.00  0.00     0.264 C 
ENDROOT
BRANCH   1   2
ATOM      2  C   UNL     1      -9.208  -9.041 -22.282  1.00  0.00     0.044 C 
BRANCH   2   3
ATOM      3  C   UNL     1     -10.358  -9.007 -23.289  1.00  0.00     0.004 C 
BRANCH   3   4
ATOM      4  C   UNL     1      -9.990  -8.340 -24.616  1.00  0.00     0.007 C 
BRANCH   4   5
ATOM      5  C   UNL     1     -11.216  -7.910 -25.432  1.00  0.00     0.060 C 
BRANCH   5   6
ATOM      6  C   UNL     1     -10.899  -7.588 -26.849  1.00  0.00     0.082 A 
ATOM      7  C   UNL     1      -9.860  -7.662 -28.708  1.00  0.00     0.226 A 
ATOM      8  N   UNL     1      -9.869  -8.220 -27.510  1.00  0.00    -0.214 NA
ATOM      9  O   UNL     1     -10.829  -6.707 -28.885  1.00  0.00    -0.441 OA
ATOM     10  C   UNL     1     -11.491  -6.671 -27.691  1.00  0.00     0.125 A 
ATOM     11  C   UNL     1     -12.600  -5.710 -27.567  1.00  0.00     0.090 C 
BRANCH   7  12
ATOM     12  C   UNL     1      -8.970  -7.916 -29.838  1.00  0.00     0.037 A 
ATOM     13  C   UNL     1      -7.270  -8.358 -32.054  1.00  0.00    -0.051 A 
ATOM     14  C   UNL     1      -8.145  -7.267 -32.038  1.00  0.00     0.004 A 
ATOM     15  C   UNL     1      -7.262  -9.238 -30.965  1.00  0.00     0.004 A 
ATOM     16  C   UNL     1      -8.981  -7.046 -30.939  1.00  0.00     0.014 A 
ATOM     17  C   UNL     1      -8.100  -9.017 -29.867  1.00  0.00     0.014 A 
ATOM     18  C   UNL     1      -6.395  -8.622 -33.243  1.00  0.00     0.044 C 
ENDBRANCH   7  12
ENDBRANCH   5   6
ENDBRANCH   4   5
ENDBRANCH   3   4
ENDBRANCH   2   3
ENDBRANCH   1   2
BRANCH   1  19
ATOM     19  O   UNL     1      -7.726  -7.127 -22.109  1.00  0.00    -0.396 OA
BRANCH  19  20
ATOM     20  N   UNL     1      -8.399  -7.148 -20.878  1.00  0.00    -0.091 NA
ATOM     21  C   UNL     1      -7.698  -6.610 -19.923  1.00  0.00     0.088 C 
BRANCH  21  22
ATOM     22  C   UNL     1      -8.343  -6.482 -18.553  1.00  0.00     0.072 C 
BRANCH  22  23
ATOM     23  C   UNL     1      -9.829  -6.156 -18.663  1.00  0.00     0.129 C 
BRANCH  23  24
ATOM     24  C   UNL     1     -10.649  -7.098 -17.832  1.00  0.00     0.303 C 
ATOM     25  O   UNL     1     -11.486  -7.894 -18.223  1.00  0.00    -0.252 OA
BRANCH  24  26
ATOM     26  O   UNL     1     -10.369  -6.989 -16.520  1.00  0.00    -0.481 OA
ATOM     27  H   UNL     1     -11.171  -7.330 -16.073  1.00  0.00     0.296 HD
ENDBRANCH  24  26
ENDBRANCH  23  24
ENDBRANCH  22  23
ENDBRANCH  21  22
BRANCH  21  28
ATOM     28  C   UNL     1      -6.319  -6.076 -20.059  1.00  0.00    -0.001 A 
ATOM     29  C   UNL     1      -6.119  -4.695 -20.172  1.00  0.00     0.010 A 
ATOM     30  C   UNL     1      -5.227  -6.950 -20.042  1.00  0.00     0.010 A 
ATOM     31  C   UNL     1      -4.822  -4.192 -20.274  1.00  0.00     0.001 A 
ATOM     32  C   UNL     1      -3.932  -6.441 -20.145  1.00  0.00     0.001 A 
ATOM     33  C   UNL     1      -3.730  -5.063 -20.261  1.00  0.00     0.000 A 
ENDBRANCH  21  28
ENDBRANCH  19  20
ENDBRANCH   1  19
TORSDOF 13
ENDMDL
