MODEL 1
REMARK VINA RESULT:    -6.445      0.000      0.000
REMARK INTER + INTRA:         -14.332
REMARK INTER:                 -11.908
REMARK INTRA:                  -2.424
REMARK UNBOUND:                -2.424
REMARK SMILES N=C(N)[C@@H]1CCC[C@H](NC(=O)CN2CCCC[C@H](NS(=O)(=O)Cc3ccccc3)C2=O)[C@@H]1O
REMARK SMILES IDX 30 1 31 2 13 3 12 4 10 5 9 6 11 7 8 9 4 10 5 11 32 12 6 13
REMARK SMILES IDX 7 14 2 15 1 16 3 17 33 21 14 23 18 25 17 26 16 27 15 28
REMARK SMILES IDX 19 30 20 32 21 33 22 34 23 35 24 36 25 37 29 38 26 39 28 40
REMARK SMILES IDX 27 41
REMARK H PARENT 9 8 1 18 3 19 3 20 33 22 19 31
REMARK Flexibility Score:  147.900
ROOT
ATOM      1  C   UNL     1     128.419 -17.852 162.922  1.00  0.00     0.241 C 
ATOM      2  O   UNL     1     129.636 -17.648 163.036  1.00  0.00    -0.273 OA
ENDROOT
BRANCH   1   3
ATOM      3  N   UNL     1     127.828 -18.958 163.522  1.00  0.00    -0.332 N 
BRANCH   3   4
ATOM      4  C   UNL     1     128.726 -20.044 163.913  1.00  0.00     0.219 C 
BRANCH   4   5
ATOM      5  C   UNL     1     128.987 -20.001 165.423  1.00  0.00     0.239 C 
ATOM      6  N   UNL     1     130.027 -19.174 165.787  1.00  0.00    -0.349 N 
ATOM      7  O   UNL     1     128.335 -20.668 166.223  1.00  0.00    -0.273 OA
ATOM      8  H   UNL     1     130.174 -18.373 165.167  1.00  0.00     0.163 HD
BRANCH   6   9
ATOM      9  C   UNL     1     130.402 -18.957 167.186  1.00  0.00     0.111 C 
ATOM     10  C   UNL     1     132.290 -17.348 166.522  1.00  0.00     0.085 C 
ATOM     11  C   UNL     1     133.219 -18.573 166.662  1.00  0.00     0.014 C 
ATOM     12  C   UNL     1     130.997 -17.542 167.374  1.00  0.00     0.147 C 
ATOM     13  C   UNL     1     132.845 -19.485 167.825  1.00  0.00     0.003 C 
ATOM     14  C   UNL     1     131.413 -20.016 167.684  1.00  0.00     0.028 C 
BRANCH  10  15
ATOM     15  C   UNL     1     131.995 -17.010 165.044  1.00  0.00     0.096 C 
ATOM     16  N   UNL     1     132.403 -17.836 164.126  1.00  0.00    -0.288 NA
ATOM     17  N   UNL     1     131.308 -15.900 164.682  1.00  0.00    -0.387 N 
ATOM     18  H   UNL     1     132.111 -17.508 163.199  1.00  0.00     0.189 HD
ATOM     19  H   UNL     1     131.312 -15.615 163.711  1.00  0.00     0.157 HD
ATOM     20  H   UNL     1     131.115 -15.153 165.334  1.00  0.00     0.157 HD
ENDBRANCH  10  15
BRANCH  12  21
ATOM     21  O   UNL     1     129.991 -16.548 167.166  1.00  0.00    -0.390 OA
ATOM     22  H   UNL     1     129.411 -16.566 167.967  1.00  0.00     0.211 HD
ENDBRANCH  12  21
ENDBRANCH   6   9
ENDBRANCH   4   5
ENDBRANCH   3   4
BRANCH   3  23
ATOM     23  C   UNL     1     126.396 -19.222 163.693  1.00  0.00     0.120 CG0
ATOM     24  G   UNL     1     125.515 -18.830 162.521  1.00  0.00     0.000 G0
ENDBRANCH   3  23
ENDBRANCH   1   3
BRANCH   1  25
ATOM     25  C   UNL     1     127.554 -16.802 162.173  1.00  0.00     0.158 C 
BRANCH  25  26
ATOM     26  C   UNL     1     126.877 -17.361 160.928  1.00  0.00     0.030 C 
BRANCH  26  27
ATOM     27  C   UNL     1     126.281 -18.739 161.202  1.00  0.00     0.004 C 
BRANCH  27  28
ATOM     28  C   UNL     1     125.513 -18.828 162.517  1.00  0.00     0.022 CG0
ATOM     29  G   UNL     1     126.403 -19.221 163.683  1.00  0.00     0.000 G0
ENDBRANCH  27  28
ENDBRANCH  26  27
ENDBRANCH  25  26
BRANCH  25  30
ATOM     30  N   UNL     1     128.480 -15.705 161.757  1.00  0.00    -0.202 NA
ATOM     31  H   UNL     1     129.451 -16.032 161.633  1.00  0.00     0.141 HD
BRANCH  30  32
ATOM     32  S   UNL     1     128.377 -14.226 162.540  1.00  0.00     0.216 S 
ATOM     33  O   UNL     1     128.498 -14.500 163.957  1.00  0.00    -0.212 OA
ATOM     34  O   UNL     1     129.295 -13.325 161.870  1.00  0.00    -0.212 OA
BRANCH  32  35
ATOM     35  C   UNL     1     126.706 -13.636 162.189  1.00  0.00     0.189 C 
BRANCH  35  36
ATOM     36  C   UNL     1     125.908 -13.444 163.451  1.00  0.00    -0.032 A 
ATOM     37  C   UNL     1     125.116 -14.481 163.966  1.00  0.00     0.005 A 
ATOM     38  C   UNL     1     125.967 -12.230 164.150  1.00  0.00     0.005 A 
ATOM     39  C   UNL     1     124.387 -14.301 165.141  1.00  0.00     0.000 A 
ATOM     40  C   UNL     1     125.240 -12.056 165.329  1.00  0.00     0.000 A 
ATOM     41  C   UNL     1     124.451 -13.091 165.825  1.00  0.00     0.000 A 
ENDBRANCH  35  36
ENDBRANCH  32  35
ENDBRANCH  30  32
ENDBRANCH  25  30
ENDBRANCH   1  25
TORSDOF 9
ENDMDL
