MODEL 1
REMARK VINA RESULT:   -10.434      0.000      0.000
REMARK INTER + INTRA:         -15.678
REMARK INTER:                 -14.704
REMARK INTRA:                  -0.974
REMARK UNBOUND:                -0.974
REMARK SMILES CCC(=O)Nc1cc2c(Nc3ccc4c(ccn4Cc4ccccc4)c3)ncnc2cc1OC
REMARK SMILES IDX 6 1 7 2 8 3 9 4 27 5 28 6 29 7 30 8 31 9 32 10 5 11 3 12
REMARK SMILES IDX 4 13 2 15 1 16 33 17 34 18 10 19 11 21 26 22 12 23 15 24
REMARK SMILES IDX 13 25 14 26 16 27 18 28 17 29 19 30 20 31 25 32 21 33 24 34
REMARK SMILES IDX 22 35 23 36
REMARK H PARENT 5 14 10 20
ROOT
ATOM      1  C   UNL     1      11.547  39.034   9.635  1.00  0.00     0.084 A 
ATOM      2  C   UNL     1      12.725  38.287   9.767  1.00  0.00     0.044 A 
ATOM      3  C   UNL     1      13.977  38.833   9.380  1.00  0.00     0.045 A 
ATOM      4  C   UNL     1      15.234  38.154   9.467  1.00  0.00     0.141 A 
ATOM      5  N   UNL     1      16.392  38.748   9.083  1.00  0.00    -0.219 NA
ATOM      6  C   UNL     1      16.306  40.011   8.608  1.00  0.00     0.224 A 
ATOM      7  N   UNL     1      15.180  40.752   8.476  1.00  0.00    -0.236 NA
ATOM      8  C   UNL     1      14.013  40.164   8.864  1.00  0.00     0.080 A 
ATOM      9  C   UNL     1      12.814  40.902   8.757  1.00  0.00     0.077 A 
ATOM     10  C   UNL     1      11.585  40.348   9.145  1.00  0.00     0.144 A 
ENDROOT
BRANCH   1  11
ATOM     11  N   UNL     1      10.298  38.518  10.039  1.00  0.00    -0.323 N 
ATOM     12  C   UNL     1       9.764  38.523  11.278  1.00  0.00     0.224 C 
ATOM     13  O   UNL     1      10.323  38.984  12.276  1.00  0.00    -0.275 OA
ATOM     14  H   UNL     1       9.800  38.003   9.328  1.00  0.00     0.170 HD
BRANCH  12  15
ATOM     15  C   UNL     1       8.375  37.874  11.386  1.00  0.00     0.097 C 
ATOM     16  C   UNL     1       7.590  37.806  10.063  1.00  0.00     0.014 C 
ENDBRANCH  12  15
ENDBRANCH   1  11
BRANCH  10  17
ATOM     17  O   UNL     1      10.386  41.040   9.065  1.00  0.00    -0.494 OA
ATOM     18  C   UNL     1       9.651  41.043   7.845  1.00  0.00     0.278 C 
ENDBRANCH  10  17
BRANCH   4  19
ATOM     19  N   UNL     1      15.282  36.844   9.985  1.00  0.00    -0.340 N 
ATOM     20  H   UNL     1      14.786  36.756  10.859  1.00  0.00     0.168 HD
BRANCH  19  21
ATOM     21  C   UNL     1      15.869  35.632   9.575  1.00  0.00     0.040 A 
ATOM     22  C   UNL     1      16.554  34.914  10.558  1.00  0.00     0.036 A 
ATOM     23  C   UNL     1      15.786  35.120   8.273  1.00  0.00     0.028 A 
ATOM     24  C   UNL     1      17.174  33.699  10.231  1.00  0.00     0.002 A 
ATOM     25  C   UNL     1      16.380  33.914   7.904  1.00  0.00     0.029 A 
ATOM     26  C   UNL     1      17.075  33.211   8.895  1.00  0.00     0.048 A 
ATOM     27  C   UNL     1      17.949  32.749  10.968  1.00  0.00     0.028 A 
ATOM     28  N   UNL     1      17.764  32.007   8.846  1.00  0.00    -0.343 N 
ATOM     29  C   UNL     1      18.298  31.748  10.088  1.00  0.00     0.087 A 
BRANCH  28  30
ATOM     30  C   UNL     1      17.957  31.172   7.661  1.00  0.00     0.157 C 
BRANCH  30  31
ATOM     31  C   UNL     1      16.760  30.307   7.259  1.00  0.00    -0.028 A 
ATOM     32  C   UNL     1      16.978  29.198   6.436  1.00  0.00     0.005 A 
ATOM     33  C   UNL     1      15.459  30.616   7.676  1.00  0.00     0.005 A 
ATOM     34  C   UNL     1      15.911  28.394   6.047  1.00  0.00     0.000 A 
ATOM     35  C   UNL     1      14.392  29.810   7.290  1.00  0.00     0.000 A 
ATOM     36  C   UNL     1      14.622  28.702   6.478  1.00  0.00     0.000 A 
ENDBRANCH  30  31
ENDBRANCH  28  30
ENDBRANCH  19  21
ENDBRANCH   4  19
TORSDOF 7
ENDMDL
MODEL 2
REMARK VINA RESULT:   -10.252      4.605      7.897
REMARK INTER + INTRA:         -15.421
REMARK INTER:                 -14.199
REMARK INTRA:                  -1.222
REMARK UNBOUND:                -0.974
REMARK SMILES CCC(=O)Nc1cc2c(Nc3ccc4c(ccn4Cc4ccccc4)c3)ncnc2cc1OC
REMARK SMILES IDX 6 1 7 2 8 3 9 4 27 5 28 6 29 7 30 8 31 9 32 10 5 11 3 12
REMARK SMILES IDX 4 13 2 15 1 16 33 17 34 18 10 19 11 21 26 22 12 23 15 24
REMARK SMILES IDX 13 25 14 26 16 27 18 28 17 29 19 30 20 31 25 32 21 33 24 34
REMARK SMILES IDX 22 35 23 36
REMARK H PARENT 5 14 10 20
ROOT
ATOM      1  C   UNL     1      16.926  39.233   8.393  1.00  0.00     0.084 A 
ATOM      2  C   UNL     1      15.810  38.559   8.907  1.00  0.00     0.044 A 
ATOM      3  C   UNL     1      14.561  39.221   9.041  1.00  0.00     0.045 A 
ATOM      4  C   UNL     1      13.366  38.626   9.557  1.00  0.00     0.141 A 
ATOM      5  N   UNL     1      12.205  39.324   9.647  1.00  0.00    -0.219 NA
ATOM      6  C   UNL     1      12.229  40.610   9.232  1.00  0.00     0.224 A 
ATOM      7  N   UNL     1      13.293  41.280   8.729  1.00  0.00    -0.236 NA
ATOM      8  C   UNL     1      14.462  40.584   8.631  1.00  0.00     0.080 A 
ATOM      9  C   UNL     1      15.596  41.238   8.101  1.00  0.00     0.077 A 
ATOM     10  C   UNL     1      16.824  40.569   7.975  1.00  0.00     0.144 A 
ENDROOT
BRANCH   1  11
ATOM     11  N   UNL     1      18.167  38.585   8.228  1.00  0.00    -0.323 N 
ATOM     12  C   UNL     1      18.664  38.026   7.105  1.00  0.00     0.224 C 
ATOM     13  O   UNL     1      18.070  37.986   6.025  1.00  0.00    -0.275 OA
ATOM     14  H   UNL     1      18.692  38.447   9.080  1.00  0.00     0.170 HD
BRANCH  12  15
ATOM     15  C   UNL     1      20.055  37.392   7.259  1.00  0.00     0.097 C 
ATOM     16  C   UNL     1      20.137  35.907   6.858  1.00  0.00     0.014 C 
ENDBRANCH  12  15
ENDBRANCH   1  11
BRANCH  10  17
ATOM     17  O   UNL     1      17.960  41.168   7.452  1.00  0.00    -0.494 OA
ATOM     18  C   UNL     1      17.900  41.809   6.182  1.00  0.00     0.278 C 
ENDBRANCH  10  17
BRANCH   4  19
ATOM     19  N   UNL     1      13.380  37.277   9.964  1.00  0.00    -0.340 N 
ATOM     20  H   UNL     1      13.048  36.654   9.244  1.00  0.00     0.168 HD
BRANCH  19  21
ATOM     21  C   UNL     1      13.738  36.596  11.143  1.00  0.00     0.040 A 
ATOM     22  C   UNL     1      14.890  35.809  11.077  1.00  0.00     0.036 A 
ATOM     23  C   UNL     1      13.024  36.681  12.346  1.00  0.00     0.028 A 
ATOM     24  C   UNL     1      15.313  35.092  12.205  1.00  0.00     0.002 A 
ATOM     25  C   UNL     1      13.410  35.992  13.495  1.00  0.00     0.029 A 
ATOM     26  C   UNL     1      14.559  35.197  13.412  1.00  0.00     0.048 A 
ATOM     27  C   UNL     1      16.403  34.204  12.468  1.00  0.00     0.028 A 
ATOM     28  N   UNL     1      15.188  34.401  14.359  1.00  0.00    -0.343 N 
ATOM     29  C   UNL     1      16.281  33.797  13.779  1.00  0.00     0.087 A 
BRANCH  28  30
ATOM     30  C   UNL     1      14.738  34.177  15.732  1.00  0.00     0.157 C 
BRANCH  30  31
ATOM     31  C   UNL     1      15.447  35.009  16.804  1.00  0.00    -0.028 A 
ATOM     32  C   UNL     1      14.683  35.577  17.828  1.00  0.00     0.005 A 
ATOM     33  C   UNL     1      16.830  35.229  16.766  1.00  0.00     0.005 A 
ATOM     34  C   UNL     1      15.296  36.344  18.815  1.00  0.00     0.000 A 
ATOM     35  C   UNL     1      17.443  35.993  17.755  1.00  0.00     0.000 A 
ATOM     36  C   UNL     1      16.673  36.547  18.775  1.00  0.00     0.000 A 
ENDBRANCH  30  31
ENDBRANCH  28  30
ENDBRANCH  19  21
ENDBRANCH   4  19
TORSDOF 7
ENDMDL
MODEL 3
REMARK VINA RESULT:    -9.993      1.790      2.563
REMARK INTER + INTRA:         -15.057
REMARK INTER:                 -14.927
REMARK INTRA:                  -0.130
REMARK UNBOUND:                -0.974
REMARK SMILES CCC(=O)Nc1cc2c(Nc3ccc4c(ccn4Cc4ccccc4)c3)ncnc2cc1OC
REMARK SMILES IDX 6 1 7 2 8 3 9 4 27 5 28 6 29 7 30 8 31 9 32 10 5 11 3 12
REMARK SMILES IDX 4 13 2 15 1 16 33 17 34 18 10 19 11 21 26 22 12 23 15 24
REMARK SMILES IDX 13 25 14 26 16 27 18 28 17 29 19 30 20 31 25 32 21 33 24 34
REMARK SMILES IDX 22 35 23 36
REMARK H PARENT 5 14 10 20
ROOT
ATOM      1  C   UNL     1      13.647  40.286   9.133  1.00  0.00     0.084 A 
ATOM      2  C   UNL     1      14.899  39.667   9.013  1.00  0.00     0.044 A 
ATOM      3  C   UNL     1      15.861  40.150   8.089  1.00  0.00     0.045 A 
ATOM      4  C   UNL     1      17.162  39.588   7.885  1.00  0.00     0.141 A 
ATOM      5  N   UNL     1      18.032  40.113   6.985  1.00  0.00    -0.219 NA
ATOM      6  C   UNL     1      17.613  41.190   6.283  1.00  0.00     0.224 A 
ATOM      7  N   UNL     1      16.411  41.807   6.386  1.00  0.00    -0.236 NA
ATOM      8  C   UNL     1      15.534  41.288   7.292  1.00  0.00     0.080 A 
ATOM      9  C   UNL     1      14.272  41.905   7.442  1.00  0.00     0.077 A 
ATOM     10  C   UNL     1      13.332  41.415   8.362  1.00  0.00     0.144 A 
ENDROOT
BRANCH   1  11
ATOM     11  N   UNL     1      12.689  39.837  10.064  1.00  0.00    -0.323 N 
ATOM     12  C   UNL     1      11.952  38.707  10.011  1.00  0.00     0.224 C 
ATOM     13  O   UNL     1      12.003  37.884   9.094  1.00  0.00    -0.275 OA
ATOM     14  H   UNL     1      12.470  40.492  10.801  1.00  0.00     0.170 HD
BRANCH  12  15
ATOM     15  C   UNL     1      10.987  38.508  11.190  1.00  0.00     0.097 C 
ATOM     16  C   UNL     1      11.600  37.798  12.412  1.00  0.00     0.014 C 
ENDBRANCH  12  15
ENDBRANCH   1  11
BRANCH  10  17
ATOM     17  O   UNL     1      12.086  41.995   8.549  1.00  0.00    -0.494 OA
ATOM     18  C   UNL     1      10.944  41.439   7.904  1.00  0.00     0.278 C 
ENDBRANCH  10  17
BRANCH   4  19
ATOM     19  N   UNL     1      17.566  38.475   8.650  1.00  0.00    -0.340 N 
ATOM     20  H   UNL     1      18.185  38.730   9.404  1.00  0.00     0.168 HD
BRANCH  19  21
ATOM     21  C   UNL     1      17.316  37.090   8.602  1.00  0.00     0.040 A 
ATOM     22  C   UNL     1      18.347  36.295   8.096  1.00  0.00     0.036 A 
ATOM     23  C   UNL     1      16.129  36.491   9.040  1.00  0.00     0.028 A 
ATOM     24  C   UNL     1      18.178  34.906   8.008  1.00  0.00     0.002 A 
ATOM     25  C   UNL     1      15.918  35.114   8.979  1.00  0.00     0.029 A 
ATOM     26  C   UNL     1      16.953  34.329   8.457  1.00  0.00     0.048 A 
ATOM     27  C   UNL     1      18.998  33.832   7.535  1.00  0.00     0.028 A 
ATOM     28  N   UNL     1      17.049  32.958   8.263  1.00  0.00    -0.343 N 
ATOM     29  C   UNL     1      18.271  32.673   7.694  1.00  0.00     0.087 A 
BRANCH  28  30
ATOM     30  C   UNL     1      16.008  31.972   8.547  1.00  0.00     0.157 C 
BRANCH  30  31
ATOM     31  C   UNL     1      15.987  30.748   7.630  1.00  0.00    -0.028 A 
ATOM     32  C   UNL     1      14.754  30.194   7.275  1.00  0.00     0.005 A 
ATOM     33  C   UNL     1      17.171  30.161   7.163  1.00  0.00     0.005 A 
ATOM     34  C   UNL     1      14.700  29.076   6.447  1.00  0.00     0.000 A 
ATOM     35  C   UNL     1      17.117  29.045   6.332  1.00  0.00     0.000 A 
ATOM     36  C   UNL     1      15.882  28.508   5.977  1.00  0.00     0.000 A 
ENDBRANCH  30  31
ENDBRANCH  28  30
ENDBRANCH  19  21
ENDBRANCH   4  19
TORSDOF 7
ENDMDL
MODEL 4
REMARK VINA RESULT:    -9.946      4.593      8.033
REMARK INTER + INTRA:         -14.990
REMARK INTER:                 -13.598
REMARK INTRA:                  -1.393
REMARK UNBOUND:                -0.974
REMARK SMILES CCC(=O)Nc1cc2c(Nc3ccc4c(ccn4Cc4ccccc4)c3)ncnc2cc1OC
REMARK SMILES IDX 6 1 7 2 8 3 9 4 27 5 28 6 29 7 30 8 31 9 32 10 5 11 3 12
REMARK SMILES IDX 4 13 2 15 1 16 33 17 34 18 10 19 11 21 26 22 12 23 15 24
REMARK SMILES IDX 13 25 14 26 16 27 18 28 17 29 19 30 20 31 25 32 21 33 24 34
REMARK SMILES IDX 22 35 23 36
REMARK H PARENT 5 14 10 20
ROOT
ATOM      1  C   UNL     1      18.068  38.413   7.058  1.00  0.00     0.084 A 
ATOM      2  C   UNL     1      17.735  37.211   7.698  1.00  0.00     0.044 A 
ATOM      3  C   UNL     1      18.715  36.205   7.907  1.00  0.00     0.045 A 
ATOM      4  C   UNL     1      18.478  34.945   8.542  1.00  0.00     0.141 A 
ATOM      5  N   UNL     1      19.471  34.035   8.713  1.00  0.00    -0.219 NA
ATOM      6  C   UNL     1      20.696  34.371   8.250  1.00  0.00     0.224 A 
ATOM      7  N   UNL     1      21.041  35.527   7.634  1.00  0.00    -0.236 NA
ATOM      8  C   UNL     1      20.049  36.447   7.463  1.00  0.00     0.080 A 
ATOM      9  C   UNL     1      20.364  37.673   6.836  1.00  0.00     0.077 A 
ATOM     10  C   UNL     1      19.384  38.657   6.637  1.00  0.00     0.144 A 
ENDROOT
BRANCH   1  11
ATOM     11  N   UNL     1      17.115  39.433   6.865  1.00  0.00    -0.323 N 
ATOM     12  C   UNL     1      16.492  40.171   7.809  1.00  0.00     0.224 C 
ATOM     13  O   UNL     1      16.664  40.039   9.023  1.00  0.00    -0.275 OA
ATOM     14  H   UNL     1      16.801  39.549   5.913  1.00  0.00     0.170 HD
BRANCH  12  15
ATOM     15  C   UNL     1      15.498  41.209   7.265  1.00  0.00     0.097 C 
ATOM     16  C   UNL     1      14.061  40.688   7.072  1.00  0.00     0.014 C 
ENDBRANCH  12  15
ENDBRANCH   1  11
BRANCH  10  17
ATOM     17  O   UNL     1      19.650  39.877   6.034  1.00  0.00    -0.494 OA
ATOM     18  C   UNL     1      20.995  40.332   5.923  1.00  0.00     0.278 C 
ENDBRANCH  10  17
BRANCH   4  19
ATOM     19  N   UNL     1      17.189  34.641   9.026  1.00  0.00    -0.340 N 
ATOM     20  H   UNL     1      16.540  34.423   8.285  1.00  0.00     0.168 HD
BRANCH  19  21
ATOM     21  C   UNL     1      16.592  34.582  10.300  1.00  0.00     0.040 A 
ATOM     22  C   UNL     1      15.573  35.505  10.547  1.00  0.00     0.036 A 
ATOM     23  C   UNL     1      16.948  33.660  11.292  1.00  0.00     0.028 A 
ATOM     24  C   UNL     1      14.930  35.519  11.793  1.00  0.00     0.002 A 
ATOM     25  C   UNL     1      16.332  33.631  12.543  1.00  0.00     0.029 A 
ATOM     26  C   UNL     1      15.322  34.569  12.783  1.00  0.00     0.048 A 
ATOM     27  C   UNL     1      13.892  36.318  12.368  1.00  0.00     0.028 A 
ATOM     28  N   UNL     1      14.536  34.797  13.904  1.00  0.00    -0.343 N 
ATOM     29  C   UNL     1      13.695  35.857  13.651  1.00  0.00     0.087 A 
BRANCH  28  30
ATOM     30  C   UNL     1      14.621  34.080  15.176  1.00  0.00     0.157 C 
BRANCH  30  31
ATOM     31  C   UNL     1      15.259  34.856  16.331  1.00  0.00    -0.028 A 
ATOM     32  C   UNL     1      16.642  35.061  16.321  1.00  0.00     0.005 A 
ATOM     33  C   UNL     1      14.494  35.339  17.401  1.00  0.00     0.005 A 
ATOM     34  C   UNL     1      17.254  35.757  17.360  1.00  0.00     0.000 A 
ATOM     35  C   UNL     1      15.106  36.038  18.437  1.00  0.00     0.000 A 
ATOM     36  C   UNL     1      16.483  36.244  18.412  1.00  0.00     0.000 A 
ENDBRANCH  30  31
ENDBRANCH  28  30
ENDBRANCH  19  21
ENDBRANCH   4  19
TORSDOF 7
ENDMDL
MODEL 5
REMARK VINA RESULT:    -9.850      5.333     10.295
REMARK INTER + INTRA:         -14.855
REMARK INTER:                 -13.604
REMARK INTRA:                  -1.251
REMARK UNBOUND:                -0.974
REMARK SMILES CCC(=O)Nc1cc2c(Nc3ccc4c(ccn4Cc4ccccc4)c3)ncnc2cc1OC
REMARK SMILES IDX 6 1 7 2 8 3 9 4 27 5 28 6 29 7 30 8 31 9 32 10 5 11 3 12
REMARK SMILES IDX 4 13 2 15 1 16 33 17 34 18 10 19 11 21 26 22 12 23 15 24
REMARK SMILES IDX 13 25 14 26 16 27 18 28 17 29 19 30 20 31 25 32 21 33 24 34
REMARK SMILES IDX 22 35 23 36
REMARK H PARENT 5 14 10 20
ROOT
ATOM      1  C   UNL     1      19.283  34.311  14.696  1.00  0.00     0.084 A 
ATOM      2  C   UNL     1      17.942  34.388  14.297  1.00  0.00     0.044 A 
ATOM      3  C   UNL     1      16.913  34.608  15.249  1.00  0.00     0.045 A 
ATOM      4  C   UNL     1      15.517  34.696  14.947  1.00  0.00     0.141 A 
ATOM      5  N   UNL     1      14.591  34.916  15.915  1.00  0.00    -0.219 NA
ATOM      6  C   UNL     1      15.047  35.043  17.182  1.00  0.00     0.224 A 
ATOM      7  N   UNL     1      16.336  34.977  17.590  1.00  0.00    -0.236 NA
ATOM      8  C   UNL     1      17.272  34.761  16.622  1.00  0.00     0.080 A 
ATOM      9  C   UNL     1      18.632  34.696  16.998  1.00  0.00     0.077 A 
ATOM     10  C   UNL     1      19.638  34.478  16.043  1.00  0.00     0.144 A 
ENDROOT
BRANCH   1  11
ATOM     11  N   UNL     1      20.320  34.120  13.761  1.00  0.00    -0.323 N 
ATOM     12  C   UNL     1      20.754  32.955  13.235  1.00  0.00     0.224 C 
ATOM     13  O   UNL     1      20.296  31.846  13.523  1.00  0.00    -0.275 OA
ATOM     14  H   UNL     1      20.854  34.948  13.541  1.00  0.00     0.170 HD
BRANCH  12  15
ATOM     15  C   UNL     1      21.914  33.088  12.236  1.00  0.00     0.097 C 
ATOM     16  C   UNL     1      21.603  33.947  10.996  1.00  0.00     0.014 C 
ENDBRANCH  12  15
ENDBRANCH   1  11
BRANCH  10  17
ATOM     17  O   UNL     1      20.985  34.416  16.366  1.00  0.00    -0.494 OA
ATOM     18  C   UNL     1      21.515  33.237  16.962  1.00  0.00     0.278 C 
ENDBRANCH  10  17
BRANCH   4  19
ATOM     19  N   UNL     1      15.085  34.575  13.611  1.00  0.00    -0.340 N 
ATOM     20  H   UNL     1      15.251  33.655  13.234  1.00  0.00     0.168 HD
BRANCH  19  21
ATOM     21  C   UNL     1      14.487  35.442  12.675  1.00  0.00     0.040 A 
ATOM     22  C   UNL     1      13.387  36.173  13.127  1.00  0.00     0.036 A 
ATOM     23  C   UNL     1      14.941  35.611  11.361  1.00  0.00     0.028 A 
ATOM     24  C   UNL     1      12.729  37.054  12.257  1.00  0.00     0.002 A 
ATOM     25  C   UNL     1      14.324  36.480  10.462  1.00  0.00     0.029 A 
ATOM     26  C   UNL     1      13.214  37.198  10.923  1.00  0.00     0.048 A 
ATOM     27  C   UNL     1      11.594  37.916  12.385  1.00  0.00     0.028 A 
ATOM     28  N   UNL     1      12.395  38.119  10.285  1.00  0.00    -0.343 N 
ATOM     29  C   UNL     1      11.418  38.530  11.164  1.00  0.00     0.087 A 
BRANCH  28  30
ATOM     30  C   UNL     1      12.499  38.545   8.890  1.00  0.00     0.157 C 
BRANCH  30  31
ATOM     31  C   UNL     1      13.316  39.815   8.645  1.00  0.00    -0.028 A 
ATOM     32  C   UNL     1      14.708  39.753   8.761  1.00  0.00     0.005 A 
ATOM     33  C   UNL     1      12.700  41.034   8.333  1.00  0.00     0.005 A 
ATOM     34  C   UNL     1      15.480  40.892   8.551  1.00  0.00     0.000 A 
ATOM     35  C   UNL     1      13.472  42.173   8.119  1.00  0.00     0.000 A 
ATOM     36  C   UNL     1      14.858  42.096   8.228  1.00  0.00     0.000 A 
ENDBRANCH  30  31
ENDBRANCH  28  30
ENDBRANCH  19  21
ENDBRANCH   4  19
TORSDOF 7
ENDMDL
MODEL 6
REMARK VINA RESULT:    -9.813      4.859      9.479
REMARK INTER + INTRA:         -14.803
REMARK INTER:                 -13.347
REMARK INTRA:                  -1.456
REMARK UNBOUND:                -0.974
REMARK SMILES CCC(=O)Nc1cc2c(Nc3ccc4c(ccn4Cc4ccccc4)c3)ncnc2cc1OC
REMARK SMILES IDX 6 1 7 2 8 3 9 4 27 5 28 6 29 7 30 8 31 9 32 10 5 11 3 12
REMARK SMILES IDX 4 13 2 15 1 16 33 17 34 18 10 19 11 21 26 22 12 23 15 24
REMARK SMILES IDX 13 25 14 26 16 27 18 28 17 29 19 30 20 31 25 32 21 33 24 34
REMARK SMILES IDX 22 35 23 36
REMARK H PARENT 5 14 10 20
ROOT
ATOM      1  C   UNL     1      18.540  35.410  15.765  1.00  0.00     0.084 A 
ATOM      2  C   UNL     1      17.931  34.928  14.598  1.00  0.00     0.044 A 
ATOM      3  C   UNL     1      18.709  34.363  13.554  1.00  0.00     0.045 A 
ATOM      4  C   UNL     1      18.187  33.850  12.324  1.00  0.00     0.141 A 
ATOM      5  N   UNL     1      18.997  33.315  11.375  1.00  0.00    -0.219 NA
ATOM      6  C   UNL     1      20.322  33.294  11.640  1.00  0.00     0.224 A 
ATOM      7  N   UNL     1      20.931  33.749  12.761  1.00  0.00    -0.236 NA
ATOM      8  C   UNL     1      20.124  34.283  13.721  1.00  0.00     0.080 A 
ATOM      9  C   UNL     1      20.713  34.759  14.913  1.00  0.00     0.077 A 
ATOM     10  C   UNL     1      19.929  35.316  15.936  1.00  0.00     0.144 A 
ENDROOT
BRANCH   1  11
ATOM     11  N   UNL     1      17.782  35.950  16.823  1.00  0.00    -0.323 N 
ATOM     12  C   UNL     1      17.231  35.293  17.865  1.00  0.00     0.224 C 
ATOM     13  O   UNL     1      17.302  34.074  18.036  1.00  0.00    -0.275 OA
ATOM     14  H   UNL     1      17.552  36.929  16.726  1.00  0.00     0.170 HD
BRANCH  12  15
ATOM     15  C   UNL     1      16.456  36.180  18.853  1.00  0.00     0.097 C 
ATOM     16  C   UNL     1      14.932  36.212  18.633  1.00  0.00     0.014 C 
ENDBRANCH  12  15
ENDBRANCH   1  11
BRANCH  10  17
ATOM     17  O   UNL     1      20.465  35.787  17.126  1.00  0.00    -0.494 OA
ATOM     18  C   UNL     1      21.413  34.997  17.836  1.00  0.00     0.278 C 
ENDBRANCH  10  17
BRANCH   4  19
ATOM     19  N   UNL     1      16.797  33.875  12.094  1.00  0.00    -0.340 N 
ATOM     20  H   UNL     1      16.338  33.035  12.411  1.00  0.00     0.168 HD
BRANCH  19  21
ATOM     21  C   UNL     1      15.899  34.793  11.516  1.00  0.00     0.040 A 
ATOM     22  C   UNL     1      14.917  35.312  12.362  1.00  0.00     0.036 A 
ATOM     23  C   UNL     1      15.956  35.210  10.180  1.00  0.00     0.028 A 
ATOM     24  C   UNL     1      13.979  36.228  11.864  1.00  0.00     0.002 A 
ATOM     25  C   UNL     1      15.050  36.124   9.642  1.00  0.00     0.029 A 
ATOM     26  C   UNL     1      14.062  36.626  10.496  1.00  0.00     0.048 A 
ATOM     27  C   UNL     1      12.863  36.919  12.434  1.00  0.00     0.028 A 
ATOM     28  N   UNL     1      13.031  37.528  10.268  1.00  0.00    -0.343 N 
ATOM     29  C   UNL     1      12.309  37.683  11.430  1.00  0.00     0.087 A 
BRANCH  28  30
ATOM     30  C   UNL     1      12.711  38.166   8.992  1.00  0.00     0.157 C 
BRANCH  30  31
ATOM     31  C   UNL     1      13.303  39.562   8.784  1.00  0.00    -0.028 A 
ATOM     32  C   UNL     1      14.689  39.725   8.870  1.00  0.00     0.005 A 
ATOM     33  C   UNL     1      12.488  40.675   8.535  1.00  0.00     0.005 A 
ATOM     34  C   UNL     1      15.259  40.983   8.692  1.00  0.00     0.000 A 
ATOM     35  C   UNL     1      13.058  41.931   8.354  1.00  0.00     0.000 A 
ATOM     36  C   UNL     1      14.441  42.080   8.432  1.00  0.00     0.000 A 
ENDBRANCH  30  31
ENDBRANCH  28  30
ENDBRANCH  19  21
ENDBRANCH   4  19
TORSDOF 7
ENDMDL
MODEL 7
REMARK VINA RESULT:    -9.744      5.270      8.355
REMARK INTER + INTRA:         -14.705
REMARK INTER:                 -13.395
REMARK INTRA:                  -1.310
REMARK UNBOUND:                -0.974
REMARK SMILES CCC(=O)Nc1cc2c(Nc3ccc4c(ccn4Cc4ccccc4)c3)ncnc2cc1OC
REMARK SMILES IDX 6 1 7 2 8 3 9 4 27 5 28 6 29 7 30 8 31 9 32 10 5 11 3 12
REMARK SMILES IDX 4 13 2 15 1 16 33 17 34 18 10 19 11 21 26 22 12 23 15 24
REMARK SMILES IDX 13 25 14 26 16 27 18 28 17 29 19 30 20 31 25 32 21 33 24 34
REMARK SMILES IDX 22 35 23 36
REMARK H PARENT 5 14 10 20
ROOT
ATOM      1  C   UNL     1      19.039  34.849  15.892  1.00  0.00     0.084 A 
ATOM      2  C   UNL     1      17.955  34.942  15.009  1.00  0.00     0.044 A 
ATOM      3  C   UNL     1      16.627  34.735  15.466  1.00  0.00     0.045 A 
ATOM      4  C   UNL     1      15.455  34.801  14.648  1.00  0.00     0.141 A 
ATOM      5  N   UNL     1      14.215  34.598  15.162  1.00  0.00    -0.219 NA
ATOM      6  C   UNL     1      14.136  34.323  16.483  1.00  0.00     0.224 A 
ATOM      7  N   UNL     1      15.169  34.232  17.355  1.00  0.00    -0.236 NA
ATOM      8  C   UNL     1      16.417  34.440  16.847  1.00  0.00     0.080 A 
ATOM      9  C   UNL     1      17.525  34.367  17.721  1.00  0.00     0.077 A 
ATOM     10  C   UNL     1      18.831  34.576  17.252  1.00  0.00     0.144 A 
ENDROOT
BRANCH   1  11
ATOM     11  N   UNL     1      20.362  35.077  15.461  1.00  0.00    -0.323 N 
ATOM     12  C   UNL     1      20.901  36.237  15.030  1.00  0.00     0.224 C 
ATOM     13  O   UNL     1      20.283  37.300  14.933  1.00  0.00    -0.275 OA
ATOM     14  H   UNL     1      20.933  34.249  15.381  1.00  0.00     0.170 HD
BRANCH  12  15
ATOM     15  C   UNL     1      22.382  36.151  14.627  1.00  0.00     0.097 C 
ATOM     16  C   UNL     1      22.773  37.019  13.416  1.00  0.00     0.014 C 
ENDBRANCH  12  15
ENDBRANCH   1  11
BRANCH  10  17
ATOM     17  O   UNL     1      19.946  34.522  18.076  1.00  0.00    -0.494 OA
ATOM     18  C   UNL     1      19.961  35.261  19.293  1.00  0.00     0.278 C 
ENDBRANCH  10  17
BRANCH   4  19
ATOM     19  N   UNL     1      15.580  35.108  13.278  1.00  0.00    -0.340 N 
ATOM     20  H   UNL     1      15.299  36.053  13.067  1.00  0.00     0.168 HD
BRANCH  19  21
ATOM     21  C   UNL     1      15.993  34.400  12.133  1.00  0.00     0.040 A 
ATOM     22  C   UNL     1      15.968  35.107  10.928  1.00  0.00     0.036 A 
ATOM     23  C   UNL     1      16.431  33.070  12.148  1.00  0.00     0.028 A 
ATOM     24  C   UNL     1      16.358  34.475   9.739  1.00  0.00     0.002 A 
ATOM     25  C   UNL     1      16.835  32.402  10.992  1.00  0.00     0.029 A 
ATOM     26  C   UNL     1      16.792  33.117   9.790  1.00  0.00     0.048 A 
ATOM     27  C   UNL     1      16.432  34.888   8.371  1.00  0.00     0.028 A 
ATOM     28  N   UNL     1      17.118  32.742   8.493  1.00  0.00    -0.343 N 
ATOM     29  C   UNL     1      16.883  33.804   7.650  1.00  0.00     0.087 A 
BRANCH  28  30
ATOM     30  C   UNL     1      17.575  31.420   8.068  1.00  0.00     0.157 C 
BRANCH  30  31
ATOM     31  C   UNL     1      16.492  30.493   7.512  1.00  0.00    -0.028 A 
ATOM     32  C   UNL     1      16.868  29.464   6.644  1.00  0.00     0.005 A 
ATOM     33  C   UNL     1      15.140  30.669   7.835  1.00  0.00     0.005 A 
ATOM     34  C   UNL     1      15.906  28.607   6.115  1.00  0.00     0.000 A 
ATOM     35  C   UNL     1      14.179  29.810   7.309  1.00  0.00     0.000 A 
ATOM     36  C   UNL     1      14.566  28.782   6.452  1.00  0.00     0.000 A 
ENDBRANCH  30  31
ENDBRANCH  28  30
ENDBRANCH  19  21
ENDBRANCH   4  19
TORSDOF 7
ENDMDL
MODEL 8
REMARK VINA RESULT:    -9.702      2.354      3.200
REMARK INTER + INTRA:         -14.646
REMARK INTER:                 -14.297
REMARK INTRA:                  -0.349
REMARK UNBOUND:                -0.974
REMARK SMILES CCC(=O)Nc1cc2c(Nc3ccc4c(ccn4Cc4ccccc4)c3)ncnc2cc1OC
REMARK SMILES IDX 6 1 7 2 8 3 9 4 27 5 28 6 29 7 30 8 31 9 32 10 5 11 3 12
REMARK SMILES IDX 4 13 2 15 1 16 33 17 34 18 10 19 11 21 26 22 12 23 15 24
REMARK SMILES IDX 13 25 14 26 16 27 18 28 17 29 19 30 20 31 25 32 21 33 24 34
REMARK SMILES IDX 22 35 23 36
REMARK H PARENT 5 14 10 20
ROOT
ATOM      1  C   UNL     1      15.052  39.279   9.128  1.00  0.00     0.084 A 
ATOM      2  C   UNL     1      16.327  38.820   8.773  1.00  0.00     0.044 A 
ATOM      3  C   UNL     1      17.078  39.475   7.763  1.00  0.00     0.045 A 
ATOM      4  C   UNL     1      18.383  39.083   7.322  1.00  0.00     0.141 A 
ATOM      5  N   UNL     1      19.042  39.768   6.353  1.00  0.00    -0.219 NA
ATOM      6  C   UNL     1      18.409  40.834   5.816  1.00  0.00     0.224 A 
ATOM      7  N   UNL     1      17.180  41.298   6.147  1.00  0.00    -0.236 NA
ATOM      8  C   UNL     1      16.513  40.619   7.123  1.00  0.00     0.080 A 
ATOM      9  C   UNL     1      15.233  41.073   7.510  1.00  0.00     0.077 A 
ATOM     10  C   UNL     1      14.503  40.414   8.512  1.00  0.00     0.144 A 
ENDROOT
BRANCH   1  11
ATOM     11  N   UNL     1      14.302  38.657  10.148  1.00  0.00    -0.323 N 
ATOM     12  C   UNL     1      13.614  37.498  10.077  1.00  0.00     0.224 C 
ATOM     13  O   UNL     1      13.527  36.800   9.064  1.00  0.00    -0.275 OA
ATOM     14  H   UNL     1      14.198  39.201  10.992  1.00  0.00     0.170 HD
BRANCH  12  15
ATOM     15  C   UNL     1      12.895  37.093  11.373  1.00  0.00     0.097 C 
ATOM     16  C   UNL     1      13.789  36.400  12.419  1.00  0.00     0.014 C 
ENDBRANCH  12  15
ENDBRANCH   1  11
BRANCH  10  17
ATOM     17  O   UNL     1      13.248  40.830   8.929  1.00  0.00    -0.494 OA
ATOM     18  C   UNL     1      13.072  42.151   9.432  1.00  0.00     0.278 C 
ENDBRANCH  10  17
BRANCH   4  19
ATOM     19  N   UNL     1      19.015  37.975   7.921  1.00  0.00    -0.340 N 
ATOM     20  H   UNL     1      19.833  38.237   8.450  1.00  0.00     0.168 HD
BRANCH  19  21
ATOM     21  C   UNL     1      18.780  36.587   7.944  1.00  0.00     0.040 A 
ATOM     22  C   UNL     1      17.747  36.150   8.777  1.00  0.00     0.036 A 
ATOM     23  C   UNL     1      19.497  35.656   7.182  1.00  0.00     0.028 A 
ATOM     24  C   UNL     1      17.452  34.782   8.864  1.00  0.00     0.002 A 
ATOM     25  C   UNL     1      19.235  34.288   7.230  1.00  0.00     0.029 A 
ATOM     26  C   UNL     1      18.207  33.861   8.079  1.00  0.00     0.048 A 
ATOM     27  C   UNL     1      16.502  34.015   9.610  1.00  0.00     0.028 A 
ATOM     28  N   UNL     1      17.714  32.592   8.348  1.00  0.00    -0.343 N 
ATOM     29  C   UNL     1      16.705  32.693   9.279  1.00  0.00     0.087 A 
BRANCH  28  30
ATOM     30  C   UNL     1      18.218  31.336   7.793  1.00  0.00     0.157 C 
BRANCH  30  31
ATOM     31  C   UNL     1      17.158  30.399   7.209  1.00  0.00    -0.028 A 
ATOM     32  C   UNL     1      17.577  29.245   6.539  1.00  0.00     0.005 A 
ATOM     33  C   UNL     1      15.790  30.684   7.310  1.00  0.00     0.005 A 
ATOM     34  C   UNL     1      16.639  28.375   5.991  1.00  0.00     0.000 A 
ATOM     35  C   UNL     1      14.852  29.813   6.765  1.00  0.00     0.000 A 
ATOM     36  C   UNL     1      15.281  28.661   6.108  1.00  0.00     0.000 A 
ENDBRANCH  30  31
ENDBRANCH  28  30
ENDBRANCH  19  21
ENDBRANCH   4  19
TORSDOF 7
ENDMDL
MODEL 9
REMARK VINA RESULT:    -9.217      4.797     10.036
REMARK INTER + INTRA:         -13.963
REMARK INTER:                 -13.245
REMARK INTRA:                  -0.718
REMARK UNBOUND:                -0.974
REMARK SMILES CCC(=O)Nc1cc2c(Nc3ccc4c(ccn4Cc4ccccc4)c3)ncnc2cc1OC
REMARK SMILES IDX 6 1 7 2 8 3 9 4 27 5 28 6 29 7 30 8 31 9 32 10 5 11 3 12
REMARK SMILES IDX 4 13 2 15 1 16 33 17 34 18 10 19 11 21 26 22 12 23 15 24
REMARK SMILES IDX 13 25 14 26 16 27 18 28 17 29 19 30 20 31 25 32 21 33 24 34
REMARK SMILES IDX 22 35 23 36
REMARK H PARENT 5 14 10 20
ROOT
ATOM      1  C   UNL     1      18.702  34.207  15.849  1.00  0.00     0.084 A 
ATOM      2  C   UNL     1      17.766  34.163  14.807  1.00  0.00     0.044 A 
ATOM      3  C   UNL     1      18.057  33.474  13.601  1.00  0.00     0.045 A 
ATOM      4  C   UNL     1      17.176  33.374  12.477  1.00  0.00     0.141 A 
ATOM      5  N   UNL     1      17.524  32.688  11.358  1.00  0.00    -0.219 NA
ATOM      6  C   UNL     1      18.745  32.107  11.350  1.00  0.00     0.224 A 
ATOM      7  N   UNL     1      19.662  32.133  12.346  1.00  0.00    -0.236 NA
ATOM      8  C   UNL     1      19.317  32.816  13.475  1.00  0.00     0.080 A 
ATOM      9  C   UNL     1      20.237  32.861  14.546  1.00  0.00     0.077 A 
ATOM     10  C   UNL     1      19.934  33.546  15.732  1.00  0.00     0.144 A 
ENDROOT
BRANCH   1  11
ATOM     11  N   UNL     1      18.420  34.865  17.064  1.00  0.00    -0.323 N 
ATOM     12  C   UNL     1      18.769  36.118  17.425  1.00  0.00     0.224 C 
ATOM     13  O   UNL     1      19.423  36.890  16.721  1.00  0.00    -0.275 OA
ATOM     14  H   UNL     1      17.992  34.287  17.772  1.00  0.00     0.170 HD
BRANCH  12  15
ATOM     15  C   UNL     1      18.308  36.537  18.830  1.00  0.00     0.097 C 
ATOM     16  C   UNL     1      16.790  36.424  19.072  1.00  0.00     0.014 C 
ENDBRANCH  12  15
ENDBRANCH   1  11
BRANCH  10  17
ATOM     17  O   UNL     1      20.803  33.609  16.811  1.00  0.00    -0.494 OA
ATOM     18  C   UNL     1      21.992  34.387  16.717  1.00  0.00     0.278 C 
ENDBRANCH  10  17
BRANCH   4  19
ATOM     19  N   UNL     1      15.906  33.980  12.533  1.00  0.00    -0.340 N 
ATOM     20  H   UNL     1      15.321  33.584  13.254  1.00  0.00     0.168 HD
BRANCH  19  21
ATOM     21  C   UNL     1      15.256  35.001  11.812  1.00  0.00     0.040 A 
ATOM     22  C   UNL     1      14.147  35.583  12.431  1.00  0.00     0.036 A 
ATOM     23  C   UNL     1      15.667  35.456  10.554  1.00  0.00     0.028 A 
ATOM     24  C   UNL     1      13.438  36.602  11.778  1.00  0.00     0.002 A 
ATOM     25  C   UNL     1      14.999  36.471   9.870  1.00  0.00     0.029 A 
ATOM     26  C   UNL     1      13.881  37.037  10.494  1.00  0.00     0.048 A 
ATOM     27  C   UNL     1      12.282  37.377  12.107  1.00  0.00     0.028 A 
ATOM     28  N   UNL     1      13.017  38.042  10.081  1.00  0.00    -0.343 N 
ATOM     29  C   UNL     1      12.053  38.226  11.046  1.00  0.00     0.087 A 
BRANCH  28  30
ATOM     30  C   UNL     1      13.069  38.752   8.804  1.00  0.00     0.157 C 
BRANCH  30  31
ATOM     31  C   UNL     1      12.026  39.856   8.617  1.00  0.00    -0.028 A 
ATOM     32  C   UNL     1      10.672  39.506   8.609  1.00  0.00     0.005 A 
ATOM     33  C   UNL     1      12.397  41.194   8.432  1.00  0.00     0.005 A 
ATOM     34  C   UNL     1       9.697  40.485   8.435  1.00  0.00     0.000 A 
ATOM     35  C   UNL     1      11.423  42.173   8.261  1.00  0.00     0.000 A 
ATOM     36  C   UNL     1      10.077  41.814   8.264  1.00  0.00     0.000 A 
ENDBRANCH  30  31
ENDBRANCH  28  30
ENDBRANCH  19  21
ENDBRANCH   4  19
TORSDOF 7
ENDMDL
