REMARK VINA RESULT:    -8.368      0.000      0.000
REMARK INTER + INTRA:         -11.370
REMARK INTER:                 -10.325
REMARK INTRA:                  -1.046
REMARK UNBOUND:                -1.046
REMARK SMILES N#CCCN[C@H]1CC[C@H](n2nnc3cnc4[nH]ccc4c32)CC1
REMARK SMILES IDX 6 1 23 2 22 3 9 4 8 5 7 6 5 7 4 9 3 10 1 11 2 12 10 13 11 14
REMARK SMILES IDX 21 15 12 16 20 17 13 18 19 19 16 20 14 21 18 22 15 23 17 24
REMARK H PARENT 5 8 17 25
ROOT
ATOM      1  C   UNL     1       6.028 -21.493  21.193  1.00  0.00     0.053 C 
ATOM      2  C   UNL     1       5.560 -21.684  22.645  1.00  0.00     0.021 C 
ATOM      3  C   UNL     1       5.994 -23.042  23.201  1.00  0.00     0.029 C 
ATOM      4  C   UNL     1       5.480 -24.195  22.320  1.00  0.00     0.110 C 
ATOM      5  C   UNL     1       5.934 -24.010  20.867  1.00  0.00     0.029 C 
ATOM      6  C   UNL     1       5.521 -22.646  20.312  1.00  0.00     0.021 C 
ENDROOT
BRANCH   1   7
ATOM      7  N   UNL     1       5.545 -20.187  20.734  1.00  0.00    -0.313 NA
ATOM      8  H   UNL     1       5.297 -19.600  21.531  1.00  0.00     0.123 HD
BRANCH   7   9
ATOM      9  C   UNL     1       4.431 -20.276  19.787  1.00  0.00     0.096 C 
BRANCH   9  10
ATOM     10  C   UNL     1       3.201 -19.506  20.277  1.00  0.00     0.135 C 
ATOM     11  N   UNL     1       3.568 -18.374  22.621  1.00  0.00    -0.198 NA
ATOM     12  C   UNL     1       3.419 -18.891  21.593  1.00  0.00     0.063 C 
ENDBRANCH   9  10
ENDBRANCH   7   9
ENDBRANCH   1   7
BRANCH   4  13
ATOM     13  N   UNL     1       5.852 -25.511  22.815  1.00  0.00    -0.241 N 
ATOM     14  N   UNL     1       7.013 -25.659  23.504  1.00  0.00    -0.066 NA
ATOM     15  C   UNL     1       5.241 -26.701  22.700  1.00  0.00     0.102 A 
ATOM     16  N   UNL     1       7.117 -26.935  23.873  1.00  0.00    -0.129 NA
ATOM     17  C   UNL     1       4.105 -27.121  22.086  1.00  0.00     0.046 A 
ATOM     18  C   UNL     1       6.030 -27.603  23.383  1.00  0.00     0.132 A 
ATOM     19  C   UNL     1       3.151 -26.435  21.302  1.00  0.00     0.032 A 
ATOM     20  C   UNL     1       3.766 -28.450  22.187  1.00  0.00     0.139 A 
ATOM     21  C   UNL     1       5.618 -28.944  23.445  1.00  0.00     0.146 A 
ATOM     22  C   UNL     1       2.219 -27.398  20.948  1.00  0.00     0.085 A 
ATOM     23  N   UNL     1       4.467 -29.391  22.846  1.00  0.00    -0.236 NA
ATOM     24  N   UNL     1       2.601 -28.610  21.491  1.00  0.00    -0.346 N 
ATOM     25  H   UNL     1       2.116 -29.491  21.397  1.00  0.00     0.167 HD
ENDBRANCH   4  13
TORSDOF 4
