REMARK VINA RESULT:    -7.139      2.102      3.068
REMARK INTER + INTRA:          -9.854
REMARK INTER:                  -9.131
REMARK INTRA:                  -0.724
REMARK UNBOUND:                -1.046
REMARK SMILES N#CCCN[C@H]1CC[C@H](n2nnc3cnc4[nH]ccc4c32)CC1
REMARK SMILES IDX 6 1 23 2 22 3 9 4 8 5 7 6 5 7 4 9 3 10 1 11 2 12 10 13 11 14
REMARK SMILES IDX 21 15 12 16 20 17 13 18 19 19 16 20 14 21 18 22 15 23 17 24
REMARK H PARENT 5 8 17 25
ROOT
ATOM      1  C   UNL     1       5.750 -21.450  21.143  1.00  0.00     0.053 C 
ATOM      2  C   UNL     1       5.019 -22.651  21.765  1.00  0.00     0.021 C 
ATOM      3  C   UNL     1       5.888 -23.360  22.804  1.00  0.00     0.029 C 
ATOM      4  C   UNL     1       7.229 -23.810  22.197  1.00  0.00     0.110 C 
ATOM      5  C   UNL     1       7.963 -22.621  21.566  1.00  0.00     0.029 C 
ATOM      6  C   UNL     1       7.092 -21.895  20.540  1.00  0.00     0.021 C 
ENDROOT
BRANCH   1   7
ATOM      7  N   UNL     1       4.860 -20.853  20.142  1.00  0.00    -0.313 NA
ATOM      8  H   UNL     1       5.384 -20.229  19.527  1.00  0.00     0.123 HD
BRANCH   7   9
ATOM      9  C   UNL     1       3.706 -20.162  20.723  1.00  0.00     0.096 C 
BRANCH   9  10
ATOM     10  C   UNL     1       3.619 -18.704  20.260  1.00  0.00     0.135 C 
ATOM     11  N   UNL     1       4.450 -18.364  17.789  1.00  0.00    -0.198 NA
ATOM     12  C   UNL     1       4.099 -18.531  18.883  1.00  0.00     0.063 C 
ENDBRANCH   9  10
ENDBRANCH   7   9
ENDBRANCH   1   7
BRANCH   4  13
ATOM     13  N   UNL     1       8.088 -24.506  23.142  1.00  0.00    -0.241 N 
ATOM     14  N   UNL     1       9.230 -23.908  23.570  1.00  0.00    -0.066 NA
ATOM     15  C   UNL     1       7.979 -25.721  23.701  1.00  0.00     0.102 A 
ATOM     16  N   UNL     1       9.823 -24.721  24.442  1.00  0.00    -0.129 NA
ATOM     17  C   UNL     1       7.082 -26.733  23.588  1.00  0.00     0.046 A 
ATOM     18  C   UNL     1       9.068 -25.855  24.538  1.00  0.00     0.132 A 
ATOM     19  C   UNL     1       5.922 -26.878  22.793  1.00  0.00     0.032 A 
ATOM     20  C   UNL     1       7.282 -27.867  24.342  1.00  0.00     0.139 A 
ATOM     21  C   UNL     1       9.205 -27.041  25.279  1.00  0.00     0.146 A 
ATOM     22  C   UNL     1       5.426 -28.134  23.109  1.00  0.00     0.085 A 
ATOM     23  N   UNL     1       8.303 -28.072  25.194  1.00  0.00    -0.236 NA
ATOM     24  N   UNL     1       6.255 -28.719  24.047  1.00  0.00    -0.346 N 
ATOM     25  H   UNL     1       6.145 -29.634  24.460  1.00  0.00     0.167 HD
ENDBRANCH   4  13
TORSDOF 4
