REMARK SMILES Cc1cc(Oc2cccc(CNC(=O)c3ccc(C(F)(F)F)cc3C(F)(F)F)c2)ccc1OC(C)(C)C(=O)O
REMARK SMILES IDX 5 1 4 2 2 3 3 4 32 5 31 6 30 7 1 8 33 9 34 10 35 11 36 12
REMARK SMILES IDX 37 13 38 14 39 15 6 17 7 18 29 19 8 20 10 21 9 22 11 23
REMARK SMILES IDX 12 24 13 25 14 26 15 28 16 29 24 30 17 31 23 32 18 33 25 34
REMARK SMILES IDX 26 35 27 36 28 37 19 38 20 39 21 40 22 41
REMARK H PARENT 39 16 12 27
REMARK INDEX MAP 5 1 4 2 2 3 3 4 32 5 31 6 30 7 1 8 33 9 34 10 35 11 36 12
REMARK INDEX MAP 37 13 38 14 39 15 62 16 6 17 7 18 29 19 8 20 10 21 9 22 11 23
REMARK INDEX MAP 12 24 13 25 14 26 49 27 15 28 16 29 24 30 17 31 23 32 18 33
REMARK INDEX MAP 25 34 26 35 27 36 28 37 19 38 20 39 21 40 22 41
ROOT
ATOM      1  O   UNL     1      -7.406  -8.680 -22.629  1.00  0.00    -0.457 OA
ENDROOT
BRANCH   1   2
ATOM      2  C   UNL     1      -6.977  -7.653 -21.815  1.00  0.00     0.127 A 
ATOM      3  C   UNL     1      -5.250  -6.895 -20.275  1.00  0.00    -0.005 A 
ATOM      4  C   UNL     1      -5.793  -7.885 -21.108  1.00  0.00     0.054 A 
ATOM      5  C   UNL     1      -5.882  -5.645 -20.208  1.00  0.00     0.124 A 
ATOM      6  C   UNL     1      -7.078  -5.421 -20.892  1.00  0.00     0.050 A 
ATOM      7  C   UNL     1      -7.618  -6.418 -21.708  1.00  0.00     0.051 A 
ATOM      8  C   UNL     1      -3.989  -7.169 -19.507  1.00  0.00     0.048 C 
BRANCH   5   9
ATOM      9  O   UNL     1      -5.326  -4.690 -19.401  1.00  0.00    -0.476 OA
BRANCH   9  10
ATOM     10  C   UNL     1      -4.516  -3.679 -20.034  1.00  0.00     0.199 C 
ATOM     11  C   UNL     1      -3.147  -4.356 -20.220  1.00  0.00     0.069 C 
ATOM     12  C   UNL     1      -5.027  -3.255 -21.422  1.00  0.00     0.069 C 
BRANCH  10  13
ATOM     13  C   UNL     1      -4.267  -2.464 -19.122  1.00  0.00     0.347 C 
ATOM     14  O   UNL     1      -3.413  -1.602 -19.255  1.00  0.00    -0.248 OA
BRANCH  13  15
ATOM     15  O   UNL     1      -5.151  -2.360 -18.105  1.00  0.00    -0.478 OA
ATOM     16  H   UNL     1      -5.078  -1.612 -17.460  1.00  0.00     0.296 HD
ENDBRANCH  13  15
ENDBRANCH  10  13
ENDBRANCH   9  10
ENDBRANCH   5   9
ENDBRANCH   1   2
BRANCH   1  17
ATOM     17  C   UNL     1      -8.734  -8.687 -22.987  1.00  0.00     0.127 A 
ATOM     18  C   UNL     1      -9.615  -9.438 -22.211  1.00  0.00     0.047 A 
ATOM     19  C   UNL     1      -9.202  -7.908 -24.049  1.00  0.00     0.052 A 
ATOM     20  C   UNL     1     -10.973  -9.448 -22.526  1.00  0.00     0.004 A 
ATOM     21  C   UNL     1     -10.565  -7.913 -24.372  1.00  0.00    -0.025 A 
ATOM     22  C   UNL     1     -11.443  -8.695 -23.604  1.00  0.00     0.006 A 
BRANCH  21  23
ATOM     23  C   UNL     1     -11.100  -7.062 -25.496  1.00  0.00     0.152 C 
BRANCH  23  24
ATOM     24  N   UNL     1     -10.311  -7.269 -26.692  1.00  0.00    -0.348 N 
ATOM     25  C   UNL     1     -10.632  -8.232 -27.616  1.00  0.00     0.252 C 
ATOM     26  O   UNL     1     -11.536  -9.046 -27.502  1.00  0.00    -0.269 OA
ATOM     27  H   UNL     1      -9.485  -6.676 -26.854  1.00  0.00     0.164 HD
BRANCH  25  28
ATOM     28  C   UNL     1      -9.811  -8.222 -28.850  1.00  0.00     0.052 A 
ATOM     29  C   UNL     1     -10.412  -7.837 -30.059  1.00  0.00     0.015 A 
ATOM     30  C   UNL     1      -8.452  -8.567 -28.805  1.00  0.00     0.069 A 
ATOM     31  C   UNL     1      -9.662  -7.798 -31.237  1.00  0.00     0.014 A 
ATOM     32  C   UNL     1      -7.709  -8.512 -30.003  1.00  0.00     0.027 A 
ATOM     33  C   UNL     1      -8.301  -8.130 -31.221  1.00  0.00     0.056 A 
BRANCH  30  34
ATOM     34  C   UNL     1      -7.779  -8.994 -27.521  1.00  0.00     0.417 C 
ATOM     35  F   UNL     1      -6.595  -9.638 -27.757  1.00  0.00    -0.166 F 
ATOM     36  F   UNL     1      -8.508  -9.879 -26.787  1.00  0.00    -0.166 F 
ATOM     37  F   UNL     1      -7.461  -7.956 -26.707  1.00  0.00    -0.166 F 
ENDBRANCH  30  34
BRANCH  33  38
ATOM     38  C   UNL     1      -7.492  -8.112 -32.499  1.00  0.00     0.416 C 
ATOM     39  F   UNL     1      -6.175  -8.397 -32.302  1.00  0.00    -0.166 F 
ATOM     40  F   UNL     1      -7.934  -9.006 -33.425  1.00  0.00    -0.166 F 
ATOM     41  F   UNL     1      -7.524  -6.894 -33.106  1.00  0.00    -0.166 F 
ENDBRANCH  33  38
ENDBRANCH  25  28
ENDBRANCH  23  24
ENDBRANCH  21  23
ENDBRANCH   1  17
TORSDOF 11
