REMARK VINA RESULT:    -6.906      3.969      6.549
REMARK INTER + INTRA:          -9.319
REMARK INTER:                  -8.573
REMARK INTRA:                  -0.746
REMARK UNBOUND:                -0.394
REMARK SMILES CCNC(=O)Nc1ccc(-c2nc(N3CCOC[C@@H]3CC)c3c(cnn3C)n2)cc1
REMARK SMILES IDX 11 1 12 2 13 3 22 4 23 5 24 6 25 7 26 8 27 9 28 10 10 11
REMARK SMILES IDX 7 12 8 13 30 14 9 15 29 16 6 17 3 18 4 19 5 20 2 23 1 24
REMARK SMILES IDX 14 25 15 26 19 27 16 28 18 29 17 30 20 31 21 32
REMARK H PARENT 3 21 6 22
ROOT
ATOM      1  C   UNL     1      48.556  -4.015 -44.181  1.00  0.00     0.162 A 
ATOM      2  N   UNL     1      47.831  -3.952 -45.323  1.00  0.00    -0.209 NA
ATOM      3  C   UNL     1      46.926  -4.915 -45.607  1.00  0.00     0.159 A 
ATOM      4  C   UNL     1      46.819  -5.952 -44.692  1.00  0.00     0.129 A 
ATOM      5  C   UNL     1      47.593  -5.949 -43.547  1.00  0.00     0.115 A 
ATOM      6  C   UNL     1      47.228  -7.117 -42.853  1.00  0.00     0.164 A 
ATOM      7  N   UNL     1      46.303  -7.830 -43.503  1.00  0.00    -0.179 NA
ATOM      8  N   UNL     1      46.096  -7.113 -44.632  1.00  0.00    -0.262 N 
ATOM      9  C   UNL     1      45.199  -7.635 -45.636  1.00  0.00     0.174 C 
ATOM     10  N   UNL     1      48.480  -4.981 -43.251  1.00  0.00    -0.224 NA
ENDROOT
BRANCH   1  11
ATOM     11  C   UNL     1      49.512  -2.912 -43.929  1.00  0.00     0.019 A 
ATOM     12  C   UNL     1      51.354  -0.782 -43.454  1.00  0.00     0.042 A 
ATOM     13  C   UNL     1      51.442  -1.979 -42.738  1.00  0.00     0.027 A 
ATOM     14  C   UNL     1      50.346  -0.650 -44.406  1.00  0.00     0.027 A 
ATOM     15  C   UNL     1      50.536  -3.023 -42.972  1.00  0.00     0.014 A 
ATOM     16  C   UNL     1      49.443  -1.698 -44.639  1.00  0.00     0.014 A 
BRANCH  12  17
ATOM     17  N   UNL     1      52.302   0.218 -43.160  1.00  0.00    -0.308 N 
ATOM     18  N   UNL     1      54.235   1.418 -43.088  1.00  0.00    -0.338 N 
ATOM     19  C   UNL     1      53.610   0.294 -43.591  1.00  0.00     0.319 C 
ATOM     20  O   UNL     1      54.189  -0.500 -44.320  1.00  0.00    -0.249 OA
ATOM     21  H   UNL     1      53.725   2.056 -42.498  1.00  0.00     0.165 HD
ATOM     22  H   UNL     1      51.989   0.968 -42.567  1.00  0.00     0.171 HD
BRANCH  18  23
ATOM     23  C   UNL     1      55.616   1.722 -43.396  1.00  0.00     0.114 C 
ATOM     24  C   UNL     1      56.513   1.529 -42.187  1.00  0.00     0.027 C 
ENDBRANCH  18  23
ENDBRANCH  12  17
ENDBRANCH   1  11
BRANCH   3  25
ATOM     25  N   UNL     1      46.158  -4.844 -46.760  1.00  0.00    -0.347 N 
ATOM     26  C   UNL     1      44.824  -4.244 -46.568  1.00  0.00     0.147 C 
ATOM     27  C   UNL     1      46.864  -4.417 -47.993  1.00  0.00     0.109 C 
ATOM     28  C   UNL     1      44.863  -2.726 -46.797  1.00  0.00     0.181 C 
ATOM     29  C   UNL     1      46.767  -2.882 -48.170  1.00  0.00     0.185 C 
ATOM     30  O   UNL     1      45.411  -2.408 -48.086  1.00  0.00    -0.377 OA
BRANCH  27  31
ATOM     31  C   UNL     1      46.257  -5.189 -49.186  1.00  0.00     0.024 C 
ATOM     32  C   UNL     1      46.653  -4.615 -50.538  1.00  0.00     0.006 C 
ENDBRANCH  27  31
ENDBRANCH   3  25
TORSDOF 5
