MODEL 1
REMARK VINA RESULT:   -12.063      0.000      0.000
REMARK INTER + INTRA:         -17.451
REMARK INTER:                 -17.000
REMARK INTRA:                  -0.451
REMARK UNBOUND:                -0.451
REMARK SMILES CC(C)c1ccc(NC(=O)Oc2ccc3c(c2)[C@]2(C)CCN(CCc4ccccc4)[C@@H]2N3C)cc1
REMARK SMILES IDX 11 1 9 2 8 3 10 4 7 6 4 7 5 8 35 9 6 10 34 11 2 12 1 13 3 14
REMARK SMILES IDX 12 15 13 16 17 17 14 18 16 19 15 20 18 21 32 22 20 23 31 24
REMARK SMILES IDX 21 25 22 26 19 27 33 28 23 29 24 30 25 31 26 32 30 33 27 34
REMARK SMILES IDX 29 35 28 36
REMARK H PARENT 8 5
ROOT
ATOM      1  O   UNL     1     -15.766 -43.296  25.206  1.00  0.00    -0.410 OA
ENDROOT
BRANCH   1   2
ATOM      2  C   UNL     1     -16.816 -42.767  25.950  1.00  0.00     0.417 C 
ATOM      3  N   UNL     1     -17.813 -42.416  25.076  1.00  0.00    -0.291 N 
ATOM      4  O   UNL     1     -16.821 -42.646  27.167  1.00  0.00    -0.224 OA
ATOM      5  H   UNL     1     -17.589 -42.599  24.108  1.00  0.00     0.173 HD
BRANCH   3   6
ATOM      6  C   UNL     1     -19.067 -41.848  25.360  1.00  0.00     0.044 A 
ATOM      7  C   UNL     1     -21.614 -40.684  25.763  1.00  0.00    -0.045 A 
ATOM      8  C   UNL     1     -20.843 -41.128  26.845  1.00  0.00     0.006 A 
ATOM      9  C   UNL     1     -21.091 -40.831  24.472  1.00  0.00     0.006 A 
ATOM     10  C   UNL     1     -19.582 -41.703  26.647  1.00  0.00     0.026 A 
ATOM     11  C   UNL     1     -19.831 -41.408  24.274  1.00  0.00     0.026 A 
BRANCH   7  12
ATOM     12  C   UNL     1     -22.979 -40.066  26.010  1.00  0.00     0.013 C 
ATOM     13  C   UNL     1     -24.102 -40.943  25.448  1.00  0.00     0.012 C 
ATOM     14  C   UNL     1     -23.206 -39.774  27.495  1.00  0.00     0.012 C 
ENDBRANCH   7  12
ENDBRANCH   3   6
ENDBRANCH   1   2
BRANCH   1  15
ATOM     15  C   UNL     1     -14.578 -43.453  25.927  1.00  0.00     0.133 A 
ATOM     16  C   UNL     1     -13.777 -42.330  26.152  1.00  0.00     0.049 A 
ATOM     17  C   UNL     1     -14.263 -44.697  26.469  1.00  0.00     0.053 A 
ATOM     18  C   UNL     1     -12.612 -42.453  26.915  1.00  0.00     0.030 A 
ATOM     19  C   UNL     1     -13.099 -44.793  27.222  1.00  0.00    -0.011 A 
ATOM     20  C   UNL     1     -12.272 -43.689  27.448  1.00  0.00     0.042 A 
ATOM     21  C   UNL     1     -12.513 -46.010  27.883  1.00  0.00     0.030 C 
ATOM     22  N   UNL     1     -11.169 -44.004  28.229  1.00  0.00    -0.358 N 
ATOM     23  C   UNL     1     -13.331 -46.463  29.100  1.00  0.00     0.031 C 
ATOM     24  C   UNL     1     -11.167 -45.451  28.491  1.00  0.00     0.163 C 
ATOM     25  C   UNL     1     -12.578 -45.899  30.294  1.00  0.00     0.087 C 
ATOM     26  N   UNL     1     -11.184 -46.006  29.860  1.00  0.00    -0.282 NA
ATOM     27  C   UNL     1     -12.278 -47.154  26.893  1.00  0.00     0.020 C 
ATOM     28  C   UNL     1      -9.941 -43.249  28.120  1.00  0.00     0.145 C 
BRANCH  26  29
ATOM     29  C   UNL     1     -10.239 -45.340  30.757  1.00  0.00     0.091 C 
BRANCH  29  30
ATOM     30  C   UNL     1     -10.889 -44.223  31.589  1.00  0.00     0.051 C 
BRANCH  30  31
ATOM     31  C   UNL     1      -9.889 -43.572  32.516  1.00  0.00    -0.047 A 
ATOM     32  C   UNL     1     -10.325 -42.821  33.616  1.00  0.00     0.004 A 
ATOM     33  C   UNL     1      -8.513 -43.737  32.306  1.00  0.00     0.004 A 
ATOM     34  C   UNL     1      -9.401 -42.240  34.486  1.00  0.00     0.000 A 
ATOM     35  C   UNL     1      -7.591 -43.154  33.177  1.00  0.00     0.000 A 
ATOM     36  C   UNL     1      -8.035 -42.405  34.266  1.00  0.00     0.000 A 
ENDBRANCH  30  31
ENDBRANCH  29  30
ENDBRANCH  26  29
ENDBRANCH   1  15
TORSDOF 7
ENDMDL
MODEL 2
REMARK VINA RESULT:   -11.803      1.352      1.767
REMARK INTER + INTRA:         -17.085
REMARK INTER:                 -16.378
REMARK INTRA:                  -0.706
REMARK UNBOUND:                -0.451
REMARK SMILES CC(C)c1ccc(NC(=O)Oc2ccc3c(c2)[C@]2(C)CCN(CCc4ccccc4)[C@@H]2N3C)cc1
REMARK SMILES IDX 11 1 9 2 8 3 10 4 7 6 4 7 5 8 35 9 6 10 34 11 2 12 1 13 3 14
REMARK SMILES IDX 12 15 13 16 17 17 14 18 16 19 15 20 18 21 32 22 20 23 31 24
REMARK SMILES IDX 21 25 22 26 19 27 33 28 23 29 24 30 25 31 26 32 30 33 27 34
REMARK SMILES IDX 29 35 28 36
REMARK H PARENT 8 5
ROOT
ATOM      1  O   UNL     1     -15.660 -43.922  23.978  1.00  0.00    -0.410 OA
ENDROOT
BRANCH   1   2
ATOM      2  C   UNL     1     -16.640 -42.935  23.915  1.00  0.00     0.417 C 
ATOM      3  N   UNL     1     -17.553 -43.189  24.907  1.00  0.00    -0.291 N 
ATOM      4  O   UNL     1     -16.659 -42.018  23.106  1.00  0.00    -0.224 OA
ATOM      5  H   UNL     1     -17.342 -44.010  25.455  1.00  0.00     0.173 HD
BRANCH   3   6
ATOM      6  C   UNL     1     -18.712 -42.464  25.236  1.00  0.00     0.044 A 
ATOM      7  C   UNL     1     -21.084 -41.004  25.732  1.00  0.00    -0.045 A 
ATOM      8  C   UNL     1     -20.232 -41.376  26.780  1.00  0.00     0.006 A 
ATOM      9  C   UNL     1     -20.732 -41.374  24.428  1.00  0.00     0.006 A 
ATOM     10  C   UNL     1     -19.058 -42.098  26.535  1.00  0.00     0.026 A 
ATOM     11  C   UNL     1     -19.558 -42.097  24.184  1.00  0.00     0.026 A 
BRANCH   7  12
ATOM     12  C   UNL     1     -22.352 -40.224  26.029  1.00  0.00     0.013 C 
ATOM     13  C   UNL     1     -23.314 -40.242  24.838  1.00  0.00     0.012 C 
ATOM     14  C   UNL     1     -23.044 -40.732  27.296  1.00  0.00     0.012 C 
ENDBRANCH   7  12
ENDBRANCH   3   6
ENDBRANCH   1   2
BRANCH   1  15
ATOM     15  C   UNL     1     -14.680 -43.693  24.948  1.00  0.00     0.133 A 
ATOM     16  C   UNL     1     -14.108 -42.419  25.035  1.00  0.00     0.049 A 
ATOM     17  C   UNL     1     -14.357 -44.702  25.851  1.00  0.00     0.053 A 
ATOM     18  C   UNL     1     -13.165 -42.152  26.031  1.00  0.00     0.030 A 
ATOM     19  C   UNL     1     -13.415 -44.413  26.830  1.00  0.00    -0.011 A 
ATOM     20  C   UNL     1     -12.816 -43.154  26.928  1.00  0.00     0.042 A 
ATOM     21  C   UNL     1     -12.865 -45.321  27.894  1.00  0.00     0.030 C 
ATOM     22  N   UNL     1     -11.912 -43.076  27.979  1.00  0.00    -0.358 N 
ATOM     23  C   UNL     1     -13.897 -45.631  28.987  1.00  0.00     0.031 C 
ATOM     24  C   UNL     1     -11.794 -44.402  28.604  1.00  0.00     0.163 C 
ATOM     25  C   UNL     1     -13.543 -44.684  30.122  1.00  0.00     0.087 C 
ATOM     26  N   UNL     1     -12.083 -44.629  30.035  1.00  0.00    -0.282 NA
ATOM     27  C   UNL     1     -12.249 -46.594  27.311  1.00  0.00     0.020 C 
ATOM     28  C   UNL     1     -10.801 -42.153  27.937  1.00  0.00     0.145 C 
BRANCH  26  29
ATOM     29  C   UNL     1     -11.483 -43.617  30.906  1.00  0.00     0.091 C 
BRANCH  29  30
ATOM     30  C   UNL     1     -10.922 -44.205  32.211  1.00  0.00     0.051 C 
BRANCH  30  31
ATOM     31  C   UNL     1      -9.487 -44.647  32.045  1.00  0.00    -0.047 A 
ATOM     32  C   UNL     1      -8.438 -43.838  32.504  1.00  0.00     0.004 A 
ATOM     33  C   UNL     1      -9.187 -45.885  31.459  1.00  0.00     0.004 A 
ATOM     34  C   UNL     1      -7.113 -44.258  32.372  1.00  0.00     0.000 A 
ATOM     35  C   UNL     1      -7.861 -46.301  31.327  1.00  0.00     0.000 A 
ATOM     36  C   UNL     1      -6.824 -45.488  31.783  1.00  0.00     0.000 A 
ENDBRANCH  30  31
ENDBRANCH  29  30
ENDBRANCH  26  29
ENDBRANCH   1  15
TORSDOF 7
ENDMDL
MODEL 3
REMARK VINA RESULT:   -11.769      1.547      2.187
REMARK INTER + INTRA:         -17.036
REMARK INTER:                 -16.491
REMARK INTRA:                  -0.545
REMARK UNBOUND:                -0.451
REMARK SMILES CC(C)c1ccc(NC(=O)Oc2ccc3c(c2)[C@]2(C)CCN(CCc4ccccc4)[C@@H]2N3C)cc1
REMARK SMILES IDX 11 1 9 2 8 3 10 4 7 6 4 7 5 8 35 9 6 10 34 11 2 12 1 13 3 14
REMARK SMILES IDX 12 15 13 16 17 17 14 18 16 19 15 20 18 21 32 22 20 23 31 24
REMARK SMILES IDX 21 25 22 26 19 27 33 28 23 29 24 30 25 31 26 32 30 33 27 34
REMARK SMILES IDX 29 35 28 36
REMARK H PARENT 8 5
ROOT
ATOM      1  O   UNL     1     -15.790 -43.978  24.749  1.00  0.00    -0.410 OA
ENDROOT
BRANCH   1   2
ATOM      2  C   UNL     1     -16.736 -42.973  24.928  1.00  0.00     0.417 C 
ATOM      3  N   UNL     1     -17.363 -42.770  23.726  1.00  0.00    -0.291 N 
ATOM      4  O   UNL     1     -16.946 -42.388  25.982  1.00  0.00    -0.224 OA
ATOM      5  H   UNL     1     -17.022 -43.362  22.983  1.00  0.00     0.173 HD
BRANCH   3   6
ATOM      6  C   UNL     1     -18.391 -41.862  23.417  1.00  0.00     0.044 A 
ATOM      7  C   UNL     1     -20.370 -39.986  22.657  1.00  0.00    -0.045 A 
ATOM      8  C   UNL     1     -20.530 -40.785  23.797  1.00  0.00     0.006 A 
ATOM      9  C   UNL     1     -19.201 -40.140  21.900  1.00  0.00     0.006 A 
ATOM     10  C   UNL     1     -19.552 -41.713  24.174  1.00  0.00     0.026 A 
ATOM     11  C   UNL     1     -18.223 -41.068  22.277  1.00  0.00     0.026 A 
BRANCH   7  12
ATOM     12  C   UNL     1     -21.449 -38.991  22.272  1.00  0.00     0.013 C 
ATOM     13  C   UNL     1     -21.387 -38.644  20.782  1.00  0.00     0.012 C 
ATOM     14  C   UNL     1     -22.843 -39.494  22.657  1.00  0.00     0.012 C 
ENDBRANCH   7  12
ENDBRANCH   3   6
ENDBRANCH   1   2
BRANCH   1  15
ATOM     15  C   UNL     1     -14.655 -43.844  25.554  1.00  0.00     0.133 A 
ATOM     16  C   UNL     1     -14.066 -42.582  25.676  1.00  0.00     0.049 A 
ATOM     17  C   UNL     1     -14.189 -44.942  26.273  1.00  0.00     0.053 A 
ATOM     18  C   UNL     1     -12.961 -42.413  26.517  1.00  0.00     0.030 A 
ATOM     19  C   UNL     1     -13.089 -44.749  27.099  1.00  0.00    -0.011 A 
ATOM     20  C   UNL     1     -12.471 -43.501  27.227  1.00  0.00     0.042 A 
ATOM     21  C   UNL     1     -12.370 -45.760  27.948  1.00  0.00     0.030 C 
ATOM     22  N   UNL     1     -11.398 -43.528  28.107  1.00  0.00    -0.358 N 
ATOM     23  C   UNL     1     -13.200 -46.196  29.164  1.00  0.00     0.031 C 
ATOM     24  C   UNL     1     -11.185 -44.912  28.556  1.00  0.00     0.163 C 
ATOM     25  C   UNL     1     -12.646 -45.373  30.316  1.00  0.00     0.087 C 
ATOM     26  N   UNL     1     -11.223 -45.294  29.983  1.00  0.00    -0.282 NA
ATOM     27  C   UNL     1     -11.876 -46.957  27.134  1.00  0.00     0.020 C 
ATOM     28  C   UNL     1     -10.303 -42.594  27.973  1.00  0.00     0.145 C 
BRANCH  26  29
ATOM     29  C   UNL     1     -10.473 -44.375  30.840  1.00  0.00     0.091 C 
BRANCH  29  30
ATOM     30  C   UNL     1     -11.375 -43.566  31.786  1.00  0.00     0.051 C 
BRANCH  30  31
ATOM     31  C   UNL     1     -10.590 -42.993  32.943  1.00  0.00    -0.047 A 
ATOM     32  C   UNL     1      -9.201 -43.169  33.015  1.00  0.00     0.004 A 
ATOM     33  C   UNL     1     -11.236 -42.252  33.943  1.00  0.00     0.004 A 
ATOM     34  C   UNL     1      -8.474 -42.620  34.071  1.00  0.00     0.000 A 
ATOM     35  C   UNL     1     -10.505 -41.705  34.999  1.00  0.00     0.000 A 
ATOM     36  C   UNL     1      -9.125 -41.889  35.064  1.00  0.00     0.000 A 
ENDBRANCH  30  31
ENDBRANCH  29  30
ENDBRANCH  26  29
ENDBRANCH   1  15
TORSDOF 7
ENDMDL
MODEL 4
REMARK VINA RESULT:   -11.703      3.894      6.180
REMARK INTER + INTRA:         -16.943
REMARK INTER:                 -16.216
REMARK INTRA:                  -0.728
REMARK UNBOUND:                -0.451
REMARK SMILES CC(C)c1ccc(NC(=O)Oc2ccc3c(c2)[C@]2(C)CCN(CCc4ccccc4)[C@@H]2N3C)cc1
REMARK SMILES IDX 11 1 9 2 8 3 10 4 7 6 4 7 5 8 35 9 6 10 34 11 2 12 1 13 3 14
REMARK SMILES IDX 12 15 13 16 17 17 14 18 16 19 15 20 18 21 32 22 20 23 31 24
REMARK SMILES IDX 21 25 22 26 19 27 33 28 23 29 24 30 25 31 26 32 30 33 27 34
REMARK SMILES IDX 29 35 28 36
REMARK H PARENT 8 5
ROOT
ATOM      1  O   UNL     1     -19.789 -42.117  22.294  1.00  0.00    -0.410 OA
ENDROOT
BRANCH   1   2
ATOM      2  C   UNL     1     -19.923 -40.803  21.856  1.00  0.00     0.417 C 
ATOM      3  N   UNL     1     -21.118 -40.704  21.189  1.00  0.00    -0.291 N 
ATOM      4  O   UNL     1     -19.103 -39.915  22.043  1.00  0.00    -0.224 OA
ATOM      5  H   UNL     1     -21.634 -41.571  21.147  1.00  0.00     0.173 HD
BRANCH   3   6
ATOM      6  C   UNL     1     -21.687 -39.575  20.576  1.00  0.00     0.044 A 
ATOM      7  C   UNL     1     -22.943 -37.291  19.473  1.00  0.00    -0.045 A 
ATOM      8  C   UNL     1     -21.860 -37.903  18.828  1.00  0.00     0.006 A 
ATOM      9  C   UNL     1     -23.391 -37.840  20.681  1.00  0.00     0.006 A 
ATOM     10  C   UNL     1     -21.238 -39.033  19.373  1.00  0.00     0.026 A 
ATOM     11  C   UNL     1     -22.768 -38.970  21.226  1.00  0.00     0.026 A 
BRANCH   7  12
ATOM     12  C   UNL     1     -23.595 -36.065  18.859  1.00  0.00     0.013 C 
ATOM     13  C   UNL     1     -23.807 -36.237  17.352  1.00  0.00     0.012 C 
ATOM     14  C   UNL     1     -24.911 -35.716  19.559  1.00  0.00     0.012 C 
ENDBRANCH   7  12
ENDBRANCH   3   6
ENDBRANCH   1   2
BRANCH   1  15
ATOM     15  C   UNL     1     -18.962 -42.265  23.410  1.00  0.00     0.133 A 
ATOM     16  C   UNL     1     -19.553 -42.405  24.670  1.00  0.00     0.049 A 
ATOM     17  C   UNL     1     -17.583 -42.352  23.237  1.00  0.00     0.053 A 
ATOM     18  C   UNL     1     -18.747 -42.606  25.794  1.00  0.00     0.030 A 
ATOM     19  C   UNL     1     -16.803 -42.551  24.370  1.00  0.00    -0.011 A 
ATOM     20  C   UNL     1     -17.369 -42.677  25.642  1.00  0.00     0.042 A 
ATOM     21  C   UNL     1     -15.306 -42.645  24.468  1.00  0.00     0.030 C 
ATOM     22  N   UNL     1     -16.414 -42.877  26.630  1.00  0.00    -0.358 N 
ATOM     23  C   UNL     1     -14.763 -43.951  23.872  1.00  0.00     0.031 C 
ATOM     24  C   UNL     1     -15.076 -42.789  26.024  1.00  0.00     0.163 C 
ATOM     25  C   UNL     1     -14.535 -44.851  25.076  1.00  0.00     0.087 C 
ATOM     26  N   UNL     1     -14.102 -43.897  26.098  1.00  0.00    -0.282 NA
ATOM     27  C   UNL     1     -14.607 -41.415  23.885  1.00  0.00     0.020 C 
ATOM     28  C   UNL     1     -16.659 -42.469  27.995  1.00  0.00     0.145 C 
BRANCH  26  29
ATOM     29  C   UNL     1     -14.001 -44.479  27.437  1.00  0.00     0.091 C 
BRANCH  29  30
ATOM     30  C   UNL     1     -13.290 -45.843  27.445  1.00  0.00     0.051 C 
BRANCH  30  31
ATOM     31  C   UNL     1     -12.356 -45.971  28.626  1.00  0.00    -0.047 A 
ATOM     32  C   UNL     1     -12.858 -45.947  29.934  1.00  0.00     0.004 A 
ATOM     33  C   UNL     1     -10.979 -46.148  28.427  1.00  0.00     0.004 A 
ATOM     34  C   UNL     1     -11.997 -46.090  31.023  1.00  0.00     0.000 A 
ATOM     35  C   UNL     1     -10.121 -46.289  29.518  1.00  0.00     0.000 A 
ATOM     36  C   UNL     1     -10.629 -46.260  30.816  1.00  0.00     0.000 A 
ENDBRANCH  30  31
ENDBRANCH  29  30
ENDBRANCH  26  29
ENDBRANCH   1  15
TORSDOF 7
ENDMDL
MODEL 5
REMARK VINA RESULT:   -11.605      2.884     11.606
REMARK INTER + INTRA:         -16.805
REMARK INTER:                 -15.539
REMARK INTRA:                  -1.266
REMARK UNBOUND:                -0.451
REMARK SMILES CC(C)c1ccc(NC(=O)Oc2ccc3c(c2)[C@]2(C)CCN(CCc4ccccc4)[C@@H]2N3C)cc1
REMARK SMILES IDX 11 1 9 2 8 3 10 4 7 6 4 7 5 8 35 9 6 10 34 11 2 12 1 13 3 14
REMARK SMILES IDX 12 15 13 16 17 17 14 18 16 19 15 20 18 21 32 22 20 23 31 24
REMARK SMILES IDX 21 25 22 26 19 27 33 28 23 29 24 30 25 31 26 32 30 33 27 34
REMARK SMILES IDX 29 35 28 36
REMARK H PARENT 8 5
ROOT
ATOM      1  O   UNL     1     -15.124 -43.087  23.841  1.00  0.00    -0.410 OA
ENDROOT
BRANCH   1   2
ATOM      2  C   UNL     1     -14.575 -43.073  25.120  1.00  0.00     0.417 C 
ATOM      3  N   UNL     1     -14.484 -44.372  25.551  1.00  0.00    -0.291 N 
ATOM      4  O   UNL     1     -14.245 -42.064  25.729  1.00  0.00    -0.224 OA
ATOM      5  H   UNL     1     -14.825 -45.047  24.883  1.00  0.00     0.173 HD
BRANCH   3   6
ATOM      6  C   UNL     1     -13.988 -44.855  26.774  1.00  0.00     0.044 A 
ATOM      7  C   UNL     1     -13.099 -45.722  29.317  1.00  0.00    -0.045 A 
ATOM      8  C   UNL     1     -12.570 -46.271  28.141  1.00  0.00     0.006 A 
ATOM      9  C   UNL     1     -14.082 -44.731  29.203  1.00  0.00     0.006 A 
ATOM     10  C   UNL     1     -13.010 -45.842  26.882  1.00  0.00     0.026 A 
ATOM     11  C   UNL     1     -14.521 -44.303  27.944  1.00  0.00     0.026 A 
BRANCH   7  12
ATOM     12  C   UNL     1     -12.605 -46.209  30.667  1.00  0.00     0.013 C 
ATOM     13  C   UNL     1     -11.077 -46.149  30.761  1.00  0.00     0.012 C 
ATOM     14  C   UNL     1     -13.253 -45.436  31.818  1.00  0.00     0.012 C 
ENDBRANCH   7  12
ENDBRANCH   3   6
ENDBRANCH   1   2
BRANCH   1  15
ATOM     15  C   UNL     1     -16.399 -42.520  23.761  1.00  0.00     0.133 A 
ATOM     16  C   UNL     1     -16.729 -41.771  22.627  1.00  0.00     0.049 A 
ATOM     17  C   UNL     1     -17.331 -42.780  24.762  1.00  0.00     0.053 A 
ATOM     18  C   UNL     1     -18.015 -41.239  22.501  1.00  0.00     0.030 A 
ATOM     19  C   UNL     1     -18.601 -42.238  24.615  1.00  0.00    -0.011 A 
ATOM     20  C   UNL     1     -18.952 -41.471  23.500  1.00  0.00     0.042 A 
ATOM     21  C   UNL     1     -19.772 -42.332  25.554  1.00  0.00     0.030 C 
ATOM     22  N   UNL     1     -20.269 -41.035  23.548  1.00  0.00    -0.358 N 
ATOM     23  C   UNL     1     -20.382 -43.740  25.586  1.00  0.00     0.031 C 
ATOM     24  C   UNL     1     -20.858 -41.441  24.833  1.00  0.00     0.163 C 
ATOM     25  C   UNL     1     -21.590 -43.650  24.668  1.00  0.00     0.087 C 
ATOM     26  N   UNL     1     -22.066 -42.288  24.915  1.00  0.00    -0.282 NA
ATOM     27  C   UNL     1     -19.434 -41.823  26.957  1.00  0.00     0.020 C 
ATOM     28  C   UNL     1     -20.676 -39.823  22.873  1.00  0.00     0.145 C 
BRANCH  26  29
ATOM     29  C   UNL     1     -23.124 -41.863  23.998  1.00  0.00     0.091 C 
BRANCH  29  30
ATOM     30  C   UNL     1     -23.330 -42.838  22.828  1.00  0.00     0.051 C 
BRANCH  30  31
ATOM     31  C   UNL     1     -22.895 -42.227  21.516  1.00  0.00    -0.047 A 
ATOM     32  C   UNL     1     -23.591 -41.138  20.975  1.00  0.00     0.004 A 
ATOM     33  C   UNL     1     -21.770 -42.722  20.840  1.00  0.00     0.004 A 
ATOM     34  C   UNL     1     -23.173 -40.559  19.775  1.00  0.00     0.000 A 
ATOM     35  C   UNL     1     -21.356 -42.142  19.640  1.00  0.00     0.000 A 
ATOM     36  C   UNL     1     -22.057 -41.061  19.108  1.00  0.00     0.000 A 
ENDBRANCH  30  31
ENDBRANCH  29  30
ENDBRANCH  26  29
ENDBRANCH   1  15
TORSDOF 7
ENDMDL
MODEL 6
REMARK VINA RESULT:   -11.514      2.771     11.095
REMARK INTER + INTRA:         -16.678
REMARK INTER:                 -15.888
REMARK INTRA:                  -0.790
REMARK UNBOUND:                -0.451
REMARK SMILES CC(C)c1ccc(NC(=O)Oc2ccc3c(c2)[C@]2(C)CCN(CCc4ccccc4)[C@@H]2N3C)cc1
REMARK SMILES IDX 11 1 9 2 8 3 10 4 7 6 4 7 5 8 35 9 6 10 34 11 2 12 1 13 3 14
REMARK SMILES IDX 12 15 13 16 17 17 14 18 16 19 15 20 18 21 32 22 20 23 31 24
REMARK SMILES IDX 21 25 22 26 19 27 33 28 23 29 24 30 25 31 26 32 30 33 27 34
REMARK SMILES IDX 29 35 28 36
REMARK H PARENT 8 5
ROOT
ATOM      1  O   UNL     1     -15.115 -43.074  23.847  1.00  0.00    -0.410 OA
ENDROOT
BRANCH   1   2
ATOM      2  C   UNL     1     -14.579 -43.060  25.132  1.00  0.00     0.417 C 
ATOM      3  N   UNL     1     -14.494 -44.358  25.564  1.00  0.00    -0.291 N 
ATOM      4  O   UNL     1     -14.253 -42.051  25.743  1.00  0.00    -0.224 OA
ATOM      5  H   UNL     1     -14.830 -45.034  24.894  1.00  0.00     0.173 HD
BRANCH   3   6
ATOM      6  C   UNL     1     -14.011 -44.842  26.793  1.00  0.00     0.044 A 
ATOM      7  C   UNL     1     -13.147 -45.708  29.345  1.00  0.00    -0.045 A 
ATOM      8  C   UNL     1     -12.611 -46.261  28.174  1.00  0.00     0.006 A 
ATOM      9  C   UNL     1     -14.125 -44.712  29.220  1.00  0.00     0.006 A 
ATOM     10  C   UNL     1     -13.038 -45.832  26.911  1.00  0.00     0.026 A 
ATOM     11  C   UNL     1     -14.552 -44.285  27.957  1.00  0.00     0.026 A 
BRANCH   7  12
ATOM     12  C   UNL     1     -12.667 -46.194  30.700  1.00  0.00     0.013 C 
ATOM     13  C   UNL     1     -11.139 -46.164  30.799  1.00  0.00     0.012 C 
ATOM     14  C   UNL     1     -13.303 -45.399  31.843  1.00  0.00     0.012 C 
ENDBRANCH   7  12
ENDBRANCH   3   6
ENDBRANCH   1   2
BRANCH   1  15
ATOM     15  C   UNL     1     -16.388 -42.504  23.754  1.00  0.00     0.133 A 
ATOM     16  C   UNL     1     -16.716 -41.782  22.601  1.00  0.00     0.049 A 
ATOM     17  C   UNL     1     -17.319 -42.732  24.763  1.00  0.00     0.053 A 
ATOM     18  C   UNL     1     -18.000 -41.248  22.463  1.00  0.00     0.030 A 
ATOM     19  C   UNL     1     -18.588 -42.188  24.603  1.00  0.00    -0.011 A 
ATOM     20  C   UNL     1     -18.936 -41.450  23.469  1.00  0.00     0.042 A 
ATOM     21  C   UNL     1     -19.757 -42.253  25.546  1.00  0.00     0.030 C 
ATOM     22  N   UNL     1     -20.251 -41.006  23.507  1.00  0.00    -0.358 N 
ATOM     23  C   UNL     1     -20.374 -43.657  25.615  1.00  0.00     0.031 C 
ATOM     24  C   UNL     1     -20.840 -41.376  24.803  1.00  0.00     0.163 C 
ATOM     25  C   UNL     1     -21.583 -43.584  24.696  1.00  0.00     0.087 C 
ATOM     26  N   UNL     1     -22.052 -42.215  24.908  1.00  0.00    -0.282 NA
ATOM     27  C   UNL     1     -19.415 -41.709  26.934  1.00  0.00     0.020 C 
ATOM     28  C   UNL     1     -20.653 -39.810  22.801  1.00  0.00     0.145 C 
BRANCH  26  29
ATOM     29  C   UNL     1     -23.109 -41.808  23.982  1.00  0.00     0.091 C 
BRANCH  29  30
ATOM     30  C   UNL     1     -24.445 -41.520  24.686  1.00  0.00     0.051 C 
BRANCH  30  31
ATOM     31  C   UNL     1     -24.290 -40.462  25.754  1.00  0.00    -0.047 A 
ATOM     32  C   UNL     1     -24.335 -39.102  25.417  1.00  0.00     0.004 A 
ATOM     33  C   UNL     1     -24.129 -40.826  27.098  1.00  0.00     0.004 A 
ATOM     34  C   UNL     1     -24.215 -38.125  26.406  1.00  0.00     0.000 A 
ATOM     35  C   UNL     1     -24.008 -39.847  28.085  1.00  0.00     0.000 A 
ATOM     36  C   UNL     1     -24.051 -38.496  27.740  1.00  0.00     0.000 A 
ENDBRANCH  30  31
ENDBRANCH  29  30
ENDBRANCH  26  29
ENDBRANCH   1  15
TORSDOF 7
ENDMDL
MODEL 7
REMARK VINA RESULT:   -10.889      3.076     11.547
REMARK INTER + INTRA:         -15.796
REMARK INTER:                 -15.248
REMARK INTRA:                  -0.548
REMARK UNBOUND:                -0.451
REMARK SMILES CC(C)c1ccc(NC(=O)Oc2ccc3c(c2)[C@]2(C)CCN(CCc4ccccc4)[C@@H]2N3C)cc1
REMARK SMILES IDX 11 1 9 2 8 3 10 4 7 6 4 7 5 8 35 9 6 10 34 11 2 12 1 13 3 14
REMARK SMILES IDX 12 15 13 16 17 17 14 18 16 19 15 20 18 21 32 22 20 23 31 24
REMARK SMILES IDX 21 25 22 26 19 27 33 28 23 29 24 30 25 31 26 32 30 33 27 34
REMARK SMILES IDX 29 35 28 36
REMARK H PARENT 8 5
ROOT
ATOM      1  O   UNL     1     -15.811 -42.199  23.516  1.00  0.00    -0.410 OA
ENDROOT
BRANCH   1   2
ATOM      2  C   UNL     1     -15.021 -43.189  24.094  1.00  0.00     0.417 C 
ATOM      3  N   UNL     1     -14.558 -42.707  25.292  1.00  0.00    -0.291 N 
ATOM      4  O   UNL     1     -14.795 -44.283  23.598  1.00  0.00    -0.224 OA
ATOM      5  H   UNL     1     -14.865 -41.768  25.500  1.00  0.00     0.173 HD
BRANCH   3   6
ATOM      6  C   UNL     1     -13.731 -43.346  26.232  1.00  0.00     0.044 A 
ATOM      7  C   UNL     1     -12.174 -44.766  28.122  1.00  0.00    -0.045 A 
ATOM      8  C   UNL     1     -11.779 -43.503  27.662  1.00  0.00     0.006 A 
ATOM      9  C   UNL     1     -13.364 -45.310  27.621  1.00  0.00     0.006 A 
ATOM     10  C   UNL     1     -12.548 -42.800  26.727  1.00  0.00     0.026 A 
ATOM     11  C   UNL     1     -14.132 -44.608  26.685  1.00  0.00     0.026 A 
BRANCH   7  12
ATOM     12  C   UNL     1     -11.318 -45.505  29.133  1.00  0.00     0.013 C 
ATOM     13  C   UNL     1     -12.169 -46.113  30.252  1.00  0.00     0.012 C 
ATOM     14  C   UNL     1     -10.452 -46.576  28.464  1.00  0.00     0.012 C 
ENDBRANCH   7  12
ENDBRANCH   3   6
ENDBRANCH   1   2
BRANCH   1  15
ATOM     15  C   UNL     1     -17.159 -42.261  23.876  1.00  0.00     0.133 A 
ATOM     16  C   UNL     1     -17.485 -42.507  25.214  1.00  0.00     0.049 A 
ATOM     17  C   UNL     1     -18.139 -41.998  22.922  1.00  0.00     0.053 A 
ATOM     18  C   UNL     1     -18.826 -42.522  25.608  1.00  0.00     0.030 A 
ATOM     19  C   UNL     1     -19.464 -42.021  23.338  1.00  0.00    -0.011 A 
ATOM     20  C   UNL     1     -19.817 -42.280  24.665  1.00  0.00     0.042 A 
ATOM     21  C   UNL     1     -20.705 -41.809  22.515  1.00  0.00     0.030 C 
ATOM     22  N   UNL     1     -21.191 -42.247  24.866  1.00  0.00    -0.358 N 
ATOM     23  C   UNL     1     -20.872 -40.347  22.078  1.00  0.00     0.031 C 
ATOM     24  C   UNL     1     -21.856 -42.046  23.570  1.00  0.00     0.163 C 
ATOM     25  C   UNL     1     -21.869 -39.768  23.069  1.00  0.00     0.087 C 
ATOM     26  N   UNL     1     -22.758 -40.904  23.314  1.00  0.00    -0.282 NA
ATOM     27  C   UNL     1     -20.789 -42.774  21.331  1.00  0.00     0.020 C 
ATOM     28  C   UNL     1     -21.806 -43.013  25.927  1.00  0.00     0.145 C 
BRANCH  26  29
ATOM     29  C   UNL     1     -23.711 -40.676  24.401  1.00  0.00     0.091 C 
BRANCH  29  30
ATOM     30  C   UNL     1     -24.029 -39.187  24.617  1.00  0.00     0.051 C 
BRANCH  30  31
ATOM     31  C   UNL     1     -24.111 -38.847  26.087  1.00  0.00    -0.047 A 
ATOM     32  C   UNL     1     -24.060 -39.861  27.054  1.00  0.00     0.004 A 
ATOM     33  C   UNL     1     -24.207 -37.512  26.505  1.00  0.00     0.004 A 
ATOM     34  C   UNL     1     -24.111 -39.545  28.413  1.00  0.00     0.000 A 
ATOM     35  C   UNL     1     -24.260 -37.199  27.864  1.00  0.00     0.000 A 
ATOM     36  C   UNL     1     -24.212 -38.215  28.818  1.00  0.00     0.000 A 
ENDBRANCH  30  31
ENDBRANCH  29  30
ENDBRANCH  26  29
ENDBRANCH   1  15
TORSDOF 7
ENDMDL
MODEL 8
REMARK VINA RESULT:   -10.605      2.828     12.027
REMARK INTER + INTRA:         -15.396
REMARK INTER:                 -14.648
REMARK INTRA:                  -0.748
REMARK UNBOUND:                -0.451
REMARK SMILES CC(C)c1ccc(NC(=O)Oc2ccc3c(c2)[C@]2(C)CCN(CCc4ccccc4)[C@@H]2N3C)cc1
REMARK SMILES IDX 11 1 9 2 8 3 10 4 7 6 4 7 5 8 35 9 6 10 34 11 2 12 1 13 3 14
REMARK SMILES IDX 12 15 13 16 17 17 14 18 16 19 15 20 18 21 32 22 20 23 31 24
REMARK SMILES IDX 21 25 22 26 19 27 33 28 23 29 24 30 25 31 26 32 30 33 27 34
REMARK SMILES IDX 29 35 28 36
REMARK H PARENT 8 5
ROOT
ATOM      1  O   UNL     1     -14.650 -44.309  25.459  1.00  0.00    -0.410 OA
ENDROOT
BRANCH   1   2
ATOM      2  C   UNL     1     -14.067 -43.718  26.576  1.00  0.00     0.417 C 
ATOM      3  N   UNL     1     -13.358 -44.687  27.240  1.00  0.00    -0.291 N 
ATOM      4  O   UNL     1     -14.185 -42.541  26.888  1.00  0.00    -0.224 OA
ATOM      5  H   UNL     1     -13.407 -45.597  26.805  1.00  0.00     0.173 HD
BRANCH   3   6
ATOM      6  C   UNL     1     -12.600 -44.565  28.417  1.00  0.00     0.044 A 
ATOM      7  C   UNL     1     -11.175 -44.438  30.859  1.00  0.00    -0.045 A 
ATOM      8  C   UNL     1     -10.799 -43.653  29.761  1.00  0.00     0.006 A 
ATOM      9  C   UNL     1     -12.278 -45.290  30.718  1.00  0.00     0.006 A 
ATOM     10  C   UNL     1     -11.504 -43.715  28.553  1.00  0.00     0.026 A 
ATOM     11  C   UNL     1     -12.981 -45.353  29.509  1.00  0.00     0.026 A 
BRANCH   7  12
ATOM     12  C   UNL     1     -10.390 -44.351  32.155  1.00  0.00     0.013 C 
ATOM     13  C   UNL     1      -8.903 -44.642  31.931  1.00  0.00     0.012 C 
ATOM     14  C   UNL     1     -10.583 -42.998  32.842  1.00  0.00     0.012 C 
ENDBRANCH   7  12
ENDBRANCH   3   6
ENDBRANCH   1   2
BRANCH   1  15
ATOM     15  C   UNL     1     -15.615 -43.516  24.832  1.00  0.00     0.133 A 
ATOM     16  C   UNL     1     -15.314 -42.949  23.590  1.00  0.00     0.049 A 
ATOM     17  C   UNL     1     -16.873 -43.377  25.413  1.00  0.00     0.053 A 
ATOM     18  C   UNL     1     -16.282 -42.196  22.920  1.00  0.00     0.030 A 
ATOM     19  C   UNL     1     -17.817 -42.621  24.729  1.00  0.00    -0.011 A 
ATOM     20  C   UNL     1     -17.536 -42.030  23.495  1.00  0.00     0.042 A 
ATOM     21  C   UNL     1     -19.223 -42.286  25.144  1.00  0.00     0.030 C 
ATOM     22  N   UNL     1     -18.619 -41.329  22.982  1.00  0.00    -0.358 N 
ATOM     23  C   UNL     1     -20.156 -43.503  25.079  1.00  0.00     0.031 C 
ATOM     24  C   UNL     1     -19.708 -41.346  23.971  1.00  0.00     0.163 C 
ATOM     25  C   UNL     1     -20.894 -43.343  23.759  1.00  0.00     0.087 C 
ATOM     26  N   UNL     1     -21.046 -41.891  23.663  1.00  0.00    -0.282 NA
ATOM     27  C   UNL     1     -19.278 -41.596  26.508  1.00  0.00     0.020 C 
ATOM     28  C   UNL     1     -18.425 -40.213  22.084  1.00  0.00     0.145 C 
BRANCH  26  29
ATOM     29  C   UNL     1     -21.560 -41.442  22.368  1.00  0.00     0.091 C 
BRANCH  29  30
ATOM     30  C   UNL     1     -22.175 -40.034  22.425  1.00  0.00     0.051 C 
BRANCH  30  31
ATOM     31  C   UNL     1     -22.255 -39.411  21.050  1.00  0.00    -0.047 A 
ATOM     32  C   UNL     1     -23.440 -39.485  20.305  1.00  0.00     0.004 A 
ATOM     33  C   UNL     1     -21.156 -38.723  20.516  1.00  0.00     0.004 A 
ATOM     34  C   UNL     1     -23.520 -38.889  19.045  1.00  0.00     0.000 A 
ATOM     35  C   UNL     1     -21.239 -38.129  19.256  1.00  0.00     0.000 A 
ATOM     36  C   UNL     1     -22.421 -38.212  18.520  1.00  0.00     0.000 A 
ENDBRANCH  30  31
ENDBRANCH  29  30
ENDBRANCH  26  29
ENDBRANCH   1  15
TORSDOF 7
ENDMDL
MODEL 9
REMARK VINA RESULT:   -10.587      3.814      6.022
REMARK INTER + INTRA:         -15.370
REMARK INTER:                 -14.772
REMARK INTRA:                  -0.599
REMARK UNBOUND:                -0.451
REMARK SMILES CC(C)c1ccc(NC(=O)Oc2ccc3c(c2)[C@]2(C)CCN(CCc4ccccc4)[C@@H]2N3C)cc1
REMARK SMILES IDX 11 1 9 2 8 3 10 4 7 6 4 7 5 8 35 9 6 10 34 11 2 12 1 13 3 14
REMARK SMILES IDX 12 15 13 16 17 17 14 18 16 19 15 20 18 21 32 22 20 23 31 24
REMARK SMILES IDX 21 25 22 26 19 27 33 28 23 29 24 30 25 31 26 32 30 33 27 34
REMARK SMILES IDX 29 35 28 36
REMARK H PARENT 8 5
ROOT
ATOM      1  O   UNL     1     -20.230 -42.320  22.929  1.00  0.00    -0.410 OA
ENDROOT
BRANCH   1   2
ATOM      2  C   UNL     1     -21.462 -42.862  23.283  1.00  0.00     0.417 C 
ATOM      3  N   UNL     1     -21.269 -44.190  23.566  1.00  0.00    -0.291 N 
ATOM      4  O   UNL     1     -22.515 -42.241  23.322  1.00  0.00    -0.224 OA
ATOM      5  H   UNL     1     -20.312 -44.495  23.459  1.00  0.00     0.173 HD
BRANCH   3   6
ATOM      6  C   UNL     1     -22.216 -45.146  23.973  1.00  0.00     0.044 A 
ATOM      7  C   UNL     1     -24.113 -47.004  24.951  1.00  0.00    -0.045 A 
ATOM      8  C   UNL     1     -23.736 -46.998  23.601  1.00  0.00     0.006 A 
ATOM      9  C   UNL     1     -23.525 -46.065  25.807  1.00  0.00     0.006 A 
ATOM     10  C   UNL     1     -22.798 -46.079  23.117  1.00  0.00     0.026 A 
ATOM     11  C   UNL     1     -22.587 -45.145  25.322  1.00  0.00     0.026 A 
BRANCH   7  12
ATOM     12  C   UNL     1     -25.136 -48.011  25.446  1.00  0.00     0.013 C 
ATOM     13  C   UNL     1     -24.733 -49.444  25.086  1.00  0.00     0.012 C 
ATOM     14  C   UNL     1     -25.378 -47.875  26.951  1.00  0.00     0.012 C 
ENDBRANCH   7  12
ENDBRANCH   3   6
ENDBRANCH   1   2
BRANCH   1  15
ATOM     15  C   UNL     1     -19.258 -42.409  23.930  1.00  0.00     0.133 A 
ATOM     16  C   UNL     1     -19.674 -42.516  25.261  1.00  0.00     0.049 A 
ATOM     17  C   UNL     1     -17.913 -42.472  23.577  1.00  0.00     0.053 A 
ATOM     18  C   UNL     1     -18.722 -42.659  26.273  1.00  0.00     0.030 A 
ATOM     19  C   UNL     1     -16.985 -42.612  24.602  1.00  0.00    -0.011 A 
ATOM     20  C   UNL     1     -17.374 -42.704  25.941  1.00  0.00     0.042 A 
ATOM     21  C   UNL     1     -15.486 -42.669  24.503  1.00  0.00     0.030 C 
ATOM     22  N   UNL     1     -16.292 -42.847  26.800  1.00  0.00    -0.358 N 
ATOM     23  C   UNL     1     -14.992 -43.983  23.883  1.00  0.00     0.031 C 
ATOM     24  C   UNL     1     -15.049 -42.751  26.018  1.00  0.00     0.163 C 
ATOM     25  C   UNL     1     -14.583 -44.833  25.075  1.00  0.00     0.087 C 
ATOM     26  N   UNL     1     -14.044 -43.834  25.998  1.00  0.00    -0.282 NA
ATOM     27  C   UNL     1     -14.903 -41.446  23.792  1.00  0.00     0.020 C 
ATOM     28  C   UNL     1     -16.366 -42.396  28.171  1.00  0.00     0.145 C 
BRANCH  26  29
ATOM     29  C   UNL     1     -13.752 -44.366  27.330  1.00  0.00     0.091 C 
BRANCH  29  30
ATOM     30  C   UNL     1     -13.066 -45.742  27.289  1.00  0.00     0.051 C 
BRANCH  30  31
ATOM     31  C   UNL     1     -12.202 -45.965  28.508  1.00  0.00    -0.047 A 
ATOM     32  C   UNL     1     -10.848 -46.296  28.367  1.00  0.00     0.004 A 
ATOM     33  C   UNL     1     -12.736 -45.814  29.796  1.00  0.00     0.004 A 
ATOM     34  C   UNL     1     -10.044 -46.478  29.494  1.00  0.00     0.000 A 
ATOM     35  C   UNL     1     -11.931 -45.998  30.921  1.00  0.00     0.000 A 
ATOM     36  C   UNL     1     -10.585 -46.331  30.770  1.00  0.00     0.000 A 
ENDBRANCH  30  31
ENDBRANCH  29  30
ENDBRANCH  26  29
ENDBRANCH   1  15
TORSDOF 7
ENDMDL
