MODEL 7
REMARK VINA RESULT:    -7.460      7.275     10.048
REMARK INTER + INTRA:         -12.469
REMARK INTER:                 -11.425
REMARK INTRA:                  -1.044
REMARK UNBOUND:                -0.866
REMARK SMILES CCO[C@@H](Cc1cccc(/C(C)=N/OCc2ccc(Cl)cc2)c1)C(=O)O
REMARK SMILES IDX 6 1 7 2 8 3 9 4 10 5 23 6 5 7 4 8 3 9 2 10 1 11 24 12 25 13
REMARK SMILES IDX 26 14 11 16 13 17 12 18 14 19 15 20 16 21 17 22 22 23 18 24
REMARK SMILES IDX 21 25 19 26 20 27
REMARK H PARENT 26 15
ROOT
ATOM      1  C   UNL     1      -8.443  -8.488 -27.916  1.00  0.00    -0.044 A 
ATOM      2  C   UNL     1      -9.714  -7.939 -28.126  1.00  0.00     0.004 A 
ATOM      3  C   UNL     1     -10.544  -7.640 -27.045  1.00  0.00     0.001 A 
ATOM      4  C   UNL     1     -10.113  -7.887 -25.740  1.00  0.00     0.010 A 
ATOM      5  C   UNL     1      -8.848  -8.441 -25.515  1.00  0.00    -0.001 A 
ATOM      6  C   UNL     1      -8.013  -8.729 -26.603  1.00  0.00     0.014 A 
ENDROOT
BRANCH   1   7
ATOM      7  C   UNL     1      -7.530  -8.780 -29.088  1.00  0.00     0.079 C 
BRANCH   7   8
ATOM      8  C   UNL     1      -8.304  -8.885 -30.412  1.00  0.00     0.231 C 
BRANCH   8   9
ATOM      9  O   UNL     1      -8.354 -10.266 -30.792  1.00  0.00    -0.366 OA
BRANCH   9  10
ATOM     10  C   UNL     1      -9.538 -10.593 -31.516  1.00  0.00     0.158 C 
ATOM     11  C   UNL     1     -10.667  -9.726 -30.997  1.00  0.00     0.035 C 
ENDBRANCH   9  10
ENDBRANCH   8   9
BRANCH   8  12
ATOM     12  C   UNL     1      -7.596  -8.053 -31.484  1.00  0.00     0.333 C 
ATOM     13  O   UNL     1      -6.711  -8.421 -32.240  1.00  0.00    -0.249 OA
BRANCH  12  14
ATOM     14  O   UNL     1      -8.008  -6.767 -31.518  1.00  0.00    -0.479 OA
ATOM     15  H   UNL     1      -8.641  -6.702 -30.774  1.00  0.00     0.296 HD
ENDBRANCH  12  14
ENDBRANCH   8  12
ENDBRANCH   7   8
ENDBRANCH   1   7
BRANCH   5  16
ATOM     16  C   UNL     1      -8.350  -8.702 -24.133  1.00  0.00     0.084 C 
ATOM     17  N   UNL     1      -8.799  -7.963 -23.159  1.00  0.00    -0.091 NA
ATOM     18  C   UNL     1      -7.353  -9.826 -23.928  1.00  0.00     0.071 C 
BRANCH  17  19
ATOM     19  O   UNL     1      -8.256  -8.358 -21.925  1.00  0.00    -0.391 OA
BRANCH  19  20
ATOM     20  C   UNL     1      -8.403  -7.299 -20.977  1.00  0.00     0.299 C 
BRANCH  20  21
ATOM     21  C   UNL     1      -7.069  -6.633 -20.743  1.00  0.00    -0.008 A 
ATOM     22  C   UNL     1      -5.883  -7.372 -20.871  1.00  0.00     0.009 A 
ATOM     23  C   UNL     1      -6.992  -5.271 -20.421  1.00  0.00     0.009 A 
ATOM     24  C   UNL     1      -4.642  -6.763 -20.668  1.00  0.00     0.021 A 
ATOM     25  C   UNL     1      -5.751  -4.662 -20.217  1.00  0.00     0.021 A 
ATOM     26  C   UNL     1      -4.582  -5.411 -20.339  1.00  0.00     0.041 A 
ATOM     27  Cl  UNL     1      -3.055  -4.659 -20.088  1.00  0.00    -0.084 Cl
ENDBRANCH  20  21
ENDBRANCH  19  20
ENDBRANCH  17  19
ENDBRANCH   5  16
TORSDOF 10
ENDMDL
