REMARK SMILES CCN(CCCCCCNC1=CC(=O)C(NCCCNC(=O)CCCC[C@H]2CCSS2)=CC1=O)Cc1ccccc1OC
REMARK SMILES IDX 10 1 9 3 8 4 7 5 6 6 5 7 4 8 3 9 2 10 1 11 35 12 36 13 37 14
REMARK SMILES IDX 41 15 38 16 40 17 39 18 42 19 43 20 11 21 12 22 33 23 13 24
REMARK SMILES IDX 32 25 34 26 14 27 15 28 16 29 17 31 18 32 19 33 20 34 21 35
REMARK SMILES IDX 22 36 23 38 24 39 25 40 26 41 27 42 28 43 31 44 29 45 30 46
REMARK H PARENT 10 2 16 30 20 37
REMARK INDEX MAP 10 1 61 2 9 3 8 4 7 5 6 6 5 7 4 8 3 9 2 10 1 11 35 12 36 13
REMARK INDEX MAP 37 14 41 15 38 16 40 17 39 18 42 19 43 20 11 21 12 22 33 23
REMARK INDEX MAP 13 24 32 25 34 26 14 27 15 28 16 29 63 30 17 31 18 32 19 33
REMARK INDEX MAP 20 34 21 35 22 36 70 37 23 38 24 39 25 40 26 41 27 42 28 43
REMARK INDEX MAP 31 44 29 45 30 46
ROOT
ATOM      1  N   UNL     1     134.587 110.859  39.096  1.00  0.00    -0.382 N 
ATOM      2  H   UNL     1     134.148 110.978  40.020  1.00  0.00     0.160 HD
ENDROOT
BRANCH   1   3
ATOM      3  C   UNL     1     135.366 109.654  38.938  1.00  0.00     0.113 C 
BRANCH   3   4
ATOM      4  C   UNL     1     136.196 109.332  40.181  1.00  0.00     0.021 C 
BRANCH   4   5
ATOM      5  C   UNL     1     135.780 110.146  41.412  1.00  0.00     0.002 C 
BRANCH   5   6
ATOM      6  C   UNL     1     136.823 111.216  41.744  1.00  0.00     0.001 C 
BRANCH   6   7
ATOM      7  C   UNL     1     137.799 111.499  40.595  1.00  0.00     0.016 C 
BRANCH   7   8
ATOM      8  C   UNL     1     138.769 112.654  40.889  1.00  0.00     0.085 C 
BRANCH   8   9
ATOM      9  N   UNL     1     138.804 113.674  39.815  1.00  0.00    -0.299 NA
BRANCH   9  10
ATOM     10  C   UNL     1     138.344 113.115  38.529  1.00  0.00     0.081 C 
ATOM     11  C   UNL     1     139.484 112.524  37.703  1.00  0.00     0.021 C 
ENDBRANCH   9  10
BRANCH   9  12
ATOM     12  C   UNL     1     140.189 114.197  39.681  1.00  0.00     0.124 C 
BRANCH  12  13
ATOM     13  C   UNL     1     140.624 115.071  40.846  1.00  0.00     0.008 A 
ATOM     14  C   UNL     1     141.711 114.655  41.638  1.00  0.00     0.009 A 
ATOM     15  C   UNL     1     139.954 116.267  41.170  1.00  0.00     0.123 A 
ATOM     16  C   UNL     1     142.133 115.413  42.729  1.00  0.00     0.001 A 
ATOM     17  C   UNL     1     140.385 117.019  42.269  1.00  0.00     0.047 A 
ATOM     18  C   UNL     1     141.468 116.593  43.044  1.00  0.00     0.004 A 
BRANCH  15  19
ATOM     19  O   UNL     1     138.900 116.609  40.363  1.00  0.00    -0.496 OA
ATOM     20  C   UNL     1     137.659 116.898  40.991  1.00  0.00     0.278 C 
ENDBRANCH  15  19
ENDBRANCH  12  13
ENDBRANCH   9  12
ENDBRANCH   8   9
ENDBRANCH   7   8
ENDBRANCH   6   7
ENDBRANCH   5   6
ENDBRANCH   4   5
ENDBRANCH   3   4
ENDBRANCH   1   3
BRANCH   1  21
ATOM     21  C   UNL     1     134.340 111.880  38.193  1.00  0.00     0.086 C 
ATOM     22  C   UNL     1     133.943 111.743  36.923  1.00  0.00     0.084 C 
ATOM     23  C   UNL     1     134.549 113.271  38.724  1.00  0.00     0.203 C 
ATOM     24  C   UNL     1     133.698 112.887  36.027  1.00  0.00     0.203 C 
ATOM     25  C   UNL     1     134.376 114.409  37.808  1.00  0.00     0.084 C 
ATOM     26  O   UNL     1     134.865 113.463  39.896  1.00  0.00    -0.288 OA
ATOM     27  O   UNL     1     133.268 112.700  34.890  1.00  0.00    -0.288 OA
ATOM     28  C   UNL     1     133.983 114.276  36.537  1.00  0.00     0.086 C 
BRANCH  28  29
ATOM     29  N   UNL     1     133.821 115.304  35.618  1.00  0.00    -0.382 N 
ATOM     30  H   UNL     1     133.194 115.110  34.824  1.00  0.00     0.160 HD
BRANCH  29  31
ATOM     31  C   UNL     1     134.429 116.614  35.645  1.00  0.00     0.115 C 
BRANCH  31  32
ATOM     32  C   UNL     1     133.388 117.733  35.599  1.00  0.00     0.042 C 
BRANCH  32  33
ATOM     33  C   UNL     1     133.694 118.948  36.472  1.00  0.00     0.117 C 
BRANCH  33  34
ATOM     34  N   UNL     1     134.161 118.582  37.794  1.00  0.00    -0.356 N 
ATOM     35  C   UNL     1     134.165 119.487  38.835  1.00  0.00     0.219 C 
ATOM     36  O   UNL     1     133.753 120.636  38.728  1.00  0.00    -0.275 OA
ATOM     37  H   UNL     1     134.498 117.623  37.960  1.00  0.00     0.163 HD
BRANCH  35  38
ATOM     38  C   UNL     1     134.711 118.913  40.130  1.00  0.00     0.100 C 
BRANCH  38  39
ATOM     39  C   UNL     1     133.622 118.753  41.193  1.00  0.00     0.010 C 
BRANCH  39  40
ATOM     40  C   UNL     1     133.040 117.332  41.209  1.00  0.00     0.002 C 
BRANCH  40  41
ATOM     41  C   UNL     1     134.053 116.281  41.686  1.00  0.00     0.015 C 
BRANCH  41  42
ATOM     42  C   UNL     1     133.837 115.810  43.137  1.00  0.00     0.059 C 
ATOM     43  C   UNL     1     132.351 115.660  43.493  1.00  0.00     0.027 C 
ATOM     44  S   UNL     1     134.557 114.160  43.430  1.00  0.00    -0.091 SA
ATOM     45  C   UNL     1     131.739 114.438  42.816  1.00  0.00     0.083 C 
ATOM     46  S   UNL     1     132.872 113.052  43.070  1.00  0.00    -0.094 SA
ENDBRANCH  41  42
ENDBRANCH  40  41
ENDBRANCH  39  40
ENDBRANCH  38  39
ENDBRANCH  35  38
ENDBRANCH  33  34
ENDBRANCH  32  33
ENDBRANCH  31  32
ENDBRANCH  29  31
ENDBRANCH  28  29
ENDBRANCH   1  21
TORSDOF 22
