MODEL 1
REMARK minimizedAffinity -9.42109203
REMARK CNNscore 0.816117465
REMARK CNNaffinity 8.7690134
REMARK SMILES C=CC(=O)N1[C@@H]2CC[C@H]1C[C@@H](n1nc(-c3cc(F)c(Oc4ccc5c(c4)ncn5C)c(Cl)c3)c3c(C)ncnc31)C2
REMARK SMILES IDX 12 1 13 2 14 3 34 4 35 5 36 6 37 7 38 8 39 9 40 10 11 11
REMARK SMILES IDX 5 12 6 13 9 14 7 15 41 16 8 17 10 18 3 19 4 20 2 21 1 22
REMARK SMILES IDX 15 23 16 24 33 25 17 26 31 27 19 28 18 29 32 30 20 31 21 32
REMARK SMILES IDX 22 33 26 34 23 35 25 36 24 37 27 38 29 39 28 40 30 41
REMARK H PARENT
ROOT
ATOM      1  N   UNL     1      13.855   1.313  27.385  1.00  0.00    -0.243 N 
ATOM      2  N   UNL     1      14.143   2.378  26.611  1.00  0.00    -0.170 NA
ATOM      3  C   UNL     1      15.404   2.166  26.203  1.00  0.00     0.104 A 
ATOM      4  C   UNL     1      15.914   0.928  26.696  1.00  0.00     0.068 A 
ATOM      5  C   UNL     1      17.078   0.149  26.596  1.00  0.00     0.052 A 
ATOM      6  C   UNL     1      18.287   0.490  25.781  1.00  0.00     0.067 C 
ATOM      7  N   UNL     1      17.128  -1.018  27.301  1.00  0.00    -0.241 NA
ATOM      8  C   UNL     1      16.060  -1.387  28.034  1.00  0.00     0.224 A 
ATOM      9  N   UNL     1      14.897  -0.733  28.172  1.00  0.00    -0.217 NA
ATOM     10  C   UNL     1      14.889   0.416  27.474  1.00  0.00     0.162 A 
ENDROOT
BRANCH   1  11
ATOM     11  C   UNL     1      12.550   1.186  28.036  1.00  0.00     0.114 C 
ATOM     12  N   UNL     1      11.311   1.941  30.472  1.00  0.00    -0.333 N 
ATOM     13  C   UNL     1      12.482   1.102  30.620  1.00  0.00     0.088 C 
ATOM     14  C   UNL     1      11.721   3.059  29.641  1.00  0.00     0.088 C 
ATOM     15  C   UNL     1      13.612   2.113  30.832  1.00  0.00     0.027 C 
ATOM     16  C   UNL     1      12.640   0.311  29.313  1.00  0.00     0.052 C 
ATOM     17  C   UNL     1      13.081   3.423  30.235  1.00  0.00     0.027 C 
ATOM     18  C   UNL     1      11.803   2.541  28.195  1.00  0.00     0.052 C 
BRANCH  12  19
ATOM     19  C   UNL     1      10.061   1.522  30.851  1.00  0.00     0.246 C 
ATOM     20  O   UNL     1       9.855   0.414  31.342  1.00  0.00    -0.270 OA
BRANCH  19  21
ATOM     21  C   UNL     1       8.939   2.472  30.628  1.00  0.00     0.063 C 
ATOM     22  C   UNL     1       8.135   2.815  31.643  1.00  0.00     0.014 C 
ENDBRANCH  19  21
ENDBRANCH  12  19
ENDBRANCH   1  11
BRANCH   3  23
ATOM     23  C   UNL     1      16.058   3.158  25.359  1.00  0.00     0.007 A 
ATOM     24  C   UNL     1      16.772   2.766  24.223  1.00  0.00     0.053 A 
ATOM     25  C   UNL     1      16.015   4.514  25.714  1.00  0.00     0.035 A 
ATOM     26  C   UNL     1      17.400   3.730  23.437  1.00  0.00     0.167 A 
ATOM     27  C   UNL     1      16.651   5.472  24.920  1.00  0.00     0.087 A 
ATOM     28  C   UNL     1      17.326   5.086  23.761  1.00  0.00     0.181 A 
ATOM     29  F   UNL     1      18.096   3.322  22.366  1.00  0.00    -0.203 F 
ATOM     30  Cl  UNL     1      16.567   7.128  25.402  1.00  0.00    -0.080 Cl
BRANCH  28  31
ATOM     31  O   UNL     1      17.970   6.031  22.996  1.00  0.00    -0.453 OA
BRANCH  31  32
ATOM     32  C   UNL     1      17.191   6.695  22.069  1.00  0.00     0.129 A 
ATOM     33  C   UNL     1      16.517   5.902  21.137  1.00  0.00     0.049 A 
ATOM     34  C   UNL     1      17.130   8.093  22.011  1.00  0.00     0.077 A 
ATOM     35  C   UNL     1      15.723   6.474  20.137  1.00  0.00     0.032 A 
ATOM     36  C   UNL     1      16.338   8.682  21.013  1.00  0.00     0.092 A 
ATOM     37  C   UNL     1      15.654   7.871  20.109  1.00  0.00     0.068 A 
ATOM     38  N   UNL     1      16.113  10.013  20.753  1.00  0.00    -0.237 NA
ATOM     39  N   UNL     1      15.000   8.764  19.296  1.00  0.00    -0.334 N 
ATOM     40  C   UNL     1      15.305  10.028  19.717  1.00  0.00     0.200 A 
ATOM     41  C   UNL     1      14.141   8.433  18.188  1.00  0.00     0.151 C 
ENDBRANCH  31  32
ENDBRANCH  28  31
ENDBRANCH   3  23
TORSDOF 6
ENDMDL
MODEL 2
REMARK minimizedAffinity -10.1519241
REMARK CNNscore 0.807045758
REMARK CNNaffinity 8.75033283
REMARK SMILES C=CC(=O)N1[C@@H]2CC[C@H]1C[C@@H](n1nc(-c3cc(F)c(Oc4ccc5c(c4)ncn5C)c(Cl)c3)c3c(C)ncnc31)C2
REMARK SMILES IDX 12 1 13 2 14 3 34 4 35 5 36 6 37 7 38 8 39 9 40 10 11 11
REMARK SMILES IDX 5 12 6 13 9 14 7 15 41 16 8 17 10 18 3 19 4 20 2 21 1 22
REMARK SMILES IDX 15 23 16 24 33 25 17 26 31 27 19 28 18 29 32 30 20 31 21 32
REMARK SMILES IDX 22 33 26 34 23 35 25 36 24 37 27 38 29 39 28 40 30 41
REMARK H PARENT
ROOT
ATOM      1  N   UNL     1      16.602   3.145  25.668  1.00  0.00    -0.243 N 
ATOM      2  N   UNL     1      15.568   3.503  26.454  1.00  0.00    -0.170 NA
ATOM      3  C   UNL     1      15.222   2.374  27.091  1.00  0.00     0.104 A 
ATOM      4  C   UNL     1      16.076   1.287  26.733  1.00  0.00     0.068 A 
ATOM      5  C   UNL     1      16.263  -0.064  27.065  1.00  0.00     0.052 A 
ATOM      6  C   UNL     1      15.471  -0.830  28.079  1.00  0.00     0.067 C 
ATOM      7  N   UNL     1      17.244  -0.752  26.413  1.00  0.00    -0.241 NA
ATOM      8  C   UNL     1      18.003  -0.108  25.506  1.00  0.00     0.224 A 
ATOM      9  N   UNL     1      17.925   1.179  25.140  1.00  0.00    -0.217 NA
ATOM     10  C   UNL     1      16.942   1.822  25.794  1.00  0.00     0.162 A 
ENDROOT
BRANCH   1  11
ATOM     11  C   UNL     1      17.255   4.119  24.791  1.00  0.00     0.114 C 
ATOM     12  N   UNL     1      16.524   6.072  22.871  1.00  0.00    -0.333 N 
ATOM     13  C   UNL     1      16.092   4.723  22.563  1.00  0.00     0.088 C 
ATOM     14  C   UNL     1      16.046   6.349  24.214  1.00  0.00     0.088 C 
ATOM     15  C   UNL     1      14.667   4.677  23.121  1.00  0.00     0.027 C 
ATOM     16  C   UNL     1      17.041   3.765  23.297  1.00  0.00     0.052 C 
ATOM     17  C   UNL     1      14.623   5.794  24.172  1.00  0.00     0.027 C 
ATOM     18  C   UNL     1      16.969   5.596  25.186  1.00  0.00     0.052 C 
BRANCH  12  19
ATOM     19  C   UNL     1      17.428   6.744  22.087  1.00  0.00     0.246 C 
ATOM     20  O   UNL     1      17.198   7.039  20.916  1.00  0.00    -0.270 OA
BRANCH  19  21
ATOM     21  C   UNL     1      18.728   7.096  22.716  1.00  0.00     0.063 C 
ATOM     22  C   UNL     1      19.414   6.174  23.405  1.00  0.00     0.014 C 
ENDBRANCH  19  21
ENDBRANCH  12  19
ENDBRANCH   1  11
BRANCH   3  23
ATOM     23  C   UNL     1      14.095   2.390  28.015  1.00  0.00     0.007 A 
ATOM     24  C   UNL     1      12.799   2.632  27.552  1.00  0.00     0.053 A 
ATOM     25  C   UNL     1      14.316   2.212  29.388  1.00  0.00     0.035 A 
ATOM     26  C   UNL     1      11.738   2.655  28.455  1.00  0.00     0.167 A 
ATOM     27  C   UNL     1      13.245   2.241  30.286  1.00  0.00     0.087 A 
ATOM     28  C   UNL     1      11.945   2.437  29.818  1.00  0.00     0.181 A 
ATOM     29  F   UNL     1      10.509   2.912  27.985  1.00  0.00    -0.203 F 
ATOM     30  Cl  UNL     1      13.573   2.016  31.966  1.00  0.00    -0.080 Cl
BRANCH  28  31
ATOM     31  O   UNL     1      10.898   2.487  30.709  1.00  0.00    -0.453 OA
BRANCH  31  32
ATOM     32  C   UNL     1      10.295   1.281  31.006  1.00  0.00     0.129 A 
ATOM     33  C   UNL     1       9.063   1.343  31.662  1.00  0.00     0.049 A 
ATOM     34  C   UNL     1      10.910   0.052  30.735  1.00  0.00     0.077 A 
ATOM     35  C   UNL     1       8.379   0.181  32.035  1.00  0.00     0.032 A 
ATOM     36  C   UNL     1      10.237  -1.123  31.103  1.00  0.00     0.092 A 
ATOM     37  C   UNL     1       8.998  -1.038  31.734  1.00  0.00     0.068 A 
ATOM     38  N   UNL     1      10.623  -2.432  30.942  1.00  0.00    -0.237 NA
ATOM     39  N   UNL     1       8.644  -2.348  31.942  1.00  0.00    -0.334 N 
ATOM     40  C   UNL     1       9.644  -3.143  31.456  1.00  0.00     0.200 A 
ATOM     41  C   UNL     1       7.433  -2.812  32.567  1.00  0.00     0.151 C 
ENDBRANCH  31  32
ENDBRANCH  28  31
ENDBRANCH   3  23
TORSDOF 6
ENDMDL
MODEL 3
REMARK minimizedAffinity -10.3516531
REMARK CNNscore 0.747996449
REMARK CNNaffinity 8.58403397
REMARK SMILES C=CC(=O)N1[C@@H]2CC[C@H]1C[C@@H](n1nc(-c3cc(F)c(Oc4ccc5c(c4)ncn5C)c(Cl)c3)c3c(C)ncnc31)C2
REMARK SMILES IDX 12 1 13 2 14 3 34 4 35 5 36 6 37 7 38 8 39 9 40 10 11 11
REMARK SMILES IDX 5 12 6 13 9 14 7 15 41 16 8 17 10 18 3 19 4 20 2 21 1 22
REMARK SMILES IDX 15 23 16 24 33 25 17 26 31 27 19 28 18 29 32 30 20 31 21 32
REMARK SMILES IDX 22 33 26 34 23 35 25 36 24 37 27 38 29 39 28 40 30 41
REMARK H PARENT
ROOT
ATOM      1  N   UNL     1      13.945   1.578  27.241  1.00  0.00    -0.243 N 
ATOM      2  N   UNL     1      14.266   2.701  26.570  1.00  0.00    -0.170 NA
ATOM      3  C   UNL     1      15.541   2.515  26.194  1.00  0.00     0.104 A 
ATOM      4  C   UNL     1      16.027   1.237  26.601  1.00  0.00     0.068 A 
ATOM      5  C   UNL     1      17.191   0.461  26.481  1.00  0.00     0.052 A 
ATOM      6  C   UNL     1      18.431   0.859  25.743  1.00  0.00     0.067 C 
ATOM      7  N   UNL     1      17.210  -0.760  27.088  1.00  0.00    -0.241 NA
ATOM      8  C   UNL     1      16.113  -1.181  27.747  1.00  0.00     0.224 A 
ATOM      9  N   UNL     1      14.949  -0.533  27.895  1.00  0.00    -0.217 NA
ATOM     10  C   UNL     1      14.971   0.670  27.295  1.00  0.00     0.162 A 
ENDROOT
BRANCH   1  11
ATOM     11  C   UNL     1      12.616   1.407  27.831  1.00  0.00     0.114 C 
ATOM     12  N   UNL     1      11.290   1.958  30.276  1.00  0.00    -0.333 N 
ATOM     13  C   UNL     1      12.450   1.097  30.393  1.00  0.00     0.088 C 
ATOM     14  C   UNL     1      11.739   3.140  29.562  1.00  0.00     0.088 C 
ATOM     15  C   UNL     1      13.577   2.075  30.734  1.00  0.00     0.027 C 
ATOM     16  C   UNL     1      12.652   0.423  29.028  1.00  0.00     0.052 C 
ATOM     17  C   UNL     1      13.078   3.437  30.236  1.00  0.00     0.027 C 
ATOM     18  C   UNL     1      11.872   2.750  28.080  1.00  0.00     0.052 C 
BRANCH  12  19
ATOM     19  C   UNL     1      10.025   1.519  30.571  1.00  0.00     0.246 C 
ATOM     20  O   UNL     1       9.259   1.081  29.714  1.00  0.00    -0.270 OA
BRANCH  19  21
ATOM     21  C   UNL     1       9.599   1.609  31.992  1.00  0.00     0.063 C 
ATOM     22  C   UNL     1       9.083   2.750  32.469  1.00  0.00     0.014 C 
ENDBRANCH  19  21
ENDBRANCH  12  19
ENDBRANCH   1  11
BRANCH   3  23
ATOM     23  C   UNL     1      16.230   3.569  25.459  1.00  0.00     0.007 A 
ATOM     24  C   UNL     1      17.611   3.504  25.250  1.00  0.00     0.053 A 
ATOM     25  C   UNL     1      15.514   4.683  25.001  1.00  0.00     0.035 A 
ATOM     26  C   UNL     1      18.251   4.528  24.555  1.00  0.00     0.167 A 
ATOM     27  C   UNL     1      16.167   5.708  24.310  1.00  0.00     0.087 A 
ATOM     28  C   UNL     1      17.537   5.620  24.060  1.00  0.00     0.181 A 
ATOM     29  F   UNL     1      19.579   4.450  24.389  1.00  0.00    -0.203 F 
ATOM     30  Cl  UNL     1      15.237   7.057  23.767  1.00  0.00    -0.080 Cl
BRANCH  28  31
ATOM     31  O   UNL     1      18.179   6.642  23.398  1.00  0.00    -0.453 OA
BRANCH  31  32
ATOM     32  C   UNL     1      19.044   6.265  22.391  1.00  0.00     0.129 A 
ATOM     33  C   UNL     1      18.551   5.357  21.451  1.00  0.00     0.049 A 
ATOM     34  C   UNL     1      20.373   6.706  22.345  1.00  0.00     0.077 A 
ATOM     35  C   UNL     1      19.353   4.887  20.405  1.00  0.00     0.032 A 
ATOM     36  C   UNL     1      21.190   6.244  21.302  1.00  0.00     0.092 A 
ATOM     37  C   UNL     1      20.670   5.357  20.361  1.00  0.00     0.068 A 
ATOM     38  N   UNL     1      22.508   6.530  21.037  1.00  0.00    -0.237 NA
ATOM     39  N   UNL     1      21.724   5.124  19.511  1.00  0.00    -0.334 N 
ATOM     40  C   UNL     1      22.798   5.843  19.956  1.00  0.00     0.200 A 
ATOM     41  C   UNL     1      21.707   4.270  18.352  1.00  0.00     0.151 C 
ENDBRANCH  31  32
ENDBRANCH  28  31
ENDBRANCH   3  23
TORSDOF 6
ENDMDL
MODEL 4
REMARK minimizedAffinity -9.60603809
REMARK CNNscore 0.738619864
REMARK CNNaffinity 8.65388775
REMARK SMILES C=CC(=O)N1[C@@H]2CC[C@H]1C[C@@H](n1nc(-c3cc(F)c(Oc4ccc5c(c4)ncn5C)c(Cl)c3)c3c(C)ncnc31)C2
REMARK SMILES IDX 12 1 13 2 14 3 34 4 35 5 36 6 37 7 38 8 39 9 40 10 11 11
REMARK SMILES IDX 5 12 6 13 9 14 7 15 41 16 8 17 10 18 3 19 4 20 2 21 1 22
REMARK SMILES IDX 15 23 16 24 33 25 17 26 31 27 19 28 18 29 32 30 20 31 21 32
REMARK SMILES IDX 22 33 26 34 23 35 25 36 24 37 27 38 29 39 28 40 30 41
REMARK H PARENT
ROOT
ATOM      1  N   UNL     1      13.820   1.344  27.258  1.00  0.00    -0.243 N 
ATOM      2  N   UNL     1      14.055   2.260  26.298  1.00  0.00    -0.170 NA
ATOM      3  C   UNL     1      15.305   2.001  25.884  1.00  0.00     0.104 A 
ATOM      4  C   UNL     1      15.862   0.878  26.567  1.00  0.00     0.068 A 
ATOM      5  C   UNL     1      17.039   0.114  26.561  1.00  0.00     0.052 A 
ATOM      6  C   UNL     1      18.210   0.325  25.651  1.00  0.00     0.067 C 
ATOM      7  N   UNL     1      17.143  -0.908  27.457  1.00  0.00    -0.241 NA
ATOM      8  C   UNL     1      16.111  -1.159  28.286  1.00  0.00     0.224 A 
ATOM      9  N   UNL     1      14.939  -0.512  28.353  1.00  0.00    -0.217 NA
ATOM     10  C   UNL     1      14.878   0.495  27.463  1.00  0.00     0.162 A 
ENDROOT
BRANCH   1  11
ATOM     11  C   UNL     1      12.543   1.313  27.974  1.00  0.00     0.114 C 
ATOM     12  N   UNL     1      11.501   2.092  30.492  1.00  0.00    -0.333 N 
ATOM     13  C   UNL     1      12.596   1.146  30.553  1.00  0.00     0.088 C 
ATOM     14  C   UNL     1      11.970   3.197  29.675  1.00  0.00     0.088 C 
ATOM     15  C   UNL     1      13.823   2.043  30.736  1.00  0.00     0.027 C 
ATOM     16  C   UNL     1      12.616   0.390  29.217  1.00  0.00     0.052 C 
ATOM     17  C   UNL     1      13.385   3.416  30.207  1.00  0.00     0.027 C 
ATOM     18  C   UNL     1      11.933   2.724  28.211  1.00  0.00     0.052 C 
BRANCH  12  19
ATOM     19  C   UNL     1      10.238   1.774  30.924  1.00  0.00     0.246 C 
ATOM     20  O   UNL     1       9.232   2.341  30.502  1.00  0.00    -0.270 OA
BRANCH  19  21
ATOM     21  C   UNL     1      10.131   0.709  31.955  1.00  0.00     0.063 C 
ATOM     22  C   UNL     1       9.497  -0.437  31.676  1.00  0.00     0.014 C 
ENDBRANCH  19  21
ENDBRANCH  12  19
ENDBRANCH   1  11
BRANCH   3  23
ATOM     23  C   UNL     1      15.904   2.838  24.852  1.00  0.00     0.007 A 
ATOM     24  C   UNL     1      17.119   2.479  24.262  1.00  0.00     0.053 A 
ATOM     25  C   UNL     1      15.284   4.040  24.482  1.00  0.00     0.035 A 
ATOM     26  C   UNL     1      17.680   3.300  23.286  1.00  0.00     0.167 A 
ATOM     27  C   UNL     1      15.858   4.859  23.505  1.00  0.00     0.087 A 
ATOM     28  C   UNL     1      17.047   4.477  22.882  1.00  0.00     0.181 A 
ATOM     29  F   UNL     1      18.857   2.942  22.753  1.00  0.00    -0.203 F 
ATOM     30  Cl  UNL     1      15.054   6.328  23.087  1.00  0.00    -0.080 Cl
BRANCH  28  31
ATOM     31  O   UNL     1      17.618   5.299  21.938  1.00  0.00    -0.453 OA
BRANCH  31  32
ATOM     32  C   UNL     1      18.859   5.817  22.254  1.00  0.00     0.129 A 
ATOM     33  C   UNL     1      18.965   6.480  23.479  1.00  0.00     0.049 A 
ATOM     34  C   UNL     1      19.943   5.750  21.369  1.00  0.00     0.077 A 
ATOM     35  C   UNL     1      20.169   7.066  23.885  1.00  0.00     0.032 A 
ATOM     36  C   UNL     1      21.157   6.334  21.762  1.00  0.00     0.092 A 
ATOM     37  C   UNL     1      21.248   6.969  22.999  1.00  0.00     0.068 A 
ATOM     38  N   UNL     1      22.351   6.396  21.084  1.00  0.00    -0.237 NA
ATOM     39  N   UNL     1      22.547   7.412  23.047  1.00  0.00    -0.334 N 
ATOM     40  C   UNL     1      23.165   7.049  21.883  1.00  0.00     0.200 A 
ATOM     41  C   UNL     1      23.158   8.136  24.131  1.00  0.00     0.151 C 
ENDBRANCH  31  32
ENDBRANCH  28  31
ENDBRANCH   3  23
TORSDOF 6
ENDMDL
MODEL 5
REMARK minimizedAffinity -9.27053547
REMARK CNNscore 0.73046267
REMARK CNNaffinity 8.66606617
REMARK SMILES C=CC(=O)N1[C@@H]2CC[C@H]1C[C@@H](n1nc(-c3cc(F)c(Oc4ccc5c(c4)ncn5C)c(Cl)c3)c3c(C)ncnc31)C2
REMARK SMILES IDX 12 1 13 2 14 3 34 4 35 5 36 6 37 7 38 8 39 9 40 10 11 11
REMARK SMILES IDX 5 12 6 13 9 14 7 15 41 16 8 17 10 18 3 19 4 20 2 21 1 22
REMARK SMILES IDX 15 23 16 24 33 25 17 26 31 27 19 28 18 29 32 30 20 31 21 32
REMARK SMILES IDX 22 33 26 34 23 35 25 36 24 37 27 38 29 39 28 40 30 41
REMARK H PARENT
ROOT
ATOM      1  N   UNL     1      16.183   2.870  25.923  1.00  0.00    -0.243 N 
ATOM      2  N   UNL     1      15.261   3.273  26.819  1.00  0.00    -0.170 NA
ATOM      3  C   UNL     1      14.981   2.171  27.532  1.00  0.00     0.104 A 
ATOM      4  C   UNL     1      15.766   1.058  27.107  1.00  0.00     0.068 A 
ATOM      5  C   UNL     1      15.973  -0.286  27.458  1.00  0.00     0.052 A 
ATOM      6  C   UNL     1      15.303  -1.003  28.589  1.00  0.00     0.067 C 
ATOM      7  N   UNL     1      16.853  -1.013  26.712  1.00  0.00    -0.241 NA
ATOM      8  C   UNL     1      17.502  -0.413  25.696  1.00  0.00     0.224 A 
ATOM      9  N   UNL     1      17.399   0.864  25.299  1.00  0.00    -0.217 NA
ATOM     10  C   UNL     1      16.515   1.546  26.050  1.00  0.00     0.162 A 
ENDROOT
BRANCH   1  11
ATOM     11  C   UNL     1      16.735   3.804  24.939  1.00  0.00     0.114 C 
ATOM     12  N   UNL     1      15.848   5.959  23.325  1.00  0.00    -0.333 N 
ATOM     13  C   UNL     1      15.161   4.704  23.096  1.00  0.00     0.088 C 
ATOM     14  C   UNL     1      15.761   6.209  24.753  1.00  0.00     0.088 C 
ATOM     15  C   UNL     1      13.926   4.813  23.995  1.00  0.00     0.027 C 
ATOM     16  C   UNL     1      16.110   3.581  23.538  1.00  0.00     0.052 C 
ATOM     17  C   UNL     1      14.306   5.854  25.057  1.00  0.00     0.027 C 
ATOM     18  C   UNL     1      16.774   5.276  25.437  1.00  0.00     0.052 C 
BRANCH  12  19
ATOM     19  C   UNL     1      16.619   6.554  22.359  1.00  0.00     0.246 C 
ATOM     20  O   UNL     1      17.482   7.388  22.623  1.00  0.00    -0.270 OA
BRANCH  19  21
ATOM     21  C   UNL     1      16.354   6.156  20.952  1.00  0.00     0.063 C 
ATOM     22  C   UNL     1      16.259   7.088  19.995  1.00  0.00     0.014 C 
ENDBRANCH  19  21
ENDBRANCH  12  19
ENDBRANCH   1  11
BRANCH   3  23
ATOM     23  C   UNL     1      13.980   2.239  28.589  1.00  0.00     0.007 A 
ATOM     24  C   UNL     1      14.357   2.174  29.933  1.00  0.00     0.053 A 
ATOM     25  C   UNL     1      12.620   2.319  28.257  1.00  0.00     0.035 A 
ATOM     26  C   UNL     1      13.382   2.229  30.927  1.00  0.00     0.167 A 
ATOM     27  C   UNL     1      11.649   2.368  29.261  1.00  0.00     0.087 A 
ATOM     28  C   UNL     1      12.029   2.350  30.604  1.00  0.00     0.181 A 
ATOM     29  F   UNL     1      13.772   2.142  32.206  1.00  0.00    -0.203 F 
ATOM     30  Cl  UNL     1       9.989   2.466  28.797  1.00  0.00    -0.080 Cl
BRANCH  28  31
ATOM     31  O   UNL     1      11.068   2.376  31.588  1.00  0.00    -0.453 OA
BRANCH  31  32
ATOM     32  C   UNL     1      10.284   1.245  31.701  1.00  0.00     0.129 A 
ATOM     33  C   UNL     1      10.903   0.025  31.416  1.00  0.00     0.049 A 
ATOM     34  C   UNL     1       8.921   1.309  32.017  1.00  0.00     0.077 A 
ATOM     35  C   UNL     1      10.194  -1.180  31.473  1.00  0.00     0.032 A 
ATOM     36  C   UNL     1       8.196   0.110  32.078  1.00  0.00     0.092 A 
ATOM     37  C   UNL     1       8.839  -1.098  31.813  1.00  0.00     0.068 A 
ATOM     38  N   UNL     1       6.867  -0.090  32.367  1.00  0.00    -0.237 NA
ATOM     39  N   UNL     1       7.849  -2.038  31.960  1.00  0.00    -0.334 N 
ATOM     40  C   UNL     1       6.691  -1.390  32.289  1.00  0.00     0.200 A 
ATOM     41  C   UNL     1       7.997  -3.460  31.797  1.00  0.00     0.151 C 
ENDBRANCH  31  32
ENDBRANCH  28  31
ENDBRANCH   3  23
TORSDOF 6
ENDMDL
MODEL 6
REMARK minimizedAffinity -9.36827755
REMARK CNNscore 0.548608184
REMARK CNNaffinity 8.35111332
REMARK SMILES C=CC(=O)N1[C@@H]2CC[C@H]1C[C@@H](n1nc(-c3cc(F)c(Oc4ccc5c(c4)ncn5C)c(Cl)c3)c3c(C)ncnc31)C2
REMARK SMILES IDX 12 1 13 2 14 3 34 4 35 5 36 6 37 7 38 8 39 9 40 10 11 11
REMARK SMILES IDX 5 12 6 13 9 14 7 15 41 16 8 17 10 18 3 19 4 20 2 21 1 22
REMARK SMILES IDX 15 23 16 24 33 25 17 26 31 27 19 28 18 29 32 30 20 31 21 32
REMARK SMILES IDX 22 33 26 34 23 35 25 36 24 37 27 38 29 39 28 40 30 41
REMARK H PARENT
ROOT
ATOM      1  N   UNL     1      13.814   1.474  27.115  1.00  0.00    -0.243 N 
ATOM      2  N   UNL     1      13.955   2.495  26.247  1.00  0.00    -0.170 NA
ATOM      3  C   UNL     1      15.217   2.388  25.803  1.00  0.00     0.104 A 
ATOM      4  C   UNL     1      15.878   1.257  26.370  1.00  0.00     0.068 A 
ATOM      5  C   UNL     1      17.117   0.602  26.282  1.00  0.00     0.052 A 
ATOM      6  C   UNL     1      18.251   1.002  25.390  1.00  0.00     0.067 C 
ATOM      7  N   UNL     1      17.321  -0.489  27.074  1.00  0.00    -0.241 NA
ATOM      8  C   UNL     1      16.327  -0.908  27.880  1.00  0.00     0.224 A 
ATOM      9  N   UNL     1      15.104  -0.374  28.017  1.00  0.00    -0.217 NA
ATOM     10  C   UNL     1      14.944   0.705  27.230  1.00  0.00     0.162 A 
ENDROOT
BRANCH   1  11
ATOM     11  C   UNL     1      12.555   1.263  27.832  1.00  0.00     0.114 C 
ATOM     12  N   UNL     1      11.426   1.859  30.363  1.00  0.00    -0.333 N 
ATOM     13  C   UNL     1      12.638   1.066  30.409  1.00  0.00     0.088 C 
ATOM     14  C   UNL     1      11.742   3.028  29.562  1.00  0.00     0.088 C 
ATOM     15  C   UNL     1      13.735   2.116  30.603  1.00  0.00     0.027 C 
ATOM     16  C   UNL     1      12.754   0.339  29.061  1.00  0.00     0.052 C 
ATOM     17  C   UNL     1      13.117   3.425  30.096  1.00  0.00     0.027 C 
ATOM     18  C   UNL     1      11.763   2.576  28.092  1.00  0.00     0.052 C 
BRANCH  12  19
ATOM     19  C   UNL     1      10.218   1.369  30.792  1.00  0.00     0.246 C 
ATOM     20  O   UNL     1       9.995   0.166  30.906  1.00  0.00    -0.270 OA
BRANCH  19  21
ATOM     21  C   UNL     1       9.164   2.369  31.105  1.00  0.00     0.063 C 
ATOM     22  C   UNL     1       8.971   2.772  32.368  1.00  0.00     0.014 C 
ENDBRANCH  19  21
ENDBRANCH  12  19
ENDBRANCH   1  11
BRANCH   3  23
ATOM     23  C   UNL     1      15.727   3.370  24.855  1.00  0.00     0.007 A 
ATOM     24  C   UNL     1      14.938   3.804  23.786  1.00  0.00     0.053 A 
ATOM     25  C   UNL     1      17.039   3.847  24.984  1.00  0.00     0.035 A 
ATOM     26  C   UNL     1      15.450   4.734  22.884  1.00  0.00     0.167 A 
ATOM     27  C   UNL     1      17.545   4.777  24.071  1.00  0.00     0.087 A 
ATOM     28  C   UNL     1      16.741   5.246  23.031  1.00  0.00     0.181 A 
ATOM     29  F   UNL     1      14.679   5.116  21.857  1.00  0.00    -0.203 F 
ATOM     30  Cl  UNL     1      19.166   5.333  24.275  1.00  0.00    -0.080 Cl
BRANCH  28  31
ATOM     31  O   UNL     1      17.252   6.144  22.122  1.00  0.00    -0.453 OA
BRANCH  31  32
ATOM     32  C   UNL     1      17.031   7.479  22.398  1.00  0.00     0.129 A 
ATOM     33  C   UNL     1      18.156   8.307  22.422  1.00  0.00     0.049 A 
ATOM     34  C   UNL     1      15.759   7.976  22.710  1.00  0.00     0.077 A 
ATOM     35  C   UNL     1      18.048   9.670  22.718  1.00  0.00     0.032 A 
ATOM     36  C   UNL     1      15.634   9.341  23.010  1.00  0.00     0.092 A 
ATOM     37  C   UNL     1      16.766  10.154  23.003  1.00  0.00     0.068 A 
ATOM     38  N   UNL     1      14.510  10.060  23.337  1.00  0.00    -0.237 NA
ATOM     39  N   UNL     1      16.281  11.395  23.333  1.00  0.00    -0.334 N 
ATOM     40  C   UNL     1      14.933  11.290  23.525  1.00  0.00     0.200 A 
ATOM     41  C   UNL     1      17.056  12.603  23.460  1.00  0.00     0.151 C 
ENDBRANCH  31  32
ENDBRANCH  28  31
ENDBRANCH   3  23
TORSDOF 6
ENDMDL
MODEL 7
REMARK minimizedAffinity -9.7495966
REMARK CNNscore 0.548493683
REMARK CNNaffinity 8.49001217
REMARK SMILES C=CC(=O)N1[C@@H]2CC[C@H]1C[C@@H](n1nc(-c3cc(F)c(Oc4ccc5c(c4)ncn5C)c(Cl)c3)c3c(C)ncnc31)C2
REMARK SMILES IDX 12 1 13 2 14 3 34 4 35 5 36 6 37 7 38 8 39 9 40 10 11 11
REMARK SMILES IDX 5 12 6 13 9 14 7 15 41 16 8 17 10 18 3 19 4 20 2 21 1 22
REMARK SMILES IDX 15 23 16 24 33 25 17 26 31 27 19 28 18 29 32 30 20 31 21 32
REMARK SMILES IDX 22 33 26 34 23 35 25 36 24 37 27 38 29 39 28 40 30 41
REMARK H PARENT
ROOT
ATOM      1  N   UNL     1      13.965   1.624  27.225  1.00  0.00    -0.243 N 
ATOM      2  N   UNL     1      13.902   2.770  26.519  1.00  0.00    -0.170 NA
ATOM      3  C   UNL     1      15.105   2.872  25.934  1.00  0.00     0.104 A 
ATOM      4  C   UNL     1      15.935   1.753  26.243  1.00  0.00     0.068 A 
ATOM      5  C   UNL     1      17.212   1.262  25.924  1.00  0.00     0.052 A 
ATOM      6  C   UNL     1      18.187   1.913  24.993  1.00  0.00     0.067 C 
ATOM      7  N   UNL     1      17.613   0.097  26.508  1.00  0.00    -0.241 NA
ATOM      8  C   UNL     1      16.768  -0.545  27.337  1.00  0.00     0.224 A 
ATOM      9  N   UNL     1      15.525  -0.179  27.683  1.00  0.00    -0.217 NA
ATOM     10  C   UNL     1      15.169   0.978  27.098  1.00  0.00     0.162 A 
ENDROOT
BRANCH   1  11
ATOM     11  C   UNL     1      12.827   1.168  28.026  1.00  0.00     0.114 C 
ATOM     12  N   UNL     1      11.676   1.686  30.564  1.00  0.00    -0.333 N 
ATOM     13  C   UNL     1      13.050   1.229  30.602  1.00  0.00     0.088 C 
ATOM     14  C   UNL     1      11.655   2.821  29.658  1.00  0.00     0.088 C 
ATOM     15  C   UNL     1      13.850   2.533  30.651  1.00  0.00     0.027 C 
ATOM     16  C   UNL     1      13.298   0.437  29.309  1.00  0.00     0.052 C 
ATOM     17  C   UNL     1      12.903   3.596  30.081  1.00  0.00     0.027 C 
ATOM     18  C   UNL     1      11.738   2.259  28.229  1.00  0.00     0.052 C 
BRANCH  12  19
ATOM     19  C   UNL     1      10.648   0.951  31.098  1.00  0.00     0.246 C 
ATOM     20  O   UNL     1      10.245  -0.092  30.586  1.00  0.00    -0.270 OA
BRANCH  19  21
ATOM     21  C   UNL     1      10.017   1.481  32.335  1.00  0.00     0.063 C 
ATOM     22  C   UNL     1       9.138   2.490  32.264  1.00  0.00     0.014 C 
ENDBRANCH  19  21
ENDBRANCH  12  19
ENDBRANCH   1  11
BRANCH   3  23
ATOM     23  C   UNL     1      15.401   4.033  25.105  1.00  0.00     0.007 A 
ATOM     24  C   UNL     1      15.816   3.874  23.780  1.00  0.00     0.053 A 
ATOM     25  C   UNL     1      15.318   5.321  25.653  1.00  0.00     0.035 A 
ATOM     26  C   UNL     1      16.105   4.998  23.009  1.00  0.00     0.167 A 
ATOM     27  C   UNL     1      15.614   6.442  24.872  1.00  0.00     0.087 A 
ATOM     28  C   UNL     1      15.984   6.285  23.535  1.00  0.00     0.181 A 
ATOM     29  F   UNL     1      16.523   4.814  21.748  1.00  0.00    -0.203 F 
ATOM     30  Cl  UNL     1      15.495   8.004  25.596  1.00  0.00    -0.080 Cl
BRANCH  28  31
ATOM     31  O   UNL     1      16.297   7.391  22.778  1.00  0.00    -0.453 OA
BRANCH  31  32
ATOM     32  C   UNL     1      17.622   7.777  22.786  1.00  0.00     0.129 A 
ATOM     33  C   UNL     1      17.952   8.894  22.013  1.00  0.00     0.049 A 
ATOM     34  C   UNL     1      18.606   7.054  23.472  1.00  0.00     0.077 A 
ATOM     35  C   UNL     1      19.270   9.354  21.929  1.00  0.00     0.032 A 
ATOM     36  C   UNL     1      19.933   7.503  23.396  1.00  0.00     0.092 A 
ATOM     37  C   UNL     1      20.236   8.634  22.640  1.00  0.00     0.068 A 
ATOM     38  N   UNL     1      21.064   6.978  23.976  1.00  0.00    -0.237 NA
ATOM     39  N   UNL     1      21.594   8.776  22.790  1.00  0.00    -0.334 N 
ATOM     40  C   UNL     1      22.043   7.765  23.592  1.00  0.00     0.200 A 
ATOM     41  C   UNL     1      22.410   9.807  22.204  1.00  0.00     0.151 C 
ENDBRANCH  31  32
ENDBRANCH  28  31
ENDBRANCH   3  23
TORSDOF 6
ENDMDL
MODEL 8
REMARK minimizedAffinity -9.8747673
REMARK CNNscore 0.546437025
REMARK CNNaffinity 8.42119694
REMARK SMILES C=CC(=O)N1[C@@H]2CC[C@H]1C[C@@H](n1nc(-c3cc(F)c(Oc4ccc5c(c4)ncn5C)c(Cl)c3)c3c(C)ncnc31)C2
REMARK SMILES IDX 12 1 13 2 14 3 34 4 35 5 36 6 37 7 38 8 39 9 40 10 11 11
REMARK SMILES IDX 5 12 6 13 9 14 7 15 41 16 8 17 10 18 3 19 4 20 2 21 1 22
REMARK SMILES IDX 15 23 16 24 33 25 17 26 31 27 19 28 18 29 32 30 20 31 21 32
REMARK SMILES IDX 22 33 26 34 23 35 25 36 24 37 27 38 29 39 28 40 30 41
REMARK H PARENT
ROOT
ATOM      1  N   UNL     1      13.896   1.873  27.027  1.00  0.00    -0.243 N 
ATOM      2  N   UNL     1      13.977   3.044  26.367  1.00  0.00    -0.170 NA
ATOM      3  C   UNL     1      15.231   3.076  25.890  1.00  0.00     0.104 A 
ATOM      4  C   UNL     1      15.948   1.888  26.221  1.00  0.00     0.068 A 
ATOM      5  C   UNL     1      17.209   1.315  25.991  1.00  0.00     0.052 A 
ATOM      6  C   UNL     1      18.306   1.923  25.173  1.00  0.00     0.067 C 
ATOM      7  N   UNL     1      17.474   0.103  26.558  1.00  0.00    -0.241 NA
ATOM      8  C   UNL     1      16.516  -0.502  27.286  1.00  0.00     0.224 A 
ATOM      9  N   UNL     1      15.277  -0.057  27.541  1.00  0.00    -0.217 NA
ATOM     10  C   UNL     1      15.057   1.144  26.976  1.00  0.00     0.162 A 
ENDROOT
BRANCH   1  11
ATOM     11  C   UNL     1      12.663   1.477  27.711  1.00  0.00     0.114 C 
ATOM     12  N   UNL     1      11.507   1.679  30.291  1.00  0.00    -0.333 N 
ATOM     13  C   UNL     1      12.780   0.988  30.247  1.00  0.00     0.088 C 
ATOM     14  C   UNL     1      11.720   2.956  29.633  1.00  0.00     0.088 C 
ATOM     15  C   UNL     1      13.788   2.095  30.566  1.00  0.00     0.027 C 
ATOM     16  C   UNL     1      12.946   0.436  28.824  1.00  0.00     0.052 C 
ATOM     17  C   UNL     1      13.062   3.399  30.213  1.00  0.00     0.027 C 
ATOM     18  C   UNL     1      11.768   2.681  28.120  1.00  0.00     0.052 C 
BRANCH  12  19
ATOM     19  C   UNL     1      10.346   1.046  30.657  1.00  0.00     0.246 C 
ATOM     20  O   UNL     1      10.261  -0.177  30.750  1.00  0.00    -0.270 OA
BRANCH  19  21
ATOM     21  C   UNL     1       9.167   1.910  30.925  1.00  0.00     0.063 C 
ATOM     22  C   UNL     1       8.995   2.458  32.134  1.00  0.00     0.014 C 
ENDBRANCH  19  21
ENDBRANCH  12  19
ENDBRANCH   1  11
BRANCH   3  23
ATOM     23  C   UNL     1      15.680   4.240  25.137  1.00  0.00     0.007 A 
ATOM     24  C   UNL     1      15.756   5.496  25.746  1.00  0.00     0.053 A 
ATOM     25  C   UNL     1      15.992   4.113  23.776  1.00  0.00     0.035 A 
ATOM     26  C   UNL     1      16.177   6.598  25.004  1.00  0.00     0.167 A 
ATOM     27  C   UNL     1      16.408   5.225  23.039  1.00  0.00     0.087 A 
ATOM     28  C   UNL     1      16.529   6.470  23.659  1.00  0.00     0.181 A 
ATOM     29  F   UNL     1      16.219   7.793  25.608  1.00  0.00    -0.203 F 
ATOM     30  Cl  UNL     1      16.780   5.013  21.367  1.00  0.00    -0.080 Cl
BRANCH  28  31
ATOM     31  O   UNL     1      16.918   7.566  22.923  1.00  0.00    -0.453 OA
BRANCH  31  32
ATOM     32  C   UNL     1      18.264   7.871  22.955  1.00  0.00     0.129 A 
ATOM     33  C   UNL     1      18.661   9.018  22.262  1.00  0.00     0.049 A 
ATOM     34  C   UNL     1      19.203   7.044  23.585  1.00  0.00     0.077 A 
ATOM     35  C   UNL     1      20.005   9.404  22.206  1.00  0.00     0.032 A 
ATOM     36  C   UNL     1      20.554   7.417  23.537  1.00  0.00     0.092 A 
ATOM     37  C   UNL     1      20.925   8.578  22.861  1.00  0.00     0.068 A 
ATOM     38  N   UNL     1      21.651   6.786  24.075  1.00  0.00    -0.237 NA
ATOM     39  N   UNL     1      22.289   8.629  23.017  1.00  0.00    -0.334 N 
ATOM     40  C   UNL     1      22.676   7.539  23.745  1.00  0.00     0.200 A 
ATOM     41  C   UNL     1      23.165   9.649  22.503  1.00  0.00     0.151 C 
ENDBRANCH  31  32
ENDBRANCH  28  31
ENDBRANCH   3  23
TORSDOF 6
ENDMDL
MODEL 9
REMARK minimizedAffinity -8.26639748
REMARK CNNscore 0.478399038
REMARK CNNaffinity 8.24338627
REMARK SMILES C=CC(=O)N1[C@@H]2CC[C@H]1C[C@@H](n1nc(-c3cc(F)c(Oc4ccc5c(c4)ncn5C)c(Cl)c3)c3c(C)ncnc31)C2
REMARK SMILES IDX 12 1 13 2 14 3 34 4 35 5 36 6 37 7 38 8 39 9 40 10 11 11
REMARK SMILES IDX 5 12 6 13 9 14 7 15 41 16 8 17 10 18 3 19 4 20 2 21 1 22
REMARK SMILES IDX 15 23 16 24 33 25 17 26 31 27 19 28 18 29 32 30 20 31 21 32
REMARK SMILES IDX 22 33 26 34 23 35 25 36 24 37 27 38 29 39 28 40 30 41
REMARK H PARENT
ROOT
ATOM      1  N   UNL     1      14.559   1.505  28.030  1.00  0.00    -0.243 N 
ATOM      2  N   UNL     1      14.457   2.612  27.270  1.00  0.00    -0.170 NA
ATOM      3  C   UNL     1      15.430   2.483  26.355  1.00  0.00     0.104 A 
ATOM      4  C   UNL     1      16.140   1.256  26.514  1.00  0.00     0.068 A 
ATOM      5  C   UNL     1      17.175   0.544  25.887  1.00  0.00     0.052 A 
ATOM      6  C   UNL     1      17.911   0.979  24.657  1.00  0.00     0.067 C 
ATOM      7  N   UNL     1      17.557  -0.645  26.435  1.00  0.00    -0.241 NA
ATOM      8  C   UNL     1      16.915  -1.098  27.529  1.00  0.00     0.224 A 
ATOM      9  N   UNL     1      15.901  -0.513  28.184  1.00  0.00    -0.217 NA
ATOM     10  C   UNL     1      15.560   0.660  27.622  1.00  0.00     0.162 A 
ENDROOT
BRANCH   1  11
ATOM     11  C   UNL     1      13.660   1.284  29.165  1.00  0.00     0.114 C 
ATOM     12  N   UNL     1      11.160   2.230  30.108  1.00  0.00    -0.333 N 
ATOM     13  C   UNL     1      12.173   3.251  29.942  1.00  0.00     0.088 C 
ATOM     14  C   UNL     1      11.090   1.524  28.841  1.00  0.00     0.088 C 
ATOM     15  C   UNL     1      11.896   3.793  28.537  1.00  0.00     0.027 C 
ATOM     16  C   UNL     1      13.538   2.555  30.043  1.00  0.00     0.052 C 
ATOM     17  C   UNL     1      11.127   2.669  27.830  1.00  0.00     0.027 C 
ATOM     18  C   UNL     1      12.319   0.603  28.768  1.00  0.00     0.052 C 
BRANCH  12  19
ATOM     19  C   UNL     1      10.640   1.912  31.337  1.00  0.00     0.246 C 
ATOM     20  O   UNL     1       9.733   2.556  31.859  1.00  0.00    -0.270 OA
BRANCH  19  21
ATOM     21  C   UNL     1      11.240   0.745  32.036  1.00  0.00     0.063 C 
ATOM     22  C   UNL     1      12.219   0.926  32.931  1.00  0.00     0.014 C 
ENDBRANCH  19  21
ENDBRANCH  12  19
ENDBRANCH   1  11
BRANCH   3  23
ATOM     23  C   UNL     1      15.632   3.540  25.372  1.00  0.00     0.007 A 
ATOM     24  C   UNL     1      14.914   3.542  24.172  1.00  0.00     0.053 A 
ATOM     25  C   UNL     1      16.589   4.537  25.605  1.00  0.00     0.035 A 
ATOM     26  C   UNL     1      15.131   4.555  23.241  1.00  0.00     0.167 A 
ATOM     27  C   UNL     1      16.802   5.547  24.662  1.00  0.00     0.087 A 
ATOM     28  C   UNL     1      16.053   5.575  23.485  1.00  0.00     0.181 A 
ATOM     29  F   UNL     1      14.444   4.519  22.090  1.00  0.00    -0.203 F 
ATOM     30  Cl  UNL     1      17.993   6.750  25.000  1.00  0.00    -0.080 Cl
BRANCH  28  31
ATOM     31  O   UNL     1      16.283   6.558  22.551  1.00  0.00    -0.453 OA
BRANCH  31  32
ATOM     32  C   UNL     1      17.500   6.505  21.901  1.00  0.00     0.129 A 
ATOM     33  C   UNL     1      18.000   5.233  21.612  1.00  0.00     0.049 A 
ATOM     34  C   UNL     1      18.239   7.658  21.606  1.00  0.00     0.077 A 
ATOM     35  C   UNL     1      19.237   5.065  20.981  1.00  0.00     0.032 A 
ATOM     36  C   UNL     1      19.482   7.506  20.974  1.00  0.00     0.092 A 
ATOM     37  C   UNL     1      19.950   6.229  20.672  1.00  0.00     0.068 A 
ATOM     38  N   UNL     1      20.381   8.469  20.580  1.00  0.00    -0.237 NA
ATOM     39  N   UNL     1      21.165   6.456  20.074  1.00  0.00    -0.334 N 
ATOM     40  C   UNL     1      21.380   7.805  20.044  1.00  0.00     0.200 A 
ATOM     41  C   UNL     1      22.063   5.451  19.567  1.00  0.00     0.151 C 
ENDBRANCH  31  32
ENDBRANCH  28  31
ENDBRANCH   3  23
TORSDOF 6
ENDMDL
