REMARK SMILES CC(C)c1ccc(NC(=O)Oc2ccc3c(c2)[C@]2(C)CCO[C@@H]2N3C)cc1
REMARK SMILES IDX 8 1 9 2 10 3 7 5 4 6 5 7 27 8 6 9 26 10 2 11 1 12 3 13 11 14
REMARK SMILES IDX 12 15 13 16 17 17 14 18 16 19 15 20 18 21 24 22 20 23 23 24
REMARK SMILES IDX 21 25 22 26 19 27 25 28
REMARK H PARENT 8 4
REMARK INDEX MAP 8 1 9 2 10 3 37 4 7 5 4 6 5 7 27 8 6 9 26 10 2 11 1 12 3 13
REMARK INDEX MAP 11 14 12 15 13 16 17 17 14 18 16 19 15 20 18 21 24 22 20 23
REMARK INDEX MAP 23 24 21 25 22 26 19 27 25 28
ROOT
ATOM      1  N   UNL     1     -14.474 -44.354  25.727  1.00  0.00    -0.291 N 
ATOM      2  C   UNL     1     -14.641 -43.056  25.319  1.00  0.00     0.417 C 
ATOM      3  O   UNL     1     -14.397 -42.039  25.954  1.00  0.00    -0.224 OA
ATOM      4  H   UNL     1     -14.739 -45.076  25.042  1.00  0.00     0.173 HD
ENDROOT
BRANCH   1   5
ATOM      5  C   UNL     1     -13.988 -44.828  26.957  1.00  0.00     0.044 A 
ATOM      6  C   UNL     1     -13.118 -45.677  29.513  1.00  0.00    -0.045 A 
ATOM      7  C   UNL     1     -14.114 -44.700  29.383  1.00  0.00     0.006 A 
ATOM      8  C   UNL     1     -12.565 -46.219  28.344  1.00  0.00     0.006 A 
ATOM      9  C   UNL     1     -14.543 -44.282  28.119  1.00  0.00     0.026 A 
ATOM     10  C   UNL     1     -12.996 -45.799  27.080  1.00  0.00     0.026 A 
BRANCH   6  11
ATOM     11  C   UNL     1     -12.632 -46.151  30.870  1.00  0.00     0.013 C 
ATOM     12  C   UNL     1     -11.104 -46.176  30.944  1.00  0.00     0.012 C 
ATOM     13  C   UNL     1     -13.220 -45.306  32.004  1.00  0.00     0.012 C 
ENDBRANCH   6  11
ENDBRANCH   1   5
BRANCH   2  14
ATOM     14  O   UNL     1     -15.150 -43.080  24.021  1.00  0.00    -0.410 OA
BRANCH  14  15
ATOM     15  C   UNL     1     -16.439 -42.559  23.835  1.00  0.00     0.133 A 
ATOM     16  C   UNL     1     -16.649 -41.760  22.705  1.00  0.00     0.049 A 
ATOM     17  C   UNL     1     -17.442 -42.759  24.782  1.00  0.00     0.054 A 
ATOM     18  C   UNL     1     -17.899 -41.170  22.488  1.00  0.00     0.030 A 
ATOM     19  C   UNL     1     -18.676 -42.169  24.542  1.00  0.00    -0.010 A 
ATOM     20  C   UNL     1     -18.915 -41.382  23.406  1.00  0.00     0.043 A 
ATOM     21  C   UNL     1     -19.933 -42.246  25.374  1.00  0.00     0.042 C 
ATOM     22  N   UNL     1     -20.209 -40.899  23.375  1.00  0.00    -0.348 N 
ATOM     23  C   UNL     1     -20.499 -43.649  25.505  1.00  0.00     0.045 C 
ATOM     24  C   UNL     1     -20.960 -41.544  24.444  1.00  0.00     0.225 C 
ATOM     25  C   UNL     1     -21.252 -43.834  24.204  1.00  0.00     0.164 C 
ATOM     26  O   UNL     1     -21.821 -42.557  23.895  1.00  0.00    -0.357 OA
ATOM     27  C   UNL     1     -19.747 -41.537  26.712  1.00  0.00     0.021 C 
ATOM     28  C   UNL     1     -20.858 -40.361  22.208  1.00  0.00     0.146 C 
ENDBRANCH  14  15
ENDBRANCH   2  14
TORSDOF 4
