MODEL 4
REMARK VINA RESULT:    -6.121      3.402      7.771
REMARK INTER + INTRA:         -12.632
REMARK INTER:                 -11.400
REMARK INTRA:                  -1.232
REMARK UNBOUND:                -1.501
REMARK SMILES CN1C/C=C/COCc2ccc(s2)-c2ccnc(n2)Nc2ccc(OCCN3CCCC3)c(c2)C1
REMARK SMILES IDX 20 1 21 3 33 4 24 5 34 6 23 7 22 8 35 9 2 10 1 11 3 12 4 13
REMARK SMILES IDX 5 14 25 16 26 17 27 18 28 19 29 20 32 21 30 22 31 23 18 24
REMARK SMILES IDX 17 25 19 26 16 27 14 28 15 29 12 30 11 31 13 32 10 33 9 34
REMARK SMILES IDX 8 35 7 36 6 37
REMARK H PARENT 20 2
REMARK Flexibility Score:  104.900
ROOT
ATOM      1  N   UNL     1      -6.291  26.908 -32.452  1.00  0.00    -0.324 N 
ATOM      2  H   UNL     1      -7.014  27.350 -33.001  1.00  0.00     0.170 HD
ENDROOT
BRANCH   1   3
ATOM      3  C   UNL     1      -5.548  27.736 -31.607  1.00  0.00     0.041 A 
ATOM      4  C   UNL     1      -4.013  28.173 -29.740  1.00  0.00     0.010 A 
ATOM      5  C   UNL     1      -4.123  29.559 -29.952  1.00  0.00     0.124 A 
ATOM      6  C   UNL     1      -4.737  27.281 -30.565  1.00  0.00     0.035 A 
ATOM      7  C   UNL     1      -4.946  30.023 -30.977  1.00  0.00     0.049 A 
ATOM      8  C   UNL     1      -5.646  29.122 -31.788  1.00  0.00     0.030 A 
BRANCH   4   9
ATOM      9  C   UNL     1      -3.086  27.608 -28.675  1.00  0.00     0.124 C 
BRANCH   9  10
ATOM     10  N   UNL     1      -3.754  27.217 -27.414  1.00  0.00    -0.298 NA
ATOM     11  C   UNL     1      -4.123  28.402 -26.636  1.00  0.00     0.106 C 
BRANCH  10  12
ATOM     12  C   UNL     1      -2.861  26.331 -26.653  1.00  0.00     0.111 C 
BRANCH  12  13
ATOM     13  C   UNL     1      -2.826  24.930 -27.200  1.00  0.00    -0.014 C 
ATOM     14  C   UNL     1      -1.847  24.049 -26.932  1.00  0.00    -0.002 CG0
ATOM     15  G   UNL     1      -1.788  22.650 -27.464  1.00  0.00     0.000 G0
ENDBRANCH  12  13
ENDBRANCH  10  12
ENDBRANCH   9  10
ENDBRANCH   4   9
BRANCH   5  16
ATOM     16  O   UNL     1      -3.378  30.361 -29.130  1.00  0.00    -0.492 OA
BRANCH  16  17
ATOM     17  C   UNL     1      -3.538  31.781 -29.205  1.00  0.00     0.245 C 
BRANCH  17  18
ATOM     18  C   UNL     1      -3.044  32.455 -27.911  1.00  0.00     0.126 C 
BRANCH  18  19
ATOM     19  N   UNL     1      -4.039  33.047 -27.016  1.00  0.00    -0.300 NA
ATOM     20  C   UNL     1      -4.863  32.093 -26.283  1.00  0.00     0.084 C 
ATOM     21  C   UNL     1      -4.971  33.974 -27.649  1.00  0.00     0.084 C 
ATOM     22  C   UNL     1      -5.922  32.987 -25.652  1.00  0.00     0.017 C 
ATOM     23  C   UNL     1      -5.988  34.224 -26.544  1.00  0.00     0.017 C 
ENDBRANCH  18  19
ENDBRANCH  17  18
ENDBRANCH  16  17
ENDBRANCH   5  16
ENDBRANCH   1   3
BRANCH   1  24
ATOM     24  C   UNL     1      -6.231  25.567 -32.811  1.00  0.00     0.227 A 
ATOM     25  N   UNL     1      -6.912  25.265 -33.932  1.00  0.00    -0.221 NA
ATOM     26  N   UNL     1      -5.579  24.655 -32.084  1.00  0.00    -0.212 NA
ATOM     27  C   UNL     1      -6.924  23.980 -34.323  1.00  0.00     0.117 A 
ATOM     28  C   UNL     1      -5.623  23.371 -32.499  1.00  0.00     0.086 A 
ATOM     29  C   UNL     1      -6.295  22.978 -33.635  1.00  0.00     0.050 A 
BRANCH  28  30
ATOM     30  C   UNL     1      -4.945  22.388 -31.645  1.00  0.00     0.053 A 
ATOM     31  C   UNL     1      -4.682  21.053 -31.902  1.00  0.00     0.022 A 
ATOM     32  S   UNL     1      -4.333  22.843 -30.108  1.00  0.00    -0.136 S 
ATOM     33  C   UNL     1      -4.006  20.407 -30.826  1.00  0.00     0.018 A 
ATOM     34  C   UNL     1      -3.758  21.264 -29.776  1.00  0.00     0.031 A 
BRANCH  34  35
ATOM     35  C   UNL     1      -3.105  20.959 -28.466  1.00  0.00     0.207 C 
BRANCH  35  36
ATOM     36  O   UNL     1      -3.081  22.181 -27.735  1.00  0.00    -0.372 OA
BRANCH  36  37
ATOM     37  C   UNL     1      -1.775  22.665 -27.453  1.00  0.00     0.188 CG0
ATOM     38  G   UNL     1      -1.831  24.066 -26.928  1.00  0.00     0.000 G0
ENDBRANCH  36  37
ENDBRANCH  35  36
ENDBRANCH  34  35
ENDBRANCH  28  30
ENDBRANCH   1  24
TORSDOF 4
ENDMDL
