MODEL 6
REMARK minimizedAffinity -9.40210629
REMARK CNNscore 0.585277557
REMARK CNNaffinity 8.23526669
REMARK SMILES C=CC(=O)N1[C@@H]2CC[C@H]1C[C@@H](n1nc(-c3ccc(Oc4ccc5c(c4)ncn5C)c(Cl)c3)c3c(C)ncnc31)C2
REMARK SMILES IDX 12 1 13 2 14 3 33 4 34 5 35 6 36 7 37 8 38 9 39 10 11 11
REMARK SMILES IDX 5 12 9 13 6 14 8 15 10 16 40 17 7 18 3 19 4 20 2 21 1 22
REMARK SMILES IDX 15 23 32 24 16 25 30 26 17 27 18 28 31 29 19 30 20 31 25 32
REMARK SMILES IDX 21 33 24 34 22 35 23 36 26 37 28 38 27 39 29 40
REMARK H PARENT
ROOT
ATOM      1  N   UNL     1      14.033   1.420  27.139  1.00  0.00    -0.243 N 
ATOM      2  N   UNL     1      14.406   2.553  26.505  1.00  0.00    -0.170 NA
ATOM      3  C   UNL     1      15.664   2.446  26.146  1.00  0.00     0.104 A 
ATOM      4  C   UNL     1      16.205   1.204  26.617  1.00  0.00     0.068 A 
ATOM      5  C   UNL     1      17.431   0.505  26.637  1.00  0.00     0.052 A 
ATOM      6  C   UNL     1      18.735   1.018  26.054  1.00  0.00     0.067 C 
ATOM      7  N   UNL     1      17.514  -0.721  27.221  1.00  0.00    -0.241 NA
ATOM      8  C   UNL     1      16.385  -1.223  27.784  1.00  0.00     0.224 A 
ATOM      9  N   UNL     1      15.157  -0.642  27.843  1.00  0.00    -0.217 NA
ATOM     10  C   UNL     1      15.113   0.559  27.251  1.00  0.00     0.162 A 
ENDROOT
BRANCH   1  11
ATOM     11  C   UNL     1      12.660   1.229  27.652  1.00  0.00     0.114 C 
ATOM     12  N   UNL     1      11.375   2.098  30.092  1.00  0.00    -0.333 N 
ATOM     13  C   UNL     1      11.892   3.180  29.227  1.00  0.00     0.088 C 
ATOM     14  C   UNL     1      12.449   1.100  30.280  1.00  0.00     0.088 C 
ATOM     15  C   UNL     1      13.310   3.349  29.797  1.00  0.00     0.027 C 
ATOM     16  C   UNL     1      11.886   2.577  27.785  1.00  0.00     0.052 C 
ATOM     17  C   UNL     1      12.519   0.322  28.922  1.00  0.00     0.052 C 
ATOM     18  C   UNL     1      13.632   2.046  30.532  1.00  0.00     0.027 C 
BRANCH  12  19
ATOM     19  C   UNL     1      10.033   1.857  30.190  1.00  0.00     0.246 C 
ATOM     20  O   UNL     1       9.315   1.780  29.189  1.00  0.00    -0.270 OA
BRANCH  19  21
ATOM     21  C   UNL     1       9.467   1.749  31.524  1.00  0.00     0.063 C 
ATOM     22  C   UNL     1       9.628   2.703  32.460  1.00  0.00     0.014 C 
ENDBRANCH  19  21
ENDBRANCH  12  19
ENDBRANCH   1  11
BRANCH   3  23
ATOM     23  C   UNL     1      16.322   3.530  25.363  1.00  0.00     0.005 A 
ATOM     24  C   UNL     1      17.030   3.229  24.194  1.00  0.00     0.035 A 
ATOM     25  C   UNL     1      16.232   4.860  25.783  1.00  0.00     0.014 A 
ATOM     26  C   UNL     1      17.640   4.243  23.453  1.00  0.00     0.084 A 
ATOM     27  C   UNL     1      16.840   5.876  25.045  1.00  0.00     0.049 A 
ATOM     28  C   UNL     1      17.548   5.572  23.880  1.00  0.00     0.146 A 
ATOM     29  Cl  UNL     1      18.510   3.836  22.016  1.00  0.00    -0.080 Cl
BRANCH  28  30
ATOM     30  O   UNL     1      18.144   6.582  23.159  1.00  0.00    -0.456 OA
BRANCH  30  31
ATOM     31  C   UNL     1      17.566   7.062  22.001  1.00  0.00     0.129 A 
ATOM     32  C   UNL     1      18.438   7.522  21.011  1.00  0.00     0.077 A 
ATOM     33  C   UNL     1      16.176   7.135  21.802  1.00  0.00     0.049 A 
ATOM     34  C   UNL     1      17.904   8.037  19.823  1.00  0.00     0.092 A 
ATOM     35  C   UNL     1      15.610   7.642  20.630  1.00  0.00     0.032 A 
ATOM     36  C   UNL     1      16.497   8.088  19.647  1.00  0.00     0.068 A 
ATOM     37  N   UNL     1      18.559   8.534  18.727  1.00  0.00    -0.237 NA
ATOM     38  N   UNL     1      16.331   8.641  18.393  1.00  0.00    -0.334 N 
ATOM     39  C   UNL     1      17.599   8.880  17.909  1.00  0.00     0.200 A 
ATOM     40  C   UNL     1      15.077   8.927  17.717  1.00  0.00     0.151 C 
ENDBRANCH  30  31
ENDBRANCH  28  30
ENDBRANCH   3  23
TORSDOF 6
ENDMDL
