REMARK VINA RESULT:    -8.205      2.643      8.565
REMARK INTER + INTRA:         -12.442
REMARK INTER:                 -11.230
REMARK INTRA:                  -1.211
REMARK UNBOUND:                -0.879
REMARK SMILES c1ccc(-n2cnnn2)c(Cc2nc3c(NCC[C@H]4CCCCN4)nccc3o2)c1
REMARK SMILES IDX 16 1 15 3 12 4 13 5 29 6 14 7 28 8 27 9 25 10 26 11 11 12
REMARK SMILES IDX 10 13 1 14 2 15 30 16 3 17 4 18 5 19 6 20 9 21 7 22 8 23
REMARK SMILES IDX 17 24 18 25 19 26 20 27 24 28 21 29 23 30 22 31
REMARK H PARENT 16 2 24 32
ROOT
ATOM      1  N   UNL     1     128.874 -15.605 164.203  1.00  0.00    -0.368 N 
ATOM      2  H   UNL     1     128.690 -15.124 165.074  1.00  0.00     0.162 HD
ENDROOT
BRANCH   1   3
ATOM      3  C   UNL     1     130.152 -15.516 163.697  1.00  0.00     0.155 A 
ATOM      4  C   UNL     1     132.424 -17.860 165.016  1.00  0.00     0.200 A 
ATOM      5  N   UNL     1     131.176 -17.427 165.042  1.00  0.00    -0.209 NA
ATOM      6  O   UNL     1     133.244 -17.195 164.144  1.00  0.00    -0.440 OA
ATOM      7  C   UNL     1     131.174 -16.390 164.126  1.00  0.00     0.152 A 
ATOM      8  C   UNL     1     132.438 -16.251 163.580  1.00  0.00     0.160 A 
ATOM      9  C   UNL     1     132.794 -15.314 162.632  1.00  0.00     0.070 A 
ATOM     10  N   UNL     1     130.475 -14.575 162.761  1.00  0.00    -0.237 NA
ATOM     11  C   UNL     1     131.737 -14.498 162.266  1.00  0.00     0.117 A 
BRANCH   4  12
ATOM     12  C   UNL     1     133.035 -18.971 165.801  1.00  0.00     0.135 C 
BRANCH  12  13
ATOM     13  C   UNL     1     134.555 -18.906 165.823  1.00  0.00    -0.013 A 
ATOM     14  C   UNL     1     136.606 -20.088 165.168  1.00  0.00     0.000 A 
ATOM     15  C   UNL     1     137.374 -19.129 165.811  1.00  0.00     0.002 A 
ATOM     16  C   UNL     1     135.218 -19.978 165.178  1.00  0.00     0.006 A 
ATOM     17  C   UNL     1     136.753 -18.064 166.466  1.00  0.00     0.029 A 
ATOM     18  C   UNL     1     135.345 -17.931 166.485  1.00  0.00     0.072 A 
BRANCH  18  19
ATOM     19  N   UNL     1     134.795 -16.808 167.170  1.00  0.00    -0.200 N 
ATOM     20  C   UNL     1     134.355 -16.717 168.473  1.00  0.00     0.252 A 
ATOM     21  N   UNL     1     134.651 -15.584 166.621  1.00  0.00    -0.040 NA
ATOM     22  N   UNL     1     133.951 -15.492 168.722  1.00  0.00    -0.117 NA
ATOM     23  N   UNL     1     134.140 -14.801 167.559  1.00  0.00    -0.024 NA
ENDBRANCH  18  19
ENDBRANCH  12  13
ENDBRANCH   4  12
ENDBRANCH   1   3
BRANCH   1  24
ATOM     24  C   UNL     1     127.823 -16.341 163.531  1.00  0.00     0.116 C 
BRANCH  24  25
ATOM     25  C   UNL     1     127.231 -15.515 162.386  1.00  0.00     0.040 C 
BRANCH  25  26
ATOM     26  C   UNL     1     126.418 -14.306 162.880  1.00  0.00     0.055 C 
ATOM     27  C   UNL     1     125.468 -14.741 164.010  1.00  0.00     0.019 C 
ATOM     28  N   UNL     1     127.311 -13.230 163.336  1.00  0.00    -0.314 NA
ATOM     29  C   UNL     1     124.681 -13.557 164.565  1.00  0.00     0.003 C 
ATOM     30  C   UNL     1     126.561 -12.068 163.812  1.00  0.00     0.081 C 
ATOM     31  C   UNL     1     125.623 -12.426 164.961  1.00  0.00     0.015 C 
ATOM     32  H   UNL     1     127.902 -13.584 164.091  1.00  0.00     0.122 HD
ENDBRANCH  25  26
ENDBRANCH  24  25
ENDBRANCH   1  24
TORSDOF 7
