REMARK SMILES C#CCNCC(=O)Nc1ccc2nc3n(c(=O)c2c1)CCC3
REMARK SMILES IDX 4 1 3 3 2 4 1 5 5 6 6 7 7 8 8 9 9 11 10 12 19 13 11 14 18 15
REMARK SMILES IDX 12 16 16 17 13 18 15 19 17 20 14 21 20 22 22 23 21 24
REMARK H PARENT 4 2 8 10
REMARK INDEX MAP 4 1 26 2 3 3 2 4 1 5 5 6 6 7 7 8 8 9 29 10 9 11 10 12 19 13
REMARK INDEX MAP 11 14 18 15 12 16 16 17 13 18 15 19 17 20 14 21 20 22 22 23
REMARK INDEX MAP 21 24
ROOT
ATOM      1  N   UNL     1     -14.551 -44.543  25.577  1.00  0.00    -0.298 NA
ATOM      2  H   UNL     1     -14.287 -45.469  25.212  1.00  0.00     0.124 HD
ENDROOT
BRANCH   1   3
ATOM      3  C   UNL     1     -14.041 -44.406  26.944  1.00  0.00     0.171 C 
ATOM      4  C   UNL     1     -13.129 -45.499  27.300  1.00  0.00    -0.091 C 
ATOM      5  C   UNL     1     -12.383 -46.394  27.591  1.00  0.00     0.005 C 
ENDBRANCH   1   3
BRANCH   1   6
ATOM      6  C   UNL     1     -13.995 -43.496  24.686  1.00  0.00     0.183 C 
BRANCH   6   7
ATOM      7  C   UNL     1     -15.112 -42.560  24.195  1.00  0.00     0.238 C 
ATOM      8  O   UNL     1     -14.855 -41.565  23.523  1.00  0.00    -0.273 OA
ATOM      9  N   UNL     1     -16.358 -42.956  24.646  1.00  0.00    -0.325 N 
ATOM     10  H   UNL     1     -16.376 -43.818  25.209  1.00  0.00     0.169 HD
BRANCH   9  11
ATOM     11  C   UNL     1     -17.602 -42.339  24.438  1.00  0.00     0.042 A 
ATOM     12  C   UNL     1     -18.652 -42.373  25.359  1.00  0.00     0.028 A 
ATOM     13  C   UNL     1     -17.782 -41.656  23.232  1.00  0.00     0.042 A 
ATOM     14  C   UNL     1     -19.868 -41.733  25.081  1.00  0.00     0.031 A 
ATOM     15  C   UNL     1     -19.000 -41.019  22.962  1.00  0.00     0.068 A 
ATOM     16  C   UNL     1     -20.057 -41.049  23.882  1.00  0.00     0.078 A 
ATOM     17  C   UNL     1     -19.202 -40.293  21.689  1.00  0.00     0.261 A 
ATOM     18  N   UNL     1     -21.295 -40.419  23.649  1.00  0.00    -0.234 NA
ATOM     19  N   UNL     1     -20.448 -39.735  21.548  1.00  0.00    -0.296 N 
ATOM     20  O   UNL     1     -18.308 -40.209  20.854  1.00  0.00    -0.269 OA
ATOM     21  C   UNL     1     -21.424 -39.813  22.520  1.00  0.00     0.112 A 
ATOM     22  C   UNL     1     -20.888 -38.968  20.415  1.00  0.00     0.128 C 
ATOM     23  C   UNL     1     -22.637 -39.064  22.061  1.00  0.00     0.077 C 
ATOM     24  C   UNL     1     -22.403 -38.968  20.555  1.00  0.00     0.030 C 
ENDBRANCH   9  11
ENDBRANCH   6   7
ENDBRANCH   1   6
TORSDOF 4
