MODEL 9
REMARK VINA RESULT:    -8.258      4.101      8.421
REMARK INTER + INTRA:         -14.504
REMARK INTER:                 -11.970
REMARK INTRA:                  -2.533
REMARK UNBOUND:                -1.660
REMARK SMILES CNC(=O)c1n[nH]c2nc(-c3cc(F)c(O)cc3CC(F)(F)F)nc(NCc3nccnc3N(C)S(C)(=O)=O)c12
REMARK SMILES IDX 26 1 25 3 5 4 6 5 40 6 7 7 8 8 24 9 9 10 10 11 3 13 2 14
REMARK SMILES IDX 4 15 1 16 11 18 12 19 18 20 13 21 17 22 15 23 14 24 19 25
REMARK SMILES IDX 20 26 21 27 22 28 23 29 16 30 27 32 28 33 29 34 33 35 30 36
REMARK SMILES IDX 32 37 31 38 34 39 35 40 36 41 38 42 39 43 37 44
REMARK H PARENT 26 2 7 12 2 17 16 31
ROOT
ATOM      1  N   UNL     1      -3.820  26.319 -28.771  1.00  0.00    -0.364 N 
ATOM      2  H   UNL     1      -3.880  26.116 -29.774  1.00  0.00     0.162 HD
ENDROOT
BRANCH   1   3
ATOM      3  C   UNL     1      -2.994  25.425 -28.095  1.00  0.00     0.142 A 
ATOM      4  C   UNL     1      -2.905  23.363 -29.746  1.00  0.00     0.163 A 
ATOM      5  N   UNL     1      -2.279  22.162 -29.663  1.00  0.00    -0.168 NA
ATOM      6  C   UNL     1      -2.664  24.159 -28.588  1.00  0.00     0.094 A 
ATOM      7  N   UNL     1      -1.649  22.218 -28.474  1.00  0.00    -0.260 N 
ATOM      8  C   UNL     1      -1.838  23.385 -27.800  1.00  0.00     0.162 A 
ATOM      9  N   UNL     1      -2.478  25.779 -26.889  1.00  0.00    -0.210 NA
ATOM     10  N   UNL     1      -1.311  23.703 -26.609  1.00  0.00    -0.209 NA
ATOM     11  C   UNL     1      -1.681  24.929 -26.201  1.00  0.00     0.164 A 
ATOM     12  H   UNL     1      -1.094  21.427 -28.173  1.00  0.00     0.192 HD
BRANCH   4  13
ATOM     13  C   UNL     1      -3.697  23.725 -30.933  1.00  0.00     0.272 C 
ATOM     14  N   UNL     1      -4.496  22.695 -31.384  1.00  0.00    -0.354 N 
ATOM     15  O   UNL     1      -3.649  24.828 -31.471  1.00  0.00    -0.267 OA
ATOM     16  C   UNL     1      -5.240  22.772 -32.608  1.00  0.00     0.143 C 
ATOM     17  H   UNL     1      -4.362  21.806 -30.908  1.00  0.00     0.163 HD
ENDBRANCH   4  13
BRANCH  11  18
ATOM     18  C   UNL     1      -1.151  25.430 -24.900  1.00  0.00     0.026 A 
ATOM     19  C   UNL     1      -1.917  25.175 -23.735  1.00  0.00     0.055 A 
ATOM     20  C   UNL     1       0.071  26.146 -24.724  1.00  0.00    -0.024 A 
ATOM     21  C   UNL     1      -1.509  25.594 -22.473  1.00  0.00     0.165 A 
ATOM     22  C   UNL     1       0.470  26.557 -23.427  1.00  0.00     0.054 A 
ATOM     23  C   UNL     1      -0.318  26.282 -22.315  1.00  0.00     0.151 A 
ATOM     24  F   UNL     1      -2.285  25.320 -21.414  1.00  0.00    -0.203 F 
BRANCH  20  25
ATOM     25  C   UNL     1       1.027  26.486 -25.858  1.00  0.00     0.151 C 
BRANCH  25  26
ATOM     26  C   UNL     1       0.816  27.863 -26.469  1.00  0.00     0.393 C 
ATOM     27  F   UNL     1       1.396  28.809 -25.687  1.00  0.00    -0.171 F 
ATOM     28  F   UNL     1       1.400  27.948 -27.688  1.00  0.00    -0.171 F 
ATOM     29  F   UNL     1      -0.482  28.196 -26.606  1.00  0.00    -0.171 F 
ENDBRANCH  25  26
ENDBRANCH  20  25
BRANCH  23  30
ATOM     30  O   UNL     1       0.063  26.679 -21.066  1.00  0.00    -0.505 OA
ATOM     31  H   UNL     1      -0.459  27.451 -20.797  1.00  0.00     0.293 HD
ENDBRANCH  23  30
ENDBRANCH  11  18
ENDBRANCH   1   3
BRANCH   1  32
ATOM     32  C   UNL     1      -3.550  27.726 -28.487  1.00  0.00     0.175 C 
BRANCH  32  33
ATOM     33  C   UNL     1      -4.170  28.624 -29.536  1.00  0.00     0.103 A 
ATOM     34  N   UNL     1      -4.733  28.016 -30.625  1.00  0.00    -0.254 NA
ATOM     35  C   UNL     1      -4.201  30.017 -29.401  1.00  0.00     0.165 A 
ATOM     36  C   UNL     1      -5.278  28.831 -31.552  1.00  0.00     0.131 A 
ATOM     37  N   UNL     1      -4.755  30.831 -30.333  1.00  0.00    -0.235 NA
ATOM     38  C   UNL     1      -5.288  30.205 -31.409  1.00  0.00     0.133 A 
BRANCH  35  39
ATOM     39  N   UNL     1      -3.619  30.714 -28.300  1.00  0.00    -0.256 N 
ATOM     40  C   UNL     1      -4.559  31.477 -27.461  1.00  0.00     0.165 C 
BRANCH  39  41
ATOM     41  S   UNL     1      -2.134  31.447 -28.638  1.00  0.00     0.233 S 
ATOM     42  O   UNL     1      -1.252  31.177 -27.519  1.00  0.00    -0.207 OA
ATOM     43  O   UNL     1      -1.722  31.097 -29.982  1.00  0.00    -0.207 OA
ATOM     44  C   UNL     1      -2.496  33.195 -28.613  1.00  0.00     0.183 C 
ENDBRANCH  39  41
ENDBRANCH  35  39
ENDBRANCH  32  33
ENDBRANCH   1  32
TORSDOF 10
ENDMDL
