MODEL 4
REMARK minimizedAffinity -8.31495667
REMARK CNNscore 0.508273244
REMARK CNNaffinity 6.94380569
REMARK SMILES COc1cccc2cc(-c3nc([C@H]4CC[C@H](C(=O)O)CC4)n4ncnc(N)c34)[nH]c12
REMARK SMILES IDX 10 1 11 2 12 3 22 4 23 5 24 6 25 7 26 8 28 9 9 10 3 11 4 12
REMARK SMILES IDX 30 13 5 14 29 15 7 16 6 17 8 18 2 20 1 21 13 22 21 23 14 24
REMARK SMILES IDX 20 25 15 26 16 27 17 28 18 29 19 30 27 32
REMARK H PARENT 29 19 19 31 27 33 27 34
ROOT
ATOM      1  C   UNL     1      49.494  -1.324 -48.486  1.00  0.00     0.118 A 
ATOM      2  N   UNL     1      48.560  -2.163 -47.926  1.00  0.00    -0.229 NA
ATOM      3  C   UNL     1      47.860  -2.656 -48.934  1.00  0.00     0.134 A 
ATOM      4  N   UNL     1      48.305  -2.121 -50.125  1.00  0.00    -0.212 N 
ATOM      5  N   UNL     1      47.893  -2.413 -51.372  1.00  0.00    -0.154 NA
ATOM      6  C   UNL     1      48.469  -1.715 -52.298  1.00  0.00     0.247 A 
ATOM      7  N   UNL     1      49.378  -0.705 -52.120  1.00  0.00    -0.216 NA
ATOM      8  C   UNL     1      49.783  -0.426 -50.916  1.00  0.00     0.153 A 
ATOM      9  C   UNL     1      49.281  -1.205 -49.838  1.00  0.00     0.137 A 
ENDROOT
BRANCH   1  10
ATOM     10  C   UNL     1      50.568  -0.697 -47.568  1.00  0.00     0.068 A 
ATOM     11  C   UNL     1      51.739   0.168 -44.242  1.00  0.00     0.142 A 
ATOM     12  C   UNL     1      52.944   0.813 -43.932  1.00  0.00     0.049 A 
ATOM     13  C   UNL     1      51.494  -0.074 -45.601  1.00  0.00     0.089 A 
ATOM     14  C   UNL     1      53.850   1.183 -44.930  1.00  0.00     0.005 A 
ATOM     15  N   UNL     1      50.424  -0.694 -46.204  1.00  0.00    -0.350 N 
ATOM     16  C   UNL     1      52.373   0.287 -46.620  1.00  0.00     0.004 A 
ATOM     17  C   UNL     1      53.579   0.923 -46.278  1.00  0.00     0.010 A 
ATOM     18  C   UNL     1      51.785  -0.125 -47.853  1.00  0.00     0.038 A 
ATOM     19  H   UNL     1      49.630  -1.082 -45.715  1.00  0.00     0.167 HD
BRANCH  11  20
ATOM     20  O   UNL     1      50.789  -0.240 -43.351  1.00  0.00    -0.495 OA
ATOM     21  C   UNL     1      51.252  -0.782 -42.122  1.00  0.00     0.278 C 
ENDBRANCH  11  20
ENDBRANCH   1  10
BRANCH   3  22
ATOM     22  C   UNL     1      46.746  -3.656 -48.757  1.00  0.00     0.058 C 
ATOM     23  C   UNL     1      46.004  -3.529 -47.422  1.00  0.00     0.012 C 
ATOM     24  C   UNL     1      45.830  -3.810 -49.976  1.00  0.00     0.012 C 
ATOM     25  C   UNL     1      44.771  -2.631 -47.451  1.00  0.00     0.016 C 
ATOM     26  C   UNL     1      44.548  -2.976 -49.960  1.00  0.00     0.016 C 
ATOM     27  C   UNL     1      43.827  -2.944 -48.610  1.00  0.00     0.099 C 
BRANCH  27  28
ATOM     28  C   UNL     1      43.060  -4.226 -48.348  1.00  0.00     0.306 C 
ATOM     29  O   UNL     1      43.400  -5.365 -48.624  1.00  0.00    -0.252 OA
BRANCH  28  30
ATOM     30  O   UNL     1      41.881  -4.002 -47.735  1.00  0.00    -0.481 OA
ATOM     31  H   UNL     1      41.496  -4.897 -47.627  1.00  0.00     0.296 HD
ENDBRANCH  28  30
ENDBRANCH  27  28
ENDBRANCH   3  22
BRANCH   8  32
ATOM     32  N   UNL     1      50.616   0.646 -50.795  1.00  0.00    -0.382 N 
ATOM     33  H   UNL     1      50.455   1.207 -49.964  1.00  0.00     0.158 HD
ATOM     34  H   UNL     1      50.628   1.209 -51.640  1.00  0.00     0.158 HD
ENDBRANCH   8  32
TORSDOF 6
ENDMDL
