MODEL 1
REMARK VINA RESULT:    -8.843      0.000      0.000
REMARK INTER + INTRA:         -14.651
REMARK INTER:                 -13.754
REMARK INTRA:                  -0.897
REMARK UNBOUND:                -0.897
REMARK SMILES CCS(=O)(=O)C[C@@]1(C(=O)Nc2ncc(-c3ccccc3S(N)(=O)=O)cn2)CC(c2cccc(C(=N)N)c2)=NO1
REMARK SMILES IDX 8 1 9 2 10 3 7 5 27 6 39 7 28 8 38 9 6 10 3 11 4 12 5 13
REMARK SMILES IDX 2 14 1 15 29 16 30 17 37 18 31 19 33 20 32 21 34 22 35 23
REMARK SMILES IDX 36 24 11 28 12 29 26 30 13 31 25 32 14 33 15 34 16 35 20 36
REMARK SMILES IDX 17 37 19 38 18 39 21 40 23 41 24 42 22 43
REMARK H PARENT 10 4 35 25 36 26 36 27 22 44 22 45
ROOT
ATOM      1  C   UNL     1      -4.322  12.165  21.976  1.00  0.00     0.275 C 
ATOM      2  O   UNL     1      -5.199  12.847  22.503  1.00  0.00    -0.270 OA
ATOM      3  N   UNL     1      -4.465  11.361  20.870  1.00  0.00    -0.291 N 
ATOM      4  H   UNL     1      -3.676  10.809  20.559  1.00  0.00     0.173 HD
ENDROOT
BRANCH   1   5
ATOM      5  C   UNL     1      -2.873  12.216  22.498  1.00  0.00     0.234 C 
ATOM      6  C   UNL     1      -2.521  10.859  23.084  1.00  0.00     0.123 C 
ATOM      7  O   UNL     1      -2.878  13.150  23.584  1.00  0.00    -0.377 OA
ATOM      8  C   UNL     1      -2.131  11.279  24.456  1.00  0.00     0.092 C 
ATOM      9  N   UNL     1      -2.377  12.518  24.740  1.00  0.00    -0.089 NA
BRANCH   5  10
ATOM     10  C   UNL     1      -1.979  12.703  21.364  1.00  0.00     0.199 C 
BRANCH  10  11
ATOM     11  S   UNL     1      -0.308  12.099  21.432  1.00  0.00     0.154 S 
ATOM     12  O   UNL     1      -0.267  10.768  20.858  1.00  0.00    -0.229 OA
ATOM     13  O   UNL     1       0.221  12.352  22.757  1.00  0.00    -0.229 OA
BRANCH  11  14
ATOM     14  C   UNL     1       0.582  13.187  20.330  1.00  0.00     0.134 C 
ATOM     15  C   UNL     1       2.041  13.370  20.694  1.00  0.00     0.021 C 
ENDBRANCH  11  14
ENDBRANCH  10  11
ENDBRANCH   5  10
BRANCH   8  16
ATOM     16  C   UNL     1      -1.544  10.330  25.430  1.00  0.00     0.000 A 
ATOM     17  C   UNL     1      -0.180  10.023  25.338  1.00  0.00     0.010 A 
ATOM     18  C   UNL     1      -2.318   9.743  26.434  1.00  0.00     0.022 A 
ATOM     19  C   UNL     1       0.406   9.141  26.247  1.00  0.00     0.001 A 
ATOM     20  C   UNL     1      -1.732   8.851  27.342  1.00  0.00     0.017 A 
ATOM     21  C   UNL     1      -0.366   8.556  27.252  1.00  0.00     0.012 A 
BRANCH  20  22
ATOM     22  C   UNL     1      -2.582   8.241  28.409  1.00  0.00     0.122 C 
ATOM     23  N   UNL     1      -2.137   7.212  29.054  1.00  0.00    -0.284 NA
ATOM     24  N   UNL     1      -3.801   8.757  28.713  1.00  0.00    -0.384 N 
ATOM     25  H   UNL     1      -2.830   6.917  29.744  1.00  0.00     0.189 HD
ATOM     26  H   UNL     1      -4.118   9.636  28.327  1.00  0.00     0.158 HD
ATOM     27  H   UNL     1      -4.376   8.349  29.434  1.00  0.00     0.158 HD
ENDBRANCH  20  22
ENDBRANCH   8  16
ENDBRANCH   1   5
BRANCH   3  28
ATOM     28  C   UNL     1      -5.616  11.165  20.130  1.00  0.00     0.229 A 
ATOM     29  N   UNL     1      -6.505  10.221  20.451  1.00  0.00    -0.221 NA
ATOM     30  N   UNL     1      -5.753  12.004  19.092  1.00  0.00    -0.221 NA
ATOM     31  C   UNL     1      -7.595  10.111  19.662  1.00  0.00     0.125 A 
ATOM     32  C   UNL     1      -6.869  11.867  18.345  1.00  0.00     0.125 A 
ATOM     33  C   UNL     1      -7.847  10.919  18.571  1.00  0.00     0.020 A 
BRANCH  33  34
ATOM     34  C   UNL     1      -9.056  10.819  17.755  1.00  0.00     0.005 A 
ATOM     35  C   UNL     1     -10.186  11.560  18.160  1.00  0.00     0.010 A 
ATOM     36  C   UNL     1      -9.170  10.045  16.582  1.00  0.00     0.090 A 
ATOM     37  C   UNL     1     -11.377  11.532  17.431  1.00  0.00     0.001 A 
ATOM     38  C   UNL     1     -10.370  10.017  15.852  1.00  0.00     0.022 A 
ATOM     39  C   UNL     1     -11.469  10.761  16.277  1.00  0.00     0.001 A 
BRANCH  36  40
ATOM     40  S   UNL     1      -7.828   9.047  15.983  1.00  0.00     0.238 S 
ATOM     41  O   UNL     1      -7.570   7.984  16.927  1.00  0.00    -0.207 OA
ATOM     42  O   UNL     1      -6.781   9.915  15.503  1.00  0.00    -0.207 OA
BRANCH  40  43
ATOM     43  N   UNL     1      -8.486   8.279  14.643  1.00  0.00    -0.225 NA
ATOM     44  H   UNL     1      -8.292   7.278  14.696  1.00  0.00     0.137 HD
ATOM     45  H   UNL     1      -8.132   8.713  13.788  1.00  0.00     0.137 HD
ENDBRANCH  40  43
ENDBRANCH  36  40
ENDBRANCH  33  34
ENDBRANCH   3  28
TORSDOF 10
ENDMDL
MODEL 2
REMARK VINA RESULT:    -8.791      2.752      3.454
REMARK INTER + INTRA:         -14.571
REMARK INTER:                 -13.567
REMARK INTRA:                  -1.004
REMARK UNBOUND:                -0.897
REMARK SMILES CCS(=O)(=O)C[C@@]1(C(=O)Nc2ncc(-c3ccccc3S(N)(=O)=O)cn2)CC(c2cccc(C(=N)N)c2)=NO1
REMARK SMILES IDX 8 1 9 2 10 3 7 5 27 6 39 7 28 8 38 9 6 10 3 11 4 12 5 13
REMARK SMILES IDX 2 14 1 15 29 16 30 17 37 18 31 19 33 20 32 21 34 22 35 23
REMARK SMILES IDX 36 24 11 28 12 29 26 30 13 31 25 32 14 33 15 34 16 35 20 36
REMARK SMILES IDX 17 37 19 38 18 39 21 40 23 41 24 42 22 43
REMARK H PARENT 10 4 35 25 36 26 36 27 22 44 22 45
ROOT
ATOM      1  C   UNL     1      -5.014  12.896  22.510  1.00  0.00     0.275 C 
ATOM      2  O   UNL     1      -5.245  13.828  21.742  1.00  0.00    -0.270 OA
ATOM      3  N   UNL     1      -5.341  11.575  22.315  1.00  0.00    -0.291 N 
ATOM      4  H   UNL     1      -5.139  10.906  23.048  1.00  0.00     0.173 HD
ENDROOT
BRANCH   1   5
ATOM      5  C   UNL     1      -4.217  13.132  23.808  1.00  0.00     0.234 C 
ATOM      6  C   UNL     1      -2.987  12.241  23.792  1.00  0.00     0.123 C 
ATOM      7  O   UNL     1      -5.054  12.668  24.874  1.00  0.00    -0.377 OA
ATOM      8  C   UNL     1      -3.205  11.501  25.064  1.00  0.00     0.092 C 
ATOM      9  N   UNL     1      -4.356  11.698  25.622  1.00  0.00    -0.089 NA
BRANCH   5  10
ATOM     10  C   UNL     1      -3.953  14.628  23.934  1.00  0.00     0.199 C 
BRANCH  10  11
ATOM     11  S   UNL     1      -5.159  15.511  24.896  1.00  0.00     0.154 S 
ATOM     12  O   UNL     1      -4.671  15.639  26.257  1.00  0.00    -0.229 OA
ATOM     13  O   UNL     1      -6.466  14.948  24.628  1.00  0.00    -0.229 OA
BRANCH  11  14
ATOM     14  C   UNL     1      -5.168  17.143  24.172  1.00  0.00     0.134 C 
ATOM     15  C   UNL     1      -4.432  17.233  22.851  1.00  0.00     0.021 C 
ENDBRANCH  11  14
ENDBRANCH  10  11
ENDBRANCH   5  10
BRANCH   8  16
ATOM     16  C   UNL     1      -2.188  10.578  25.618  1.00  0.00     0.000 A 
ATOM     17  C   UNL     1      -0.877  10.643  25.130  1.00  0.00     0.010 A 
ATOM     18  C   UNL     1      -2.509   9.653  26.615  1.00  0.00     0.022 A 
ATOM     19  C   UNL     1       0.108   9.795  25.639  1.00  0.00     0.001 A 
ATOM     20  C   UNL     1      -1.523   8.795  27.121  1.00  0.00     0.017 A 
ATOM     21  C   UNL     1      -0.212   8.873  26.637  1.00  0.00     0.012 A 
BRANCH  20  22
ATOM     22  C   UNL     1      -1.893   7.818  28.190  1.00  0.00     0.122 C 
ATOM     23  N   UNL     1      -2.990   7.997  28.850  1.00  0.00    -0.284 NA
ATOM     24  N   UNL     1      -1.101   6.750  28.465  1.00  0.00    -0.384 N 
ATOM     25  H   UNL     1      -3.099   7.250  29.539  1.00  0.00     0.189 HD
ATOM     26  H   UNL     1      -0.313   6.506  27.881  1.00  0.00     0.158 HD
ATOM     27  H   UNL     1      -1.349   6.087  29.185  1.00  0.00     0.158 HD
ENDBRANCH  20  22
ENDBRANCH   8  16
ENDBRANCH   1   5
BRANCH   3  28
ATOM     28  C   UNL     1      -5.987  11.033  21.219  1.00  0.00     0.229 A 
ATOM     29  N   UNL     1      -7.264  10.648  21.276  1.00  0.00    -0.221 NA
ATOM     30  N   UNL     1      -5.224  10.948  20.118  1.00  0.00    -0.221 NA
ATOM     31  C   UNL     1      -7.799  10.130  20.151  1.00  0.00     0.125 A 
ATOM     32  C   UNL     1      -5.810  10.441  19.013  1.00  0.00     0.125 A 
ATOM     33  C   UNL     1      -7.116   9.995  18.958  1.00  0.00     0.020 A 
BRANCH  33  34
ATOM     34  C   UNL     1      -7.725   9.477  17.733  1.00  0.00     0.005 A 
ATOM     35  C   UNL     1      -8.550  10.346  16.990  1.00  0.00     0.010 A 
ATOM     36  C   UNL     1      -7.534   8.172  17.234  1.00  0.00     0.090 A 
ATOM     37  C   UNL     1      -9.159   9.936  15.802  1.00  0.00     0.001 A 
ATOM     38  C   UNL     1      -8.150   7.762  16.040  1.00  0.00     0.022 A 
ATOM     39  C   UNL     1      -8.959   8.644  15.326  1.00  0.00     0.001 A 
BRANCH  36  40
ATOM     40  S   UNL     1      -6.540   6.976  18.092  1.00  0.00     0.238 S 
ATOM     41  O   UNL     1      -7.026   6.840  19.446  1.00  0.00    -0.207 OA
ATOM     42  O   UNL     1      -5.151   7.229  17.799  1.00  0.00    -0.207 OA
BRANCH  40  43
ATOM     43  N   UNL     1      -6.946   5.529  17.344  1.00  0.00    -0.225 NA
ATOM     44  H   UNL     1      -7.056   4.799  18.050  1.00  0.00     0.137 HD
ATOM     45  H   UNL     1      -6.248   5.299  16.634  1.00  0.00     0.137 HD
ENDBRANCH  40  43
ENDBRANCH  36  40
ENDBRANCH  33  34
ENDBRANCH   3  28
TORSDOF 10
ENDMDL
MODEL 3
REMARK VINA RESULT:    -8.790      2.586      2.945
REMARK INTER + INTRA:         -14.569
REMARK INTER:                 -13.655
REMARK INTRA:                  -0.914
REMARK UNBOUND:                -0.897
REMARK SMILES CCS(=O)(=O)C[C@@]1(C(=O)Nc2ncc(-c3ccccc3S(N)(=O)=O)cn2)CC(c2cccc(C(=N)N)c2)=NO1
REMARK SMILES IDX 8 1 9 2 10 3 7 5 27 6 39 7 28 8 38 9 6 10 3 11 4 12 5 13
REMARK SMILES IDX 2 14 1 15 29 16 30 17 37 18 31 19 33 20 32 21 34 22 35 23
REMARK SMILES IDX 36 24 11 28 12 29 26 30 13 31 25 32 14 33 15 34 16 35 20 36
REMARK SMILES IDX 17 37 19 38 18 39 21 40 23 41 24 42 22 43
REMARK H PARENT 10 4 35 25 36 26 36 27 22 44 22 45
ROOT
ATOM      1  C   UNL     1      -4.191  12.072  21.626  1.00  0.00     0.275 C 
ATOM      2  O   UNL     1      -4.277  12.064  20.400  1.00  0.00    -0.270 OA
ATOM      3  N   UNL     1      -5.211  11.843  22.519  1.00  0.00    -0.291 N 
ATOM      4  H   UNL     1      -5.023  11.926  23.511  1.00  0.00     0.173 HD
ENDROOT
BRANCH   1   5
ATOM      5  C   UNL     1      -2.827  12.279  22.312  1.00  0.00     0.234 C 
ATOM      6  C   UNL     1      -2.355  10.946  22.868  1.00  0.00     0.123 C 
ATOM      7  O   UNL     1      -3.076  13.133  23.435  1.00  0.00    -0.377 OA
ATOM      8  C   UNL     1      -2.176  11.325  24.295  1.00  0.00     0.092 C 
ATOM      9  N   UNL     1      -2.619  12.501  24.609  1.00  0.00    -0.089 NA
BRANCH   5  10
ATOM     10  C   UNL     1      -1.892  12.951  21.313  1.00  0.00     0.199 C 
BRANCH  10  11
ATOM     11  S   UNL     1      -0.253  12.263  21.260  1.00  0.00     0.154 S 
ATOM     12  O   UNL     1      -0.287  11.029  20.499  1.00  0.00    -0.229 OA
ATOM     13  O   UNL     1       0.305  12.295  22.597  1.00  0.00    -0.229 OA
BRANCH  11  14
ATOM     14  C   UNL     1       0.677  13.456  20.310  1.00  0.00     0.134 C 
ATOM     15  C   UNL     1       2.143  13.532  20.684  1.00  0.00     0.021 C 
ENDBRANCH  11  14
ENDBRANCH  10  11
ENDBRANCH   5  10
BRANCH   8  16
ATOM     16  C   UNL     1      -1.571  10.402  25.282  1.00  0.00     0.000 A 
ATOM     17  C   UNL     1      -0.201  10.120  25.195  1.00  0.00     0.010 A 
ATOM     18  C   UNL     1      -2.335   9.813  26.293  1.00  0.00     0.022 A 
ATOM     19  C   UNL     1       0.402   9.263  26.117  1.00  0.00     0.001 A 
ATOM     20  C   UNL     1      -1.732   8.945  27.214  1.00  0.00     0.017 A 
ATOM     21  C   UNL     1      -0.360   8.677  27.129  1.00  0.00     0.012 A 
BRANCH  20  22
ATOM     22  C   UNL     1      -2.571   8.332  28.288  1.00  0.00     0.122 C 
ATOM     23  N   UNL     1      -3.693   8.892  28.603  1.00  0.00    -0.284 NA
ATOM     24  N   UNL     1      -2.176   7.199  28.923  1.00  0.00    -0.384 N 
ATOM     25  H   UNL     1      -4.144   8.356  29.346  1.00  0.00     0.189 HD
ATOM     26  H   UNL     1      -1.378   6.663  28.610  1.00  0.00     0.158 HD
ATOM     27  H   UNL     1      -2.741   6.781  29.647  1.00  0.00     0.158 HD
ENDBRANCH  20  22
ENDBRANCH   8  16
ENDBRANCH   1   5
BRANCH   3  28
ATOM     28  C   UNL     1      -6.528  11.552  22.217  1.00  0.00     0.229 A 
ATOM     29  N   UNL     1      -6.863  10.479  21.497  1.00  0.00    -0.221 NA
ATOM     30  N   UNL     1      -7.413  12.428  22.718  1.00  0.00    -0.221 NA
ATOM     31  C   UNL     1      -8.177  10.287  21.257  1.00  0.00     0.125 A 
ATOM     32  C   UNL     1      -8.716  12.183  22.467  1.00  0.00     0.125 A 
ATOM     33  C   UNL     1      -9.179  11.116  21.723  1.00  0.00     0.020 A 
BRANCH  33  34
ATOM     34  C   UNL     1     -10.603  10.868  21.495  1.00  0.00     0.005 A 
ATOM     35  C   UNL     1     -11.323  10.197  22.504  1.00  0.00     0.010 A 
ATOM     36  C   UNL     1     -11.311  11.265  20.342  1.00  0.00     0.090 A 
ATOM     37  C   UNL     1     -12.688   9.931  22.374  1.00  0.00     0.001 A 
ATOM     38  C   UNL     1     -12.683  10.996  20.213  1.00  0.00     0.022 A 
ATOM     39  C   UNL     1     -13.369  10.331  21.228  1.00  0.00     0.001 A 
BRANCH  36  40
ATOM     40  S   UNL     1     -10.511  12.094  18.989  1.00  0.00     0.238 S 
ATOM     41  O   UNL     1      -9.650  11.158  18.303  1.00  0.00    -0.207 OA
ATOM     42  O   UNL     1     -10.037  13.378  19.445  1.00  0.00    -0.207 OA
BRANCH  40  43
ATOM     43  N   UNL     1     -11.769  12.384  17.916  1.00  0.00    -0.225 NA
ATOM     44  H   UNL     1     -11.551  13.205  17.350  1.00  0.00     0.137 HD
ATOM     45  H   UNL     1     -12.648  12.472  18.431  1.00  0.00     0.137 HD
ENDBRANCH  40  43
ENDBRANCH  36  40
ENDBRANCH  33  34
ENDBRANCH   3  28
TORSDOF 10
ENDMDL
MODEL 4
REMARK VINA RESULT:    -8.787      2.142      2.409
REMARK INTER + INTRA:         -14.565
REMARK INTER:                 -13.705
REMARK INTRA:                  -0.860
REMARK UNBOUND:                -0.897
REMARK SMILES CCS(=O)(=O)C[C@@]1(C(=O)Nc2ncc(-c3ccccc3S(N)(=O)=O)cn2)CC(c2cccc(C(=N)N)c2)=NO1
REMARK SMILES IDX 8 1 9 2 10 3 7 5 27 6 39 7 28 8 38 9 6 10 3 11 4 12 5 13
REMARK SMILES IDX 2 14 1 15 29 16 30 17 37 18 31 19 33 20 32 21 34 22 35 23
REMARK SMILES IDX 36 24 11 28 12 29 26 30 13 31 25 32 14 33 15 34 16 35 20 36
REMARK SMILES IDX 17 37 19 38 18 39 21 40 23 41 24 42 22 43
REMARK H PARENT 10 4 35 25 36 26 36 27 22 44 22 45
ROOT
ATOM      1  C   UNL     1      -4.412  11.381  21.126  1.00  0.00     0.275 C 
ATOM      2  O   UNL     1      -5.563  11.239  21.535  1.00  0.00    -0.270 OA
ATOM      3  N   UNL     1      -3.958  11.119  19.854  1.00  0.00    -0.291 N 
ATOM      4  H   UNL     1      -2.972  11.231  19.653  1.00  0.00     0.173 HD
ENDROOT
BRANCH   1   5
ATOM      5  C   UNL     1      -3.325  11.975  22.041  1.00  0.00     0.234 C 
ATOM      6  C   UNL     1      -2.473  10.840  22.584  1.00  0.00     0.123 C 
ATOM      7  O   UNL     1      -4.017  12.546  23.157  1.00  0.00    -0.377 OA
ATOM      8  C   UNL     1      -2.637  11.086  24.042  1.00  0.00     0.092 C 
ATOM      9  N   UNL     1      -3.519  11.982  24.350  1.00  0.00    -0.089 NA
BRANCH   5  10
ATOM     10  C   UNL     1      -2.580  13.048  21.255  1.00  0.00     0.199 C 
BRANCH  10  11
ATOM     11  S   UNL     1      -0.905  12.624  20.834  1.00  0.00     0.154 S 
ATOM     12  O   UNL     1      -0.923  11.485  19.935  1.00  0.00    -0.229 OA
ATOM     13  O   UNL     1      -0.116  12.598  22.048  1.00  0.00    -0.229 OA
BRANCH  11  14
ATOM     14  C   UNL     1      -0.332  14.036  19.903  1.00  0.00     0.134 C 
ATOM     15  C   UNL     1      -1.394  14.666  19.026  1.00  0.00     0.021 C 
ENDBRANCH  11  14
ENDBRANCH  10  11
ENDBRANCH   5  10
BRANCH   8  16
ATOM     16  C   UNL     1      -1.871  10.327  25.056  1.00  0.00     0.000 A 
ATOM     17  C   UNL     1      -0.482  10.213  24.911  1.00  0.00     0.010 A 
ATOM     18  C   UNL     1      -2.502   9.730  26.151  1.00  0.00     0.022 A 
ATOM     19  C   UNL     1       0.271   9.514  25.855  1.00  0.00     0.001 A 
ATOM     20  C   UNL     1      -1.748   9.020  27.096  1.00  0.00     0.017 A 
ATOM     21  C   UNL     1      -0.359   8.920  26.950  1.00  0.00     0.012 A 
BRANCH  20  22
ATOM     22  C   UNL     1      -2.448   8.396  28.258  1.00  0.00     0.122 C 
ATOM     23  N   UNL     1      -1.898   7.388  28.854  1.00  0.00    -0.284 NA
ATOM     24  N   UNL     1      -3.639   8.877  28.699  1.00  0.00    -0.384 N 
ATOM     25  H   UNL     1      -2.495   7.079  29.623  1.00  0.00     0.189 HD
ATOM     26  H   UNL     1      -4.027   9.741  28.347  1.00  0.00     0.158 HD
ATOM     27  H   UNL     1      -4.113   8.459  29.486  1.00  0.00     0.158 HD
ENDBRANCH  20  22
ENDBRANCH   8  16
ENDBRANCH   1   5
BRANCH   3  28
ATOM     28  C   UNL     1      -4.703  10.653  18.787  1.00  0.00     0.229 A 
ATOM     29  N   UNL     1      -4.605   9.392  18.360  1.00  0.00    -0.221 NA
ATOM     30  N   UNL     1      -5.521  11.569  18.246  1.00  0.00    -0.221 NA
ATOM     31  C   UNL     1      -5.375   9.038  17.309  1.00  0.00     0.125 A 
ATOM     32  C   UNL     1      -6.285  11.162  17.210  1.00  0.00     0.125 A 
ATOM     33  C   UNL     1      -6.257   9.890  16.673  1.00  0.00     0.020 A 
BRANCH  33  34
ATOM     34  C   UNL     1      -7.120   9.479  15.566  1.00  0.00     0.005 A 
ATOM     35  C   UNL     1      -8.272   8.727  15.875  1.00  0.00     0.010 A 
ATOM     36  C   UNL     1      -6.889   9.792  14.211  1.00  0.00     0.090 A 
ATOM     37  C   UNL     1      -9.157   8.305  14.880  1.00  0.00     0.001 A 
ATOM     38  C   UNL     1      -7.779   9.365  13.213  1.00  0.00     0.022 A 
ATOM     39  C   UNL     1      -8.911   8.624  13.549  1.00  0.00     0.001 A 
BRANCH  36  40
ATOM     40  S   UNL     1      -5.459  10.709  13.691  1.00  0.00     0.238 S 
ATOM     41  O   UNL     1      -4.315  10.282  14.464  1.00  0.00    -0.207 OA
ATOM     42  O   UNL     1      -5.820  12.100  13.562  1.00  0.00    -0.207 OA
BRANCH  40  43
ATOM     43  N   UNL     1      -5.170  10.128  12.142  1.00  0.00    -0.225 NA
ATOM     44  H   UNL     1      -5.431   9.142  12.095  1.00  0.00     0.137 HD
ATOM     45  H   UNL     1      -4.196  10.300  11.885  1.00  0.00     0.137 HD
ENDBRANCH  40  43
ENDBRANCH  36  40
ENDBRANCH  33  34
ENDBRANCH   3  28
TORSDOF 10
ENDMDL
MODEL 5
REMARK VINA RESULT:    -8.729      4.588      9.054
REMARK INTER + INTRA:         -14.474
REMARK INTER:                 -13.545
REMARK INTRA:                  -0.929
REMARK UNBOUND:                -0.897
REMARK SMILES CCS(=O)(=O)C[C@@]1(C(=O)Nc2ncc(-c3ccccc3S(N)(=O)=O)cn2)CC(c2cccc(C(=N)N)c2)=NO1
REMARK SMILES IDX 8 1 9 2 10 3 7 5 27 6 39 7 28 8 38 9 6 10 3 11 4 12 5 13
REMARK SMILES IDX 2 14 1 15 29 16 30 17 37 18 31 19 33 20 32 21 34 22 35 23
REMARK SMILES IDX 36 24 11 28 12 29 26 30 13 31 25 32 14 33 15 34 16 35 20 36
REMARK SMILES IDX 17 37 19 38 18 39 21 40 23 41 24 42 22 43
REMARK H PARENT 10 4 35 25 36 26 36 27 22 44 22 45
ROOT
ATOM      1  C   UNL     1      -3.201  12.261  22.447  1.00  0.00     0.275 C 
ATOM      2  O   UNL     1      -2.526  13.171  21.972  1.00  0.00    -0.270 OA
ATOM      3  N   UNL     1      -4.245  12.393  23.333  1.00  0.00    -0.291 N 
ATOM      4  H   UNL     1      -4.693  11.558  23.691  1.00  0.00     0.173 HD
ENDROOT
BRANCH   1   5
ATOM      5  C   UNL     1      -2.970  10.803  22.005  1.00  0.00     0.234 C 
ATOM      6  C   UNL     1      -3.075  10.732  20.491  1.00  0.00     0.123 C 
ATOM      7  O   UNL     1      -4.069  10.051  22.534  1.00  0.00    -0.377 OA
ATOM      8  C   UNL     1      -4.145   9.706  20.367  1.00  0.00     0.092 C 
ATOM      9  N   UNL     1      -4.719   9.377  21.480  1.00  0.00    -0.089 NA
BRANCH   5  10
ATOM     10  C   UNL     1      -1.649  10.331  22.603  1.00  0.00     0.199 C 
BRANCH  10  11
ATOM     11  S   UNL     1      -1.508  10.571  24.359  1.00  0.00     0.154 S 
ATOM     12  O   UNL     1      -2.773  10.227  24.981  1.00  0.00    -0.229 OA
ATOM     13  O   UNL     1      -0.889  11.858  24.601  1.00  0.00    -0.229 OA
BRANCH  11  14
ATOM     14  C   UNL     1      -0.311   9.345  24.859  1.00  0.00     0.134 C 
ATOM     15  C   UNL     1      -0.553   8.778  26.243  1.00  0.00     0.021 C 
ENDBRANCH  11  14
ENDBRANCH  10  11
ENDBRANCH   5  10
BRANCH   8  16
ATOM     16  C   UNL     1      -4.542   9.141  19.058  1.00  0.00     0.000 A 
ATOM     17  C   UNL     1      -4.742   7.759  18.949  1.00  0.00     0.010 A 
ATOM     18  C   UNL     1      -4.724   9.956  17.936  1.00  0.00     0.022 A 
ATOM     19  C   UNL     1      -5.128   7.196  17.732  1.00  0.00     0.001 A 
ATOM     20  C   UNL     1      -5.102   9.390  16.711  1.00  0.00     0.017 A 
ATOM     21  C   UNL     1      -5.312   8.010  16.612  1.00  0.00     0.012 A 
BRANCH  20  22
ATOM     22  C   UNL     1      -5.294  10.285  15.530  1.00  0.00     0.122 C 
ATOM     23  N   UNL     1      -5.437   9.755  14.359  1.00  0.00    -0.284 NA
ATOM     24  N   UNL     1      -5.330  11.634  15.673  1.00  0.00    -0.384 N 
ATOM     25  H   UNL     1      -5.557  10.494  13.663  1.00  0.00     0.189 HD
ATOM     26  H   UNL     1      -5.359  12.073  16.584  1.00  0.00     0.158 HD
ATOM     27  H   UNL     1      -5.462  12.242  14.878  1.00  0.00     0.158 HD
ENDBRANCH  20  22
ENDBRANCH   8  16
ENDBRANCH   1   5
BRANCH   3  28
ATOM     28  C   UNL     1      -4.744  13.570  23.857  1.00  0.00     0.229 A 
ATOM     29  N   UNL     1      -4.271  14.090  24.992  1.00  0.00    -0.221 NA
ATOM     30  N   UNL     1      -5.718  14.129  23.122  1.00  0.00    -0.221 NA
ATOM     31  C   UNL     1      -4.829  15.243  25.418  1.00  0.00     0.125 A 
ATOM     32  C   UNL     1      -6.231  15.291  23.580  1.00  0.00     0.125 A 
ATOM     33  C   UNL     1      -5.833  15.913  24.747  1.00  0.00     0.020 A 
BRANCH  33  34
ATOM     34  C   UNL     1      -6.394  17.186  25.197  1.00  0.00     0.005 A 
ATOM     35  C   UNL     1      -7.354  17.155  26.229  1.00  0.00     0.010 A 
ATOM     36  C   UNL     1      -6.032  18.448  24.681  1.00  0.00     0.090 A 
ATOM     37  C   UNL     1      -7.930  18.325  26.726  1.00  0.00     0.001 A 
ATOM     38  C   UNL     1      -6.614  19.623  25.182  1.00  0.00     0.022 A 
ATOM     39  C   UNL     1      -7.560  19.560  26.204  1.00  0.00     0.001 A 
BRANCH  36  40
ATOM     40  S   UNL     1      -4.853  18.619  23.362  1.00  0.00     0.238 S 
ATOM     41  O   UNL     1      -5.538  18.491  22.096  1.00  0.00    -0.207 OA
ATOM     42  O   UNL     1      -3.682  17.841  23.681  1.00  0.00    -0.207 OA
BRANCH  40  43
ATOM     43  N   UNL     1      -4.411  20.236  23.448  1.00  0.00    -0.225 NA
ATOM     44  H   UNL     1      -4.252  20.596  22.505  1.00  0.00     0.137 HD
ATOM     45  H   UNL     1      -3.599  20.340  24.060  1.00  0.00     0.137 HD
ENDBRANCH  40  43
ENDBRANCH  36  40
ENDBRANCH  33  34
ENDBRANCH   3  28
TORSDOF 10
ENDMDL
MODEL 6
REMARK VINA RESULT:    -8.618      5.163      7.288
REMARK INTER + INTRA:         -14.302
REMARK INTER:                 -13.315
REMARK INTRA:                  -0.987
REMARK UNBOUND:                -0.897
REMARK SMILES CCS(=O)(=O)C[C@@]1(C(=O)Nc2ncc(-c3ccccc3S(N)(=O)=O)cn2)CC(c2cccc(C(=N)N)c2)=NO1
REMARK SMILES IDX 8 1 9 2 10 3 7 5 27 6 39 7 28 8 38 9 6 10 3 11 4 12 5 13
REMARK SMILES IDX 2 14 1 15 29 16 30 17 37 18 31 19 33 20 32 21 34 22 35 23
REMARK SMILES IDX 36 24 11 28 12 29 26 30 13 31 25 32 14 33 15 34 16 35 20 36
REMARK SMILES IDX 17 37 19 38 18 39 21 40 23 41 24 42 22 43
REMARK H PARENT 10 4 35 25 36 26 36 27 22 44 22 45
ROOT
ATOM      1  C   UNL     1      -4.900  12.887  22.760  1.00  0.00     0.275 C 
ATOM      2  O   UNL     1      -5.921  12.470  22.217  1.00  0.00    -0.270 OA
ATOM      3  N   UNL     1      -4.814  13.936  23.645  1.00  0.00    -0.291 N 
ATOM      4  H   UNL     1      -3.903  14.216  23.987  1.00  0.00     0.173 HD
ENDROOT
BRANCH   1   5
ATOM      5  C   UNL     1      -3.551  12.175  22.540  1.00  0.00     0.234 C 
ATOM      6  C   UNL     1      -3.455  11.006  23.505  1.00  0.00     0.123 C 
ATOM      7  O   UNL     1      -2.542  13.116  22.923  1.00  0.00    -0.377 OA
ATOM      8  C   UNL     1      -2.187  11.364  24.197  1.00  0.00     0.092 C 
ATOM      9  N   UNL     1      -1.722  12.538  23.914  1.00  0.00    -0.089 NA
BRANCH   5  10
ATOM     10  C   UNL     1      -3.437  11.826  21.060  1.00  0.00     0.199 C 
BRANCH  10  11
ATOM     11  S   UNL     1      -2.365  12.898  20.131  1.00  0.00     0.154 S 
ATOM     12  O   UNL     1      -2.497  14.250  20.641  1.00  0.00    -0.229 OA
ATOM     13  O   UNL     1      -2.542  12.618  18.720  1.00  0.00    -0.229 OA
BRANCH  11  14
ATOM     14  C   UNL     1      -0.727  12.323  20.546  1.00  0.00     0.134 C 
ATOM     15  C   UNL     1      -0.666  10.855  20.914  1.00  0.00     0.021 C 
ENDBRANCH  11  14
ENDBRANCH  10  11
ENDBRANCH   5  10
BRANCH   8  16
ATOM     16  C   UNL     1      -1.538  10.451  25.165  1.00  0.00     0.000 A 
ATOM     17  C   UNL     1      -0.167  10.194  25.040  1.00  0.00     0.010 A 
ATOM     18  C   UNL     1      -2.262   9.849  26.198  1.00  0.00     0.022 A 
ATOM     19  C   UNL     1       0.477   9.348  25.943  1.00  0.00     0.001 A 
ATOM     20  C   UNL     1      -1.618   8.991  27.101  1.00  0.00     0.017 A 
ATOM     21  C   UNL     1      -0.245   8.748  26.976  1.00  0.00     0.012 A 
BRANCH  20  22
ATOM     22  C   UNL     1      -2.415   8.364  28.197  1.00  0.00     0.122 C 
ATOM     23  N   UNL     1      -1.963   7.296  28.769  1.00  0.00    -0.284 NA
ATOM     24  N   UNL     1      -3.592   8.905  28.604  1.00  0.00    -0.384 N 
ATOM     25  H   UNL     1      -2.618   6.994  29.493  1.00  0.00     0.189 HD
ATOM     26  H   UNL     1      -3.905   9.809  28.276  1.00  0.00     0.158 HD
ATOM     27  H   UNL     1      -4.132   8.485  29.347  1.00  0.00     0.158 HD
ENDBRANCH  20  22
ENDBRANCH   8  16
ENDBRANCH   1   5
BRANCH   3  28
ATOM     28  C   UNL     1      -5.854  14.723  24.103  1.00  0.00     0.229 A 
ATOM     29  N   UNL     1      -6.340  14.595  25.340  1.00  0.00    -0.221 NA
ATOM     30  N   UNL     1      -6.307  15.612  23.206  1.00  0.00    -0.221 NA
ATOM     31  C   UNL     1      -7.357  15.410  25.688  1.00  0.00     0.125 A 
ATOM     32  C   UNL     1      -7.313  16.418  23.607  1.00  0.00     0.125 A 
ATOM     33  C   UNL     1      -7.904  16.366  24.854  1.00  0.00     0.020 A 
BRANCH  33  34
ATOM     34  C   UNL     1      -8.974  17.275  25.262  1.00  0.00     0.005 A 
ATOM     35  C   UNL     1     -10.306  16.843  25.089  1.00  0.00     0.010 A 
ATOM     36  C   UNL     1      -8.770  18.550  25.828  1.00  0.00     0.090 A 
ATOM     37  C   UNL     1     -11.387  17.643  25.464  1.00  0.00     0.001 A 
ATOM     38  C   UNL     1      -9.860  19.353  26.203  1.00  0.00     0.022 A 
ATOM     39  C   UNL     1     -11.165  18.898  26.021  1.00  0.00     0.001 A 
BRANCH  36  40
ATOM     40  S   UNL     1      -7.142  19.219  26.072  1.00  0.00     0.238 S 
ATOM     41  O   UNL     1      -6.543  19.486  24.785  1.00  0.00    -0.207 OA
ATOM     42  O   UNL     1      -6.468  18.444  27.085  1.00  0.00    -0.207 OA
BRANCH  40  43
ATOM     43  N   UNL     1      -7.442  20.735  26.728  1.00  0.00    -0.225 NA
ATOM     44  H   UNL     1      -7.729  20.633  27.702  1.00  0.00     0.137 HD
ATOM     45  H   UNL     1      -8.130  21.228  26.155  1.00  0.00     0.137 HD
ENDBRANCH  40  43
ENDBRANCH  36  40
ENDBRANCH  33  34
ENDBRANCH   3  28
TORSDOF 10
ENDMDL
MODEL 7
REMARK VINA RESULT:    -8.560      4.825      8.337
REMARK INTER + INTRA:         -14.211
REMARK INTER:                 -13.137
REMARK INTRA:                  -1.074
REMARK UNBOUND:                -0.897
REMARK SMILES CCS(=O)(=O)C[C@@]1(C(=O)Nc2ncc(-c3ccccc3S(N)(=O)=O)cn2)CC(c2cccc(C(=N)N)c2)=NO1
REMARK SMILES IDX 8 1 9 2 10 3 7 5 27 6 39 7 28 8 38 9 6 10 3 11 4 12 5 13
REMARK SMILES IDX 2 14 1 15 29 16 30 17 37 18 31 19 33 20 32 21 34 22 35 23
REMARK SMILES IDX 36 24 11 28 12 29 26 30 13 31 25 32 14 33 15 34 16 35 20 36
REMARK SMILES IDX 17 37 19 38 18 39 21 40 23 41 24 42 22 43
REMARK H PARENT 10 4 35 25 36 26 36 27 22 44 22 45
ROOT
ATOM      1  C   UNL     1      -3.646  12.656  23.069  1.00  0.00     0.275 C 
ATOM      2  O   UNL     1      -2.985  13.484  23.691  1.00  0.00    -0.270 OA
ATOM      3  N   UNL     1      -5.015  12.636  22.935  1.00  0.00    -0.291 N 
ATOM      4  H   UNL     1      -5.448  11.869  22.435  1.00  0.00     0.173 HD
ENDROOT
BRANCH   1   5
ATOM      5  C   UNL     1      -2.949  11.537  22.271  1.00  0.00     0.234 C 
ATOM      6  C   UNL     1      -3.433  11.593  20.832  1.00  0.00     0.123 C 
ATOM      7  O   UNL     1      -3.423  10.304  22.824  1.00  0.00    -0.377 OA
ATOM      8  C   UNL     1      -3.949  10.204  20.694  1.00  0.00     0.092 C 
ATOM      9  N   UNL     1      -3.990   9.523  21.795  1.00  0.00    -0.089 NA
BRANCH   5  10
ATOM     10  C   UNL     1      -1.444  11.681  22.473  1.00  0.00     0.199 C 
BRANCH  10  11
ATOM     11  S   UNL     1      -0.565  12.291  21.053  1.00  0.00     0.154 S 
ATOM     12  O   UNL     1      -1.153  13.553  20.645  1.00  0.00    -0.229 OA
ATOM     13  O   UNL     1      -0.408  11.206  20.106  1.00  0.00    -0.229 OA
BRANCH  11  14
ATOM     14  C   UNL     1       1.069  12.637  21.682  1.00  0.00     0.134 C 
ATOM     15  C   UNL     1       1.964  13.366  20.700  1.00  0.00     0.021 C 
ENDBRANCH  11  14
ENDBRANCH  10  11
ENDBRANCH   5  10
BRANCH   8  16
ATOM     16  C   UNL     1      -4.415   9.667  19.396  1.00  0.00     0.000 A 
ATOM     17  C   UNL     1      -4.428  10.511  18.278  1.00  0.00     0.010 A 
ATOM     18  C   UNL     1      -4.837   8.340  19.265  1.00  0.00     0.022 A 
ATOM     19  C   UNL     1      -4.851  10.032  17.038  1.00  0.00     0.001 A 
ATOM     20  C   UNL     1      -5.271   7.860  18.022  1.00  0.00     0.017 A 
ATOM     21  C   UNL     1      -5.270   8.707  16.906  1.00  0.00     0.012 A 
BRANCH  20  22
ATOM     22  C   UNL     1      -5.711   6.438  17.909  1.00  0.00     0.122 C 
ATOM     23  N   UNL     1      -4.957   5.507  18.396  1.00  0.00    -0.284 NA
ATOM     24  N   UNL     1      -6.890   6.115  17.315  1.00  0.00    -0.384 N 
ATOM     25  H   UNL     1      -5.395   4.597  18.240  1.00  0.00     0.189 HD
ATOM     26  H   UNL     1      -7.562   6.821  17.049  1.00  0.00     0.158 HD
ATOM     27  H   UNL     1      -7.192   5.155  17.239  1.00  0.00     0.158 HD
ENDBRANCH  20  22
ENDBRANCH   8  16
ENDBRANCH   1   5
BRANCH   3  28
ATOM     28  C   UNL     1      -5.914  13.543  23.464  1.00  0.00     0.229 A 
ATOM     29  N   UNL     1      -6.432  13.388  24.685  1.00  0.00    -0.221 NA
ATOM     30  N   UNL     1      -6.196  14.575  22.653  1.00  0.00    -0.221 NA
ATOM     31  C   UNL     1      -7.302  14.330  25.107  1.00  0.00     0.125 A 
ATOM     32  C   UNL     1      -7.056  15.500  23.128  1.00  0.00     0.125 A 
ATOM     33  C   UNL     1      -7.666  15.436  24.365  1.00  0.00     0.020 A 
BRANCH  33  34
ATOM     34  C   UNL     1      -8.572  16.474  24.856  1.00  0.00     0.005 A 
ATOM     35  C   UNL     1      -9.954  16.301  24.630  1.00  0.00     0.010 A 
ATOM     36  C   UNL     1      -8.165  17.630  25.552  1.00  0.00     0.090 A 
ATOM     37  C   UNL     1     -10.889  17.236  25.076  1.00  0.00     0.001 A 
ATOM     38  C   UNL     1      -9.108  18.570  25.998  1.00  0.00     0.022 A 
ATOM     39  C   UNL     1     -10.467  18.371  25.761  1.00  0.00     0.001 A 
BRANCH  36  40
ATOM     40  S   UNL     1      -6.452  17.976  25.875  1.00  0.00     0.238 S 
ATOM     41  O   UNL     1      -5.814  18.393  24.648  1.00  0.00    -0.207 OA
ATOM     42  O   UNL     1      -5.913  16.923  26.699  1.00  0.00    -0.207 OA
BRANCH  40  43
ATOM     43  N   UNL     1      -6.511  19.362  26.820  1.00  0.00    -0.225 NA
ATOM     44  H   UNL     1      -5.831  20.041  26.472  1.00  0.00     0.137 HD
ATOM     45  H   UNL     1      -6.367  19.117  27.802  1.00  0.00     0.137 HD
ENDBRANCH  40  43
ENDBRANCH  36  40
ENDBRANCH  33  34
ENDBRANCH   3  28
TORSDOF 10
ENDMDL
MODEL 8
REMARK VINA RESULT:    -8.548      1.695      2.015
REMARK INTER + INTRA:         -14.193
REMARK INTER:                 -13.362
REMARK INTRA:                  -0.831
REMARK UNBOUND:                -0.897
REMARK SMILES CCS(=O)(=O)C[C@@]1(C(=O)Nc2ncc(-c3ccccc3S(N)(=O)=O)cn2)CC(c2cccc(C(=N)N)c2)=NO1
REMARK SMILES IDX 8 1 9 2 10 3 7 5 27 6 39 7 28 8 38 9 6 10 3 11 4 12 5 13
REMARK SMILES IDX 2 14 1 15 29 16 30 17 37 18 31 19 33 20 32 21 34 22 35 23
REMARK SMILES IDX 36 24 11 28 12 29 26 30 13 31 25 32 14 33 15 34 16 35 20 36
REMARK SMILES IDX 17 37 19 38 18 39 21 40 23 41 24 42 22 43
REMARK H PARENT 10 4 35 25 36 26 36 27 22 44 22 45
ROOT
ATOM      1  C   UNL     1      -4.170  12.064  21.636  1.00  0.00     0.275 C 
ATOM      2  O   UNL     1      -5.140  12.747  21.959  1.00  0.00    -0.270 OA
ATOM      3  N   UNL     1      -4.129  11.124  20.634  1.00  0.00    -0.291 N 
ATOM      4  H   UNL     1      -3.280  10.590  20.497  1.00  0.00     0.173 HD
ENDROOT
BRANCH   1   5
ATOM      5  C   UNL     1      -2.806  12.270  22.323  1.00  0.00     0.234 C 
ATOM      6  C   UNL     1      -2.335  10.936  22.876  1.00  0.00     0.123 C 
ATOM      7  O   UNL     1      -3.055  13.123  23.447  1.00  0.00    -0.377 OA
ATOM      8  C   UNL     1      -2.155  11.313  24.304  1.00  0.00     0.092 C 
ATOM      9  N   UNL     1      -2.597  12.488  24.620  1.00  0.00    -0.089 NA
BRANCH   5  10
ATOM     10  C   UNL     1      -1.871  12.944  21.324  1.00  0.00     0.199 C 
BRANCH  10  11
ATOM     11  S   UNL     1      -0.235  12.252  21.264  1.00  0.00     0.154 S 
ATOM     12  O   UNL     1      -0.268  11.040  20.467  1.00  0.00    -0.229 OA
ATOM     13  O   UNL     1       0.312  12.241  22.606  1.00  0.00    -0.229 OA
BRANCH  11  14
ATOM     14  C   UNL     1       0.707  13.467  20.357  1.00  0.00     0.134 C 
ATOM     15  C   UNL     1       2.177  13.504  20.723  1.00  0.00     0.021 C 
ENDBRANCH  11  14
ENDBRANCH  10  11
ENDBRANCH   5  10
BRANCH   8  16
ATOM     16  C   UNL     1      -1.550  10.388  25.289  1.00  0.00     0.000 A 
ATOM     17  C   UNL     1      -0.181  10.105  25.200  1.00  0.00     0.010 A 
ATOM     18  C   UNL     1      -2.313   9.799  26.301  1.00  0.00     0.022 A 
ATOM     19  C   UNL     1       0.423   9.246  26.120  1.00  0.00     0.001 A 
ATOM     20  C   UNL     1      -1.710   8.929  27.220  1.00  0.00     0.017 A 
ATOM     21  C   UNL     1      -0.339   8.660  27.132  1.00  0.00     0.012 A 
BRANCH  20  22
ATOM     22  C   UNL     1      -2.548   8.317  28.294  1.00  0.00     0.122 C 
ATOM     23  N   UNL     1      -2.098   7.283  28.928  1.00  0.00    -0.284 NA
ATOM     24  N   UNL     1      -3.760   8.836  28.617  1.00  0.00    -0.384 N 
ATOM     25  H   UNL     1      -2.783   6.987  29.626  1.00  0.00     0.189 HD
ATOM     26  H   UNL     1      -4.079   9.718  28.240  1.00  0.00     0.158 HD
ATOM     27  H   UNL     1      -4.328   8.427  29.344  1.00  0.00     0.158 HD
ENDBRANCH  20  22
ENDBRANCH   8  16
ENDBRANCH   1   5
BRANCH   3  28
ATOM     28  C   UNL     1      -5.163  10.767  19.789  1.00  0.00     0.229 A 
ATOM     29  N   UNL     1      -6.104   9.894  20.160  1.00  0.00    -0.221 NA
ATOM     30  N   UNL     1      -5.134  11.378  18.595  1.00  0.00    -0.221 NA
ATOM     31  C   UNL     1      -7.069   9.612  19.260  1.00  0.00     0.125 A 
ATOM     32  C   UNL     1      -6.132  11.078  17.736  1.00  0.00     0.125 A 
ATOM     33  C   UNL     1      -7.147  10.180  18.003  1.00  0.00     0.020 A 
BRANCH  33  34
ATOM     34  C   UNL     1      -8.226   9.901  17.057  1.00  0.00     0.005 A 
ATOM     35  C   UNL     1      -8.021   8.877  16.109  1.00  0.00     0.010 A 
ATOM     36  C   UNL     1      -9.464  10.575  17.032  1.00  0.00     0.090 A 
ATOM     37  C   UNL     1      -9.005   8.537  15.178  1.00  0.00     0.001 A 
ATOM     38  C   UNL     1     -10.451  10.231  16.094  1.00  0.00     0.022 A 
ATOM     39  C   UNL     1     -10.220   9.213  15.170  1.00  0.00     0.001 A 
BRANCH  36  40
ATOM     40  S   UNL     1      -9.833  11.901  18.156  1.00  0.00     0.238 S 
ATOM     41  O   UNL     1      -8.963  13.019  17.870  1.00  0.00    -0.207 OA
ATOM     42  O   UNL     1      -9.972  11.359  19.485  1.00  0.00    -0.207 OA
BRANCH  40  43
ATOM     43  N   UNL     1     -11.357  12.408  17.666  1.00  0.00    -0.225 NA
ATOM     44  H   UNL     1     -11.761  11.713  17.037  1.00  0.00     0.137 HD
ATOM     45  H   UNL     1     -11.294  13.340  17.251  1.00  0.00     0.137 HD
ENDBRANCH  40  43
ENDBRANCH  36  40
ENDBRANCH  33  34
ENDBRANCH   3  28
TORSDOF 10
ENDMDL
MODEL 9
REMARK VINA RESULT:    -8.498      4.827      8.642
REMARK INTER + INTRA:         -14.115
REMARK INTER:                 -13.233
REMARK INTRA:                  -0.882
REMARK UNBOUND:                -0.897
REMARK SMILES CCS(=O)(=O)C[C@@]1(C(=O)Nc2ncc(-c3ccccc3S(N)(=O)=O)cn2)CC(c2cccc(C(=N)N)c2)=NO1
REMARK SMILES IDX 8 1 9 2 10 3 7 5 27 6 39 7 28 8 38 9 6 10 3 11 4 12 5 13
REMARK SMILES IDX 2 14 1 15 29 16 30 17 37 18 31 19 33 20 32 21 34 22 35 23
REMARK SMILES IDX 36 24 11 28 12 29 26 30 13 31 25 32 14 33 15 34 16 35 20 36
REMARK SMILES IDX 17 37 19 38 18 39 21 40 23 41 24 42 22 43
REMARK H PARENT 10 4 35 25 36 26 36 27 22 44 22 45
ROOT
ATOM      1  C   UNL     1      -3.193  13.243  21.798  1.00  0.00     0.275 C 
ATOM      2  O   UNL     1      -2.754  14.281  21.306  1.00  0.00    -0.270 OA
ATOM      3  N   UNL     1      -4.171  13.143  22.759  1.00  0.00    -0.291 N 
ATOM      4  H   UNL     1      -4.412  12.228  23.120  1.00  0.00     0.173 HD
ENDROOT
BRANCH   1   5
ATOM      5  C   UNL     1      -2.706  11.872  21.292  1.00  0.00     0.234 C 
ATOM      6  C   UNL     1      -3.167  11.692  19.855  1.00  0.00     0.123 C 
ATOM      7  O   UNL     1      -3.396  10.894  22.077  1.00  0.00    -0.377 OA
ATOM      8  C   UNL     1      -3.925  10.420  20.000  1.00  0.00     0.092 C 
ATOM      9  N   UNL     1      -4.091  10.017  21.219  1.00  0.00    -0.089 NA
BRANCH   5  10
ATOM     10  C   UNL     1      -1.201  11.791  21.521  1.00  0.00     0.199 C 
BRANCH  10  11
ATOM     11  S   UNL     1      -0.710  11.869  23.228  1.00  0.00     0.154 S 
ATOM     12  O   UNL     1      -1.754  12.534  23.985  1.00  0.00    -0.229 OA
ATOM     13  O   UNL     1       0.661  12.330  23.295  1.00  0.00    -0.229 OA
BRANCH  11  14
ATOM     14  C   UNL     1      -0.681  10.159  23.740  1.00  0.00     0.134 C 
ATOM     15  C   UNL     1      -0.418   9.965  25.220  1.00  0.00     0.021 C 
ENDBRANCH  11  14
ENDBRANCH  10  11
ENDBRANCH   5  10
BRANCH   8  16
ATOM     16  C   UNL     1      -4.477   9.699  18.830  1.00  0.00     0.000 A 
ATOM     17  C   UNL     1      -4.625  10.386  17.619  1.00  0.00     0.010 A 
ATOM     18  C   UNL     1      -4.847   8.353  18.911  1.00  0.00     0.022 A 
ATOM     19  C   UNL     1      -5.131   9.732  16.495  1.00  0.00     0.001 A 
ATOM     20  C   UNL     1      -5.364   7.698  17.785  1.00  0.00     0.017 A 
ATOM     21  C   UNL     1      -5.499   8.388  16.574  1.00  0.00     0.012 A 
BRANCH  20  22
ATOM     22  C   UNL     1      -5.748   6.259  17.898  1.00  0.00     0.122 C 
ATOM     23  N   UNL     1      -4.938   5.438  18.482  1.00  0.00    -0.284 NA
ATOM     24  N   UNL     1      -6.932   5.810  17.408  1.00  0.00    -0.384 N 
ATOM     25  H   UNL     1      -5.342   4.499  18.479  1.00  0.00     0.189 HD
ATOM     26  H   UNL     1      -7.644   6.444  17.071  1.00  0.00     0.158 HD
ATOM     27  H   UNL     1      -7.196   4.839  17.485  1.00  0.00     0.158 HD
ENDBRANCH  20  22
ENDBRANCH   8  16
ENDBRANCH   1   5
BRANCH   3  28
ATOM     28  C   UNL     1      -4.857  14.184  23.356  1.00  0.00     0.229 A 
ATOM     29  N   UNL     1      -4.370  14.829  24.419  1.00  0.00    -0.221 NA
ATOM     30  N   UNL     1      -6.026  14.481  22.768  1.00  0.00    -0.221 NA
ATOM     31  C   UNL     1      -5.119  15.829  24.927  1.00  0.00     0.125 A 
ATOM     32  C   UNL     1      -6.730  15.502  23.301  1.00  0.00     0.125 A 
ATOM     33  C   UNL     1      -6.335  16.228  24.406  1.00  0.00     0.020 A 
BRANCH  33  34
ATOM     34  C   UNL     1      -7.112  17.346  24.939  1.00  0.00     0.005 A 
ATOM     35  C   UNL     1      -8.109  17.059  25.894  1.00  0.00     0.010 A 
ATOM     36  C   UNL     1      -6.928  18.696  24.575  1.00  0.00     0.090 A 
ATOM     37  C   UNL     1      -8.889  18.068  26.463  1.00  0.00     0.001 A 
ATOM     38  C   UNL     1      -7.714  19.709  25.148  1.00  0.00     0.022 A 
ATOM     39  C   UNL     1      -8.691  19.394  26.091  1.00  0.00     0.001 A 
BRANCH  36  40
ATOM     40  S   UNL     1      -5.724  19.185  23.364  1.00  0.00     0.238 S 
ATOM     41  O   UNL     1      -6.114  18.667  22.073  1.00  0.00    -0.207 OA
ATOM     42  O   UNL     1      -4.405  18.972  23.907  1.00  0.00    -0.207 OA
BRANCH  40  43
ATOM     43  N   UNL     1      -5.948  20.844  23.244  1.00  0.00    -0.225 NA
ATOM     44  H   UNL     1      -5.349  21.216  22.505  1.00  0.00     0.137 HD
ATOM     45  H   UNL     1      -5.783  21.281  24.154  1.00  0.00     0.137 HD
ENDBRANCH  40  43
ENDBRANCH  36  40
ENDBRANCH  33  34
ENDBRANCH   3  28
TORSDOF 10
ENDMDL
