REMARK SMILES COc1cccc2cc(-c3nc([C@H]4CC[C@H](C(=O)O)CC4)n4ncnc(N)c34)[nH]c12
REMARK SMILES IDX 10 1 11 2 12 3 22 4 23 5 24 6 25 7 26 8 28 9 9 10 3 11 4 12
REMARK SMILES IDX 30 13 5 14 29 15 7 16 6 17 8 18 2 20 1 21 13 22 14 23 21 24
REMARK SMILES IDX 15 25 20 26 16 27 17 28 18 29 19 30 27 32
REMARK H PARENT 29 19 19 31 27 33 27 34
REMARK INDEX MAP 10 1 11 2 12 3 22 4 23 5 24 6 25 7 26 8 28 9 9 10 3 11 4 12
REMARK INDEX MAP 30 13 5 14 29 15 7 16 6 17 8 18 52 19 2 20 1 21 13 22 14 23
REMARK INDEX MAP 21 24 15 25 20 26 16 27 17 28 18 29 19 30 44 31 27 32 50 33
REMARK INDEX MAP 51 34
ROOT
ATOM      1  C   UNL     1      31.813  46.413  42.729  1.00  0.00     0.118 A 
ATOM      2  N   UNL     1      33.033  47.011  42.501  1.00  0.00    -0.229 NA
ATOM      3  C   UNL     1      33.335  47.634  43.625  1.00  0.00     0.134 A 
ATOM      4  N   UNL     1      32.330  47.472  44.552  1.00  0.00    -0.212 N 
ATOM      5  N   UNL     1      32.325  47.887  45.835  1.00  0.00    -0.154 NA
ATOM      6  C   UNL     1      31.223  47.617  46.461  1.00  0.00     0.247 A 
ATOM      7  N   UNL     1      30.096  47.038  45.934  1.00  0.00    -0.216 NA
ATOM      8  C   UNL     1      30.105  46.649  44.692  1.00  0.00     0.153 A 
ATOM      9  C   UNL     1      31.311  46.787  43.953  1.00  0.00     0.137 A 
ENDROOT
BRANCH   1  10
ATOM     10  C   UNL     1      31.249  45.455  41.655  1.00  0.00     0.068 A 
ATOM     11  C   UNL     1      31.086  44.356  38.199  1.00  0.00     0.142 A 
ATOM     12  C   UNL     1      30.312  43.298  37.705  1.00  0.00     0.049 A 
ATOM     13  C   UNL     1      31.000  44.599  39.577  1.00  0.00     0.089 A 
ATOM     14  C   UNL     1      29.513  42.523  38.550  1.00  0.00     0.005 A 
ATOM     15  N   UNL     1      31.638  45.547  40.344  1.00  0.00    -0.350 N 
ATOM     16  C   UNL     1      30.210  43.848  40.446  1.00  0.00     0.004 A 
ATOM     17  C   UNL     1      29.457  42.782  39.923  1.00  0.00     0.010 A 
ATOM     18  C   UNL     1      30.392  44.384  41.756  1.00  0.00     0.038 A 
ATOM     19  H   UNL     1      32.316  46.233  39.982  1.00  0.00     0.167 HD
BRANCH  11  20
ATOM     20  O   UNL     1      31.904  45.168  37.468  1.00  0.00    -0.495 OA
ATOM     21  C   UNL     1      31.598  46.557  37.478  1.00  0.00     0.278 C 
ENDBRANCH  11  20
ENDBRANCH   1  10
BRANCH   3  22
ATOM     22  C   UNL     1      34.595  48.390  43.921  1.00  0.00     0.058 C 
ATOM     23  C   UNL     1      34.359  49.907  43.858  1.00  0.00     0.012 C 
ATOM     24  C   UNL     1      35.706  47.973  42.945  1.00  0.00     0.012 C 
ATOM     25  C   UNL     1      35.646  50.687  44.114  1.00  0.00     0.016 C 
ATOM     26  C   UNL     1      36.996  48.758  43.183  1.00  0.00     0.016 C 
ATOM     27  C   UNL     1      36.756  50.269  43.144  1.00  0.00     0.099 C 
BRANCH  27  28
ATOM     28  C   UNL     1      38.037  50.992  43.481  1.00  0.00     0.306 C 
ATOM     29  O   UNL     1      38.157  52.172  43.762  1.00  0.00    -0.252 OA
BRANCH  28  30
ATOM     30  O   UNL     1      39.108  50.176  43.472  1.00  0.00    -0.481 OA
ATOM     31  H   UNL     1      40.007  50.536  43.678  1.00  0.00     0.296 HD
ENDBRANCH  28  30
ENDBRANCH  27  28
ENDBRANCH   3  22
BRANCH   8  32
ATOM     32  N   UNL     1      28.925  46.200  44.193  1.00  0.00    -0.382 N 
ATOM     33  H   UNL     1      28.868  45.878  43.216  1.00  0.00     0.158 HD
ATOM     34  H   UNL     1      28.087  46.181  44.791  1.00  0.00     0.158 HD
ENDBRANCH   8  32
TORSDOF 6
