REMARK VINA RESULT:    -7.127      3.820      7.254
REMARK INTER + INTRA:         -12.512
REMARK INTER:                 -10.679
REMARK INTRA:                  -1.833
REMARK UNBOUND:                -1.011
REMARK SMILES CCCc1cc2c(oc(=O)n2CC)c(CCC)c1O[C@H](C(=O)O)c1ccc(C(C)C)cc1
REMARK SMILES IDX 19 1 18 2 4 3 5 4 6 5 14 6 7 7 11 8 8 9 9 10 10 11 3 12 2 13
REMARK SMILES IDX 1 14 15 15 16 16 17 17 12 18 13 19 20 20 21 21 22 22 23 23
REMARK SMILES IDX 24 25 25 26 32 27 26 28 31 29 27 30 28 31 29 32 30 33
REMARK H PARENT 23 24
ROOT
ATOM      1  O   UNL     1     -11.631  -7.466 -30.781  1.00  0.00    -0.473 OA
ENDROOT
BRANCH   1   2
ATOM      2  C   UNL     1     -10.993  -6.267 -31.001  1.00  0.00     0.131 A 
ATOM      3  C   UNL     1     -11.374  -5.114 -30.254  1.00  0.00    -0.003 A 
ATOM      4  C   UNL     1     -10.734  -3.884 -30.502  1.00  0.00     0.038 A 
ATOM      5  C   UNL     1      -9.728  -3.860 -31.439  1.00  0.00     0.091 A 
ATOM      6  C   UNL     1      -9.915  -6.230 -31.910  1.00  0.00     0.040 A 
ATOM      7  C   UNL     1      -9.324  -4.992 -32.115  1.00  0.00     0.163 A 
ATOM      8  N   UNL     1      -8.922  -2.838 -31.883  1.00  0.00    -0.274 N 
ATOM      9  O   UNL     1      -8.276  -4.734 -32.991  1.00  0.00    -0.407 OA
ATOM     10  C   UNL     1      -8.059  -3.360 -32.826  1.00  0.00     0.419 A 
ATOM     11  O   UNL     1      -7.212  -2.739 -33.452  1.00  0.00    -0.223 OA
BRANCH   3  12
ATOM     12  C   UNL     1     -12.410  -5.161 -29.150  1.00  0.00     0.039 C 
BRANCH  12  13
ATOM     13  C   UNL     1     -11.877  -4.740 -27.777  1.00  0.00     0.001 C 
ATOM     14  C   UNL     1     -12.876  -4.972 -26.651  1.00  0.00     0.004 C 
ENDBRANCH  12  13
ENDBRANCH   3  12
BRANCH   6  15
ATOM     15  C   UNL     1      -9.358  -7.451 -32.598  1.00  0.00     0.043 C 
BRANCH  15  16
ATOM     16  C   UNL     1      -7.834  -7.574 -32.487  1.00  0.00     0.002 C 
ATOM     17  C   UNL     1      -7.391  -8.762 -31.641  1.00  0.00     0.004 C 
ENDBRANCH  15  16
ENDBRANCH   6  15
BRANCH   8  18
ATOM     18  C   UNL     1      -8.986  -1.459 -31.473  1.00  0.00     0.126 C 
ATOM     19  C   UNL     1     -10.048  -0.684 -32.234  1.00  0.00     0.028 C 
ENDBRANCH   8  18
ENDBRANCH   1   2
BRANCH   1  20
ATOM     20  C   UNL     1     -10.722  -8.498 -30.347  1.00  0.00     0.312 C 
BRANCH  20  21
ATOM     21  C   UNL     1     -11.304  -9.884 -30.669  1.00  0.00     0.349 C 
ATOM     22  O   UNL     1     -12.439 -10.286 -30.462  1.00  0.00    -0.248 OA
BRANCH  21  23
ATOM     23  O   UNL     1     -10.411 -10.707 -31.271  1.00  0.00    -0.478 OA
ATOM     24  H   UNL     1      -9.541 -10.370 -30.970  1.00  0.00     0.296 HD
ENDBRANCH  21  23
ENDBRANCH  20  21
BRANCH  20  25
ATOM     25  C   UNL     1     -10.484  -8.365 -28.851  1.00  0.00     0.004 A 
ATOM     26  C   UNL     1      -9.195  -8.126 -28.356  1.00  0.00     0.008 A 
ATOM     27  C   UNL     1     -11.547  -8.462 -27.941  1.00  0.00     0.008 A 
ATOM     28  C   UNL     1      -8.975  -7.988 -26.983  1.00  0.00     0.004 A 
ATOM     29  C   UNL     1     -11.325  -8.326 -26.568  1.00  0.00     0.004 A 
ATOM     30  C   UNL     1     -10.036  -8.089 -26.071  1.00  0.00    -0.045 A 
BRANCH  30  31
ATOM     31  C   UNL     1      -9.822  -7.932 -24.576  1.00  0.00     0.013 C 
ATOM     32  C   UNL     1      -8.419  -8.384 -24.168  1.00  0.00     0.012 C 
ATOM     33  C   UNL     1     -10.891  -8.671 -23.765  1.00  0.00     0.012 C 
ENDBRANCH  30  31
ENDBRANCH  20  25
ENDBRANCH   1  20
TORSDOF 11
