MODEL 1
REMARK VINA RESULT:    -9.612      0.000      0.000
REMARK INTER + INTRA:         -16.373
REMARK INTER:                 -14.950
REMARK INTRA:                  -1.424
REMARK UNBOUND:                -1.424
REMARK SMILES Cc1oc(-c2ccccc2)nc1CCCc1ccc(C[C@@H](C(=O)O)n2nccn2)cc1
REMARK SMILES IDX 16 1 17 2 18 3 19 4 30 5 31 6 15 7 14 8 13 9 12 10 2 11 3 12
REMARK SMILES IDX 4 13 11 14 1 15 5 16 6 17 10 18 7 19 9 20 8 21 20 22 21 23
REMARK SMILES IDX 22 24 23 25 24 26 25 28 26 29 29 30 27 31 28 32
REMARK H PARENT 24 27
ROOT
ATOM      1  C   UNL     1       7.357  10.243  -4.376  1.00  0.00    -0.048 A 
ATOM      2  C   UNL     1       6.358   9.758  -5.230  1.00  0.00     0.004 A 
ATOM      3  C   UNL     1       5.205   9.167  -4.713  1.00  0.00     0.004 A 
ATOM      4  C   UNL     1       5.023   9.058  -3.331  1.00  0.00    -0.045 A 
ATOM      5  C   UNL     1       6.008   9.566  -2.473  1.00  0.00     0.004 A 
ATOM      6  C   UNL     1       7.161  10.158  -2.993  1.00  0.00     0.004 A 
ENDROOT
BRANCH   1   7
ATOM      7  C   UNL     1       8.613  10.850  -4.954  1.00  0.00     0.036 C 
BRANCH   7   8
ATOM      8  C   UNL     1       8.693  10.827  -6.487  1.00  0.00     0.011 C 
BRANCH   8   9
ATOM      9  C   UNL     1      10.109  10.720  -7.068  1.00  0.00     0.060 C 
BRANCH   9  10
ATOM     10  C   UNL     1      10.170  10.071  -8.403  1.00  0.00     0.083 A 
ATOM     11  C   UNL     1       9.946   8.756  -8.751  1.00  0.00     0.125 A 
ATOM     12  O   UNL     1      10.117   8.643 -10.102  1.00  0.00    -0.441 OA
ATOM     13  C   UNL     1      10.447   9.910 -10.511  1.00  0.00     0.226 A 
ATOM     14  N   UNL     1      10.494  10.794  -9.530  1.00  0.00    -0.214 NA
ATOM     15  C   UNL     1       9.580   7.527  -8.023  1.00  0.00     0.090 C 
BRANCH  13  16
ATOM     16  C   UNL     1      10.696  10.100 -11.937  1.00  0.00     0.037 A 
ATOM     17  C   UNL     1      10.415  11.313 -12.585  1.00  0.00     0.014 A 
ATOM     18  C   UNL     1      11.230   9.046 -12.694  1.00  0.00     0.014 A 
ATOM     19  C   UNL     1      10.660  11.466 -13.953  1.00  0.00     0.001 A 
ATOM     20  C   UNL     1      11.475   9.198 -14.061  1.00  0.00     0.001 A 
ATOM     21  C   UNL     1      11.189  10.408 -14.690  1.00  0.00     0.000 A 
ENDBRANCH  13  16
ENDBRANCH   9  10
ENDBRANCH   8   9
ENDBRANCH   7   8
ENDBRANCH   1   7
BRANCH   4  22
ATOM     22  C   UNL     1       3.797   8.373  -2.770  1.00  0.00     0.076 C 
BRANCH  22  23
ATOM     23  C   UNL     1       4.060   7.707  -1.412  1.00  0.00     0.242 C 
BRANCH  23  24
ATOM     24  C   UNL     1       3.047   8.177  -0.399  1.00  0.00     0.330 C 
ATOM     25  O   UNL     1       2.284   9.128  -0.459  1.00  0.00    -0.250 OA
BRANCH  24  26
ATOM     26  O   UNL     1       3.016   7.387   0.703  1.00  0.00    -0.480 OA
ATOM     27  H   UNL     1       2.561   7.940   1.376  1.00  0.00     0.296 HD
ENDBRANCH  24  26
ENDBRANCH  23  24
BRANCH  23  28
ATOM     28  N   UNL     1       4.068   6.255  -1.462  1.00  0.00    -0.170 N 
ATOM     29  N   UNL     1       5.128   5.518  -1.048  1.00  0.00    -0.161 NA
ATOM     30  N   UNL     1       2.982   5.571  -1.898  1.00  0.00    -0.161 NA
ATOM     31  C   UNL     1       4.709   4.276  -1.302  1.00  0.00     0.157 A 
ATOM     32  C   UNL     1       3.411   4.307  -1.821  1.00  0.00     0.157 A 
ENDBRANCH  23  28
ENDBRANCH  22  23
ENDBRANCH   4  22
TORSDOF 10
ENDMDL
MODEL 2
REMARK VINA RESULT:    -9.396      1.340      2.338
REMARK INTER + INTRA:         -16.038
REMARK INTER:                 -14.827
REMARK INTRA:                  -1.212
REMARK UNBOUND:                -1.424
REMARK SMILES Cc1oc(-c2ccccc2)nc1CCCc1ccc(C[C@@H](C(=O)O)n2nccn2)cc1
REMARK SMILES IDX 16 1 17 2 18 3 19 4 30 5 31 6 15 7 14 8 13 9 12 10 2 11 3 12
REMARK SMILES IDX 4 13 11 14 1 15 5 16 6 17 10 18 7 19 9 20 8 21 20 22 21 23
REMARK SMILES IDX 22 24 23 25 24 26 25 28 26 29 29 30 27 31 28 32
REMARK H PARENT 24 27
ROOT
ATOM      1  C   UNL     1       6.814   9.994  -4.987  1.00  0.00    -0.048 A 
ATOM      2  C   UNL     1       5.856   9.208  -5.639  1.00  0.00     0.004 A 
ATOM      3  C   UNL     1       4.796   8.642  -4.929  1.00  0.00     0.004 A 
ATOM      4  C   UNL     1       4.669   8.859  -3.553  1.00  0.00    -0.045 A 
ATOM      5  C   UNL     1       5.612   9.666  -2.902  1.00  0.00     0.004 A 
ATOM      6  C   UNL     1       6.670  10.233  -3.615  1.00  0.00     0.004 A 
ENDROOT
BRANCH   1   7
ATOM      7  C   UNL     1       7.972  10.570  -5.767  1.00  0.00     0.036 C 
BRANCH   7   8
ATOM      8  C   UNL     1       9.193  10.951  -4.918  1.00  0.00     0.011 C 
BRANCH   8   9
ATOM      9  C   UNL     1      10.455  11.315  -5.712  1.00  0.00     0.060 C 
BRANCH   9  10
ATOM     10  C   UNL     1      10.338  11.090  -7.175  1.00  0.00     0.083 A 
ATOM     11  C   UNL     1      10.125  12.001  -8.189  1.00  0.00     0.125 A 
ATOM     12  O   UNL     1      10.099  11.316  -9.371  1.00  0.00    -0.441 OA
ATOM     13  C   UNL     1      10.293  10.007  -9.011  1.00  0.00     0.226 A 
ATOM     14  N   UNL     1      10.437   9.825  -7.711  1.00  0.00    -0.214 NA
ATOM     15  C   UNL     1       9.938  13.461  -8.263  1.00  0.00     0.090 C 
BRANCH  13  16
ATOM     16  C   UNL     1      10.311   9.021 -10.088  1.00  0.00     0.037 A 
ATOM     17  C   UNL     1      10.363   7.642  -9.834  1.00  0.00     0.014 A 
ATOM     18  C   UNL     1      10.277   9.453 -11.423  1.00  0.00     0.014 A 
ATOM     19  C   UNL     1      10.383   6.721 -10.885  1.00  0.00     0.001 A 
ATOM     20  C   UNL     1      10.297   8.533 -12.475  1.00  0.00     0.001 A 
ATOM     21  C   UNL     1      10.351   7.167 -12.205  1.00  0.00     0.000 A 
ENDBRANCH  13  16
ENDBRANCH   9  10
ENDBRANCH   8   9
ENDBRANCH   7   8
ENDBRANCH   1   7
BRANCH   4  22
ATOM     22  C   UNL     1       3.550   8.206  -2.774  1.00  0.00     0.076 C 
BRANCH  22  23
ATOM     23  C   UNL     1       4.006   7.695  -1.399  1.00  0.00     0.242 C 
BRANCH  23  24
ATOM     24  C   UNL     1       3.045   8.152  -0.331  1.00  0.00     0.330 C 
ATOM     25  O   UNL     1       2.283   9.105  -0.339  1.00  0.00    -0.250 OA
BRANCH  24  26
ATOM     26  O   UNL     1       3.066   7.346   0.759  1.00  0.00    -0.480 OA
ATOM     27  H   UNL     1       2.214   7.538   1.210  1.00  0.00     0.296 HD
ENDBRANCH  24  26
ENDBRANCH  23  24
BRANCH  23  28
ATOM     28  N   UNL     1       4.165   6.252  -1.333  1.00  0.00    -0.170 N 
ATOM     29  N   UNL     1       3.110   5.402  -1.347  1.00  0.00    -0.161 NA
ATOM     30  N   UNL     1       5.400   5.693  -1.291  1.00  0.00    -0.161 NA
ATOM     31  C   UNL     1       3.716   4.217  -1.240  1.00  0.00     0.157 A 
ATOM     32  C   UNL     1       5.103   4.392  -1.201  1.00  0.00     0.157 A 
ENDBRANCH  23  28
ENDBRANCH  22  23
ENDBRANCH   4  22
TORSDOF 10
ENDMDL
MODEL 3
REMARK VINA RESULT:    -9.235      2.570      3.786
REMARK INTER + INTRA:         -15.787
REMARK INTER:                 -14.134
REMARK INTRA:                  -1.653
REMARK UNBOUND:                -1.424
REMARK SMILES Cc1oc(-c2ccccc2)nc1CCCc1ccc(C[C@@H](C(=O)O)n2nccn2)cc1
REMARK SMILES IDX 16 1 17 2 18 3 19 4 30 5 31 6 15 7 14 8 13 9 12 10 2 11 3 12
REMARK SMILES IDX 4 13 11 14 1 15 5 16 6 17 10 18 7 19 9 20 8 21 20 22 21 23
REMARK SMILES IDX 22 24 23 25 24 26 25 28 26 29 29 30 27 31 28 32
REMARK H PARENT 24 27
ROOT
ATOM      1  C   UNL     1       6.423   5.802  -6.375  1.00  0.00    -0.048 A 
ATOM      2  C   UNL     1       5.666   5.136  -5.404  1.00  0.00     0.004 A 
ATOM      3  C   UNL     1       4.896   5.853  -4.486  1.00  0.00     0.004 A 
ATOM      4  C   UNL     1       4.862   7.250  -4.528  1.00  0.00    -0.045 A 
ATOM      5  C   UNL     1       5.598   7.919  -5.515  1.00  0.00     0.004 A 
ATOM      6  C   UNL     1       6.366   7.200  -6.434  1.00  0.00     0.004 A 
ENDROOT
BRANCH   1   7
ATOM      7  C   UNL     1       7.275   5.012  -7.339  1.00  0.00     0.036 C 
BRANCH   7   8
ATOM      8  C   UNL     1       8.478   4.301  -6.701  1.00  0.00     0.011 C 
BRANCH   8   9
ATOM      9  C   UNL     1       9.828   5.004  -6.889  1.00  0.00     0.060 C 
BRANCH   9  10
ATOM     10  C   UNL     1      10.025   5.593  -8.238  1.00  0.00     0.083 A 
ATOM     11  C   UNL     1      10.159   4.965  -9.459  1.00  0.00     0.125 A 
ATOM     12  O   UNL     1      10.313   5.931 -10.413  1.00  0.00    -0.441 OA
ATOM     13  C   UNL     1      10.272   7.110  -9.715  1.00  0.00     0.226 A 
ATOM     14  N   UNL     1      10.105   6.957  -8.414  1.00  0.00    -0.214 NA
ATOM     15  C   UNL     1      10.163   3.566  -9.923  1.00  0.00     0.090 C 
BRANCH  13  16
ATOM     16  C   UNL     1      10.417   8.341 -10.488  1.00  0.00     0.037 A 
ATOM     17  C   UNL     1      10.610   8.327 -11.878  1.00  0.00     0.014 A 
ATOM     18  C   UNL     1      10.365   9.581  -9.833  1.00  0.00     0.014 A 
ATOM     19  C   UNL     1      10.749   9.521 -12.592  1.00  0.00     0.001 A 
ATOM     20  C   UNL     1      10.505  10.775 -10.546  1.00  0.00     0.001 A 
ATOM     21  C   UNL     1      10.697  10.744 -11.926  1.00  0.00     0.000 A 
ENDBRANCH  13  16
ENDBRANCH   9  10
ENDBRANCH   8   9
ENDBRANCH   7   8
ENDBRANCH   1   7
BRANCH   4  22
ATOM     22  C   UNL     1       4.068   8.029  -3.503  1.00  0.00     0.076 C 
BRANCH  22  23
ATOM     23  C   UNL     1       4.691   7.968  -2.101  1.00  0.00     0.242 C 
BRANCH  23  24
ATOM     24  C   UNL     1       5.453   9.237  -1.816  1.00  0.00     0.330 C 
ATOM     25  O   UNL     1       5.938  10.035  -2.602  1.00  0.00    -0.250 OA
BRANCH  24  26
ATOM     26  O   UNL     1       5.573   9.479  -0.488  1.00  0.00    -0.480 OA
ATOM     27  H   UNL     1       6.412   9.030  -0.242  1.00  0.00     0.296 HD
ENDBRANCH  24  26
ENDBRANCH  23  24
BRANCH  23  28
ATOM     28  N   UNL     1       3.727   7.725  -1.041  1.00  0.00    -0.170 N 
ATOM     29  N   UNL     1       3.812   6.656  -0.211  1.00  0.00    -0.161 NA
ATOM     30  N   UNL     1       2.711   8.594  -0.815  1.00  0.00    -0.161 NA
ATOM     31  C   UNL     1       2.732   6.823   0.556  1.00  0.00     0.157 A 
ATOM     32  C   UNL     1       2.062   7.995   0.187  1.00  0.00     0.157 A 
ENDBRANCH  23  28
ENDBRANCH  22  23
ENDBRANCH   4  22
TORSDOF 10
ENDMDL
MODEL 4
REMARK VINA RESULT:    -9.079      4.908      7.224
REMARK INTER + INTRA:         -15.546
REMARK INTER:                 -13.727
REMARK INTRA:                  -1.818
REMARK UNBOUND:                -1.424
REMARK SMILES Cc1oc(-c2ccccc2)nc1CCCc1ccc(C[C@@H](C(=O)O)n2nccn2)cc1
REMARK SMILES IDX 16 1 17 2 18 3 19 4 30 5 31 6 15 7 14 8 13 9 12 10 2 11 3 12
REMARK SMILES IDX 4 13 11 14 1 15 5 16 6 17 10 18 7 19 9 20 8 21 20 22 21 23
REMARK SMILES IDX 22 24 23 25 24 26 25 28 26 29 29 30 27 31 28 32
REMARK H PARENT 24 27
ROOT
ATOM      1  C   UNL     1      11.513   5.718 -11.147  1.00  0.00    -0.048 A 
ATOM      2  C   UNL     1      11.482   6.221  -9.841  1.00  0.00     0.004 A 
ATOM      3  C   UNL     1      10.760   5.565  -8.843  1.00  0.00     0.004 A 
ATOM      4  C   UNL     1      10.061   4.389  -9.130  1.00  0.00    -0.045 A 
ATOM      5  C   UNL     1      10.111   3.869 -10.430  1.00  0.00     0.004 A 
ATOM      6  C   UNL     1      10.836   4.525 -11.427  1.00  0.00     0.004 A 
ENDROOT
BRANCH   1   7
ATOM      7  C   UNL     1      12.273   6.459 -12.221  1.00  0.00     0.036 C 
BRANCH   7   8
ATOM      8  C   UNL     1      11.394   7.119 -13.294  1.00  0.00     0.011 C 
BRANCH   8   9
ATOM      9  C   UNL     1      10.138   7.825 -12.768  1.00  0.00     0.060 C 
BRANCH   9  10
ATOM     10  C   UNL     1      10.411   9.091 -12.042  1.00  0.00     0.083 A 
ATOM     11  C   UNL     1      10.855  10.303 -12.529  1.00  0.00     0.125 A 
ATOM     12  O   UNL     1      10.950  11.169 -11.475  1.00  0.00    -0.441 OA
ATOM     13  C   UNL     1      10.561  10.429 -10.389  1.00  0.00     0.226 A 
ATOM     14  N   UNL     1      10.233   9.183 -10.679  1.00  0.00    -0.214 NA
ATOM     15  C   UNL     1      11.219  10.830 -13.856  1.00  0.00     0.090 C 
BRANCH  13  16
ATOM     16  C   UNL     1      10.564  11.104  -9.094  1.00  0.00     0.037 A 
ATOM     17  C   UNL     1      10.193  12.451  -8.957  1.00  0.00     0.014 A 
ATOM     18  C   UNL     1      10.949  10.397  -7.945  1.00  0.00     0.014 A 
ATOM     19  C   UNL     1      10.209  13.073  -7.705  1.00  0.00     0.001 A 
ATOM     20  C   UNL     1      10.966  11.018  -6.693  1.00  0.00     0.001 A 
ATOM     21  C   UNL     1      10.597  12.357  -6.574  1.00  0.00     0.000 A 
ENDBRANCH  13  16
ENDBRANCH   9  10
ENDBRANCH   8   9
ENDBRANCH   7   8
ENDBRANCH   1   7
BRANCH   4  22
ATOM     22  C   UNL     1       9.238   3.705  -8.062  1.00  0.00     0.076 C 
BRANCH  22  23
ATOM     23  C   UNL     1       9.297   4.434  -6.712  1.00  0.00     0.242 C 
BRANCH  23  24
ATOM     24  C   UNL     1       8.067   5.287  -6.528  1.00  0.00     0.330 C 
ATOM     25  O   UNL     1       7.848   6.416  -6.934  1.00  0.00    -0.250 OA
BRANCH  24  26
ATOM     26  O   UNL     1       7.102   4.652  -5.819  1.00  0.00    -0.480 OA
ATOM     27  H   UNL     1       6.641   4.101  -6.490  1.00  0.00     0.296 HD
ENDBRANCH  24  26
ENDBRANCH  23  24
BRANCH  23  28
ATOM     28  N   UNL     1       9.455   3.547  -5.571  1.00  0.00    -0.170 N 
ATOM     29  N   UNL     1      10.073   3.934  -4.429  1.00  0.00    -0.161 NA
ATOM     30  N   UNL     1       8.947   2.290  -5.596  1.00  0.00    -0.161 NA
ATOM     31  C   UNL     1      10.012   2.818  -3.698  1.00  0.00     0.157 A 
ATOM     32  C   UNL     1       9.335   1.820  -4.406  1.00  0.00     0.157 A 
ENDBRANCH  23  28
ENDBRANCH  22  23
ENDBRANCH   4  22
TORSDOF 10
ENDMDL
MODEL 5
REMARK VINA RESULT:    -8.894      2.187      3.173
REMARK INTER + INTRA:         -15.256
REMARK INTER:                 -13.922
REMARK INTRA:                  -1.334
REMARK UNBOUND:                -1.424
REMARK SMILES Cc1oc(-c2ccccc2)nc1CCCc1ccc(C[C@@H](C(=O)O)n2nccn2)cc1
REMARK SMILES IDX 16 1 17 2 18 3 19 4 30 5 31 6 15 7 14 8 13 9 12 10 2 11 3 12
REMARK SMILES IDX 4 13 11 14 1 15 5 16 6 17 10 18 7 19 9 20 8 21 20 22 21 23
REMARK SMILES IDX 22 24 23 25 24 26 25 28 26 29 29 30 27 31 28 32
REMARK H PARENT 24 27
ROOT
ATOM      1  C   UNL     1       6.661   6.574  -6.381  1.00  0.00    -0.048 A 
ATOM      2  C   UNL     1       6.048   5.505  -5.717  1.00  0.00     0.004 A 
ATOM      3  C   UNL     1       5.077   5.735  -4.742  1.00  0.00     0.004 A 
ATOM      4  C   UNL     1       4.694   7.040  -4.417  1.00  0.00    -0.045 A 
ATOM      5  C   UNL     1       5.287   8.112  -5.098  1.00  0.00     0.004 A 
ATOM      6  C   UNL     1       6.257   7.879  -6.075  1.00  0.00     0.004 A 
ENDROOT
BRANCH   1   7
ATOM      7  C   UNL     1       7.733   6.306  -7.410  1.00  0.00     0.036 C 
BRANCH   7   8
ATOM      8  C   UNL     1       8.694   5.162  -7.057  1.00  0.00     0.011 C 
BRANCH   8   9
ATOM      9  C   UNL     1      10.143   5.355  -7.521  1.00  0.00     0.060 C 
BRANCH   9  10
ATOM     10  C   UNL     1      10.276   5.750  -8.947  1.00  0.00     0.083 A 
ATOM     11  C   UNL     1      10.264   4.964 -10.080  1.00  0.00     0.125 A 
ATOM     12  O   UNL     1      10.416   5.785 -11.163  1.00  0.00    -0.441 OA
ATOM     13  C   UNL     1      10.520   7.043 -10.625  1.00  0.00     0.226 A 
ATOM     14  N   UNL     1      10.446   7.069  -9.307  1.00  0.00    -0.214 NA
ATOM     15  C   UNL     1      10.126   3.523 -10.354  1.00  0.00     0.090 C 
BRANCH  13  16
ATOM     16  C   UNL     1      10.697   8.149 -11.562  1.00  0.00     0.037 A 
ATOM     17  C   UNL     1      11.279   7.967 -12.826  1.00  0.00     0.014 A 
ATOM     18  C   UNL     1      10.279   9.438 -11.199  1.00  0.00     0.014 A 
ATOM     19  C   UNL     1      11.439   9.045 -13.702  1.00  0.00     0.001 A 
ATOM     20  C   UNL     1      10.438  10.517 -12.074  1.00  0.00     0.001 A 
ATOM     21  C   UNL     1      11.019  10.319 -13.324  1.00  0.00     0.000 A 
ENDBRANCH  13  16
ENDBRANCH   9  10
ENDBRANCH   8   9
ENDBRANCH   7   8
ENDBRANCH   1   7
BRANCH   4  22
ATOM     22  C   UNL     1       3.678   7.293  -3.326  1.00  0.00     0.076 C 
BRANCH  22  23
ATOM     23  C   UNL     1       4.287   7.204  -1.919  1.00  0.00     0.242 C 
BRANCH  23  24
ATOM     24  C   UNL     1       3.423   7.947  -0.931  1.00  0.00     0.330 C 
ATOM     25  O   UNL     1       2.529   8.749  -1.145  1.00  0.00    -0.250 OA
BRANCH  24  26
ATOM     26  O   UNL     1       3.719   7.629   0.353  1.00  0.00    -0.480 OA
ATOM     27  H   UNL     1       2.857   7.339   0.727  1.00  0.00     0.296 HD
ENDBRANCH  24  26
ENDBRANCH  23  24
BRANCH  23  28
ATOM     28  N   UNL     1       4.502   5.842  -1.457  1.00  0.00    -0.170 N 
ATOM     29  N   UNL     1       3.484   4.966  -1.276  1.00  0.00    -0.161 NA
ATOM     30  N   UNL     1       5.755   5.380  -1.222  1.00  0.00    -0.161 NA
ATOM     31  C   UNL     1       4.132   3.887  -0.829  1.00  0.00     0.157 A 
ATOM     32  C   UNL     1       5.508   4.139  -0.791  1.00  0.00     0.157 A 
ENDBRANCH  23  28
ENDBRANCH  22  23
ENDBRANCH   4  22
TORSDOF 10
ENDMDL
MODEL 6
REMARK VINA RESULT:    -8.690      2.764      4.027
REMARK INTER + INTRA:         -14.940
REMARK INTER:                 -14.129
REMARK INTRA:                  -0.811
REMARK UNBOUND:                -1.424
REMARK SMILES Cc1oc(-c2ccccc2)nc1CCCc1ccc(C[C@@H](C(=O)O)n2nccn2)cc1
REMARK SMILES IDX 16 1 17 2 18 3 19 4 30 5 31 6 15 7 14 8 13 9 12 10 2 11 3 12
REMARK SMILES IDX 4 13 11 14 1 15 5 16 6 17 10 18 7 19 9 20 8 21 20 22 21 23
REMARK SMILES IDX 22 24 23 25 24 26 25 28 26 29 29 30 27 31 28 32
REMARK H PARENT 24 27
ROOT
ATOM      1  C   UNL     1       8.002   4.988  -6.558  1.00  0.00    -0.048 A 
ATOM      2  C   UNL     1       7.834   6.325  -6.938  1.00  0.00     0.004 A 
ATOM      3  C   UNL     1       6.698   7.038  -6.553  1.00  0.00     0.004 A 
ATOM      4  C   UNL     1       5.711   6.429  -5.772  1.00  0.00    -0.045 A 
ATOM      5  C   UNL     1       5.888   5.099  -5.367  1.00  0.00     0.004 A 
ATOM      6  C   UNL     1       7.026   4.388  -5.753  1.00  0.00     0.004 A 
ENDROOT
BRANCH   1   7
ATOM      7  C   UNL     1       9.222   4.223  -7.012  1.00  0.00     0.036 C 
BRANCH   7   8
ATOM      8  C   UNL     1       9.695   4.550  -8.436  1.00  0.00     0.011 C 
BRANCH   8   9
ATOM      9  C   UNL     1      10.488   5.854  -8.579  1.00  0.00     0.060 C 
BRANCH   9  10
ATOM     10  C   UNL     1      10.577   6.362  -9.972  1.00  0.00     0.083 A 
ATOM     11  C   UNL     1      10.712   5.663 -11.154  1.00  0.00     0.125 A 
ATOM     12  O   UNL     1      10.742   6.570 -12.177  1.00  0.00    -0.441 OA
ATOM     13  C   UNL     1      10.629   7.788 -11.556  1.00  0.00     0.226 A 
ATOM     14  N   UNL     1      10.531   7.712 -10.242  1.00  0.00    -0.214 NA
ATOM     15  C   UNL     1      10.817   4.241 -11.524  1.00  0.00     0.090 C 
BRANCH  13  16
ATOM     16  C   UNL     1      10.635   8.969 -12.415  1.00  0.00     0.037 A 
ATOM     17  C   UNL     1      11.264   8.973 -13.669  1.00  0.00     0.014 A 
ATOM     18  C   UNL     1       9.996  10.142 -11.984  1.00  0.00     0.014 A 
ATOM     19  C   UNL     1      11.257  10.120 -14.469  1.00  0.00     0.001 A 
ATOM     20  C   UNL     1       9.988  11.289 -12.783  1.00  0.00     0.001 A 
ATOM     21  C   UNL     1      10.620  11.277 -14.025  1.00  0.00     0.000 A 
ENDBRANCH  13  16
ENDBRANCH   9  10
ENDBRANCH   8   9
ENDBRANCH   7   8
ENDBRANCH   1   7
BRANCH   4  22
ATOM     22  C   UNL     1       4.456   7.185  -5.395  1.00  0.00     0.076 C 
BRANCH  22  23
ATOM     23  C   UNL     1       4.654   8.084  -4.166  1.00  0.00     0.242 C 
BRANCH  23  24
ATOM     24  C   UNL     1       4.320   9.514  -4.510  1.00  0.00     0.330 C 
ATOM     25  O   UNL     1       5.073  10.461  -4.667  1.00  0.00    -0.250 OA
BRANCH  24  26
ATOM     26  O   UNL     1       2.988   9.709  -4.665  1.00  0.00    -0.480 OA
ATOM     27  H   UNL     1       2.594   8.842  -4.422  1.00  0.00     0.296 HD
ENDBRANCH  24  26
ENDBRANCH  23  24
BRANCH  23  28
ATOM     28  N   UNL     1       3.887   7.666  -3.004  1.00  0.00    -0.170 N 
ATOM     29  N   UNL     1       3.788   8.426  -1.886  1.00  0.00    -0.161 NA
ATOM     30  N   UNL     1       3.201   6.497  -3.011  1.00  0.00    -0.161 NA
ATOM     31  C   UNL     1       3.037   7.651  -1.099  1.00  0.00     0.157 A 
ATOM     32  C   UNL     1       2.685   6.480  -1.778  1.00  0.00     0.157 A 
ENDBRANCH  23  28
ENDBRANCH  22  23
ENDBRANCH   4  22
TORSDOF 10
ENDMDL
MODEL 7
REMARK VINA RESULT:    -8.624      4.874      7.055
REMARK INTER + INTRA:         -14.837
REMARK INTER:                 -13.496
REMARK INTRA:                  -1.341
REMARK UNBOUND:                -1.424
REMARK SMILES Cc1oc(-c2ccccc2)nc1CCCc1ccc(C[C@@H](C(=O)O)n2nccn2)cc1
REMARK SMILES IDX 16 1 17 2 18 3 19 4 30 5 31 6 15 7 14 8 13 9 12 10 2 11 3 12
REMARK SMILES IDX 4 13 11 14 1 15 5 16 6 17 10 18 7 19 9 20 8 21 20 22 21 23
REMARK SMILES IDX 22 24 23 25 24 26 25 28 26 29 29 30 27 31 28 32
REMARK H PARENT 24 27
ROOT
ATOM      1  C   UNL     1      10.432   4.913  -9.528  1.00  0.00    -0.048 A 
ATOM      2  C   UNL     1       9.870   3.632  -9.464  1.00  0.00     0.004 A 
ATOM      3  C   UNL     1       9.377   3.131  -8.260  1.00  0.00     0.004 A 
ATOM      4  C   UNL     1       9.427   3.905  -7.096  1.00  0.00    -0.045 A 
ATOM      5  C   UNL     1       9.964   5.197  -7.162  1.00  0.00     0.004 A 
ATOM      6  C   UNL     1      10.456   5.698  -8.369  1.00  0.00     0.004 A 
ENDROOT
BRANCH   1   7
ATOM      7  C   UNL     1      10.991   5.427 -10.834  1.00  0.00     0.036 C 
BRANCH   7   8
ATOM      8  C   UNL     1       9.973   6.141 -11.734  1.00  0.00     0.011 C 
BRANCH   8   9
ATOM      9  C   UNL     1      10.552   7.233 -12.641  1.00  0.00     0.060 C 
BRANCH   9  10
ATOM     10  C   UNL     1      10.612   8.577 -12.011  1.00  0.00     0.083 A 
ATOM     11  C   UNL     1      10.895   9.801 -12.580  1.00  0.00     0.125 A 
ATOM     12  O   UNL     1      10.823  10.748 -11.597  1.00  0.00    -0.441 OA
ATOM     13  C   UNL     1      10.504  10.042 -10.466  1.00  0.00     0.226 A 
ATOM     14  N   UNL     1      10.371   8.743 -10.665  1.00  0.00    -0.214 NA
ATOM     15  C   UNL     1      11.229  10.275 -13.935  1.00  0.00     0.090 C 
BRANCH  13  16
ATOM     16  C   UNL     1      10.361  10.806  -9.229  1.00  0.00     0.037 A 
ATOM     17  C   UNL     1      10.475  12.204  -9.201  1.00  0.00     0.014 A 
ATOM     18  C   UNL     1      10.102  10.133  -8.025  1.00  0.00     0.014 A 
ATOM     19  C   UNL     1      10.337  12.909  -8.002  1.00  0.00     0.001 A 
ATOM     20  C   UNL     1       9.963  10.837  -6.826  1.00  0.00     0.001 A 
ATOM     21  C   UNL     1      10.082  12.225  -6.815  1.00  0.00     0.000 A 
ENDBRANCH  13  16
ENDBRANCH   9  10
ENDBRANCH   8   9
ENDBRANCH   7   8
ENDBRANCH   1   7
BRANCH   4  22
ATOM     22  C   UNL     1       8.937   3.343  -5.780  1.00  0.00     0.076 C 
BRANCH  22  23
ATOM     23  C   UNL     1       9.948   3.540  -4.641  1.00  0.00     0.242 C 
BRANCH  23  24
ATOM     24  C   UNL     1       9.228   3.873  -3.359  1.00  0.00     0.330 C 
ATOM     25  O   UNL     1       8.035   3.812  -3.110  1.00  0.00    -0.250 OA
BRANCH  24  26
ATOM     26  O   UNL     1      10.076   4.278  -2.382  1.00  0.00    -0.480 OA
ATOM     27  H   UNL     1      10.640   3.490  -2.219  1.00  0.00     0.296 HD
ENDBRANCH  24  26
ENDBRANCH  23  24
BRANCH  23  28
ATOM     28  N   UNL     1      10.824   2.399  -4.430  1.00  0.00    -0.170 N 
ATOM     29  N   UNL     1      11.900   2.449  -3.607  1.00  0.00    -0.161 NA
ATOM     30  N   UNL     1      10.570   1.210  -5.031  1.00  0.00    -0.161 NA
ATOM     31  C   UNL     1      12.405   1.221  -3.747  1.00  0.00     0.157 A 
ATOM     32  C   UNL     1      11.602   0.471  -4.613  1.00  0.00     0.157 A 
ENDBRANCH  23  28
ENDBRANCH  22  23
ENDBRANCH   4  22
TORSDOF 10
ENDMDL
MODEL 8
REMARK VINA RESULT:    -8.573      2.631      3.841
REMARK INTER + INTRA:         -14.757
REMARK INTER:                 -14.253
REMARK INTRA:                  -0.504
REMARK UNBOUND:                -1.424
REMARK SMILES Cc1oc(-c2ccccc2)nc1CCCc1ccc(C[C@@H](C(=O)O)n2nccn2)cc1
REMARK SMILES IDX 16 1 17 2 18 3 19 4 30 5 31 6 15 7 14 8 13 9 12 10 2 11 3 12
REMARK SMILES IDX 4 13 11 14 1 15 5 16 6 17 10 18 7 19 9 20 8 21 20 22 21 23
REMARK SMILES IDX 22 24 23 25 24 26 25 28 26 29 29 30 27 31 28 32
REMARK H PARENT 24 27
ROOT
ATOM      1  C   UNL     1       7.019   5.859  -6.404  1.00  0.00    -0.048 A 
ATOM      2  C   UNL     1       6.742   7.225  -6.535  1.00  0.00     0.004 A 
ATOM      3  C   UNL     1       5.548   7.760  -6.048  1.00  0.00     0.004 A 
ATOM      4  C   UNL     1       4.612   6.939  -5.412  1.00  0.00    -0.045 A 
ATOM      5  C   UNL     1       4.897   5.576  -5.256  1.00  0.00     0.004 A 
ATOM      6  C   UNL     1       6.093   5.043  -5.743  1.00  0.00     0.004 A 
ENDROOT
BRANCH   1   7
ATOM      7  C   UNL     1       8.301   5.293  -6.967  1.00  0.00     0.036 C 
BRANCH   7   8
ATOM      8  C   UNL     1       9.223   6.325  -7.633  1.00  0.00     0.011 C 
BRANCH   8   9
ATOM      9  C   UNL     1      10.426   5.740  -8.384  1.00  0.00     0.060 C 
BRANCH   9  10
ATOM     10  C   UNL     1      10.518   6.161  -9.805  1.00  0.00     0.083 A 
ATOM     11  C   UNL     1      10.658   5.392 -10.941  1.00  0.00     0.125 A 
ATOM     12  O   UNL     1      10.691   6.235 -12.017  1.00  0.00    -0.441 OA
ATOM     13  C   UNL     1      10.576   7.488 -11.473  1.00  0.00     0.226 A 
ATOM     14  N   UNL     1      10.474   7.493 -10.156  1.00  0.00    -0.214 NA
ATOM     15  C   UNL     1      10.765   3.950 -11.223  1.00  0.00     0.090 C 
BRANCH  13  16
ATOM     16  C   UNL     1      10.585   8.615 -12.402  1.00  0.00     0.037 A 
ATOM     17  C   UNL     1      11.333   8.594 -13.589  1.00  0.00     0.014 A 
ATOM     18  C   UNL     1       9.827   9.759 -12.110  1.00  0.00     0.014 A 
ATOM     19  C   UNL     1      11.325   9.688 -14.458  1.00  0.00     0.001 A 
ATOM     20  C   UNL     1       9.819  10.854 -12.979  1.00  0.00     0.001 A 
ATOM     21  C   UNL     1      10.569  10.818 -14.152  1.00  0.00     0.000 A 
ENDBRANCH  13  16
ENDBRANCH   9  10
ENDBRANCH   8   9
ENDBRANCH   7   8
ENDBRANCH   1   7
BRANCH   4  22
ATOM     22  C   UNL     1       3.296   7.507  -4.928  1.00  0.00     0.076 C 
BRANCH  22  23
ATOM     23  C   UNL     1       3.383   8.065  -3.501  1.00  0.00     0.242 C 
BRANCH  23  24
ATOM     24  C   UNL     1       3.194   6.956  -2.497  1.00  0.00     0.330 C 
ATOM     25  O   UNL     1       3.090   5.755  -2.690  1.00  0.00    -0.250 OA
BRANCH  24  26
ATOM     26  O   UNL     1       3.157   7.415  -1.223  1.00  0.00    -0.480 OA
ATOM     27  H   UNL     1       2.238   7.223  -0.931  1.00  0.00     0.296 HD
ENDBRANCH  24  26
ENDBRANCH  23  24
BRANCH  23  28
ATOM     28  N   UNL     1       4.620   8.775  -3.222  1.00  0.00    -0.170 N 
ATOM     29  N   UNL     1       5.553   8.302  -2.360  1.00  0.00    -0.161 NA
ATOM     30  N   UNL     1       4.907   9.940  -3.854  1.00  0.00    -0.161 NA
ATOM     31  C   UNL     1       6.471   9.271  -2.397  1.00  0.00     0.157 A 
ATOM     32  C   UNL     1       6.079  10.266  -3.298  1.00  0.00     0.157 A 
ENDBRANCH  23  28
ENDBRANCH  22  23
ENDBRANCH   4  22
TORSDOF 10
ENDMDL
MODEL 9
REMARK VINA RESULT:    -8.527      6.148      8.647
REMARK INTER + INTRA:         -14.686
REMARK INTER:                 -13.108
REMARK INTRA:                  -1.578
REMARK UNBOUND:                -1.424
REMARK SMILES Cc1oc(-c2ccccc2)nc1CCCc1ccc(C[C@@H](C(=O)O)n2nccn2)cc1
REMARK SMILES IDX 16 1 17 2 18 3 19 4 30 5 31 6 15 7 14 8 13 9 12 10 2 11 3 12
REMARK SMILES IDX 4 13 11 14 1 15 5 16 6 17 10 18 7 19 9 20 8 21 20 22 21 23
REMARK SMILES IDX 22 24 23 25 24 26 25 28 26 29 29 30 27 31 28 32
REMARK H PARENT 24 27
ROOT
ATOM      1  C   UNL     1       9.999  10.503 -11.451  1.00  0.00    -0.048 A 
ATOM      2  C   UNL     1       9.777   9.413 -10.601  1.00  0.00     0.004 A 
ATOM      3  C   UNL     1      10.097   9.490  -9.245  1.00  0.00     0.004 A 
ATOM      4  C   UNL     1      10.637  10.664  -8.710  1.00  0.00    -0.045 A 
ATOM      5  C   UNL     1      10.836  11.766  -9.553  1.00  0.00     0.004 A 
ATOM      6  C   UNL     1      10.514  11.687 -10.909  1.00  0.00     0.004 A 
ENDROOT
BRANCH   1   7
ATOM      7  C   UNL     1       9.677  10.389 -12.922  1.00  0.00     0.036 C 
BRANCH   7   8
ATOM      8  C   UNL     1      10.900  10.392 -13.850  1.00  0.00     0.011 C 
BRANCH   8   9
ATOM      9  C   UNL     1      11.283   9.026 -14.434  1.00  0.00     0.060 C 
BRANCH   9  10
ATOM     10  C   UNL     1      11.628   8.004 -13.413  1.00  0.00     0.083 A 
ATOM     11  C   UNL     1      12.863   7.640 -12.918  1.00  0.00     0.125 A 
ATOM     12  O   UNL     1      12.669   6.656 -11.989  1.00  0.00    -0.441 OA
ATOM     13  C   UNL     1      11.311   6.466 -11.971  1.00  0.00     0.226 A 
ATOM     14  N   UNL     1      10.650   7.246 -12.806  1.00  0.00    -0.214 NA
ATOM     15  C   UNL     1      14.254   8.062 -13.159  1.00  0.00     0.090 C 
BRANCH  13  16
ATOM     16  C   UNL     1      10.799   5.451 -11.054  1.00  0.00     0.037 A 
ATOM     17  C   UNL     1      10.561   4.131 -11.465  1.00  0.00     0.014 A 
ATOM     18  C   UNL     1      10.530   5.794  -9.720  1.00  0.00     0.014 A 
ATOM     19  C   UNL     1      10.066   3.180 -10.567  1.00  0.00     0.001 A 
ATOM     20  C   UNL     1      10.036   4.845  -8.821  1.00  0.00     0.001 A 
ATOM     21  C   UNL     1       9.803   3.539  -9.246  1.00  0.00     0.000 A 
ENDBRANCH  13  16
ENDBRANCH   9  10
ENDBRANCH   8   9
ENDBRANCH   7   8
ENDBRANCH   1   7
BRANCH   4  22
ATOM     22  C   UNL     1      11.030  10.733  -7.251  1.00  0.00     0.076 C 
BRANCH  22  23
ATOM     23  C   UNL     1      10.564  12.029  -6.574  1.00  0.00     0.242 C 
BRANCH  23  24
ATOM     24  C   UNL     1      10.314  11.787  -5.106  1.00  0.00     0.330 C 
ATOM     25  O   UNL     1       9.681  10.891  -4.573  1.00  0.00    -0.250 OA
BRANCH  24  26
ATOM     26  O   UNL     1      10.910  12.718  -4.322  1.00  0.00    -0.480 OA
ATOM     27  H   UNL     1      11.238  12.202  -3.552  1.00  0.00     0.296 HD
ENDBRANCH  24  26
ENDBRANCH  23  24
BRANCH  23  28
ATOM     28  N   UNL     1      11.484  13.142  -6.738  1.00  0.00    -0.170 N 
ATOM     29  N   UNL     1      12.825  12.970  -6.833  1.00  0.00    -0.161 NA
ATOM     30  N   UNL     1      11.022  14.413  -6.842  1.00  0.00    -0.161 NA
ATOM     31  C   UNL     1      13.252  14.231  -6.939  1.00  0.00     0.157 A 
ATOM     32  C   UNL     1      12.161  15.106  -6.940  1.00  0.00     0.157 A 
ENDBRANCH  23  28
ENDBRANCH  22  23
ENDBRANCH   4  22
TORSDOF 10
ENDMDL
