REMARK VINA RESULT:   -10.708      1.481      1.797
REMARK INTER + INTRA:         -15.900
REMARK INTER:                 -15.074
REMARK INTRA:                  -0.826
REMARK UNBOUND:                -1.436
REMARK SMILES C=CC(=O)N1[C@@H]2CC[C@H]1C[C@@H](n1nc(-c3ccc(Oc4ccc5c(c4)ncn5C)c(Cl)c3)c3c(C)ncnc31)C2
REMARK SMILES IDX 12 1 13 2 14 3 33 4 34 5 35 6 36 7 37 8 38 9 39 10 11 11
REMARK SMILES IDX 5 12 6 13 9 14 7 15 40 16 8 17 10 18 3 19 4 20 2 21 1 22
REMARK SMILES IDX 15 23 16 24 32 25 17 26 30 27 18 28 31 29 19 30 20 31 21 32
REMARK SMILES IDX 25 33 22 34 24 35 23 36 26 37 28 38 27 39 29 40
REMARK H PARENT
ROOT
ATOM      1  N   UNL     1      19.664  33.662  15.756  1.00  0.00    -0.243 N 
ATOM      2  N   UNL     1      19.790  33.492  14.426  1.00  0.00    -0.170 NA
ATOM      3  C   UNL     1      18.547  33.659  13.946  1.00  0.00     0.104 A 
ATOM      4  C   UNL     1      17.606  33.870  14.996  1.00  0.00     0.068 A 
ATOM      5  C   UNL     1      16.221  34.045  15.151  1.00  0.00     0.052 A 
ATOM      6  C   UNL     1      15.217  34.048  14.041  1.00  0.00     0.067 C 
ATOM      7  N   UNL     1      15.740  34.237  16.412  1.00  0.00    -0.241 NA
ATOM      8  C   UNL     1      16.601  34.226  17.448  1.00  0.00     0.224 A 
ATOM      9  N   UNL     1      17.929  34.042  17.411  1.00  0.00    -0.217 NA
ATOM     10  C   UNL     1      18.369  33.873  16.152  1.00  0.00     0.162 A 
ENDROOT
BRANCH   1  11
ATOM     11  C   UNL     1      20.834  33.598  16.635  1.00  0.00     0.114 C 
ATOM     12  N   UNL     1      23.423  34.730  16.819  1.00  0.00    -0.333 N 
ATOM     13  C   UNL     1      23.169  33.996  15.591  1.00  0.00     0.088 C 
ATOM     14  C   UNL     1      22.345  35.692  16.941  1.00  0.00     0.088 C 
ATOM     15  C   UNL     1      22.712  35.091  14.620  1.00  0.00     0.027 C 
ATOM     16  C   UNL     1      22.057  32.985  15.901  1.00  0.00     0.052 C 
ATOM     17  C   UNL     1      22.230  36.238  15.518  1.00  0.00     0.027 C 
ATOM     18  C   UNL     1      21.096  34.924  17.403  1.00  0.00     0.052 C 
BRANCH  12  19
ATOM     19  C   UNL     1      24.304  34.496  17.845  1.00  0.00     0.246 C 
ATOM     20  O   UNL     1      25.520  34.602  17.705  1.00  0.00    -0.270 OA
BRANCH  19  21
ATOM     21  C   UNL     1      23.723  34.116  19.162  1.00  0.00     0.063 C 
ATOM     22  C   UNL     1      24.411  34.333  20.292  1.00  0.00     0.014 C 
ENDBRANCH  19  21
ENDBRANCH  12  19
ENDBRANCH   1  11
BRANCH   3  23
ATOM     23  C   UNL     1      18.315  33.601  12.510  1.00  0.00     0.005 A 
ATOM     24  C   UNL     1      18.976  32.652  11.722  1.00  0.00     0.014 A 
ATOM     25  C   UNL     1      17.395  34.475  11.915  1.00  0.00     0.035 A 
ATOM     26  C   UNL     1      18.743  32.593  10.346  1.00  0.00     0.049 A 
ATOM     27  C   UNL     1      17.162  34.418  10.539  1.00  0.00     0.084 A 
ATOM     28  C   UNL     1      17.850  33.491   9.747  1.00  0.00     0.146 A 
ATOM     29  Cl  UNL     1      16.028  35.521   9.850  1.00  0.00    -0.080 Cl
BRANCH  28  30
ATOM     30  O   UNL     1      17.569  33.432   8.398  1.00  0.00    -0.456 OA
BRANCH  30  31
ATOM     31  C   UNL     1      16.961  32.283   7.938  1.00  0.00     0.129 A 
ATOM     32  C   UNL     1      15.575  32.104   8.017  1.00  0.00     0.049 A 
ATOM     33  C   UNL     1      17.798  31.274   7.451  1.00  0.00     0.077 A 
ATOM     34  C   UNL     1      14.975  30.919   7.572  1.00  0.00     0.032 A 
ATOM     35  C   UNL     1      17.211  30.085   6.997  1.00  0.00     0.092 A 
ATOM     36  C   UNL     1      15.826  29.931   7.063  1.00  0.00     0.068 A 
ATOM     37  N   UNL     1      17.806  28.967   6.464  1.00  0.00    -0.237 NA
ATOM     38  N   UNL     1      15.611  28.674   6.555  1.00  0.00    -0.334 N 
ATOM     39  C   UNL     1      16.818  28.139   6.209  1.00  0.00     0.200 A 
ATOM     40  C   UNL     1      14.332  28.023   6.411  1.00  0.00     0.151 C 
ENDBRANCH  30  31
ENDBRANCH  28  30
ENDBRANCH   3  23
TORSDOF 6
