REMARK VINA RESULT:    -8.955      6.103      7.549
REMARK INTER + INTRA:         -14.037
REMARK INTER:                 -13.316
REMARK INTRA:                  -0.720
REMARK UNBOUND:                -0.631
REMARK SMILES C[C@]1(C(=O)O)CCc2ccc(OCCCOc3ccc(C4CCCC4)cc3Cl)cc2O1
REMARK SMILES IDX 13 1 12 2 11 3 2 4 6 5 31 6 7 7 30 8 8 9 29 10 9 11 10 12
REMARK SMILES IDX 1 13 3 14 4 15 5 16 14 18 15 19 16 20 17 21 18 22 27 23
REMARK SMILES IDX 19 24 26 25 20 26 28 27 21 28 22 29 25 30 23 31 24 32
REMARK H PARENT 5 17
ROOT
ATOM      1  C   UNL     1       8.624   3.939  -6.517  1.00  0.00     0.233 C 
ENDROOT
BRANCH   1   2
ATOM      2  O   UNL     1       8.488   4.205  -5.124  1.00  0.00    -0.493 OA
BRANCH   2   3
ATOM      3  C   UNL     1       9.206   3.421  -4.264  1.00  0.00     0.123 A 
ATOM      4  C   UNL     1      13.419   1.191  -3.722  1.00  0.00     0.203 C 
ATOM      5  C   UNL     1      12.788   0.194  -2.738  1.00  0.00     0.065 C 
ATOM      6  O   UNL     1      12.423   1.751  -4.591  1.00  0.00    -0.475 OA
ATOM      7  C   UNL     1      11.753   0.896  -1.869  1.00  0.00     0.044 C 
ATOM      8  C   UNL     1      11.257   2.151  -3.997  1.00  0.00     0.127 A 
ATOM      9  C   UNL     1      10.874   1.772  -2.709  1.00  0.00    -0.005 A 
ATOM     10  C   UNL     1      10.423   2.958  -4.771  1.00  0.00     0.093 A 
ATOM     11  C   UNL     1       9.660   2.247  -2.195  1.00  0.00     0.011 A 
ATOM     12  C   UNL     1       8.830   3.066  -2.968  1.00  0.00     0.047 A 
ATOM     13  C   UNL     1      14.397   0.449  -4.642  1.00  0.00     0.069 C 
BRANCH   4  14
ATOM     14  C   UNL     1      14.221   2.294  -3.006  1.00  0.00     0.347 C 
ATOM     15  O   UNL     1      14.030   2.746  -1.888  1.00  0.00    -0.248 OA
BRANCH  14  16
ATOM     16  O   UNL     1      15.220   2.805  -3.759  1.00  0.00    -0.478 OA
ATOM     17  H   UNL     1      15.920   2.119  -3.699  1.00  0.00     0.296 HD
ENDBRANCH  14  16
ENDBRANCH   4  14
ENDBRANCH   2   3
ENDBRANCH   1   2
BRANCH   1  18
ATOM     18  C   UNL     1       8.694   5.264  -7.269  1.00  0.00     0.083 C 
BRANCH  18  19
ATOM     19  C   UNL     1      10.130   5.754  -7.440  1.00  0.00     0.233 C 
BRANCH  19  20
ATOM     20  O   UNL     1      10.584   5.323  -8.723  1.00  0.00    -0.492 OA
BRANCH  20  21
ATOM     21  C   UNL     1      10.501   6.212  -9.762  1.00  0.00     0.137 A 
ATOM     22  C   UNL     1      10.320   7.590  -9.616  1.00  0.00     0.048 A 
ATOM     23  C   UNL     1      10.599   5.683 -11.058  1.00  0.00     0.083 A 
ATOM     24  C   UNL     1      10.245   8.422 -10.740  1.00  0.00     0.008 A 
ATOM     25  C   UNL     1      10.524   6.516 -12.181  1.00  0.00     0.028 A 
ATOM     26  C   UNL     1      10.352   7.899 -12.037  1.00  0.00    -0.043 A 
ATOM     27  Cl  UNL     1      10.819   3.987 -11.325  1.00  0.00    -0.080 Cl
BRANCH  26  28
ATOM     28  C   UNL     1      10.263   8.779 -13.264  1.00  0.00     0.019 C 
ATOM     29  C   UNL     1       9.454  10.064 -13.009  1.00  0.00     0.008 C 
ATOM     30  C   UNL     1      11.625   9.246 -13.818  1.00  0.00     0.008 C 
ATOM     31  C   UNL     1      10.150  11.131 -13.841  1.00  0.00     0.001 C 
ATOM     32  C   UNL     1      11.618  10.767 -13.706  1.00  0.00     0.001 C 
ENDBRANCH  26  28
ENDBRANCH  20  21
ENDBRANCH  19  20
ENDBRANCH  18  19
ENDBRANCH   1  18
TORSDOF 9
