MODEL 1
REMARK VINA RESULT:   -11.582      0.000      0.000
REMARK INTER + INTRA:         -19.791
REMARK INTER:                 -18.352
REMARK INTRA:                  -1.439
REMARK UNBOUND:                -1.439
REMARK SMILES CCCc1cc(-c2noc3ccccc23)ccc1OCCCOc1cccc([C@H]2SC(=O)NC2=O)c1
REMARK SMILES IDX 20 1 19 2 18 3 4 4 5 5 6 6 17 7 16 8 3 9 2 10 1 11 7 12 8 13
REMARK SMILES IDX 15 14 9 15 14 16 10 17 13 18 11 19 12 20 21 21 22 22 23 23
REMARK SMILES IDX 24 24 25 25 36 26 26 27 28 28 27 29 29 30 30 31 34 32 31 33
REMARK SMILES IDX 33 34 35 35 32 36
REMARK H PARENT 33 37
ROOT
ATOM      1  C   UNL     1      45.924 -42.665 107.560  1.00  0.00     0.233 C 
ENDROOT
BRANCH   1   2
ATOM      2  O   UNL     1      45.273 -41.818 108.509  1.00  0.00    -0.493 OA
BRANCH   2   3
ATOM      3  C   UNL     1      45.813 -40.580 108.734  1.00  0.00     0.122 A 
ATOM      4  C   UNL     1      44.900 -39.508 108.755  1.00  0.00    -0.005 A 
ATOM      5  C   UNL     1      45.374 -38.201 108.976  1.00  0.00     0.018 A 
ATOM      6  C   UNL     1      46.737 -37.947 109.168  1.00  0.00     0.005 A 
ATOM      7  C   UNL     1      47.172 -40.329 108.944  1.00  0.00     0.047 A 
ATOM      8  C   UNL     1      47.628 -39.025 109.161  1.00  0.00     0.014 A 
BRANCH   4   9
ATOM      9  C   UNL     1      43.419 -39.727 108.534  1.00  0.00     0.039 C 
BRANCH   9  10
ATOM     10  C   UNL     1      42.542 -39.226 109.686  1.00  0.00     0.001 C 
ATOM     11  C   UNL     1      41.125 -38.874 109.256  1.00  0.00     0.004 C 
ENDBRANCH   9  10
ENDBRANCH   4   9
BRANCH   6  12
ATOM     12  C   UNL     1      47.227 -36.586 109.377  1.00  0.00     0.121 A 
ATOM     13  N   UNL     1      47.077 -35.973 110.565  1.00  0.00    -0.079 NA
ATOM     14  C   UNL     1      47.908 -35.733 108.455  1.00  0.00     0.050 A 
ATOM     15  O   UNL     1      47.629 -34.715 110.426  1.00  0.00    -0.356 OA
ATOM     16  C   UNL     1      48.376 -35.796 107.128  1.00  0.00     0.014 A 
ATOM     17  C   UNL     1      48.127 -34.571 109.172  1.00  0.00     0.167 A 
ATOM     18  C   UNL     1      49.026 -34.676 106.589  1.00  0.00     0.001 A 
ATOM     19  C   UNL     1      48.767 -33.440 108.671  1.00  0.00     0.051 A 
ATOM     20  C   UNL     1      49.215 -33.518 107.348  1.00  0.00     0.004 A 
ENDBRANCH   6  12
ENDBRANCH   2   3
ENDBRANCH   1   2
BRANCH   1  21
ATOM     21  C   UNL     1      44.870 -43.126 106.556  1.00  0.00     0.083 C 
BRANCH  21  22
ATOM     22  C   UNL     1      44.500 -42.030 105.565  1.00  0.00     0.233 C 
BRANCH  22  23
ATOM     23  O   UNL     1      44.604 -42.551 104.241  1.00  0.00    -0.493 OA
BRANCH  23  24
ATOM     24  C   UNL     1      44.025 -41.831 103.233  1.00  0.00     0.119 A 
ATOM     25  C   UNL     1      44.244 -42.344 101.955  1.00  0.00     0.046 A 
ATOM     26  C   UNL     1      43.263 -40.670 103.383  1.00  0.00     0.051 A 
ATOM     27  C   UNL     1      43.717 -41.704 100.835  1.00  0.00     0.004 A 
ATOM     28  C   UNL     1      42.711 -40.015 102.262  1.00  0.00    -0.021 A 
ATOM     29  C   UNL     1      42.958 -40.544 100.985  1.00  0.00     0.006 A 
BRANCH  28  30
ATOM     30  C   UNL     1      41.912 -38.746 102.468  1.00  0.00     0.176 C 
ATOM     31  S   UNL     1      41.266 -38.100 100.890  1.00  0.00    -0.046 SA
ATOM     32  C   UNL     1      40.697 -38.889 103.368  1.00  0.00     0.245 C 
ATOM     33  C   UNL     1      39.623 -38.062 101.464  1.00  0.00     0.286 C 
ATOM     34  N   UNL     1      39.550 -38.506 102.739  1.00  0.00    -0.286 N 
ATOM     35  O   UNL     1      40.710 -39.288 104.525  1.00  0.00    -0.273 OA
ATOM     36  O   UNL     1      38.678 -37.680 100.797  1.00  0.00    -0.261 OA
ATOM     37  H   UNL     1      38.662 -38.543 103.214  1.00  0.00     0.173 HD
ENDBRANCH  28  30
ENDBRANCH  23  24
ENDBRANCH  22  23
ENDBRANCH  21  22
ENDBRANCH   1  21
TORSDOF 10
ENDMDL
MODEL 2
REMARK VINA RESULT:   -11.222      4.639      9.660
REMARK INTER + INTRA:         -19.221
REMARK INTER:                 -17.169
REMARK INTRA:                  -2.052
REMARK UNBOUND:                -1.439
REMARK SMILES CCCc1cc(-c2noc3ccccc23)ccc1OCCCOc1cccc([C@H]2SC(=O)NC2=O)c1
REMARK SMILES IDX 20 1 19 2 18 3 4 4 5 5 6 6 17 7 16 8 3 9 2 10 1 11 7 12 8 13
REMARK SMILES IDX 15 14 9 15 14 16 10 17 13 18 11 19 12 20 21 21 22 22 23 23
REMARK SMILES IDX 24 24 25 25 36 26 26 27 28 28 27 29 29 30 30 31 34 32 31 33
REMARK SMILES IDX 33 34 35 35 32 36
REMARK H PARENT 33 37
ROOT
ATOM      1  C   UNL     1      36.224 -37.947 104.047  1.00  0.00     0.233 C 
ENDROOT
BRANCH   1   2
ATOM      2  O   UNL     1      36.808 -37.547 102.806  1.00  0.00    -0.493 OA
BRANCH   2   3
ATOM      3  C   UNL     1      38.094 -37.942 102.550  1.00  0.00     0.122 A 
ATOM      4  C   UNL     1      38.685 -37.394 101.396  1.00  0.00    -0.005 A 
ATOM      5  C   UNL     1      40.005 -37.751 101.059  1.00  0.00     0.018 A 
ATOM      6  C   UNL     1      40.735 -38.649 101.845  1.00  0.00     0.005 A 
ATOM      7  C   UNL     1      38.829 -38.825 103.345  1.00  0.00     0.047 A 
ATOM      8  C   UNL     1      40.139 -39.173 102.997  1.00  0.00     0.014 A 
BRANCH   4   9
ATOM      9  C   UNL     1      37.932 -36.433 100.501  1.00  0.00     0.039 C 
BRANCH   9  10
ATOM     10  C   UNL     1      37.955 -34.983 100.994  1.00  0.00     0.001 C 
ATOM     11  C   UNL     1      38.685 -34.037 100.049  1.00  0.00     0.004 C 
ENDBRANCH   9  10
ENDBRANCH   4   9
BRANCH   6  12
ATOM     12  C   UNL     1      42.097 -39.034 101.481  1.00  0.00     0.121 A 
ATOM     13  N   UNL     1      43.122 -38.833 102.329  1.00  0.00    -0.079 NA
ATOM     14  C   UNL     1      42.557 -39.652 100.277  1.00  0.00     0.050 A 
ATOM     15  O   UNL     1      44.255 -39.290 101.685  1.00  0.00    -0.356 OA
ATOM     16  C   UNL     1      42.001 -40.128  99.073  1.00  0.00     0.014 A 
ATOM     17  C   UNL     1      43.921 -39.780 100.464  1.00  0.00     0.167 A 
ATOM     18  C   UNL     1      42.855 -40.693  98.114  1.00  0.00     0.001 A 
ATOM     19  C   UNL     1      44.798 -40.334  99.536  1.00  0.00     0.051 A 
ATOM     20  C   UNL     1      44.231 -40.791  98.343  1.00  0.00     0.004 A 
ENDBRANCH   6  12
ENDBRANCH   2   3
ENDBRANCH   1   2
BRANCH   1  21
ATOM     21  C   UNL     1      36.068 -36.694 104.906  1.00  0.00     0.083 C 
BRANCH  21  22
ATOM     22  C   UNL     1      36.082 -37.011 106.396  1.00  0.00     0.233 C 
BRANCH  22  23
ATOM     23  O   UNL     1      36.681 -38.291 106.590  1.00  0.00    -0.493 OA
BRANCH  23  24
ATOM     24  C   UNL     1      37.509 -38.441 107.667  1.00  0.00     0.119 A 
ATOM     25  C   UNL     1      36.858 -38.768 108.857  1.00  0.00     0.046 A 
ATOM     26  C   UNL     1      38.899 -38.299 107.665  1.00  0.00     0.051 A 
ATOM     27  C   UNL     1      37.581 -38.943 110.035  1.00  0.00     0.004 A 
ATOM     28  C   UNL     1      39.649 -38.486 108.845  1.00  0.00    -0.021 A 
ATOM     29  C   UNL     1      38.968 -38.799 110.032  1.00  0.00     0.006 A 
BRANCH  28  30
ATOM     30  C   UNL     1      41.151 -38.298 108.803  1.00  0.00     0.176 C 
ATOM     31  S   UNL     1      41.930 -39.410 107.586  1.00  0.00    -0.046 SA
ATOM     32  C   UNL     1      41.614 -36.902 108.423  1.00  0.00     0.245 C 
ATOM     33  C   UNL     1      42.728 -38.104 106.756  1.00  0.00     0.286 C 
ATOM     34  N   UNL     1      42.434 -36.917 107.334  1.00  0.00    -0.286 N 
ATOM     35  O   UNL     1      41.315 -35.868 109.005  1.00  0.00    -0.273 OA
ATOM     36  O   UNL     1      43.454 -38.255 105.790  1.00  0.00    -0.261 OA
ATOM     37  H   UNL     1      42.823 -36.064 106.967  1.00  0.00     0.173 HD
ENDBRANCH  28  30
ENDBRANCH  23  24
ENDBRANCH  22  23
ENDBRANCH  21  22
ENDBRANCH   1  21
TORSDOF 10
ENDMDL
MODEL 3
REMARK VINA RESULT:   -11.190      2.841      9.301
REMARK INTER + INTRA:         -19.171
REMARK INTER:                 -17.997
REMARK INTRA:                  -1.174
REMARK UNBOUND:                -1.439
REMARK SMILES CCCc1cc(-c2noc3ccccc23)ccc1OCCCOc1cccc([C@H]2SC(=O)NC2=O)c1
REMARK SMILES IDX 20 1 19 2 18 3 4 4 5 5 6 6 17 7 16 8 3 9 2 10 1 11 7 12 8 13
REMARK SMILES IDX 15 14 9 15 14 16 10 17 13 18 11 19 12 20 21 21 22 22 23 23
REMARK SMILES IDX 24 24 25 25 36 26 26 27 28 28 27 29 29 30 30 31 34 32 31 33
REMARK SMILES IDX 33 34 35 35 32 36
REMARK H PARENT 33 37
ROOT
ATOM      1  C   UNL     1      44.439 -42.151 100.860  1.00  0.00     0.233 C 
ENDROOT
BRANCH   1   2
ATOM      2  O   UNL     1      44.610 -40.734 100.789  1.00  0.00    -0.493 OA
BRANCH   2   3
ATOM      3  C   UNL     1      43.493 -39.951 100.899  1.00  0.00     0.122 A 
ATOM      4  C   UNL     1      42.645 -39.931  99.775  1.00  0.00    -0.005 A 
ATOM      5  C   UNL     1      41.476 -39.147  99.805  1.00  0.00     0.018 A 
ATOM      6  C   UNL     1      41.145 -38.382 100.929  1.00  0.00     0.005 A 
ATOM      7  C   UNL     1      43.153 -39.201 102.029  1.00  0.00     0.047 A 
ATOM      8  C   UNL     1      41.989 -38.425 102.043  1.00  0.00     0.014 A 
BRANCH   4   9
ATOM      9  C   UNL     1      42.967 -40.725  98.528  1.00  0.00     0.039 C 
BRANCH   9  10
ATOM     10  C   UNL     1      43.524 -39.877  97.381  1.00  0.00     0.001 C 
ATOM     11  C   UNL     1      45.046 -39.850  97.336  1.00  0.00     0.004 C 
ENDBRANCH   9  10
ENDBRANCH   4   9
BRANCH   6  12
ATOM     12  C   UNL     1      39.941 -37.554 100.948  1.00  0.00     0.121 A 
ATOM     13  N   UNL     1      38.766 -38.053 101.372  1.00  0.00    -0.079 NA
ATOM     14  C   UNL     1      39.796 -36.183 100.572  1.00  0.00     0.050 A 
ATOM     15  O   UNL     1      37.844 -37.032 101.254  1.00  0.00    -0.356 OA
ATOM     16  C   UNL     1      40.618 -35.139 100.102  1.00  0.00     0.014 A 
ATOM     17  C   UNL     1      38.455 -35.917 100.781  1.00  0.00     0.167 A 
ATOM     18  C   UNL     1      40.039 -33.887  99.851  1.00  0.00     0.001 A 
ATOM     19  C   UNL     1      37.846 -34.687 100.543  1.00  0.00     0.051 A 
ATOM     20  C   UNL     1      38.675 -33.667 100.066  1.00  0.00     0.004 A 
ENDBRANCH   6  12
ENDBRANCH   2   3
ENDBRANCH   1   2
BRANCH   1  21
ATOM     21  C   UNL     1      43.756 -42.465 102.190  1.00  0.00     0.083 C 
BRANCH  21  22
ATOM     22  C   UNL     1      44.718 -42.376 103.367  1.00  0.00     0.233 C 
BRANCH  22  23
ATOM     23  O   UNL     1      44.059 -41.730 104.454  1.00  0.00    -0.493 OA
BRANCH  23  24
ATOM     24  C   UNL     1      44.546 -41.957 105.711  1.00  0.00     0.119 A 
ATOM     25  C   UNL     1      44.693 -43.304 106.041  1.00  0.00     0.046 A 
ATOM     26  C   UNL     1      44.894 -40.981 106.649  1.00  0.00     0.051 A 
ATOM     27  C   UNL     1      45.174 -43.679 107.294  1.00  0.00     0.004 A 
ATOM     28  C   UNL     1      45.394 -41.341 107.918  1.00  0.00    -0.021 A 
ATOM     29  C   UNL     1      45.518 -42.704 108.230  1.00  0.00     0.006 A 
BRANCH  28  30
ATOM     30  C   UNL     1      45.736 -40.252 108.913  1.00  0.00     0.176 C 
ATOM     31  S   UNL     1      47.267 -39.378 108.448  1.00  0.00    -0.046 SA
ATOM     32  C   UNL     1      44.685 -39.165 109.063  1.00  0.00     0.245 C 
ATOM     33  C   UNL     1      46.503 -37.814 108.485  1.00  0.00     0.286 C 
ATOM     34  N   UNL     1      45.196 -37.926 108.812  1.00  0.00    -0.286 N 
ATOM     35  O   UNL     1      43.516 -39.343 109.377  1.00  0.00    -0.273 OA
ATOM     36  O   UNL     1      47.082 -36.769 108.251  1.00  0.00    -0.261 OA
ATOM     37  H   UNL     1      44.616 -37.105 108.877  1.00  0.00     0.173 HD
ENDBRANCH  28  30
ENDBRANCH  23  24
ENDBRANCH  22  23
ENDBRANCH  21  22
ENDBRANCH   1  21
TORSDOF 10
ENDMDL
MODEL 4
REMARK VINA RESULT:   -11.131      2.540      8.869
REMARK INTER + INTRA:         -19.077
REMARK INTER:                 -17.459
REMARK INTRA:                  -1.619
REMARK UNBOUND:                -1.439
REMARK SMILES CCCc1cc(-c2noc3ccccc23)ccc1OCCCOc1cccc([C@H]2SC(=O)NC2=O)c1
REMARK SMILES IDX 20 1 19 2 18 3 4 4 5 5 6 6 17 7 16 8 3 9 2 10 1 11 7 12 8 13
REMARK SMILES IDX 15 14 9 15 14 16 10 17 13 18 11 19 12 20 21 21 22 22 23 23
REMARK SMILES IDX 24 24 25 25 36 26 26 27 28 28 27 29 29 30 30 31 34 32 31 33
REMARK SMILES IDX 33 34 35 35 32 36
REMARK H PARENT 33 37
ROOT
ATOM      1  C   UNL     1      42.245 -38.634 107.363  1.00  0.00     0.233 C 
ENDROOT
BRANCH   1   2
ATOM      2  O   UNL     1      42.067 -39.867 106.664  1.00  0.00    -0.493 OA
BRANCH   2   3
ATOM      3  C   UNL     1      42.134 -39.839 105.297  1.00  0.00     0.122 A 
ATOM      4  C   UNL     1      43.210 -40.541 104.722  1.00  0.00    -0.005 A 
ATOM      5  C   UNL     1      43.354 -40.560 103.321  1.00  0.00     0.018 A 
ATOM      6  C   UNL     1      42.451 -39.886 102.491  1.00  0.00     0.005 A 
ATOM      7  C   UNL     1      41.222 -39.181 104.467  1.00  0.00     0.047 A 
ATOM      8  C   UNL     1      41.378 -39.207 103.077  1.00  0.00     0.014 A 
BRANCH   4   9
ATOM      9  C   UNL     1      44.226 -41.270 105.575  1.00  0.00     0.039 C 
BRANCH   9  10
ATOM     10  C   UNL     1      44.741 -42.569 104.947  1.00  0.00     0.001 C 
ATOM     11  C   UNL     1      44.892 -43.705 105.950  1.00  0.00     0.004 C 
ENDBRANCH   9  10
ENDBRANCH   4   9
BRANCH   6  12
ATOM     12  C   UNL     1      42.615 -39.890 101.039  1.00  0.00     0.121 A 
ATOM     13  N   UNL     1      41.949 -39.013 100.267  1.00  0.00    -0.079 NA
ATOM     14  C   UNL     1      43.447 -40.732 100.238  1.00  0.00     0.050 A 
ATOM     15  O   UNL     1      42.313 -39.288  98.963  1.00  0.00    -0.356 OA
ATOM     16  C   UNL     1      44.372 -41.776 100.438  1.00  0.00     0.014 A 
ATOM     17  C   UNL     1      43.207 -40.309  98.944  1.00  0.00     0.167 A 
ATOM     18  C   UNL     1      44.994 -42.349  99.319  1.00  0.00     0.001 A 
ATOM     19  C   UNL     1      43.805 -40.853  97.810  1.00  0.00     0.051 A 
ATOM     20  C   UNL     1      44.712 -41.895  98.027  1.00  0.00     0.004 A 
ENDBRANCH   6  12
ENDBRANCH   2   3
ENDBRANCH   1   2
BRANCH   1  21
ATOM     21  C   UNL     1      42.034 -38.914 108.850  1.00  0.00     0.083 C 
BRANCH  21  22
ATOM     22  C   UNL     1      43.351 -39.023 109.608  1.00  0.00     0.233 C 
BRANCH  22  23
ATOM     23  O   UNL     1      43.999 -40.238 109.235  1.00  0.00    -0.493 OA
BRANCH  23  24
ATOM     24  C   UNL     1      45.337 -40.178 108.958  1.00  0.00     0.119 A 
ATOM     25  C   UNL     1      45.937 -41.417 108.730  1.00  0.00     0.046 A 
ATOM     26  C   UNL     1      46.114 -39.019 108.891  1.00  0.00     0.051 A 
ATOM     27  C   UNL     1      47.298 -41.503 108.444  1.00  0.00     0.004 A 
ATOM     28  C   UNL     1      47.490 -39.085 108.591  1.00  0.00    -0.021 A 
ATOM     29  C   UNL     1      48.073 -40.345 108.379  1.00  0.00     0.006 A 
BRANCH  28  30
ATOM     30  C   UNL     1      48.300 -37.807 108.552  1.00  0.00     0.176 C 
ATOM     31  S   UNL     1      49.122 -37.585 106.939  1.00  0.00    -0.046 SA
ATOM     32  C   UNL     1      47.502 -36.533 108.772  1.00  0.00     0.245 C 
ATOM     33  C   UNL     1      48.437 -36.003 106.696  1.00  0.00     0.286 C 
ATOM     34  N   UNL     1      47.644 -35.658 107.736  1.00  0.00    -0.286 N 
ATOM     35  O   UNL     1      46.812 -36.285 109.751  1.00  0.00    -0.273 OA
ATOM     36  O   UNL     1      48.657 -35.309 105.720  1.00  0.00    -0.261 OA
ATOM     37  H   UNL     1      47.175 -34.766 107.743  1.00  0.00     0.173 HD
ENDBRANCH  28  30
ENDBRANCH  23  24
ENDBRANCH  22  23
ENDBRANCH  21  22
ENDBRANCH   1  21
TORSDOF 10
ENDMDL
MODEL 5
REMARK VINA RESULT:   -11.051      2.937      9.397
REMARK INTER + INTRA:         -18.950
REMARK INTER:                 -17.742
REMARK INTRA:                  -1.208
REMARK UNBOUND:                -1.439
REMARK SMILES CCCc1cc(-c2noc3ccccc23)ccc1OCCCOc1cccc([C@H]2SC(=O)NC2=O)c1
REMARK SMILES IDX 20 1 19 2 18 3 4 4 5 5 6 6 17 7 16 8 3 9 2 10 1 11 7 12 8 13
REMARK SMILES IDX 15 14 9 15 14 16 10 17 13 18 11 19 12 20 21 21 22 22 23 23
REMARK SMILES IDX 24 24 25 25 36 26 26 27 28 28 27 29 29 30 30 31 34 32 31 33
REMARK SMILES IDX 33 34 35 35 32 36
REMARK H PARENT 33 37
ROOT
ATOM      1  C   UNL     1      44.373 -42.244 100.966  1.00  0.00     0.233 C 
ENDROOT
BRANCH   1   2
ATOM      2  O   UNL     1      44.574 -40.833 100.878  1.00  0.00    -0.493 OA
BRANCH   2   3
ATOM      3  C   UNL     1      43.480 -40.023 101.030  1.00  0.00     0.122 A 
ATOM      4  C   UNL     1      42.617 -39.945  99.920  1.00  0.00    -0.005 A 
ATOM      5  C   UNL     1      41.470 -39.131  99.992  1.00  0.00     0.018 A 
ATOM      6  C   UNL     1      41.178 -38.392 101.144  1.00  0.00     0.005 A 
ATOM      7  C   UNL     1      43.179 -39.299 102.187  1.00  0.00     0.047 A 
ATOM      8  C   UNL     1      42.037 -38.492 102.243  1.00  0.00     0.014 A 
BRANCH   4   9
ATOM      9  C   UNL     1      42.898 -40.709  98.645  1.00  0.00     0.039 C 
BRANCH   9  10
ATOM     10  C   UNL     1      43.403 -39.831  97.496  1.00  0.00     0.001 C 
ATOM     11  C   UNL     1      44.913 -39.894  97.308  1.00  0.00     0.004 C 
ENDBRANCH   9  10
ENDBRANCH   4   9
BRANCH   6  12
ATOM     12  C   UNL     1      39.998 -37.532 101.207  1.00  0.00     0.121 A 
ATOM     13  N   UNL     1      39.910 -36.424 100.449  1.00  0.00    -0.079 NA
ATOM     14  C   UNL     1      38.817 -37.694 101.996  1.00  0.00     0.050 A 
ATOM     15  O   UNL     1      38.695 -35.840 100.751  1.00  0.00    -0.356 OA
ATOM     16  C   UNL     1      38.303 -38.623 102.922  1.00  0.00     0.014 A 
ATOM     17  C   UNL     1      38.042 -36.597 101.669  1.00  0.00     0.167 A 
ATOM     18  C   UNL     1      37.039 -38.386 103.482  1.00  0.00     0.001 A 
ATOM     19  C   UNL     1      36.784 -36.329 102.205  1.00  0.00     0.051 A 
ATOM     20  C   UNL     1      36.295 -37.256 103.131  1.00  0.00     0.004 A 
ENDBRANCH   6  12
ENDBRANCH   2   3
ENDBRANCH   1   2
BRANCH   1  21
ATOM     21  C   UNL     1      43.733 -42.534 102.323  1.00  0.00     0.083 C 
BRANCH  21  22
ATOM     22  C   UNL     1      44.742 -42.472 103.462  1.00  0.00     0.233 C 
BRANCH  22  23
ATOM     23  O   UNL     1      44.218 -41.646 104.499  1.00  0.00    -0.493 OA
BRANCH  23  24
ATOM     24  C   UNL     1      44.613 -41.916 105.780  1.00  0.00     0.119 A 
ATOM     25  C   UNL     1      44.760 -43.273 106.067  1.00  0.00     0.046 A 
ATOM     26  C   UNL     1      44.870 -40.974 106.779  1.00  0.00     0.051 A 
ATOM     27  C   UNL     1      45.151 -43.690 107.337  1.00  0.00     0.004 A 
ATOM     28  C   UNL     1      45.279 -41.376 108.067  1.00  0.00    -0.021 A 
ATOM     29  C   UNL     1      45.405 -42.749 108.334  1.00  0.00     0.006 A 
BRANCH  28  30
ATOM     30  C   UNL     1      45.523 -40.323 109.127  1.00  0.00     0.176 C 
ATOM     31  S   UNL     1      47.089 -39.435 108.839  1.00  0.00    -0.046 SA
ATOM     32  C   UNL     1      44.460 -39.242 109.217  1.00  0.00     0.245 C 
ATOM     33  C   UNL     1      46.320 -37.873 108.859  1.00  0.00     0.286 C 
ATOM     34  N   UNL     1      44.988 -37.995 109.059  1.00  0.00    -0.286 N 
ATOM     35  O   UNL     1      43.267 -39.430 109.414  1.00  0.00    -0.273 OA
ATOM     36  O   UNL     1      46.916 -36.820 108.717  1.00  0.00    -0.261 OA
ATOM     37  H   UNL     1      44.403 -37.176 109.097  1.00  0.00     0.173 HD
ENDBRANCH  28  30
ENDBRANCH  23  24
ENDBRANCH  22  23
ENDBRANCH  21  22
ENDBRANCH   1  21
TORSDOF 10
ENDMDL
MODEL 6
REMARK VINA RESULT:   -10.979      2.841      9.170
REMARK INTER + INTRA:         -18.836
REMARK INTER:                 -17.625
REMARK INTRA:                  -1.211
REMARK UNBOUND:                -1.439
REMARK SMILES CCCc1cc(-c2noc3ccccc23)ccc1OCCCOc1cccc([C@H]2SC(=O)NC2=O)c1
REMARK SMILES IDX 20 1 19 2 18 3 4 4 5 5 6 6 17 7 16 8 3 9 2 10 1 11 7 12 8 13
REMARK SMILES IDX 15 14 9 15 14 16 10 17 13 18 11 19 12 20 21 21 22 22 23 23
REMARK SMILES IDX 24 24 25 25 36 26 26 27 28 28 27 29 29 30 30 31 34 32 31 33
REMARK SMILES IDX 33 34 35 35 32 36
REMARK H PARENT 33 37
ROOT
ATOM      1  C   UNL     1      43.187 -39.678 107.869  1.00  0.00     0.233 C 
ENDROOT
BRANCH   1   2
ATOM      2  O   UNL     1      43.581 -40.744 107.004  1.00  0.00    -0.493 OA
BRANCH   2   3
ATOM      3  C   UNL     1      43.369 -40.586 105.661  1.00  0.00     0.122 A 
ATOM      4  C   UNL     1      44.178 -41.370 104.816  1.00  0.00    -0.005 A 
ATOM      5  C   UNL     1      44.026 -41.266 103.420  1.00  0.00     0.018 A 
ATOM      6  C   UNL     1      43.091 -40.389 102.857  1.00  0.00     0.005 A 
ATOM      7  C   UNL     1      42.424 -39.724 105.099  1.00  0.00     0.047 A 
ATOM      8  C   UNL     1      42.285 -39.628 103.710  1.00  0.00     0.014 A 
BRANCH   4   9
ATOM      9  C   UNL     1      45.216 -42.320 105.374  1.00  0.00     0.039 C 
BRANCH   9  10
ATOM     10  C   UNL     1      44.671 -43.717 105.685  1.00  0.00     0.001 C 
ATOM     11  C   UNL     1      44.209 -43.877 107.127  1.00  0.00     0.004 C 
ENDBRANCH   9  10
ENDBRANCH   4   9
BRANCH   6  12
ATOM     12  C   UNL     1      42.951 -40.268 101.408  1.00  0.00     0.121 A 
ATOM     13  N   UNL     1      42.098 -39.377 100.869  1.00  0.00    -0.079 NA
ATOM     14  C   UNL     1      43.638 -40.987 100.382  1.00  0.00     0.050 A 
ATOM     15  O   UNL     1      42.197 -39.524  99.499  1.00  0.00    -0.356 OA
ATOM     16  C   UNL     1      44.633 -41.981 100.295  1.00  0.00     0.014 A 
ATOM     17  C   UNL     1      43.115 -40.479  99.207  1.00  0.00     0.167 A 
ATOM     18  C   UNL     1      45.036 -42.421  99.026  1.00  0.00     0.001 A 
ATOM     19  C   UNL     1      43.489 -40.892  97.931  1.00  0.00     0.051 A 
ATOM     20  C   UNL     1      44.470 -41.887  97.864  1.00  0.00     0.004 A 
ENDBRANCH   6  12
ENDBRANCH   2   3
ENDBRANCH   1   2
BRANCH   1  21
ATOM     21  C   UNL     1      44.021 -39.788 109.144  1.00  0.00     0.083 C 
BRANCH  21  22
ATOM     22  C   UNL     1      45.308 -40.572 108.925  1.00  0.00     0.233 C 
BRANCH  22  23
ATOM     23  O   UNL     1      46.357 -39.954 109.668  1.00  0.00    -0.493 OA
BRANCH  23  24
ATOM     24  C   UNL     1      47.221 -39.145 108.984  1.00  0.00     0.119 A 
ATOM     25  C   UNL     1      48.347 -39.795 108.479  1.00  0.00     0.046 A 
ATOM     26  C   UNL     1      47.067 -37.774 108.764  1.00  0.00     0.051 A 
ATOM     27  C   UNL     1      49.314 -39.088 107.767  1.00  0.00     0.004 A 
ATOM     28  C   UNL     1      48.028 -37.044 108.035  1.00  0.00    -0.021 A 
ATOM     29  C   UNL     1      49.160 -37.720 107.549  1.00  0.00     0.006 A 
BRANCH  28  30
ATOM     30  C   UNL     1      47.834 -35.555 107.840  1.00  0.00     0.176 C 
ATOM     31  S   UNL     1      48.233 -34.624 109.356  1.00  0.00    -0.046 SA
ATOM     32  C   UNL     1      48.690 -34.931 106.751  1.00  0.00     0.245 C 
ATOM     33  C   UNL     1      49.371 -33.590 108.539  1.00  0.00     0.286 C 
ATOM     34  N   UNL     1      49.459 -33.913 107.229  1.00  0.00    -0.286 N 
ATOM     35  O   UNL     1      48.706 -35.271 105.575  1.00  0.00    -0.273 OA
ATOM     36  O   UNL     1      49.991 -32.696 109.086  1.00  0.00    -0.261 OA
ATOM     37  H   UNL     1      50.077 -33.401 106.620  1.00  0.00     0.173 HD
ENDBRANCH  28  30
ENDBRANCH  23  24
ENDBRANCH  22  23
ENDBRANCH  21  22
ENDBRANCH   1  21
TORSDOF 10
ENDMDL
MODEL 7
REMARK VINA RESULT:   -10.861      4.070      8.051
REMARK INTER + INTRA:         -18.649
REMARK INTER:                 -16.724
REMARK INTRA:                  -1.925
REMARK UNBOUND:                -1.439
REMARK SMILES CCCc1cc(-c2noc3ccccc23)ccc1OCCCOc1cccc([C@H]2SC(=O)NC2=O)c1
REMARK SMILES IDX 20 1 19 2 18 3 4 4 5 5 6 6 17 7 16 8 3 9 2 10 1 11 7 12 8 13
REMARK SMILES IDX 15 14 9 15 14 16 10 17 13 18 11 19 12 20 21 21 22 22 23 23
REMARK SMILES IDX 24 24 25 25 36 26 26 27 28 28 27 29 29 30 30 31 34 32 31 33
REMARK SMILES IDX 33 34 35 35 32 36
REMARK H PARENT 33 37
ROOT
ATOM      1  C   UNL     1      39.417 -39.205 109.160  1.00  0.00     0.233 C 
ENDROOT
BRANCH   1   2
ATOM      2  O   UNL     1      40.666 -38.697 108.686  1.00  0.00    -0.493 OA
BRANCH   2   3
ATOM      3  C   UNL     1      40.963 -38.872 107.361  1.00  0.00     0.122 A 
ATOM      4  C   UNL     1      42.210 -38.371 106.941  1.00  0.00    -0.005 A 
ATOM      5  C   UNL     1      42.592 -38.506 105.593  1.00  0.00     0.018 A 
ATOM      6  C   UNL     1      41.750 -39.123 104.660  1.00  0.00     0.005 A 
ATOM      7  C   UNL     1      40.130 -39.503 106.433  1.00  0.00     0.047 A 
ATOM      8  C   UNL     1      40.521 -39.629 105.096  1.00  0.00     0.014 A 
BRANCH   4   9
ATOM      9  C   UNL     1      43.150 -37.680 107.906  1.00  0.00     0.039 C 
BRANCH   9  10
ATOM     10  C   UNL     1      44.336 -38.546 108.341  1.00  0.00     0.001 C 
ATOM     11  C   UNL     1      44.041 -39.399 109.568  1.00  0.00     0.004 C 
ENDBRANCH   9  10
ENDBRANCH   4   9
BRANCH   6  12
ATOM     12  C   UNL     1      42.141 -39.243 103.257  1.00  0.00     0.121 A 
ATOM     13  N   UNL     1      41.827 -38.282 102.369  1.00  0.00    -0.079 NA
ATOM     14  C   UNL     1      42.873 -40.292 102.622  1.00  0.00     0.050 A 
ATOM     15  O   UNL     1      42.323 -38.702 101.150  1.00  0.00    -0.356 OA
ATOM     16  C   UNL     1      43.488 -41.505 102.993  1.00  0.00     0.014 A 
ATOM     17  C   UNL     1      42.949 -39.897 101.299  1.00  0.00     0.167 A 
ATOM     18  C   UNL     1      44.133 -42.262 102.004  1.00  0.00     0.001 A 
ATOM     19  C   UNL     1      43.580 -40.622 100.292  1.00  0.00     0.051 A 
ATOM     20  C   UNL     1      44.175 -41.828 100.676  1.00  0.00     0.004 A 
ENDBRANCH   6  12
ENDBRANCH   2   3
ENDBRANCH   1   2
BRANCH   1  21
ATOM     21  C   UNL     1      38.550 -38.008 109.545  1.00  0.00     0.083 C 
BRANCH  21  22
ATOM     22  C   UNL     1      37.139 -38.114 108.984  1.00  0.00     0.233 C 
BRANCH  22  23
ATOM     23  O   UNL     1      36.574 -36.807 108.906  1.00  0.00    -0.493 OA
BRANCH  23  24
ATOM     24  C   UNL     1      36.284 -36.320 107.661  1.00  0.00     0.119 A 
ATOM     25  C   UNL     1      35.911 -34.975 107.638  1.00  0.00     0.046 A 
ATOM     26  C   UNL     1      36.332 -37.037 106.464  1.00  0.00     0.051 A 
ATOM     27  C   UNL     1      35.582 -34.352 106.436  1.00  0.00     0.004 A 
ATOM     28  C   UNL     1      36.015 -36.420 105.236  1.00  0.00    -0.021 A 
ATOM     29  C   UNL     1      35.628 -35.070 105.241  1.00  0.00     0.006 A 
BRANCH  28  30
ATOM     30  C   UNL     1      36.056 -37.241 103.964  1.00  0.00     0.176 C 
ATOM     31  S   UNL     1      36.662 -36.257 102.553  1.00  0.00    -0.046 SA
ATOM     32  C   UNL     1      36.957 -38.462 104.016  1.00  0.00     0.245 C 
ATOM     33  C   UNL     1      37.918 -37.400 102.169  1.00  0.00     0.286 C 
ATOM     34  N   UNL     1      37.900 -38.441 103.031  1.00  0.00    -0.286 N 
ATOM     35  O   UNL     1      36.871 -39.378 104.824  1.00  0.00    -0.273 OA
ATOM     36  O   UNL     1      38.696 -37.269 101.242  1.00  0.00    -0.261 OA
ATOM     37  H   UNL     1      38.568 -39.190 102.938  1.00  0.00     0.173 HD
ENDBRANCH  28  30
ENDBRANCH  23  24
ENDBRANCH  22  23
ENDBRANCH  21  22
ENDBRANCH   1  21
TORSDOF 10
ENDMDL
MODEL 8
REMARK VINA RESULT:   -10.818      2.767      8.684
REMARK INTER + INTRA:         -18.581
REMARK INTER:                 -17.207
REMARK INTRA:                  -1.374
REMARK UNBOUND:                -1.439
REMARK SMILES CCCc1cc(-c2noc3ccccc23)ccc1OCCCOc1cccc([C@H]2SC(=O)NC2=O)c1
REMARK SMILES IDX 20 1 19 2 18 3 4 4 5 5 6 6 17 7 16 8 3 9 2 10 1 11 7 12 8 13
REMARK SMILES IDX 15 14 9 15 14 16 10 17 13 18 11 19 12 20 21 21 22 22 23 23
REMARK SMILES IDX 24 24 25 25 36 26 26 27 28 28 27 29 29 30 30 31 34 32 31 33
REMARK SMILES IDX 33 34 35 35 32 36
REMARK H PARENT 33 37
ROOT
ATOM      1  C   UNL     1      41.425 -38.268 107.637  1.00  0.00     0.233 C 
ENDROOT
BRANCH   1   2
ATOM      2  O   UNL     1      40.832 -39.291 106.836  1.00  0.00    -0.493 OA
BRANCH   2   3
ATOM      3  C   UNL     1      41.547 -39.756 105.764  1.00  0.00     0.122 A 
ATOM      4  C   UNL     1      40.859 -39.789 104.537  1.00  0.00    -0.005 A 
ATOM      5  C   UNL     1      41.521 -40.257 103.385  1.00  0.00     0.018 A 
ATOM      6  C   UNL     1      42.848 -40.698 103.442  1.00  0.00     0.005 A 
ATOM      7  C   UNL     1      42.878 -40.180 105.817  1.00  0.00     0.047 A 
ATOM      8  C   UNL     1      43.522 -40.644 104.666  1.00  0.00     0.014 A 
BRANCH   4   9
ATOM      9  C   UNL     1      39.417 -39.340 104.425  1.00  0.00     0.039 C 
BRANCH   9  10
ATOM     10  C   UNL     1      39.048 -38.786 103.047  1.00  0.00     0.001 C 
ATOM     11  C   UNL     1      37.713 -38.054 103.029  1.00  0.00     0.004 C 
ENDBRANCH   9  10
ENDBRANCH   4   9
BRANCH   6  12
ATOM     12  C   UNL     1      43.525 -41.202 102.249  1.00  0.00     0.121 A 
ATOM     13  N   UNL     1      44.444 -42.181 102.339  1.00  0.00    -0.079 NA
ATOM     14  C   UNL     1      43.347 -40.806 100.888  1.00  0.00     0.050 A 
ATOM     15  O   UNL     1      44.892 -42.413 101.053  1.00  0.00    -0.356 OA
ATOM     16  C   UNL     1      42.547 -39.900 100.163  1.00  0.00     0.014 A 
ATOM     17  C   UNL     1      44.239 -41.598 100.187  1.00  0.00     0.167 A 
ATOM     18  C   UNL     1      42.702 -39.830  98.770  1.00  0.00     0.001 A 
ATOM     19  C   UNL     1      44.419 -41.556  98.807  1.00  0.00     0.051 A 
ATOM     20  C   UNL     1      43.625 -40.643  98.106  1.00  0.00     0.004 A 
ENDBRANCH   6  12
ENDBRANCH   2   3
ENDBRANCH   1   2
BRANCH   1  21
ATOM     21  C   UNL     1      41.752 -38.881 108.998  1.00  0.00     0.083 C 
BRANCH  21  22
ATOM     22  C   UNL     1      43.241 -38.826 109.313  1.00  0.00     0.233 C 
BRANCH  22  23
ATOM     23  O   UNL     1      43.847 -40.045 108.888  1.00  0.00    -0.493 OA
BRANCH  23  24
ATOM     24  C   UNL     1      45.206 -40.053 108.737  1.00  0.00     0.119 A 
ATOM     25  C   UNL     1      45.772 -41.325 108.645  1.00  0.00     0.046 A 
ATOM     26  C   UNL     1      46.034 -38.930 108.670  1.00  0.00     0.051 A 
ATOM     27  C   UNL     1      47.148 -41.480 108.496  1.00  0.00     0.004 A 
ATOM     28  C   UNL     1      47.429 -39.066 108.507  1.00  0.00    -0.021 A 
ATOM     29  C   UNL     1      47.974 -40.358 108.432  1.00  0.00     0.006 A 
BRANCH  28  30
ATOM     30  C   UNL     1      48.292 -37.823 108.464  1.00  0.00     0.176 C 
ATOM     31  S   UNL     1      49.085 -37.617 106.835  1.00  0.00    -0.046 SA
ATOM     32  C   UNL     1      47.556 -36.519 108.718  1.00  0.00     0.245 C 
ATOM     33  C   UNL     1      48.465 -36.003 106.628  1.00  0.00     0.286 C 
ATOM     34  N   UNL     1      47.712 -35.638 107.690  1.00  0.00    -0.286 N 
ATOM     35  O   UNL     1      46.900 -36.254 109.717  1.00  0.00    -0.273 OA
ATOM     36  O   UNL     1      48.692 -35.307 105.655  1.00  0.00    -0.261 OA
ATOM     37  H   UNL     1      47.283 -34.727 107.720  1.00  0.00     0.173 HD
ENDBRANCH  28  30
ENDBRANCH  23  24
ENDBRANCH  22  23
ENDBRANCH  21  22
ENDBRANCH   1  21
TORSDOF 10
ENDMDL
MODEL 9
REMARK VINA RESULT:   -10.723      4.725      8.501
REMARK INTER + INTRA:         -18.431
REMARK INTER:                 -16.861
REMARK INTRA:                  -1.570
REMARK UNBOUND:                -1.439
REMARK SMILES CCCc1cc(-c2noc3ccccc23)ccc1OCCCOc1cccc([C@H]2SC(=O)NC2=O)c1
REMARK SMILES IDX 20 1 19 2 18 3 4 4 5 5 6 6 17 7 16 8 3 9 2 10 1 11 7 12 8 13
REMARK SMILES IDX 15 14 9 15 14 16 10 17 13 18 11 19 12 20 21 21 22 22 23 23
REMARK SMILES IDX 24 24 25 25 36 26 26 27 28 28 27 29 29 30 30 31 34 32 31 33
REMARK SMILES IDX 33 34 35 35 32 36
REMARK H PARENT 33 37
ROOT
ATOM      1  C   UNL     1      42.564 -38.788 108.033  1.00  0.00     0.233 C 
ENDROOT
BRANCH   1   2
ATOM      2  O   UNL     1      42.187 -39.950 107.293  1.00  0.00    -0.493 OA
BRANCH   2   3
ATOM      3  C   UNL     1      42.180 -39.860 105.926  1.00  0.00     0.122 A 
ATOM      4  C   UNL     1      43.262 -40.472 105.266  1.00  0.00    -0.005 A 
ATOM      5  C   UNL     1      43.332 -40.422 103.860  1.00  0.00     0.018 A 
ATOM      6  C   UNL     1      42.350 -39.767 103.109  1.00  0.00     0.005 A 
ATOM      7  C   UNL     1      41.190 -39.221 105.175  1.00  0.00     0.047 A 
ATOM      8  C   UNL     1      41.274 -39.177 103.779  1.00  0.00     0.014 A 
BRANCH   4   9
ATOM      9  C   UNL     1      44.360 -41.178 106.033  1.00  0.00     0.039 C 
BRANCH   9  10
ATOM     10  C   UNL     1      44.721 -42.555 105.468  1.00  0.00     0.001 C 
ATOM     11  C   UNL     1      44.752 -43.651 106.525  1.00  0.00     0.004 C 
ENDBRANCH   9  10
ENDBRANCH   4   9
BRANCH   6  12
ATOM     12  C   UNL     1      42.438 -39.699 101.652  1.00  0.00     0.121 A 
ATOM     13  N   UNL     1      41.731 -38.787 100.960  1.00  0.00    -0.079 NA
ATOM     14  C   UNL     1      43.226 -40.499 100.768  1.00  0.00     0.050 A 
ATOM     15  O   UNL     1      42.026 -38.996  99.626  1.00  0.00    -0.356 OA
ATOM     16  C   UNL     1      44.160 -41.549 100.867  1.00  0.00     0.014 A 
ATOM     17  C   UNL     1      42.918 -40.013  99.510  1.00  0.00     0.167 A 
ATOM     18  C   UNL     1      44.722 -42.064  99.689  1.00  0.00     0.001 A 
ATOM     19  C   UNL     1      43.454 -40.498  98.321  1.00  0.00     0.051 A 
ATOM     20  C   UNL     1      44.372 -41.548  98.438  1.00  0.00     0.004 A 
ENDBRANCH   6  12
ENDBRANCH   2   3
ENDBRANCH   1   2
BRANCH   1  21
ATOM     21  C   UNL     1      41.497 -38.558 109.102  1.00  0.00     0.083 C 
BRANCH  21  22
ATOM     22  C   UNL     1      40.503 -37.477 108.701  1.00  0.00     0.233 C 
BRANCH  22  23
ATOM     23  O   UNL     1      39.464 -37.421 109.677  1.00  0.00    -0.493 OA
BRANCH  23  24
ATOM     24  C   UNL     1      38.255 -37.964 109.341  1.00  0.00     0.119 A 
ATOM     25  C   UNL     1      37.815 -38.974 110.198  1.00  0.00     0.046 A 
ATOM     26  C   UNL     1      37.462 -37.599 108.251  1.00  0.00     0.051 A 
ATOM     27  C   UNL     1      36.602 -39.619 109.969  1.00  0.00     0.004 A 
ATOM     28  C   UNL     1      36.225 -38.233 108.009  1.00  0.00    -0.021 A 
ATOM     29  C   UNL     1      35.812 -39.256 108.879  1.00  0.00     0.006 A 
BRANCH  28  30
ATOM     30  C   UNL     1      35.408 -37.823 106.802  1.00  0.00     0.176 C 
ATOM     31  S   UNL     1      35.648 -36.061 106.399  1.00  0.00    -0.046 SA
ATOM     32  C   UNL     1      35.732 -38.573 105.522  1.00  0.00     0.245 C 
ATOM     33  C   UNL     1      36.103 -36.398 104.753  1.00  0.00     0.286 C 
ATOM     34  N   UNL     1      36.087 -37.729 104.513  1.00  0.00    -0.286 N 
ATOM     35  O   UNL     1      35.682 -39.788 105.375  1.00  0.00    -0.273 OA
ATOM     36  O   UNL     1      36.388 -35.540 103.937  1.00  0.00    -0.261 OA
ATOM     37  H   UNL     1      36.327 -38.083 103.601  1.00  0.00     0.173 HD
ENDBRANCH  28  30
ENDBRANCH  23  24
ENDBRANCH  22  23
ENDBRANCH  21  22
ENDBRANCH   1  21
TORSDOF 10
ENDMDL
