MODEL 1
REMARK VINA RESULT:    -9.375      0.000      0.000
REMARK INTER + INTRA:         -13.592
REMARK INTER:                 -12.663
REMARK INTRA:                  -0.929
REMARK UNBOUND:                -0.929
REMARK SMILES O=C(NS(=O)(=O)c1ccc(Oc2ccc(F)cc2)cc1)c1cccc(-c2ccc(Cl)c(Cl)c2)c1
REMARK SMILES IDX 4 1 5 2 6 3 3 4 1 5 2 6 21 8 22 9 34 10 23 11 25 12 24 13
REMARK SMILES IDX 26 14 27 15 33 16 28 17 31 18 29 19 32 20 30 21 7 22 8 23
REMARK SMILES IDX 20 24 9 25 19 26 10 27 11 28 12 29 13 30 18 31 14 32 17 33
REMARK SMILES IDX 15 34 16 35
REMARK H PARENT 3 7
ROOT
ATOM      1  S   UNL     1      27.456  12.434 -43.981  1.00  0.00     0.264 S 
ATOM      2  O   UNL     1      27.537  13.508 -44.944  1.00  0.00    -0.201 OA
ATOM      3  O   UNL     1      26.343  11.505 -44.001  1.00  0.00    -0.201 OA
ENDROOT
BRANCH   1   4
ATOM      4  N   UNL     1      28.812  11.476 -44.089  1.00  0.00    -0.245 N 
ATOM      5  O   UNL     1      30.373  13.124 -44.516  1.00  0.00    -0.268 OA
ATOM      6  C   UNL     1      30.101  11.944 -44.370  1.00  0.00     0.265 C 
ATOM      7  H   UNL     1      28.579  10.492 -44.060  1.00  0.00     0.183 HD
BRANCH   6   8
ATOM      8  C   UNL     1      31.162  10.902 -44.471  1.00  0.00     0.041 A 
ATOM      9  C   UNL     1      31.141   9.719 -43.723  1.00  0.00     0.014 A 
ATOM     10  C   UNL     1      32.220  11.135 -45.366  1.00  0.00     0.022 A 
ATOM     11  C   UNL     1      32.161   8.780 -43.878  1.00  0.00     0.001 A 
ATOM     12  C   UNL     1      33.256  10.198 -45.534  1.00  0.00    -0.018 A 
ATOM     13  C   UNL     1      33.204   9.018 -44.777  1.00  0.00     0.009 A 
BRANCH  12  14
ATOM     14  C   UNL     1      34.360  10.449 -46.476  1.00  0.00    -0.017 A 
ATOM     15  C   UNL     1      34.367   9.862 -47.752  1.00  0.00     0.010 A 
ATOM     16  C   UNL     1      35.437  11.281 -46.125  1.00  0.00     0.030 A 
ATOM     17  C   UNL     1      35.415  10.100 -48.648  1.00  0.00     0.023 A 
ATOM     18  C   UNL     1      36.487  11.522 -47.020  1.00  0.00     0.060 A 
ATOM     19  C   UNL     1      36.476  10.930 -48.285  1.00  0.00     0.059 A 
ATOM     20  Cl  UNL     1      37.762  12.565 -46.497  1.00  0.00    -0.083 Cl
ATOM     21  Cl  UNL     1      37.735  11.181 -49.441  1.00  0.00    -0.083 Cl
ENDBRANCH  12  14
ENDBRANCH   6   8
ENDBRANCH   1   4
BRANCH   1  22
ATOM     22  C   UNL     1      27.560  13.101 -42.340  1.00  0.00     0.088 A 
ATOM     23  C   UNL     1      28.247  14.300 -42.123  1.00  0.00     0.026 A 
ATOM     24  C   UNL     1      26.997  12.397 -41.271  1.00  0.00     0.026 A 
ATOM     25  C   UNL     1      28.353  14.809 -40.827  1.00  0.00     0.048 A 
ATOM     26  C   UNL     1      27.103  12.910 -39.977  1.00  0.00     0.048 A 
ATOM     27  C   UNL     1      27.795  14.103 -39.756  1.00  0.00     0.127 A 
BRANCH  27  28
ATOM     28  O   UNL     1      27.837  14.571 -38.463  1.00  0.00    -0.457 OA
BRANCH  28  29
ATOM     29  C   UNL     1      27.546  15.901 -38.263  1.00  0.00     0.127 A 
ATOM     30  C   UNL     1      26.338  16.479 -38.667  1.00  0.00     0.050 A 
ATOM     31  C   UNL     1      28.552  16.688 -37.698  1.00  0.00     0.050 A 
ATOM     32  C   UNL     1      26.124  17.845 -38.465  1.00  0.00     0.043 A 
ATOM     33  C   UNL     1      28.336  18.052 -37.497  1.00  0.00     0.043 A 
ATOM     34  C   UNL     1      27.122  18.616 -37.880  1.00  0.00     0.123 A 
ATOM     35  F   UNL     1      26.916  19.926 -37.688  1.00  0.00    -0.207 F 
ENDBRANCH  28  29
ENDBRANCH  27  28
ENDBRANCH   1  22
TORSDOF 6
ENDMDL
