REMARK VINA RESULT:    -8.090      2.734      6.911
REMARK INTER + INTRA:          -9.146
REMARK INTER:                  -9.879
REMARK INTRA:                   0.732
REMARK UNBOUND:                 0.363
REMARK SMILES CC(C)n1nc(-c2ccc3oc(N)nc3c2)c2c(N)ncnc21
REMARK SMILES IDX 4 1 5 2 6 3 17 4 18 5 20 6 21 7 22 8 23 9 2 10 1 11 3 12
REMARK SMILES IDX 7 13 8 14 16 15 9 16 15 17 10 18 14 19 11 20 12 21 13 22
REMARK SMILES IDX 19 25
REMARK H PARENT 13 23 13 24 19 26 19 27
ROOT
ATOM      1  N   UNL     1      53.891   0.708 -44.910  1.00  0.00    -0.244 N 
ATOM      2  N   UNL     1      53.931   0.742 -46.260  1.00  0.00    -0.170 NA
ATOM      3  C   UNL     1      52.737   0.253 -46.637  1.00  0.00     0.106 A 
ATOM      4  C   UNL     1      51.954  -0.146 -45.513  1.00  0.00     0.089 A 
ATOM      5  C   UNL     1      50.714  -0.743 -45.247  1.00  0.00     0.138 A 
ATOM      6  N   UNL     1      50.348  -0.921 -43.959  1.00  0.00    -0.219 NA
ATOM      7  C   UNL     1      51.193  -0.539 -42.985  1.00  0.00     0.226 A 
ATOM      8  N   UNL     1      52.408   0.016 -43.119  1.00  0.00    -0.217 NA
ATOM      9  C   UNL     1      52.730   0.184 -44.413  1.00  0.00     0.164 A 
ENDROOT
BRANCH   1  10
ATOM     10  C   UNL     1      55.024   1.196 -44.132  1.00  0.00     0.103 C 
ATOM     11  C   UNL     1      54.577   2.182 -43.053  1.00  0.00     0.033 C 
ATOM     12  C   UNL     1      56.098   1.805 -45.032  1.00  0.00     0.033 C 
ENDBRANCH   1  10
BRANCH   3  13
ATOM     13  C   UNL     1      52.398   0.186 -48.056  1.00  0.00     0.005 A 
ATOM     14  C   UNL     1      53.295   0.706 -49.010  1.00  0.00     0.014 A 
ATOM     15  C   UNL     1      51.169  -0.368 -48.461  1.00  0.00     0.043 A 
ATOM     16  C   UNL     1      53.017   0.672 -50.383  1.00  0.00     0.050 A 
ATOM     17  C   UNL     1      50.882  -0.413 -49.831  1.00  0.00     0.112 A 
ATOM     18  C   UNL     1      51.801   0.100 -50.731  1.00  0.00     0.156 A 
ATOM     19  N   UNL     1      49.793  -0.900 -50.508  1.00  0.00    -0.194 NA
ATOM     20  O   UNL     1      51.288  -0.062 -51.985  1.00  0.00    -0.424 OA
ATOM     21  C   UNL     1      50.085  -0.665 -51.765  1.00  0.00     0.292 A 
BRANCH  21  22
ATOM     22  N   UNL     1      49.363  -0.940 -52.844  1.00  0.00    -0.353 N 
ATOM     23  H   UNL     1      49.083  -0.200 -53.473  1.00  0.00     0.161 HD
ATOM     24  H   UNL     1      49.090  -1.886 -53.069  1.00  0.00     0.161 HD
ENDBRANCH  21  22
ENDBRANCH   3  13
BRANCH   5  25
ATOM     25  N   UNL     1      49.831  -1.188 -46.199  1.00  0.00    -0.383 N 
ATOM     26  H   UNL     1      49.438  -0.486 -46.809  1.00  0.00     0.158 HD
ATOM     27  H   UNL     1      49.504  -2.138 -46.243  1.00  0.00     0.158 HD
ENDBRANCH   5  25
TORSDOF 4
