MODEL 8
REMARK VINA RESULT:    -8.155      4.341      8.448
REMARK INTER + INTRA:         -12.352
REMARK INTER:                 -11.631
REMARK INTRA:                  -0.721
REMARK UNBOUND:                -0.860
REMARK SMILES CCC(CC)n1cc(-c2nc(-c3cnn(C[C@H]4CCCN4)c3)cn3nccc23)cn1
REMARK SMILES IDX 9 1 10 2 11 3 23 4 24 5 25 6 26 7 27 8 28 9 8 10 6 11 7 12
REMARK SMILES IDX 30 13 29 14 3 15 2 16 1 17 4 18 5 19 12 20 13 21 22 22 14 23
REMARK SMILES IDX 15 24 16 25 17 26 18 27 21 28 19 29 20 30
REMARK H PARENT 21 31
ROOT
ATOM      1  C   UNL     1     -11.876  14.681  20.157  1.00  0.00     0.100 A 
ATOM      2  N   UNL     1     -10.692  15.218  20.229  1.00  0.00    -0.244 NA
ATOM      3  C   UNL     1      -9.578  14.429  19.984  1.00  0.00     0.092 A 
ATOM      4  C   UNL     1      -9.685  13.125  19.671  1.00  0.00     0.142 A 
ATOM      5  N   UNL     1     -10.936  12.549  19.570  1.00  0.00    -0.237 N 
ATOM      6  N   UNL     1     -11.241  11.267  19.252  1.00  0.00    -0.176 NA
ATOM      7  C   UNL     1     -12.573  11.239  19.219  1.00  0.00     0.136 A 
ATOM      8  C   UNL     1     -13.145  12.481  19.535  1.00  0.00     0.052 A 
ATOM      9  C   UNL     1     -12.071  13.303  19.791  1.00  0.00     0.093 A 
ENDROOT
BRANCH   1  10
ATOM     10  C   UNL     1     -13.005  15.536  20.459  1.00  0.00     0.040 A 
ATOM     11  N   UNL     1     -14.850  16.755  20.403  1.00  0.00    -0.269 N 
ATOM     12  C   UNL     1     -14.004  16.009  19.627  1.00  0.00     0.119 A 
ATOM     13  N   UNL     1     -14.475  16.794  21.694  1.00  0.00    -0.181 NA
ATOM     14  C   UNL     1     -13.375  16.039  21.729  1.00  0.00     0.145 A 
BRANCH  11  15
ATOM     15  C   UNL     1     -16.058  17.471  19.994  1.00  0.00     0.107 C 
BRANCH  15  16
ATOM     16  C   UNL     1     -17.351  16.920  20.627  1.00  0.00     0.024 C 
ATOM     17  C   UNL     1     -18.260  18.019  21.164  1.00  0.00     0.006 C 
ENDBRANCH  15  16
BRANCH  15  18
ATOM     18  C   UNL     1     -16.148  17.600  18.459  1.00  0.00     0.024 C 
ATOM     19  C   UNL     1     -16.629  16.361  17.717  1.00  0.00     0.006 C 
ENDBRANCH  15  18
ENDBRANCH  11  15
ENDBRANCH   1  10
BRANCH   3  20
ATOM     20  C   UNL     1      -8.325  15.114  20.103  1.00  0.00     0.040 A 
ATOM     21  C   UNL     1      -7.976  16.228  20.900  1.00  0.00     0.145 A 
ATOM     22  C   UNL     1      -7.158  14.809  19.432  1.00  0.00     0.119 A 
ATOM     23  N   UNL     1      -6.702  16.599  20.745  1.00  0.00    -0.181 NA
ATOM     24  N   UNL     1      -6.226  15.719  19.839  1.00  0.00    -0.270 N 
BRANCH  24  25
ATOM     25  C   UNL     1      -4.842  15.796  19.407  1.00  0.00     0.163 C 
BRANCH  25  26
ATOM     26  C   UNL     1      -4.643  15.811  17.879  1.00  0.00     0.075 C 
ATOM     27  C   UNL     1      -4.457  17.214  17.288  1.00  0.00     0.022 C 
ATOM     28  N   UNL     1      -3.489  15.004  17.418  1.00  0.00    -0.312 NA
ATOM     29  C   UNL     1      -3.089  17.176  16.630  1.00  0.00     0.017 C 
ATOM     30  C   UNL     1      -2.924  15.717  16.269  1.00  0.00     0.081 C 
ATOM     31  H   UNL     1      -2.786  15.017  18.174  1.00  0.00     0.123 HD
ENDBRANCH  25  26
ENDBRANCH  24  25
ENDBRANCH   3  20
TORSDOF 7
ENDMDL
