REMARK SMILES COc1cc(Nc2c(C#N)cnc3cc(OCCCN4CCN(C)CC4)c(OC)cc23)c(Cl)cc1Cl
REMARK SMILES IDX 16 1 15 2 7 3 8 4 31 5 9 6 11 7 30 8 13 9 10 10 12 11 27 12
REMARK SMILES IDX 14 13 6 14 5 16 3 17 4 18 35 19 34 20 32 21 36 22 33 23 2 24
REMARK SMILES IDX 1 25 28 26 29 27 17 28 18 29 19 30 20 31 21 32 26 33 22 34
REMARK SMILES IDX 25 35 23 36 24 37
REMARK H PARENT 6 15
REMARK INDEX MAP 16 1 15 2 7 3 8 4 31 5 9 6 11 7 30 8 13 9 10 10 12 11 27 12
REMARK INDEX MAP 14 13 6 14 41 15 5 16 3 17 4 18 35 19 34 20 32 21 36 22 33 23
REMARK INDEX MAP 2 24 1 25 28 26 29 27 17 28 18 29 19 30 20 31 21 32 26 33
REMARK INDEX MAP 22 34 25 35 23 36 24 37
ROOT
ATOM      1  O   UNL     1      13.226   1.721  27.759  1.00  0.00    -0.490 OA
ENDROOT
BRANCH   1   2
ATOM      2  C   UNL     1      14.123   2.402  26.976  1.00  0.00     0.163 A 
ATOM      3  C   UNL     1      16.819   4.682  24.608  1.00  0.00     0.068 A 
ATOM      4  C   UNL     1      18.005   4.048  24.207  1.00  0.00     0.094 A 
ATOM      5  C   UNL     1      15.882   3.948  25.397  1.00  0.00     0.029 A 
ATOM      6  C   UNL     1      18.992   4.701  23.406  1.00  0.00     0.103 C 
ATOM      7  C   UNL     1      18.233   2.752  24.628  1.00  0.00     0.133 A 
ATOM      8  C   UNL     1      14.619   4.446  25.798  1.00  0.00     0.063 A 
ATOM      9  C   UNL     1      16.229   2.632  25.774  1.00  0.00     0.076 A 
ATOM     10  N   UNL     1      19.786   5.228  22.745  1.00  0.00    -0.192 NA
ATOM     11  N   UNL     1      17.380   2.051  25.404  1.00  0.00    -0.255 NA
ATOM     12  C   UNL     1      13.754   3.699  26.600  1.00  0.00     0.161 A 
ATOM     13  C   UNL     1      15.354   1.891  26.555  1.00  0.00     0.079 A 
BRANCH   3  14
ATOM     14  N   UNL     1      16.605   6.040  24.262  1.00  0.00    -0.353 N 
ATOM     15  H   UNL     1      16.837   6.714  25.005  1.00  0.00     0.167 HD
BRANCH  14  16
ATOM     16  C   UNL     1      16.125   6.623  23.065  1.00  0.00     0.061 A 
ATOM     17  C   UNL     1      14.632   6.601  21.124  1.00  0.00     0.139 A 
ATOM     18  C   UNL     1      15.056   6.060  22.345  1.00  0.00     0.075 A 
ATOM     19  C   UNL     1      15.282   7.741  20.626  1.00  0.00     0.084 A 
ATOM     20  C   UNL     1      16.339   8.323  21.325  1.00  0.00     0.047 A 
ATOM     21  C   UNL     1      16.758   7.762  22.530  1.00  0.00     0.066 A 
ATOM     22  Cl  UNL     1      14.814   8.463  19.125  1.00  0.00    -0.080 Cl
ATOM     23  Cl  UNL     1      18.086   8.500  23.359  1.00  0.00    -0.082 Cl
BRANCH  17  24
ATOM     24  O   UNL     1      13.609   6.094  20.368  1.00  0.00    -0.495 OA
ATOM     25  C   UNL     1      12.278   6.354  20.795  1.00  0.00     0.278 C 
ENDBRANCH  17  24
ENDBRANCH  14  16
ENDBRANCH   3  14
BRANCH  12  26
ATOM     26  O   UNL     1      12.532   4.140  27.040  1.00  0.00    -0.493 OA
ATOM     27  C   UNL     1      11.677   4.758  26.087  1.00  0.00     0.278 C 
ENDBRANCH  12  26
ENDBRANCH   1   2
BRANCH   1  28
ATOM     28  C   UNL     1      13.464   1.673  29.167  1.00  0.00     0.231 C 
BRANCH  28  29
ATOM     29  C   UNL     1      12.131   1.855  29.892  1.00  0.00     0.057 C 
BRANCH  29  30
ATOM     30  C   UNL     1      11.764   0.659  30.782  1.00  0.00     0.088 C 
BRANCH  30  31
ATOM     31  N   UNL     1      10.327   0.337  30.773  1.00  0.00    -0.301 NA
ATOM     32  C   UNL     1       9.565   1.400  31.465  1.00  0.00     0.100 C 
ATOM     33  C   UNL     1      10.041  -0.956  31.428  1.00  0.00     0.100 C 
ATOM     34  C   UNL     1       8.052   1.095  31.530  1.00  0.00     0.099 C 
ATOM     35  C   UNL     1       8.525  -1.259  31.500  1.00  0.00     0.099 C 
ATOM     36  N   UNL     1       7.774  -0.194  32.190  1.00  0.00    -0.304 NA
ATOM     37  C   UNL     1       6.343  -0.481  32.183  1.00  0.00     0.105 C 
ENDBRANCH  30  31
ENDBRANCH  29  30
ENDBRANCH  28  29
ENDBRANCH   1  28
TORSDOF 9
