MODEL 9
REMARK VINA RESULT:    -6.982      2.145      3.534
REMARK INTER + INTRA:         -10.496
REMARK INTER:                 -10.998
REMARK INTRA:                   0.502
REMARK UNBOUND:                -0.658
REMARK SMILES CN(Cc1ccncc1)S(=O)(=O)C[C@H]1C[C@@H](N(C)c2ncnc3[nH]ccc23)C1
REMARK SMILES IDX 13 1 10 2 11 3 12 4 2 5 1 6 3 7 4 8 5 9 9 10 6 11 8 12 7 13
REMARK SMILES IDX 14 14 15 15 28 16 16 17 17 18 18 19 19 20 20 21 27 22 21 23
REMARK SMILES IDX 26 24 23 25 22 26 25 27 24 28
REMARK H PARENT 24 29
ROOT
ATOM      1  C   UNL     1       3.568 -20.398  20.760  1.00  0.00     0.158 C 
ENDROOT
BRANCH   1   2
ATOM      2  S   UNL     1       3.599 -19.098  19.521  1.00  0.00     0.214 S 
ATOM      3  O   UNL     1       4.335 -19.537  18.356  1.00  0.00    -0.212 OA
ATOM      4  O   UNL     1       2.245 -18.598  19.391  1.00  0.00    -0.212 OA
BRANCH   2   5
ATOM      5  N   UNL     1       4.514 -17.896  20.293  1.00  0.00    -0.201 NA
ATOM      6  C   UNL     1       3.953 -16.532  20.295  1.00  0.00     0.124 C 
BRANCH   5   7
ATOM      7  C   UNL     1       5.165 -18.286  21.570  1.00  0.00     0.137 C 
BRANCH   7   8
ATOM      8  C   UNL     1       6.619 -18.677  21.477  1.00  0.00    -0.030 A 
ATOM      9  C   UNL     1       7.289 -19.224  22.575  1.00  0.00     0.025 A 
ATOM     10  C   UNL     1       7.337 -18.495  20.290  1.00  0.00     0.025 A 
ATOM     11  C   UNL     1       8.628 -19.557  22.443  1.00  0.00     0.111 A 
ATOM     12  C   UNL     1       8.673 -18.865  20.254  1.00  0.00     0.111 A 
ATOM     13  N   UNL     1       9.335 -19.392  21.304  1.00  0.00    -0.265 NA
ENDBRANCH   7   8
ENDBRANCH   5   7
ENDBRANCH   2   5
ENDBRANCH   1   2
BRANCH   1  14
ATOM     14  C   UNL     1       4.543 -21.515  20.441  1.00  0.00     0.009 C 
ATOM     15  C   UNL     1       5.215 -22.165  21.676  1.00  0.00     0.029 C 
ATOM     16  C   UNL     1       3.945 -22.917  20.151  1.00  0.00     0.029 C 
ATOM     17  C   UNL     1       5.157 -23.523  20.915  1.00  0.00     0.084 C 
BRANCH  17  18
ATOM     18  N   UNL     1       4.810 -24.626  21.768  1.00  0.00    -0.356 N 
ATOM     19  C   UNL     1       3.664 -25.460  21.398  1.00  0.00     0.145 C 
BRANCH  18  20
ATOM     20  C   UNL     1       5.725 -25.378  22.551  1.00  0.00     0.141 A 
ATOM     21  N   UNL     1       6.848 -24.742  23.004  1.00  0.00    -0.219 NA
ATOM     22  C   UNL     1       5.585 -26.742  22.905  1.00  0.00     0.061 A 
ATOM     23  C   UNL     1       7.768 -25.423  23.709  1.00  0.00     0.226 A 
ATOM     24  C   UNL     1       4.612 -27.776  22.757  1.00  0.00     0.033 A 
ATOM     25  C   UNL     1       6.619 -27.307  23.642  1.00  0.00     0.142 A 
ATOM     26  N   UNL     1       7.740 -26.710  24.069  1.00  0.00    -0.218 NA
ATOM     27  C   UNL     1       5.096 -28.920  23.358  1.00  0.00     0.085 A 
ATOM     28  N   UNL     1       6.321 -28.619  23.887  1.00  0.00    -0.346 N 
ATOM     29  H   UNL     1       6.925 -29.243  24.401  1.00  0.00     0.167 HD
ENDBRANCH  18  20
ENDBRANCH  17  18
ENDBRANCH   1  14
TORSDOF 7
ENDMDL
