MODEL 5
REMARK VINA RESULT:    -8.432      4.510     10.952
REMARK INTER + INTRA:         -14.477
REMARK INTER:                 -14.530
REMARK INTRA:                   0.054
REMARK UNBOUND:                -0.869
REMARK SMILES CCc1ccc(-c2ncc(C)c(N(C)CCCOc3ccc4c(c3)CC[C@H]4CC(=O)O)n2)cc1
REMARK SMILES IDX 16 1 15 2 13 3 14 4 12 5 7 6 8 7 32 8 9 9 10 10 11 11 6 12
REMARK SMILES IDX 3 13 4 14 34 15 5 16 33 17 2 18 1 19 17 20 18 21 19 22 20 23
REMARK SMILES IDX 24 24 21 25 23 26 22 27 25 28 27 29 26 30 28 31 29 32 30 33
REMARK SMILES IDX 31 34
REMARK H PARENT 31 35
ROOT
ATOM      1  C   UNL     1       8.340  10.612  -5.013  1.00  0.00     0.063 C 
ENDROOT
BRANCH   1   2
ATOM      2  C   UNL     1       9.024  11.585  -5.975  1.00  0.00     0.121 C 
BRANCH   2   3
ATOM      3  N   UNL     1      10.351  11.081  -6.390  1.00  0.00    -0.359 N 
ATOM      4  C   UNL     1      11.460  11.999  -6.092  1.00  0.00     0.145 C 
BRANCH   3   5
ATOM      5  C   UNL     1      10.333  10.774  -7.781  1.00  0.00     0.135 A 
ATOM      6  C   UNL     1      10.382   9.206  -9.480  1.00  0.00     0.161 A 
ATOM      7  N   UNL     1      10.405  10.139 -10.447  1.00  0.00    -0.236 NA
ATOM      8  N   UNL     1      10.350   9.481  -8.162  1.00  0.00    -0.211 NA
ATOM      9  C   UNL     1      10.373  11.417 -10.036  1.00  0.00     0.120 A 
ATOM     10  C   UNL     1      10.324  11.807  -8.713  1.00  0.00     0.010 A 
ATOM     11  C   UNL     1      10.292  13.255  -8.346  1.00  0.00     0.050 C 
BRANCH   6  12
ATOM     12  C   UNL     1      10.410   7.785  -9.885  1.00  0.00     0.019 A 
ATOM     13  C   UNL     1      10.456   5.048 -10.671  1.00  0.00    -0.048 A 
ATOM     14  C   UNL     1      10.474   5.401  -9.319  1.00  0.00     0.004 A 
ATOM     15  C   UNL     1      10.422   6.065 -11.631  1.00  0.00     0.004 A 
ATOM     16  C   UNL     1      10.452   6.748  -8.935  1.00  0.00     0.012 A 
ATOM     17  C   UNL     1      10.399   7.408 -11.241  1.00  0.00     0.012 A 
BRANCH  13  18
ATOM     18  C   UNL     1      10.511   3.601 -11.092  1.00  0.00     0.032 C 
ATOM     19  C   UNL     1       9.516   2.748 -10.317  1.00  0.00     0.009 C 
ENDBRANCH  13  18
ENDBRANCH   6  12
ENDBRANCH   3   5
ENDBRANCH   2   3
ENDBRANCH   1   2
BRANCH   1  20
ATOM     20  C   UNL     1       7.152   9.881  -5.631  1.00  0.00     0.231 C 
BRANCH  20  21
ATOM     21  O   UNL     1       5.939  10.230  -4.960  1.00  0.00    -0.494 OA
BRANCH  21  22
ATOM     22  C   UNL     1       5.394   9.356  -4.061  1.00  0.00     0.119 A 
ATOM     23  C   UNL     1       5.583   9.369  -2.671  1.00  0.00     0.047 A 
ATOM     24  C   UNL     1       4.567   8.387  -4.636  1.00  0.00     0.050 A 
ATOM     25  C   UNL     1       4.941   8.432  -1.847  1.00  0.00     0.008 A 
ATOM     26  C   UNL     1       3.949   7.454  -3.818  1.00  0.00    -0.041 A 
ATOM     27  C   UNL     1       4.127   7.475  -2.431  1.00  0.00    -0.041 A 
ATOM     28  C   UNL     1       3.008   6.367  -4.230  1.00  0.00     0.036 C 
ATOM     29  C   UNL     1       3.293   6.403  -1.776  1.00  0.00     0.031 C 
ATOM     30  C   UNL     1       3.039   5.472  -2.984  1.00  0.00     0.014 C 
BRANCH  29  31
ATOM     31  C   UNL     1       3.951   5.654  -0.624  1.00  0.00     0.131 C 
BRANCH  31  32
ATOM     32  C   UNL     1       4.987   4.685  -1.119  1.00  0.00     0.303 C 
ATOM     33  O   UNL     1       6.054   4.963  -1.640  1.00  0.00    -0.252 OA
BRANCH  32  34
ATOM     34  O   UNL     1       4.623   3.401  -0.940  1.00  0.00    -0.481 OA
ATOM     35  H   UNL     1       5.414   2.889  -1.214  1.00  0.00     0.296 HD
ENDBRANCH  32  34
ENDBRANCH  31  32
ENDBRANCH  29  31
ENDBRANCH  21  22
ENDBRANCH  20  21
ENDBRANCH   1  20
TORSDOF 11
ENDMDL
