MODEL 8
REMARK VINA RESULT:    -7.763      2.284      3.417
REMARK INTER + INTRA:         -11.253
REMARK INTER:                 -11.042
REMARK INTRA:                  -0.211
REMARK UNBOUND:                -0.540
REMARK SMILES CN(c1ncnc2[nH]ccc12)[C@H]1CC[C@H](CS(=O)(=O)N2CC[C@H](CO)C2)CC1
REMARK SMILES IDX 17 1 18 2 19 3 16 4 15 5 12 6 28 7 13 8 27 9 14 10 2 11 1 12
REMARK SMILES IDX 3 13 4 14 11 15 5 16 10 17 7 18 6 19 9 20 8 21 20 23 21 24
REMARK SMILES IDX 26 25 22 26 23 27 24 28 25 29
REMARK H PARENT 8 22 25 30
ROOT
ATOM      1  S   UNL     1     -16.591  20.694  19.674  1.00  0.00     0.214 S 
ATOM      2  O   UNL     1     -15.717  21.452  20.544  1.00  0.00    -0.212 OA
ATOM      3  O   UNL     1     -16.623  20.954  18.250  1.00  0.00    -0.212 OA
ENDROOT
BRANCH   1   4
ATOM      4  C   UNL     1     -16.347  18.924  19.901  1.00  0.00     0.157 C 
BRANCH   4   5
ATOM      5  C   UNL     1     -14.985  18.546  20.497  1.00  0.00     0.005 C 
ATOM      6  C   UNL     1     -13.561  15.850  20.243  1.00  0.00     0.083 C 
ATOM      7  C   UNL     1     -13.895  16.525  21.589  1.00  0.00     0.025 C 
ATOM      8  C   UNL     1     -13.871  16.762  19.036  1.00  0.00     0.025 C 
ATOM      9  C   UNL     1     -15.162  17.363  21.469  1.00  0.00     0.007 C 
ATOM     10  C   UNL     1     -13.939  18.243  19.403  1.00  0.00     0.007 C 
BRANCH   6  11
ATOM     11  N   UNL     1     -12.173  15.334  20.281  1.00  0.00    -0.356 N 
ATOM     12  C   UNL     1     -11.118  16.155  19.681  1.00  0.00     0.145 C 
BRANCH  11  13
ATOM     13  C   UNL     1     -12.052  13.988  19.878  1.00  0.00     0.141 A 
ATOM     14  N   UNL     1     -10.842  13.489  19.499  1.00  0.00    -0.219 NA
ATOM     15  C   UNL     1     -13.155  13.107  19.815  1.00  0.00     0.061 A 
ATOM     16  C   UNL     1     -10.743  12.195  19.139  1.00  0.00     0.226 A 
ATOM     17  C   UNL     1     -14.560  13.191  20.039  1.00  0.00     0.033 A 
ATOM     18  C   UNL     1     -12.901  11.804  19.418  1.00  0.00     0.142 A 
ATOM     19  N   UNL     1     -11.718  11.275  19.076  1.00  0.00    -0.218 NA
ATOM     20  C   UNL     1     -15.105  11.947  19.796  1.00  0.00     0.085 A 
ATOM     21  N   UNL     1     -14.082  11.114  19.426  1.00  0.00    -0.346 N 
ATOM     22  H   UNL     1     -14.160  10.139  19.175  1.00  0.00     0.167 HD
ENDBRANCH  11  13
ENDBRANCH   6  11
ENDBRANCH   4   5
ENDBRANCH   1   4
BRANCH   1  23
ATOM     23  N   UNL     1     -18.168  20.907  20.244  1.00  0.00    -0.202 NA
ATOM     24  C   UNL     1     -19.053  21.857  19.528  1.00  0.00     0.102 C 
ATOM     25  C   UNL     1     -18.939  19.658  20.509  1.00  0.00     0.108 C 
ATOM     26  C   UNL     1     -20.451  21.410  19.928  1.00  0.00     0.024 C 
ATOM     27  C   UNL     1     -20.321  19.892  19.894  1.00  0.00     0.031 C 
BRANCH  27  28
ATOM     28  C   UNL     1     -21.449  19.146  20.596  1.00  0.00     0.161 C 
BRANCH  28  29
ATOM     29  O   UNL     1     -21.006  17.955  21.230  1.00  0.00    -0.396 OA
ATOM     30  H   UNL     1     -20.251  17.601  20.731  1.00  0.00     0.210 HD
ENDBRANCH  28  29
ENDBRANCH  27  28
ENDBRANCH   1  23
TORSDOF 7
ENDMDL
