MODEL 8
REMARK minimizedAffinity -9.65440273
REMARK CNNscore 0.523733258
REMARK CNNaffinity 7.58666468
REMARK SMILES CCc1c(C(=O)NCCCn2ccnc2)cn2ncnc(Nc3ccc4c(cnn4Cc4ccccc4)c3)c12
REMARK SMILES IDX 3 1 4 2 16 3 17 4 18 5 19 6 20 7 21 8 39 9 2 10 1 11 5 12
REMARK SMILES IDX 6 13 7 14 8 16 9 17 10 18 11 19 15 20 12 21 14 22 13 23
REMARK SMILES IDX 22 24 23 26 38 27 24 28 27 29 25 30 26 31 28 32 30 33 29 34
REMARK SMILES IDX 31 35 32 36 37 37 33 38 36 39 34 40 35 41
REMARK H PARENT 7 15 22 25
ROOT
ATOM      1  C   UNL     1      14.592   1.699  27.410  1.00  0.00    -0.004 A 
ATOM      2  C   UNL     1      14.117   0.719  28.305  1.00  0.00     0.063 A 
ATOM      3  C   UNL     1      14.969  -0.386  28.258  1.00  0.00     0.127 A 
ATOM      4  N   UNL     1      15.999  -0.119  27.399  1.00  0.00    -0.235 N 
ATOM      5  N   UNL     1      17.017  -0.957  27.129  1.00  0.00    -0.156 NA
ATOM      6  C   UNL     1      17.900  -0.448  26.239  1.00  0.00     0.247 A 
ATOM      7  N   UNL     1      17.845   0.759  25.632  1.00  0.00    -0.215 NA
ATOM      8  C   UNL     1      16.795   1.569  25.931  1.00  0.00     0.158 A 
ATOM      9  C   UNL     1      15.798   1.168  26.853  1.00  0.00     0.111 A 
ENDROOT
BRANCH   1  10
ATOM     10  C   UNL     1      14.001   3.068  27.096  1.00  0.00     0.035 C 
ATOM     11  C   UNL     1      13.027   3.017  25.911  1.00  0.00     0.009 C 
ENDBRANCH   1  10
BRANCH   2  12
ATOM     12  C   UNL     1      12.896   0.773  29.071  1.00  0.00     0.253 C 
ATOM     13  O   UNL     1      12.075  -0.146  29.049  1.00  0.00    -0.269 OA
ATOM     14  N   UNL     1      12.760   1.890  29.812  1.00  0.00    -0.352 N 
ATOM     15  H   UNL     1      13.462   2.610  29.721  1.00  0.00     0.163 HD
BRANCH  14  16
ATOM     16  C   UNL     1      11.632   2.195  30.696  1.00  0.00     0.118 C 
BRANCH  16  17
ATOM     17  C   UNL     1      11.619   1.365  31.996  1.00  0.00     0.043 C 
BRANCH  17  18
ATOM     18  C   UNL     1      10.210   1.013  32.520  1.00  0.00     0.125 C 
BRANCH  18  19
ATOM     19  N   UNL     1       9.599  -0.033  31.716  1.00  0.00    -0.337 N 
ATOM     20  C   UNL     1       8.540   0.083  30.848  1.00  0.00     0.199 A 
ATOM     21  C   UNL     1       9.940  -1.361  31.666  1.00  0.00     0.107 A 
ATOM     22  N   UNL     1       8.210  -1.048  30.272  1.00  0.00    -0.245 NA
ATOM     23  C   UNL     1       9.057  -1.935  30.765  1.00  0.00     0.130 A 
ENDBRANCH  18  19
ENDBRANCH  17  18
ENDBRANCH  16  17
ENDBRANCH  14  16
ENDBRANCH   2  12
BRANCH   8  24
ATOM     24  N   UNL     1      16.688   2.835  25.329  1.00  0.00    -0.338 N 
ATOM     25  H   UNL     1      15.857   3.328  25.623  1.00  0.00     0.168 HD
BRANCH  24  26
ATOM     26  C   UNL     1      17.455   3.570  24.407  1.00  0.00     0.040 A 
ATOM     27  C   UNL     1      17.883   3.068  23.170  1.00  0.00     0.038 A 
ATOM     28  C   UNL     1      17.774   4.881  24.772  1.00  0.00     0.028 A 
ATOM     29  C   UNL     1      18.630   3.898  22.320  1.00  0.00     0.022 A 
ATOM     30  C   UNL     1      18.519   5.733  23.954  1.00  0.00     0.031 A 
ATOM     31  C   UNL     1      18.942   5.218  22.725  1.00  0.00     0.069 A 
ATOM     32  C   UNL     1      19.216   3.776  21.026  1.00  0.00     0.144 A 
ATOM     33  N   UNL     1      19.681   5.755  21.684  1.00  0.00    -0.260 N 
ATOM     34  N   UNL     1      19.807   4.884  20.661  1.00  0.00    -0.180 NA
BRANCH  33  35
ATOM     35  C   UNL     1      20.196   7.118  21.548  1.00  0.00     0.180 C 
BRANCH  35  36
ATOM     36  C   UNL     1      21.576   7.347  22.158  1.00  0.00    -0.027 A 
ATOM     37  C   UNL     1      22.594   7.920  21.391  1.00  0.00     0.005 A 
ATOM     38  C   UNL     1      21.819   6.983  23.486  1.00  0.00     0.005 A 
ATOM     39  C   UNL     1      23.853   8.127  21.949  1.00  0.00     0.000 A 
ATOM     40  C   UNL     1      23.078   7.191  24.045  1.00  0.00     0.000 A 
ATOM     41  C   UNL     1      24.088   7.762  23.274  1.00  0.00     0.000 A 
ENDBRANCH  35  36
ENDBRANCH  33  35
ENDBRANCH  24  26
ENDBRANCH   8  24
TORSDOF 10
ENDMDL
