MODEL 8
REMARK VINA RESULT:    -8.742     10.168     15.130
REMARK INTER + INTRA:         -11.279
REMARK INTER:                 -10.810
REMARK INTRA:                  -0.469
REMARK UNBOUND:                -0.237
REMARK SMILES CNC(=O)c1cnc(N)c2c(-c3ccc(NC(=O)Nc4cc(C)ccc4F)cc3)csc12
REMARK SMILES IDX 12 1 13 2 14 3 15 4 28 5 29 6 11 7 5 8 32 9 6 10 10 11 31 12
REMARK SMILES IDX 7 13 8 14 30 15 3 16 2 17 4 18 1 19 9 21 16 24 17 25 18 26
REMARK SMILES IDX 19 27 20 30 26 31 21 32 25 33 22 34 24 35 27 36 23 37
REMARK H PARENT 2 20 9 22 9 23 16 28 19 29
ROOT
ATOM      1  C   UNL     1      24.082  33.821  15.498  1.00  0.00    -0.017 A 
ATOM      2  C   UNL     1      23.215  32.856  16.014  1.00  0.00     0.011 A 
ATOM      3  C   UNL     1      22.047  33.244  16.663  1.00  0.00     0.027 A 
ATOM      4  C   UNL     1      21.735  34.599  16.803  1.00  0.00     0.042 A 
ATOM      5  C   UNL     1      22.597  35.567  16.264  1.00  0.00     0.027 A 
ATOM      6  C   UNL     1      23.765  35.175  15.615  1.00  0.00     0.011 A 
ENDROOT
BRANCH   1   7
ATOM      7  C   UNL     1      25.326  33.401  14.796  1.00  0.00     0.004 A 
ATOM      8  C   UNL     1      27.132  32.037  11.817  1.00  0.00     0.076 A 
ATOM      9  C   UNL     1      26.789  32.561  13.091  1.00  0.00     0.053 A 
ATOM     10  C   UNL     1      26.061  31.934  10.919  1.00  0.00     0.128 A 
ATOM     11  C   UNL     1      25.441  32.927  13.435  1.00  0.00     0.043 A 
ATOM     12  S   UNL     1      27.880  32.861  14.437  1.00  0.00    -0.142 S 
ATOM     13  N   UNL     1      24.786  32.286  11.189  1.00  0.00    -0.238 NA
ATOM     14  C   UNL     1      24.477  32.773  12.411  1.00  0.00     0.132 A 
ATOM     15  C   UNL     1      26.557  33.426  15.420  1.00  0.00     0.075 A 
BRANCH   8  16
ATOM     16  C   UNL     1      28.531  31.618  11.402  1.00  0.00     0.254 C 
ATOM     17  N   UNL     1      28.671  30.370  10.912  1.00  0.00    -0.355 N 
ATOM     18  O   UNL     1      29.483  32.390  11.542  1.00  0.00    -0.269 OA
ATOM     19  C   UNL     1      29.930  29.773  10.480  1.00  0.00     0.143 C 
ATOM     20  H   UNL     1      27.847  29.794  10.814  1.00  0.00     0.163 HD
ENDBRANCH   8  16
BRANCH  14  21
ATOM     21  N   UNL     1      23.139  33.129  12.584  1.00  0.00    -0.383 N 
ATOM     22  H   UNL     1      22.798  33.350  13.509  1.00  0.00     0.158 HD
ATOM     23  H   UNL     1      22.528  33.165  11.781  1.00  0.00     0.158 HD
ENDBRANCH  14  21
ENDBRANCH   1   7
BRANCH   4  24
ATOM     24  N   UNL     1      20.528  34.890  17.467  1.00  0.00    -0.308 N 
ATOM     25  C   UNL     1      19.284  35.007  16.959  1.00  0.00     0.323 C 
ATOM     26  O   UNL     1      18.997  34.924  15.765  1.00  0.00    -0.248 OA
ATOM     27  N   UNL     1      18.406  35.249  17.954  1.00  0.00    -0.305 N 
ATOM     28  H   UNL     1      20.630  35.082  18.453  1.00  0.00     0.171 HD
ATOM     29  H   UNL     1      18.800  35.399  18.872  1.00  0.00     0.171 HD
BRANCH  27  30
ATOM     30  C   UNL     1      17.006  35.408  17.895  1.00  0.00     0.079 A 
ATOM     31  C   UNL     1      16.426  36.283  18.825  1.00  0.00     0.146 A 
ATOM     32  C   UNL     1      16.174  34.745  16.974  1.00  0.00     0.032 A 
ATOM     33  C   UNL     1      15.048  36.499  18.826  1.00  0.00     0.042 A 
ATOM     34  C   UNL     1      14.793  34.959  16.981  1.00  0.00    -0.049 A 
ATOM     35  C   UNL     1      14.234  35.843  17.906  1.00  0.00     0.006 A 
ATOM     36  F   UNL     1      17.193  36.937  19.731  1.00  0.00    -0.205 F 
ATOM     37  C   UNL     1      13.909  34.244  15.974  1.00  0.00     0.044 C 
ENDBRANCH  27  30
ENDBRANCH   4  24
TORSDOF 5
ENDMDL
