MODEL 7
REMARK VINA RESULT:    -8.063      2.825      8.928
REMARK INTER + INTRA:         -13.813
REMARK INTER:                 -12.277
REMARK INTRA:                  -1.535
REMARK UNBOUND:                -1.507
REMARK SMILES COC(=O)[C@H](Cc1cccc(C(=N)N)c1)[C@@H](C)NC(=O)c1ccc(-c2cccnc2)cc1
REMARK SMILES IDX 5 1 3 2 4 3 2 4 1 5 6 6 7 7 8 8 15 9 9 10 11 11 10 12 12 13
REMARK SMILES IDX 13 14 14 15 16 19 17 20 18 21 19 22 20 23 21 25 22 26 32 27
REMARK SMILES IDX 23 28 31 29 24 30 25 31 26 32 30 33 27 34 29 35 28 36
REMARK H PARENT 13 16 14 17 14 18 18 24
ROOT
ATOM      1  C   UNL     1      -4.020  11.366  16.730  1.00  0.00     0.125 C 
ENDROOT
BRANCH   1   2
ATOM      2  C   UNL     1      -3.390  11.581  15.370  1.00  0.00     0.311 C 
ATOM      3  O   UNL     1      -3.925  11.259  14.318  1.00  0.00    -0.252 OA
BRANCH   2   4
ATOM      4  O   UNL     1      -2.172  12.186  15.469  1.00  0.00    -0.469 OA
ATOM      5  C   UNL     1      -2.097  13.450  14.806  1.00  0.00     0.282 C 
ENDBRANCH   2   4
ENDBRANCH   1   2
BRANCH   1   6
ATOM      6  C   UNL     1      -5.518  11.066  16.531  1.00  0.00     0.053 C 
BRANCH   6   7
ATOM      7  C   UNL     1      -6.075  10.066  17.513  1.00  0.00    -0.046 A 
ATOM      8  C   UNL     1      -6.937  10.471  18.540  1.00  0.00     0.004 A 
ATOM      9  C   UNL     1      -5.758   8.705  17.386  1.00  0.00     0.015 A 
ATOM     10  C   UNL     1      -7.480   9.531  19.418  1.00  0.00     0.001 A 
ATOM     11  C   UNL     1      -6.320   7.759  18.250  1.00  0.00     0.016 A 
ATOM     12  C   UNL     1      -7.177   8.176  19.273  1.00  0.00     0.012 A 
BRANCH  11  13
ATOM     13  C   UNL     1      -6.002   6.314  18.063  1.00  0.00     0.122 C 
ATOM     14  N   UNL     1      -4.816   5.875  18.338  1.00  0.00    -0.284 NA
ATOM     15  N   UNL     1      -6.954   5.457  17.587  1.00  0.00    -0.384 N 
ATOM     16  H   UNL     1      -4.785   4.865  18.190  1.00  0.00     0.189 HD
ATOM     17  H   UNL     1      -6.595   4.611  17.160  1.00  0.00     0.158 HD
ATOM     18  H   UNL     1      -7.646   5.892  16.984  1.00  0.00     0.158 HD
ENDBRANCH  11  13
ENDBRANCH   6   7
ENDBRANCH   1   6
BRANCH   1  19
ATOM     19  C   UNL     1      -3.712  12.520  17.711  1.00  0.00     0.093 C 
ATOM     20  C   UNL     1      -4.818  13.577  17.740  1.00  0.00     0.032 C 
BRANCH  19  21
ATOM     21  N   UNL     1      -3.432  12.057  19.065  1.00  0.00    -0.349 N 
ATOM     22  C   UNL     1      -2.186  12.184  19.642  1.00  0.00     0.251 C 
ATOM     23  O   UNL     1      -1.219  12.689  19.086  1.00  0.00    -0.269 OA
ATOM     24  H   UNL     1      -4.182  11.613  19.585  1.00  0.00     0.164 HD
BRANCH  22  25
ATOM     25  C   UNL     1      -2.050  11.614  21.005  1.00  0.00     0.039 A 
ATOM     26  C   UNL     1      -3.166  11.322  21.793  1.00  0.00     0.014 A 
ATOM     27  C   UNL     1      -0.767  11.376  21.499  1.00  0.00     0.014 A 
ATOM     28  C   UNL     1      -2.991  10.776  23.071  1.00  0.00     0.009 A 
ATOM     29  C   UNL     1      -0.599  10.827  22.774  1.00  0.00     0.009 A 
ATOM     30  C   UNL     1      -1.706  10.517  23.583  1.00  0.00    -0.017 A 
BRANCH  30  31
ATOM     31  C   UNL     1      -1.526   9.938  24.922  1.00  0.00    -0.000 A 
ATOM     32  C   UNL     1      -0.368   9.229  25.272  1.00  0.00     0.012 A 
ATOM     33  C   UNL     1      -2.495  10.062  25.920  1.00  0.00     0.119 A 
ATOM     34  C   UNL     1      -0.229   8.693  26.551  1.00  0.00     0.021 A 
ATOM     35  N   UNL     1      -2.393   9.548  27.171  1.00  0.00    -0.264 NA
ATOM     36  C   UNL     1      -1.260   8.876  27.456  1.00  0.00     0.111 A 
ENDBRANCH  30  31
ENDBRANCH  22  25
ENDBRANCH  19  21
ENDBRANCH   1  19
TORSDOF 9
ENDMDL
