REMARK VINA RESULT:    -8.642      0.000      0.000
REMARK INTER + INTRA:         -13.765
REMARK INTER:                 -12.431
REMARK INTRA:                  -1.334
REMARK UNBOUND:                -1.334
REMARK SMILES Cc1ccc(NS(=O)(=O)Cc2ccc(F)cc2Cl)c(=O)n1CC(=O)N[C@@H]1CCc2nc(N)sc2C1
REMARK SMILES IDX 1 1 2 2 3 3 4 4 5 5 19 6 20 7 21 8 22 9 23 10 24 11 25 12
REMARK SMILES IDX 26 14 27 15 35 16 28 17 34 18 29 19 33 20 30 21 31 22 32 23
REMARK SMILES IDX 6 26 7 28 8 29 9 30 10 31 11 32 12 33 17 34 13 35 16 36
REMARK SMILES IDX 14 37 18 38 15 39
REMARK H PARENT 25 13 32 24 32 25 6 27
ROOT
ATOM      1  C   UNL     1     133.447 -16.459 165.043  1.00  0.00     0.064 C 
ATOM      2  C   UNL     1     132.295 -15.800 164.332  1.00  0.00     0.019 A 
ATOM      3  C   UNL     1     132.507 -15.110 163.196  1.00  0.00     0.024 A 
ATOM      4  C   UNL     1     131.439 -14.408 162.531  1.00  0.00     0.034 A 
ATOM      5  C   UNL     1     130.203 -14.453 163.034  1.00  0.00     0.114 A 
ATOM      6  C   UNL     1     129.893 -15.314 164.226  1.00  0.00     0.275 A 
ATOM      7  O   UNL     1     128.736 -15.444 164.625  1.00  0.00    -0.267 OA
ATOM      8  N   UNL     1     130.997 -15.906 164.852  1.00  0.00    -0.302 N 
ENDROOT
BRANCH   8   9
ATOM      9  C   UNL     1     130.731 -16.635 166.098  1.00  0.00     0.225 C 
BRANCH   9  10
ATOM     10  C   UNL     1     130.328 -18.098 165.873  1.00  0.00     0.240 C 
ATOM     11  O   UNL     1     130.983 -19.019 166.361  1.00  0.00    -0.273 OA
ATOM     12  N   UNL     1     129.287 -18.320 164.998  1.00  0.00    -0.351 N 
ATOM     13  H   UNL     1     128.850 -17.530 164.532  1.00  0.00     0.163 HD
BRANCH  12  14
ATOM     14  C   UNL     1     128.829 -19.663 164.658  1.00  0.00     0.087 C 
ATOM     15  C   UNL     1     129.600 -20.199 163.430  1.00  0.00     0.032 C 
ATOM     16  C   UNL     1     127.293 -19.691 164.423  1.00  0.00     0.073 C 
ATOM     17  C   UNL     1     129.228 -21.654 163.103  1.00  0.00     0.059 C 
ATOM     18  C   UNL     1     126.893 -20.968 163.766  1.00  0.00     0.032 A 
ATOM     19  C   UNL     1     127.752 -21.853 163.148  1.00  0.00     0.057 A 
ATOM     20  S   UNL     1     125.292 -21.523 163.641  1.00  0.00    -0.102 S 
ATOM     21  N   UNL     1     127.155 -22.961 162.589  1.00  0.00    -0.225 NA
ATOM     22  C   UNL     1     125.858 -22.906 162.782  1.00  0.00     0.180 A 
BRANCH  22  23
ATOM     23  N   UNL     1     125.014 -23.846 162.349  1.00  0.00    -0.375 N 
ATOM     24  H   UNL     1     125.169 -24.829 162.519  1.00  0.00     0.159 HD
ATOM     25  H   UNL     1     124.191 -23.576 161.824  1.00  0.00     0.159 HD
ENDBRANCH  22  23
ENDBRANCH  12  14
ENDBRANCH   9  10
ENDBRANCH   8   9
BRANCH   5  26
ATOM     26  N   UNL     1     129.230 -13.627 162.404  1.00  0.00    -0.278 N 
ATOM     27  H   UNL     1     128.480 -13.252 162.985  1.00  0.00     0.180 HD
BRANCH  26  28
ATOM     28  S   UNL     1     128.590 -14.243 160.965  1.00  0.00     0.237 S 
ATOM     29  O   UNL     1     128.592 -15.681 161.157  1.00  0.00    -0.206 OA
ATOM     30  O   UNL     1     129.303 -13.690 159.829  1.00  0.00    -0.206 OA
BRANCH  28  31
ATOM     31  C   UNL     1     126.878 -13.664 160.954  1.00  0.00     0.197 C 
BRANCH  31  32
ATOM     32  C   UNL     1     126.375 -13.464 162.366  1.00  0.00    -0.012 A 
ATOM     33  C   UNL     1     126.519 -12.195 162.963  1.00  0.00     0.009 A 
ATOM     34  C   UNL     1     125.764 -14.487 163.115  1.00  0.00     0.048 A 
ATOM     35  C   UNL     1     126.062 -11.956 164.259  1.00  0.00     0.039 A 
ATOM     36  C   UNL     1     125.306 -14.245 164.413  1.00  0.00     0.060 A 
ATOM     37  C   UNL     1     125.458 -12.984 164.971  1.00  0.00     0.124 A 
ATOM     38  Cl  UNL     1     125.554 -16.085 162.497  1.00  0.00    -0.084 Cl
ATOM     39  F   UNL     1     125.011 -12.755 166.212  1.00  0.00    -0.207 F 
ENDBRANCH  31  32
ENDBRANCH  28  31
ENDBRANCH  26  28
ENDBRANCH   5  26
TORSDOF 8
