REMARK VINA RESULT:    -8.136      3.637      7.727
REMARK INTER + INTRA:         -13.038
REMARK INTER:                 -10.759
REMARK INTRA:                  -2.278
REMARK UNBOUND:                -1.334
REMARK SMILES Cc1ccc(NS(=O)(=O)Cc2ccc(F)cc2Cl)c(=O)n1CC(=O)N[C@@H]1CCc2nc(N)sc2C1
REMARK SMILES IDX 1 1 2 2 3 3 4 4 5 5 19 6 20 7 21 8 22 9 23 10 24 11 25 12
REMARK SMILES IDX 26 14 27 15 35 16 28 17 34 18 29 19 33 20 30 21 31 22 32 23
REMARK SMILES IDX 6 26 7 28 8 29 9 30 10 31 11 32 12 33 17 34 13 35 16 36
REMARK SMILES IDX 14 37 18 38 15 39
REMARK H PARENT 25 13 32 24 32 25 6 27
ROOT
ATOM      1  C   UNL     1     125.372 -14.894 164.100  1.00  0.00     0.064 C 
ATOM      2  C   UNL     1     125.902 -16.106 163.380  1.00  0.00     0.019 A 
ATOM      3  C   UNL     1     125.496 -17.337 163.740  1.00  0.00     0.024 A 
ATOM      4  C   UNL     1     126.036 -18.520 163.120  1.00  0.00     0.034 A 
ATOM      5  C   UNL     1     126.950 -18.402 162.152  1.00  0.00     0.114 A 
ATOM      6  C   UNL     1     127.339 -17.048 161.630  1.00  0.00     0.275 A 
ATOM      7  O   UNL     1     128.096 -16.939 160.666  1.00  0.00    -0.267 OA
ATOM      8  N   UNL     1     126.820 -15.953 162.332  1.00  0.00    -0.302 N 
ENDROOT
BRANCH   8   9
ATOM      9  C   UNL     1     127.301 -14.626 161.925  1.00  0.00     0.225 C 
BRANCH   9  10
ATOM     10  C   UNL     1     128.706 -14.302 162.449  1.00  0.00     0.240 C 
ATOM     11  O   UNL     1     129.310 -13.300 162.067  1.00  0.00    -0.273 OA
ATOM     12  N   UNL     1     129.294 -15.251 163.256  1.00  0.00    -0.351 N 
ATOM     13  H   UNL     1     128.798 -16.117 163.453  1.00  0.00     0.163 HD
BRANCH  12  14
ATOM     14  C   UNL     1     130.644 -15.092 163.789  1.00  0.00     0.087 C 
ATOM     15  C   UNL     1     131.685 -15.628 162.780  1.00  0.00     0.032 C 
ATOM     16  C   UNL     1     130.786 -15.781 165.174  1.00  0.00     0.073 C 
ATOM     17  C   UNL     1     133.127 -15.381 163.252  1.00  0.00     0.059 C 
ATOM     18  C   UNL     1     132.224 -15.897 165.549  1.00  0.00     0.032 A 
ATOM     19  C   UNL     1     133.290 -15.741 164.689  1.00  0.00     0.057 A 
ATOM     20  S   UNL     1     132.782 -16.282 167.108  1.00  0.00    -0.102 S 
ATOM     21  N   UNL     1     134.535 -15.914 165.254  1.00  0.00    -0.225 NA
ATOM     22  C   UNL     1     134.403 -16.203 166.527  1.00  0.00     0.180 A 
BRANCH  22  23
ATOM     23  N   UNL     1     135.441 -16.426 167.337  1.00  0.00    -0.375 N 
ATOM     24  H   UNL     1     136.395 -16.410 167.007  1.00  0.00     0.159 HD
ATOM     25  H   UNL     1     135.277 -16.629 168.315  1.00  0.00     0.159 HD
ENDBRANCH  22  23
ENDBRANCH  12  14
ENDBRANCH   9  10
ENDBRANCH   8   9
BRANCH   5  26
ATOM     26  N   UNL     1     127.538 -19.609 161.684  1.00  0.00    -0.278 N 
ATOM     27  H   UNL     1     126.911 -20.362 161.400  1.00  0.00     0.180 HD
BRANCH  26  28
ATOM     28  S   UNL     1     128.777 -20.228 162.654  1.00  0.00     0.237 S 
ATOM     29  O   UNL     1     129.727 -20.786 161.710  1.00  0.00    -0.206 OA
ATOM     30  O   UNL     1     128.221 -21.093 163.676  1.00  0.00    -0.206 OA
BRANCH  28  31
ATOM     31  C   UNL     1     129.515 -18.769 163.422  1.00  0.00     0.197 C 
BRANCH  31  32
ATOM     32  C   UNL     1     130.754 -19.146 164.201  1.00  0.00    -0.012 A 
ATOM     33  C   UNL     1     132.002 -19.109 163.547  1.00  0.00     0.009 A 
ATOM     34  C   UNL     1     130.722 -19.531 165.554  1.00  0.00     0.048 A 
ATOM     35  C   UNL     1     133.177 -19.439 164.224  1.00  0.00     0.039 A 
ATOM     36  C   UNL     1     131.900 -19.860 166.230  1.00  0.00     0.060 A 
ATOM     37  C   UNL     1     133.113 -19.809 165.561  1.00  0.00     0.124 A 
ATOM     38  Cl  UNL     1     129.251 -19.634 166.450  1.00  0.00    -0.084 Cl
ATOM     39  F   UNL     1     134.240 -20.118 166.215  1.00  0.00    -0.207 F 
ENDBRANCH  31  32
ENDBRANCH  28  31
ENDBRANCH  26  28
ENDBRANCH   5  26
TORSDOF 8
