REMARK SMILES CCOC(=O)c1cn2ncnc(Nc3cccc(Br)c3)c2c1CC
REMARK SMILES IDX 6 1 7 2 8 3 9 4 10 5 11 6 12 7 21 8 22 9 4 10 5 11 3 12 2 13
REMARK SMILES IDX 1 14 23 15 24 16 13 17 14 19 15 20 20 21 16 22 18 23 17 24
REMARK SMILES IDX 19 25
REMARK H PARENT 13 18
REMARK INDEX MAP 6 1 7 2 8 3 9 4 10 5 11 6 12 7 21 8 22 9 4 10 5 11 3 12 2 13
REMARK INDEX MAP 1 14 23 15 24 16 13 17 32 18 14 19 15 20 20 21 16 22 18 23
REMARK INDEX MAP 17 24 19 25
ROOT
ATOM      1  C   UNL     1      13.587   1.579  27.540  1.00  0.00     0.083 A 
ATOM      2  C   UNL     1      12.643   2.193  26.737  1.00  0.00     0.129 A 
ATOM      3  N   UNL     1      13.272   2.791  25.688  1.00  0.00    -0.235 N 
ATOM      4  N   UNL     1      12.649   3.436  24.695  1.00  0.00    -0.156 NA
ATOM      5  C   UNL     1      13.455   3.924  23.809  1.00  0.00     0.247 A 
ATOM      6  N   UNL     1      14.820   3.860  23.820  1.00  0.00    -0.215 NA
ATOM      7  C   UNL     1      15.446   3.244  24.781  1.00  0.00     0.158 A 
ATOM      8  C   UNL     1      14.623   2.624  25.798  1.00  0.00     0.111 A 
ATOM      9  C   UNL     1      14.870   1.826  26.916  1.00  0.00    -0.003 A 
ENDROOT
BRANCH   1  10
ATOM     10  C   UNL     1      13.292   0.831  28.764  1.00  0.00     0.340 C 
ATOM     11  O   UNL     1      12.659  -0.218  28.779  1.00  0.00    -0.246 OA
BRANCH  10  12
ATOM     12  O   UNL     1      13.802   1.431  29.880  1.00  0.00    -0.462 OA
BRANCH  12  13
ATOM     13  C   UNL     1      12.858   2.216  30.614  1.00  0.00     0.230 C 
ATOM     14  C   UNL     1      12.514   1.471  31.890  1.00  0.00     0.049 C 
ENDBRANCH  12  13
ENDBRANCH  10  12
ENDBRANCH   1  10
BRANCH   9  15
ATOM     15  C   UNL     1      16.181   1.289  27.409  1.00  0.00     0.035 C 
ATOM     16  C   UNL     1      16.464  -0.117  26.902  1.00  0.00     0.009 C 
ENDBRANCH   9  15
BRANCH   7  17
ATOM     17  N   UNL     1      16.823   3.221  24.851  1.00  0.00    -0.338 N 
ATOM     18  H   UNL     1      17.210   2.694  25.647  1.00  0.00     0.168 HD
BRANCH  17  19
ATOM     19  C   UNL     1      17.783   3.807  24.002  1.00  0.00     0.041 A 
ATOM     20  C   UNL     1      18.468   4.946  24.460  1.00  0.00     0.026 A 
ATOM     21  C   UNL     1      18.081   3.339  22.718  1.00  0.00     0.041 A 
ATOM     22  C   UNL     1      19.423   5.592  23.666  1.00  0.00     0.003 A 
ATOM     23  C   UNL     1      19.035   3.984  21.926  1.00  0.00     0.020 A 
ATOM     24  C   UNL     1      19.707   5.108  22.393  1.00  0.00     0.016 A 
ATOM     25  Br  UNL     1      19.420   3.319  20.197  1.00  0.00    -0.051 Br
ENDBRANCH  17  19
ENDBRANCH   7  17
TORSDOF 6
