REMARK SMILES C=CC(=O)N1[C@@H]2CC[C@H]1C[C@@H](n1nc(-c3cc(F)c(Oc4ccc5c(c4)ncn5C)c(Cl)c3)c3c(C)ncnc31)C2
REMARK SMILES IDX 12 1 13 2 14 3 34 4 35 5 36 6 37 7 38 8 39 9 40 10 11 11
REMARK SMILES IDX 5 12 6 13 9 14 7 15 41 16 8 17 10 18 3 19 4 20 2 21 1 22
REMARK SMILES IDX 15 23 16 24 33 25 17 26 31 27 19 28 18 29 32 30 20 31 21 32
REMARK SMILES IDX 22 33 26 34 23 35 25 36 24 37 27 38 29 39 28 40 30 41
REMARK H PARENT
ROOT
ATOM      1  N   UNL     1       2.726  -0.630   0.589  1.00  0.00    -0.243 N 
ATOM      2  N   UNL     1       1.677   0.217   0.608  1.00  0.00    -0.170 NA
ATOM      3  C   UNL     1       0.601  -0.586   0.613  1.00  0.00     0.104 A 
ATOM      4  C   UNL     1       0.977  -1.959   0.477  1.00  0.00     0.068 A 
ATOM      5  C   UNL     1       0.367  -3.217   0.342  1.00  0.00     0.052 A 
ATOM      6  C   UNL     1      -1.105  -3.473   0.282  1.00  0.00     0.067 C 
ATOM      7  N   UNL     1       1.176  -4.313   0.259  1.00  0.00    -0.241 NA
ATOM      8  C   UNL     1       2.513  -4.149   0.278  1.00  0.00     0.224 A 
ATOM      9  N   UNL     1       3.191  -2.999   0.372  1.00  0.00    -0.217 NA
ATOM     10  C   UNL     1       2.364  -1.943   0.473  1.00  0.00     0.162 A 
ENDROOT
BRANCH   1  11
ATOM     11  C   UNL     1       4.087  -0.106   0.663  1.00  0.00     0.114 C 
ATOM     12  N   UNL     1       6.279   1.443   0.627  1.00  0.00    -0.333 N 
ATOM     13  C   UNL     1       5.642   1.470  -0.677  1.00  0.00     0.088 C 
ATOM     14  C   UNL     1       5.303   1.977   1.559  1.00  0.00     0.088 C 
ATOM     15  C   UNL     1       5.010   2.863  -0.688  1.00  0.00     0.027 C 
ATOM     16  C   UNL     1       4.558   0.380  -0.731  1.00  0.00     0.052 C 
ATOM     17  C   UNL     1       4.660   3.135   0.778  1.00  0.00     0.027 C 
ATOM     18  C   UNL     1       4.270   0.881   1.849  1.00  0.00     0.052 C 
BRANCH  12  19
ATOM     19  C   UNL     1       7.275   0.588   1.052  1.00  0.00     0.246 C 
ATOM     20  O   UNL     1       7.509   0.351   2.235  1.00  0.00    -0.270 OA
BRANCH  19  21
ATOM     21  C   UNL     1       8.052  -0.064  -0.028  1.00  0.00     0.063 C 
ATOM     22  C   UNL     1       8.017  -1.398  -0.152  1.00  0.00     0.014 C 
ENDBRANCH  19  21
ENDBRANCH  12  19
ENDBRANCH   1  11
BRANCH   3  23
ATOM     23  C   UNL     1      -0.727   0.008   0.732  1.00  0.00     0.007 A 
ATOM     24  C   UNL     1      -1.639  -0.462   1.683  1.00  0.00     0.053 A 
ATOM     25  C   UNL     1      -1.077   1.109  -0.070  1.00  0.00     0.035 A 
ATOM     26  C   UNL     1      -2.897   0.126   1.787  1.00  0.00     0.167 A 
ATOM     27  C   UNL     1      -2.340   1.695   0.042  1.00  0.00     0.087 A 
ATOM     28  C   UNL     1      -3.270   1.180   0.952  1.00  0.00     0.181 A 
ATOM     29  F   UNL     1      -3.755  -0.355   2.697  1.00  0.00    -0.203 F 
ATOM     30  Cl  UNL     1      -2.714   3.058  -0.959  1.00  0.00    -0.080 Cl
BRANCH  28  31
ATOM     31  O   UNL     1      -4.509   1.749   1.083  1.00  0.00    -0.453 OA
BRANCH  31  32
ATOM     32  C   UNL     1      -5.568   1.176   0.398  1.00  0.00     0.129 A 
ATOM     33  C   UNL     1      -5.510  -0.018  -0.331  1.00  0.00     0.049 A 
ATOM     34  C   UNL     1      -6.766   1.898   0.483  1.00  0.00     0.077 A 
ATOM     35  C   UNL     1      -6.643  -0.538  -0.974  1.00  0.00     0.032 A 
ATOM     36  C   UNL     1      -7.904   1.401  -0.164  1.00  0.00     0.092 A 
ATOM     37  C   UNL     1      -7.824   0.199  -0.864  1.00  0.00     0.068 A 
ATOM     38  N   UNL     1      -9.171   1.930  -0.229  1.00  0.00    -0.237 NA
ATOM     39  N   UNL     1      -9.098   0.007  -1.343  1.00  0.00    -0.334 N 
ATOM     40  C   UNL     1      -9.862   1.070  -0.948  1.00  0.00     0.200 A 
ATOM     41  C   UNL     1      -9.547  -1.113  -2.128  1.00  0.00     0.151 C 
ENDBRANCH  31  32
ENDBRANCH  28  31
ENDBRANCH   3  23
TORSDOF 6
