REMARK SMILES CCOC(=O)c1cn2ncnc(Nc3cccc(Br)c3)c2c1CC
REMARK SMILES IDX 6 1 7 2 8 3 9 4 10 5 11 6 12 7 21 8 22 9 4 10 5 11 3 12 2 13
REMARK SMILES IDX 1 14 23 15 24 16 13 17 14 19 15 20 20 21 16 22 18 23 17 24
REMARK SMILES IDX 19 25
REMARK H PARENT 13 18
ROOT
ATOM      1  C   UNL     1       2.165  -0.490  -0.551  1.00  0.00     0.083 A 
ATOM      2  C   UNL     1       1.981  -1.860  -0.489  1.00  0.00     0.129 A 
ATOM      3  N   UNL     1       0.659  -2.123  -0.295  1.00  0.00    -0.235 N 
ATOM      4  N   UNL     1       0.129  -3.350  -0.236  1.00  0.00    -0.156 NA
ATOM      5  C   UNL     1      -1.150  -3.353  -0.044  1.00  0.00     0.247 A 
ATOM      6  N   UNL     1      -1.956  -2.261   0.121  1.00  0.00    -0.215 NA
ATOM      7  C   UNL     1      -1.458  -1.059   0.078  1.00  0.00     0.158 A 
ATOM      8  C   UNL     1      -0.038  -0.954  -0.182  1.00  0.00     0.111 A 
ATOM      9  C   UNL     1       0.854   0.100  -0.386  1.00  0.00    -0.003 A 
ENDROOT
BRANCH   1  10
ATOM     10  C   UNL     1       3.453   0.177  -0.752  1.00  0.00     0.340 C 
ATOM     11  O   UNL     1       3.586   1.395  -0.760  1.00  0.00    -0.246 OA
BRANCH  10  12
ATOM     12  O   UNL     1       4.479  -0.708  -0.918  1.00  0.00    -0.462 OA
BRANCH  12  13
ATOM     13  C   UNL     1       5.777  -0.134  -1.119  1.00  0.00     0.230 C 
ATOM     14  C   UNL     1       6.438   0.149   0.217  1.00  0.00     0.049 C 
ENDBRANCH  12  13
ENDBRANCH  10  12
ENDBRANCH   1  10
BRANCH   9  15
ATOM     15  C   UNL     1       0.561   1.571  -0.447  1.00  0.00     0.035 C 
ATOM     16  C   UNL     1       0.703   2.251   0.907  1.00  0.00     0.009 C 
ENDBRANCH   9  15
BRANCH   7  17
ATOM     17  N   UNL     1      -2.234   0.060   0.304  1.00  0.00    -0.338 N 
ATOM     18  H   UNL     1      -1.732   0.901   0.539  1.00  0.00     0.168 HD
BRANCH  17  19
ATOM     19  C   UNL     1      -3.631   0.185   0.426  1.00  0.00     0.041 A 
ATOM     20  C   UNL     1      -4.543  -0.787  -0.000  1.00  0.00     0.026 A 
ATOM     21  C   UNL     1      -4.148   1.351   1.016  1.00  0.00     0.041 A 
ATOM     22  C   UNL     1      -5.923  -0.609   0.155  1.00  0.00     0.003 A 
ATOM     23  C   UNL     1      -5.526   1.528   1.172  1.00  0.00     0.020 A 
ATOM     24  C   UNL     1      -6.417   0.551   0.744  1.00  0.00     0.016 A 
ATOM     25  Br  UNL     1      -6.183   3.110   1.973  1.00  0.00    -0.051 Br
ENDBRANCH  17  19
ENDBRANCH   7  17
TORSDOF 6
