REMARK VINA RESULT:    -7.701      3.869      5.196
REMARK INTER + INTRA:         -10.837
REMARK INTER:                  -9.770
REMARK INTRA:                  -1.067
REMARK UNBOUND:                -0.884
REMARK SMILES CN(c1ncnc2[nH]ccc12)N1CC[C@@](C)(C(=O)NCC(F)(F)F)C1
REMARK SMILES IDX 12 1 13 2 14 3 15 4 16 5 25 6 2 7 1 8 3 9 4 10 11 11 5 12
REMARK SMILES IDX 10 13 7 14 6 15 9 16 8 17 17 19 18 20 19 21 20 23 21 24
REMARK SMILES IDX 22 25 23 26 24 27
REMARK H PARENT 8 18 19 22
ROOT
ATOM      1  N   UNL     1       7.191 -23.697  22.061  1.00  0.00    -0.219 NA
ATOM      2  C   UNL     1       8.540 -23.775  21.521  1.00  0.00     0.109 C 
ATOM      3  C   UNL     1       8.822 -22.326  21.121  1.00  0.00     0.035 C 
ATOM      4  C   UNL     1       7.737 -21.477  21.825  1.00  0.00     0.062 C 
ATOM      5  C   UNL     1       8.352 -20.282  22.559  1.00  0.00     0.023 C 
ATOM      6  C   UNL     1       7.084 -22.448  22.813  1.00  0.00     0.125 C 
ENDROOT
BRANCH   1   7
ATOM      7  N   UNL     1       6.759 -24.835  22.759  1.00  0.00    -0.292 N 
ATOM      8  C   UNL     1       7.461 -25.354  23.923  1.00  0.00     0.167 C 
BRANCH   7   9
ATOM      9  C   UNL     1       5.556 -25.435  22.320  1.00  0.00     0.155 A 
ATOM     10  N   UNL     1       4.653 -24.638  21.652  1.00  0.00    -0.217 NA
ATOM     11  C   UNL     1       5.175 -26.792  22.502  1.00  0.00     0.063 A 
ATOM     12  C   UNL     1       3.480 -25.146  21.238  1.00  0.00     0.226 A 
ATOM     13  C   UNL     1       5.723 -27.983  23.079  1.00  0.00     0.033 A 
ATOM     14  C   UNL     1       3.932 -27.168  22.003  1.00  0.00     0.142 A 
ATOM     15  N   UNL     1       3.039 -26.402  21.367  1.00  0.00    -0.218 NA
ATOM     16  C   UNL     1       4.814 -29.008  22.919  1.00  0.00     0.085 A 
ATOM     17  N   UNL     1       3.730 -28.494  22.264  1.00  0.00    -0.346 N 
ATOM     18  H   UNL     1       2.893 -28.994  21.999  1.00  0.00     0.167 HD
ENDBRANCH   7   9
ENDBRANCH   1   7
BRANCH   4  19
ATOM     19  C   UNL     1       6.709 -20.973  20.791  1.00  0.00     0.227 C 
ATOM     20  O   UNL     1       7.007 -20.202  19.881  1.00  0.00    -0.274 OA
ATOM     21  N   UNL     1       5.439 -21.488  20.907  1.00  0.00    -0.346 N 
ATOM     22  H   UNL     1       5.208 -22.050  21.737  1.00  0.00     0.163 HD
BRANCH  21  23
ATOM     23  C   UNL     1       4.371 -21.113  19.989  1.00  0.00     0.231 C 
BRANCH  23  24
ATOM     24  C   UNL     1       3.429 -20.017  20.491  1.00  0.00     0.405 C 
ATOM     25  F   UNL     1       3.040 -19.209  19.474  1.00  0.00    -0.169 F 
ATOM     26  F   UNL     1       4.064 -19.232  21.394  1.00  0.00    -0.169 F 
ATOM     27  F   UNL     1       2.319 -20.501  21.082  1.00  0.00    -0.169 F 
ENDBRANCH  23  24
ENDBRANCH  21  23
ENDBRANCH   4  19
TORSDOF 5
