MODEL 9
REMARK VINA RESULT:    -6.960      1.365      1.954
REMARK INTER + INTRA:         -10.147
REMARK INTER:                  -9.332
REMARK INTRA:                  -0.815
REMARK UNBOUND:                -0.745
REMARK SMILES CCC(=O)n1nc(-c2ccccn2)nc1NCc1ccccc1
REMARK SMILES IDX 5 1 6 2 7 3 14 4 15 5 3 6 4 7 2 8 1 9 16 10 17 12 18 13
REMARK SMILES IDX 19 14 23 15 20 16 22 17 21 18 8 19 9 20 13 21 10 22 12 23
REMARK SMILES IDX 11 24
REMARK H PARENT 16 11
ROOT
ATOM      1  N   UNL     1      -1.917  11.809  21.518  1.00  0.00    -0.164 N 
ATOM      2  N   UNL     1      -1.135  11.348  22.539  1.00  0.00    -0.140 NA
ATOM      3  C   UNL     1      -2.023  10.838  23.401  1.00  0.00     0.202 A 
ATOM      4  N   UNL     1      -3.328  10.996  23.000  1.00  0.00    -0.189 NA
ATOM      5  C   UNL     1      -3.261  11.661  21.872  1.00  0.00     0.229 A 
ENDROOT
BRANCH   1   6
ATOM      6  C   UNL     1      -1.287  12.283  20.350  1.00  0.00     0.249 C 
ATOM      7  O   UNL     1      -0.428  11.601  19.797  1.00  0.00    -0.272 OA
BRANCH   6   8
ATOM      8  C   UNL     1      -1.741  13.630  19.845  1.00  0.00     0.099 C 
ATOM      9  C   UNL     1      -2.318  13.535  18.440  1.00  0.00     0.014 C 
ENDBRANCH   6   8
ENDBRANCH   1   6
BRANCH   5  10
ATOM     10  N   UNL     1      -4.325  12.138  21.167  1.00  0.00    -0.350 N 
ATOM     11  H   UNL     1      -4.603  13.101  21.320  1.00  0.00     0.164 HD
BRANCH  10  12
ATOM     12  C   UNL     1      -5.509  11.285  21.056  1.00  0.00     0.152 C 
BRANCH  12  13
ATOM     13  C   UNL     1      -5.302  10.255  19.970  1.00  0.00    -0.029 A 
ATOM     14  C   UNL     1      -5.444   8.889  20.256  1.00  0.00     0.005 A 
ATOM     15  C   UNL     1      -5.006  10.646  18.656  1.00  0.00     0.005 A 
ATOM     16  C   UNL     1      -5.282   7.934  19.250  1.00  0.00     0.000 A 
ATOM     17  C   UNL     1      -4.844   9.690  17.653  1.00  0.00     0.000 A 
ATOM     18  C   UNL     1      -4.981   8.335  17.950  1.00  0.00     0.000 A 
ENDBRANCH  12  13
ENDBRANCH  10  12
ENDBRANCH   5  10
BRANCH   3  19
ATOM     19  C   UNL     1      -1.657  10.180  24.665  1.00  0.00     0.109 A 
ATOM     20  C   UNL     1      -2.464  10.308  25.794  1.00  0.00     0.032 A 
ATOM     21  N   UNL     1      -0.508   9.450  24.671  1.00  0.00    -0.253 NA
ATOM     22  C   UNL     1      -2.082   9.669  26.972  1.00  0.00     0.004 A 
ATOM     23  C   UNL     1      -0.165   8.844  25.828  1.00  0.00     0.112 A 
ATOM     24  C   UNL     1      -0.910   8.923  26.992  1.00  0.00     0.020 A 
ENDBRANCH   3  19
TORSDOF 6
ENDMDL
