MODEL 1
REMARK VINA RESULT:    -9.755      0.000      0.000
REMARK INTER + INTRA:         -17.581
REMARK INTER:                 -16.028
REMARK INTRA:                  -1.553
REMARK UNBOUND:                -1.553
REMARK SMILES COC(=O)COc1ccc(C(=N)N)cc1CN1CC[C@H](NS(=O)(=O)c2ccc3ccc(OC)cc3c2)C1=O
REMARK SMILES IDX 16 1 15 2 7 3 8 4 9 5 14 6 10 7 6 8 5 9 3 10 4 11 2 12 1 13
REMARK SMILES IDX 11 14 12 15 13 16 17 20 18 21 37 22 19 23 20 24 38 25 21 26
REMARK SMILES IDX 22 28 23 29 24 30 25 31 26 32 36 33 27 34 35 35 28 36 34 37
REMARK SMILES IDX 29 38 31 39 30 40 32 41 33 42
REMARK H PARENT 12 17 13 18 13 19 21 27
ROOT
ATOM      1  C   UNL     1      -3.091  12.386  24.672  1.00  0.00     0.159 C 
ENDROOT
BRANCH   1   2
ATOM      2  C   UNL     1      -2.170  11.312  25.216  1.00  0.00     0.014 A 
ATOM      3  C   UNL     1      -0.889  11.101  24.668  1.00  0.00     0.125 A 
ATOM      4  C   UNL     1      -0.088  10.057  25.141  1.00  0.00     0.047 A 
ATOM      5  C   UNL     1      -0.557   9.211  26.150  1.00  0.00     0.016 A 
ATOM      6  C   UNL     1      -2.628  10.459  26.236  1.00  0.00     0.021 A 
ATOM      7  C   UNL     1      -1.824   9.414  26.699  1.00  0.00     0.017 A 
BRANCH   3   8
ATOM      8  O   UNL     1      -0.493  12.001  23.722  1.00  0.00    -0.482 OA
BRANCH   8   9
ATOM      9  C   UNL     1      -0.115  11.536  22.438  1.00  0.00     0.351 C 
BRANCH   9  10
ATOM     10  C   UNL     1       0.389  12.577  21.435  1.00  0.00     0.343 C 
ATOM     11  O   UNL     1      -0.293  13.333  20.754  1.00  0.00    -0.248 OA
BRANCH  10  12
ATOM     12  O   UNL     1       1.756  12.535  21.409  1.00  0.00    -0.466 OA
ATOM     13  C   UNL     1       2.368  13.596  20.674  1.00  0.00     0.282 C 
ENDBRANCH  10  12
ENDBRANCH   9  10
ENDBRANCH   8   9
ENDBRANCH   3   8
BRANCH   7  14
ATOM     14  C   UNL     1      -2.324   8.508  27.766  1.00  0.00     0.122 C 
ATOM     15  N   UNL     1      -1.872   7.305  27.918  1.00  0.00    -0.284 NA
ATOM     16  N   UNL     1      -3.281   8.929  28.627  1.00  0.00    -0.384 N 
ATOM     17  H   UNL     1      -1.189   7.072  27.192  1.00  0.00     0.189 HD
ATOM     18  H   UNL     1      -3.578   8.276  29.341  1.00  0.00     0.158 HD
ATOM     19  H   UNL     1      -3.623   9.878  28.663  1.00  0.00     0.158 HD
ENDBRANCH   7  14
ENDBRANCH   1   2
BRANCH   1  20
ATOM     20  N   UNL     1      -3.544  12.060  23.332  1.00  0.00    -0.337 N 
ATOM     21  C   UNL     1      -3.963  10.740  22.939  1.00  0.00     0.122 C 
ATOM     22  C   UNL     1      -3.549  12.955  22.269  1.00  0.00     0.241 C 
ATOM     23  C   UNL     1      -3.704  10.716  21.448  1.00  0.00     0.051 C 
ATOM     24  C   UNL     1      -3.905  12.169  21.012  1.00  0.00     0.161 C 
ATOM     25  O   UNL     1      -3.292  14.148  22.320  1.00  0.00    -0.273 OA
BRANCH  24  26
ATOM     26  N   UNL     1      -2.978  12.467  19.916  1.00  0.00    -0.199 NA
ATOM     27  H   UNL     1      -2.154  13.025  20.191  1.00  0.00     0.142 HD
BRANCH  26  28
ATOM     28  S   UNL     1      -3.612  12.944  18.445  1.00  0.00     0.241 S 
ATOM     29  O   UNL     1      -4.348  14.175  18.612  1.00  0.00    -0.207 OA
ATOM     30  O   UNL     1      -2.563  12.797  17.459  1.00  0.00    -0.207 OA
BRANCH  28  31
ATOM     31  C   UNL     1      -4.778  11.633  18.157  1.00  0.00     0.083 A 
ATOM     32  C   UNL     1      -6.063  11.930  17.700  1.00  0.00     0.022 A 
ATOM     33  C   UNL     1      -4.388  10.312  18.395  1.00  0.00     0.030 A 
ATOM     34  C   UNL     1      -6.972  10.890  17.500  1.00  0.00     0.010 A 
ATOM     35  C   UNL     1      -5.296   9.261  18.197  1.00  0.00    -0.013 A 
ATOM     36  C   UNL     1      -6.606   9.557  17.749  1.00  0.00    -0.018 A 
ATOM     37  C   UNL     1      -4.929   7.924  18.438  1.00  0.00     0.055 A 
ATOM     38  C   UNL     1      -7.515   8.507  17.564  1.00  0.00     0.012 A 
ATOM     39  C   UNL     1      -5.844   6.887  18.247  1.00  0.00     0.119 A 
ATOM     40  C   UNL     1      -7.135   7.187  17.815  1.00  0.00     0.047 A 
BRANCH  39  41
ATOM     41  O   UNL     1      -5.607   5.555  18.454  1.00  0.00    -0.497 OA
ATOM     42  C   UNL     1      -6.721   4.678  18.336  1.00  0.00     0.278 C 
ENDBRANCH  39  41
ENDBRANCH  28  31
ENDBRANCH  26  28
ENDBRANCH  24  26
ENDBRANCH   1  20
TORSDOF 11
ENDMDL
MODEL 2
REMARK VINA RESULT:    -9.624      2.281      2.707
REMARK INTER + INTRA:         -17.366
REMARK INTER:                 -16.350
REMARK INTRA:                  -1.015
REMARK UNBOUND:                -1.553
REMARK SMILES COC(=O)COc1ccc(C(=N)N)cc1CN1CC[C@H](NS(=O)(=O)c2ccc3ccc(OC)cc3c2)C1=O
REMARK SMILES IDX 16 1 15 2 7 3 8 4 9 5 14 6 10 7 6 8 5 9 3 10 4 11 2 12 1 13
REMARK SMILES IDX 11 14 12 15 13 16 17 20 18 21 37 22 19 23 20 24 38 25 21 26
REMARK SMILES IDX 22 28 23 29 24 30 25 31 26 32 36 33 27 34 35 35 28 36 34 37
REMARK SMILES IDX 29 38 31 39 30 40 32 41 33 42
REMARK H PARENT 12 17 13 18 13 19 21 27
ROOT
ATOM      1  C   UNL     1      -2.562  12.293  24.823  1.00  0.00     0.159 C 
ENDROOT
BRANCH   1   2
ATOM      2  C   UNL     1      -1.859  11.090  25.418  1.00  0.00     0.014 A 
ATOM      3  C   UNL     1      -0.652  10.606  24.874  1.00  0.00     0.125 A 
ATOM      4  C   UNL     1      -0.060   9.453  25.397  1.00  0.00     0.047 A 
ATOM      5  C   UNL     1      -0.667   8.767  26.453  1.00  0.00     0.016 A 
ATOM      6  C   UNL     1      -2.456  10.396  26.486  1.00  0.00     0.021 A 
ATOM      7  C   UNL     1      -1.862   9.240  26.999  1.00  0.00     0.017 A 
BRANCH   3   8
ATOM      8  O   UNL     1      -0.105  11.362  23.878  1.00  0.00    -0.482 OA
BRANCH   8   9
ATOM      9  C   UNL     1      -0.188  10.909  22.538  1.00  0.00     0.351 C 
BRANCH   9  10
ATOM     10  C   UNL     1       0.122  11.923  21.434  1.00  0.00     0.343 C 
ATOM     11  O   UNL     1      -0.498  12.087  20.390  1.00  0.00    -0.248 OA
BRANCH  10  12
ATOM     12  O   UNL     1       1.230  12.638  21.796  1.00  0.00    -0.466 OA
ATOM     13  C   UNL     1       1.833  13.377  20.731  1.00  0.00     0.282 C 
ENDBRANCH  10  12
ENDBRANCH   9  10
ENDBRANCH   8   9
ENDBRANCH   3   8
BRANCH   7  14
ATOM     14  C   UNL     1      -2.510   8.505  28.116  1.00  0.00     0.122 C 
ATOM     15  N   UNL     1      -3.659   8.856  28.598  1.00  0.00    -0.284 NA
ATOM     16  N   UNL     1      -1.905   7.424  28.665  1.00  0.00    -0.384 N 
ATOM     17  H   UNL     1      -4.006   9.706  28.146  1.00  0.00     0.189 HD
ATOM     18  H   UNL     1      -2.396   6.955  29.416  1.00  0.00     0.158 HD
ATOM     19  H   UNL     1      -1.065   7.006  28.296  1.00  0.00     0.158 HD
ENDBRANCH   7  14
ENDBRANCH   1   2
BRANCH   1  20
ATOM     20  N   UNL     1      -3.637  11.887  23.935  1.00  0.00    -0.337 N 
ATOM     21  C   UNL     1      -3.413  11.257  22.660  1.00  0.00     0.122 C 
ATOM     22  C   UNL     1      -4.984  12.129  24.175  1.00  0.00     0.241 C 
ATOM     23  C   UNL     1      -4.649  11.617  21.865  1.00  0.00     0.051 C 
ATOM     24  C   UNL     1      -5.751  11.725  22.921  1.00  0.00     0.161 C 
ATOM     25  O   UNL     1      -5.468  12.602  25.192  1.00  0.00    -0.273 OA
BRANCH  24  26
ATOM     26  N   UNL     1      -6.696  12.771  22.515  1.00  0.00    -0.199 NA
ATOM     27  H   UNL     1      -6.624  13.648  23.055  1.00  0.00     0.142 HD
BRANCH  26  28
ATOM     28  S   UNL     1      -8.280  12.337  22.208  1.00  0.00     0.241 S 
ATOM     29  O   UNL     1      -8.776  11.522  23.292  1.00  0.00    -0.207 OA
ATOM     30  O   UNL     1      -8.969  13.524  21.754  1.00  0.00    -0.207 OA
BRANCH  28  31
ATOM     31  C   UNL     1      -8.058  11.293  20.786  1.00  0.00     0.083 A 
ATOM     32  C   UNL     1      -8.318  11.788  19.508  1.00  0.00     0.022 A 
ATOM     33  C   UNL     1      -7.619   9.978  20.970  1.00  0.00     0.030 A 
ATOM     34  C   UNL     1      -8.158  10.948  18.405  1.00  0.00     0.010 A 
ATOM     35  C   UNL     1      -7.457   9.127  19.868  1.00  0.00    -0.013 A 
ATOM     36  C   UNL     1      -7.735   9.618  18.570  1.00  0.00    -0.018 A 
ATOM     37  C   UNL     1      -7.026   7.797  20.028  1.00  0.00     0.055 A 
ATOM     38  C   UNL     1      -7.584   8.763  17.470  1.00  0.00     0.012 A 
ATOM     39  C   UNL     1      -6.877   6.955  18.925  1.00  0.00     0.119 A 
ATOM     40  C   UNL     1      -7.162   7.444  17.650  1.00  0.00     0.047 A 
BRANCH  39  41
ATOM     41  O   UNL     1      -6.474   5.648  18.956  1.00  0.00    -0.497 OA
ATOM     42  C   UNL     1      -6.937   4.806  17.907  1.00  0.00     0.278 C 
ENDBRANCH  39  41
ENDBRANCH  28  31
ENDBRANCH  26  28
ENDBRANCH  24  26
ENDBRANCH   1  20
TORSDOF 11
ENDMDL
MODEL 3
REMARK VINA RESULT:    -9.327      2.493      3.107
REMARK INTER + INTRA:         -16.878
REMARK INTER:                 -15.770
REMARK INTRA:                  -1.108
REMARK UNBOUND:                -1.553
REMARK SMILES COC(=O)COc1ccc(C(=N)N)cc1CN1CC[C@H](NS(=O)(=O)c2ccc3ccc(OC)cc3c2)C1=O
REMARK SMILES IDX 16 1 15 2 7 3 8 4 9 5 14 6 10 7 6 8 5 9 3 10 4 11 2 12 1 13
REMARK SMILES IDX 11 14 12 15 13 16 17 20 18 21 37 22 19 23 20 24 38 25 21 26
REMARK SMILES IDX 22 28 23 29 24 30 25 31 26 32 36 33 27 34 35 35 28 36 34 37
REMARK SMILES IDX 29 38 31 39 30 40 32 41 33 42
REMARK H PARENT 12 17 13 18 13 19 21 27
ROOT
ATOM      1  C   UNL     1      -2.649  12.345  24.815  1.00  0.00     0.159 C 
ENDROOT
BRANCH   1   2
ATOM      2  C   UNL     1      -1.932  11.131  25.372  1.00  0.00     0.014 A 
ATOM      3  C   UNL     1      -0.763  10.631  24.763  1.00  0.00     0.125 A 
ATOM      4  C   UNL     1      -0.161   9.468  25.254  1.00  0.00     0.047 A 
ATOM      5  C   UNL     1      -0.720   8.789  26.340  1.00  0.00     0.016 A 
ATOM      6  C   UNL     1      -2.482  10.444  26.469  1.00  0.00     0.021 A 
ATOM      7  C   UNL     1      -1.878   9.279  26.949  1.00  0.00     0.017 A 
BRANCH   3   8
ATOM      8  O   UNL     1      -0.259  11.381  23.741  1.00  0.00    -0.482 OA
BRANCH   8   9
ATOM      9  C   UNL     1      -0.181  10.818  22.442  1.00  0.00     0.351 C 
BRANCH   9  10
ATOM     10  C   UNL     1      -0.147  11.788  21.259  1.00  0.00     0.343 C 
ATOM     11  O   UNL     1      -0.666  11.629  20.161  1.00  0.00    -0.248 OA
BRANCH  10  12
ATOM     12  O   UNL     1       0.575  12.893  21.619  1.00  0.00    -0.466 OA
ATOM     13  C   UNL     1       1.630  13.232  20.716  1.00  0.00     0.282 C 
ENDBRANCH  10  12
ENDBRANCH   9  10
ENDBRANCH   8   9
ENDBRANCH   3   8
BRANCH   7  14
ATOM     14  C   UNL     1      -2.476   8.551  28.098  1.00  0.00     0.122 C 
ATOM     15  N   UNL     1      -3.592   8.917  28.641  1.00  0.00    -0.284 NA
ATOM     16  N   UNL     1      -1.859   7.461  28.613  1.00  0.00    -0.384 N 
ATOM     17  H   UNL     1      -3.951   9.773  28.208  1.00  0.00     0.189 HD
ATOM     18  H   UNL     1      -2.315   6.997  29.388  1.00  0.00     0.158 HD
ATOM     19  H   UNL     1      -1.045   7.031  28.200  1.00  0.00     0.158 HD
ENDBRANCH   7  14
ENDBRANCH   1   2
BRANCH   1  20
ATOM     20  N   UNL     1      -3.734  11.955  23.932  1.00  0.00    -0.337 N 
ATOM     21  C   UNL     1      -3.525  11.352  22.642  1.00  0.00     0.122 C 
ATOM     22  C   UNL     1      -5.079  12.191  24.194  1.00  0.00     0.241 C 
ATOM     23  C   UNL     1      -4.772  11.726  21.870  1.00  0.00     0.051 C 
ATOM     24  C   UNL     1      -5.861  11.811  22.942  1.00  0.00     0.161 C 
ATOM     25  O   UNL     1      -5.550  12.642  25.226  1.00  0.00    -0.273 OA
BRANCH  24  26
ATOM     26  N   UNL     1      -6.812  12.863  22.569  1.00  0.00    -0.199 NA
ATOM     27  H   UNL     1      -6.848  13.661  23.223  1.00  0.00     0.142 HD
BRANCH  26  28
ATOM     28  S   UNL     1      -8.326  12.411  22.025  1.00  0.00     0.241 S 
ATOM     29  O   UNL     1      -9.167  12.088  23.153  1.00  0.00    -0.207 OA
ATOM     30  O   UNL     1      -8.720  13.367  21.014  1.00  0.00    -0.207 OA
BRANCH  28  31
ATOM     31  C   UNL     1      -7.926  10.899  21.180  1.00  0.00     0.083 A 
ATOM     32  C   UNL     1      -8.014   9.679  21.851  1.00  0.00     0.022 A 
ATOM     33  C   UNL     1      -7.526  10.954  19.841  1.00  0.00     0.030 A 
ATOM     34  C   UNL     1      -7.676   8.504  21.177  1.00  0.00     0.010 A 
ATOM     35  C   UNL     1      -7.184   9.778  19.157  1.00  0.00    -0.013 A 
ATOM     36  C   UNL     1      -7.256   8.539  19.838  1.00  0.00    -0.018 A 
ATOM     37  C   UNL     1      -6.769   9.809  17.813  1.00  0.00     0.055 A 
ATOM     38  C   UNL     1      -6.902   7.367  19.157  1.00  0.00     0.012 A 
ATOM     39  C   UNL     1      -6.422   8.634  17.145  1.00  0.00     0.119 A 
ATOM     40  C   UNL     1      -6.486   7.418  17.825  1.00  0.00     0.047 A 
BRANCH  39  41
ATOM     41  O   UNL     1      -5.999   8.539  15.847  1.00  0.00    -0.497 OA
ATOM     42  C   UNL     1      -5.882   9.755  15.117  1.00  0.00     0.278 C 
ENDBRANCH  39  41
ENDBRANCH  28  31
ENDBRANCH  26  28
ENDBRANCH  24  26
ENDBRANCH   1  20
TORSDOF 11
ENDMDL
MODEL 4
REMARK VINA RESULT:    -9.282      2.056      3.390
REMARK INTER + INTRA:         -16.804
REMARK INTER:                 -15.613
REMARK INTRA:                  -1.191
REMARK UNBOUND:                -1.553
REMARK SMILES COC(=O)COc1ccc(C(=N)N)cc1CN1CC[C@H](NS(=O)(=O)c2ccc3ccc(OC)cc3c2)C1=O
REMARK SMILES IDX 16 1 15 2 7 3 8 4 9 5 14 6 10 7 6 8 5 9 3 10 4 11 2 12 1 13
REMARK SMILES IDX 11 14 12 15 13 16 17 20 18 21 37 22 19 23 20 24 38 25 21 26
REMARK SMILES IDX 22 28 23 29 24 30 25 31 26 32 36 33 27 34 35 35 28 36 34 37
REMARK SMILES IDX 29 38 31 39 30 40 32 41 33 42
REMARK H PARENT 12 17 13 18 13 19 21 27
ROOT
ATOM      1  C   UNL     1      -0.438  11.063  24.713  1.00  0.00     0.159 C 
ENDROOT
BRANCH   1   2
ATOM      2  C   UNL     1      -1.133  10.155  25.708  1.00  0.00     0.014 A 
ATOM      3  C   UNL     1      -2.281  10.579  26.406  1.00  0.00     0.125 A 
ATOM      4  C   UNL     1      -2.861   9.748  27.370  1.00  0.00     0.047 A 
ATOM      5  C   UNL     1      -2.299   8.500  27.655  1.00  0.00     0.016 A 
ATOM      6  C   UNL     1      -0.581   8.894  25.997  1.00  0.00     0.021 A 
ATOM      7  C   UNL     1      -1.162   8.073  26.967  1.00  0.00     0.017 A 
BRANCH   3   8
ATOM      8  O   UNL     1      -2.790  11.788  26.032  1.00  0.00    -0.482 OA
BRANCH   8   9
ATOM      9  C   UNL     1      -4.072  11.844  25.431  1.00  0.00     0.351 C 
BRANCH   9  10
ATOM     10  C   UNL     1      -4.844  13.161  25.547  1.00  0.00     0.343 C 
ATOM     11  O   UNL     1      -6.018  13.354  25.254  1.00  0.00    -0.248 OA
BRANCH  10  12
ATOM     12  O   UNL     1      -4.002  14.121  26.037  1.00  0.00    -0.466 OA
ATOM     13  C   UNL     1      -4.660  15.213  26.684  1.00  0.00     0.282 C 
ENDBRANCH  10  12
ENDBRANCH   9  10
ENDBRANCH   8   9
ENDBRANCH   3   8
BRANCH   7  14
ATOM     14  C   UNL     1      -0.561   6.750  27.277  1.00  0.00     0.122 C 
ATOM     15  N   UNL     1      -0.198   5.922  26.350  1.00  0.00    -0.284 NA
ATOM     16  N   UNL     1      -0.369   6.370  28.563  1.00  0.00    -0.384 N 
ATOM     17  H   UNL     1      -0.427   6.285  25.420  1.00  0.00     0.189 HD
ATOM     18  H   UNL     1       0.054   5.464  28.717  1.00  0.00     0.158 HD
ATOM     19  H   UNL     1      -0.517   6.979  29.354  1.00  0.00     0.158 HD
ENDBRANCH   7  14
ENDBRANCH   1   2
BRANCH   1  20
ATOM     20  N   UNL     1      -1.003  10.915  23.383  1.00  0.00    -0.337 N 
ATOM     21  C   UNL     1      -0.751   9.776  22.540  1.00  0.00     0.122 C 
ATOM     22  C   UNL     1      -1.776  11.881  22.751  1.00  0.00     0.241 C 
ATOM     23  C   UNL     1      -0.946  10.321  21.142  1.00  0.00     0.051 C 
ATOM     24  C   UNL     1      -1.997  11.419  21.314  1.00  0.00     0.161 C 
ATOM     25  O   UNL     1      -2.186  12.921  23.242  1.00  0.00    -0.273 OA
BRANCH  24  26
ATOM     26  N   UNL     1      -1.717  12.497  20.360  1.00  0.00    -0.199 NA
ATOM     27  H   UNL     1      -1.137  13.264  20.736  1.00  0.00     0.142 HD
BRANCH  26  28
ATOM     28  S   UNL     1      -2.966  13.052  19.398  1.00  0.00     0.241 S 
ATOM     29  O   UNL     1      -3.508  14.266  19.963  1.00  0.00    -0.207 OA
ATOM     30  O   UNL     1      -2.517  12.970  18.025  1.00  0.00    -0.207 OA
BRANCH  28  31
ATOM     31  C   UNL     1      -4.155  11.752  19.632  1.00  0.00     0.083 A 
ATOM     32  C   UNL     1      -5.286  11.973  20.419  1.00  0.00     0.022 A 
ATOM     33  C   UNL     1      -3.939  10.515  19.017  1.00  0.00     0.030 A 
ATOM     34  C   UNL     1      -6.198  10.933  20.609  1.00  0.00     0.010 A 
ATOM     35  C   UNL     1      -4.851   9.465  19.204  1.00  0.00    -0.013 A 
ATOM     36  C   UNL     1      -5.991   9.678  20.014  1.00  0.00    -0.018 A 
ATOM     37  C   UNL     1      -4.650   8.208  18.603  1.00  0.00     0.055 A 
ATOM     38  C   UNL     1      -6.894   8.624  20.209  1.00  0.00     0.012 A 
ATOM     39  C   UNL     1      -5.558   7.167  18.803  1.00  0.00     0.119 A 
ATOM     40  C   UNL     1      -6.675   7.382  19.611  1.00  0.00     0.047 A 
BRANCH  39  41
ATOM     41  O   UNL     1      -5.468   5.906  18.281  1.00  0.00    -0.497 OA
ATOM     42  C   UNL     1      -6.609   5.068  18.419  1.00  0.00     0.278 C 
ENDBRANCH  39  41
ENDBRANCH  28  31
ENDBRANCH  26  28
ENDBRANCH  24  26
ENDBRANCH   1  20
TORSDOF 11
ENDMDL
MODEL 5
REMARK VINA RESULT:    -9.125      3.159      8.470
REMARK INTER + INTRA:         -16.546
REMARK INTER:                 -14.941
REMARK INTRA:                  -1.605
REMARK UNBOUND:                -1.553
REMARK SMILES COC(=O)COc1ccc(C(=N)N)cc1CN1CC[C@H](NS(=O)(=O)c2ccc3ccc(OC)cc3c2)C1=O
REMARK SMILES IDX 16 1 15 2 7 3 8 4 9 5 14 6 10 7 6 8 5 9 3 10 4 11 2 12 1 13
REMARK SMILES IDX 11 14 12 15 13 16 17 20 18 21 37 22 19 23 20 24 38 25 21 26
REMARK SMILES IDX 22 28 23 29 24 30 25 31 26 32 36 33 27 34 35 35 28 36 34 37
REMARK SMILES IDX 29 38 31 39 30 40 32 41 33 42
REMARK H PARENT 12 17 13 18 13 19 21 27
ROOT
ATOM      1  C   UNL     1      -7.593   9.527  21.265  1.00  0.00     0.159 C 
ENDROOT
BRANCH   1   2
ATOM      2  C   UNL     1      -7.440   9.039  19.837  1.00  0.00     0.014 A 
ATOM      3  C   UNL     1      -7.867   9.824  18.747  1.00  0.00     0.125 A 
ATOM      4  C   UNL     1      -7.779   9.321  17.446  1.00  0.00     0.047 A 
ATOM      5  C   UNL     1      -7.279   8.036  17.219  1.00  0.00     0.016 A 
ATOM      6  C   UNL     1      -6.932   7.750  19.597  1.00  0.00     0.021 A 
ATOM      7  C   UNL     1      -6.853   7.252  18.294  1.00  0.00     0.017 A 
BRANCH   3   8
ATOM      8  O   UNL     1      -8.296  11.083  19.054  1.00  0.00    -0.482 OA
BRANCH   8   9
ATOM      9  C   UNL     1      -7.954  12.159  18.198  1.00  0.00     0.351 C 
BRANCH   9  10
ATOM     10  C   UNL     1      -6.653  12.907  18.497  1.00  0.00     0.343 C 
ATOM     11  O   UNL     1      -6.382  13.535  19.513  1.00  0.00    -0.248 OA
BRANCH  10  12
ATOM     12  O   UNL     1      -5.812  12.769  17.427  1.00  0.00    -0.466 OA
ATOM     13  C   UNL     1      -4.777  11.800  17.607  1.00  0.00     0.282 C 
ENDBRANCH  10  12
ENDBRANCH   9  10
ENDBRANCH   8   9
ENDBRANCH   3   8
BRANCH   7  14
ATOM     14  C   UNL     1      -6.330   5.883  18.052  1.00  0.00     0.122 C 
ATOM     15  N   UNL     1      -5.161   5.508  18.461  1.00  0.00    -0.284 NA
ATOM     16  N   UNL     1      -7.082   4.971  17.390  1.00  0.00    -0.384 N 
ATOM     17  H   UNL     1      -4.660   6.282  18.907  1.00  0.00     0.189 HD
ATOM     18  H   UNL     1      -6.682   4.050  17.263  1.00  0.00     0.158 HD
ATOM     19  H   UNL     1      -8.043   5.125  17.125  1.00  0.00     0.158 HD
ENDBRANCH   7  14
ENDBRANCH   1   2
BRANCH   1  20
ATOM     20  N   UNL     1      -6.599  10.536  21.584  1.00  0.00    -0.337 N 
ATOM     21  C   UNL     1      -5.252  10.507  21.076  1.00  0.00     0.122 C 
ATOM     22  C   UNL     1      -6.807  11.587  22.469  1.00  0.00     0.241 C 
ATOM     23  C   UNL     1      -4.464  11.273  22.117  1.00  0.00     0.051 C 
ATOM     24  C   UNL     1      -5.468  12.287  22.670  1.00  0.00     0.161 C 
ATOM     25  O   UNL     1      -7.861  11.885  23.009  1.00  0.00    -0.273 OA
BRANCH  24  26
ATOM     26  N   UNL     1      -5.188  12.503  24.094  1.00  0.00    -0.199 NA
ATOM     27  H   UNL     1      -6.015  12.748  24.661  1.00  0.00     0.142 HD
BRANCH  26  28
ATOM     28  S   UNL     1      -3.837  13.393  24.513  1.00  0.00     0.241 S 
ATOM     29  O   UNL     1      -3.358  14.116  23.358  1.00  0.00    -0.207 OA
ATOM     30  O   UNL     1      -4.129  14.046  25.770  1.00  0.00    -0.207 OA
BRANCH  28  31
ATOM     31  C   UNL     1      -2.686  12.084  24.865  1.00  0.00     0.083 A 
ATOM     32  C   UNL     1      -1.537  11.936  24.088  1.00  0.00     0.022 A 
ATOM     33  C   UNL     1      -2.951  11.214  25.927  1.00  0.00     0.030 A 
ATOM     34  C   UNL     1      -0.655  10.891  24.365  1.00  0.00     0.010 A 
ATOM     35  C   UNL     1      -2.071  10.160  26.212  1.00  0.00    -0.013 A 
ATOM     36  C   UNL     1      -0.912   9.995  25.417  1.00  0.00    -0.018 A 
ATOM     37  C   UNL     1      -2.320   9.265  27.269  1.00  0.00     0.055 A 
ATOM     38  C   UNL     1      -0.040   8.934  25.695  1.00  0.00     0.012 A 
ATOM     39  C   UNL     1      -1.443   8.214  27.538  1.00  0.00     0.119 A 
ATOM     40  C   UNL     1      -0.308   8.052  26.744  1.00  0.00     0.047 A 
BRANCH  39  41
ATOM     41  O   UNL     1      -1.582   7.280  28.529  1.00  0.00    -0.497 OA
ATOM     42  C   UNL     1      -0.784   6.107  28.425  1.00  0.00     0.278 C 
ENDBRANCH  39  41
ENDBRANCH  28  31
ENDBRANCH  26  28
ENDBRANCH  24  26
ENDBRANCH   1  20
TORSDOF 11
ENDMDL
MODEL 6
REMARK VINA RESULT:    -9.103      3.778      9.021
REMARK INTER + INTRA:         -16.509
REMARK INTER:                 -15.374
REMARK INTRA:                  -1.134
REMARK UNBOUND:                -1.553
REMARK SMILES COC(=O)COc1ccc(C(=N)N)cc1CN1CC[C@H](NS(=O)(=O)c2ccc3ccc(OC)cc3c2)C1=O
REMARK SMILES IDX 16 1 15 2 7 3 8 4 9 5 14 6 10 7 6 8 5 9 3 10 4 11 2 12 1 13
REMARK SMILES IDX 11 14 12 15 13 16 17 20 18 21 37 22 19 23 20 24 38 25 21 26
REMARK SMILES IDX 22 28 23 29 24 30 25 31 26 32 36 33 27 34 35 35 28 36 34 37
REMARK SMILES IDX 29 38 31 39 30 40 32 41 33 42
REMARK H PARENT 12 17 13 18 13 19 21 27
ROOT
ATOM      1  C   UNL     1      -7.848   9.743  21.192  1.00  0.00     0.159 C 
ENDROOT
BRANCH   1   2
ATOM      2  C   UNL     1      -7.556   9.162  19.823  1.00  0.00     0.014 A 
ATOM      3  C   UNL     1      -7.964   9.824  18.647  1.00  0.00     0.125 A 
ATOM      4  C   UNL     1      -7.746   9.233  17.399  1.00  0.00     0.047 A 
ATOM      5  C   UNL     1      -7.134   7.979  17.311  1.00  0.00     0.016 A 
ATOM      6  C   UNL     1      -6.935   7.905  19.722  1.00  0.00     0.021 A 
ATOM      7  C   UNL     1      -6.726   7.317  18.471  1.00  0.00     0.017 A 
BRANCH   3   8
ATOM      8  O   UNL     1      -8.509  11.063  18.822  1.00  0.00    -0.482 OA
BRANCH   8   9
ATOM      9  C   UNL     1      -9.918  11.198  18.878  1.00  0.00     0.351 C 
BRANCH   9  10
ATOM     10  C   UNL     1     -10.516  11.784  20.160  1.00  0.00     0.343 C 
ATOM     11  O   UNL     1     -10.211  12.842  20.698  1.00  0.00    -0.248 OA
BRANCH  10  12
ATOM     12  O   UNL     1     -11.469  10.924  20.631  1.00  0.00    -0.466 OA
ATOM     13  C   UNL     1     -11.363  10.627  22.025  1.00  0.00     0.282 C 
ENDBRANCH  10  12
ENDBRANCH   9  10
ENDBRANCH   8   9
ENDBRANCH   3   8
BRANCH   7  14
ATOM     14  C   UNL     1      -6.084   5.981  18.376  1.00  0.00     0.122 C 
ATOM     15  N   UNL     1      -4.805   5.820  18.490  1.00  0.00    -0.284 NA
ATOM     16  N   UNL     1      -6.837   4.873  18.170  1.00  0.00    -0.384 N 
ATOM     17  H   UNL     1      -4.327   6.719  18.598  1.00  0.00     0.189 HD
ATOM     18  H   UNL     1      -6.349   3.988  18.124  1.00  0.00     0.158 HD
ATOM     19  H   UNL     1      -7.845   4.874  18.174  1.00  0.00     0.158 HD
ENDBRANCH   7  14
ENDBRANCH   1   2
BRANCH   1  20
ATOM     20  N   UNL     1      -6.861  10.744  21.559  1.00  0.00    -0.337 N 
ATOM     21  C   UNL     1      -5.555  10.822  20.959  1.00  0.00     0.122 C 
ATOM     22  C   UNL     1      -7.034  11.677  22.574  1.00  0.00     0.241 C 
ATOM     23  C   UNL     1      -4.715  11.491  22.026  1.00  0.00     0.051 C 
ATOM     24  C   UNL     1      -5.704  12.397  22.763  1.00  0.00     0.161 C 
ATOM     25  O   UNL     1      -8.054  11.872  23.217  1.00  0.00    -0.273 OA
BRANCH  24  26
ATOM     26  N   UNL     1      -5.327  12.458  24.179  1.00  0.00    -0.199 NA
ATOM     27  H   UNL     1      -6.119  12.576  24.829  1.00  0.00     0.142 HD
BRANCH  26  28
ATOM     28  S   UNL     1      -4.001  13.379  24.611  1.00  0.00     0.241 S 
ATOM     29  O   UNL     1      -3.561  14.155  23.475  1.00  0.00    -0.207 OA
ATOM     30  O   UNL     1      -4.297  13.981  25.892  1.00  0.00    -0.207 OA
BRANCH  28  31
ATOM     31  C   UNL     1      -2.802  12.099  24.906  1.00  0.00     0.083 A 
ATOM     32  C   UNL     1      -1.670  12.001  24.096  1.00  0.00     0.022 A 
ATOM     33  C   UNL     1      -3.012  11.200  25.956  1.00  0.00     0.030 A 
ATOM     34  C   UNL     1      -0.751  10.977  24.328  1.00  0.00     0.010 A 
ATOM     35  C   UNL     1      -2.093  10.168  26.197  1.00  0.00    -0.013 A 
ATOM     36  C   UNL     1      -0.952  10.054  25.368  1.00  0.00    -0.018 A 
ATOM     37  C   UNL     1      -2.288   9.246  27.242  1.00  0.00     0.055 A 
ATOM     38  C   UNL     1      -0.041   9.015  25.602  1.00  0.00     0.012 A 
ATOM     39  C   UNL     1      -1.372   8.216  27.466  1.00  0.00     0.119 A 
ATOM     40  C   UNL     1      -0.255   8.105  26.639  1.00  0.00     0.047 A 
BRANCH  39  41
ATOM     41  O   UNL     1      -1.457   7.260  28.441  1.00  0.00    -0.497 OA
ATOM     42  C   UNL     1      -0.681   6.082  28.256  1.00  0.00     0.278 C 
ENDBRANCH  39  41
ENDBRANCH  28  31
ENDBRANCH  26  28
ENDBRANCH  24  26
ENDBRANCH   1  20
TORSDOF 11
ENDMDL
MODEL 7
REMARK VINA RESULT:    -8.911      3.294      8.133
REMARK INTER + INTRA:         -16.194
REMARK INTER:                 -15.472
REMARK INTRA:                  -0.722
REMARK UNBOUND:                -1.553
REMARK SMILES COC(=O)COc1ccc(C(=N)N)cc1CN1CC[C@H](NS(=O)(=O)c2ccc3ccc(OC)cc3c2)C1=O
REMARK SMILES IDX 16 1 15 2 7 3 8 4 9 5 14 6 10 7 6 8 5 9 3 10 4 11 2 12 1 13
REMARK SMILES IDX 11 14 12 15 13 16 17 20 18 21 37 22 19 23 20 24 38 25 21 26
REMARK SMILES IDX 22 28 23 29 24 30 25 31 26 32 36 33 27 34 35 35 28 36 34 37
REMARK SMILES IDX 29 38 31 39 30 40 32 41 33 42
REMARK H PARENT 12 17 13 18 13 19 21 27
ROOT
ATOM      1  C   UNL     1      -5.452  12.081  19.700  1.00  0.00     0.159 C 
ENDROOT
BRANCH   1   2
ATOM      2  C   UNL     1      -6.250  10.839  20.045  1.00  0.00     0.014 A 
ATOM      3  C   UNL     1      -6.847  10.683  21.312  1.00  0.00     0.125 A 
ATOM      4  C   UNL     1      -7.518   9.498  21.628  1.00  0.00     0.047 A 
ATOM      5  C   UNL     1      -7.590   8.458  20.697  1.00  0.00     0.016 A 
ATOM      6  C   UNL     1      -6.335   9.790  19.113  1.00  0.00     0.021 A 
ATOM      7  C   UNL     1      -7.001   8.605  19.439  1.00  0.00     0.017 A 
BRANCH   3   8
ATOM      8  O   UNL     1      -6.771  11.764  22.141  1.00  0.00    -0.482 OA
BRANCH   8   9
ATOM      9  C   UNL     1      -7.966  12.349  22.629  1.00  0.00     0.351 C 
BRANCH   9  10
ATOM     10  C   UNL     1      -7.900  13.050  23.988  1.00  0.00     0.343 C 
ATOM     11  O   UNL     1      -8.820  13.608  24.574  1.00  0.00    -0.248 OA
BRANCH  10  12
ATOM     12  O   UNL     1      -6.621  12.961  24.465  1.00  0.00    -0.466 OA
ATOM     13  C   UNL     1      -5.980  14.220  24.682  1.00  0.00     0.282 C 
ENDBRANCH  10  12
ENDBRANCH   9  10
ENDBRANCH   8   9
ENDBRANCH   3   8
BRANCH   7  14
ATOM     14  C   UNL     1      -7.071   7.496  18.453  1.00  0.00     0.122 C 
ATOM     15  N   UNL     1      -7.291   7.704  17.195  1.00  0.00    -0.284 NA
ATOM     16  N   UNL     1      -6.896   6.213  18.853  1.00  0.00    -0.384 N 
ATOM     17  H   UNL     1      -7.453   8.697  17.007  1.00  0.00     0.189 HD
ATOM     18  H   UNL     1      -6.942   5.498  18.139  1.00  0.00     0.158 HD
ATOM     19  H   UNL     1      -6.615   5.952  19.786  1.00  0.00     0.158 HD
ENDBRANCH   7  14
ENDBRANCH   1   2
BRANCH   1  20
ATOM     20  N   UNL     1      -4.037  11.886  19.965  1.00  0.00    -0.337 N 
ATOM     21  C   UNL     1      -3.380  10.611  19.849  1.00  0.00     0.122 C 
ATOM     22  C   UNL     1      -3.185  12.880  20.431  1.00  0.00     0.241 C 
ATOM     23  C   UNL     1      -2.205  10.731  20.796  1.00  0.00     0.051 C 
ATOM     24  C   UNL     1      -1.851  12.219  20.761  1.00  0.00     0.161 C 
ATOM     25  O   UNL     1      -3.456  14.062  20.575  1.00  0.00    -0.273 OA
BRANCH  24  26
ATOM     26  N   UNL     1      -1.371  12.623  22.087  1.00  0.00    -0.199 NA
ATOM     27  H   UNL     1      -1.238  13.640  22.204  1.00  0.00     0.142 HD
BRANCH  26  28
ATOM     28  S   UNL     1      -0.148  11.732  22.796  1.00  0.00     0.241 S 
ATOM     29  O   UNL     1       0.206  10.628  21.935  1.00  0.00    -0.207 OA
ATOM     30  O   UNL     1       0.833  12.672  23.293  1.00  0.00    -0.207 OA
BRANCH  28  31
ATOM     31  C   UNL     1      -1.004  11.079  24.211  1.00  0.00     0.083 A 
ATOM     32  C   UNL     1      -2.135  11.730  24.704  1.00  0.00     0.022 A 
ATOM     33  C   UNL     1      -0.527   9.912  24.815  1.00  0.00     0.030 A 
ATOM     34  C   UNL     1      -2.782  11.215  25.829  1.00  0.00     0.010 A 
ATOM     35  C   UNL     1      -1.171   9.388  25.945  1.00  0.00    -0.013 A 
ATOM     36  C   UNL     1      -2.309  10.053  26.461  1.00  0.00    -0.018 A 
ATOM     37  C   UNL     1      -0.704   8.220  26.576  1.00  0.00     0.055 A 
ATOM     38  C   UNL     1      -2.944   9.535  27.597  1.00  0.00     0.012 A 
ATOM     39  C   UNL     1      -1.346   7.713  27.707  1.00  0.00     0.119 A 
ATOM     40  C   UNL     1      -2.462   8.378  28.214  1.00  0.00     0.047 A 
BRANCH  39  41
ATOM     41  O   UNL     1      -0.983   6.595  28.407  1.00  0.00    -0.497 OA
ATOM     42  C   UNL     1      -0.248   5.603  27.700  1.00  0.00     0.278 C 
ENDBRANCH  39  41
ENDBRANCH  28  31
ENDBRANCH  26  28
ENDBRANCH  24  26
ENDBRANCH   1  20
TORSDOF 11
ENDMDL
MODEL 8
REMARK VINA RESULT:    -8.874      2.947      8.265
REMARK INTER + INTRA:         -16.134
REMARK INTER:                 -13.990
REMARK INTRA:                  -2.144
REMARK UNBOUND:                -1.553
REMARK SMILES COC(=O)COc1ccc(C(=N)N)cc1CN1CC[C@H](NS(=O)(=O)c2ccc3ccc(OC)cc3c2)C1=O
REMARK SMILES IDX 16 1 15 2 7 3 8 4 9 5 14 6 10 7 6 8 5 9 3 10 4 11 2 12 1 13
REMARK SMILES IDX 11 14 12 15 13 16 17 20 18 21 37 22 19 23 20 24 38 25 21 26
REMARK SMILES IDX 22 28 23 29 24 30 25 31 26 32 36 33 27 34 35 35 28 36 34 37
REMARK SMILES IDX 29 38 31 39 30 40 32 41 33 42
REMARK H PARENT 12 17 13 18 13 19 21 27
ROOT
ATOM      1  C   UNL     1      -4.881   9.293  19.629  1.00  0.00     0.159 C 
ENDROOT
BRANCH   1   2
ATOM      2  C   UNL     1      -5.028   9.782  18.201  1.00  0.00     0.014 A 
ATOM      3  C   UNL     1      -4.268  10.867  17.719  1.00  0.00     0.125 A 
ATOM      4  C   UNL     1      -4.473  11.343  16.421  1.00  0.00     0.047 A 
ATOM      5  C   UNL     1      -5.440  10.756  15.600  1.00  0.00     0.016 A 
ATOM      6  C   UNL     1      -5.992   9.194  17.364  1.00  0.00     0.021 A 
ATOM      7  C   UNL     1      -6.196   9.681  16.069  1.00  0.00     0.017 A 
BRANCH   3   8
ATOM      8  O   UNL     1      -3.315  11.348  18.569  1.00  0.00    -0.482 OA
BRANCH   8   9
ATOM      9  C   UNL     1      -3.219  12.746  18.783  1.00  0.00     0.351 C 
BRANCH   9  10
ATOM     10  C   UNL     1      -2.126  13.236  19.735  1.00  0.00     0.343 C 
ATOM     11  O   UNL     1      -2.275  13.940  20.727  1.00  0.00    -0.248 OA
BRANCH  10  12
ATOM     12  O   UNL     1      -0.920  12.760  19.300  1.00  0.00    -0.466 OA
ATOM     13  C   UNL     1       0.025  12.501  20.340  1.00  0.00     0.282 C 
ENDBRANCH  10  12
ENDBRANCH   9  10
ENDBRANCH   8   9
ENDBRANCH   3   8
BRANCH   7  14
ATOM     14  C   UNL     1      -7.229   9.064  15.198  1.00  0.00     0.122 C 
ATOM     15  N   UNL     1      -7.252   9.249  13.917  1.00  0.00    -0.284 NA
ATOM     16  N   UNL     1      -8.189   8.270  15.732  1.00  0.00    -0.384 N 
ATOM     17  H   UNL     1      -6.515   9.896  13.624  1.00  0.00     0.189 HD
ATOM     18  H   UNL     1      -8.861   7.867  15.091  1.00  0.00     0.158 HD
ATOM     19  H   UNL     1      -8.199   7.977  16.697  1.00  0.00     0.158 HD
ENDBRANCH   7  14
ENDBRANCH   1   2
BRANCH   1  20
ATOM     20  N   UNL     1      -5.332  10.297  20.577  1.00  0.00    -0.337 N 
ATOM     21  C   UNL     1      -6.580  11.002  20.447  1.00  0.00     0.122 C 
ATOM     22  C   UNL     1      -4.583  10.741  21.660  1.00  0.00     0.241 C 
ATOM     23  C   UNL     1      -6.330  12.301  21.183  1.00  0.00     0.051 C 
ATOM     24  C   UNL     1      -5.327  11.922  22.274  1.00  0.00     0.161 C 
ATOM     25  O   UNL     1      -3.514  10.290  22.039  1.00  0.00    -0.273 OA
BRANCH  24  26
ATOM     26  N   UNL     1      -4.426  13.057  22.505  1.00  0.00    -0.199 NA
ATOM     27  H   UNL     1      -3.572  13.051  21.925  1.00  0.00     0.142 HD
BRANCH  26  28
ATOM     28  S   UNL     1      -4.129  13.529  24.080  1.00  0.00     0.241 S 
ATOM     29  O   UNL     1      -3.503  14.831  24.083  1.00  0.00    -0.207 OA
ATOM     30  O   UNL     1      -5.322  13.242  24.845  1.00  0.00    -0.207 OA
BRANCH  28  31
ATOM     31  C   UNL     1      -2.909  12.326  24.552  1.00  0.00     0.083 A 
ATOM     32  C   UNL     1      -1.691  12.262  23.875  1.00  0.00     0.022 A 
ATOM     33  C   UNL     1      -3.189  11.452  25.607  1.00  0.00     0.030 A 
ATOM     34  C   UNL     1      -0.753  11.297  24.246  1.00  0.00     0.010 A 
ATOM     35  C   UNL     1      -2.253  10.479  25.986  1.00  0.00    -0.013 A 
ATOM     36  C   UNL     1      -1.022  10.399  25.292  1.00  0.00    -0.018 A 
ATOM     37  C   UNL     1      -2.516   9.582  27.038  1.00  0.00     0.055 A 
ATOM     38  C   UNL     1      -0.093   9.418  25.663  1.00  0.00     0.012 A 
ATOM     39  C   UNL     1      -1.581   8.611  27.400  1.00  0.00     0.119 A 
ATOM     40  C   UNL     1      -0.375   8.532  26.705  1.00  0.00     0.047 A 
BRANCH  39  41
ATOM     41  O   UNL     1      -1.726   7.684  28.396  1.00  0.00    -0.497 OA
ATOM     42  C   UNL     1      -1.008   6.464  28.250  1.00  0.00     0.278 C 
ENDBRANCH  39  41
ENDBRANCH  28  31
ENDBRANCH  26  28
ENDBRANCH  24  26
ENDBRANCH   1  20
TORSDOF 11
ENDMDL
MODEL 9
REMARK VINA RESULT:    -8.644      2.898      7.930
REMARK INTER + INTRA:         -15.755
REMARK INTER:                 -14.483
REMARK INTRA:                  -1.271
REMARK UNBOUND:                -1.553
REMARK SMILES COC(=O)COc1ccc(C(=N)N)cc1CN1CC[C@H](NS(=O)(=O)c2ccc3ccc(OC)cc3c2)C1=O
REMARK SMILES IDX 16 1 15 2 7 3 8 4 9 5 14 6 10 7 6 8 5 9 3 10 4 11 2 12 1 13
REMARK SMILES IDX 11 14 12 15 13 16 17 20 18 21 37 22 19 23 20 24 38 25 21 26
REMARK SMILES IDX 22 28 23 29 24 30 25 31 26 32 36 33 27 34 35 35 28 36 34 37
REMARK SMILES IDX 29 38 31 39 30 40 32 41 33 42
REMARK H PARENT 12 17 13 18 13 19 21 27
ROOT
ATOM      1  C   UNL     1      -5.334  12.870  19.335  1.00  0.00     0.159 C 
ENDROOT
BRANCH   1   2
ATOM      2  C   UNL     1      -6.414  12.244  20.196  1.00  0.00     0.014 A 
ATOM      3  C   UNL     1      -7.171  11.148  19.736  1.00  0.00     0.125 A 
ATOM      4  C   UNL     1      -8.208  10.634  20.520  1.00  0.00     0.047 A 
ATOM      5  C   UNL     1      -8.508  11.211  21.758  1.00  0.00     0.016 A 
ATOM      6  C   UNL     1      -6.720  12.812  21.446  1.00  0.00     0.021 A 
ATOM      7  C   UNL     1      -7.762  12.297  22.221  1.00  0.00     0.017 A 
BRANCH   3   8
ATOM      8  O   UNL     1      -6.780  10.616  18.541  1.00  0.00    -0.482 OA
BRANCH   8   9
ATOM      9  C   UNL     1      -6.603   9.215  18.431  1.00  0.00     0.351 C 
BRANCH   9  10
ATOM     10  C   UNL     1      -5.421   8.721  17.592  1.00  0.00     0.343 C 
ATOM     11  O   UNL     1      -5.132   9.067  16.453  1.00  0.00    -0.248 OA
BRANCH  10  12
ATOM     12  O   UNL     1      -4.716   7.807  18.325  1.00  0.00    -0.466 OA
ATOM     13  C   UNL     1      -5.084   6.446  18.088  1.00  0.00     0.282 C 
ENDBRANCH  10  12
ENDBRANCH   9  10
ENDBRANCH   8   9
ENDBRANCH   3   8
BRANCH   7  14
ATOM     14  C   UNL     1      -8.088  12.915  23.532  1.00  0.00     0.122 C 
ATOM     15  N   UNL     1      -9.201  12.678  24.150  1.00  0.00    -0.284 NA
ATOM     16  N   UNL     1      -7.208  13.754  24.130  1.00  0.00    -0.384 N 
ATOM     17  H   UNL     1      -9.810  12.070  23.595  1.00  0.00     0.189 HD
ATOM     18  H   UNL     1      -7.476  14.138  25.027  1.00  0.00     0.158 HD
ATOM     19  H   UNL     1      -6.274  13.921  23.788  1.00  0.00     0.158 HD
ENDBRANCH   7  14
ENDBRANCH   1   2
BRANCH   1  20
ATOM     20  N   UNL     1      -4.017  12.390  19.714  1.00  0.00    -0.337 N 
ATOM     21  C   UNL     1      -3.645  11.000  19.688  1.00  0.00     0.122 C 
ATOM     22  C   UNL     1      -3.005  13.200  20.215  1.00  0.00     0.241 C 
ATOM     23  C   UNL     1      -2.540  10.910  20.718  1.00  0.00     0.051 C 
ATOM     24  C   UNL     1      -1.871  12.285  20.667  1.00  0.00     0.161 C 
ATOM     25  O   UNL     1      -3.023  14.418  20.302  1.00  0.00    -0.273 OA
BRANCH  24  26
ATOM     26  N   UNL     1      -1.408  12.638  22.013  1.00  0.00    -0.199 NA
ATOM     27  H   UNL     1      -1.302  13.651  22.179  1.00  0.00     0.142 HD
BRANCH  26  28
ATOM     28  S   UNL     1      -0.165  11.746  22.686  1.00  0.00     0.241 S 
ATOM     29  O   UNL     1       0.182  10.658  21.802  1.00  0.00    -0.207 OA
ATOM     30  O   UNL     1       0.817  12.685  23.179  1.00  0.00    -0.207 OA
BRANCH  28  31
ATOM     31  C   UNL     1      -0.990  11.065  24.107  1.00  0.00     0.083 A 
ATOM     32  C   UNL     1      -2.183  11.630  24.559  1.00  0.00     0.022 A 
ATOM     33  C   UNL     1      -0.426   9.963  24.756  1.00  0.00     0.030 A 
ATOM     34  C   UNL     1      -2.805  11.096  25.688  1.00  0.00     0.010 A 
ATOM     35  C   UNL     1      -1.045   9.421  25.892  1.00  0.00    -0.013 A 
ATOM     36  C   UNL     1      -2.247   9.999  26.365  1.00  0.00    -0.018 A 
ATOM     37  C   UNL     1      -0.491   8.318  26.568  1.00  0.00     0.055 A 
ATOM     38  C   UNL     1      -2.856   9.464  27.507  1.00  0.00     0.012 A 
ATOM     39  C   UNL     1      -1.110   7.792  27.704  1.00  0.00     0.119 A 
ATOM     40  C   UNL     1      -2.289   8.373  28.169  1.00  0.00     0.047 A 
BRANCH  39  41
ATOM     41  O   UNL     1      -0.666   6.732  28.446  1.00  0.00    -0.497 OA
ATOM     42  C   UNL     1      -0.332   5.544  27.738  1.00  0.00     0.278 C 
ENDBRANCH  39  41
ENDBRANCH  28  31
ENDBRANCH  26  28
ENDBRANCH  24  26
ENDBRANCH   1  20
TORSDOF 11
ENDMDL
