MODEL 4
REMARK VINA RESULT:    -9.938      5.289     10.324
REMARK INTER + INTRA:         -16.306
REMARK INTER:                 -14.839
REMARK INTRA:                  -1.467
REMARK UNBOUND:                -1.140
REMARK SMILES O=C(/C=C/C[NH+]1CCCCC1)Nc1cc2c(Nc3ccc(F)c(Cl)c3)ncnc2cc1OCC(F)F
REMARK SMILES IDX 13 1 14 2 15 3 16 4 26 5 27 6 28 7 29 8 30 9 31 10 12 11
REMARK SMILES IDX 1 12 2 13 3 15 4 16 5 17 6 18 11 19 7 20 10 21 8 22 9 23
REMARK SMILES IDX 32 25 33 26 34 27 35 28 36 29 17 30 18 32 25 33 19 34 23 35
REMARK SMILES IDX 20 36 21 37 24 38 22 39
REMARK H PARENT 12 14 6 24 17 31
ROOT
ATOM      1  C   UNL     1      15.659  34.759  12.666  1.00  0.00     0.084 A 
ATOM      2  C   UNL     1      16.160  34.143  11.510  1.00  0.00     0.044 A 
ATOM      3  C   UNL     1      17.323  33.335  11.561  1.00  0.00     0.045 A 
ATOM      4  C   UNL     1      17.924  32.661  10.447  1.00  0.00     0.141 A 
ATOM      5  N   UNL     1      18.990  31.838  10.590  1.00  0.00    -0.219 NA
ATOM      6  C   UNL     1      19.503  31.723  11.837  1.00  0.00     0.224 A 
ATOM      7  N   UNL     1      19.055  32.336  12.958  1.00  0.00    -0.236 NA
ATOM      8  C   UNL     1      17.961  33.138  12.823  1.00  0.00     0.080 A 
ATOM      9  C   UNL     1      17.450  33.783  13.972  1.00  0.00     0.077 A 
ATOM     10  C   UNL     1      16.313  34.603  13.897  1.00  0.00     0.145 A 
ENDROOT
BRANCH   1  11
ATOM     11  N   UNL     1      14.523  35.589  12.621  1.00  0.00    -0.319 N 
ATOM     12  O   UNL     1      12.899  34.143  13.334  1.00  0.00    -0.270 OA
ATOM     13  C   UNL     1      13.253  35.258  12.941  1.00  0.00     0.248 C 
ATOM     14  H   UNL     1      14.710  36.561  12.427  1.00  0.00     0.170 HD
BRANCH  13  15
ATOM     15  C   UNL     1      12.335  36.363  12.777  1.00  0.00     0.073 C 
ATOM     16  C   UNL     1      12.529  37.340  11.868  1.00  0.00     0.039 C 
BRANCH  16  17
ATOM     17  C   UNL     1      11.593  38.517  11.660  1.00  0.00     0.291 C 
BRANCH  17  18
ATOM     18  N   UNL     1      12.006  39.437  10.489  1.00  0.00    -0.332 N 
ATOM     19  C   UNL     1      10.782  39.838   9.628  1.00  0.00     0.262 C 
ATOM     20  C   UNL     1      13.094  38.742   9.634  1.00  0.00     0.262 C 
ATOM     21  C   UNL     1      11.244  40.785   8.505  1.00  0.00     0.062 C 
ATOM     22  C   UNL     1      13.540  39.692   8.509  1.00  0.00     0.062 C 
ATOM     23  C   UNL     1      12.357  40.163   7.646  1.00  0.00     0.012 C 
ATOM     24  H   UNL     1      12.410  40.281  10.871  1.00  0.00     0.348 HD
ENDBRANCH  17  18
ENDBRANCH  16  17
ENDBRANCH  13  15
ENDBRANCH   1  11
BRANCH  10  25
ATOM     25  O   UNL     1      15.782  35.262  14.994  1.00  0.00    -0.485 OA
BRANCH  25  26
ATOM     26  C   UNL     1      16.066  34.792  16.311  1.00  0.00     0.302 C 
BRANCH  26  27
ATOM     27  C   UNL     1      14.748  34.437  17.011  1.00  0.00     0.379 C 
ATOM     28  F   UNL     1      13.684  34.749  16.271  1.00  0.00    -0.207 F 
ATOM     29  F   UNL     1      14.671  33.148  17.340  1.00  0.00    -0.207 F 
ENDBRANCH  26  27
ENDBRANCH  25  26
ENDBRANCH  10  25
BRANCH   4  30
ATOM     30  N   UNL     1      17.456  32.750   9.126  1.00  0.00    -0.340 N 
ATOM     31  H   UNL     1      17.046  33.644   8.899  1.00  0.00     0.168 HD
BRANCH  30  32
ATOM     32  C   UNL     1      17.120  31.725   8.227  1.00  0.00     0.041 A 
ATOM     33  C   UNL     1      15.839  31.170   8.290  1.00  0.00     0.049 A 
ATOM     34  C   UNL     1      18.037  31.227   7.292  1.00  0.00     0.029 A 
ATOM     35  C   UNL     1      15.468  30.145   7.416  1.00  0.00     0.078 A 
ATOM     36  C   UNL     1      17.668  30.204   6.418  1.00  0.00     0.043 A 
ATOM     37  C   UNL     1      16.384  29.663   6.477  1.00  0.00     0.141 A 
ATOM     38  Cl  UNL     1      13.874  29.484   7.507  1.00  0.00    -0.081 Cl
ATOM     39  F   UNL     1      16.037  28.672   5.625  1.00  0.00    -0.205 F 
ENDBRANCH  30  32
ENDBRANCH   4  30
TORSDOF 9
ENDMDL
