MODEL 1
REMARK minimizedAffinity -11.3283777
REMARK CNNscore 0.850689769
REMARK CNNaffinity 8.58897305
REMARK SMILES COc1ncc(-c2ccc3nccc(-c4ccnnc4)c3c2)cc1NS(=O)(=O)c1ccc(F)cc1F
REMARK SMILES IDX 25 1 24 3 3 4 4 5 5 6 23 7 6 8 2 9 1 10 7 11 8 12 22 13 9 14
REMARK SMILES IDX 21 15 10 16 14 17 11 18 13 19 12 20 15 21 16 22 20 23 17 24
REMARK SMILES IDX 19 25 18 26 26 27 27 28 28 29 29 30 30 31 35 32 31 33 34 34
REMARK SMILES IDX 32 35 36 36 33 37
REMARK H PARENT 25 2
ROOT
ATOM      1  N   UNL     1      52.160   0.239 -43.110  1.00  0.00    -0.274 N 
ATOM      2  H   UNL     1      52.226   0.978 -42.403  1.00  0.00     0.180 HD
ENDROOT
BRANCH   1   3
ATOM      3  C   UNL     1      52.973   0.462 -44.272  1.00  0.00     0.112 A 
ATOM      4  C   UNL     1      54.338   0.734 -44.136  1.00  0.00     0.238 A 
ATOM      5  N   UNL     1      55.176   0.929 -45.177  1.00  0.00    -0.220 NA
ATOM      6  C   UNL     1      54.629   0.849 -46.415  1.00  0.00     0.124 A 
ATOM      7  C   UNL     1      52.445   0.436 -45.559  1.00  0.00     0.042 A 
ATOM      8  C   UNL     1      53.280   0.599 -46.675  1.00  0.00     0.002 A 
BRANCH   4   9
ATOM      9  O   UNL     1      54.831   0.773 -42.842  1.00  0.00    -0.480 OA
ATOM     10  C   UNL     1      56.047   1.507 -42.729  1.00  0.00     0.280 C 
ENDBRANCH   4   9
BRANCH   8  11
ATOM     11  C   UNL     1      52.757   0.451 -48.040  1.00  0.00    -0.016 A 
ATOM     12  C   UNL     1      53.480   0.842 -49.168  1.00  0.00     0.011 A 
ATOM     13  C   UNL     1      51.486  -0.108 -48.249  1.00  0.00     0.019 A 
ATOM     14  C   UNL     1      52.938   0.682 -50.450  1.00  0.00     0.029 A 
ATOM     15  C   UNL     1      50.927  -0.274 -49.539  1.00  0.00     0.009 A 
ATOM     16  C   UNL     1      51.679   0.134 -50.659  1.00  0.00     0.071 A 
ATOM     17  C   UNL     1      49.642  -0.834 -49.769  1.00  0.00    -0.006 A 
ATOM     18  N   UNL     1      51.226   0.014 -51.916  1.00  0.00    -0.256 NA
ATOM     19  C   UNL     1      49.183  -0.949 -51.084  1.00  0.00     0.029 A 
ATOM     20  C   UNL     1      50.002  -0.517 -52.108  1.00  0.00     0.112 A 
BRANCH  17  21
ATOM     21  C   UNL     1      48.789  -1.292 -48.666  1.00  0.00     0.004 A 
ATOM     22  C   UNL     1      48.684  -0.572 -47.478  1.00  0.00     0.032 A 
ATOM     23  C   UNL     1      48.093  -2.492 -48.738  1.00  0.00     0.144 A 
ATOM     24  C   UNL     1      47.919  -1.096 -46.454  1.00  0.00     0.136 A 
ATOM     25  N   UNL     1      47.355  -2.981 -47.718  1.00  0.00    -0.159 NA
ATOM     26  N   UNL     1      47.271  -2.273 -46.561  1.00  0.00    -0.159 NA
ENDBRANCH  17  21
ENDBRANCH   8  11
ENDBRANCH   1   3
BRANCH   1  27
ATOM     27  S   UNL     1      52.146  -1.287 -42.387  1.00  0.00     0.264 S 
ATOM     28  O   UNL     1      52.825  -2.195 -43.285  1.00  0.00    -0.201 OA
ATOM     29  O   UNL     1      52.584  -1.144 -41.013  1.00  0.00    -0.201 OA
BRANCH  27  30
ATOM     30  C   UNL     1      50.442  -1.745 -42.352  1.00  0.00     0.123 A 
ATOM     31  C   UNL     1      50.043  -2.956 -41.776  1.00  0.00     0.028 A 
ATOM     32  C   UNL     1      49.502  -0.888 -42.914  1.00  0.00     0.146 A 
ATOM     33  C   UNL     1      48.689  -3.293 -41.763  1.00  0.00     0.041 A 
ATOM     34  C   UNL     1      48.153  -1.219 -42.899  1.00  0.00     0.080 A 
ATOM     35  C   UNL     1      47.757  -2.421 -42.323  1.00  0.00     0.126 A 
ATOM     36  F   UNL     1      49.874   0.279 -43.459  1.00  0.00    -0.205 F 
ATOM     37  F   UNL     1      46.459  -2.745 -42.305  1.00  0.00    -0.207 F 
ENDBRANCH  27  30
ENDBRANCH   1  27
TORSDOF 6
ENDMDL
MODEL 2
REMARK minimizedAffinity -9.61733246
REMARK CNNscore 0.749243021
REMARK CNNaffinity 8.07561493
REMARK SMILES COc1ncc(-c2ccc3nccc(-c4ccnnc4)c3c2)cc1NS(=O)(=O)c1ccc(F)cc1F
REMARK SMILES IDX 25 1 24 3 3 4 4 5 5 6 23 7 6 8 2 9 1 10 7 11 8 12 22 13 9 14
REMARK SMILES IDX 21 15 10 16 14 17 11 18 13 19 12 20 15 21 16 22 20 23 17 24
REMARK SMILES IDX 19 25 18 26 26 27 27 28 28 29 29 30 30 31 35 32 31 33 34 34
REMARK SMILES IDX 32 35 36 36 33 37
REMARK H PARENT 25 2
ROOT
ATOM      1  N   UNL     1      48.558  -1.567 -49.263  1.00  0.00    -0.274 N 
ATOM      2  H   UNL     1      47.793  -1.161 -49.809  1.00  0.00     0.180 HD
ENDROOT
BRANCH   1   3
ATOM      3  C   UNL     1      49.798  -0.849 -49.361  1.00  0.00     0.112 A 
ATOM      4  C   UNL     1      50.178  -0.263 -50.573  1.00  0.00     0.238 A 
ATOM      5  N   UNL     1      51.313   0.451 -50.742  1.00  0.00    -0.220 NA
ATOM      6  C   UNL     1      52.106   0.590 -49.652  1.00  0.00     0.124 A 
ATOM      7  C   UNL     1      50.665  -0.721 -48.282  1.00  0.00     0.042 A 
ATOM      8  C   UNL     1      51.839   0.039 -48.397  1.00  0.00     0.002 A 
BRANCH   4   9
ATOM      9  O   UNL     1      49.304  -0.423 -51.635  1.00  0.00    -0.480 OA
ATOM     10  C   UNL     1      49.868  -1.156 -52.719  1.00  0.00     0.280 C 
ENDBRANCH   4   9
BRANCH   8  11
ATOM     11  C   UNL     1      52.700   0.283 -47.232  1.00  0.00    -0.016 A 
ATOM     12  C   UNL     1      53.942   0.912 -47.334  1.00  0.00     0.011 A 
ATOM     13  C   UNL     1      52.281  -0.116 -45.952  1.00  0.00     0.019 A 
ATOM     14  C   UNL     1      54.728   1.121 -46.193  1.00  0.00     0.029 A 
ATOM     15  C   UNL     1      53.067   0.090 -44.793  1.00  0.00     0.009 A 
ATOM     16  C   UNL     1      54.318   0.724 -44.928  1.00  0.00     0.071 A 
ATOM     17  C   UNL     1      52.661  -0.310 -43.491  1.00  0.00    -0.006 A 
ATOM     18  N   UNL     1      55.127   0.957 -43.883  1.00  0.00    -0.256 NA
ATOM     19  C   UNL     1      53.515  -0.063 -42.413  1.00  0.00     0.029 A 
ATOM     20  C   UNL     1      54.721   0.565 -42.658  1.00  0.00     0.112 A 
BRANCH  17  21
ATOM     21  C   UNL     1      51.373  -0.972 -43.251  1.00  0.00     0.004 A 
ATOM     22  C   UNL     1      50.200  -0.241 -43.073  1.00  0.00     0.032 A 
ATOM     23  C   UNL     1      51.277  -2.353 -43.137  1.00  0.00     0.144 A 
ATOM     24  C   UNL     1      49.035  -0.924 -42.782  1.00  0.00     0.136 A 
ATOM     25  N   UNL     1      50.124  -2.993 -42.847  1.00  0.00    -0.159 NA
ATOM     26  N   UNL     1      48.990  -2.266 -42.665  1.00  0.00    -0.159 NA
ENDBRANCH  17  21
ENDBRANCH   8  11
ENDBRANCH   1   3
BRANCH   1  27
ATOM     27  S   UNL     1      48.012  -2.080 -47.749  1.00  0.00     0.264 S 
ATOM     28  O   UNL     1      48.905  -3.126 -47.303  1.00  0.00    -0.201 OA
ATOM     29  O   UNL     1      47.780  -0.909 -46.928  1.00  0.00    -0.201 OA
BRANCH  27  30
ATOM     30  C   UNL     1      46.442  -2.819 -48.072  1.00  0.00     0.123 A 
ATOM     31  C   UNL     1      45.291  -2.348 -47.431  1.00  0.00     0.028 A 
ATOM     32  C   UNL     1      46.368  -3.881 -48.966  1.00  0.00     0.146 A 
ATOM     33  C   UNL     1      44.063  -2.951 -47.705  1.00  0.00     0.041 A 
ATOM     34  C   UNL     1      45.146  -4.481 -49.243  1.00  0.00     0.080 A 
ATOM     35  C   UNL     1      44.002  -4.010 -48.609  1.00  0.00     0.126 A 
ATOM     36  F   UNL     1      47.464  -4.331 -49.593  1.00  0.00    -0.205 F 
ATOM     37  F   UNL     1      42.821  -4.583 -48.873  1.00  0.00    -0.207 F 
ENDBRANCH  27  30
ENDBRANCH   1  27
TORSDOF 6
ENDMDL
MODEL 3
REMARK minimizedAffinity -11.0796967
REMARK CNNscore 0.724506855
REMARK CNNaffinity 8.34282112
REMARK SMILES COc1ncc(-c2ccc3nccc(-c4ccnnc4)c3c2)cc1NS(=O)(=O)c1ccc(F)cc1F
REMARK SMILES IDX 25 1 24 3 3 4 4 5 5 6 23 7 6 8 2 9 1 10 7 11 8 12 22 13 9 14
REMARK SMILES IDX 21 15 10 16 14 17 11 18 13 19 12 20 15 21 16 22 20 23 17 24
REMARK SMILES IDX 19 25 18 26 26 27 27 28 28 29 29 30 30 31 35 32 31 33 34 34
REMARK SMILES IDX 32 35 36 36 33 37
REMARK H PARENT 25 2
ROOT
ATOM      1  N   UNL     1      52.134   0.156 -43.136  1.00  0.00    -0.274 N 
ATOM      2  H   UNL     1      52.660  -0.161 -42.316  1.00  0.00     0.180 HD
ENDROOT
BRANCH   1   3
ATOM      3  C   UNL     1      52.945   0.414 -44.292  1.00  0.00     0.112 A 
ATOM      4  C   UNL     1      54.303   0.718 -44.146  1.00  0.00     0.238 A 
ATOM      5  N   UNL     1      55.139   0.946 -45.182  1.00  0.00    -0.220 NA
ATOM      6  C   UNL     1      54.599   0.868 -46.422  1.00  0.00     0.124 A 
ATOM      7  C   UNL     1      52.423   0.391 -45.581  1.00  0.00     0.042 A 
ATOM      8  C   UNL     1      53.258   0.589 -46.691  1.00  0.00     0.002 A 
BRANCH   4   9
ATOM      9  O   UNL     1      54.790   0.752 -42.850  1.00  0.00    -0.480 OA
ATOM     10  C   UNL     1      56.058   1.393 -42.746  1.00  0.00     0.280 C 
ENDBRANCH   4   9
BRANCH   8  11
ATOM     11  C   UNL     1      52.744   0.445 -48.060  1.00  0.00    -0.016 A 
ATOM     12  C   UNL     1      53.474   0.841 -49.182  1.00  0.00     0.011 A 
ATOM     13  C   UNL     1      51.475  -0.113 -48.279  1.00  0.00     0.019 A 
ATOM     14  C   UNL     1      52.940   0.685 -50.468  1.00  0.00     0.029 A 
ATOM     15  C   UNL     1      50.925  -0.275 -49.574  1.00  0.00     0.009 A 
ATOM     16  C   UNL     1      51.684   0.137 -50.687  1.00  0.00     0.071 A 
ATOM     17  C   UNL     1      49.641  -0.836 -49.814  1.00  0.00    -0.006 A 
ATOM     18  N   UNL     1      51.239   0.021 -51.948  1.00  0.00    -0.256 NA
ATOM     19  C   UNL     1      49.191  -0.947 -51.132  1.00  0.00     0.029 A 
ATOM     20  C   UNL     1      50.016  -0.510 -52.149  1.00  0.00     0.112 A 
BRANCH  17  21
ATOM     21  C   UNL     1      48.782  -1.299 -48.719  1.00  0.00     0.004 A 
ATOM     22  C   UNL     1      48.655  -0.574 -47.535  1.00  0.00     0.032 A 
ATOM     23  C   UNL     1      48.100  -2.508 -48.792  1.00  0.00     0.144 A 
ATOM     24  C   UNL     1      47.884  -1.102 -46.517  1.00  0.00     0.136 A 
ATOM     25  N   UNL     1      47.357  -3.000 -47.778  1.00  0.00    -0.159 NA
ATOM     26  N   UNL     1      47.252  -2.288 -46.625  1.00  0.00    -0.159 NA
ENDBRANCH  17  21
ENDBRANCH   8  11
ENDBRANCH   1   3
BRANCH   1  27
ATOM     27  S   UNL     1      50.699  -0.718 -43.306  1.00  0.00     0.264 S 
ATOM     28  O   UNL     1      49.606   0.215 -43.147  1.00  0.00    -0.201 OA
ATOM     29  O   UNL     1      50.802  -1.536 -44.498  1.00  0.00    -0.201 OA
BRANCH  27  30
ATOM     30  C   UNL     1      50.677  -1.808 -41.918  1.00  0.00     0.123 A 
ATOM     31  C   UNL     1      49.589  -1.815 -41.038  1.00  0.00     0.028 A 
ATOM     32  C   UNL     1      51.760  -2.653 -41.708  1.00  0.00     0.146 A 
ATOM     33  C   UNL     1      49.598  -2.687 -39.948  1.00  0.00     0.041 A 
ATOM     34  C   UNL     1      51.770  -3.525 -40.626  1.00  0.00     0.080 A 
ATOM     35  C   UNL     1      50.687  -3.534 -39.754  1.00  0.00     0.126 A 
ATOM     36  F   UNL     1      52.802  -2.661 -42.552  1.00  0.00    -0.205 F 
ATOM     37  F   UNL     1      50.691  -4.372 -38.710  1.00  0.00    -0.207 F 
ENDBRANCH  27  30
ENDBRANCH   1  27
TORSDOF 6
ENDMDL
MODEL 4
REMARK minimizedAffinity -9.89657784
REMARK CNNscore 0.619062722
REMARK CNNaffinity 7.87803793
REMARK SMILES COc1ncc(-c2ccc3nccc(-c4ccnnc4)c3c2)cc1NS(=O)(=O)c1ccc(F)cc1F
REMARK SMILES IDX 25 1 24 3 3 4 4 5 5 6 23 7 6 8 2 9 1 10 7 11 8 12 22 13 9 14
REMARK SMILES IDX 21 15 10 16 14 17 11 18 13 19 12 20 15 21 16 22 20 23 17 24
REMARK SMILES IDX 19 25 18 26 26 27 27 28 28 29 29 30 30 31 35 32 31 33 34 34
REMARK SMILES IDX 32 35 36 36 33 37
REMARK H PARENT 25 2
ROOT
ATOM      1  N   UNL     1      45.437  -4.481 -48.640  1.00  0.00    -0.274 N 
ATOM      2  H   UNL     1      45.156  -5.143 -47.909  1.00  0.00     0.180 HD
ENDROOT
BRANCH   1   3
ATOM      3  C   UNL     1      46.227  -3.381 -48.165  1.00  0.00     0.112 A 
ATOM      4  C   UNL     1      46.050  -2.894 -46.866  1.00  0.00     0.238 A 
ATOM      5  N   UNL     1      46.770  -1.882 -46.335  1.00  0.00    -0.220 NA
ATOM      6  C   UNL     1      47.712  -1.327 -47.136  1.00  0.00     0.124 A 
ATOM      7  C   UNL     1      47.172  -2.751 -48.967  1.00  0.00     0.042 A 
ATOM      8  C   UNL     1      47.969  -1.716 -48.452  1.00  0.00     0.002 A 
BRANCH   4   9
ATOM      9  O   UNL     1      45.088  -3.529 -46.097  1.00  0.00    -0.480 OA
ATOM     10  C   UNL     1      45.006  -4.929 -46.349  1.00  0.00     0.280 C 
ENDBRANCH   4   9
BRANCH   8  11
ATOM     11  C   UNL     1      49.053  -1.126 -49.248  1.00  0.00    -0.016 A 
ATOM     12  C   UNL     1      48.981  -0.994 -50.635  1.00  0.00     0.011 A 
ATOM     13  C   UNL     1      50.219  -0.665 -48.615  1.00  0.00     0.019 A 
ATOM     14  C   UNL     1      50.042  -0.426 -51.352  1.00  0.00     0.029 A 
ATOM     15  C   UNL     1      51.298  -0.090 -49.329  1.00  0.00     0.009 A 
ATOM     16  C   UNL     1      51.197   0.027 -50.729  1.00  0.00     0.071 A 
ATOM     17  C   UNL     1      52.486   0.380 -48.706  1.00  0.00    -0.006 A 
ATOM     18  N   UNL     1      52.173   0.558 -51.482  1.00  0.00    -0.256 NA
ATOM     19  C   UNL     1      53.494   0.927 -49.504  1.00  0.00     0.029 A 
ATOM     20  C   UNL     1      53.291   0.993 -50.868  1.00  0.00     0.112 A 
BRANCH  17  21
ATOM     21  C   UNL     1      52.679   0.306 -47.253  1.00  0.00     0.004 A 
ATOM     22  C   UNL     1      53.919   0.559 -46.668  1.00  0.00     0.032 A 
ATOM     23  C   UNL     1      51.648  -0.074 -46.402  1.00  0.00     0.144 A 
ATOM     24  C   UNL     1      54.048   0.403 -45.302  1.00  0.00     0.136 A 
ATOM     25  N   UNL     1      51.806  -0.221 -45.069  1.00  0.00    -0.159 NA
ATOM     26  N   UNL     1      53.023   0.018 -44.515  1.00  0.00    -0.159 NA
ENDBRANCH  17  21
ENDBRANCH   8  11
ENDBRANCH   1   3
BRANCH   1  27
ATOM     27  S   UNL     1      45.905  -5.297 -50.043  1.00  0.00     0.264 S 
ATOM     28  O   UNL     1      47.274  -4.924 -50.320  1.00  0.00    -0.201 OA
ATOM     29  O   UNL     1      45.535  -6.691 -49.904  1.00  0.00    -0.201 OA
BRANCH  27  30
ATOM     30  C   UNL     1      44.895  -4.606 -51.314  1.00  0.00     0.123 A 
ATOM     31  C   UNL     1      44.853  -3.222 -51.515  1.00  0.00     0.028 A 
ATOM     32  C   UNL     1      44.135  -5.457 -52.108  1.00  0.00     0.146 A 
ATOM     33  C   UNL     1      44.045  -2.703 -52.527  1.00  0.00     0.041 A 
ATOM     34  C   UNL     1      43.332  -4.943 -53.120  1.00  0.00     0.080 A 
ATOM     35  C   UNL     1      43.294  -3.568 -53.320  1.00  0.00     0.126 A 
ATOM     36  F   UNL     1      44.177  -6.786 -51.931  1.00  0.00    -0.205 F 
ATOM     37  F   UNL     1      42.524  -3.068 -54.294  1.00  0.00    -0.207 F 
ENDBRANCH  27  30
ENDBRANCH   1  27
TORSDOF 6
ENDMDL
MODEL 5
REMARK minimizedAffinity -9.81033039
REMARK CNNscore 0.614323556
REMARK CNNaffinity 8.14101028
REMARK SMILES COc1ncc(-c2ccc3nccc(-c4ccnnc4)c3c2)cc1NS(=O)(=O)c1ccc(F)cc1F
REMARK SMILES IDX 25 1 24 3 3 4 4 5 5 6 23 7 6 8 2 9 1 10 7 11 8 12 22 13 9 14
REMARK SMILES IDX 21 15 10 16 14 17 11 18 13 19 12 20 15 21 16 22 20 23 17 24
REMARK SMILES IDX 19 25 18 26 26 27 27 28 28 29 29 30 30 31 35 32 31 33 34 34
REMARK SMILES IDX 32 35 36 36 33 37
REMARK H PARENT 25 2
ROOT
ATOM      1  N   UNL     1      47.885  -1.940 -43.411  1.00  0.00    -0.274 N 
ATOM      2  H   UNL     1      48.227  -0.993 -43.219  1.00  0.00     0.180 HD
ENDROOT
BRANCH   1   3
ATOM      3  C   UNL     1      47.670  -2.217 -44.803  1.00  0.00     0.112 A 
ATOM      4  C   UNL     1      46.577  -2.991 -45.207  1.00  0.00     0.238 A 
ATOM      5  N   UNL     1      46.289  -3.275 -46.495  1.00  0.00    -0.220 NA
ATOM      6  C   UNL     1      47.128  -2.764 -47.428  1.00  0.00     0.124 A 
ATOM      7  C   UNL     1      48.531  -1.752 -45.791  1.00  0.00     0.042 A 
ATOM      8  C   UNL     1      48.257  -1.992 -47.146  1.00  0.00     0.002 A 
BRANCH   4   9
ATOM      9  O   UNL     1      45.748  -3.456 -44.199  1.00  0.00    -0.480 OA
ATOM     10  C   UNL     1      45.561  -4.868 -44.236  1.00  0.00     0.280 C 
ENDBRANCH   4   9
BRANCH   8  11
ATOM     11  C   UNL     1      49.090  -1.403 -48.204  1.00  0.00    -0.016 A 
ATOM     12  C   UNL     1      48.700  -1.381 -49.543  1.00  0.00     0.011 A 
ATOM     13  C   UNL     1      50.331  -0.828 -47.882  1.00  0.00     0.019 A 
ATOM     14  C   UNL     1      49.530  -0.809 -50.516  1.00  0.00     0.029 A 
ATOM     15  C   UNL     1      51.179  -0.248 -48.857  1.00  0.00     0.009 A 
ATOM     16  C   UNL     1      50.759  -0.244 -50.202  1.00  0.00     0.071 A 
ATOM     17  C   UNL     1      52.438   0.335 -48.550  1.00  0.00    -0.006 A 
ATOM     18  N   UNL     1      51.500   0.284 -51.188  1.00  0.00    -0.256 NA
ATOM     19  C   UNL     1      53.199   0.877 -49.589  1.00  0.00     0.029 A 
ATOM     20  C   UNL     1      52.693   0.828 -50.873  1.00  0.00     0.112 A 
BRANCH  17  21
ATOM     21  C   UNL     1      52.956   0.382 -47.178  1.00  0.00     0.004 A 
ATOM     22  C   UNL     1      52.107   0.300 -46.076  1.00  0.00     0.032 A 
ATOM     23  C   UNL     1      54.308   0.566 -46.919  1.00  0.00     0.144 A 
ATOM     24  C   UNL     1      52.653   0.421 -44.812  1.00  0.00     0.136 A 
ATOM     25  N   UNL     1      54.812   0.685 -45.672  1.00  0.00    -0.159 NA
ATOM     26  N   UNL     1      53.972   0.614 -44.606  1.00  0.00    -0.159 NA
ENDBRANCH  17  21
ENDBRANCH   8  11
ENDBRANCH   1   3
BRANCH   1  27
ATOM     27  S   UNL     1      48.687  -3.075 -42.452  1.00  0.00     0.264 S 
ATOM     28  O   UNL     1      48.006  -3.118 -41.177  1.00  0.00    -0.201 OA
ATOM     29  O   UNL     1      48.869  -4.283 -43.231  1.00  0.00    -0.201 OA
BRANCH  27  30
ATOM     30  C   UNL     1      50.285  -2.377 -42.180  1.00  0.00     0.123 A 
ATOM     31  C   UNL     1      51.434  -3.038 -42.626  1.00  0.00     0.028 A 
ATOM     32  C   UNL     1      50.385  -1.163 -41.510  1.00  0.00     0.146 A 
ATOM     33  C   UNL     1      52.685  -2.463 -42.397  1.00  0.00     0.041 A 
ATOM     34  C   UNL     1      51.629  -0.586 -41.285  1.00  0.00     0.080 A 
ATOM     35  C   UNL     1      52.770  -1.243 -41.731  1.00  0.00     0.126 A 
ATOM     36  F   UNL     1      49.288  -0.516 -41.089  1.00  0.00    -0.205 F 
ATOM     37  F   UNL     1      53.971  -0.691 -41.517  1.00  0.00    -0.207 F 
ENDBRANCH  27  30
ENDBRANCH   1  27
TORSDOF 6
ENDMDL
MODEL 6
REMARK minimizedAffinity -9.88508511
REMARK CNNscore 0.574511766
REMARK CNNaffinity 7.84353876
REMARK SMILES COc1ncc(-c2ccc3nccc(-c4ccnnc4)c3c2)cc1NS(=O)(=O)c1ccc(F)cc1F
REMARK SMILES IDX 25 1 24 3 3 4 4 5 5 6 23 7 6 8 2 9 1 10 7 11 8 12 22 13 9 14
REMARK SMILES IDX 21 15 10 16 14 17 11 18 13 19 12 20 15 21 16 22 20 23 17 24
REMARK SMILES IDX 19 25 18 26 26 27 27 28 28 29 29 30 30 31 35 32 31 33 34 34
REMARK SMILES IDX 32 35 36 36 33 37
REMARK H PARENT 25 2
ROOT
ATOM      1  N   UNL     1      46.911  -5.225 -45.829  1.00  0.00    -0.274 N 
ATOM      2  H   UNL     1      47.699  -5.848 -46.027  1.00  0.00     0.180 HD
ENDROOT
BRANCH   1   3
ATOM      3  C   UNL     1      47.240  -3.828 -45.864  1.00  0.00     0.112 A 
ATOM      4  C   UNL     1      46.820  -2.979 -44.836  1.00  0.00     0.238 A 
ATOM      5  N   UNL     1      47.110  -1.661 -44.780  1.00  0.00    -0.220 NA
ATOM      6  C   UNL     1      47.856  -1.164 -45.797  1.00  0.00     0.124 A 
ATOM      7  C   UNL     1      47.963  -3.266 -46.911  1.00  0.00     0.042 A 
ATOM      8  C   UNL     1      48.318  -1.909 -46.883  1.00  0.00     0.002 A 
BRANCH   4   9
ATOM      9  O   UNL     1      46.086  -3.563 -43.816  1.00  0.00    -0.480 OA
ATOM     10  C   UNL     1      46.634  -3.323 -42.524  1.00  0.00     0.280 C 
ENDBRANCH   4   9
BRANCH   8  11
ATOM     11  C   UNL     1      49.185  -1.331 -47.920  1.00  0.00    -0.016 A 
ATOM     12  C   UNL     1      48.824  -1.297 -49.267  1.00  0.00     0.011 A 
ATOM     13  C   UNL     1      50.429  -0.781 -47.570  1.00  0.00     0.019 A 
ATOM     14  C   UNL     1      49.685  -0.737 -50.220  1.00  0.00     0.029 A 
ATOM     15  C   UNL     1      51.308  -0.213 -48.523  1.00  0.00     0.009 A 
ATOM     16  C   UNL     1      50.917  -0.196 -49.877  1.00  0.00     0.071 A 
ATOM     17  C   UNL     1      52.571   0.345 -48.188  1.00  0.00    -0.006 A 
ATOM     18  N   UNL     1      51.689   0.322 -50.845  1.00  0.00    -0.256 NA
ATOM     19  C   UNL     1      53.364   0.876 -49.208  1.00  0.00     0.029 A 
ATOM     20  C   UNL     1      52.885   0.841 -50.502  1.00  0.00     0.112 A 
BRANCH  17  21
ATOM     21  C   UNL     1      53.060   0.377 -46.805  1.00  0.00     0.004 A 
ATOM     22  C   UNL     1      52.203   0.180 -45.724  1.00  0.00     0.032 A 
ATOM     23  C   UNL     1      54.388   0.661 -46.511  1.00  0.00     0.144 A 
ATOM     24  C   UNL     1      52.716   0.292 -44.446  1.00  0.00     0.136 A 
ATOM     25  N   UNL     1      54.860   0.768 -45.250  1.00  0.00    -0.159 NA
ATOM     26  N   UNL     1      54.010   0.584 -44.206  1.00  0.00    -0.159 NA
ENDBRANCH  17  21
ENDBRANCH   8  11
ENDBRANCH   1   3
BRANCH   1  27
ATOM     27  S   UNL     1      45.507  -5.768 -46.596  1.00  0.00     0.264 S 
ATOM     28  O   UNL     1      45.688  -7.174 -46.879  1.00  0.00    -0.201 OA
ATOM     29  O   UNL     1      44.364  -5.311 -45.830  1.00  0.00    -0.201 OA
BRANCH  27  30
ATOM     30  C   UNL     1      45.485  -4.911 -48.138  1.00  0.00     0.123 A 
ATOM     31  C   UNL     1      46.116  -5.456 -49.262  1.00  0.00     0.028 A 
ATOM     32  C   UNL     1      44.840  -3.682 -48.218  1.00  0.00     0.146 A 
ATOM     33  C   UNL     1      46.083  -4.756 -50.469  1.00  0.00     0.041 A 
ATOM     34  C   UNL     1      44.803  -2.985 -49.419  1.00  0.00     0.080 A 
ATOM     35  C   UNL     1      45.426  -3.529 -50.537  1.00  0.00     0.126 A 
ATOM     36  F   UNL     1      44.224  -3.157 -47.149  1.00  0.00    -0.205 F 
ATOM     37  F   UNL     1      45.393  -2.863 -51.697  1.00  0.00    -0.207 F 
ENDBRANCH  27  30
ENDBRANCH   1  27
TORSDOF 6
ENDMDL
MODEL 7
REMARK minimizedAffinity -9.00103664
REMARK CNNscore 0.499134362
REMARK CNNaffinity 7.70938826
REMARK SMILES COc1ncc(-c2ccc3nccc(-c4ccnnc4)c3c2)cc1NS(=O)(=O)c1ccc(F)cc1F
REMARK SMILES IDX 25 1 24 3 3 4 4 5 5 6 23 7 6 8 2 9 1 10 7 11 8 12 22 13 9 14
REMARK SMILES IDX 21 15 10 16 14 17 11 18 13 19 12 20 15 21 16 22 20 23 17 24
REMARK SMILES IDX 19 25 18 26 26 27 27 28 28 29 29 30 30 31 35 32 31 33 34 34
REMARK SMILES IDX 32 35 36 36 33 37
REMARK H PARENT 25 2
ROOT
ATOM      1  N   UNL     1      45.737  -2.878 -48.949  1.00  0.00    -0.274 N 
ATOM      2  H   UNL     1      44.714  -2.881 -48.892  1.00  0.00     0.180 HD
ENDROOT
BRANCH   1   3
ATOM      3  C   UNL     1      46.398  -2.818 -47.676  1.00  0.00     0.112 A 
ATOM      4  C   UNL     1      45.841  -3.455 -46.563  1.00  0.00     0.238 A 
ATOM      5  N   UNL     1      46.412  -3.469 -45.339  1.00  0.00    -0.220 NA
ATOM      6  C   UNL     1      47.595  -2.819 -45.217  1.00  0.00     0.124 A 
ATOM      7  C   UNL     1      47.589  -2.123 -47.494  1.00  0.00     0.042 A 
ATOM      8  C   UNL     1      48.238  -2.136 -46.250  1.00  0.00     0.002 A 
BRANCH   4   9
ATOM      9  O   UNL     1      44.645  -4.122 -46.770  1.00  0.00    -0.480 OA
ATOM     10  C   UNL     1      43.693  -3.898 -45.734  1.00  0.00     0.280 C 
ENDBRANCH   4   9
BRANCH   8  11
ATOM     11  C   UNL     1      49.556  -1.510 -46.077  1.00  0.00    -0.016 A 
ATOM     12  C   UNL     1      50.189  -1.421 -44.837  1.00  0.00     0.011 A 
ATOM     13  C   UNL     1      50.232  -0.977 -47.187  1.00  0.00     0.019 A 
ATOM     14  C   UNL     1      51.446  -0.813 -44.722  1.00  0.00     0.029 A 
ATOM     15  C   UNL     1      51.502  -0.360 -47.084  1.00  0.00     0.009 A 
ATOM     16  C   UNL     1      52.114  -0.281 -45.817  1.00  0.00     0.071 A 
ATOM     17  C   UNL     1      52.199   0.187 -48.195  1.00  0.00    -0.006 A 
ATOM     18  N   UNL     1      53.315   0.287 -45.629  1.00  0.00    -0.256 NA
ATOM     19  C   UNL     1      53.447   0.778 -47.982  1.00  0.00     0.029 A 
ATOM     20  C   UNL     1      53.955   0.802 -46.698  1.00  0.00     0.112 A 
BRANCH  17  21
ATOM     21  C   UNL     1      51.644   0.146 -49.552  1.00  0.00     0.004 A 
ATOM     22  C   UNL     1      50.269   0.102 -49.777  1.00  0.00     0.032 A 
ATOM     23  C   UNL     1      52.467   0.093 -50.671  1.00  0.00     0.144 A 
ATOM     24  C   UNL     1      49.817  -0.005 -51.078  1.00  0.00     0.136 A 
ATOM     25  N   UNL     1      51.994  -0.017 -51.932  1.00  0.00    -0.159 NA
ATOM     26  N   UNL     1      50.652  -0.069 -52.135  1.00  0.00    -0.159 NA
ENDBRANCH  17  21
ENDBRANCH   8  11
ENDBRANCH   1   3
BRANCH   1  27
ATOM     27  S   UNL     1      46.279  -3.972 -50.116  1.00  0.00     0.264 S 
ATOM     28  O   UNL     1      47.425  -3.376 -50.765  1.00  0.00    -0.201 OA
ATOM     29  O   UNL     1      46.377  -5.281 -49.502  1.00  0.00    -0.201 OA
BRANCH  27  30
ATOM     30  C   UNL     1      44.971  -4.041 -51.300  1.00  0.00     0.123 A 
ATOM     31  C   UNL     1      44.772  -2.989 -52.200  1.00  0.00     0.028 A 
ATOM     32  C   UNL     1      44.137  -5.153 -51.318  1.00  0.00     0.146 A 
ATOM     33  C   UNL     1      43.730  -3.070 -53.125  1.00  0.00     0.041 A 
ATOM     34  C   UNL     1      43.100  -5.237 -52.240  1.00  0.00     0.080 A 
ATOM     35  C   UNL     1      42.906  -4.193 -53.137  1.00  0.00     0.126 A 
ATOM     36  F   UNL     1      44.326  -6.170 -50.466  1.00  0.00    -0.205 F 
ATOM     37  F   UNL     1      41.910  -4.269 -54.028  1.00  0.00    -0.207 F 
ENDBRANCH  27  30
ENDBRANCH   1  27
TORSDOF 6
ENDMDL
MODEL 8
REMARK minimizedAffinity -9.20132256
REMARK CNNscore 0.489633828
REMARK CNNaffinity 7.96077919
REMARK SMILES COc1ncc(-c2ccc3nccc(-c4ccnnc4)c3c2)cc1NS(=O)(=O)c1ccc(F)cc1F
REMARK SMILES IDX 25 1 24 3 3 4 4 5 5 6 23 7 6 8 2 9 1 10 7 11 8 12 22 13 9 14
REMARK SMILES IDX 21 15 10 16 14 17 11 18 13 19 12 20 15 21 16 22 20 23 17 24
REMARK SMILES IDX 19 25 18 26 26 27 27 28 28 29 29 30 30 31 35 32 31 33 34 34
REMARK SMILES IDX 32 35 36 36 33 37
REMARK H PARENT 25 2
ROOT
ATOM      1  N   UNL     1      46.634  -5.217 -46.030  1.00  0.00    -0.274 N 
ATOM      2  H   UNL     1      45.921  -5.600 -46.659  1.00  0.00     0.180 HD
ENDROOT
BRANCH   1   3
ATOM      3  C   UNL     1      46.864  -3.809 -46.188  1.00  0.00     0.112 A 
ATOM      4  C   UNL     1      45.791  -2.940 -46.407  1.00  0.00     0.238 A 
ATOM      5  N   UNL     1      45.919  -1.602 -46.539  1.00  0.00    -0.220 NA
ATOM      6  C   UNL     1      47.176  -1.104 -46.447  1.00  0.00     0.124 A 
ATOM      7  C   UNL     1      48.142  -3.261 -46.148  1.00  0.00     0.042 A 
ATOM      8  C   UNL     1      48.325  -1.873 -46.246  1.00  0.00     0.002 A 
BRANCH   4   9
ATOM      9  O   UNL     1      44.533  -3.517 -46.462  1.00  0.00    -0.480 OA
ATOM     10  C   UNL     1      43.886  -3.331 -47.717  1.00  0.00     0.280 C 
ENDBRANCH   4   9
BRANCH   8  11
ATOM     11  C   UNL     1      49.655  -1.270 -46.082  1.00  0.00    -0.016 A 
ATOM     12  C   UNL     1      50.280  -1.157 -44.839  1.00  0.00     0.011 A 
ATOM     13  C   UNL     1      50.349  -0.785 -47.202  1.00  0.00     0.019 A 
ATOM     14  C   UNL     1      51.549  -0.573 -44.733  1.00  0.00     0.029 A 
ATOM     15  C   UNL     1      51.632  -0.193 -47.106  1.00  0.00     0.009 A 
ATOM     16  C   UNL     1      52.236  -0.089 -45.838  1.00  0.00     0.071 A 
ATOM     17  C   UNL     1      52.348   0.306 -48.228  1.00  0.00    -0.006 A 
ATOM     18  N   UNL     1      53.448   0.459 -45.658  1.00  0.00    -0.256 NA
ATOM     19  C   UNL     1      53.607   0.876 -48.023  1.00  0.00     0.029 A 
ATOM     20  C   UNL     1      54.106   0.928 -46.737  1.00  0.00     0.112 A 
BRANCH  17  21
ATOM     21  C   UNL     1      51.802   0.236 -49.588  1.00  0.00     0.004 A 
ATOM     22  C   UNL     1      50.436   0.079 -49.818  1.00  0.00     0.032 A 
ATOM     23  C   UNL     1      52.629   0.268 -50.705  1.00  0.00     0.144 A 
ATOM     24  C   UNL     1      49.998  -0.049 -51.122  1.00  0.00     0.136 A 
ATOM     25  N   UNL     1      52.170   0.136 -51.968  1.00  0.00    -0.159 NA
ATOM     26  N   UNL     1      50.838  -0.028 -52.177  1.00  0.00    -0.159 NA
ENDBRANCH  17  21
ENDBRANCH   8  11
ENDBRANCH   1   3
BRANCH   1  27
ATOM     27  S   UNL     1      46.478  -5.865 -44.478  1.00  0.00     0.264 S 
ATOM     28  O   UNL     1      45.099  -5.694 -44.078  1.00  0.00    -0.201 OA
ATOM     29  O   UNL     1      47.091  -7.179 -44.469  1.00  0.00    -0.201 OA
BRANCH  27  30
ATOM     30  C   UNL     1      47.465  -4.816 -43.459  1.00  0.00     0.123 A 
ATOM     31  C   UNL     1      48.810  -5.118 -43.220  1.00  0.00     0.028 A 
ATOM     32  C   UNL     1      46.883  -3.688 -42.890  1.00  0.00     0.146 A 
ATOM     33  C   UNL     1      49.566  -4.270 -42.409  1.00  0.00     0.041 A 
ATOM     34  C   UNL     1      47.635  -2.840 -42.086  1.00  0.00     0.080 A 
ATOM     35  C   UNL     1      48.972  -3.140 -41.852  1.00  0.00     0.126 A 
ATOM     36  F   UNL     1      45.598  -3.385 -43.122  1.00  0.00    -0.205 F 
ATOM     37  F   UNL     1      49.702  -2.326 -41.079  1.00  0.00    -0.207 F 
ENDBRANCH  27  30
ENDBRANCH   1  27
TORSDOF 6
ENDMDL
MODEL 9
REMARK minimizedAffinity -9.33859539
REMARK CNNscore 0.444989294
REMARK CNNaffinity 7.77111769
REMARK SMILES COc1ncc(-c2ccc3nccc(-c4ccnnc4)c3c2)cc1NS(=O)(=O)c1ccc(F)cc1F
REMARK SMILES IDX 25 1 24 3 3 4 4 5 5 6 23 7 6 8 2 9 1 10 7 11 8 12 22 13 9 14
REMARK SMILES IDX 21 15 10 16 14 17 11 18 13 19 12 20 15 21 16 22 20 23 17 24
REMARK SMILES IDX 19 25 18 26 26 27 27 28 28 29 29 30 30 31 35 32 31 33 34 34
REMARK SMILES IDX 32 35 36 36 33 37
REMARK H PARENT 25 2
ROOT
ATOM      1  N   UNL     1      47.844  -5.638 -44.825  1.00  0.00    -0.274 N 
ATOM      2  H   UNL     1      48.772  -6.070 -44.856  1.00  0.00     0.180 HD
ENDROOT
BRANCH   1   3
ATOM      3  C   UNL     1      47.846  -4.221 -45.053  1.00  0.00     0.112 A 
ATOM      4  C   UNL     1      47.301  -3.353 -44.100  1.00  0.00     0.238 A 
ATOM      5  N   UNL     1      47.288  -2.008 -44.225  1.00  0.00    -0.220 NA
ATOM      6  C   UNL     1      47.846  -1.502 -45.352  1.00  0.00     0.124 A 
ATOM      7  C   UNL     1      48.365  -3.660 -46.215  1.00  0.00     0.042 A 
ATOM      8  C   UNL     1      48.405  -2.266 -46.377  1.00  0.00     0.002 A 
BRANCH   4   9
ATOM      9  O   UNL     1      46.775  -3.942 -42.962  1.00  0.00    -0.480 OA
ATOM     10  C   UNL     1      47.603  -3.777 -41.814  1.00  0.00     0.280 C 
ENDBRANCH   4   9
BRANCH   8  11
ATOM     11  C   UNL     1      49.060  -1.658 -47.543  1.00  0.00    -0.016 A 
ATOM     12  C   UNL     1      48.501  -1.690 -48.821  1.00  0.00     0.011 A 
ATOM     13  C   UNL     1      50.297  -1.009 -47.395  1.00  0.00     0.019 A 
ATOM     14  C   UNL     1      49.165  -1.097 -49.903  1.00  0.00     0.029 A 
ATOM     15  C   UNL     1      50.977  -0.407 -48.481  1.00  0.00     0.009 A 
ATOM     16  C   UNL     1      50.389  -0.458 -49.760  1.00  0.00     0.071 A 
ATOM     17  C   UNL     1      52.230   0.252 -48.350  1.00  0.00    -0.006 A 
ATOM     18  N   UNL     1      50.966   0.085 -50.843  1.00  0.00    -0.256 NA
ATOM     19  C   UNL     1      52.819   0.810 -49.487  1.00  0.00     0.029 A 
ATOM     20  C   UNL     1      52.156   0.701 -50.694  1.00  0.00     0.112 A 
BRANCH  17  21
ATOM     21  C   UNL     1      52.915   0.361 -47.058  1.00  0.00     0.004 A 
ATOM     22  C   UNL     1      52.215   0.307 -45.854  1.00  0.00     0.032 A 
ATOM     23  C   UNL     1      54.286   0.579 -46.979  1.00  0.00     0.144 A 
ATOM     24  C   UNL     1      52.913   0.486 -44.675  1.00  0.00     0.136 A 
ATOM     25  N   UNL     1      54.940   0.754 -45.811  1.00  0.00    -0.159 NA
ATOM     26  N   UNL     1      54.243   0.710 -44.645  1.00  0.00    -0.159 NA
ENDBRANCH  17  21
ENDBRANCH   8  11
ENDBRANCH   1   3
BRANCH   1  27
ATOM     27  S   UNL     1      46.703  -6.604 -45.612  1.00  0.00     0.264 S 
ATOM     28  O   UNL     1      46.461  -6.014 -46.909  1.00  0.00    -0.201 OA
ATOM     29  O   UNL     1      47.122  -7.987 -45.498  1.00  0.00    -0.201 OA
BRANCH  27  30
ATOM     30  C   UNL     1      45.231  -6.417 -44.657  1.00  0.00     0.123 A 
ATOM     31  C   UNL     1      44.105  -5.792 -45.204  1.00  0.00     0.028 A 
ATOM     32  C   UNL     1      45.209  -6.894 -43.352  1.00  0.00     0.146 A 
ATOM     33  C   UNL     1      42.954  -5.657 -44.426  1.00  0.00     0.041 A 
ATOM     34  C   UNL     1      44.063  -6.764 -42.576  1.00  0.00     0.080 A 
ATOM     35  C   UNL     1      42.944  -6.146 -43.121  1.00  0.00     0.126 A 
ATOM     36  F   UNL     1      46.279  -7.504 -42.823  1.00  0.00    -0.205 F 
ATOM     37  F   UNL     1      41.837  -6.020 -42.379  1.00  0.00    -0.207 F 
ENDBRANCH  27  30
ENDBRANCH   1  27
TORSDOF 6
ENDMDL
