MODEL 1
REMARK VINA RESULT:    -9.565      0.000      0.000
REMARK INTER + INTRA:         -17.365
REMARK INTER:                 -16.555
REMARK INTRA:                  -0.811
REMARK UNBOUND:                -0.811
REMARK SMILES CC[C@H](Oc1cccc(CN(CCCOc2ccc(C)cc2C)c2nc3ccccc3o2)c1)C(=O)O
REMARK SMILES IDX 10 1 9 2 5 3 6 4 33 5 7 6 8 7 4 8 3 9 2 10 1 11 34 12 35 13
REMARK SMILES IDX 36 14 11 16 12 17 13 18 14 19 15 20 16 21 17 22 22 23 18 24
REMARK SMILES IDX 21 25 19 26 23 27 20 28 24 29 25 30 32 31 26 32 31 33 27 34
REMARK SMILES IDX 30 35 28 36 29 37
REMARK H PARENT 36 15
ROOT
ATOM      1  C   UNL     1      -6.200  -7.756 -20.699  1.00  0.00     0.157 C 
ENDROOT
BRANCH   1   2
ATOM      2  C   UNL     1      -5.123  -6.713 -20.497  1.00  0.00    -0.025 A 
ATOM      3  C   UNL     1      -4.279  -4.455 -20.854  1.00  0.00     0.120 A 
ATOM      4  C   UNL     1      -3.125  -4.770 -20.142  1.00  0.00     0.046 A 
ATOM      5  C   UNL     1      -5.282  -5.416 -21.008  1.00  0.00     0.052 A 
ATOM      6  C   UNL     1      -2.953  -6.056 -19.628  1.00  0.00     0.004 A 
ATOM      7  C   UNL     1      -3.940  -7.024 -19.813  1.00  0.00     0.006 A 
BRANCH   3   8
ATOM      8  O   UNL     1      -4.551  -3.232 -21.400  1.00  0.00    -0.479 OA
BRANCH   8   9
ATOM      9  C   UNL     1      -3.622  -2.185 -21.112  1.00  0.00     0.282 C 
BRANCH   9  10
ATOM     10  C   UNL     1      -3.454  -1.347 -22.389  1.00  0.00     0.054 C 
ATOM     11  C   UNL     1      -2.463  -0.197 -22.246  1.00  0.00     0.008 C 
ENDBRANCH   9  10
BRANCH   9  12
ATOM     12  C   UNL     1      -4.078  -1.307 -19.945  1.00  0.00     0.344 C 
ATOM     13  O   UNL     1      -4.907  -0.413 -19.962  1.00  0.00    -0.248 OA
BRANCH  12  14
ATOM     14  O   UNL     1      -3.478  -1.635 -18.778  1.00  0.00    -0.479 OA
ATOM     15  H   UNL     1      -3.572  -0.824 -18.236  1.00  0.00     0.296 HD
ENDBRANCH  12  14
ENDBRANCH   9  12
ENDBRANCH   8   9
ENDBRANCH   3   8
ENDBRANCH   1   2
BRANCH   1  16
ATOM     16  N   UNL     1      -7.507  -7.145 -20.901  1.00  0.00    -0.322 N 
BRANCH  16  17
ATOM     17  C   UNL     1      -7.907  -6.034 -20.044  1.00  0.00     0.125 C 
BRANCH  17  18
ATOM     18  C   UNL     1      -8.332  -6.503 -18.649  1.00  0.00     0.063 C 
BRANCH  18  19
ATOM     19  C   UNL     1      -9.838  -6.431 -18.417  1.00  0.00     0.231 C 
BRANCH  19  20
ATOM     20  O   UNL     1     -10.134  -6.967 -17.128  1.00  0.00    -0.493 OA
BRANCH  20  21
ATOM     21  C   UNL     1     -11.421  -6.834 -16.672  1.00  0.00     0.122 A 
ATOM     22  C   UNL     1     -11.939  -5.685 -16.070  1.00  0.00     0.047 A 
ATOM     23  C   UNL     1     -12.242  -7.963 -16.826  1.00  0.00    -0.009 A 
ATOM     24  C   UNL     1     -13.268  -5.646 -15.637  1.00  0.00     0.007 A 
ATOM     25  C   UNL     1     -13.577  -7.914 -16.388  1.00  0.00     0.010 A 
ATOM     26  C   UNL     1     -14.102  -6.754 -15.806  1.00  0.00    -0.051 A 
ATOM     27  C   UNL     1     -11.712  -9.222 -17.455  1.00  0.00     0.048 C 
ATOM     28  C   UNL     1     -15.519  -6.723 -15.316  1.00  0.00     0.044 C 
ENDBRANCH  20  21
ENDBRANCH  19  20
ENDBRANCH  18  19
ENDBRANCH  17  18
ENDBRANCH  16  17
BRANCH  16  29
ATOM     29  C   UNL     1      -8.299  -7.490 -21.940  1.00  0.00     0.298 A 
ATOM     30  N   UNL     1      -9.486  -8.063 -21.906  1.00  0.00    -0.193 NA
ATOM     31  O   UNL     1      -7.831  -7.248 -23.208  1.00  0.00    -0.423 OA
ATOM     32  C   UNL     1      -9.841  -8.178 -23.223  1.00  0.00     0.111 A 
ATOM     33  C   UNL     1      -8.828  -7.687 -24.025  1.00  0.00     0.156 A 
ATOM     34  C   UNL     1     -10.999  -8.684 -23.827  1.00  0.00     0.032 A 
ATOM     35  C   UNL     1      -8.858  -7.656 -25.413  1.00  0.00     0.049 A 
ATOM     36  C   UNL     1     -11.075  -8.665 -25.228  1.00  0.00     0.003 A 
ATOM     37  C   UNL     1     -10.023  -8.161 -26.003  1.00  0.00     0.004 A 
ENDBRANCH  16  29
ENDBRANCH   1  16
TORSDOF 13
ENDMDL
MODEL 2
REMARK VINA RESULT:    -9.556      1.287      1.995
REMARK INTER + INTRA:         -17.350
REMARK INTER:                 -15.968
REMARK INTRA:                  -1.382
REMARK UNBOUND:                -0.811
REMARK SMILES CC[C@H](Oc1cccc(CN(CCCOc2ccc(C)cc2C)c2nc3ccccc3o2)c1)C(=O)O
REMARK SMILES IDX 10 1 9 2 5 3 6 4 33 5 7 6 8 7 4 8 3 9 2 10 1 11 34 12 35 13
REMARK SMILES IDX 36 14 11 16 12 17 13 18 14 19 15 20 16 21 17 22 22 23 18 24
REMARK SMILES IDX 21 25 19 26 23 27 20 28 24 29 25 30 32 31 26 32 31 33 27 34
REMARK SMILES IDX 30 35 28 36 29 37
REMARK H PARENT 36 15
ROOT
ATOM      1  C   UNL     1      -6.731  -6.351 -19.157  1.00  0.00     0.157 C 
ENDROOT
BRANCH   1   2
ATOM      2  C   UNL     1      -5.391  -5.846 -19.647  1.00  0.00    -0.025 A 
ATOM      3  C   UNL     1      -4.076  -4.197 -20.867  1.00  0.00     0.120 A 
ATOM      4  C   UNL     1      -2.913  -4.904 -20.577  1.00  0.00     0.046 A 
ATOM      5  C   UNL     1      -5.304  -4.654 -20.382  1.00  0.00     0.052 A 
ATOM      6  C   UNL     1      -2.983  -6.092 -19.847  1.00  0.00     0.004 A 
ATOM      7  C   UNL     1      -4.215  -6.566 -19.394  1.00  0.00     0.006 A 
BRANCH   3   8
ATOM      8  O   UNL     1      -4.125  -3.027 -21.572  1.00  0.00    -0.479 OA
BRANCH   8   9
ATOM      9  C   UNL     1      -3.324  -1.951 -21.076  1.00  0.00     0.282 C 
BRANCH   9  10
ATOM     10  C   UNL     1      -3.131  -0.947 -22.224  1.00  0.00     0.054 C 
ATOM     11  C   UNL     1      -1.819  -0.175 -22.153  1.00  0.00     0.008 C 
ENDBRANCH   9  10
BRANCH   9  12
ATOM     12  C   UNL     1      -3.954  -1.268 -19.861  1.00  0.00     0.344 C 
ATOM     13  O   UNL     1      -4.924  -0.529 -19.837  1.00  0.00    -0.248 OA
BRANCH  12  14
ATOM     14  O   UNL     1      -3.338  -1.592 -18.701  1.00  0.00    -0.479 OA
ATOM     15  H   UNL     1      -3.485  -0.806 -18.135  1.00  0.00     0.296 HD
ENDBRANCH  12  14
ENDBRANCH   9  12
ENDBRANCH   8   9
ENDBRANCH   3   8
ENDBRANCH   1   2
BRANCH   1  16
ATOM     16  N   UNL     1      -7.739  -6.300 -20.206  1.00  0.00    -0.322 N 
BRANCH  16  17
ATOM     17  C   UNL     1      -8.736  -5.234 -20.176  1.00  0.00     0.125 C 
BRANCH  17  18
ATOM     18  C   UNL     1      -9.652  -5.333 -18.953  1.00  0.00     0.063 C 
BRANCH  18  19
ATOM     19  C   UNL     1     -10.003  -6.768 -18.572  1.00  0.00     0.231 C 
BRANCH  19  20
ATOM     20  O   UNL     1     -10.271  -6.823 -17.172  1.00  0.00    -0.493 OA
BRANCH  20  21
ATOM     21  C   UNL     1     -11.543  -7.162 -16.787  1.00  0.00     0.122 A 
ATOM     22  C   UNL     1     -12.167  -8.378 -17.077  1.00  0.00     0.047 A 
ATOM     23  C   UNL     1     -12.244  -6.182 -16.064  1.00  0.00    -0.009 A 
ATOM     24  C   UNL     1     -13.470  -8.631 -16.640  1.00  0.00     0.007 A 
ATOM     25  C   UNL     1     -13.553  -6.447 -15.627  1.00  0.00     0.010 A 
ATOM     26  C   UNL     1     -14.168  -7.675 -15.899  1.00  0.00    -0.051 A 
ATOM     27  C   UNL     1     -11.609  -4.857 -15.748  1.00  0.00     0.048 C 
ATOM     28  C   UNL     1     -15.577  -7.936 -15.453  1.00  0.00     0.044 C 
ENDBRANCH  20  21
ENDBRANCH  19  20
ENDBRANCH  18  19
ENDBRANCH  17  18
ENDBRANCH  16  17
BRANCH  16  29
ATOM     29  C   UNL     1      -7.696  -7.129 -21.272  1.00  0.00     0.298 A 
ATOM     30  N   UNL     1      -8.343  -7.020 -22.417  1.00  0.00    -0.193 NA
ATOM     31  O   UNL     1      -6.908  -8.249 -21.180  1.00  0.00    -0.423 OA
ATOM     32  C   UNL     1      -7.935  -8.110 -23.138  1.00  0.00     0.111 A 
ATOM     33  C   UNL     1      -7.062  -8.869 -22.383  1.00  0.00     0.156 A 
ATOM     34  C   UNL     1      -8.253  -8.531 -24.435  1.00  0.00     0.032 A 
ATOM     35  C   UNL     1      -6.461 -10.048 -22.808  1.00  0.00     0.049 A 
ATOM     36  C   UNL     1      -7.663  -9.713 -24.908  1.00  0.00     0.003 A 
ATOM     37  C   UNL     1      -6.785 -10.455 -24.107  1.00  0.00     0.004 A 
ENDBRANCH  16  29
ENDBRANCH   1  16
TORSDOF 13
ENDMDL
MODEL 3
REMARK VINA RESULT:    -9.354      2.444      7.025
REMARK INTER + INTRA:         -17.000
REMARK INTER:                 -15.241
REMARK INTRA:                  -1.760
REMARK UNBOUND:                -0.811
REMARK SMILES CC[C@H](Oc1cccc(CN(CCCOc2ccc(C)cc2C)c2nc3ccccc3o2)c1)C(=O)O
REMARK SMILES IDX 10 1 9 2 5 3 6 4 33 5 7 6 8 7 4 8 3 9 2 10 1 11 34 12 35 13
REMARK SMILES IDX 36 14 11 16 12 17 13 18 14 19 15 20 16 21 17 22 22 23 18 24
REMARK SMILES IDX 21 25 19 26 23 27 20 28 24 29 25 30 32 31 26 32 31 33 27 34
REMARK SMILES IDX 30 35 28 36 29 37
REMARK H PARENT 36 15
ROOT
ATOM      1  C   UNL     1      -7.929  -9.771 -22.383  1.00  0.00     0.157 C 
ENDROOT
BRANCH   1   2
ATOM      2  C   UNL     1      -7.623  -9.666 -23.860  1.00  0.00    -0.025 A 
ATOM      3  C   UNL     1      -8.107  -8.719 -26.053  1.00  0.00     0.120 A 
ATOM      4  C   UNL     1      -7.075  -9.471 -26.610  1.00  0.00     0.046 A 
ATOM      5  C   UNL     1      -8.361  -8.800 -24.682  1.00  0.00     0.052 A 
ATOM      6  C   UNL     1      -6.333 -10.337 -25.805  1.00  0.00     0.004 A 
ATOM      7  C   UNL     1      -6.611 -10.442 -24.443  1.00  0.00     0.006 A 
BRANCH   3   8
ATOM      8  O   UNL     1      -8.896  -7.843 -26.744  1.00  0.00    -0.479 OA
BRANCH   8   9
ATOM      9  C   UNL     1     -10.228  -8.277 -27.032  1.00  0.00     0.282 C 
BRANCH   9  10
ATOM     10  C   UNL     1     -11.194  -7.264 -26.397  1.00  0.00     0.054 C 
ATOM     11  C   UNL     1     -11.827  -7.747 -25.098  1.00  0.00     0.008 C 
ENDBRANCH   9  10
BRANCH   9  12
ATOM     12  C   UNL     1     -10.487  -8.403 -28.534  1.00  0.00     0.344 C 
ATOM     13  O   UNL     1      -9.782  -8.016 -29.450  1.00  0.00    -0.248 OA
BRANCH  12  14
ATOM     14  O   UNL     1     -11.634  -9.065 -28.812  1.00  0.00    -0.479 OA
ATOM     15  H   UNL     1     -11.917  -8.684 -29.670  1.00  0.00     0.296 HD
ENDBRANCH  12  14
ENDBRANCH   9  12
ENDBRANCH   8   9
ENDBRANCH   3   8
ENDBRANCH   1   2
BRANCH   1  16
ATOM     16  N   UNL     1      -8.196  -8.465 -21.796  1.00  0.00    -0.322 N 
BRANCH  16  17
ATOM     17  C   UNL     1      -9.577  -8.079 -21.529  1.00  0.00     0.125 C 
BRANCH  17  18
ATOM     18  C   UNL     1     -10.404  -9.241 -20.968  1.00  0.00     0.063 C 
BRANCH  18  19
ATOM     19  C   UNL     1     -11.459  -8.801 -19.957  1.00  0.00     0.231 C 
BRANCH  19  20
ATOM     20  O   UNL     1     -10.889  -8.831 -18.650  1.00  0.00    -0.493 OA
BRANCH  20  21
ATOM     21  C   UNL     1     -11.358  -7.921 -17.738  1.00  0.00     0.122 A 
ATOM     22  C   UNL     1     -12.514  -8.085 -16.970  1.00  0.00     0.047 A 
ATOM     23  C   UNL     1     -10.603  -6.744 -17.605  1.00  0.00    -0.009 A 
ATOM     24  C   UNL     1     -12.913  -7.098 -16.063  1.00  0.00     0.007 A 
ATOM     25  C   UNL     1     -11.011  -5.758 -16.690  1.00  0.00     0.010 A 
ATOM     26  C   UNL     1     -12.157  -5.934 -15.905  1.00  0.00    -0.051 A 
ATOM     27  C   UNL     1      -9.363  -6.528 -18.426  1.00  0.00     0.048 C 
ATOM     28  C   UNL     1     -12.599  -4.863 -14.953  1.00  0.00     0.044 C 
ENDBRANCH  20  21
ENDBRANCH  19  20
ENDBRANCH  18  19
ENDBRANCH  17  18
ENDBRANCH  16  17
BRANCH  16  29
ATOM     29  C   UNL     1      -7.196  -7.660 -21.373  1.00  0.00     0.298 A 
ATOM     30  N   UNL     1      -5.976  -8.000 -21.003  1.00  0.00    -0.193 NA
ATOM     31  O   UNL     1      -7.453  -6.315 -21.282  1.00  0.00    -0.423 OA
ATOM     32  C   UNL     1      -5.380  -6.811 -20.681  1.00  0.00     0.111 A 
ATOM     33  C   UNL     1      -6.281  -5.776 -20.844  1.00  0.00     0.156 A 
ATOM     34  C   UNL     1      -4.082  -6.517 -20.245  1.00  0.00     0.032 A 
ATOM     35  C   UNL     1      -6.007  -4.437 -20.600  1.00  0.00     0.049 A 
ATOM     36  C   UNL     1      -3.758  -5.175 -19.994  1.00  0.00     0.003 A 
ATOM     37  C   UNL     1      -4.705  -4.157 -20.168  1.00  0.00     0.004 A 
ENDBRANCH  16  29
ENDBRANCH   1  16
TORSDOF 13
ENDMDL
MODEL 4
REMARK VINA RESULT:    -9.172      1.972      7.424
REMARK INTER + INTRA:         -16.686
REMARK INTER:                 -15.370
REMARK INTRA:                  -1.316
REMARK UNBOUND:                -0.811
REMARK SMILES CC[C@H](Oc1cccc(CN(CCCOc2ccc(C)cc2C)c2nc3ccccc3o2)c1)C(=O)O
REMARK SMILES IDX 10 1 9 2 5 3 6 4 33 5 7 6 8 7 4 8 3 9 2 10 1 11 34 12 35 13
REMARK SMILES IDX 36 14 11 16 12 17 13 18 14 19 15 20 16 21 17 22 22 23 18 24
REMARK SMILES IDX 21 25 19 26 23 27 20 28 24 29 25 30 32 31 26 32 31 33 27 34
REMARK SMILES IDX 30 35 28 36 29 37
REMARK H PARENT 36 15
ROOT
ATOM      1  C   UNL     1      -6.752  -7.826 -20.951  1.00  0.00     0.157 C 
ENDROOT
BRANCH   1   2
ATOM      2  C   UNL     1      -5.661  -6.820 -20.657  1.00  0.00    -0.025 A 
ATOM      3  C   UNL     1      -4.835  -4.528 -20.709  1.00  0.00     0.120 A 
ATOM      4  C   UNL     1      -3.638  -4.942 -20.131  1.00  0.00     0.046 A 
ATOM      5  C   UNL     1      -5.849  -5.460 -20.947  1.00  0.00     0.052 A 
ATOM      6  C   UNL     1      -3.437  -6.292 -19.839  1.00  0.00     0.004 A 
ATOM      7  C   UNL     1      -4.437  -7.226 -20.109  1.00  0.00     0.006 A 
BRANCH   3   8
ATOM      8  O   UNL     1      -5.139  -3.236 -21.037  1.00  0.00    -0.479 OA
BRANCH   8   9
ATOM      9  C   UNL     1      -4.066  -2.294 -20.974  1.00  0.00     0.282 C 
BRANCH   9  10
ATOM     10  C   UNL     1      -3.996  -1.577 -22.331  1.00  0.00     0.054 C 
ATOM     11  C   UNL     1      -2.799  -0.645 -22.475  1.00  0.00     0.008 C 
ENDBRANCH   9  10
BRANCH   9  12
ATOM     12  C   UNL     1      -4.242  -1.285 -19.838  1.00  0.00     0.344 C 
ATOM     13  O   UNL     1      -4.939  -0.285 -19.827  1.00  0.00    -0.248 OA
BRANCH  12  14
ATOM     14  O   UNL     1      -3.543  -1.619 -18.729  1.00  0.00    -0.479 OA
ATOM     15  H   UNL     1      -3.229  -0.757 -18.387  1.00  0.00     0.296 HD
ENDBRANCH  12  14
ENDBRANCH   9  12
ENDBRANCH   8   9
ENDBRANCH   3   8
ENDBRANCH   1   2
BRANCH   1  16
ATOM     16  N   UNL     1      -8.055  -7.185 -21.069  1.00  0.00    -0.322 N 
BRANCH  16  17
ATOM     17  C   UNL     1      -8.537  -6.803 -22.392  1.00  0.00     0.125 C 
BRANCH  17  18
ATOM     18  C   UNL     1      -8.415  -7.946 -23.405  1.00  0.00     0.063 C 
BRANCH  18  19
ATOM     19  C   UNL     1      -8.958  -7.593 -24.786  1.00  0.00     0.231 C 
BRANCH  19  20
ATOM     20  O   UNL     1      -9.009  -8.777 -25.580  1.00  0.00    -0.493 OA
BRANCH  20  21
ATOM     21  C   UNL     1      -8.688  -8.659 -26.908  1.00  0.00     0.122 A 
ATOM     22  C   UNL     1      -9.495  -8.052 -27.873  1.00  0.00     0.047 A 
ATOM     23  C   UNL     1      -7.455  -9.215 -27.290  1.00  0.00    -0.009 A 
ATOM     24  C   UNL     1      -9.079  -7.979 -29.206  1.00  0.00     0.007 A 
ATOM     25  C   UNL     1      -7.046  -9.136 -28.632  1.00  0.00     0.010 A 
ATOM     26  C   UNL     1      -7.845  -8.507 -29.593  1.00  0.00    -0.051 A 
ATOM     27  C   UNL     1      -6.569  -9.889 -26.280  1.00  0.00     0.048 C 
ATOM     28  C   UNL     1      -7.411  -8.454 -31.028  1.00  0.00     0.044 C 
ENDBRANCH  20  21
ENDBRANCH  19  20
ENDBRANCH  18  19
ENDBRANCH  17  18
ENDBRANCH  16  17
BRANCH  16  29
ATOM     29  C   UNL     1      -8.880  -7.056 -20.007  1.00  0.00     0.298 A 
ATOM     30  N   UNL     1      -8.945  -6.064 -19.140  1.00  0.00    -0.193 NA
ATOM     31  O   UNL     1      -9.761  -8.078 -19.754  1.00  0.00    -0.423 OA
ATOM     32  C   UNL     1      -9.948  -6.432 -18.284  1.00  0.00     0.111 A 
ATOM     33  C   UNL     1     -10.447  -7.668 -18.651  1.00  0.00     0.156 A 
ATOM     34  C   UNL     1     -10.499  -5.781 -17.173  1.00  0.00     0.032 A 
ATOM     35  C   UNL     1     -11.469  -8.339 -17.993  1.00  0.00     0.049 A 
ATOM     36  C   UNL     1     -11.540  -6.421 -16.483  1.00  0.00     0.003 A 
ATOM     37  C   UNL     1     -12.013  -7.676 -16.887  1.00  0.00     0.004 A 
ENDBRANCH  16  29
ENDBRANCH   1  16
TORSDOF 13
ENDMDL
MODEL 5
REMARK VINA RESULT:    -8.884      1.998      7.014
REMARK INTER + INTRA:         -16.186
REMARK INTER:                 -15.267
REMARK INTRA:                  -0.919
REMARK UNBOUND:                -0.811
REMARK SMILES CC[C@H](Oc1cccc(CN(CCCOc2ccc(C)cc2C)c2nc3ccccc3o2)c1)C(=O)O
REMARK SMILES IDX 10 1 9 2 5 3 6 4 33 5 7 6 8 7 4 8 3 9 2 10 1 11 34 12 35 13
REMARK SMILES IDX 36 14 11 16 12 17 13 18 14 19 15 20 16 21 17 22 22 23 18 24
REMARK SMILES IDX 21 25 19 26 23 27 20 28 24 29 25 30 32 31 26 32 31 33 27 34
REMARK SMILES IDX 30 35 28 36 29 37
REMARK H PARENT 36 15
ROOT
ATOM      1  C   UNL     1      -7.905  -8.677 -22.094  1.00  0.00     0.157 C 
ENDROOT
BRANCH   1   2
ATOM      2  C   UNL     1      -9.071  -8.592 -23.056  1.00  0.00    -0.025 A 
ATOM      3  C   UNL     1      -9.949  -8.057 -25.265  1.00  0.00     0.120 A 
ATOM      4  C   UNL     1     -11.228  -8.414 -24.847  1.00  0.00     0.046 A 
ATOM      5  C   UNL     1      -8.874  -8.169 -24.379  1.00  0.00     0.052 A 
ATOM      6  C   UNL     1     -11.439  -8.835 -23.533  1.00  0.00     0.004 A 
ATOM      7  C   UNL     1     -10.370  -8.913 -22.641  1.00  0.00     0.006 A 
BRANCH   3   8
ATOM      8  O   UNL     1      -9.628  -7.630 -26.524  1.00  0.00    -0.479 OA
BRANCH   8   9
ATOM      9  C   UNL     1      -9.173  -8.631 -27.437  1.00  0.00     0.282 C 
BRANCH   9  10
ATOM     10  C   UNL     1      -9.667  -8.240 -28.839  1.00  0.00     0.054 C 
ATOM     11  C   UNL     1     -11.082  -8.714 -29.148  1.00  0.00     0.008 C 
ENDBRANCH   9  10
BRANCH   9  12
ATOM     12  C   UNL     1      -7.651  -8.783 -27.424  1.00  0.00     0.344 C 
ATOM     13  O   UNL     1      -7.002  -9.807 -27.285  1.00  0.00    -0.248 OA
BRANCH  12  14
ATOM     14  O   UNL     1      -7.006  -7.612 -27.632  1.00  0.00    -0.479 OA
ATOM     15  H   UNL     1      -6.283  -7.854 -28.247  1.00  0.00     0.296 HD
ENDBRANCH  12  14
ENDBRANCH   9  12
ENDBRANCH   8   9
ENDBRANCH   3   8
ENDBRANCH   1   2
BRANCH   1  16
ATOM     16  N   UNL     1      -7.843  -7.511 -21.223  1.00  0.00    -0.322 N 
BRANCH  16  17
ATOM     17  C   UNL     1      -9.057  -7.075 -20.540  1.00  0.00     0.125 C 
BRANCH  17  18
ATOM     18  C   UNL     1      -8.825  -6.837 -19.044  1.00  0.00     0.063 C 
BRANCH  18  19
ATOM     19  C   UNL     1      -9.909  -5.985 -18.391  1.00  0.00     0.231 C 
BRANCH  19  20
ATOM     20  O   UNL     1     -10.126  -6.452 -17.060  1.00  0.00    -0.493 OA
BRANCH  20  21
ATOM     21  C   UNL     1     -11.345  -7.015 -16.782  1.00  0.00     0.122 A 
ATOM     22  C   UNL     1     -11.779  -8.254 -17.260  1.00  0.00     0.047 A 
ATOM     23  C   UNL     1     -12.197  -6.254 -15.965  1.00  0.00    -0.009 A 
ATOM     24  C   UNL     1     -13.043  -8.745 -16.919  1.00  0.00     0.007 A 
ATOM     25  C   UNL     1     -13.465  -6.757 -15.627  1.00  0.00     0.010 A 
ATOM     26  C   UNL     1     -13.889  -8.008 -16.088  1.00  0.00    -0.051 A 
ATOM     27  C   UNL     1     -11.768  -4.910 -15.445  1.00  0.00     0.048 C 
ATOM     28  C   UNL     1     -15.256  -8.522 -15.745  1.00  0.00     0.044 C 
ENDBRANCH  20  21
ENDBRANCH  19  20
ENDBRANCH  18  19
ENDBRANCH  17  18
ENDBRANCH  16  17
BRANCH  16  29
ATOM     29  C   UNL     1      -6.671  -6.908 -20.928  1.00  0.00     0.298 A 
ATOM     30  N   UNL     1      -5.558  -7.460 -20.485  1.00  0.00    -0.193 NA
ATOM     31  O   UNL     1      -6.599  -5.545 -21.075  1.00  0.00    -0.423 OA
ATOM     32  C   UNL     1      -4.688  -6.411 -20.364  1.00  0.00     0.111 A 
ATOM     33  C   UNL     1      -5.322  -5.235 -20.717  1.00  0.00     0.156 A 
ATOM     34  C   UNL     1      -3.346  -6.364 -19.963  1.00  0.00     0.032 A 
ATOM     35  C   UNL     1      -4.730  -3.978 -20.703  1.00  0.00     0.049 A 
ATOM     36  C   UNL     1      -2.707  -5.115 -19.942  1.00  0.00     0.003 A 
ATOM     37  C   UNL     1      -3.389  -3.946 -20.305  1.00  0.00     0.004 A 
ENDBRANCH  16  29
ENDBRANCH   1  16
TORSDOF 13
ENDMDL
MODEL 6
REMARK VINA RESULT:    -8.841      1.702      2.871
REMARK INTER + INTRA:         -16.113
REMARK INTER:                 -15.169
REMARK INTRA:                  -0.945
REMARK UNBOUND:                -0.811
REMARK SMILES CC[C@H](Oc1cccc(CN(CCCOc2ccc(C)cc2C)c2nc3ccccc3o2)c1)C(=O)O
REMARK SMILES IDX 10 1 9 2 5 3 6 4 33 5 7 6 8 7 4 8 3 9 2 10 1 11 34 12 35 13
REMARK SMILES IDX 36 14 11 16 12 17 13 18 14 19 15 20 16 21 17 22 22 23 18 24
REMARK SMILES IDX 21 25 19 26 23 27 20 28 24 29 25 30 32 31 26 32 31 33 27 34
REMARK SMILES IDX 30 35 28 36 29 37
REMARK H PARENT 36 15
ROOT
ATOM      1  C   UNL     1      -8.896  -7.236 -21.621  1.00  0.00     0.157 C 
ENDROOT
BRANCH   1   2
ATOM      2  C   UNL     1      -7.486  -6.836 -21.247  1.00  0.00    -0.025 A 
ATOM      3  C   UNL     1      -5.822  -5.102 -20.845  1.00  0.00     0.120 A 
ATOM      4  C   UNL     1      -4.868  -6.076 -20.567  1.00  0.00     0.046 A 
ATOM      5  C   UNL     1      -7.130  -5.481 -21.159  1.00  0.00     0.052 A 
ATOM      6  C   UNL     1      -5.208  -7.428 -20.651  1.00  0.00     0.004 A 
ATOM      7  C   UNL     1      -6.505  -7.805 -20.999  1.00  0.00     0.006 A 
BRANCH   3   8
ATOM      8  O   UNL     1      -5.600  -3.753 -20.795  1.00  0.00    -0.479 OA
BRANCH   8   9
ATOM      9  C   UNL     1      -4.234  -3.334 -20.766  1.00  0.00     0.282 C 
BRANCH   9  10
ATOM     10  C   UNL     1      -3.986  -2.472 -22.014  1.00  0.00     0.054 C 
ATOM     11  C   UNL     1      -4.632  -1.093 -21.949  1.00  0.00     0.008 C 
ENDBRANCH   9  10
BRANCH   9  12
ATOM     12  C   UNL     1      -3.891  -2.556 -19.495  1.00  0.00     0.344 C 
ATOM     13  O   UNL     1      -2.919  -1.847 -19.291  1.00  0.00    -0.248 OA
BRANCH  12  14
ATOM     14  O   UNL     1      -4.834  -2.681 -18.534  1.00  0.00    -0.479 OA
ATOM     15  H   UNL     1      -5.578  -2.139 -18.870  1.00  0.00     0.296 HD
ENDBRANCH  12  14
ENDBRANCH   9  12
ENDBRANCH   8   9
ENDBRANCH   3   8
ENDBRANCH   1   2
BRANCH   1  16
ATOM     16  N   UNL     1      -8.928  -8.538 -22.275  1.00  0.00    -0.322 N 
BRANCH  16  17
ATOM     17  C   UNL     1      -9.559  -9.659 -21.587  1.00  0.00     0.125 C 
BRANCH  17  18
ATOM     18  C   UNL     1     -10.985  -9.330 -21.132  1.00  0.00     0.063 C 
BRANCH  18  19
ATOM     19  C   UNL     1     -11.099  -9.072 -19.633  1.00  0.00     0.231 C 
BRANCH  19  20
ATOM     20  O   UNL     1     -10.568  -7.779 -19.344  1.00  0.00    -0.493 OA
BRANCH  20  21
ATOM     21  C   UNL     1     -10.999  -7.165 -18.196  1.00  0.00     0.122 A 
ATOM     22  C   UNL     1     -11.759  -7.781 -17.198  1.00  0.00     0.047 A 
ATOM     23  C   UNL     1     -10.642  -5.813 -18.057  1.00  0.00    -0.009 A 
ATOM     24  C   UNL     1     -12.150  -7.068 -16.060  1.00  0.00     0.007 A 
ATOM     25  C   UNL     1     -11.039  -5.106 -16.909  1.00  0.00     0.010 A 
ATOM     26  C   UNL     1     -11.781  -5.731 -15.899  1.00  0.00    -0.051 A 
ATOM     27  C   UNL     1      -9.838  -5.115 -19.118  1.00  0.00     0.048 C 
ATOM     28  C   UNL     1     -12.225  -4.959 -14.692  1.00  0.00     0.044 C 
ENDBRANCH  20  21
ENDBRANCH  19  20
ENDBRANCH  18  19
ENDBRANCH  17  18
ENDBRANCH  16  17
BRANCH  16  29
ATOM     29  C   UNL     1      -8.509  -8.701 -23.549  1.00  0.00     0.298 A 
ATOM     30  N   UNL     1      -7.517  -9.450 -23.992  1.00  0.00    -0.193 NA
ATOM     31  O   UNL     1      -9.161  -7.998 -24.532  1.00  0.00    -0.423 OA
ATOM     32  C   UNL     1      -7.532  -9.260 -25.347  1.00  0.00     0.111 A 
ATOM     33  C   UNL     1      -8.532  -8.367 -25.683  1.00  0.00     0.156 A 
ATOM     34  C   UNL     1      -6.738  -9.803 -26.365  1.00  0.00     0.032 A 
ATOM     35  C   UNL     1      -8.821  -7.945 -26.975  1.00  0.00     0.049 A 
ATOM     36  C   UNL     1      -7.001  -9.411 -27.687  1.00  0.00     0.003 A 
ATOM     37  C   UNL     1      -8.022  -8.498 -27.982  1.00  0.00     0.004 A 
ENDBRANCH  16  29
ENDBRANCH   1  16
TORSDOF 13
ENDMDL
MODEL 7
REMARK VINA RESULT:    -8.817      1.952      8.684
REMARK INTER + INTRA:         -16.070
REMARK INTER:                 -15.037
REMARK INTRA:                  -1.033
REMARK UNBOUND:                -0.811
REMARK SMILES CC[C@H](Oc1cccc(CN(CCCOc2ccc(C)cc2C)c2nc3ccccc3o2)c1)C(=O)O
REMARK SMILES IDX 10 1 9 2 5 3 6 4 33 5 7 6 8 7 4 8 3 9 2 10 1 11 34 12 35 13
REMARK SMILES IDX 36 14 11 16 12 17 13 18 14 19 15 20 16 21 17 22 22 23 18 24
REMARK SMILES IDX 21 25 19 26 23 27 20 28 24 29 25 30 32 31 26 32 31 33 27 34
REMARK SMILES IDX 30 35 28 36 29 37
REMARK H PARENT 36 15
ROOT
ATOM      1  C   UNL     1      -7.764  -6.073 -21.310  1.00  0.00     0.157 C 
ENDROOT
BRANCH   1   2
ATOM      2  C   UNL     1      -7.821  -7.402 -22.030  1.00  0.00    -0.025 A 
ATOM      3  C   UNL     1      -8.845  -8.857 -23.695  1.00  0.00     0.120 A 
ATOM      4  C   UNL     1      -7.950  -9.871 -23.366  1.00  0.00     0.046 A 
ATOM      5  C   UNL     1      -8.763  -7.622 -23.047  1.00  0.00     0.052 A 
ATOM      6  C   UNL     1      -7.008  -9.667 -22.356  1.00  0.00     0.004 A 
ATOM      7  C   UNL     1      -6.951  -8.445 -21.686  1.00  0.00     0.006 A 
BRANCH   3   8
ATOM      8  O   UNL     1      -9.806  -8.947 -24.664  1.00  0.00    -0.479 OA
BRANCH   8   9
ATOM      9  C   UNL     1      -9.599  -8.163 -25.841  1.00  0.00     0.282 C 
BRANCH   9  10
ATOM     10  C   UNL     1      -8.674  -8.960 -26.773  1.00  0.00     0.054 C 
ATOM     11  C   UNL     1      -7.490  -8.158 -27.300  1.00  0.00     0.008 C 
ENDBRANCH   9  10
BRANCH   9  12
ATOM     12  C   UNL     1     -10.910  -7.817 -26.548  1.00  0.00     0.344 C 
ATOM     13  O   UNL     1     -11.979  -8.400 -26.471  1.00  0.00    -0.248 OA
BRANCH  12  14
ATOM     14  O   UNL     1     -10.817  -6.700 -27.305  1.00  0.00    -0.479 OA
ATOM     15  H   UNL     1     -10.053  -6.882 -27.890  1.00  0.00     0.296 HD
ENDBRANCH  12  14
ENDBRANCH   9  12
ENDBRANCH   8   9
ENDBRANCH   3   8
ENDBRANCH   1   2
BRANCH   1  16
ATOM     16  N   UNL     1      -7.661  -6.248 -19.868  1.00  0.00    -0.322 N 
BRANCH  16  17
ATOM     17  C   UNL     1      -6.410  -5.902 -19.202  1.00  0.00     0.125 C 
BRANCH  17  18
ATOM     18  C   UNL     1      -5.191  -6.495 -19.915  1.00  0.00     0.063 C 
BRANCH  18  19
ATOM     19  C   UNL     1      -4.279  -5.441 -20.534  1.00  0.00     0.231 C 
BRANCH  19  20
ATOM     20  O   UNL     1      -5.036  -4.255 -20.773  1.00  0.00    -0.493 OA
BRANCH  20  21
ATOM     21  C   UNL     1      -4.351  -3.146 -21.197  1.00  0.00     0.122 A 
ATOM     22  C   UNL     1      -3.879  -2.948 -22.497  1.00  0.00     0.047 A 
ATOM     23  C   UNL     1      -4.113  -2.165 -20.220  1.00  0.00    -0.009 A 
ATOM     24  C   UNL     1      -3.190  -1.779 -22.834  1.00  0.00     0.007 A 
ATOM     25  C   UNL     1      -3.420  -0.993 -20.569  1.00  0.00     0.010 A 
ATOM     26  C   UNL     1      -2.968  -0.786 -21.878  1.00  0.00    -0.051 A 
ATOM     27  C   UNL     1      -4.593  -2.352 -18.808  1.00  0.00     0.048 C 
ATOM     28  C   UNL     1      -2.204   0.455 -22.232  1.00  0.00     0.044 C 
ENDBRANCH  20  21
ENDBRANCH  19  20
ENDBRANCH  18  19
ENDBRANCH  17  18
ENDBRANCH  16  17
BRANCH  16  29
ATOM     29  C   UNL     1      -8.731  -6.595 -19.118  1.00  0.00     0.298 A 
ATOM     30  N   UNL     1      -9.057  -6.164 -17.915  1.00  0.00    -0.193 NA
ATOM     31  O   UNL     1      -9.597  -7.528 -19.632  1.00  0.00    -0.423 OA
ATOM     32  C   UNL     1     -10.223  -6.822 -17.628  1.00  0.00     0.111 A 
ATOM     33  C   UNL     1     -10.554  -7.663 -18.673  1.00  0.00     0.156 A 
ATOM     34  C   UNL     1     -11.064  -6.765 -16.510  1.00  0.00     0.032 A 
ATOM     35  C   UNL     1     -11.675  -8.483 -18.709  1.00  0.00     0.049 A 
ATOM     36  C   UNL     1     -12.212  -7.572 -16.507  1.00  0.00     0.003 A 
ATOM     37  C   UNL     1     -12.509  -8.414 -17.587  1.00  0.00     0.004 A 
ENDBRANCH  16  29
ENDBRANCH   1  16
TORSDOF 13
ENDMDL
MODEL 8
REMARK VINA RESULT:    -8.732      1.882      6.674
REMARK INTER + INTRA:         -15.923
REMARK INTER:                 -14.389
REMARK INTRA:                  -1.534
REMARK UNBOUND:                -0.811
REMARK SMILES CC[C@H](Oc1cccc(CN(CCCOc2ccc(C)cc2C)c2nc3ccccc3o2)c1)C(=O)O
REMARK SMILES IDX 10 1 9 2 5 3 6 4 33 5 7 6 8 7 4 8 3 9 2 10 1 11 34 12 35 13
REMARK SMILES IDX 36 14 11 16 12 17 13 18 14 19 15 20 16 21 17 22 22 23 18 24
REMARK SMILES IDX 21 25 19 26 23 27 20 28 24 29 25 30 32 31 26 32 31 33 27 34
REMARK SMILES IDX 30 35 28 36 29 37
REMARK H PARENT 36 15
ROOT
ATOM      1  C   UNL     1      -6.862  -7.681 -20.923  1.00  0.00     0.157 C 
ENDROOT
BRANCH   1   2
ATOM      2  C   UNL     1      -8.018  -8.061 -21.822  1.00  0.00    -0.025 A 
ATOM      3  C   UNL     1      -9.097  -8.011 -24.007  1.00  0.00     0.120 A 
ATOM      4  C   UNL     1     -10.166  -8.745 -23.500  1.00  0.00     0.046 A 
ATOM      5  C   UNL     1      -8.019  -7.693 -23.177  1.00  0.00     0.052 A 
ATOM      6  C   UNL     1     -10.180  -9.117 -22.155  1.00  0.00     0.004 A 
ATOM      7  C   UNL     1      -9.118  -8.769 -21.319  1.00  0.00     0.006 A 
BRANCH   3   8
ATOM      8  O   UNL     1      -8.980  -7.594 -25.304  1.00  0.00    -0.479 OA
BRANCH   8   9
ATOM      9  C   UNL     1      -8.844  -8.617 -26.292  1.00  0.00     0.282 C 
BRANCH   9  10
ATOM     10  C   UNL     1      -9.733  -8.234 -27.485  1.00  0.00     0.054 C 
ATOM     11  C   UNL     1     -11.221  -8.192 -27.156  1.00  0.00     0.008 C 
ENDBRANCH   9  10
BRANCH   9  12
ATOM     12  C   UNL     1      -7.393  -8.806 -26.738  1.00  0.00     0.344 C 
ATOM     13  O   UNL     1      -6.588  -9.631 -26.339  1.00  0.00    -0.248 OA
BRANCH  12  14
ATOM     14  O   UNL     1      -7.032  -7.948 -27.720  1.00  0.00    -0.479 OA
ATOM     15  H   UNL     1      -6.352  -7.385 -27.295  1.00  0.00     0.296 HD
ENDBRANCH  12  14
ENDBRANCH   9  12
ENDBRANCH   8   9
ENDBRANCH   3   8
ENDBRANCH   1   2
BRANCH   1  16
ATOM     16  N   UNL     1      -7.150  -6.475 -20.160  1.00  0.00    -0.322 N 
BRANCH  16  17
ATOM     17  C   UNL     1      -8.302  -6.464 -19.264  1.00  0.00     0.125 C 
BRANCH  17  18
ATOM     18  C   UNL     1      -9.183  -5.228 -19.469  1.00  0.00     0.063 C 
BRANCH  18  19
ATOM     19  C   UNL     1     -10.311  -5.111 -18.447  1.00  0.00     0.231 C 
BRANCH  19  20
ATOM     20  O   UNL     1     -10.251  -6.229 -17.562  1.00  0.00    -0.493 OA
BRANCH  20  21
ATOM     21  C   UNL     1     -11.428  -6.643 -16.992  1.00  0.00     0.122 A 
ATOM     22  C   UNL     1     -12.193  -5.886 -16.101  1.00  0.00     0.047 A 
ATOM     23  C   UNL     1     -11.854  -7.935 -17.343  1.00  0.00    -0.009 A 
ATOM     24  C   UNL     1     -13.382  -6.398 -15.573  1.00  0.00     0.007 A 
ATOM     25  C   UNL     1     -13.051  -8.439 -16.808  1.00  0.00     0.010 A 
ATOM     26  C   UNL     1     -13.829  -7.671 -15.933  1.00  0.00    -0.051 A 
ATOM     27  C   UNL     1     -11.047  -8.782 -18.287  1.00  0.00     0.048 C 
ATOM     28  C   UNL     1     -15.090  -8.230 -15.345  1.00  0.00     0.044 C 
ENDBRANCH  20  21
ENDBRANCH  19  20
ENDBRANCH  18  19
ENDBRANCH  17  18
ENDBRANCH  16  17
BRANCH  16  29
ATOM     29  C   UNL     1      -6.308  -5.418 -20.160  1.00  0.00     0.298 A 
ATOM     30  N   UNL     1      -5.999  -4.622 -19.154  1.00  0.00    -0.193 NA
ATOM     31  O   UNL     1      -5.697  -5.087 -21.344  1.00  0.00    -0.423 OA
ATOM     32  C   UNL     1      -5.106  -3.734 -19.691  1.00  0.00     0.111 A 
ATOM     33  C   UNL     1      -4.923  -4.010 -21.033  1.00  0.00     0.156 A 
ATOM     34  C   UNL     1      -4.404  -2.668 -19.116  1.00  0.00     0.032 A 
ATOM     35  C   UNL     1      -4.086  -3.298 -21.884  1.00  0.00     0.049 A 
ATOM     36  C   UNL     1      -3.541  -1.926 -19.938  1.00  0.00     0.003 A 
ATOM     37  C   UNL     1      -3.388  -2.237 -21.295  1.00  0.00     0.004 A 
ENDBRANCH  16  29
ENDBRANCH   1  16
TORSDOF 13
ENDMDL
MODEL 9
REMARK VINA RESULT:    -8.609      3.861      9.215
REMARK INTER + INTRA:         -15.711
REMARK INTER:                 -14.059
REMARK INTRA:                  -1.652
REMARK UNBOUND:                -0.811
REMARK SMILES CC[C@H](Oc1cccc(CN(CCCOc2ccc(C)cc2C)c2nc3ccccc3o2)c1)C(=O)O
REMARK SMILES IDX 10 1 9 2 5 3 6 4 33 5 7 6 8 7 4 8 3 9 2 10 1 11 34 12 35 13
REMARK SMILES IDX 36 14 11 16 12 17 13 18 14 19 15 20 16 21 17 22 22 23 18 24
REMARK SMILES IDX 21 25 19 26 23 27 20 28 24 29 25 30 32 31 26 32 31 33 27 34
REMARK SMILES IDX 30 35 28 36 29 37
REMARK H PARENT 36 15
ROOT
ATOM      1  C   UNL     1     -10.296  -8.827 -23.764  1.00  0.00     0.157 C 
ENDROOT
BRANCH   1   2
ATOM      2  C   UNL     1      -8.999  -8.819 -22.986  1.00  0.00    -0.025 A 
ATOM      3  C   UNL     1      -7.291  -7.603 -21.744  1.00  0.00     0.120 A 
ATOM      4  C   UNL     1      -6.583  -8.786 -21.552  1.00  0.00     0.046 A 
ATOM      5  C   UNL     1      -8.504  -7.627 -22.436  1.00  0.00     0.052 A 
ATOM      6  C   UNL     1      -7.061  -9.981 -22.094  1.00  0.00     0.004 A 
ATOM      7  C   UNL     1      -8.256  -9.995 -22.815  1.00  0.00     0.006 A 
BRANCH   3   8
ATOM      8  O   UNL     1      -6.916  -6.380 -21.261  1.00  0.00    -0.479 OA
BRANCH   8   9
ATOM      9  C   UNL     1      -7.055  -6.183 -19.852  1.00  0.00     0.282 C 
BRANCH   9  10
ATOM     10  C   UNL     1      -6.043  -5.106 -19.431  1.00  0.00     0.054 C 
ATOM     11  C   UNL     1      -5.263  -4.505 -20.594  1.00  0.00     0.008 C 
ENDBRANCH   9  10
BRANCH   9  12
ATOM     12  C   UNL     1      -8.475  -5.773 -19.458  1.00  0.00     0.344 C 
ATOM     13  O   UNL     1      -9.293  -6.421 -18.828  1.00  0.00    -0.248 OA
BRANCH  12  14
ATOM     14  O   UNL     1      -8.786  -4.518 -19.856  1.00  0.00    -0.479 OA
ATOM     15  H   UNL     1      -8.102  -4.313 -20.526  1.00  0.00     0.296 HD
ENDBRANCH  12  14
ENDBRANCH   9  12
ENDBRANCH   8   9
ENDBRANCH   3   8
ENDBRANCH   1   2
BRANCH   1  16
ATOM     16  N   UNL     1     -10.212  -7.995 -24.956  1.00  0.00    -0.322 N 
BRANCH  16  17
ATOM     17  C   UNL     1      -8.964  -7.968 -25.712  1.00  0.00     0.125 C 
BRANCH  17  18
ATOM     18  C   UNL     1      -8.668  -9.311 -26.387  1.00  0.00     0.063 C 
BRANCH  18  19
ATOM     19  C   UNL     1      -7.903  -9.175 -27.700  1.00  0.00     0.231 C 
BRANCH  19  20
ATOM     20  O   UNL     1      -8.798  -9.418 -28.784  1.00  0.00    -0.493 OA
BRANCH  20  21
ATOM     21  C   UNL     1      -8.544  -8.772 -29.967  1.00  0.00     0.122 A 
ATOM     22  C   UNL     1      -7.428  -9.000 -30.777  1.00  0.00     0.047 A 
ATOM     23  C   UNL     1      -9.490  -7.807 -30.351  1.00  0.00    -0.009 A 
ATOM     24  C   UNL     1      -7.257  -8.289 -31.968  1.00  0.00     0.007 A 
ATOM     25  C   UNL     1      -9.309  -7.098 -31.551  1.00  0.00     0.010 A 
ATOM     26  C   UNL     1      -8.203  -7.344 -32.373  1.00  0.00    -0.051 A 
ATOM     27  C   UNL     1     -10.693  -7.526 -29.495  1.00  0.00     0.048 C 
ATOM     28  C   UNL     1      -8.005  -6.561 -33.637  1.00  0.00     0.044 C 
ENDBRANCH  20  21
ENDBRANCH  19  20
ENDBRANCH  18  19
ENDBRANCH  17  18
ENDBRANCH  16  17
BRANCH  16  29
ATOM     29  C   UNL     1     -11.293  -7.353 -25.451  1.00  0.00     0.298 A 
ATOM     30  N   UNL     1     -12.564  -7.683 -25.327  1.00  0.00    -0.193 NA
ATOM     31  O   UNL     1     -11.079  -6.225 -26.203  1.00  0.00    -0.423 OA
ATOM     32  C   UNL     1     -13.234  -6.700 -26.005  1.00  0.00     0.111 A 
ATOM     33  C   UNL     1     -12.328  -5.808 -26.549  1.00  0.00     0.156 A 
ATOM     34  C   UNL     1     -14.602  -6.485 -26.208  1.00  0.00     0.032 A 
ATOM     35  C   UNL     1     -12.667  -4.693 -27.305  1.00  0.00     0.049 A 
ATOM     36  C   UNL     1     -14.990  -5.366 -26.960  1.00  0.00     0.003 A 
ATOM     37  C   UNL     1     -14.039  -4.489 -27.497  1.00  0.00     0.004 A 
ENDBRANCH  16  29
ENDBRANCH   1  16
TORSDOF 13
ENDMDL
