REMARK SMILES O=C(O)COc1ccc(CCc2ccc(N3C(=O)c4ccccc4C3=O)cc2)cc1
REMARK SMILES IDX 6 1 7 2 8 3 9 4 29 5 30 6 5 7 4 8 2 9 1 10 3 11 10 13 11 14
REMARK SMILES IDX 12 15 13 16 28 17 14 18 27 19 15 20 16 21 17 22 25 23 18 24
REMARK SMILES IDX 19 25 24 26 26 27 20 28 23 29 21 30 22 31
REMARK H PARENT 3 12
REMARK INDEX MAP 6 1 7 2 8 3 9 4 29 5 30 6 5 7 4 8 2 9 1 10 3 11 31 12 10 13
REMARK INDEX MAP 11 14 12 15 13 16 28 17 14 18 27 19 15 20 16 21 17 22 25 23
REMARK INDEX MAP 18 24 19 25 24 26 26 27 20 28 23 29 21 30 22 31
ROOT
ATOM      1  C   UNL     1      10.820   2.128  -2.700  1.00  0.00     0.120 A 
ATOM      2  C   UNL     1       9.702   2.953  -2.577  1.00  0.00     0.047 A 
ATOM      3  C   UNL     1       9.051   3.431  -3.719  1.00  0.00     0.007 A 
ATOM      4  C   UNL     1       9.510   3.093  -4.999  1.00  0.00    -0.047 A 
ATOM      5  C   UNL     1      10.630   2.264  -5.116  1.00  0.00     0.007 A 
ATOM      6  C   UNL     1      11.278   1.787  -3.975  1.00  0.00     0.047 A 
ENDROOT
BRANCH   1   7
ATOM      7  O   UNL     1      11.546   1.591  -1.673  1.00  0.00    -0.482 OA
BRANCH   7   8
ATOM      8  C   UNL     1      12.707   0.850  -2.022  1.00  0.00     0.351 C 
BRANCH   8   9
ATOM      9  C   UNL     1      13.948   1.707  -1.852  1.00  0.00     0.341 C 
ATOM     10  O   UNL     1      14.227   2.756  -2.408  1.00  0.00    -0.248 OA
BRANCH   9  11
ATOM     11  O   UNL     1      14.809   1.176  -0.953  1.00  0.00    -0.479 OA
ATOM     12  H   UNL     1      14.588   0.325  -0.499  1.00  0.00     0.296 HD
ENDBRANCH   9  11
ENDBRANCH   8   9
ENDBRANCH   7   8
ENDBRANCH   1   7
BRANCH   4  13
ATOM     13  C   UNL     1       8.792   3.593  -6.231  1.00  0.00     0.040 C 
BRANCH  13  14
ATOM     14  C   UNL     1       9.475   3.190  -7.544  1.00  0.00     0.040 C 
BRANCH  14  15
ATOM     15  C   UNL     1       9.751   4.356  -8.462  1.00  0.00    -0.048 A 
ATOM     16  C   UNL     1       9.758   4.189  -9.847  1.00  0.00     0.006 A 
ATOM     17  C   UNL     1       9.976   5.633  -7.947  1.00  0.00     0.006 A 
ATOM     18  C   UNL     1       9.993   5.279 -10.698  1.00  0.00     0.027 A 
ATOM     19  C   UNL     1      10.210   6.719  -8.803  1.00  0.00     0.027 A 
ATOM     20  C   UNL     1      10.225   6.572 -10.199  1.00  0.00     0.052 A 
BRANCH  20  21
ATOM     21  N   UNL     1      10.459   7.684 -11.071  1.00  0.00    -0.242 N 
ATOM     22  C   UNL     1      11.157   7.626 -12.262  1.00  0.00     0.266 C 
ATOM     23  C   UNL     1      10.021   8.975 -10.845  1.00  0.00     0.266 C 
ATOM     24  O   UNL     1      11.709   6.709 -12.846  1.00  0.00    -0.268 OA
ATOM     25  C   UNL     1      11.156   8.968 -12.832  1.00  0.00     0.053 A 
ATOM     26  C   UNL     1      10.464   9.788 -11.972  1.00  0.00     0.053 A 
ATOM     27  O   UNL     1       9.393   9.483  -9.931  1.00  0.00    -0.268 OA
ATOM     28  C   UNL     1      11.709   9.442 -14.007  1.00  0.00     0.015 A 
ATOM     29  C   UNL     1      10.281  11.133 -12.232  1.00  0.00     0.015 A 
ATOM     30  C   UNL     1      11.540  10.800 -14.295  1.00  0.00     0.001 A 
ATOM     31  C   UNL     1      10.830  11.639 -13.414  1.00  0.00     0.001 A 
ENDBRANCH  20  21
ENDBRANCH  14  15
ENDBRANCH  13  14
ENDBRANCH   4  13
TORSDOF 8
