MODEL 1
REMARK VINA RESULT:   -10.266      0.000      0.000
REMARK INTER + INTRA:         -17.166
REMARK INTER:                 -16.567
REMARK INTRA:                  -0.598
REMARK UNBOUND:                -0.598
REMARK SMILES Cc1oc(-c2ccccc2)nc1CCOc1cccc(C[C@@H]2C(=O)N(c3ccc(C(C)(C)C)cc3)[C@@H]2C(=O)O)c1
REMARK SMILES IDX 16 1 17 2 18 3 19 4 20 5 40 6 15 7 14 8 13 9 12 10 2 11 3 12
REMARK SMILES IDX 4 13 11 14 1 15 5 16 6 17 10 18 7 19 9 20 8 21 21 22 22 23
REMARK SMILES IDX 23 24 36 25 24 26 25 27 37 28 38 29 39 30 26 32 27 33 35 34
REMARK SMILES IDX 28 35 34 36 29 37 30 38 31 39 32 40 33 41
REMARK H PARENT 39 31
ROOT
ATOM      1  C   UNL     1       8.614   2.903  -3.450  1.00  0.00     0.119 A 
ATOM      2  C   UNL     1       9.754   2.121  -3.255  1.00  0.00     0.046 A 
ATOM      3  C   UNL     1      10.663   1.921  -4.294  1.00  0.00     0.004 A 
ATOM      4  C   UNL     1      10.437   2.504  -5.539  1.00  0.00     0.004 A 
ATOM      5  C   UNL     1       9.311   3.312  -5.749  1.00  0.00    -0.043 A 
ATOM      6  C   UNL     1       8.405   3.510  -4.690  1.00  0.00     0.050 A 
ENDROOT
BRANCH   1   7
ATOM      7  O   UNL     1       7.788   2.985  -2.364  1.00  0.00    -0.493 OA
BRANCH   7   8
ATOM      8  C   UNL     1       7.589   4.277  -1.780  1.00  0.00     0.236 C 
BRANCH   8   9
ATOM      9  C   UNL     1       6.252   4.277  -1.039  1.00  0.00     0.101 C 
BRANCH   9  10
ATOM     10  C   UNL     1       5.292   5.245  -1.640  1.00  0.00     0.086 A 
ATOM     11  C   UNL     1       4.112   5.748  -1.137  1.00  0.00     0.125 A 
ATOM     12  O   UNL     1       3.567   6.567  -2.084  1.00  0.00    -0.441 OA
ATOM     13  C   UNL     1       4.455   6.520  -3.130  1.00  0.00     0.226 A 
ATOM     14  N   UNL     1       5.505   5.750  -2.905  1.00  0.00    -0.214 NA
ATOM     15  C   UNL     1       3.352   5.573   0.113  1.00  0.00     0.090 C 
BRANCH  13  16
ATOM     16  C   UNL     1       4.117   7.294  -4.321  1.00  0.00     0.037 A 
ATOM     17  C   UNL     1       2.986   6.946  -5.076  1.00  0.00     0.014 A 
ATOM     18  C   UNL     1       4.883   8.395  -4.735  1.00  0.00     0.014 A 
ATOM     19  C   UNL     1       2.629   7.677  -6.213  1.00  0.00     0.001 A 
ATOM     20  C   UNL     1       4.527   9.127  -5.871  1.00  0.00     0.001 A 
ATOM     21  C   UNL     1       3.400   8.768  -6.607  1.00  0.00     0.000 A 
ENDBRANCH  13  16
ENDBRANCH   9  10
ENDBRANCH   8   9
ENDBRANCH   7   8
ENDBRANCH   1   7
BRANCH   5  22
ATOM     22  C   UNL     1       9.048   3.926  -7.104  1.00  0.00     0.052 C 
BRANCH  22  23
ATOM     23  C   UNL     1      10.090   4.984  -7.440  1.00  0.00     0.118 C 
ATOM     24  C   UNL     1       9.461   6.341  -7.809  1.00  0.00     0.233 C 
ATOM     25  C   UNL     1      10.778   5.067  -8.841  1.00  0.00     0.213 C 
ATOM     26  O   UNL     1       8.680   7.086  -7.267  1.00  0.00    -0.274 OA
ATOM     27  N   UNL     1      10.130   6.377  -8.985  1.00  0.00    -0.297 N 
BRANCH  25  28
ATOM     28  C   UNL     1      10.406   4.010  -9.932  1.00  0.00     0.327 C 
ATOM     29  O   UNL     1       9.334   3.458 -10.141  1.00  0.00    -0.250 OA
BRANCH  28  30
ATOM     30  O   UNL     1      11.447   3.703 -10.750  1.00  0.00    -0.480 OA
ATOM     31  H   UNL     1      11.422   4.410 -11.432  1.00  0.00     0.296 HD
ENDBRANCH  28  30
ENDBRANCH  25  28
BRANCH  27  32
ATOM     32  C   UNL     1      10.171   7.315 -10.016  1.00  0.00     0.045 A 
ATOM     33  C   UNL     1      10.189   6.909 -11.350  1.00  0.00     0.026 A 
ATOM     34  C   UNL     1      10.190   8.682  -9.738  1.00  0.00     0.026 A 
ATOM     35  C   UNL     1      10.212   7.858 -12.383  1.00  0.00     0.006 A 
ATOM     36  C   UNL     1      10.213   9.630 -10.772  1.00  0.00     0.006 A 
ATOM     37  C   UNL     1      10.223   9.240 -12.119  1.00  0.00    -0.042 A 
BRANCH  37  38
ATOM     38  C   UNL     1      10.240  10.255 -13.276  1.00  0.00    -0.013 C 
ATOM     39  C   UNL     1       8.839  10.323 -13.921  1.00  0.00     0.016 C 
ATOM     40  C   UNL     1      10.623  11.651 -12.740  1.00  0.00     0.016 C 
ATOM     41  C   UNL     1      11.245   9.909 -14.398  1.00  0.00     0.016 C 
ENDBRANCH  37  38
ENDBRANCH  27  32
ENDBRANCH  22  23
ENDBRANCH   5  22
TORSDOF 11
ENDMDL
MODEL 2
REMARK VINA RESULT:    -9.490      2.396      9.630
REMARK INTER + INTRA:         -15.914
REMARK INTER:                 -14.972
REMARK INTRA:                  -0.943
REMARK UNBOUND:                -0.598
REMARK SMILES Cc1oc(-c2ccccc2)nc1CCOc1cccc(C[C@@H]2C(=O)N(c3ccc(C(C)(C)C)cc3)[C@@H]2C(=O)O)c1
REMARK SMILES IDX 16 1 17 2 18 3 19 4 20 5 40 6 15 7 14 8 13 9 12 10 2 11 3 12
REMARK SMILES IDX 4 13 11 14 1 15 5 16 6 17 10 18 7 19 9 20 8 21 21 22 22 23
REMARK SMILES IDX 23 24 36 25 24 26 25 27 37 28 38 29 39 30 26 32 27 33 35 34
REMARK SMILES IDX 28 35 34 36 29 37 30 38 31 39 32 40 33 41
REMARK H PARENT 39 31
ROOT
ATOM      1  C   UNL     1      11.592   5.698 -10.816  1.00  0.00     0.119 A 
ATOM      2  C   UNL     1      11.271   4.492 -11.441  1.00  0.00     0.046 A 
ATOM      3  C   UNL     1      10.457   3.557 -10.803  1.00  0.00     0.004 A 
ATOM      4  C   UNL     1       9.955   3.824  -9.531  1.00  0.00     0.004 A 
ATOM      5  C   UNL     1      10.245   5.039  -8.896  1.00  0.00    -0.043 A 
ATOM      6  C   UNL     1      11.063   5.976  -9.554  1.00  0.00     0.050 A 
ENDROOT
BRANCH   1   7
ATOM      7  O   UNL     1      12.429   6.506 -11.534  1.00  0.00    -0.493 OA
BRANCH   7   8
ATOM      8  C   UNL     1      11.911   7.099 -12.730  1.00  0.00     0.236 C 
BRANCH   8   9
ATOM      9  C   UNL     1      10.493   7.599 -12.452  1.00  0.00     0.101 C 
BRANCH   9  10
ATOM     10  C   UNL     1      10.501   8.945 -11.813  1.00  0.00     0.086 A 
ATOM     11  C   UNL     1      10.568  10.196 -12.388  1.00  0.00     0.125 A 
ATOM     12  O   UNL     1      10.594  11.119 -11.382  1.00  0.00    -0.441 OA
ATOM     13  C   UNL     1      10.542  10.373 -10.231  1.00  0.00     0.226 A 
ATOM     14  N   UNL     1      10.476   9.071 -10.441  1.00  0.00    -0.214 NA
ATOM     15  C   UNL     1      10.644  10.708 -13.767  1.00  0.00     0.090 C 
BRANCH  13  16
ATOM     16  C   UNL     1      10.583  11.103  -8.967  1.00  0.00     0.037 A 
ATOM     17  C   UNL     1      10.176  12.446  -8.929  1.00  0.00     0.014 A 
ATOM     18  C   UNL     1      11.006  10.499  -7.772  1.00  0.00     0.014 A 
ATOM     19  C   UNL     1      10.190  13.167  -7.731  1.00  0.00     0.001 A 
ATOM     20  C   UNL     1      11.019  11.218  -6.574  1.00  0.00     0.001 A 
ATOM     21  C   UNL     1      10.610  12.550  -6.555  1.00  0.00     0.000 A 
ENDBRANCH  13  16
ENDBRANCH   9  10
ENDBRANCH   8   9
ENDBRANCH   7   8
ENDBRANCH   1   7
BRANCH   5  22
ATOM     22  C   UNL     1       9.723   5.323  -7.506  1.00  0.00     0.052 C 
BRANCH  22  23
ATOM     23  C   UNL     1       8.234   5.023  -7.406  1.00  0.00     0.118 C 
ATOM     24  C   UNL     1       7.449   6.144  -6.697  1.00  0.00     0.233 C 
ATOM     25  C   UNL     1       7.640   4.087  -6.304  1.00  0.00     0.213 C 
ATOM     26  O   UNL     1       7.338   7.335  -6.867  1.00  0.00    -0.274 OA
ATOM     27  N   UNL     1       6.926   5.270  -5.806  1.00  0.00    -0.297 N 
BRANCH  25  28
ATOM     28  C   UNL     1       8.610   3.409  -5.282  1.00  0.00     0.327 C 
ATOM     29  O   UNL     1       9.355   3.928  -4.461  1.00  0.00    -0.250 OA
BRANCH  28  30
ATOM     30  O   UNL     1       8.578   2.052  -5.340  1.00  0.00    -0.480 OA
ATOM     31  H   UNL     1       8.021   1.867  -6.127  1.00  0.00     0.296 HD
ENDBRANCH  28  30
ENDBRANCH  25  28
BRANCH  27  32
ATOM     32  C   UNL     1       6.039   5.429  -4.742  1.00  0.00     0.045 A 
ATOM     33  C   UNL     1       6.459   5.233  -3.427  1.00  0.00     0.026 A 
ATOM     34  C   UNL     1       4.710   5.791  -4.969  1.00  0.00     0.026 A 
ATOM     35  C   UNL     1       5.566   5.412  -2.360  1.00  0.00     0.006 A 
ATOM     36  C   UNL     1       3.818   5.971  -3.901  1.00  0.00     0.006 A 
ATOM     37  C   UNL     1       4.225   5.786  -2.571  1.00  0.00    -0.042 A 
BRANCH  37  38
ATOM     38  C   UNL     1       3.273   5.982  -1.378  1.00  0.00    -0.013 C 
ATOM     39  C   UNL     1       3.168   7.486  -1.045  1.00  0.00     0.016 C 
ATOM     40  C   UNL     1       1.873   5.438  -1.732  1.00  0.00     0.016 C 
ATOM     41  C   UNL     1       3.727   5.259  -0.089  1.00  0.00     0.016 C 
ENDBRANCH  37  38
ENDBRANCH  27  32
ENDBRANCH  22  23
ENDBRANCH   5  22
TORSDOF 11
ENDMDL
MODEL 3
REMARK VINA RESULT:    -9.486      2.822      8.484
REMARK INTER + INTRA:         -15.908
REMARK INTER:                 -13.380
REMARK INTRA:                  -2.528
REMARK UNBOUND:                -0.598
REMARK SMILES Cc1oc(-c2ccccc2)nc1CCOc1cccc(C[C@@H]2C(=O)N(c3ccc(C(C)(C)C)cc3)[C@@H]2C(=O)O)c1
REMARK SMILES IDX 16 1 17 2 18 3 19 4 20 5 40 6 15 7 14 8 13 9 12 10 2 11 3 12
REMARK SMILES IDX 4 13 11 14 1 15 5 16 6 17 10 18 7 19 9 20 8 21 21 22 22 23
REMARK SMILES IDX 23 24 36 25 24 26 25 27 37 28 38 29 39 30 26 32 27 33 35 34
REMARK SMILES IDX 28 35 34 36 29 37 30 38 31 39 32 40 33 41
REMARK H PARENT 39 31
ROOT
ATOM      1  C   UNL     1      10.461   8.559  -9.717  1.00  0.00     0.119 A 
ATOM      2  C   UNL     1      10.701   7.951 -10.950  1.00  0.00     0.046 A 
ATOM      3  C   UNL     1      10.660   6.563 -11.078  1.00  0.00     0.004 A 
ATOM      4  C   UNL     1      10.375   5.770  -9.968  1.00  0.00     0.004 A 
ATOM      5  C   UNL     1      10.107   6.361  -8.726  1.00  0.00    -0.043 A 
ATOM      6  C   UNL     1      10.146   7.763  -8.613  1.00  0.00     0.050 A 
ENDROOT
BRANCH   1   7
ATOM      7  O   UNL     1      10.572   9.921  -9.723  1.00  0.00    -0.493 OA
BRANCH   7   8
ATOM      8  C   UNL     1      11.121  10.546  -8.557  1.00  0.00     0.236 C 
BRANCH   8   9
ATOM      9  C   UNL     1      10.198  11.690  -8.136  1.00  0.00     0.101 C 
BRANCH   9  10
ATOM     10  C   UNL     1       9.713  11.517  -6.738  1.00  0.00     0.086 A 
ATOM     11  C   UNL     1      10.289  11.906  -5.548  1.00  0.00     0.125 A 
ATOM     12  O   UNL     1       9.483  11.479  -4.532  1.00  0.00    -0.441 OA
ATOM     13  C   UNL     1       8.444  10.842  -5.163  1.00  0.00     0.226 A 
ATOM     14  N   UNL     1       8.535  10.849  -6.481  1.00  0.00    -0.214 NA
ATOM     15  C   UNL     1      11.525  12.612  -5.169  1.00  0.00     0.090 C 
BRANCH  13  16
ATOM     16  C   UNL     1       7.417  10.247  -4.312  1.00  0.00     0.037 A 
ATOM     17  C   UNL     1       7.604  10.212  -2.922  1.00  0.00     0.014 A 
ATOM     18  C   UNL     1       6.230   9.714  -4.841  1.00  0.00     0.014 A 
ATOM     19  C   UNL     1       6.632   9.661  -2.081  1.00  0.00     0.001 A 
ATOM     20  C   UNL     1       5.258   9.164  -4.001  1.00  0.00     0.001 A 
ATOM     21  C   UNL     1       5.460   9.140  -2.623  1.00  0.00     0.000 A 
ENDBRANCH  13  16
ENDBRANCH   9  10
ENDBRANCH   8   9
ENDBRANCH   7   8
ENDBRANCH   1   7
BRANCH   5  22
ATOM     22  C   UNL     1       9.822   5.505  -7.513  1.00  0.00     0.052 C 
BRANCH  22  23
ATOM     23  C   UNL     1       8.351   5.117  -7.448  1.00  0.00     0.118 C 
ATOM     24  C   UNL     1       7.487   6.183  -6.747  1.00  0.00     0.233 C 
ATOM     25  C   UNL     1       7.791   4.137  -6.366  1.00  0.00     0.213 C 
ATOM     26  O   UNL     1       7.308   7.367  -6.909  1.00  0.00    -0.274 OA
ATOM     27  N   UNL     1       6.998   5.271  -5.874  1.00  0.00    -0.297 N 
BRANCH  25  28
ATOM     28  C   UNL     1       8.778   3.508  -5.329  1.00  0.00     0.327 C 
ATOM     29  O   UNL     1       9.595   4.062  -4.604  1.00  0.00    -0.250 OA
BRANCH  28  30
ATOM     30  O   UNL     1       8.669   2.157  -5.243  1.00  0.00    -0.480 OA
ATOM     31  H   UNL     1       9.553   1.873  -4.920  1.00  0.00     0.296 HD
ENDBRANCH  28  30
ENDBRANCH  25  28
BRANCH  27  32
ATOM     32  C   UNL     1       6.080   5.367  -4.829  1.00  0.00     0.045 A 
ATOM     33  C   UNL     1       6.473   5.135  -3.511  1.00  0.00     0.026 A 
ATOM     34  C   UNL     1       4.748   5.701  -5.076  1.00  0.00     0.026 A 
ATOM     35  C   UNL     1       5.550   5.251  -2.461  1.00  0.00     0.006 A 
ATOM     36  C   UNL     1       3.826   5.817  -4.026  1.00  0.00     0.006 A 
ATOM     37  C   UNL     1       4.205   5.596  -2.693  1.00  0.00    -0.042 A 
BRANCH  37  38
ATOM     38  C   UNL     1       3.219   5.723  -1.518  1.00  0.00    -0.013 C 
ATOM     39  C   UNL     1       2.982   7.216  -1.204  1.00  0.00     0.016 C 
ATOM     40  C   UNL     1       1.875   5.060  -1.891  1.00  0.00     0.016 C 
ATOM     41  C   UNL     1       3.708   5.052  -0.214  1.00  0.00     0.016 C 
ENDBRANCH  37  38
ENDBRANCH  27  32
ENDBRANCH  22  23
ENDBRANCH   5  22
TORSDOF 11
ENDMDL
MODEL 4
REMARK VINA RESULT:    -8.499      2.944      5.856
REMARK INTER + INTRA:         -14.314
REMARK INTER:                 -13.202
REMARK INTRA:                  -1.111
REMARK UNBOUND:                -0.598
REMARK SMILES Cc1oc(-c2ccccc2)nc1CCOc1cccc(C[C@@H]2C(=O)N(c3ccc(C(C)(C)C)cc3)[C@@H]2C(=O)O)c1
REMARK SMILES IDX 16 1 17 2 18 3 19 4 20 5 40 6 15 7 14 8 13 9 12 10 2 11 3 12
REMARK SMILES IDX 4 13 11 14 1 15 5 16 6 17 10 18 7 19 9 20 8 21 21 22 22 23
REMARK SMILES IDX 23 24 36 25 24 26 25 27 37 28 38 29 39 30 26 32 27 33 35 34
REMARK SMILES IDX 28 35 34 36 29 37 30 38 31 39 32 40 33 41
REMARK H PARENT 39 31
ROOT
ATOM      1  C   UNL     1       5.714  10.235  -4.187  1.00  0.00     0.119 A 
ATOM      2  C   UNL     1       5.856   9.957  -2.827  1.00  0.00     0.046 A 
ATOM      3  C   UNL     1       7.113   9.987  -2.224  1.00  0.00     0.004 A 
ATOM      4  C   UNL     1       8.241  10.297  -2.981  1.00  0.00     0.004 A 
ATOM      5  C   UNL     1       8.117  10.604  -4.343  1.00  0.00    -0.043 A 
ATOM      6  C   UNL     1       6.841  10.576  -4.937  1.00  0.00     0.050 A 
ENDROOT
BRANCH   1   7
ATOM      7  O   UNL     1       4.434  10.132  -4.658  1.00  0.00    -0.493 OA
BRANCH   7   8
ATOM      8  C   UNL     1       3.667   8.996  -4.245  1.00  0.00     0.236 C 
BRANCH   8   9
ATOM      9  C   UNL     1       3.535   8.039  -5.430  1.00  0.00     0.101 C 
BRANCH   9  10
ATOM     10  C   UNL     1       4.452   6.873  -5.298  1.00  0.00     0.086 A 
ATOM     11  C   UNL     1       4.398   5.798  -4.436  1.00  0.00     0.125 A 
ATOM     12  O   UNL     1       5.494   5.017  -4.670  1.00  0.00    -0.441 OA
ATOM     13  C   UNL     1       6.169   5.665  -5.674  1.00  0.00     0.226 A 
ATOM     14  N   UNL     1       5.578   6.773  -6.086  1.00  0.00    -0.214 NA
ATOM     15  C   UNL     1       3.483   5.363  -3.368  1.00  0.00     0.090 C 
BRANCH  13  16
ATOM     16  C   UNL     1       7.422   5.065  -6.124  1.00  0.00     0.037 A 
ATOM     17  C   UNL     1       7.879   3.883  -5.522  1.00  0.00     0.014 A 
ATOM     18  C   UNL     1       8.186   5.628  -7.159  1.00  0.00     0.014 A 
ATOM     19  C   UNL     1       9.067   3.277  -5.942  1.00  0.00     0.001 A 
ATOM     20  C   UNL     1       9.374   5.023  -7.579  1.00  0.00     0.001 A 
ATOM     21  C   UNL     1       9.812   3.848  -6.971  1.00  0.00     0.000 A 
ENDBRANCH  13  16
ENDBRANCH   9  10
ENDBRANCH   8   9
ENDBRANCH   7   8
ENDBRANCH   1   7
BRANCH   5  22
ATOM     22  C   UNL     1       9.340  10.918  -5.173  1.00  0.00     0.052 C 
BRANCH  22  23
ATOM     23  C   UNL     1       8.964  11.184  -6.625  1.00  0.00     0.118 C 
ATOM     24  C   UNL     1       8.904   9.896  -7.468  1.00  0.00     0.233 C 
ATOM     25  C   UNL     1      10.006  11.674  -7.683  1.00  0.00     0.213 C 
ATOM     26  O   UNL     1       8.316   8.845  -7.366  1.00  0.00    -0.274 OA
ATOM     27  N   UNL     1       9.769  10.402  -8.378  1.00  0.00    -0.297 N 
BRANCH  25  28
ATOM     28  C   UNL     1      11.482  11.928  -7.233  1.00  0.00     0.327 C 
ATOM     29  O   UNL     1      12.449  11.180  -7.293  1.00  0.00    -0.250 OA
BRANCH  28  30
ATOM     30  O   UNL     1      11.675  13.172  -6.722  1.00  0.00    -0.480 OA
ATOM     31  H   UNL     1      12.600  13.146  -6.393  1.00  0.00     0.296 HD
ENDBRANCH  28  30
ENDBRANCH  25  28
BRANCH  27  32
ATOM     32  C   UNL     1      10.299   9.887  -9.561  1.00  0.00     0.045 A 
ATOM     33  C   UNL     1      10.333   8.512  -9.788  1.00  0.00     0.026 A 
ATOM     34  C   UNL     1      10.802  10.736 -10.547  1.00  0.00     0.026 A 
ATOM     35  C   UNL     1      10.851   8.001 -10.987  1.00  0.00     0.006 A 
ATOM     36  C   UNL     1      11.319  10.224 -11.746  1.00  0.00     0.006 A 
ATOM     37  C   UNL     1      11.354   8.844 -11.995  1.00  0.00    -0.042 A 
BRANCH  37  38
ATOM     38  C   UNL     1      11.907   8.252 -13.304  1.00  0.00    -0.013 C 
ATOM     39  C   UNL     1      11.573   9.197 -14.478  1.00  0.00     0.016 C 
ATOM     40  C   UNL     1      13.439   8.091 -13.198  1.00  0.00     0.016 C 
ATOM     41  C   UNL     1      11.329   6.861 -13.655  1.00  0.00     0.016 C 
ENDBRANCH  37  38
ENDBRANCH  27  32
ENDBRANCH  22  23
ENDBRANCH   5  22
TORSDOF 11
ENDMDL
MODEL 5
REMARK VINA RESULT:    -8.436      3.226      7.105
REMARK INTER + INTRA:         -14.213
REMARK INTER:                 -13.460
REMARK INTRA:                  -0.753
REMARK UNBOUND:                -0.598
REMARK SMILES Cc1oc(-c2ccccc2)nc1CCOc1cccc(C[C@@H]2C(=O)N(c3ccc(C(C)(C)C)cc3)[C@@H]2C(=O)O)c1
REMARK SMILES IDX 16 1 17 2 18 3 19 4 20 5 40 6 15 7 14 8 13 9 12 10 2 11 3 12
REMARK SMILES IDX 4 13 11 14 1 15 5 16 6 17 10 18 7 19 9 20 8 21 21 22 22 23
REMARK SMILES IDX 23 24 36 25 24 26 25 27 37 28 38 29 39 30 26 32 27 33 35 34
REMARK SMILES IDX 28 35 34 36 29 37 30 38 31 39 32 40 33 41
REMARK H PARENT 39 31
ROOT
ATOM      1  C   UNL     1       9.343   3.778  -4.027  1.00  0.00     0.119 A 
ATOM      2  C   UNL     1       8.028   4.162  -3.758  1.00  0.00     0.046 A 
ATOM      3  C   UNL     1       7.149   4.460  -4.798  1.00  0.00     0.004 A 
ATOM      4  C   UNL     1       7.580   4.375  -6.120  1.00  0.00     0.004 A 
ATOM      5  C   UNL     1       8.889   3.968  -6.413  1.00  0.00    -0.043 A 
ATOM      6  C   UNL     1       9.764   3.665  -5.354  1.00  0.00     0.050 A 
ENDROOT
BRANCH   1   7
ATOM      7  O   UNL     1      10.109   3.554  -2.917  1.00  0.00    -0.493 OA
BRANCH   7   8
ATOM      8  C   UNL     1       9.690   2.517  -2.023  1.00  0.00     0.236 C 
BRANCH   8   9
ATOM      9  C   UNL     1      10.199   1.178  -2.557  1.00  0.00     0.101 C 
BRANCH   9  10
ATOM     10  C   UNL     1      11.653   1.230  -2.872  1.00  0.00     0.086 A 
ATOM     11  C   UNL     1      12.315   0.932  -4.044  1.00  0.00     0.125 A 
ATOM     12  O   UNL     1      13.654   1.089  -3.821  1.00  0.00    -0.441 OA
ATOM     13  C   UNL     1      13.740   1.479  -2.509  1.00  0.00     0.226 A 
ATOM     14  N   UNL     1      12.569   1.586  -1.905  1.00  0.00    -0.214 NA
ATOM     15  C   UNL     1      11.909   0.479  -5.385  1.00  0.00     0.090 C 
BRANCH  13  16
ATOM     16  C   UNL     1      15.079   1.701  -1.970  1.00  0.00     0.037 A 
ATOM     17  C   UNL     1      15.355   2.882  -1.265  1.00  0.00     0.014 A 
ATOM     18  C   UNL     1      16.108   0.757  -2.124  1.00  0.00     0.014 A 
ATOM     19  C   UNL     1      16.624   3.116  -0.725  1.00  0.00     0.001 A 
ATOM     20  C   UNL     1      17.376   0.990  -1.584  1.00  0.00     0.001 A 
ATOM     21  C   UNL     1      17.632   2.168  -0.885  1.00  0.00     0.000 A 
ENDBRANCH  13  16
ENDBRANCH   9  10
ENDBRANCH   8   9
ENDBRANCH   7   8
ENDBRANCH   1   7
BRANCH   5  22
ATOM     22  C   UNL     1       9.369   3.899  -7.844  1.00  0.00     0.052 C 
BRANCH  22  23
ATOM     23  C   UNL     1      10.394   4.987  -8.133  1.00  0.00     0.118 C 
ATOM     24  C   UNL     1       9.745   6.361  -8.390  1.00  0.00     0.233 C 
ATOM     25  C   UNL     1      11.042   5.174  -9.543  1.00  0.00     0.213 C 
ATOM     26  O   UNL     1       8.974   7.060  -7.776  1.00  0.00    -0.274 OA
ATOM     27  N   UNL     1      10.381   6.485  -9.579  1.00  0.00    -0.297 N 
BRANCH  25  28
ATOM     28  C   UNL     1      10.649   4.192 -10.695  1.00  0.00     0.327 C 
ATOM     29  O   UNL     1       9.595   3.595 -10.876  1.00  0.00    -0.250 OA
BRANCH  28  30
ATOM     30  O   UNL     1      11.640   4.018 -11.607  1.00  0.00    -0.480 OA
ATOM     31  H   UNL     1      11.159   3.766 -12.426  1.00  0.00     0.296 HD
ENDBRANCH  28  30
ENDBRANCH  25  28
BRANCH  27  32
ATOM     32  C   UNL     1      10.387   7.493 -10.542  1.00  0.00     0.045 A 
ATOM     33  C   UNL     1      10.295   7.183 -11.899  1.00  0.00     0.026 A 
ATOM     34  C   UNL     1      10.480   8.835 -10.172  1.00  0.00     0.026 A 
ATOM     35  C   UNL     1      10.283   8.202 -12.863  1.00  0.00     0.006 A 
ATOM     36  C   UNL     1      10.468   9.853 -11.137  1.00  0.00     0.006 A 
ATOM     37  C   UNL     1      10.367   9.561 -12.505  1.00  0.00    -0.042 A 
BRANCH  37  38
ATOM     38  C   UNL     1      10.343  10.655 -13.587  1.00  0.00    -0.013 C 
ATOM     39  C   UNL     1      11.250  10.235 -14.764  1.00  0.00     0.016 C 
ATOM     40  C   UNL     1       8.900  10.852 -14.099  1.00  0.00     0.016 C 
ATOM     41  C   UNL     1      10.841  12.033 -13.094  1.00  0.00     0.016 C 
ENDBRANCH  37  38
ENDBRANCH  27  32
ENDBRANCH  22  23
ENDBRANCH   5  22
TORSDOF 11
ENDMDL
MODEL 6
REMARK VINA RESULT:    -8.379      1.622      3.466
REMARK INTER + INTRA:         -14.121
REMARK INTER:                 -15.265
REMARK INTRA:                   1.144
REMARK UNBOUND:                -0.598
REMARK SMILES Cc1oc(-c2ccccc2)nc1CCOc1cccc(C[C@@H]2C(=O)N(c3ccc(C(C)(C)C)cc3)[C@@H]2C(=O)O)c1
REMARK SMILES IDX 16 1 17 2 18 3 19 4 20 5 40 6 15 7 14 8 13 9 12 10 2 11 3 12
REMARK SMILES IDX 4 13 11 14 1 15 5 16 6 17 10 18 7 19 9 20 8 21 21 22 22 23
REMARK SMILES IDX 23 24 36 25 24 26 25 27 37 28 38 29 39 30 26 32 27 33 35 34
REMARK SMILES IDX 28 35 34 36 29 37 30 38 31 39 32 40 33 41
REMARK H PARENT 39 31
ROOT
ATOM      1  C   UNL     1       6.733   5.231  -5.723  1.00  0.00     0.119 A 
ATOM      2  C   UNL     1       7.016   4.660  -4.481  1.00  0.00     0.046 A 
ATOM      3  C   UNL     1       8.094   3.788  -4.330  1.00  0.00     0.004 A 
ATOM      4  C   UNL     1       8.900   3.481  -5.424  1.00  0.00     0.004 A 
ATOM      5  C   UNL     1       8.648   4.062  -6.675  1.00  0.00    -0.043 A 
ATOM      6  C   UNL     1       7.561   4.945  -6.811  1.00  0.00     0.050 A 
ENDROOT
BRANCH   1   7
ATOM      7  O   UNL     1       5.627   6.034  -5.741  1.00  0.00    -0.493 OA
BRANCH   7   8
ATOM      8  C   UNL     1       5.704   7.248  -6.496  1.00  0.00     0.236 C 
BRANCH   8   9
ATOM      9  C   UNL     1       4.530   8.144  -6.100  1.00  0.00     0.101 C 
BRANCH   9  10
ATOM     10  C   UNL     1       4.459   8.334  -4.624  1.00  0.00     0.086 A 
ATOM     11  C   UNL     1       5.153   9.203  -3.810  1.00  0.00     0.125 A 
ATOM     12  O   UNL     1       4.771   8.964  -2.520  1.00  0.00    -0.441 OA
ATOM     13  C   UNL     1       3.853   7.949  -2.616  1.00  0.00     0.226 A 
ATOM     14  N   UNL     1       3.628   7.548  -3.855  1.00  0.00    -0.214 NA
ATOM     15  C   UNL     1       6.175  10.242  -4.024  1.00  0.00     0.090 C 
BRANCH  13  16
ATOM     16  C   UNL     1       3.279   7.455  -1.368  1.00  0.00     0.037 A 
ATOM     17  C   UNL     1       3.549   6.142  -0.952  1.00  0.00     0.014 A 
ATOM     18  C   UNL     1       2.468   8.261  -0.552  1.00  0.00     0.014 A 
ATOM     19  C   UNL     1       3.026   5.646   0.245  1.00  0.00     0.001 A 
ATOM     20  C   UNL     1       1.945   7.766   0.645  1.00  0.00     0.001 A 
ATOM     21  C   UNL     1       2.225   6.460   1.043  1.00  0.00     0.000 A 
ENDBRANCH  13  16
ENDBRANCH   9  10
ENDBRANCH   8   9
ENDBRANCH   7   8
ENDBRANCH   1   7
BRANCH   5  22
ATOM     22  C   UNL     1       9.504   3.713  -7.870  1.00  0.00     0.052 C 
BRANCH  22  23
ATOM     23  C   UNL     1      10.511   4.817  -8.166  1.00  0.00     0.118 C 
ATOM     24  C   UNL     1       9.846   6.196  -8.338  1.00  0.00     0.233 C 
ATOM     25  C   UNL     1      11.089   5.060  -9.597  1.00  0.00     0.213 C 
ATOM     26  O   UNL     1       9.104   6.867  -7.661  1.00  0.00    -0.274 OA
ATOM     27  N   UNL     1      10.423   6.368  -9.550  1.00  0.00    -0.297 N 
BRANCH  25  28
ATOM     28  C   UNL     1      10.642   4.122 -10.766  1.00  0.00     0.327 C 
ATOM     29  O   UNL     1       9.579   3.537 -10.925  1.00  0.00    -0.250 OA
BRANCH  28  30
ATOM     30  O   UNL     1      11.594   3.975 -11.724  1.00  0.00    -0.480 OA
ATOM     31  H   UNL     1      12.184   4.749 -11.584  1.00  0.00     0.296 HD
ENDBRANCH  28  30
ENDBRANCH  25  28
BRANCH  27  32
ATOM     32  C   UNL     1      10.379   7.413 -10.473  1.00  0.00     0.045 A 
ATOM     33  C   UNL     1      10.358   7.154 -11.843  1.00  0.00     0.026 A 
ATOM     34  C   UNL     1      10.352   8.741 -10.048  1.00  0.00     0.026 A 
ATOM     35  C   UNL     1      10.296   8.208 -12.767  1.00  0.00     0.006 A 
ATOM     36  C   UNL     1      10.288   9.795 -10.972  1.00  0.00     0.006 A 
ATOM     37  C   UNL     1      10.258   9.552 -12.354  1.00  0.00    -0.042 A 
BRANCH  37  38
ATOM     38  C   UNL     1      10.182  10.686 -13.393  1.00  0.00    -0.013 C 
ATOM     39  C   UNL     1       8.771  10.715 -14.019  1.00  0.00     0.016 C 
ATOM     40  C   UNL     1      10.464  12.041 -12.709  1.00  0.00     0.016 C 
ATOM     41  C   UNL     1      11.195  10.542 -14.551  1.00  0.00     0.016 C 
ENDBRANCH  37  38
ENDBRANCH  27  32
ENDBRANCH  22  23
ENDBRANCH   5  22
TORSDOF 11
ENDMDL
MODEL 7
REMARK VINA RESULT:    -8.344      2.507      4.185
REMARK INTER + INTRA:         -14.065
REMARK INTER:                 -13.689
REMARK INTRA:                  -0.375
REMARK UNBOUND:                -0.598
REMARK SMILES Cc1oc(-c2ccccc2)nc1CCOc1cccc(C[C@@H]2C(=O)N(c3ccc(C(C)(C)C)cc3)[C@@H]2C(=O)O)c1
REMARK SMILES IDX 16 1 17 2 18 3 19 4 20 5 40 6 15 7 14 8 13 9 12 10 2 11 3 12
REMARK SMILES IDX 4 13 11 14 1 15 5 16 6 17 10 18 7 19 9 20 8 21 21 22 22 23
REMARK SMILES IDX 23 24 36 25 24 26 25 27 37 28 38 29 39 30 26 32 27 33 35 34
REMARK SMILES IDX 28 35 34 36 29 37 30 38 31 39 32 40 33 41
REMARK H PARENT 39 31
ROOT
ATOM      1  C   UNL     1       6.244   5.267  -5.397  1.00  0.00     0.119 A 
ATOM      2  C   UNL     1       6.653   4.861  -4.125  1.00  0.00     0.046 A 
ATOM      3  C   UNL     1       7.842   4.153  -3.955  1.00  0.00     0.004 A 
ATOM      4  C   UNL     1       8.633   3.844  -5.060  1.00  0.00     0.004 A 
ATOM      5  C   UNL     1       8.253   4.263  -6.342  1.00  0.00    -0.043 A 
ATOM      6  C   UNL     1       7.054   4.983  -6.499  1.00  0.00     0.050 A 
ENDROOT
BRANCH   1   7
ATOM      7  O   UNL     1       5.042   5.917  -5.427  1.00  0.00    -0.493 OA
BRANCH   7   8
ATOM      8  C   UNL     1       4.926   7.128  -4.671  1.00  0.00     0.236 C 
BRANCH   8   9
ATOM      9  C   UNL     1       5.096   8.314  -5.620  1.00  0.00     0.101 C 
BRANCH   9  10
ATOM     10  C   UNL     1       6.246   9.173  -5.223  1.00  0.00     0.086 A 
ATOM     11  C   UNL     1       6.549   9.738  -4.002  1.00  0.00     0.125 A 
ATOM     12  O   UNL     1       7.684  10.481  -4.153  1.00  0.00    -0.441 OA
ATOM     13  C   UNL     1       8.019  10.331  -5.475  1.00  0.00     0.226 A 
ATOM     14  N   UNL     1       7.194   9.550  -6.150  1.00  0.00    -0.214 NA
ATOM     15  C   UNL     1       5.926   9.731  -2.667  1.00  0.00     0.090 C 
BRANCH  13  16
ATOM     16  C   UNL     1       9.201  11.048  -5.945  1.00  0.00     0.037 A 
ATOM     17  C   UNL     1       9.502  11.066  -7.315  1.00  0.00     0.014 A 
ATOM     18  C   UNL     1      10.049  11.740  -5.065  1.00  0.00     0.014 A 
ATOM     19  C   UNL     1      10.619  11.757  -7.796  1.00  0.00     0.001 A 
ATOM     20  C   UNL     1      11.166  12.431  -5.545  1.00  0.00     0.001 A 
ATOM     21  C   UNL     1      11.448  12.439  -6.909  1.00  0.00     0.000 A 
ENDBRANCH  13  16
ENDBRANCH   9  10
ENDBRANCH   8   9
ENDBRANCH   7   8
ENDBRANCH   1   7
BRANCH   5  22
ATOM     22  C   UNL     1       9.095   3.910  -7.546  1.00  0.00     0.052 C 
BRANCH  22  23
ATOM     23  C   UNL     1      10.136   4.985  -7.823  1.00  0.00     0.118 C 
ATOM     24  C   UNL     1       9.505   6.351  -8.156  1.00  0.00     0.233 C 
ATOM     25  C   UNL     1      10.850   5.123  -9.207  1.00  0.00     0.213 C 
ATOM     26  O   UNL     1       8.709   7.072  -7.602  1.00  0.00    -0.274 OA
ATOM     27  N   UNL     1      10.196   6.433  -9.317  1.00  0.00    -0.297 N 
BRANCH  25  28
ATOM     28  C   UNL     1      10.506   4.104 -10.343  1.00  0.00     0.327 C 
ATOM     29  O   UNL     1       9.463   3.498 -10.548  1.00  0.00    -0.250 OA
BRANCH  28  30
ATOM     30  O   UNL     1      11.535   3.905 -11.207  1.00  0.00    -0.480 OA
ATOM     31  H   UNL     1      11.193   4.254 -12.059  1.00  0.00     0.296 HD
ENDBRANCH  28  30
ENDBRANCH  25  28
BRANCH  27  32
ATOM     32  C   UNL     1      10.250   7.408 -10.312  1.00  0.00     0.045 A 
ATOM     33  C   UNL     1      10.323   7.051 -11.658  1.00  0.00     0.026 A 
ATOM     34  C   UNL     1      10.230   8.765  -9.986  1.00  0.00     0.026 A 
ATOM     35  C   UNL     1      10.359   8.035 -12.656  1.00  0.00     0.006 A 
ATOM     36  C   UNL     1      10.265   9.749 -10.985  1.00  0.00     0.006 A 
ATOM     37  C   UNL     1      10.329   9.407 -12.344  1.00  0.00    -0.042 A 
BRANCH  37  38
ATOM     38  C   UNL     1      10.362  10.463 -13.463  1.00  0.00    -0.013 C 
ATOM     39  C   UNL     1       8.941  10.650 -14.036  1.00  0.00     0.016 C 
ATOM     40  C   UNL     1      10.865  11.809 -12.898  1.00  0.00     0.016 C 
ATOM     41  C   UNL     1      11.288  10.094 -14.645  1.00  0.00     0.016 C 
ENDBRANCH  37  38
ENDBRANCH  27  32
ENDBRANCH  22  23
ENDBRANCH   5  22
TORSDOF 11
ENDMDL
MODEL 8
REMARK VINA RESULT:    -8.342      2.971      8.611
REMARK INTER + INTRA:         -14.061
REMARK INTER:                 -12.304
REMARK INTRA:                  -1.757
REMARK UNBOUND:                -0.598
REMARK SMILES Cc1oc(-c2ccccc2)nc1CCOc1cccc(C[C@@H]2C(=O)N(c3ccc(C(C)(C)C)cc3)[C@@H]2C(=O)O)c1
REMARK SMILES IDX 16 1 17 2 18 3 19 4 20 5 40 6 15 7 14 8 13 9 12 10 2 11 3 12
REMARK SMILES IDX 4 13 11 14 1 15 5 16 6 17 10 18 7 19 9 20 8 21 21 22 22 23
REMARK SMILES IDX 23 24 36 25 24 26 25 27 37 28 38 29 39 30 26 32 27 33 35 34
REMARK SMILES IDX 28 35 34 36 29 37 30 38 31 39 32 40 33 41
REMARK H PARENT 39 31
ROOT
ATOM      1  C   UNL     1      10.930   9.432 -11.857  1.00  0.00     0.119 A 
ATOM      2  C   UNL     1      11.944   9.215 -12.793  1.00  0.00     0.046 A 
ATOM      3  C   UNL     1      12.261   7.923 -13.208  1.00  0.00     0.004 A 
ATOM      4  C   UNL     1      11.564   6.834 -12.688  1.00  0.00     0.004 A 
ATOM      5  C   UNL     1      10.527   7.031 -11.767  1.00  0.00    -0.043 A 
ATOM      6  C   UNL     1      10.213   8.341 -11.361  1.00  0.00     0.050 A 
ENDROOT
BRANCH   1   7
ATOM      7  O   UNL     1      10.748  10.742 -11.509  1.00  0.00    -0.493 OA
BRANCH   7   8
ATOM      8  C   UNL     1      10.121  11.010 -10.250  1.00  0.00     0.236 C 
BRANCH   8   9
ATOM      9  C   UNL     1      11.207  11.318  -9.219  1.00  0.00     0.101 C 
BRANCH   9  10
ATOM     10  C   UNL     1      10.636  11.479  -7.852  1.00  0.00     0.086 A 
ATOM     11  C   UNL     1      11.082  12.238  -6.792  1.00  0.00     0.125 A 
ATOM     12  O   UNL     1      10.244  12.016  -5.736  1.00  0.00    -0.441 OA
ATOM     13  C   UNL     1       9.320  11.122  -6.213  1.00  0.00     0.226 A 
ATOM     14  N   UNL     1       9.509  10.780  -7.475  1.00  0.00    -0.214 NA
ATOM     15  C   UNL     1      12.215  13.152  -6.566  1.00  0.00     0.090 C 
BRANCH  13  16
ATOM     16  C   UNL     1       8.292  10.671  -5.279  1.00  0.00     0.037 A 
ATOM     17  C   UNL     1       8.527  10.749  -3.898  1.00  0.00     0.014 A 
ATOM     18  C   UNL     1       7.057  10.167  -5.719  1.00  0.00     0.014 A 
ATOM     19  C   UNL     1       7.556  10.339  -2.980  1.00  0.00     0.001 A 
ATOM     20  C   UNL     1       6.086   9.757  -4.802  1.00  0.00     0.001 A 
ATOM     21  C   UNL     1       6.336   9.844  -3.434  1.00  0.00     0.000 A 
ENDBRANCH  13  16
ENDBRANCH   9  10
ENDBRANCH   8   9
ENDBRANCH   7   8
ENDBRANCH   1   7
BRANCH   5  22
ATOM     22  C   UNL     1       9.785   5.852 -11.182  1.00  0.00     0.052 C 
BRANCH  22  23
ATOM     23  C   UNL     1      10.576   5.212 -10.049  1.00  0.00     0.118 C 
ATOM     24  C   UNL     1       9.794   4.090  -9.339  1.00  0.00     0.233 C 
ATOM     25  C   UNL     1      10.680   5.860  -8.631  1.00  0.00     0.213 C 
ATOM     26  O   UNL     1       9.242   3.080  -9.708  1.00  0.00    -0.274 OA
ATOM     27  N   UNL     1       9.967   4.677  -8.132  1.00  0.00    -0.297 N 
BRANCH  25  28
ATOM     28  C   UNL     1       9.971   7.230  -8.368  1.00  0.00     0.327 C 
ATOM     29  O   UNL     1       8.775   7.479  -8.285  1.00  0.00    -0.250 OA
BRANCH  28  30
ATOM     30  O   UNL     1      10.845   8.256  -8.202  1.00  0.00    -0.480 OA
ATOM     31  H   UNL     1      10.628   8.867  -8.941  1.00  0.00     0.296 HD
ENDBRANCH  28  30
ENDBRANCH  25  28
BRANCH  27  32
ATOM     32  C   UNL     1       9.575   4.313  -6.844  1.00  0.00     0.045 A 
ATOM     33  C   UNL     1      10.475   3.708  -5.968  1.00  0.00     0.026 A 
ATOM     34  C   UNL     1       8.273   4.550  -6.401  1.00  0.00     0.026 A 
ATOM     35  C   UNL     1      10.080   3.361  -4.668  1.00  0.00     0.006 A 
ATOM     36  C   UNL     1       7.879   4.204  -5.100  1.00  0.00     0.006 A 
ATOM     37  C   UNL     1       8.774   3.602  -4.202  1.00  0.00    -0.042 A 
BRANCH  37  38
ATOM     38  C   UNL     1       8.374   3.217  -2.766  1.00  0.00    -0.013 C 
ATOM     39  C   UNL     1       8.472   1.685  -2.598  1.00  0.00     0.016 C 
ATOM     40  C   UNL     1       9.321   3.903  -1.758  1.00  0.00     0.016 C 
ATOM     41  C   UNL     1       6.933   3.628  -2.386  1.00  0.00     0.016 C 
ENDBRANCH  37  38
ENDBRANCH  27  32
ENDBRANCH  22  23
ENDBRANCH   5  22
TORSDOF 11
ENDMDL
MODEL 9
REMARK VINA RESULT:    -8.332      2.997     10.710
REMARK INTER + INTRA:         -14.045
REMARK INTER:                 -14.214
REMARK INTRA:                   0.169
REMARK UNBOUND:                -0.598
REMARK SMILES Cc1oc(-c2ccccc2)nc1CCOc1cccc(C[C@@H]2C(=O)N(c3ccc(C(C)(C)C)cc3)[C@@H]2C(=O)O)c1
REMARK SMILES IDX 16 1 17 2 18 3 19 4 20 5 40 6 15 7 14 8 13 9 12 10 2 11 3 12
REMARK SMILES IDX 4 13 11 14 1 15 5 16 6 17 10 18 7 19 9 20 8 21 21 22 22 23
REMARK SMILES IDX 23 24 36 25 24 26 25 27 37 28 38 29 39 30 26 32 27 33 35 34
REMARK SMILES IDX 28 35 34 36 29 37 30 38 31 39 32 40 33 41
REMARK H PARENT 39 31
ROOT
ATOM      1  C   UNL     1      10.457  11.255  -9.443  1.00  0.00     0.119 A 
ATOM      2  C   UNL     1      10.305  12.640  -9.352  1.00  0.00     0.046 A 
ATOM      3  C   UNL     1       9.782  13.222  -8.198  1.00  0.00     0.004 A 
ATOM      4  C   UNL     1       9.406  12.420  -7.123  1.00  0.00     0.004 A 
ATOM      5  C   UNL     1       9.572  11.029  -7.184  1.00  0.00    -0.043 A 
ATOM      6  C   UNL     1      10.107  10.456  -8.352  1.00  0.00     0.050 A 
ENDROOT
BRANCH   1   7
ATOM      7  O   UNL     1      10.943  10.813 -10.642  1.00  0.00    -0.493 OA
BRANCH   7   8
ATOM      8  C   UNL     1      10.240  11.206 -11.826  1.00  0.00     0.236 C 
BRANCH   8   9
ATOM      9  C   UNL     1      10.531  10.186 -12.927  1.00  0.00     0.101 C 
BRANCH   9  10
ATOM     10  C   UNL     1      10.986   8.885 -12.363  1.00  0.00     0.086 A 
ATOM     11  C   UNL     1      12.172   8.207 -12.549  1.00  0.00     0.125 A 
ATOM     12  O   UNL     1      12.097   7.032 -11.856  1.00  0.00    -0.441 OA
ATOM     13  C   UNL     1      10.853   7.054 -11.277  1.00  0.00     0.226 A 
ATOM     14  N   UNL     1      10.159   8.146 -11.545  1.00  0.00    -0.214 NA
ATOM     15  C   UNL     1      13.407   8.455 -13.313  1.00  0.00     0.090 C 
BRANCH  13  16
ATOM     16  C   UNL     1      10.473   5.892 -10.480  1.00  0.00     0.037 A 
ATOM     17  C   UNL     1      10.360   6.014  -9.086  1.00  0.00     0.014 A 
ATOM     18  C   UNL     1      10.201   4.645 -11.065  1.00  0.00     0.014 A 
ATOM     19  C   UNL     1       9.984   4.922  -8.298  1.00  0.00     0.001 A 
ATOM     20  C   UNL     1       9.825   3.553 -10.278  1.00  0.00     0.001 A 
ATOM     21  C   UNL     1       9.715   3.694  -8.896  1.00  0.00     0.000 A 
ENDBRANCH  13  16
ENDBRANCH   9  10
ENDBRANCH   8   9
ENDBRANCH   7   8
ENDBRANCH   1   7
BRANCH   5  22
ATOM     22  C   UNL     1       9.143  10.153  -6.030  1.00  0.00     0.052 C 
BRANCH  22  23
ATOM     23  C   UNL     1       7.724  10.484  -5.588  1.00  0.00     0.118 C 
ATOM     24  C   UNL     1       7.495  10.226  -4.086  1.00  0.00     0.233 C 
ATOM     25  C   UNL     1       6.528   9.501  -5.807  1.00  0.00     0.213 C 
ATOM     26  O   UNL     1       8.043  10.591  -3.072  1.00  0.00    -0.274 OA
ATOM     27  N   UNL     1       6.433   9.428  -4.343  1.00  0.00    -0.297 N 
BRANCH  25  28
ATOM     28  C   UNL     1       6.788   8.140  -6.532  1.00  0.00     0.327 C 
ATOM     29  O   UNL     1       7.850   7.631  -6.864  1.00  0.00    -0.250 OA
BRANCH  28  30
ATOM     30  O   UNL     1       5.646   7.453  -6.797  1.00  0.00    -0.480 OA
ATOM     31  H   UNL     1       4.997   8.159  -7.014  1.00  0.00     0.296 HD
ENDBRANCH  28  30
ENDBRANCH  25  28
BRANCH  27  32
ATOM     32  C   UNL     1       5.556   8.731  -3.512  1.00  0.00     0.045 A 
ATOM     33  C   UNL     1       4.725   7.736  -4.025  1.00  0.00     0.026 A 
ATOM     34  C   UNL     1       5.493   9.010  -2.146  1.00  0.00     0.026 A 
ATOM     35  C   UNL     1       3.858   7.026  -3.182  1.00  0.00     0.006 A 
ATOM     36  C   UNL     1       4.626   8.299  -1.303  1.00  0.00     0.006 A 
ATOM     37  C   UNL     1       3.789   7.289  -1.801  1.00  0.00    -0.042 A 
BRANCH  37  38
ATOM     38  C   UNL     1       2.833   6.486  -0.900  1.00  0.00    -0.013 C 
ATOM     39  C   UNL     1       2.003   7.459  -0.035  1.00  0.00     0.016 C 
ATOM     40  C   UNL     1       1.881   5.641  -1.773  1.00  0.00     0.016 C 
ATOM     41  C   UNL     1       3.550   5.512   0.063  1.00  0.00     0.016 C 
ENDBRANCH  37  38
ENDBRANCH  27  32
ENDBRANCH  22  23
ENDBRANCH   5  22
TORSDOF 11
ENDMDL
