MODEL 1
REMARK VINA RESULT:    -9.628      0.000      0.000
REMARK INTER + INTRA:         -12.922
REMARK INTER:                 -11.316
REMARK INTRA:                  -1.606
REMARK UNBOUND:                -1.606
REMARK SMILES C[NH+]1CCN(c2nc(C3=C(c4c[nH]c5ccccc45)C([O-])=NC3=O)c3ccccc3n2)CC1
REMARK SMILES IDX 6 1 7 2 8 3 25 4 26 5 27 6 28 7 29 8 30 9 31 10 5 11 2 12
REMARK SMILES IDX 33 13 3 14 32 15 4 16 1 17 9 19 23 20 10 21 22 22 24 23
REMARK SMILES IDX 20 24 21 25 11 26 19 27 12 28 14 29 18 30 13 31 15 32 17 33
REMARK SMILES IDX 16 34
REMARK H PARENT 2 18 13 35
ROOT
ATOM      1  C   UNL     1      16.349   4.182  25.678  1.00  0.00     0.226 A 
ATOM      2  N   UNL     1      15.209   4.029  26.399  1.00  0.00    -0.212 NA
ATOM      3  C   UNL     1      14.954   2.803  26.916  1.00  0.00     0.090 A 
ATOM      4  C   UNL     1      15.802   1.682  26.688  1.00  0.00     0.027 A 
ATOM      5  C   UNL     1      15.600   0.376  27.209  1.00  0.00     0.012 A 
ATOM      6  C   UNL     1      16.504  -0.641  26.914  1.00  0.00     0.001 A 
ATOM      7  C   UNL     1      17.617  -0.393  26.116  1.00  0.00     0.002 A 
ATOM      8  C   UNL     1      17.853   0.880  25.601  1.00  0.00     0.029 A 
ATOM      9  C   UNL     1      16.954   1.938  25.881  1.00  0.00     0.076 A 
ATOM     10  N   UNL     1      17.221   3.179  25.383  1.00  0.00    -0.213 NA
ENDROOT
BRANCH   1  11
ATOM     11  N   UNL     1      16.619   5.452  25.155  1.00  0.00    -0.329 N 
ATOM     12  N   UNL     1      16.094   6.296  22.357  1.00  0.00    -0.334 N 
ATOM     13  C   UNL     1      14.959   6.099  23.385  1.00  0.00     0.283 C 
ATOM     14  C   UNL     1      17.270   5.372  22.730  1.00  0.00     0.283 C 
ATOM     15  C   UNL     1      15.516   6.371  24.804  1.00  0.00     0.181 C 
ATOM     16  C   UNL     1      17.704   5.686  24.179  1.00  0.00     0.181 C 
ATOM     17  C   UNL     1      15.600   5.989  20.930  1.00  0.00     0.332 C 
ATOM     18  H   UNL     1      16.411   7.254  22.408  1.00  0.00     0.347 HD
ENDBRANCH   1  11
BRANCH   3  19
ATOM     19  C   UNL     1      13.729   2.775  27.749  1.00  0.00     0.077 C 
ATOM     20  C   UNL     1      13.688   2.405  29.137  1.00  0.00     0.279 C 
ATOM     21  C   UNL     1      12.465   3.017  27.361  1.00  0.00     0.010 C 
ATOM     22  N   UNL     1      12.380   2.461  29.559  1.00  0.00    -0.225 NA
ATOM     23  O   UNL     1      14.646   2.089  29.841  1.00  0.00    -0.267 OA
ATOM     24  C   UNL     1      11.695   2.808  28.551  1.00  0.00     0.000 C 
ATOM     25  O   UNL     1      10.464   2.971  28.569  1.00  0.00    -0.858 OA
BRANCH  21  26
ATOM     26  C   UNL     1      12.052   3.428  26.013  1.00  0.00     0.009 A 
ATOM     27  C   UNL     1      11.847   4.765  25.517  1.00  0.00     0.007 A 
ATOM     28  C   UNL     1      11.757   2.575  24.966  1.00  0.00     0.092 A 
ATOM     29  C   UNL     1      11.433   4.649  24.153  1.00  0.00     0.046 A 
ATOM     30  C   UNL     1      11.950   6.051  26.076  1.00  0.00     0.011 A 
ATOM     31  N   UNL     1      11.398   3.302  23.861  1.00  0.00    -0.361 N 
ATOM     32  C   UNL     1      11.136   5.764  23.362  1.00  0.00     0.027 A 
ATOM     33  C   UNL     1      11.650   7.161  25.289  1.00  0.00     0.001 A 
ATOM     34  C   UNL     1      11.253   7.016  23.963  1.00  0.00     0.002 A 
ATOM     35  H   UNL     1      11.151   2.868  22.983  1.00  0.00     0.166 HD
ENDBRANCH  21  26
ENDBRANCH   3  19
TORSDOF 3
ENDMDL
MODEL 2
REMARK VINA RESULT:    -8.501      2.810      6.122
REMARK INTER + INTRA:         -11.598
REMARK INTER:                 -10.038
REMARK INTRA:                  -1.560
REMARK UNBOUND:                -1.606
REMARK SMILES C[NH+]1CCN(c2nc(C3=C(c4c[nH]c5ccccc45)C([O-])=NC3=O)c3ccccc3n2)CC1
REMARK SMILES IDX 6 1 7 2 8 3 25 4 26 5 27 6 28 7 29 8 30 9 31 10 5 11 2 12
REMARK SMILES IDX 33 13 3 14 32 15 4 16 1 17 9 19 23 20 10 21 22 22 24 23
REMARK SMILES IDX 20 24 21 25 11 26 19 27 12 28 14 29 18 30 13 31 15 32 17 33
REMARK SMILES IDX 16 34
REMARK H PARENT 2 18 13 35
ROOT
ATOM      1  C   UNL     1      13.627   4.109  26.125  1.00  0.00     0.226 A 
ATOM      2  N   UNL     1      12.682   5.050  25.872  1.00  0.00    -0.212 NA
ATOM      3  C   UNL     1      13.100   6.248  25.397  1.00  0.00     0.090 A 
ATOM      4  C   UNL     1      14.476   6.560  25.206  1.00  0.00     0.027 A 
ATOM      5  C   UNL     1      14.980   7.789  24.701  1.00  0.00     0.012 A 
ATOM      6  C   UNL     1      16.353   7.974  24.560  1.00  0.00     0.001 A 
ATOM      7  C   UNL     1      17.246   6.963  24.901  1.00  0.00     0.002 A 
ATOM      8  C   UNL     1      16.784   5.741  25.385  1.00  0.00     0.029 A 
ATOM      9  C   UNL     1      15.395   5.518  25.541  1.00  0.00     0.076 A 
ATOM     10  N   UNL     1      14.969   4.304  25.996  1.00  0.00    -0.213 NA
ENDROOT
BRANCH   1  11
ATOM     11  N   UNL     1      13.195   2.868  26.603  1.00  0.00    -0.329 N 
ATOM     12  N   UNL     1      13.400   1.955  29.421  1.00  0.00    -0.334 N 
ATOM     13  C   UNL     1      12.376   3.020  28.973  1.00  0.00     0.283 C 
ATOM     14  C   UNL     1      14.623   2.014  28.484  1.00  0.00     0.283 C 
ATOM     15  C   UNL     1      12.015   2.773  27.488  1.00  0.00     0.181 C 
ATOM     16  C   UNL     1      14.141   1.816  27.030  1.00  0.00     0.181 C 
ATOM     17  C   UNL     1      13.830   2.189  30.882  1.00  0.00     0.332 C 
ATOM     18  H   UNL     1      12.974   1.043  29.334  1.00  0.00     0.347 HD
ENDBRANCH   1  11
BRANCH   3  19
ATOM     19  C   UNL     1      11.978   7.163  25.082  1.00  0.00     0.077 C 
ATOM     20  C   UNL     1      11.233   7.914  26.054  1.00  0.00     0.279 C 
ATOM     21  C   UNL     1      11.424   7.402  23.880  1.00  0.00     0.010 C 
ATOM     22  N   UNL     1      10.250   8.617  25.395  1.00  0.00    -0.225 NA
ATOM     23  O   UNL     1      11.424   7.936  27.269  1.00  0.00    -0.267 OA
ATOM     24  C   UNL     1      10.366   8.323  24.168  1.00  0.00     0.000 C 
ATOM     25  O   UNL     1       9.644   8.789  23.270  1.00  0.00    -0.858 OA
BRANCH  21  26
ATOM     26  C   UNL     1      11.879   6.834  22.605  1.00  0.00     0.009 A 
ATOM     27  C   UNL     1      12.251   7.536  21.403  1.00  0.00     0.007 A 
ATOM     28  C   UNL     1      12.011   5.486  22.326  1.00  0.00     0.092 A 
ATOM     29  C   UNL     1      12.605   6.548  20.431  1.00  0.00     0.046 A 
ATOM     30  C   UNL     1      12.308   8.890  21.030  1.00  0.00     0.011 A 
ATOM     31  N   UNL     1      12.450   5.320  21.037  1.00  0.00    -0.361 N 
ATOM     32  C   UNL     1      13.009   6.883  19.134  1.00  0.00     0.027 A 
ATOM     33  C   UNL     1      12.707   9.223  19.737  1.00  0.00     0.001 A 
ATOM     34  C   UNL     1      13.049   8.239  18.814  1.00  0.00     0.002 A 
ATOM     35  H   UNL     1      12.618   4.408  20.635  1.00  0.00     0.166 HD
ENDBRANCH  21  26
ENDBRANCH   3  19
TORSDOF 3
ENDMDL
MODEL 3
REMARK VINA RESULT:    -8.485      2.345      5.319
REMARK INTER + INTRA:         -11.580
REMARK INTER:                 -11.047
REMARK INTRA:                  -0.533
REMARK UNBOUND:                -1.606
REMARK SMILES C[NH+]1CCN(c2nc(C3=C(c4c[nH]c5ccccc45)C([O-])=NC3=O)c3ccccc3n2)CC1
REMARK SMILES IDX 6 1 7 2 8 3 25 4 26 5 27 6 28 7 29 8 30 9 31 10 5 11 2 12
REMARK SMILES IDX 33 13 3 14 32 15 4 16 1 17 9 19 23 20 10 21 22 22 24 23
REMARK SMILES IDX 20 24 21 25 11 26 19 27 12 28 14 29 18 30 13 31 15 32 17 33
REMARK SMILES IDX 16 34
REMARK H PARENT 2 18 13 35
ROOT
ATOM      1  C   UNL     1      14.268   2.826  27.695  1.00  0.00     0.226 A 
ATOM      2  N   UNL     1      14.691   3.624  26.682  1.00  0.00    -0.212 NA
ATOM      3  C   UNL     1      15.613   3.119  25.828  1.00  0.00     0.090 A 
ATOM      4  C   UNL     1      16.177   1.821  25.987  1.00  0.00     0.027 A 
ATOM      5  C   UNL     1      17.136   1.227  25.123  1.00  0.00     0.012 A 
ATOM      6  C   UNL     1      17.613  -0.054  25.387  1.00  0.00     0.001 A 
ATOM      7  C   UNL     1      17.155  -0.771  26.487  1.00  0.00     0.002 A 
ATOM      8  C   UNL     1      16.205  -0.224  27.347  1.00  0.00     0.029 A 
ATOM      9  C   UNL     1      15.697   1.076  27.109  1.00  0.00     0.076 A 
ATOM     10  N   UNL     1      14.750   1.579  27.953  1.00  0.00    -0.213 NA
ENDROOT
BRANCH   1  11
ATOM     11  N   UNL     1      13.306   3.343  28.570  1.00  0.00    -0.329 N 
ATOM     12  N   UNL     1      11.491   1.720  30.269  1.00  0.00    -0.334 N 
ATOM     13  C   UNL     1      12.995   1.873  30.582  1.00  0.00     0.283 C 
ATOM     14  C   UNL     1      11.281   1.868  28.749  1.00  0.00     0.283 C 
ATOM     15  C   UNL     1      13.485   3.235  30.033  1.00  0.00     0.181 C 
ATOM     16  C   UNL     1      11.857   3.230  28.302  1.00  0.00     0.181 C 
ATOM     17  C   UNL     1      10.967   0.354  30.754  1.00  0.00     0.332 C 
ATOM     18  H   UNL     1      10.989   2.462  30.736  1.00  0.00     0.347 HD
ENDBRANCH   1  11
BRANCH   3  19
ATOM     19  C   UNL     1      15.936   4.046  24.719  1.00  0.00     0.077 C 
ATOM     20  C   UNL     1      17.266   4.423  24.324  1.00  0.00     0.279 C 
ATOM     21  C   UNL     1      15.079   4.736  23.946  1.00  0.00     0.010 C 
ATOM     22  N   UNL     1      17.170   5.325  23.289  1.00  0.00    -0.225 NA
ATOM     23  O   UNL     1      18.320   4.021  24.816  1.00  0.00    -0.267 OA
ATOM     24  C   UNL     1      15.931   5.495  23.081  1.00  0.00     0.000 C 
ATOM     25  O   UNL     1      15.471   6.242  22.201  1.00  0.00    -0.858 OA
BRANCH  21  26
ATOM     26  C   UNL     1      13.615   4.650  24.013  1.00  0.00     0.009 A 
ATOM     27  C   UNL     1      12.690   5.627  24.530  1.00  0.00     0.007 A 
ATOM     28  C   UNL     1      12.852   3.573  23.599  1.00  0.00     0.092 A 
ATOM     29  C   UNL     1      11.377   5.078  24.392  1.00  0.00     0.046 A 
ATOM     30  C   UNL     1      12.825   6.899  25.111  1.00  0.00     0.011 A 
ATOM     31  N   UNL     1      11.524   3.833  23.817  1.00  0.00    -0.361 N 
ATOM     32  C   UNL     1      10.230   5.763  24.808  1.00  0.00     0.027 A 
ATOM     33  C   UNL     1      11.682   7.580  25.528  1.00  0.00     0.001 A 
ATOM     34  C   UNL     1      10.417   7.021  25.378  1.00  0.00     0.002 A 
ATOM     35  H   UNL     1      10.796   3.176  23.577  1.00  0.00     0.166 HD
ENDBRANCH  21  26
ENDBRANCH   3  19
TORSDOF 3
ENDMDL
MODEL 4
REMARK VINA RESULT:    -8.221      1.964      5.431
REMARK INTER + INTRA:         -11.269
REMARK INTER:                 -10.786
REMARK INTRA:                  -0.482
REMARK UNBOUND:                -1.606
REMARK SMILES C[NH+]1CCN(c2nc(C3=C(c4c[nH]c5ccccc45)C([O-])=NC3=O)c3ccccc3n2)CC1
REMARK SMILES IDX 6 1 7 2 8 3 25 4 26 5 27 6 28 7 29 8 30 9 31 10 5 11 2 12
REMARK SMILES IDX 33 13 3 14 32 15 4 16 1 17 9 19 23 20 10 21 22 22 24 23
REMARK SMILES IDX 20 24 21 25 11 26 19 27 12 28 14 29 18 30 13 31 15 32 17 33
REMARK SMILES IDX 16 34
REMARK H PARENT 2 18 13 35
ROOT
ATOM      1  C   UNL     1      12.527   2.975  25.700  1.00  0.00     0.226 A 
ATOM      2  N   UNL     1      13.780   2.453  25.723  1.00  0.00    -0.212 NA
ATOM      3  C   UNL     1      14.239   1.972  26.903  1.00  0.00     0.090 A 
ATOM      4  C   UNL     1      13.480   2.041  28.106  1.00  0.00     0.027 A 
ATOM      5  C   UNL     1      13.894   1.546  29.372  1.00  0.00     0.012 A 
ATOM      6  C   UNL     1      13.059   1.673  30.479  1.00  0.00     0.001 A 
ATOM      7  C   UNL     1      11.811   2.276  30.362  1.00  0.00     0.002 A 
ATOM      8  C   UNL     1      11.368   2.760  29.133  1.00  0.00     0.029 A 
ATOM      9  C   UNL     1      12.190   2.646  27.986  1.00  0.00     0.076 A 
ATOM     10  N   UNL     1      11.723   3.108  26.790  1.00  0.00    -0.213 NA
ENDROOT
BRANCH   1  11
ATOM     11  N   UNL     1      12.049   3.460  24.478  1.00  0.00    -0.329 N 
ATOM     12  N   UNL     1      13.121   5.826  23.040  1.00  0.00    -0.334 N 
ATOM     13  C   UNL     1      13.884   4.486  23.104  1.00  0.00     0.283 C 
ATOM     14  C   UNL     1      12.238   5.958  24.297  1.00  0.00     0.283 C 
ATOM     15  C   UNL     1      12.861   3.333  23.249  1.00  0.00     0.181 C 
ATOM     16  C   UNL     1      11.302   4.731  24.373  1.00  0.00     0.181 C 
ATOM     17  C   UNL     1      14.101   7.011  22.944  1.00  0.00     0.332 C 
ATOM     18  H   UNL     1      12.521   5.815  22.227  1.00  0.00     0.347 HD
ENDBRANCH   1  11
BRANCH   3  19
ATOM     19  C   UNL     1      15.581   1.356  26.789  1.00  0.00     0.077 C 
ATOM     20  C   UNL     1      15.924   0.042  27.260  1.00  0.00     0.279 C 
ATOM     21  C   UNL     1      16.703   1.914  26.304  1.00  0.00     0.010 C 
ATOM     22  N   UNL     1      17.262  -0.167  27.017  1.00  0.00    -0.225 NA
ATOM     23  O   UNL     1      15.167  -0.768  27.793  1.00  0.00    -0.267 OA
ATOM     24  C   UNL     1      17.695   0.894  26.475  1.00  0.00     0.000 C 
ATOM     25  O   UNL     1      18.870   1.057  26.105  1.00  0.00    -0.858 OA
BRANCH  21  26
ATOM     26  C   UNL     1      16.802   3.256  25.717  1.00  0.00     0.009 A 
ATOM     27  C   UNL     1      17.435   3.641  24.481  1.00  0.00     0.007 A 
ATOM     28  C   UNL     1      16.309   4.418  26.281  1.00  0.00     0.092 A 
ATOM     29  C   UNL     1      17.282   5.057  24.353  1.00  0.00     0.046 A 
ATOM     30  C   UNL     1      18.130   2.950  23.474  1.00  0.00     0.011 A 
ATOM     31  N   UNL     1      16.588   5.485  25.466  1.00  0.00    -0.361 N 
ATOM     32  C   UNL     1      17.793   5.771  23.264  1.00  0.00     0.027 A 
ATOM     33  C   UNL     1      18.642   3.663  22.391  1.00  0.00     0.001 A 
ATOM     34  C   UNL     1      18.475   5.041  22.292  1.00  0.00     0.002 A 
ATOM     35  H   UNL     1      16.307   6.428  25.691  1.00  0.00     0.166 HD
ENDBRANCH  21  26
ENDBRANCH   3  19
TORSDOF 3
ENDMDL
MODEL 5
REMARK VINA RESULT:    -8.208      3.050      5.510
REMARK INTER + INTRA:         -11.253
REMARK INTER:                  -9.293
REMARK INTRA:                  -1.960
REMARK UNBOUND:                -1.606
REMARK SMILES C[NH+]1CCN(c2nc(C3=C(c4c[nH]c5ccccc45)C([O-])=NC3=O)c3ccccc3n2)CC1
REMARK SMILES IDX 6 1 7 2 8 3 25 4 26 5 27 6 28 7 29 8 30 9 31 10 5 11 2 12
REMARK SMILES IDX 33 13 3 14 32 15 4 16 1 17 9 19 23 20 10 21 22 22 24 23
REMARK SMILES IDX 20 24 21 25 11 26 19 27 12 28 14 29 18 30 13 31 15 32 17 33
REMARK SMILES IDX 16 34
REMARK H PARENT 2 18 13 35
ROOT
ATOM      1  C   UNL     1      15.200   6.484  20.762  1.00  0.00     0.226 A 
ATOM      2  N   UNL     1      14.549   7.035  21.818  1.00  0.00    -0.212 NA
ATOM      3  C   UNL     1      15.023   6.766  23.058  1.00  0.00     0.090 A 
ATOM      4  C   UNL     1      16.131   5.900  23.285  1.00  0.00     0.027 A 
ATOM      5  C   UNL     1      16.685   5.586  24.555  1.00  0.00     0.012 A 
ATOM      6  C   UNL     1      17.773   4.722  24.647  1.00  0.00     0.001 A 
ATOM      7  C   UNL     1      18.337   4.164  23.503  1.00  0.00     0.002 A 
ATOM      8  C   UNL     1      17.826   4.462  22.242  1.00  0.00     0.029 A 
ATOM      9  C   UNL     1      16.721   5.337  22.111  1.00  0.00     0.076 A 
ATOM     10  N   UNL     1      16.255   5.630  20.862  1.00  0.00    -0.213 NA
ENDROOT
BRANCH   1  11
ATOM     11  N   UNL     1      14.718   6.772  19.481  1.00  0.00    -0.329 N 
ATOM     12  N   UNL     1      12.612   8.770  18.856  1.00  0.00    -0.334 N 
ATOM     13  C   UNL     1      14.044   9.182  19.264  1.00  0.00     0.283 C 
ATOM     14  C   UNL     1      12.287   7.403  19.490  1.00  0.00     0.283 C 
ATOM     15  C   UNL     1      15.027   8.066  18.835  1.00  0.00     0.181 C 
ATOM     16  C   UNL     1      13.360   6.385  19.045  1.00  0.00     0.181 C 
ATOM     17  C   UNL     1      11.588   9.830  19.306  1.00  0.00     0.332 C 
ATOM     18  H   UNL     1      12.581   8.673  17.850  1.00  0.00     0.347 HD
ENDBRANCH   1  11
BRANCH   3  19
ATOM     19  C   UNL     1      14.285   7.484  24.123  1.00  0.00     0.077 C 
ATOM     20  C   UNL     1      14.585   8.815  24.575  1.00  0.00     0.279 C 
ATOM     21  C   UNL     1      13.279   7.019  24.884  1.00  0.00     0.010 C 
ATOM     22  N   UNL     1      13.718   9.129  25.596  1.00  0.00    -0.225 NA
ATOM     23  O   UNL     1      15.462   9.559  24.139  1.00  0.00    -0.267 OA
ATOM     24  C   UNL     1      12.982   8.110  25.763  1.00  0.00     0.000 C 
ATOM     25  O   UNL     1      12.069   8.042  26.603  1.00  0.00    -0.858 OA
BRANCH  21  26
ATOM     26  C   UNL     1      12.658   5.695  24.757  1.00  0.00     0.009 A 
ATOM     27  C   UNL     1      12.981   4.490  25.478  1.00  0.00     0.007 A 
ATOM     28  C   UNL     1      11.641   5.364  23.881  1.00  0.00     0.092 A 
ATOM     29  C   UNL     1      12.112   3.463  24.992  1.00  0.00     0.046 A 
ATOM     30  C   UNL     1      13.919   4.157  26.470  1.00  0.00     0.011 A 
ATOM     31  N   UNL     1      11.313   4.041  24.028  1.00  0.00    -0.361 N 
ATOM     32  C   UNL     1      12.162   2.150  25.471  1.00  0.00     0.027 A 
ATOM     33  C   UNL     1      13.971   2.848  26.945  1.00  0.00     0.001 A 
ATOM     34  C   UNL     1      13.110   1.870  26.454  1.00  0.00     0.002 A 
ATOM     35  H   UNL     1      10.586   3.599  23.485  1.00  0.00     0.166 HD
ENDBRANCH  21  26
ENDBRANCH   3  19
TORSDOF 3
ENDMDL
MODEL 6
REMARK VINA RESULT:    -8.176      3.040      5.744
REMARK INTER + INTRA:         -11.216
REMARK INTER:                  -9.463
REMARK INTRA:                  -1.753
REMARK UNBOUND:                -1.606
REMARK SMILES C[NH+]1CCN(c2nc(C3=C(c4c[nH]c5ccccc45)C([O-])=NC3=O)c3ccccc3n2)CC1
REMARK SMILES IDX 6 1 7 2 8 3 25 4 26 5 27 6 28 7 29 8 30 9 31 10 5 11 2 12
REMARK SMILES IDX 33 13 3 14 32 15 4 16 1 17 9 19 23 20 10 21 22 22 24 23
REMARK SMILES IDX 20 24 21 25 11 26 19 27 12 28 14 29 18 30 13 31 15 32 17 33
REMARK SMILES IDX 16 34
REMARK H PARENT 2 18 13 35
ROOT
ATOM      1  C   UNL     1      16.902   6.590  21.150  1.00  0.00     0.226 A 
ATOM      2  N   UNL     1      16.717   5.660  22.122  1.00  0.00    -0.212 NA
ATOM      3  C   UNL     1      17.712   5.489  23.024  1.00  0.00     0.090 A 
ATOM      4  C   UNL     1      18.941   6.205  22.956  1.00  0.00     0.027 A 
ATOM      5  C   UNL     1      20.019   6.082  23.874  1.00  0.00     0.012 A 
ATOM      6  C   UNL     1      21.174   6.840  23.700  1.00  0.00     0.001 A 
ATOM      7  C   UNL     1      21.287   7.729  22.636  1.00  0.00     0.002 A 
ATOM      8  C   UNL     1      20.244   7.884  21.725  1.00  0.00     0.029 A 
ATOM      9  C   UNL     1      19.055   7.130  21.872  1.00  0.00     0.076 A 
ATOM     10  N   UNL     1      18.040   7.317  20.979  1.00  0.00    -0.213 NA
ENDROOT
BRANCH   1  11
ATOM     11  N   UNL     1      15.868   6.777  20.226  1.00  0.00    -0.329 N 
ATOM     12  N   UNL     1      13.589   8.649  20.564  1.00  0.00    -0.334 N 
ATOM     13  C   UNL     1      15.019   9.140  20.247  1.00  0.00     0.283 C 
ATOM     14  C   UNL     1      13.678   7.316  21.331  1.00  0.00     0.283 C 
ATOM     15  C   UNL     1      15.764   8.036  19.459  1.00  0.00     0.181 C 
ATOM     16  C   UNL     1      14.489   6.311  20.483  1.00  0.00     0.181 C 
ATOM     17  C   UNL     1      12.822   9.697  21.393  1.00  0.00     0.332 C 
ATOM     18  H   UNL     1      13.106   8.486  19.691  1.00  0.00     0.347 HD
ENDBRANCH   1  11
BRANCH   3  19
ATOM     19  C   UNL     1      17.367   4.510  24.081  1.00  0.00     0.077 C 
ATOM     20  C   UNL     1      17.878   3.169  24.157  1.00  0.00     0.279 C 
ATOM     21  C   UNL     1      16.492   4.664  25.090  1.00  0.00     0.010 C 
ATOM     22  N   UNL     1      17.305   2.551  25.246  1.00  0.00    -0.225 NA
ATOM     23  O   UNL     1      18.685   2.646  23.391  1.00  0.00    -0.267 OA
ATOM     24  C   UNL     1      16.525   3.402  25.768  1.00  0.00     0.000 C 
ATOM     25  O   UNL     1      15.845   3.190  26.786  1.00  0.00    -0.858 OA
BRANCH  21  26
ATOM     26  C   UNL     1      15.738   5.889  25.384  1.00  0.00     0.009 A 
ATOM     27  C   UNL     1      14.313   6.092  25.320  1.00  0.00     0.007 A 
ATOM     28  C   UNL     1      16.287   7.100  25.762  1.00  0.00     0.092 A 
ATOM     29  C   UNL     1      14.065   7.454  25.680  1.00  0.00     0.046 A 
ATOM     30  C   UNL     1      13.216   5.280  24.982  1.00  0.00     0.011 A 
ATOM     31  N   UNL     1      15.292   8.025  25.945  1.00  0.00    -0.361 N 
ATOM     32  C   UNL     1      12.777   7.998  25.712  1.00  0.00     0.027 A 
ATOM     33  C   UNL     1      11.934   5.824  25.010  1.00  0.00     0.001 A 
ATOM     34  C   UNL     1      11.723   7.153  25.368  1.00  0.00     0.002 A 
ATOM     35  H   UNL     1      15.480   8.975  26.231  1.00  0.00     0.166 HD
ENDBRANCH  21  26
ENDBRANCH   3  19
TORSDOF 3
ENDMDL
MODEL 7
REMARK VINA RESULT:    -8.040      2.582      5.486
REMARK INTER + INTRA:         -11.056
REMARK INTER:                  -9.651
REMARK INTRA:                  -1.405
REMARK UNBOUND:                -1.606
REMARK SMILES C[NH+]1CCN(c2nc(C3=C(c4c[nH]c5ccccc45)C([O-])=NC3=O)c3ccccc3n2)CC1
REMARK SMILES IDX 6 1 7 2 8 3 25 4 26 5 27 6 28 7 29 8 30 9 31 10 5 11 2 12
REMARK SMILES IDX 33 13 3 14 32 15 4 16 1 17 9 19 23 20 10 21 22 22 24 23
REMARK SMILES IDX 20 24 21 25 11 26 19 27 12 28 14 29 18 30 13 31 15 32 17 33
REMARK SMILES IDX 16 34
REMARK H PARENT 2 18 13 35
ROOT
ATOM      1  C   UNL     1      12.789   3.942  24.373  1.00  0.00     0.226 A 
ATOM      2  N   UNL     1      14.122   4.113  24.176  1.00  0.00    -0.212 NA
ATOM      3  C   UNL     1      14.968   3.495  25.034  1.00  0.00     0.090 A 
ATOM      4  C   UNL     1      14.510   2.728  26.143  1.00  0.00     0.027 A 
ATOM      5  C   UNL     1      15.341   2.045  27.072  1.00  0.00     0.012 A 
ATOM      6  C   UNL     1      14.772   1.325  28.119  1.00  0.00     0.001 A 
ATOM      7  C   UNL     1      13.390   1.256  28.266  1.00  0.00     0.002 A 
ATOM      8  C   UNL     1      12.547   1.902  27.365  1.00  0.00     0.029 A 
ATOM      9  C   UNL     1      13.091   2.643  26.288  1.00  0.00     0.076 A 
ATOM     10  N   UNL     1      12.242   3.247  25.407  1.00  0.00    -0.213 NA
ENDROOT
BRANCH   1  11
ATOM     11  N   UNL     1      11.916   4.570  23.478  1.00  0.00    -0.329 N 
ATOM     12  N   UNL     1      11.445   7.497  23.317  1.00  0.00    -0.334 N 
ATOM     13  C   UNL     1      12.748   6.842  22.809  1.00  0.00     0.283 C 
ATOM     14  C   UNL     1      10.863   6.632  24.453  1.00  0.00     0.283 C 
ATOM     15  C   UNL     1      12.440   5.391  22.367  1.00  0.00     0.181 C 
ATOM     16  C   UNL     1      10.652   5.197  23.921  1.00  0.00     0.181 C 
ATOM     17  C   UNL     1      11.711   8.931  23.815  1.00  0.00     0.332 C 
ATOM     18  H   UNL     1      10.779   7.519  22.558  1.00  0.00     0.347 HD
ENDBRANCH   1  11
BRANCH   3  19
ATOM     19  C   UNL     1      16.392   3.686  24.673  1.00  0.00     0.077 C 
ATOM     20  C   UNL     1      17.320   2.623  24.401  1.00  0.00     0.279 C 
ATOM     21  C   UNL     1      17.074   4.842  24.603  1.00  0.00     0.010 C 
ATOM     22  N   UNL     1      18.551   3.181  24.143  1.00  0.00    -0.225 NA
ATOM     23  O   UNL     1      17.075   1.418  24.396  1.00  0.00    -0.267 OA
ATOM     24  C   UNL     1      18.403   4.435  24.257  1.00  0.00     0.000 C 
ATOM     25  O   UNL     1      19.314   5.261  24.080  1.00  0.00    -0.858 OA
BRANCH  21  26
ATOM     26  C   UNL     1      16.507   6.180  24.811  1.00  0.00     0.009 A 
ATOM     27  C   UNL     1      16.248   7.199  23.826  1.00  0.00     0.007 A 
ATOM     28  C   UNL     1      16.134   6.714  26.031  1.00  0.00     0.092 A 
ATOM     29  C   UNL     1      15.710   8.328  24.519  1.00  0.00     0.046 A 
ATOM     30  C   UNL     1      16.426   7.292  22.435  1.00  0.00     0.011 A 
ATOM     31  N   UNL     1      15.654   7.986  25.854  1.00  0.00    -0.361 N 
ATOM     32  C   UNL     1      15.353   9.511  23.863  1.00  0.00     0.027 A 
ATOM     33  C   UNL     1      16.073   8.472  21.782  1.00  0.00     0.001 A 
ATOM     34  C   UNL     1      15.549   9.553  22.484  1.00  0.00     0.002 A 
ATOM     35  H   UNL     1      15.321   8.552  26.622  1.00  0.00     0.166 HD
ENDBRANCH  21  26
ENDBRANCH   3  19
TORSDOF 3
ENDMDL
MODEL 8
REMARK VINA RESULT:    -7.995      2.598      5.901
REMARK INTER + INTRA:         -11.003
REMARK INTER:                  -9.082
REMARK INTRA:                  -1.921
REMARK UNBOUND:                -1.606
REMARK SMILES C[NH+]1CCN(c2nc(C3=C(c4c[nH]c5ccccc45)C([O-])=NC3=O)c3ccccc3n2)CC1
REMARK SMILES IDX 6 1 7 2 8 3 25 4 26 5 27 6 28 7 29 8 30 9 31 10 5 11 2 12
REMARK SMILES IDX 33 13 3 14 32 15 4 16 1 17 9 19 23 20 10 21 22 22 24 23
REMARK SMILES IDX 20 24 21 25 11 26 19 27 12 28 14 29 18 30 13 31 15 32 17 33
REMARK SMILES IDX 16 34
REMARK H PARENT 2 18 13 35
ROOT
ATOM      1  C   UNL     1      16.430   6.242  22.575  1.00  0.00     0.226 A 
ATOM      2  N   UNL     1      15.646   6.777  23.546  1.00  0.00    -0.212 NA
ATOM      3  C   UNL     1      14.397   7.170  23.200  1.00  0.00     0.090 A 
ATOM      4  C   UNL     1      13.909   7.087  21.865  1.00  0.00     0.027 A 
ATOM      5  C   UNL     1      12.610   7.469  21.437  1.00  0.00     0.012 A 
ATOM      6  C   UNL     1      12.250   7.340  20.098  1.00  0.00     0.001 A 
ATOM      7  C   UNL     1      13.148   6.830  19.166  1.00  0.00     0.002 A 
ATOM      8  C   UNL     1      14.426   6.433  19.555  1.00  0.00     0.029 A 
ATOM      9  C   UNL     1      14.825   6.550  20.908  1.00  0.00     0.076 A 
ATOM     10  N   UNL     1      16.074   6.132  21.266  1.00  0.00    -0.213 NA
ENDROOT
BRANCH   1  11
ATOM     11  N   UNL     1      17.715   5.824  22.936  1.00  0.00    -0.329 N 
ATOM     12  N   UNL     1      18.375   3.215  24.190  1.00  0.00    -0.334 N 
ATOM     13  C   UNL     1      17.981   3.337  22.702  1.00  0.00     0.283 C 
ATOM     14  C   UNL     1      17.710   4.361  24.977  1.00  0.00     0.283 C 
ATOM     15  C   UNL     1      18.390   4.740  22.190  1.00  0.00     0.181 C 
ATOM     16  C   UNL     1      18.137   5.705  24.347  1.00  0.00     0.181 C 
ATOM     17  C   UNL     1      17.944   1.849  24.759  1.00  0.00     0.332 C 
ATOM     18  H   UNL     1      19.378   3.313  24.266  1.00  0.00     0.347 HD
ENDBRANCH   1  11
BRANCH   3  19
ATOM     19  C   UNL     1      13.609   7.660  24.355  1.00  0.00     0.077 C 
ATOM     20  C   UNL     1      13.713   8.976  24.921  1.00  0.00     0.279 C 
ATOM     21  C   UNL     1      12.731   6.969  25.103  1.00  0.00     0.010 C 
ATOM     22  N   UNL     1      12.860   9.051  25.998  1.00  0.00    -0.225 NA
ATOM     23  O   UNL     1      14.435   9.890  24.527  1.00  0.00    -0.267 OA
ATOM     24  C   UNL     1      12.307   7.914  26.093  1.00  0.00     0.000 C 
ATOM     25  O   UNL     1      11.461   7.622  26.955  1.00  0.00    -0.858 OA
BRANCH  21  26
ATOM     26  C   UNL     1      12.326   5.577  24.873  1.00  0.00     0.009 A 
ATOM     27  C   UNL     1      12.751   4.399  25.585  1.00  0.00     0.007 A 
ATOM     28  C   UNL     1      11.457   5.145  23.888  1.00  0.00     0.092 A 
ATOM     29  C   UNL     1      12.093   3.282  24.982  1.00  0.00     0.046 A 
ATOM     30  C   UNL     1      13.629   4.159  26.656  1.00  0.00     0.011 A 
ATOM     31  N   UNL     1      11.314   3.783  23.960  1.00  0.00    -0.361 N 
ATOM     32  C   UNL     1      12.288   1.969  25.422  1.00  0.00     0.027 A 
ATOM     33  C   UNL     1      13.825   2.850  27.093  1.00  0.00     0.001 A 
ATOM     34  C   UNL     1      13.168   1.783  26.487  1.00  0.00     0.002 A 
ATOM     35  H   UNL     1      10.715   3.267  23.332  1.00  0.00     0.166 HD
ENDBRANCH  21  26
ENDBRANCH   3  19
TORSDOF 3
ENDMDL
MODEL 9
REMARK VINA RESULT:    -7.882      2.629      6.628
REMARK INTER + INTRA:         -10.871
REMARK INTER:                  -9.327
REMARK INTRA:                  -1.544
REMARK UNBOUND:                -1.606
REMARK SMILES C[NH+]1CCN(c2nc(C3=C(c4c[nH]c5ccccc45)C([O-])=NC3=O)c3ccccc3n2)CC1
REMARK SMILES IDX 6 1 7 2 8 3 25 4 26 5 27 6 28 7 29 8 30 9 31 10 5 11 2 12
REMARK SMILES IDX 33 13 3 14 32 15 4 16 1 17 9 19 23 20 10 21 22 22 24 23
REMARK SMILES IDX 20 24 21 25 11 26 19 27 12 28 14 29 18 30 13 31 15 32 17 33
REMARK SMILES IDX 16 34
REMARK H PARENT 2 18 13 35
ROOT
ATOM      1  C   UNL     1      12.755   6.252  21.435  1.00  0.00     0.226 A 
ATOM      2  N   UNL     1      13.225   5.388  22.371  1.00  0.00    -0.212 NA
ATOM      3  C   UNL     1      12.764   5.522  23.637  1.00  0.00     0.090 A 
ATOM      4  C   UNL     1      11.858   6.553  24.019  1.00  0.00     0.027 A 
ATOM      5  C   UNL     1      11.328   6.744  25.323  1.00  0.00     0.012 A 
ATOM      6  C   UNL     1      10.448   7.793  25.572  1.00  0.00     0.001 A 
ATOM      7  C   UNL     1      10.070   8.661  24.552  1.00  0.00     0.002 A 
ATOM      8  C   UNL     1      10.560   8.495  23.259  1.00  0.00     0.029 A 
ATOM      9  C   UNL     1      11.457   7.438  22.970  1.00  0.00     0.076 A 
ATOM     10  N   UNL     1      11.905   7.284  21.690  1.00  0.00    -0.213 NA
ENDROOT
BRANCH   1  11
ATOM     11  N   UNL     1      13.221   6.105  20.124  1.00  0.00    -0.329 N 
ATOM     12  N   UNL     1      13.961   8.337  18.311  1.00  0.00    -0.334 N 
ATOM     13  C   UNL     1      14.845   7.919  19.507  1.00  0.00     0.283 C 
ATOM     14  C   UNL     1      12.494   7.988  18.630  1.00  0.00     0.283 C 
ATOM     15  C   UNL     1      14.627   6.412  19.787  1.00  0.00     0.181 C 
ATOM     16  C   UNL     1      12.404   6.480  18.951  1.00  0.00     0.181 C 
ATOM     17  C   UNL     1      14.106   9.844  18.023  1.00  0.00     0.332 C 
ATOM     18  H   UNL     1      14.248   7.807  17.500  1.00  0.00     0.347 HD
ENDBRANCH   1  11
BRANCH   3  19
ATOM     19  C   UNL     1      13.281   4.477  24.550  1.00  0.00     0.077 C 
ATOM     20  C   UNL     1      12.539   3.325  24.985  1.00  0.00     0.279 C 
ATOM     21  C   UNL     1      14.472   4.446  25.174  1.00  0.00     0.010 C 
ATOM     22  N   UNL     1      13.328   2.606  25.853  1.00  0.00    -0.225 NA
ATOM     23  O   UNL     1      11.395   3.020  24.651  1.00  0.00    -0.267 OA
ATOM     24  C   UNL     1      14.419   3.244  25.953  1.00  0.00     0.000 C 
ATOM     25  O   UNL     1      15.378   2.876  26.651  1.00  0.00    -0.858 OA
BRANCH  21  26
ATOM     26  C   UNL     1      15.543   5.436  25.014  1.00  0.00     0.009 A 
ATOM     27  C   UNL     1      16.810   5.275  24.347  1.00  0.00     0.007 A 
ATOM     28  C   UNL     1      15.527   6.726  25.513  1.00  0.00     0.092 A 
ATOM     29  C   UNL     1      17.513   6.514  24.474  1.00  0.00     0.046 A 
ATOM     30  C   UNL     1      17.439   4.216  23.670  1.00  0.00     0.011 A 
ATOM     31  N   UNL     1      16.694   7.366  25.184  1.00  0.00    -0.361 N 
ATOM     32  C   UNL     1      18.794   6.707  23.946  1.00  0.00     0.027 A 
ATOM     33  C   UNL     1      18.717   4.408  23.147  1.00  0.00     0.001 A 
ATOM     34  C   UNL     1      19.375   5.627  23.284  1.00  0.00     0.002 A 
ATOM     35  H   UNL     1      16.880   8.323  25.447  1.00  0.00     0.166 HD
ENDBRANCH  21  26
ENDBRANCH   3  19
TORSDOF 3
ENDMDL
