REMARK VINA RESULT:    -8.951      0.000      0.000
REMARK INTER + INTRA:         -15.464
REMARK INTER:                 -14.184
REMARK INTRA:                  -1.280
REMARK UNBOUND:                -1.280
REMARK SMILES CCOC(=O)[C@H](Oc1ccc2c(c1)CN(C(=N)N)CC2)c1ccc(O[C@H]2CCN(C(=N)N)C2)cc1
REMARK SMILES IDX 21 1 22 2 23 3 24 4 34 5 35 6 6 7 4 8 5 9 3 10 2 11 1 12
REMARK SMILES IDX 7 13 8 14 9 15 13 16 10 17 12 18 11 19 14 20 20 21 15 22
REMARK SMILES IDX 19 23 16 24 17 25 18 26 25 30 26 31 27 32 33 33 28 34 29 35
REMARK SMILES IDX 30 36 31 37 32 38
REMARK H PARENT 17 27 18 28 18 29 31 39 32 40 32 41
ROOT
ATOM      1  C   UNL     1      -5.613  12.570  23.558  1.00  0.00     0.004 A 
ATOM      2  C   UNL     1      -4.604  11.809  22.954  1.00  0.00     0.012 A 
ATOM      3  C   UNL     1      -3.441  11.492  23.662  1.00  0.00     0.047 A 
ATOM      4  C   UNL     1      -3.264  11.919  24.980  1.00  0.00     0.119 A 
ATOM      5  C   UNL     1      -4.254  12.695  25.579  1.00  0.00     0.047 A 
ATOM      6  C   UNL     1      -5.418  13.020  24.874  1.00  0.00     0.012 A 
ENDROOT
BRANCH   1   7
ATOM      7  C   UNL     1      -6.893  12.910  22.801  1.00  0.00     0.313 C 
BRANCH   7   8
ATOM      8  C   UNL     1      -7.787  13.827  23.656  1.00  0.00     0.352 C 
ATOM      9  O   UNL     1      -8.598  13.454  24.493  1.00  0.00    -0.247 OA
BRANCH   8  10
ATOM     10  O   UNL     1      -7.550  15.136  23.337  1.00  0.00    -0.463 OA
BRANCH  10  11
ATOM     11  C   UNL     1      -7.155  15.388  21.980  1.00  0.00     0.229 C 
ATOM     12  C   UNL     1      -6.151  16.524  21.932  1.00  0.00     0.049 C 
ENDBRANCH  10  11
ENDBRANCH   8  10
ENDBRANCH   7   8
BRANCH   7  13
ATOM     13  O   UNL     1      -7.507  11.664  22.471  1.00  0.00    -0.474 OA
BRANCH  13  14
ATOM     14  C   UNL     1      -7.413  11.196  21.191  1.00  0.00     0.121 A 
ATOM     15  C   UNL     1      -7.440  11.954  20.024  1.00  0.00     0.047 A 
ATOM     16  C   UNL     1      -7.290   9.806  21.100  1.00  0.00     0.052 A 
ATOM     17  C   UNL     1      -7.330  11.327  18.779  1.00  0.00     0.008 A 
ATOM     18  C   UNL     1      -7.179   9.160  19.859  1.00  0.00    -0.022 A 
ATOM     19  C   UNL     1      -7.209   9.934  18.687  1.00  0.00    -0.041 A 
ATOM     20  C   UNL     1      -7.056   7.651  19.826  1.00  0.00     0.155 C 
ATOM     21  C   UNL     1      -7.063   9.269  17.344  1.00  0.00     0.057 C 
ATOM     22  N   UNL     1      -6.772   7.124  18.489  1.00  0.00    -0.339 N 
ATOM     23  C   UNL     1      -7.485   7.802  17.405  1.00  0.00     0.124 C 
BRANCH  22  24
ATOM     24  C   UNL     1      -6.131   5.935  18.319  1.00  0.00     0.188 C 
ATOM     25  N   UNL     1      -6.681   4.782  18.154  1.00  0.00    -0.269 NA
ATOM     26  N   UNL     1      -4.790   5.979  18.364  1.00  0.00    -0.370 N 
ATOM     27  H   UNL     1      -7.694   4.890  18.114  1.00  0.00     0.191 HD
ATOM     28  H   UNL     1      -4.320   5.088  18.282  1.00  0.00     0.159 HD
ATOM     29  H   UNL     1      -4.317   6.724  18.846  1.00  0.00     0.159 HD
ENDBRANCH  22  24
ENDBRANCH  13  14
ENDBRANCH   7  13
ENDBRANCH   1   7
BRANCH   4  30
ATOM     30  O   UNL     1      -2.090  11.519  25.555  1.00  0.00    -0.489 OA
BRANCH  30  31
ATOM     31  C   UNL     1      -1.753  10.139  25.488  1.00  0.00     0.194 C 
ATOM     32  C   UNL     1      -0.234  10.003  25.438  1.00  0.00     0.068 C 
ATOM     33  C   UNL     1      -2.078   9.379  26.782  1.00  0.00     0.164 C 
ATOM     34  C   UNL     1      -0.014   8.564  25.879  1.00  0.00     0.123 C 
ATOM     35  N   UNL     1      -1.071   8.318  26.854  1.00  0.00    -0.340 N 
BRANCH  35  36
ATOM     36  C   UNL     1      -1.156   7.207  27.628  1.00  0.00     0.188 C 
ATOM     37  N   UNL     1      -0.743   6.030  27.313  1.00  0.00    -0.269 NA
ATOM     38  N   UNL     1      -1.727   7.358  28.832  1.00  0.00    -0.370 N 
ATOM     39  H   UNL     1      -0.344   6.052  26.375  1.00  0.00     0.191 HD
ATOM     40  H   UNL     1      -1.766   6.521  29.399  1.00  0.00     0.159 HD
ATOM     41  H   UNL     1      -1.722   8.244  29.306  1.00  0.00     0.159 HD
ENDBRANCH  35  36
ENDBRANCH  30  31
ENDBRANCH   4  30
TORSDOF 10
