MODEL 6
REMARK minimizedAffinity -7.42624807
REMARK CNNscore 0.186897397
REMARK CNNaffinity 6.33764458
REMARK SMILES O=C(Nc1ccc(-c2nc(N3C[C@H]4CC[C@@H](C3)O4)c3sccc3n2)cc1)NC1CC1
REMARK SMILES IDX 4 1 5 2 6 3 7 4 25 5 26 6 3 7 1 8 2 9 27 10 28 13 29 14
REMARK SMILES IDX 30 15 8 16 9 17 24 18 10 19 23 20 19 21 22 22 20 23 21 24
REMARK SMILES IDX 11 25 17 26 12 27 16 28 13 29 15 30 18 31 14 32
REMARK H PARENT 3 11 27 12
ROOT
ATOM      1  C   UNL     1      31.407  47.976  46.837  1.00  0.00     0.042 A 
ATOM      2  C   UNL     1      30.393  47.495  46.013  1.00  0.00     0.027 A 
ATOM      3  C   UNL     1      30.664  47.137  44.684  1.00  0.00     0.014 A 
ATOM      4  C   UNL     1      31.954  47.244  44.133  1.00  0.00     0.019 A 
ATOM      5  C   UNL     1      32.965  47.726  44.986  1.00  0.00     0.014 A 
ATOM      6  C   UNL     1      32.699  48.084  46.314  1.00  0.00     0.027 A 
ENDROOT
BRANCH   1   7
ATOM      7  N   UNL     1      31.219  48.343  48.184  1.00  0.00    -0.308 N 
ATOM      8  O   UNL     1      32.757  50.071  48.459  1.00  0.00    -0.248 OA
ATOM      9  C   UNL     1      31.847  49.365  48.870  1.00  0.00     0.319 C 
ATOM     10  N   UNL     1      31.317  49.490  50.148  1.00  0.00    -0.335 N 
ATOM     11  H   UNL     1      30.681  47.707  48.752  1.00  0.00     0.171 HD
ATOM     12  H   UNL     1      30.362  49.184  50.256  1.00  0.00     0.165 HD
BRANCH  10  13
ATOM     13  C   UNL     1      31.770  50.514  51.041  1.00  0.00     0.084 C 
ATOM     14  C   UNL     1      30.799  51.494  51.640  1.00  0.00     0.027 C 
ATOM     15  C   UNL     1      31.787  51.953  50.609  1.00  0.00     0.027 C 
ENDBRANCH  10  13
ENDBRANCH   1   7
BRANCH   4  16
ATOM     16  C   UNL     1      32.234  46.869  42.729  1.00  0.00     0.162 A 
ATOM     17  N   UNL     1      33.449  47.179  42.242  1.00  0.00    -0.210 NA
ATOM     18  N   UNL     1      31.258  46.251  42.052  1.00  0.00    -0.227 NA
ATOM     19  C   UNL     1      33.774  46.881  40.962  1.00  0.00     0.150 A 
ATOM     20  C   UNL     1      31.576  45.911  40.783  1.00  0.00     0.087 A 
ATOM     21  C   UNL     1      32.806  46.200  40.204  1.00  0.00     0.095 A 
ATOM     22  C   UNL     1      30.702  45.219  39.890  1.00  0.00     0.041 A 
ATOM     23  S   UNL     1      32.876  45.586  38.592  1.00  0.00    -0.138 S 
ATOM     24  C   UNL     1      31.283  44.979  38.667  1.00  0.00     0.068 A 
BRANCH  19  25
ATOM     25  N   UNL     1      35.044  47.212  40.464  1.00  0.00    -0.350 N 
ATOM     26  C   UNL     1      35.545  48.500  41.007  1.00  0.00     0.150 C 
ATOM     27  C   UNL     1      36.041  46.121  40.605  1.00  0.00     0.150 C 
ATOM     28  C   UNL     1      36.976  48.779  40.476  1.00  0.00     0.138 C 
ATOM     29  C   UNL     1      37.425  46.599  40.096  1.00  0.00     0.138 C 
ATOM     30  C   UNL     1      37.067  48.684  38.955  1.00  0.00     0.037 C 
ATOM     31  O   UNL     1      37.848  47.713  40.921  1.00  0.00    -0.371 OA
ATOM     32  C   UNL     1      37.364  47.209  38.699  1.00  0.00     0.037 C 
ENDBRANCH  19  25
ENDBRANCH   4  16
TORSDOF 4
ENDMDL
