REMARK VINA RESULT:    -8.527      3.352      6.882
REMARK INTER + INTRA:         -12.313
REMARK INTER:                 -12.000
REMARK INTRA:                  -0.314
REMARK UNBOUND:                -0.546
REMARK SMILES Cc1ccc(NC(=O)c2ccccc2NC(=O)c2ccc(C(C)(C)C)cc2)cc1C(=O)O
REMARK SMILES IDX 9 1 10 2 11 3 12 4 13 5 14 6 7 7 6 8 8 9 5 11 2 12 3 13
REMARK SMILES IDX 29 14 4 15 28 16 1 17 30 18 31 19 32 20 15 22 16 23 17 24
REMARK SMILES IDX 18 26 19 27 27 28 20 29 26 30 21 31 22 32 23 33 24 34 25 35
REMARK H PARENT 6 10 32 21 15 25
ROOT
ATOM      1  C   UNL     1      10.727   9.673 -11.380  1.00  0.00     0.063 A 
ATOM      2  C   UNL     1      11.112  10.615 -12.350  1.00  0.00     0.016 A 
ATOM      3  C   UNL     1      11.383  10.210 -13.655  1.00  0.00     0.001 A 
ATOM      4  C   UNL     1      11.280   8.865 -13.995  1.00  0.00     0.002 A 
ATOM      5  C   UNL     1      10.923   7.917 -13.030  1.00  0.00     0.027 A 
ATOM      6  C   UNL     1      10.652   8.299 -11.712  1.00  0.00     0.054 A 
ENDROOT
BRANCH   1   7
ATOM      7  C   UNL     1      10.407  10.137  -9.993  1.00  0.00     0.257 C 
ATOM      8  N   UNL     1      11.271  11.087  -9.477  1.00  0.00    -0.322 N 
ATOM      9  O   UNL     1       9.399   9.697  -9.449  1.00  0.00    -0.269 OA
ATOM     10  H   UNL     1      11.971  11.462 -10.105  1.00  0.00     0.170 HD
BRANCH   8  11
ATOM     11  C   UNL     1      11.247  11.655  -8.185  1.00  0.00     0.042 A 
ATOM     12  C   UNL     1      11.059  12.688  -5.554  1.00  0.00    -0.036 A 
ATOM     13  C   UNL     1      11.967  13.222  -6.483  1.00  0.00     0.006 A 
ATOM     14  C   UNL     1      10.234  11.619  -5.953  1.00  0.00     0.064 A 
ATOM     15  C   UNL     1      12.057  12.713  -7.783  1.00  0.00     0.026 A 
ATOM     16  C   UNL     1      10.337  11.117  -7.266  1.00  0.00     0.042 A 
ATOM     17  C   UNL     1      11.017  13.285  -4.173  1.00  0.00     0.045 C 
BRANCH  14  18
ATOM     18  C   UNL     1       9.252  11.003  -5.010  1.00  0.00     0.336 C 
ATOM     19  O   UNL     1       9.304  10.981  -3.795  1.00  0.00    -0.246 OA
BRANCH  18  20
ATOM     20  O   UNL     1       8.213  10.429  -5.648  1.00  0.00    -0.478 OA
ATOM     21  H   UNL     1       8.395  10.620  -6.593  1.00  0.00     0.297 HD
ENDBRANCH  18  20
ENDBRANCH  14  18
ENDBRANCH   8  11
ENDBRANCH   1   7
BRANCH   6  22
ATOM     22  N   UNL     1      10.329   7.359 -10.702  1.00  0.00    -0.321 N 
ATOM     23  C   UNL     1      10.795   6.069 -10.548  1.00  0.00     0.255 C 
ATOM     24  O   UNL     1      11.500   5.453 -11.340  1.00  0.00    -0.269 OA
ATOM     25  H   UNL     1       9.660   7.701 -10.010  1.00  0.00     0.170 HD
BRANCH  23  26
ATOM     26  C   UNL     1      10.339   5.371  -9.309  1.00  0.00     0.040 A 
ATOM     27  C   UNL     1      10.337   6.083  -8.106  1.00  0.00     0.014 A 
ATOM     28  C   UNL     1       9.890   4.049  -9.315  1.00  0.00     0.014 A 
ATOM     29  C   UNL     1       9.918   5.472  -6.918  1.00  0.00     0.005 A 
ATOM     30  C   UNL     1       9.472   3.444  -8.124  1.00  0.00     0.005 A 
ATOM     31  C   UNL     1       9.480   4.138  -6.898  1.00  0.00    -0.043 A 
BRANCH  31  32
ATOM     32  C   UNL     1       9.014   3.435  -5.610  1.00  0.00    -0.013 C 
ATOM     33  C   UNL     1       7.695   4.071  -5.117  1.00  0.00     0.016 C 
ATOM     34  C   UNL     1      10.092   3.591  -4.516  1.00  0.00     0.016 C 
ATOM     35  C   UNL     1       8.753   1.921  -5.784  1.00  0.00     0.016 C 
ENDBRANCH  31  32
ENDBRANCH  23  26
ENDBRANCH   6  22
TORSDOF 7
