MODEL 1
REMARK VINA RESULT:    -8.494      0.000      0.000
REMARK INTER + INTRA:         -11.304
REMARK INTER:                 -10.977
REMARK INTRA:                  -0.326
REMARK UNBOUND:                -0.326
REMARK SMILES CN(c1ncnc2[nH]ccc12)[C@H]1C[C@@H](CS(=O)(=O)N2CC3(COC3)C2)C1
REMARK SMILES IDX 12 1 26 2 14 3 13 4 2 5 1 6 3 7 4 8 11 9 5 10 10 11 7 12
REMARK SMILES IDX 6 13 9 14 8 15 15 17 16 18 17 19 18 20 19 21 20 22 25 23
REMARK SMILES IDX 21 24 22 25 24 26 23 27
REMARK H PARENT 8 16
ROOT
ATOM      1  C   UNL     1      -3.361  24.490 -30.299  1.00  0.00     0.084 C 
ATOM      2  C   UNL     1      -3.688  24.980 -28.862  1.00  0.00     0.029 C 
ATOM      3  C   UNL     1      -2.410  24.240 -28.393  1.00  0.00     0.009 C 
ATOM      4  C   UNL     1      -2.613  23.311 -29.617  1.00  0.00     0.029 C 
ENDROOT
BRANCH   1   5
ATOM      5  N   UNL     1      -4.511  24.074 -31.066  1.00  0.00    -0.356 N 
ATOM      6  C   UNL     1      -4.689  22.644 -31.300  1.00  0.00     0.145 C 
BRANCH   5   7
ATOM      7  C   UNL     1      -5.202  24.940 -31.941  1.00  0.00     0.141 A 
ATOM      8  N   UNL     1      -5.862  24.374 -32.994  1.00  0.00    -0.219 NA
ATOM      9  C   UNL     1      -5.266  26.352 -31.839  1.00  0.00     0.061 A 
ATOM     10  C   UNL     1      -6.556  25.148 -33.848  1.00  0.00     0.226 A 
ATOM     11  C   UNL     1      -4.734  27.374 -30.990  1.00  0.00     0.033 A 
ATOM     12  C   UNL     1      -6.013  27.017 -32.803  1.00  0.00     0.142 A 
ATOM     13  N   UNL     1      -6.688  26.480 -33.828  1.00  0.00    -0.218 NA
ATOM     14  C   UNL     1      -5.182  28.596 -31.448  1.00  0.00     0.085 A 
ATOM     15  N   UNL     1      -5.961  28.361 -32.549  1.00  0.00    -0.346 N 
ATOM     16  H   UNL     1      -6.430  29.054 -33.114  1.00  0.00     0.167 HD
ENDBRANCH   5   7
ENDBRANCH   1   5
BRANCH   3  17
ATOM     17  C   UNL     1      -2.499  23.628 -27.007  1.00  0.00     0.158 C 
BRANCH  17  18
ATOM     18  S   UNL     1      -1.680  24.675 -25.811  1.00  0.00     0.214 S 
ATOM     19  O   UNL     1      -2.574  24.913 -24.698  1.00  0.00    -0.212 OA
ATOM     20  O   UNL     1      -1.025  25.766 -26.500  1.00  0.00    -0.212 OA
BRANCH  18  21
ATOM     21  N   UNL     1      -0.469  23.630 -25.263  1.00  0.00    -0.200 NA
ATOM     22  C   UNL     1       0.667  24.013 -24.349  1.00  0.00     0.115 C 
ATOM     23  C   UNL     1      -0.742  22.431 -24.391  1.00  0.00     0.115 C 
ATOM     24  C   UNL     1       0.587  22.650 -23.738  1.00  0.00     0.045 C 
ATOM     25  C   UNL     1       1.688  21.670 -23.964  1.00  0.00     0.172 C 
ATOM     26  C   UNL     1       0.756  22.446 -22.275  1.00  0.00     0.172 C 
ATOM     27  O   UNL     1       1.792  21.449 -22.523  1.00  0.00    -0.380 OA
ENDBRANCH  18  21
ENDBRANCH  17  18
ENDBRANCH   3  17
TORSDOF 5
ENDMDL
MODEL 2
REMARK VINA RESULT:    -8.362      5.865      8.581
REMARK INTER + INTRA:         -11.132
REMARK INTER:                 -10.673
REMARK INTRA:                  -0.459
REMARK UNBOUND:                -0.326
REMARK SMILES CN(c1ncnc2[nH]ccc12)[C@H]1C[C@@H](CS(=O)(=O)N2CC3(COC3)C2)C1
REMARK SMILES IDX 12 1 26 2 14 3 13 4 2 5 1 6 3 7 4 8 11 9 5 10 10 11 7 12
REMARK SMILES IDX 6 13 9 14 8 15 15 17 16 18 17 19 18 20 19 21 20 22 25 23
REMARK SMILES IDX 21 24 22 25 24 26 23 27
REMARK H PARENT 8 16
ROOT
ATOM      1  C   UNL     1      -4.029  28.761 -30.513  1.00  0.00     0.084 C 
ATOM      2  C   UNL     1      -5.246  29.677 -30.819  1.00  0.00     0.029 C 
ATOM      3  C   UNL     1      -4.399  30.863 -30.294  1.00  0.00     0.009 C 
ATOM      4  C   UNL     1      -3.634  29.817 -29.442  1.00  0.00     0.029 C 
ENDROOT
BRANCH   1   5
ATOM      5  N   UNL     1      -4.372  27.476 -29.953  1.00  0.00    -0.356 N 
ATOM      6  C   UNL     1      -4.107  27.261 -28.533  1.00  0.00     0.145 C 
BRANCH   5   7
ATOM      7  C   UNL     1      -4.530  26.315 -30.740  1.00  0.00     0.141 A 
ATOM      8  N   UNL     1      -3.894  25.180 -30.322  1.00  0.00    -0.219 NA
ATOM      9  C   UNL     1      -5.278  26.215 -31.940  1.00  0.00     0.061 A 
ATOM     10  C   UNL     1      -4.026  24.039 -31.020  1.00  0.00     0.226 A 
ATOM     11  C   UNL     1      -6.047  27.082 -32.778  1.00  0.00     0.033 A 
ATOM     12  C   UNL     1      -5.312  24.970 -32.556  1.00  0.00     0.142 A 
ATOM     13  N   UNL     1      -4.718  23.841 -32.149  1.00  0.00    -0.218 NA
ATOM     14  C   UNL     1      -6.526  26.346 -33.842  1.00  0.00     0.085 A 
ATOM     15  N   UNL     1      -6.072  25.062 -33.690  1.00  0.00    -0.346 N 
ATOM     16  H   UNL     1      -6.247  24.285 -34.309  1.00  0.00     0.167 HD
ENDBRANCH   5   7
ENDBRANCH   1   5
BRANCH   3  17
ATOM     17  C   UNL     1      -5.187  31.938 -29.570  1.00  0.00     0.158 C 
BRANCH  17  18
ATOM     18  S   UNL     1      -4.246  33.458 -29.498  1.00  0.00     0.214 S 
ATOM     19  O   UNL     1      -4.583  34.278 -30.641  1.00  0.00    -0.212 OA
ATOM     20  O   UNL     1      -2.871  33.152 -29.165  1.00  0.00    -0.212 OA
BRANCH  18  21
ATOM     21  N   UNL     1      -4.941  34.186 -28.138  1.00  0.00    -0.200 NA
ATOM     22  C   UNL     1      -6.014  33.576 -27.273  1.00  0.00     0.115 C 
ATOM     23  C   UNL     1      -4.161  34.533 -26.895  1.00  0.00     0.115 C 
ATOM     24  C   UNL     1      -5.390  34.245 -26.090  1.00  0.00     0.045 C 
ATOM     25  C   UNL     1      -6.101  35.365 -25.410  1.00  0.00     0.172 C 
ATOM     26  C   UNL     1      -5.292  33.559 -24.775  1.00  0.00     0.172 C 
ATOM     27  O   UNL     1      -5.940  34.692 -24.123  1.00  0.00    -0.380 OA
ENDBRANCH  18  21
ENDBRANCH  17  18
ENDBRANCH   3  17
TORSDOF 5
ENDMDL
MODEL 3
REMARK VINA RESULT:    -8.242      1.752      2.627
REMARK INTER + INTRA:         -10.978
REMARK INTER:                 -10.147
REMARK INTRA:                  -0.831
REMARK UNBOUND:                -0.326
REMARK SMILES CN(c1ncnc2[nH]ccc12)[C@H]1C[C@@H](CS(=O)(=O)N2CC3(COC3)C2)C1
REMARK SMILES IDX 12 1 26 2 14 3 13 4 2 5 1 6 3 7 4 8 11 9 5 10 10 11 7 12
REMARK SMILES IDX 6 13 9 14 8 15 15 17 16 18 17 19 18 20 19 21 20 22 25 23
REMARK SMILES IDX 21 24 22 25 24 26 23 27
REMARK H PARENT 8 16
ROOT
ATOM      1  C   UNL     1      -2.649  23.171 -28.760  1.00  0.00     0.084 C 
ATOM      2  C   UNL     1      -2.663  24.515 -27.980  1.00  0.00     0.029 C 
ATOM      3  C   UNL     1      -1.490  23.958 -27.135  1.00  0.00     0.009 C 
ATOM      4  C   UNL     1      -2.041  22.548 -27.472  1.00  0.00     0.029 C 
ENDROOT
BRANCH   1   5
ATOM      5  N   UNL     1      -3.957  22.653 -29.085  1.00  0.00    -0.356 N 
ATOM      6  C   UNL     1      -4.544  21.673 -28.177  1.00  0.00     0.145 C 
BRANCH   5   7
ATOM      7  C   UNL     1      -4.494  22.696 -30.390  1.00  0.00     0.141 A 
ATOM      8  N   UNL     1      -4.836  21.506 -30.967  1.00  0.00    -0.219 NA
ATOM      9  C   UNL     1      -4.701  23.860 -31.171  1.00  0.00     0.061 A 
ATOM     10  C   UNL     1      -5.372  21.486 -32.200  1.00  0.00     0.226 A 
ATOM     11  C   UNL     1      -4.473  25.268 -31.046  1.00  0.00     0.033 A 
ATOM     12  C   UNL     1      -5.253  23.680 -32.432  1.00  0.00     0.142 A 
ATOM     13  N   UNL     1      -5.620  22.527 -33.006  1.00  0.00    -0.218 NA
ATOM     14  C   UNL     1      -4.903  25.881 -32.205  1.00  0.00     0.085 A 
ATOM     15  N   UNL     1      -5.378  24.902 -33.036  1.00  0.00    -0.346 N 
ATOM     16  H   UNL     1      -5.758  25.030 -33.962  1.00  0.00     0.167 HD
ENDBRANCH   5   7
ENDBRANCH   1   5
BRANCH   3  17
ATOM     17  C   UNL     1      -1.485  24.397 -25.683  1.00  0.00     0.158 C 
BRANCH  17  18
ATOM     18  S   UNL     1       0.139  24.981 -25.214  1.00  0.00     0.214 S 
ATOM     19  O   UNL     1       0.009  26.255 -24.542  1.00  0.00    -0.212 OA
ATOM     20  O   UNL     1       1.050  24.801 -26.325  1.00  0.00    -0.212 OA
BRANCH  18  21
ATOM     21  N   UNL     1       0.551  23.836 -24.039  1.00  0.00    -0.200 NA
ATOM     22  C   UNL     1      -0.098  22.486 -23.870  1.00  0.00     0.115 C 
ATOM     23  C   UNL     1       1.904  23.174 -23.966  1.00  0.00     0.115 C 
ATOM     24  C   UNL     1       1.230  21.940 -23.453  1.00  0.00     0.045 C 
ATOM     25  C   UNL     1       1.449  21.517 -22.040  1.00  0.00     0.172 C 
ATOM     26  C   UNL     1       1.683  20.592 -23.887  1.00  0.00     0.172 C 
ATOM     27  O   UNL     1       1.942  20.221 -22.499  1.00  0.00    -0.380 OA
ENDBRANCH  18  21
ENDBRANCH  17  18
ENDBRANCH   3  17
TORSDOF 5
ENDMDL
MODEL 4
REMARK VINA RESULT:    -8.237      4.252      8.101
REMARK INTER + INTRA:         -10.972
REMARK INTER:                 -10.417
REMARK INTRA:                  -0.555
REMARK UNBOUND:                -0.326
REMARK SMILES CN(c1ncnc2[nH]ccc12)[C@H]1C[C@@H](CS(=O)(=O)N2CC3(COC3)C2)C1
REMARK SMILES IDX 12 1 26 2 14 3 13 4 2 5 1 6 3 7 4 8 11 9 5 10 10 11 7 12
REMARK SMILES IDX 6 13 9 14 8 15 15 17 16 18 17 19 18 20 19 21 20 22 25 23
REMARK SMILES IDX 21 24 22 25 24 26 23 27
REMARK H PARENT 8 16
ROOT
ATOM      1  C   UNL     1      -1.644  21.939 -27.897  1.00  0.00     0.084 C 
ATOM      2  C   UNL     1      -2.936  21.078 -27.863  1.00  0.00     0.029 C 
ATOM      3  C   UNL     1      -3.160  21.480 -29.342  1.00  0.00     0.009 C 
ATOM      4  C   UNL     1      -2.339  22.756 -29.022  1.00  0.00     0.029 C 
ENDROOT
BRANCH   1   5
ATOM      5  N   UNL     1      -1.402  22.705 -26.697  1.00  0.00    -0.356 N 
ATOM      6  C   UNL     1      -1.905  22.169 -25.437  1.00  0.00     0.145 C 
BRANCH   5   7
ATOM      7  C   UNL     1      -1.113  24.087 -26.716  1.00  0.00     0.141 A 
ATOM      8  N   UNL     1       0.166  24.465 -26.424  1.00  0.00    -0.219 NA
ATOM      9  C   UNL     1      -2.032  25.128 -26.998  1.00  0.00     0.061 A 
ATOM     10  C   UNL     1       0.505  25.766 -26.447  1.00  0.00     0.226 A 
ATOM     11  C   UNL     1      -3.425  25.252 -27.301  1.00  0.00     0.033 A 
ATOM     12  C   UNL     1      -1.537  26.426 -26.973  1.00  0.00     0.142 A 
ATOM     13  N   UNL     1      -0.282  26.816 -26.715  1.00  0.00    -0.218 NA
ATOM     14  C   UNL     1      -3.716  26.591 -27.464  1.00  0.00     0.085 A 
ATOM     15  N   UNL     1      -2.556  27.291 -27.264  1.00  0.00    -0.346 N 
ATOM     16  H   UNL     1      -2.442  28.293 -27.309  1.00  0.00     0.167 HD
ENDBRANCH   5   7
ENDBRANCH   1   5
BRANCH   3  17
ATOM     17  C   UNL     1      -4.614  21.646 -29.745  1.00  0.00     0.158 C 
BRANCH  17  18
ATOM     18  S   UNL     1      -4.874  21.040 -31.407  1.00  0.00     0.214 S 
ATOM     19  O   UNL     1      -6.181  20.425 -31.488  1.00  0.00    -0.212 OA
ATOM     20  O   UNL     1      -3.684  20.347 -31.853  1.00  0.00    -0.212 OA
BRANCH  18  21
ATOM     21  N   UNL     1      -4.954  22.498 -32.259  1.00  0.00    -0.200 NA
ATOM     22  C   UNL     1      -6.217  23.137 -32.778  1.00  0.00     0.115 C 
ATOM     23  C   UNL     1      -4.546  23.825 -31.671  1.00  0.00     0.115 C 
ATOM     24  C   UNL     1      -5.612  24.476 -32.495  1.00  0.00     0.045 C 
ATOM     25  C   UNL     1      -5.226  25.369 -33.625  1.00  0.00     0.172 C 
ATOM     26  C   UNL     1      -6.425  25.590 -31.941  1.00  0.00     0.172 C 
ATOM     27  O   UNL     1      -5.987  26.463 -33.027  1.00  0.00    -0.380 OA
ENDBRANCH  18  21
ENDBRANCH  17  18
ENDBRANCH   3  17
TORSDOF 5
ENDMDL
MODEL 5
REMARK VINA RESULT:    -8.234      0.945      1.407
REMARK INTER + INTRA:         -10.967
REMARK INTER:                 -10.473
REMARK INTRA:                  -0.495
REMARK UNBOUND:                -0.326
REMARK SMILES CN(c1ncnc2[nH]ccc12)[C@H]1C[C@@H](CS(=O)(=O)N2CC3(COC3)C2)C1
REMARK SMILES IDX 12 1 26 2 14 3 13 4 2 5 1 6 3 7 4 8 11 9 5 10 10 11 7 12
REMARK SMILES IDX 6 13 9 14 8 15 15 17 16 18 17 19 18 20 19 21 20 22 25 23
REMARK SMILES IDX 21 24 22 25 24 26 23 27
REMARK H PARENT 8 16
ROOT
ATOM      1  C   UNL     1      -3.028  23.612 -29.940  1.00  0.00     0.084 C 
ATOM      2  C   UNL     1      -3.327  24.227 -28.545  1.00  0.00     0.029 C 
ATOM      3  C   UNL     1      -1.945  23.695 -28.090  1.00  0.00     0.009 C 
ATOM      4  C   UNL     1      -2.106  22.612 -29.187  1.00  0.00     0.029 C 
ENDROOT
BRANCH   1   5
ATOM      5  N   UNL     1      -4.162  22.983 -30.573  1.00  0.00    -0.356 N 
ATOM      6  C   UNL     1      -4.292  21.535 -30.448  1.00  0.00     0.145 C 
BRANCH   5   7
ATOM      7  C   UNL     1      -4.882  23.586 -31.627  1.00  0.00     0.141 A 
ATOM      8  N   UNL     1      -5.345  22.769 -32.619  1.00  0.00    -0.219 NA
ATOM      9  C   UNL     1      -5.161  24.969 -31.765  1.00  0.00     0.061 A 
ATOM     10  C   UNL     1      -6.055  23.284 -33.639  1.00  0.00     0.226 A 
ATOM     11  C   UNL     1      -4.870  26.179 -31.058  1.00  0.00     0.033 A 
ATOM     12  C   UNL     1      -5.897  25.353 -32.879  1.00  0.00     0.142 A 
ATOM     13  N   UNL     1      -6.382  24.566 -33.848  1.00  0.00    -0.218 NA
ATOM     14  C   UNL     1      -5.443  27.230 -31.743  1.00  0.00     0.085 A 
ATOM     15  N   UNL     1      -6.067  26.710 -32.846  1.00  0.00    -0.346 N 
ATOM     16  H   UNL     1      -6.573  27.226 -33.551  1.00  0.00     0.167 HD
ENDBRANCH   5   7
ENDBRANCH   1   5
BRANCH   3  17
ATOM     17  C   UNL     1      -1.881  23.244 -26.643  1.00  0.00     0.158 C 
BRANCH  17  18
ATOM     18  S   UNL     1      -1.422  24.611 -25.584  1.00  0.00     0.214 S 
ATOM     19  O   UNL     1      -2.619  25.183 -25.005  1.00  0.00    -0.212 OA
ATOM     20  O   UNL     1      -0.444  25.433 -26.263  1.00  0.00    -0.212 OA
BRANCH  18  21
ATOM     21  N   UNL     1      -0.614  23.787 -24.348  1.00  0.00    -0.200 NA
ATOM     22  C   UNL     1      -0.365  22.301 -24.307  1.00  0.00     0.115 C 
ATOM     23  C   UNL     1       0.836  24.021 -24.008  1.00  0.00     0.115 C 
ATOM     24  C   UNL     1       0.943  22.575 -23.635  1.00  0.00     0.045 C 
ATOM     25  C   UNL     1       1.136  22.197 -22.205  1.00  0.00     0.172 C 
ATOM     26  C   UNL     1       2.163  21.794 -23.968  1.00  0.00     0.172 C 
ATOM     27  O   UNL     1       2.362  21.484 -22.555  1.00  0.00    -0.380 OA
ENDBRANCH  18  21
ENDBRANCH  17  18
ENDBRANCH   3  17
TORSDOF 5
ENDMDL
MODEL 6
REMARK VINA RESULT:    -8.195      1.677      2.419
REMARK INTER + INTRA:         -10.917
REMARK INTER:                 -10.412
REMARK INTRA:                  -0.505
REMARK UNBOUND:                -0.326
REMARK SMILES CN(c1ncnc2[nH]ccc12)[C@H]1C[C@@H](CS(=O)(=O)N2CC3(COC3)C2)C1
REMARK SMILES IDX 12 1 26 2 14 3 13 4 2 5 1 6 3 7 4 8 11 9 5 10 10 11 7 12
REMARK SMILES IDX 6 13 9 14 8 15 15 17 16 18 17 19 18 20 19 21 20 22 25 23
REMARK SMILES IDX 21 24 22 25 24 26 23 27
REMARK H PARENT 8 16
ROOT
ATOM      1  C   UNL     1      -3.384  24.503 -30.095  1.00  0.00     0.084 C 
ATOM      2  C   UNL     1      -3.732  24.569 -28.582  1.00  0.00     0.029 C 
ATOM      3  C   UNL     1      -2.294  24.064 -28.300  1.00  0.00     0.009 C 
ATOM      4  C   UNL     1      -2.349  23.411 -29.705  1.00  0.00     0.029 C 
ENDROOT
BRANCH   1   5
ATOM      5  N   UNL     1      -4.451  24.010 -30.933  1.00  0.00    -0.356 N 
ATOM      6  C   UNL     1      -4.498  22.576 -31.199  1.00  0.00     0.145 C 
BRANCH   5   7
ATOM      7  C   UNL     1      -5.160  24.835 -31.833  1.00  0.00     0.141 A 
ATOM      8  N   UNL     1      -5.802  24.224 -32.873  1.00  0.00    -0.219 NA
ATOM      9  C   UNL     1      -5.261  26.247 -31.770  1.00  0.00     0.061 A 
ATOM     10  C   UNL     1      -6.512  24.956 -33.749  1.00  0.00     0.226 A 
ATOM     11  C   UNL     1      -4.758  27.304 -30.947  1.00  0.00     0.033 A 
ATOM     12  C   UNL     1      -6.021  26.867 -32.754  1.00  0.00     0.142 A 
ATOM     13  N   UNL     1      -6.678  26.285 -33.765  1.00  0.00    -0.218 NA
ATOM     14  C   UNL     1      -5.235  28.502 -31.439  1.00  0.00     0.085 A 
ATOM     15  N   UNL     1      -6.004  28.217 -32.536  1.00  0.00    -0.346 N 
ATOM     16  H   UNL     1      -6.488  28.883 -33.121  1.00  0.00     0.167 HD
ENDBRANCH   5   7
ENDBRANCH   1   5
BRANCH   3  17
ATOM     17  C   UNL     1      -2.162  23.156 -27.092  1.00  0.00     0.158 C 
BRANCH  17  18
ATOM     18  S   UNL     1      -1.704  24.105 -25.647  1.00  0.00     0.214 S 
ATOM     19  O   UNL     1      -1.334  23.197 -24.582  1.00  0.00    -0.212 OA
ATOM     20  O   UNL     1      -2.674  25.158 -25.440  1.00  0.00    -0.212 OA
BRANCH  18  21
ATOM     21  N   UNL     1      -0.281  24.836 -26.196  1.00  0.00    -0.200 NA
ATOM     22  C   UNL     1      -0.000  26.317 -26.184  1.00  0.00     0.115 C 
ATOM     23  C   UNL     1       1.069  24.594 -25.570  1.00  0.00     0.115 C 
ATOM     24  C   UNL     1       1.436  26.006 -25.905  1.00  0.00     0.045 C 
ATOM     25  C   UNL     1       2.469  26.270 -26.947  1.00  0.00     0.172 C 
ATOM     26  C   UNL     1       2.235  26.827 -24.958  1.00  0.00     0.172 C 
ATOM     27  O   UNL     1       3.260  27.024 -25.978  1.00  0.00    -0.380 OA
ENDBRANCH  18  21
ENDBRANCH  17  18
ENDBRANCH   3  17
TORSDOF 5
ENDMDL
MODEL 7
REMARK VINA RESULT:    -8.045      2.297      3.822
REMARK INTER + INTRA:         -10.723
REMARK INTER:                  -9.814
REMARK INTRA:                  -0.909
REMARK UNBOUND:                -0.326
REMARK SMILES CN(c1ncnc2[nH]ccc12)[C@H]1C[C@@H](CS(=O)(=O)N2CC3(COC3)C2)C1
REMARK SMILES IDX 12 1 26 2 14 3 13 4 2 5 1 6 3 7 4 8 11 9 5 10 10 11 7 12
REMARK SMILES IDX 6 13 9 14 8 15 15 17 16 18 17 19 18 20 19 21 20 22 25 23
REMARK SMILES IDX 21 24 22 25 24 26 23 27
REMARK H PARENT 8 16
ROOT
ATOM      1  C   UNL     1      -3.457  22.874 -28.398  1.00  0.00     0.084 C 
ATOM      2  C   UNL     1      -2.866  22.168 -27.147  1.00  0.00     0.029 C 
ATOM      3  C   UNL     1      -2.400  23.564 -26.663  1.00  0.00     0.009 C 
ATOM      4  C   UNL     1      -2.383  23.972 -28.159  1.00  0.00     0.029 C 
ENDROOT
BRANCH   1   5
ATOM      5  N   UNL     1      -3.275  22.152 -29.635  1.00  0.00    -0.356 N 
ATOM      6  C   UNL     1      -1.941  21.644 -29.934  1.00  0.00     0.145 C 
BRANCH   5   7
ATOM      7  C   UNL     1      -4.155  22.279 -30.731  1.00  0.00     0.141 A 
ATOM      8  N   UNL     1      -4.764  21.144 -31.184  1.00  0.00    -0.219 NA
ATOM      9  C   UNL     1      -4.459  23.479 -31.423  1.00  0.00     0.061 A 
ATOM     10  C   UNL     1      -5.628  21.207 -32.212  1.00  0.00     0.226 A 
ATOM     11  C   UNL     1      -4.068  24.854 -31.372  1.00  0.00     0.033 A 
ATOM     12  C   UNL     1      -5.364  23.385 -32.473  1.00  0.00     0.142 A 
ATOM     13  N   UNL     1      -5.990  22.287 -32.916  1.00  0.00    -0.218 NA
ATOM     14  C   UNL     1      -4.747  25.536 -32.360  1.00  0.00     0.085 A 
ATOM     15  N   UNL     1      -5.533  24.628 -33.019  1.00  0.00    -0.346 N 
ATOM     16  H   UNL     1      -6.147  24.816 -33.798  1.00  0.00     0.167 HD
ENDBRANCH   5   7
ENDBRANCH   1   5
BRANCH   3  17
ATOM     17  C   UNL     1      -1.087  23.571 -25.904  1.00  0.00     0.158 C 
BRANCH  17  18
ATOM     18  S   UNL     1      -1.240  24.533 -24.404  1.00  0.00     0.214 S 
ATOM     19  O   UNL     1      -0.591  23.827 -23.320  1.00  0.00    -0.212 OA
ATOM     20  O   UNL     1      -2.599  25.018 -24.284  1.00  0.00    -0.212 OA
BRANCH  18  21
ATOM     21  N   UNL     1      -0.266  25.861 -24.788  1.00  0.00    -0.200 NA
ATOM     22  C   UNL     1       1.236  25.907 -24.665  1.00  0.00     0.115 C 
ATOM     23  C   UNL     1      -0.151  26.429 -26.180  1.00  0.00     0.115 C 
ATOM     24  C   UNL     1       1.272  26.781 -25.878  1.00  0.00     0.045 C 
ATOM     25  C   UNL     1       1.663  28.214 -25.749  1.00  0.00     0.172 C 
ATOM     26  C   UNL     1       2.328  26.625 -26.913  1.00  0.00     0.172 C 
ATOM     27  O   UNL     1       2.654  28.044 -26.808  1.00  0.00    -0.380 OA
ENDBRANCH  18  21
ENDBRANCH  17  18
ENDBRANCH   3  17
TORSDOF 5
ENDMDL
MODEL 8
REMARK VINA RESULT:    -8.008      1.843      3.214
REMARK INTER + INTRA:         -10.675
REMARK INTER:                 -10.063
REMARK INTRA:                  -0.612
REMARK UNBOUND:                -0.326
REMARK SMILES CN(c1ncnc2[nH]ccc12)[C@H]1C[C@@H](CS(=O)(=O)N2CC3(COC3)C2)C1
REMARK SMILES IDX 12 1 26 2 14 3 13 4 2 5 1 6 3 7 4 8 11 9 5 10 10 11 7 12
REMARK SMILES IDX 6 13 9 14 8 15 15 17 16 18 17 19 18 20 19 21 20 22 25 23
REMARK SMILES IDX 21 24 22 25 24 26 23 27
REMARK H PARENT 8 16
ROOT
ATOM      1  C   UNL     1      -4.345  25.945 -29.202  1.00  0.00     0.084 C 
ATOM      2  C   UNL     1      -2.979  25.254 -28.936  1.00  0.00     0.029 C 
ATOM      3  C   UNL     1      -3.186  25.576 -27.435  1.00  0.00     0.009 C 
ATOM      4  C   UNL     1      -4.068  26.760 -27.907  1.00  0.00     0.029 C 
ENDROOT
BRANCH   1   5
ATOM      5  N   UNL     1      -4.383  26.758 -30.394  1.00  0.00    -0.356 N 
ATOM      6  C   UNL     1      -4.093  28.182 -30.254  1.00  0.00     0.145 C 
BRANCH   5   7
ATOM      7  C   UNL     1      -5.080  26.375 -31.560  1.00  0.00     0.141 A 
ATOM      8  N   UNL     1      -5.723  27.356 -32.260  1.00  0.00    -0.219 NA
ATOM      9  C   UNL     1      -5.192  25.058 -32.071  1.00  0.00     0.061 A 
ATOM     10  C   UNL     1      -6.385  27.054 -33.390  1.00  0.00     0.226 A 
ATOM     11  C   UNL     1      -4.765  23.743 -31.701  1.00  0.00     0.033 A 
ATOM     12  C   UNL     1      -5.919  24.899 -33.244  1.00  0.00     0.142 A 
ATOM     13  N   UNL     1      -6.534  25.851 -33.959  1.00  0.00    -0.218 NA
ATOM     14  C   UNL     1      -5.223  22.854 -32.651  1.00  0.00     0.085 A 
ATOM     15  N   UNL     1      -5.921  23.574 -33.584  1.00  0.00    -0.346 N 
ATOM     16  H   UNL     1      -6.385  23.209 -34.403  1.00  0.00     0.167 HD
ENDBRANCH   5   7
ENDBRANCH   1   5
BRANCH   3  17
ATOM     17  C   UNL     1      -1.915  25.890 -26.669  1.00  0.00     0.158 C 
BRANCH  17  18
ATOM     18  S   UNL     1      -1.748  24.797 -25.263  1.00  0.00     0.214 S 
ATOM     19  O   UNL     1      -1.707  23.428 -25.729  1.00  0.00    -0.212 OA
ATOM     20  O   UNL     1      -2.665  25.215 -24.223  1.00  0.00    -0.212 OA
BRANCH  18  21
ATOM     21  N   UNL     1      -0.188  25.196 -24.745  1.00  0.00    -0.200 NA
ATOM     22  C   UNL     1       0.850  24.213 -24.266  1.00  0.00     0.115 C 
ATOM     23  C   UNL     1       0.847  25.825 -25.642  1.00  0.00     0.115 C 
ATOM     24  C   UNL     1       1.901  25.077 -24.887  1.00  0.00     0.045 C 
ATOM     25  C   UNL     1       2.854  25.827 -24.019  1.00  0.00     0.172 C 
ATOM     26  C   UNL     1       3.068  24.488 -25.596  1.00  0.00     0.172 C 
ATOM     27  O   UNL     1       3.979  25.275 -24.770  1.00  0.00    -0.380 OA
ENDBRANCH  18  21
ENDBRANCH  17  18
ENDBRANCH   3  17
TORSDOF 5
ENDMDL
MODEL 9
REMARK VINA RESULT:    -7.925      1.318      2.471
REMARK INTER + INTRA:         -10.568
REMARK INTER:                  -9.968
REMARK INTRA:                  -0.600
REMARK UNBOUND:                -0.326
REMARK SMILES CN(c1ncnc2[nH]ccc12)[C@H]1C[C@@H](CS(=O)(=O)N2CC3(COC3)C2)C1
REMARK SMILES IDX 12 1 26 2 14 3 13 4 2 5 1 6 3 7 4 8 11 9 5 10 10 11 7 12
REMARK SMILES IDX 6 13 9 14 8 15 15 17 16 18 17 19 18 20 19 21 20 22 25 23
REMARK SMILES IDX 21 24 22 25 24 26 23 27
REMARK H PARENT 8 16
ROOT
ATOM      1  C   UNL     1      -3.794  24.731 -28.396  1.00  0.00     0.084 C 
ATOM      2  C   UNL     1      -3.348  23.520 -27.532  1.00  0.00     0.029 C 
ATOM      3  C   UNL     1      -2.641  24.535 -26.599  1.00  0.00     0.009 C 
ATOM      4  C   UNL     1      -2.541  25.462 -27.838  1.00  0.00     0.029 C 
ENDROOT
BRANCH   1   5
ATOM      5  N   UNL     1      -3.739  24.503 -29.821  1.00  0.00    -0.356 N 
ATOM      6  C   UNL     1      -2.578  23.794 -30.350  1.00  0.00     0.145 C 
BRANCH   5   7
ATOM      7  C   UNL     1      -4.478  25.269 -30.748  1.00  0.00     0.141 A 
ATOM      8  N   UNL     1      -4.555  26.615 -30.532  1.00  0.00    -0.219 NA
ATOM      9  C   UNL     1      -5.166  24.770 -31.883  1.00  0.00     0.061 A 
ATOM     10  C   UNL     1      -5.228  27.398 -31.393  1.00  0.00     0.226 A 
ATOM     11  C   UNL     1      -5.418  23.499 -32.488  1.00  0.00     0.033 A 
ATOM     12  C   UNL     1      -5.827  25.701 -32.675  1.00  0.00     0.142 A 
ATOM     13  N   UNL     1      -5.893  27.027 -32.495  1.00  0.00    -0.218 NA
ATOM     14  C   UNL     1      -6.193  23.700 -33.612  1.00  0.00     0.085 A 
ATOM     15  N   UNL     1      -6.429  25.045 -33.713  1.00  0.00    -0.346 N 
ATOM     16  H   UNL     1      -6.970  25.509 -34.428  1.00  0.00     0.167 HD
ENDBRANCH   5   7
ENDBRANCH   1   5
BRANCH   3  17
ATOM     17  C   UNL     1      -1.353  24.035 -25.973  1.00  0.00     0.158 C 
BRANCH  17  18
ATOM     18  S   UNL     1      -1.041  24.881 -24.428  1.00  0.00     0.214 S 
ATOM     19  O   UNL     1      -2.300  25.113 -23.753  1.00  0.00    -0.212 OA
ATOM     20  O   UNL     1      -0.095  25.952 -24.653  1.00  0.00    -0.212 OA
BRANCH  18  21
ATOM     21  N   UNL     1      -0.231  23.669 -23.570  1.00  0.00    -0.200 NA
ATOM     22  C   UNL     1      -0.151  22.219 -23.973  1.00  0.00     0.115 C 
ATOM     23  C   UNL     1       1.260  23.670 -23.344  1.00  0.00     0.115 C 
ATOM     24  C   UNL     1       1.231  22.174 -23.403  1.00  0.00     0.045 C 
ATOM     25  C   UNL     1       1.499  21.385 -22.167  1.00  0.00     0.172 C 
ATOM     26  C   UNL     1       2.322  21.421 -24.076  1.00  0.00     0.172 C 
ATOM     27  O   UNL     1       2.602  20.700 -22.838  1.00  0.00    -0.380 OA
ENDBRANCH  18  21
ENDBRANCH  17  18
ENDBRANCH   3  17
TORSDOF 5
ENDMDL
