REMARK VINA RESULT:    -8.254      1.608      2.569
REMARK INTER + INTRA:         -13.933
REMARK INTER:                 -13.164
REMARK INTRA:                  -0.768
REMARK UNBOUND:                -1.094
REMARK SMILES CCC(CC)n1cc(-c2nc(-c3cnn(C[C@H](O)CN(C)C)c3)cn3nccc23)cn1
REMARK SMILES IDX 12 1 13 2 14 3 15 4 23 5 11 6 9 7 10 8 29 9 28 10 25 11
REMARK SMILES IDX 24 12 27 13 26 14 8 15 6 16 7 17 31 18 30 19 3 20 2 21 1 22
REMARK SMILES IDX 4 23 5 24 16 25 17 26 18 27 19 29 20 30 21 31 22 32
REMARK H PARENT 18 28
ROOT
ATOM      1  C   UNL     1     -18.432  18.411  20.730  1.00  0.00     0.040 A 
ATOM      2  C   UNL     1     -18.979  17.746  21.851  1.00  0.00     0.145 A 
ATOM      3  N   UNL     1     -20.283  17.994  22.015  1.00  0.00    -0.181 NA
ATOM      4  N   UNL     1     -20.578  18.808  20.979  1.00  0.00    -0.269 N 
ATOM      5  C   UNL     1     -19.501  19.094  20.188  1.00  0.00     0.119 A 
ENDROOT
BRANCH   1   6
ATOM      6  C   UNL     1     -17.080  18.378  20.256  1.00  0.00     0.092 A 
ATOM      7  C   UNL     1     -15.305  16.968  19.779  1.00  0.00     0.100 A 
ATOM      8  N   UNL     1     -16.533  17.107  20.194  1.00  0.00    -0.244 NA
ATOM      9  C   UNL     1     -14.509  18.088  19.353  1.00  0.00     0.093 A 
ATOM     10  C   UNL     1     -13.264  18.273  18.793  1.00  0.00     0.052 A 
ATOM     11  N   UNL     1     -15.087  19.339  19.449  1.00  0.00    -0.237 N 
ATOM     12  C   UNL     1     -16.383  19.474  19.905  1.00  0.00     0.142 A 
ATOM     13  C   UNL     1     -13.152  19.663  18.633  1.00  0.00     0.136 A 
ATOM     14  N   UNL     1     -14.242  20.315  19.038  1.00  0.00    -0.176 NA
BRANCH   7  15
ATOM     15  C   UNL     1     -14.759  15.626  19.749  1.00  0.00     0.040 A 
ATOM     16  N   UNL     1     -13.342  13.931  19.878  1.00  0.00    -0.269 N 
ATOM     17  C   UNL     1     -13.446  15.285  20.018  1.00  0.00     0.119 A 
ATOM     18  N   UNL     1     -14.505  13.358  19.509  1.00  0.00    -0.181 NA
ATOM     19  C   UNL     1     -15.350  14.387  19.414  1.00  0.00     0.145 A 
BRANCH  16  20
ATOM     20  C   UNL     1     -12.162  13.088  20.060  1.00  0.00     0.107 C 
BRANCH  20  21
ATOM     21  C   UNL     1     -10.969  13.474  19.161  1.00  0.00     0.024 C 
ATOM     22  C   UNL     1      -9.864  14.197  19.921  1.00  0.00     0.006 C 
ENDBRANCH  20  21
BRANCH  20  23
ATOM     23  C   UNL     1     -12.519  11.590  19.969  1.00  0.00     0.024 C 
ATOM     24  C   UNL     1     -11.973  10.855  18.751  1.00  0.00     0.006 C 
ENDBRANCH  20  23
ENDBRANCH  16  20
ENDBRANCH   7  15
ENDBRANCH   1   6
BRANCH   4  25
ATOM     25  C   UNL     1     -21.941  19.293  20.813  1.00  0.00     0.177 C 
BRANCH  25  26
ATOM     26  C   UNL     1     -22.021  20.811  21.019  1.00  0.00     0.150 C 
BRANCH  26  27
ATOM     27  O   UNL     1     -23.300  21.174  21.568  1.00  0.00    -0.390 OA
ATOM     28  H   UNL     1     -23.971  20.719  21.009  1.00  0.00     0.211 HD
ENDBRANCH  26  27
BRANCH  26  29
ATOM     29  C   UNL     1     -21.853  21.569  19.686  1.00  0.00     0.117 C 
BRANCH  29  30
ATOM     30  N   UNL     1     -21.220  22.899  19.801  1.00  0.00    -0.307 NA
ATOM     31  C   UNL     1     -19.938  22.776  20.505  1.00  0.00     0.105 C 
ATOM     32  C   UNL     1     -20.997  23.506  18.485  1.00  0.00     0.105 C 
ENDBRANCH  29  30
ENDBRANCH  26  29
ENDBRANCH  25  26
ENDBRANCH   4  25
TORSDOF 10
