REMARK VINA RESULT:    -6.556      2.522      4.755
REMARK INTER + INTRA:         -13.057
REMARK INTER:                 -12.330
REMARK INTRA:                  -0.727
REMARK UNBOUND:                -1.136
REMARK SMILES CN(C)CCN(C)c1ccc2cc1COCC=CCOCc1cccc(c1)-c1ccnc(n1)N2
REMARK SMILES IDX 34 1 11 3 8 4 9 5 13 6 10 7 12 8 6 9 7 10 5 11 4 12 2 13
REMARK SMILES IDX 1 14 3 15 14 16 15 17 16 18 32 20 31 21 33 22 30 23 28 24
REMARK SMILES IDX 29 25 26 26 25 27 27 28 24 29 22 30 23 31 21 32 20 33 19 34
REMARK SMILES IDX 18 35 17 36
REMARK H PARENT 34 2
REMARK Flexibility Score:   96.900
ROOT
ATOM      1  N   UNL     1       4.567 -24.420  20.171  1.00  0.00    -0.324 N 
ATOM      2  H   UNL     1       4.469 -24.855  19.266  1.00  0.00     0.170 HD
ENDROOT
BRANCH   1   3
ATOM      3  C   UNL     1       4.629 -23.024  20.208  1.00  0.00     0.041 A 
ATOM      4  C   UNL     1       4.661 -20.165  20.365  1.00  0.00     0.042 A 
ATOM      5  C   UNL     1       3.490 -20.903  20.596  1.00  0.00     0.028 A 
ATOM      6  C   UNL     1       5.828 -20.882  20.043  1.00  0.00     0.003 A 
ATOM      7  C   UNL     1       3.473 -22.301  20.514  1.00  0.00     0.028 A 
ATOM      8  C   UNL     1       5.800 -22.294  19.995  1.00  0.00     0.034 A 
BRANCH   4   9
ATOM      9  N   UNL     1       4.676 -18.769  20.484  1.00  0.00    -0.373 N 
ATOM     10  C   UNL     1       5.386 -18.196  21.622  1.00  0.00     0.143 C 
BRANCH   9  11
ATOM     11  C   UNL     1       4.779 -18.053  19.194  1.00  0.00     0.131 C 
BRANCH  11  12
ATOM     12  C   UNL     1       3.400 -17.529  18.724  1.00  0.00     0.105 C 
BRANCH  12  13
ATOM     13  N   UNL     1       2.744 -16.615  19.688  1.00  0.00    -0.308 NA
ATOM     14  C   UNL     1       1.513 -17.197  20.225  1.00  0.00     0.105 C 
ATOM     15  C   UNL     1       2.445 -15.333  19.043  1.00  0.00     0.105 C 
ENDBRANCH  12  13
ENDBRANCH  11  12
ENDBRANCH   9  11
ENDBRANCH   4   9
BRANCH   6  16
ATOM     16  C   UNL     1       7.130 -20.199  19.707  1.00  0.00     0.198 C 
BRANCH  16  17
ATOM     17  O   UNL     1       7.947 -20.119  20.874  1.00  0.00    -0.373 OA
BRANCH  17  18
ATOM     18  C   UNL     1       9.096 -20.943  20.748  1.00  0.00     0.188 CG0
ATOM     19  G   UNL     1      10.083 -20.520  21.788  1.00  0.00     0.000 G0
ENDBRANCH  17  18
ENDBRANCH  16  17
ENDBRANCH   6  16
ENDBRANCH   1   3
BRANCH   1  20
ATOM     20  C   UNL     1       4.673 -25.404  21.150  1.00  0.00     0.227 A 
ATOM     21  N   UNL     1       3.597 -26.190  21.296  1.00  0.00    -0.221 NA
ATOM     22  N   UNL     1       5.772 -25.522  21.904  1.00  0.00    -0.213 NA
ATOM     23  C   UNL     1       3.664 -27.148  22.238  1.00  0.00     0.117 A 
ATOM     24  C   UNL     1       5.813 -26.482  22.852  1.00  0.00     0.076 A 
ATOM     25  C   UNL     1       4.753 -27.341  23.050  1.00  0.00     0.049 A 
BRANCH  24  26
ATOM     26  C   UNL     1       7.043 -26.513  23.669  1.00  0.00     0.001 A 
ATOM     27  C   UNL     1       7.369 -27.604  24.494  1.00  0.00     0.010 A 
ATOM     28  C   UNL     1       7.937 -25.424  23.649  1.00  0.00     0.016 A 
ATOM     29  C   UNL     1       8.527 -27.599  25.279  1.00  0.00     0.001 A 
ATOM     30  C   UNL     1       9.105 -25.405  24.430  1.00  0.00    -0.022 A 
ATOM     31  C   UNL     1       9.384 -26.501  25.254  1.00  0.00     0.006 A 
BRANCH  30  32
ATOM     32  C   UNL     1       9.997 -24.186  24.422  1.00  0.00     0.196 C 
BRANCH  32  33
ATOM     33  O   UNL     1       9.707 -23.308  23.329  1.00  0.00    -0.373 OA
BRANCH  33  34
ATOM     34  C   UNL     1       9.347 -21.990  23.743  1.00  0.00     0.188 C 
BRANCH  34  35
ATOM     35  C   UNL     1      10.224 -20.990  23.051  1.00  0.00    -0.001 C 
ATOM     36  C   UNL     1      10.093 -20.528  21.795  1.00  0.00    -0.001 CG0
ATOM     37  G   UNL     1       9.095 -20.963  20.769  1.00  0.00     0.000 G0
ENDBRANCH  34  35
ENDBRANCH  33  34
ENDBRANCH  32  33
ENDBRANCH  30  32
ENDBRANCH  24  26
ENDBRANCH   1  20
TORSDOF 4
