MODEL 4
REMARK VINA RESULT:    -8.626      1.973      2.528
REMARK INTER + INTRA:         -14.267
REMARK INTER:                 -12.773
REMARK INTRA:                  -1.495
REMARK UNBOUND:                -1.607
REMARK SMILES CCN1CCN([C@H](C)C(=O)Nc2cccc3c(-c4nc(Nc5cn(C)nc5OC)ncc4C)c[nH]c23)CC1
REMARK SMILES IDX 12 1 13 2 14 3 15 4 16 5 17 6 34 7 35 8 36 9 11 11 9 12
REMARK SMILES IDX 10 13 7 15 8 16 6 17 3 18 4 19 38 20 5 21 37 22 2 23 1 24
REMARK SMILES IDX 18 25 19 26 32 27 20 28 31 29 30 30 33 31 21 32 22 34 23 35
REMARK SMILES IDX 27 36 24 37 26 38 25 39 28 40 29 41
REMARK H PARENT 35 10 11 14 21 33
ROOT
ATOM      1  C   UNL     1     -16.631  18.132  18.984  1.00  0.00     0.065 A 
ATOM      2  C   UNL     1     -16.862  17.167  17.986  1.00  0.00     0.028 A 
ATOM      3  C   UNL     1     -15.878  16.261  17.596  1.00  0.00     0.003 A 
ATOM      4  C   UNL     1     -14.614  16.296  18.183  1.00  0.00     0.011 A 
ATOM      5  C   UNL     1     -14.340  17.249  19.188  1.00  0.00     0.011 A 
ATOM      6  C   UNL     1     -13.174  17.560  19.957  1.00  0.00     0.026 A 
ATOM      7  C   UNL     1     -13.517  18.578  20.822  1.00  0.00     0.094 A 
ATOM      8  N   UNL     1     -14.823  18.909  20.579  1.00  0.00    -0.359 N 
ATOM      9  C   UNL     1     -15.355  18.134  19.572  1.00  0.00     0.070 A 
ATOM     10  H   UNL     1     -15.350  19.636  21.052  1.00  0.00     0.166 HD
ENDROOT
BRANCH   1  11
ATOM     11  N   UNL     1     -17.699  18.997  19.282  1.00  0.00    -0.323 N 
ATOM     12  C   UNL     1     -17.714  20.371  19.430  1.00  0.00     0.241 C 
ATOM     13  O   UNL     1     -16.737  21.115  19.399  1.00  0.00    -0.273 OA
ATOM     14  H   UNL     1     -18.633  18.592  19.294  1.00  0.00     0.170 HD
BRANCH  12  15
ATOM     15  C   UNL     1     -19.145  20.902  19.731  1.00  0.00     0.143 C 
ATOM     16  C   UNL     1     -19.541  21.987  18.726  1.00  0.00     0.035 C 
BRANCH  15  17
ATOM     17  N   UNL     1     -20.093  19.763  19.863  1.00  0.00    -0.290 NA
ATOM     18  N   UNL     1     -22.915  19.037  20.640  1.00  0.00    -0.301 NA
ATOM     19  C   UNL     1     -22.612  20.061  19.632  1.00  0.00     0.100 C 
ATOM     20  C   UNL     1     -21.730  18.607  21.398  1.00  0.00     0.100 C 
ATOM     21  C   UNL     1     -21.252  19.812  18.943  1.00  0.00     0.101 C 
ATOM     22  C   UNL     1     -20.510  19.545  21.262  1.00  0.00     0.101 C 
BRANCH  18  23
ATOM     23  C   UNL     1     -24.089  19.332  21.459  1.00  0.00     0.081 C 
ATOM     24  C   UNL     1     -24.573  20.779  21.445  1.00  0.00     0.021 C 
ENDBRANCH  18  23
ENDBRANCH  15  17
ENDBRANCH  12  15
ENDBRANCH   1  11
BRANCH   6  25
ATOM     25  C   UNL     1     -11.859  16.937  19.919  1.00  0.00     0.081 A 
ATOM     26  N   UNL     1     -10.881  17.746  19.456  1.00  0.00    -0.212 NA
ATOM     27  C   UNL     1     -11.634  15.641  20.348  1.00  0.00    -0.006 A 
ATOM     28  C   UNL     1      -9.640  17.251  19.391  1.00  0.00     0.227 A 
ATOM     29  C   UNL     1     -10.327  15.229  20.227  1.00  0.00     0.120 A 
ATOM     30  N   UNL     1      -9.327  16.002  19.764  1.00  0.00    -0.221 NA
ATOM     31  C   UNL     1     -12.684  14.723  20.879  1.00  0.00     0.048 C 
BRANCH  28  32
ATOM     32  N   UNL     1      -8.677  18.133  18.905  1.00  0.00    -0.318 N 
ATOM     33  H   UNL     1      -9.147  18.989  18.635  1.00  0.00     0.170 HD
BRANCH  32  34
ATOM     34  C   UNL     1      -7.343  18.023  18.756  1.00  0.00     0.124 A 
ATOM     35  C   UNL     1      -6.611  17.768  17.624  1.00  0.00     0.138 A 
ATOM     36  C   UNL     1      -6.375  18.149  19.777  1.00  0.00     0.256 A 
ATOM     37  N   UNL     1      -5.303  17.756  18.017  1.00  0.00    -0.270 N 
ATOM     38  N   UNL     1      -5.126  17.979  19.334  1.00  0.00    -0.133 NA
ATOM     39  C   UNL     1      -4.162  17.517  17.169  1.00  0.00     0.173 C 
BRANCH  36  40
ATOM     40  O   UNL     1      -6.635  18.407  21.080  1.00  0.00    -0.478 OA
ATOM     41  C   UNL     1      -6.750  17.245  21.892  1.00  0.00     0.280 C 
ENDBRANCH  36  40
ENDBRANCH  32  34
ENDBRANCH  28  32
ENDBRANCH   6  25
TORSDOF 8
ENDMDL
