REMARK VINA RESULT:    -9.459      2.408      7.350
REMARK INTER + INTRA:         -13.195
REMARK INTER:                 -13.414
REMARK INTRA:                   0.219
REMARK UNBOUND:                -0.694
REMARK SMILES Cn1cc(-c2cc(-c3cnn([C@]4(CC#N)C[C@@H](C#N)C4)n3)c3cccnc3c2)c(CO)n1
REMARK SMILES IDX 5 1 6 2 7 3 22 4 23 5 24 6 25 7 26 8 27 9 28 10 4 11 2 12
REMARK SMILES IDX 3 13 32 14 29 15 1 16 30 17 31 18 8 20 9 21 21 22 10 23
REMARK SMILES IDX 11 24 12 25 16 26 20 27 17 28 18 29 19 30 13 31 14 32 15 33
REMARK H PARENT 31 19
ROOT
ATOM      1  C   UNL     1      -3.909  24.289 -30.120  1.00  0.00    -0.012 A 
ATOM      2  C   UNL     1      -3.928  25.677 -29.997  1.00  0.00     0.020 A 
ATOM      3  C   UNL     1      -4.641  26.466 -30.915  1.00  0.00     0.014 A 
ATOM      4  C   UNL     1      -5.333  25.852 -31.997  1.00  0.00     0.010 A 
ATOM      5  C   UNL     1      -6.041  26.545 -33.011  1.00  0.00     0.012 A 
ATOM      6  C   UNL     1      -6.691  25.854 -34.025  1.00  0.00     0.021 A 
ATOM      7  C   UNL     1      -6.615  24.478 -34.017  1.00  0.00     0.112 A 
ATOM      8  N   UNL     1      -5.940  23.774 -33.087  1.00  0.00    -0.256 NA
ATOM      9  C   UNL     1      -5.311  24.442 -32.108  1.00  0.00     0.071 A 
ATOM     10  C   UNL     1      -4.605  23.696 -31.176  1.00  0.00     0.037 A 
ENDROOT
BRANCH   1  11
ATOM     11  C   UNL     1      -3.183  23.473 -29.168  1.00  0.00     0.025 A 
ATOM     12  N   UNL     1      -2.099  22.877 -27.354  1.00  0.00    -0.275 N 
ATOM     13  C   UNL     1      -2.716  23.934 -27.954  1.00  0.00     0.117 A 
ATOM     14  N   UNL     1      -2.126  21.750 -28.088  1.00  0.00    -0.175 NA
ATOM     15  C   UNL     1      -2.797  22.105 -29.199  1.00  0.00     0.096 A 
ATOM     16  C   UNL     1      -1.449  22.868 -26.065  1.00  0.00     0.173 C 
BRANCH  15  17
ATOM     17  C   UNL     1      -3.070  21.074 -30.253  1.00  0.00     0.214 C 
BRANCH  17  18
ATOM     18  O   UNL     1      -4.344  20.447 -30.074  1.00  0.00    -0.390 OA
ATOM     19  H   UNL     1      -4.551  20.090 -30.964  1.00  0.00     0.211 HD
ENDBRANCH  17  18
ENDBRANCH  15  17
ENDBRANCH   1  11
BRANCH   3  20
ATOM     20  C   UNL     1      -4.642  27.907 -30.700  1.00  0.00     0.113 A 
ATOM     21  C   UNL     1      -5.150  28.935 -31.521  1.00  0.00     0.166 A 
ATOM     22  N   UNL     1      -4.149  28.465 -29.584  1.00  0.00    -0.153 NA
ATOM     23  N   UNL     1      -4.951  30.127 -30.953  1.00  0.00    -0.161 NA
ATOM     24  N   UNL     1      -4.382  29.776 -29.781  1.00  0.00    -0.177 N 
BRANCH  24  25
ATOM     25  C   UNL     1      -3.989  30.822 -28.784  1.00  0.00     0.098 C 
ATOM     26  C   UNL     1      -3.568  30.258 -27.390  1.00  0.00     0.052 C 
ATOM     27  C   UNL     1      -2.489  31.217 -28.972  1.00  0.00     0.052 C 
ATOM     28  C   UNL     1      -2.113  30.146 -27.914  1.00  0.00     0.097 C 
ATOM     29  C   UNL     1      -1.079  30.528 -26.979  1.00  0.00     0.066 C 
ATOM     30  N   UNL     1      -0.255  30.855 -26.230  1.00  0.00    -0.198 NA
BRANCH  25  31
ATOM     31  C   UNL     1      -4.992  31.971 -28.775  1.00  0.00     0.152 C 
ATOM     32  C   UNL     1      -4.467  33.156 -29.467  1.00  0.00     0.065 C 
ATOM     33  N   UNL     1      -4.043  34.080 -30.025  1.00  0.00    -0.198 NA
ENDBRANCH  25  31
ENDBRANCH  24  25
ENDBRANCH   3  20
TORSDOF 6
