REMARK SMILES COc1ccc(Nc2ncc([C@H](O)c3ccc(S(=O)(=O)N(C)C)cc3)cc2-c2nc(C)nc(N)n2)cn1
REMARK SMILES IDX 8 1 9 2 10 3 11 4 26 5 27 6 7 7 6 9 3 10 4 11 37 12 5 13
REMARK SMILES IDX 36 14 2 15 1 16 28 17 29 18 35 19 30 20 33 21 32 22 31 23
REMARK SMILES IDX 34 24 12 27 13 28 14 30 15 31 25 32 16 33 24 34 17 35 18 36
REMARK SMILES IDX 19 37 20 38 21 39 22 40 23 41
REMARK H PARENT 7 8 34 25 34 26 13 29
REMARK INDEX MAP 8 1 9 2 10 3 11 4 26 5 27 6 7 7 43 8 6 9 3 10 4 11 37 12 5 13
REMARK INDEX MAP 36 14 2 15 1 16 28 17 29 18 35 19 30 20 33 21 32 22 31 23
REMARK INDEX MAP 34 24 61 25 62 26 12 27 13 28 46 29 14 30 15 31 25 32 16 33
REMARK INDEX MAP 24 34 17 35 18 36 19 37 20 38 21 39 22 40 23 41
ROOT
ATOM      1  C   UNL     1      47.182  -1.964 -46.861  1.00  0.00     0.141 A 
ATOM      2  N   UNL     1      46.116  -2.685 -46.434  1.00  0.00    -0.238 NA
ATOM      3  C   UNL     1      45.581  -3.621 -47.249  1.00  0.00     0.120 A 
ATOM      4  C   UNL     1      46.050  -3.904 -48.517  1.00  0.00     0.004 A 
ATOM      5  C   UNL     1      47.146  -3.153 -48.953  1.00  0.00     0.024 A 
ATOM      6  C   UNL     1      47.745  -2.163 -48.142  1.00  0.00     0.063 A 
ENDROOT
BRANCH   1   7
ATOM      7  N   UNL     1      47.696  -0.966 -46.008  1.00  0.00    -0.338 N 
ATOM      8  H   UNL     1      47.769  -0.038 -46.449  1.00  0.00     0.168 HD
BRANCH   7   9
ATOM      9  C   UNL     1      48.126  -0.995 -44.676  1.00  0.00     0.058 A 
ATOM     10  C   UNL     1      49.014  -0.985 -42.056  1.00  0.00     0.213 A 
ATOM     11  C   UNL     1      49.813  -0.411 -43.028  1.00  0.00     0.070 A 
ATOM     12  N   UNL     1      47.819  -1.546 -42.313  1.00  0.00    -0.220 NA
ATOM     13  C   UNL     1      49.358  -0.417 -44.347  1.00  0.00     0.033 A 
ATOM     14  C   UNL     1      47.407  -1.536 -43.610  1.00  0.00     0.141 A 
BRANCH  10  15
ATOM     15  O   UNL     1      49.503  -0.950 -40.765  1.00  0.00    -0.481 OA
ATOM     16  C   UNL     1      50.860  -0.526 -40.700  1.00  0.00     0.280 C 
ENDBRANCH  10  15
ENDBRANCH   7   9
ENDBRANCH   1   7
BRANCH   6  17
ATOM     17  C   UNL     1      48.908  -1.406 -48.653  1.00  0.00     0.168 A 
ATOM     18  N   UNL     1      49.896  -1.106 -47.801  1.00  0.00    -0.213 NA
ATOM     19  N   UNL     1      48.911  -1.090 -49.950  1.00  0.00    -0.193 NA
ATOM     20  C   UNL     1      50.925  -0.450 -48.340  1.00  0.00     0.131 A 
ATOM     21  C   UNL     1      49.974  -0.424 -50.371  1.00  0.00     0.223 A 
ATOM     22  N   UNL     1      51.003  -0.079 -49.614  1.00  0.00    -0.198 NA
ATOM     23  C   UNL     1      52.053  -0.067 -47.435  1.00  0.00     0.090 C 
BRANCH  21  24
ATOM     24  N   UNL     1      50.010  -0.061 -51.686  1.00  0.00    -0.368 N 
ATOM     25  H   UNL     1      49.230  -0.310 -52.310  1.00  0.00     0.159 HD
ATOM     26  H   UNL     1      50.818   0.462 -52.054  1.00  0.00     0.159 HD
ENDBRANCH  21  24
ENDBRANCH   6  17
BRANCH   4  27
ATOM     27  C   UNL     1      45.449  -4.982 -49.386  1.00  0.00     0.176 C 
BRANCH  27  28
ATOM     28  O   UNL     1      46.430  -5.950 -49.758  1.00  0.00    -0.384 OA
ATOM     29  H   UNL     1      46.830  -6.345 -48.943  1.00  0.00     0.211 HD
ENDBRANCH  27  28
BRANCH  27  30
ATOM     30  C   UNL     1      44.780  -4.431 -50.633  1.00  0.00    -0.015 A 
ATOM     31  C   UNL     1      44.667  -5.217 -51.796  1.00  0.00     0.008 A 
ATOM     32  C   UNL     1      44.280  -3.119 -50.649  1.00  0.00     0.008 A 
ATOM     33  C   UNL     1      44.070  -4.706 -52.947  1.00  0.00     0.022 A 
ATOM     34  C   UNL     1      43.686  -2.600 -51.800  1.00  0.00     0.022 A 
ATOM     35  C   UNL     1      43.592  -3.395 -52.945  1.00  0.00     0.082 A 
BRANCH  35  36
ATOM     36  S   UNL     1      42.834  -2.719 -54.400  1.00  0.00     0.242 S 
ATOM     37  O   UNL     1      42.204  -1.474 -54.012  1.00  0.00    -0.207 OA
ATOM     38  O   UNL     1      42.083  -3.766 -55.059  1.00  0.00    -0.207 OA
BRANCH  36  39
ATOM     39  N   UNL     1      44.183  -2.351 -55.391  1.00  0.00    -0.204 NA
ATOM     40  C   UNL     1      43.857  -1.660 -56.659  1.00  0.00     0.124 C 
ATOM     41  C   UNL     1      45.256  -1.645 -54.654  1.00  0.00     0.124 C 
ENDBRANCH  36  39
ENDBRANCH  35  36
ENDBRANCH  27  30
ENDBRANCH   4  27
TORSDOF 10
