MODEL 5
REMARK VINA RESULT:    -9.786      2.560      4.147
REMARK INTER + INTRA:         -15.688
REMARK INTER:                 -14.562
REMARK INTRA:                  -1.126
REMARK UNBOUND:                -1.326
REMARK SMILES CN1CCC(N(C)C(=O)c2ccc(Nc3nc4c(C5=CCN(C(=O)C6CCCC6)CC5)cccn4n3)cc2)CC1
REMARK SMILES IDX 10 1 11 2 12 3 13 4 37 5 38 6 8 7 9 8 6 9 7 10 5 11 2 12
REMARK SMILES IDX 3 13 40 14 4 15 39 16 1 17 14 18 15 20 16 21 36 22 17 23
REMARK SMILES IDX 35 24 18 25 34 26 32 27 33 28 19 29 20 30 31 31 21 32 30 33
REMARK SMILES IDX 22 34 23 35 24 36 25 37 26 38 29 39 27 40 28 41
REMARK H PARENT 14 19
ROOT
ATOM      1  C   UNL     1      10.472 -26.375  26.014  1.00  0.00     0.040 A 
ATOM      2  C   UNL     1      10.138 -27.688  26.351  1.00  0.00     0.016 A 
ATOM      3  C   UNL     1       9.013 -28.286  25.772  1.00  0.00     0.027 A 
ATOM      4  C   UNL     1       8.201 -27.589  24.857  1.00  0.00     0.041 A 
ATOM      5  C   UNL     1       8.545 -26.265  24.557  1.00  0.00     0.027 A 
ATOM      6  C   UNL     1       9.666 -25.654  25.134  1.00  0.00     0.016 A 
ENDROOT
BRANCH   1   7
ATOM      7  C   UNL     1      11.638 -25.712  26.640  1.00  0.00     0.253 C 
ATOM      8  O   UNL     1      12.751 -26.137  26.340  1.00  0.00    -0.269 OA
BRANCH   7   9
ATOM      9  N   UNL     1      11.417 -24.628  27.494  1.00  0.00    -0.339 N 
ATOM     10  C   UNL     1      10.953 -24.777  28.868  1.00  0.00     0.147 C 
BRANCH   9  11
ATOM     11  C   UNL     1      11.907 -23.288  27.120  1.00  0.00     0.087 C 
ATOM     12  N   UNL     1      13.156 -21.011  26.133  1.00  0.00    -0.306 NA
ATOM     13  C   UNL     1      11.955 -21.441  25.396  1.00  0.00     0.086 C 
ATOM     14  C   UNL     1      14.060 -22.132  26.392  1.00  0.00     0.086 C 
ATOM     15  C   UNL     1      11.529 -22.885  25.689  1.00  0.00     0.040 C 
ATOM     16  C   UNL     1      13.412 -23.107  27.378  1.00  0.00     0.040 C 
ATOM     17  C   UNL     1      13.834 -19.924  25.433  1.00  0.00     0.105 C 
ENDBRANCH   9  11
ENDBRANCH   7   9
ENDBRANCH   1   7
BRANCH   4  18
ATOM     18  N   UNL     1       7.087 -28.253  24.312  1.00  0.00    -0.323 N 
ATOM     19  H   UNL     1       7.081 -29.246  24.502  1.00  0.00     0.170 HD
BRANCH  18  20
ATOM     20  C   UNL     1       6.060 -27.858  23.537  1.00  0.00     0.247 A 
ATOM     21  N   UNL     1       6.010 -26.642  22.928  1.00  0.00    -0.191 NA
ATOM     22  N   UNL     1       5.005 -28.634  23.304  1.00  0.00    -0.127 NA
ATOM     23  C   UNL     1       4.874 -26.651  22.259  1.00  0.00     0.165 A 
ATOM     24  N   UNL     1       4.252 -27.881  22.472  1.00  0.00    -0.218 N 
ATOM     25  C   UNL     1       4.227 -25.674  21.392  1.00  0.00     0.022 A 
ATOM     26  C   UNL     1       3.044 -28.234  21.883  1.00  0.00     0.115 A 
ATOM     27  C   UNL     1       3.059 -26.076  20.821  1.00  0.00     0.014 A 
ATOM     28  C   UNL     1       2.437 -27.367  21.063  1.00  0.00     0.021 A 
BRANCH  25  29
ATOM     29  C   UNL     1       4.768 -24.315  21.103  1.00  0.00    -0.037 C 
ATOM     30  C   UNL     1       5.172 -23.460  22.068  1.00  0.00    -0.001 C 
ATOM     31  C   UNL     1       4.879 -23.847  19.663  1.00  0.00     0.057 C 
ATOM     32  C   UNL     1       5.773 -22.100  21.870  1.00  0.00     0.147 C 
ATOM     33  C   UNL     1       5.098 -22.340  19.511  1.00  0.00     0.124 C 
ATOM     34  N   UNL     1       6.071 -21.830  20.470  1.00  0.00    -0.338 N 
BRANCH  34  35
ATOM     35  C   UNL     1       6.996 -20.819  20.215  1.00  0.00     0.225 C 
ATOM     36  O   UNL     1       6.861 -20.057  19.255  1.00  0.00    -0.275 OA
BRANCH  35  37
ATOM     37  C   UNL     1       8.177 -20.662  21.177  1.00  0.00     0.078 C 
ATOM     38  C   UNL     1       9.183 -21.824  21.082  1.00  0.00     0.013 C 
ATOM     39  C   UNL     1       9.004 -19.391  20.913  1.00  0.00     0.013 C 
ATOM     40  C   UNL     1      10.506 -21.207  20.650  1.00  0.00     0.001 C 
ATOM     41  C   UNL     1      10.441 -19.795  21.200  1.00  0.00     0.001 C 
ENDBRANCH  35  37
ENDBRANCH  34  35
ENDBRANCH  25  29
ENDBRANCH  18  20
ENDBRANCH   4  18
TORSDOF 8
ENDMDL
