MODEL 1
REMARK VINA RESULT:   -10.131      0.000      0.000
REMARK INTER + INTRA:         -16.929
REMARK INTER:                 -15.758
REMARK INTRA:                  -1.171
REMARK UNBOUND:                -1.171
REMARK SMILES CC[C@H](Cc1ccc(OC)c(CNC(=O)c2ccc(C(F)(F)F)cc2F)c1)C(=O)O
REMARK SMILES IDX 5 1 6 2 7 3 8 4 11 5 27 6 4 7 3 8 2 9 1 10 28 11 29 12 30 13
REMARK SMILES IDX 12 15 13 16 14 17 15 18 16 20 17 21 25 22 18 23 24 24 19 25
REMARK SMILES IDX 26 26 20 27 21 28 22 29 23 30 9 31 10 32
REMARK H PARENT 30 14 13 19
ROOT
ATOM      1  C   UNL     1      44.813 -40.427 107.378  1.00  0.00    -0.047 A 
ATOM      2  C   UNL     1      44.876 -39.660 108.543  1.00  0.00     0.007 A 
ATOM      3  C   UNL     1      44.193 -38.440 108.630  1.00  0.00     0.047 A 
ATOM      4  C   UNL     1      43.413 -37.981 107.563  1.00  0.00     0.123 A 
ATOM      5  C   UNL     1      43.352 -38.738 106.383  1.00  0.00     0.014 A 
ATOM      6  C   UNL     1      44.081 -39.934 106.293  1.00  0.00     0.013 A 
ENDROOT
BRANCH   1   7
ATOM      7  C   UNL     1      45.460 -41.792 107.298  1.00  0.00     0.050 C 
BRANCH   7   8
ATOM      8  C   UNL     1      44.518 -42.937 106.858  1.00  0.00     0.103 C 
BRANCH   8   9
ATOM      9  C   UNL     1      44.766 -43.372 105.402  1.00  0.00     0.012 C 
ATOM     10  C   UNL     1      45.829 -42.529 104.710  1.00  0.00     0.005 C 
ENDBRANCH   8   9
BRANCH   8  11
ATOM     11  C   UNL     1      44.592 -44.060 107.876  1.00  0.00     0.306 C 
ATOM     12  O   UNL     1      43.628 -44.705 108.263  1.00  0.00    -0.252 OA
BRANCH  11  13
ATOM     13  O   UNL     1      45.804 -44.218 108.437  1.00  0.00    -0.481 OA
ATOM     14  H   UNL     1      46.429 -43.686 107.880  1.00  0.00     0.296 HD
ENDBRANCH  11  13
ENDBRANCH   8  11
ENDBRANCH   7   8
ENDBRANCH   1   7
BRANCH   5  15
ATOM     15  C   UNL     1      42.448 -38.362 105.235  1.00  0.00     0.156 C 
BRANCH  15  16
ATOM     16  N   UNL     1      42.874 -39.000 104.006  1.00  0.00    -0.348 N 
ATOM     17  C   UNL     1      42.069 -39.122 102.898  1.00  0.00     0.254 C 
ATOM     18  O   UNL     1      40.907 -38.723 102.856  1.00  0.00    -0.269 OA
ATOM     19  H   UNL     1      43.853 -39.253 103.951  1.00  0.00     0.164 HD
BRANCH  17  20
ATOM     20  C   UNL     1      42.663 -39.759 101.689  1.00  0.00     0.075 A 
ATOM     21  C   UNL     1      43.568 -40.816 101.871  1.00  0.00     0.017 A 
ATOM     22  C   UNL     1      42.358 -39.360 100.387  1.00  0.00     0.136 A 
ATOM     23  C   UNL     1      44.152 -41.454 100.770  1.00  0.00     0.014 A 
ATOM     24  C   UNL     1      42.933 -39.994  99.285  1.00  0.00     0.053 A 
ATOM     25  C   UNL     1      43.838 -41.051  99.464  1.00  0.00     0.058 A 
ATOM     26  F   UNL     1      41.501 -38.355 100.151  1.00  0.00    -0.206 F 
BRANCH  25  27
ATOM     27  C   UNL     1      44.454 -41.726  98.262  1.00  0.00     0.416 C 
ATOM     28  F   UNL     1      45.227 -40.896  97.507  1.00  0.00    -0.166 F 
ATOM     29  F   UNL     1      45.254 -42.770  98.609  1.00  0.00    -0.166 F 
ATOM     30  F   UNL     1      43.516 -42.235  97.418  1.00  0.00    -0.166 F 
ENDBRANCH  25  27
ENDBRANCH  17  20
ENDBRANCH  15  16
ENDBRANCH   5  15
BRANCH   4  31
ATOM     31  O   UNL     1      42.676 -36.824 107.572  1.00  0.00    -0.496 OA
ATOM     32  C   UNL     1      41.565 -36.767 108.455  1.00  0.00     0.278 C 
ENDBRANCH   4  31
TORSDOF 10
ENDMDL
MODEL 2
REMARK VINA RESULT:    -9.869      2.444      4.338
REMARK INTER + INTRA:         -16.520
REMARK INTER:                 -15.287
REMARK INTRA:                  -1.234
REMARK UNBOUND:                -1.171
REMARK SMILES CC[C@H](Cc1ccc(OC)c(CNC(=O)c2ccc(C(F)(F)F)cc2F)c1)C(=O)O
REMARK SMILES IDX 5 1 6 2 7 3 8 4 11 5 27 6 4 7 3 8 2 9 1 10 28 11 29 12 30 13
REMARK SMILES IDX 12 15 13 16 14 17 15 18 16 20 17 21 25 22 18 23 24 24 19 25
REMARK SMILES IDX 26 26 20 27 21 28 22 29 23 30 9 31 10 32
REMARK H PARENT 30 14 13 19
ROOT
ATOM      1  C   UNL     1      46.708 -40.151 108.707  1.00  0.00    -0.047 A 
ATOM      2  C   UNL     1      47.208 -41.452 108.772  1.00  0.00     0.007 A 
ATOM      3  C   UNL     1      46.499 -42.517 108.203  1.00  0.00     0.047 A 
ATOM      4  C   UNL     1      45.289 -42.294 107.536  1.00  0.00     0.123 A 
ATOM      5  C   UNL     1      44.770 -40.991 107.474  1.00  0.00     0.014 A 
ATOM      6  C   UNL     1      45.470 -39.942 108.091  1.00  0.00     0.013 A 
ENDROOT
BRANCH   1   7
ATOM      7  C   UNL     1      47.504 -38.974 109.225  1.00  0.00     0.050 C 
BRANCH   7   8
ATOM      8  C   UNL     1      48.332 -38.222 108.157  1.00  0.00     0.103 C 
BRANCH   8   9
ATOM      9  C   UNL     1      48.494 -39.036 106.861  1.00  0.00     0.012 C 
ATOM     10  C   UNL     1      49.593 -38.491 105.957  1.00  0.00     0.005 C 
ENDBRANCH   8   9
BRANCH   8  11
ATOM     11  C   UNL     1      47.752 -36.833 107.965  1.00  0.00     0.306 C 
ATOM     12  O   UNL     1      48.249 -35.810 108.412  1.00  0.00    -0.252 OA
BRANCH  11  13
ATOM     13  O   UNL     1      46.551 -36.816 107.361  1.00  0.00    -0.481 OA
ATOM     14  H   UNL     1      46.068 -36.039 107.745  1.00  0.00     0.296 HD
ENDBRANCH  11  13
ENDBRANCH   8  11
ENDBRANCH   7   8
ENDBRANCH   1   7
BRANCH   5  15
ATOM     15  C   UNL     1      43.531 -40.658 106.680  1.00  0.00     0.156 C 
BRANCH  15  16
ATOM     16  N   UNL     1      43.762 -40.823 105.260  1.00  0.00    -0.348 N 
ATOM     17  C   UNL     1      42.819 -40.538 104.302  1.00  0.00     0.254 C 
ATOM     18  O   UNL     1      41.685 -40.139 104.563  1.00  0.00    -0.269 OA
ATOM     19  H   UNL     1      44.711 -41.049 104.986  1.00  0.00     0.164 HD
BRANCH  17  20
ATOM     20  C   UNL     1      43.219 -40.711 102.877  1.00  0.00     0.075 A 
ATOM     21  C   UNL     1      43.632 -41.983 102.452  1.00  0.00     0.017 A 
ATOM     22  C   UNL     1      43.195 -39.672 101.945  1.00  0.00     0.136 A 
ATOM     23  C   UNL     1      44.013 -42.203 101.123  1.00  0.00     0.014 A 
ATOM     24  C   UNL     1      43.570 -39.886 100.618  1.00  0.00     0.053 A 
ATOM     25  C   UNL     1      43.983 -41.156 100.191  1.00  0.00     0.058 A 
ATOM     26  F   UNL     1      42.811 -38.434 102.293  1.00  0.00    -0.206 F 
BRANCH  25  27
ATOM     27  C   UNL     1      44.389 -41.371  98.751  1.00  0.00     0.416 C 
ATOM     28  F   UNL     1      45.180 -40.381  98.254  1.00  0.00    -0.166 F 
ATOM     29  F   UNL     1      45.082 -42.529  98.577  1.00  0.00    -0.166 F 
ATOM     30  F   UNL     1      43.315 -41.447  97.918  1.00  0.00    -0.166 F 
ENDBRANCH  25  27
ENDBRANCH  17  20
ENDBRANCH  15  16
ENDBRANCH   5  15
BRANCH   4  31
ATOM     31  O   UNL     1      44.547 -43.265 106.912  1.00  0.00    -0.496 OA
ATOM     32  C   UNL     1      44.000 -44.290 107.729  1.00  0.00     0.278 C 
ENDBRANCH   4  31
TORSDOF 10
ENDMDL
MODEL 3
REMARK VINA RESULT:    -9.823      2.044      2.549
REMARK INTER + INTRA:         -16.450
REMARK INTER:                 -15.156
REMARK INTRA:                  -1.293
REMARK UNBOUND:                -1.171
REMARK SMILES CC[C@H](Cc1ccc(OC)c(CNC(=O)c2ccc(C(F)(F)F)cc2F)c1)C(=O)O
REMARK SMILES IDX 5 1 6 2 7 3 8 4 11 5 27 6 4 7 3 8 2 9 1 10 28 11 29 12 30 13
REMARK SMILES IDX 12 15 13 16 14 17 15 18 16 20 17 21 25 22 18 23 24 24 19 25
REMARK SMILES IDX 26 26 20 27 21 28 22 29 23 30 9 31 10 32
REMARK H PARENT 30 14 13 19
ROOT
ATOM      1  C   UNL     1      43.968 -40.367 106.843  1.00  0.00    -0.047 A 
ATOM      2  C   UNL     1      43.583 -39.954 108.120  1.00  0.00     0.007 A 
ATOM      3  C   UNL     1      42.326 -39.374 108.332  1.00  0.00     0.047 A 
ATOM      4  C   UNL     1      41.423 -39.220 107.275  1.00  0.00     0.123 A 
ATOM      5  C   UNL     1      41.803 -39.620 105.984  1.00  0.00     0.014 A 
ATOM      6  C   UNL     1      43.084 -40.156 105.779  1.00  0.00     0.013 A 
ENDROOT
BRANCH   1   7
ATOM      7  C   UNL     1      45.277 -41.087 106.609  1.00  0.00     0.050 C 
BRANCH   7   8
ATOM      8  C   UNL     1      46.089 -41.402 107.888  1.00  0.00     0.103 C 
BRANCH   8   9
ATOM      9  C   UNL     1      46.204 -42.914 108.151  1.00  0.00     0.012 C 
ATOM     10  C   UNL     1      44.900 -43.657 107.887  1.00  0.00     0.005 C 
ENDBRANCH   8   9
BRANCH   8  11
ATOM     11  C   UNL     1      47.414 -40.665 107.829  1.00  0.00     0.306 C 
ATOM     12  O   UNL     1      47.729 -39.881 106.946  1.00  0.00    -0.252 OA
BRANCH  11  13
ATOM     13  O   UNL     1      48.296 -41.040 108.772  1.00  0.00    -0.481 OA
ATOM     14  H   UNL     1      48.374 -42.025 108.691  1.00  0.00     0.296 HD
ENDBRANCH  11  13
ENDBRANCH   8  11
ENDBRANCH   7   8
ENDBRANCH   1   7
BRANCH   5  15
ATOM     15  C   UNL     1      40.846 -39.587 104.819  1.00  0.00     0.156 C 
BRANCH  15  16
ATOM     16  N   UNL     1      41.471 -40.096 103.616  1.00  0.00    -0.348 N 
ATOM     17  C   UNL     1      42.049 -39.291 102.664  1.00  0.00     0.254 C 
ATOM     18  O   UNL     1      42.068 -38.063 102.733  1.00  0.00    -0.269 OA
ATOM     19  H   UNL     1      41.576 -41.102 103.560  1.00  0.00     0.164 HD
BRANCH  17  20
ATOM     20  C   UNL     1      42.698 -39.963 101.503  1.00  0.00     0.075 A 
ATOM     21  C   UNL     1      42.339 -39.551 100.210  1.00  0.00     0.017 A 
ATOM     22  C   UNL     1      43.649 -40.975 101.639  1.00  0.00     0.136 A 
ATOM     23  C   UNL     1      42.921 -40.144  99.084  1.00  0.00     0.014 A 
ATOM     24  C   UNL     1      44.236 -41.568 100.520  1.00  0.00     0.053 A 
ATOM     25  C   UNL     1      43.878 -41.158  99.228  1.00  0.00     0.058 A 
ATOM     26  F   UNL     1      44.032 -41.412 102.849  1.00  0.00    -0.206 F 
BRANCH  25  27
ATOM     27  C   UNL     1      44.521 -41.812  98.026  1.00  0.00     0.416 C 
ATOM     28  F   UNL     1      45.228 -40.946  97.248  1.00  0.00    -0.166 F 
ATOM     29  F   UNL     1      45.391 -42.797  98.378  1.00  0.00    -0.166 F 
ATOM     30  F   UNL     1      43.605 -42.393  97.204  1.00  0.00    -0.166 F 
ENDBRANCH  25  27
ENDBRANCH  17  20
ENDBRANCH  15  16
ENDBRANCH   5  15
BRANCH   4  31
ATOM     31  O   UNL     1      40.158 -38.703 107.393  1.00  0.00    -0.496 OA
ATOM     32  C   UNL     1      39.869 -37.952 108.564  1.00  0.00     0.278 C 
ENDBRANCH   4  31
TORSDOF 10
ENDMDL
MODEL 4
REMARK VINA RESULT:    -9.614      5.396      7.307
REMARK INTER + INTRA:         -16.125
REMARK INTER:                 -14.951
REMARK INTRA:                  -1.173
REMARK UNBOUND:                -1.171
REMARK SMILES CC[C@H](Cc1ccc(OC)c(CNC(=O)c2ccc(C(F)(F)F)cc2F)c1)C(=O)O
REMARK SMILES IDX 5 1 6 2 7 3 8 4 11 5 27 6 4 7 3 8 2 9 1 10 28 11 29 12 30 13
REMARK SMILES IDX 12 15 13 16 14 17 15 18 16 20 17 21 25 22 18 23 24 24 19 25
REMARK SMILES IDX 26 26 20 27 21 28 22 29 23 30 9 31 10 32
REMARK H PARENT 30 14 13 19
ROOT
ATOM      1  C   UNL     1      39.627 -38.773 109.200  1.00  0.00    -0.047 A 
ATOM      2  C   UNL     1      39.381 -38.559 110.558  1.00  0.00     0.007 A 
ATOM      3  C   UNL     1      38.085 -38.286 111.013  1.00  0.00     0.047 A 
ATOM      4  C   UNL     1      37.008 -38.248 110.121  1.00  0.00     0.123 A 
ATOM      5  C   UNL     1      37.244 -38.450 108.752  1.00  0.00     0.014 A 
ATOM      6  C   UNL     1      38.556 -38.675 108.305  1.00  0.00     0.013 A 
ENDROOT
BRANCH   1   7
ATOM      7  C   UNL     1      40.998 -39.167 108.700  1.00  0.00     0.050 C 
BRANCH   7   8
ATOM      8  C   UNL     1      42.134 -38.180 109.057  1.00  0.00     0.103 C 
BRANCH   8   9
ATOM      9  C   UNL     1      43.518 -38.853 109.052  1.00  0.00     0.012 C 
ATOM     10  C   UNL     1      43.563 -40.098 108.175  1.00  0.00     0.005 C 
ENDBRANCH   8   9
BRANCH   8  11
ATOM     11  C   UNL     1      42.022 -36.953 108.172  1.00  0.00     0.306 C 
ATOM     12  O   UNL     1      42.736 -36.731 107.205  1.00  0.00    -0.252 OA
BRANCH  11  13
ATOM     13  O   UNL     1      41.142 -36.035 108.610  1.00  0.00    -0.481 OA
ATOM     14  H   UNL     1      40.352 -36.548 108.922  1.00  0.00     0.296 HD
ENDBRANCH  11  13
ENDBRANCH   8  11
ENDBRANCH   7   8
ENDBRANCH   1   7
BRANCH   5  15
ATOM     15  C   UNL     1      36.122 -38.532 107.748  1.00  0.00     0.156 C 
BRANCH  15  16
ATOM     16  N   UNL     1      36.512 -37.948 106.481  1.00  0.00    -0.348 N 
ATOM     17  C   UNL     1      36.304 -38.561 105.269  1.00  0.00     0.254 C 
ATOM     18  O   UNL     1      35.790 -39.672 105.149  1.00  0.00    -0.269 OA
ATOM     19  H   UNL     1      36.844 -36.992 106.514  1.00  0.00     0.164 HD
BRANCH  17  20
ATOM     20  C   UNL     1      36.715 -37.816 104.046  1.00  0.00     0.075 A 
ATOM     21  C   UNL     1      36.010 -36.649 103.710  1.00  0.00     0.017 A 
ATOM     22  C   UNL     1      37.769 -38.217 103.224  1.00  0.00     0.136 A 
ATOM     23  C   UNL     1      36.357 -35.907 102.575  1.00  0.00     0.014 A 
ATOM     24  C   UNL     1      38.122 -37.479 102.093  1.00  0.00     0.053 A 
ATOM     25  C   UNL     1      37.420 -36.314 101.755  1.00  0.00     0.058 A 
ATOM     26  F   UNL     1      38.478 -39.323 103.494  1.00  0.00    -0.206 F 
BRANCH  25  27
ATOM     27  C   UNL     1      37.813 -35.527 100.527  1.00  0.00     0.416 C 
ATOM     28  F   UNL     1      37.085 -35.846  99.420  1.00  0.00    -0.166 F 
ATOM     29  F   UNL     1      37.663 -34.187 100.702  1.00  0.00    -0.166 F 
ATOM     30  F   UNL     1      39.116 -35.719 100.186  1.00  0.00    -0.166 F 
ENDBRANCH  25  27
ENDBRANCH  17  20
ENDBRANCH  15  16
ENDBRANCH   5  15
BRANCH   4  31
ATOM     31  O   UNL     1      35.702 -38.032 110.478  1.00  0.00    -0.496 OA
ATOM     32  C   UNL     1      35.302 -36.687 110.697  1.00  0.00     0.278 C 
ENDBRANCH   4  31
TORSDOF 10
ENDMDL
MODEL 5
REMARK VINA RESULT:    -9.303      2.984      4.654
REMARK INTER + INTRA:         -15.640
REMARK INTER:                 -14.396
REMARK INTRA:                  -1.244
REMARK UNBOUND:                -1.171
REMARK SMILES CC[C@H](Cc1ccc(OC)c(CNC(=O)c2ccc(C(F)(F)F)cc2F)c1)C(=O)O
REMARK SMILES IDX 5 1 6 2 7 3 8 4 11 5 27 6 4 7 3 8 2 9 1 10 28 11 29 12 30 13
REMARK SMILES IDX 12 15 13 16 14 17 15 18 16 20 17 21 25 22 18 23 24 24 19 25
REMARK SMILES IDX 26 26 20 27 21 28 22 29 23 30 9 31 10 32
REMARK H PARENT 30 14 13 19
ROOT
ATOM      1  C   UNL     1      46.515 -39.040 108.446  1.00  0.00    -0.047 A 
ATOM      2  C   UNL     1      46.994 -40.276 108.885  1.00  0.00     0.007 A 
ATOM      3  C   UNL     1      46.271 -41.449 108.639  1.00  0.00     0.047 A 
ATOM      4  C   UNL     1      45.068 -41.410 107.926  1.00  0.00     0.123 A 
ATOM      5  C   UNL     1      44.569 -40.172 107.490  1.00  0.00     0.014 A 
ATOM      6  C   UNL     1      45.281 -39.000 107.787  1.00  0.00     0.013 A 
ENDROOT
BRANCH   1   7
ATOM      7  C   UNL     1      47.326 -37.775 108.613  1.00  0.00     0.050 C 
BRANCH   7   8
ATOM      8  C   UNL     1      47.928 -37.207 107.306  1.00  0.00     0.103 C 
BRANCH   8   9
ATOM      9  C   UNL     1      48.008 -35.670 107.317  1.00  0.00     0.012 C 
ATOM     10  C   UNL     1      48.071 -35.096 108.727  1.00  0.00     0.005 C 
ENDBRANCH   8   9
BRANCH   8  11
ATOM     11  C   UNL     1      49.243 -37.908 107.019  1.00  0.00     0.306 C 
ATOM     12  O   UNL     1      50.338 -37.489 107.364  1.00  0.00    -0.252 OA
BRANCH  11  13
ATOM     13  O   UNL     1      49.131 -38.989 106.227  1.00  0.00    -0.481 OA
ATOM     14  H   UNL     1      49.960 -39.515 106.371  1.00  0.00     0.296 HD
ENDBRANCH  11  13
ENDBRANCH   8  11
ENDBRANCH   7   8
ENDBRANCH   1   7
BRANCH   5  15
ATOM     15  C   UNL     1      43.338 -40.063 106.624  1.00  0.00     0.156 C 
BRANCH  15  16
ATOM     16  N   UNL     1      43.635 -40.410 105.250  1.00  0.00    -0.348 N 
ATOM     17  C   UNL     1      42.710 -40.346 104.236  1.00  0.00     0.254 C 
ATOM     18  O   UNL     1      41.539 -40.010 104.406  1.00  0.00    -0.269 OA
ATOM     19  H   UNL     1      44.609 -40.592 105.036  1.00  0.00     0.164 HD
BRANCH  17  20
ATOM     20  C   UNL     1      43.176 -40.687 102.862  1.00  0.00     0.075 A 
ATOM     21  C   UNL     1      42.857 -39.809 101.814  1.00  0.00     0.017 A 
ATOM     22  C   UNL     1      43.919 -41.831 102.570  1.00  0.00     0.136 A 
ATOM     23  C   UNL     1      43.273 -40.078 100.506  1.00  0.00     0.014 A 
ATOM     24  C   UNL     1      44.341 -42.104 101.268  1.00  0.00     0.053 A 
ATOM     25  C   UNL     1      44.023 -41.229 100.219  1.00  0.00     0.058 A 
ATOM     26  F   UNL     1      44.253 -42.708 103.529  1.00  0.00    -0.206 F 
BRANCH  25  27
ATOM     27  C   UNL     1      44.485 -41.538  98.814  1.00  0.00     0.416 C 
ATOM     28  F   UNL     1      45.174 -40.519  98.230  1.00  0.00    -0.166 F 
ATOM     29  F   UNL     1      45.305 -42.622  98.767  1.00  0.00    -0.166 F 
ATOM     30  F   UNL     1      43.446 -41.815  97.979  1.00  0.00    -0.166 F 
ENDBRANCH  25  27
ENDBRANCH  17  20
ENDBRANCH  15  16
ENDBRANCH   5  15
BRANCH   4  31
ATOM     31  O   UNL     1      44.313 -42.508 107.600  1.00  0.00    -0.496 OA
ATOM     32  C   UNL     1      44.886 -43.785 107.840  1.00  0.00     0.278 C 
ENDBRANCH   4  31
TORSDOF 10
ENDMDL
MODEL 6
REMARK VINA RESULT:    -9.227      2.194      4.957
REMARK INTER + INTRA:         -15.522
REMARK INTER:                 -14.410
REMARK INTRA:                  -1.111
REMARK UNBOUND:                -1.171
REMARK SMILES CC[C@H](Cc1ccc(OC)c(CNC(=O)c2ccc(C(F)(F)F)cc2F)c1)C(=O)O
REMARK SMILES IDX 5 1 6 2 7 3 8 4 11 5 27 6 4 7 3 8 2 9 1 10 28 11 29 12 30 13
REMARK SMILES IDX 12 15 13 16 14 17 15 18 16 20 17 21 25 22 18 23 24 24 19 25
REMARK SMILES IDX 26 26 20 27 21 28 22 29 23 30 9 31 10 32
REMARK H PARENT 30 14 13 19
ROOT
ATOM      1  C   UNL     1      43.626 -39.237 109.138  1.00  0.00    -0.047 A 
ATOM      2  C   UNL     1      44.680 -38.396 109.500  1.00  0.00     0.007 A 
ATOM      3  C   UNL     1      45.983 -38.658 109.061  1.00  0.00     0.047 A 
ATOM      4  C   UNL     1      46.251 -39.752 108.231  1.00  0.00     0.123 A 
ATOM      5  C   UNL     1      45.202 -40.612 107.870  1.00  0.00     0.014 A 
ATOM      6  C   UNL     1      43.909 -40.363 108.357  1.00  0.00     0.013 A 
ENDROOT
BRANCH   1   7
ATOM      7  C   UNL     1      42.197 -38.918 109.517  1.00  0.00     0.050 C 
BRANCH   7   8
ATOM      8  C   UNL     1      41.308 -38.419 108.354  1.00  0.00     0.103 C 
BRANCH   8   9
ATOM      9  C   UNL     1      39.812 -38.682 108.605  1.00  0.00     0.012 C 
ATOM     10  C   UNL     1      39.477 -38.796 110.087  1.00  0.00     0.005 C 
ENDBRANCH   8   9
BRANCH   8  11
ATOM     11  C   UNL     1      41.655 -36.973 108.049  1.00  0.00     0.306 C 
ATOM     12  O   UNL     1      42.553 -36.623 107.297  1.00  0.00    -0.252 OA
BRANCH  11  13
ATOM     13  O   UNL     1      40.971 -36.075 108.779  1.00  0.00    -0.481 OA
ATOM     14  H   UNL     1      40.031 -36.395 108.787  1.00  0.00     0.296 HD
ENDBRANCH  11  13
ENDBRANCH   8  11
ENDBRANCH   7   8
ENDBRANCH   1   7
BRANCH   5  15
ATOM     15  C   UNL     1      45.393 -41.745 106.893  1.00  0.00     0.156 C 
BRANCH  15  16
ATOM     16  N   UNL     1      44.966 -41.363 105.562  1.00  0.00    -0.348 N 
ATOM     17  C   UNL     1      44.557 -42.266 104.610  1.00  0.00     0.254 C 
ATOM     18  O   UNL     1      44.539 -43.483 104.792  1.00  0.00    -0.269 OA
ATOM     19  H   UNL     1      44.863 -40.370 105.395  1.00  0.00     0.164 HD
BRANCH  17  20
ATOM     20  C   UNL     1      44.099 -41.720 103.302  1.00  0.00     0.075 A 
ATOM     21  C   UNL     1      44.648 -42.258 102.128  1.00  0.00     0.017 A 
ATOM     22  C   UNL     1      43.147 -40.706 103.189  1.00  0.00     0.136 A 
ATOM     23  C   UNL     1      44.250 -41.786 100.872  1.00  0.00     0.014 A 
ATOM     24  C   UNL     1      42.743 -40.233 101.939  1.00  0.00     0.053 A 
ATOM     25  C   UNL     1      43.290 -40.769 100.764  1.00  0.00     0.058 A 
ATOM     26  F   UNL     1      42.588 -40.152 104.275  1.00  0.00    -0.206 F 
BRANCH  25  27
ATOM     27  C   UNL     1      42.844 -40.246  99.419  1.00  0.00     0.416 C 
ATOM     28  F   UNL     1      42.069 -41.122  98.722  1.00  0.00    -0.166 F 
ATOM     29  F   UNL     1      42.114 -39.102  99.526  1.00  0.00    -0.166 F 
ATOM     30  F   UNL     1      43.895 -39.947  98.607  1.00  0.00    -0.166 F 
ENDBRANCH  25  27
ENDBRANCH  17  20
ENDBRANCH  15  16
ENDBRANCH   5  15
BRANCH   4  31
ATOM     31  O   UNL     1      47.484 -40.064 107.718  1.00  0.00    -0.496 OA
ATOM     32  C   UNL     1      48.621 -39.686 108.481  1.00  0.00     0.278 C 
ENDBRANCH   4  31
TORSDOF 10
ENDMDL
MODEL 7
REMARK VINA RESULT:    -9.073      4.372      8.493
REMARK INTER + INTRA:         -15.282
REMARK INTER:                 -13.824
REMARK INTRA:                  -1.458
REMARK UNBOUND:                -1.171
REMARK SMILES CC[C@H](Cc1ccc(OC)c(CNC(=O)c2ccc(C(F)(F)F)cc2F)c1)C(=O)O
REMARK SMILES IDX 5 1 6 2 7 3 8 4 11 5 27 6 4 7 3 8 2 9 1 10 28 11 29 12 30 13
REMARK SMILES IDX 12 15 13 16 14 17 15 18 16 20 17 21 25 22 18 23 24 24 19 25
REMARK SMILES IDX 26 26 20 27 21 28 22 29 23 30 9 31 10 32
REMARK H PARENT 30 14 13 19
ROOT
ATOM      1  C   UNL     1      43.607 -41.167 104.274  1.00  0.00    -0.047 A 
ATOM      2  C   UNL     1      44.503 -42.236 104.219  1.00  0.00     0.007 A 
ATOM      3  C   UNL     1      45.376 -42.489 105.285  1.00  0.00     0.047 A 
ATOM      4  C   UNL     1      45.350 -41.692 106.434  1.00  0.00     0.123 A 
ATOM      5  C   UNL     1      44.463 -40.606 106.495  1.00  0.00     0.014 A 
ATOM      6  C   UNL     1      43.627 -40.337 105.400  1.00  0.00     0.013 A 
ENDROOT
BRANCH   1   7
ATOM      7  C   UNL     1      42.588 -40.935 103.180  1.00  0.00     0.050 C 
BRANCH   7   8
ATOM      8  C   UNL     1      42.881 -39.729 102.257  1.00  0.00     0.103 C 
BRANCH   8   9
ATOM      9  C   UNL     1      43.096 -40.150 100.793  1.00  0.00     0.012 C 
ATOM     10  C   UNL     1      43.809 -41.491 100.666  1.00  0.00     0.005 C 
ENDBRANCH   8   9
BRANCH   8  11
ATOM     11  C   UNL     1      41.809 -38.675 102.464  1.00  0.00     0.306 C 
ATOM     12  O   UNL     1      40.952 -38.723 103.334  1.00  0.00    -0.252 OA
BRANCH  11  13
ATOM     13  O   UNL     1      41.786 -37.719 101.518  1.00  0.00    -0.481 OA
ATOM     14  H   UNL     1      40.835 -37.446 101.436  1.00  0.00     0.296 HD
ENDBRANCH  11  13
ENDBRANCH   8  11
ENDBRANCH   7   8
ENDBRANCH   1   7
BRANCH   5  15
ATOM     15  C   UNL     1      44.301 -39.771 107.741  1.00  0.00     0.156 C 
BRANCH  15  16
ATOM     16  N   UNL     1      42.911 -39.694 108.141  1.00  0.00    -0.348 N 
ATOM     17  C   UNL     1      42.268 -38.512 108.419  1.00  0.00     0.254 C 
ATOM     18  O   UNL     1      42.819 -37.413 108.378  1.00  0.00    -0.269 OA
ATOM     19  H   UNL     1      42.384 -40.557 108.090  1.00  0.00     0.164 HD
BRANCH  17  20
ATOM     20  C   UNL     1      40.822 -38.587 108.770  1.00  0.00     0.075 A 
ATOM     21  C   UNL     1      40.452 -38.399 110.111  1.00  0.00     0.017 A 
ATOM     22  C   UNL     1      39.819 -38.828 107.830  1.00  0.00     0.136 A 
ATOM     23  C   UNL     1      39.108 -38.454 110.496  1.00  0.00     0.014 A 
ATOM     24  C   UNL     1      38.476 -38.880 108.206  1.00  0.00     0.053 A 
ATOM     25  C   UNL     1      38.104 -38.693 109.546  1.00  0.00     0.058 A 
ATOM     26  F   UNL     1      40.111 -39.017 106.534  1.00  0.00    -0.206 F 
BRANCH  25  27
ATOM     27  C   UNL     1      36.646 -38.754 109.938  1.00  0.00     0.416 C 
ATOM     28  F   UNL     1      35.834 -38.014 109.134  1.00  0.00    -0.166 F 
ATOM     29  F   UNL     1      36.155 -40.023 109.903  1.00  0.00    -0.166 F 
ATOM     30  F   UNL     1      36.433 -38.303 111.204  1.00  0.00    -0.166 F 
ENDBRANCH  25  27
ENDBRANCH  17  20
ENDBRANCH  15  16
ENDBRANCH   5  15
BRANCH   4  31
ATOM     31  O   UNL     1      46.135 -41.887 107.542  1.00  0.00    -0.496 OA
ATOM     32  C   UNL     1      45.941 -43.091 108.271  1.00  0.00     0.278 C 
ENDBRANCH   4  31
TORSDOF 10
ENDMDL
MODEL 8
REMARK VINA RESULT:    -9.045      2.955      5.213
REMARK INTER + INTRA:         -15.240
REMARK INTER:                 -14.469
REMARK INTRA:                  -0.770
REMARK UNBOUND:                -1.171
REMARK SMILES CC[C@H](Cc1ccc(OC)c(CNC(=O)c2ccc(C(F)(F)F)cc2F)c1)C(=O)O
REMARK SMILES IDX 5 1 6 2 7 3 8 4 11 5 27 6 4 7 3 8 2 9 1 10 28 11 29 12 30 13
REMARK SMILES IDX 12 15 13 16 14 17 15 18 16 20 17 21 25 22 18 23 24 24 19 25
REMARK SMILES IDX 26 26 20 27 21 28 22 29 23 30 9 31 10 32
REMARK H PARENT 30 14 13 19
ROOT
ATOM      1  C   UNL     1      40.278 -38.593 108.327  1.00  0.00    -0.047 A 
ATOM      2  C   UNL     1      40.777 -37.297 108.472  1.00  0.00     0.007 A 
ATOM      3  C   UNL     1      42.095 -36.996 108.107  1.00  0.00     0.047 A 
ATOM      4  C   UNL     1      42.929 -37.981 107.567  1.00  0.00     0.123 A 
ATOM      5  C   UNL     1      42.443 -39.291 107.428  1.00  0.00     0.014 A 
ATOM      6  C   UNL     1      41.135 -39.587 107.843  1.00  0.00     0.013 A 
ENDROOT
BRANCH   1   7
ATOM      7  C   UNL     1      38.831 -38.918 108.620  1.00  0.00     0.050 C 
BRANCH   7   8
ATOM      8  C   UNL     1      38.020 -37.770 109.267  1.00  0.00     0.103 C 
BRANCH   8   9
ATOM      9  C   UNL     1      36.849 -37.308 108.382  1.00  0.00     0.012 C 
ATOM     10  C   UNL     1      36.851 -37.974 107.011  1.00  0.00     0.005 C 
ENDBRANCH   8   9
BRANCH   8  11
ATOM     11  C   UNL     1      37.629 -38.172 110.677  1.00  0.00     0.306 C 
ATOM     12  O   UNL     1      36.485 -38.154 111.108  1.00  0.00    -0.252 OA
BRANCH  11  13
ATOM     13  O   UNL     1      38.671 -38.438 111.485  1.00  0.00    -0.481 OA
ATOM     14  H   UNL     1      38.896 -39.391 111.328  1.00  0.00     0.296 HD
ENDBRANCH  11  13
ENDBRANCH   8  11
ENDBRANCH   7   8
ENDBRANCH   1   7
BRANCH   5  15
ATOM     15  C   UNL     1      43.245 -40.377 106.755  1.00  0.00     0.156 C 
BRANCH  15  16
ATOM     16  N   UNL     1      43.159 -40.271 105.314  1.00  0.00    -0.348 N 
ATOM     17  C   UNL     1      43.700 -41.196 104.453  1.00  0.00     0.254 C 
ATOM     18  O   UNL     1      44.327 -42.186 104.826  1.00  0.00    -0.269 OA
ATOM     19  H   UNL     1      42.566 -39.532 104.955  1.00  0.00     0.164 HD
BRANCH  17  20
ATOM     20  C   UNL     1      43.489 -40.978 102.994  1.00  0.00     0.075 A 
ATOM     21  C   UNL     1      43.830 -42.013 102.110  1.00  0.00     0.017 A 
ATOM     22  C   UNL     1      42.962 -39.798 102.466  1.00  0.00     0.136 A 
ATOM     23  C   UNL     1      43.648 -41.864 100.731  1.00  0.00     0.014 A 
ATOM     24  C   UNL     1      42.774 -39.644 101.092  1.00  0.00     0.053 A 
ATOM     25  C   UNL     1      43.115 -40.678 100.207  1.00  0.00     0.058 A 
ATOM     26  F   UNL     1      42.619 -38.773 103.261  1.00  0.00    -0.206 F 
BRANCH  25  27
ATOM     27  C   UNL     1      42.907 -40.495  98.721  1.00  0.00     0.416 C 
ATOM     28  F   UNL     1      42.608 -39.215  98.366  1.00  0.00    -0.166 F 
ATOM     29  F   UNL     1      44.009 -40.838  98.000  1.00  0.00    -0.166 F 
ATOM     30  F   UNL     1      41.891 -41.264  98.244  1.00  0.00    -0.166 F 
ENDBRANCH  25  27
ENDBRANCH  17  20
ENDBRANCH  15  16
ENDBRANCH   5  15
BRANCH   4  31
ATOM     31  O   UNL     1      44.216 -37.772 107.143  1.00  0.00    -0.496 OA
ATOM     32  C   UNL     1      45.260 -38.072 108.058  1.00  0.00     0.278 C 
ENDBRANCH   4  31
TORSDOF 10
ENDMDL
MODEL 9
REMARK VINA RESULT:    -9.029      1.632      2.012
REMARK INTER + INTRA:         -15.215
REMARK INTER:                 -14.085
REMARK INTRA:                  -1.130
REMARK UNBOUND:                -1.171
REMARK SMILES CC[C@H](Cc1ccc(OC)c(CNC(=O)c2ccc(C(F)(F)F)cc2F)c1)C(=O)O
REMARK SMILES IDX 5 1 6 2 7 3 8 4 11 5 27 6 4 7 3 8 2 9 1 10 28 11 29 12 30 13
REMARK SMILES IDX 12 15 13 16 14 17 15 18 16 20 17 21 25 22 18 23 24 24 19 25
REMARK SMILES IDX 26 26 20 27 21 28 22 29 23 30 9 31 10 32
REMARK H PARENT 30 14 13 19
ROOT
ATOM      1  C   UNL     1      43.650 -40.120 108.022  1.00  0.00    -0.047 A 
ATOM      2  C   UNL     1      43.280 -39.507 109.221  1.00  0.00     0.007 A 
ATOM      3  C   UNL     1      42.083 -38.787 109.313  1.00  0.00     0.047 A 
ATOM      4  C   UNL     1      41.222 -38.688 108.214  1.00  0.00     0.123 A 
ATOM      5  C   UNL     1      41.589 -39.290 107.000  1.00  0.00     0.014 A 
ATOM      6  C   UNL     1      42.815 -39.968 106.910  1.00  0.00     0.013 A 
ENDROOT
BRANCH   1   7
ATOM      7  C   UNL     1      44.886 -40.986 107.928  1.00  0.00     0.050 C 
BRANCH   7   8
ATOM      8  C   UNL     1      44.791 -42.156 106.921  1.00  0.00     0.103 C 
BRANCH   8   9
ATOM      9  C   UNL     1      45.827 -42.040 105.789  1.00  0.00     0.012 C 
ATOM     10  C   UNL     1      45.501 -42.936 104.600  1.00  0.00     0.005 C 
ENDBRANCH   8   9
BRANCH   8  11
ATOM     11  C   UNL     1      44.825 -43.469 107.680  1.00  0.00     0.306 C 
ATOM     12  O   UNL     1      43.850 -44.182 107.870  1.00  0.00    -0.252 OA
BRANCH  11  13
ATOM     13  O   UNL     1      46.008 -43.743 108.257  1.00  0.00    -0.481 OA
ATOM     14  H   UNL     1      45.967 -43.336 109.161  1.00  0.00     0.296 HD
ENDBRANCH  11  13
ENDBRANCH   8  11
ENDBRANCH   7   8
ENDBRANCH   1   7
BRANCH   5  15
ATOM     15  C   UNL     1      40.665 -39.319 105.807  1.00  0.00     0.156 C 
BRANCH  15  16
ATOM     16  N   UNL     1      41.376 -39.706 104.607  1.00  0.00    -0.348 N 
ATOM     17  C   UNL     1      41.074 -39.219 103.357  1.00  0.00     0.254 C 
ATOM     18  O   UNL     1      40.157 -38.429 103.141  1.00  0.00    -0.269 OA
ATOM     19  H   UNL     1      42.205 -40.272 104.742  1.00  0.00     0.164 HD
BRANCH  17  20
ATOM     20  C   UNL     1      41.926 -39.672 102.222  1.00  0.00     0.075 A 
ATOM     21  C   UNL     1      41.725 -39.084 100.964  1.00  0.00     0.017 A 
ATOM     22  C   UNL     1      42.918 -40.645 102.352  1.00  0.00     0.136 A 
ATOM     23  C   UNL     1      42.500 -39.468  99.864  1.00  0.00     0.014 A 
ATOM     24  C   UNL     1      43.698 -41.030 101.260  1.00  0.00     0.053 A 
ATOM     25  C   UNL     1      43.498 -40.444 100.001  1.00  0.00     0.058 A 
ATOM     26  F   UNL     1      43.156 -41.243 103.529  1.00  0.00    -0.206 F 
BRANCH  25  27
ATOM     27  C   UNL     1      44.348 -40.873  98.829  1.00  0.00     0.416 C 
ATOM     28  F   UNL     1      43.627 -41.173  97.713  1.00  0.00    -0.166 F 
ATOM     29  F   UNL     1      45.235 -39.911  98.455  1.00  0.00    -0.166 F 
ATOM     30  F   UNL     1      45.089 -41.980  99.106  1.00  0.00    -0.166 F 
ENDBRANCH  25  27
ENDBRANCH  17  20
ENDBRANCH  15  16
ENDBRANCH   5  15
BRANCH   4  31
ATOM     31  O   UNL     1      40.012 -38.042 108.221  1.00  0.00    -0.496 OA
ATOM     32  C   UNL     1      39.331 -37.951 109.464  1.00  0.00     0.278 C 
ENDBRANCH   4  31
TORSDOF 10
ENDMDL
