MODEL 1
REMARK minimizedAffinity -9.92222023
REMARK CNNscore 0.565414131
REMARK CNNaffinity 8.42879963
REMARK SMILES O=C(NCCCNc1c2c(nc3ccccc13)CCCC2)c1sc(-c2ccnc(NC(=O)C3CC3)c2)nc1OCC1CC1
REMARK SMILES IDX 1 1 2 2 3 3 22 5 23 6 38 7 24 8 37 9 39 10 40 11 41 12 42 13
REMARK SMILES IDX 43 14 25 15 26 16 36 17 27 18 29 19 28 20 30 21 31 22 32 23
REMARK SMILES IDX 33 25 34 26 35 27 4 28 5 29 6 30 7 31 8 33 9 34 17 35 10 36
REMARK SMILES IDX 21 37 16 38 12 39 11 40 18 41 20 42 15 43 13 44 19 45 14 46
REMARK H PARENT 3 4 30 24 7 32
ROOT
ATOM      1  O   UNL     1     136.149 117.069  38.608  1.00  0.00    -0.268 OA
ATOM      2  C   UNL     1     136.414 116.713  39.755  1.00  0.00     0.267 C 
ATOM      3  N   UNL     1     136.038 117.493  40.834  1.00  0.00    -0.351 N 
ATOM      4  H   UNL     1     136.260 117.170  41.768  1.00  0.00     0.163 HD
ENDROOT
BRANCH   2   5
ATOM      5  C   UNL     1     137.115 115.487  40.090  1.00  0.00     0.156 A 
ATOM      6  S   UNL     1     136.363 113.948  39.965  1.00  0.00    -0.105 S 
ATOM      7  C   UNL     1     138.409 115.321  40.553  1.00  0.00     0.238 A 
ATOM      8  C   UNL     1     137.795 113.184  40.532  1.00  0.00     0.128 A 
ATOM      9  N   UNL     1     138.780 114.013  40.812  1.00  0.00    -0.201 NA
BRANCH   7  10
ATOM     10  O   UNL     1     139.220 116.396  40.708  1.00  0.00    -0.476 OA
BRANCH  10  11
ATOM     11  C   UNL     1     139.677 116.597  42.043  1.00  0.00     0.235 C 
BRANCH  11  12
ATOM     12  C   UNL     1     141.175 116.677  42.058  1.00  0.00     0.027 C 
ATOM     13  C   UNL     1     142.008 115.460  41.740  1.00  0.00     0.007 C 
ATOM     14  C   UNL     1     141.979 116.004  43.142  1.00  0.00     0.007 C 
ENDBRANCH  11  12
ENDBRANCH  10  11
ENDBRANCH   7  10
BRANCH   8  15
ATOM     15  C   UNL     1     137.874 111.724  40.720  1.00  0.00     0.016 A 
ATOM     16  C   UNL     1     137.071 111.124  41.693  1.00  0.00     0.031 A 
ATOM     17  C   UNL     1     138.730 110.905  39.972  1.00  0.00     0.058 A 
ATOM     18  C   UNL     1     137.146 109.755  41.861  1.00  0.00     0.114 A 
ATOM     19  C   UNL     1     138.738 109.538  40.206  1.00  0.00     0.133 A 
ATOM     20  N   UNL     1     137.954 108.954  41.137  1.00  0.00    -0.239 NA
BRANCH  19  21
ATOM     21  N   UNL     1     139.549 108.634  39.523  1.00  0.00    -0.310 N 
ATOM     22  C   UNL     1     140.903 108.464  39.625  1.00  0.00     0.228 C 
ATOM     23  O   UNL     1     141.682 109.106  40.312  1.00  0.00    -0.274 OA
ATOM     24  H   UNL     1     139.029 108.056  38.878  1.00  0.00     0.171 HD
BRANCH  22  25
ATOM     25  C   UNL     1     141.440 107.381  38.752  1.00  0.00     0.079 C 
ATOM     26  C   UNL     1     142.873 107.357  38.279  1.00  0.00     0.014 C 
ATOM     27  C   UNL     1     141.779 107.707  37.316  1.00  0.00     0.014 C 
ENDBRANCH  22  25
ENDBRANCH  19  21
ENDBRANCH   8  15
ENDBRANCH   2   5
BRANCH   3  28
ATOM     28  C   UNL     1     135.368 118.768  40.697  1.00  0.00     0.118 C 
BRANCH  28  29
ATOM     29  C   UNL     1     134.129 118.907  41.579  1.00  0.00     0.042 C 
BRANCH  29  30
ATOM     30  C   UNL     1     133.107 117.787  41.401  1.00  0.00     0.115 C 
BRANCH  30  31
ATOM     31  N   UNL     1     133.425 116.984  40.222  1.00  0.00    -0.384 N 
ATOM     32  H   UNL     1     134.325 117.170  39.789  1.00  0.00     0.160 HD
BRANCH  31  33
ATOM     33  C   UNL     1     133.104 115.614  40.303  1.00  0.00     0.049 A 
ATOM     34  C   UNL     1     133.232 114.794  39.167  1.00  0.00    -0.003 A 
ATOM     35  C   UNL     1     132.604 115.063  41.516  1.00  0.00     0.024 A 
ATOM     36  C   UNL     1     132.852 113.454  39.284  1.00  0.00     0.046 A 
ATOM     37  C   UNL     1     133.737 115.341  37.853  1.00  0.00     0.039 C 
ATOM     38  C   UNL     1     132.423 115.806  42.711  1.00  0.00     0.012 A 
ATOM     39  C   UNL     1     132.263 113.697  41.516  1.00  0.00     0.073 A 
ATOM     40  N   UNL     1     132.385 112.915  40.435  1.00  0.00    -0.252 NA
ATOM     41  C   UNL     1     133.003 112.480  38.142  1.00  0.00     0.056 C 
ATOM     42  C   UNL     1     134.204 114.264  36.876  1.00  0.00     0.005 C 
ATOM     43  C   UNL     1     131.931 115.211  43.871  1.00  0.00     0.001 A 
ATOM     44  C   UNL     1     131.774 113.126  42.685  1.00  0.00     0.029 A 
ATOM     45  C   UNL     1     133.170 113.152  36.783  1.00  0.00     0.007 C 
ATOM     46  C   UNL     1     131.605 113.864  43.858  1.00  0.00     0.002 A 
ENDBRANCH  31  33
ENDBRANCH  30  31
ENDBRANCH  29  30
ENDBRANCH  28  29
ENDBRANCH   3  28
TORSDOF 12
ENDMDL
MODEL 2
REMARK minimizedAffinity -10.5560446
REMARK CNNscore 0.526461899
REMARK CNNaffinity 8.2827158
REMARK SMILES O=C(NCCCNc1c2c(nc3ccccc13)CCCC2)c1sc(-c2ccnc(NC(=O)C3CC3)c2)nc1OCC1CC1
REMARK SMILES IDX 1 1 2 2 3 3 22 5 23 6 38 7 24 8 37 9 39 10 40 11 41 12 42 13
REMARK SMILES IDX 43 14 25 15 26 16 36 17 27 18 29 19 28 20 30 21 31 22 32 23
REMARK SMILES IDX 33 25 34 26 35 27 4 28 5 29 6 30 7 31 8 33 9 34 17 35 10 36
REMARK SMILES IDX 21 37 16 38 12 39 11 40 18 41 20 42 15 43 13 44 19 45 14 46
REMARK H PARENT 3 4 30 24 7 32
ROOT
ATOM      1  O   UNL     1     135.941 116.231  42.034  1.00  0.00    -0.268 OA
ATOM      2  C   UNL     1     136.686 116.294  41.058  1.00  0.00     0.267 C 
ATOM      3  N   UNL     1     136.713 117.431  40.271  1.00  0.00    -0.351 N 
ATOM      4  H   UNL     1     137.345 117.460  39.479  1.00  0.00     0.163 HD
ENDROOT
BRANCH   2   5
ATOM      5  C   UNL     1     137.586 115.233  40.645  1.00  0.00     0.156 A 
ATOM      6  S   UNL     1     137.016 113.660  40.253  1.00  0.00    -0.105 S 
ATOM      7  C   UNL     1     138.963 115.260  40.509  1.00  0.00     0.238 A 
ATOM      8  C   UNL     1     138.623 113.139  39.939  1.00  0.00     0.128 A 
ATOM      9  N   UNL     1     139.542 114.065  40.121  1.00  0.00    -0.201 NA
BRANCH   7  10
ATOM     10  O   UNL     1     139.647 116.408  40.736  1.00  0.00    -0.476 OA
BRANCH  10  11
ATOM     11  C   UNL     1     139.944 116.652  42.108  1.00  0.00     0.235 C 
BRANCH  11  12
ATOM     12  C   UNL     1     141.430 116.715  42.300  1.00  0.00     0.027 C 
ATOM     13  C   UNL     1     142.348 115.890  41.433  1.00  0.00     0.007 C 
ATOM     14  C   UNL     1     142.188 115.552  42.890  1.00  0.00     0.007 C 
ENDBRANCH  11  12
ENDBRANCH  10  11
ENDBRANCH   7  10
BRANCH   8  15
ATOM     15  C   UNL     1     138.925 111.752  39.541  1.00  0.00     0.016 A 
ATOM     16  C   UNL     1     140.257 111.329  39.523  1.00  0.00     0.031 A 
ATOM     17  C   UNL     1     137.936 110.834  39.165  1.00  0.00     0.058 A 
ATOM     18  C   UNL     1     140.533 110.026  39.155  1.00  0.00     0.114 A 
ATOM     19  C   UNL     1     138.304 109.544  38.811  1.00  0.00     0.133 A 
ATOM     20  N   UNL     1     139.588 109.129  38.806  1.00  0.00    -0.239 NA
BRANCH  19  21
ATOM     21  N   UNL     1     137.403 108.555  38.420  1.00  0.00    -0.310 N 
ATOM     22  C   UNL     1     136.565 108.550  37.340  1.00  0.00     0.228 C 
ATOM     23  O   UNL     1     136.408 109.440  36.518  1.00  0.00    -0.274 OA
ATOM     24  H   UNL     1     137.401 107.763  39.048  1.00  0.00     0.171 HD
BRANCH  22  25
ATOM     25  C   UNL     1     135.749 107.309  37.218  1.00  0.00     0.079 C 
ATOM     26  C   UNL     1     135.246 106.547  38.420  1.00  0.00     0.014 C 
ATOM     27  C   UNL     1     136.373 105.988  37.605  1.00  0.00     0.014 C 
ENDBRANCH  22  25
ENDBRANCH  19  21
ENDBRANCH   8  15
ENDBRANCH   2   5
BRANCH   3  28
ATOM     28  C   UNL     1     135.859 118.576  40.501  1.00  0.00     0.118 C 
BRANCH  28  29
ATOM     29  C   UNL     1     134.739 118.723  39.472  1.00  0.00     0.042 C 
BRANCH  29  30
ATOM     30  C   UNL     1     133.933 117.448  39.242  1.00  0.00     0.115 C 
BRANCH  30  31
ATOM     31  N   UNL     1     133.367 116.964  40.500  1.00  0.00    -0.384 N 
ATOM     32  H   UNL     1     132.645 117.546  40.914  1.00  0.00     0.160 HD
BRANCH  31  33
ATOM     33  C   UNL     1     133.090 115.583  40.561  1.00  0.00     0.049 A 
ATOM     34  C   UNL     1     132.470 115.040  41.702  1.00  0.00    -0.003 A 
ATOM     35  C   UNL     1     133.478 114.724  39.495  1.00  0.00     0.024 A 
ATOM     36  C   UNL     1     132.263 113.658  41.737  1.00  0.00     0.046 A 
ATOM     37  C   UNL     1     132.062 115.912  42.866  1.00  0.00     0.039 C 
ATOM     38  C   UNL     1     134.121 115.167  38.311  1.00  0.00     0.012 A 
ATOM     39  C   UNL     1     133.209 113.349  39.639  1.00  0.00     0.073 A 
ATOM     40  N   UNL     1     132.618 112.832  40.725  1.00  0.00    -0.252 NA
ATOM     41  C   UNL     1     131.557 112.987  42.888  1.00  0.00     0.056 C 
ATOM     42  C   UNL     1     131.051 115.253  43.804  1.00  0.00     0.005 C 
ATOM     43  C   UNL     1     134.476 114.277  37.298  1.00  0.00     0.001 A 
ATOM     44  C   UNL     1     133.572 112.482  38.616  1.00  0.00     0.029 A 
ATOM     45  C   UNL     1     131.498 113.840  44.151  1.00  0.00     0.007 C 
ATOM     46  C   UNL     1     134.200 112.928  37.451  1.00  0.00     0.002 A 
ENDBRANCH  31  33
ENDBRANCH  30  31
ENDBRANCH  29  30
ENDBRANCH  28  29
ENDBRANCH   3  28
TORSDOF 12
ENDMDL
MODEL 3
REMARK minimizedAffinity -9.43839073
REMARK CNNscore 0.515525639
REMARK CNNaffinity 8.04397488
REMARK SMILES O=C(NCCCNc1c2c(nc3ccccc13)CCCC2)c1sc(-c2ccnc(NC(=O)C3CC3)c2)nc1OCC1CC1
REMARK SMILES IDX 1 1 2 2 3 3 22 5 23 6 38 7 24 8 37 9 39 10 40 11 41 12 42 13
REMARK SMILES IDX 43 14 25 15 26 16 36 17 27 18 29 19 28 20 30 21 31 22 32 23
REMARK SMILES IDX 33 25 34 26 35 27 4 28 5 29 6 30 7 31 8 33 9 34 17 35 10 36
REMARK SMILES IDX 21 37 16 38 12 39 11 40 18 41 20 42 15 43 13 44 19 45 14 46
REMARK H PARENT 3 4 30 24 7 32
ROOT
ATOM      1  O   UNL     1     134.902 115.520  43.807  1.00  0.00    -0.268 OA
ATOM      2  C   UNL     1     134.967 114.965  42.712  1.00  0.00     0.267 C 
ATOM      3  N   UNL     1     134.743 115.682  41.550  1.00  0.00    -0.351 N 
ATOM      4  H   UNL     1     134.814 115.202  40.661  1.00  0.00     0.163 HD
ENDROOT
BRANCH   2   5
ATOM      5  C   UNL     1     135.279 113.560  42.522  1.00  0.00     0.156 A 
ATOM      6  S   UNL     1     136.739 113.046  41.777  1.00  0.00    -0.105 S 
ATOM      7  C   UNL     1     134.528 112.448  42.858  1.00  0.00     0.238 A 
ATOM      8  C   UNL     1     136.268 111.403  41.951  1.00  0.00     0.128 A 
ATOM      9  N   UNL     1     135.091 111.230  42.518  1.00  0.00    -0.201 NA
BRANCH   7  10
ATOM     10  O   UNL     1     133.338 112.595  43.489  1.00  0.00    -0.476 OA
BRANCH  10  11
ATOM     11  C   UNL     1     132.401 113.413  42.793  1.00  0.00     0.235 C 
BRANCH  11  12
ATOM     12  C   UNL     1     131.801 114.411  43.737  1.00  0.00     0.027 C 
ATOM     13  C   UNL     1     130.338 114.769  43.641  1.00  0.00     0.007 C 
ATOM     14  C   UNL     1     131.384 115.780  43.259  1.00  0.00     0.007 C 
ENDBRANCH  11  12
ENDBRANCH  10  11
ENDBRANCH   7  10
BRANCH   8  15
ATOM     15  C   UNL     1     137.110 110.297  41.458  1.00  0.00     0.016 A 
ATOM     16  C   UNL     1     137.138 109.098  42.175  1.00  0.00     0.031 A 
ATOM     17  C   UNL     1     137.899 110.396  40.305  1.00  0.00     0.058 A 
ATOM     18  C   UNL     1     137.924 108.064  41.706  1.00  0.00     0.114 A 
ATOM     19  C   UNL     1     138.657 109.306  39.905  1.00  0.00     0.133 A 
ATOM     20  N   UNL     1     138.676 108.142  40.588  1.00  0.00    -0.239 NA
BRANCH  19  21
ATOM     21  N   UNL     1     139.476 109.296  38.777  1.00  0.00    -0.310 N 
ATOM     22  C   UNL     1     139.113 109.427  37.465  1.00  0.00     0.228 C 
ATOM     23  O   UNL     1     137.982 109.537  37.015  1.00  0.00    -0.274 OA
ATOM     24  H   UNL     1     140.452 109.170  39.006  1.00  0.00     0.171 HD
BRANCH  22  25
ATOM     25  C   UNL     1     140.262 109.391  36.516  1.00  0.00     0.079 C 
ATOM     26  C   UNL     1     140.952 108.106  36.126  1.00  0.00     0.014 C 
ATOM     27  C   UNL     1     141.637 109.064  37.053  1.00  0.00     0.014 C 
ENDBRANCH  22  25
ENDBRANCH  19  21
ENDBRANCH   8  15
ENDBRANCH   2   5
BRANCH   3  28
ATOM     28  C   UNL     1     134.380 117.083  41.539  1.00  0.00     0.118 C 
BRANCH  28  29
ATOM     29  C   UNL     1     135.252 117.935  40.618  1.00  0.00     0.042 C 
BRANCH  29  30
ATOM     30  C   UNL     1     136.379 117.163  39.937  1.00  0.00     0.115 C 
BRANCH  30  31
ATOM     31  N   UNL     1     137.515 117.006  40.843  1.00  0.00    -0.384 N 
ATOM     32  H   UNL     1     137.311 117.119  41.831  1.00  0.00     0.160 HD
BRANCH  31  33
ATOM     33  C   UNL     1     138.386 115.934  40.559  1.00  0.00     0.049 A 
ATOM     34  C   UNL     1     139.638 115.859  41.198  1.00  0.00    -0.003 A 
ATOM     35  C   UNL     1     138.028 114.952  39.594  1.00  0.00     0.024 A 
ATOM     36  C   UNL     1     140.488 114.807  40.846  1.00  0.00     0.046 A 
ATOM     37  C   UNL     1     140.068 116.891  42.213  1.00  0.00     0.039 C 
ATOM     38  C   UNL     1     136.800 114.946  38.884  1.00  0.00     0.012 A 
ATOM     39  C   UNL     1     138.963 113.933  39.328  1.00  0.00     0.073 A 
ATOM     40  N   UNL     1     140.155 113.860  39.937  1.00  0.00    -0.252 NA
ATOM     41  C   UNL     1     141.825 114.605  41.512  1.00  0.00     0.056 C 
ATOM     42  C   UNL     1     141.232 116.441  43.095  1.00  0.00     0.005 C 
ATOM     43  C   UNL     1     136.504 113.955  37.950  1.00  0.00     0.001 A 
ATOM     44  C   UNL     1     138.645 112.957  38.392  1.00  0.00     0.029 A 
ATOM     45  C   UNL     1     142.339 115.843  42.240  1.00  0.00     0.007 C 
ATOM     46  C   UNL     1     137.430 112.955  37.703  1.00  0.00     0.002 A 
ENDBRANCH  31  33
ENDBRANCH  30  31
ENDBRANCH  29  30
ENDBRANCH  28  29
ENDBRANCH   3  28
TORSDOF 12
ENDMDL
MODEL 4
REMARK minimizedAffinity -10.4801683
REMARK CNNscore 0.41441226
REMARK CNNaffinity 8.43685818
REMARK SMILES O=C(NCCCNc1c2c(nc3ccccc13)CCCC2)c1sc(-c2ccnc(NC(=O)C3CC3)c2)nc1OCC1CC1
REMARK SMILES IDX 1 1 2 2 3 3 22 5 23 6 38 7 24 8 37 9 39 10 40 11 41 12 42 13
REMARK SMILES IDX 43 14 25 15 26 16 36 17 27 18 29 19 28 20 30 21 31 22 32 23
REMARK SMILES IDX 33 25 34 26 35 27 4 28 5 29 6 30 7 31 8 33 9 34 17 35 10 36
REMARK SMILES IDX 21 37 16 38 12 39 11 40 18 41 20 42 15 43 13 44 19 45 14 46
REMARK H PARENT 3 4 30 24 7 32
ROOT
ATOM      1  O   UNL     1     138.033 118.275  39.803  1.00  0.00    -0.268 OA
ATOM      2  C   UNL     1     137.372 117.368  40.304  1.00  0.00     0.267 C 
ATOM      3  N   UNL     1     136.065 117.591  40.700  1.00  0.00    -0.351 N 
ATOM      4  H   UNL     1     135.541 116.822  41.100  1.00  0.00     0.163 HD
ENDROOT
BRANCH   2   5
ATOM      5  C   UNL     1     137.864 116.020  40.521  1.00  0.00     0.156 A 
ATOM      6  S   UNL     1     137.172 114.662  39.730  1.00  0.00    -0.105 S 
ATOM      7  C   UNL     1     138.887 115.587  41.347  1.00  0.00     0.238 A 
ATOM      8  C   UNL     1     138.268 113.612  40.535  1.00  0.00     0.128 A 
ATOM      9  N   UNL     1     139.100 114.220  41.357  1.00  0.00    -0.201 NA
BRANCH   7  10
ATOM     10  O   UNL     1     139.611 116.483  42.061  1.00  0.00    -0.476 OA
BRANCH  10  11
ATOM     11  C   UNL     1     140.713 117.044  41.353  1.00  0.00     0.235 C 
BRANCH  11  12
ATOM     12  C   UNL     1     141.999 116.558  41.952  1.00  0.00     0.027 C 
ATOM     13  C   UNL     1     142.282 115.080  42.056  1.00  0.00     0.007 C 
ATOM     14  C   UNL     1     142.022 115.882  43.301  1.00  0.00     0.007 C 
ENDBRANCH  11  12
ENDBRANCH  10  11
ENDBRANCH   7  10
BRANCH   8  15
ATOM     15  C   UNL     1     138.232 112.152  40.338  1.00  0.00     0.016 A 
ATOM     16  C   UNL     1     137.164 111.424  40.870  1.00  0.00     0.031 A 
ATOM     17  C   UNL     1     139.230 111.451  39.648  1.00  0.00     0.058 A 
ATOM     18  C   UNL     1     137.133 110.057  40.677  1.00  0.00     0.114 A 
ATOM     19  C   UNL     1     139.117 110.077  39.500  1.00  0.00     0.133 A 
ATOM     20  N   UNL     1     138.080 109.373  40.001  1.00  0.00    -0.239 NA
BRANCH  19  21
ATOM     21  N   UNL     1     140.050 109.284  38.834  1.00  0.00    -0.310 N 
ATOM     22  C   UNL     1     141.249 108.817  39.298  1.00  0.00     0.228 C 
ATOM     23  O   UNL     1     141.764 109.040  40.383  1.00  0.00    -0.274 OA
ATOM     24  H   UNL     1     139.764 109.054  37.893  1.00  0.00     0.171 HD
BRANCH  22  25
ATOM     25  C   UNL     1     141.986 107.973  38.314  1.00  0.00     0.079 C 
ATOM     26  C   UNL     1     143.107 108.515  37.460  1.00  0.00     0.014 C 
ATOM     27  C   UNL     1     141.775 108.225  36.839  1.00  0.00     0.014 C 
ENDBRANCH  22  25
ENDBRANCH  19  21
ENDBRANCH   8  15
ENDBRANCH   2   5
BRANCH   3  28
ATOM     28  C   UNL     1     135.415 118.880  40.601  1.00  0.00     0.118 C 
BRANCH  28  29
ATOM     29  C   UNL     1     134.008 118.903  41.196  1.00  0.00     0.042 C 
BRANCH  29  30
ATOM     30  C   UNL     1     133.501 117.538  41.654  1.00  0.00     0.115 C 
BRANCH  30  31
ATOM     31  N   UNL     1     132.949 116.790  40.527  1.00  0.00    -0.384 N 
ATOM     32  H   UNL     1     133.261 117.083  39.605  1.00  0.00     0.160 HD
BRANCH  31  33
ATOM     33  C   UNL     1     132.882 115.391  40.687  1.00  0.00     0.049 A 
ATOM     34  C   UNL     1     132.371 114.845  41.879  1.00  0.00    -0.003 A 
ATOM     35  C   UNL     1     133.375 114.526  39.671  1.00  0.00     0.024 A 
ATOM     36  C   UNL     1     132.373 113.453  42.013  1.00  0.00     0.046 A 
ATOM     37  C   UNL     1     131.857 115.726  42.993  1.00  0.00     0.039 C 
ATOM     38  C   UNL     1     133.924 114.976  38.442  1.00  0.00     0.012 A 
ATOM     39  C   UNL     1     133.317 113.140  39.914  1.00  0.00     0.073 A 
ATOM     40  N   UNL     1     132.829 112.619  41.049  1.00  0.00    -0.252 NA
ATOM     41  C   UNL     1     131.796 112.768  43.225  1.00  0.00     0.056 C 
ATOM     42  C   UNL     1     130.974 114.993  44.002  1.00  0.00     0.005 C 
ATOM     43  C   UNL     1     134.389 114.079  37.482  1.00  0.00     0.001 A 
ATOM     44  C   UNL     1     133.788 112.267  38.942  1.00  0.00     0.029 A 
ATOM     45  C   UNL     1     131.632 113.690  44.429  1.00  0.00     0.007 C 
ATOM     46  C   UNL     1     134.320 112.718  37.733  1.00  0.00     0.002 A 
ENDBRANCH  31  33
ENDBRANCH  30  31
ENDBRANCH  29  30
ENDBRANCH  28  29
ENDBRANCH   3  28
TORSDOF 12
ENDMDL
MODEL 5
REMARK minimizedAffinity -11.4151049
REMARK CNNscore 0.313658357
REMARK CNNaffinity 8.11101151
REMARK SMILES O=C(NCCCNc1c2c(nc3ccccc13)CCCC2)c1sc(-c2ccnc(NC(=O)C3CC3)c2)nc1OCC1CC1
REMARK SMILES IDX 1 1 2 2 3 3 22 5 23 6 38 7 24 8 37 9 39 10 40 11 41 12 42 13
REMARK SMILES IDX 43 14 25 15 26 16 36 17 27 18 29 19 28 20 30 21 31 22 32 23
REMARK SMILES IDX 33 25 34 26 35 27 4 28 5 29 6 30 7 31 8 33 9 34 17 35 10 36
REMARK SMILES IDX 21 37 16 38 12 39 11 40 18 41 20 42 15 43 13 44 19 45 14 46
REMARK H PARENT 3 4 30 24 7 32
ROOT
ATOM      1  O   UNL     1     137.994 116.477  41.989  1.00  0.00    -0.268 OA
ATOM      2  C   UNL     1     137.732 116.086  40.853  1.00  0.00     0.267 C 
ATOM      3  N   UNL     1     136.897 116.826  40.034  1.00  0.00    -0.351 N 
ATOM      4  H   UNL     1     136.707 116.486  39.099  1.00  0.00     0.163 HD
ENDROOT
BRANCH   2   5
ATOM      5  C   UNL     1     138.250 114.863  40.268  1.00  0.00     0.156 A 
ATOM      6  S   UNL     1     137.498 114.112  38.918  1.00  0.00    -0.105 S 
ATOM      7  C   UNL     1     139.345 114.109  40.651  1.00  0.00     0.238 A 
ATOM      8  C   UNL     1     138.669 112.855  38.945  1.00  0.00     0.128 A 
ATOM      9  N   UNL     1     139.567 112.966  39.902  1.00  0.00    -0.201 NA
BRANCH   7  10
ATOM     10  O   UNL     1     140.124 114.515  41.683  1.00  0.00    -0.476 OA
BRANCH  10  11
ATOM     11  C   UNL     1     141.513 114.596  41.374  1.00  0.00     0.235 C 
BRANCH  11  12
ATOM     12  C   UNL     1     142.074 115.884  41.897  1.00  0.00     0.027 C 
ATOM     13  C   UNL     1     141.345 116.656  42.969  1.00  0.00     0.007 C 
ATOM     14  C   UNL     1     141.422 117.206  41.571  1.00  0.00     0.007 C 
ENDBRANCH  11  12
ENDBRANCH  10  11
ENDBRANCH   7  10
BRANCH   8  15
ATOM     15  C   UNL     1     138.625 111.733  37.990  1.00  0.00     0.016 A 
ATOM     16  C   UNL     1     137.393 111.138  37.702  1.00  0.00     0.031 A 
ATOM     17  C   UNL     1     139.768 111.222  37.361  1.00  0.00     0.058 A 
ATOM     18  C   UNL     1     137.357 110.091  36.802  1.00  0.00     0.114 A 
ATOM     19  C   UNL     1     139.638 110.168  36.468  1.00  0.00     0.133 A 
ATOM     20  N   UNL     1     138.448 109.601  36.179  1.00  0.00    -0.239 NA
BRANCH  19  21
ATOM     21  N   UNL     1     140.707 109.584  35.790  1.00  0.00    -0.310 N 
ATOM     22  C   UNL     1     141.770 108.900  36.312  1.00  0.00     0.228 C 
ATOM     23  O   UNL     1     142.018 108.701  37.491  1.00  0.00    -0.274 OA
ATOM     24  H   UNL     1     140.648 109.712  34.789  1.00  0.00     0.171 HD
BRANCH  22  25
ATOM     25  C   UNL     1     142.721 108.393  35.282  1.00  0.00     0.079 C 
ATOM     26  C   UNL     1     142.397 108.392  33.807  1.00  0.00     0.014 C 
ATOM     27  C   UNL     1     142.398 107.101  34.568  1.00  0.00     0.014 C 
ENDBRANCH  22  25
ENDBRANCH  19  21
ENDBRANCH   8  15
ENDBRANCH   2   5
BRANCH   3  28
ATOM     28  C   UNL     1     136.254 118.051  40.456  1.00  0.00     0.118 C 
BRANCH  28  29
ATOM     29  C   UNL     1     135.184 118.547  39.484  1.00  0.00     0.042 C 
BRANCH  29  30
ATOM     30  C   UNL     1     134.062 117.545  39.227  1.00  0.00     0.115 C 
BRANCH  30  31
ATOM     31  N   UNL     1     133.535 117.029  40.489  1.00  0.00    -0.384 N 
ATOM     32  H   UNL     1     132.879 117.633  40.975  1.00  0.00     0.160 HD
BRANCH  31  33
ATOM     33  C   UNL     1     133.166 115.668  40.493  1.00  0.00     0.049 A 
ATOM     34  C   UNL     1     132.555 115.109  41.631  1.00  0.00    -0.003 A 
ATOM     35  C   UNL     1     133.452 114.842  39.370  1.00  0.00     0.024 A 
ATOM     36  C   UNL     1     132.256 113.744  41.606  1.00  0.00     0.046 A 
ATOM     37  C   UNL     1     132.253 115.943  42.853  1.00  0.00     0.039 C 
ATOM     38  C   UNL     1     134.078 115.303  38.183  1.00  0.00     0.012 A 
ATOM     39  C   UNL     1     133.095 113.483  39.457  1.00  0.00     0.073 A 
ATOM     40  N   UNL     1     132.512 112.950  40.540  1.00  0.00    -0.252 NA
ATOM     41  C   UNL     1     131.550 113.062  42.751  1.00  0.00     0.056 C 
ATOM     42  C   UNL     1     131.238 115.305  43.799  1.00  0.00     0.005 C 
ATOM     43  C   UNL     1     134.330 114.446  37.114  1.00  0.00     0.001 A 
ATOM     44  C   UNL     1     133.358 112.648  38.378  1.00  0.00     0.029 A 
ATOM     45  C   UNL     1     131.599 113.850  44.056  1.00  0.00     0.007 C 
ATOM     46  C   UNL     1     133.968 113.113  37.211  1.00  0.00     0.002 A 
ENDBRANCH  31  33
ENDBRANCH  30  31
ENDBRANCH  29  30
ENDBRANCH  28  29
ENDBRANCH   3  28
TORSDOF 12
ENDMDL
MODEL 6
REMARK minimizedAffinity -9.42881203
REMARK CNNscore 0.297228217
REMARK CNNaffinity 7.82156754
REMARK SMILES O=C(NCCCNc1c2c(nc3ccccc13)CCCC2)c1sc(-c2ccnc(NC(=O)C3CC3)c2)nc1OCC1CC1
REMARK SMILES IDX 1 1 2 2 3 3 22 5 23 6 38 7 24 8 37 9 39 10 40 11 41 12 42 13
REMARK SMILES IDX 43 14 25 15 26 16 36 17 27 18 29 19 28 20 30 21 31 22 32 23
REMARK SMILES IDX 33 25 34 26 35 27 4 28 5 29 6 30 7 31 8 33 9 34 17 35 10 36
REMARK SMILES IDX 21 37 16 38 12 39 11 40 18 41 20 42 15 43 13 44 19 45 14 46
REMARK H PARENT 3 4 30 24 7 32
ROOT
ATOM      1  O   UNL     1     133.065 114.145  39.504  1.00  0.00    -0.268 OA
ATOM      2  C   UNL     1     133.095 112.917  39.504  1.00  0.00     0.267 C 
ATOM      3  N   UNL     1     132.319 112.199  40.398  1.00  0.00    -0.351 N 
ATOM      4  H   UNL     1     132.355 111.187  40.368  1.00  0.00     0.163 HD
ENDROOT
BRANCH   2   5
ATOM      5  C   UNL     1     133.905 112.116  38.604  1.00  0.00     0.156 A 
ATOM      6  S   UNL     1     134.868 110.810  39.167  1.00  0.00    -0.105 S 
ATOM      7  C   UNL     1     134.066 112.239  37.235  1.00  0.00     0.238 A 
ATOM      8  C   UNL     1     135.424 110.510  37.569  1.00  0.00     0.128 A 
ATOM      9  N   UNL     1     134.939 111.331  36.660  1.00  0.00    -0.201 NA
BRANCH   7  10
ATOM     10  O   UNL     1     133.381 113.187  36.551  1.00  0.00    -0.476 OA
BRANCH  10  11
ATOM     11  C   UNL     1     134.183 114.270  36.088  1.00  0.00     0.235 C 
BRANCH  11  12
ATOM     12  C   UNL     1     133.530 115.572  36.445  1.00  0.00     0.027 C 
ATOM     13  C   UNL     1     133.903 116.839  35.717  1.00  0.00     0.007 C 
ATOM     14  C   UNL     1     134.298 116.658  37.157  1.00  0.00     0.007 C 
ENDBRANCH  11  12
ENDBRANCH  10  11
ENDBRANCH   7  10
BRANCH   8  15
ATOM     15  C   UNL     1     136.396 109.442  37.273  1.00  0.00     0.016 A 
ATOM     16  C   UNL     1     135.962 108.114  37.278  1.00  0.00     0.031 A 
ATOM     17  C   UNL     1     137.746 109.695  36.998  1.00  0.00     0.058 A 
ATOM     18  C   UNL     1     136.876 107.118  36.994  1.00  0.00     0.114 A 
ATOM     19  C   UNL     1     138.594 108.633  36.722  1.00  0.00     0.133 A 
ATOM     20  N   UNL     1     138.175 107.350  36.712  1.00  0.00    -0.239 NA
BRANCH  19  21
ATOM     21  N   UNL     1     139.951 108.772  36.436  1.00  0.00    -0.310 N 
ATOM     22  C   UNL     1     140.543 109.002  35.225  1.00  0.00     0.228 C 
ATOM     23  O   UNL     1     139.997 109.091  34.136  1.00  0.00    -0.274 OA
ATOM     24  H   UNL     1     140.532 108.679  37.257  1.00  0.00     0.171 HD
BRANCH  22  25
ATOM     25  C   UNL     1     142.028 109.116  35.294  1.00  0.00     0.079 C 
ATOM     26  C   UNL     1     142.911 108.964  34.079  1.00  0.00     0.014 C 
ATOM     27  C   UNL     1     142.863 107.871  35.103  1.00  0.00     0.014 C 
ENDBRANCH  22  25
ENDBRANCH  19  21
ENDBRANCH   8  15
ENDBRANCH   2   5
BRANCH   3  28
ATOM     28  C   UNL     1     131.479 112.821  41.398  1.00  0.00     0.118 C 
BRANCH  28  29
ATOM     29  C   UNL     1     131.857 114.269  41.701  1.00  0.00     0.042 C 
BRANCH  29  30
ATOM     30  C   UNL     1     131.726 114.653  43.173  1.00  0.00     0.115 C 
BRANCH  30  31
ATOM     31  N   UNL     1     132.969 115.244  43.663  1.00  0.00    -0.384 N 
ATOM     32  H   UNL     1     133.256 114.963  44.596  1.00  0.00     0.160 HD
BRANCH  31  33
ATOM     33  C   UNL     1     134.029 115.309  42.736  1.00  0.00     0.049 A 
ATOM     34  C   UNL     1     134.211 116.467  41.957  1.00  0.00    -0.003 A 
ATOM     35  C   UNL     1     134.888 114.191  42.547  1.00  0.00     0.024 A 
ATOM     36  C   UNL     1     135.244 116.463  41.015  1.00  0.00     0.046 A 
ATOM     37  C   UNL     1     133.309 117.669  42.108  1.00  0.00     0.039 C 
ATOM     38  C   UNL     1     134.780 112.974  43.269  1.00  0.00     0.012 A 
ATOM     39  C   UNL     1     135.900 114.308  41.575  1.00  0.00     0.073 A 
ATOM     40  N   UNL     1     136.075 115.410  40.833  1.00  0.00    -0.252 NA
ATOM     41  C   UNL     1     135.558 117.673  40.172  1.00  0.00     0.056 C 
ATOM     42  C   UNL     1     133.887 118.952  41.514  1.00  0.00     0.005 C 
ATOM     43  C   UNL     1     135.654 111.913  43.042  1.00  0.00     0.001 A 
ATOM     44  C   UNL     1     136.759 113.236  41.366  1.00  0.00     0.029 A 
ATOM     45  C   UNL     1     134.422 118.690  40.114  1.00  0.00     0.007 C 
ATOM     46  C   UNL     1     136.648 112.044  42.086  1.00  0.00     0.002 A 
ENDBRANCH  31  33
ENDBRANCH  30  31
ENDBRANCH  29  30
ENDBRANCH  28  29
ENDBRANCH   3  28
TORSDOF 12
ENDMDL
MODEL 7
REMARK minimizedAffinity -10.0781078
REMARK CNNscore 0.296530426
REMARK CNNaffinity 7.37883234
REMARK SMILES O=C(NCCCNc1c2c(nc3ccccc13)CCCC2)c1sc(-c2ccnc(NC(=O)C3CC3)c2)nc1OCC1CC1
REMARK SMILES IDX 1 1 2 2 3 3 22 5 23 6 38 7 24 8 37 9 39 10 40 11 41 12 42 13
REMARK SMILES IDX 43 14 25 15 26 16 36 17 27 18 29 19 28 20 30 21 31 22 32 23
REMARK SMILES IDX 33 25 34 26 35 27 4 28 5 29 6 30 7 31 8 33 9 34 17 35 10 36
REMARK SMILES IDX 21 37 16 38 12 39 11 40 18 41 20 42 15 43 13 44 19 45 14 46
REMARK H PARENT 3 4 30 24 7 32
ROOT
ATOM      1  O   UNL     1     136.733 118.245  40.867  1.00  0.00    -0.268 OA
ATOM      2  C   UNL     1     136.521 117.147  40.357  1.00  0.00     0.267 C 
ATOM      3  N   UNL     1     135.251 116.811  39.923  1.00  0.00    -0.351 N 
ATOM      4  H   UNL     1     135.108 115.903  39.497  1.00  0.00     0.163 HD
ENDROOT
BRANCH   2   5
ATOM      5  C   UNL     1     137.535 116.128  40.156  1.00  0.00     0.156 A 
ATOM      6  S   UNL     1     137.150 114.573  39.534  1.00  0.00    -0.105 S 
ATOM      7  C   UNL     1     138.893 116.187  40.414  1.00  0.00     0.238 A 
ATOM      8  C   UNL     1     138.797 114.099  39.656  1.00  0.00     0.128 A 
ATOM      9  N   UNL     1     139.598 115.027  40.139  1.00  0.00    -0.201 NA
BRANCH   7  10
ATOM     10  O   UNL     1     139.448 117.329  40.887  1.00  0.00    -0.476 OA
BRANCH  10  11
ATOM     11  C   UNL     1     140.813 117.202  41.275  1.00  0.00     0.235 C 
BRANCH  11  12
ATOM     12  C   UNL     1     140.955 116.091  42.271  1.00  0.00     0.027 C 
ATOM     13  C   UNL     1     141.749 116.296  43.537  1.00  0.00     0.007 C 
ATOM     14  C   UNL     1     142.273 115.382  42.464  1.00  0.00     0.007 C 
ENDBRANCH  11  12
ENDBRANCH  10  11
ENDBRANCH   7  10
BRANCH   8  15
ATOM     15  C   UNL     1     139.244 112.744  39.284  1.00  0.00     0.016 A 
ATOM     16  C   UNL     1     140.335 112.185  39.954  1.00  0.00     0.031 A 
ATOM     17  C   UNL     1     138.631 111.990  38.275  1.00  0.00     0.058 A 
ATOM     18  C   UNL     1     140.746 110.913  39.605  1.00  0.00     0.114 A 
ATOM     19  C   UNL     1     139.109 110.719  37.991  1.00  0.00     0.133 A 
ATOM     20  N   UNL     1     140.154 110.171  38.646  1.00  0.00    -0.239 NA
BRANCH  19  21
ATOM     21  N   UNL     1     138.575 109.886  37.009  1.00  0.00    -0.310 N 
ATOM     22  C   UNL     1     139.177 109.423  35.872  1.00  0.00     0.228 C 
ATOM     23  O   UNL     1     140.299 109.685  35.466  1.00  0.00    -0.274 OA
ATOM     24  H   UNL     1     137.620 109.620  37.203  1.00  0.00     0.171 HD
BRANCH  22  25
ATOM     25  C   UNL     1     138.309 108.528  35.054  1.00  0.00     0.079 C 
ATOM     26  C   UNL     1     136.875 108.231  35.422  1.00  0.00     0.014 C 
ATOM     27  C   UNL     1     137.924 107.179  35.615  1.00  0.00     0.014 C 
ENDBRANCH  22  25
ENDBRANCH  19  21
ENDBRANCH   8  15
ENDBRANCH   2   5
BRANCH   3  28
ATOM     28  C   UNL     1     134.104 117.679  40.075  1.00  0.00     0.118 C 
BRANCH  28  29
ATOM     29  C   UNL     1     133.023 117.112  40.994  1.00  0.00     0.042 C 
BRANCH  29  30
ATOM     30  C   UNL     1     133.308 115.699  41.494  1.00  0.00     0.115 C 
BRANCH  30  31
ATOM     31  N   UNL     1     132.761 114.707  40.572  1.00  0.00    -0.384 N 
ATOM     32  H   UNL     1     132.321 115.076  39.734  1.00  0.00     0.160 HD
BRANCH  31  33
ATOM     33  C   UNL     1     133.562 113.570  40.340  1.00  0.00     0.049 A 
ATOM     34  C   UNL     1     134.182 112.915  41.422  1.00  0.00    -0.003 A 
ATOM     35  C   UNL     1     133.791 113.109  39.014  1.00  0.00     0.024 A 
ATOM     36  C   UNL     1     135.008 111.825  41.136  1.00  0.00     0.046 A 
ATOM     37  C   UNL     1     133.985 113.384  42.844  1.00  0.00     0.039 C 
ATOM     38  C   UNL     1     133.228 113.707  37.857  1.00  0.00     0.012 A 
ATOM     39  C   UNL     1     134.636 111.995  38.851  1.00  0.00     0.073 A 
ATOM     40  N   UNL     1     135.225 111.370  39.880  1.00  0.00    -0.252 NA
ATOM     41  C   UNL     1     135.671 111.021  42.227  1.00  0.00     0.056 C 
ATOM     42  C   UNL     1     134.366 112.342  43.894  1.00  0.00     0.005 C 
ATOM     43  C   UNL     1     133.486 113.209  36.582  1.00  0.00     0.001 A 
ATOM     44  C   UNL     1     134.878 111.517  37.569  1.00  0.00     0.029 A 
ATOM     45  C   UNL     1     135.726 111.741  43.570  1.00  0.00     0.007 C 
ATOM     46  C   UNL     1     134.315 112.108  36.437  1.00  0.00     0.002 A 
ENDBRANCH  31  33
ENDBRANCH  30  31
ENDBRANCH  29  30
ENDBRANCH  28  29
ENDBRANCH   3  28
TORSDOF 12
ENDMDL
MODEL 8
REMARK minimizedAffinity -10.2758894
REMARK CNNscore 0.238798842
REMARK CNNaffinity 7.46159792
REMARK SMILES O=C(NCCCNc1c2c(nc3ccccc13)CCCC2)c1sc(-c2ccnc(NC(=O)C3CC3)c2)nc1OCC1CC1
REMARK SMILES IDX 1 1 2 2 3 3 22 5 23 6 38 7 24 8 37 9 39 10 40 11 41 12 42 13
REMARK SMILES IDX 43 14 25 15 26 16 36 17 27 18 29 19 28 20 30 21 31 22 32 23
REMARK SMILES IDX 33 25 34 26 35 27 4 28 5 29 6 30 7 31 8 33 9 34 17 35 10 36
REMARK SMILES IDX 21 37 16 38 12 39 11 40 18 41 20 42 15 43 13 44 19 45 14 46
REMARK H PARENT 3 4 30 24 7 32
ROOT
ATOM      1  O   UNL     1     136.785 118.104  40.930  1.00  0.00    -0.268 OA
ATOM      2  C   UNL     1     136.551 117.066  40.314  1.00  0.00     0.267 C 
ATOM      3  N   UNL     1     135.288 116.827  39.800  1.00  0.00    -0.351 N 
ATOM      4  H   UNL     1     135.127 115.968  39.288  1.00  0.00     0.163 HD
ENDROOT
BRANCH   2   5
ATOM      5  C   UNL     1     137.529 116.024  40.063  1.00  0.00     0.156 A 
ATOM      6  S   UNL     1     137.131 114.592  39.202  1.00  0.00    -0.105 S 
ATOM      7  C   UNL     1     138.858 115.966  40.445  1.00  0.00     0.238 A 
ATOM      8  C   UNL     1     138.735 114.007  39.400  1.00  0.00     0.128 A 
ATOM      9  N   UNL     1     139.529 114.813  40.075  1.00  0.00    -0.201 NA
BRANCH   7  10
ATOM     10  O   UNL     1     139.419 117.000  41.118  1.00  0.00    -0.476 OA
BRANCH  10  11
ATOM     11  C   UNL     1     139.776 116.699  42.464  1.00  0.00     0.235 C 
BRANCH  11  12
ATOM     12  C   UNL     1     141.264 116.791  42.626  1.00  0.00     0.027 C 
ATOM     13  C   UNL     1     142.181 116.429  41.484  1.00  0.00     0.007 C 
ATOM     14  C   UNL     1     142.117 115.549  42.701  1.00  0.00     0.007 C 
ENDBRANCH  11  12
ENDBRANCH  10  11
ENDBRANCH   7  10
BRANCH   8  15
ATOM     15  C   UNL     1     139.150 112.690  38.885  1.00  0.00     0.016 A 
ATOM     16  C   UNL     1     140.472 112.278  39.072  1.00  0.00     0.031 A 
ATOM     17  C   UNL     1     138.280 111.831  38.201  1.00  0.00     0.058 A 
ATOM     18  C   UNL     1     140.854 111.040  38.592  1.00  0.00     0.114 A 
ATOM     19  C   UNL     1     138.749 110.604  37.755  1.00  0.00     0.133 A 
ATOM     20  N   UNL     1     140.022 110.197  37.946  1.00  0.00    -0.239 NA
BRANCH  19  21
ATOM     21  N   UNL     1     137.971 109.675  37.065  1.00  0.00    -0.310 N 
ATOM     22  C   UNL     1     138.071 109.292  35.756  1.00  0.00     0.228 C 
ATOM     23  O   UNL     1     138.842 109.724  34.912  1.00  0.00    -0.274 OA
ATOM     24  H   UNL     1     137.254 109.263  37.645  1.00  0.00     0.171 HD
BRANCH  22  25
ATOM     25  C   UNL     1     137.079 108.252  35.357  1.00  0.00     0.079 C 
ATOM     26  C   UNL     1     136.357 107.391  36.365  1.00  0.00     0.014 C 
ATOM     27  C   UNL     1     137.447 106.796  35.525  1.00  0.00     0.014 C 
ENDBRANCH  22  25
ENDBRANCH  19  21
ENDBRANCH   8  15
ENDBRANCH   2   5
BRANCH   3  28
ATOM     28  C   UNL     1     134.173 117.730  39.983  1.00  0.00     0.118 C 
BRANCH  28  29
ATOM     29  C   UNL     1     133.144 117.235  40.998  1.00  0.00     0.042 C 
BRANCH  29  30
ATOM     30  C   UNL     1     133.501 115.901  41.649  1.00  0.00     0.115 C 
BRANCH  30  31
ATOM     31  N   UNL     1     132.849 114.797  40.948  1.00  0.00    -0.384 N 
ATOM     32  H   UNL     1     132.222 115.060  40.193  1.00  0.00     0.160 HD
BRANCH  31  33
ATOM     33  C   UNL     1     133.666 113.687  40.650  1.00  0.00     0.049 A 
ATOM     34  C   UNL     1     133.821 113.267  39.315  1.00  0.00    -0.003 A 
ATOM     35  C   UNL     1     134.297 112.957  41.695  1.00  0.00     0.024 A 
ATOM     36  C   UNL     1     134.598 112.131  39.075  1.00  0.00     0.046 A 
ATOM     37  C   UNL     1     133.151 113.999  38.176  1.00  0.00     0.039 C 
ATOM     38  C   UNL     1     134.192 113.288  43.071  1.00  0.00     0.012 A 
ATOM     39  C   UNL     1     135.064 111.834  41.331  1.00  0.00     0.073 A 
ATOM     40  N   UNL     1     135.213 111.434  40.060  1.00  0.00    -0.252 NA
ATOM     41  C   UNL     1     134.872 111.634  37.678  1.00  0.00     0.056 C 
ATOM     42  C   UNL     1     133.747 113.683  36.806  1.00  0.00     0.005 C 
ATOM     43  C   UNL     1     134.836 112.535  44.051  1.00  0.00     0.001 A 
ATOM     44  C   UNL     1     135.696 111.100  42.326  1.00  0.00     0.029 A 
ATOM     45  C   UNL     1     133.904 112.180  36.633  1.00  0.00     0.007 C 
ATOM     46  C   UNL     1     135.592 111.436  43.677  1.00  0.00     0.002 A 
ENDBRANCH  31  33
ENDBRANCH  30  31
ENDBRANCH  29  30
ENDBRANCH  28  29
ENDBRANCH   3  28
TORSDOF 12
ENDMDL
MODEL 9
REMARK minimizedAffinity -9.48968029
REMARK CNNscore 0.225098372
REMARK CNNaffinity 7.41179132
REMARK SMILES O=C(NCCCNc1c2c(nc3ccccc13)CCCC2)c1sc(-c2ccnc(NC(=O)C3CC3)c2)nc1OCC1CC1
REMARK SMILES IDX 1 1 2 2 3 3 22 5 23 6 38 7 24 8 37 9 39 10 40 11 41 12 42 13
REMARK SMILES IDX 43 14 25 15 26 16 36 17 27 18 29 19 28 20 30 21 31 22 32 23
REMARK SMILES IDX 33 25 34 26 35 27 4 28 5 29 6 30 7 31 8 33 9 34 17 35 10 36
REMARK SMILES IDX 21 37 16 38 12 39 11 40 18 41 20 42 15 43 13 44 19 45 14 46
REMARK H PARENT 3 4 30 24 7 32
ROOT
ATOM      1  O   UNL     1     141.255 111.716  38.317  1.00  0.00    -0.268 OA
ATOM      2  C   UNL     1     140.446 111.621  39.239  1.00  0.00     0.267 C 
ATOM      3  N   UNL     1     140.440 110.502  40.052  1.00  0.00    -0.351 N 
ATOM      4  H   UNL     1     139.770 110.456  40.810  1.00  0.00     0.163 HD
ENDROOT
BRANCH   2   5
ATOM      5  C   UNL     1     139.456 112.631  39.566  1.00  0.00     0.156 A 
ATOM      6  S   UNL     1     137.808 112.469  39.110  1.00  0.00    -0.105 S 
ATOM      7  C   UNL     1     139.623 113.830  40.237  1.00  0.00     0.238 A 
ATOM      8  C   UNL     1     137.444 113.987  39.828  1.00  0.00     0.128 A 
ATOM      9  N   UNL     1     138.478 114.597  40.369  1.00  0.00    -0.201 NA
BRANCH   7  10
ATOM     10  O   UNL     1     140.839 114.173  40.726  1.00  0.00    -0.476 OA
BRANCH  10  11
ATOM     11  C   UNL     1     140.806 114.752  42.028  1.00  0.00     0.235 C 
BRANCH  11  12
ATOM     12  C   UNL     1     141.708 115.950  42.072  1.00  0.00     0.027 C 
ATOM     13  C   UNL     1     141.298 117.186  42.834  1.00  0.00     0.007 C 
ATOM     14  C   UNL     1     141.355 117.216  41.331  1.00  0.00     0.007 C 
ENDBRANCH  11  12
ENDBRANCH  10  11
ENDBRANCH   7  10
BRANCH   8  15
ATOM     15  C   UNL     1     136.085 114.558  39.789  1.00  0.00     0.016 A 
ATOM     16  C   UNL     1     135.754 115.446  38.763  1.00  0.00     0.031 A 
ATOM     17  C   UNL     1     135.106 114.260  40.746  1.00  0.00     0.058 A 
ATOM     18  C   UNL     1     134.477 115.973  38.728  1.00  0.00     0.114 A 
ATOM     19  C   UNL     1     133.848 114.834  40.633  1.00  0.00     0.133 A 
ATOM     20  N   UNL     1     133.522 115.681  39.635  1.00  0.00    -0.239 NA
BRANCH  19  21
ATOM     21  N   UNL     1     132.803 114.607  41.528  1.00  0.00    -0.310 N 
ATOM     22  C   UNL     1     132.030 113.487  41.662  1.00  0.00     0.228 C 
ATOM     23  O   UNL     1     132.076 112.468  40.988  1.00  0.00    -0.274 OA
ATOM     24  H   UNL     1     132.629 115.399  42.129  1.00  0.00     0.171 HD
BRANCH  22  25
ATOM     25  C   UNL     1     131.011 113.586  42.745  1.00  0.00     0.079 C 
ATOM     26  C   UNL     1     130.988 114.725  43.735  1.00  0.00     0.014 C 
ATOM     27  C   UNL     1     131.447 113.368  44.175  1.00  0.00     0.014 C 
ENDBRANCH  22  25
ENDBRANCH  19  21
ENDBRANCH   8  15
ENDBRANCH   2   5
BRANCH   3  28
ATOM     28  C   UNL     1     141.324 109.374  39.856  1.00  0.00     0.118 C 
BRANCH  28  29
ATOM     29  C   UNL     1     140.872 108.426  38.746  1.00  0.00     0.042 C 
BRANCH  29  30
ATOM     30  C   UNL     1     140.374 107.072  39.247  1.00  0.00     0.115 C 
BRANCH  30  31
ATOM     31  N   UNL     1     139.249 107.246  40.164  1.00  0.00    -0.384 N 
ATOM     32  H   UNL     1     139.479 107.609  41.084  1.00  0.00     0.160 HD
BRANCH  31  33
ATOM     33  C   UNL     1     138.080 107.804  39.607  1.00  0.00     0.049 A 
ATOM     34  C   UNL     1     137.711 107.488  38.286  1.00  0.00    -0.003 A 
ATOM     35  C   UNL     1     137.295 108.724  40.356  1.00  0.00     0.024 A 
ATOM     36  C   UNL     1     136.572 108.106  37.761  1.00  0.00     0.046 A 
ATOM     37  C   UNL     1     138.526 106.533  37.447  1.00  0.00     0.039 C 
ATOM     38  C   UNL     1     137.589 109.120  41.686  1.00  0.00     0.012 A 
ATOM     39  C   UNL     1     136.164 109.276  39.725  1.00  0.00     0.073 A 
ATOM     40  N   UNL     1     135.811 108.975  38.467  1.00  0.00    -0.252 NA
ATOM     41  C   UNL     1     136.061 107.793  36.378  1.00  0.00     0.056 C 
ATOM     42  C   UNL     1     137.779 105.988  36.231  1.00  0.00     0.005 C 
ATOM     43  C   UNL     1     136.780 110.025  42.371  1.00  0.00     0.001 A 
ATOM     44  C   UNL     1     135.374 110.177  40.428  1.00  0.00     0.029 A 
ATOM     45  C   UNL     1     137.096 107.122  35.480  1.00  0.00     0.007 C 
ATOM     46  C   UNL     1     135.667 110.556  41.740  1.00  0.00     0.002 A 
ENDBRANCH  31  33
ENDBRANCH  30  31
ENDBRANCH  29  30
ENDBRANCH  28  29
ENDBRANCH   3  28
TORSDOF 12
ENDMDL
