REMARK SMILES CCC(CC)n1cnc2c(-c3cnc(N)cn3)nc(N3C[C@H]4CC[C@@H](C3)O4)nc21
REMARK SMILES IDX 6 1 7 2 8 3 9 4 10 5 18 6 19 7 28 8 29 9 3 10 2 11 1 12 4 13
REMARK SMILES IDX 5 14 11 15 17 16 12 17 16 18 13 19 14 20 15 21 20 24 21 25
REMARK SMILES IDX 26 26 22 27 25 28 23 29 27 30 24 31
REMARK H PARENT 15 22 15 23
ROOT
ATOM      1  N   UNL     1       1.463   0.236  -0.131  1.00  0.00    -0.312 N 
ATOM      2  C   UNL     1       2.246   1.364  -0.275  1.00  0.00     0.202 A 
ATOM      3  N   UNL     1       3.536   1.140  -0.262  1.00  0.00    -0.233 NA
ATOM      4  C   UNL     1       3.640  -0.216  -0.094  1.00  0.00     0.136 A 
ATOM      5  C   UNL     1       4.747  -1.086  -0.005  1.00  0.00     0.124 A 
ATOM      6  N   UNL     1       4.529  -2.423   0.162  1.00  0.00    -0.209 NA
ATOM      7  C   UNL     1       3.248  -2.883   0.255  1.00  0.00     0.228 A 
ATOM      8  N   UNL     1       2.123  -2.117   0.143  1.00  0.00    -0.193 NA
ATOM      9  C   UNL     1       2.359  -0.811  -0.013  1.00  0.00     0.166 A 
ENDROOT
BRANCH   1  10
ATOM     10  C   UNL     1      -0.007   0.199  -0.125  1.00  0.00     0.090 C 
BRANCH  10  11
ATOM     11  C   UNL     1      -0.550  -0.372   1.210  1.00  0.00     0.022 C 
ATOM     12  C   UNL     1      -0.074   0.374   2.468  1.00  0.00     0.006 C 
ENDBRANCH  10  11
BRANCH  10  13
ATOM     13  C   UNL     1      -0.545  -0.575  -1.355  1.00  0.00     0.022 C 
ATOM     14  C   UNL     1      -0.096  -0.011  -2.714  1.00  0.00     0.006 C 
ENDBRANCH  10  13
ENDBRANCH   1  10
BRANCH   5  15
ATOM     15  C   UNL     1       6.169  -0.633  -0.080  1.00  0.00     0.110 A 
ATOM     16  N   UNL     1       7.061  -1.471  -0.688  1.00  0.00    -0.249 NA
ATOM     17  C   UNL     1       6.602   0.596   0.439  1.00  0.00     0.144 A 
ATOM     18  C   UNL     1       8.357  -1.074  -0.770  1.00  0.00     0.158 A 
ATOM     19  N   UNL     1       7.900   0.994   0.358  1.00  0.00    -0.236 NA
ATOM     20  C   UNL     1       8.775   0.153  -0.250  1.00  0.00     0.141 A 
BRANCH  20  21
ATOM     21  N   UNL     1      10.108   0.547  -0.343  1.00  0.00    -0.382 N 
ATOM     22  H   UNL     1      10.777  -0.059  -0.795  1.00  0.00     0.158 HD
ATOM     23  H   UNL     1      10.388   1.438   0.041  1.00  0.00     0.158 HD
ENDBRANCH  20  21
ENDBRANCH   5  15
BRANCH   7  24
ATOM     24  N   UNL     1       3.071  -4.265   0.390  1.00  0.00    -0.336 N 
ATOM     25  C   UNL     1       4.138  -5.168   0.875  1.00  0.00     0.151 C 
ATOM     26  C   UNL     1       1.776  -4.885   0.751  1.00  0.00     0.151 C 
ATOM     27  C   UNL     1       3.955  -5.532   2.380  1.00  0.00     0.138 C 
ATOM     28  C   UNL     1       1.710  -5.264   2.261  1.00  0.00     0.138 C 
ATOM     29  C   UNL     1       3.675  -4.352   3.328  1.00  0.00     0.037 C 
ATOM     30  O   UNL     1       2.722  -6.235   2.513  1.00  0.00    -0.371 OA
ATOM     31  C   UNL     1       2.157  -4.173   3.250  1.00  0.00     0.037 C 
ENDBRANCH   7  24
TORSDOF 6
