REMARK SMILES Cc1nc(N)nc(-c2cccnc2Nc2ccc(NC(=O)Nc3ccccc3)nc2)n1
REMARK SMILES IDX 8 1 9 2 10 3 11 4 12 5 13 6 7 7 2 8 31 9 3 10 4 11 6 12 1 13
REMARK SMILES IDX 5 14 14 17 15 19 30 20 16 21 29 22 17 23 18 24 19 25 20 26
REMARK SMILES IDX 21 27 22 28 23 31 28 32 24 33 27 34 25 35 26 36
REMARK H PARENT 5 15 5 16 14 18 19 29 22 30
ROOT
ATOM      1  C   UNL     1      -0.843   1.503  -0.131  1.00  0.00     0.062 A 
ATOM      2  C   UNL     1      -2.220   1.495   0.152  1.00  0.00     0.017 A 
ATOM      3  C   UNL     1      -3.013   0.400  -0.181  1.00  0.00     0.021 A 
ATOM      4  C   UNL     1      -2.406  -0.685  -0.803  1.00  0.00     0.113 A 
ATOM      5  N   UNL     1      -1.086  -0.710  -1.100  1.00  0.00    -0.238 NA
ATOM      6  C   UNL     1      -0.309   0.361  -0.780  1.00  0.00     0.141 A 
ENDROOT
BRANCH   1   7
ATOM      7  C   UNL     1      -0.032   2.701   0.255  1.00  0.00     0.168 A 
ATOM      8  C   UNL     1       0.191   4.977   0.398  1.00  0.00     0.131 A 
ATOM      9  N   UNL     1      -0.577   3.927   0.007  1.00  0.00    -0.213 NA
ATOM     10  N   UNL     1       1.407   4.895   1.000  1.00  0.00    -0.198 NA
ATOM     11  C   UNL     1       1.845   3.626   1.204  1.00  0.00     0.223 A 
ATOM     12  N   UNL     1       1.176   2.496   0.856  1.00  0.00    -0.193 NA
ATOM     13  C   UNL     1      -0.368   6.363   0.143  1.00  0.00     0.090 C 
BRANCH  11  14
ATOM     14  N   UNL     1       3.080   3.470   1.824  1.00  0.00    -0.368 N 
ATOM     15  H   UNL     1       3.432   2.540   1.999  1.00  0.00     0.159 HD
ATOM     16  H   UNL     1       3.599   4.290   2.101  1.00  0.00     0.159 HD
ENDBRANCH  11  14
ENDBRANCH   1   7
BRANCH   6  17
ATOM     17  N   UNL     1       1.056   0.323  -1.128  1.00  0.00    -0.338 N 
ATOM     18  H   UNL     1       1.560   1.128  -0.784  1.00  0.00     0.168 HD
BRANCH  17  19
ATOM     19  C   UNL     1       1.881  -0.579  -1.827  1.00  0.00     0.058 A 
ATOM     20  C   UNL     1       3.252  -0.307  -1.864  1.00  0.00     0.139 A 
ATOM     21  C   UNL     1       1.434  -1.725  -2.502  1.00  0.00     0.031 A 
ATOM     22  N   UNL     1       4.154  -1.091  -2.506  1.00  0.00    -0.237 NA
ATOM     23  C   UNL     1       2.348  -2.543  -3.168  1.00  0.00     0.049 A 
ATOM     24  C   UNL     1       3.704  -2.204  -3.154  1.00  0.00     0.134 A 
BRANCH  24  25
ATOM     25  N   UNL     1       4.570  -3.074  -3.843  1.00  0.00    -0.292 N 
ATOM     26  C   UNL     1       5.903  -2.969  -4.031  1.00  0.00     0.324 C 
ATOM     27  O   UNL     1       6.602  -2.044  -3.616  1.00  0.00    -0.248 OA
ATOM     28  N   UNL     1       6.348  -4.021  -4.749  1.00  0.00    -0.308 N 
ATOM     29  H   UNL     1       4.119  -3.881  -4.248  1.00  0.00     0.173 HD
ATOM     30  H   UNL     1       5.644  -4.659  -5.090  1.00  0.00     0.171 HD
BRANCH  28  31
ATOM     31  C   UNL     1       7.660  -4.343  -5.146  1.00  0.00     0.042 A 
ATOM     32  C   UNL     1       8.820  -3.759  -4.611  1.00  0.00     0.026 A 
ATOM     33  C   UNL     1       7.775  -5.338  -6.122  1.00  0.00     0.026 A 
ATOM     34  C   UNL     1      10.074  -4.158  -5.068  1.00  0.00     0.002 A 
ATOM     35  C   UNL     1       9.030  -5.734  -6.576  1.00  0.00     0.002 A 
ATOM     36  C   UNL     1      10.174  -5.141  -6.049  1.00  0.00     0.000 A 
ENDBRANCH  28  31
ENDBRANCH  24  25
ENDBRANCH  17  19
ENDBRANCH   6  17
TORSDOF 6
