REMARK VINA RESULT:    -9.644      3.583      9.270
REMARK INTER + INTRA:         -16.793
REMARK INTER:                 -15.889
REMARK INTRA:                  -0.904
REMARK UNBOUND:                -1.229
REMARK SMILES COc1cc(-c2nc3c(s2)CCC3)ccc1OCCCOc1ccc2c(c1)CC[C@H]2CC(=O)O
REMARK SMILES IDX 20 1 19 2 18 3 17 4 16 5 3 6 4 7 5 8 15 9 14 10 2 11 1 12
REMARK SMILES IDX 6 13 7 14 10 15 8 16 9 17 13 18 11 19 12 20 21 21 22 22
REMARK SMILES IDX 23 23 27 24 24 25 26 26 25 27 28 28 30 29 29 30 31 31 32 32
REMARK SMILES IDX 33 33 34 34
REMARK H PARENT 34 35
ROOT
ATOM      1  C   UNL     1      46.762 -41.777 108.692  1.00  0.00     0.233 C 
ENDROOT
BRANCH   1   2
ATOM      2  C   UNL     1      46.177 -42.999 107.994  1.00  0.00     0.083 C 
BRANCH   2   3
ATOM      3  C   UNL     1      44.653 -42.944 107.931  1.00  0.00     0.233 C 
BRANCH   3   4
ATOM      4  O   UNL     1      44.231 -41.744 107.284  1.00  0.00    -0.490 OA
BRANCH   4   5
ATOM      5  C   UNL     1      44.184 -41.703 105.913  1.00  0.00     0.161 A 
ATOM      6  C   UNL     1      43.473 -40.627 105.351  1.00  0.00     0.161 A 
ATOM      7  C   UNL     1      43.382 -40.510 103.957  1.00  0.00     0.061 A 
ATOM      8  C   UNL     1      43.992 -41.441 103.097  1.00  0.00     0.014 A 
ATOM      9  C   UNL     1      44.803 -42.626 105.069  1.00  0.00     0.051 A 
ATOM     10  C   UNL     1      44.707 -42.496 103.677  1.00  0.00     0.015 A 
BRANCH   6  11
ATOM     11  O   UNL     1      42.901 -39.752 106.243  1.00  0.00    -0.493 OA
ATOM     12  C   UNL     1      42.653 -38.426 105.796  1.00  0.00     0.278 C 
ENDBRANCH   6  11
BRANCH   8  13
ATOM     13  C   UNL     1      43.851 -41.251 101.636  1.00  0.00     0.124 A 
ATOM     14  N   UNL     1      44.439 -42.028 100.728  1.00  0.00    -0.241 NA
ATOM     15  S   UNL     1      42.885 -39.948 100.962  1.00  0.00    -0.119 S 
ATOM     16  C   UNL     1      44.107 -41.575  99.491  1.00  0.00     0.055 A 
ATOM     17  C   UNL     1      43.293 -40.484  99.437  1.00  0.00     0.028 A 
ATOM     18  C   UNL     1      44.482 -42.060  98.148  1.00  0.00     0.058 C 
ATOM     19  C   UNL     1      42.976 -40.039  98.068  1.00  0.00     0.049 C 
ATOM     20  C   UNL     1      43.489 -41.263  97.237  1.00  0.00     0.012 C 
ENDBRANCH   8  13
ENDBRANCH   4   5
ENDBRANCH   3   4
ENDBRANCH   2   3
ENDBRANCH   1   2
BRANCH   1  21
ATOM     21  O   UNL     1      47.665 -41.133 107.794  1.00  0.00    -0.493 OA
BRANCH  21  22
ATOM     22  C   UNL     1      47.801 -39.776 107.915  1.00  0.00     0.119 A 
ATOM     23  C   UNL     1      48.735 -39.206 107.033  1.00  0.00     0.047 A 
ATOM     24  C   UNL     1      47.101 -38.961 108.807  1.00  0.00     0.050 A 
ATOM     25  C   UNL     1      48.984 -37.831 107.027  1.00  0.00     0.008 A 
ATOM     26  C   UNL     1      47.364 -37.597 108.804  1.00  0.00    -0.041 A 
ATOM     27  C   UNL     1      48.297 -37.032 107.926  1.00  0.00    -0.041 A 
ATOM     28  C   UNL     1      46.707 -36.543 109.640  1.00  0.00     0.036 C 
ATOM     29  C   UNL     1      48.346 -35.534 108.094  1.00  0.00     0.031 C 
ATOM     30  C   UNL     1      47.707 -35.389 109.496  1.00  0.00     0.014 C 
BRANCH  29  31
ATOM     31  C   UNL     1      49.746 -34.933 108.012  1.00  0.00     0.131 C 
BRANCH  31  32
ATOM     32  C   UNL     1      49.725 -33.438 108.177  1.00  0.00     0.303 C 
ATOM     33  O   UNL     1      49.834 -32.803 109.210  1.00  0.00    -0.252 OA
BRANCH  32  34
ATOM     34  O   UNL     1      49.540 -32.805 107.001  1.00  0.00    -0.481 OA
ATOM     35  H   UNL     1      50.110 -32.011 107.063  1.00  0.00     0.296 HD
ENDBRANCH  32  34
ENDBRANCH  31  32
ENDBRANCH  29  31
ENDBRANCH  21  22
ENDBRANCH   1  21
TORSDOF 11
