REMARK SMILES CCCc1c(OCCCNc2ccc(CC(=O)O)cc2)ccc2c(C(F)(F)F)noc12
REMARK SMILES IDX 8 1 7 2 6 3 5 4 4 5 31 6 21 7 30 8 23 9 22 10 29 11 24 12
REMARK SMILES IDX 3 13 2 14 1 15 25 16 26 17 27 18 28 19 9 20 10 21 11 23
REMARK SMILES IDX 12 24 20 25 13 26 19 27 14 28 15 29 16 30 17 31 18 32
REMARK H PARENT 10 22 18 33
REMARK INDEX MAP 8 1 7 2 6 3 5 4 4 5 31 6 21 7 30 8 23 9 22 10 29 11 24 12
REMARK INDEX MAP 3 13 2 14 1 15 25 16 26 17 27 18 28 19 9 20 10 21 45 22 11 23
REMARK INDEX MAP 12 24 20 25 13 26 19 27 14 28 15 29 16 30 17 31 18 32 50 33
ROOT
ATOM      1  C   UNL     1      44.714 -43.597 106.111  1.00  0.00     0.063 C 
ENDROOT
BRANCH   1   2
ATOM      2  C   UNL     1      45.178 -42.583 105.069  1.00  0.00     0.231 C 
BRANCH   2   3
ATOM      3  O   UNL     1      44.037 -41.819 104.672  1.00  0.00    -0.493 OA
BRANCH   3   4
ATOM      4  C   UNL     1      43.848 -41.595 103.331  1.00  0.00     0.126 A 
ATOM      5  C   UNL     1      43.105 -40.430 103.021  1.00  0.00     0.040 A 
ATOM      6  C   UNL     1      42.909 -40.194 101.654  1.00  0.00     0.174 A 
ATOM      7  C   UNL     1      44.343 -42.426 102.316  1.00  0.00     0.048 A 
ATOM      8  O   UNL     1      42.221 -39.150 101.116  1.00  0.00    -0.355 OA
ATOM      9  C   UNL     1      43.381 -40.995 100.632  1.00  0.00     0.055 A 
ATOM     10  C   UNL     1      44.118 -42.141 100.960  1.00  0.00     0.018 A 
ATOM     11  N   UNL     1      42.227 -39.243  99.737  1.00  0.00    -0.074 NA
ATOM     12  C   UNL     1      42.930 -40.352  99.446  1.00  0.00     0.195 A 
BRANCH   5  13
ATOM     13  C   UNL     1      42.550 -39.521 104.087  1.00  0.00     0.043 C 
BRANCH  13  14
ATOM     14  C   UNL     1      41.144 -39.908 104.558  1.00  0.00     0.002 C 
ATOM     15  C   UNL     1      40.915 -39.662 106.043  1.00  0.00     0.004 C 
ENDBRANCH  13  14
ENDBRANCH   5  13
BRANCH  12  16
ATOM     16  C   UNL     1      43.149 -40.797  98.044  1.00  0.00     0.437 C 
ATOM     17  F   UNL     1      42.069 -41.410  97.492  1.00  0.00    -0.164 F 
ATOM     18  F   UNL     1      44.188 -41.671  97.948  1.00  0.00    -0.164 F 
ATOM     19  F   UNL     1      43.454 -39.754  97.223  1.00  0.00    -0.164 F 
ENDBRANCH  12  16
ENDBRANCH   3   4
ENDBRANCH   2   3
ENDBRANCH   1   2
BRANCH   1  20
ATOM     20  C   UNL     1      44.913 -43.090 107.535  1.00  0.00     0.116 C 
BRANCH  20  21
ATOM     21  N   UNL     1      44.249 -41.814 107.720  1.00  0.00    -0.385 N 
ATOM     22  H   UNL     1      43.221 -41.790 107.659  1.00  0.00     0.160 HD
BRANCH  21  23
ATOM     23  C   UNL     1      44.913 -40.627 107.973  1.00  0.00     0.034 A 
ATOM     24  C   UNL     1      44.601 -39.415 107.349  1.00  0.00     0.026 A 
ATOM     25  C   UNL     1      46.004 -40.637 108.851  1.00  0.00     0.026 A 
ATOM     26  C   UNL     1      45.331 -38.250 107.612  1.00  0.00     0.006 A 
ATOM     27  C   UNL     1      46.741 -39.478 109.121  1.00  0.00     0.006 A 
ATOM     28  C   UNL     1      46.405 -38.268 108.508  1.00  0.00    -0.037 A 
BRANCH  28  29
ATOM     29  C   UNL     1      47.200 -37.017 108.784  1.00  0.00     0.158 C 
BRANCH  29  30
ATOM     30  C   UNL     1      47.978 -36.508 107.594  1.00  0.00     0.307 C 
ATOM     31  O   UNL     1      49.049 -36.898 107.163  1.00  0.00    -0.252 OA
BRANCH  30  32
ATOM     32  O   UNL     1      47.338 -35.490 106.979  1.00  0.00    -0.481 OA
ATOM     33  H   UNL     1      47.740 -35.062 106.182  1.00  0.00     0.296 HD
ENDBRANCH  30  32
ENDBRANCH  29  30
ENDBRANCH  28  29
ENDBRANCH  21  23
ENDBRANCH  20  21
ENDBRANCH   1  20
TORSDOF 12
