REMARK VINA RESULT:    -9.186      3.271      9.214
REMARK INTER + INTRA:         -13.631
REMARK INTER:                 -12.475
REMARK INTRA:                  -1.156
REMARK UNBOUND:                -1.223
REMARK SMILES N#CCc1ccc(NC(=O)Cc2nc3cnc4[nH]ccc4c3n2[C@H]2CC[C@H](CC#N)CC2)cc1
REMARK SMILES IDX 11 1 9 2 8 3 10 4 7 6 4 7 5 8 34 9 6 10 33 11 3 12 1 13 2 14
REMARK SMILES IDX 12 15 13 16 23 17 14 18 22 19 15 20 21 21 16 22 20 23 17 24
REMARK SMILES IDX 19 25 18 26 24 28 32 29 25 30 31 31 26 32 27 33 28 34 29 35
REMARK SMILES IDX 30 36
REMARK H PARENT 8 5 18 27
ROOT
ATOM      1  C   UNL     1       3.490 -19.626  22.968  1.00  0.00     0.175 C 
ENDROOT
BRANCH   1   2
ATOM      2  C   UNL     1       2.668 -19.157  21.774  1.00  0.00     0.231 C 
ATOM      3  N   UNL     1       2.599 -17.779  21.667  1.00  0.00    -0.326 N 
ATOM      4  O   UNL     1       2.181 -19.976  20.997  1.00  0.00    -0.274 OA
ATOM      5  H   UNL     1       2.951 -17.265  22.476  1.00  0.00     0.169 HD
BRANCH   3   6
ATOM      6  C   UNL     1       2.034 -17.011  20.634  1.00  0.00     0.041 A 
ATOM      7  C   UNL     1       1.074 -15.457  18.485  1.00  0.00    -0.034 A 
ATOM      8  C   UNL     1       2.437 -15.459  18.809  1.00  0.00     0.007 A 
ATOM      9  C   UNL     1       0.199 -16.242  19.248  1.00  0.00     0.007 A 
ATOM     10  C   UNL     1       2.909 -16.228  19.876  1.00  0.00     0.026 A 
ATOM     11  C   UNL     1       0.677 -17.010  20.313  1.00  0.00     0.026 A 
BRANCH   7  12
ATOM     12  C   UNL     1       0.562 -14.654  17.315  1.00  0.00     0.155 C 
ATOM     13  N   UNL     1      -2.034 -14.266  17.385  1.00  0.00    -0.198 NA
ATOM     14  C   UNL     1      -0.890 -14.451  17.361  1.00  0.00     0.067 C 
ENDBRANCH   7  12
ENDBRANCH   3   6
ENDBRANCH   1   2
BRANCH   1  15
ATOM     15  C   UNL     1       4.947 -19.615  22.631  1.00  0.00     0.119 A 
ATOM     16  N   UNL     1       5.620 -18.479  22.515  1.00  0.00    -0.231 NA
ATOM     17  N   UNL     1       5.766 -20.718  22.391  1.00  0.00    -0.324 N 
ATOM     18  C   UNL     1       6.884 -18.833  22.138  1.00  0.00     0.108 A 
ATOM     19  C   UNL     1       6.965 -20.208  22.015  1.00  0.00     0.081 A 
ATOM     20  C   UNL     1       8.018 -18.050  21.859  1.00  0.00     0.144 A 
ATOM     21  C   UNL     1       8.132 -20.762  21.575  1.00  0.00     0.045 A 
ATOM     22  N   UNL     1       9.205 -18.590  21.455  1.00  0.00    -0.236 NA
ATOM     23  C   UNL     1       8.503 -22.093  21.261  1.00  0.00     0.032 A 
ATOM     24  C   UNL     1       9.198 -19.926  21.319  1.00  0.00     0.139 A 
ATOM     25  C   UNL     1       9.824 -22.024  20.847  1.00  0.00     0.085 A 
ATOM     26  N   UNL     1      10.234 -20.709  20.894  1.00  0.00    -0.346 N 
ATOM     27  H   UNL     1      11.143 -20.348  20.633  1.00  0.00     0.167 HD
BRANCH  17  28
ATOM     28  C   UNL     1       5.403 -22.122  22.545  1.00  0.00     0.089 C 
ATOM     29  C   UNL     1       5.134 -22.866  21.223  1.00  0.00     0.026 C 
ATOM     30  C   UNL     1       6.368 -22.877  23.473  1.00  0.00     0.026 C 
ATOM     31  C   UNL     1       4.690 -24.309  21.480  1.00  0.00     0.007 C 
ATOM     32  C   UNL     1       5.944 -24.334  23.677  1.00  0.00     0.007 C 
ATOM     33  C   UNL     1       5.721 -25.062  22.338  1.00  0.00     0.003 C 
BRANCH  33  34
ATOM     34  C   UNL     1       5.353 -26.548  22.523  1.00  0.00     0.123 C 
ATOM     35  C   UNL     1       6.280 -27.278  23.399  1.00  0.00     0.062 C 
ATOM     36  N   UNL     1       7.024 -27.849  24.082  1.00  0.00    -0.198 NA
ENDBRANCH  33  34
ENDBRANCH  17  28
ENDBRANCH   1  15
TORSDOF 6
