REMARK VINA RESULT:    -9.808      0.000      0.000
REMARK INTER + INTRA:         -14.472
REMARK INTER:                 -13.249
REMARK INTRA:                  -1.223
REMARK UNBOUND:                -1.223
REMARK SMILES N#CCc1ccc(NC(=O)Cc2nc3cnc4[nH]ccc4c3n2[C@H]2CC[C@H](CC#N)CC2)cc1
REMARK SMILES IDX 11 1 9 2 8 3 10 4 7 6 4 7 5 8 34 9 6 10 33 11 3 12 1 13 2 14
REMARK SMILES IDX 12 15 13 16 23 17 14 18 22 19 15 20 21 21 16 22 20 23 17 24
REMARK SMILES IDX 19 25 18 26 24 28 32 29 25 30 31 31 26 32 27 33 28 34 29 35
REMARK SMILES IDX 30 36
REMARK H PARENT 8 5 18 27
ROOT
ATOM      1  C   UNL     1       9.383 -21.991  21.349  1.00  0.00     0.175 C 
ENDROOT
BRANCH   1   2
ATOM      2  C   UNL     1       9.221 -22.733  22.669  1.00  0.00     0.231 C 
ATOM      3  N   UNL     1       9.244 -24.109  22.528  1.00  0.00    -0.326 N 
ATOM      4  O   UNL     1       9.129 -22.108  23.724  1.00  0.00    -0.274 OA
ATOM      5  H   UNL     1       9.194 -24.445  21.565  1.00  0.00     0.169 HD
BRANCH   3   6
ATOM      6  C   UNL     1       9.242 -25.090  23.535  1.00  0.00     0.041 A 
ATOM      7  C   UNL     1       9.107 -27.153  25.454  1.00  0.00    -0.034 A 
ATOM      8  C   UNL     1       8.068 -26.970  24.532  1.00  0.00     0.007 A 
ATOM      9  C   UNL     1      10.212 -26.293  25.403  1.00  0.00     0.007 A 
ATOM     10  C   UNL     1       8.137 -25.946  23.584  1.00  0.00     0.026 A 
ATOM     11  C   UNL     1      10.276 -25.271  24.452  1.00  0.00     0.026 A 
BRANCH   7  12
ATOM     12  C   UNL     1       9.054 -28.275  26.460  1.00  0.00     0.155 C 
ATOM     13  N   UNL     1      11.033 -28.212  28.185  1.00  0.00    -0.198 NA
ATOM     14  C   UNL     1      10.168 -28.235  27.412  1.00  0.00     0.067 C 
ENDBRANCH   7  12
ENDBRANCH   3   6
ENDBRANCH   1   2
BRANCH   1  15
ATOM     15  C   UNL     1       8.233 -21.060  21.133  1.00  0.00     0.119 A 
ATOM     16  N   UNL     1       8.422 -19.759  20.959  1.00  0.00    -0.231 NA
ATOM     17  N   UNL     1       6.877 -21.386  21.095  1.00  0.00    -0.324 N 
ATOM     18  C   UNL     1       7.174 -19.212  20.862  1.00  0.00     0.108 A 
ATOM     19  C   UNL     1       6.220 -20.205  20.993  1.00  0.00     0.081 A 
ATOM     20  C   UNL     1       6.760 -17.881  20.684  1.00  0.00     0.144 A 
ATOM     21  C   UNL     1       4.901 -19.853  20.996  1.00  0.00     0.045 A 
ATOM     22  N   UNL     1       5.445 -17.516  20.647  1.00  0.00    -0.236 NA
ATOM     23  C   UNL     1       3.711 -20.597  21.197  1.00  0.00     0.032 A 
ATOM     24  C   UNL     1       4.577 -18.525  20.819  1.00  0.00     0.139 A 
ATOM     25  C   UNL     1       2.677 -19.680  21.101  1.00  0.00     0.085 A 
ATOM     26  N   UNL     1       3.215 -18.432  20.864  1.00  0.00    -0.346 N 
ATOM     27  H   UNL     1       2.706 -17.562  20.765  1.00  0.00     0.167 HD
BRANCH  17  28
ATOM     28  C   UNL     1       6.304 -22.727  21.129  1.00  0.00     0.089 C 
ATOM     29  C   UNL     1       5.607 -23.094  22.454  1.00  0.00     0.026 C 
ATOM     30  C   UNL     1       5.439 -23.025  19.894  1.00  0.00     0.026 C 
ATOM     31  C   UNL     1       5.099 -24.539  22.430  1.00  0.00     0.007 C 
ATOM     32  C   UNL     1       4.891 -24.454  19.910  1.00  0.00     0.007 C 
ATOM     33  C   UNL     1       4.167 -24.779  21.230  1.00  0.00     0.003 C 
BRANCH  33  34
ATOM     34  C   UNL     1       3.556 -26.194  21.240  1.00  0.00     0.123 C 
ATOM     35  C   UNL     1       4.189 -27.101  22.208  1.00  0.00     0.062 C 
ATOM     36  N   UNL     1       4.703 -27.812  22.967  1.00  0.00    -0.198 NA
ENDBRANCH  33  34
ENDBRANCH  17  28
ENDBRANCH   1  15
TORSDOF 6
