MODEL 3
REMARK VINA RESULT:    -8.083      1.380      1.930
REMARK INTER + INTRA:         -13.379
REMARK INTER:                 -12.264
REMARK INTRA:                  -1.115
REMARK UNBOUND:                -0.807
REMARK SMILES Cc1oc(-c2ccccc2)nc1CCOc1ccc(C[C@@H](C(=O)O)C(C)(C)C)cn1
REMARK SMILES IDX 16 1 17 2 18 3 19 4 29 5 30 6 15 7 14 8 13 9 12 10 2 11 3 12
REMARK SMILES IDX 4 13 11 14 1 15 5 16 6 17 10 18 7 19 9 20 8 21 20 22 21 23
REMARK SMILES IDX 22 24 23 25 24 26 25 28 26 29 27 30 28 31
REMARK H PARENT 24 27
ROOT
ATOM      1  C   UNL     1      -9.271  -8.566 -22.810  1.00  0.00     0.213 A 
ATOM      2  C   UNL     1      -8.796  -7.906 -23.930  1.00  0.00     0.069 A 
ATOM      3  C   UNL     1      -9.673  -7.676 -24.987  1.00  0.00     0.011 A 
ATOM      4  C   UNL     1     -11.000  -8.098 -24.888  1.00  0.00    -0.028 A 
ATOM      5  C   UNL     1     -11.370  -8.765 -23.723  1.00  0.00     0.119 A 
ATOM      6  N   UNL     1     -10.542  -9.001 -22.681  1.00  0.00    -0.222 NA
ENDROOT
BRANCH   1   7
ATOM      7  O   UNL     1      -8.366  -8.753 -21.784  1.00  0.00    -0.477 OA
BRANCH   7   8
ATOM      8  C   UNL     1      -7.004  -8.497 -22.143  1.00  0.00     0.238 C 
BRANCH   8   9
ATOM      9  C   UNL     1      -6.169  -8.128 -20.918  1.00  0.00     0.101 C 
BRANCH   9  10
ATOM     10  C   UNL     1      -6.132  -6.662 -20.694  1.00  0.00     0.086 A 
ATOM     11  C   UNL     1      -7.081  -5.845 -20.119  1.00  0.00     0.125 A 
ATOM     12  O   UNL     1      -6.594  -4.569 -20.121  1.00  0.00    -0.441 OA
ATOM     13  C   UNL     1      -5.358  -4.678 -20.706  1.00  0.00     0.226 A 
ATOM     14  N   UNL     1      -5.040  -5.909 -21.062  1.00  0.00    -0.214 NA
ATOM     15  C   UNL     1      -8.414  -6.060 -19.529  1.00  0.00     0.090 C 
BRANCH  13  16
ATOM     16  C   UNL     1      -4.583  -3.448 -20.848  1.00  0.00     0.037 A 
ATOM     17  C   UNL     1      -4.322  -2.603 -19.758  1.00  0.00     0.014 A 
ATOM     18  C   UNL     1      -4.076  -3.089 -22.107  1.00  0.00     0.014 A 
ATOM     19  C   UNL     1      -3.575  -1.433 -19.923  1.00  0.00     0.001 A 
ATOM     20  C   UNL     1      -3.330  -1.919 -22.272  1.00  0.00     0.001 A 
ATOM     21  C   UNL     1      -3.080  -1.092 -21.180  1.00  0.00     0.000 A 
ENDBRANCH  13  16
ENDBRANCH   9  10
ENDBRANCH   8   9
ENDBRANCH   7   8
ENDBRANCH   1   7
BRANCH   4  22
ATOM     22  C   UNL     1     -11.987  -7.889 -26.007  1.00  0.00     0.053 C 
BRANCH  22  23
ATOM     23  C   UNL     1     -12.288  -6.421 -26.396  1.00  0.00     0.109 C 
BRANCH  23  24
ATOM     24  C   UNL     1     -11.788  -6.208 -27.815  1.00  0.00     0.307 C 
ATOM     25  O   UNL     1     -11.535  -5.128 -28.324  1.00  0.00    -0.252 OA
BRANCH  24  26
ATOM     26  O   UNL     1     -11.656  -7.340 -28.530  1.00  0.00    -0.481 OA
ATOM     27  H   UNL     1     -11.100  -7.915 -27.964  1.00  0.00     0.296 HD
ENDBRANCH  24  26
ENDBRANCH  23  24
BRANCH  23  28
ATOM     28  C   UNL     1     -13.761  -5.905 -26.206  1.00  0.00    -0.025 C 
ATOM     29  C   UNL     1     -13.753  -4.394 -25.873  1.00  0.00     0.011 C 
ATOM     30  C   UNL     1     -14.441  -6.616 -25.017  1.00  0.00     0.011 C 
ATOM     31  C   UNL     1     -14.641  -6.117 -27.452  1.00  0.00     0.011 C 
ENDBRANCH  23  28
ENDBRANCH  22  23
ENDBRANCH   4  22
TORSDOF 10
ENDMDL
