MODEL 6
REMARK VINA RESULT:    -6.976      4.253      6.676
REMARK INTER + INTRA:         -10.384
REMARK INTER:                  -9.700
REMARK INTRA:                  -0.684
REMARK UNBOUND:                -0.758
REMARK SMILES COCCNC(=O)c1cn2cc(-c3cnc(N)nc3)nc(N3CCOCC3)c2n1
REMARK SMILES IDX 5 1 6 2 7 3 4 5 3 6 2 7 1 8 8 9 9 10 29 11 10 12 28 13 11 14
REMARK SMILES IDX 21 15 12 16 20 17 22 18 23 19 27 20 24 21 26 22 25 23 13 24
REMARK SMILES IDX 14 25 19 26 15 27 18 28 16 29 17 30
REMARK H PARENT 5 4 17 31 17 32
ROOT
ATOM      1  N   UNL     1      -3.860 -10.895  22.778  1.00  0.00    -0.348 N 
ATOM      2  C   UNL     1      -2.541 -10.530  22.633  1.00  0.00     0.271 C 
ATOM      3  O   UNL     1      -1.607 -11.011  23.265  1.00  0.00    -0.267 OA
ATOM      4  H   UNL     1      -4.521 -10.351  22.233  1.00  0.00     0.163 HD
ENDROOT
BRANCH   1   5
ATOM      5  C   UNL     1      -4.326 -11.725  23.870  1.00  0.00     0.144 C 
BRANCH   5   6
ATOM      6  C   UNL     1      -5.706 -12.329  23.589  1.00  0.00     0.181 C 
BRANCH   6   7
ATOM      7  O   UNL     1      -5.608 -13.748  23.476  1.00  0.00    -0.383 OA
ATOM      8  C   UNL     1      -6.198 -14.225  22.276  1.00  0.00     0.194 C 
ENDBRANCH   6   7
ENDBRANCH   5   6
ENDBRANCH   1   5
BRANCH   2   9
ATOM      9  C   UNL     1      -2.362  -9.493  21.613  1.00  0.00     0.147 A 
ATOM     10  C   UNL     1      -2.310  -8.129  21.831  1.00  0.00     0.127 A 
ATOM     11  N   UNL     1      -2.224  -9.771  20.256  1.00  0.00    -0.220 NA
ATOM     12  N   UNL     1      -2.145  -7.569  20.598  1.00  0.00    -0.301 N 
ATOM     13  C   UNL     1      -2.088  -8.589  19.684  1.00  0.00     0.181 A 
ATOM     14  C   UNL     1      -2.048  -6.253  20.202  1.00  0.00     0.122 A 
ATOM     15  C   UNL     1      -1.922  -8.265  18.266  1.00  0.00     0.173 A 
ATOM     16  C   UNL     1      -1.893  -5.991  18.889  1.00  0.00     0.093 A 
ATOM     17  N   UNL     1      -1.844  -6.991  17.928  1.00  0.00    -0.225 NA
BRANCH  15  18
ATOM     18  N   UNL     1      -1.847  -9.215  17.251  1.00  0.00    -0.349 N 
ATOM     19  C   UNL     1      -0.688  -9.345  16.359  1.00  0.00     0.146 C 
ATOM     20  C   UNL     1      -2.934 -10.174  17.012  1.00  0.00     0.146 C 
ATOM     21  C   UNL     1      -1.081 -10.064  15.060  1.00  0.00     0.181 C 
ATOM     22  C   UNL     1      -2.360 -11.499  16.488  1.00  0.00     0.181 C 
ATOM     23  O   UNL     1      -1.619 -11.375  15.266  1.00  0.00    -0.378 OA
ENDBRANCH  15  18
BRANCH  16  24
ATOM     24  C   UNL     1      -1.801  -4.600  18.410  1.00  0.00     0.039 A 
ATOM     25  C   UNL     1      -2.625  -3.604  18.897  1.00  0.00     0.127 A 
ATOM     26  C   UNL     1      -0.941  -4.161  17.422  1.00  0.00     0.127 A 
ATOM     27  N   UNL     1      -2.592  -2.312  18.494  1.00  0.00    -0.221 NA
ATOM     28  N   UNL     1      -0.866  -2.883  16.983  1.00  0.00    -0.221 NA
ATOM     29  C   UNL     1      -1.690  -2.006  17.559  1.00  0.00     0.219 A 
BRANCH  29  30
ATOM     30  N   UNL     1      -1.641  -0.701  17.121  1.00  0.00    -0.368 N 
ATOM     31  H   UNL     1      -1.733  -0.679  16.114  1.00  0.00     0.159 HD
ATOM     32  H   UNL     1      -0.839  -0.237  17.524  1.00  0.00     0.159 HD
ENDBRANCH  29  30
ENDBRANCH  16  24
ENDBRANCH   2   9
TORSDOF 7
ENDMDL
