REMARK VINA RESULT:    -8.505      6.467     11.261
REMARK INTER + INTRA:         -11.892
REMARK INTER:                 -10.897
REMARK INTRA:                  -0.996
REMARK UNBOUND:                -0.405
REMARK SMILES Cn1cc(Nc2ncc(Cl)c(N[C@H]3C[C@@H]4CN(C(=O)CC#N)C[C@@H]4C3)n2)cn1
REMARK SMILES IDX 6 1 7 2 8 3 9 4 10 5 11 6 26 7 5 8 4 10 2 11 3 12 28 13
REMARK SMILES IDX 27 14 1 15 12 16 13 18 14 19 25 20 15 21 24 22 16 23 23 24
REMARK SMILES IDX 17 25 18 26 19 27 20 28 21 29 22 30
REMARK H PARENT 5 9 12 17
ROOT
ATOM      1  C   UNL     1       0.914 -15.607  19.740  1.00  0.00     0.229 A 
ATOM      2  N   UNL     1       1.729 -15.144  18.779  1.00  0.00    -0.220 NA
ATOM      3  C   UNL     1       3.027 -15.498  18.865  1.00  0.00     0.139 A 
ATOM      4  C   UNL     1       3.537 -16.294  19.862  1.00  0.00     0.101 A 
ATOM      5  Cl  UNL     1       5.209 -16.698  19.893  1.00  0.00    -0.079 Cl
ATOM      6  C   UNL     1       2.631 -16.744  20.811  1.00  0.00     0.150 A 
ATOM      7  N   UNL     1       1.330 -16.393  20.749  1.00  0.00    -0.194 NA
ENDROOT
BRANCH   1   8
ATOM      8  N   UNL     1      -0.420 -15.214  19.630  1.00  0.00    -0.321 N 
ATOM      9  H   UNL     1      -0.456 -14.208  19.729  1.00  0.00     0.170 HD
BRANCH   8  10
ATOM     10  C   UNL     1      -1.539 -15.939  19.438  1.00  0.00     0.079 A 
ATOM     11  N   UNL     1      -3.243 -16.905  18.468  1.00  0.00    -0.274 N 
ATOM     12  C   UNL     1      -2.156 -16.115  18.224  1.00  0.00     0.134 A 
ATOM     13  N   UNL     1      -3.371 -17.260  19.760  1.00  0.00    -0.180 NA
ATOM     14  C   UNL     1      -2.329 -16.664  20.351  1.00  0.00     0.161 A 
ATOM     15  C   UNL     1      -4.214 -17.367  17.507  1.00  0.00     0.173 C 
ENDBRANCH   8  10
ENDBRANCH   1   8
BRANCH   6  16
ATOM     16  N   UNL     1       3.059 -17.519  21.883  1.00  0.00    -0.366 N 
ATOM     17  H   UNL     1       3.852 -17.164  22.405  1.00  0.00     0.162 HD
BRANCH  16  18
ATOM     18  C   UNL     1       2.707 -18.928  21.975  1.00  0.00     0.081 C 
ATOM     19  C   UNL     1       2.960 -19.622  20.622  1.00  0.00     0.030 C 
ATOM     20  C   UNL     1       3.637 -19.656  22.951  1.00  0.00     0.030 C 
ATOM     21  C   UNL     1       4.295 -20.362  20.755  1.00  0.00     0.015 C 
ATOM     22  C   UNL     1       4.877 -19.941  22.106  1.00  0.00     0.015 C 
ATOM     23  C   UNL     1       4.150 -21.881  20.878  1.00  0.00     0.123 C 
ATOM     24  C   UNL     1       5.704 -21.129  22.561  1.00  0.00     0.123 C 
ATOM     25  N   UNL     1       5.124 -22.277  21.884  1.00  0.00    -0.341 N 
BRANCH  25  26
ATOM     26  C   UNL     1       5.514 -23.564  22.214  1.00  0.00     0.236 C 
ATOM     27  O   UNL     1       6.124 -23.797  23.256  1.00  0.00    -0.274 OA
BRANCH  26  28
ATOM     28  C   UNL     1       5.157 -24.643  21.213  1.00  0.00     0.220 C 
ATOM     29  C   UNL     1       4.513 -25.799  21.838  1.00  0.00     0.072 C 
ATOM     30  N   UNL     1       3.996 -26.749  22.260  1.00  0.00    -0.198 NA
ENDBRANCH  26  28
ENDBRANCH  25  26
ENDBRANCH  16  18
ENDBRANCH   6  16
TORSDOF 6
