MODEL 1
REMARK VINA RESULT:    -8.691      0.000      0.000
REMARK INTER + INTRA:         -14.956
REMARK INTER:                 -14.026
REMARK INTRA:                  -0.930
REMARK UNBOUND:                -0.930
REMARK SMILES O=C(CCCCCCOc1ccc2ncnc(Nc3ccc(F)c(Cl)c3)c2c1)NO
REMARK SMILES IDX 6 1 5 2 4 3 3 4 2 5 1 6 29 7 30 9 7 11 8 12 9 13 10 14 11 15
REMARK SMILES IDX 28 16 12 17 27 18 13 19 17 20 14 21 16 22 15 23 18 24 19 26
REMARK SMILES IDX 20 27 26 28 21 29 24 30 22 31 25 32 23 33
REMARK H PARENT 29 8 30 10 18 25
ROOT
ATOM      1  C   UNL     1      13.678   6.265  25.348  1.00  0.00     0.004 C 
ENDROOT
BRANCH   1   2
ATOM      2  C   UNL     1      12.453   5.499  25.851  1.00  0.00     0.001 C 
BRANCH   2   3
ATOM      3  C   UNL     1      11.314   5.538  24.828  1.00  0.00     0.010 C 
BRANCH   3   4
ATOM      4  C   UNL     1      10.682   6.924  24.713  1.00  0.00     0.102 C 
BRANCH   4   5
ATOM      5  C   UNL     1       9.176   6.916  24.877  1.00  0.00     0.243 C 
ATOM      6  O   UNL     1       8.573   7.396  25.834  1.00  0.00    -0.273 OA
ATOM      7  N   UNL     1       8.519   6.289  23.849  1.00  0.00    -0.238 N 
ATOM      8  H   UNL     1       8.955   5.864  23.039  1.00  0.00     0.198 HD
BRANCH   7   9
ATOM      9  O   UNL     1       7.111   6.231  23.937  1.00  0.00    -0.289 OA
ATOM     10  H   UNL     1       6.882   7.150  24.201  1.00  0.00     0.246 HD
ENDBRANCH   7   9
ENDBRANCH   4   5
ENDBRANCH   3   4
ENDBRANCH   2   3
ENDBRANCH   1   2
BRANCH   1  11
ATOM     11  C   UNL     1      14.720   5.318  24.757  1.00  0.00     0.042 C 
BRANCH  11  12
ATOM     12  C   UNL     1      15.876   5.078  25.724  1.00  0.00     0.229 C 
BRANCH  12  13
ATOM     13  O   UNL     1      16.837   4.255  25.061  1.00  0.00    -0.494 OA
BRANCH  13  14
ATOM     14  C   UNL     1      16.936   2.957  25.471  1.00  0.00     0.120 A 
ATOM     15  C   UNL     1      17.890   2.035  25.065  1.00  0.00     0.048 A 
ATOM     16  C   UNL     1      15.962   2.556  26.388  1.00  0.00     0.060 A 
ATOM     17  C   UNL     1      17.868   0.735  25.583  1.00  0.00     0.033 A 
ATOM     18  C   UNL     1      15.927   1.234  26.904  1.00  0.00     0.047 A 
ATOM     19  C   UNL     1      16.908   0.320  26.497  1.00  0.00     0.076 A 
ATOM     20  C   UNL     1      14.980   0.739  27.825  1.00  0.00     0.141 A 
ATOM     21  N   UNL     1      16.962  -0.935  26.950  1.00  0.00    -0.236 NA
ATOM     22  N   UNL     1      15.044  -0.519  28.301  1.00  0.00    -0.219 NA
ATOM     23  C   UNL     1      16.028  -1.292  27.836  1.00  0.00     0.224 A 
BRANCH  20  24
ATOM     24  N   UNL     1      13.934   1.581  28.265  1.00  0.00    -0.340 N 
ATOM     25  H   UNL     1      13.531   2.119  27.510  1.00  0.00     0.168 HD
BRANCH  24  26
ATOM     26  C   UNL     1      13.165   1.550  29.443  1.00  0.00     0.041 A 
ATOM     27  C   UNL     1      13.715   1.737  30.719  1.00  0.00     0.029 A 
ATOM     28  C   UNL     1      11.775   1.373  29.342  1.00  0.00     0.049 A 
ATOM     29  C   UNL     1      12.912   1.721  31.864  1.00  0.00     0.043 A 
ATOM     30  C   UNL     1      10.970   1.356  30.485  1.00  0.00     0.078 A 
ATOM     31  C   UNL     1      11.543   1.529  31.740  1.00  0.00     0.141 A 
ATOM     32  Cl  UNL     1       9.271   1.127  30.317  1.00  0.00    -0.081 Cl
ATOM     33  F   UNL     1      10.787   1.519  32.849  1.00  0.00    -0.205 F 
ENDBRANCH  24  26
ENDBRANCH  20  24
ENDBRANCH  13  14
ENDBRANCH  12  13
ENDBRANCH  11  12
ENDBRANCH   1  11
TORSDOF 11
ENDMDL
MODEL 2
REMARK VINA RESULT:    -8.556      1.493      1.856
REMARK INTER + INTRA:         -14.737
REMARK INTER:                 -13.080
REMARK INTRA:                  -1.657
REMARK UNBOUND:                -0.930
REMARK SMILES O=C(CCCCCCOc1ccc2ncnc(Nc3ccc(F)c(Cl)c3)c2c1)NO
REMARK SMILES IDX 6 1 5 2 4 3 3 4 2 5 1 6 29 7 30 9 7 11 8 12 9 13 10 14 11 15
REMARK SMILES IDX 28 16 12 17 27 18 13 19 17 20 14 21 16 22 15 23 18 24 19 26
REMARK SMILES IDX 20 27 26 28 21 29 24 30 22 31 25 32 23 33
REMARK H PARENT 29 8 30 10 18 25
ROOT
ATOM      1  C   UNL     1      14.525   5.230  23.973  1.00  0.00     0.004 C 
ENDROOT
BRANCH   1   2
ATOM      2  C   UNL     1      14.092   3.862  23.442  1.00  0.00     0.001 C 
BRANCH   2   3
ATOM      3  C   UNL     1      12.728   3.453  24.007  1.00  0.00     0.010 C 
BRANCH   3   4
ATOM      4  C   UNL     1      12.694   3.491  25.534  1.00  0.00     0.102 C 
BRANCH   4   5
ATOM      5  C   UNL     1      11.596   4.374  26.091  1.00  0.00     0.243 C 
ATOM      6  O   UNL     1      11.535   4.764  27.255  1.00  0.00    -0.273 OA
ATOM      7  N   UNL     1      10.633   4.695  25.169  1.00  0.00    -0.238 N 
ATOM      8  H   UNL     1      10.619   4.398  24.200  1.00  0.00     0.198 HD
BRANCH   7   9
ATOM      9  O   UNL     1       9.569   5.506  25.618  1.00  0.00    -0.289 OA
ATOM     10  H   UNL     1       8.859   4.847  25.779  1.00  0.00     0.246 HD
ENDBRANCH   7   9
ENDBRANCH   4   5
ENDBRANCH   3   4
ENDBRANCH   2   3
ENDBRANCH   1   2
BRANCH   1  11
ATOM     11  C   UNL     1      15.956   5.560  23.554  1.00  0.00     0.042 C 
BRANCH  11  12
ATOM     12  C   UNL     1      16.885   4.362  23.732  1.00  0.00     0.229 C 
BRANCH  12  13
ATOM     13  O   UNL     1      16.981   4.088  25.131  1.00  0.00    -0.494 OA
BRANCH  13  14
ATOM     14  C   UNL     1      17.049   2.777  25.507  1.00  0.00     0.120 A 
ATOM     15  C   UNL     1      17.949   1.832  25.036  1.00  0.00     0.048 A 
ATOM     16  C   UNL     1      16.103   2.391  26.458  1.00  0.00     0.060 A 
ATOM     17  C   UNL     1      17.900   0.521  25.526  1.00  0.00     0.033 A 
ATOM     18  C   UNL     1      16.042   1.059  26.946  1.00  0.00     0.047 A 
ATOM     19  C   UNL     1      16.967   0.119  26.473  1.00  0.00     0.076 A 
ATOM     20  C   UNL     1      15.119   0.577  27.897  1.00  0.00     0.141 A 
ATOM     21  N   UNL     1      16.995  -1.147  26.894  1.00  0.00    -0.236 NA
ATOM     22  N   UNL     1      15.157  -0.694  28.342  1.00  0.00    -0.219 NA
ATOM     23  C   UNL     1      16.089  -1.492  27.814  1.00  0.00     0.224 A 
BRANCH  20  24
ATOM     24  N   UNL     1      14.126   1.446  28.404  1.00  0.00    -0.340 N 
ATOM     25  H   UNL     1      13.716   2.022  27.682  1.00  0.00     0.168 HD
BRANCH  24  26
ATOM     26  C   UNL     1      13.405   1.410  29.611  1.00  0.00     0.041 A 
ATOM     27  C   UNL     1      13.764   2.161  30.739  1.00  0.00     0.029 A 
ATOM     28  C   UNL     1      12.242   0.624  29.684  1.00  0.00     0.049 A 
ATOM     29  C   UNL     1      13.006   2.114  31.913  1.00  0.00     0.043 A 
ATOM     30  C   UNL     1      11.482   0.575  30.856  1.00  0.00     0.078 A 
ATOM     31  C   UNL     1      11.870   1.319  31.965  1.00  0.00     0.141 A 
ATOM     32  Cl  UNL     1      10.069  -0.407  30.906  1.00  0.00    -0.081 Cl
ATOM     33  F   UNL     1      11.153   1.288  33.099  1.00  0.00    -0.205 F 
ENDBRANCH  24  26
ENDBRANCH  20  24
ENDBRANCH  13  14
ENDBRANCH  12  13
ENDBRANCH  11  12
ENDBRANCH   1  11
TORSDOF 11
ENDMDL
MODEL 3
REMARK VINA RESULT:    -8.478      3.530      5.628
REMARK INTER + INTRA:         -14.611
REMARK INTER:                 -13.322
REMARK INTRA:                  -1.289
REMARK UNBOUND:                -0.930
REMARK SMILES O=C(CCCCCCOc1ccc2ncnc(Nc3ccc(F)c(Cl)c3)c2c1)NO
REMARK SMILES IDX 6 1 5 2 4 3 3 4 2 5 1 6 29 7 30 9 7 11 8 12 9 13 10 14 11 15
REMARK SMILES IDX 28 16 12 17 27 18 13 19 17 20 14 21 16 22 15 23 18 24 19 26
REMARK SMILES IDX 20 27 26 28 21 29 24 30 22 31 25 32 23 33
REMARK H PARENT 29 8 30 10 18 25
ROOT
ATOM      1  C   UNL     1      18.514   6.990  23.890  1.00  0.00     0.004 C 
ENDROOT
BRANCH   1   2
ATOM      2  C   UNL     1      19.311   5.715  23.609  1.00  0.00     0.001 C 
BRANCH   2   3
ATOM      3  C   UNL     1      19.381   5.423  22.107  1.00  0.00     0.010 C 
BRANCH   3   4
ATOM      4  C   UNL     1      19.038   3.971  21.779  1.00  0.00     0.102 C 
BRANCH   4   5
ATOM      5  C   UNL     1      19.458   3.552  20.385  1.00  0.00     0.243 C 
ATOM      6  O   UNL     1      19.050   2.549  19.804  1.00  0.00    -0.273 OA
ATOM      7  N   UNL     1      20.375   4.397  19.814  1.00  0.00    -0.238 N 
ATOM      8  H   UNL     1      20.758   5.232  20.242  1.00  0.00     0.198 HD
BRANCH   7   9
ATOM      9  O   UNL     1      20.822   4.065  18.517  1.00  0.00    -0.289 OA
ATOM     10  H   UNL     1      21.529   4.732  18.365  1.00  0.00     0.246 HD
ENDBRANCH   7   9
ENDBRANCH   4   5
ENDBRANCH   3   4
ENDBRANCH   2   3
ENDBRANCH   1   2
BRANCH   1  11
ATOM     11  C   UNL     1      17.033   6.683  24.101  1.00  0.00     0.042 C 
BRANCH  11  12
ATOM     12  C   UNL     1      16.783   6.013  25.450  1.00  0.00     0.229 C 
BRANCH  12  13
ATOM     13  O   UNL     1      15.836   4.963  25.247  1.00  0.00    -0.494 OA
BRANCH  13  14
ATOM     14  C   UNL     1      16.245   3.692  25.530  1.00  0.00     0.120 A 
ATOM     15  C   UNL     1      17.374   3.059  25.030  1.00  0.00     0.048 A 
ATOM     16  C   UNL     1      15.420   2.993  26.414  1.00  0.00     0.060 A 
ATOM     17  C   UNL     1      17.669   1.748  25.422  1.00  0.00     0.033 A 
ATOM     18  C   UNL     1      15.708   1.659  26.802  1.00  0.00     0.047 A 
ATOM     19  C   UNL     1      16.860   1.039  26.300  1.00  0.00     0.076 A 
ATOM     20  C   UNL     1      14.930   0.875  27.680  1.00  0.00     0.141 A 
ATOM     21  N   UNL     1      17.217  -0.204  26.631  1.00  0.00    -0.236 NA
ATOM     22  N   UNL     1      15.298  -0.371  28.034  1.00  0.00    -0.219 NA
ATOM     23  C   UNL     1      16.419  -0.848  27.488  1.00  0.00     0.224 A 
BRANCH  20  24
ATOM     24  N   UNL     1      13.732   1.407  28.209  1.00  0.00    -0.340 N 
ATOM     25  H   UNL     1      13.064   1.640  27.486  1.00  0.00     0.168 HD
BRANCH  24  26
ATOM     26  C   UNL     1      13.198   1.351  29.509  1.00  0.00     0.041 A 
ATOM     27  C   UNL     1      13.810   1.962  30.612  1.00  0.00     0.029 A 
ATOM     28  C   UNL     1      11.972   0.695  29.712  1.00  0.00     0.049 A 
ATOM     29  C   UNL     1      13.234   1.901  31.886  1.00  0.00     0.043 A 
ATOM     30  C   UNL     1      11.395   0.633  30.984  1.00  0.00     0.078 A 
ATOM     31  C   UNL     1      12.030   1.235  32.064  1.00  0.00     0.141 A 
ATOM     32  Cl  UNL     1       9.895  -0.189  31.191  1.00  0.00    -0.081 Cl
ATOM     33  F   UNL     1      11.491   1.189  33.292  1.00  0.00    -0.205 F 
ENDBRANCH  24  26
ENDBRANCH  20  24
ENDBRANCH  13  14
ENDBRANCH  12  13
ENDBRANCH  11  12
ENDBRANCH   1  11
TORSDOF 11
ENDMDL
MODEL 4
REMARK VINA RESULT:    -8.472      3.586      6.754
REMARK INTER + INTRA:         -14.602
REMARK INTER:                 -13.195
REMARK INTRA:                  -1.408
REMARK UNBOUND:                -0.930
REMARK SMILES O=C(CCCCCCOc1ccc2ncnc(Nc3ccc(F)c(Cl)c3)c2c1)NO
REMARK SMILES IDX 6 1 5 2 4 3 3 4 2 5 1 6 29 7 30 9 7 11 8 12 9 13 10 14 11 15
REMARK SMILES IDX 28 16 12 17 27 18 13 19 17 20 14 21 16 22 15 23 18 24 19 26
REMARK SMILES IDX 20 27 26 28 21 29 24 30 22 31 25 32 23 33
REMARK H PARENT 29 8 30 10 18 25
ROOT
ATOM      1  C   UNL     1      14.008   4.284  25.412  1.00  0.00     0.004 C 
ENDROOT
BRANCH   1   2
ATOM      2  C   UNL     1      14.933   3.098  25.132  1.00  0.00     0.001 C 
BRANCH   2   3
ATOM      3  C   UNL     1      16.026   2.982  26.198  1.00  0.00     0.010 C 
BRANCH   3   4
ATOM      4  C   UNL     1      15.780   1.823  27.163  1.00  0.00     0.102 C 
BRANCH   4   5
ATOM      5  C   UNL     1      16.525   0.558  26.788  1.00  0.00     0.243 C 
ATOM      6  O   UNL     1      16.275  -0.560  27.233  1.00  0.00    -0.273 OA
ATOM      7  N   UNL     1      17.548   0.770  25.899  1.00  0.00    -0.238 N 
ATOM      8  H   UNL     1      17.813   1.665  25.504  1.00  0.00     0.198 HD
BRANCH   7   9
ATOM      9  O   UNL     1      18.297  -0.361  25.511  1.00  0.00    -0.289 OA
ATOM     10  H   UNL     1      17.594  -0.988  25.227  1.00  0.00     0.246 HD
ENDBRANCH   7   9
ENDBRANCH   4   5
ENDBRANCH   3   4
ENDBRANCH   2   3
ENDBRANCH   1   2
BRANCH   1  11
ATOM     11  C   UNL     1      12.554   3.940  25.095  1.00  0.00     0.042 C 
BRANCH  11  12
ATOM     12  C   UNL     1      12.034   2.813  25.984  1.00  0.00     0.229 C 
BRANCH  12  13
ATOM     13  O   UNL     1      11.458   3.406  27.149  1.00  0.00    -0.494 OA
BRANCH  13  14
ATOM     14  C   UNL     1      11.948   3.007  28.359  1.00  0.00     0.120 A 
ATOM     15  C   UNL     1      13.218   3.260  28.857  1.00  0.00     0.048 A 
ATOM     16  C   UNL     1      11.053   2.275  29.141  1.00  0.00     0.060 A 
ATOM     17  C   UNL     1      13.574   2.791  30.127  1.00  0.00     0.033 A 
ATOM     18  C   UNL     1      11.416   1.784  30.423  1.00  0.00     0.047 A 
ATOM     19  C   UNL     1      12.696   2.062  30.919  1.00  0.00     0.076 A 
ATOM     20  C   UNL     1      10.584   1.031  31.277  1.00  0.00     0.141 A 
ATOM     21  N   UNL     1      13.111   1.659  32.121  1.00  0.00    -0.236 NA
ATOM     22  N   UNL     1      10.990   0.641  32.500  1.00  0.00    -0.219 NA
ATOM     23  C   UNL     1      12.234   0.971  32.858  1.00  0.00     0.224 A 
BRANCH  20  24
ATOM     24  N   UNL     1       9.286   0.675  30.845  1.00  0.00    -0.340 N 
ATOM     25  H   UNL     1       9.304   0.034  30.064  1.00  0.00     0.168 HD
BRANCH  24  26
ATOM     26  C   UNL     1       8.042   0.777  31.495  1.00  0.00     0.041 A 
ATOM     27  C   UNL     1       7.239  -0.334  31.786  1.00  0.00     0.029 A 
ATOM     28  C   UNL     1       7.599   2.042  31.918  1.00  0.00     0.049 A 
ATOM     29  C   UNL     1       6.019  -0.192  32.454  1.00  0.00     0.043 A 
ATOM     30  C   UNL     1       6.380   2.187  32.587  1.00  0.00     0.078 A 
ATOM     31  C   UNL     1       5.596   1.069  32.850  1.00  0.00     0.141 A 
ATOM     32  Cl  UNL     1       5.870   3.756  33.081  1.00  0.00    -0.081 Cl
ATOM     33  F   UNL     1       4.423   1.187  33.492  1.00  0.00    -0.205 F 
ENDBRANCH  24  26
ENDBRANCH  20  24
ENDBRANCH  13  14
ENDBRANCH  12  13
ENDBRANCH  11  12
ENDBRANCH   1  11
TORSDOF 11
ENDMDL
MODEL 5
REMARK VINA RESULT:    -8.355      3.469      4.874
REMARK INTER + INTRA:         -14.413
REMARK INTER:                 -13.340
REMARK INTRA:                  -1.074
REMARK UNBOUND:                -0.930
REMARK SMILES O=C(CCCCCCOc1ccc2ncnc(Nc3ccc(F)c(Cl)c3)c2c1)NO
REMARK SMILES IDX 6 1 5 2 4 3 3 4 2 5 1 6 29 7 30 9 7 11 8 12 9 13 10 14 11 15
REMARK SMILES IDX 28 16 12 17 27 18 13 19 17 20 14 21 16 22 15 23 18 24 19 26
REMARK SMILES IDX 20 27 26 28 21 29 24 30 22 31 25 32 23 33
REMARK H PARENT 29 8 30 10 18 25
ROOT
ATOM      1  C   UNL     1      11.550   4.590  24.937  1.00  0.00     0.004 C 
ENDROOT
BRANCH   1   2
ATOM      2  C   UNL     1      11.853   5.801  25.822  1.00  0.00     0.001 C 
BRANCH   2   3
ATOM      3  C   UNL     1      11.469   7.109  25.123  1.00  0.00     0.010 C 
BRANCH   3   4
ATOM      4  C   UNL     1      10.407   6.903  24.044  1.00  0.00     0.102 C 
BRANCH   4   5
ATOM      5  C   UNL     1       8.992   7.107  24.545  1.00  0.00     0.243 C 
ATOM      6  O   UNL     1       8.679   7.843  25.477  1.00  0.00    -0.273 OA
ATOM      7  N   UNL     1       8.061   6.362  23.866  1.00  0.00    -0.238 N 
ATOM      8  H   UNL     1       8.253   5.730  23.099  1.00  0.00     0.198 HD
BRANCH   7   9
ATOM      9  O   UNL     1       6.718   6.491  24.284  1.00  0.00    -0.289 OA
ATOM     10  H   UNL     1       6.757   6.164  25.211  1.00  0.00     0.246 HD
ENDBRANCH   7   9
ENDBRANCH   4   5
ENDBRANCH   3   4
ENDBRANCH   2   3
ENDBRANCH   1   2
BRANCH   1  11
ATOM     11  C   UNL     1      12.769   3.678  24.810  1.00  0.00     0.042 C 
BRANCH  11  12
ATOM     12  C   UNL     1      12.598   2.393  25.616  1.00  0.00     0.229 C 
BRANCH  12  13
ATOM     13  O   UNL     1      11.691   2.666  26.685  1.00  0.00    -0.494 OA
BRANCH  13  14
ATOM     14  C   UNL     1      12.151   2.476  27.957  1.00  0.00     0.120 A 
ATOM     15  C   UNL     1      13.404   2.825  28.440  1.00  0.00     0.048 A 
ATOM     16  C   UNL     1      11.242   1.868  28.824  1.00  0.00     0.060 A 
ATOM     17  C   UNL     1      13.729   2.573  29.778  1.00  0.00     0.033 A 
ATOM     18  C   UNL     1      11.573   1.598  30.178  1.00  0.00     0.047 A 
ATOM     19  C   UNL     1      12.837   1.970  30.655  1.00  0.00     0.076 A 
ATOM     20  C   UNL     1      10.725   0.982  31.122  1.00  0.00     0.141 A 
ATOM     21  N   UNL     1      13.222   1.774  31.918  1.00  0.00    -0.236 NA
ATOM     22  N   UNL     1      11.101   0.802  32.402  1.00  0.00    -0.219 NA
ATOM     23  C   UNL     1      12.331   1.202  32.733  1.00  0.00     0.224 A 
BRANCH  20  24
ATOM     24  N   UNL     1       9.443   0.542  30.720  1.00  0.00    -0.340 N 
ATOM     25  H   UNL     1       9.487  -0.135  29.971  1.00  0.00     0.168 HD
BRANCH  24  26
ATOM     26  C   UNL     1       8.201   0.616  31.376  1.00  0.00     0.041 A 
ATOM     27  C   UNL     1       7.415  -0.512  31.652  1.00  0.00     0.029 A 
ATOM     28  C   UNL     1       7.741   1.866  31.822  1.00  0.00     0.049 A 
ATOM     29  C   UNL     1       6.196  -0.399  32.327  1.00  0.00     0.043 A 
ATOM     30  C   UNL     1       6.523   1.983  32.497  1.00  0.00     0.078 A 
ATOM     31  C   UNL     1       5.756   0.850  32.745  1.00  0.00     0.141 A 
ATOM     32  Cl  UNL     1       5.992   3.536  33.019  1.00  0.00    -0.081 Cl
ATOM     33  F   UNL     1       4.584   0.940  33.393  1.00  0.00    -0.205 F 
ENDBRANCH  24  26
ENDBRANCH  20  24
ENDBRANCH  13  14
ENDBRANCH  12  13
ENDBRANCH  11  12
ENDBRANCH   1  11
TORSDOF 11
ENDMDL
MODEL 6
REMARK VINA RESULT:    -8.351      3.753      6.885
REMARK INTER + INTRA:         -14.407
REMARK INTER:                 -13.130
REMARK INTRA:                  -1.277
REMARK UNBOUND:                -0.930
REMARK SMILES O=C(CCCCCCOc1ccc2ncnc(Nc3ccc(F)c(Cl)c3)c2c1)NO
REMARK SMILES IDX 6 1 5 2 4 3 3 4 2 5 1 6 29 7 30 9 7 11 8 12 9 13 10 14 11 15
REMARK SMILES IDX 28 16 12 17 27 18 13 19 17 20 14 21 16 22 15 23 18 24 19 26
REMARK SMILES IDX 20 27 26 28 21 29 24 30 22 31 25 32 23 33
REMARK H PARENT 29 8 30 10 18 25
ROOT
ATOM      1  C   UNL     1      14.890   3.472  25.568  1.00  0.00     0.004 C 
ENDROOT
BRANCH   1   2
ATOM      2  C   UNL     1      15.979   3.224  24.522  1.00  0.00     0.001 C 
BRANCH   2   3
ATOM      3  C   UNL     1      17.168   2.472  25.126  1.00  0.00     0.010 C 
BRANCH   3   4
ATOM      4  C   UNL     1      16.849   1.885  26.501  1.00  0.00     0.102 C 
BRANCH   4   5
ATOM      5  C   UNL     1      17.005   0.380  26.565  1.00  0.00     0.243 C 
ATOM      6  O   UNL     1      17.633  -0.294  25.751  1.00  0.00    -0.273 OA
ATOM      7  N   UNL     1      16.350  -0.192  27.626  1.00  0.00    -0.238 N 
ATOM      8  H   UNL     1      15.809   0.303  28.324  1.00  0.00     0.198 HD
BRANCH   7   9
ATOM      9  O   UNL     1      16.441  -1.595  27.745  1.00  0.00    -0.289 OA
ATOM     10  H   UNL     1      16.758  -1.860  26.853  1.00  0.00     0.246 HD
ENDBRANCH   7   9
ENDBRANCH   4   5
ENDBRANCH   3   4
ENDBRANCH   2   3
ENDBRANCH   1   2
BRANCH   1  11
ATOM     11  C   UNL     1      13.499   3.218  24.991  1.00  0.00     0.042 C 
BRANCH  11  12
ATOM     12  C   UNL     1      12.694   2.257  25.863  1.00  0.00     0.229 C 
BRANCH  12  13
ATOM     13  O   UNL     1      12.081   3.021  26.902  1.00  0.00    -0.494 OA
BRANCH  13  14
ATOM     14  C   UNL     1      12.383   2.680  28.189  1.00  0.00     0.120 A 
ATOM     15  C   UNL     1      13.651   2.621  28.749  1.00  0.00     0.048 A 
ATOM     16  C   UNL     1      11.281   2.365  28.987  1.00  0.00     0.060 A 
ATOM     17  C   UNL     1      13.803   2.260  30.093  1.00  0.00     0.033 A 
ATOM     18  C   UNL     1      11.433   1.985  30.346  1.00  0.00     0.047 A 
ATOM     19  C   UNL     1      12.718   1.945  30.901  1.00  0.00     0.076 A 
ATOM     20  C   UNL     1      10.382   1.643  31.223  1.00  0.00     0.141 A 
ATOM     21  N   UNL     1      12.949   1.621  32.175  1.00  0.00    -0.236 NA
ATOM     22  N   UNL     1      10.607   1.337  32.514  1.00  0.00    -0.219 NA
ATOM     23  C   UNL     1      11.878   1.336  32.923  1.00  0.00     0.224 A 
BRANCH  20  24
ATOM     24  N   UNL     1       9.053   1.623  30.740  1.00  0.00    -0.340 N 
ATOM     25  H   UNL     1       8.867   0.813  30.164  1.00  0.00     0.168 HD
BRANCH  24  26
ATOM     26  C   UNL     1       7.908   2.312  31.177  1.00  0.00     0.041 A 
ATOM     27  C   UNL     1       7.071   1.834  32.195  1.00  0.00     0.029 A 
ATOM     28  C   UNL     1       7.607   3.560  30.606  1.00  0.00     0.049 A 
ATOM     29  C   UNL     1       5.953   2.561  32.616  1.00  0.00     0.043 A 
ATOM     30  C   UNL     1       6.490   4.289  31.025  1.00  0.00     0.078 A 
ATOM     31  C   UNL     1       5.669   3.785  32.027  1.00  0.00     0.141 A 
ATOM     32  Cl  UNL     1       6.152   5.811  30.293  1.00  0.00    -0.081 Cl
ATOM     33  F   UNL     1       4.594   4.471  32.445  1.00  0.00    -0.205 F 
ENDBRANCH  24  26
ENDBRANCH  20  24
ENDBRANCH  13  14
ENDBRANCH  12  13
ENDBRANCH  11  12
ENDBRANCH   1  11
TORSDOF 11
ENDMDL
MODEL 7
REMARK VINA RESULT:    -8.346      4.760      8.146
REMARK INTER + INTRA:         -14.399
REMARK INTER:                 -13.336
REMARK INTRA:                  -1.062
REMARK UNBOUND:                -0.930
REMARK SMILES O=C(CCCCCCOc1ccc2ncnc(Nc3ccc(F)c(Cl)c3)c2c1)NO
REMARK SMILES IDX 6 1 5 2 4 3 3 4 2 5 1 6 29 7 30 9 7 11 8 12 9 13 10 14 11 15
REMARK SMILES IDX 28 16 12 17 27 18 13 19 17 20 14 21 16 22 15 23 18 24 19 26
REMARK SMILES IDX 20 27 26 28 21 29 24 30 22 31 25 32 23 33
REMARK H PARENT 29 8 30 10 18 25
ROOT
ATOM      1  C   UNL     1       6.450   1.007  32.271  1.00  0.00     0.004 C 
ENDROOT
BRANCH   1   2
ATOM      2  C   UNL     1       5.245   1.472  33.091  1.00  0.00     0.001 C 
BRANCH   2   3
ATOM      3  C   UNL     1       5.005   2.976  32.921  1.00  0.00     0.010 C 
BRANCH   3   4
ATOM      4  C   UNL     1       6.280   3.730  32.546  1.00  0.00     0.102 C 
BRANCH   4   5
ATOM      5  C   UNL     1       6.097   4.681  31.380  1.00  0.00     0.243 C 
ATOM      6  O   UNL     1       6.438   5.861  31.380  1.00  0.00    -0.273 OA
ATOM      7  N   UNL     1       5.479   4.106  30.299  1.00  0.00    -0.238 N 
ATOM      8  H   UNL     1       5.165   3.145  30.239  1.00  0.00     0.198 HD
BRANCH   7   9
ATOM      9  O   UNL     1       5.264   4.935  29.177  1.00  0.00    -0.289 OA
ATOM     10  H   UNL     1       4.627   5.597  29.527  1.00  0.00     0.246 HD
ENDBRANCH   7   9
ENDBRANCH   4   5
ENDBRANCH   3   4
ENDBRANCH   2   3
ENDBRANCH   1   2
BRANCH   1  11
ATOM     11  C   UNL     1       6.629  -0.507  32.359  1.00  0.00     0.042 C 
BRANCH  11  12
ATOM     12  C   UNL     1       7.718  -1.001  31.410  1.00  0.00     0.229 C 
BRANCH  12  13
ATOM     13  O   UNL     1       8.225   0.130  30.700  1.00  0.00    -0.494 OA
BRANCH  13  14
ATOM     14  C   UNL     1       9.476   0.564  31.031  1.00  0.00     0.120 A 
ATOM     15  C   UNL     1      10.151   0.305  32.215  1.00  0.00     0.048 A 
ATOM     16  C   UNL     1      10.104   1.341  30.055  1.00  0.00     0.060 A 
ATOM     17  C   UNL     1      11.441   0.815  32.407  1.00  0.00     0.033 A 
ATOM     18  C   UNL     1      11.405   1.872  30.252  1.00  0.00     0.047 A 
ATOM     19  C   UNL     1      12.080   1.589  31.447  1.00  0.00     0.076 A 
ATOM     20  C   UNL     1      12.112   2.672  29.330  1.00  0.00     0.141 A 
ATOM     21  N   UNL     1      13.314   2.028  31.705  1.00  0.00    -0.236 NA
ATOM     22  N   UNL     1      13.365   3.099  29.576  1.00  0.00    -0.219 NA
ATOM     23  C   UNL     1      13.900   2.760  30.752  1.00  0.00     0.224 A 
BRANCH  20  24
ATOM     24  N   UNL     1      11.496   3.036  28.112  1.00  0.00    -0.340 N 
ATOM     25  H   UNL     1      10.516   3.256  28.228  1.00  0.00     0.168 HD
BRANCH  24  26
ATOM     26  C   UNL     1      12.054   3.459  26.891  1.00  0.00     0.041 A 
ATOM     27  C   UNL     1      12.415   2.571  25.869  1.00  0.00     0.029 A 
ATOM     28  C   UNL     1      12.215   4.835  26.659  1.00  0.00     0.049 A 
ATOM     29  C   UNL     1      12.947   3.034  24.661  1.00  0.00     0.043 A 
ATOM     30  C   UNL     1      12.746   5.301  25.453  1.00  0.00     0.078 A 
ATOM     31  C   UNL     1      13.110   4.398  24.460  1.00  0.00     0.141 A 
ATOM     32  Cl  UNL     1      12.935   6.996  25.212  1.00  0.00    -0.081 Cl
ATOM     33  F   UNL     1      13.619   4.824  23.294  1.00  0.00    -0.205 F 
ENDBRANCH  24  26
ENDBRANCH  20  24
ENDBRANCH  13  14
ENDBRANCH  12  13
ENDBRANCH  11  12
ENDBRANCH   1  11
TORSDOF 11
ENDMDL
MODEL 8
REMARK VINA RESULT:    -8.215      4.571      7.315
REMARK INTER + INTRA:         -14.187
REMARK INTER:                 -13.120
REMARK INTRA:                  -1.067
REMARK UNBOUND:                -0.930
REMARK SMILES O=C(CCCCCCOc1ccc2ncnc(Nc3ccc(F)c(Cl)c3)c2c1)NO
REMARK SMILES IDX 6 1 5 2 4 3 3 4 2 5 1 6 29 7 30 9 7 11 8 12 9 13 10 14 11 15
REMARK SMILES IDX 28 16 12 17 27 18 13 19 17 20 14 21 16 22 15 23 18 24 19 26
REMARK SMILES IDX 20 27 26 28 21 29 24 30 22 31 25 32 23 33
REMARK H PARENT 29 8 30 10 18 25
ROOT
ATOM      1  C   UNL     1      11.701   1.610  30.473  1.00  0.00     0.004 C 
ENDROOT
BRANCH   1   2
ATOM      2  C   UNL     1      11.537   1.142  31.920  1.00  0.00     0.001 C 
BRANCH   2   3
ATOM      3  C   UNL     1      10.061   0.930  32.271  1.00  0.00     0.010 C 
BRANCH   3   4
ATOM      4  C   UNL     1       9.309   0.161  31.186  1.00  0.00     0.102 C 
BRANCH   4   5
ATOM      5  C   UNL     1       9.139  -1.312  31.499  1.00  0.00     0.243 C 
ATOM      6  O   UNL     1       8.129  -1.812  31.988  1.00  0.00    -0.273 OA
ATOM      7  N   UNL     1      10.248  -2.064  31.203  1.00  0.00    -0.238 N 
ATOM      8  H   UNL     1      11.113  -1.713  30.809  1.00  0.00     0.198 HD
BRANCH   7   9
ATOM      9  O   UNL     1      10.170  -3.446  31.477  1.00  0.00    -0.289 OA
ATOM     10  H   UNL     1      11.117  -3.699  31.542  1.00  0.00     0.246 HD
ENDBRANCH   7   9
ENDBRANCH   4   5
ENDBRANCH   3   4
ENDBRANCH   2   3
ENDBRANCH   1   2
BRANCH   1  11
ATOM     11  C   UNL     1      13.143   2.018  30.182  1.00  0.00     0.042 C 
BRANCH  11  12
ATOM     12  C   UNL     1      13.432   2.036  28.683  1.00  0.00     0.229 C 
BRANCH  12  13
ATOM     13  O   UNL     1      14.287   0.930  28.390  1.00  0.00    -0.494 OA
BRANCH  13  14
ATOM     14  C   UNL     1      15.300   1.143  27.499  1.00  0.00     0.120 A 
ATOM     15  C   UNL     1      16.310   0.251  27.173  1.00  0.00     0.048 A 
ATOM     16  C   UNL     1      15.281   2.394  26.879  1.00  0.00     0.060 A 
ATOM     17  C   UNL     1      17.280   0.611  26.230  1.00  0.00     0.033 A 
ATOM     18  C   UNL     1      16.271   2.768  25.933  1.00  0.00     0.047 A 
ATOM     19  C   UNL     1      17.276   1.850  25.602  1.00  0.00     0.076 A 
ATOM     20  C   UNL     1      16.337   4.008  25.264  1.00  0.00     0.141 A 
ATOM     21  N   UNL     1      18.231   2.111  24.707  1.00  0.00    -0.236 NA
ATOM     22  N   UNL     1      17.285   4.268  24.344  1.00  0.00    -0.219 NA
ATOM     23  C   UNL     1      18.186   3.309  24.116  1.00  0.00     0.224 A 
BRANCH  20  24
ATOM     24  N   UNL     1      15.383   5.009  25.560  1.00  0.00    -0.340 N 
ATOM     25  H   UNL     1      15.771   5.755  26.121  1.00  0.00     0.168 HD
BRANCH  24  26
ATOM     26  C   UNL     1      14.148   5.307  24.956  1.00  0.00     0.041 A 
ATOM     27  C   UNL     1      13.623   4.567  23.887  1.00  0.00     0.029 A 
ATOM     28  C   UNL     1      13.378   6.363  25.471  1.00  0.00     0.049 A 
ATOM     29  C   UNL     1      12.380   4.883  23.329  1.00  0.00     0.043 A 
ATOM     30  C   UNL     1      12.135   6.680  24.915  1.00  0.00     0.078 A 
ATOM     31  C   UNL     1      11.644   5.939  23.846  1.00  0.00     0.141 A 
ATOM     32  Cl  UNL     1      11.226   7.988  25.571  1.00  0.00    -0.081 Cl
ATOM     33  F   UNL     1      10.452   6.227  23.299  1.00  0.00    -0.205 F 
ENDBRANCH  24  26
ENDBRANCH  20  24
ENDBRANCH  13  14
ENDBRANCH  12  13
ENDBRANCH  11  12
ENDBRANCH   1  11
TORSDOF 11
ENDMDL
MODEL 9
REMARK VINA RESULT:    -8.176      4.276      6.660
REMARK INTER + INTRA:         -14.125
REMARK INTER:                 -12.360
REMARK INTRA:                  -1.765
REMARK UNBOUND:                -0.930
REMARK SMILES O=C(CCCCCCOc1ccc2ncnc(Nc3ccc(F)c(Cl)c3)c2c1)NO
REMARK SMILES IDX 6 1 5 2 4 3 3 4 2 5 1 6 29 7 30 9 7 11 8 12 9 13 10 14 11 15
REMARK SMILES IDX 28 16 12 17 27 18 13 19 17 20 14 21 16 22 15 23 18 24 19 26
REMARK SMILES IDX 20 27 26 28 21 29 24 30 22 31 25 32 23 33
REMARK H PARENT 29 8 30 10 18 25
ROOT
ATOM      1  C   UNL     1      16.017   1.893  27.352  1.00  0.00     0.004 C 
ENDROOT
BRANCH   1   2
ATOM      2  C   UNL     1      14.553   1.510  27.576  1.00  0.00     0.001 C 
BRANCH   2   3
ATOM      3  C   UNL     1      14.039   2.038  28.919  1.00  0.00     0.010 C 
BRANCH   3   4
ATOM      4  C   UNL     1      12.607   2.563  28.828  1.00  0.00     0.102 C 
BRANCH   4   5
ATOM      5  C   UNL     1      11.560   1.518  29.154  1.00  0.00     0.243 C 
ATOM      6  O   UNL     1      11.803   0.345  29.426  1.00  0.00    -0.273 OA
ATOM      7  N   UNL     1      10.276   1.997  29.097  1.00  0.00    -0.238 N 
ATOM      8  H   UNL     1      10.007   2.947  28.870  1.00  0.00     0.198 HD
BRANCH   7   9
ATOM      9  O   UNL     1       9.242   1.077  29.378  1.00  0.00    -0.289 OA
ATOM     10  H   UNL     1       8.875   0.898  28.484  1.00  0.00     0.246 HD
ENDBRANCH   7   9
ENDBRANCH   4   5
ENDBRANCH   3   4
ENDBRANCH   2   3
ENDBRANCH   1   2
BRANCH   1  11
ATOM     11  C   UNL     1      16.740   0.852  26.501  1.00  0.00     0.042 C 
BRANCH  11  12
ATOM     12  C   UNL     1      17.968   1.441  25.812  1.00  0.00     0.229 C 
BRANCH  12  13
ATOM     13  O   UNL     1      17.591   1.804  24.483  1.00  0.00    -0.494 OA
BRANCH  13  14
ATOM     14  C   UNL     1      17.954   3.046  24.048  1.00  0.00     0.120 A 
ATOM     15  C   UNL     1      18.945   3.337  23.122  1.00  0.00     0.048 A 
ATOM     16  C   UNL     1      17.236   4.099  24.617  1.00  0.00     0.060 A 
ATOM     17  C   UNL     1      19.198   4.668  22.768  1.00  0.00     0.033 A 
ATOM     18  C   UNL     1      17.500   5.451  24.272  1.00  0.00     0.047 A 
ATOM     19  C   UNL     1      18.492   5.728  23.323  1.00  0.00     0.076 A 
ATOM     20  C   UNL     1      16.833   6.576  24.799  1.00  0.00     0.141 A 
ATOM     21  N   UNL     1      18.790   6.966  22.924  1.00  0.00    -0.236 NA
ATOM     22  N   UNL     1      17.114   7.826  24.384  1.00  0.00    -0.219 NA
ATOM     23  C   UNL     1      18.080   7.958  23.472  1.00  0.00     0.224 A 
BRANCH  20  24
ATOM     24  N   UNL     1      15.839   6.394  25.788  1.00  0.00    -0.340 N 
ATOM     25  H   UNL     1      16.124   6.754  26.689  1.00  0.00     0.168 HD
BRANCH  24  26
ATOM     26  C   UNL     1      14.463   6.129  25.668  1.00  0.00     0.041 A 
ATOM     27  C   UNL     1      13.897   4.883  25.971  1.00  0.00     0.029 A 
ATOM     28  C   UNL     1      13.603   7.168  25.274  1.00  0.00     0.049 A 
ATOM     29  C   UNL     1      12.519   4.667  25.860  1.00  0.00     0.043 A 
ATOM     30  C   UNL     1      12.226   6.954  25.162  1.00  0.00     0.078 A 
ATOM     31  C   UNL     1      11.692   5.704  25.454  1.00  0.00     0.141 A 
ATOM     32  Cl  UNL     1      11.208   8.252  24.666  1.00  0.00    -0.081 Cl
ATOM     33  F   UNL     1      10.373   5.480  25.355  1.00  0.00    -0.205 F 
ENDBRANCH  24  26
ENDBRANCH  20  24
ENDBRANCH  13  14
ENDBRANCH  12  13
ENDBRANCH  11  12
ENDBRANCH   1  11
TORSDOF 11
ENDMDL
