REMARK SMILES N[P@@](=O)(OCCCC(=O)Oc1ccc2ncnc(Nc3ccc(OCc4cccc(F)c4)c(Cl)c3)c2c1)N(CCCl)CCCl
REMARK SMILES IDX 8 1 9 2 7 3 6 4 5 5 4 6 2 7 3 8 1 9 38 12 39 13 40 14 41 15
REMARK SMILES IDX 42 16 43 17 44 18 10 19 11 20 12 21 37 22 13 23 36 24 14 25
REMARK SMILES IDX 18 26 15 27 17 28 16 29 19 30 20 32 21 33 35 34 22 35 33 36
REMARK SMILES IDX 23 37 34 38 24 39 25 40 26 41 27 42 32 43 28 44 30 45 29 46
REMARK SMILES IDX 31 47
REMARK H PARENT 1 10 1 11 19 31
ROOT
ATOM      1  C   UNL     1      -2.376  -0.018  -0.916  1.00  0.00     0.311 C 
ATOM      2  O   UNL     1      -1.571  -0.807  -1.391  1.00  0.00    -0.252 OA
ENDROOT
BRANCH   1   3
ATOM      3  C   UNL     1      -3.563  -0.390  -0.060  1.00  0.00     0.125 C 
BRANCH   3   4
ATOM      4  C   UNL     1      -3.757  -1.906   0.015  1.00  0.00     0.041 C 
BRANCH   4   5
ATOM      5  C   UNL     1      -4.961  -2.280   0.870  1.00  0.00     0.172 C 
BRANCH   5   6
ATOM      6  O   UNL     1      -6.131  -1.736   0.282  1.00  0.00    -0.306 OA
BRANCH   6   7
ATOM      7  P   UNL     1      -7.521  -1.865   1.087  1.00  0.00     0.340 P 
ATOM      8  O   UNL     1      -7.324  -1.724   2.562  1.00  0.00    -0.256 OA
BRANCH   7   9
ATOM      9  N   UNL     1      -8.103  -3.305   0.600  1.00  0.00    -0.246 NA
ATOM     10  H   UNL     1      -7.573  -4.080   0.980  1.00  0.00     0.130 HD
ATOM     11  H   UNL     1      -8.061  -3.397  -0.408  1.00  0.00     0.130 HD
ENDBRANCH   7   9
BRANCH   7  12
ATOM     12  N   UNL     1      -8.538  -0.768   0.407  1.00  0.00    -0.217 NA
BRANCH  12  13
ATOM     13  C   UNL     1      -9.782  -0.456   1.142  1.00  0.00     0.111 C 
BRANCH  13  14
ATOM     14  C   UNL     1     -10.661  -1.677   1.437  1.00  0.00     0.125 C 
ATOM     15  Cl  UNL     1     -12.206  -1.162   2.167  1.00  0.00    -0.125 Cl
ENDBRANCH  13  14
ENDBRANCH  12  13
BRANCH  12  16
ATOM     16  C   UNL     1      -7.928   0.475  -0.105  1.00  0.00     0.111 C 
BRANCH  16  17
ATOM     17  C   UNL     1      -7.230   1.336   0.954  1.00  0.00     0.125 C 
ATOM     18  Cl  UNL     1      -6.416   2.723   0.183  1.00  0.00    -0.125 Cl
ENDBRANCH  16  17
ENDBRANCH  12  16
ENDBRANCH   7  12
ENDBRANCH   6   7
ENDBRANCH   5   6
ENDBRANCH   4   5
ENDBRANCH   3   4
ENDBRANCH   1   3
BRANCH   1  19
ATOM     19  O   UNL     1      -2.356   1.368  -1.052  1.00  0.00    -0.427 OA
BRANCH  19  20
ATOM     20  C   UNL     1      -1.344   1.869  -1.875  1.00  0.00     0.131 A 
ATOM     21  C   UNL     1      -1.719   2.504  -3.048  1.00  0.00     0.049 A 
ATOM     22  C   UNL     1      -0.007   1.812  -1.494  1.00  0.00     0.061 A 
ATOM     23  C   UNL     1      -0.729   3.050  -3.867  1.00  0.00     0.033 A 
ATOM     24  C   UNL     1       0.995   2.379  -2.324  1.00  0.00     0.047 A 
ATOM     25  C   UNL     1       0.619   2.994  -3.531  1.00  0.00     0.076 A 
ATOM     26  C   UNL     1       2.379   2.380  -2.052  1.00  0.00     0.141 A 
ATOM     27  N   UNL     1       1.500   3.534  -4.375  1.00  0.00    -0.236 NA
ATOM     28  N   UNL     1       3.271   2.906  -2.910  1.00  0.00    -0.219 NA
ATOM     29  C   UNL     1       2.787   3.457  -4.027  1.00  0.00     0.224 A 
BRANCH  26  30
ATOM     30  N   UNL     1       2.853   1.809  -0.849  1.00  0.00    -0.340 N 
ATOM     31  H   UNL     1       2.279   2.052  -0.053  1.00  0.00     0.168 HD
BRANCH  30  32
ATOM     32  C   UNL     1       4.112   1.275  -0.525  1.00  0.00     0.041 A 
ATOM     33  C   UNL     1       4.431   1.053   0.822  1.00  0.00     0.030 A 
ATOM     34  C   UNL     1       5.056   0.902  -1.485  1.00  0.00     0.050 A 
ATOM     35  C   UNL     1       5.662   0.502   1.204  1.00  0.00     0.050 A 
ATOM     36  C   UNL     1       6.287   0.350  -1.111  1.00  0.00     0.085 A 
ATOM     37  C   UNL     1       6.607   0.149   0.239  1.00  0.00     0.138 A 
ATOM     38  Cl  UNL     1       7.399  -0.074  -2.368  1.00  0.00    -0.080 Cl
BRANCH  37  39
ATOM     39  O   UNL     1       7.832  -0.400   0.511  1.00  0.00    -0.487 OA
BRANCH  39  40
ATOM     40  C   UNL     1       8.239  -0.477   1.874  1.00  0.00     0.265 C 
BRANCH  40  41
ATOM     41  C   UNL     1       9.654  -0.996   1.911  1.00  0.00    -0.008 A 
ATOM     42  C   UNL     1      10.730  -0.145   1.604  1.00  0.00     0.007 A 
ATOM     43  C   UNL     1       9.919  -2.337   2.219  1.00  0.00     0.046 A 
ATOM     44  C   UNL     1      12.044  -0.621   1.627  1.00  0.00     0.003 A 
ATOM     45  C   UNL     1      11.231  -2.799   2.238  1.00  0.00     0.123 A 
ATOM     46  C   UNL     1      12.295  -1.953   1.949  1.00  0.00     0.039 A 
ATOM     47  F   UNL     1      11.472  -4.081   2.542  1.00  0.00    -0.207 F 
ENDBRANCH  40  41
ENDBRANCH  39  40
ENDBRANCH  37  39
ENDBRANCH  30  32
ENDBRANCH  26  30
ENDBRANCH  19  20
ENDBRANCH   1  19
TORSDOF 18
