REMARK SMILES CC#CC(=O)Nc1cc2c(Nc3ccc(F)c(Cl)c3)ncnc2cn1
REMARK SMILES IDX 7 1 8 2 9 3 10 4 20 5 21 6 22 7 23 8 24 9 25 10 6 11 3 12
REMARK SMILES IDX 4 13 5 14 2 16 1 17 11 18 12 20 13 21 19 22 14 23 17 24
REMARK SMILES IDX 15 25 18 26 16 27
REMARK H PARENT 6 15 11 19
ROOT
ATOM      1  C   UNL     1       1.493  -0.830   1.067  1.00  0.00     0.134 A 
ATOM      2  C   UNL     1       0.305  -1.060   0.395  1.00  0.00     0.061 A 
ATOM      3  C   UNL     1      -0.581  -2.076   0.843  1.00  0.00     0.048 A 
ATOM      4  C   UNL     1      -1.827  -2.405   0.277  1.00  0.00     0.141 A 
ATOM      5  N   UNL     1      -2.542  -3.472   0.683  1.00  0.00    -0.219 NA
ATOM      6  C   UNL     1      -2.059  -4.165   1.717  1.00  0.00     0.224 A 
ATOM      7  N   UNL     1      -0.925  -3.908   2.372  1.00  0.00    -0.235 NA
ATOM      8  C   UNL     1      -0.196  -2.876   1.920  1.00  0.00     0.094 A 
ATOM      9  C   UNL     1       1.015  -2.560   2.511  1.00  0.00     0.142 A 
ATOM     10  N   UNL     1       1.859  -1.565   2.130  1.00  0.00    -0.237 NA
ENDROOT
BRANCH   1  11
ATOM     11  N   UNL     1       2.412   0.159   0.729  1.00  0.00    -0.300 N 
ATOM     12  C   UNL     1       3.468   1.978  -0.343  1.00  0.00    -0.005 C 
ATOM     13  C   UNL     1       2.331   1.082  -0.277  1.00  0.00     0.301 C 
ATOM     14  O   UNL     1       1.433   1.221  -1.093  1.00  0.00    -0.259 OA
ATOM     15  H   UNL     1       3.223   0.175   1.332  1.00  0.00     0.172 HD
BRANCH  12  16
ATOM     16  C   UNL     1       4.412   2.720  -0.394  1.00  0.00    -0.096 C 
ATOM     17  C   UNL     1       5.553   3.632  -0.466  1.00  0.00     0.108 C 
ENDBRANCH  12  16
ENDBRANCH   1  11
BRANCH   4  18
ATOM     18  N   UNL     1      -2.442  -1.684  -0.752  1.00  0.00    -0.340 N 
ATOM     19  H   UNL     1      -3.213  -2.230  -1.125  1.00  0.00     0.168 HD
BRANCH  18  20
ATOM     20  C   UNL     1      -2.580  -0.305  -0.989  1.00  0.00     0.041 A 
ATOM     21  C   UNL     1      -2.840   0.129  -2.298  1.00  0.00     0.029 A 
ATOM     22  C   UNL     1      -2.466   0.655   0.026  1.00  0.00     0.049 A 
ATOM     23  C   UNL     1      -2.967   1.489  -2.591  1.00  0.00     0.043 A 
ATOM     24  C   UNL     1      -2.589   2.016  -0.267  1.00  0.00     0.078 A 
ATOM     25  C   UNL     1      -2.837   2.426  -1.573  1.00  0.00     0.141 A 
ATOM     26  Cl  UNL     1      -2.440   3.169   1.004  1.00  0.00    -0.081 Cl
ATOM     27  F   UNL     1      -2.967   3.727  -1.873  1.00  0.00    -0.205 F 
ENDBRANCH  18  20
ENDBRANCH   4  18
TORSDOF 4
