REMARK SMILES C1=C/Cn2ccc3ccc(cc32)-c2ccnc(n2)Nc2cccc(c2)COC/1
REMARK SMILES IDX 19 1 17 3 13 4 14 5 18 6 15 7 16 8 10 9 4 10 5 11 12 12 6 13
REMARK SMILES IDX 11 14 7 15 8 16 9 17 3 18 2 19 1 20 20 22 21 23 25 24 22 25
REMARK SMILES IDX 24 26 23 27 26 28 27 29 28 30
REMARK H PARENT 19 2
REMARK Flexibility Score:   68.900
ROOT
ATOM      1  N   UNL     1       2.789  -2.616   0.266  1.00  0.00    -0.324 N 
ATOM      2  H   UNL     1       3.432  -3.367   0.465  1.00  0.00     0.170 HD
ENDROOT
BRANCH   1   3
ATOM      3  C   UNL     1       1.491  -3.120   0.249  1.00  0.00     0.227 A 
ATOM      4  C   UNL     1      -0.798  -2.887  -0.009  1.00  0.00     0.076 A 
ATOM      5  C   UNL     1      -0.986  -4.234   0.216  1.00  0.00     0.049 A 
ATOM      6  N   UNL     1       0.433  -2.334   0.017  1.00  0.00    -0.213 NA
ATOM      7  C   UNL     1       0.149  -4.966   0.459  1.00  0.00     0.117 A 
ATOM      8  N   UNL     1       1.386  -4.439   0.477  1.00  0.00    -0.221 NA
BRANCH   4   9
ATOM      9  C   UNL     1      -1.906  -1.954  -0.289  1.00  0.00     0.002 A 
ATOM     10  N   UNL     1      -3.194   1.526   0.389  1.00  0.00    -0.344 N 
ATOM     11  C   UNL     1      -4.367   1.982  -0.162  1.00  0.00     0.087 A 
ATOM     12  C   UNL     1      -2.953   0.229  -0.020  1.00  0.00     0.049 A 
ATOM     13  C   UNL     1      -4.897   0.971  -0.928  1.00  0.00     0.028 A 
ATOM     14  C   UNL     1      -1.892  -0.652   0.258  1.00  0.00     0.037 A 
ATOM     15  C   UNL     1      -4.019  -0.142  -0.842  1.00  0.00    -0.000 A 
ATOM     16  C   UNL     1      -4.033  -1.435  -1.395  1.00  0.00     0.011 A 
ATOM     17  C   UNL     1      -2.983  -2.320  -1.112  1.00  0.00     0.011 A 
BRANCH  10  18
ATOM     18  C   UNL     1      -2.375   2.302   1.317  1.00  0.00     0.149 C 
BRANCH  18  19
ATOM     19  C   UNL     1      -1.278   3.053   0.618  1.00  0.00    -0.007 C 
ATOM     20  C   UNL     1      -0.025   3.153   1.091  1.00  0.00    -0.001 CG0
ATOM     21  G   UNL     1       1.087   3.900   0.419  1.00  0.00     0.000 G0
ENDBRANCH  18  19
ENDBRANCH  10  18
ENDBRANCH   4   9
ENDBRANCH   1   3
BRANCH   1  22
ATOM     22  C   UNL     1       3.334  -1.345   0.056  1.00  0.00     0.041 A 
ATOM     23  C   UNL     1       4.723  -1.179   0.163  1.00  0.00     0.026 A 
ATOM     24  C   UNL     1       2.571  -0.213  -0.253  1.00  0.00     0.032 A 
ATOM     25  C   UNL     1       5.324   0.069  -0.027  1.00  0.00     0.003 A 
ATOM     26  C   UNL     1       3.157   1.048  -0.456  1.00  0.00    -0.020 A 
ATOM     27  C   UNL     1       4.543   1.180  -0.333  1.00  0.00     0.006 A 
BRANCH  26  28
ATOM     28  C   UNL     1       2.291   2.239  -0.769  1.00  0.00     0.196 C 
BRANCH  28  29
ATOM     29  O   UNL     1       2.243   3.072   0.386  1.00  0.00    -0.373 OA
BRANCH  29  30
ATOM     30  C   UNL     1       1.087   3.900   0.419  1.00  0.00     0.188 CG0
ATOM     31  G   UNL     1      -0.025   3.153   1.091  1.00  0.00     0.000 G0
ENDBRANCH  29  30
ENDBRANCH  28  29
ENDBRANCH  26  28
ENDBRANCH   1  22
TORSDOF 0
