REMARK SMILES NC(=O)c1ccc2c(c1)nc([C@H]1CC[C@H](O)CC1)n2CCCO
REMARK SMILES IDX 20 1 19 2 4 3 5 4 9 5 6 6 8 7 7 8 10 9 11 10 2 11 1 12 3 13
REMARK SMILES IDX 12 16 18 17 13 18 17 19 14 20 15 21 16 22 21 24 22 25 23 26
REMARK H PARENT 1 14 1 15 16 23 23 27
ROOT
ATOM      1  C   UNL     1      -0.549  -2.090   1.262  1.00  0.00     0.126 C 
ENDROOT
BRANCH   1   2
ATOM      2  N   UNL     1      -0.460  -0.796   0.608  1.00  0.00    -0.328 N 
ATOM      3  C   UNL     1      -3.099   2.248  -0.231  1.00  0.00     0.041 A 
ATOM      4  C   UNL     1      -3.650   1.148   0.441  1.00  0.00     0.016 A 
ATOM      5  C   UNL     1      -1.741   2.259  -0.585  1.00  0.00     0.044 A 
ATOM      6  C   UNL     1      -2.862   0.044   0.793  1.00  0.00     0.029 A 
ATOM      7  C   UNL     1      -0.944   1.163  -0.231  1.00  0.00     0.090 A 
ATOM      8  C   UNL     1      -1.507   0.086   0.441  1.00  0.00     0.068 A 
ATOM      9  N   UNL     1       0.392   0.960  -0.445  1.00  0.00    -0.233 NA
ATOM     10  C   UNL     1       0.679  -0.215   0.081  1.00  0.00     0.112 A 
BRANCH   3  11
ATOM     11  C   UNL     1      -3.922   3.424  -0.613  1.00  0.00     0.248 C 
ATOM     12  N   UNL     1      -5.013   3.708   0.160  1.00  0.00    -0.366 N 
ATOM     13  O   UNL     1      -3.628   4.135  -1.565  1.00  0.00    -0.270 OA
ATOM     14  H   UNL     1      -5.247   3.221   1.012  1.00  0.00     0.159 HD
ATOM     15  H   UNL     1      -5.561   4.518  -0.099  1.00  0.00     0.159 HD
ENDBRANCH   3  11
BRANCH  10  16
ATOM     16  C   UNL     1       2.057  -0.833   0.130  1.00  0.00     0.056 C 
ATOM     17  C   UNL     1       2.827  -0.634  -1.188  1.00  0.00     0.014 C 
ATOM     18  C   UNL     1       2.850  -0.312   1.337  1.00  0.00     0.014 C 
ATOM     19  C   UNL     1       3.408   0.772  -1.369  1.00  0.00     0.032 C 
ATOM     20  C   UNL     1       3.390   1.106   1.138  1.00  0.00     0.032 C 
ATOM     21  C   UNL     1       4.200   1.235  -0.149  1.00  0.00     0.114 C 
BRANCH  21  22
ATOM     22  O   UNL     1       5.382   0.442  -0.023  1.00  0.00    -0.393 OA
ATOM     23  H   UNL     1       5.917   0.601  -0.820  1.00  0.00     0.210 HD
ENDBRANCH  21  22
ENDBRANCH  10  16
ENDBRANCH   1   2
BRANCH   1  24
ATOM     24  C   UNL     1      -0.657  -3.266   0.288  1.00  0.00     0.050 C 
BRANCH  24  25
ATOM     25  C   UNL     1      -1.973  -3.314  -0.478  1.00  0.00     0.158 C 
BRANCH  25  26
ATOM     26  O   UNL     1      -3.055  -3.420   0.436  1.00  0.00    -0.396 OA
ATOM     27  H   UNL     1      -3.865  -3.507  -0.098  1.00  0.00     0.210 HD
ENDBRANCH  25  26
ENDBRANCH  24  25
ENDBRANCH   1  24
TORSDOF 7
