REMARK SMILES CN(c1ncnc2[nH]ccc12)[C@H]1CN(C(=O)Nc2ccc(Cl)cc2Cl)CC12CC2
REMARK SMILES IDX 12 1 13 2 14 3 26 4 27 5 28 6 29 7 2 8 1 9 3 10 4 11 11 12
REMARK SMILES IDX 5 13 10 14 7 15 6 16 9 17 8 18 15 20 16 21 17 22 18 24 19 25
REMARK SMILES IDX 24 26 20 27 23 28 21 29 25 30 22 31
REMARK H PARENT 8 19 17 23
ROOT
ATOM      1  C   UNL     1      -1.115   0.393   1.307  1.00  0.00     0.111 C 
ATOM      2  C   UNL     1       0.255  -0.250   1.037  1.00  0.00     0.147 C 
ATOM      3  N   UNL     1       1.217   0.848   0.978  1.00  0.00    -0.322 N 
ATOM      4  C   UNL     1       0.684   2.067   1.556  1.00  0.00     0.130 C 
ATOM      5  C   UNL     1      -0.762   1.766   1.859  1.00  0.00     0.010 C 
ATOM      6  C   UNL     1      -1.787   2.884   1.955  1.00  0.00     0.012 C 
ATOM      7  C   UNL     1      -1.331   2.196   3.203  1.00  0.00     0.012 C 
ENDROOT
BRANCH   1   8
ATOM      8  N   UNL     1      -1.940   0.459   0.092  1.00  0.00    -0.354 N 
ATOM      9  C   UNL     1      -1.647   1.400  -0.974  1.00  0.00     0.145 C 
BRANCH   8  10
ATOM     10  C   UNL     1      -2.763  -0.634  -0.169  1.00  0.00     0.141 A 
ATOM     11  N   UNL     1      -2.545  -1.782   0.539  1.00  0.00    -0.219 NA
ATOM     12  C   UNL     1      -3.815  -0.670  -1.119  1.00  0.00     0.061 A 
ATOM     13  C   UNL     1      -3.301  -2.871   0.304  1.00  0.00     0.226 A 
ATOM     14  C   UNL     1      -4.439   0.235  -2.034  1.00  0.00     0.033 A 
ATOM     15  C   UNL     1      -4.506  -1.868  -1.250  1.00  0.00     0.142 A 
ATOM     16  N   UNL     1      -4.299  -3.007  -0.577  1.00  0.00    -0.218 NA
ATOM     17  C   UNL     1      -5.449  -0.437  -2.690  1.00  0.00     0.085 A 
ATOM     18  N   UNL     1      -5.474  -1.716  -2.204  1.00  0.00    -0.346 N 
ATOM     19  H   UNL     1      -6.109  -2.451  -2.479  1.00  0.00     0.167 HD
ENDBRANCH   8  10
ENDBRANCH   1   8
BRANCH   3  20
ATOM     20  C   UNL     1       2.517   0.827   0.519  1.00  0.00     0.321 C 
ATOM     21  O   UNL     1       3.200   1.848   0.527  1.00  0.00    -0.248 OA
ATOM     22  N   UNL     1       2.948  -0.401   0.083  1.00  0.00    -0.306 N 
ATOM     23  H   UNL     1       2.310  -1.175   0.194  1.00  0.00     0.171 HD
BRANCH  22  24
ATOM     24  C   UNL     1       4.199  -0.751  -0.479  1.00  0.00     0.061 A 
ATOM     25  C   UNL     1       5.221   0.172  -0.721  1.00  0.00     0.029 A 
ATOM     26  C   UNL     1       4.423  -2.101  -0.818  1.00  0.00     0.066 A 
ATOM     27  C   UNL     1       6.434  -0.242  -1.283  1.00  0.00     0.023 A 
ATOM     28  C   UNL     1       5.632  -2.517  -1.379  1.00  0.00     0.043 A 
ATOM     29  C   UNL     1       6.634  -1.581  -1.608  1.00  0.00     0.042 A 
ATOM     30  Cl  UNL     1       3.200  -3.300  -0.549  1.00  0.00    -0.082 Cl
ATOM     31  Cl  UNL     1       8.129  -2.079  -2.299  1.00  0.00    -0.084 Cl
ENDBRANCH  22  24
ENDBRANCH   3  20
TORSDOF 4
