REMARK SMILES CCC(CC)n1cc(-c2nc(-c3cnn(C[C@H](O)CN4CC(OC)C4)c3)cn3nccc23)cn1
REMARK SMILES IDX 12 1 13 2 14 3 15 4 26 5 11 6 9 7 10 8 32 9 31 10 28 11
REMARK SMILES IDX 27 12 30 13 29 14 8 15 6 16 7 17 34 18 33 19 3 20 2 21 1 22
REMARK SMILES IDX 4 23 5 24 16 25 17 26 18 27 19 29 20 30 21 31 25 32 22 33
REMARK SMILES IDX 23 34 24 35
REMARK H PARENT 18 28
ROOT
ATOM      1  C   UNL     1       0.908  -1.638  -0.454  1.00  0.00     0.040 A 
ATOM      2  C   UNL     1       1.218  -0.910  -1.623  1.00  0.00     0.145 A 
ATOM      3  N   UNL     1       2.404  -1.250  -2.140  1.00  0.00    -0.181 NA
ATOM      4  N   UNL     1       2.836  -2.226  -1.322  1.00  0.00    -0.269 N 
ATOM      5  C   UNL     1       1.987  -2.480  -0.282  1.00  0.00     0.119 A 
ENDROOT
BRANCH   1   6
ATOM      6  C   UNL     1      -0.264  -1.543   0.363  1.00  0.00     0.092 A 
ATOM      7  C   UNL     1      -2.462  -0.813   0.393  1.00  0.00     0.100 A 
ATOM      8  N   UNL     1      -1.342  -0.939  -0.262  1.00  0.00    -0.244 NA
ATOM      9  C   UNL     1      -2.620  -1.299   1.740  1.00  0.00     0.093 A 
ATOM     10  C   UNL     1      -3.647  -1.402   2.651  1.00  0.00     0.052 A 
ATOM     11  N   UNL     1      -1.511  -1.871   2.333  1.00  0.00    -0.237 N 
ATOM     12  C   UNL     1      -0.329  -1.993   1.628  1.00  0.00     0.142 A 
ATOM     13  C   UNL     1      -3.062  -1.996   3.781  1.00  0.00     0.136 A 
ATOM     14  N   UNL     1      -1.770  -2.269   3.602  1.00  0.00    -0.176 NA
BRANCH   7  15
ATOM     15  C   UNL     1      -3.557  -0.167  -0.303  1.00  0.00     0.040 A 
ATOM     16  N   UNL     1      -5.387   0.930  -0.882  1.00  0.00    -0.269 N 
ATOM     17  C   UNL     1      -4.655   0.508   0.196  1.00  0.00     0.119 A 
ATOM     18  N   UNL     1      -4.829   0.597  -2.058  1.00  0.00    -0.181 NA
ATOM     19  C   UNL     1      -3.715  -0.048  -1.707  1.00  0.00     0.145 A 
BRANCH  16  20
ATOM     20  C   UNL     1      -6.654   1.658  -0.870  1.00  0.00     0.107 C 
BRANCH  20  21
ATOM     21  C   UNL     1      -7.771   0.854  -0.171  1.00  0.00     0.024 C 
ATOM     22  C   UNL     1      -8.097  -0.454  -0.883  1.00  0.00     0.006 C 
ENDBRANCH  20  21
BRANCH  20  23
ATOM     23  C   UNL     1      -6.512   3.053  -0.229  1.00  0.00     0.024 C 
ATOM     24  C   UNL     1      -5.569   3.970  -0.998  1.00  0.00     0.006 C 
ENDBRANCH  20  23
ENDBRANCH  16  20
ENDBRANCH   7  15
ENDBRANCH   1   6
BRANCH   4  25
ATOM     25  C   UNL     1       4.090  -2.892  -1.598  1.00  0.00     0.177 C 
BRANCH  25  26
ATOM     26  C   UNL     1       5.298  -1.956  -1.621  1.00  0.00     0.150 C 
BRANCH  26  27
ATOM     27  O   UNL     1       6.470  -2.743  -1.906  1.00  0.00    -0.390 OA
ATOM     28  H   UNL     1       7.220  -2.157  -1.679  1.00  0.00     0.211 HD
ENDBRANCH  26  27
BRANCH  26  29
ATOM     29  C   UNL     1       5.511  -1.226  -0.276  1.00  0.00     0.118 C 
BRANCH  29  30
ATOM     30  N   UNL     1       6.800  -0.506  -0.297  1.00  0.00    -0.295 NA
ATOM     31  C   UNL     1       6.657   0.816  -0.974  1.00  0.00     0.118 C 
ATOM     32  C   UNL     1       7.000   0.226   0.984  1.00  0.00     0.118 C 
ATOM     33  C   UNL     1       7.527   1.425   0.155  1.00  0.00     0.145 C 
BRANCH  33  34
ATOM     34  O   UNL     1       7.160   2.751   0.600  1.00  0.00    -0.379 OA
ATOM     35  C   UNL     1       7.889   3.245   1.715  1.00  0.00     0.195 C 
ENDBRANCH  33  34
ENDBRANCH  29  30
ENDBRANCH  26  29
ENDBRANCH  25  26
ENDBRANCH   4  25
TORSDOF 11
