REMARK SMILES C#CCN(Cc1ccc2cccc(O)c2n1)[C@@H](C#N)CC1CCN(Cc2ccccc2)CC1
REMARK SMILES IDX 17 1 18 2 19 3 4 4 3 5 2 6 1 7 5 8 6 9 7 10 16 11 8 12 15 13
REMARK SMILES IDX 9 14 13 15 10 16 12 17 11 18 14 19 20 21 21 22 22 23 33 24
REMARK SMILES IDX 23 25 32 26 24 27 25 28 26 29 27 30 31 31 28 32 30 33 29 34
REMARK H PARENT 14 20
ROOT
ATOM      1  C   UNL     1      -0.657  -3.026   0.139  1.00  0.00     0.162 C 
ATOM      2  C   UNL     1      -0.313  -4.046  -0.898  1.00  0.00     0.081 C 
ATOM      3  N   UNL     1      -0.042  -4.842  -1.700  1.00  0.00    -0.197 NA
ENDROOT
BRANCH   1   4
ATOM      4  N   UNL     1      -1.587  -1.959  -0.344  1.00  0.00    -0.271 NA
BRANCH   4   5
ATOM      5  C   UNL     1      -2.753  -2.522  -1.075  1.00  0.00     0.176 C 
ATOM      6  C   UNL     1      -3.591  -3.432  -0.274  1.00  0.00    -0.091 C 
ATOM      7  C   UNL     1      -4.284  -4.167   0.376  1.00  0.00     0.005 C 
ENDBRANCH   4   5
BRANCH   4   8
ATOM      8  C   UNL     1      -2.036  -1.081   0.766  1.00  0.00     0.143 C 
BRANCH   8   9
ATOM      9  C   UNL     1      -2.931   0.076   0.344  1.00  0.00     0.055 A 
ATOM     10  C   UNL     1      -2.409   1.151  -0.370  1.00  0.00     0.026 A 
ATOM     11  N   UNL     1      -4.248  -0.013   0.666  1.00  0.00    -0.248 NA
ATOM     12  C   UNL     1      -3.264   2.178  -0.762  1.00  0.00     0.012 A 
ATOM     13  C   UNL     1      -5.072   0.984   0.279  1.00  0.00     0.112 A 
ATOM     14  C   UNL     1      -4.625   2.110  -0.440  1.00  0.00     0.004 A 
ATOM     15  C   UNL     1      -6.427   0.910   0.592  1.00  0.00     0.141 A 
ATOM     16  C   UNL     1      -5.537   3.117  -0.812  1.00  0.00     0.010 A 
ATOM     17  C   UNL     1      -7.339   1.898   0.231  1.00  0.00     0.048 A 
ATOM     18  C   UNL     1      -6.890   3.009  -0.475  1.00  0.00     0.005 A 
BRANCH  15  19
ATOM     19  O   UNL     1      -6.898  -0.183   1.281  1.00  0.00    -0.506 OA
ATOM     20  H   UNL     1      -6.105  -0.748   1.395  1.00  0.00     0.293 HD
ENDBRANCH  15  19
ENDBRANCH   8   9
ENDBRANCH   4   8
ENDBRANCH   1   4
BRANCH   1  21
ATOM     21  C   UNL     1       0.681  -2.503   0.742  1.00  0.00     0.038 C 
BRANCH  21  22
ATOM     22  C   UNL     1       1.697  -1.833  -0.214  1.00  0.00    -0.006 C 
ATOM     23  C   UNL     1       1.204  -0.519  -0.831  1.00  0.00     0.019 C 
ATOM     24  C   UNL     1       3.018  -1.584   0.541  1.00  0.00     0.019 C 
ATOM     25  C   UNL     1       2.303   0.179  -1.641  1.00  0.00     0.085 C 
ATOM     26  C   UNL     1       4.042  -0.848  -0.326  1.00  0.00     0.085 C 
ATOM     27  N   UNL     1       3.544   0.411  -0.894  1.00  0.00    -0.299 NA
BRANCH  27  28
ATOM     28  C   UNL     1       3.402   1.493   0.094  1.00  0.00     0.120 C 
BRANCH  28  29
ATOM     29  C   UNL     1       4.721   1.958   0.673  1.00  0.00    -0.034 A 
ATOM     30  C   UNL     1       5.736   2.443  -0.167  1.00  0.00     0.005 A 
ATOM     31  C   UNL     1       4.946   1.927   2.057  1.00  0.00     0.005 A 
ATOM     32  C   UNL     1       6.949   2.879   0.365  1.00  0.00     0.000 A 
ATOM     33  C   UNL     1       6.160   2.364   2.587  1.00  0.00     0.000 A 
ATOM     34  C   UNL     1       7.161   2.840   1.741  1.00  0.00     0.000 A 
ENDBRANCH  28  29
ENDBRANCH  27  28
ENDBRANCH  21  22
ENDBRANCH   1  21
TORSDOF 9
