REMARK SMILES CC1=C[C@H]2Cc3nc4cc(Cl)ccc4c(NCCCCCCCCCNC(=O)c4ccc[nH]c4=O)c3[C@@H](C1)C2
REMARK SMILES IDX 21 1 20 2 19 3 18 4 17 5 16 6 15 8 2 9 3 10 38 11 4 12 37 13
REMARK SMILES IDX 5 14 39 15 36 16 6 17 7 18 14 19 8 20 13 21 9 22 12 23 10 24
REMARK SMILES IDX 1 25 11 26 22 27 23 28 24 29 25 30 26 31 27 32 28 33 29 35
REMARK SMILES IDX 30 36 34 37 31 38 33 39 35 40 32 41
REMARK H PARENT 16 7 26 34 33 42
ROOT
ATOM      1  C   UNL     1       2.185   0.384  -1.433  1.00  0.00     0.000 C 
ENDROOT
BRANCH   1   2
ATOM      2  C   UNL     1       1.211  -0.531  -0.687  1.00  0.00     0.000 C 
BRANCH   2   3
ATOM      3  C   UNL     1      -0.220  -0.338  -1.193  1.00  0.00     0.002 C 
BRANCH   3   4
ATOM      4  C   UNL     1      -1.195  -1.283  -0.484  1.00  0.00     0.021 C 
BRANCH   4   5
ATOM      5  C   UNL     1      -2.624  -1.160  -1.016  1.00  0.00     0.113 C 
BRANCH   5   6
ATOM      6  N   UNL     1      -3.237   0.079  -0.550  1.00  0.00    -0.384 N 
ATOM      7  H   UNL     1      -2.664   0.916  -0.590  1.00  0.00     0.160 HD
BRANCH   6   8
ATOM      8  C   UNL     1      -4.584   0.273  -0.910  1.00  0.00     0.049 A 
ATOM      9  C   UNL     1      -6.361   0.801   2.928  1.00  0.00    -0.076 C 
ATOM     10  C   UNL     1      -7.562   0.268   2.636  1.00  0.00    -0.024 C 
ATOM     11  C   UNL     1      -5.079   0.224   2.359  1.00  0.00     0.039 C 
ATOM     12  C   UNL     1      -7.731  -0.952   1.754  1.00  0.00     0.018 C 
ATOM     13  C   UNL     1      -5.303  -0.858   1.274  1.00  0.00     0.028 C 
ATOM     14  C   UNL     1      -8.100  -0.546   0.321  1.00  0.00     0.064 C 
ATOM     15  C   UNL     1      -6.446  -1.782   1.711  1.00  0.00     0.017 C 
ATOM     16  C   UNL     1      -5.606  -0.222  -0.078  1.00  0.00     0.001 A 
ATOM     17  C   UNL     1      -6.931  -0.034  -0.491  1.00  0.00     0.047 A 
ATOM     18  N   UNL     1      -7.264   0.574  -1.656  1.00  0.00    -0.252 NA
ATOM     19  C   UNL     1      -4.923   0.932  -2.123  1.00  0.00     0.024 A 
ATOM     20  C   UNL     1      -6.291   1.050  -2.442  1.00  0.00     0.074 A 
ATOM     21  C   UNL     1      -3.968   1.466  -3.023  1.00  0.00     0.014 A 
ATOM     22  C   UNL     1      -6.663   1.682  -3.619  1.00  0.00     0.049 A 
ATOM     23  C   UNL     1      -4.362   2.099  -4.201  1.00  0.00     0.021 A 
ATOM     24  C   UNL     1      -5.713   2.204  -4.492  1.00  0.00     0.043 A 
ATOM     25  C   UNL     1      -6.208   1.999   3.818  1.00  0.00     0.039 C 
ATOM     26  Cl  UNL     1      -6.216   2.981  -5.944  1.00  0.00    -0.084 Cl
ENDBRANCH   6   8
ENDBRANCH   5   6
ENDBRANCH   4   5
ENDBRANCH   3   4
ENDBRANCH   2   3
ENDBRANCH   1   2
BRANCH   1  27
ATOM     27  C   UNL     1       3.614   0.333  -0.886  1.00  0.00     0.000 C 
BRANCH  27  28
ATOM     28  C   UNL     1       4.269  -1.045  -1.017  1.00  0.00     0.002 C 
BRANCH  28  29
ATOM     29  C   UNL     1       5.774  -1.025  -0.733  1.00  0.00     0.021 C 
BRANCH  29  30
ATOM     30  C   UNL     1       6.116  -0.615   0.698  1.00  0.00     0.116 C 
BRANCH  30  31
ATOM     31  N   UNL     1       7.541  -0.682   0.942  1.00  0.00    -0.352 N 
ATOM     32  C   UNL     1       8.395   0.341   0.613  1.00  0.00     0.256 C 
ATOM     33  O   UNL     1       8.015   1.379   0.075  1.00  0.00    -0.269 OA
ATOM     34  H   UNL     1       7.926  -1.523   1.373  1.00  0.00     0.163 HD
BRANCH  32  35
ATOM     35  C   UNL     1       9.832   0.116   0.952  1.00  0.00     0.104 A 
ATOM     36  C   UNL     1      10.711   1.098   0.672  1.00  0.00     0.021 A 
ATOM     37  C   UNL     1      10.354  -1.133   1.588  1.00  0.00     0.260 A 
ATOM     38  C   UNL     1      12.119   0.966   0.972  1.00  0.00     0.019 A 
ATOM     39  N   UNL     1      11.710  -1.174   1.838  1.00  0.00    -0.328 N 
ATOM     40  O   UNL     1       9.627  -2.081   1.878  1.00  0.00    -0.269 OA
ATOM     41  C   UNL     1      12.575  -0.155   1.541  1.00  0.00     0.086 A 
ATOM     42  H   UNL     1      12.054  -2.024   2.269  1.00  0.00     0.169 HD
ENDBRANCH  32  35
ENDBRANCH  30  31
ENDBRANCH  29  30
ENDBRANCH  28  29
ENDBRANCH  27  28
ENDBRANCH   1  27
TORSDOF 12
