REMARK SMILES Cn1cc(-c2cn3nccc3c(-c3cnn([C@]4(CC#N)C[C@@H](C#N)C4)c3)n2)nn1
REMARK SMILES IDX 5 1 6 2 7 3 8 4 9 5 10 6 11 7 12 8 27 9 4 10 2 11 3 12 29 13
REMARK SMILES IDX 28 14 1 15 13 16 14 17 26 18 15 19 16 20 17 21 25 22 21 23
REMARK SMILES IDX 22 24 23 25 24 26 18 27 19 28 20 29
REMARK H PARENT
ROOT
ATOM      1  C   UNL     1       3.405  -0.796  -0.386  1.00  0.00     0.111 A 
ATOM      2  C   UNL     1       3.419  -2.072  -0.812  1.00  0.00     0.144 A 
ATOM      3  N   UNL     1       2.251  -2.806  -0.809  1.00  0.00    -0.237 N 
ATOM      4  N   UNL     1       2.067  -4.096  -1.179  1.00  0.00    -0.176 NA
ATOM      5  C   UNL     1       0.785  -4.343  -0.909  1.00  0.00     0.136 A 
ATOM      6  C   UNL     1       0.117  -3.221  -0.395  1.00  0.00     0.052 A 
ATOM      7  C   UNL     1       1.074  -2.230  -0.372  1.00  0.00     0.093 A 
ATOM      8  C   UNL     1       1.131  -0.851   0.029  1.00  0.00     0.100 A 
ATOM      9  N   UNL     1       2.241  -0.171   0.044  1.00  0.00    -0.242 NA
ENDROOT
BRANCH   1  10
ATOM     10  C   UNL     1       4.582   0.018  -0.353  1.00  0.00     0.133 A 
ATOM     11  N   UNL     1       6.026   1.595  -0.123  1.00  0.00    -0.255 N 
ATOM     12  C   UNL     1       4.704   1.328   0.051  1.00  0.00     0.141 A 
ATOM     13  N   UNL     1       6.689   0.530  -0.604  1.00  0.00    -0.067 NA
ATOM     14  N   UNL     1       5.807  -0.452  -0.750  1.00  0.00    -0.129 NA
ATOM     15  C   UNL     1       6.728   2.822   0.140  1.00  0.00     0.175 C 
ENDBRANCH   1  10
BRANCH   8  16
ATOM     16  C   UNL     1      -0.070  -0.157   0.444  1.00  0.00     0.040 A 
ATOM     17  C   UNL     1      -0.165   0.925   1.353  1.00  0.00     0.145 A 
ATOM     18  C   UNL     1      -1.376  -0.344   0.031  1.00  0.00     0.119 A 
ATOM     19  N   UNL     1      -1.421   1.339   1.543  1.00  0.00    -0.180 NA
ATOM     20  N   UNL     1      -2.136   0.567   0.711  1.00  0.00    -0.265 N 
BRANCH  20  21
ATOM     21  C   UNL     1      -3.626   0.647   0.659  1.00  0.00     0.078 C 
ATOM     22  C   UNL     1      -4.190   0.570  -0.795  1.00  0.00     0.050 C 
ATOM     23  C   UNL     1      -4.113   2.132   0.679  1.00  0.00     0.050 C 
ATOM     24  C   UNL     1      -5.039   1.835  -0.522  1.00  0.00     0.097 C 
ATOM     25  C   UNL     1      -6.431   1.596  -0.197  1.00  0.00     0.066 C 
ATOM     26  N   UNL     1      -7.533   1.379   0.089  1.00  0.00    -0.198 NA
BRANCH  21  27
ATOM     27  C   UNL     1      -4.246  -0.247   1.740  1.00  0.00     0.150 C 
ATOM     28  C   UNL     1      -3.966  -1.669   1.492  1.00  0.00     0.065 C 
ATOM     29  N   UNL     1      -3.712  -2.773   1.246  1.00  0.00    -0.198 NA
ENDBRANCH  21  27
ENDBRANCH  20  21
ENDBRANCH   8  16
TORSDOF 4
