REMARK SMILES CCc1cc(Oc2cc(F)cc([C@@H](C)NC(=O)c3sc4ccc(Cl)cc4c3C)c2)ccc1CCC(=O)O
REMARK SMILES IDX 3 1 4 2 5 3 30 4 31 5 32 6 2 7 1 8 33 9 34 10 35 11 36 12
REMARK SMILES IDX 37 13 6 15 7 16 8 17 29 18 9 19 12 20 11 21 10 22 13 23
REMARK SMILES IDX 14 24 15 25 16 26 17 27 18 29 19 30 27 31 20 32 26 33 21 34
REMARK SMILES IDX 25 35 22 36 23 37 28 38 24 39
REMARK H PARENT 37 14 15 28
ROOT
ATOM      1  C   UNL     1      -4.668  -0.055   0.207  1.00  0.00    -0.041 A 
ATOM      2  C   UNL     1      -3.640  -0.480   1.071  1.00  0.00     0.051 A 
ATOM      3  C   UNL     1      -2.906   0.441   1.821  1.00  0.00     0.127 A 
ATOM      4  C   UNL     1      -3.214   1.794   1.753  1.00  0.00     0.047 A 
ATOM      5  C   UNL     1      -4.234   2.232   0.908  1.00  0.00     0.008 A 
ATOM      6  C   UNL     1      -4.973   1.321   0.131  1.00  0.00    -0.044 A 
ENDROOT
BRANCH   1   7
ATOM      7  C   UNL     1      -5.423  -1.111  -0.568  1.00  0.00     0.032 C 
ATOM      8  C   UNL     1      -6.608  -1.655   0.218  1.00  0.00     0.009 C 
ENDBRANCH   1   7
BRANCH   6   9
ATOM      9  C   UNL     1      -6.058   1.874  -0.770  1.00  0.00     0.047 C 
BRANCH   9  10
ATOM     10  C   UNL     1      -5.512   2.246  -2.147  1.00  0.00     0.127 C 
BRANCH  10  11
ATOM     11  C   UNL     1      -6.605   2.764  -3.036  1.00  0.00     0.303 C 
ATOM     12  O   UNL     1      -7.791   2.862  -2.775  1.00  0.00    -0.252 OA
BRANCH  11  13
ATOM     13  O   UNL     1      -6.136   3.138  -4.244  1.00  0.00    -0.481 OA
ATOM     14  H   UNL     1      -6.932   3.450  -4.724  1.00  0.00     0.296 HD
ENDBRANCH  11  13
ENDBRANCH  10  11
ENDBRANCH   9  10
ENDBRANCH   6   9
BRANCH   3  15
ATOM     15  O   UNL     1      -1.914   0.071   2.701  1.00  0.00    -0.457 OA
BRANCH  15  16
ATOM     16  C   UNL     1      -0.995  -0.859   2.269  1.00  0.00     0.130 A 
ATOM     17  C   UNL     1      -0.673  -1.883   3.153  1.00  0.00     0.086 A 
ATOM     18  C   UNL     1      -0.342  -0.754   1.033  1.00  0.00     0.053 A 
ATOM     19  C   UNL     1       0.278  -2.821   2.780  1.00  0.00     0.127 A 
ATOM     20  C   UNL     1       0.608  -1.714   0.643  1.00  0.00    -0.019 A 
ATOM     21  C   UNL     1       0.915  -2.748   1.544  1.00  0.00     0.045 A 
ATOM     22  F   UNL     1       0.593  -3.812   3.624  1.00  0.00    -0.207 F 
BRANCH  20  23
ATOM     23  C   UNL     1       1.358  -1.642  -0.675  1.00  0.00     0.110 C 
ATOM     24  C   UNL     1       0.542  -1.080  -1.841  1.00  0.00     0.036 C 
BRANCH  23  25
ATOM     25  N   UNL     1       2.564  -0.859  -0.490  1.00  0.00    -0.345 N 
ATOM     26  C   UNL     1       3.816  -1.424  -0.360  1.00  0.00     0.262 C 
ATOM     27  O   UNL     1       3.975  -2.639  -0.460  1.00  0.00    -0.268 OA
ATOM     28  H   UNL     1       2.479   0.136  -0.342  1.00  0.00     0.164 HD
BRANCH  26  29
ATOM     29  C   UNL     1       4.913  -0.490  -0.095  1.00  0.00     0.096 A 
ATOM     30  S   UNL     1       4.629   1.194   0.004  1.00  0.00    -0.130 S 
ATOM     31  C   UNL     1       6.257  -0.792   0.106  1.00  0.00    -0.020 A 
ATOM     32  C   UNL     1       6.276   1.556   0.304  1.00  0.00     0.035 A 
ATOM     33  C   UNL     1       7.056   0.399   0.336  1.00  0.00    -0.002 A 
ATOM     34  C   UNL     1       6.830   2.837   0.500  1.00  0.00     0.021 A 
ATOM     35  C   UNL     1       8.447   0.554   0.578  1.00  0.00     0.030 A 
ATOM     36  C   UNL     1       8.202   2.954   0.732  1.00  0.00     0.022 A 
ATOM     37  C   UNL     1       8.999   1.823   0.769  1.00  0.00     0.041 A 
ATOM     38  C   UNL     1       6.810  -2.188   0.086  1.00  0.00     0.047 C 
ATOM     39  Cl  UNL     1      10.690   1.979   1.054  1.00  0.00    -0.084 Cl
ENDBRANCH  26  29
ENDBRANCH  23  25
ENDBRANCH  20  23
ENDBRANCH  15  16
ENDBRANCH   3  15
TORSDOF 10
