REMARK SMILES CCN(CCCCCCNC1=CC(=O)C(NCCCNC(=O)CCCC[C@H]2CCSS2)=CC1=O)Cc1ccccc1OC
REMARK SMILES IDX 10 1 9 3 8 4 7 5 6 6 5 7 4 8 3 9 2 10 1 11 35 12 36 13 37 14
REMARK SMILES IDX 41 15 38 16 40 17 39 18 42 19 43 20 11 21 12 22 33 23 13 24
REMARK SMILES IDX 32 25 34 26 14 27 15 28 16 29 17 31 18 32 19 33 20 34 21 35
REMARK SMILES IDX 22 36 23 38 24 39 25 40 26 41 27 42 28 43 31 44 29 45 30 46
REMARK H PARENT 10 2 16 30 20 37
ROOT
ATOM      1  N   UNL     1      -0.027   0.739   0.549  1.00  0.00    -0.382 N 
ATOM      2  H   UNL     1      -0.446   1.312  -0.187  1.00  0.00     0.160 HD
ENDROOT
BRANCH   1   3
ATOM      3  C   UNL     1      -0.366   1.069   1.913  1.00  0.00     0.113 C 
BRANCH   3   4
ATOM      4  C   UNL     1      -1.335   0.061   2.530  1.00  0.00     0.021 C 
BRANCH   4   5
ATOM      5  C   UNL     1      -2.631  -0.101   1.727  1.00  0.00     0.002 C 
BRANCH   5   6
ATOM      6  C   UNL     1      -3.655  -0.939   2.496  1.00  0.00     0.001 C 
BRANCH   6   7
ATOM      7  C   UNL     1      -4.866  -1.356   1.652  1.00  0.00     0.016 C 
BRANCH   7   8
ATOM      8  C   UNL     1      -5.611  -0.168   1.024  1.00  0.00     0.085 C 
BRANCH   8   9
ATOM      9  N   UNL     1      -6.942  -0.532   0.486  1.00  0.00    -0.299 NA
BRANCH   9  10
ATOM     10  C   UNL     1      -6.822  -1.407  -0.696  1.00  0.00     0.081 C 
ATOM     11  C   UNL     1      -8.138  -2.093  -1.057  1.00  0.00     0.021 C 
ENDBRANCH   9  10
BRANCH   9  12
ATOM     12  C   UNL     1      -7.684   0.707   0.134  1.00  0.00     0.124 C 
BRANCH  12  13
ATOM     13  C   UNL     1      -8.113   1.523   1.342  1.00  0.00     0.008 A 
ATOM     14  C   UNL     1      -8.896   0.905   2.335  1.00  0.00     0.009 A 
ATOM     15  C   UNL     1      -7.773   2.883   1.480  1.00  0.00     0.123 A 
ATOM     16  C   UNL     1      -9.331   1.619   3.450  1.00  0.00     0.001 A 
ATOM     17  C   UNL     1      -8.217   3.591   2.603  1.00  0.00     0.047 A 
ATOM     18  C   UNL     1      -8.992   2.961   3.582  1.00  0.00     0.004 A 
BRANCH  15  19
ATOM     19  O   UNL     1      -7.016   3.424   0.473  1.00  0.00    -0.496 OA
ATOM     20  C   UNL     1      -6.592   4.772   0.621  1.00  0.00     0.278 C 
ENDBRANCH  15  19
ENDBRANCH  12  13
ENDBRANCH   9  12
ENDBRANCH   8   9
ENDBRANCH   7   8
ENDBRANCH   6   7
ENDBRANCH   5   6
ENDBRANCH   4   5
ENDBRANCH   3   4
ENDBRANCH   1   3
BRANCH   1  21
ATOM     21  C   UNL     1       0.882  -0.185   0.060  1.00  0.00     0.086 C 
ATOM     22  C   UNL     1       1.590  -1.064   0.777  1.00  0.00     0.084 C 
ATOM     23  C   UNL     1       1.070  -0.173  -1.432  1.00  0.00     0.203 C 
ATOM     24  C   UNL     1       2.537  -2.020   0.175  1.00  0.00     0.203 C 
ATOM     25  C   UNL     1       2.069  -1.075  -2.025  1.00  0.00     0.084 C 
ATOM     26  O   UNL     1       0.411   0.577  -2.150  1.00  0.00    -0.288 OA
ATOM     27  O   UNL     1       3.108  -2.850   0.879  1.00  0.00    -0.288 OA
ATOM     28  C   UNL     1       2.781  -1.953  -1.310  1.00  0.00     0.086 C 
BRANCH  28  29
ATOM     29  N   UNL     1       3.751  -2.815  -1.804  1.00  0.00    -0.382 N 
ATOM     30  H   UNL     1       4.296  -3.245  -1.048  1.00  0.00     0.160 HD
BRANCH  29  31
ATOM     31  C   UNL     1       4.325  -2.830  -3.130  1.00  0.00     0.115 C 
BRANCH  31  32
ATOM     32  C   UNL     1       5.044  -4.146  -3.431  1.00  0.00     0.042 C 
BRANCH  32  33
ATOM     33  C   UNL     1       6.306  -4.404  -2.610  1.00  0.00     0.117 C 
BRANCH  33  34
ATOM     34  N   UNL     1       7.325  -3.396  -2.820  1.00  0.00    -0.356 N 
ATOM     35  C   UNL     1       7.554  -2.397  -1.898  1.00  0.00     0.219 C 
ATOM     36  O   UNL     1       6.945  -2.309  -0.838  1.00  0.00    -0.275 OA
ATOM     37  H   UNL     1       7.901  -3.449  -3.650  1.00  0.00     0.163 HD
BRANCH  35  38
ATOM     38  C   UNL     1       8.648  -1.431  -2.315  1.00  0.00     0.100 C 
BRANCH  38  39
ATOM     39  C   UNL     1       8.625  -0.143  -1.489  1.00  0.00     0.010 C 
BRANCH  39  40
ATOM     40  C   UNL     1       7.474   0.784  -1.905  1.00  0.00     0.002 C 
BRANCH  40  41
ATOM     41  C   UNL     1       7.228   1.915  -0.896  1.00  0.00     0.015 C 
BRANCH  41  42
ATOM     42  C   UNL     1       6.504   1.468   0.389  1.00  0.00     0.059 C 
ATOM     43  C   UNL     1       6.472   2.567   1.460  1.00  0.00     0.027 C 
ATOM     44  S   UNL     1       4.752   1.068   0.077  1.00  0.00    -0.091 SA
ATOM     45  C   UNL     1       5.499   3.679   1.085  1.00  0.00     0.083 C 
ATOM     46  S   UNL     1       3.959   2.896   0.550  1.00  0.00    -0.094 SA
ENDBRANCH  41  42
ENDBRANCH  40  41
ENDBRANCH  39  40
ENDBRANCH  38  39
ENDBRANCH  35  38
ENDBRANCH  33  34
ENDBRANCH  32  33
ENDBRANCH  31  32
ENDBRANCH  29  31
ENDBRANCH  28  29
ENDBRANCH   1  21
TORSDOF 22
