REMARK SMILES CCOc1cc([C@@H](Nc2ccc(C(=N)N)cc2)C(=O)NCc2ccccc2)ccc1OCc1ccccc1
REMARK SMILES IDX 7 1 6 2 4 3 5 4 30 5 29 6 28 7 3 8 2 9 1 10 31 11 32 12
REMARK SMILES IDX 33 13 34 14 38 15 35 16 37 17 36 18 8 19 9 21 10 22 17 23
REMARK SMILES IDX 11 24 16 25 12 26 13 27 14 28 15 29 18 33 19 34 20 35 21 37
REMARK SMILES IDX 22 38 23 39 27 40 24 41 26 42 25 43
REMARK H PARENT 8 20 14 30 15 31 15 32 20 36
ROOT
ATOM      1  C   UNL     1      -1.285  -1.437  -0.297  1.00  0.00     0.200 C 
ENDROOT
BRANCH   1   2
ATOM      2  C   UNL     1       0.009  -0.658  -0.495  1.00  0.00    -0.012 A 
ATOM      3  C   UNL     1       2.430  -0.663  -0.735  1.00  0.00     0.161 A 
ATOM      4  C   UNL     1       1.224  -1.353  -0.584  1.00  0.00     0.056 A 
ATOM      5  C   UNL     1       2.464   0.738  -0.757  1.00  0.00     0.161 A 
ATOM      6  C   UNL     1       1.259   1.435  -0.652  1.00  0.00     0.051 A 
ATOM      7  C   UNL     1       0.045   0.746  -0.517  1.00  0.00     0.010 A 
BRANCH   3   8
ATOM      8  O   UNL     1       3.568  -1.428  -0.769  1.00  0.00    -0.490 OA
BRANCH   8   9
ATOM      9  C   UNL     1       4.129  -1.455  -2.087  1.00  0.00     0.226 C 
ATOM     10  C   UNL     1       5.129  -2.596  -2.141  1.00  0.00     0.049 C 
ENDBRANCH   8   9
ENDBRANCH   3   8
BRANCH   5  11
ATOM     11  O   UNL     1       3.700   1.314  -0.857  1.00  0.00    -0.485 OA
BRANCH  11  12
ATOM     12  C   UNL     1       3.778   2.737  -0.864  1.00  0.00     0.265 C 
BRANCH  12  13
ATOM     13  C   UNL     1       5.227   3.163  -0.946  1.00  0.00    -0.011 A 
ATOM     14  C   UNL     1       6.220   2.491  -0.217  1.00  0.00     0.007 A 
ATOM     15  C   UNL     1       5.593   4.281  -1.711  1.00  0.00     0.007 A 
ATOM     16  C   UNL     1       7.550   2.911  -0.271  1.00  0.00     0.000 A 
ATOM     17  C   UNL     1       6.924   4.700  -1.763  1.00  0.00     0.000 A 
ATOM     18  C   UNL     1       7.902   4.015  -1.044  1.00  0.00     0.000 A 
ENDBRANCH  12  13
ENDBRANCH  11  12
ENDBRANCH   5  11
ENDBRANCH   1   2
BRANCH   1  19
ATOM     19  N   UNL     1      -1.543  -1.519   1.153  1.00  0.00    -0.370 N 
ATOM     20  H   UNL     1      -0.917  -0.972   1.736  1.00  0.00     0.161 HD
BRANCH  19  21
ATOM     21  C   UNL     1      -2.299  -2.498   1.771  1.00  0.00     0.035 A 
ATOM     22  C   UNL     1      -2.377  -2.501   3.172  1.00  0.00     0.026 A 
ATOM     23  C   UNL     1      -3.052  -3.451   1.076  1.00  0.00     0.026 A 
ATOM     24  C   UNL     1      -3.151  -3.442   3.860  1.00  0.00     0.014 A 
ATOM     25  C   UNL     1      -3.832  -4.397   1.753  1.00  0.00     0.014 A 
ATOM     26  C   UNL     1      -3.877  -4.396   3.147  1.00  0.00     0.016 A 
BRANCH  26  27
ATOM     27  C   UNL     1      -4.710  -5.395   3.866  1.00  0.00     0.122 C 
ATOM     28  N   UNL     1      -4.330  -5.943   4.976  1.00  0.00    -0.284 NA
ATOM     29  N   UNL     1      -5.917  -5.764   3.372  1.00  0.00    -0.384 N 
ATOM     30  H   UNL     1      -3.393  -5.628   5.241  1.00  0.00     0.189 HD
ATOM     31  H   UNL     1      -6.447  -6.436   3.911  1.00  0.00     0.158 HD
ATOM     32  H   UNL     1      -6.355  -5.320   2.578  1.00  0.00     0.158 HD
ENDBRANCH  26  27
ENDBRANCH  19  21
ENDBRANCH   1  19
BRANCH   1  33
ATOM     33  C   UNL     1      -2.476  -0.807  -1.073  1.00  0.00     0.247 C 
ATOM     34  O   UNL     1      -2.562  -0.837  -2.299  1.00  0.00    -0.272 OA
ATOM     35  N   UNL     1      -3.399  -0.169  -0.272  1.00  0.00    -0.350 N 
ATOM     36  H   UNL     1      -3.242  -0.226   0.730  1.00  0.00     0.163 HD
BRANCH  35  37
ATOM     37  C   UNL     1      -4.505   0.595  -0.787  1.00  0.00     0.151 C 
BRANCH  37  38
ATOM     38  C   UNL     1      -4.168   2.064  -0.787  1.00  0.00    -0.029 A 
ATOM     39  C   UNL     1      -4.532   2.884   0.290  1.00  0.00     0.005 A 
ATOM     40  C   UNL     1      -3.440   2.619  -1.850  1.00  0.00     0.005 A 
ATOM     41  C   UNL     1      -4.186   4.237   0.295  1.00  0.00     0.000 A 
ATOM     42  C   UNL     1      -3.094   3.970  -1.841  1.00  0.00     0.000 A 
ATOM     43  C   UNL     1      -3.468   4.779  -0.770  1.00  0.00     0.000 A 
ENDBRANCH  37  38
ENDBRANCH  35  37
ENDBRANCH   1  33
TORSDOF 12
