MODEL 9
REMARK VINA RESULT:    -7.475      4.673      6.974
REMARK INTER + INTRA:         -10.154
REMARK INTER:                 -10.058
REMARK INTRA:                  -0.095
REMARK UNBOUND:                -0.276
REMARK SMILES NCCn1c(-c2ccc(C(F)(F)F)cc2)nc2cc(C(N)=O)ccc21
REMARK SMILES IDX 4 1 5 2 16 3 17 4 18 5 19 6 23 7 24 8 25 9 3 10 2 11 1 12
REMARK SMILES IDX 6 15 7 16 15 17 8 18 14 19 9 20 10 21 11 22 12 23 13 24
REMARK SMILES IDX 20 25 21 26 22 27
REMARK H PARENT 1 13 1 14 21 28 21 29
ROOT
ATOM      1  N   UNL     1      -3.423  24.903 -29.201  1.00  0.00    -0.323 N 
ATOM      2  C   UNL     1      -4.105  25.848 -29.943  1.00  0.00     0.141 A 
ATOM      3  N   UNL     1      -4.801  25.261 -30.900  1.00  0.00    -0.228 NA
ATOM      4  C   UNL     1      -4.583  23.917 -30.767  1.00  0.00     0.090 A 
ATOM      5  C   UNL     1      -5.102  22.859 -31.528  1.00  0.00     0.044 A 
ATOM      6  C   UNL     1      -4.711  21.550 -31.211  1.00  0.00     0.041 A 
ATOM      7  C   UNL     1      -3.835  21.312 -30.141  1.00  0.00     0.016 A 
ATOM      8  C   UNL     1      -3.314  22.360 -29.373  1.00  0.00     0.029 A 
ATOM      9  C   UNL     1      -3.714  23.656 -29.715  1.00  0.00     0.068 A 
ENDROOT
BRANCH   1  10
ATOM     10  C   UNL     1      -2.488  25.151 -28.115  1.00  0.00     0.139 C 
BRANCH  10  11
ATOM     11  C   UNL     1      -3.098  24.848 -26.743  1.00  0.00     0.099 C 
BRANCH  11  12
ATOM     12  N   UNL     1      -2.636  25.794 -25.727  1.00  0.00    -0.329 NA
ATOM     13  H   UNL     1      -1.961  26.436 -26.146  1.00  0.00     0.118 HD
ATOM     14  H   UNL     1      -3.412  26.378 -25.411  1.00  0.00     0.118 HD
ENDBRANCH  11  12
ENDBRANCH  10  11
ENDBRANCH   1  10
BRANCH   2  15
ATOM     15  C   UNL     1      -4.036  27.298 -29.757  1.00  0.00     0.017 A 
ATOM     16  C   UNL     1      -4.329  28.142 -30.835  1.00  0.00     0.012 A 
ATOM     17  C   UNL     1      -3.717  27.866 -28.519  1.00  0.00     0.012 A 
ATOM     18  C   UNL     1      -4.275  29.531 -30.688  1.00  0.00     0.014 A 
ATOM     19  C   UNL     1      -3.661  29.256 -28.369  1.00  0.00     0.014 A 
ATOM     20  C   UNL     1      -3.943  30.103 -29.451  1.00  0.00     0.056 A 
BRANCH  20  21
ATOM     21  C   UNL     1      -3.863  31.602 -29.294  1.00  0.00     0.416 C 
ATOM     22  F   UNL     1      -4.442  32.052 -28.146  1.00  0.00    -0.166 F 
ATOM     23  F   UNL     1      -2.578  32.049 -29.264  1.00  0.00    -0.166 F 
ATOM     24  F   UNL     1      -4.472  32.281 -30.307  1.00  0.00    -0.166 F 
ENDBRANCH  20  21
ENDBRANCH   2  15
BRANCH   6  25
ATOM     25  C   UNL     1      -5.216  20.376 -31.972  1.00  0.00     0.248 C 
ATOM     26  N   UNL     1      -6.568  20.267 -32.152  1.00  0.00    -0.366 N 
ATOM     27  O   UNL     1      -4.456  19.546 -32.452  1.00  0.00    -0.270 OA
ATOM     28  H   UNL     1      -6.876  19.524 -32.767  1.00  0.00     0.159 HD
ATOM     29  H   UNL     1      -7.204  21.037 -31.998  1.00  0.00     0.159 HD
ENDBRANCH   6  25
TORSDOF 6
ENDMDL
