MODEL 5
REMARK VINA RESULT:    -8.378      2.774      5.994
REMARK INTER + INTRA:         -12.935
REMARK INTER:                 -11.747
REMARK INTRA:                  -1.188
REMARK UNBOUND:                -0.638
REMARK SMILES COC(=O)[C@H]1Cc2ccc(OCCc3nc(-c4ccc(C(C)(C)C)cc4)oc3C)cc2OC1=O
REMARK SMILES IDX 12 1 11 2 10 3 5 4 6 5 33 6 7 7 32 8 34 9 8 10 31 11 9 12
REMARK SMILES IDX 30 13 3 14 4 15 2 16 1 17 13 18 14 19 15 20 28 21 16 22
REMARK SMILES IDX 27 23 29 24 17 25 18 26 26 27 19 28 25 29 20 30 21 31 22 32
REMARK SMILES IDX 23 33 24 34
REMARK H PARENT
ROOT
ATOM      1  C   UNL     1      10.214   5.951  -7.935  1.00  0.00     0.236 C 
ENDROOT
BRANCH   1   2
ATOM      2  O   UNL     1       9.210   4.937  -7.805  1.00  0.00    -0.493 OA
BRANCH   2   3
ATOM      3  C   UNL     1       8.059   5.280  -7.153  1.00  0.00     0.123 A 
ATOM      4  C   UNL     1       4.951   8.075  -4.413  1.00  0.00     0.213 C 
ATOM      5  C   UNL     1       4.559   6.812  -5.162  1.00  0.00     0.066 C 
ATOM      6  C   UNL     1       5.648   9.057  -5.313  1.00  0.00     0.326 C 
ATOM      7  C   UNL     1       5.772   6.245  -5.832  1.00  0.00    -0.003 A 
ATOM      8  O   UNL     1       6.612   8.507  -6.155  1.00  0.00    -0.425 OA
ATOM      9  O   UNL     1       5.476  10.271  -5.269  1.00  0.00    -0.251 OA
ATOM     10  C   UNL     1       5.934   4.875  -6.048  1.00  0.00     0.011 A 
ATOM     11  C   UNL     1       6.751   7.116  -6.301  1.00  0.00     0.137 A 
ATOM     12  C   UNL     1       7.077   4.394  -6.702  1.00  0.00     0.047 A 
ATOM     13  C   UNL     1       7.884   6.652  -6.962  1.00  0.00     0.093 A 
BRANCH   4  14
ATOM     14  C   UNL     1       3.746   8.681  -3.750  1.00  0.00     0.320 C 
ATOM     15  O   UNL     1       2.760   9.067  -4.366  1.00  0.00    -0.251 OA
BRANCH  14  16
ATOM     16  O   UNL     1       3.903   8.765  -2.399  1.00  0.00    -0.468 OA
ATOM     17  C   UNL     1       3.499   7.588  -1.694  1.00  0.00     0.282 C 
ENDBRANCH  14  16
ENDBRANCH   4  14
ENDBRANCH   2   3
ENDBRANCH   1   2
BRANCH   1  18
ATOM     18  C   UNL     1      10.238   6.431  -9.387  1.00  0.00     0.101 C 
BRANCH  18  19
ATOM     19  C   UNL     1      10.330   7.912  -9.518  1.00  0.00     0.086 A 
ATOM     20  N   UNL     1      10.460   8.703  -8.396  1.00  0.00    -0.214 NA
ATOM     21  C   UNL     1      10.276   8.714 -10.639  1.00  0.00     0.125 A 
ATOM     22  C   UNL     1      10.496   9.936  -8.866  1.00  0.00     0.226 A 
ATOM     23  O   UNL     1      10.398  10.014 -10.231  1.00  0.00    -0.441 OA
ATOM     24  C   UNL     1      10.132   8.482 -12.086  1.00  0.00     0.090 C 
BRANCH  22  25
ATOM     25  C   UNL     1      10.598  11.198  -8.142  1.00  0.00     0.037 A 
ATOM     26  C   UNL     1      11.201  11.228  -6.878  1.00  0.00     0.014 A 
ATOM     27  C   UNL     1      10.106  12.399  -8.665  1.00  0.00     0.014 A 
ATOM     28  C   UNL     1      11.297  12.422  -6.149  1.00  0.00     0.005 A 
ATOM     29  C   UNL     1      10.208  13.592  -7.939  1.00  0.00     0.005 A 
ATOM     30  C   UNL     1      10.799  13.632  -6.661  1.00  0.00    -0.043 A 
BRANCH  30  31
ATOM     31  C   UNL     1      10.887  14.961  -5.890  1.00  0.00    -0.013 C 
ATOM     32  C   UNL     1      10.827  14.690  -4.371  1.00  0.00     0.016 C 
ATOM     33  C   UNL     1      12.186  15.755  -6.158  1.00  0.00     0.016 C 
ATOM     34  C   UNL     1       9.701  15.867  -6.289  1.00  0.00     0.016 C 
ENDBRANCH  30  31
ENDBRANCH  22  25
ENDBRANCH  18  19
ENDBRANCH   1  18
TORSDOF 8
ENDMDL
