MODEL 2
REMARK VINA RESULT:    -8.510      2.130      9.539
REMARK INTER + INTRA:         -15.006
REMARK INTER:                 -13.532
REMARK INTRA:                  -1.474
REMARK UNBOUND:                -1.770
REMARK SMILES O=C(O)c1cc(SCCc2ccccc2)ccc1NS(=O)(=O)N1CCN(c2ccccc2)CC1
REMARK SMILES IDX 4 1 5 2 6 3 16 4 17 5 18 6 2 7 1 8 3 9 19 11 20 13 21 14
REMARK SMILES IDX 22 15 23 16 24 17 34 18 25 19 33 20 26 21 27 22 28 23 32 24
REMARK SMILES IDX 29 25 31 26 30 27 7 28 8 29 9 30 10 31 11 32 15 33 12 34
REMARK SMILES IDX 14 35 13 36
REMARK H PARENT 3 10 19 12
ROOT
ATOM      1  C   UNL     1      39.879  13.541 -47.830  1.00  0.00     0.085 A 
ATOM      2  C   UNL     1      38.666  13.094 -48.379  1.00  0.00     0.033 A 
ATOM      3  C   UNL     1      38.150  11.840 -48.045  1.00  0.00     0.008 A 
ATOM      4  C   UNL     1      38.835  11.036 -47.133  1.00  0.00     0.017 A 
ATOM      5  C   UNL     1      40.040  11.472 -46.578  1.00  0.00     0.029 A 
ATOM      6  C   UNL     1      40.569  12.720 -46.919  1.00  0.00     0.064 A 
ENDROOT
BRANCH   1   7
ATOM      7  C   UNL     1      40.347  14.879 -48.265  1.00  0.00     0.337 C 
ATOM      8  O   UNL     1      40.917  15.696 -47.565  1.00  0.00    -0.246 OA
BRANCH   7   9
ATOM      9  O   UNL     1      40.125  15.129 -49.572  1.00  0.00    -0.478 OA
ATOM     10  H   UNL     1      40.967  15.549 -49.862  1.00  0.00     0.297 HD
ENDBRANCH   7   9
ENDBRANCH   1   7
BRANCH   6  11
ATOM     11  N   UNL     1      41.858  13.077 -46.376  1.00  0.00    -0.270 N 
ATOM     12  H   UNL     1      42.047  14.072 -46.562  1.00  0.00     0.181 HD
BRANCH  11  13
ATOM     13  S   UNL     1      43.176  12.251 -47.043  1.00  0.00     0.301 S 
ATOM     14  O   UNL     1      43.361  11.015 -46.318  1.00  0.00    -0.189 OA
ATOM     15  O   UNL     1      43.006  12.265 -48.476  1.00  0.00    -0.189 OA
BRANCH  13  16
ATOM     16  N   UNL     1      44.442  13.298 -46.656  1.00  0.00    -0.181 NA
ATOM     17  C   UNL     1      45.526  12.700 -45.802  1.00  0.00     0.125 C 
ATOM     18  C   UNL     1      43.968  14.631 -46.148  1.00  0.00     0.125 C 
ATOM     19  C   UNL     1      45.384  13.083 -44.318  1.00  0.00     0.133 C 
ATOM     20  C   UNL     1      45.049  15.342 -45.320  1.00  0.00     0.133 C 
ATOM     21  N   UNL     1      45.422  14.556 -44.126  1.00  0.00    -0.369 N 
BRANCH  21  22
ATOM     22  C   UNL     1      44.965  14.951 -42.860  1.00  0.00     0.037 A 
ATOM     23  C   UNL     1      43.785  14.382 -42.347  1.00  0.00     0.026 A 
ATOM     24  C   UNL     1      45.617  15.896 -42.056  1.00  0.00     0.026 A 
ATOM     25  C   UNL     1      43.278  14.740 -41.093  1.00  0.00     0.002 A 
ATOM     26  C   UNL     1      45.114  16.262 -40.801  1.00  0.00     0.002 A 
ATOM     27  C   UNL     1      43.945  15.683 -40.320  1.00  0.00     0.000 A 
ENDBRANCH  21  22
ENDBRANCH  13  16
ENDBRANCH  11  13
ENDBRANCH   6  11
BRANCH   3  28
ATOM     28  S   UNL     1      36.617  11.298 -48.769  1.00  0.00    -0.126 SA
BRANCH  28  29
ATOM     29  C   UNL     1      35.938  10.307 -47.386  1.00  0.00     0.080 C 
BRANCH  29  30
ATOM     30  C   UNL     1      34.865  11.015 -46.550  1.00  0.00     0.047 C 
BRANCH  30  31
ATOM     31  C   UNL     1      34.007  10.110 -45.697  1.00  0.00    -0.047 A 
ATOM     32  C   UNL     1      33.900   8.745 -46.000  1.00  0.00     0.004 A 
ATOM     33  C   UNL     1      33.322  10.609 -44.581  1.00  0.00     0.004 A 
ATOM     34  C   UNL     1      33.110   7.903 -45.215  1.00  0.00     0.000 A 
ATOM     35  C   UNL     1      32.533   9.766 -43.797  1.00  0.00     0.000 A 
ATOM     36  C   UNL     1      32.425   8.414 -44.115  1.00  0.00     0.000 A 
ENDBRANCH  30  31
ENDBRANCH  29  30
ENDBRANCH  28  29
ENDBRANCH   3  28
TORSDOF 10
ENDMDL
