MODEL 2
REMARK VINA RESULT:    -9.433      4.426      7.206
REMARK INTER + INTRA:         -17.032
REMARK INTER:                 -15.624
REMARK INTRA:                  -1.408
REMARK UNBOUND:                -1.257
REMARK SMILES CC(C)O[C@@H](Cc1ccc(OCc2noc(-c3ccc(OC(F)(F)F)cc3)n2)cc1)C(=O)O
REMARK SMILES IDX 11 1 10 2 7 3 8 4 30 5 9 6 29 7 6 8 5 9 4 10 2 11 1 12 3 13
REMARK SMILES IDX 31 14 32 15 33 16 12 18 13 19 14 20 28 21 15 22 16 23 17 24
REMARK SMILES IDX 18 25 27 26 19 27 26 28 20 29 21 30 22 31 23 32 24 33 25 34
REMARK H PARENT 33 17
ROOT
ATOM      1  O   UNL     1      37.426   1.002 130.962  1.00  0.00    -0.485 OA
ENDROOT
BRANCH   1   2
ATOM      2  C   UNL     1      36.617   0.856 129.870  1.00  0.00     0.120 A 
ATOM      3  C   UNL     1      34.882   0.859 127.646  1.00  0.00    -0.045 A 
ATOM      4  C   UNL     1      35.066   2.019 128.406  1.00  0.00     0.007 A 
ATOM      5  C   UNL     1      35.579  -0.300 128.011  1.00  0.00     0.007 A 
ATOM      6  C   UNL     1      35.927   2.014 129.506  1.00  0.00     0.047 A 
ATOM      7  C   UNL     1      36.439  -0.303 129.116  1.00  0.00     0.047 A 
BRANCH   3   8
ATOM      8  C   UNL     1      33.953   0.857 126.452  1.00  0.00     0.079 C 
BRANCH   8   9
ATOM      9  C   UNL     1      32.449   0.835 126.788  1.00  0.00     0.232 C 
BRANCH   9  10
ATOM     10  O   UNL     1      32.145  -0.402 127.439  1.00  0.00    -0.364 OA
BRANCH  10  11
ATOM     11  C   UNL     1      31.383  -0.288 128.643  1.00  0.00     0.113 C 
ATOM     12  C   UNL     1      31.412   1.185 129.040  1.00  0.00     0.038 C 
ATOM     13  C   UNL     1      31.951  -1.147 129.767  1.00  0.00     0.038 C 
ENDBRANCH  10  11
ENDBRANCH   9  10
BRANCH   9  14
ATOM     14  C   UNL     1      31.608   1.103 125.534  1.00  0.00     0.333 C 
ATOM     15  O   UNL     1      30.932   0.309 124.902  1.00  0.00    -0.249 OA
BRANCH  14  16
ATOM     16  O   UNL     1      31.602   2.409 125.178  1.00  0.00    -0.479 OA
ATOM     17  H   UNL     1      32.305   2.451 124.493  1.00  0.00     0.296 HD
ENDBRANCH  14  16
ENDBRANCH   9  14
ENDBRANCH   8   9
ENDBRANCH   3   8
ENDBRANCH   1   2
BRANCH   1  18
ATOM     18  C   UNL     1      37.470   2.277 131.618  1.00  0.00     0.310 C 
BRANCH  18  19
ATOM     19  C   UNL     1      37.115   2.228 133.065  1.00  0.00     0.209 A 
ATOM     20  N   UNL     1      36.276   1.309 133.565  1.00  0.00    -0.058 NA
ATOM     21  N   UNL     1      37.597   3.128 133.986  1.00  0.00    -0.188 NA
ATOM     22  O   UNL     1      36.237   1.621 134.927  1.00  0.00    -0.334 OA
ATOM     23  C   UNL     1      37.050   2.707 135.105  1.00  0.00     0.258 A 
BRANCH  23  24
ATOM     24  C   UNL     1      37.189   3.221 136.461  1.00  0.00     0.040 A 
ATOM     25  C   UNL     1      37.020   2.354 137.550  1.00  0.00     0.017 A 
ATOM     26  C   UNL     1      37.484   4.565 136.725  1.00  0.00     0.017 A 
ATOM     27  C   UNL     1      37.141   2.811 138.870  1.00  0.00     0.047 A 
ATOM     28  C   UNL     1      37.606   5.020 138.042  1.00  0.00     0.047 A 
ATOM     29  C   UNL     1      37.433   4.149 139.123  1.00  0.00     0.129 A 
BRANCH  29  30
ATOM     30  O   UNL     1      37.580   4.733 140.348  1.00  0.00    -0.406 OA
BRANCH  30  31
ATOM     31  C   UNL     1      36.713   4.315 141.388  1.00  0.00     0.573 C 
ATOM     32  F   UNL     1      37.088   3.116 141.882  1.00  0.00    -0.132 F 
ATOM     33  F   UNL     1      35.433   4.248 140.959  1.00  0.00    -0.132 F 
ATOM     34  F   UNL     1      36.773   5.220 142.390  1.00  0.00    -0.132 F 
ENDBRANCH  30  31
ENDBRANCH  29  30
ENDBRANCH  23  24
ENDBRANCH  18  19
ENDBRANCH   1  18
TORSDOF 12
ENDMDL
