MODEL 1
REMARK VINA RESULT:    -8.816      0.000      0.000
REMARK INTER + INTRA:         -11.736
REMARK INTER:                 -11.135
REMARK INTRA:                  -0.601
REMARK UNBOUND:                -0.601
REMARK SMILES C[C@H]1CCC[C@@H]1Oc1cccc(-c2nc3cc(C(=N)N)c(F)cc3[nH]2)c1O
REMARK SMILES IDX 8 1 9 2 10 3 11 4 12 5 26 6 7 7 6 8 2 9 3 10 4 11 5 12 1 13
REMARK SMILES IDX 27 14 13 16 14 17 25 18 15 19 24 20 16 21 23 22 17 23 21 24
REMARK SMILES IDX 22 26 18 27 19 28 20 29
REMARK H PARENT 27 15 25 25 19 30 20 31 20 32
ROOT
ATOM      1  C   UNL     1     128.233 -14.446 160.969  1.00  0.00     0.162 A 
ATOM      2  C   UNL     1     126.994 -14.911 161.400  1.00  0.00     0.050 A 
ATOM      3  C   UNL     1     126.890 -15.589 162.616  1.00  0.00     0.005 A 
ATOM      4  C   UNL     1     128.023 -15.805 163.405  1.00  0.00     0.016 A 
ATOM      5  C   UNL     1     129.285 -15.347 162.997  1.00  0.00     0.063 A 
ATOM      6  C   UNL     1     129.366 -14.668 161.773  1.00  0.00     0.168 A 
ENDROOT
BRANCH   1   7
ATOM      7  O   UNL     1     128.490 -13.766 159.806  1.00  0.00    -0.486 OA
BRANCH   7   8
ATOM      8  C   UNL     1     128.989 -14.493 158.688  1.00  0.00     0.176 C 
ATOM      9  C   UNL     1     129.064 -13.556 157.475  1.00  0.00     0.027 C 
ATOM     10  C   UNL     1     129.152 -14.529 156.302  1.00  0.00     0.007 C 
ATOM     11  C   UNL     1     128.277 -15.715 156.708  1.00  0.00     0.004 C 
ATOM     12  C   UNL     1     128.003 -15.556 158.202  1.00  0.00     0.045 C 
ATOM     13  C   UNL     1     130.234 -12.586 157.538  1.00  0.00     0.011 C 
ENDBRANCH   7   8
ENDBRANCH   1   7
BRANCH   6  14
ATOM     14  O   UNL     1     130.579 -14.193 161.316  1.00  0.00    -0.504 OA
ATOM     15  H   UNL     1     130.498 -14.224 160.339  1.00  0.00     0.293 HD
ENDBRANCH   6  14
BRANCH   5  16
ATOM     16  C   UNL     1     130.444 -15.597 163.862  1.00  0.00     0.142 A 
ATOM     17  N   UNL     1     131.719 -15.516 163.517  1.00  0.00    -0.228 NA
ATOM     18  N   UNL     1     130.341 -15.958 165.186  1.00  0.00    -0.338 N 
ATOM     19  C   UNL     1     132.440 -15.832 164.639  1.00  0.00     0.090 A 
ATOM     20  C   UNL     1     131.597 -16.112 165.706  1.00  0.00     0.069 A 
ATOM     21  C   UNL     1     133.830 -15.896 164.819  1.00  0.00     0.045 A 
ATOM     22  C   UNL     1     132.059 -16.454 166.976  1.00  0.00     0.068 A 
ATOM     23  C   UNL     1     134.332 -16.252 166.083  1.00  0.00     0.054 A 
ATOM     24  C   UNL     1     133.447 -16.513 167.138  1.00  0.00     0.136 A 
ATOM     25  H   UNL     1     129.457 -16.078 165.664  1.00  0.00     0.168 HD
ATOM     26  F   UNL     1     133.910 -16.833 168.357  1.00  0.00    -0.206 F 
BRANCH  23  27
ATOM     27  C   UNL     1     135.805 -16.329 166.299  1.00  0.00     0.125 C 
ATOM     28  N   UNL     1     136.546 -15.284 166.508  1.00  0.00    -0.284 NA
ATOM     29  N   UNL     1     136.453 -17.519 166.285  1.00  0.00    -0.384 N 
ATOM     30  H   UNL     1     136.009 -14.415 166.465  1.00  0.00     0.189 HD
ATOM     31  H   UNL     1     136.003 -18.389 166.032  1.00  0.00     0.158 HD
ATOM     32  H   UNL     1     137.454 -17.506 166.420  1.00  0.00     0.158 HD
ENDBRANCH  23  27
ENDBRANCH   5  16
TORSDOF 5
ENDMDL
MODEL 2
REMARK VINA RESULT:    -8.545      3.017      3.949
REMARK INTER + INTRA:         -11.394
REMARK INTER:                 -11.137
REMARK INTRA:                  -0.257
REMARK UNBOUND:                -0.601
REMARK SMILES C[C@H]1CCC[C@@H]1Oc1cccc(-c2nc3cc(C(=N)N)c(F)cc3[nH]2)c1O
REMARK SMILES IDX 8 1 9 2 10 3 11 4 12 5 26 6 7 7 6 8 2 9 3 10 4 11 5 12 1 13
REMARK SMILES IDX 27 14 13 16 14 17 25 18 15 19 24 20 16 21 23 22 17 23 21 24
REMARK SMILES IDX 22 26 18 27 19 28 20 29
REMARK H PARENT 27 15 25 25 19 30 20 31 20 32
ROOT
ATOM      1  C   UNL     1     127.241 -15.468 162.790  1.00  0.00     0.162 A 
ATOM      2  C   UNL     1     126.679 -16.726 162.593  1.00  0.00     0.050 A 
ATOM      3  C   UNL     1     127.340 -17.864 163.060  1.00  0.00     0.005 A 
ATOM      4  C   UNL     1     128.565 -17.748 163.724  1.00  0.00     0.016 A 
ATOM      5  C   UNL     1     129.155 -16.494 163.938  1.00  0.00     0.063 A 
ATOM      6  C   UNL     1     128.473 -15.364 163.461  1.00  0.00     0.168 A 
ENDROOT
BRANCH   1   7
ATOM      7  O   UNL     1     126.712 -14.267 162.393  1.00  0.00    -0.486 OA
BRANCH   7   8
ATOM      8  C   UNL     1     125.651 -13.703 163.158  1.00  0.00     0.176 C 
ATOM      9  C   UNL     1     126.234 -12.678 164.141  1.00  0.00     0.027 C 
ATOM     10  C   UNL     1     125.114 -12.517 165.165  1.00  0.00     0.007 C 
ATOM     11  C   UNL     1     124.488 -13.907 165.286  1.00  0.00     0.004 C 
ATOM     12  C   UNL     1     125.018 -14.721 164.107  1.00  0.00     0.045 C 
ATOM     13  C   UNL     1     126.632 -11.369 163.476  1.00  0.00     0.011 C 
ENDBRANCH   7   8
ENDBRANCH   1   7
BRANCH   6  14
ATOM     14  O   UNL     1     129.002 -14.101 163.640  1.00  0.00    -0.504 OA
ATOM     15  H   UNL     1     129.972 -14.238 163.598  1.00  0.00     0.293 HD
ENDBRANCH   6  14
BRANCH   5  16
ATOM     16  C   UNL     1     130.441 -16.425 164.641  1.00  0.00     0.142 A 
ATOM     17  N   UNL     1     131.643 -16.406 164.090  1.00  0.00    -0.228 NA
ATOM     18  N   UNL     1     130.555 -16.366 166.012  1.00  0.00    -0.338 N 
ATOM     19  C   UNL     1     132.539 -16.337 165.126  1.00  0.00     0.090 A 
ATOM     20  C   UNL     1     131.880 -16.307 166.348  1.00  0.00     0.069 A 
ATOM     21  C   UNL     1     133.941 -16.291 165.094  1.00  0.00     0.045 A 
ATOM     22  C   UNL     1     132.542 -16.227 167.572  1.00  0.00     0.068 A 
ATOM     23  C   UNL     1     134.643 -16.225 166.310  1.00  0.00     0.054 A 
ATOM     24  C   UNL     1     133.939 -16.182 167.521  1.00  0.00     0.136 A 
ATOM     25  H   UNL     1     129.760 -16.366 166.638  1.00  0.00     0.168 HD
ATOM     26  F   UNL     1     134.594 -16.097 168.690  1.00  0.00    -0.206 F 
BRANCH  23  27
ATOM     27  C   UNL     1     136.133 -16.177 166.302  1.00  0.00     0.125 C 
ATOM     28  N   UNL     1     136.807 -15.079 166.454  1.00  0.00    -0.284 NA
ATOM     29  N   UNL     1     136.867 -17.303 166.130  1.00  0.00    -0.384 N 
ATOM     30  H   UNL     1     136.200 -14.261 166.537  1.00  0.00     0.189 HD
ATOM     31  H   UNL     1     136.458 -18.199 165.901  1.00  0.00     0.158 HD
ATOM     32  H   UNL     1     137.873 -17.205 166.116  1.00  0.00     0.158 HD
ENDBRANCH  23  27
ENDBRANCH   5  16
TORSDOF 5
ENDMDL
MODEL 3
REMARK VINA RESULT:    -8.174      3.490      4.893
REMARK INTER + INTRA:         -10.925
REMARK INTER:                  -9.952
REMARK INTRA:                  -0.974
REMARK UNBOUND:                -0.601
REMARK SMILES C[C@H]1CCC[C@@H]1Oc1cccc(-c2nc3cc(C(=N)N)c(F)cc3[nH]2)c1O
REMARK SMILES IDX 8 1 9 2 10 3 11 4 12 5 26 6 7 7 6 8 2 9 3 10 4 11 5 12 1 13
REMARK SMILES IDX 27 14 13 16 14 17 25 18 15 19 24 20 16 21 23 22 17 23 21 24
REMARK SMILES IDX 22 26 18 27 19 28 20 29
REMARK H PARENT 27 15 25 25 19 30 20 31 20 32
ROOT
ATOM      1  C   UNL     1     130.166 -14.971 163.869  1.00  0.00     0.162 A 
ATOM      2  C   UNL     1     130.750 -14.474 162.707  1.00  0.00     0.050 A 
ATOM      3  C   UNL     1     132.091 -14.749 162.430  1.00  0.00     0.005 A 
ATOM      4  C   UNL     1     132.852 -15.519 163.313  1.00  0.00     0.016 A 
ATOM      5  C   UNL     1     132.291 -16.034 164.491  1.00  0.00     0.063 A 
ATOM      6  C   UNL     1     130.942 -15.746 164.749  1.00  0.00     0.168 A 
ENDROOT
BRANCH   1   7
ATOM      7  O   UNL     1     128.868 -14.787 164.272  1.00  0.00    -0.486 OA
BRANCH   7   8
ATOM      8  C   UNL     1     127.826 -14.977 163.321  1.00  0.00     0.176 C 
ATOM      9  C   UNL     1     126.523 -14.393 163.883  1.00  0.00     0.027 C 
ATOM     10  C   UNL     1     125.455 -15.056 163.019  1.00  0.00     0.007 C 
ATOM     11  C   UNL     1     125.986 -16.463 162.746  1.00  0.00     0.004 C 
ATOM     12  C   UNL     1     127.459 -16.452 163.151  1.00  0.00     0.045 C 
ATOM     13  C   UNL     1     126.477 -12.873 163.832  1.00  0.00     0.011 C 
ENDBRANCH   7   8
ENDBRANCH   1   7
BRANCH   6  14
ATOM     14  O   UNL     1     130.332 -16.223 165.892  1.00  0.00    -0.504 OA
ATOM     15  H   UNL     1     129.446 -16.515 165.588  1.00  0.00     0.293 HD
ENDBRANCH   6  14
BRANCH   5  16
ATOM     16  C   UNL     1     133.131 -16.839 165.385  1.00  0.00     0.142 A 
ATOM     17  N   UNL     1     133.151 -16.790 166.707  1.00  0.00    -0.228 NA
ATOM     18  N   UNL     1     134.033 -17.778 164.939  1.00  0.00    -0.338 N 
ATOM     19  C   UNL     1     134.082 -17.712 167.110  1.00  0.00     0.090 A 
ATOM     20  C   UNL     1     134.651 -18.352 166.017  1.00  0.00     0.069 A 
ATOM     21  C   UNL     1     134.492 -18.060 168.406  1.00  0.00     0.045 A 
ATOM     22  C   UNL     1     135.621 -19.346 166.131  1.00  0.00     0.068 A 
ATOM     23  C   UNL     1     135.479 -19.049 168.560  1.00  0.00     0.054 A 
ATOM     24  C   UNL     1     136.017 -19.680 167.430  1.00  0.00     0.136 A 
ATOM     25  H   UNL     1     134.184 -17.986 163.960  1.00  0.00     0.168 HD
ATOM     26  F   UNL     1     136.946 -20.642 167.561  1.00  0.00    -0.206 F 
BRANCH  23  27
ATOM     27  C   UNL     1     135.933 -19.435 169.927  1.00  0.00     0.125 C 
ATOM     28  N   UNL     1     136.655 -18.663 170.678  1.00  0.00    -0.284 NA
ATOM     29  N   UNL     1     135.605 -20.639 170.457  1.00  0.00    -0.384 N 
ATOM     30  H   UNL     1     136.905 -17.790 170.208  1.00  0.00     0.189 HD
ATOM     31  H   UNL     1     135.134 -21.363 169.932  1.00  0.00     0.158 HD
ATOM     32  H   UNL     1     135.957 -20.851 171.381  1.00  0.00     0.158 HD
ENDBRANCH  23  27
ENDBRANCH   5  16
TORSDOF 5
ENDMDL
MODEL 4
REMARK VINA RESULT:    -8.135      2.767      4.815
REMARK INTER + INTRA:         -10.877
REMARK INTER:                 -10.964
REMARK INTRA:                   0.087
REMARK UNBOUND:                -0.601
REMARK SMILES C[C@H]1CCC[C@@H]1Oc1cccc(-c2nc3cc(C(=N)N)c(F)cc3[nH]2)c1O
REMARK SMILES IDX 8 1 9 2 10 3 11 4 12 5 26 6 7 7 6 8 2 9 3 10 4 11 5 12 1 13
REMARK SMILES IDX 27 14 13 16 14 17 25 18 15 19 24 20 16 21 23 22 17 23 21 24
REMARK SMILES IDX 22 26 18 27 19 28 20 29
REMARK H PARENT 27 15 25 25 19 30 20 31 20 32
ROOT
ATOM      1  C   UNL     1     126.869 -14.369 162.543  1.00  0.00     0.162 A 
ATOM      2  C   UNL     1     127.007 -14.144 161.176  1.00  0.00     0.050 A 
ATOM      3  C   UNL     1     128.211 -14.451 160.539  1.00  0.00     0.005 A 
ATOM      4  C   UNL     1     129.281 -14.983 161.266  1.00  0.00     0.016 A 
ATOM      5  C   UNL     1     129.170 -15.221 162.643  1.00  0.00     0.063 A 
ATOM      6  C   UNL     1     127.951 -14.906 163.263  1.00  0.00     0.168 A 
ENDROOT
BRANCH   1   7
ATOM      7  O   UNL     1     125.754 -14.120 163.301  1.00  0.00    -0.486 OA
BRANCH   7   8
ATOM      8  C   UNL     1     125.899 -13.362 164.498  1.00  0.00     0.176 C 
ATOM      9  C   UNL     1     124.514 -13.139 165.120  1.00  0.00     0.027 C 
ATOM     10  C   UNL     1     124.757 -11.974 166.076  1.00  0.00     0.007 C 
ATOM     11  C   UNL     1     125.787 -11.092 165.369  1.00  0.00     0.004 C 
ATOM     12  C   UNL     1     126.353 -11.928 164.222  1.00  0.00     0.045 C 
ATOM     13  C   UNL     1     123.962 -14.376 165.811  1.00  0.00     0.011 C 
ENDBRANCH   7   8
ENDBRANCH   1   7
BRANCH   6  14
ATOM     14  O   UNL     1     127.780 -15.116 164.616  1.00  0.00    -0.504 OA
ATOM     15  H   UNL     1     128.471 -14.561 165.036  1.00  0.00     0.293 HD
ENDBRANCH   6  14
BRANCH   5  16
ATOM     16  C   UNL     1     130.321 -15.781 163.361  1.00  0.00     0.142 A 
ATOM     17  N   UNL     1     131.204 -15.112 164.083  1.00  0.00    -0.228 NA
ATOM     18  N   UNL     1     130.629 -17.123 163.372  1.00  0.00    -0.338 N 
ATOM     19  C   UNL     1     132.092 -16.041 164.561  1.00  0.00     0.090 A 
ATOM     20  C   UNL     1     131.751 -17.317 164.131  1.00  0.00     0.069 A 
ATOM     21  C   UNL     1     133.219 -15.864 165.377  1.00  0.00     0.045 A 
ATOM     22  C   UNL     1     132.474 -18.459 164.474  1.00  0.00     0.068 A 
ATOM     23  C   UNL     1     133.981 -16.990 165.732  1.00  0.00     0.054 A 
ATOM     24  C   UNL     1     133.594 -18.263 165.289  1.00  0.00     0.136 A 
ATOM     25  H   UNL     1     130.084 -17.824 162.886  1.00  0.00     0.168 HD
ATOM     26  F   UNL     1     134.298 -19.352 165.637  1.00  0.00    -0.206 F 
BRANCH  23  27
ATOM     27  C   UNL     1     135.184 -16.828 166.597  1.00  0.00     0.125 C 
ATOM     28  N   UNL     1     135.245 -17.270 167.816  1.00  0.00    -0.284 NA
ATOM     29  N   UNL     1     136.292 -16.194 166.142  1.00  0.00    -0.384 N 
ATOM     30  H   UNL     1     134.367 -17.699 168.115  1.00  0.00     0.189 HD
ATOM     31  H   UNL     1     136.328 -15.720 165.249  1.00  0.00     0.158 HD
ATOM     32  H   UNL     1     137.069 -16.099 166.780  1.00  0.00     0.158 HD
ENDBRANCH  23  27
ENDBRANCH   5  16
TORSDOF 5
ENDMDL
MODEL 5
REMARK VINA RESULT:    -8.063      4.858      8.831
REMARK INTER + INTRA:         -10.786
REMARK INTER:                 -10.025
REMARK INTRA:                  -0.761
REMARK UNBOUND:                -0.601
REMARK SMILES C[C@H]1CCC[C@@H]1Oc1cccc(-c2nc3cc(C(=N)N)c(F)cc3[nH]2)c1O
REMARK SMILES IDX 8 1 9 2 10 3 11 4 12 5 26 6 7 7 6 8 2 9 3 10 4 11 5 12 1 13
REMARK SMILES IDX 27 14 13 16 14 17 25 18 15 19 24 20 16 21 23 22 17 23 21 24
REMARK SMILES IDX 22 26 18 27 19 28 20 29
REMARK H PARENT 27 15 25 25 19 30 20 31 20 32
ROOT
ATOM      1  C   UNL     1     132.742 -16.408 164.008  1.00  0.00     0.162 A 
ATOM      2  C   UNL     1     132.768 -15.196 163.322  1.00  0.00     0.050 A 
ATOM      3  C   UNL     1     131.635 -14.767 162.627  1.00  0.00     0.005 A 
ATOM      4  C   UNL     1     130.475 -15.547 162.614  1.00  0.00     0.016 A 
ATOM      5  C   UNL     1     130.420 -16.771 163.295  1.00  0.00     0.063 A 
ATOM      6  C   UNL     1     131.568 -17.183 163.988  1.00  0.00     0.168 A 
ENDROOT
BRANCH   1   7
ATOM      7  O   UNL     1     133.769 -16.956 164.732  1.00  0.00    -0.486 OA
BRANCH   7   8
ATOM      8  C   UNL     1     134.190 -16.297 165.923  1.00  0.00     0.176 C 
ATOM      9  C   UNL     1     134.533 -17.352 166.984  1.00  0.00     0.027 C 
ATOM     10  C   UNL     1     134.507 -16.548 168.280  1.00  0.00     0.007 C 
ATOM     11  C   UNL     1     133.389 -15.523 168.087  1.00  0.00     0.004 C 
ATOM     12  C   UNL     1     133.050 -15.535 166.597  1.00  0.00     0.045 C 
ATOM     13  C   UNL     1     135.865 -18.043 166.734  1.00  0.00     0.011 C 
ENDBRANCH   7   8
ENDBRANCH   1   7
BRANCH   6  14
ATOM     14  O   UNL     1     131.578 -18.378 164.679  1.00  0.00    -0.504 OA
ATOM     15  H   UNL     1     132.509 -18.680 164.625  1.00  0.00     0.293 HD
ENDBRANCH   6  14
BRANCH   5  16
ATOM     16  C   UNL     1     129.179 -17.553 163.253  1.00  0.00     0.142 A 
ATOM     17  N   UNL     1     129.070 -18.869 163.334  1.00  0.00    -0.228 NA
ATOM     18  N   UNL     1     127.930 -16.989 163.120  1.00  0.00    -0.338 N 
ATOM     19  C   UNL     1     127.731 -19.149 163.249  1.00  0.00     0.090 A 
ATOM     20  C   UNL     1     126.989 -17.982 163.118  1.00  0.00     0.069 A 
ATOM     21  C   UNL     1     127.073 -20.388 163.283  1.00  0.00     0.045 A 
ATOM     22  C   UNL     1     125.598 -17.967 163.021  1.00  0.00     0.068 A 
ATOM     23  C   UNL     1     125.672 -20.412 163.174  1.00  0.00     0.054 A 
ATOM     24  C   UNL     1     124.959 -19.210 163.057  1.00  0.00     0.136 A 
ATOM     25  H   UNL     1     127.774 -15.992 163.043  1.00  0.00     0.168 HD
ATOM     26  F   UNL     1     123.619 -19.215 162.973  1.00  0.00    -0.206 F 
BRANCH  23  27
ATOM     27  C   UNL     1     124.950 -21.716 163.206  1.00  0.00     0.125 C 
ATOM     28  N   UNL     1     124.815 -22.425 164.283  1.00  0.00    -0.284 NA
ATOM     29  N   UNL     1     124.390 -22.232 162.084  1.00  0.00    -0.384 N 
ATOM     30  H   UNL     1     125.293 -22.006 165.084  1.00  0.00     0.189 HD
ATOM     31  H   UNL     1     124.515 -21.824 161.167  1.00  0.00     0.158 HD
ATOM     32  H   UNL     1     123.929 -23.128 162.164  1.00  0.00     0.158 HD
ENDBRANCH  23  27
ENDBRANCH   5  16
TORSDOF 5
ENDMDL
MODEL 6
REMARK VINA RESULT:    -7.936      3.778      9.260
REMARK INTER + INTRA:         -10.626
REMARK INTER:                  -9.771
REMARK INTRA:                  -0.854
REMARK UNBOUND:                -0.601
REMARK SMILES C[C@H]1CCC[C@@H]1Oc1cccc(-c2nc3cc(C(=N)N)c(F)cc3[nH]2)c1O
REMARK SMILES IDX 8 1 9 2 10 3 11 4 12 5 26 6 7 7 6 8 2 9 3 10 4 11 5 12 1 13
REMARK SMILES IDX 27 14 13 16 14 17 25 18 15 19 24 20 16 21 23 22 17 23 21 24
REMARK SMILES IDX 22 26 18 27 19 28 20 29
REMARK H PARENT 27 15 25 25 19 30 20 31 20 32
ROOT
ATOM      1  C   UNL     1     134.728 -17.552 166.321  1.00  0.00     0.162 A 
ATOM      2  C   UNL     1     134.819 -16.921 167.558  1.00  0.00     0.050 A 
ATOM      3  C   UNL     1     133.909 -15.915 167.894  1.00  0.00     0.005 A 
ATOM      4  C   UNL     1     132.907 -15.538 166.995  1.00  0.00     0.016 A 
ATOM      5  C   UNL     1     132.791 -16.157 165.742  1.00  0.00     0.063 A 
ATOM      6  C   UNL     1     133.715 -17.165 165.426  1.00  0.00     0.168 A 
ENDROOT
BRANCH   1   7
ATOM      7  O   UNL     1     135.543 -18.551 165.854  1.00  0.00    -0.486 OA
BRANCH   7   8
ATOM      8  C   UNL     1     136.661 -18.944 166.645  1.00  0.00     0.176 C 
ATOM      9  C   UNL     1     137.749 -19.513 165.724  1.00  0.00     0.027 C 
ATOM     10  C   UNL     1     138.637 -20.291 166.692  1.00  0.00     0.007 C 
ATOM     11  C   UNL     1     137.675 -20.873 167.728  1.00  0.00     0.004 C 
ATOM     12  C   UNL     1     136.345 -20.145 167.535  1.00  0.00     0.045 C 
ATOM     13  C   UNL     1     138.501 -18.440 164.951  1.00  0.00     0.011 C 
ENDBRANCH   7   8
ENDBRANCH   1   7
BRANCH   6  14
ATOM     14  O   UNL     1     133.653 -17.812 164.208  1.00  0.00    -0.504 OA
ATOM     15  H   UNL     1     133.066 -18.580 164.373  1.00  0.00     0.293 HD
ENDBRANCH   6  14
BRANCH   5  16
ATOM     16  C   UNL     1     131.722 -15.727 164.835  1.00  0.00     0.142 A 
ATOM     17  N   UNL     1     130.442 -15.577 165.136  1.00  0.00    -0.228 NA
ATOM     18  N   UNL     1     131.929 -15.414 163.510  1.00  0.00    -0.338 N 
ATOM     19  C   UNL     1     129.823 -15.164 163.984  1.00  0.00     0.090 A 
ATOM     20  C   UNL     1     130.737 -15.049 162.945  1.00  0.00     0.069 A 
ATOM     21  C   UNL     1     128.472 -14.861 163.755  1.00  0.00     0.045 A 
ATOM     22  C   UNL     1     130.387 -14.637 161.661  1.00  0.00     0.068 A 
ATOM     23  C   UNL     1     128.080 -14.456 162.468  1.00  0.00     0.054 A 
ATOM     24  C   UNL     1     129.037 -14.339 161.450  1.00  0.00     0.136 A 
ATOM     25  H   UNL     1     132.836 -15.456 163.063  1.00  0.00     0.168 HD
ATOM     26  F   UNL     1     128.682 -13.933 160.220  1.00  0.00    -0.206 F 
BRANCH  23  27
ATOM     27  C   UNL     1     126.650 -14.131 162.198  1.00  0.00     0.125 C 
ATOM     28  N   UNL     1     125.699 -15.010 162.264  1.00  0.00    -0.284 NA
ATOM     29  N   UNL     1     126.271 -12.873 161.862  1.00  0.00    -0.384 N 
ATOM     30  H   UNL     1     126.052 -15.945 162.479  1.00  0.00     0.189 HD
ATOM     31  H   UNL     1     126.930 -12.128 161.680  1.00  0.00     0.158 HD
ATOM     32  H   UNL     1     125.291 -12.718 161.674  1.00  0.00     0.158 HD
ENDBRANCH  23  27
ENDBRANCH   5  16
TORSDOF 5
ENDMDL
MODEL 7
REMARK VINA RESULT:    -7.892      4.185      9.648
REMARK INTER + INTRA:         -10.569
REMARK INTER:                  -9.650
REMARK INTRA:                  -0.919
REMARK UNBOUND:                -0.601
REMARK SMILES C[C@H]1CCC[C@@H]1Oc1cccc(-c2nc3cc(C(=N)N)c(F)cc3[nH]2)c1O
REMARK SMILES IDX 8 1 9 2 10 3 11 4 12 5 26 6 7 7 6 8 2 9 3 10 4 11 5 12 1 13
REMARK SMILES IDX 27 14 13 16 14 17 25 18 15 19 24 20 16 21 23 22 17 23 21 24
REMARK SMILES IDX 22 26 18 27 19 28 20 29
REMARK H PARENT 27 15 25 25 19 30 20 31 20 32
ROOT
ATOM      1  C   UNL     1     134.372 -17.781 167.823  1.00  0.00     0.162 A 
ATOM      2  C   UNL     1     134.632 -16.688 168.644  1.00  0.00     0.050 A 
ATOM      3  C   UNL     1     134.020 -15.460 168.383  1.00  0.00     0.005 A 
ATOM      4  C   UNL     1     133.146 -15.321 167.300  1.00  0.00     0.016 A 
ATOM      5  C   UNL     1     132.865 -16.405 166.456  1.00  0.00     0.063 A 
ATOM      6  C   UNL     1     133.490 -17.629 166.737  1.00  0.00     0.168 A 
ENDROOT
BRANCH   1   7
ATOM      7  O   UNL     1     134.894 -19.042 167.954  1.00  0.00    -0.486 OA
BRANCH   7   8
ATOM      8  C   UNL     1     134.472 -19.842 169.054  1.00  0.00     0.176 C 
ATOM      9  C   UNL     1     135.710 -20.332 169.819  1.00  0.00     0.027 C 
ATOM     10  C   UNL     1     135.162 -21.500 170.634  1.00  0.00     0.007 C 
ATOM     11  C   UNL     1     134.112 -22.151 169.734  1.00  0.00     0.004 C 
ATOM     12  C   UNL     1     133.842 -21.160 168.603  1.00  0.00     0.045 C 
ATOM     13  C   UNL     1     136.351 -19.251 170.676  1.00  0.00     0.011 C 
ENDBRANCH   7   8
ENDBRANCH   1   7
BRANCH   6  14
ATOM     14  O   UNL     1     133.254 -18.733 165.943  1.00  0.00    -0.504 OA
ATOM     15  H   UNL     1     133.652 -18.498 165.078  1.00  0.00     0.293 HD
ENDBRANCH   6  14
BRANCH   5  16
ATOM     16  C   UNL     1     131.940 -16.209 165.333  1.00  0.00     0.142 A 
ATOM     17  N   UNL     1     131.867 -15.148 164.546  1.00  0.00    -0.228 NA
ATOM     18  N   UNL     1     131.004 -17.141 164.949  1.00  0.00    -0.338 N 
ATOM     19  C   UNL     1     130.866 -15.407 163.646  1.00  0.00     0.090 A 
ATOM     20  C   UNL     1     130.307 -16.658 163.875  1.00  0.00     0.069 A 
ATOM     21  C   UNL     1     130.381 -14.614 162.595  1.00  0.00     0.045 A 
ATOM     22  C   UNL     1     129.274 -17.187 163.102  1.00  0.00     0.068 A 
ATOM     23  C   UNL     1     129.330 -15.109 161.804  1.00  0.00     0.054 A 
ATOM     24  C   UNL     1     128.804 -16.383 162.059  1.00  0.00     0.136 A 
ATOM     25  H   UNL     1     130.883 -18.033 165.411  1.00  0.00     0.168 HD
ATOM     26  F   UNL     1     127.814 -16.880 161.299  1.00  0.00    -0.206 F 
BRANCH  23  27
ATOM     27  C   UNL     1     128.796 -14.285 160.682  1.00  0.00     0.125 C 
ATOM     28  N   UNL     1     129.548 -13.786 159.749  1.00  0.00    -0.284 NA
ATOM     29  N   UNL     1     127.473 -14.009 160.586  1.00  0.00    -0.384 N 
ATOM     30  H   UNL     1     130.538 -13.992 159.900  1.00  0.00     0.189 HD
ATOM     31  H   UNL     1     126.804 -14.255 161.304  1.00  0.00     0.158 HD
ATOM     32  H   UNL     1     127.173 -13.431 159.813  1.00  0.00     0.158 HD
ENDBRANCH  23  27
ENDBRANCH   5  16
TORSDOF 5
ENDMDL
MODEL 8
REMARK VINA RESULT:    -7.735      3.129      4.177
REMARK INTER + INTRA:         -10.371
REMARK INTER:                  -9.697
REMARK INTRA:                  -0.675
REMARK UNBOUND:                -0.601
REMARK SMILES C[C@H]1CCC[C@@H]1Oc1cccc(-c2nc3cc(C(=N)N)c(F)cc3[nH]2)c1O
REMARK SMILES IDX 8 1 9 2 10 3 11 4 12 5 26 6 7 7 6 8 2 9 3 10 4 11 5 12 1 13
REMARK SMILES IDX 27 14 13 16 14 17 25 18 15 19 24 20 16 21 23 22 17 23 21 24
REMARK SMILES IDX 22 26 18 27 19 28 20 29
REMARK H PARENT 27 15 25 25 19 30 20 31 20 32
ROOT
ATOM      1  C   UNL     1     127.273 -15.824 162.525  1.00  0.00     0.162 A 
ATOM      2  C   UNL     1     126.756 -17.068 162.175  1.00  0.00     0.050 A 
ATOM      3  C   UNL     1     127.436 -18.232 162.540  1.00  0.00     0.005 A 
ATOM      4  C   UNL     1     128.635 -18.156 163.254  1.00  0.00     0.016 A 
ATOM      5  C   UNL     1     129.180 -16.917 163.621  1.00  0.00     0.063 A 
ATOM      6  C   UNL     1     128.480 -15.761 163.246  1.00  0.00     0.168 A 
ENDROOT
BRANCH   1   7
ATOM      7  O   UNL     1     126.721 -14.601 162.241  1.00  0.00    -0.486 OA
BRANCH   7   8
ATOM      8  C   UNL     1     125.585 -14.177 162.988  1.00  0.00     0.176 C 
ATOM      9  C   UNL     1     125.892 -12.819 163.635  1.00  0.00     0.027 C 
ATOM     10  C   UNL     1     124.833 -12.720 164.730  1.00  0.00     0.007 C 
ATOM     11  C   UNL     1     124.656 -14.151 165.237  1.00  0.00     0.004 C 
ATOM     12  C   UNL     1     125.337 -15.057 164.213  1.00  0.00     0.045 C 
ATOM     13  C   UNL     1     125.845 -11.661 162.650  1.00  0.00     0.011 C 
ENDBRANCH   7   8
ENDBRANCH   1   7
BRANCH   6  14
ATOM     14  O   UNL     1     128.964 -14.511 163.577  1.00  0.00    -0.504 OA
ATOM     15  H   UNL     1     128.719 -14.400 164.520  1.00  0.00     0.293 HD
ENDBRANCH   6  14
BRANCH   5  16
ATOM     16  C   UNL     1     130.440 -16.890 164.372  1.00  0.00     0.142 A 
ATOM     17  N   UNL     1     130.712 -17.555 165.484  1.00  0.00    -0.228 NA
ATOM     18  N   UNL     1     131.534 -16.144 163.996  1.00  0.00    -0.338 N 
ATOM     19  C   UNL     1     131.999 -17.225 165.823  1.00  0.00     0.090 A 
ATOM     20  C   UNL     1     132.542 -16.340 164.900  1.00  0.00     0.069 A 
ATOM     21  C   UNL     1     132.774 -17.651 166.911  1.00  0.00     0.045 A 
ATOM     22  C   UNL     1     133.842 -15.843 164.989  1.00  0.00     0.068 A 
ATOM     23  C   UNL     1     134.085 -17.160 167.042  1.00  0.00     0.054 A 
ATOM     24  C   UNL     1     134.599 -16.279 166.081  1.00  0.00     0.136 A 
ATOM     25  H   UNL     1     131.551 -15.557 163.171  1.00  0.00     0.168 HD
ATOM     26  F   UNL     1     135.857 -15.818 166.179  1.00  0.00    -0.206 F 
BRANCH  23  27
ATOM     27  C   UNL     1     134.927 -17.597 168.191  1.00  0.00     0.125 C 
ATOM     28  N   UNL     1     135.070 -16.895 169.273  1.00  0.00    -0.284 NA
ATOM     29  N   UNL     1     135.600 -18.774 168.157  1.00  0.00    -0.384 N 
ATOM     30  H   UNL     1     134.575 -16.002 169.222  1.00  0.00     0.189 HD
ATOM     31  H   UNL     1     135.649 -19.357 167.333  1.00  0.00     0.158 HD
ATOM     32  H   UNL     1     136.169 -19.007 168.959  1.00  0.00     0.158 HD
ENDBRANCH  23  27
ENDBRANCH   5  16
TORSDOF 5
ENDMDL
MODEL 9
REMARK VINA RESULT:    -7.612      3.880      9.368
REMARK INTER + INTRA:         -10.217
REMARK INTER:                  -9.744
REMARK INTRA:                  -0.473
REMARK UNBOUND:                -0.601
REMARK SMILES C[C@H]1CCC[C@@H]1Oc1cccc(-c2nc3cc(C(=N)N)c(F)cc3[nH]2)c1O
REMARK SMILES IDX 8 1 9 2 10 3 11 4 12 5 26 6 7 7 6 8 2 9 3 10 4 11 5 12 1 13
REMARK SMILES IDX 27 14 13 16 14 17 25 18 15 19 24 20 16 21 23 22 17 23 21 24
REMARK SMILES IDX 22 26 18 27 19 28 20 29
REMARK H PARENT 27 15 25 25 19 30 20 31 20 32
ROOT
ATOM      1  C   UNL     1     134.691 -17.609 167.188  1.00  0.00     0.162 A 
ATOM      2  C   UNL     1     134.757 -16.815 168.330  1.00  0.00     0.050 A 
ATOM      3  C   UNL     1     133.931 -15.695 168.447  1.00  0.00     0.005 A 
ATOM      4  C   UNL     1     133.038 -15.364 167.424  1.00  0.00     0.016 A 
ATOM      5  C   UNL     1     132.948 -16.145 166.263  1.00  0.00     0.063 A 
ATOM      6  C   UNL     1     133.786 -17.266 166.166  1.00  0.00     0.168 A 
ENDROOT
BRANCH   1   7
ATOM      7  O   UNL     1     135.432 -18.733 166.933  1.00  0.00    -0.486 OA
BRANCH   7   8
ATOM      8  C   UNL     1     135.357 -19.821 167.849  1.00  0.00     0.176 C 
ATOM      9  C   UNL     1     133.884 -20.091 168.184  1.00  0.00     0.027 C 
ATOM     10  C   UNL     1     133.976 -20.913 169.467  1.00  0.00     0.007 C 
ATOM     11  C   UNL     1     135.175 -20.337 170.220  1.00  0.00     0.004 C 
ATOM     12  C   UNL     1     135.930 -19.462 169.220  1.00  0.00     0.045 C 
ATOM     13  C   UNL     1     133.136 -20.804 167.068  1.00  0.00     0.011 C 
ENDBRANCH   7   8
ENDBRANCH   1   7
BRANCH   6  14
ATOM     14  O   UNL     1     133.746 -18.075 165.048  1.00  0.00    -0.504 OA
ATOM     15  H   UNL     1     133.173 -17.588 164.419  1.00  0.00     0.293 HD
ENDBRANCH   6  14
BRANCH   5  16
ATOM     16  C   UNL     1     131.993 -15.758 165.218  1.00  0.00     0.142 A 
ATOM     17  N   UNL     1     130.675 -15.736 165.321  1.00  0.00    -0.228 NA
ATOM     18  N   UNL     1     132.369 -15.352 163.958  1.00  0.00    -0.338 N 
ATOM     19  C   UNL     1     130.202 -15.313 164.106  1.00  0.00     0.090 A 
ATOM     20  C   UNL     1     131.248 -15.060 163.229  1.00  0.00     0.069 A 
ATOM     21  C   UNL     1     128.879 -15.115 163.681  1.00  0.00     0.045 A 
ATOM     22  C   UNL     1     131.060 -14.606 161.925  1.00  0.00     0.068 A 
ATOM     23  C   UNL     1     128.651 -14.672 162.367  1.00  0.00     0.054 A 
ATOM     24  C   UNL     1     129.736 -14.415 161.518  1.00  0.00     0.136 A 
ATOM     25  H   UNL     1     133.333 -15.290 163.657  1.00  0.00     0.168 HD
ATOM     26  F   UNL     1     129.536 -13.970 160.267  1.00  0.00    -0.206 F 
BRANCH  23  27
ATOM     27  C   UNL     1     127.254 -14.457 161.892  1.00  0.00     0.125 C 
ATOM     28  N   UNL     1     126.813 -13.305 161.487  1.00  0.00    -0.284 NA
ATOM     29  N   UNL     1     126.361 -15.475 161.862  1.00  0.00    -0.384 N 
ATOM     30  H   UNL     1     127.518 -12.570 161.573  1.00  0.00     0.189 HD
ATOM     31  H   UNL     1     126.555 -16.391 162.245  1.00  0.00     0.158 HD
ATOM     32  H   UNL     1     125.425 -15.264 161.546  1.00  0.00     0.158 HD
ENDBRANCH  23  27
ENDBRANCH   5  16
TORSDOF 5
ENDMDL
