MODEL 3
REMARK VINA RESULT:    -9.146      3.855      5.268
REMARK INTER + INTRA:         -14.298
REMARK INTER:                 -13.125
REMARK INTRA:                  -1.173
REMARK UNBOUND:                -1.410
REMARK SMILES O=C(NS(=O)(=O)c1ccc(COc2ccccc2)cc1)c1cccc(-c2cc(Cl)cc(Cl)c2)c1
REMARK SMILES IDX 4 1 5 2 6 3 3 4 1 5 2 6 21 8 22 9 34 10 23 11 25 12 24 13
REMARK SMILES IDX 26 14 27 15 33 16 28 17 31 18 30 19 29 20 32 21 7 22 8 23
REMARK SMILES IDX 20 24 9 25 19 26 10 27 11 28 12 29 13 30 14 31 18 32 15 33
REMARK SMILES IDX 17 34 16 35
REMARK H PARENT 3 7
ROOT
ATOM      1  S   UNL     1     -16.969   4.447  21.884  1.00  0.00     0.264 S 
ATOM      2  O   UNL     1     -16.553   5.198  20.720  1.00  0.00    -0.201 OA
ATOM      3  O   UNL     1     -18.299   3.901  22.031  1.00  0.00    -0.201 OA
ENDROOT
BRANCH   1   4
ATOM      4  N   UNL     1     -16.581   5.317  23.256  1.00  0.00    -0.245 N 
ATOM      5  O   UNL     1     -18.055   7.064  22.878  1.00  0.00    -0.268 OA
ATOM      6  C   UNL     1     -17.200   6.536  23.569  1.00  0.00     0.265 C 
ATOM      7  H   UNL     1     -16.038   4.814  23.947  1.00  0.00     0.183 HD
BRANCH   6   8
ATOM      8  C   UNL     1     -16.748   7.174  24.836  1.00  0.00     0.041 A 
ATOM      9  C   UNL     1     -17.487   7.097  26.024  1.00  0.00     0.014 A 
ATOM     10  C   UNL     1     -15.535   7.881  24.820  1.00  0.00     0.022 A 
ATOM     11  C   UNL     1     -17.019   7.730  27.174  1.00  0.00     0.001 A 
ATOM     12  C   UNL     1     -15.050   8.527  25.970  1.00  0.00    -0.018 A 
ATOM     13  C   UNL     1     -15.816   8.440  27.144  1.00  0.00     0.009 A 
BRANCH  12  14
ATOM     14  C   UNL     1     -13.779   9.270  25.945  1.00  0.00    -0.015 A 
ATOM     15  C   UNL     1     -12.922   9.205  24.834  1.00  0.00     0.029 A 
ATOM     16  C   UNL     1     -13.386  10.068  27.033  1.00  0.00     0.029 A 
ATOM     17  C   UNL     1     -11.717   9.910  24.817  1.00  0.00     0.043 A 
ATOM     18  C   UNL     1     -12.178  10.769  27.007  1.00  0.00     0.043 A 
ATOM     19  C   UNL     1     -11.338  10.695  25.902  1.00  0.00     0.041 A 
ATOM     20  Cl  UNL     1     -10.685   9.803  23.444  1.00  0.00    -0.084 Cl
ATOM     21  Cl  UNL     1     -11.727  11.736  28.358  1.00  0.00    -0.084 Cl
ENDBRANCH  12  14
ENDBRANCH   6   8
ENDBRANCH   1   4
BRANCH   1  22
ATOM     22  C   UNL     1     -15.831   3.085  22.056  1.00  0.00     0.087 A 
ATOM     23  C   UNL     1     -15.815   2.346  23.241  1.00  0.00     0.022 A 
ATOM     24  C   UNL     1     -14.963   2.774  21.008  1.00  0.00     0.022 A 
ATOM     25  C   UNL     1     -14.927   1.277  23.370  1.00  0.00     0.008 A 
ATOM     26  C   UNL     1     -14.079   1.702  21.144  1.00  0.00     0.008 A 
ATOM     27  C   UNL     1     -14.043   0.950  22.329  1.00  0.00    -0.011 A 
BRANCH  27  28
ATOM     28  C   UNL     1     -13.105  -0.230  22.489  1.00  0.00     0.265 C 
BRANCH  28  29
ATOM     29  O   UNL     1     -13.284  -1.242  21.495  1.00  0.00    -0.489 OA
BRANCH  29  30
ATOM     30  C   UNL     1     -13.833  -2.435  21.880  1.00  0.00     0.119 A 
ATOM     31  C   UNL     1     -14.315  -3.431  21.030  1.00  0.00     0.046 A 
ATOM     32  C   UNL     1     -13.927  -2.613  23.263  1.00  0.00     0.046 A 
ATOM     33  C   UNL     1     -14.868  -4.600  21.562  1.00  0.00     0.004 A 
ATOM     34  C   UNL     1     -14.478  -3.779  23.795  1.00  0.00     0.004 A 
ATOM     35  C   UNL     1     -14.947  -4.776  22.943  1.00  0.00     0.000 A 
ENDBRANCH  29  30
ENDBRANCH  28  29
ENDBRANCH  27  28
ENDBRANCH   1  22
TORSDOF 7
ENDMDL
