REMARK SMILES CN(C)[C@H]1CC[C@@H](CCN(CCCc2c[nH]c3ccccc23)CCC2CCCCCC2)CC1
REMARK SMILES IDX 10 1 9 2 8 3 7 4 4 5 5 6 33 7 6 8 32 9 2 10 1 11 3 12 11 13
REMARK SMILES IDX 12 14 13 15 14 16 15 17 22 18 16 19 21 20 17 21 20 22 18 23
REMARK SMILES IDX 19 24 23 26 24 27 25 28 26 29 31 30 27 31 30 32 28 33 29 34
REMARK H PARENT 16 25
REMARK INDEX MAP 10 1 9 2 8 3 7 4 4 5 5 6 33 7 6 8 32 9 2 10 1 11 3 12 11 13
REMARK INDEX MAP 12 14 13 15 14 16 15 17 22 18 16 19 21 20 17 21 20 22 18 23
REMARK INDEX MAP 19 24 57 25 23 26 24 27 25 28 26 29 31 30 27 31 30 32 28 33
REMARK INDEX MAP 29 34
ROOT
ATOM      1  N   UNL     1     -13.033 -45.262  29.923  1.00  0.00    -0.303 NA
ENDROOT
BRANCH   1   2
ATOM      2  C   UNL     1     -12.344 -46.154  30.870  1.00  0.00     0.085 C 
BRANCH   2   3
ATOM      3  C   UNL     1     -11.177 -45.513  31.644  1.00  0.00     0.019 C 
BRANCH   3   4
ATOM      4  C   UNL     1      -9.765 -45.841  31.106  1.00  0.00    -0.010 C 
ATOM      5  C   UNL     1      -8.846 -43.607  29.321  1.00  0.00     0.056 C 
ATOM      6  C   UNL     1      -9.879 -44.652  28.848  1.00  0.00     0.019 C 
ATOM      7  C   UNL     1      -8.896 -43.442  30.854  1.00  0.00     0.019 C 
ATOM      8  C   UNL     1      -9.698 -45.984  29.577  1.00  0.00     0.005 C 
ATOM      9  C   UNL     1      -8.745 -44.787  31.571  1.00  0.00     0.005 C 
BRANCH   5  10
ATOM     10  N   UNL     1      -8.971 -42.359  28.540  1.00  0.00    -0.306 NA
ATOM     11  C   UNL     1     -10.370 -42.012  28.282  1.00  0.00     0.105 C 
ATOM     12  C   UNL     1      -8.213 -42.336  27.291  1.00  0.00     0.105 C 
ENDBRANCH   5  10
ENDBRANCH   3   4
ENDBRANCH   2   3
ENDBRANCH   1   2
BRANCH   1  13
ATOM     13  C   UNL     1     -13.439 -45.931  28.671  1.00  0.00     0.085 C 
BRANCH  13  14
ATOM     14  C   UNL     1     -12.959 -45.279  27.364  1.00  0.00     0.020 C 
BRANCH  14  15
ATOM     15  C   UNL     1     -13.293 -43.785  27.299  1.00  0.00     0.039 C 
BRANCH  15  16
ATOM     16  C   UNL     1     -14.385 -43.458  26.328  1.00  0.00    -0.023 A 
ATOM     17  C   UNL     1     -14.288 -43.512  24.950  1.00  0.00     0.087 A 
ATOM     18  C   UNL     1     -15.721 -43.040  26.633  1.00  0.00     0.003 A 
ATOM     19  N   UNL     1     -15.494 -43.144  24.419  1.00  0.00    -0.361 N 
ATOM     20  C   UNL     1     -16.427 -42.801  27.830  1.00  0.00     0.010 A 
ATOM     21  C   UNL     1     -16.388 -42.851  25.421  1.00  0.00     0.046 A 
ATOM     22  C   UNL     1     -17.763 -42.385  27.774  1.00  0.00     0.001 A 
ATOM     23  C   UNL     1     -17.723 -42.435  25.346  1.00  0.00     0.026 A 
ATOM     24  C   UNL     1     -18.398 -42.206  26.549  1.00  0.00     0.002 A 
ATOM     25  H   UNL     1     -15.702 -43.094  23.412  1.00  0.00     0.166 HD
ENDBRANCH  15  16
ENDBRANCH  14  15
ENDBRANCH  13  14
ENDBRANCH   1  13
BRANCH   1  26
ATOM     26  C   UNL     1     -14.163 -44.558  30.559  1.00  0.00     0.085 C 
BRANCH  26  27
ATOM     27  C   UNL     1     -14.131 -44.703  32.090  1.00  0.00     0.019 C 
BRANCH  27  28
ATOM     28  C   UNL     1     -14.322 -43.387  32.886  1.00  0.00    -0.010 C 
ATOM     29  C   UNL     1     -15.311 -42.451  32.171  1.00  0.00     0.003 C 
ATOM     30  C   UNL     1     -12.987 -42.755  33.320  1.00  0.00     0.003 C 
ATOM     31  C   UNL     1     -15.581 -41.137  32.903  1.00  0.00     0.000 C 
ATOM     32  C   UNL     1     -13.072 -41.483  34.162  1.00  0.00     0.000 C 
ATOM     33  C   UNL     1     -15.629 -41.304  34.418  1.00  0.00     0.000 C 
ATOM     34  C   UNL     1     -14.287 -41.458  35.089  1.00  0.00     0.000 C 
ENDBRANCH  27  28
ENDBRANCH  26  27
ENDBRANCH   1  26
TORSDOF 11
