MODEL 1
REMARK VINA RESULT:   -11.336      0.000      0.000
REMARK INTER + INTRA:         -17.886
REMARK INTER:                 -16.307
REMARK INTRA:                  -1.579
REMARK UNBOUND:                -1.579
REMARK SMILES Cc1cc(Nc2ncnc3cc(O)c(NC(=O)/C=C/[C@H]4CCCN4C)cc23)ccc1Oc1cc2nccn2cn1
REMARK SMILES IDX 6 1 7 2 8 3 9 4 10 5 11 6 12 7 14 8 26 9 27 10 5 11 4 13
REMARK SMILES IDX 2 14 3 15 30 16 29 17 28 18 1 19 31 20 32 21 33 22 40 23
REMARK SMILES IDX 34 24 39 25 35 26 38 27 36 28 37 29 15 30 16 31 17 32 18 34
REMARK SMILES IDX 19 35 20 36 21 37 24 38 22 39 23 40 25 41 13 42
REMARK H PARENT 5 12 15 33 13 43
ROOT
ATOM      1  C   UNL     1      18.477  34.651  14.458  1.00  0.00     0.141 A 
ATOM      2  N   UNL     1      17.522  35.354  15.096  1.00  0.00    -0.219 NA
ATOM      3  C   UNL     1      17.928  36.336  15.905  1.00  0.00     0.224 A 
ATOM      4  N   UNL     1      19.194  36.693  16.142  1.00  0.00    -0.236 NA
ATOM      5  C   UNL     1      20.139  36.010  15.492  1.00  0.00     0.080 A 
ATOM      6  C   UNL     1      21.464  36.358  15.715  1.00  0.00     0.077 A 
ATOM      7  C   UNL     1      22.501  35.687  15.069  1.00  0.00     0.141 A 
ATOM      8  C   UNL     1      22.238  34.656  14.166  1.00  0.00     0.084 A 
ATOM      9  C   UNL     1      20.911  34.308  13.931  1.00  0.00     0.044 A 
ATOM     10  C   UNL     1      19.845  34.965  14.603  1.00  0.00     0.045 A 
ENDROOT
BRANCH   1  11
ATOM     11  N   UNL     1      18.097  33.576  13.622  1.00  0.00    -0.340 N 
ATOM     12  H   UNL     1      17.643  32.825  14.130  1.00  0.00     0.168 HD
BRANCH  11  13
ATOM     13  C   UNL     1      17.941  33.478  12.228  1.00  0.00     0.040 A 
ATOM     14  C   UNL     1      16.797  34.298  10.211  1.00  0.00    -0.006 A 
ATOM     15  C   UNL     1      17.028  34.343  11.595  1.00  0.00     0.033 A 
ATOM     16  C   UNL     1      17.524  33.381   9.447  1.00  0.00     0.132 A 
ATOM     17  C   UNL     1      18.406  32.490  10.055  1.00  0.00     0.049 A 
ATOM     18  C   UNL     1      18.610  32.541  11.438  1.00  0.00     0.030 A 
ATOM     19  C   UNL     1      15.829  35.253   9.577  1.00  0.00     0.048 C 
BRANCH  16  20
ATOM     20  O   UNL     1      17.302  33.270   8.096  1.00  0.00    -0.439 OA
BRANCH  20  21
ATOM     21  C   UNL     1      17.031  31.995   7.584  1.00  0.00     0.224 A 
ATOM     22  C   UNL     1      15.746  31.594   7.631  1.00  0.00     0.116 A 
ATOM     23  N   UNL     1      18.054  31.218   7.049  1.00  0.00    -0.203 NA
ATOM     24  C   UNL     1      15.403  30.321   7.130  1.00  0.00     0.143 A 
ATOM     25  C   UNL     1      17.747  30.043   6.591  1.00  0.00     0.209 A 
ATOM     26  N   UNL     1      14.261  29.669   7.050  1.00  0.00    -0.237 NA
ATOM     27  N   UNL     1      16.440  29.578   6.623  1.00  0.00    -0.290 N 
ATOM     28  C   UNL     1      14.576  28.466   6.466  1.00  0.00     0.132 A 
ATOM     29  C   UNL     1      15.925  28.387   6.187  1.00  0.00     0.114 A 
ENDBRANCH  20  21
ENDBRANCH  16  20
ENDBRANCH  11  13
ENDBRANCH   1  11
BRANCH   8  30
ATOM     30  N   UNL     1      23.340  34.037  13.544  1.00  0.00    -0.319 N 
ATOM     31  C   UNL     1      23.897  34.345  12.328  1.00  0.00     0.248 C 
ATOM     32  O   UNL     1      23.528  35.198  11.530  1.00  0.00    -0.270 OA
ATOM     33  H   UNL     1      23.771  33.305  14.102  1.00  0.00     0.170 HD
BRANCH  31  34
ATOM     34  C   UNL     1      25.069  33.494  12.033  1.00  0.00     0.069 C 
ATOM     35  C   UNL     1      25.654  32.813  13.032  1.00  0.00    -0.003 C 
BRANCH  35  36
ATOM     36  C   UNL     1      26.857  31.921  12.902  1.00  0.00     0.079 C 
ATOM     37  C   UNL     1      27.067  31.499  11.438  1.00  0.00     0.025 C 
ATOM     38  N   UNL     1      28.125  32.555  13.290  1.00  0.00    -0.300 NA
ATOM     39  C   UNL     1      28.522  31.823  11.130  1.00  0.00     0.017 C 
ATOM     40  C   UNL     1      29.169  31.909  12.495  1.00  0.00     0.085 C 
ATOM     41  C   UNL     1      28.393  32.440  14.720  1.00  0.00     0.105 C 
ENDBRANCH  35  36
ENDBRANCH  31  34
ENDBRANCH   8  30
BRANCH   7  42
ATOM     42  O   UNL     1      23.807  36.035  15.299  1.00  0.00    -0.506 OA
ATOM     43  H   UNL     1      23.947  36.108  16.258  1.00  0.00     0.293 HD
ENDBRANCH   7  42
TORSDOF 8
ENDMDL
MODEL 2
REMARK VINA RESULT:   -11.048      0.870      1.230
REMARK INTER + INTRA:         -17.470
REMARK INTER:                 -15.941
REMARK INTRA:                  -1.529
REMARK UNBOUND:                -1.579
REMARK SMILES Cc1cc(Nc2ncnc3cc(O)c(NC(=O)/C=C/[C@H]4CCCN4C)cc23)ccc1Oc1cc2nccn2cn1
REMARK SMILES IDX 6 1 7 2 8 3 9 4 10 5 11 6 12 7 14 8 26 9 27 10 5 11 4 13
REMARK SMILES IDX 2 14 3 15 30 16 29 17 28 18 1 19 31 20 32 21 33 22 40 23
REMARK SMILES IDX 34 24 39 25 35 26 38 27 36 28 37 29 15 30 16 31 17 32 18 34
REMARK SMILES IDX 19 35 20 36 21 37 24 38 22 39 23 40 25 41 13 42
REMARK H PARENT 5 12 15 33 13 43
ROOT
ATOM      1  C   UNL     1      18.156  34.531  15.060  1.00  0.00     0.141 A 
ATOM      2  N   UNL     1      17.209  35.167  15.775  1.00  0.00    -0.219 NA
ATOM      3  C   UNL     1      17.620  36.118  16.618  1.00  0.00     0.224 A 
ATOM      4  N   UNL     1      18.884  36.504  16.820  1.00  0.00    -0.236 NA
ATOM      5  C   UNL     1      19.819  35.887  16.095  1.00  0.00     0.080 A 
ATOM      6  C   UNL     1      21.142  36.266  16.280  1.00  0.00     0.077 A 
ATOM      7  C   UNL     1      22.169  35.665  15.556  1.00  0.00     0.141 A 
ATOM      8  C   UNL     1      21.899  34.675  14.611  1.00  0.00     0.084 A 
ATOM      9  C   UNL     1      20.574  34.296  14.413  1.00  0.00     0.044 A 
ATOM     10  C   UNL     1      19.519  34.881  15.164  1.00  0.00     0.045 A 
ENDROOT
BRANCH   1  11
ATOM     11  N   UNL     1      17.773  33.489  14.184  1.00  0.00    -0.340 N 
ATOM     12  H   UNL     1      17.195  32.789  14.635  1.00  0.00     0.168 HD
BRANCH  11  13
ATOM     13  C   UNL     1      17.768  33.394  12.781  1.00  0.00     0.040 A 
ATOM     14  C   UNL     1      16.882  34.249  10.652  1.00  0.00    -0.006 A 
ATOM     15  C   UNL     1      16.961  34.288  12.054  1.00  0.00     0.033 A 
ATOM     16  C   UNL     1      17.657  33.306   9.971  1.00  0.00     0.132 A 
ATOM     17  C   UNL     1      18.436  32.387  10.671  1.00  0.00     0.049 A 
ATOM     18  C   UNL     1      18.487  32.433  12.067  1.00  0.00     0.030 A 
ATOM     19  C   UNL     1      16.024  35.236   9.917  1.00  0.00     0.048 C 
BRANCH  16  20
ATOM     20  O   UNL     1      17.581  33.201   8.603  1.00  0.00    -0.439 OA
BRANCH  20  21
ATOM     21  C   UNL     1      16.951  32.069   8.072  1.00  0.00     0.224 A 
ATOM     22  C   UNL     1      17.760  31.104   7.594  1.00  0.00     0.116 A 
ATOM     23  N   UNL     1      15.563  31.972   8.068  1.00  0.00    -0.203 NA
ATOM     24  C   UNL     1      17.190  29.936   7.047  1.00  0.00     0.143 A 
ATOM     25  C   UNL     1      15.031  30.902   7.560  1.00  0.00     0.209 A 
ATOM     26  N   UNL     1      17.713  28.853   6.510  1.00  0.00    -0.237 NA
ATOM     27  N   UNL     1      15.819  29.882   7.048  1.00  0.00    -0.290 N 
ATOM     28  C   UNL     1      16.638  28.073   6.158  1.00  0.00     0.132 A 
ATOM     29  C   UNL     1      15.449  28.690   6.486  1.00  0.00     0.114 A 
ENDBRANCH  20  21
ENDBRANCH  16  20
ENDBRANCH  11  13
ENDBRANCH   1  11
BRANCH   8  30
ATOM     30  N   UNL     1      22.991  34.126  13.910  1.00  0.00    -0.319 N 
ATOM     31  C   UNL     1      23.395  34.414  12.630  1.00  0.00     0.248 C 
ATOM     32  O   UNL     1      22.869  35.182  11.835  1.00  0.00    -0.270 OA
ATOM     33  H   UNL     1      23.543  33.470  14.456  1.00  0.00     0.170 HD
BRANCH  31  34
ATOM     34  C   UNL     1      24.611  33.659  12.260  1.00  0.00     0.069 C 
ATOM     35  C   UNL     1      25.361  33.106  13.226  1.00  0.00    -0.003 C 
BRANCH  35  36
ATOM     36  C   UNL     1      26.628  32.325  13.017  1.00  0.00     0.079 C 
ATOM     37  C   UNL     1      26.409  31.192  12.000  1.00  0.00     0.025 C 
ATOM     38  N   UNL     1      27.739  33.112  12.463  1.00  0.00    -0.300 NA
ATOM     39  C   UNL     1      27.523  31.352  10.974  1.00  0.00     0.017 C 
ATOM     40  C   UNL     1      28.564  32.177  11.697  1.00  0.00     0.085 C 
ATOM     41  C   UNL     1      28.516  33.789  13.496  1.00  0.00     0.105 C 
ENDBRANCH  35  36
ENDBRANCH  31  34
ENDBRANCH   8  30
BRANCH   7  42
ATOM     42  O   UNL     1      23.473  36.043  15.749  1.00  0.00    -0.506 OA
ATOM     43  H   UNL     1      24.048  35.276  15.592  1.00  0.00     0.293 HD
ENDBRANCH   7  42
TORSDOF 8
ENDMDL
MODEL 3
REMARK VINA RESULT:   -10.885      1.892      9.585
REMARK INTER + INTRA:         -17.236
REMARK INTER:                 -15.782
REMARK INTRA:                  -1.453
REMARK UNBOUND:                -1.579
REMARK SMILES Cc1cc(Nc2ncnc3cc(O)c(NC(=O)/C=C/[C@H]4CCCN4C)cc23)ccc1Oc1cc2nccn2cn1
REMARK SMILES IDX 6 1 7 2 8 3 9 4 10 5 11 6 12 7 14 8 26 9 27 10 5 11 4 13
REMARK SMILES IDX 2 14 3 15 30 16 29 17 28 18 1 19 31 20 32 21 33 22 40 23
REMARK SMILES IDX 34 24 39 25 35 26 38 27 36 28 37 29 15 30 16 31 17 32 18 34
REMARK SMILES IDX 19 35 20 36 21 37 24 38 22 39 23 40 25 41 13 42
REMARK H PARENT 5 12 15 33 13 43
ROOT
ATOM      1  C   UNL     1      19.547  33.263  15.797  1.00  0.00     0.141 A 
ATOM      2  N   UNL     1      19.418  33.841  17.006  1.00  0.00    -0.219 NA
ATOM      3  C   UNL     1      18.289  34.513  17.240  1.00  0.00     0.224 A 
ATOM      4  N   UNL     1      17.268  34.666  16.391  1.00  0.00    -0.236 NA
ATOM      5  C   UNL     1      17.388  34.074  15.201  1.00  0.00     0.080 A 
ATOM      6  C   UNL     1      16.344  34.212  14.296  1.00  0.00     0.077 A 
ATOM      7  C   UNL     1      16.402  33.620  13.036  1.00  0.00     0.141 A 
ATOM      8  C   UNL     1      17.504  32.856  12.652  1.00  0.00     0.084 A 
ATOM      9  C   UNL     1      18.551  32.705  13.556  1.00  0.00     0.044 A 
ATOM     10  C   UNL     1      18.517  33.327  14.834  1.00  0.00     0.045 A 
ENDROOT
BRANCH   1  11
ATOM     11  N   UNL     1      20.743  32.574  15.487  1.00  0.00    -0.340 N 
ATOM     12  H   UNL     1      20.593  31.590  15.300  1.00  0.00     0.168 HD
BRANCH  11  13
ATOM     13  C   UNL     1      22.013  33.028  15.088  1.00  0.00     0.040 A 
ATOM     14  C   UNL     1      23.335  34.302  13.451  1.00  0.00    -0.006 A 
ATOM     15  C   UNL     1      22.105  33.824  13.930  1.00  0.00     0.033 A 
ATOM     16  C   UNL     1      24.492  33.993  14.172  1.00  0.00     0.132 A 
ATOM     17  C   UNL     1      24.431  33.178  15.301  1.00  0.00     0.049 A 
ATOM     18  C   UNL     1      23.197  32.699  15.752  1.00  0.00     0.030 A 
ATOM     19  C   UNL     1      23.383  35.164  12.224  1.00  0.00     0.048 C 
BRANCH  16  20
ATOM     20  O   UNL     1      25.723  34.402  13.721  1.00  0.00    -0.439 OA
BRANCH  20  21
ATOM     21  C   UNL     1      26.670  33.412  13.425  1.00  0.00     0.224 A 
ATOM     22  C   UNL     1      26.552  32.814  12.224  1.00  0.00     0.116 A 
ATOM     23  N   UNL     1      27.671  33.099  14.339  1.00  0.00    -0.203 NA
ATOM     24  C   UNL     1      27.473  31.809  11.862  1.00  0.00     0.143 A 
ATOM     25  C   UNL     1      28.519  32.171  14.015  1.00  0.00     0.209 A 
ATOM     26  N   UNL     1      27.603  31.060  10.787  1.00  0.00    -0.237 NA
ATOM     27  N   UNL     1      28.438  31.518  12.794  1.00  0.00    -0.290 N 
ATOM     28  C   UNL     1      28.695  30.264  11.035  1.00  0.00     0.132 A 
ATOM     29  C   UNL     1      29.233  30.532  12.276  1.00  0.00     0.114 A 
ENDBRANCH  20  21
ENDBRANCH  16  20
ENDBRANCH  11  13
ENDBRANCH   1  11
BRANCH   8  30
ATOM     30  N   UNL     1      17.481  32.279  11.366  1.00  0.00    -0.319 N 
ATOM     31  C   UNL     1      17.561  32.925  10.157  1.00  0.00     0.248 C 
ATOM     32  O   UNL     1      17.637  34.130   9.957  1.00  0.00    -0.270 OA
ATOM     33  H   UNL     1      17.435  31.264  11.370  1.00  0.00     0.170 HD
BRANCH  31  34
ATOM     34  C   UNL     1      17.541  31.971   9.028  1.00  0.00     0.069 C 
ATOM     35  C   UNL     1      16.398  31.779   8.351  1.00  0.00    -0.003 C 
BRANCH  35  36
ATOM     36  C   UNL     1      16.209  30.837   7.194  1.00  0.00     0.079 C 
ATOM     37  C   UNL     1      17.542  30.594   6.466  1.00  0.00     0.025 C 
ATOM     38  N   UNL     1      15.745  29.496   7.576  1.00  0.00    -0.300 NA
ATOM     39  C   UNL     1      17.681  29.080   6.377  1.00  0.00     0.017 C 
ATOM     40  C   UNL     1      16.268  28.576   6.565  1.00  0.00     0.085 C 
ATOM     41  C   UNL     1      14.291  29.414   7.673  1.00  0.00     0.105 C 
ENDBRANCH  35  36
ENDBRANCH  31  34
ENDBRANCH   8  30
BRANCH   7  42
ATOM     42  O   UNL     1      15.367  33.766  12.148  1.00  0.00    -0.506 OA
ATOM     43  H   UNL     1      14.538  33.858  12.647  1.00  0.00     0.293 HD
ENDBRANCH   7  42
TORSDOF 8
ENDMDL
MODEL 4
REMARK VINA RESULT:   -10.728      4.112      5.394
REMARK INTER + INTRA:         -17.010
REMARK INTER:                 -15.983
REMARK INTRA:                  -1.027
REMARK UNBOUND:                -1.579
REMARK SMILES Cc1cc(Nc2ncnc3cc(O)c(NC(=O)/C=C/[C@H]4CCCN4C)cc23)ccc1Oc1cc2nccn2cn1
REMARK SMILES IDX 6 1 7 2 8 3 9 4 10 5 11 6 12 7 14 8 26 9 27 10 5 11 4 13
REMARK SMILES IDX 2 14 3 15 30 16 29 17 28 18 1 19 31 20 32 21 33 22 40 23
REMARK SMILES IDX 34 24 39 25 35 26 38 27 36 28 37 29 15 30 16 31 17 32 18 34
REMARK SMILES IDX 19 35 20 36 21 37 24 38 22 39 23 40 25 41 13 42
REMARK H PARENT 5 12 15 33 13 43
ROOT
ATOM      1  C   UNL     1      15.841  34.055  14.406  1.00  0.00     0.141 A 
ATOM      2  N   UNL     1      14.615  33.750  13.941  1.00  0.00    -0.219 NA
ATOM      3  C   UNL     1      13.576  34.052  14.723  1.00  0.00     0.224 A 
ATOM      4  N   UNL     1      13.633  34.631  15.927  1.00  0.00    -0.236 NA
ATOM      5  C   UNL     1      14.848  34.952  16.377  1.00  0.00     0.080 A 
ATOM      6  C   UNL     1      14.942  35.556  17.624  1.00  0.00     0.077 A 
ATOM      7  C   UNL     1      16.178  35.918  18.155  1.00  0.00     0.141 A 
ATOM      8  C   UNL     1      17.358  35.700  17.443  1.00  0.00     0.084 A 
ATOM      9  C   UNL     1      17.272  35.102  16.189  1.00  0.00     0.044 A 
ATOM     10  C   UNL     1      16.020  34.702  15.647  1.00  0.00     0.045 A 
ENDROOT
BRANCH   1  11
ATOM     11  N   UNL     1      16.975  33.719  13.631  1.00  0.00    -0.340 N 
ATOM     12  H   UNL     1      17.719  33.304  14.181  1.00  0.00     0.168 HD
BRANCH  11  13
ATOM     13  C   UNL     1      17.152  33.555  12.245  1.00  0.00     0.040 A 
ATOM     14  C   UNL     1      16.521  34.273   9.979  1.00  0.00    -0.006 A 
ATOM     15  C   UNL     1      16.418  34.383  11.375  1.00  0.00     0.033 A 
ATOM     16  C   UNL     1      17.405  33.328   9.452  1.00  0.00     0.132 A 
ATOM     17  C   UNL     1      18.116  32.473  10.292  1.00  0.00     0.049 A 
ATOM     18  C   UNL     1      17.987  32.589  11.680  1.00  0.00     0.030 A 
ATOM     19  C   UNL     1      15.734  35.191   9.091  1.00  0.00     0.048 C 
BRANCH  16  20
ATOM     20  O   UNL     1      17.509  33.154   8.094  1.00  0.00    -0.439 OA
BRANCH  20  21
ATOM     21  C   UNL     1      17.167  31.899   7.571  1.00  0.00     0.224 A 
ATOM     22  C   UNL     1      15.864  31.564   7.630  1.00  0.00     0.116 A 
ATOM     23  N   UNL     1      18.143  31.078   7.015  1.00  0.00    -0.203 NA
ATOM     24  C   UNL     1      15.450  30.316   7.119  1.00  0.00     0.143 A 
ATOM     25  C   UNL     1      17.770  29.925   6.548  1.00  0.00     0.209 A 
ATOM     26  N   UNL     1      14.276  29.724   7.046  1.00  0.00    -0.237 NA
ATOM     27  N   UNL     1      16.442  29.528   6.591  1.00  0.00    -0.290 N 
ATOM     28  C   UNL     1      14.522  28.514   6.444  1.00  0.00     0.132 A 
ATOM     29  C   UNL     1      15.861  28.369   6.148  1.00  0.00     0.114 A 
ENDBRANCH  20  21
ENDBRANCH  16  20
ENDBRANCH  11  13
ENDBRANCH   1  11
BRANCH   8  30
ATOM     30  N   UNL     1      18.567  36.107  18.044  1.00  0.00    -0.319 N 
ATOM     31  C   UNL     1      19.150  35.599  19.178  1.00  0.00     0.248 C 
ATOM     32  O   UNL     1      18.722  34.715  19.908  1.00  0.00    -0.270 OA
ATOM     33  H   UNL     1      19.054  36.838  17.534  1.00  0.00     0.170 HD
BRANCH  31  34
ATOM     34  C   UNL     1      20.438  36.264  19.472  1.00  0.00     0.069 C 
ATOM     35  C   UNL     1      21.554  35.831  18.863  1.00  0.00    -0.003 C 
BRANCH  35  36
ATOM     36  C   UNL     1      22.936  36.386  19.064  1.00  0.00     0.079 C 
ATOM     37  C   UNL     1      23.583  35.794  20.328  1.00  0.00     0.025 C 
ATOM     38  N   UNL     1      23.879  36.068  17.982  1.00  0.00    -0.300 NA
ATOM     39  C   UNL     1      24.942  35.275  19.879  1.00  0.00     0.017 C 
ATOM     40  C   UNL     1      25.208  36.024  18.592  1.00  0.00     0.085 C 
ATOM     41  C   UNL     1      23.824  37.034  16.889  1.00  0.00     0.105 C 
ENDBRANCH  35  36
ENDBRANCH  31  34
ENDBRANCH   8  30
BRANCH   7  42
ATOM     42  O   UNL     1      16.260  36.512  19.389  1.00  0.00    -0.506 OA
ATOM     43  H   UNL     1      16.688  35.893  20.005  1.00  0.00     0.293 HD
ENDBRANCH   7  42
TORSDOF 8
ENDMDL
MODEL 5
REMARK VINA RESULT:   -10.653      3.322      4.593
REMARK INTER + INTRA:         -16.902
REMARK INTER:                 -15.908
REMARK INTRA:                  -0.994
REMARK UNBOUND:                -1.579
REMARK SMILES Cc1cc(Nc2ncnc3cc(O)c(NC(=O)/C=C/[C@H]4CCCN4C)cc23)ccc1Oc1cc2nccn2cn1
REMARK SMILES IDX 6 1 7 2 8 3 9 4 10 5 11 6 12 7 14 8 26 9 27 10 5 11 4 13
REMARK SMILES IDX 2 14 3 15 30 16 29 17 28 18 1 19 31 20 32 21 33 22 40 23
REMARK SMILES IDX 34 24 39 25 35 26 38 27 36 28 37 29 15 30 16 31 17 32 18 34
REMARK SMILES IDX 19 35 20 36 21 37 24 38 22 39 23 40 25 41 13 42
REMARK H PARENT 5 12 15 33 13 43
ROOT
ATOM      1  C   UNL     1      16.401  34.015  14.821  1.00  0.00     0.141 A 
ATOM      2  N   UNL     1      15.123  34.182  14.432  1.00  0.00    -0.219 NA
ATOM      3  C   UNL     1      14.292  34.755  15.306  1.00  0.00     0.224 A 
ATOM      4  N   UNL     1      14.606  35.183  16.533  1.00  0.00    -0.236 NA
ATOM      5  C   UNL     1      15.878  35.037  16.909  1.00  0.00     0.080 A 
ATOM      6  C   UNL     1      16.238  35.473  18.177  1.00  0.00     0.077 A 
ATOM      7  C   UNL     1      17.548  35.352  18.633  1.00  0.00     0.141 A 
ATOM      8  C   UNL     1      18.544  34.803  17.824  1.00  0.00     0.084 A 
ATOM      9  C   UNL     1      18.193  34.371  16.548  1.00  0.00     0.044 A 
ATOM     10  C   UNL     1      16.854  34.464  16.079  1.00  0.00     0.045 A 
ENDROOT
BRANCH   1  11
ATOM     11  N   UNL     1      17.309  33.377  13.945  1.00  0.00    -0.340 N 
ATOM     12  H   UNL     1      17.861  32.661  14.404  1.00  0.00     0.168 HD
BRANCH  11  13
ATOM     13  C   UNL     1      17.376  33.314  12.541  1.00  0.00     0.040 A 
ATOM     14  C   UNL     1      16.619  34.235  10.390  1.00  0.00    -0.006 A 
ATOM     15  C   UNL     1      16.624  34.240  11.794  1.00  0.00     0.033 A 
ATOM     16  C   UNL     1      17.412  33.295   9.728  1.00  0.00     0.132 A 
ATOM     17  C   UNL     1      18.138  32.345  10.445  1.00  0.00     0.049 A 
ATOM     18  C   UNL     1      18.116  32.358  11.843  1.00  0.00     0.030 A 
ATOM     19  C   UNL     1      15.817  35.254   9.635  1.00  0.00     0.048 C 
BRANCH  16  20
ATOM     20  O   UNL     1      17.408  33.223   8.356  1.00  0.00    -0.439 OA
BRANCH  20  21
ATOM     21  C   UNL     1      17.079  31.993   7.770  1.00  0.00     0.224 A 
ATOM     22  C   UNL     1      15.781  31.639   7.816  1.00  0.00     0.116 A 
ATOM     23  N   UNL     1      18.063  31.213   7.170  1.00  0.00    -0.203 NA
ATOM     24  C   UNL     1      15.381  30.413   7.243  1.00  0.00     0.143 A 
ATOM     25  C   UNL     1      17.703  30.082   6.646  1.00  0.00     0.209 A 
ATOM     26  N   UNL     1      14.214  29.811   7.144  1.00  0.00    -0.237 NA
ATOM     27  N   UNL     1      16.380  29.666   6.673  1.00  0.00    -0.290 N 
ATOM     28  C   UNL     1      14.472  28.636   6.480  1.00  0.00     0.132 A 
ATOM     29  C   UNL     1      15.812  28.525   6.173  1.00  0.00     0.114 A 
ENDBRANCH  20  21
ENDBRANCH  16  20
ENDBRANCH  11  13
ENDBRANCH   1  11
BRANCH   8  30
ATOM     30  N   UNL     1      19.847  34.728  18.354  1.00  0.00    -0.319 N 
ATOM     31  C   UNL     1      20.824  35.692  18.316  1.00  0.00     0.248 C 
ATOM     32  O   UNL     1      20.765  36.795  17.787  1.00  0.00    -0.270 OA
ATOM     33  H   UNL     1      20.043  33.860  18.845  1.00  0.00     0.170 HD
BRANCH  31  34
ATOM     34  C   UNL     1      22.050  35.254  19.015  1.00  0.00     0.069 C 
ATOM     35  C   UNL     1      23.159  35.003  18.301  1.00  0.00    -0.003 C 
BRANCH  35  36
ATOM     36  C   UNL     1      24.476  34.538  18.857  1.00  0.00     0.079 C 
ATOM     37  C   UNL     1      24.377  34.308  20.374  1.00  0.00     0.025 C 
ATOM     38  N   UNL     1      24.939  33.251  18.317  1.00  0.00    -0.300 NA
ATOM     39  C   UNL     1      24.923  32.906  20.607  1.00  0.00     0.017 C 
ATOM     40  C   UNL     1      25.746  32.630  19.368  1.00  0.00     0.085 C 
ATOM     41  C   UNL     1      25.697  33.403  17.080  1.00  0.00     0.105 C 
ENDBRANCH  35  36
ENDBRANCH  31  34
ENDBRANCH   8  30
BRANCH   7  42
ATOM     42  O   UNL     1      17.892  35.782  19.889  1.00  0.00    -0.506 OA
ATOM     43  H   UNL     1      18.850  35.947  19.911  1.00  0.00     0.293 HD
ENDBRANCH   7  42
TORSDOF 8
ENDMDL
MODEL 6
REMARK VINA RESULT:   -10.582      2.556      9.323
REMARK INTER + INTRA:         -16.800
REMARK INTER:                 -15.820
REMARK INTRA:                  -0.980
REMARK UNBOUND:                -1.579
REMARK SMILES Cc1cc(Nc2ncnc3cc(O)c(NC(=O)/C=C/[C@H]4CCCN4C)cc23)ccc1Oc1cc2nccn2cn1
REMARK SMILES IDX 6 1 7 2 8 3 9 4 10 5 11 6 12 7 14 8 26 9 27 10 5 11 4 13
REMARK SMILES IDX 2 14 3 15 30 16 29 17 28 18 1 19 31 20 32 21 33 22 40 23
REMARK SMILES IDX 34 24 39 25 35 26 38 27 36 28 37 29 15 30 16 31 17 32 18 34
REMARK SMILES IDX 19 35 20 36 21 37 24 38 22 39 23 40 25 41 13 42
REMARK H PARENT 5 12 15 33 13 43
ROOT
ATOM      1  C   UNL     1      17.465  35.809  16.787  1.00  0.00     0.141 A 
ATOM      2  N   UNL     1      17.301  36.219  18.060  1.00  0.00    -0.219 NA
ATOM      3  C   UNL     1      16.083  36.083  18.589  1.00  0.00     0.224 A 
ATOM      4  N   UNL     1      15.006  35.577  17.980  1.00  0.00    -0.236 NA
ATOM      5  C   UNL     1      15.176  35.151  16.726  1.00  0.00     0.080 A 
ATOM      6  C   UNL     1      14.078  34.619  16.065  1.00  0.00     0.077 A 
ATOM      7  C   UNL     1      14.183  34.155  14.755  1.00  0.00     0.141 A 
ATOM      8  C   UNL     1      15.399  34.197  14.073  1.00  0.00     0.084 A 
ATOM      9  C   UNL     1      16.507  34.722  14.732  1.00  0.00     0.044 A 
ATOM     10  C   UNL     1      16.408  35.224  16.059  1.00  0.00     0.045 A 
ENDROOT
BRANCH   1  11
ATOM     11  N   UNL     1      18.727  35.970  16.170  1.00  0.00    -0.340 N 
ATOM     12  H   UNL     1      19.057  36.928  16.193  1.00  0.00     0.168 HD
BRANCH  11  13
ATOM     13  C   UNL     1      19.728  35.046  15.822  1.00  0.00     0.040 A 
ATOM     14  C   UNL     1      21.090  34.044  14.036  1.00  0.00    -0.006 A 
ATOM     15  C   UNL     1      20.113  34.953  14.471  1.00  0.00     0.033 A 
ATOM     16  C   UNL     1      21.712  33.233  14.989  1.00  0.00     0.132 A 
ATOM     17  C   UNL     1      21.324  33.281  16.326  1.00  0.00     0.049 A 
ATOM     18  C   UNL     1      20.336  34.182  16.736  1.00  0.00     0.030 A 
ATOM     19  C   UNL     1      21.483  33.994  12.589  1.00  0.00     0.048 C 
BRANCH  16  20
ATOM     20  O   UNL     1      22.644  32.298  14.607  1.00  0.00    -0.439 OA
BRANCH  20  21
ATOM     21  C   UNL     1      23.977  32.715  14.500  1.00  0.00     0.224 A 
ATOM     22  C   UNL     1      24.694  32.173  13.497  1.00  0.00     0.116 A 
ATOM     23  N   UNL     1      24.496  33.651  15.391  1.00  0.00    -0.203 NA
ATOM     24  C   UNL     1      26.043  32.551  13.332  1.00  0.00     0.143 A 
ATOM     25  C   UNL     1      25.738  33.999  15.248  1.00  0.00     0.209 A 
ATOM     26  N   UNL     1      26.972  32.194  12.470  1.00  0.00    -0.237 NA
ATOM     27  N   UNL     1      26.523  33.465  14.236  1.00  0.00    -0.290 N 
ATOM     28  C   UNL     1      28.088  32.910  12.830  1.00  0.00     0.132 A 
ATOM     29  C   UNL     1      27.833  33.710  13.924  1.00  0.00     0.114 A 
ENDBRANCH  20  21
ENDBRANCH  16  20
ENDBRANCH  11  13
ENDBRANCH   1  11
BRANCH   8  30
ATOM     30  N   UNL     1      15.427  33.696  12.756  1.00  0.00    -0.319 N 
ATOM     31  C   UNL     1      16.403  32.927  12.174  1.00  0.00     0.248 C 
ATOM     32  O   UNL     1      17.457  32.551  12.672  1.00  0.00    -0.270 OA
ATOM     33  H   UNL     1      14.597  33.918  12.214  1.00  0.00     0.170 HD
BRANCH  31  34
ATOM     34  C   UNL     1      16.055  32.566  10.783  1.00  0.00     0.069 C 
ATOM     35  C   UNL     1      17.022  32.529   9.852  1.00  0.00    -0.003 C 
BRANCH  35  36
ATOM     36  C   UNL     1      16.830  32.198   8.398  1.00  0.00     0.079 C 
ATOM     37  C   UNL     1      18.165  32.285   7.639  1.00  0.00     0.025 C 
ATOM     38  N   UNL     1      16.350  30.831   8.148  1.00  0.00    -0.300 NA
ATOM     39  C   UNL     1      18.289  30.965   6.891  1.00  0.00     0.017 C 
ATOM     40  C   UNL     1      16.870  30.446   6.835  1.00  0.00     0.085 C 
ATOM     41  C   UNL     1      14.895  30.731   8.197  1.00  0.00     0.105 C 
ENDBRANCH  35  36
ENDBRANCH  31  34
ENDBRANCH   8  30
BRANCH   7  42
ATOM     42  O   UNL     1      13.091  33.633  14.110  1.00  0.00    -0.506 OA
ATOM     43  H   UNL     1      13.303  33.535  13.166  1.00  0.00     0.293 HD
ENDBRANCH   7  42
TORSDOF 8
ENDMDL
MODEL 7
REMARK VINA RESULT:   -10.476      2.839      4.451
REMARK INTER + INTRA:         -16.647
REMARK INTER:                 -14.997
REMARK INTRA:                  -1.650
REMARK UNBOUND:                -1.579
REMARK SMILES Cc1cc(Nc2ncnc3cc(O)c(NC(=O)/C=C/[C@H]4CCCN4C)cc23)ccc1Oc1cc2nccn2cn1
REMARK SMILES IDX 6 1 7 2 8 3 9 4 10 5 11 6 12 7 14 8 26 9 27 10 5 11 4 13
REMARK SMILES IDX 2 14 3 15 30 16 29 17 28 18 1 19 31 20 32 21 33 22 40 23
REMARK SMILES IDX 34 24 39 25 35 26 38 27 36 28 37 29 15 30 16 31 17 32 18 34
REMARK SMILES IDX 19 35 20 36 21 37 24 38 22 39 23 40 25 41 13 42
REMARK H PARENT 5 12 15 33 13 43
ROOT
ATOM      1  C   UNL     1      16.197  34.638  16.611  1.00  0.00     0.141 A 
ATOM      2  N   UNL     1      14.897  34.708  16.954  1.00  0.00    -0.219 NA
ATOM      3  C   UNL     1      14.572  35.552  17.936  1.00  0.00     0.224 A 
ATOM      4  N   UNL     1      15.413  36.339  18.614  1.00  0.00    -0.236 NA
ATOM      5  C   UNL     1      16.698  36.285  18.258  1.00  0.00     0.080 A 
ATOM      6  C   UNL     1      17.598  37.092  18.942  1.00  0.00     0.077 A 
ATOM      7  C   UNL     1      18.955  37.086  18.622  1.00  0.00     0.141 A 
ATOM      8  C   UNL     1      19.447  36.281  17.594  1.00  0.00     0.084 A 
ATOM      9  C   UNL     1      18.550  35.476  16.899  1.00  0.00     0.044 A 
ATOM     10  C   UNL     1      17.169  35.451  17.232  1.00  0.00     0.045 A 
ENDROOT
BRANCH   1  11
ATOM     11  N   UNL     1      16.595  33.730  15.604  1.00  0.00    -0.340 N 
ATOM     12  H   UNL     1      16.463  32.761  15.873  1.00  0.00     0.168 HD
BRANCH  11  13
ATOM     13  C   UNL     1      16.832  33.896  14.227  1.00  0.00     0.040 A 
ATOM     14  C   UNL     1      18.470  33.881  12.393  1.00  0.00    -0.006 A 
ATOM     15  C   UNL     1      18.143  33.715  13.748  1.00  0.00     0.033 A 
ATOM     16  C   UNL     1      17.446  34.206  11.499  1.00  0.00     0.132 A 
ATOM     17  C   UNL     1      16.148  34.425  11.954  1.00  0.00     0.049 A 
ATOM     18  C   UNL     1      15.847  34.270  13.311  1.00  0.00     0.030 A 
ATOM     19  C   UNL     1      19.878  33.658  11.924  1.00  0.00     0.048 C 
BRANCH  16  20
ATOM     20  O   UNL     1      17.724  34.420  10.171  1.00  0.00    -0.439 OA
BRANCH  20  21
ATOM     21  C   UNL     1      17.141  33.553   9.237  1.00  0.00     0.224 A 
ATOM     22  C   UNL     1      17.626  32.297   9.205  1.00  0.00     0.116 A 
ATOM     23  N   UNL     1      16.109  33.994   8.414  1.00  0.00    -0.203 NA
ATOM     24  C   UNL     1      17.083  31.372   8.289  1.00  0.00     0.143 A 
ATOM     25  C   UNL     1      15.608  33.150   7.566  1.00  0.00     0.209 A 
ATOM     26  N   UNL     1      17.351  30.109   8.028  1.00  0.00    -0.237 NA
ATOM     27  N   UNL     1      16.076  31.846   7.486  1.00  0.00    -0.290 N 
ATOM     28  C   UNL     1      16.480  29.759   7.024  1.00  0.00     0.132 A 
ATOM     29  C   UNL     1      15.675  30.822   6.672  1.00  0.00     0.114 A 
ENDBRANCH  20  21
ENDBRANCH  16  20
ENDBRANCH  11  13
ENDBRANCH   1  11
BRANCH   8  30
ATOM     30  N   UNL     1      20.829  36.342  17.324  1.00  0.00    -0.319 N 
ATOM     31  C   UNL     1      21.855  35.851  18.092  1.00  0.00     0.248 C 
ATOM     32  O   UNL     1      21.775  35.291  19.179  1.00  0.00    -0.270 OA
ATOM     33  H   UNL     1      21.056  36.774  16.433  1.00  0.00     0.170 HD
BRANCH  31  34
ATOM     34  C   UNL     1      23.170  36.075  17.454  1.00  0.00     0.069 C 
ATOM     35  C   UNL     1      23.218  36.553  16.201  1.00  0.00    -0.003 C 
BRANCH  35  36
ATOM     36  C   UNL     1      24.468  36.820  15.409  1.00  0.00     0.079 C 
ATOM     37  C   UNL     1      25.662  36.052  16.000  1.00  0.00     0.025 C 
ATOM     38  N   UNL     1      24.401  36.380  14.008  1.00  0.00    -0.300 NA
ATOM     39  C   UNL     1      26.280  35.303  14.827  1.00  0.00     0.017 C 
ATOM     40  C   UNL     1      25.771  36.051  13.614  1.00  0.00     0.085 C 
ATOM     41  C   UNL     1      23.822  37.393  13.131  1.00  0.00     0.105 C 
ENDBRANCH  35  36
ENDBRANCH  31  34
ENDBRANCH   8  30
BRANCH   7  42
ATOM     42  O   UNL     1      19.836  37.884  19.306  1.00  0.00    -0.506 OA
ATOM     43  H   UNL     1      20.741  37.597  19.099  1.00  0.00     0.293 HD
ENDBRANCH   7  42
TORSDOF 8
ENDMDL
MODEL 8
REMARK VINA RESULT:   -10.099      2.168      9.044
REMARK INTER + INTRA:         -16.106
REMARK INTER:                 -14.541
REMARK INTRA:                  -1.565
REMARK UNBOUND:                -1.579
REMARK SMILES Cc1cc(Nc2ncnc3cc(O)c(NC(=O)/C=C/[C@H]4CCCN4C)cc23)ccc1Oc1cc2nccn2cn1
REMARK SMILES IDX 6 1 7 2 8 3 9 4 10 5 11 6 12 7 14 8 26 9 27 10 5 11 4 13
REMARK SMILES IDX 2 14 3 15 30 16 29 17 28 18 1 19 31 20 32 21 33 22 40 23
REMARK SMILES IDX 34 24 39 25 35 26 38 27 36 28 37 29 15 30 16 31 17 32 18 34
REMARK SMILES IDX 19 35 20 36 21 37 24 38 22 39 23 40 25 41 13 42
REMARK H PARENT 5 12 15 33 13 43
ROOT
ATOM      1  C   UNL     1      17.953  36.241  16.715  1.00  0.00     0.141 A 
ATOM      2  N   UNL     1      17.567  36.525  17.973  1.00  0.00    -0.219 NA
ATOM      3  C   UNL     1      16.359  36.102  18.349  1.00  0.00     0.224 A 
ATOM      4  N   UNL     1      15.490  35.418  17.597  1.00  0.00    -0.236 NA
ATOM      5  C   UNL     1      15.882  35.118  16.357  1.00  0.00     0.080 A 
ATOM      6  C   UNL     1      15.003  34.408  15.550  1.00  0.00     0.077 A 
ATOM      7  C   UNL     1      15.347  34.060  14.246  1.00  0.00     0.141 A 
ATOM      8  C   UNL     1      16.592  34.401  13.715  1.00  0.00     0.084 A 
ATOM      9  C   UNL     1      17.481  35.107  14.521  1.00  0.00     0.044 A 
ATOM     10  C   UNL     1      17.133  35.492  15.844  1.00  0.00     0.045 A 
ENDROOT
BRANCH   1  11
ATOM     11  N   UNL     1      19.208  36.703  16.258  1.00  0.00    -0.340 N 
ATOM     12  H   UNL     1      19.287  37.713  16.280  1.00  0.00     0.168 HD
BRANCH  11  13
ATOM     13  C   UNL     1      20.444  36.053  16.085  1.00  0.00     0.040 A 
ATOM     14  C   UNL     1      21.898  34.171  16.710  1.00  0.00    -0.006 A 
ATOM     15  C   UNL     1      20.685  34.871  16.809  1.00  0.00     0.033 A 
ATOM     16  C   UNL     1      22.875  34.659  15.839  1.00  0.00     0.132 A 
ATOM     17  C   UNL     1      22.674  35.847  15.138  1.00  0.00     0.049 A 
ATOM     18  C   UNL     1      21.464  36.537  15.264  1.00  0.00     0.030 A 
ATOM     19  C   UNL     1      22.103  32.903  17.486  1.00  0.00     0.048 C 
BRANCH  16  20
ATOM     20  O   UNL     1      24.094  34.033  15.739  1.00  0.00    -0.439 OA
BRANCH  20  21
ATOM     21  C   UNL     1      24.416  33.427  14.518  1.00  0.00     0.224 A 
ATOM     22  C   UNL     1      25.727  33.241  14.271  1.00  0.00     0.116 A 
ATOM     23  N   UNL     1      23.410  33.038  13.638  1.00  0.00    -0.203 NA
ATOM     24  C   UNL     1      26.120  32.634  13.060  1.00  0.00     0.143 A 
ATOM     25  C   UNL     1      23.765  32.483  12.520  1.00  0.00     0.209 A 
ATOM     26  N   UNL     1      27.297  32.335  12.550  1.00  0.00    -0.237 NA
ATOM     27  N   UNL     1      25.102  32.275  12.213  1.00  0.00    -0.290 N 
ATOM     28  C   UNL     1      27.024  31.759  11.333  1.00  0.00     0.132 A 
ATOM     29  C   UNL     1      25.665  31.707  11.102  1.00  0.00     0.114 A 
ENDBRANCH  20  21
ENDBRANCH  16  20
ENDBRANCH  11  13
ENDBRANCH   1  11
BRANCH   8  30
ATOM     30  N   UNL     1      16.869  34.002  12.393  1.00  0.00    -0.319 N 
ATOM     31  C   UNL     1      17.759  33.042  11.977  1.00  0.00     0.248 C 
ATOM     32  O   UNL     1      18.509  32.366  12.671  1.00  0.00    -0.270 OA
ATOM     33  H   UNL     1      16.303  34.472  11.692  1.00  0.00     0.170 HD
BRANCH  31  34
ATOM     34  C   UNL     1      17.740  32.882  10.508  1.00  0.00     0.069 C 
ATOM     35  C   UNL     1      16.612  32.472   9.906  1.00  0.00    -0.003 C 
BRANCH  35  36
ATOM     36  C   UNL     1      16.435  32.246   8.431  1.00  0.00     0.079 C 
ATOM     37  C   UNL     1      17.725  32.589   7.667  1.00  0.00     0.025 C 
ATOM     38  N   UNL     1      16.147  30.852   8.063  1.00  0.00    -0.300 NA
ATOM     39  C   UNL     1      18.017  31.371   6.802  1.00  0.00     0.017 C 
ATOM     40  C   UNL     1      16.685  30.662   6.716  1.00  0.00     0.085 C 
ATOM     41  C   UNL     1      14.722  30.542   8.119  1.00  0.00     0.105 C 
ENDBRANCH  35  36
ENDBRANCH  31  34
ENDBRANCH   8  30
BRANCH   7  42
ATOM     42  O   UNL     1      14.471  33.361  13.455  1.00  0.00    -0.506 OA
ATOM     43  H   UNL     1      13.926  33.993  12.959  1.00  0.00     0.293 HD
ENDBRANCH   7  42
TORSDOF 8
ENDMDL
MODEL 9
REMARK VINA RESULT:   -10.057      1.659      2.330
REMARK INTER + INTRA:         -16.045
REMARK INTER:                 -14.506
REMARK INTRA:                  -1.539
REMARK UNBOUND:                -1.579
REMARK SMILES Cc1cc(Nc2ncnc3cc(O)c(NC(=O)/C=C/[C@H]4CCCN4C)cc23)ccc1Oc1cc2nccn2cn1
REMARK SMILES IDX 6 1 7 2 8 3 9 4 10 5 11 6 12 7 14 8 26 9 27 10 5 11 4 13
REMARK SMILES IDX 2 14 3 15 30 16 29 17 28 18 1 19 31 20 32 21 33 22 40 23
REMARK SMILES IDX 34 24 39 25 35 26 38 27 36 28 37 29 15 30 16 31 17 32 18 34
REMARK SMILES IDX 19 35 20 36 21 37 24 38 22 39 23 40 25 41 13 42
REMARK H PARENT 5 12 15 33 13 43
ROOT
ATOM      1  C   UNL     1      17.478  34.079  15.138  1.00  0.00     0.141 A 
ATOM      2  N   UNL     1      16.194  34.287  15.483  1.00  0.00    -0.219 NA
ATOM      3  C   UNL     1      15.958  35.204  16.425  1.00  0.00     0.224 A 
ATOM      4  N   UNL     1      16.876  35.940  17.060  1.00  0.00    -0.236 NA
ATOM      5  C   UNL     1      18.147  35.748  16.702  1.00  0.00     0.080 A 
ATOM      6  C   UNL     1      19.124  36.498  17.341  1.00  0.00     0.077 A 
ATOM      7  C   UNL     1      20.471  36.349  17.017  1.00  0.00     0.141 A 
ATOM      8  C   UNL     1      20.877  35.453  16.028  1.00  0.00     0.084 A 
ATOM      9  C   UNL     1      19.902  34.703  15.376  1.00  0.00     0.044 A 
ATOM     10  C   UNL     1      18.528  34.825  15.716  1.00  0.00     0.045 A 
ENDROOT
BRANCH   1  11
ATOM     11  N   UNL     1      17.781  33.089  14.175  1.00  0.00    -0.340 N 
ATOM     12  H   UNL     1      17.789  32.153  14.562  1.00  0.00     0.168 HD
BRANCH  11  13
ATOM     13  C   UNL     1      17.760  33.108  12.769  1.00  0.00     0.040 A 
ATOM     14  C   UNL     1      16.861  34.142  10.726  1.00  0.00    -0.006 A 
ATOM     15  C   UNL     1      16.955  34.067  12.125  1.00  0.00     0.033 A 
ATOM     16  C   UNL     1      17.620  33.250   9.962  1.00  0.00     0.132 A 
ATOM     17  C   UNL     1      18.396  32.270  10.576  1.00  0.00     0.049 A 
ATOM     18  C   UNL     1      18.463  32.202  11.972  1.00  0.00     0.030 A 
ATOM     19  C   UNL     1      16.006  35.193  10.083  1.00  0.00     0.048 C 
BRANCH  16  20
ATOM     20  O   UNL     1      17.529  33.257   8.591  1.00  0.00    -0.439 OA
BRANCH  20  21
ATOM     21  C   UNL     1      17.139  32.069   7.959  1.00  0.00     0.224 A 
ATOM     22  C   UNL     1      15.860  31.687   8.144  1.00  0.00     0.116 A 
ATOM     23  N   UNL     1      18.044  31.355   7.180  1.00  0.00    -0.203 NA
ATOM     24  C   UNL     1      15.401  30.501   7.534  1.00  0.00     0.143 A 
ATOM     25  C   UNL     1      17.629  30.260   6.620  1.00  0.00     0.209 A 
ATOM     26  N   UNL     1      14.237  29.886   7.539  1.00  0.00    -0.237 NA
ATOM     27  N   UNL     1      16.325  29.818   6.784  1.00  0.00    -0.290 N 
ATOM     28  C   UNL     1      14.418  28.770   6.758  1.00  0.00     0.132 A 
ATOM     29  C   UNL     1      15.708  28.707   6.275  1.00  0.00     0.114 A 
ENDBRANCH  20  21
ENDBRANCH  16  20
ENDBRANCH  11  13
ENDBRANCH   1  11
BRANCH   8  30
ATOM     30  N   UNL     1      22.256  35.371  15.749  1.00  0.00    -0.319 N 
ATOM     31  C   UNL     1      23.093  34.305  15.970  1.00  0.00     0.248 C 
ATOM     32  O   UNL     1      22.813  33.228  16.482  1.00  0.00    -0.270 OA
ATOM     33  H   UNL     1      22.636  36.199  15.300  1.00  0.00     0.170 HD
BRANCH  31  34
ATOM     34  C   UNL     1      24.469  34.587  15.509  1.00  0.00     0.069 C 
ATOM     35  C   UNL     1      24.747  34.524  14.197  1.00  0.00    -0.003 C 
BRANCH  35  36
ATOM     36  C   UNL     1      26.093  34.766  13.572  1.00  0.00     0.079 C 
ATOM     37  C   UNL     1      26.788  35.974  14.224  1.00  0.00     0.025 C 
ATOM     38  N   UNL     1      27.044  33.658  13.736  1.00  0.00    -0.300 NA
ATOM     39  C   UNL     1      28.174  35.479  14.613  1.00  0.00     0.017 C 
ATOM     40  C   UNL     1      28.378  34.259  13.743  1.00  0.00     0.085 C 
ATOM     41  C   UNL     1      26.917  32.651  12.687  1.00  0.00     0.105 C 
ENDBRANCH  35  36
ENDBRANCH  31  34
ENDBRANCH   8  30
BRANCH   7  42
ATOM     42  O   UNL     1      21.430  37.093  17.658  1.00  0.00    -0.506 OA
ATOM     43  H   UNL     1      21.031  37.508  18.440  1.00  0.00     0.293 HD
ENDBRANCH   7  42
TORSDOF 8
ENDMDL
