REMARK SMILES CN[C@H]1CCc2cc(OC)c(OC)c(OC)c2-c2ccc(OC)c(=O)cc21
REMARK SMILES IDX 18 1 19 2 20 3 21 4 24 5 25 6 26 7 27 8 3 9 2 10 1 11 4 13
REMARK SMILES IDX 17 15 14 16 6 17 11 18 7 19 8 20 15 21 16 22 5 23 12 25
REMARK SMILES IDX 13 26 9 27 10 28 22 29 23 30
REMARK H PARENT 2 12
REMARK Flexibility Score:    8.900
ROOT
ATOM      1  C   UNL     1      -0.899   0.456   0.794  1.00  0.00    -0.009 A 
ATOM      2  C   UNL     1      -0.807   1.323   1.826  1.00  0.00     0.013 A 
ATOM      3  C   UNL     1      -1.647   2.176   2.421  1.00  0.00     0.051 A 
ATOM      4  C   UNL     1      -2.911   2.477   2.122  1.00  0.00     0.166 A 
ATOM      5  C   UNL     1      -3.669   1.805   0.986  1.00  0.00     0.220 A 
ATOM      6  O   UNL     1      -4.804   2.182   0.745  1.00  0.00    -0.286 OA
ATOM      7  C   UNL     1      -3.188   0.677   0.095  1.00  0.00     0.062 A 
ATOM      8  C   UNL     1      -1.965   0.116   0.014  1.00  0.00    -0.019 A 
ENDROOT
BRANCH   8   9
ATOM      9  C   UNL     1      -1.882  -1.026  -1.044  1.00  0.00     0.084 C 
BRANCH   9  10
ATOM     10  N   UNL     1      -0.944  -0.682  -2.132  1.00  0.00    -0.313 NA
ATOM     11  C   UNL     1      -1.295  -1.304  -3.402  1.00  0.00     0.102 C 
ATOM     12  H   UNL     1      -0.004  -0.977  -1.873  1.00  0.00     0.122 HD
ENDBRANCH   9  10
BRANCH   9  13
ATOM     13  C   UNL     1      -1.639  -2.422  -0.402  1.00  0.00     0.028 CG0
ATOM     14  G   UNL     1      -0.741  -2.465   0.839  1.00  0.00     0.000 G0
ENDBRANCH   9  13
ENDBRANCH   8   9
BRANCH   1  15
ATOM     15  C   UNL     1       0.421  -0.243   0.545  1.00  0.00     0.031 A 
ATOM     16  C   UNL     1       1.590   0.470   0.187  1.00  0.00     0.172 A 
ATOM     17  C   UNL     1       0.507  -1.650   0.636  1.00  0.00    -0.032 A 
ATOM     18  C   UNL     1       2.820  -0.187  -0.003  1.00  0.00     0.203 A 
ATOM     19  C   UNL     1       1.740  -2.300   0.453  1.00  0.00     0.055 A 
ATOM     20  C   UNL     1       2.901  -1.574   0.172  1.00  0.00     0.164 A 
BRANCH  16  21
ATOM     21  O   UNL     1       1.555   1.843   0.067  1.00  0.00    -0.492 OA
ATOM     22  C   UNL     1       1.232   2.216  -1.273  1.00  0.00     0.278 C 
ENDBRANCH  16  21
BRANCH  17  23
ATOM     23  C   UNL     1      -0.741  -2.465   0.839  1.00  0.00     0.038 CG0
ATOM     24  G   UNL     1      -1.639  -2.422  -0.402  1.00  0.00     0.000 G0
ENDBRANCH  17  23
BRANCH  18  25
ATOM     25  O   UNL     1       3.911   0.603  -0.283  1.00  0.00    -0.490 OA
ATOM     26  C   UNL     1       4.612   0.204  -1.459  1.00  0.00     0.278 C 
ENDBRANCH  18  25
BRANCH  20  27
ATOM     27  O   UNL     1       4.120  -2.180   0.008  1.00  0.00    -0.493 OA
ATOM     28  C   UNL     1       4.389  -3.243   0.918  1.00  0.00     0.278 C 
ENDBRANCH  20  27
ENDBRANCH   1  15
BRANCH   4  29
ATOM     29  O   UNL     1      -3.591   3.383   2.931  1.00  0.00    -0.493 OA
ATOM     30  C   UNL     1      -3.779   4.629   2.260  1.00  0.00     0.278 C 
ENDBRANCH   4  29
TORSDOF 5
