REMARK SMILES N=C(N)NCCC1CCN(C(=O)[C@H](Cc2cccc(C(=N)N)c2)NS(=O)(=O)c2cccc3ccccc23)CC1
REMARK SMILES IDX 7 1 8 2 9 3 10 4 11 5 12 6 38 7 39 8 6 9 5 10 4 11 1 12 2 13
REMARK SMILES IDX 3 14 13 19 14 20 15 21 16 22 23 23 17 24 19 25 18 26 20 27
REMARK SMILES IDX 21 28 22 29 24 33 25 35 26 36 27 37 28 38 29 39 37 40 30 41
REMARK SMILES IDX 36 42 32 43 31 44 35 45 33 46 34 47
REMARK H PARENT 1 15 3 16 3 17 4 18 21 30 22 31 22 32 24 34
REMARK INDEX MAP 7 1 8 2 9 3 10 4 11 5 12 6 38 7 39 8 6 9 5 10 4 11 1 12 2 13
REMARK INDEX MAP 3 14 40 15 41 16 42 17 43 18 13 19 14 20 15 21 16 22 23 23
REMARK INDEX MAP 17 24 19 25 18 26 20 27 21 28 22 29 59 30 60 31 61 32 24 33
REMARK INDEX MAP 63 34 25 35 26 36 27 37 28 38 29 39 37 40 30 41 36 42 32 43
REMARK INDEX MAP 31 44 35 45 33 46 34 47
ROOT
ATOM      1  C   UNL     1      -1.251  10.912  24.809  1.00  0.00    -0.006 C 
ATOM      2  C   UNL     1      -2.691  11.018  24.270  1.00  0.00     0.025 C 
ATOM      3  C   UNL     1      -2.832  10.432  22.870  1.00  0.00     0.120 C 
ATOM      4  N   UNL     1      -1.868  11.031  21.946  1.00  0.00    -0.341 N 
ATOM      5  C   UNL     1      -2.160  11.563  20.700  1.00  0.00     0.241 C 
ATOM      6  O   UNL     1      -1.271  11.893  19.906  1.00  0.00    -0.273 OA
ATOM      7  C   UNL     1      -0.469  10.963  22.370  1.00  0.00     0.120 C 
ATOM      8  C   UNL     1      -0.287  11.534  23.778  1.00  0.00     0.025 C 
ENDROOT
BRANCH   1   9
ATOM      9  C   UNL     1      -0.813   9.472  25.170  1.00  0.00     0.025 C 
BRANCH   9  10
ATOM     10  C   UNL     1      -0.698   9.182  26.670  1.00  0.00     0.116 C 
BRANCH  10  11
ATOM     11  N   UNL     1      -1.992   9.232  27.316  1.00  0.00    -0.357 N 
ATOM     12  N   UNL     1      -1.816   7.356  28.730  1.00  0.00    -0.270 NA
ATOM     13  C   UNL     1      -2.443   8.360  28.236  1.00  0.00     0.185 C 
ATOM     14  N   UNL     1      -3.690   8.627  28.648  1.00  0.00    -0.370 N 
ATOM     15  H   UNL     1      -0.857   7.144  28.419  1.00  0.00     0.191 HD
ATOM     16  H   UNL     1      -4.201   9.431  28.256  1.00  0.00     0.159 HD
ATOM     17  H   UNL     1      -4.138   8.028  29.356  1.00  0.00     0.159 HD
ATOM     18  H   UNL     1      -2.622  10.002  27.048  1.00  0.00     0.163 HD
ENDBRANCH  10  11
ENDBRANCH   9  10
ENDBRANCH   1   9
BRANCH   5  19
ATOM     19  C   UNL     1      -3.634  11.766  20.291  1.00  0.00     0.163 C 
BRANCH  19  20
ATOM     20  C   UNL     1      -3.955  10.840  19.105  1.00  0.00     0.065 C 
BRANCH  20  21
ATOM     21  C   UNL     1      -4.880   9.708  19.492  1.00  0.00    -0.045 A 
ATOM     22  C   UNL     1      -5.809   9.853  20.536  1.00  0.00     0.004 A 
ATOM     23  C   UNL     1      -4.847   8.501  18.780  1.00  0.00     0.015 A 
ATOM     24  C   UNL     1      -6.681   8.807  20.862  1.00  0.00     0.001 A 
ATOM     25  C   UNL     1      -5.756   7.480  19.067  1.00  0.00     0.016 A 
ATOM     26  C   UNL     1      -6.654   7.616  20.130  1.00  0.00     0.012 A 
BRANCH  25  27
ATOM     27  C   UNL     1      -5.780   6.278  18.190  1.00  0.00     0.122 C 
ATOM     28  N   UNL     1      -6.385   5.186  18.531  1.00  0.00    -0.284 NA
ATOM     29  N   UNL     1      -5.160   6.329  16.984  1.00  0.00    -0.384 N 
ATOM     30  H   UNL     1      -6.380   4.375  17.897  1.00  0.00     0.189 HD
ATOM     31  H   UNL     1      -5.168   5.505  16.366  1.00  0.00     0.158 HD
ATOM     32  H   UNL     1      -4.682   7.191  16.687  1.00  0.00     0.158 HD
ENDBRANCH  25  27
ENDBRANCH  20  21
ENDBRANCH  19  20
BRANCH  19  33
ATOM     33  N   UNL     1      -3.748  13.194  19.873  1.00  0.00    -0.198 NA
ATOM     34  H   UNL     1      -3.123  13.736  20.487  1.00  0.00     0.142 HD
BRANCH  33  35
ATOM     35  S   UNL     1      -5.239  13.953  19.908  1.00  0.00     0.241 S 
ATOM     36  O   UNL     1      -4.994  15.376  20.006  1.00  0.00    -0.207 OA
ATOM     37  O   UNL     1      -6.000  13.424  18.791  1.00  0.00    -0.207 OA
BRANCH  35  38
ATOM     38  C   UNL     1      -5.993  13.396  21.425  1.00  0.00     0.090 A 
ATOM     39  C   UNL     1      -7.207  12.697  21.312  1.00  0.00     0.022 A 
ATOM     40  C   UNL     1      -5.406  13.653  22.697  1.00  0.00     0.002 A 
ATOM     41  C   UNL     1      -7.850  12.226  22.449  1.00  0.00     0.002 A 
ATOM     42  C   UNL     1      -4.195  14.357  22.927  1.00  0.00     0.010 A 
ATOM     43  C   UNL     1      -6.085  13.155  23.842  1.00  0.00    -0.017 A 
ATOM     44  C   UNL     1      -7.292  12.454  23.703  1.00  0.00     0.009 A 
ATOM     45  C   UNL     1      -3.681  14.547  24.212  1.00  0.00     0.001 A 
ATOM     46  C   UNL     1      -5.558  13.359  25.127  1.00  0.00     0.009 A 
ATOM     47  C   UNL     1      -4.359  14.046  25.313  1.00  0.00     0.001 A 
ENDBRANCH  35  38
ENDBRANCH  33  35
ENDBRANCH  19  33
ENDBRANCH   5  19
TORSDOF 10
