MODEL 1
REMARK minimizedAffinity -8.68298435
REMARK CNNscore 0.811676681
REMARK CNNaffinity 5.92679834
REMARK SMILES N=C(N)c1cc2[nH]c(-c3cccc(O[C@H]4CCNC4)c3O)nc2cc1F
REMARK SMILES IDX 9 1 10 2 11 3 12 4 13 5 20 6 8 7 4 8 5 9 25 10 6 11 24 12
REMARK SMILES IDX 7 13 23 14 22 15 26 16 2 18 1 19 3 20 21 24 14 26 15 27
REMARK SMILES IDX 16 28 19 29 17 30 18 31
REMARK H PARENT 7 17 1 21 3 22 3 23 21 25 18 32
ROOT
ATOM      1  C   UNL     1      -4.029  14.120  24.092  1.00  0.00     0.063 A 
ATOM      2  C   UNL     1      -4.292  14.207  22.717  1.00  0.00     0.016 A 
ATOM      3  C   UNL     1      -4.981  15.299  22.183  1.00  0.00     0.005 A 
ATOM      4  C   UNL     1      -5.425  16.331  23.013  1.00  0.00     0.050 A 
ATOM      5  C   UNL     1      -5.181  16.270  24.383  1.00  0.00     0.162 A 
ATOM      6  C   UNL     1      -4.481  15.167  24.908  1.00  0.00     0.168 A 
ENDROOT
BRANCH   1   7
ATOM      7  C   UNL     1      -3.299  12.954  24.602  1.00  0.00     0.142 A 
ATOM      8  C   UNL     1      -1.711   9.246  26.724  1.00  0.00     0.054 A 
ATOM      9  C   UNL     1      -2.833  10.093  26.761  1.00  0.00     0.043 A 
ATOM     10  C   UNL     1      -0.680   9.488  25.805  1.00  0.00     0.136 A 
ATOM     11  C   UNL     1      -2.854  11.156  25.855  1.00  0.00     0.067 A 
ATOM     12  C   UNL     1      -0.725  10.560  24.908  1.00  0.00     0.070 A 
ATOM     13  N   UNL     1      -3.765  12.151  25.619  1.00  0.00    -0.338 N 
ATOM     14  C   UNL     1      -1.839  11.405  24.941  1.00  0.00     0.092 A 
ATOM     15  N   UNL     1      -2.126  12.511  24.181  1.00  0.00    -0.228 NA
ATOM     16  F   UNL     1       0.397   8.687  25.758  1.00  0.00    -0.206 F 
ATOM     17  H   UNL     1      -4.645  12.301  26.095  1.00  0.00     0.168 HD
BRANCH   8  18
ATOM     18  C   UNL     1      -1.649   8.095  27.677  1.00  0.00     0.125 C 
ATOM     19  N   UNL     1      -2.474   8.051  28.675  1.00  0.00    -0.284 NA
ATOM     20  N   UNL     1      -0.746   7.094  27.520  1.00  0.00    -0.384 N 
ATOM     21  H   UNL     1      -2.296   7.207  29.223  1.00  0.00     0.189 HD
ATOM     22  H   UNL     1      -0.690   6.311  28.155  1.00  0.00     0.158 HD
ATOM     23  H   UNL     1      -0.088   7.106  26.745  1.00  0.00     0.158 HD
ENDBRANCH   8  18
ENDBRANCH   1   7
BRANCH   6  24
ATOM     24  O   UNL     1      -4.248  15.143  26.268  1.00  0.00    -0.504 OA
ATOM     25  H   UNL     1      -4.639  15.979  26.600  1.00  0.00     0.293 HD
ENDBRANCH   6  24
BRANCH   5  26
ATOM     26  O   UNL     1      -5.553  17.204  25.317  1.00  0.00    -0.485 OA
BRANCH  26  27
ATOM     27  C   UNL     1      -6.575  16.849  26.255  1.00  0.00     0.188 C 
ATOM     28  C   UNL     1      -7.014  18.131  26.960  1.00  0.00     0.062 C 
ATOM     29  C   UNL     1      -7.850  16.369  25.543  1.00  0.00     0.126 C 
ATOM     30  C   UNL     1      -8.221  18.582  26.162  1.00  0.00     0.085 C 
ATOM     31  N   UNL     1      -8.922  17.332  25.857  1.00  0.00    -0.313 NA
ATOM     32  H   UNL     1      -9.409  17.018  26.698  1.00  0.00     0.122 HD
ENDBRANCH  26  27
ENDBRANCH   5  26
TORSDOF 5
ENDMDL
MODEL 2
REMARK minimizedAffinity -7.72194624
REMARK CNNscore 0.69792372
REMARK CNNaffinity 6.34236002
REMARK SMILES N=C(N)c1cc2[nH]c(-c3cccc(O[C@H]4CCNC4)c3O)nc2cc1F
REMARK SMILES IDX 9 1 10 2 11 3 12 4 13 5 20 6 8 7 4 8 5 9 25 10 6 11 24 12
REMARK SMILES IDX 7 13 23 14 22 15 26 16 2 18 1 19 3 20 21 24 14 26 15 27
REMARK SMILES IDX 16 28 19 29 17 30 18 31
REMARK H PARENT 7 17 1 21 3 22 3 23 21 25 18 32
ROOT
ATOM      1  C   UNL     1      -1.185  12.121  21.974  1.00  0.00     0.063 A 
ATOM      2  C   UNL     1       0.019  12.371  21.301  1.00  0.00     0.016 A 
ATOM      3  C   UNL     1       0.054  13.181  20.163  1.00  0.00     0.005 A 
ATOM      4  C   UNL     1      -1.118  13.758  19.669  1.00  0.00     0.050 A 
ATOM      5  C   UNL     1      -2.330  13.523  20.314  1.00  0.00     0.162 A 
ATOM      6  C   UNL     1      -2.351  12.710  21.463  1.00  0.00     0.168 A 
ENDROOT
BRANCH   1   7
ATOM      7  C   UNL     1      -1.167  11.266  23.166  1.00  0.00     0.142 A 
ATOM      8  C   UNL     1      -1.884   8.968  27.037  1.00  0.00     0.054 A 
ATOM      9  C   UNL     1      -2.527   9.931  26.237  1.00  0.00     0.043 A 
ATOM     10  C   UNL     1      -0.634   8.463  26.656  1.00  0.00     0.136 A 
ATOM     11  C   UNL     1      -1.860  10.340  25.080  1.00  0.00     0.067 A 
ATOM     12  C   UNL     1       0.014   8.888  25.491  1.00  0.00     0.070 A 
ATOM     13  N   UNL     1      -2.182  11.236  24.096  1.00  0.00    -0.338 N 
ATOM     14  C   UNL     1      -0.621   9.846  24.694  1.00  0.00     0.092 A 
ATOM     15  N   UNL     1      -0.210  10.423  23.519  1.00  0.00    -0.228 NA
ATOM     16  F   UNL     1      -0.009   7.542  27.409  1.00  0.00    -0.206 F 
ATOM     17  H   UNL     1      -3.020  11.801  24.032  1.00  0.00     0.168 HD
BRANCH   8  18
ATOM     18  C   UNL     1      -2.564   8.503  28.285  1.00  0.00     0.125 C 
ATOM     19  N   UNL     1      -3.514   9.220  28.797  1.00  0.00    -0.284 NA
ATOM     20  N   UNL     1      -2.207   7.345  28.896  1.00  0.00    -0.384 N 
ATOM     21  H   UNL     1      -3.865   8.763  29.640  1.00  0.00     0.189 HD
ATOM     22  H   UNL     1      -2.654   7.018  29.740  1.00  0.00     0.158 HD
ATOM     23  H   UNL     1      -1.464   6.765  28.514  1.00  0.00     0.158 HD
ENDBRANCH   8  18
ENDBRANCH   1   7
BRANCH   6  24
ATOM     24  O   UNL     1      -3.566  12.506  22.083  1.00  0.00    -0.504 OA
ATOM     25  H   UNL     1      -4.204  13.030  21.553  1.00  0.00     0.293 HD
ENDBRANCH   6  24
BRANCH   5  26
ATOM     26  O   UNL     1      -3.555  14.020  19.947  1.00  0.00    -0.485 OA
BRANCH  26  27
ATOM     27  C   UNL     1      -4.422  13.178  19.178  1.00  0.00     0.188 C 
ATOM     28  C   UNL     1      -4.838  13.963  17.935  1.00  0.00     0.062 C 
ATOM     29  C   UNL     1      -3.667  11.965  18.609  1.00  0.00     0.126 C 
ATOM     30  C   UNL     1      -3.844  13.515  16.882  1.00  0.00     0.085 C 
ATOM     31  N   UNL     1      -3.686  12.081  17.139  1.00  0.00    -0.313 NA
ATOM     32  H   UNL     1      -4.509  11.595  16.782  1.00  0.00     0.122 HD
ENDBRANCH  26  27
ENDBRANCH   5  26
TORSDOF 5
ENDMDL
MODEL 3
REMARK minimizedAffinity -8.06172752
REMARK CNNscore 0.685389996
REMARK CNNaffinity 6.1323514
REMARK SMILES N=C(N)c1cc2[nH]c(-c3cccc(O[C@H]4CCNC4)c3O)nc2cc1F
REMARK SMILES IDX 9 1 10 2 11 3 12 4 13 5 20 6 8 7 4 8 5 9 25 10 6 11 24 12
REMARK SMILES IDX 7 13 23 14 22 15 26 16 2 18 1 19 3 20 21 24 14 26 15 27
REMARK SMILES IDX 16 28 19 29 17 30 18 31
REMARK H PARENT 7 17 1 21 3 22 3 23 21 25 18 32
ROOT
ATOM      1  C   UNL     1      -4.040  13.580  25.078  1.00  0.00     0.063 A 
ATOM      2  C   UNL     1      -4.751  14.177  26.129  1.00  0.00     0.016 A 
ATOM      3  C   UNL     1      -5.538  15.311  25.914  1.00  0.00     0.005 A 
ATOM      4  C   UNL     1      -5.630  15.878  24.641  1.00  0.00     0.050 A 
ATOM      5  C   UNL     1      -4.932  15.310  23.579  1.00  0.00     0.162 A 
ATOM      6  C   UNL     1      -4.147  14.164  23.807  1.00  0.00     0.168 A 
ENDROOT
BRANCH   1   7
ATOM      7  C   UNL     1      -3.230  12.388  25.355  1.00  0.00     0.142 A 
ATOM      8  C   UNL     1      -1.330   8.506  26.802  1.00  0.00     0.054 A 
ATOM      9  C   UNL     1      -2.466   9.295  27.061  1.00  0.00     0.043 A 
ATOM     10  C   UNL     1      -0.407   8.907  25.826  1.00  0.00     0.136 A 
ATOM     11  C   UNL     1      -2.609  10.465  26.310  1.00  0.00     0.067 A 
ATOM     12  C   UNL     1      -0.573  10.082  25.087  1.00  0.00     0.070 A 
ATOM     13  N   UNL     1      -3.566  11.443  26.298  1.00  0.00    -0.338 N 
ATOM     14  C   UNL     1      -1.700  10.870  25.341  1.00  0.00     0.092 A 
ATOM     15  N   UNL     1      -2.095  12.051  24.765  1.00  0.00    -0.228 NA
ATOM     16  F   UNL     1       0.682   8.163  25.568  1.00  0.00    -0.206 F 
ATOM     17  H   UNL     1      -4.397  11.495  26.874  1.00  0.00     0.168 HD
BRANCH   8  18
ATOM     18  C   UNL     1      -1.139   7.246  27.585  1.00  0.00     0.125 C 
ATOM     19  N   UNL     1      -0.704   6.184  26.983  1.00  0.00    -0.284 NA
ATOM     20  N   UNL     1      -1.412   7.190  28.913  1.00  0.00    -0.384 N 
ATOM     21  H   UNL     1      -0.632   5.420  27.657  1.00  0.00     0.189 HD
ATOM     22  H   UNL     1      -1.290   6.347  29.455  1.00  0.00     0.158 HD
ATOM     23  H   UNL     1      -1.754   8.009  29.407  1.00  0.00     0.158 HD
ENDBRANCH   8  18
ENDBRANCH   1   7
BRANCH   6  24
ATOM     24  O   UNL     1      -3.476  13.621  22.731  1.00  0.00    -0.504 OA
ATOM     25  H   UNL     1      -3.725  14.189  21.972  1.00  0.00     0.293 HD
ENDBRANCH   6  24
BRANCH   5  26
ATOM     26  O   UNL     1      -4.927  15.753  22.280  1.00  0.00    -0.485 OA
BRANCH  26  27
ATOM     27  C   UNL     1      -4.063  16.843  21.943  1.00  0.00     0.188 C 
ATOM     28  C   UNL     1      -4.906  17.888  21.214  1.00  0.00     0.062 C 
ATOM     29  C   UNL     1      -3.573  17.582  23.199  1.00  0.00     0.126 C 
ATOM     30  C   UNL     1      -5.313  18.848  22.314  1.00  0.00     0.085 C 
ATOM     31  N   UNL     1      -4.111  18.953  23.146  1.00  0.00    -0.313 NA
ATOM     32  H   UNL     1      -3.437  19.552  22.668  1.00  0.00     0.122 HD
ENDBRANCH  26  27
ENDBRANCH   5  26
TORSDOF 5
ENDMDL
MODEL 4
REMARK minimizedAffinity -8.09903526
REMARK CNNscore 0.632361889
REMARK CNNaffinity 6.05291367
REMARK SMILES N=C(N)c1cc2[nH]c(-c3cccc(O[C@H]4CCNC4)c3O)nc2cc1F
REMARK SMILES IDX 9 1 10 2 11 3 12 4 13 5 20 6 8 7 4 8 5 9 25 10 6 11 24 12
REMARK SMILES IDX 7 13 23 14 22 15 26 16 2 18 1 19 3 20 21 24 14 26 15 27
REMARK SMILES IDX 16 28 19 29 17 30 18 31
REMARK H PARENT 7 17 1 21 3 22 3 23 21 25 18 32
ROOT
ATOM      1  C   UNL     1      -3.912  13.539  25.085  1.00  0.00     0.063 A 
ATOM      2  C   UNL     1      -4.648  14.122  26.127  1.00  0.00     0.016 A 
ATOM      3  C   UNL     1      -5.407  15.276  25.915  1.00  0.00     0.005 A 
ATOM      4  C   UNL     1      -5.445  15.876  24.655  1.00  0.00     0.050 A 
ATOM      5  C   UNL     1      -4.721  15.322  23.602  1.00  0.00     0.162 A 
ATOM      6  C   UNL     1      -3.964  14.157  23.827  1.00  0.00     0.168 A 
ENDROOT
BRANCH   1   7
ATOM      7  C   UNL     1      -3.133  12.325  25.359  1.00  0.00     0.142 A 
ATOM      8  C   UNL     1      -1.313   8.412  26.823  1.00  0.00     0.054 A 
ATOM      9  C   UNL     1      -2.408   9.247  27.108  1.00  0.00     0.043 A 
ATOM     10  C   UNL     1      -0.418   8.756  25.800  1.00  0.00     0.136 A 
ATOM     11  C   UNL     1      -2.541  10.403  26.334  1.00  0.00     0.067 A 
ATOM     12  C   UNL     1      -0.573   9.919  25.039  1.00  0.00     0.070 A 
ATOM     13  N   UNL     1      -3.463  11.415  26.338  1.00  0.00    -0.338 N 
ATOM     14  C   UNL     1      -1.660  10.752  25.320  1.00  0.00     0.092 A 
ATOM     15  N   UNL     1      -2.037  11.933  24.731  1.00  0.00    -0.228 NA
ATOM     16  F   UNL     1       0.632   7.967  25.516  1.00  0.00    -0.206 F 
ATOM     17  H   UNL     1      -4.266  11.511  26.946  1.00  0.00     0.168 HD
BRANCH   8  18
ATOM     18  C   UNL     1      -1.133   7.164  27.627  1.00  0.00     0.125 C 
ATOM     19  N   UNL     1      -0.738   6.080  27.040  1.00  0.00    -0.284 NA
ATOM     20  N   UNL     1      -1.377   7.142  28.963  1.00  0.00    -0.384 N 
ATOM     21  H   UNL     1      -0.669   5.329  27.728  1.00  0.00     0.189 HD
ATOM     22  H   UNL     1      -1.262   6.309  29.520  1.00  0.00     0.158 HD
ATOM     23  H   UNL     1      -1.688   7.980  29.447  1.00  0.00     0.158 HD
ENDBRANCH   8  18
ENDBRANCH   1   7
BRANCH   6  24
ATOM     24  O   UNL     1      -3.266  13.629  22.760  1.00  0.00    -0.504 OA
ATOM     25  H   UNL     1      -3.479  14.221  22.009  1.00  0.00     0.293 HD
ENDBRANCH   6  24
BRANCH   5  26
ATOM     26  O   UNL     1      -4.663  15.799  22.316  1.00  0.00    -0.485 OA
BRANCH  26  27
ATOM     27  C   UNL     1      -5.831  15.669  21.497  1.00  0.00     0.188 C 
ATOM     28  C   UNL     1      -6.196  14.187  21.451  1.00  0.00     0.062 C 
ATOM     29  C   UNL     1      -7.055  16.328  22.155  1.00  0.00     0.126 C 
ATOM     30  C   UNL     1      -7.229  14.041  22.550  1.00  0.00     0.085 C 
ATOM     31  N   UNL     1      -8.033  15.261  22.437  1.00  0.00    -0.313 NA
ATOM     32  H   UNL     1      -8.656  15.166  21.634  1.00  0.00     0.122 HD
ENDBRANCH  26  27
ENDBRANCH   5  26
TORSDOF 5
ENDMDL
MODEL 5
REMARK minimizedAffinity -8.28232288
REMARK CNNscore 0.572389543
REMARK CNNaffinity 5.91659546
REMARK SMILES N=C(N)c1cc2[nH]c(-c3cccc(O[C@H]4CCNC4)c3O)nc2cc1F
REMARK SMILES IDX 9 1 10 2 11 3 12 4 13 5 20 6 8 7 4 8 5 9 25 10 6 11 24 12
REMARK SMILES IDX 7 13 23 14 22 15 26 16 2 18 1 19 3 20 21 24 14 26 15 27
REMARK SMILES IDX 16 28 19 29 17 30 18 31
REMARK H PARENT 7 17 1 21 3 22 3 23 21 25 18 32
ROOT
ATOM      1  C   UNL     1      -4.183  13.402  24.734  1.00  0.00     0.063 A 
ATOM      2  C   UNL     1      -3.953  14.628  25.375  1.00  0.00     0.016 A 
ATOM      3  C   UNL     1      -4.721  15.755  25.072  1.00  0.00     0.005 A 
ATOM      4  C   UNL     1      -5.737  15.683  24.117  1.00  0.00     0.050 A 
ATOM      5  C   UNL     1      -5.986  14.480  23.462  1.00  0.00     0.162 A 
ATOM      6  C   UNL     1      -5.209  13.350  23.780  1.00  0.00     0.168 A 
ENDROOT
BRANCH   1   7
ATOM      7  C   UNL     1      -3.350  12.248  25.091  1.00  0.00     0.142 A 
ATOM      8  C   UNL     1      -1.378   8.508  26.793  1.00  0.00     0.054 A 
ATOM      9  C   UNL     1      -2.530   9.289  26.997  1.00  0.00     0.043 A 
ATOM     10  C   UNL     1      -0.460   8.861  25.794  1.00  0.00     0.136 A 
ATOM     11  C   UNL     1      -2.694  10.403  26.171  1.00  0.00     0.067 A 
ATOM     12  C   UNL     1      -0.647   9.982  24.979  1.00  0.00     0.070 A 
ATOM     13  N   UNL     1      -3.670  11.360  26.093  1.00  0.00    -0.338 N 
ATOM     14  C   UNL     1      -1.791  10.762  25.179  1.00  0.00     0.092 A 
ATOM     15  N   UNL     1      -2.207  11.895  24.526  1.00  0.00    -0.228 NA
ATOM     16  F   UNL     1       0.644   8.124  25.587  1.00  0.00    -0.206 F 
ATOM     17  H   UNL     1      -4.504  11.433  26.663  1.00  0.00     0.168 HD
BRANCH   8  18
ATOM     18  C   UNL     1      -1.164   7.306  27.656  1.00  0.00     0.125 C 
ATOM     19  N   UNL     1      -1.477   7.361  28.912  1.00  0.00    -0.284 NA
ATOM     20  N   UNL     1      -0.647   6.156  27.153  1.00  0.00    -0.384 N 
ATOM     21  H   UNL     1      -1.269   6.463  29.352  1.00  0.00     0.189 HD
ATOM     22  H   UNL     1      -0.495   5.336  27.722  1.00  0.00     0.158 HD
ATOM     23  H   UNL     1      -0.393   6.088  26.171  1.00  0.00     0.158 HD
ENDBRANCH   8  18
ENDBRANCH   1   7
BRANCH   6  24
ATOM     24  O   UNL     1      -5.489  12.172  23.119  1.00  0.00    -0.504 OA
ATOM     25  H   UNL     1      -6.243  12.391  22.532  1.00  0.00     0.293 HD
ENDBRANCH   6  24
BRANCH   5  26
ATOM     26  O   UNL     1      -6.947  14.258  22.507  1.00  0.00    -0.485 OA
BRANCH  26  27
ATOM     27  C   UNL     1      -8.321  14.382  22.891  1.00  0.00     0.188 C 
ATOM     28  C   UNL     1      -9.128  13.419  22.023  1.00  0.00     0.062 C 
ATOM     29  C   UNL     1      -8.553  13.867  24.321  1.00  0.00     0.126 C 
ATOM     30  C   UNL     1      -9.237  12.173  22.879  1.00  0.00     0.085 C 
ATOM     31  N   UNL     1      -9.447  12.698  24.231  1.00  0.00    -0.313 NA
ATOM     32  H   UNL     1     -10.414  13.016  24.309  1.00  0.00     0.122 HD
ENDBRANCH  26  27
ENDBRANCH   5  26
TORSDOF 5
ENDMDL
MODEL 6
REMARK minimizedAffinity -6.92134714
REMARK CNNscore 0.468338341
REMARK CNNaffinity 5.52137566
REMARK SMILES N=C(N)c1cc2[nH]c(-c3cccc(O[C@H]4CCNC4)c3O)nc2cc1F
REMARK SMILES IDX 9 1 10 2 11 3 12 4 13 5 20 6 8 7 4 8 5 9 25 10 6 11 24 12
REMARK SMILES IDX 7 13 23 14 22 15 26 16 2 18 1 19 3 20 21 24 14 26 15 27
REMARK SMILES IDX 16 28 19 29 17 30 18 31
REMARK H PARENT 7 17 1 21 3 22 3 23 21 25 18 32
ROOT
ATOM      1  C   UNL     1      -3.922  13.910  22.505  1.00  0.00     0.063 A 
ATOM      2  C   UNL     1      -4.644  14.972  23.070  1.00  0.00     0.016 A 
ATOM      3  C   UNL     1      -5.266  15.929  22.265  1.00  0.00     0.005 A 
ATOM      4  C   UNL     1      -5.179  15.849  20.874  1.00  0.00     0.050 A 
ATOM      5  C   UNL     1      -4.466  14.808  20.284  1.00  0.00     0.162 A 
ATOM      6  C   UNL     1      -3.848  13.846  21.106  1.00  0.00     0.168 A 
ENDROOT
BRANCH   1   7
ATOM      7  C   UNL     1      -3.290  12.929  23.395  1.00  0.00     0.142 A 
ATOM      8  C   UNL     1      -2.116   9.816  26.509  1.00  0.00     0.054 A 
ATOM      9  C   UNL     1      -3.255  10.531  26.098  1.00  0.00     0.043 A 
ATOM     10  C   UNL     1      -0.892  10.013  25.855  1.00  0.00     0.136 A 
ATOM     11  C   UNL     1      -3.094  11.422  25.034  1.00  0.00     0.067 A 
ATOM     12  C   UNL     1      -0.756  10.910  24.792  1.00  0.00     0.070 A 
ATOM     13  N   UNL     1      -3.964  12.260  24.390  1.00  0.00    -0.338 N 
ATOM     14  C   UNL     1      -1.886  11.624  24.380  1.00  0.00     0.092 A 
ATOM     15  N   UNL     1      -2.022  12.551  23.378  1.00  0.00    -0.228 NA
ATOM     16  F   UNL     1       0.204   9.335  26.237  1.00  0.00    -0.206 F 
ATOM     17  H   UNL     1      -4.948  12.391  24.589  1.00  0.00     0.168 HD
BRANCH   8  18
ATOM     18  C   UNL     1      -2.246   8.851  27.645  1.00  0.00     0.125 C 
ATOM     19  N   UNL     1      -3.115   9.081  28.578  1.00  0.00    -0.284 NA
ATOM     20  N   UNL     1      -1.472   7.739  27.721  1.00  0.00    -0.384 N 
ATOM     21  H   UNL     1      -3.072   8.332  29.271  1.00  0.00     0.189 HD
ATOM     22  H   UNL     1      -1.545   7.079  28.481  1.00  0.00     0.158 HD
ATOM     23  H   UNL     1      -0.783   7.536  27.001  1.00  0.00     0.158 HD
ENDBRANCH   8  18
ENDBRANCH   1   7
BRANCH   6  24
ATOM     24  O   UNL     1      -3.157  12.823  20.489  1.00  0.00    -0.504 OA
ATOM     25  H   UNL     1      -3.270  12.992  19.530  1.00  0.00     0.293 HD
ENDBRANCH   6  24
BRANCH   5  26
ATOM     26  O   UNL     1      -4.296  14.599  18.938  1.00  0.00    -0.485 OA
BRANCH  26  27
ATOM     27  C   UNL     1      -3.540  15.564  18.197  1.00  0.00     0.188 C 
ATOM     28  C   UNL     1      -2.407  16.049  19.098  1.00  0.00     0.062 C 
ATOM     29  C   UNL     1      -2.811  14.914  17.009  1.00  0.00     0.126 C 
ATOM     30  C   UNL     1      -1.238  15.168  18.706  1.00  0.00     0.085 C 
ATOM     31  N   UNL     1      -1.362  15.052  17.250  1.00  0.00    -0.313 NA
ATOM     32  H   UNL     1      -1.041  15.924  16.826  1.00  0.00     0.122 HD
ENDBRANCH  26  27
ENDBRANCH   5  26
TORSDOF 5
ENDMDL
MODEL 7
REMARK minimizedAffinity -8.1295948
REMARK CNNscore 0.272154391
REMARK CNNaffinity 5.78679848
REMARK SMILES N=C(N)c1cc2[nH]c(-c3cccc(O[C@H]4CCNC4)c3O)nc2cc1F
REMARK SMILES IDX 9 1 10 2 11 3 12 4 13 5 20 6 8 7 4 8 5 9 25 10 6 11 24 12
REMARK SMILES IDX 7 13 23 14 22 15 26 16 2 18 1 19 3 20 21 24 14 26 15 27
REMARK SMILES IDX 16 28 19 29 17 30 18 31
REMARK H PARENT 7 17 1 21 3 22 3 23 21 25 18 32
ROOT
ATOM      1  C   UNL     1      -0.484  11.806  22.238  1.00  0.00     0.063 A 
ATOM      2  C   UNL     1       0.764  12.443  22.159  1.00  0.00     0.016 A 
ATOM      3  C   UNL     1       1.135  13.161  21.020  1.00  0.00     0.005 A 
ATOM      4  C   UNL     1       0.268  13.258  19.930  1.00  0.00     0.050 A 
ATOM      5  C   UNL     1      -0.976  12.632  19.978  1.00  0.00     0.162 A 
ATOM      6  C   UNL     1      -1.341  11.916  21.133  1.00  0.00     0.168 A 
ENDROOT
BRANCH   1   7
ATOM      7  C   UNL     1      -0.827  11.067  23.458  1.00  0.00     0.142 A 
ATOM      8  C   UNL     1      -1.306   8.197  26.966  1.00  0.00     0.054 A 
ATOM      9  C   UNL     1      -0.559   8.310  25.779  1.00  0.00     0.043 A 
ATOM     10  C   UNL     1      -2.225   9.196  27.313  1.00  0.00     0.136 A 
ATOM     11  C   UNL     1      -0.786   9.442  24.993  1.00  0.00     0.067 A 
ATOM     12  C   UNL     1      -2.435  10.321  26.510  1.00  0.00     0.070 A 
ATOM     13  N   UNL     1      -0.252   9.866  23.807  1.00  0.00    -0.338 N 
ATOM     14  C   UNL     1      -1.695  10.437  25.328  1.00  0.00     0.092 A 
ATOM     15  N   UNL     1      -1.709  11.426  24.377  1.00  0.00    -0.228 NA
ATOM     16  F   UNL     1      -2.944   9.102  28.444  1.00  0.00    -0.206 F 
ATOM     17  H   UNL     1       0.452   9.397  23.250  1.00  0.00     0.168 HD
BRANCH   8  18
ATOM     18  C   UNL     1      -1.092   6.999  27.836  1.00  0.00     0.125 C 
ATOM     19  N   UNL     1      -0.716   5.882  27.300  1.00  0.00    -0.284 NA
ATOM     20  N   UNL     1      -1.286   7.056  29.179  1.00  0.00    -0.384 N 
ATOM     21  H   UNL     1      -0.619   5.173  28.028  1.00  0.00     0.189 HD
ATOM     22  H   UNL     1      -1.148   6.258  29.780  1.00  0.00     0.158 HD
ATOM     23  H   UNL     1      -1.582   7.921  29.624  1.00  0.00     0.158 HD
ENDBRANCH   8  18
ENDBRANCH   1   7
BRANCH   6  24
ATOM     24  O   UNL     1      -2.584  11.317  21.152  1.00  0.00    -0.504 OA
ATOM     25  H   UNL     1      -2.984  11.554  20.289  1.00  0.00     0.293 HD
ENDBRANCH   6  24
BRANCH   5  26
ATOM     26  O   UNL     1      -1.928  12.641  18.990  1.00  0.00    -0.485 OA
BRANCH  26  27
ATOM     27  C   UNL     1      -2.612  13.871  18.723  1.00  0.00     0.188 C 
ATOM     28  C   UNL     1      -2.285  14.833  19.863  1.00  0.00     0.062 C 
ATOM     29  C   UNL     1      -2.043  14.572  17.478  1.00  0.00     0.126 C 
ATOM     30  C   UNL     1      -1.113  15.633  19.329  1.00  0.00     0.085 C 
ATOM     31  N   UNL     1      -1.453  15.849  17.920  1.00  0.00    -0.313 NA
ATOM     32  H   UNL     1      -2.166  16.577  17.866  1.00  0.00     0.122 HD
ENDBRANCH  26  27
ENDBRANCH   5  26
TORSDOF 5
ENDMDL
MODEL 8
REMARK minimizedAffinity -6.74175119
REMARK CNNscore 0.249615461
REMARK CNNaffinity 5.10545778
REMARK SMILES N=C(N)c1cc2[nH]c(-c3cccc(O[C@H]4CCNC4)c3O)nc2cc1F
REMARK SMILES IDX 9 1 10 2 11 3 12 4 13 5 20 6 8 7 4 8 5 9 25 10 6 11 24 12
REMARK SMILES IDX 7 13 23 14 22 15 26 16 2 18 1 19 3 20 21 24 14 26 15 27
REMARK SMILES IDX 16 28 19 29 17 30 18 31
REMARK H PARENT 7 17 1 21 3 22 3 23 21 25 18 32
ROOT
ATOM      1  C   UNL     1      -6.929  11.377  21.251  1.00  0.00     0.063 A 
ATOM      2  C   UNL     1      -8.008  11.618  20.388  1.00  0.00     0.016 A 
ATOM      3  C   UNL     1      -8.358  10.696  19.397  1.00  0.00     0.005 A 
ATOM      4  C   UNL     1      -7.634   9.512  19.245  1.00  0.00     0.050 A 
ATOM      5  C   UNL     1      -6.555   9.248  20.085  1.00  0.00     0.162 A 
ATOM      6  C   UNL     1      -6.216  10.181  21.082  1.00  0.00     0.168 A 
ENDROOT
BRANCH   1   7
ATOM      7  C   UNL     1      -6.604  12.375  22.276  1.00  0.00     0.142 A 
ATOM      8  C   UNL     1      -6.120  15.994  25.004  1.00  0.00     0.054 A 
ATOM      9  C   UNL     1      -6.800  15.634  23.827  1.00  0.00     0.043 A 
ATOM     10  C   UNL     1      -5.302  15.060  25.654  1.00  0.00     0.136 A 
ATOM     11  C   UNL     1      -6.613  14.330  23.361  1.00  0.00     0.067 A 
ATOM     12  C   UNL     1      -5.130  13.760  25.168  1.00  0.00     0.070 A 
ATOM     13  N   UNL     1      -7.106  13.657  22.276  1.00  0.00    -0.338 N 
ATOM     14  C   UNL     1      -5.805  13.397  23.997  1.00  0.00     0.092 A 
ATOM     15  N   UNL     1      -5.809  12.204  23.320  1.00  0.00    -0.228 NA
ATOM     16  F   UNL     1      -4.647  15.390  26.780  1.00  0.00    -0.206 F 
ATOM     17  H   UNL     1      -7.737  14.013  21.569  1.00  0.00     0.168 HD
BRANCH   8  18
ATOM     18  C   UNL     1      -6.293  17.381  25.537  1.00  0.00     0.125 C 
ATOM     19  N   UNL     1      -6.527  17.553  26.799  1.00  0.00    -0.284 NA
ATOM     20  N   UNL     1      -6.212  18.466  24.725  1.00  0.00    -0.384 N 
ATOM     21  H   UNL     1      -6.619  18.551  26.993  1.00  0.00     0.189 HD
ATOM     22  H   UNL     1      -6.328  19.408  25.068  1.00  0.00     0.158 HD
ATOM     23  H   UNL     1      -6.029  18.358  23.731  1.00  0.00     0.158 HD
ENDBRANCH   8  18
ENDBRANCH   1   7
BRANCH   6  24
ATOM     24  O   UNL     1      -5.147   9.884  21.903  1.00  0.00    -0.504 OA
ATOM     25  H   UNL     1      -4.840   9.004  21.599  1.00  0.00     0.293 HD
ENDBRANCH   6  24
BRANCH   5  26
ATOM     26  O   UNL     1      -5.756   8.132  20.055  1.00  0.00    -0.485 OA
BRANCH  26  27
ATOM     27  C   UNL     1      -4.753   8.048  19.036  1.00  0.00     0.188 C 
ATOM     28  C   UNL     1      -4.758   6.616  18.506  1.00  0.00     0.062 C 
ATOM     29  C   UNL     1      -5.128   8.894  17.807  1.00  0.00     0.126 C 
ATOM     30  C   UNL     1      -5.662   6.688  17.292  1.00  0.00     0.085 C 
ATOM     31  N   UNL     1      -5.311   7.969  16.673  1.00  0.00    -0.313 NA
ATOM     32  H   UNL     1      -4.419   7.863  16.188  1.00  0.00     0.122 HD
ENDBRANCH  26  27
ENDBRANCH   5  26
TORSDOF 5
ENDMDL
MODEL 9
REMARK minimizedAffinity -8.89536858
REMARK CNNscore 0.205365196
REMARK CNNaffinity 5.99199533
REMARK SMILES N=C(N)c1cc2[nH]c(-c3cccc(O[C@H]4CCNC4)c3O)nc2cc1F
REMARK SMILES IDX 9 1 10 2 11 3 12 4 13 5 20 6 8 7 4 8 5 9 25 10 6 11 24 12
REMARK SMILES IDX 7 13 23 14 22 15 26 16 2 18 1 19 3 20 21 24 14 26 15 27
REMARK SMILES IDX 16 28 19 29 17 30 18 31
REMARK H PARENT 7 17 1 21 3 22 3 23 21 25 18 32
ROOT
ATOM      1  C   UNL     1      -2.210  10.927  21.704  1.00  0.00     0.063 A 
ATOM      2  C   UNL     1      -1.121  11.616  21.150  1.00  0.00     0.016 A 
ATOM      3  C   UNL     1      -0.104  12.126  21.961  1.00  0.00     0.005 A 
ATOM      4  C   UNL     1      -0.153  11.961  23.346  1.00  0.00     0.050 A 
ATOM      5  C   UNL     1      -1.224  11.285  23.925  1.00  0.00     0.162 A 
ATOM      6  C   UNL     1      -2.240  10.771  23.098  1.00  0.00     0.168 A 
ENDROOT
BRANCH   1   7
ATOM      7  C   UNL     1      -3.251  10.408  20.809  1.00  0.00     0.142 A 
ATOM      8  C   UNL     1      -6.017   9.175  17.403  1.00  0.00     0.054 A 
ATOM      9  C   UNL     1      -4.822   9.891  17.596  1.00  0.00     0.043 A 
ATOM     10  C   UNL     1      -6.677   8.605  18.501  1.00  0.00     0.136 A 
ATOM     11  C   UNL     1      -4.351   9.997  18.907  1.00  0.00     0.067 A 
ATOM     12  C   UNL     1      -6.185   8.725  19.805  1.00  0.00     0.070 A 
ATOM     13  N   UNL     1      -3.250  10.605  19.447  1.00  0.00    -0.338 N 
ATOM     14  C   UNL     1      -4.997   9.436  20.001  1.00  0.00     0.092 A 
ATOM     15  N   UNL     1      -4.311   9.697  21.160  1.00  0.00    -0.228 NA
ATOM     16  F   UNL     1      -7.819   7.917  18.332  1.00  0.00    -0.206 F 
ATOM     17  H   UNL     1      -2.533  11.123  18.955  1.00  0.00     0.168 HD
BRANCH   8  18
ATOM     18  C   UNL     1      -6.556   9.038  16.015  1.00  0.00     0.125 C 
ATOM     19  N   UNL     1      -7.827   8.859  15.840  1.00  0.00    -0.284 NA
ATOM     20  N   UNL     1      -5.740   9.096  14.931  1.00  0.00    -0.384 N 
ATOM     21  H   UNL     1      -8.023   8.785  14.841  1.00  0.00     0.189 HD
ATOM     22  H   UNL     1      -6.087   9.004  13.987  1.00  0.00     0.158 HD
ATOM     23  H   UNL     1      -4.739   9.235  15.041  1.00  0.00     0.158 HD
ENDBRANCH   8  18
ENDBRANCH   1   7
BRANCH   6  24
ATOM     24  O   UNL     1      -3.282  10.098  23.703  1.00  0.00    -0.504 OA
ATOM     25  H   UNL     1      -3.062  10.110  24.658  1.00  0.00     0.293 HD
ENDBRANCH   6  24
BRANCH   5  26
ATOM     26  O   UNL     1      -1.406  11.046  25.264  1.00  0.00    -0.485 OA
BRANCH  26  27
ATOM     27  C   UNL     1      -1.741   9.715  25.672  1.00  0.00     0.188 C 
ATOM     28  C   UNL     1      -0.459   8.886  25.627  1.00  0.00     0.062 C 
ATOM     29  C   UNL     1      -2.154   9.668  27.153  1.00  0.00     0.126 C 
ATOM     30  C   UNL     1       0.057   8.949  27.050  1.00  0.00     0.085 C 
ATOM     31  N   UNL     1      -1.156   8.848  27.865  1.00  0.00    -0.313 NA
ATOM     32  H   UNL     1      -1.469   7.876  27.864  1.00  0.00     0.122 HD
ENDBRANCH  26  27
ENDBRANCH   5  26
TORSDOF 5
ENDMDL
