MODEL 8
REMARK VINA RESULT:    -7.389      3.742      5.768
REMARK INTER + INTRA:         -15.129
REMARK INTER:                 -12.272
REMARK INTRA:                  -2.857
REMARK UNBOUND:                -2.988
REMARK SMILES O=C(Nc1ccc(C(=O)NS(=O)(=O)c2ccc(NCCSc3ccccc3)c([N+](=O)[O-])c2)cc1)c1ccccc1
REMARK SMILES IDX 14 1 15 2 16 3 17 4 28 5 32 6 11 7 12 8 13 9 10 10 8 11 9 12
REMARK SMILES IDX 7 14 4 15 5 16 34 17 6 18 33 19 3 20 1 21 2 22 35 24 36 25
REMARK SMILES IDX 40 26 37 27 39 28 38 29 29 30 30 31 31 32 18 33 19 35 20 36
REMARK SMILES IDX 21 37 22 38 23 39 27 40 24 41 26 42 25 43
REMARK H PARENT 10 13 3 23 18 34
ROOT
ATOM      1  C   UNL     1     -13.322   9.446  23.477  1.00  0.00     0.094 A 
ATOM      2  C   UNL     1     -13.469  10.823  23.322  1.00  0.00     0.025 A 
ATOM      3  C   UNL     1     -13.148  11.424  22.097  1.00  0.00     0.034 A 
ATOM      4  C   UNL     1     -12.640  10.686  21.013  1.00  0.00     0.113 A 
ATOM      5  C   UNL     1     -12.520   9.287  21.210  1.00  0.00     0.293 A 
ATOM      6  C   UNL     1     -12.842   8.665  22.429  1.00  0.00     0.110 A 
ENDROOT
BRANCH   1   7
ATOM      7  S   UNL     1     -13.731   8.686  25.039  1.00  0.00     0.264 S 
ATOM      8  O   UNL     1     -15.103   9.043  25.322  1.00  0.00    -0.201 OA
ATOM      9  O   UNL     1     -12.639   8.991  25.936  1.00  0.00    -0.201 OA
BRANCH   7  10
ATOM     10  N   UNL     1     -13.656   7.077  24.609  1.00  0.00    -0.245 N 
ATOM     11  C   UNL     1     -13.563   6.053  25.565  1.00  0.00     0.264 C 
ATOM     12  O   UNL     1     -13.522   6.250  26.767  1.00  0.00    -0.268 OA
ATOM     13  H   UNL     1     -13.480   6.887  23.630  1.00  0.00     0.183 HD
BRANCH  11  14
ATOM     14  C   UNL     1     -13.511   4.668  25.018  1.00  0.00     0.040 A 
ATOM     15  C   UNL     1     -13.526   2.054  23.952  1.00  0.00     0.041 A 
ATOM     16  C   UNL     1     -14.591   2.928  23.710  1.00  0.00     0.027 A 
ATOM     17  C   UNL     1     -12.451   2.503  24.720  1.00  0.00     0.027 A 
ATOM     18  C   UNL     1     -14.586   4.225  24.238  1.00  0.00     0.016 A 
ATOM     19  C   UNL     1     -12.438   3.800  25.250  1.00  0.00     0.016 A 
BRANCH  15  20
ATOM     20  N   UNL     1     -13.598   0.770  23.376  1.00  0.00    -0.322 N 
ATOM     21  O   UNL     1     -12.764   1.138  21.230  1.00  0.00    -0.269 OA
ATOM     22  C   UNL     1     -13.270   0.414  22.080  1.00  0.00     0.255 C 
ATOM     23  H   UNL     1     -13.862   0.019  24.003  1.00  0.00     0.170 HD
BRANCH  22  24
ATOM     24  C   UNL     1     -13.534  -1.011  21.731  1.00  0.00     0.040 A 
ATOM     25  C   UNL     1     -13.823  -1.970  22.713  1.00  0.00     0.014 A 
ATOM     26  C   UNL     1     -13.526  -1.380  20.379  1.00  0.00     0.014 A 
ATOM     27  C   UNL     1     -14.072  -3.293  22.342  1.00  0.00     0.001 A 
ATOM     28  C   UNL     1     -13.776  -2.704  20.014  1.00  0.00     0.001 A 
ATOM     29  C   UNL     1     -14.045  -3.659  20.995  1.00  0.00     0.000 A 
ENDBRANCH  22  24
ENDBRANCH  15  20
ENDBRANCH  11  14
ENDBRANCH   7  10
ENDBRANCH   1   7
BRANCH   5  30
ATOM     30  N   UNL     1     -12.047   8.419  20.130  1.00  0.00     0.065 N 
ATOM     31  O   UNL     1     -12.884   7.692  19.577  1.00  0.00    -0.258 OA
ATOM     32  O   UNL     1     -10.840   8.457  19.844  1.00  0.00    -0.258 OA
ENDBRANCH   5  30
BRANCH   4  33
ATOM     33  N   UNL     1     -12.413  11.281  19.768  1.00  0.00    -0.379 N 
ATOM     34  H   UNL     1     -12.279  10.592  19.017  1.00  0.00     0.160 HD
BRANCH  33  35
ATOM     35  C   UNL     1     -11.547  12.451  19.580  1.00  0.00     0.124 C 
BRANCH  35  36
ATOM     36  C   UNL     1     -10.073  12.119  19.844  1.00  0.00     0.096 C 
BRANCH  36  37
ATOM     37  S   UNL     1      -9.328  13.245  21.075  1.00  0.00    -0.124 SA
BRANCH  37  38
ATOM     38  C   UNL     1      -9.596  12.309  22.571  1.00  0.00     0.007 A 
ATOM     39  C   UNL     1      -9.963  12.980  23.741  1.00  0.00     0.015 A 
ATOM     40  C   UNL     1      -9.472  10.917  22.588  1.00  0.00     0.015 A 
ATOM     41  C   UNL     1     -10.180  12.268  24.923  1.00  0.00     0.001 A 
ATOM     42  C   UNL     1      -9.688  10.205  23.770  1.00  0.00     0.001 A 
ATOM     43  C   UNL     1     -10.041  10.882  24.938  1.00  0.00     0.000 A 
ENDBRANCH  37  38
ENDBRANCH  36  37
ENDBRANCH  35  36
ENDBRANCH  33  35
ENDBRANCH   4  33
TORSDOF 11
ENDMDL
