MODEL 1
REMARK minimizedAffinity -7.54202986
REMARK CNNscore 0.748011172
REMARK CNNaffinity 6.93575668
REMARK SMILES O=C(C#CCCN1CCOCC1)Nc1cc2c(Nc3ccc(F)c(Cl)c3)ncnc2cn1
REMARK SMILES IDX 14 1 15 2 16 3 17 4 27 5 28 6 29 7 30 8 31 9 32 10 13 11
REMARK SMILES IDX 1 12 2 13 3 14 4 16 5 17 6 18 7 19 8 20 12 21 9 22 11 23
REMARK SMILES IDX 10 24 18 25 19 27 20 28 26 29 21 30 24 31 22 32 25 33 23 34
REMARK H PARENT 13 15 18 26
ROOT
ATOM      1  C   UNL     1      17.349  35.165  16.823  1.00  0.00     0.134 A 
ATOM      2  C   UNL     1      17.176  35.085  15.452  1.00  0.00     0.061 A 
ATOM      3  C   UNL     1      15.918  34.706  14.920  1.00  0.00     0.048 A 
ATOM      4  C   UNL     1      15.618  34.575  13.549  1.00  0.00     0.141 A 
ATOM      5  N   UNL     1      14.387  34.233  13.122  1.00  0.00    -0.219 NA
ATOM      6  C   UNL     1      13.459  34.003  14.056  1.00  0.00     0.224 A 
ATOM      7  N   UNL     1      13.636  34.084  15.376  1.00  0.00    -0.235 NA
ATOM      8  C   UNL     1      14.861  34.438  15.792  1.00  0.00     0.094 A 
ATOM      9  C   UNL     1      15.145  34.560  17.142  1.00  0.00     0.142 A 
ATOM     10  N   UNL     1      16.345  34.911  17.679  1.00  0.00    -0.237 NA
ENDROOT
BRANCH   1  11
ATOM     11  N   UNL     1      18.545  35.506  17.446  1.00  0.00    -0.300 N 
ATOM     12  O   UNL     1      18.355  34.542  19.552  1.00  0.00    -0.259 OA
ATOM     13  C   UNL     1      18.961  35.188  18.710  1.00  0.00     0.301 C 
ATOM     14  C   UNL     1      20.269  35.711  19.041  1.00  0.00    -0.005 C 
ATOM     15  H   UNL     1      19.147  36.088  16.877  1.00  0.00     0.172 HD
BRANCH  14  16
ATOM     16  C   UNL     1      21.358  36.165  19.271  1.00  0.00    -0.092 C 
ATOM     17  C   UNL     1      22.698  36.681  19.583  1.00  0.00     0.105 C 
BRANCH  17  18
ATOM     18  C   UNL     1      23.696  35.551  19.910  1.00  0.00     0.097 C 
BRANCH  18  19
ATOM     19  N   UNL     1      24.951  35.577  19.129  1.00  0.00    -0.298 NA
ATOM     20  C   UNL     1      25.790  34.389  19.413  1.00  0.00     0.113 C 
ATOM     21  C   UNL     1      24.735  35.645  17.665  1.00  0.00     0.113 C 
ATOM     22  C   UNL     1      25.279  33.091  18.763  1.00  0.00     0.175 C 
ATOM     23  C   UNL     1      24.242  34.328  17.041  1.00  0.00     0.175 C 
ATOM     24  O   UNL     1      25.126  33.240  17.346  1.00  0.00    -0.379 OA
ENDBRANCH  18  19
ENDBRANCH  17  18
ENDBRANCH  14  16
ENDBRANCH   1  11
BRANCH   4  25
ATOM     25  N   UNL     1      16.645  34.815  12.596  1.00  0.00    -0.340 N 
ATOM     26  H   UNL     1      17.381  35.366  13.029  1.00  0.00     0.168 HD
BRANCH  25  27
ATOM     27  C   UNL     1      17.155  33.954  11.600  1.00  0.00     0.041 A 
ATOM     28  C   UNL     1      18.160  33.008  11.853  1.00  0.00     0.029 A 
ATOM     29  C   UNL     1      16.550  33.952  10.332  1.00  0.00     0.049 A 
ATOM     30  C   UNL     1      18.595  32.131  10.855  1.00  0.00     0.043 A 
ATOM     31  C   UNL     1      16.982  33.074   9.333  1.00  0.00     0.078 A 
ATOM     32  C   UNL     1      18.008  32.174   9.597  1.00  0.00     0.141 A 
ATOM     33  Cl  UNL     1      16.232  33.120   7.784  1.00  0.00    -0.081 Cl
ATOM     34  F   UNL     1      18.441  31.327   8.652  1.00  0.00    -0.205 F 
ENDBRANCH  25  27
ENDBRANCH   4  25
TORSDOF 6
ENDMDL
