MODEL 1
REMARK VINA RESULT:    -8.555      0.000      0.000
REMARK INTER + INTRA:         -11.486
REMARK INTER:                 -11.055
REMARK INTRA:                  -0.431
REMARK UNBOUND:                -0.431
REMARK SMILES N#C/C(=C\c1ccc(O)c(O)c1)C(=O)NCc1ccccc1
REMARK SMILES IDX 1 1 2 2 3 3 4 4 13 5 14 6 15 7 16 9 17 10 18 11 22 12 19 13
REMARK SMILES IDX 21 14 20 15 5 16 6 17 12 18 7 19 10 20 8 21 11 22 9 24
REMARK H PARENT 15 8 11 23 9 25
ROOT
ATOM      1  N   UNL     1      13.992   2.576  31.367  1.00  0.00    -0.192 NA
ATOM      2  C   UNL     1      13.311   1.959  30.657  1.00  0.00     0.105 C 
ATOM      3  C   UNL     1      12.429   1.226  29.818  1.00  0.00     0.117 C 
ATOM      4  C   UNL     1      12.790   0.765  28.603  1.00  0.00     0.033 C 
ENDROOT
BRANCH   3   5
ATOM      5  C   UNL     1      11.035   0.921  30.278  1.00  0.00     0.262 C 
ATOM      6  O   UNL     1      10.755  -0.144  30.825  1.00  0.00    -0.268 OA
ATOM      7  N   UNL     1      10.089   1.892  30.051  1.00  0.00    -0.347 N 
ATOM      8  H   UNL     1      10.314   2.773  29.605  1.00  0.00     0.164 HD
BRANCH   7   9
ATOM      9  C   UNL     1       8.717   1.691  30.460  1.00  0.00     0.152 C 
BRANCH   9  10
ATOM     10  C   UNL     1       8.127   2.969  30.990  1.00  0.00    -0.029 A 
ATOM     11  C   UNL     1       7.387   3.813  30.149  1.00  0.00     0.005 A 
ATOM     12  C   UNL     1       8.263   3.308  32.343  1.00  0.00     0.005 A 
ATOM     13  C   UNL     1       6.811   4.981  30.649  1.00  0.00     0.000 A 
ATOM     14  C   UNL     1       7.686   4.478  32.841  1.00  0.00     0.000 A 
ATOM     15  C   UNL     1       6.962   5.314  31.994  1.00  0.00     0.000 A 
ENDBRANCH   9  10
ENDBRANCH   7   9
ENDBRANCH   3   5
BRANCH   4  16
ATOM     16  C   UNL     1      14.105   0.940  27.973  1.00  0.00    -0.020 A 
ATOM     17  C   UNL     1      14.489   2.163  27.400  1.00  0.00     0.012 A 
ATOM     18  C   UNL     1      14.977  -0.154  27.913  1.00  0.00     0.058 A 
ATOM     19  C   UNL     1      15.743   2.305  26.795  1.00  0.00     0.051 A 
ATOM     20  C   UNL     1      16.218  -0.003  27.308  1.00  0.00     0.157 A 
ATOM     21  C   UNL     1      16.604   1.216  26.756  1.00  0.00     0.157 A 
BRANCH  20  22
ATOM     22  O   UNL     1      17.068  -1.071  27.260  1.00  0.00    -0.504 OA
ATOM     23  H   UNL     1      17.580  -0.941  26.438  1.00  0.00     0.293 HD
ENDBRANCH  20  22
BRANCH  21  24
ATOM     24  O   UNL     1      17.841   1.290  26.181  1.00  0.00    -0.504 OA
ATOM     25  H   UNL     1      17.723   1.364  25.218  1.00  0.00     0.293 HD
ENDBRANCH  21  24
ENDBRANCH   4  16
TORSDOF 6
ENDMDL
MODEL 2
REMARK VINA RESULT:    -8.543      2.121      3.323
REMARK INTER + INTRA:         -11.470
REMARK INTER:                 -10.982
REMARK INTRA:                  -0.488
REMARK UNBOUND:                -0.431
REMARK SMILES N#C/C(=C\c1ccc(O)c(O)c1)C(=O)NCc1ccccc1
REMARK SMILES IDX 1 1 2 2 3 3 4 4 13 5 14 6 15 7 16 9 17 10 18 11 22 12 19 13
REMARK SMILES IDX 21 14 20 15 5 16 6 17 12 18 7 19 10 20 8 21 11 22 9 24
REMARK H PARENT 15 8 11 23 9 25
ROOT
ATOM      1  N   UNL     1      13.800   2.452  31.402  1.00  0.00    -0.192 NA
ATOM      2  C   UNL     1      13.102   2.038  30.572  1.00  0.00     0.105 C 
ATOM      3  C   UNL     1      12.201   1.559  29.583  1.00  0.00     0.117 C 
ATOM      4  C   UNL     1      12.602   1.167  28.356  1.00  0.00     0.033 C 
ENDROOT
BRANCH   3   5
ATOM      5  C   UNL     1      10.736   1.455  29.888  1.00  0.00     0.262 C 
ATOM      6  O   UNL     1       9.890   1.487  28.997  1.00  0.00    -0.268 OA
ATOM      7  N   UNL     1      10.394   1.328  31.212  1.00  0.00    -0.347 N 
ATOM      8  H   UNL     1      11.087   1.296  31.950  1.00  0.00     0.164 HD
BRANCH   7   9
ATOM      9  C   UNL     1       9.007   1.219  31.605  1.00  0.00     0.152 C 
BRANCH   9  10
ATOM     10  C   UNL     1       8.629  -0.219  31.832  1.00  0.00    -0.029 A 
ATOM     11  C   UNL     1       7.384  -0.548  32.386  1.00  0.00     0.005 A 
ATOM     12  C   UNL     1       9.495  -1.252  31.445  1.00  0.00     0.005 A 
ATOM     13  C   UNL     1       7.020  -1.884  32.566  1.00  0.00     0.000 A 
ATOM     14  C   UNL     1       9.129  -2.587  31.626  1.00  0.00     0.000 A 
ATOM     15  C   UNL     1       7.893  -2.902  32.188  1.00  0.00     0.000 A 
ENDBRANCH   9  10
ENDBRANCH   7   9
ENDBRANCH   3   5
BRANCH   4  16
ATOM     16  C   UNL     1      13.985   1.174  27.860  1.00  0.00    -0.020 A 
ATOM     17  C   UNL     1      14.546   2.313  27.262  1.00  0.00     0.012 A 
ATOM     18  C   UNL     1      14.744   0.002  27.958  1.00  0.00     0.058 A 
ATOM     19  C   UNL     1      15.863   2.295  26.787  1.00  0.00     0.051 A 
ATOM     20  C   UNL     1      16.048  -0.007  27.481  1.00  0.00     0.157 A 
ATOM     21  C   UNL     1      16.608   1.129  26.904  1.00  0.00     0.157 A 
BRANCH  20  22
ATOM     22  O   UNL     1      16.786  -1.151  27.586  1.00  0.00    -0.504 OA
ATOM     23  H   UNL     1      16.296  -1.703  28.227  1.00  0.00     0.293 HD
ENDBRANCH  20  22
BRANCH  21  24
ATOM     24  O   UNL     1      17.898   1.047  26.460  1.00  0.00    -0.504 OA
ATOM     25  H   UNL     1      17.879   0.900  25.499  1.00  0.00     0.293 HD
ENDBRANCH  21  24
ENDBRANCH   4  16
TORSDOF 6
ENDMDL
MODEL 3
REMARK VINA RESULT:    -8.223      2.738      8.373
REMARK INTER + INTRA:         -11.057
REMARK INTER:                 -10.500
REMARK INTRA:                  -0.558
REMARK UNBOUND:                -0.431
REMARK SMILES N#C/C(=C\c1ccc(O)c(O)c1)C(=O)NCc1ccccc1
REMARK SMILES IDX 1 1 2 2 3 3 4 4 13 5 14 6 15 7 16 9 17 10 18 11 22 12 19 13
REMARK SMILES IDX 21 14 20 15 5 16 6 17 12 18 7 19 10 20 8 21 11 22 9 24
REMARK H PARENT 15 8 11 23 9 25
ROOT
ATOM      1  N   UNL     1       7.150  -0.395  31.187  1.00  0.00    -0.192 NA
ATOM      2  C   UNL     1       8.092   0.262  31.014  1.00  0.00     0.105 C 
ATOM      3  C   UNL     1       9.268   1.021  30.773  1.00  0.00     0.117 C 
ATOM      4  C   UNL     1       9.301   2.366  30.860  1.00  0.00     0.033 C 
ENDROOT
BRANCH   3   5
ATOM      5  C   UNL     1      10.549   0.328  30.416  1.00  0.00     0.262 C 
ATOM      6  O   UNL     1      10.862  -0.748  30.920  1.00  0.00    -0.268 OA
ATOM      7  N   UNL     1      11.355   0.964  29.501  1.00  0.00    -0.347 N 
ATOM      8  H   UNL     1      11.101   1.848  29.079  1.00  0.00     0.164 HD
BRANCH   7   9
ATOM      9  C   UNL     1      12.609   0.373  29.093  1.00  0.00     0.152 C 
BRANCH   9  10
ATOM     10  C   UNL     1      13.287   1.227  28.056  1.00  0.00    -0.029 A 
ATOM     11  C   UNL     1      12.546   2.138  27.289  1.00  0.00     0.005 A 
ATOM     12  C   UNL     1      14.676   1.162  27.880  1.00  0.00     0.005 A 
ATOM     13  C   UNL     1      13.181   2.954  26.352  1.00  0.00     0.000 A 
ATOM     14  C   UNL     1      15.309   1.980  26.941  1.00  0.00     0.000 A 
ATOM     15  C   UNL     1      14.561   2.873  26.176  1.00  0.00     0.000 A 
ENDBRANCH   9  10
ENDBRANCH   7   9
ENDBRANCH   3   5
BRANCH   4  16
ATOM     16  C   UNL     1       8.168   3.234  31.208  1.00  0.00    -0.020 A 
ATOM     17  C   UNL     1       7.873   3.558  32.541  1.00  0.00     0.012 A 
ATOM     18  C   UNL     1       7.347   3.717  30.182  1.00  0.00     0.058 A 
ATOM     19  C   UNL     1       6.782   4.380  32.852  1.00  0.00     0.051 A 
ATOM     20  C   UNL     1       6.265   4.529  30.500  1.00  0.00     0.157 A 
ATOM     21  C   UNL     1       5.985   4.863  31.822  1.00  0.00     0.157 A 
BRANCH  20  22
ATOM     22  O   UNL     1       5.473   5.004  29.495  1.00  0.00    -0.504 OA
ATOM     23  H   UNL     1       5.469   4.291  28.826  1.00  0.00     0.293 HD
ENDBRANCH  20  22
BRANCH  21  24
ATOM     24  O   UNL     1       4.906   5.669  32.059  1.00  0.00    -0.504 OA
ATOM     25  H   UNL     1       4.463   5.839  31.210  1.00  0.00     0.293 HD
ENDBRANCH  21  24
ENDBRANCH   4  16
TORSDOF 6
ENDMDL
MODEL 4
REMARK VINA RESULT:    -8.190      1.272      1.593
REMARK INTER + INTRA:         -11.015
REMARK INTER:                 -10.492
REMARK INTRA:                  -0.523
REMARK UNBOUND:                -0.431
REMARK SMILES N#C/C(=C\c1ccc(O)c(O)c1)C(=O)NCc1ccccc1
REMARK SMILES IDX 1 1 2 2 3 3 4 4 13 5 14 6 15 7 16 9 17 10 18 11 22 12 19 13
REMARK SMILES IDX 21 14 20 15 5 16 6 17 12 18 7 19 10 20 8 21 11 22 9 24
REMARK H PARENT 15 8 11 23 9 25
ROOT
ATOM      1  N   UNL     1      14.061   2.913  31.203  1.00  0.00    -0.192 NA
ATOM      2  C   UNL     1      13.440   2.176  30.557  1.00  0.00     0.105 C 
ATOM      3  C   UNL     1      12.635   1.279  29.805  1.00  0.00     0.117 C 
ATOM      4  C   UNL     1      12.862   1.007  28.503  1.00  0.00     0.033 C 
ENDROOT
BRANCH   3   5
ATOM      5  C   UNL     1      11.482   0.576  30.457  1.00  0.00     0.262 C 
ATOM      6  O   UNL     1      11.209  -0.594  30.196  1.00  0.00    -0.268 OA
ATOM      7  N   UNL     1      10.748   1.309  31.358  1.00  0.00    -0.347 N 
ATOM      8  H   UNL     1      10.970   2.272  31.581  1.00  0.00     0.164 HD
BRANCH   7   9
ATOM      9  C   UNL     1       9.619   0.718  32.040  1.00  0.00     0.152 C 
BRANCH   9  10
ATOM     10  C   UNL     1       8.516   1.725  32.217  1.00  0.00    -0.029 A 
ATOM     11  C   UNL     1       7.180   1.308  32.305  1.00  0.00     0.005 A 
ATOM     12  C   UNL     1       8.813   3.089  32.350  1.00  0.00     0.005 A 
ATOM     13  C   UNL     1       6.160   2.240  32.503  1.00  0.00     0.000 A 
ATOM     14  C   UNL     1       7.791   4.019  32.548  1.00  0.00     0.000 A 
ATOM     15  C   UNL     1       6.466   3.595  32.623  1.00  0.00     0.000 A 
ENDBRANCH   9  10
ENDBRANCH   7   9
ENDBRANCH   3   5
BRANCH   4  16
ATOM     16  C   UNL     1      13.941   1.572  27.682  1.00  0.00    -0.020 A 
ATOM     17  C   UNL     1      13.776   2.778  26.981  1.00  0.00     0.012 A 
ATOM     18  C   UNL     1      15.146   0.870  27.571  1.00  0.00     0.058 A 
ATOM     19  C   UNL     1      14.813   3.295  26.196  1.00  0.00     0.051 A 
ATOM     20  C   UNL     1      16.169   1.390  26.788  1.00  0.00     0.157 A 
ATOM     21  C   UNL     1      16.009   2.594  26.108  1.00  0.00     0.157 A 
BRANCH  20  22
ATOM     22  O   UNL     1      17.345   0.705  26.690  1.00  0.00    -0.504 OA
ATOM     23  H   UNL     1      17.978   1.353  26.322  1.00  0.00     0.293 HD
ENDBRANCH  20  22
BRANCH  21  24
ATOM     24  O   UNL     1      17.059   3.046  25.358  1.00  0.00    -0.504 OA
ATOM     25  H   UNL     1      16.819   2.961  24.419  1.00  0.00     0.293 HD
ENDBRANCH  21  24
ENDBRANCH   4  16
TORSDOF 6
ENDMDL
MODEL 5
REMARK VINA RESULT:    -8.117      2.681      8.232
REMARK INTER + INTRA:         -10.921
REMARK INTER:                 -10.367
REMARK INTRA:                  -0.554
REMARK UNBOUND:                -0.431
REMARK SMILES N#C/C(=C\c1ccc(O)c(O)c1)C(=O)NCc1ccccc1
REMARK SMILES IDX 1 1 2 2 3 3 4 4 13 5 14 6 15 7 16 9 17 10 18 11 22 12 19 13
REMARK SMILES IDX 21 14 20 15 5 16 6 17 12 18 7 19 10 20 8 21 11 22 9 24
REMARK H PARENT 15 8 11 23 9 25
ROOT
ATOM      1  N   UNL     1      12.344   0.647  33.303  1.00  0.00    -0.192 NA
ATOM      2  C   UNL     1      12.205   1.223  32.305  1.00  0.00     0.105 C 
ATOM      3  C   UNL     1      12.091   1.913  31.068  1.00  0.00     0.117 C 
ATOM      4  C   UNL     1      10.903   2.209  30.503  1.00  0.00     0.033 C 
ENDROOT
BRANCH   3   5
ATOM      5  C   UNL     1      13.323   2.360  30.340  1.00  0.00     0.262 C 
ATOM      6  O   UNL     1      14.264   2.887  30.929  1.00  0.00    -0.268 OA
ATOM      7  N   UNL     1      13.341   2.152  28.981  1.00  0.00    -0.347 N 
ATOM      8  H   UNL     1      12.571   1.714  28.491  1.00  0.00     0.164 HD
BRANCH   7   9
ATOM      9  C   UNL     1      14.486   2.547  28.193  1.00  0.00     0.152 C 
BRANCH   9  10
ATOM     10  C   UNL     1      15.259   1.340  27.736  1.00  0.00    -0.029 A 
ATOM     11  C   UNL     1      16.377   1.486  26.902  1.00  0.00     0.005 A 
ATOM     12  C   UNL     1      14.904   0.058  28.178  1.00  0.00     0.005 A 
ATOM     13  C   UNL     1      17.115   0.370  26.506  1.00  0.00     0.000 A 
ATOM     14  C   UNL     1      15.643  -1.057  27.780  1.00  0.00     0.000 A 
ATOM     15  C   UNL     1      16.746  -0.901  26.942  1.00  0.00     0.000 A 
ENDBRANCH   9  10
ENDBRANCH   7   9
ENDBRANCH   3   5
BRANCH   4  16
ATOM     16  C   UNL     1       9.582   1.878  31.053  1.00  0.00    -0.020 A 
ATOM     17  C   UNL     1       8.972   2.677  32.033  1.00  0.00     0.012 A 
ATOM     18  C   UNL     1       8.936   0.717  30.611  1.00  0.00     0.058 A 
ATOM     19  C   UNL     1       7.717   2.338  32.552  1.00  0.00     0.051 A 
ATOM     20  C   UNL     1       7.692   0.388  31.134  1.00  0.00     0.157 A 
ATOM     21  C   UNL     1       7.082   1.191  32.093  1.00  0.00     0.157 A 
BRANCH  20  22
ATOM     22  O   UNL     1       7.064  -0.741  30.693  1.00  0.00    -0.504 OA
ATOM     23  H   UNL     1       7.303  -1.428  31.346  1.00  0.00     0.293 HD
ENDBRANCH  20  22
BRANCH  21  24
ATOM     24  O   UNL     1       5.856   0.806  32.559  1.00  0.00    -0.504 OA
ATOM     25  H   UNL     1       5.241   1.551  32.446  1.00  0.00     0.293 HD
ENDBRANCH  21  24
ENDBRANCH   4  16
TORSDOF 6
ENDMDL
MODEL 6
REMARK VINA RESULT:    -8.080      2.826      8.532
REMARK INTER + INTRA:         -10.873
REMARK INTER:                 -10.600
REMARK INTRA:                  -0.273
REMARK UNBOUND:                -0.431
REMARK SMILES N#C/C(=C\c1ccc(O)c(O)c1)C(=O)NCc1ccccc1
REMARK SMILES IDX 1 1 2 2 3 3 4 4 13 5 14 6 15 7 16 9 17 10 18 11 22 12 19 13
REMARK SMILES IDX 21 14 20 15 5 16 6 17 12 18 7 19 10 20 8 21 11 22 9 24
REMARK H PARENT 15 8 11 23 9 25
ROOT
ATOM      1  N   UNL     1      13.376   2.029  31.754  1.00  0.00    -0.192 NA
ATOM      2  C   UNL     1      12.824   2.192  30.745  1.00  0.00     0.105 C 
ATOM      3  C   UNL     1      12.202   2.392  29.484  1.00  0.00     0.117 C 
ATOM      4  C   UNL     1      10.908   2.094  29.250  1.00  0.00     0.033 C 
ENDROOT
BRANCH   3   5
ATOM      5  C   UNL     1      12.984   2.973  28.344  1.00  0.00     0.262 C 
ATOM      6  O   UNL     1      12.568   3.933  27.699  1.00  0.00    -0.268 OA
ATOM      7  N   UNL     1      14.187   2.372  28.058  1.00  0.00    -0.347 N 
ATOM      8  H   UNL     1      14.539   1.584  28.588  1.00  0.00     0.164 HD
BRANCH   7   9
ATOM      9  C   UNL     1      15.014   2.862  26.978  1.00  0.00     0.152 C 
BRANCH   9  10
ATOM     10  C   UNL     1      16.035   1.832  26.579  1.00  0.00    -0.029 A 
ATOM     11  C   UNL     1      15.996   0.542  27.130  1.00  0.00     0.005 A 
ATOM     12  C   UNL     1      17.007   2.130  25.614  1.00  0.00     0.005 A 
ATOM     13  C   UNL     1      16.923  -0.423  26.734  1.00  0.00     0.000 A 
ATOM     14  C   UNL     1      17.933   1.162  25.220  1.00  0.00     0.000 A 
ATOM     15  C   UNL     1      17.892  -0.112  25.782  1.00  0.00     0.000 A 
ENDBRANCH   9  10
ENDBRANCH   7   9
ENDBRANCH   3   5
BRANCH   4  16
ATOM     16  C   UNL     1       9.965   1.533  30.227  1.00  0.00    -0.020 A 
ATOM     17  C   UNL     1      10.216   0.312  30.873  1.00  0.00     0.012 A 
ATOM     18  C   UNL     1       8.774   2.220  30.489  1.00  0.00     0.058 A 
ATOM     19  C   UNL     1       9.299  -0.210  31.794  1.00  0.00     0.051 A 
ATOM     20  C   UNL     1       7.869   1.692  31.402  1.00  0.00     0.157 A 
ATOM     21  C   UNL     1       8.128   0.490  32.054  1.00  0.00     0.157 A 
BRANCH  20  22
ATOM     22  O   UNL     1       6.713   2.371  31.659  1.00  0.00    -0.504 OA
ATOM     23  H   UNL     1       7.007   3.246  31.981  1.00  0.00     0.293 HD
ENDBRANCH  20  22
BRANCH  21  24
ATOM     24  O   UNL     1       7.194   0.034  32.942  1.00  0.00    -0.504 OA
ATOM     25  H   UNL     1       6.354   0.489  32.757  1.00  0.00     0.293 HD
ENDBRANCH  21  24
ENDBRANCH   4  16
TORSDOF 6
ENDMDL
MODEL 7
REMARK VINA RESULT:    -8.033      2.756      4.096
REMARK INTER + INTRA:         -10.812
REMARK INTER:                 -10.312
REMARK INTRA:                  -0.500
REMARK UNBOUND:                -0.431
REMARK SMILES N#C/C(=C\c1ccc(O)c(O)c1)C(=O)NCc1ccccc1
REMARK SMILES IDX 1 1 2 2 3 3 4 4 13 5 14 6 15 7 16 9 17 10 18 11 22 12 19 13
REMARK SMILES IDX 21 14 20 15 5 16 6 17 12 18 7 19 10 20 8 21 11 22 9 24
REMARK H PARENT 15 8 11 23 9 25
ROOT
ATOM      1  N   UNL     1      13.732   2.202  31.807  1.00  0.00    -0.192 NA
ATOM      2  C   UNL     1      12.777   2.098  31.155  1.00  0.00     0.105 C 
ATOM      3  C   UNL     1      11.576   1.987  30.404  1.00  0.00     0.117 C 
ATOM      4  C   UNL     1      11.547   2.044  29.057  1.00  0.00     0.033 C 
ENDROOT
BRANCH   3   5
ATOM      5  C   UNL     1      10.267   1.780  31.106  1.00  0.00     0.262 C 
ATOM      6  O   UNL     1      10.076   2.195  32.247  1.00  0.00    -0.268 OA
ATOM      7  N   UNL     1       9.298   1.102  30.407  1.00  0.00    -0.347 N 
ATOM      8  H   UNL     1       9.447   0.763  29.464  1.00  0.00     0.164 HD
BRANCH   7   9
ATOM      9  C   UNL     1       8.002   0.857  30.998  1.00  0.00     0.152 C 
BRANCH   9  10
ATOM     10  C   UNL     1       7.920  -0.545  31.538  1.00  0.00    -0.029 A 
ATOM     11  C   UNL     1       6.841  -0.934  32.345  1.00  0.00     0.005 A 
ATOM     12  C   UNL     1       8.893  -1.496  31.199  1.00  0.00     0.005 A 
ATOM     13  C   UNL     1       6.747  -2.244  32.817  1.00  0.00     0.000 A 
ATOM     14  C   UNL     1       8.797  -2.806  31.673  1.00  0.00     0.000 A 
ATOM     15  C   UNL     1       7.726  -3.178  32.483  1.00  0.00     0.000 A 
ENDBRANCH   9  10
ENDBRANCH   7   9
ENDBRANCH   3   5
BRANCH   4  16
ATOM     16  C   UNL     1      12.711   2.225  28.179  1.00  0.00    -0.020 A 
ATOM     17  C   UNL     1      13.678   1.219  28.023  1.00  0.00     0.012 A 
ATOM     18  C   UNL     1      12.873   3.445  27.512  1.00  0.00     0.058 A 
ATOM     19  C   UNL     1      14.785   1.415  27.188  1.00  0.00     0.051 A 
ATOM     20  C   UNL     1      13.975   3.632  26.689  1.00  0.00     0.157 A 
ATOM     21  C   UNL     1      14.923   2.626  26.522  1.00  0.00     0.157 A 
BRANCH  20  22
ATOM     22  O   UNL     1      14.123   4.821  26.035  1.00  0.00    -0.504 OA
ATOM     23  H   UNL     1      14.969   5.181  26.367  1.00  0.00     0.293 HD
ENDBRANCH  20  22
BRANCH  21  24
ATOM     24  O   UNL     1      15.981   2.880  25.694  1.00  0.00    -0.504 OA
ATOM     25  H   UNL     1      16.345   2.027  25.399  1.00  0.00     0.293 HD
ENDBRANCH  21  24
ENDBRANCH   4  16
TORSDOF 6
ENDMDL
MODEL 8
REMARK VINA RESULT:    -7.929      1.635      2.285
REMARK INTER + INTRA:         -10.678
REMARK INTER:                 -10.194
REMARK INTRA:                  -0.484
REMARK UNBOUND:                -0.431
REMARK SMILES N#C/C(=C\c1ccc(O)c(O)c1)C(=O)NCc1ccccc1
REMARK SMILES IDX 1 1 2 2 3 3 4 4 13 5 14 6 15 7 16 9 17 10 18 11 22 12 19 13
REMARK SMILES IDX 21 14 20 15 5 16 6 17 12 18 7 19 10 20 8 21 11 22 9 24
REMARK H PARENT 15 8 11 23 9 25
ROOT
ATOM      1  N   UNL     1      13.632   2.213  31.763  1.00  0.00    -0.192 NA
ATOM      2  C   UNL     1      12.887   1.729  31.015  1.00  0.00     0.105 C 
ATOM      3  C   UNL     1      11.933   1.144  30.141  1.00  0.00     0.117 C 
ATOM      4  C   UNL     1      12.108   1.077  28.805  1.00  0.00     0.033 C 
ENDROOT
BRANCH   3   5
ATOM      5  C   UNL     1      10.670   0.552  30.693  1.00  0.00     0.262 C 
ATOM      6  O   UNL     1      10.592  -0.639  30.986  1.00  0.00    -0.268 OA
ATOM      7  N   UNL     1       9.609   1.411  30.849  1.00  0.00    -0.347 N 
ATOM      8  H   UNL     1       9.668   2.394  30.614  1.00  0.00     0.164 HD
BRANCH   7   9
ATOM      9  C   UNL     1       8.350   0.934  31.377  1.00  0.00     0.152 C 
BRANCH   9  10
ATOM     10  C   UNL     1       7.573   2.061  32.001  1.00  0.00    -0.029 A 
ATOM     11  C   UNL     1       6.288   1.839  32.515  1.00  0.00     0.005 A 
ATOM     12  C   UNL     1       8.145   3.335  32.125  1.00  0.00     0.005 A 
ATOM     13  C   UNL     1       5.581   2.876  33.125  1.00  0.00     0.000 A 
ATOM     14  C   UNL     1       7.435   4.371  32.736  1.00  0.00     0.000 A 
ATOM     15  C   UNL     1       6.154   4.142  33.233  1.00  0.00     0.000 A 
ENDBRANCH   9  10
ENDBRANCH   7   9
ENDBRANCH   3   5
BRANCH   4  16
ATOM     16  C   UNL     1      13.273   1.580  28.064  1.00  0.00    -0.020 A 
ATOM     17  C   UNL     1      14.473   0.855  28.001  1.00  0.00     0.012 A 
ATOM     18  C   UNL     1      13.189   2.829  27.439  1.00  0.00     0.058 A 
ATOM     19  C   UNL     1      15.575   1.357  27.298  1.00  0.00     0.051 A 
ATOM     20  C   UNL     1      14.288   3.321  26.746  1.00  0.00     0.157 A 
ATOM     21  C   UNL     1      15.471   2.591  26.670  1.00  0.00     0.157 A 
BRANCH  20  22
ATOM     22  O   UNL     1      14.197   4.536  26.131  1.00  0.00    -0.504 OA
ATOM     23  H   UNL     1      14.402   5.184  26.834  1.00  0.00     0.293 HD
ENDBRANCH  20  22
BRANCH  21  24
ATOM     24  O   UNL     1      16.510   3.136  25.969  1.00  0.00    -0.504 OA
ATOM     25  H   UNL     1      16.165   3.880  25.445  1.00  0.00     0.293 HD
ENDBRANCH  21  24
ENDBRANCH   4  16
TORSDOF 6
ENDMDL
MODEL 9
REMARK VINA RESULT:    -7.926      2.702      3.883
REMARK INTER + INTRA:         -10.673
REMARK INTER:                 -10.359
REMARK INTRA:                  -0.314
REMARK UNBOUND:                -0.431
REMARK SMILES N#C/C(=C\c1ccc(O)c(O)c1)C(=O)NCc1ccccc1
REMARK SMILES IDX 1 1 2 2 3 3 4 4 13 5 14 6 15 7 16 9 17 10 18 11 22 12 19 13
REMARK SMILES IDX 21 14 20 15 5 16 6 17 12 18 7 19 10 20 8 21 11 22 9 24
REMARK H PARENT 15 8 11 23 9 25
ROOT
ATOM      1  N   UNL     1      12.431   2.223  25.537  1.00  0.00    -0.192 NA
ATOM      2  C   UNL     1      12.664   1.983  26.649  1.00  0.00     0.105 C 
ATOM      3  C   UNL     1      12.889   1.690  28.021  1.00  0.00     0.117 C 
ATOM      4  C   UNL     1      14.039   1.151  28.474  1.00  0.00     0.033 C 
ENDROOT
BRANCH   3   5
ATOM      5  C   UNL     1      11.830   1.994  29.038  1.00  0.00     0.262 C 
ATOM      6  O   UNL     1      11.141   3.009  28.968  1.00  0.00    -0.268 OA
ATOM      7  N   UNL     1      11.675   1.079  30.052  1.00  0.00    -0.347 N 
ATOM      8  H   UNL     1      12.236   0.238  30.113  1.00  0.00     0.164 HD
BRANCH   7   9
ATOM      9  C   UNL     1      10.679   1.283  31.079  1.00  0.00     0.152 C 
BRANCH   9  10
ATOM     10  C   UNL     1       9.789   0.077  31.205  1.00  0.00    -0.029 A 
ATOM     11  C   UNL     1       8.395   0.210  31.119  1.00  0.00     0.005 A 
ATOM     12  C   UNL     1      10.342  -1.202  31.357  1.00  0.00     0.005 A 
ATOM     13  C   UNL     1       7.571  -0.913  31.202  1.00  0.00     0.000 A 
ATOM     14  C   UNL     1       9.515  -2.324  31.440  1.00  0.00     0.000 A 
ATOM     15  C   UNL     1       8.131  -2.179  31.364  1.00  0.00     0.000 A 
ENDBRANCH   9  10
ENDBRANCH   7   9
ENDBRANCH   3   5
BRANCH   4  16
ATOM     16  C   UNL     1      15.203   0.792  27.653  1.00  0.00    -0.020 A 
ATOM     17  C   UNL     1      15.685  -0.526  27.598  1.00  0.00     0.012 A 
ATOM     18  C   UNL     1      15.865   1.798  26.940  1.00  0.00     0.058 A 
ATOM     19  C   UNL     1      16.802  -0.846  26.816  1.00  0.00     0.051 A 
ATOM     20  C   UNL     1      16.974   1.472  26.171  1.00  0.00     0.157 A 
ATOM     21  C   UNL     1      17.439   0.162  26.103  1.00  0.00     0.157 A 
BRANCH  20  22
ATOM     22  O   UNL     1      17.610   2.457  25.471  1.00  0.00    -0.504 OA
ATOM     23  H   UNL     1      16.905   3.096  25.248  1.00  0.00     0.293 HD
ENDBRANCH  20  22
BRANCH  21  24
ATOM     24  O   UNL     1      18.534  -0.085  25.323  1.00  0.00    -0.504 OA
ATOM     25  H   UNL     1      19.088   0.714  25.317  1.00  0.00     0.293 HD
ENDBRANCH  21  24
ENDBRANCH   4  16
TORSDOF 6
ENDMDL
