MODEL 1
REMARK VINA RESULT:    -8.281      0.000      0.000
REMARK INTER + INTRA:         -17.936
REMARK INTER:                 -13.849
REMARK INTRA:                  -4.088
REMARK UNBOUND:                -4.088
REMARK SMILES Cc1cc(N)nc(C)c1CNC(=O)[C@@H]1CCCN1C(=O)[C@@H](Cc1ccc(Cl)c(Cl)c1)NS(=O)(=O)Cc1ccccc1
REMARK SMILES IDX 14 1 15 2 16 3 17 4 18 5 12 6 11 7 13 8 10 10 9 11 2 12 3 13
REMARK SMILES IDX 4 14 7 15 6 16 1 17 8 18 5 19 19 22 20 23 21 24 22 25 23 26
REMARK SMILES IDX 24 27 30 28 25 29 28 30 26 31 29 32 27 33 31 34 32 36 33 37
REMARK SMILES IDX 34 38 35 39 36 40 37 41 41 42 38 43 40 44 39 45
REMARK H PARENT 11 9 5 20 5 21 31 35
ROOT
ATOM      1  C   UNL     1      -4.992  12.897  23.869  1.00  0.00     0.174 C 
ATOM      2  C   UNL     1      -5.066  13.257  25.354  1.00  0.00     0.037 C 
ATOM      3  C   UNL     1      -5.112  14.781  25.344  1.00  0.00     0.024 C 
ATOM      4  C   UNL     1      -4.187  15.149  24.194  1.00  0.00     0.120 C 
ATOM      5  N   UNL     1      -4.250  14.017  23.281  1.00  0.00    -0.329 N 
ENDROOT
BRANCH   1   6
ATOM      6  C   UNL     1      -6.417  12.698  23.304  1.00  0.00     0.243 C 
ATOM      7  N   UNL     1      -6.660  13.287  22.085  1.00  0.00    -0.350 N 
ATOM      8  O   UNL     1      -7.292  12.151  23.972  1.00  0.00    -0.273 OA
ATOM      9  H   UNL     1      -5.869  13.620  21.538  1.00  0.00     0.163 HD
BRANCH   7  10
ATOM     10  C   UNL     1      -7.968  13.325  21.468  1.00  0.00     0.154 C 
BRANCH  10  11
ATOM     11  C   UNL     1      -8.032  12.496  20.204  1.00  0.00    -0.004 A 
ATOM     12  C   UNL     1      -8.593  11.202  20.191  1.00  0.00    -0.041 A 
ATOM     13  C   UNL     1      -8.636  10.493  18.983  1.00  0.00     0.050 A 
ATOM     14  C   UNL     1      -8.141  11.070  17.827  1.00  0.00     0.123 A 
ATOM     15  C   UNL     1      -7.521  12.980  18.986  1.00  0.00     0.045 A 
ATOM     16  N   UNL     1      -7.579  12.283  17.819  1.00  0.00    -0.236 NA
ATOM     17  C   UNL     1      -9.125  10.530  21.428  1.00  0.00     0.045 C 
ATOM     18  C   UNL     1      -6.875  14.329  18.862  1.00  0.00     0.067 C 
BRANCH  14  19
ATOM     19  N   UNL     1      -8.145  10.383  16.632  1.00  0.00    -0.384 N 
ATOM     20  H   UNL     1      -7.295  10.524  16.103  1.00  0.00     0.158 HD
ATOM     21  H   UNL     1      -9.012  10.324  16.121  1.00  0.00     0.158 HD
ENDBRANCH  14  19
ENDBRANCH  10  11
ENDBRANCH   7  10
ENDBRANCH   1   6
BRANCH   5  22
ATOM     22  C   UNL     1      -3.625  13.878  22.063  1.00  0.00     0.241 C 
ATOM     23  O   UNL     1      -3.333  14.855  21.368  1.00  0.00    -0.273 OA
BRANCH  22  24
ATOM     24  C   UNL     1      -3.257  12.464  21.577  1.00  0.00     0.163 C 
BRANCH  24  25
ATOM     25  C   UNL     1      -3.781  12.258  20.146  1.00  0.00     0.065 C 
BRANCH  25  26
ATOM     26  C   UNL     1      -4.440  10.912  19.952  1.00  0.00    -0.044 A 
ATOM     27  C   UNL     1      -5.046  10.255  21.028  1.00  0.00     0.005 A 
ATOM     28  C   UNL     1      -4.483  10.320  18.680  1.00  0.00     0.025 A 
ATOM     29  C   UNL     1      -5.687   9.028  20.836  1.00  0.00     0.022 A 
ATOM     30  C   UNL     1      -5.128   9.094  18.484  1.00  0.00     0.059 A 
ATOM     31  C   UNL     1      -5.732   8.447  19.566  1.00  0.00     0.059 A 
ATOM     32  Cl  UNL     1      -5.154   8.445  16.884  1.00  0.00    -0.083 Cl
ATOM     33  Cl  UNL     1      -6.554   6.936  19.404  1.00  0.00    -0.083 Cl
ENDBRANCH  25  26
ENDBRANCH  24  25
BRANCH  24  34
ATOM     34  N   UNL     1      -1.761  12.392  21.544  1.00  0.00    -0.202 NA
ATOM     35  H   UNL     1      -1.327  13.288  21.806  1.00  0.00     0.141 HD
BRANCH  34  36
ATOM     36  S   UNL     1      -1.043  11.163  22.462  1.00  0.00     0.216 S 
ATOM     37  O   UNL     1      -2.000  10.081  22.453  1.00  0.00    -0.212 OA
ATOM     38  O   UNL     1       0.306  10.994  21.964  1.00  0.00    -0.212 OA
BRANCH  36  39
ATOM     39  C   UNL     1      -1.017  11.924  24.093  1.00  0.00     0.189 C 
BRANCH  39  40
ATOM     40  C   UNL     1      -1.204  10.851  25.134  1.00  0.00    -0.032 A 
ATOM     41  C   UNL     1      -2.369  10.810  25.913  1.00  0.00     0.005 A 
ATOM     42  C   UNL     1      -0.207   9.890  25.351  1.00  0.00     0.005 A 
ATOM     43  C   UNL     1      -2.532   9.825  26.888  1.00  0.00     0.000 A 
ATOM     44  C   UNL     1      -0.374   8.906  26.327  1.00  0.00     0.000 A 
ATOM     45  C   UNL     1      -1.536   8.874  27.094  1.00  0.00     0.000 A 
ENDBRANCH  39  40
ENDBRANCH  36  39
ENDBRANCH  34  36
ENDBRANCH  24  34
ENDBRANCH  22  24
ENDBRANCH   5  22
TORSDOF 12
ENDMDL
MODEL 2
REMARK VINA RESULT:    -8.181      3.359      7.651
REMARK INTER + INTRA:         -17.769
REMARK INTER:                 -15.885
REMARK INTRA:                  -1.884
REMARK UNBOUND:                -4.088
REMARK SMILES Cc1cc(N)nc(C)c1CNC(=O)[C@@H]1CCCN1C(=O)[C@@H](Cc1ccc(Cl)c(Cl)c1)NS(=O)(=O)Cc1ccccc1
REMARK SMILES IDX 14 1 15 2 16 3 17 4 18 5 12 6 11 7 13 8 10 10 9 11 2 12 3 13
REMARK SMILES IDX 4 14 7 15 6 16 1 17 8 18 5 19 19 22 20 23 21 24 22 25 23 26
REMARK SMILES IDX 24 27 30 28 25 29 28 30 26 31 29 32 27 33 31 34 32 36 33 37
REMARK SMILES IDX 34 38 35 39 36 40 37 41 41 42 38 43 40 44 39 45
REMARK H PARENT 11 9 5 20 5 21 31 35
ROOT
ATOM      1  C   UNL     1      -2.565  11.160  22.432  1.00  0.00     0.174 C 
ATOM      2  C   UNL     1      -1.451  10.387  21.724  1.00  0.00     0.037 C 
ATOM      3  C   UNL     1      -0.549  11.490  21.181  1.00  0.00     0.024 C 
ATOM      4  C   UNL     1      -1.533  12.574  20.769  1.00  0.00     0.120 C 
ATOM      5  N   UNL     1      -2.683  12.392  21.644  1.00  0.00    -0.329 N 
ENDROOT
BRANCH   1   6
ATOM      6  C   UNL     1      -2.194  11.378  23.916  1.00  0.00     0.243 C 
ATOM      7  N   UNL     1      -2.499  10.338  24.764  1.00  0.00    -0.350 N 
ATOM      8  O   UNL     1      -1.767  12.462  24.310  1.00  0.00    -0.273 OA
ATOM      9  H   UNL     1      -2.738   9.436  24.360  1.00  0.00     0.163 HD
BRANCH   7  10
ATOM     10  C   UNL     1      -2.351  10.416  26.200  1.00  0.00     0.154 C 
BRANCH  10  11
ATOM     11  C   UNL     1      -1.830   9.126  26.796  1.00  0.00    -0.004 A 
ATOM     12  C   UNL     1      -2.502   8.468  27.847  1.00  0.00    -0.041 A 
ATOM     13  C   UNL     1      -1.975   7.267  28.343  1.00  0.00     0.050 A 
ATOM     14  C   UNL     1      -0.819   6.744  27.794  1.00  0.00     0.123 A 
ATOM     15  C   UNL     1      -0.642   8.534  26.331  1.00  0.00     0.045 A 
ATOM     16  N   UNL     1      -0.148   7.363  26.817  1.00  0.00    -0.236 NA
ATOM     17  C   UNL     1      -3.751   9.012  28.486  1.00  0.00     0.045 C 
ATOM     18  C   UNL     1       0.185   9.139  25.235  1.00  0.00     0.067 C 
BRANCH  14  19
ATOM     19  N   UNL     1      -0.264   5.580  28.283  1.00  0.00    -0.384 N 
ATOM     20  H   UNL     1      -0.234   5.562  29.293  1.00  0.00     0.158 HD
ATOM     21  H   UNL     1       0.514   5.178  27.783  1.00  0.00     0.158 HD
ENDBRANCH  14  19
ENDBRANCH  10  11
ENDBRANCH   7  10
ENDBRANCH   1   6
BRANCH   5  22
ATOM     22  C   UNL     1      -3.829  13.151  21.701  1.00  0.00     0.241 C 
ATOM     23  O   UNL     1      -3.803  14.343  22.017  1.00  0.00    -0.273 OA
BRANCH  22  24
ATOM     24  C   UNL     1      -5.172  12.493  21.332  1.00  0.00     0.163 C 
BRANCH  24  25
ATOM     25  C   UNL     1      -6.326  13.284  21.970  1.00  0.00     0.065 C 
BRANCH  25  26
ATOM     26  C   UNL     1      -7.605  12.485  22.058  1.00  0.00    -0.044 A 
ATOM     27  C   UNL     1      -7.571  11.086  22.056  1.00  0.00     0.005 A 
ATOM     28  C   UNL     1      -8.843  13.137  22.179  1.00  0.00     0.025 A 
ATOM     29  C   UNL     1      -8.753  10.351  22.176  1.00  0.00     0.022 A 
ATOM     30  C   UNL     1     -10.027  12.403  22.304  1.00  0.00     0.059 A 
ATOM     31  C   UNL     1      -9.982  11.006  22.302  1.00  0.00     0.059 A 
ATOM     32  Cl  UNL     1     -11.504  13.282  22.470  1.00  0.00    -0.083 Cl
ATOM     33  Cl  UNL     1     -11.399  10.031  22.460  1.00  0.00    -0.083 Cl
ENDBRANCH  25  26
ENDBRANCH  24  25
BRANCH  24  34
ATOM     34  N   UNL     1      -5.305  12.585  19.843  1.00  0.00    -0.202 NA
ATOM     35  H   UNL     1      -4.731  13.345  19.452  1.00  0.00     0.141 HD
BRANCH  34  36
ATOM     36  S   UNL     1      -4.988  11.172  18.966  1.00  0.00     0.216 S 
ATOM     37  O   UNL     1      -6.117  11.021  18.078  1.00  0.00    -0.212 OA
ATOM     38  O   UNL     1      -3.633  11.277  18.467  1.00  0.00    -0.212 OA
BRANCH  36  39
ATOM     39  C   UNL     1      -5.081   9.933  20.268  1.00  0.00     0.189 C 
BRANCH  39  40
ATOM     40  C   UNL     1      -5.458   8.610  19.655  1.00  0.00    -0.032 A 
ATOM     41  C   UNL     1      -6.742   8.079  19.842  1.00  0.00     0.005 A 
ATOM     42  C   UNL     1      -4.524   7.881  18.905  1.00  0.00     0.005 A 
ATOM     43  C   UNL     1      -7.085   6.845  19.287  1.00  0.00     0.000 A 
ATOM     44  C   UNL     1      -4.870   6.648  18.351  1.00  0.00     0.000 A 
ATOM     45  C   UNL     1      -6.150   6.131  18.542  1.00  0.00     0.000 A 
ENDBRANCH  39  40
ENDBRANCH  36  39
ENDBRANCH  34  36
ENDBRANCH  24  34
ENDBRANCH  22  24
ENDBRANCH   5  22
TORSDOF 12
ENDMDL
MODEL 3
REMARK VINA RESULT:    -8.111      3.456      7.764
REMARK INTER + INTRA:         -17.651
REMARK INTER:                 -15.917
REMARK INTRA:                  -1.734
REMARK UNBOUND:                -4.088
REMARK SMILES Cc1cc(N)nc(C)c1CNC(=O)[C@@H]1CCCN1C(=O)[C@@H](Cc1ccc(Cl)c(Cl)c1)NS(=O)(=O)Cc1ccccc1
REMARK SMILES IDX 14 1 15 2 16 3 17 4 18 5 12 6 11 7 13 8 10 10 9 11 2 12 3 13
REMARK SMILES IDX 4 14 7 15 6 16 1 17 8 18 5 19 19 22 20 23 21 24 22 25 23 26
REMARK SMILES IDX 24 27 30 28 25 29 28 30 26 31 29 32 27 33 31 34 32 36 33 37
REMARK SMILES IDX 34 38 35 39 36 40 37 41 41 42 38 43 40 44 39 45
REMARK H PARENT 11 9 5 20 5 21 31 35
ROOT
ATOM      1  C   UNL     1      -2.648  11.170  22.428  1.00  0.00     0.174 C 
ATOM      2  C   UNL     1      -1.540  10.359  21.753  1.00  0.00     0.037 C 
ATOM      3  C   UNL     1      -0.604  11.430  21.206  1.00  0.00     0.024 C 
ATOM      4  C   UNL     1      -1.556  12.528  20.758  1.00  0.00     0.120 C 
ATOM      5  N   UNL     1      -2.724  12.389  21.616  1.00  0.00    -0.329 N 
ENDROOT
BRANCH   1   6
ATOM      6  C   UNL     1      -2.296  11.406  23.915  1.00  0.00     0.243 C 
ATOM      7  N   UNL     1      -2.542  10.348  24.760  1.00  0.00    -0.350 N 
ATOM      8  O   UNL     1      -1.936  12.513  24.312  1.00  0.00    -0.273 OA
ATOM      9  H   UNL     1      -2.726   9.434  24.353  1.00  0.00     0.163 HD
BRANCH   7  10
ATOM     10  C   UNL     1      -2.405  10.432  26.196  1.00  0.00     0.154 C 
BRANCH  10  11
ATOM     11  C   UNL     1      -1.851   9.158  26.797  1.00  0.00    -0.004 A 
ATOM     12  C   UNL     1      -0.648   8.581  26.337  1.00  0.00    -0.041 A 
ATOM     13  C   UNL     1      -0.181   7.408  26.947  1.00  0.00     0.050 A 
ATOM     14  C   UNL     1      -0.894   6.843  27.988  1.00  0.00     0.123 A 
ATOM     15  C   UNL     1      -2.522   8.486  27.835  1.00  0.00     0.045 A 
ATOM     16  N   UNL     1      -2.050   7.354  28.423  1.00  0.00    -0.236 NA
ATOM     17  C   UNL     1       0.148   9.153  25.196  1.00  0.00     0.045 C 
ATOM     18  C   UNL     1      -3.823   8.976  28.402  1.00  0.00     0.067 C 
BRANCH  14  19
ATOM     19  N   UNL     1      -0.472   5.674  28.585  1.00  0.00    -0.384 N 
ATOM     20  H   UNL     1      -1.028   4.876  28.308  1.00  0.00     0.158 HD
ATOM     21  H   UNL     1      -0.157   5.717  29.542  1.00  0.00     0.158 HD
ENDBRANCH  14  19
ENDBRANCH  10  11
ENDBRANCH   7  10
ENDBRANCH   1   6
BRANCH   5  22
ATOM     22  C   UNL     1      -3.853  13.175  21.640  1.00  0.00     0.241 C 
ATOM     23  O   UNL     1      -3.798  14.384  21.882  1.00  0.00    -0.273 OA
BRANCH  22  24
ATOM     24  C   UNL     1      -5.214  12.525  21.329  1.00  0.00     0.163 C 
BRANCH  24  25
ATOM     25  C   UNL     1      -6.338  13.342  21.988  1.00  0.00     0.065 C 
BRANCH  25  26
ATOM     26  C   UNL     1      -7.618  12.554  22.147  1.00  0.00    -0.044 A 
ATOM     27  C   UNL     1      -7.648  11.182  21.872  1.00  0.00     0.005 A 
ATOM     28  C   UNL     1      -8.785  13.183  22.608  1.00  0.00     0.025 A 
ATOM     29  C   UNL     1      -8.824  10.451  22.057  1.00  0.00     0.022 A 
ATOM     30  C   UNL     1      -9.963  12.451  22.799  1.00  0.00     0.059 A 
ATOM     31  C   UNL     1      -9.982  11.081  22.522  1.00  0.00     0.059 A 
ATOM     32  Cl  UNL     1     -11.348  13.296  23.389  1.00  0.00    -0.083 Cl
ATOM     33  Cl  UNL     1     -11.393  10.109  22.739  1.00  0.00    -0.083 Cl
ENDBRANCH  25  26
ENDBRANCH  24  25
BRANCH  24  34
ATOM     34  N   UNL     1      -5.396  12.589  19.844  1.00  0.00    -0.202 NA
ATOM     35  H   UNL     1      -4.867  13.367  19.425  1.00  0.00     0.141 HD
BRANCH  34  36
ATOM     36  S   UNL     1      -5.043  11.178  18.977  1.00  0.00     0.216 S 
ATOM     37  O   UNL     1      -6.149  11.014  18.062  1.00  0.00    -0.212 OA
ATOM     38  O   UNL     1      -3.677  11.297  18.511  1.00  0.00    -0.212 OA
BRANCH  36  39
ATOM     39  C   UNL     1      -5.155   9.939  20.278  1.00  0.00     0.189 C 
BRANCH  39  40
ATOM     40  C   UNL     1      -5.489   8.609  19.656  1.00  0.00    -0.032 A 
ATOM     41  C   UNL     1      -6.759   8.041  19.829  1.00  0.00     0.005 A 
ATOM     42  C   UNL     1      -4.528   7.910  18.912  1.00  0.00     0.005 A 
ATOM     43  C   UNL     1      -7.062   6.801  19.267  1.00  0.00     0.000 A 
ATOM     44  C   UNL     1      -4.834   6.670  18.350  1.00  0.00     0.000 A 
ATOM     45  C   UNL     1      -6.100   6.116  18.528  1.00  0.00     0.000 A 
ENDBRANCH  39  40
ENDBRANCH  36  39
ENDBRANCH  34  36
ENDBRANCH  24  34
ENDBRANCH  22  24
ENDBRANCH   5  22
TORSDOF 12
ENDMDL
MODEL 4
REMARK VINA RESULT:    -8.035      3.030      7.383
REMARK INTER + INTRA:         -17.524
REMARK INTER:                 -15.395
REMARK INTRA:                  -2.129
REMARK UNBOUND:                -4.088
REMARK SMILES Cc1cc(N)nc(C)c1CNC(=O)[C@@H]1CCCN1C(=O)[C@@H](Cc1ccc(Cl)c(Cl)c1)NS(=O)(=O)Cc1ccccc1
REMARK SMILES IDX 14 1 15 2 16 3 17 4 18 5 12 6 11 7 13 8 10 10 9 11 2 12 3 13
REMARK SMILES IDX 4 14 7 15 6 16 1 17 8 18 5 19 19 22 20 23 21 24 22 25 23 26
REMARK SMILES IDX 24 27 30 28 25 29 28 30 26 31 29 32 27 33 31 34 32 36 33 37
REMARK SMILES IDX 34 38 35 39 36 40 37 41 41 42 38 43 40 44 39 45
REMARK H PARENT 11 9 5 20 5 21 31 35
ROOT
ATOM      1  C   UNL     1      -1.568  11.792  21.156  1.00  0.00     0.174 C 
ATOM      2  C   UNL     1      -0.760  11.906  19.862  1.00  0.00     0.037 C 
ATOM      3  C   UNL     1      -0.637  13.412  19.656  1.00  0.00     0.024 C 
ATOM      4  C   UNL     1      -1.982  13.939  20.133  1.00  0.00     0.120 C 
ATOM      5  N   UNL     1      -2.436  12.973  21.124  1.00  0.00    -0.329 N 
ENDROOT
BRANCH   1   6
ATOM      6  C   UNL     1      -0.612  11.727  22.370  1.00  0.00     0.243 C 
ATOM      7  N   UNL     1      -0.986  10.868  23.376  1.00  0.00    -0.350 N 
ATOM      8  O   UNL     1       0.348  12.491  22.461  1.00  0.00    -0.273 OA
ATOM      9  H   UNL     1      -1.718  10.187  23.187  1.00  0.00     0.163 HD
BRANCH   7  10
ATOM     10  C   UNL     1      -0.292  10.777  24.642  1.00  0.00     0.154 C 
BRANCH  10  11
ATOM     11  C   UNL     1      -1.138  10.130  25.717  1.00  0.00    -0.004 A 
ATOM     12  C   UNL     1      -0.781   8.896  26.300  1.00  0.00    -0.041 A 
ATOM     13  C   UNL     1      -1.600   8.358  27.303  1.00  0.00     0.050 A 
ATOM     14  C   UNL     1      -2.731   9.041  27.710  1.00  0.00     0.123 A 
ATOM     15  C   UNL     1      -2.327  10.729  26.171  1.00  0.00     0.045 A 
ATOM     16  N   UNL     1      -3.106  10.197  27.152  1.00  0.00    -0.236 NA
ATOM     17  C   UNL     1       0.430   8.111  25.875  1.00  0.00     0.045 C 
ATOM     18  C   UNL     1      -2.837  12.028  25.620  1.00  0.00     0.067 C 
BRANCH  14  19
ATOM     19  N   UNL     1      -3.568   8.520  28.673  1.00  0.00    -0.384 N 
ATOM     20  H   UNL     1      -3.561   9.064  29.526  1.00  0.00     0.158 HD
ATOM     21  H   UNL     1      -3.630   7.517  28.756  1.00  0.00     0.158 HD
ENDBRANCH  14  19
ENDBRANCH  10  11
ENDBRANCH   7  10
ENDBRANCH   1   6
BRANCH   5  22
ATOM     22  C   UNL     1      -3.582  13.019  21.884  1.00  0.00     0.241 C 
ATOM     23  O   UNL     1      -3.747  13.874  22.759  1.00  0.00    -0.273 OA
BRANCH  22  24
ATOM     24  C   UNL     1      -4.694  11.990  21.610  1.00  0.00     0.163 C 
BRANCH  24  25
ATOM     25  C   UNL     1      -5.861  12.220  22.584  1.00  0.00     0.065 C 
BRANCH  25  26
ATOM     26  C   UNL     1      -7.211  11.985  21.946  1.00  0.00    -0.044 A 
ATOM     27  C   UNL     1      -7.765  10.701  21.906  1.00  0.00     0.005 A 
ATOM     28  C   UNL     1      -7.942  13.061  21.418  1.00  0.00     0.025 A 
ATOM     29  C   UNL     1      -9.030  10.496  21.349  1.00  0.00     0.022 A 
ATOM     30  C   UNL     1      -9.211  12.858  20.864  1.00  0.00     0.059 A 
ATOM     31  C   UNL     1      -9.756  11.572  20.829  1.00  0.00     0.059 A 
ATOM     32  Cl  UNL     1     -10.052  14.238  20.255  1.00  0.00    -0.083 Cl
ATOM     33  Cl  UNL     1     -11.318  11.242  20.170  1.00  0.00    -0.083 Cl
ENDBRANCH  25  26
ENDBRANCH  24  25
BRANCH  24  34
ATOM     34  N   UNL     1      -5.186  12.244  20.218  1.00  0.00    -0.202 NA
ATOM     35  H   UNL     1      -4.780  13.101  19.817  1.00  0.00     0.141 HD
BRANCH  34  36
ATOM     36  S   UNL     1      -4.985  10.986  19.103  1.00  0.00     0.216 S 
ATOM     37  O   UNL     1      -6.254  10.887  18.418  1.00  0.00    -0.212 OA
ATOM     38  O   UNL     1      -3.751  11.243  18.391  1.00  0.00    -0.212 OA
BRANCH  36  39
ATOM     39  C   UNL     1      -4.790   9.578  20.207  1.00  0.00     0.189 C 
BRANCH  39  40
ATOM     40  C   UNL     1      -5.326   8.347  19.524  1.00  0.00    -0.032 A 
ATOM     41  C   UNL     1      -6.564   7.807  19.899  1.00  0.00     0.005 A 
ATOM     42  C   UNL     1      -4.585   7.712  18.517  1.00  0.00     0.005 A 
ATOM     43  C   UNL     1      -7.051   6.657  19.278  1.00  0.00     0.000 A 
ATOM     44  C   UNL     1      -5.075   6.562  17.897  1.00  0.00     0.000 A 
ATOM     45  C   UNL     1      -6.308   6.035  18.278  1.00  0.00     0.000 A 
ENDBRANCH  39  40
ENDBRANCH  36  39
ENDBRANCH  34  36
ENDBRANCH  24  34
ENDBRANCH  22  24
ENDBRANCH   5  22
TORSDOF 12
ENDMDL
MODEL 5
REMARK VINA RESULT:    -7.739      1.629      2.252
REMARK INTER + INTRA:         -17.029
REMARK INTER:                 -13.450
REMARK INTRA:                  -3.579
REMARK UNBOUND:                -4.088
REMARK SMILES Cc1cc(N)nc(C)c1CNC(=O)[C@@H]1CCCN1C(=O)[C@@H](Cc1ccc(Cl)c(Cl)c1)NS(=O)(=O)Cc1ccccc1
REMARK SMILES IDX 14 1 15 2 16 3 17 4 18 5 12 6 11 7 13 8 10 10 9 11 2 12 3 13
REMARK SMILES IDX 4 14 7 15 6 16 1 17 8 18 5 19 19 22 20 23 21 24 22 25 23 26
REMARK SMILES IDX 24 27 30 28 25 29 28 30 26 31 29 32 27 33 31 34 32 36 33 37
REMARK SMILES IDX 34 38 35 39 36 40 37 41 41 42 38 43 40 44 39 45
REMARK H PARENT 11 9 5 20 5 21 31 35
ROOT
ATOM      1  C   UNL     1      -6.504  13.209  22.197  1.00  0.00     0.174 C 
ATOM      2  C   UNL     1      -7.309  13.849  23.328  1.00  0.00     0.037 C 
ATOM      3  C   UNL     1      -7.030  15.339  23.159  1.00  0.00     0.024 C 
ATOM      4  C   UNL     1      -5.573  15.372  22.725  1.00  0.00     0.120 C 
ATOM      5  N   UNL     1      -5.351  14.103  22.046  1.00  0.00    -0.329 N 
ENDROOT
BRANCH   1   6
ATOM      6  C   UNL     1      -7.385  13.074  20.934  1.00  0.00     0.243 C 
ATOM      7  N   UNL     1      -6.720  13.153  19.733  1.00  0.00    -0.350 N 
ATOM      8  O   UNL     1      -8.611  13.023  21.021  1.00  0.00    -0.273 OA
ATOM      9  H   UNL     1      -5.705  13.078  19.733  1.00  0.00     0.163 HD
BRANCH   7  10
ATOM     10  C   UNL     1      -7.392  13.187  18.453  1.00  0.00     0.154 C 
BRANCH  10  11
ATOM     11  C   UNL     1      -7.022  12.010  17.577  1.00  0.00    -0.004 A 
ATOM     12  C   UNL     1      -7.780  10.821  17.571  1.00  0.00    -0.041 A 
ATOM     13  C   UNL     1      -7.393   9.773  16.724  1.00  0.00     0.050 A 
ATOM     14  C   UNL     1      -6.287   9.921  15.906  1.00  0.00     0.123 A 
ATOM     15  C   UNL     1      -5.893  12.049  16.738  1.00  0.00     0.045 A 
ATOM     16  N   UNL     1      -5.535  11.027  15.915  1.00  0.00    -0.236 NA
ATOM     17  C   UNL     1      -8.978  10.611  18.457  1.00  0.00     0.045 C 
ATOM     18  C   UNL     1      -4.985  13.242  16.665  1.00  0.00     0.067 C 
BRANCH  14  19
ATOM     19  N   UNL     1      -5.868   8.896  15.086  1.00  0.00    -0.384 N 
ATOM     20  H   UNL     1      -5.006   8.474  15.405  1.00  0.00     0.158 HD
ATOM     21  H   UNL     1      -6.000   8.999  14.092  1.00  0.00     0.158 HD
ENDBRANCH  14  19
ENDBRANCH  10  11
ENDBRANCH   7  10
ENDBRANCH   1   6
BRANCH   5  22
ATOM     22  C   UNL     1      -4.202  13.665  21.430  1.00  0.00     0.241 C 
ATOM     23  O   UNL     1      -3.482  14.428  20.780  1.00  0.00    -0.273 OA
BRANCH  22  24
ATOM     24  C   UNL     1      -3.797  12.187  21.584  1.00  0.00     0.163 C 
BRANCH  24  25
ATOM     25  C   UNL     1      -3.567  11.568  20.195  1.00  0.00     0.065 C 
BRANCH  25  26
ATOM     26  C   UNL     1      -4.414  10.340  19.955  1.00  0.00    -0.044 A 
ATOM     27  C   UNL     1      -4.078   9.430  18.946  1.00  0.00     0.005 A 
ATOM     28  C   UNL     1      -5.530  10.077  20.766  1.00  0.00     0.025 A 
ATOM     29  C   UNL     1      -4.842   8.277  18.752  1.00  0.00     0.022 A 
ATOM     30  C   UNL     1      -6.293   8.920  20.577  1.00  0.00     0.059 A 
ATOM     31  C   UNL     1      -5.948   8.017  19.567  1.00  0.00     0.059 A 
ATOM     32  Cl  UNL     1      -7.636   8.661  21.631  1.00  0.00    -0.083 Cl
ATOM     33  Cl  UNL     1      -6.836   6.565  19.276  1.00  0.00    -0.083 Cl
ENDBRANCH  25  26
ENDBRANCH  24  25
BRANCH  24  34
ATOM     34  N   UNL     1      -2.497  12.169  22.328  1.00  0.00    -0.202 NA
ATOM     35  H   UNL     1      -2.465  12.888  23.063  1.00  0.00     0.141 HD
BRANCH  34  36
ATOM     36  S   UNL     1      -2.035  10.689  23.008  1.00  0.00     0.216 S 
ATOM     37  O   UNL     1      -3.273  10.051  23.393  1.00  0.00    -0.212 OA
ATOM     38  O   UNL     1      -1.111  10.067  22.084  1.00  0.00    -0.212 OA
BRANCH  36  39
ATOM     39  C   UNL     1      -1.166  11.245  24.483  1.00  0.00     0.189 C 
BRANCH  39  40
ATOM     40  C   UNL     1      -1.318  10.203  25.560  1.00  0.00    -0.032 A 
ATOM     41  C   UNL     1      -2.363  10.286  26.490  1.00  0.00     0.005 A 
ATOM     42  C   UNL     1      -0.403   9.145  25.658  1.00  0.00     0.005 A 
ATOM     43  C   UNL     1      -2.491   9.329  27.497  1.00  0.00     0.000 A 
ATOM     44  C   UNL     1      -0.535   8.189  26.666  1.00  0.00     0.000 A 
ATOM     45  C   UNL     1      -1.578   8.281  27.585  1.00  0.00     0.000 A 
ENDBRANCH  39  40
ENDBRANCH  36  39
ENDBRANCH  34  36
ENDBRANCH  24  34
ENDBRANCH  22  24
ENDBRANCH   5  22
TORSDOF 12
ENDMDL
MODEL 6
REMARK VINA RESULT:    -7.695      2.150      2.986
REMARK INTER + INTRA:         -16.955
REMARK INTER:                 -14.776
REMARK INTRA:                  -2.179
REMARK UNBOUND:                -4.088
REMARK SMILES Cc1cc(N)nc(C)c1CNC(=O)[C@@H]1CCCN1C(=O)[C@@H](Cc1ccc(Cl)c(Cl)c1)NS(=O)(=O)Cc1ccccc1
REMARK SMILES IDX 14 1 15 2 16 3 17 4 18 5 12 6 11 7 13 8 10 10 9 11 2 12 3 13
REMARK SMILES IDX 4 14 7 15 6 16 1 17 8 18 5 19 19 22 20 23 21 24 22 25 23 26
REMARK SMILES IDX 24 27 30 28 25 29 28 30 26 31 29 32 27 33 31 34 32 36 33 37
REMARK SMILES IDX 34 38 35 39 36 40 37 41 41 42 38 43 40 44 39 45
REMARK H PARENT 11 9 5 20 5 21 31 35
ROOT
ATOM      1  C   UNL     1      -5.985  13.272  24.022  1.00  0.00     0.174 C 
ATOM      2  C   UNL     1      -5.572  13.815  25.392  1.00  0.00     0.037 C 
ATOM      3  C   UNL     1      -5.144  15.247  25.087  1.00  0.00     0.024 C 
ATOM      4  C   UNL     1      -4.468  15.126  23.730  1.00  0.00     0.120 C 
ATOM      5  N   UNL     1      -5.105  13.984  23.090  1.00  0.00    -0.329 N 
ENDROOT
BRANCH   1   6
ATOM      6  C   UNL     1      -7.495  13.513  23.795  1.00  0.00     0.243 C 
ATOM      7  N   UNL     1      -7.912  13.483  22.485  1.00  0.00    -0.350 N 
ATOM      8  O   UNL     1      -8.233  13.830  24.728  1.00  0.00    -0.273 OA
ATOM      9  H   UNL     1      -7.281  13.103  21.783  1.00  0.00     0.163 HD
BRANCH   7  10
ATOM     10  C   UNL     1      -9.255  13.821  22.071  1.00  0.00     0.154 C 
BRANCH  10  11
ATOM     11  C   UNL     1     -10.250  12.727  22.394  1.00  0.00    -0.004 A 
ATOM     12  C   UNL     1     -10.164  11.447  21.808  1.00  0.00    -0.041 A 
ATOM     13  C   UNL     1     -11.107  10.472  22.162  1.00  0.00     0.050 A 
ATOM     14  C   UNL     1     -12.096  10.774  23.081  1.00  0.00     0.123 A 
ATOM     15  C   UNL     1     -11.314  12.947  23.288  1.00  0.00     0.045 A 
ATOM     16  N   UNL     1     -12.216  11.987  23.629  1.00  0.00    -0.236 NA
ATOM     17  C   UNL     1      -9.116  11.083  20.791  1.00  0.00     0.045 C 
ATOM     18  C   UNL     1     -11.538  14.267  23.964  1.00  0.00     0.067 C 
BRANCH  14  19
ATOM     19  N   UNL     1     -13.053   9.843  23.425  1.00  0.00    -0.384 N 
ATOM     20  H   UNL     1     -13.051   9.635  24.415  1.00  0.00     0.158 HD
ATOM     21  H   UNL     1     -13.228   9.083  22.786  1.00  0.00     0.158 HD
ENDBRANCH  14  19
ENDBRANCH  10  11
ENDBRANCH   7  10
ENDBRANCH   1   6
BRANCH   5  22
ATOM     22  C   UNL     1      -4.878  13.488  21.827  1.00  0.00     0.241 C 
ATOM     23  O   UNL     1      -5.188  14.122  20.815  1.00  0.00    -0.273 OA
BRANCH  22  24
ATOM     24  C   UNL     1      -4.192  12.117  21.683  1.00  0.00     0.163 C 
BRANCH  24  25
ATOM     25  C   UNL     1      -4.124  11.728  20.196  1.00  0.00     0.065 C 
BRANCH  25  26
ATOM     26  C   UNL     1      -4.783  10.399  19.908  1.00  0.00    -0.044 A 
ATOM     27  C   UNL     1      -4.376   9.625  18.816  1.00  0.00     0.005 A 
ATOM     28  C   UNL     1      -5.789   9.908  20.755  1.00  0.00     0.025 A 
ATOM     29  C   UNL     1      -4.962   8.380  18.576  1.00  0.00     0.022 A 
ATOM     30  C   UNL     1      -6.374   8.659  20.519  1.00  0.00     0.059 A 
ATOM     31  C   UNL     1      -5.959   7.893  19.426  1.00  0.00     0.059 A 
ATOM     32  Cl  UNL     1      -7.589   8.119  21.621  1.00  0.00    -0.083 Cl
ATOM     33  Cl  UNL     1      -6.626   6.339  19.073  1.00  0.00    -0.083 Cl
ENDBRANCH  25  26
ENDBRANCH  24  25
BRANCH  24  34
ATOM     34  N   UNL     1      -2.792  12.277  22.191  1.00  0.00    -0.202 NA
ATOM     35  H   UNL     1      -2.707  13.070  22.840  1.00  0.00     0.141 HD
BRANCH  34  36
ATOM     36  S   UNL     1      -2.091  10.917  22.916  1.00  0.00     0.216 S 
ATOM     37  O   UNL     1      -3.184   9.992  23.113  1.00  0.00    -0.212 OA
ATOM     38  O   UNL     1      -0.928  10.567  22.128  1.00  0.00    -0.212 OA
BRANCH  36  39
ATOM     39  C   UNL     1      -1.589  11.596  24.506  1.00  0.00     0.189 C 
BRANCH  39  40
ATOM     40  C   UNL     1      -1.552  10.483  25.520  1.00  0.00    -0.032 A 
ATOM     41  C   UNL     1      -2.534  10.395  26.517  1.00  0.00     0.005 A 
ATOM     42  C   UNL     1      -0.523   9.531  25.494  1.00  0.00     0.005 A 
ATOM     43  C   UNL     1      -2.488   9.373  27.466  1.00  0.00     0.000 A 
ATOM     44  C   UNL     1      -0.480   8.510  26.445  1.00  0.00     0.000 A 
ATOM     45  C   UNL     1      -1.463   8.432  27.430  1.00  0.00     0.000 A 
ENDBRANCH  39  40
ENDBRANCH  36  39
ENDBRANCH  34  36
ENDBRANCH  24  34
ENDBRANCH  22  24
ENDBRANCH   5  22
TORSDOF 12
ENDMDL
MODEL 7
REMARK VINA RESULT:    -7.485      2.933      6.489
REMARK INTER + INTRA:         -16.605
REMARK INTER:                 -13.286
REMARK INTRA:                  -3.319
REMARK UNBOUND:                -4.088
REMARK SMILES Cc1cc(N)nc(C)c1CNC(=O)[C@@H]1CCCN1C(=O)[C@@H](Cc1ccc(Cl)c(Cl)c1)NS(=O)(=O)Cc1ccccc1
REMARK SMILES IDX 14 1 15 2 16 3 17 4 18 5 12 6 11 7 13 8 10 10 9 11 2 12 3 13
REMARK SMILES IDX 4 14 7 15 6 16 1 17 8 18 5 19 19 22 20 23 21 24 22 25 23 26
REMARK SMILES IDX 24 27 30 28 25 29 28 30 26 31 29 32 27 33 31 34 32 36 33 37
REMARK SMILES IDX 34 38 35 39 36 40 37 41 41 42 38 43 40 44 39 45
REMARK H PARENT 11 9 5 20 5 21 31 35
ROOT
ATOM      1  C   UNL     1      -3.028  11.637  23.188  1.00  0.00     0.174 C 
ATOM      2  C   UNL     1      -2.285  10.401  23.698  1.00  0.00     0.037 C 
ATOM      3  C   UNL     1      -0.839  10.668  23.294  1.00  0.00     0.024 C 
ATOM      4  C   UNL     1      -0.977  11.358  21.945  1.00  0.00     0.120 C 
ATOM      5  N   UNL     1      -2.273  12.022  21.991  1.00  0.00    -0.329 N 
ENDROOT
BRANCH   1   6
ATOM      6  C   UNL     1      -3.078  12.715  24.295  1.00  0.00     0.243 C 
ATOM      7  N   UNL     1      -3.630  13.920  23.926  1.00  0.00    -0.350 N 
ATOM      8  O   UNL     1      -2.544  12.526  25.386  1.00  0.00    -0.273 OA
ATOM      9  H   UNL     1      -4.153  13.969  23.055  1.00  0.00     0.163 HD
BRANCH   7  10
ATOM     10  C   UNL     1      -3.636  15.085  24.783  1.00  0.00     0.154 C 
BRANCH  10  11
ATOM     11  C   UNL     1      -4.933  15.860  24.691  1.00  0.00    -0.004 A 
ATOM     12  C   UNL     1      -5.115  16.894  23.749  1.00  0.00    -0.041 A 
ATOM     13  C   UNL     1      -6.347  17.563  23.704  1.00  0.00     0.050 A 
ATOM     14  C   UNL     1      -7.360  17.197  24.571  1.00  0.00     0.123 A 
ATOM     15  C   UNL     1      -6.010  15.588  25.553  1.00  0.00     0.045 A 
ATOM     16  N   UNL     1      -7.203  16.240  25.491  1.00  0.00    -0.236 NA
ATOM     17  C   UNL     1      -4.033  17.336  22.800  1.00  0.00     0.045 C 
ATOM     18  C   UNL     1      -5.943  14.532  26.617  1.00  0.00     0.067 C 
BRANCH  14  19
ATOM     19  N   UNL     1      -8.571  17.857  24.567  1.00  0.00    -0.384 N 
ATOM     20  H   UNL     1      -9.263  17.391  23.995  1.00  0.00     0.158 HD
ATOM     21  H   UNL     1      -8.562  18.865  24.567  1.00  0.00     0.158 HD
ENDBRANCH  14  19
ENDBRANCH  10  11
ENDBRANCH   7  10
ENDBRANCH   1   6
BRANCH   5  22
ATOM     22  C   UNL     1      -2.847  12.820  21.029  1.00  0.00     0.241 C 
ATOM     23  O   UNL     1      -2.247  13.780  20.538  1.00  0.00    -0.273 OA
BRANCH  22  24
ATOM     24  C   UNL     1      -4.267  12.482  20.538  1.00  0.00     0.163 C 
BRANCH  24  25
ATOM     25  C   UNL     1      -5.225  13.630  20.898  1.00  0.00     0.065 C 
BRANCH  25  26
ATOM     26  C   UNL     1      -6.445  13.159  21.653  1.00  0.00    -0.044 A 
ATOM     27  C   UNL     1      -7.199  14.057  22.417  1.00  0.00     0.005 A 
ATOM     28  C   UNL     1      -6.859  11.820  21.569  1.00  0.00     0.025 A 
ATOM     29  C   UNL     1      -8.349  13.625  23.084  1.00  0.00     0.022 A 
ATOM     30  C   UNL     1      -8.013  11.386  22.231  1.00  0.00     0.059 A 
ATOM     31  C   UNL     1      -8.759  12.292  22.991  1.00  0.00     0.059 A 
ATOM     32  Cl  UNL     1      -8.465   9.729  22.058  1.00  0.00    -0.083 Cl
ATOM     33  Cl  UNL     1     -10.198  11.835  23.831  1.00  0.00    -0.083 Cl
ENDBRANCH  25  26
ENDBRANCH  24  25
BRANCH  24  34
ATOM     34  N   UNL     1      -4.196  12.379  19.045  1.00  0.00    -0.202 NA
ATOM     35  H   UNL     1      -3.240  12.525  18.695  1.00  0.00     0.141 HD
BRANCH  34  36
ATOM     36  S   UNL     1      -4.806  10.958  18.355  1.00  0.00     0.216 S 
ATOM     37  O   UNL     1      -6.237  11.152  18.303  1.00  0.00    -0.212 OA
ATOM     38  O   UNL     1      -4.027  10.697  17.163  1.00  0.00    -0.212 OA
BRANCH  36  39
ATOM     39  C   UNL     1      -4.411   9.758  19.637  1.00  0.00     0.189 C 
BRANCH  39  40
ATOM     40  C   UNL     1      -5.124   8.467  19.330  1.00  0.00    -0.032 A 
ATOM     41  C   UNL     1      -4.516   7.490  18.528  1.00  0.00     0.005 A 
ATOM     42  C   UNL     1      -6.414   8.231  19.826  1.00  0.00     0.005 A 
ATOM     43  C   UNL     1      -5.185   6.303  18.231  1.00  0.00     0.000 A 
ATOM     44  C   UNL     1      -7.080   7.042  19.527  1.00  0.00     0.000 A 
ATOM     45  C   UNL     1      -6.466   6.079  18.730  1.00  0.00     0.000 A 
ENDBRANCH  39  40
ENDBRANCH  36  39
ENDBRANCH  34  36
ENDBRANCH  24  34
ENDBRANCH  22  24
ENDBRANCH   5  22
TORSDOF 12
ENDMDL
MODEL 8
REMARK VINA RESULT:    -7.468      3.409      5.652
REMARK INTER + INTRA:         -16.576
REMARK INTER:                 -14.449
REMARK INTRA:                  -2.128
REMARK UNBOUND:                -4.088
REMARK SMILES Cc1cc(N)nc(C)c1CNC(=O)[C@@H]1CCCN1C(=O)[C@@H](Cc1ccc(Cl)c(Cl)c1)NS(=O)(=O)Cc1ccccc1
REMARK SMILES IDX 14 1 15 2 16 3 17 4 18 5 12 6 11 7 13 8 10 10 9 11 2 12 3 13
REMARK SMILES IDX 4 14 7 15 6 16 1 17 8 18 5 19 19 22 20 23 21 24 22 25 23 26
REMARK SMILES IDX 24 27 30 28 25 29 28 30 26 31 29 32 27 33 31 34 32 36 33 37
REMARK SMILES IDX 34 38 35 39 36 40 37 41 41 42 38 43 40 44 39 45
REMARK H PARENT 11 9 5 20 5 21 31 35
ROOT
ATOM      1  C   UNL     1      -8.008  11.977  21.815  1.00  0.00     0.174 C 
ATOM      2  C   UNL     1      -8.638  12.586  20.561  1.00  0.00     0.037 C 
ATOM      3  C   UNL     1      -7.479  13.340  19.917  1.00  0.00     0.024 C 
ATOM      4  C   UNL     1      -6.716  13.891  21.112  1.00  0.00     0.120 C 
ATOM      5  N   UNL     1      -6.984  12.955  22.195  1.00  0.00    -0.329 N 
ENDROOT
BRANCH   1   6
ATOM      6  C   UNL     1      -7.464  10.565  21.497  1.00  0.00     0.243 C 
ATOM      7  N   UNL     1      -6.104  10.479  21.311  1.00  0.00    -0.350 N 
ATOM      8  O   UNL     1      -8.229   9.620  21.309  1.00  0.00    -0.273 OA
ATOM      9  H   UNL     1      -5.524  11.265  21.595  1.00  0.00     0.163 HD
BRANCH   7  10
ATOM     10  C   UNL     1      -5.438   9.273  20.874  1.00  0.00     0.154 C 
BRANCH  10  11
ATOM     11  C   UNL     1      -5.455   9.120  19.368  1.00  0.00    -0.004 A 
ATOM     12  C   UNL     1      -6.151   8.068  18.736  1.00  0.00    -0.041 A 
ATOM     13  C   UNL     1      -6.141   7.992  17.336  1.00  0.00     0.050 A 
ATOM     14  C   UNL     1      -5.462   8.946  16.600  1.00  0.00     0.123 A 
ATOM     15  C   UNL     1      -4.764  10.018  18.534  1.00  0.00     0.045 A 
ATOM     16  N   UNL     1      -4.772   9.936  17.176  1.00  0.00    -0.236 NA
ATOM     17  C   UNL     1      -6.886   7.000  19.499  1.00  0.00     0.045 C 
ATOM     18  C   UNL     1      -3.964  11.166  19.074  1.00  0.00     0.067 C 
BRANCH  14  19
ATOM     19  N   UNL     1      -5.413   8.878  15.223  1.00  0.00    -0.384 N 
ATOM     20  H   UNL     1      -5.754   7.995  14.868  1.00  0.00     0.158 HD
ATOM     21  H   UNL     1      -4.626   9.300  14.755  1.00  0.00     0.158 HD
ENDBRANCH  14  19
ENDBRANCH  10  11
ENDBRANCH   7  10
ENDBRANCH   1   6
BRANCH   5  22
ATOM     22  C   UNL     1      -6.486  12.983  23.477  1.00  0.00     0.241 C 
ATOM     23  O   UNL     1      -7.220  12.860  24.462  1.00  0.00    -0.273 OA
BRANCH  22  24
ATOM     24  C   UNL     1      -4.967  13.145  23.678  1.00  0.00     0.163 C 
BRANCH  24  25
ATOM     25  C   UNL     1      -4.701  13.964  24.952  1.00  0.00     0.065 C 
BRANCH  25  26
ATOM     26  C   UNL     1      -5.129  15.407  24.821  1.00  0.00    -0.044 A 
ATOM     27  C   UNL     1      -4.597  16.218  23.813  1.00  0.00     0.005 A 
ATOM     28  C   UNL     1      -6.095  15.942  25.689  1.00  0.00     0.025 A 
ATOM     29  C   UNL     1      -5.025  17.540  23.672  1.00  0.00     0.022 A 
ATOM     30  C   UNL     1      -6.528  17.264  25.546  1.00  0.00     0.059 A 
ATOM     31  C   UNL     1      -5.991  18.066  24.535  1.00  0.00     0.059 A 
ATOM     32  Cl  UNL     1      -7.735  17.838  26.641  1.00  0.00    -0.083 Cl
ATOM     33  Cl  UNL     1      -6.480  19.705  24.290  1.00  0.00    -0.083 Cl
ENDBRANCH  25  26
ENDBRANCH  24  25
BRANCH  24  34
ATOM     34  N   UNL     1      -4.408  11.770  23.877  1.00  0.00    -0.202 NA
ATOM     35  H   UNL     1      -5.067  11.039  23.575  1.00  0.00     0.141 HD
BRANCH  34  36
ATOM     36  S   UNL     1      -2.902  11.457  23.168  1.00  0.00     0.216 S 
ATOM     37  O   UNL     1      -2.859  10.022  23.001  1.00  0.00    -0.212 OA
ATOM     38  O   UNL     1      -2.766  12.360  22.045  1.00  0.00    -0.212 OA
BRANCH  36  39
ATOM     39  C   UNL     1      -1.790  11.938  24.498  1.00  0.00     0.189 C 
BRANCH  39  40
ATOM     40  C   UNL     1      -1.583  10.758  25.411  1.00  0.00    -0.032 A 
ATOM     41  C   UNL     1      -0.471   9.920  25.251  1.00  0.00     0.005 A 
ATOM     42  C   UNL     1      -2.512  10.469  26.421  1.00  0.00     0.005 A 
ATOM     43  C   UNL     1      -0.290   8.817  26.087  1.00  0.00     0.000 A 
ATOM     44  C   UNL     1      -2.328   9.366  27.255  1.00  0.00     0.000 A 
ATOM     45  C   UNL     1      -1.218   8.541  27.088  1.00  0.00     0.000 A 
ENDBRANCH  39  40
ENDBRANCH  36  39
ENDBRANCH  34  36
ENDBRANCH  24  34
ENDBRANCH  22  24
ENDBRANCH   5  22
TORSDOF 12
ENDMDL
MODEL 9
REMARK VINA RESULT:    -7.441      2.674      4.055
REMARK INTER + INTRA:         -16.531
REMARK INTER:                 -13.016
REMARK INTRA:                  -3.515
REMARK UNBOUND:                -4.088
REMARK SMILES Cc1cc(N)nc(C)c1CNC(=O)[C@@H]1CCCN1C(=O)[C@@H](Cc1ccc(Cl)c(Cl)c1)NS(=O)(=O)Cc1ccccc1
REMARK SMILES IDX 14 1 15 2 16 3 17 4 18 5 12 6 11 7 13 8 10 10 9 11 2 12 3 13
REMARK SMILES IDX 4 14 7 15 6 16 1 17 8 18 5 19 19 22 20 23 21 24 22 25 23 26
REMARK SMILES IDX 24 27 30 28 25 29 28 30 26 31 29 32 27 33 31 34 32 36 33 37
REMARK SMILES IDX 34 38 35 39 36 40 37 41 41 42 38 43 40 44 39 45
REMARK H PARENT 11 9 5 20 5 21 31 35
ROOT
ATOM      1  C   UNL     1      -3.039  14.520  19.383  1.00  0.00     0.174 C 
ATOM      2  C   UNL     1      -3.020  16.037  19.580  1.00  0.00     0.037 C 
ATOM      3  C   UNL     1      -1.628  16.437  19.102  1.00  0.00     0.024 C 
ATOM      4  C   UNL     1      -0.755  15.282  19.569  1.00  0.00     0.120 C 
ATOM      5  N   UNL     1      -1.643  14.128  19.605  1.00  0.00    -0.329 N 
ENDROOT
BRANCH   1   6
ATOM      6  C   UNL     1      -3.589  14.178  17.979  1.00  0.00     0.243 C 
ATOM      7  N   UNL     1      -4.882  13.709  17.945  1.00  0.00    -0.350 N 
ATOM      8  O   UNL     1      -2.862  14.216  16.988  1.00  0.00    -0.273 OA
ATOM      9  H   UNL     1      -5.459  13.814  18.777  1.00  0.00     0.163 HD
BRANCH   7  10
ATOM     10  C   UNL     1      -5.514  13.211  16.744  1.00  0.00     0.154 C 
BRANCH  10  11
ATOM     11  C   UNL     1      -5.768  11.720  16.804  1.00  0.00    -0.004 A 
ATOM     12  C   UNL     1      -4.894  10.793  16.199  1.00  0.00    -0.041 A 
ATOM     13  C   UNL     1      -5.178   9.424  16.304  1.00  0.00     0.050 A 
ATOM     14  C   UNL     1      -6.296   9.005  17.002  1.00  0.00     0.123 A 
ATOM     15  C   UNL     1      -6.898  11.197  17.458  1.00  0.00     0.045 A 
ATOM     16  N   UNL     1      -7.155   9.864  17.559  1.00  0.00    -0.236 NA
ATOM     17  C   UNL     1      -3.677  11.207  15.416  1.00  0.00     0.045 C 
ATOM     18  C   UNL     1      -7.922  12.071  18.122  1.00  0.00     0.067 C 
BRANCH  14  19
ATOM     19  N   UNL     1      -6.614   7.666  17.096  1.00  0.00    -0.384 N 
ATOM     20  H   UNL     1      -6.985   7.421  18.004  1.00  0.00     0.158 HD
ATOM     21  H   UNL     1      -6.008   7.001  16.641  1.00  0.00     0.158 HD
ENDBRANCH  14  19
ENDBRANCH  10  11
ENDBRANCH   7  10
ENDBRANCH   1   6
BRANCH   5  22
ATOM     22  C   UNL     1      -1.325  12.828  19.923  1.00  0.00     0.241 C 
ATOM     23  O   UNL     1      -0.269  12.308  19.550  1.00  0.00    -0.273 OA
BRANCH  22  24
ATOM     24  C   UNL     1      -2.305  12.016  20.790  1.00  0.00     0.163 C 
BRANCH  24  25
ATOM     25  C   UNL     1      -2.989  10.943  19.927  1.00  0.00     0.065 C 
BRANCH  25  26
ATOM     26  C   UNL     1      -4.398  10.637  20.382  1.00  0.00    -0.044 A 
ATOM     27  C   UNL     1      -4.890   9.328  20.342  1.00  0.00     0.005 A 
ATOM     28  C   UNL     1      -5.218  11.659  20.885  1.00  0.00     0.025 A 
ATOM     29  C   UNL     1      -6.179   9.044  20.799  1.00  0.00     0.022 A 
ATOM     30  C   UNL     1      -6.508  11.376  21.349  1.00  0.00     0.059 A 
ATOM     31  C   UNL     1      -6.989  10.065  21.305  1.00  0.00     0.059 A 
ATOM     32  Cl  UNL     1      -7.444  12.687  21.972  1.00  0.00    -0.083 Cl
ATOM     33  Cl  UNL     1      -8.566   9.635  21.864  1.00  0.00    -0.083 Cl
ENDBRANCH  25  26
ENDBRANCH  24  25
BRANCH  24  34
ATOM     34  N   UNL     1      -1.487  11.326  21.838  1.00  0.00    -0.202 NA
ATOM     35  H   UNL     1      -0.524  11.687  21.873  1.00  0.00     0.141 HD
BRANCH  34  36
ATOM     36  S   UNL     1      -2.115  11.327  23.410  1.00  0.00     0.216 S 
ATOM     37  O   UNL     1      -2.498  12.698  23.659  1.00  0.00    -0.212 OA
ATOM     38  O   UNL     1      -3.071  10.242  23.486  1.00  0.00    -0.212 OA
BRANCH  36  39
ATOM     39  C   UNL     1      -0.643  10.934  24.369  1.00  0.00     0.189 C 
BRANCH  39  40
ATOM     40  C   UNL     1      -1.032  10.028  25.507  1.00  0.00    -0.032 A 
ATOM     41  C   UNL     1      -2.122  10.345  26.330  1.00  0.00     0.005 A 
ATOM     42  C   UNL     1      -0.297   8.864  25.773  1.00  0.00     0.005 A 
ATOM     43  C   UNL     1      -2.470   9.513  27.395  1.00  0.00     0.000 A 
ATOM     44  C   UNL     1      -0.647   8.034  26.838  1.00  0.00     0.000 A 
ATOM     45  C   UNL     1      -1.733   8.359  27.649  1.00  0.00     0.000 A 
ENDBRANCH  39  40
ENDBRANCH  36  39
ENDBRANCH  34  36
ENDBRANCH  24  34
ENDBRANCH  22  24
ENDBRANCH   5  22
TORSDOF 12
ENDMDL
