MODEL 1
REMARK minimizedAffinity -8.67064667
REMARK CNNscore 0.619707644
REMARK CNNaffinity 7.34343958
REMARK SMILES CCCCOc1ccc(-c2c(C)ncc(C(=O)O)c2C)cc1CNC(=O)c1ccc(C(F)(F)F)cc1F
REMARK SMILES IDX 6 1 7 2 8 3 9 4 21 5 22 6 5 7 4 8 3 9 2 10 1 11 23 12 24 13
REMARK SMILES IDX 25 14 26 15 27 17 28 18 36 19 29 20 35 21 30 22 37 23 31 24
REMARK SMILES IDX 32 25 33 26 34 27 10 28 11 29 19 30 13 31 15 32 14 33 12 34
REMARK SMILES IDX 20 35 16 36 17 37 18 38
REMARK H PARENT 24 16 18 39
ROOT
ATOM      1  C   UNL     1       9.214   3.274  -4.664  1.00  0.00     0.124 A 
ATOM      2  C   UNL     1       8.624   3.507  -3.420  1.00  0.00     0.047 A 
ATOM      3  C   UNL     1       7.462   4.279  -3.319  1.00  0.00     0.012 A 
ATOM      4  C   UNL     1       6.866   4.837  -4.456  1.00  0.00    -0.016 A 
ATOM      5  C   UNL     1       7.457   4.593  -5.703  1.00  0.00     0.018 A 
ATOM      6  C   UNL     1       8.620   3.809  -5.821  1.00  0.00     0.014 A 
ENDROOT
BRANCH   1   7
ATOM      7  O   UNL     1      10.364   2.556  -4.863  1.00  0.00    -0.493 OA
BRANCH   7   8
ATOM      8  C   UNL     1      10.425   1.236  -4.324  1.00  0.00     0.229 C 
BRANCH   8   9
ATOM      9  C   UNL     1      11.817   0.663  -4.592  1.00  0.00     0.041 C 
BRANCH   9  10
ATOM     10  C   UNL     1      12.812   1.016  -3.484  1.00  0.00     0.000 C 
ATOM     11  C   UNL     1      12.172   0.914  -2.109  1.00  0.00     0.004 C 
ENDBRANCH   9  10
ENDBRANCH   8   9
ENDBRANCH   7   8
ENDBRANCH   1   7
BRANCH   6  12
ATOM     12  C   UNL     1       9.231   3.612  -7.187  1.00  0.00     0.156 C 
BRANCH  12  13
ATOM     13  N   UNL     1       9.471   4.887  -7.823  1.00  0.00    -0.348 N 
ATOM     14  C   UNL     1      10.077   4.998  -9.050  1.00  0.00     0.254 C 
ATOM     15  O   UNL     1      10.505   4.032  -9.674  1.00  0.00    -0.269 OA
ATOM     16  H   UNL     1       9.094   5.705  -7.359  1.00  0.00     0.164 HD
BRANCH  14  17
ATOM     17  C   UNL     1      10.199   6.364  -9.635  1.00  0.00     0.075 A 
ATOM     18  C   UNL     1      10.069   7.469  -8.779  1.00  0.00     0.017 A 
ATOM     19  C   UNL     1      10.436   6.599 -10.991  1.00  0.00     0.136 A 
ATOM     20  C   UNL     1      10.177   8.773  -9.274  1.00  0.00     0.014 A 
ATOM     21  C   UNL     1      10.545   7.896 -11.492  1.00  0.00     0.053 A 
ATOM     22  C   UNL     1      10.424   9.001 -10.636  1.00  0.00     0.058 A 
ATOM     23  F   UNL     1      10.566   5.583 -11.859  1.00  0.00    -0.206 F 
BRANCH  22  24
ATOM     24  C   UNL     1      10.522  10.410 -11.170  1.00  0.00     0.416 C 
ATOM     25  F   UNL     1      11.669  10.642 -11.867  1.00  0.00    -0.166 F 
ATOM     26  F   UNL     1      10.488  11.349 -10.184  1.00  0.00    -0.166 F 
ATOM     27  F   UNL     1       9.500  10.713 -12.016  1.00  0.00    -0.166 F 
ENDBRANCH  22  24
ENDBRANCH  14  17
ENDBRANCH  12  13
ENDBRANCH   6  12
BRANCH   4  28
ATOM     28  C   UNL     1       5.655   5.667  -4.341  1.00  0.00     0.007 A 
ATOM     29  C   UNL     1       4.807   5.542  -3.221  1.00  0.00     0.045 A 
ATOM     30  C   UNL     1       5.294   6.599  -5.351  1.00  0.00    -0.025 A 
ATOM     31  N   UNL     1       3.662   6.255  -3.072  1.00  0.00    -0.260 NA
ATOM     32  C   UNL     1       4.090   7.320  -5.206  1.00  0.00     0.081 A 
ATOM     33  C   UNL     1       3.331   7.115  -4.060  1.00  0.00     0.127 A 
ATOM     34  C   UNL     1       5.115   4.591  -2.096  1.00  0.00     0.067 C 
ATOM     35  C   UNL     1       6.163   6.805  -6.569  1.00  0.00     0.046 C 
BRANCH  32  36
ATOM     36  C   UNL     1       3.582   8.252  -6.241  1.00  0.00     0.337 C 
ATOM     37  O   UNL     1       4.071   9.314  -6.575  1.00  0.00    -0.246 OA
BRANCH  36  38
ATOM     38  O   UNL     1       2.450   7.808  -6.819  1.00  0.00    -0.478 OA
ATOM     39  H   UNL     1       2.216   8.514  -7.459  1.00  0.00     0.297 HD
ENDBRANCH  36  38
ENDBRANCH  32  36
ENDBRANCH   4  28
TORSDOF 11
ENDMDL
MODEL 2
REMARK minimizedAffinity -8.75973034
REMARK CNNscore 0.598744452
REMARK CNNaffinity 7.53786516
REMARK SMILES CCCCOc1ccc(-c2c(C)ncc(C(=O)O)c2C)cc1CNC(=O)c1ccc(C(F)(F)F)cc1F
REMARK SMILES IDX 6 1 7 2 8 3 9 4 21 5 22 6 5 7 4 8 3 9 2 10 1 11 23 12 24 13
REMARK SMILES IDX 25 14 26 15 27 17 28 18 36 19 29 20 35 21 30 22 37 23 31 24
REMARK SMILES IDX 32 25 33 26 34 27 10 28 11 29 19 30 13 31 15 32 14 33 12 34
REMARK SMILES IDX 20 35 16 36 17 37 18 38
REMARK H PARENT 24 16 18 39
ROOT
ATOM      1  C   UNL     1       9.725   3.168  -3.961  1.00  0.00     0.124 A 
ATOM      2  C   UNL     1       9.224   3.498  -2.700  1.00  0.00     0.047 A 
ATOM      3  C   UNL     1       7.980   4.125  -2.572  1.00  0.00     0.012 A 
ATOM      4  C   UNL     1       7.211   4.437  -3.700  1.00  0.00    -0.016 A 
ATOM      5  C   UNL     1       7.714   4.095  -4.962  1.00  0.00     0.018 A 
ATOM      6  C   UNL     1       8.959   3.455  -5.105  1.00  0.00     0.014 A 
ENDROOT
BRANCH   1   7
ATOM      7  O   UNL     1      10.940   2.580  -4.191  1.00  0.00    -0.493 OA
BRANCH   7   8
ATOM      8  C   UNL     1      11.136   1.249  -3.715  1.00  0.00     0.229 C 
BRANCH   8   9
ATOM      9  C   UNL     1      12.348   1.235  -2.785  1.00  0.00     0.041 C 
BRANCH   9  10
ATOM     10  C   UNL     1      13.670   1.305  -3.554  1.00  0.00     0.000 C 
ATOM     11  C   UNL     1      14.638   2.285  -2.910  1.00  0.00     0.004 C 
ENDBRANCH   9  10
ENDBRANCH   8   9
ENDBRANCH   7   8
ENDBRANCH   1   7
BRANCH   6  12
ATOM     12  C   UNL     1       9.464   3.145  -6.493  1.00  0.00     0.156 C 
BRANCH  12  13
ATOM     13  N   UNL     1       9.700   4.366  -7.231  1.00  0.00    -0.348 N 
ATOM     14  C   UNL     1       9.901   4.381  -8.589  1.00  0.00     0.254 C 
ATOM     15  O   UNL     1       9.947   3.361  -9.269  1.00  0.00    -0.269 OA
ATOM     16  H   UNL     1       9.627   5.232  -6.711  1.00  0.00     0.164 HD
BRANCH  14  17
ATOM     17  C   UNL     1      10.057   5.711  -9.245  1.00  0.00     0.075 A 
ATOM     18  C   UNL     1       9.980   6.861  -8.445  1.00  0.00     0.017 A 
ATOM     19  C   UNL     1      10.278   5.868 -10.614  1.00  0.00     0.136 A 
ATOM     20  C   UNL     1      10.122   8.134  -9.008  1.00  0.00     0.014 A 
ATOM     21  C   UNL     1      10.421   7.134 -11.183  1.00  0.00     0.053 A 
ATOM     22  C   UNL     1      10.351   8.284 -10.384  1.00  0.00     0.058 A 
ATOM     23  F   UNL     1      10.359   4.805 -11.432  1.00  0.00    -0.206 F 
BRANCH  22  24
ATOM     24  C   UNL     1      10.486   9.660 -10.991  1.00  0.00     0.416 C 
ATOM     25  F   UNL     1       9.397  10.036 -11.716  1.00  0.00    -0.166 F 
ATOM     26  F   UNL     1      11.549   9.759 -11.836  1.00  0.00    -0.166 F 
ATOM     27  F   UNL     1      10.662  10.625 -10.048  1.00  0.00    -0.166 F 
ENDBRANCH  22  24
ENDBRANCH  14  17
ENDBRANCH  12  13
ENDBRANCH   6  12
BRANCH   4  28
ATOM     28  C   UNL     1       5.911   5.116  -3.560  1.00  0.00     0.007 A 
ATOM     29  C   UNL     1       5.320   5.761  -4.666  1.00  0.00     0.045 A 
ATOM     30  C   UNL     1       5.225   5.159  -2.317  1.00  0.00    -0.025 A 
ATOM     31  N   UNL     1       4.141   6.429  -4.594  1.00  0.00    -0.260 NA
ATOM     32  C   UNL     1       4.013   5.877  -2.238  1.00  0.00     0.081 A 
ATOM     33  C   UNL     1       3.524   6.475  -3.393  1.00  0.00     0.127 A 
ATOM     34  C   UNL     1       5.966   5.756  -6.025  1.00  0.00     0.067 C 
ATOM     35  C   UNL     1       5.785   4.473  -1.092  1.00  0.00     0.046 C 
BRANCH  32  36
ATOM     36  C   UNL     1       3.264   6.053  -0.970  1.00  0.00     0.337 C 
ATOM     37  O   UNL     1       2.257   5.466  -0.626  1.00  0.00    -0.246 OA
BRANCH  36  38
ATOM     38  O   UNL     1       3.818   6.988  -0.175  1.00  0.00    -0.478 OA
ATOM     39  H   UNL     1       3.225   7.017   0.606  1.00  0.00     0.297 HD
ENDBRANCH  36  38
ENDBRANCH  32  36
ENDBRANCH   4  28
TORSDOF 11
ENDMDL
MODEL 3
REMARK minimizedAffinity -6.15452862
REMARK CNNscore 0.597243726
REMARK CNNaffinity 7.68988943
REMARK SMILES CCCCOc1ccc(-c2c(C)ncc(C(=O)O)c2C)cc1CNC(=O)c1ccc(C(F)(F)F)cc1F
REMARK SMILES IDX 6 1 7 2 8 3 9 4 21 5 22 6 5 7 4 8 3 9 2 10 1 11 23 12 24 13
REMARK SMILES IDX 25 14 26 15 27 17 28 18 36 19 29 20 35 21 30 22 37 23 31 24
REMARK SMILES IDX 32 25 33 26 34 27 10 28 11 29 19 30 13 31 15 32 14 33 12 34
REMARK SMILES IDX 20 35 16 36 17 37 18 38
REMARK H PARENT 24 16 18 39
ROOT
ATOM      1  C   UNL     1       9.859   5.073  -8.723  1.00  0.00     0.124 A 
ATOM      2  C   UNL     1       9.601   3.702  -8.794  1.00  0.00     0.047 A 
ATOM      3  C   UNL     1       9.528   2.933  -7.628  1.00  0.00     0.012 A 
ATOM      4  C   UNL     1       9.714   3.514  -6.368  1.00  0.00    -0.016 A 
ATOM      5  C   UNL     1       9.964   4.892  -6.302  1.00  0.00     0.018 A 
ATOM      6  C   UNL     1      10.029   5.680  -7.466  1.00  0.00     0.014 A 
ENDROOT
BRANCH   1   7
ATOM      7  O   UNL     1       9.975   5.904  -9.806  1.00  0.00    -0.493 OA
BRANCH   7   8
ATOM      8  C   UNL     1      10.307   5.316 -11.063  1.00  0.00     0.229 C 
BRANCH   8   9
ATOM      9  C   UNL     1      11.775   5.615 -11.371  1.00  0.00     0.041 C 
BRANCH   9  10
ATOM     10  C   UNL     1      11.963   6.216 -12.765  1.00  0.00     0.000 C 
ATOM     11  C   UNL     1      12.920   7.398 -12.737  1.00  0.00     0.004 C 
ENDBRANCH   9  10
ENDBRANCH   8   9
ENDBRANCH   7   8
ENDBRANCH   1   7
BRANCH   6  12
ATOM     12  C   UNL     1      10.338   7.151  -7.334  1.00  0.00     0.156 C 
BRANCH  12  13
ATOM     13  N   UNL     1      10.383   7.779  -8.635  1.00  0.00    -0.348 N 
ATOM     14  C   UNL     1       9.974   9.072  -8.846  1.00  0.00     0.254 C 
ATOM     15  O   UNL     1       9.492   9.773  -7.962  1.00  0.00    -0.269 OA
ATOM     16  H   UNL     1      10.815   7.247  -9.381  1.00  0.00     0.164 HD
BRANCH  14  17
ATOM     17  C   UNL     1      10.143   9.630 -10.218  1.00  0.00     0.075 A 
ATOM     18  C   UNL     1       9.764   8.836 -11.311  1.00  0.00     0.017 A 
ATOM     19  C   UNL     1      10.658  10.904 -10.469  1.00  0.00     0.136 A 
ATOM     20  C   UNL     1       9.898   9.311 -12.621  1.00  0.00     0.014 A 
ATOM     21  C   UNL     1      10.795  11.384 -11.772  1.00  0.00     0.053 A 
ATOM     22  C   UNL     1      10.409  10.595 -12.865  1.00  0.00     0.058 A 
ATOM     23  F   UNL     1      11.040  11.709  -9.465  1.00  0.00    -0.206 F 
BRANCH  22  24
ATOM     24  C   UNL     1      10.570  11.097 -14.280  1.00  0.00     0.416 C 
ATOM     25  F   UNL     1      11.339  10.283 -15.055  1.00  0.00    -0.166 F 
ATOM     26  F   UNL     1      11.152  12.327 -14.338  1.00  0.00    -0.166 F 
ATOM     27  F   UNL     1       9.377  11.214 -14.924  1.00  0.00    -0.166 F 
ENDBRANCH  22  24
ENDBRANCH  14  17
ENDBRANCH  12  13
ENDBRANCH   6  12
BRANCH   4  28
ATOM     28  C   UNL     1       9.658   2.695  -5.146  1.00  0.00     0.007 A 
ATOM     29  C   UNL     1       8.619   2.879  -4.209  1.00  0.00     0.045 A 
ATOM     30  C   UNL     1      10.646   1.714  -4.862  1.00  0.00    -0.025 A 
ATOM     31  N   UNL     1       8.530   2.178  -3.050  1.00  0.00    -0.260 NA
ATOM     32  C   UNL     1      10.565   1.005  -3.645  1.00  0.00     0.081 A 
ATOM     33  C   UNL     1       9.498   1.270  -2.796  1.00  0.00     0.127 A 
ATOM     34  C   UNL     1       7.522   3.885  -4.430  1.00  0.00     0.067 C 
ATOM     35  C   UNL     1      11.777   1.444  -5.827  1.00  0.00     0.046 C 
BRANCH  32  36
ATOM     36  C   UNL     1      11.591   0.024  -3.217  1.00  0.00     0.337 C 
ATOM     37  O   UNL     1      12.481   0.199  -2.407  1.00  0.00    -0.246 OA
BRANCH  36  38
ATOM     38  O   UNL     1      11.462  -1.159  -3.848  1.00  0.00    -0.478 OA
ATOM     39  H   UNL     1      12.200  -1.700  -3.493  1.00  0.00     0.297 HD
ENDBRANCH  36  38
ENDBRANCH  32  36
ENDBRANCH   4  28
TORSDOF 11
ENDMDL
MODEL 4
REMARK minimizedAffinity -6.383111
REMARK CNNscore 0.509451807
REMARK CNNaffinity 7.49356651
REMARK SMILES CCCCOc1ccc(-c2c(C)ncc(C(=O)O)c2C)cc1CNC(=O)c1ccc(C(F)(F)F)cc1F
REMARK SMILES IDX 6 1 7 2 8 3 9 4 21 5 22 6 5 7 4 8 3 9 2 10 1 11 23 12 24 13
REMARK SMILES IDX 25 14 26 15 27 17 28 18 36 19 29 20 35 21 30 22 37 23 31 24
REMARK SMILES IDX 32 25 33 26 34 27 10 28 11 29 19 30 13 31 15 32 14 33 12 34
REMARK SMILES IDX 20 35 16 36 17 37 18 38
REMARK H PARENT 24 16 18 39
ROOT
ATOM      1  C   UNL     1      10.984   3.880 -10.470  1.00  0.00     0.124 A 
ATOM      2  C   UNL     1      11.895   4.577 -11.267  1.00  0.00     0.047 A 
ATOM      3  C   UNL     1      11.806   5.967 -11.396  1.00  0.00     0.012 A 
ATOM      4  C   UNL     1      10.806   6.690 -10.735  1.00  0.00    -0.016 A 
ATOM      5  C   UNL     1       9.900   5.987  -9.930  1.00  0.00     0.018 A 
ATOM      6  C   UNL     1       9.984   4.590  -9.782  1.00  0.00     0.014 A 
ENDROOT
BRANCH   1   7
ATOM      7  O   UNL     1      10.972   2.521 -10.301  1.00  0.00    -0.493 OA
BRANCH   7   8
ATOM      8  C   UNL     1      12.026   1.767 -10.898  1.00  0.00     0.229 C 
BRANCH   8   9
ATOM      9  C   UNL     1      12.647   0.865  -9.832  1.00  0.00     0.041 C 
BRANCH   9  10
ATOM     10  C   UNL     1      13.508  -0.244 -10.441  1.00  0.00     0.000 C 
ATOM     11  C   UNL     1      14.974   0.155 -10.493  1.00  0.00     0.004 C 
ENDBRANCH   9  10
ENDBRANCH   8   9
ENDBRANCH   7   8
ENDBRANCH   1   7
BRANCH   6  12
ATOM     12  C   UNL     1       8.958   3.885  -8.930  1.00  0.00     0.156 C 
BRANCH  12  13
ATOM     13  N   UNL     1       9.561   3.394  -7.711  1.00  0.00    -0.348 N 
ATOM     14  C   UNL     1       9.001   3.599  -6.475  1.00  0.00     0.254 C 
ATOM     15  O   UNL     1       7.979   4.256  -6.305  1.00  0.00    -0.269 OA
ATOM     16  H   UNL     1      10.383   2.811  -7.814  1.00  0.00     0.164 HD
BRANCH  14  17
ATOM     17  C   UNL     1       9.679   2.977  -5.302  1.00  0.00     0.075 A 
ATOM     18  C   UNL     1      10.820   2.193  -5.531  1.00  0.00     0.017 A 
ATOM     19  C   UNL     1       9.236   3.137  -3.987  1.00  0.00     0.136 A 
ATOM     20  C   UNL     1      11.497   1.588  -4.466  1.00  0.00     0.014 A 
ATOM     21  C   UNL     1       9.906   2.537  -2.920  1.00  0.00     0.053 A 
ATOM     22  C   UNL     1      11.051   1.760  -3.148  1.00  0.00     0.058 A 
ATOM     23  F   UNL     1       8.149   3.874  -3.705  1.00  0.00    -0.206 F 
BRANCH  22  24
ATOM     24  C   UNL     1      11.773   1.090  -2.003  1.00  0.00     0.416 C 
ATOM     25  F   UNL     1      13.004   1.621  -1.761  1.00  0.00    -0.166 F 
ATOM     26  F   UNL     1      11.976  -0.240  -2.216  1.00  0.00    -0.166 F 
ATOM     27  F   UNL     1      11.085   1.185  -0.833  1.00  0.00    -0.166 F 
ENDBRANCH  22  24
ENDBRANCH  14  17
ENDBRANCH  12  13
ENDBRANCH   6  12
BRANCH   4  28
ATOM     28  C   UNL     1      10.705   8.151 -10.892  1.00  0.00     0.007 A 
ATOM     29  C   UNL     1      10.868   8.746 -12.161  1.00  0.00     0.045 A 
ATOM     30  C   UNL     1      10.458   9.003  -9.782  1.00  0.00    -0.025 A 
ATOM     31  N   UNL     1      10.817  10.087 -12.365  1.00  0.00    -0.260 NA
ATOM     32  C   UNL     1      10.432  10.398  -9.993  1.00  0.00     0.081 A 
ATOM     33  C   UNL     1      10.607  10.873 -11.287  1.00  0.00     0.127 A 
ATOM     34  C   UNL     1      11.119   7.923 -13.396  1.00  0.00     0.067 C 
ATOM     35  C   UNL     1      10.251   8.438  -8.397  1.00  0.00     0.046 C 
BRANCH  32  36
ATOM     36  C   UNL     1      10.268  11.374  -8.890  1.00  0.00     0.337 C 
ATOM     37  O   UNL     1      10.211  12.585  -8.984  1.00  0.00    -0.246 OA
BRANCH  36  38
ATOM     38  O   UNL     1      10.191  10.777  -7.686  1.00  0.00    -0.478 OA
ATOM     39  H   UNL     1      10.105  11.524  -7.055  1.00  0.00     0.297 HD
ENDBRANCH  36  38
ENDBRANCH  32  36
ENDBRANCH   4  28
TORSDOF 11
ENDMDL
MODEL 5
REMARK minimizedAffinity -6.20822191
REMARK CNNscore 0.374591768
REMARK CNNaffinity 7.01010084
REMARK SMILES CCCCOc1ccc(-c2c(C)ncc(C(=O)O)c2C)cc1CNC(=O)c1ccc(C(F)(F)F)cc1F
REMARK SMILES IDX 6 1 7 2 8 3 9 4 21 5 22 6 5 7 4 8 3 9 2 10 1 11 23 12 24 13
REMARK SMILES IDX 25 14 26 15 27 17 28 18 36 19 29 20 35 21 30 22 37 23 31 24
REMARK SMILES IDX 32 25 33 26 34 27 10 28 11 29 19 30 13 31 15 32 14 33 12 34
REMARK SMILES IDX 20 35 16 36 17 37 18 38
REMARK H PARENT 24 16 18 39
ROOT
ATOM      1  C   UNL     1       9.733   5.711  -8.062  1.00  0.00     0.124 A 
ATOM      2  C   UNL     1       9.609   7.081  -8.302  1.00  0.00     0.047 A 
ATOM      3  C   UNL     1       8.604   7.824  -7.675  1.00  0.00     0.012 A 
ATOM      4  C   UNL     1       7.700   7.214  -6.796  1.00  0.00    -0.016 A 
ATOM      5  C   UNL     1       7.834   5.841  -6.552  1.00  0.00     0.018 A 
ATOM      6  C   UNL     1       8.847   5.084  -7.168  1.00  0.00     0.014 A 
ENDROOT
BRANCH   1   7
ATOM      7  O   UNL     1      10.665   4.895  -8.648  1.00  0.00    -0.493 OA
BRANCH   7   8
ATOM      8  C   UNL     1      10.318   4.268  -9.882  1.00  0.00     0.229 C 
BRANCH   8   9
ATOM      9  C   UNL     1      10.432   5.300 -11.003  1.00  0.00     0.041 C 
BRANCH   9  10
ATOM     10  C   UNL     1      11.858   5.834 -11.157  1.00  0.00     0.000 C 
ATOM     11  C   UNL     1      12.079   6.443 -12.532  1.00  0.00     0.004 C 
ENDBRANCH   9  10
ENDBRANCH   8   9
ENDBRANCH   7   8
ENDBRANCH   1   7
BRANCH   6  12
ATOM     12  C   UNL     1       8.919   3.602  -6.894  1.00  0.00     0.156 C 
BRANCH  12  13
ATOM     13  N   UNL     1      10.089   3.288  -6.106  1.00  0.00    -0.348 N 
ATOM     14  C   UNL     1      10.099   2.291  -5.161  1.00  0.00     0.254 C 
ATOM     15  O   UNL     1       9.106   1.630  -4.878  1.00  0.00    -0.269 OA
ATOM     16  H   UNL     1      10.941   3.784  -6.340  1.00  0.00     0.164 HD
BRANCH  14  17
ATOM     17  C   UNL     1      11.390   2.014  -4.470  1.00  0.00     0.075 A 
ATOM     18  C   UNL     1      11.739   2.808  -3.367  1.00  0.00     0.017 A 
ATOM     19  C   UNL     1      12.268   1.002  -4.864  1.00  0.00     0.136 A 
ATOM     20  C   UNL     1      12.938   2.590  -2.679  1.00  0.00     0.014 A 
ATOM     21  C   UNL     1      13.465   0.778  -4.182  1.00  0.00     0.053 A 
ATOM     22  C   UNL     1      13.811   1.567  -3.076  1.00  0.00     0.058 A 
ATOM     23  F   UNL     1      11.991   0.211  -5.913  1.00  0.00    -0.206 F 
BRANCH  22  24
ATOM     24  C   UNL     1      15.113   1.345  -2.342  1.00  0.00     0.416 C 
ATOM     25  F   UNL     1      14.943   1.060  -1.022  1.00  0.00    -0.166 F 
ATOM     26  F   UNL     1      15.932   2.433  -2.386  1.00  0.00    -0.166 F 
ATOM     27  F   UNL     1      15.828   0.311  -2.862  1.00  0.00    -0.166 F 
ENDBRANCH  22  24
ENDBRANCH  14  17
ENDBRANCH  12  13
ENDBRANCH   6  12
BRANCH   4  28
ATOM     28  C   UNL     1       6.630   7.997  -6.155  1.00  0.00     0.007 A 
ATOM     29  C   UNL     1       6.844   9.347  -5.803  1.00  0.00     0.045 A 
ATOM     30  C   UNL     1       5.365   7.422  -5.856  1.00  0.00    -0.025 A 
ATOM     31  N   UNL     1       5.909  10.111  -5.183  1.00  0.00    -0.260 NA
ATOM     32  C   UNL     1       4.405   8.211  -5.188  1.00  0.00     0.081 A 
ATOM     33  C   UNL     1       4.726   9.530  -4.888  1.00  0.00     0.127 A 
ATOM     34  C   UNL     1       8.146  10.043  -6.092  1.00  0.00     0.067 C 
ATOM     35  C   UNL     1       5.053   5.990  -6.221  1.00  0.00     0.046 C 
BRANCH  32  36
ATOM     36  C   UNL     1       3.089   7.681  -4.756  1.00  0.00     0.337 C 
ATOM     37  O   UNL     1       2.082   7.582  -5.430  1.00  0.00    -0.246 OA
BRANCH  36  38
ATOM     38  O   UNL     1       3.090   7.299  -3.465  1.00  0.00    -0.478 OA
ATOM     39  H   UNL     1       2.171   6.992  -3.307  1.00  0.00     0.297 HD
ENDBRANCH  36  38
ENDBRANCH  32  36
ENDBRANCH   4  28
TORSDOF 11
ENDMDL
MODEL 6
REMARK minimizedAffinity -6.66510868
REMARK CNNscore 0.362614483
REMARK CNNaffinity 7.63762808
REMARK SMILES CCCCOc1ccc(-c2c(C)ncc(C(=O)O)c2C)cc1CNC(=O)c1ccc(C(F)(F)F)cc1F
REMARK SMILES IDX 6 1 7 2 8 3 9 4 21 5 22 6 5 7 4 8 3 9 2 10 1 11 23 12 24 13
REMARK SMILES IDX 25 14 26 15 27 17 28 18 36 19 29 20 35 21 30 22 37 23 31 24
REMARK SMILES IDX 32 25 33 26 34 27 10 28 11 29 19 30 13 31 15 32 14 33 12 34
REMARK SMILES IDX 20 35 16 36 17 37 18 38
REMARK H PARENT 24 16 18 39
ROOT
ATOM      1  C   UNL     1      10.025   5.425  -9.403  1.00  0.00     0.124 A 
ATOM      2  C   UNL     1      10.361   4.975 -10.682  1.00  0.00     0.047 A 
ATOM      3  C   UNL     1      10.782   5.879 -11.664  1.00  0.00     0.012 A 
ATOM      4  C   UNL     1      10.874   7.249 -11.391  1.00  0.00    -0.016 A 
ATOM      5  C   UNL     1      10.544   7.693 -10.103  1.00  0.00     0.018 A 
ATOM      6  C   UNL     1      10.129   6.794  -9.103  1.00  0.00     0.014 A 
ENDROOT
BRANCH   1   7
ATOM      7  O   UNL     1       9.577   4.624  -8.385  1.00  0.00    -0.493 OA
BRANCH   7   8
ATOM      8  C   UNL     1       9.952   4.972  -7.053  1.00  0.00     0.229 C 
BRANCH   8   9
ATOM      9  C   UNL     1       9.207   4.056  -6.081  1.00  0.00     0.041 C 
BRANCH   9  10
ATOM     10  C   UNL     1      10.098   3.588  -4.928  1.00  0.00     0.000 C 
ATOM     11  C   UNL     1      10.439   2.112  -5.052  1.00  0.00     0.004 C 
ENDBRANCH   9  10
ENDBRANCH   8   9
ENDBRANCH   7   8
ENDBRANCH   1   7
BRANCH   6  12
ATOM     12  C   UNL     1       9.753   7.337  -7.746  1.00  0.00     0.156 C 
BRANCH  12  13
ATOM     13  N   UNL     1      10.167   8.716  -7.619  1.00  0.00    -0.348 N 
ATOM     14  C   UNL     1       9.346   9.691  -7.109  1.00  0.00     0.254 C 
ATOM     15  O   UNL     1       8.185   9.477  -6.772  1.00  0.00    -0.269 OA
ATOM     16  H   UNL     1      11.132   8.924  -7.848  1.00  0.00     0.164 HD
BRANCH  14  17
ATOM     17  C   UNL     1       9.916  11.060  -6.958  1.00  0.00     0.075 A 
ATOM     18  C   UNL     1      10.189  11.799  -8.119  1.00  0.00     0.017 A 
ATOM     19  C   UNL     1      10.190  11.643  -5.720  1.00  0.00     0.136 A 
ATOM     20  C   UNL     1      10.722  13.090  -8.036  1.00  0.00     0.014 A 
ATOM     21  C   UNL     1      10.722  12.930  -5.628  1.00  0.00     0.053 A 
ATOM     22  C   UNL     1      10.988  13.672  -6.788  1.00  0.00     0.058 A 
ATOM     23  F   UNL     1       9.953  10.984  -4.573  1.00  0.00    -0.206 F 
BRANCH  22  24
ATOM     24  C   UNL     1      11.580  15.059  -6.702  1.00  0.00     0.416 C 
ATOM     25  F   UNL     1      12.941  15.066  -6.755  1.00  0.00    -0.166 F 
ATOM     26  F   UNL     1      11.248  15.702  -5.548  1.00  0.00    -0.166 F 
ATOM     27  F   UNL     1      11.160  15.863  -7.716  1.00  0.00    -0.166 F 
ENDBRANCH  22  24
ENDBRANCH  14  17
ENDBRANCH  12  13
ENDBRANCH   6  12
BRANCH   4  28
ATOM     28  C   UNL     1      11.297   8.198 -12.434  1.00  0.00     0.007 A 
ATOM     29  C   UNL     1      12.585   8.108 -13.002  1.00  0.00     0.045 A 
ATOM     30  C   UNL     1      10.438   9.235 -12.889  1.00  0.00    -0.025 A 
ATOM     31  N   UNL     1      13.044   8.970 -13.944  1.00  0.00    -0.260 NA
ATOM     32  C   UNL     1      10.927  10.146 -13.849  1.00  0.00     0.081 A 
ATOM     33  C   UNL     1      12.215   9.962 -14.338  1.00  0.00     0.127 A 
ATOM     34  C   UNL     1      13.558   7.035 -12.593  1.00  0.00     0.067 C 
ATOM     35  C   UNL     1       9.037   9.382 -12.344  1.00  0.00     0.046 C 
BRANCH  32  36
ATOM     36  C   UNL     1      10.142  11.310 -14.324  1.00  0.00     0.337 C 
ATOM     37  O   UNL     1       9.079  11.287 -14.914  1.00  0.00    -0.246 OA
BRANCH  36  38
ATOM     38  O   UNL     1      10.744  12.482 -14.043  1.00  0.00    -0.478 OA
ATOM     39  H   UNL     1      10.140  13.156 -14.422  1.00  0.00     0.297 HD
ENDBRANCH  36  38
ENDBRANCH  32  36
ENDBRANCH   4  28
TORSDOF 11
ENDMDL
MODEL 7
REMARK minimizedAffinity -6.08534813
REMARK CNNscore 0.339269042
REMARK CNNaffinity 7.07054472
REMARK SMILES CCCCOc1ccc(-c2c(C)ncc(C(=O)O)c2C)cc1CNC(=O)c1ccc(C(F)(F)F)cc1F
REMARK SMILES IDX 6 1 7 2 8 3 9 4 21 5 22 6 5 7 4 8 3 9 2 10 1 11 23 12 24 13
REMARK SMILES IDX 25 14 26 15 27 17 28 18 36 19 29 20 35 21 30 22 37 23 31 24
REMARK SMILES IDX 32 25 33 26 34 27 10 28 11 29 19 30 13 31 15 32 14 33 12 34
REMARK SMILES IDX 20 35 16 36 17 37 18 38
REMARK H PARENT 24 16 18 39
ROOT
ATOM      1  C   UNL     1      10.329   5.747  -8.990  1.00  0.00     0.124 A 
ATOM      2  C   UNL     1      11.159   6.272  -9.983  1.00  0.00     0.047 A 
ATOM      3  C   UNL     1      11.118   7.636 -10.293  1.00  0.00     0.012 A 
ATOM      4  C   UNL     1      10.248   8.502  -9.622  1.00  0.00    -0.016 A 
ATOM      5  C   UNL     1       9.423   7.972  -8.621  1.00  0.00     0.018 A 
ATOM      6  C   UNL     1       9.461   6.604  -8.290  1.00  0.00     0.014 A 
ENDROOT
BRANCH   1   7
ATOM      7  O   UNL     1      10.275   4.425  -8.633  1.00  0.00    -0.493 OA
BRANCH   7   8
ATOM      8  C   UNL     1       9.175   3.652  -9.109  1.00  0.00     0.229 C 
BRANCH   8   9
ATOM      9  C   UNL     1       9.456   3.238 -10.553  1.00  0.00     0.041 C 
BRANCH   9  10
ATOM     10  C   UNL     1      10.920   2.844 -10.768  1.00  0.00     0.000 C 
ATOM     11  C   UNL     1      11.524   3.576 -11.956  1.00  0.00     0.004 C 
ENDBRANCH   9  10
ENDBRANCH   8   9
ENDBRANCH   7   8
ENDBRANCH   1   7
BRANCH   6  12
ATOM     12  C   UNL     1       8.524   6.085  -7.228  1.00  0.00     0.156 C 
BRANCH  12  13
ATOM     13  N   UNL     1       9.229   5.225  -6.305  1.00  0.00    -0.348 N 
ATOM     14  C   UNL     1       8.596   4.257  -5.565  1.00  0.00     0.254 C 
ATOM     15  O   UNL     1       7.381   4.085  -5.591  1.00  0.00    -0.269 OA
ATOM     16  H   UNL     1      10.239   5.308  -6.287  1.00  0.00     0.164 HD
BRANCH  14  17
ATOM     17  C   UNL     1       9.445   3.383  -4.707  1.00  0.00     0.075 A 
ATOM     18  C   UNL     1      10.463   2.635  -5.318  1.00  0.00     0.017 A 
ATOM     19  C   UNL     1       9.279   3.273  -3.325  1.00  0.00     0.136 A 
ATOM     20  C   UNL     1      11.291   1.801  -4.560  1.00  0.00     0.014 A 
ATOM     21  C   UNL     1      10.101   2.443  -2.561  1.00  0.00     0.053 A 
ATOM     22  C   UNL     1      11.123   1.701  -3.171  1.00  0.00     0.058 A 
ATOM     23  F   UNL     1       8.321   3.961  -2.683  1.00  0.00    -0.206 F 
BRANCH  22  24
ATOM     24  C   UNL     1      12.007   0.785  -2.358  1.00  0.00     0.416 C 
ATOM     25  F   UNL     1      13.318   1.154  -2.370  1.00  0.00    -0.166 F 
ATOM     26  F   UNL     1      11.978  -0.503  -2.800  1.00  0.00    -0.166 F 
ATOM     27  F   UNL     1      11.640   0.743  -1.048  1.00  0.00    -0.166 F 
ENDBRANCH  22  24
ENDBRANCH  14  17
ENDBRANCH  12  13
ENDBRANCH   6  12
BRANCH   4  28
ATOM     28  C   UNL     1      10.194   9.933  -9.968  1.00  0.00     0.007 A 
ATOM     29  C   UNL     1      10.145  10.340 -11.318  1.00  0.00     0.045 A 
ATOM     30  C   UNL     1      10.207  10.941  -8.967  1.00  0.00    -0.025 A 
ATOM     31  N   UNL     1      10.126  11.641 -11.702  1.00  0.00    -0.260 NA
ATOM     32  C   UNL     1      10.214  12.294  -9.370  1.00  0.00     0.081 A 
ATOM     33  C   UNL     1      10.165  12.578 -10.729  1.00  0.00     0.127 A 
ATOM     34  C   UNL     1      10.115   9.343 -12.445  1.00  0.00     0.067 C 
ATOM     35  C   UNL     1      10.237  10.584  -7.500  1.00  0.00     0.046 C 
BRANCH  32  36
ATOM     36  C   UNL     1      10.312  13.418  -8.408  1.00  0.00     0.337 C 
ATOM     37  O   UNL     1      10.555  13.346  -7.219  1.00  0.00    -0.246 OA
BRANCH  36  38
ATOM     38  O   UNL     1      10.085  14.610  -8.990  1.00  0.00    -0.478 OA
ATOM     39  H   UNL     1      10.161  15.253  -8.253  1.00  0.00     0.297 HD
ENDBRANCH  36  38
ENDBRANCH  32  36
ENDBRANCH   4  28
TORSDOF 11
ENDMDL
MODEL 8
REMARK minimizedAffinity -6.07146645
REMARK CNNscore 0.315604329
REMARK CNNaffinity 6.30381346
REMARK SMILES CCCCOc1ccc(-c2c(C)ncc(C(=O)O)c2C)cc1CNC(=O)c1ccc(C(F)(F)F)cc1F
REMARK SMILES IDX 6 1 7 2 8 3 9 4 21 5 22 6 5 7 4 8 3 9 2 10 1 11 23 12 24 13
REMARK SMILES IDX 25 14 26 15 27 17 28 18 36 19 29 20 35 21 30 22 37 23 31 24
REMARK SMILES IDX 32 25 33 26 34 27 10 28 11 29 19 30 13 31 15 32 14 33 12 34
REMARK SMILES IDX 20 35 16 36 17 37 18 38
REMARK H PARENT 24 16 18 39
ROOT
ATOM      1  C   UNL     1      10.254  11.871  -5.079  1.00  0.00     0.124 A 
ATOM      2  C   UNL     1      10.015  11.410  -3.782  1.00  0.00     0.047 A 
ATOM      3  C   UNL     1       8.848  10.697  -3.487  1.00  0.00     0.012 A 
ATOM      4  C   UNL     1       7.895  10.431  -4.478  1.00  0.00    -0.016 A 
ATOM      5  C   UNL     1       8.144  10.889  -5.778  1.00  0.00     0.018 A 
ATOM      6  C   UNL     1       9.319  11.598  -6.092  1.00  0.00     0.014 A 
ENDROOT
BRANCH   1   7
ATOM      7  O   UNL     1      11.350  12.599  -5.461  1.00  0.00    -0.493 OA
BRANCH   7   8
ATOM      8  C   UNL     1      11.458  13.939  -4.983  1.00  0.00     0.229 C 
BRANCH   8   9
ATOM      9  C   UNL     1      12.856  14.463  -5.308  1.00  0.00     0.041 C 
BRANCH   9  10
ATOM     10  C   UNL     1      13.349  13.989  -6.677  1.00  0.00     0.000 C 
ATOM     11  C   UNL     1      14.124  15.080  -7.398  1.00  0.00     0.004 C 
ENDBRANCH   9  10
ENDBRANCH   8   9
ENDBRANCH   7   8
ENDBRANCH   1   7
BRANCH   6  12
ATOM     12  C   UNL     1       9.514  12.096  -7.503  1.00  0.00     0.156 C 
BRANCH  12  13
ATOM     13  N   UNL     1       9.815  10.997  -8.392  1.00  0.00    -0.348 N 
ATOM     14  C   UNL     1      10.169  11.184  -9.705  1.00  0.00     0.254 C 
ATOM     15  O   UNL     1      10.205  12.289 -10.236  1.00  0.00    -0.269 OA
ATOM     16  H   UNL     1       9.837  10.072  -7.980  1.00  0.00     0.164 HD
BRANCH  14  17
ATOM     17  C   UNL     1      10.530   9.974 -10.498  1.00  0.00     0.075 A 
ATOM     18  C   UNL     1      11.212  10.152 -11.711  1.00  0.00     0.017 A 
ATOM     19  C   UNL     1      10.223   8.673 -10.094  1.00  0.00     0.136 A 
ATOM     20  C   UNL     1      11.578   9.052 -12.495  1.00  0.00     0.014 A 
ATOM     21  C   UNL     1      10.584   7.571 -10.870  1.00  0.00     0.053 A 
ATOM     22  C   UNL     1      11.273   7.748 -12.078  1.00  0.00     0.058 A 
ATOM     23  F   UNL     1       9.569   8.439  -8.945  1.00  0.00    -0.206 F 
BRANCH  22  24
ATOM     24  C   UNL     1      11.653   6.563 -12.934  1.00  0.00     0.416 C 
ATOM     25  F   UNL     1      12.960   6.575 -13.318  1.00  0.00    -0.166 F 
ATOM     26  F   UNL     1      10.927   6.493 -14.085  1.00  0.00    -0.166 F 
ATOM     27  F   UNL     1      11.460   5.379 -12.292  1.00  0.00    -0.166 F 
ENDBRANCH  22  24
ENDBRANCH  14  17
ENDBRANCH  12  13
ENDBRANCH   6  12
BRANCH   4  28
ATOM     28  C   UNL     1       6.659   9.699  -4.156  1.00  0.00     0.007 A 
ATOM     29  C   UNL     1       6.070   9.818  -2.879  1.00  0.00     0.045 A 
ATOM     30  C   UNL     1       6.033   8.845  -5.103  1.00  0.00    -0.025 A 
ATOM     31  N   UNL     1       4.950   9.146  -2.512  1.00  0.00    -0.260 NA
ATOM     32  C   UNL     1       4.883   8.127  -4.709  1.00  0.00     0.081 A 
ATOM     33  C   UNL     1       4.391   8.321  -3.425  1.00  0.00     0.127 A 
ATOM     34  C   UNL     1       6.654  10.709  -1.817  1.00  0.00     0.067 C 
ATOM     35  C   UNL     1       6.592   8.683  -6.497  1.00  0.00     0.046 C 
BRANCH  32  36
ATOM     36  C   UNL     1       4.207   7.147  -5.593  1.00  0.00     0.337 C 
ATOM     37  O   UNL     1       3.157   7.299  -6.188  1.00  0.00    -0.246 OA
BRANCH  36  38
ATOM     38  O   UNL     1       4.885   5.988  -5.686  1.00  0.00    -0.478 OA
ATOM     39  H   UNL     1       4.329   5.433  -6.274  1.00  0.00     0.297 HD
ENDBRANCH  36  38
ENDBRANCH  32  36
ENDBRANCH   4  28
TORSDOF 11
ENDMDL
MODEL 9
REMARK minimizedAffinity -6.82504845
REMARK CNNscore 0.314793408
REMARK CNNaffinity 7.59839487
REMARK SMILES CCCCOc1ccc(-c2c(C)ncc(C(=O)O)c2C)cc1CNC(=O)c1ccc(C(F)(F)F)cc1F
REMARK SMILES IDX 6 1 7 2 8 3 9 4 21 5 22 6 5 7 4 8 3 9 2 10 1 11 23 12 24 13
REMARK SMILES IDX 25 14 26 15 27 17 28 18 36 19 29 20 35 21 30 22 37 23 31 24
REMARK SMILES IDX 32 25 33 26 34 27 10 28 11 29 19 30 13 31 15 32 14 33 12 34
REMARK SMILES IDX 20 35 16 36 17 37 18 38
REMARK H PARENT 24 16 18 39
ROOT
ATOM      1  C   UNL     1       9.962   6.347  -8.403  1.00  0.00     0.124 A 
ATOM      2  C   UNL     1      10.417   5.593  -9.487  1.00  0.00     0.047 A 
ATOM      3  C   UNL     1      10.753   6.217 -10.694  1.00  0.00     0.012 A 
ATOM      4  C   UNL     1      10.638   7.604 -10.845  1.00  0.00    -0.016 A 
ATOM      5  C   UNL     1      10.188   8.356  -9.751  1.00  0.00     0.018 A 
ATOM      6  C   UNL     1       9.858   7.743  -8.528  1.00  0.00     0.014 A 
ENDROOT
BRANCH   1   7
ATOM      7  O   UNL     1       9.584   5.828  -7.193  1.00  0.00    -0.493 OA
BRANCH   7   8
ATOM      8  C   UNL     1       9.534   4.407  -7.065  1.00  0.00     0.229 C 
BRANCH   8   9
ATOM      9  C   UNL     1       9.266   4.057  -5.602  1.00  0.00     0.041 C 
BRANCH   9  10
ATOM     10  C   UNL     1       9.879   2.712  -5.207  1.00  0.00     0.000 C 
ATOM     11  C   UNL     1       9.225   2.148  -3.955  1.00  0.00     0.004 C 
ENDBRANCH   9  10
ENDBRANCH   8   9
ENDBRANCH   7   8
ENDBRANCH   1   7
BRANCH   6  12
ATOM     12  C   UNL     1       9.345   8.602  -7.398  1.00  0.00     0.156 C 
BRANCH  12  13
ATOM     13  N   UNL     1      10.240   9.712  -7.159  1.00  0.00    -0.348 N 
ATOM     14  C   UNL     1       9.797  10.940  -6.734  1.00  0.00     0.254 C 
ATOM     15  O   UNL     1       8.609  11.204  -6.577  1.00  0.00    -0.269 OA
ATOM     16  H   UNL     1      11.231   9.521  -7.237  1.00  0.00     0.164 HD
BRANCH  14  17
ATOM     17  C   UNL     1      10.826  11.981  -6.449  1.00  0.00     0.075 A 
ATOM     18  C   UNL     1      10.721  12.711  -5.255  1.00  0.00     0.017 A 
ATOM     19  C   UNL     1      11.888  12.264  -7.310  1.00  0.00     0.136 A 
ATOM     20  C   UNL     1      11.661  13.698  -4.936  1.00  0.00     0.014 A 
ATOM     21  C   UNL     1      12.829  13.246  -6.998  1.00  0.00     0.053 A 
ATOM     22  C   UNL     1      12.730  13.971  -5.802  1.00  0.00     0.058 A 
ATOM     23  F   UNL     1      12.040  11.601  -8.468  1.00  0.00    -0.206 F 
BRANCH  22  24
ATOM     24  C   UNL     1      13.732  15.049  -5.463  1.00  0.00     0.416 C 
ATOM     25  F   UNL     1      14.936  14.556  -5.062  1.00  0.00    -0.166 F 
ATOM     26  F   UNL     1      13.308  15.862  -4.457  1.00  0.00    -0.166 F 
ATOM     27  F   UNL     1      13.992  15.862  -6.522  1.00  0.00    -0.166 F 
ENDBRANCH  22  24
ENDBRANCH  14  17
ENDBRANCH  12  13
ENDBRANCH   6  12
BRANCH   4  28
ATOM     28  C   UNL     1      10.972   8.252 -12.124  1.00  0.00     0.007 A 
ATOM     29  C   UNL     1      11.997   7.732 -12.942  1.00  0.00     0.045 A 
ATOM     30  C   UNL     1      10.292   9.419 -12.566  1.00  0.00    -0.025 A 
ATOM     31  N   UNL     1      12.372   8.301 -14.116  1.00  0.00    -0.260 NA
ATOM     32  C   UNL     1      10.702  10.024 -13.774  1.00  0.00     0.081 A 
ATOM     33  C   UNL     1      11.726   9.425 -14.498  1.00  0.00     0.127 A 
ATOM     34  C   UNL     1      12.761   6.493 -12.563  1.00  0.00     0.067 C 
ATOM     35  C   UNL     1       9.170  10.022 -11.755  1.00  0.00     0.046 C 
BRANCH  32  36
ATOM     36  C   UNL     1      10.116  11.289 -14.278  1.00  0.00     0.337 C 
ATOM     37  O   UNL     1       9.086  11.419 -14.911  1.00  0.00    -0.246 OA
BRANCH  36  38
ATOM     38  O   UNL     1      10.870  12.361 -13.969  1.00  0.00    -0.478 OA
ATOM     39  H   UNL     1      10.387  13.115 -14.370  1.00  0.00     0.297 HD
ENDBRANCH  36  38
ENDBRANCH  32  36
ENDBRANCH   4  28
TORSDOF 11
ENDMDL
