MODEL 5
REMARK VINA RESULT:    -8.954      3.116      4.381
REMARK INTER + INTRA:         -15.066
REMARK INTER:                 -14.275
REMARK INTRA:                  -0.790
REMARK UNBOUND:                -1.140
REMARK SMILES Cc1cc2c(CC(=O)O)csc2cc1OCc1ccccc1COc1ccc(C(F)(F)F)cc1
REMARK SMILES IDX 16 1 15 2 14 3 2 4 3 5 4 6 13 7 5 8 12 9 10 10 11 11 1 12
REMARK SMILES IDX 6 13 7 14 8 15 9 16 17 18 18 19 22 20 19 21 21 22 20 23
REMARK SMILES IDX 23 24 24 25 25 26 26 27 34 28 27 29 33 30 28 31 29 32 30 33
REMARK SMILES IDX 31 34 32 35
REMARK H PARENT 9 17
ROOT
ATOM      1  C   UNL     1       8.119  10.164  -5.847  1.00  0.00     0.265 C 
ENDROOT
BRANCH   1   2
ATOM      2  O   UNL     1       6.986  10.678  -5.138  1.00  0.00    -0.489 OA
BRANCH   2   3
ATOM      3  C   UNL     1       6.158   9.775  -4.520  1.00  0.00     0.124 A 
ATOM      4  C   UNL     1       6.312   9.655  -3.135  1.00  0.00    -0.008 A 
ATOM      5  C   UNL     1       5.514   8.742  -2.422  1.00  0.00     0.017 A 
ATOM      6  C   UNL     1       4.560   7.926  -3.081  1.00  0.00    -0.003 A 
ATOM      7  C   UNL     1       5.241   8.965  -5.198  1.00  0.00     0.066 A 
ATOM      8  C   UNL     1       3.643   6.932  -2.559  1.00  0.00    -0.018 A 
ATOM      9  C   UNL     1       4.450   8.055  -4.466  1.00  0.00     0.038 A 
ATOM     10  C   UNL     1       2.895   6.358  -3.569  1.00  0.00     0.070 A 
ATOM     11  S   UNL     1       3.266   6.983  -5.106  1.00  0.00    -0.143 S 
ATOM     12  C   UNL     1       7.320  10.494  -2.397  1.00  0.00     0.048 C 
BRANCH   8  13
ATOM     13  C   UNL     1       3.510   6.567  -1.106  1.00  0.00     0.159 C 
BRANCH  13  14
ATOM     14  C   UNL     1       2.834   7.642  -0.290  1.00  0.00     0.307 C 
ATOM     15  O   UNL     1       2.443   8.738  -0.654  1.00  0.00    -0.252 OA
BRANCH  14  16
ATOM     16  O   UNL     1       2.709   7.282   1.007  1.00  0.00    -0.481 OA
ATOM     17  H   UNL     1       2.194   8.018   1.402  1.00  0.00     0.296 HD
ENDBRANCH  14  16
ENDBRANCH  13  14
ENDBRANCH   8  13
ENDBRANCH   2   3
ENDBRANCH   1   2
BRANCH   1  18
ATOM     18  C   UNL     1       9.340  11.069  -5.808  1.00  0.00    -0.004 A 
ATOM     19  C   UNL     1       9.727  11.674  -4.598  1.00  0.00     0.007 A 
ATOM     20  C   UNL     1      10.079  11.353  -6.983  1.00  0.00    -0.004 A 
ATOM     21  C   UNL     1      10.847  12.503  -4.532  1.00  0.00     0.000 A 
ATOM     22  C   UNL     1      11.218  12.175  -6.889  1.00  0.00     0.007 A 
ATOM     23  C   UNL     1      11.596  12.748  -5.675  1.00  0.00     0.000 A 
BRANCH  20  24
ATOM     24  C   UNL     1       9.698  10.746  -8.323  1.00  0.00     0.265 C 
BRANCH  24  25
ATOM     25  O   UNL     1       9.544   9.323  -8.302  1.00  0.00    -0.489 OA
BRANCH  25  26
ATOM     26  C   UNL     1      10.060   8.606  -9.346  1.00  0.00     0.119 A 
ATOM     27  C   UNL     1      10.356   9.359 -10.483  1.00  0.00     0.047 A 
ATOM     28  C   UNL     1      10.273   7.227  -9.367  1.00  0.00     0.047 A 
ATOM     29  C   UNL     1      10.877   8.751 -11.627  1.00  0.00     0.017 A 
ATOM     30  C   UNL     1      10.795   6.614 -10.512  1.00  0.00     0.017 A 
ATOM     31  C   UNL     1      11.099   7.366 -11.656  1.00  0.00     0.056 A 
BRANCH  31  32
ATOM     32  C   UNL     1      11.681   6.705 -12.880  1.00  0.00     0.416 C 
ATOM     33  F   UNL     1      10.874   6.799 -13.974  1.00  0.00    -0.166 F 
ATOM     34  F   UNL     1      12.878   7.236 -13.258  1.00  0.00    -0.166 F 
ATOM     35  F   UNL     1      11.904   5.375 -12.693  1.00  0.00    -0.166 F 
ENDBRANCH  31  32
ENDBRANCH  25  26
ENDBRANCH  24  25
ENDBRANCH  20  24
ENDBRANCH   1  18
TORSDOF 10
ENDMDL
