REMARK SMILES CCCc1c(OCCCOc2ccc(OCC(=O)O)cc2)ccc2c(-c3ccccc3)noc12
REMARK SMILES IDX 9 1 8 2 7 3 6 4 5 5 4 6 34 7 22 8 33 9 24 10 23 11 32 12
REMARK SMILES IDX 25 13 3 14 2 15 1 16 26 17 27 18 31 19 28 20 30 21 29 22
REMARK SMILES IDX 10 23 11 24 12 25 21 26 13 27 20 28 14 29 15 30 16 31 17 32
REMARK SMILES IDX 18 33 19 34
REMARK H PARENT 19 35
REMARK INDEX MAP 9 1 8 2 7 3 6 4 5 5 4 6 34 7 22 8 33 9 24 10 23 11 32 12
REMARK INDEX MAP 25 13 3 14 2 15 1 16 26 17 27 18 31 19 28 20 30 21 29 22
REMARK INDEX MAP 10 23 11 24 12 25 21 26 13 27 20 28 14 29 15 30 16 31 17 32
REMARK INDEX MAP 18 33 19 34 52 35
ROOT
ATOM      1  C   UNL     1      39.417 -38.804 102.932  1.00  0.00     0.233 C 
ENDROOT
BRANCH   1   2
ATOM      2  C   UNL     1      38.914 -39.148 104.328  1.00  0.00     0.083 C 
BRANCH   2   3
ATOM      3  C   UNL     1      39.892 -40.041 105.089  1.00  0.00     0.233 C 
BRANCH   3   4
ATOM      4  O   UNL     1      40.115 -39.445 106.367  1.00  0.00    -0.493 OA
BRANCH   4   5
ATOM      5  C   UNL     1      41.413 -39.265 106.777  1.00  0.00     0.126 A 
ATOM      6  C   UNL     1      41.588 -38.313 107.809  1.00  0.00     0.040 A 
ATOM      7  C   UNL     1      42.911 -38.131 108.235  1.00  0.00     0.174 A 
ATOM      8  C   UNL     1      42.508 -39.951 106.236  1.00  0.00     0.048 A 
ATOM      9  O   UNL     1      43.317 -37.290 109.223  1.00  0.00    -0.355 OA
ATOM     10  C   UNL     1      44.015 -38.784 107.719  1.00  0.00     0.050 A 
ATOM     11  C   UNL     1      43.814 -39.725 106.697  1.00  0.00     0.018 A 
ATOM     12  N   UNL     1      44.686 -37.375 109.379  1.00  0.00    -0.079 NA
ATOM     13  C   UNL     1      45.115 -38.262 108.466  1.00  0.00     0.121 A 
BRANCH   6  14
ATOM     14  C   UNL     1      40.439 -37.562 108.430  1.00  0.00     0.043 C 
BRANCH  14  15
ATOM     15  C   UNL     1      39.923 -38.195 109.726  1.00  0.00     0.002 C 
ATOM     16  C   UNL     1      38.770 -39.166 109.512  1.00  0.00     0.004 C 
ENDBRANCH  14  15
ENDBRANCH   6  14
BRANCH  13  17
ATOM     17  C   UNL     1      46.535 -38.583 108.341  1.00  0.00     0.004 A 
ATOM     18  C   UNL     1      47.018 -39.821 108.792  1.00  0.00     0.010 A 
ATOM     19  C   UNL     1      47.437 -37.666 107.783  1.00  0.00     0.010 A 
ATOM     20  C   UNL     1      48.373 -40.140 108.672  1.00  0.00     0.001 A 
ATOM     21  C   UNL     1      48.791 -37.987 107.666  1.00  0.00     0.001 A 
ATOM     22  C   UNL     1      49.258 -39.224 108.106  1.00  0.00     0.000 A 
ENDBRANCH  13  17
ENDBRANCH   4   5
ENDBRANCH   3   4
ENDBRANCH   2   3
ENDBRANCH   1   2
BRANCH   1  23
ATOM     23  O   UNL     1      40.789 -38.423 103.018  1.00  0.00    -0.493 OA
BRANCH  23  24
ATOM     24  C   UNL     1      41.654 -38.990 102.125  1.00  0.00     0.119 A 
ATOM     25  C   UNL     1      42.618 -39.822 102.696  1.00  0.00     0.050 A 
ATOM     26  C   UNL     1      41.646 -38.810 100.743  1.00  0.00     0.050 A 
ATOM     27  C   UNL     1      43.564 -40.464 101.895  1.00  0.00     0.050 A 
ATOM     28  C   UNL     1      42.596 -39.456  99.937  1.00  0.00     0.050 A 
ATOM     29  C   UNL     1      43.560 -40.286 100.511  1.00  0.00     0.120 A 
BRANCH  29  30
ATOM     30  O   UNL     1      44.537 -40.968  99.846  1.00  0.00    -0.482 OA
BRANCH  30  31
ATOM     31  C   UNL     1      44.725 -40.656  98.471  1.00  0.00     0.351 C 
BRANCH  31  32
ATOM     32  C   UNL     1      44.250 -41.805  97.601  1.00  0.00     0.341 C 
ATOM     33  O   UNL     1      44.854 -42.818  97.289  1.00  0.00    -0.248 OA
BRANCH  32  34
ATOM     34  O   UNL     1      42.991 -41.608  97.148  1.00  0.00    -0.479 OA
ATOM     35  H   UNL     1      42.562 -42.286  96.568  1.00  0.00     0.296 HD
ENDBRANCH  32  34
ENDBRANCH  31  32
ENDBRANCH  30  31
ENDBRANCH  29  30
ENDBRANCH  23  24
ENDBRANCH   1  23
TORSDOF 13
