REMARK SMILES CCC[C@H](Sc1ccc(OCC(=O)O)c(C)c1)c1sc(-c2ccc(C(F)(F)F)cc2)nc1C
REMARK SMILES IDX 6 1 7 2 8 3 9 4 15 5 16 6 17 7 5 8 4 9 3 10 2 11 1 12 18 13
REMARK SMILES IDX 19 14 32 15 20 16 31 17 33 18 21 19 22 20 30 21 23 22 29 23
REMARK SMILES IDX 24 24 25 25 26 26 27 27 28 28 10 29 11 30 12 31 13 32 14 33
REMARK H PARENT 14 34
REMARK INDEX MAP 6 1 7 2 8 3 9 4 15 5 16 6 17 7 5 8 4 9 3 10 2 11 1 12 18 13
REMARK INDEX MAP 19 14 32 15 20 16 31 17 33 18 21 19 22 20 30 21 23 22 29 23
REMARK INDEX MAP 24 24 25 25 26 26 27 27 28 28 10 29 11 30 12 31 13 32 14 33
REMARK INDEX MAP 46 34
ROOT
ATOM      1  C   UNL     1      45.331 -39.157 108.228  1.00  0.00     0.008 A 
ATOM      2  C   UNL     1      46.369 -39.273 107.304  1.00  0.00     0.019 A 
ATOM      3  C   UNL     1      47.460 -38.399 107.345  1.00  0.00     0.048 A 
ATOM      4  C   UNL     1      47.531 -37.401 108.319  1.00  0.00     0.123 A 
ATOM      5  C   UNL     1      46.494 -37.284 109.263  1.00  0.00    -0.008 A 
ATOM      6  C   UNL     1      46.551 -36.238 110.342  1.00  0.00     0.048 C 
ATOM      7  C   UNL     1      45.405 -38.171 109.214  1.00  0.00     0.022 A 
ENDROOT
BRANCH   1   8
ATOM      8  S   UNL     1      43.963 -40.296 108.159  1.00  0.00    -0.117 SA
BRANCH   8   9
ATOM      9  C   UNL     1      42.640 -39.198 107.482  1.00  0.00     0.094 C 
BRANCH   9  10
ATOM     10  C   UNL     1      43.025 -37.719 107.665  1.00  0.00     0.020 C 
BRANCH  10  11
ATOM     11  C   UNL     1      41.902 -36.891 108.303  1.00  0.00    -0.002 C 
ATOM     12  C   UNL     1      40.832 -37.784 108.914  1.00  0.00     0.004 C 
ENDBRANCH  10  11
ENDBRANCH   9  10
BRANCH   9  13
ATOM     13  C   UNL     1      42.377 -39.578 106.044  1.00  0.00     0.041 A 
ATOM     14  S   UNL     1      43.709 -39.980 105.029  1.00  0.00    -0.117 S 
ATOM     15  C   UNL     1      41.204 -39.682 105.310  1.00  0.00     0.053 A 
ATOM     16  C   UNL     1      42.649 -40.265 103.707  1.00  0.00     0.123 A 
ATOM     17  N   UNL     1      41.375 -40.088 103.995  1.00  0.00    -0.241 NA
ATOM     18  C   UNL     1      39.810 -39.427 105.763  1.00  0.00     0.068 C 
BRANCH  16  19
ATOM     19  C   UNL     1      43.136 -40.683 102.374  1.00  0.00     0.010 A 
ATOM     20  C   UNL     1      42.814 -39.890 101.259  1.00  0.00     0.012 A 
ATOM     21  C   UNL     1      43.915 -41.830 102.154  1.00  0.00     0.012 A 
ATOM     22  C   UNL     1      43.248 -40.228  99.972  1.00  0.00     0.014 A 
ATOM     23  C   UNL     1      44.351 -42.172 100.867  1.00  0.00     0.014 A 
ATOM     24  C   UNL     1      44.016 -41.379  99.761  1.00  0.00     0.056 A 
BRANCH  24  25
ATOM     25  C   UNL     1      44.508 -41.738  98.381  1.00  0.00     0.416 C 
ATOM     26  F   UNL     1      43.509 -42.102  97.529  1.00  0.00    -0.166 F 
ATOM     27  F   UNL     1      45.156 -40.703  97.777  1.00  0.00    -0.166 F 
ATOM     28  F   UNL     1      45.389 -42.778  98.385  1.00  0.00    -0.166 F 
ENDBRANCH  24  25
ENDBRANCH  16  19
ENDBRANCH   9  13
ENDBRANCH   8   9
ENDBRANCH   1   8
BRANCH   4  29
ATOM     29  O   UNL     1      48.550 -36.496 108.452  1.00  0.00    -0.482 OA
BRANCH  29  30
ATOM     30  C   UNL     1      48.697 -35.478 107.473  1.00  0.00     0.351 C 
BRANCH  30  31
ATOM     31  C   UNL     1      49.311 -34.180 107.975  1.00  0.00     0.341 C 
ATOM     32  O   UNL     1      49.576 -33.176 107.335  1.00  0.00    -0.248 OA
BRANCH  31  33
ATOM     33  O   UNL     1      49.572 -34.222 109.301  1.00  0.00    -0.479 OA
ATOM     34  H   UNL     1      49.974 -33.437 109.751  1.00  0.00     0.296 HD
ENDBRANCH  31  33
ENDBRANCH  30  31
ENDBRANCH  29  30
ENDBRANCH   4  29
TORSDOF 11
