MODEL 1
REMARK VINA RESULT:   -10.408      0.000      0.000
REMARK INTER + INTRA:         -14.722
REMARK INTER:                 -14.362
REMARK INTRA:                  -0.359
REMARK UNBOUND:                -0.359
REMARK SMILES CS(=O)(=O)N1CC(CC#N)(n2ncc(-c3cc(-c4cccc(CO)c4)cc4ncccc34)n2)C1
REMARK SMILES IDX 15 1 16 2 17 3 26 4 27 5 28 6 29 7 30 8 31 9 32 10 14 11
REMARK SMILES IDX 11 12 12 13 33 14 13 15 7 16 5 17 6 18 34 19 2 20 3 21 4 22
REMARK SMILES IDX 1 23 8 24 9 25 10 26 18 27 19 28 25 29 20 30 22 31 21 32
REMARK SMILES IDX 23 33 24 34
REMARK H PARENT 24 35
ROOT
ATOM      1  C   UNL     1      -3.436  23.701 -29.339  1.00  0.00     0.014 A 
ATOM      2  C   UNL     1      -3.738  25.038 -29.645  1.00  0.00     0.020 A 
ATOM      3  C   UNL     1      -4.432  25.374 -30.811  1.00  0.00    -0.016 A 
ATOM      4  C   UNL     1      -4.815  24.329 -31.666  1.00  0.00     0.037 A 
ATOM      5  C   UNL     1      -4.534  22.996 -31.402  1.00  0.00     0.071 A 
ATOM      6  N   UNL     1      -4.943  22.083 -32.301  1.00  0.00    -0.256 NA
ATOM      7  C   UNL     1      -4.672  20.782 -32.063  1.00  0.00     0.112 A 
ATOM      8  C   UNL     1      -3.992  20.336 -30.952  1.00  0.00     0.021 A 
ATOM      9  C   UNL     1      -3.567  21.284 -30.028  1.00  0.00     0.012 A 
ATOM     10  C   UNL     1      -3.832  22.659 -30.224  1.00  0.00     0.010 A 
ENDROOT
BRANCH   1  11
ATOM     11  C   UNL     1      -2.705  23.438 -28.105  1.00  0.00     0.113 A 
ATOM     12  N   UNL     1      -1.458  23.686 -26.436  1.00  0.00    -0.174 N 
ATOM     13  N   UNL     1      -1.847  22.402 -26.293  1.00  0.00    -0.161 NA
ATOM     14  N   UNL     1      -1.952  24.362 -27.491  1.00  0.00    -0.153 NA
ATOM     15  C   UNL     1      -2.624  22.236 -27.367  1.00  0.00     0.166 A 
BRANCH  12  16
ATOM     16  C   UNL     1      -0.670  24.357 -25.391  1.00  0.00     0.123 C 
ATOM     17  N   UNL     1       0.438  23.758 -23.668  1.00  0.00    -0.197 NA
ATOM     18  C   UNL     1       0.703  23.685 -25.143  1.00  0.00     0.137 C 
ATOM     19  C   UNL     1      -1.030  23.822 -23.987  1.00  0.00     0.137 C 
BRANCH  17  20
ATOM     20  S   UNL     1       1.074  22.698 -22.509  1.00  0.00     0.211 S 
ATOM     21  O   UNL     1       1.149  21.388 -23.117  1.00  0.00    -0.213 OA
ATOM     22  O   UNL     1       0.350  22.923 -21.277  1.00  0.00    -0.213 OA
ATOM     23  C   UNL     1       2.724  23.340 -22.325  1.00  0.00     0.176 C 
ENDBRANCH  17  20
BRANCH  16  24
ATOM     24  C   UNL     1      -0.709  25.871 -25.527  1.00  0.00     0.155 C 
ATOM     25  C   UNL     1       0.514  26.395 -26.149  1.00  0.00     0.065 C 
ATOM     26  N   UNL     1       1.486  26.799 -26.635  1.00  0.00    -0.198 NA
ENDBRANCH  16  24
ENDBRANCH  12  16
ENDBRANCH   1  11
BRANCH   3  27
ATOM     27  C   UNL     1      -4.752  26.775 -31.132  1.00  0.00    -0.018 A 
ATOM     28  C   UNL     1      -5.621  27.093 -32.188  1.00  0.00     0.009 A 
ATOM     29  C   UNL     1      -4.198  27.834 -30.393  1.00  0.00     0.014 A 
ATOM     30  C   UNL     1      -5.921  28.421 -32.498  1.00  0.00     0.001 A 
ATOM     31  C   UNL     1      -4.503  29.172 -30.687  1.00  0.00    -0.022 A 
ATOM     32  C   UNL     1      -5.361  29.457 -31.755  1.00  0.00     0.006 A 
BRANCH  31  33
ATOM     33  C   UNL     1      -3.871  30.286 -29.894  1.00  0.00     0.191 C 
BRANCH  33  34
ATOM     34  O   UNL     1      -2.532  30.498 -30.315  1.00  0.00    -0.392 OA
ATOM     35  H   UNL     1      -2.254  31.374 -29.997  1.00  0.00     0.211 HD
ENDBRANCH  33  34
ENDBRANCH  31  33
ENDBRANCH   3  27
TORSDOF 7
ENDMDL
MODEL 2
REMARK VINA RESULT:   -10.335      2.162      2.611
REMARK INTER + INTRA:         -14.622
REMARK INTER:                 -14.236
REMARK INTRA:                  -0.386
REMARK UNBOUND:                -0.359
REMARK SMILES CS(=O)(=O)N1CC(CC#N)(n2ncc(-c3cc(-c4cccc(CO)c4)cc4ncccc34)n2)C1
REMARK SMILES IDX 15 1 16 2 17 3 26 4 27 5 28 6 29 7 30 8 31 9 32 10 14 11
REMARK SMILES IDX 11 12 12 13 33 14 13 15 7 16 5 17 6 18 34 19 2 20 3 21 4 22
REMARK SMILES IDX 1 23 8 24 9 25 10 26 18 27 19 28 25 29 20 30 22 31 21 32
REMARK SMILES IDX 23 33 24 34
REMARK H PARENT 24 35
ROOT
ATOM      1  C   UNL     1      -3.389  23.680 -29.502  1.00  0.00     0.014 A 
ATOM      2  C   UNL     1      -3.696  25.022 -29.784  1.00  0.00     0.020 A 
ATOM      3  C   UNL     1      -4.457  25.370 -30.904  1.00  0.00    -0.016 A 
ATOM      4  C   UNL     1      -4.902  24.333 -31.738  1.00  0.00     0.037 A 
ATOM      5  C   UNL     1      -4.619  22.995 -31.497  1.00  0.00     0.071 A 
ATOM      6  N   UNL     1      -5.092  22.091 -32.372  1.00  0.00    -0.256 NA
ATOM      7  C   UNL     1      -4.820  20.787 -32.156  1.00  0.00     0.112 A 
ATOM      8  C   UNL     1      -4.077  20.328 -31.091  1.00  0.00     0.021 A 
ATOM      9  C   UNL     1      -3.587  21.268 -30.192  1.00  0.00     0.012 A 
ATOM     10  C   UNL     1      -3.850  22.647 -30.365  1.00  0.00     0.010 A 
ENDROOT
BRANCH   1  11
ATOM     11  C   UNL     1      -2.586  23.404 -28.317  1.00  0.00     0.113 A 
ATOM     12  N   UNL     1      -1.263  23.644 -26.706  1.00  0.00    -0.174 N 
ATOM     13  N   UNL     1      -1.600  22.343 -26.587  1.00  0.00    -0.161 NA
ATOM     14  N   UNL     1      -1.834  24.335 -27.710  1.00  0.00    -0.153 NA
ATOM     15  C   UNL     1      -2.426  22.184 -27.625  1.00  0.00     0.166 A 
BRANCH  12  16
ATOM     16  C   UNL     1      -0.445  24.310 -25.681  1.00  0.00     0.123 C 
ATOM     17  N   UNL     1       1.222  25.643 -25.662  1.00  0.00    -0.197 NA
ATOM     18  C   UNL     1      -0.239  25.819 -25.958  1.00  0.00     0.137 C 
ATOM     19  C   UNL     1       1.062  24.187 -26.001  1.00  0.00     0.137 C 
BRANCH  17  20
ATOM     20  S   UNL     1       2.467  26.597 -26.301  1.00  0.00     0.211 S 
ATOM     21  O   UNL     1       1.986  27.960 -26.351  1.00  0.00    -0.213 OA
ATOM     22  O   UNL     1       2.962  25.923 -27.482  1.00  0.00    -0.213 OA
ATOM     23  C   UNL     1       3.693  26.469 -25.017  1.00  0.00     0.176 C 
ENDBRANCH  17  20
BRANCH  16  24
ATOM     24  C   UNL     1      -0.835  23.889 -24.273  1.00  0.00     0.155 C 
ATOM     25  C   UNL     1      -1.845  24.785 -23.695  1.00  0.00     0.065 C 
ATOM     26  N   UNL     1      -2.637  25.502 -23.246  1.00  0.00    -0.198 NA
ENDBRANCH  16  24
ENDBRANCH  12  16
ENDBRANCH   1  11
BRANCH   3  27
ATOM     27  C   UNL     1      -4.783  26.775 -31.198  1.00  0.00    -0.018 A 
ATOM     28  C   UNL     1      -5.653  27.110 -32.248  1.00  0.00     0.009 A 
ATOM     29  C   UNL     1      -4.231  27.822 -30.440  1.00  0.00     0.014 A 
ATOM     30  C   UNL     1      -5.958  28.443 -32.533  1.00  0.00     0.001 A 
ATOM     31  C   UNL     1      -4.541  29.165 -30.710  1.00  0.00    -0.022 A 
ATOM     32  C   UNL     1      -5.401  29.467 -31.771  1.00  0.00     0.006 A 
BRANCH  31  33
ATOM     33  C   UNL     1      -3.913  30.266 -29.896  1.00  0.00     0.191 C 
BRANCH  33  34
ATOM     34  O   UNL     1      -2.563  30.466 -30.290  1.00  0.00    -0.392 OA
ATOM     35  H   UNL     1      -2.490  31.360 -30.665  1.00  0.00     0.211 HD
ENDBRANCH  33  34
ENDBRANCH  31  33
ENDBRANCH   3  27
TORSDOF 7
ENDMDL
MODEL 3
REMARK VINA RESULT:   -10.215      4.199      7.909
REMARK INTER + INTRA:         -14.456
REMARK INTER:                 -14.247
REMARK INTRA:                  -0.209
REMARK UNBOUND:                -0.359
REMARK SMILES CS(=O)(=O)N1CC(CC#N)(n2ncc(-c3cc(-c4cccc(CO)c4)cc4ncccc34)n2)C1
REMARK SMILES IDX 15 1 16 2 17 3 26 4 27 5 28 6 29 7 30 8 31 9 32 10 14 11
REMARK SMILES IDX 11 12 12 13 33 14 13 15 7 16 5 17 6 18 34 19 2 20 3 21 4 22
REMARK SMILES IDX 1 23 8 24 9 25 10 26 18 27 19 28 25 29 20 30 22 31 21 32
REMARK SMILES IDX 23 33 24 34
REMARK H PARENT 24 35
ROOT
ATOM      1  C   UNL     1      -4.518  26.869 -30.774  1.00  0.00     0.014 A 
ATOM      2  C   UNL     1      -3.862  25.941 -29.948  1.00  0.00     0.020 A 
ATOM      3  C   UNL     1      -3.896  24.572 -30.228  1.00  0.00    -0.016 A 
ATOM      4  C   UNL     1      -4.611  24.156 -31.362  1.00  0.00     0.037 A 
ATOM      5  C   UNL     1      -5.275  25.040 -32.202  1.00  0.00     0.071 A 
ATOM      6  N   UNL     1      -5.935  24.523 -33.254  1.00  0.00    -0.256 NA
ATOM      7  C   UNL     1      -6.591  25.367 -34.077  1.00  0.00     0.112 A 
ATOM      8  C   UNL     1      -6.630  26.732 -33.897  1.00  0.00     0.021 A 
ATOM      9  C   UNL     1      -5.950  27.260 -32.806  1.00  0.00     0.012 A 
ATOM     10  C   UNL     1      -5.238  26.422 -31.916  1.00  0.00     0.010 A 
ENDROOT
BRANCH   1  11
ATOM     11  C   UNL     1      -4.435  28.277 -30.407  1.00  0.00     0.113 A 
ATOM     12  N   UNL     1      -4.079  30.036 -29.320  1.00  0.00    -0.174 N 
ATOM     13  N   UNL     1      -4.612  30.527 -30.458  1.00  0.00    -0.161 NA
ATOM     14  N   UNL     1      -3.932  28.700 -29.238  1.00  0.00    -0.153 NA
ATOM     15  C   UNL     1      -4.859  29.406 -31.143  1.00  0.00     0.166 A 
BRANCH  12  16
ATOM     16  C   UNL     1      -3.529  30.936 -28.294  1.00  0.00     0.123 C 
ATOM     17  N   UNL     1      -4.242  32.590 -27.149  1.00  0.00    -0.197 NA
ATOM     18  C   UNL     1      -4.468  31.108 -27.074  1.00  0.00     0.137 C 
ATOM     19  C   UNL     1      -3.879  32.410 -28.597  1.00  0.00     0.137 C 
BRANCH  17  20
ATOM     20  S   UNL     1      -5.337  33.770 -26.622  1.00  0.00     0.211 S 
ATOM     21  O   UNL     1      -6.443  33.781 -27.554  1.00  0.00    -0.213 OA
ATOM     22  O   UNL     1      -4.575  34.966 -26.335  1.00  0.00    -0.213 OA
ATOM     23  C   UNL     1      -5.889  33.065 -25.084  1.00  0.00     0.176 C 
ENDBRANCH  17  20
BRANCH  16  24
ATOM     24  C   UNL     1      -2.056  30.671 -28.029  1.00  0.00     0.155 C 
ATOM     25  C   UNL     1      -1.201  31.247 -29.074  1.00  0.00     0.065 C 
ATOM     26  N   UNL     1      -0.535  31.700 -29.909  1.00  0.00    -0.198 NA
ENDBRANCH  16  24
ENDBRANCH  12  16
ENDBRANCH   1  11
BRANCH   3  27
ATOM     27  C   UNL     1      -3.206  23.598 -29.366  1.00  0.00    -0.018 A 
ATOM     28  C   UNL     1      -3.232  22.226 -29.662  1.00  0.00     0.009 A 
ATOM     29  C   UNL     1      -2.503  24.013 -28.221  1.00  0.00     0.014 A 
ATOM     30  C   UNL     1      -2.583  21.300 -28.841  1.00  0.00     0.001 A 
ATOM     31  C   UNL     1      -1.836  23.092 -27.397  1.00  0.00    -0.022 A 
ATOM     32  C   UNL     1      -1.893  21.730 -27.710  1.00  0.00     0.006 A 
BRANCH  31  33
ATOM     33  C   UNL     1      -1.115  23.565 -26.162  1.00  0.00     0.191 C 
BRANCH  33  34
ATOM     34  O   UNL     1       0.159  24.091 -26.502  1.00  0.00    -0.392 OA
ATOM     35  H   UNL     1       0.835  23.467 -26.186  1.00  0.00     0.211 HD
ENDBRANCH  33  34
ENDBRANCH  31  33
ENDBRANCH   3  27
TORSDOF 7
ENDMDL
MODEL 4
REMARK VINA RESULT:   -10.149      3.696      7.127
REMARK INTER + INTRA:         -14.365
REMARK INTER:                 -14.128
REMARK INTRA:                  -0.237
REMARK UNBOUND:                -0.359
REMARK SMILES CS(=O)(=O)N1CC(CC#N)(n2ncc(-c3cc(-c4cccc(CO)c4)cc4ncccc34)n2)C1
REMARK SMILES IDX 15 1 16 2 17 3 26 4 27 5 28 6 29 7 30 8 31 9 32 10 14 11
REMARK SMILES IDX 11 12 12 13 33 14 13 15 7 16 5 17 6 18 34 19 2 20 3 21 4 22
REMARK SMILES IDX 1 23 8 24 9 25 10 26 18 27 19 28 25 29 20 30 22 31 21 32
REMARK SMILES IDX 23 33 24 34
REMARK H PARENT 24 35
ROOT
ATOM      1  C   UNL     1      -4.653  26.433 -30.921  1.00  0.00     0.014 A 
ATOM      2  C   UNL     1      -3.978  25.607 -30.008  1.00  0.00     0.020 A 
ATOM      3  C   UNL     1      -3.960  24.218 -30.166  1.00  0.00    -0.016 A 
ATOM      4  C   UNL     1      -4.643  23.677 -31.266  1.00  0.00     0.037 A 
ATOM      5  C   UNL     1      -5.325  24.458 -32.189  1.00  0.00     0.071 A 
ATOM      6  N   UNL     1      -5.950  23.827 -33.198  1.00  0.00    -0.256 NA
ATOM      7  C   UNL     1      -6.623  24.571 -34.101  1.00  0.00     0.112 A 
ATOM      8  C   UNL     1      -6.712  25.944 -34.044  1.00  0.00     0.021 A 
ATOM      9  C   UNL     1      -6.067  26.591 -32.997  1.00  0.00     0.012 A 
ATOM     10  C   UNL     1      -5.340  25.861 -32.028  1.00  0.00     0.010 A 
ENDROOT
BRANCH   1  11
ATOM     11  C   UNL     1      -4.626  27.871 -30.681  1.00  0.00     0.113 A 
ATOM     12  N   UNL     1      -4.293  29.734 -29.775  1.00  0.00    -0.174 N 
ATOM     13  N   UNL     1      -4.934  30.095 -30.906  1.00  0.00    -0.161 NA
ATOM     14  N   UNL     1      -4.064  28.420 -29.593  1.00  0.00    -0.153 NA
ATOM     15  C   UNL     1      -5.165  28.908 -31.474  1.00  0.00     0.166 A 
BRANCH  12  16
ATOM     16  C   UNL     1      -3.723  30.747 -28.873  1.00  0.00     0.123 C 
ATOM     17  N   UNL     1      -1.930  30.967 -27.736  1.00  0.00    -0.197 NA
ATOM     18  C   UNL     1      -2.247  31.085 -29.198  1.00  0.00     0.137 C 
ATOM     19  C   UNL     1      -3.147  30.096 -27.594  1.00  0.00     0.137 C 
BRANCH  17  20
ATOM     20  S   UNL     1      -0.420  30.537 -27.098  1.00  0.00     0.211 S 
ATOM     21  O   UNL     1       0.591  31.150 -27.929  1.00  0.00    -0.213 OA
ATOM     22  O   UNL     1      -0.445  29.110 -26.861  1.00  0.00    -0.213 OA
ATOM     23  C   UNL     1      -0.459  31.375 -25.528  1.00  0.00     0.176 C 
ENDBRANCH  17  20
BRANCH  16  24
ATOM     24  C   UNL     1      -4.682  31.900 -28.626  1.00  0.00     0.155 C 
ATOM     25  C   UNL     1      -4.314  33.091 -29.402  1.00  0.00     0.065 C 
ATOM     26  N   UNL     1      -4.010  34.029 -30.013  1.00  0.00    -0.198 NA
ENDBRANCH  16  24
ENDBRANCH  12  16
ENDBRANCH   1  11
BRANCH   3  27
ATOM     27  C   UNL     1      -3.250  23.350 -29.211  1.00  0.00    -0.018 A 
ATOM     28  C   UNL     1      -3.319  21.952 -29.317  1.00  0.00     0.009 A 
ATOM     29  C   UNL     1      -2.483  23.895 -28.167  1.00  0.00     0.014 A 
ATOM     30  C   UNL     1      -2.651  21.127 -28.409  1.00  0.00     0.001 A 
ATOM     31  C   UNL     1      -1.796  23.076 -27.256  1.00  0.00    -0.022 A 
ATOM     32  C   UNL     1      -1.898  21.686 -27.379  1.00  0.00     0.006 A 
BRANCH  31  33
ATOM     33  C   UNL     1      -1.005  23.689 -26.131  1.00  0.00     0.191 C 
BRANCH  33  34
ATOM     34  O   UNL     1       0.305  24.019 -26.568  1.00  0.00    -0.392 OA
ATOM     35  H   UNL     1       0.342  24.982 -26.704  1.00  0.00     0.211 HD
ENDBRANCH  33  34
ENDBRANCH  31  33
ENDBRANCH   3  27
TORSDOF 7
ENDMDL
MODEL 5
REMARK VINA RESULT:   -10.009      4.256      8.008
REMARK INTER + INTRA:         -14.172
REMARK INTER:                 -13.951
REMARK INTRA:                  -0.222
REMARK UNBOUND:                -0.359
REMARK SMILES CS(=O)(=O)N1CC(CC#N)(n2ncc(-c3cc(-c4cccc(CO)c4)cc4ncccc34)n2)C1
REMARK SMILES IDX 15 1 16 2 17 3 26 4 27 5 28 6 29 7 30 8 31 9 32 10 14 11
REMARK SMILES IDX 11 12 12 13 33 14 13 15 7 16 5 17 6 18 34 19 2 20 3 21 4 22
REMARK SMILES IDX 1 23 8 24 9 25 10 26 18 27 19 28 25 29 20 30 22 31 21 32
REMARK SMILES IDX 23 33 24 34
REMARK H PARENT 24 35
ROOT
ATOM      1  C   UNL     1      -4.631  26.938 -30.910  1.00  0.00     0.014 A 
ATOM      2  C   UNL     1      -3.936  26.127 -29.999  1.00  0.00     0.020 A 
ATOM      3  C   UNL     1      -3.905  24.737 -30.146  1.00  0.00    -0.016 A 
ATOM      4  C   UNL     1      -4.593  24.180 -31.234  1.00  0.00     0.037 A 
ATOM      5  C   UNL     1      -5.295  24.947 -32.156  1.00  0.00     0.071 A 
ATOM      6  N   UNL     1      -5.924  24.300 -33.153  1.00  0.00    -0.256 NA
ATOM      7  C   UNL     1      -6.616  25.029 -34.054  1.00  0.00     0.112 A 
ATOM      8  C   UNL     1      -6.720  26.402 -34.006  1.00  0.00     0.021 A 
ATOM      9  C   UNL     1      -6.071  27.064 -32.971  1.00  0.00     0.012 A 
ATOM     10  C   UNL     1      -5.324  26.350 -32.004  1.00  0.00     0.010 A 
ENDROOT
BRANCH   1  11
ATOM     11  C   UNL     1      -4.617  28.378 -30.681  1.00  0.00     0.113 A 
ATOM     12  N   UNL     1      -4.252  30.255 -29.817  1.00  0.00    -0.174 N 
ATOM     13  N   UNL     1      -4.997  30.593 -30.891  1.00  0.00    -0.161 NA
ATOM     14  N   UNL     1      -3.978  28.948 -29.649  1.00  0.00    -0.153 NA
ATOM     15  C   UNL     1      -5.247  29.396 -31.430  1.00  0.00     0.166 A 
BRANCH  12  16
ATOM     16  C   UNL     1      -3.632  31.288 -28.973  1.00  0.00     0.123 C 
ATOM     17  N   UNL     1      -4.317  32.867 -27.711  1.00  0.00    -0.197 NA
ATOM     18  C   UNL     1      -4.263  31.375 -27.561  1.00  0.00     0.137 C 
ATOM     19  C   UNL     1      -4.290  32.667 -29.201  1.00  0.00     0.137 C 
BRANCH  17  20
ATOM     20  S   UNL     1      -5.436  33.884 -26.946  1.00  0.00     0.211 S 
ATOM     21  O   UNL     1      -5.461  33.523 -25.546  1.00  0.00    -0.213 OA
ATOM     22  O   UNL     1      -6.637  33.884 -27.753  1.00  0.00    -0.213 OA
ATOM     23  C   UNL     1      -4.637  35.465 -27.117  1.00  0.00     0.176 C 
ENDBRANCH  17  20
BRANCH  16  24
ATOM     24  C   UNL     1      -2.115  31.279 -29.078  1.00  0.00     0.155 C 
ATOM     25  C   UNL     1      -1.485  30.810 -27.837  1.00  0.00     0.065 C 
ATOM     26  N   UNL     1      -0.998  30.445 -26.850  1.00  0.00    -0.198 NA
ENDBRANCH  16  24
ENDBRANCH  12  16
ENDBRANCH   1  11
BRANCH   3  27
ATOM     27  C   UNL     1      -3.173  23.885 -29.193  1.00  0.00    -0.018 A 
ATOM     28  C   UNL     1      -2.820  22.567 -29.527  1.00  0.00     0.009 A 
ATOM     29  C   UNL     1      -2.808  24.364 -27.924  1.00  0.00     0.014 A 
ATOM     30  C   UNL     1      -2.133  21.755 -28.622  1.00  0.00     0.001 A 
ATOM     31  C   UNL     1      -2.105  23.560 -27.011  1.00  0.00    -0.022 A 
ATOM     32  C   UNL     1      -1.781  22.247 -27.368  1.00  0.00     0.006 A 
BRANCH  31  33
ATOM     33  C   UNL     1      -1.752  24.093 -25.648  1.00  0.00     0.191 C 
BRANCH  33  34
ATOM     34  O   UNL     1      -2.839  24.827 -25.105  1.00  0.00    -0.392 OA
ATOM     35  H   UNL     1      -3.552  24.839 -25.766  1.00  0.00     0.211 HD
ENDBRANCH  33  34
ENDBRANCH  31  33
ENDBRANCH   3  27
TORSDOF 7
ENDMDL
MODEL 6
REMARK VINA RESULT:    -9.901      4.071      8.148
REMARK INTER + INTRA:         -14.022
REMARK INTER:                 -13.827
REMARK INTRA:                  -0.196
REMARK UNBOUND:                -0.359
REMARK SMILES CS(=O)(=O)N1CC(CC#N)(n2ncc(-c3cc(-c4cccc(CO)c4)cc4ncccc34)n2)C1
REMARK SMILES IDX 15 1 16 2 17 3 26 4 27 5 28 6 29 7 30 8 31 9 32 10 14 11
REMARK SMILES IDX 11 12 12 13 33 14 13 15 7 16 5 17 6 18 34 19 2 20 3 21 4 22
REMARK SMILES IDX 1 23 8 24 9 25 10 26 18 27 19 28 25 29 20 30 22 31 21 32
REMARK SMILES IDX 23 33 24 34
REMARK H PARENT 24 35
ROOT
ATOM      1  C   UNL     1      -4.459  26.354 -30.529  1.00  0.00     0.014 A 
ATOM      2  C   UNL     1      -3.821  25.616 -29.519  1.00  0.00     0.020 A 
ATOM      3  C   UNL     1      -3.744  24.221 -29.582  1.00  0.00    -0.016 A 
ATOM      4  C   UNL     1      -4.327  23.584 -30.688  1.00  0.00     0.037 A 
ATOM      5  C   UNL     1      -4.968  24.277 -31.706  1.00  0.00     0.071 A 
ATOM      6  N   UNL     1      -5.498  23.558 -32.712  1.00  0.00    -0.256 NA
ATOM      7  C   UNL     1      -6.130  24.215 -33.706  1.00  0.00     0.112 A 
ATOM      8  C   UNL     1      -6.272  25.584 -33.747  1.00  0.00     0.021 A 
ATOM      9  C   UNL     1      -5.726  26.322 -32.703  1.00  0.00     0.012 A 
ATOM     10  C   UNL     1      -5.045  25.685 -31.640  1.00  0.00     0.010 A 
ENDROOT
BRANCH   1  11
ATOM     11  C   UNL     1      -4.499  27.804 -30.384  1.00  0.00     0.113 A 
ATOM     12  N   UNL     1      -4.329  29.731 -29.571  1.00  0.00    -0.174 N 
ATOM     13  N   UNL     1      -4.837  29.998 -30.793  1.00  0.00    -0.161 NA
ATOM     14  N   UNL     1      -4.090  28.440 -29.276  1.00  0.00    -0.153 NA
ATOM     15  C   UNL     1      -4.965  28.770 -31.304  1.00  0.00     0.166 A 
BRANCH  12  16
ATOM     16  C   UNL     1      -3.901  30.818 -28.677  1.00  0.00     0.123 C 
ATOM     17  N   UNL     1      -3.742  32.943 -28.796  1.00  0.00    -0.197 NA
ATOM     18  C   UNL     1      -4.900  32.001 -28.641  1.00  0.00     0.137 C 
ATOM     19  C   UNL     1      -2.968  31.809 -29.408  1.00  0.00     0.137 C 
BRANCH  17  20
ATOM     20  S   UNL     1      -3.825  34.480 -29.505  1.00  0.00     0.211 S 
ATOM     21  O   UNL     1      -4.879  34.444 -30.494  1.00  0.00    -0.213 OA
ATOM     22  O   UNL     1      -2.474  34.867 -29.849  1.00  0.00    -0.213 OA
ATOM     23  C   UNL     1      -4.365  35.466 -28.126  1.00  0.00     0.176 C 
ENDBRANCH  17  20
BRANCH  16  24
ATOM     24  C   UNL     1      -3.366  30.294 -27.354  1.00  0.00     0.155 C 
ATOM     25  C   UNL     1      -1.903  30.393 -27.279  1.00  0.00     0.065 C 
ATOM     26  N   UNL     1      -0.747  30.469 -27.234  1.00  0.00    -0.198 NA
ENDBRANCH  16  24
ENDBRANCH  12  16
ENDBRANCH   1  11
BRANCH   3  27
ATOM     27  C   UNL     1      -3.073  23.445 -28.525  1.00  0.00    -0.018 A 
ATOM     28  C   UNL     1      -2.846  22.067 -28.674  1.00  0.00     0.009 A 
ATOM     29  C   UNL     1      -2.641  24.059 -27.337  1.00  0.00     0.014 A 
ATOM     30  C   UNL     1      -2.216  21.329 -27.670  1.00  0.00     0.001 A 
ATOM     31  C   UNL     1      -1.994  23.329 -26.327  1.00  0.00    -0.022 A 
ATOM     32  C   UNL     1      -1.797  21.955 -26.499  1.00  0.00     0.006 A 
BRANCH  31  33
ATOM     33  C   UNL     1      -1.568  24.010 -25.054  1.00  0.00     0.191 C 
BRANCH  33  34
ATOM     34  O   UNL     1      -2.682  24.627 -24.423  1.00  0.00    -0.392 OA
ATOM     35  H   UNL     1      -2.652  25.578 -24.627  1.00  0.00     0.211 HD
ENDBRANCH  33  34
ENDBRANCH  31  33
ENDBRANCH   3  27
TORSDOF 7
ENDMDL
MODEL 7
REMARK VINA RESULT:    -9.862      4.206      7.755
REMARK INTER + INTRA:         -13.969
REMARK INTER:                 -13.681
REMARK INTRA:                  -0.288
REMARK UNBOUND:                -0.359
REMARK SMILES CS(=O)(=O)N1CC(CC#N)(n2ncc(-c3cc(-c4cccc(CO)c4)cc4ncccc34)n2)C1
REMARK SMILES IDX 15 1 16 2 17 3 26 4 27 5 28 6 29 7 30 8 31 9 32 10 14 11
REMARK SMILES IDX 11 12 12 13 33 14 13 15 7 16 5 17 6 18 34 19 2 20 3 21 4 22
REMARK SMILES IDX 1 23 8 24 9 25 10 26 18 27 19 28 25 29 20 30 22 31 21 32
REMARK SMILES IDX 23 33 24 34
REMARK H PARENT 24 35
ROOT
ATOM      1  C   UNL     1      -4.638  27.419 -30.828  1.00  0.00     0.014 A 
ATOM      2  C   UNL     1      -3.965  26.674 -29.845  1.00  0.00     0.020 A 
ATOM      3  C   UNL     1      -3.917  25.278 -29.902  1.00  0.00    -0.016 A 
ATOM      4  C   UNL     1      -4.565  24.646 -30.974  1.00  0.00     0.037 A 
ATOM      5  C   UNL     1      -5.243  25.344 -31.964  1.00  0.00     0.071 A 
ATOM      6  N   UNL     1      -5.835  24.629 -32.937  1.00  0.00    -0.256 NA
ATOM      7  C   UNL     1      -6.503  25.292 -33.904  1.00  0.00     0.112 A 
ATOM      8  C   UNL     1      -6.620  26.663 -33.948  1.00  0.00     0.021 A 
ATOM      9  C   UNL     1      -6.011  27.397 -32.937  1.00  0.00     0.012 A 
ATOM     10  C   UNL     1      -5.290  26.754 -31.904  1.00  0.00     0.010 A 
ENDROOT
BRANCH   1  11
ATOM     11  C   UNL     1      -4.643  28.870 -30.692  1.00  0.00     0.113 A 
ATOM     12  N   UNL     1      -4.300  30.804 -29.953  1.00  0.00    -0.174 N 
ATOM     13  N   UNL     1      -5.058  31.061 -31.039  1.00  0.00    -0.161 NA
ATOM     14  N   UNL     1      -4.004  29.514 -29.704  1.00  0.00    -0.153 NA
ATOM     15  C   UNL     1      -5.295  29.829 -31.499  1.00  0.00     0.166 A 
BRANCH  12  16
ATOM     16  C   UNL     1      -3.688  31.897 -29.182  1.00  0.00     0.123 C 
ATOM     17  N   UNL     1      -2.184  32.071 -27.677  1.00  0.00    -0.197 NA
ATOM     18  C   UNL     1      -2.141  31.828 -29.158  1.00  0.00     0.137 C 
ATOM     19  C   UNL     1      -3.589  31.536 -27.682  1.00  0.00     0.137 C 
BRANCH  17  20
ATOM     20  S   UNL     1      -1.013  31.548 -26.570  1.00  0.00     0.211 S 
ATOM     21  O   UNL     1      -0.747  30.154 -26.847  1.00  0.00    -0.213 OA
ATOM     22  O   UNL     1      -1.432  31.995 -25.259  1.00  0.00    -0.213 OA
ATOM     23  C   UNL     1       0.394  32.512 -27.077  1.00  0.00     0.176 C 
ENDBRANCH  17  20
BRANCH  16  24
ATOM     24  C   UNL     1      -4.338  33.240 -29.475  1.00  0.00     0.155 C 
ATOM     25  C   UNL     1      -5.356  33.582 -28.474  1.00  0.00     0.065 C 
ATOM     26  N   UNL     1      -6.164  33.840 -27.683  1.00  0.00    -0.198 NA
ENDBRANCH  16  24
ENDBRANCH  12  16
ENDBRANCH   1  11
BRANCH   3  27
ATOM     27  C   UNL     1      -3.210  24.496 -28.874  1.00  0.00    -0.018 A 
ATOM     28  C   UNL     1      -2.598  25.129 -27.779  1.00  0.00     0.009 A 
ATOM     29  C   UNL     1      -3.124  23.096 -28.958  1.00  0.00     0.014 A 
ATOM     30  C   UNL     1      -1.921  24.390 -26.807  1.00  0.00     0.001 A 
ATOM     31  C   UNL     1      -2.457  22.342 -27.979  1.00  0.00    -0.022 A 
ATOM     32  C   UNL     1      -1.845  23.003 -26.909  1.00  0.00     0.006 A 
BRANCH  31  33
ATOM     33  C   UNL     1      -2.359  20.845 -28.112  1.00  0.00     0.191 C 
BRANCH  33  34
ATOM     34  O   UNL     1      -1.984  20.260 -26.874  1.00  0.00    -0.392 OA
ATOM     35  H   UNL     1      -1.249  19.646 -27.044  1.00  0.00     0.211 HD
ENDBRANCH  33  34
ENDBRANCH  31  33
ENDBRANCH   3  27
TORSDOF 7
ENDMDL
MODEL 8
REMARK VINA RESULT:    -9.851      2.599      3.235
REMARK INTER + INTRA:         -13.953
REMARK INTER:                 -13.082
REMARK INTRA:                  -0.871
REMARK UNBOUND:                -0.359
REMARK SMILES CS(=O)(=O)N1CC(CC#N)(n2ncc(-c3cc(-c4cccc(CO)c4)cc4ncccc34)n2)C1
REMARK SMILES IDX 15 1 16 2 17 3 26 4 27 5 28 6 29 7 30 8 31 9 32 10 14 11
REMARK SMILES IDX 11 12 12 13 33 14 13 15 7 16 5 17 6 18 34 19 2 20 3 21 4 22
REMARK SMILES IDX 1 23 8 24 9 25 10 26 18 27 19 28 25 29 20 30 22 31 21 32
REMARK SMILES IDX 23 33 24 34
REMARK H PARENT 24 35
ROOT
ATOM      1  C   UNL     1      -2.716  24.367 -28.300  1.00  0.00     0.014 A 
ATOM      2  C   UNL     1      -3.270  25.478 -28.958  1.00  0.00     0.020 A 
ATOM      3  C   UNL     1      -3.949  25.335 -30.171  1.00  0.00    -0.016 A 
ATOM      4  C   UNL     1      -4.057  24.044 -30.710  1.00  0.00     0.037 A 
ATOM      5  C   UNL     1      -3.522  22.921 -30.094  1.00  0.00     0.071 A 
ATOM      6  N   UNL     1      -3.681  21.737 -30.711  1.00  0.00    -0.256 NA
ATOM      7  C   UNL     1      -3.161  20.636 -30.128  1.00  0.00     0.112 A 
ATOM      8  C   UNL     1      -2.470  20.657 -28.938  1.00  0.00     0.021 A 
ATOM      9  C   UNL     1      -2.305  21.884 -28.307  1.00  0.00     0.012 A 
ATOM     10  C   UNL     1      -2.837  23.069 -28.869  1.00  0.00     0.010 A 
ENDROOT
BRANCH   1  11
ATOM     11  C   UNL     1      -2.020  24.604 -27.041  1.00  0.00     0.113 A 
ATOM     12  N   UNL     1      -0.512  24.701 -25.585  1.00  0.00    -0.174 N 
ATOM     13  N   UNL     1      -1.582  25.147 -24.895  1.00  0.00    -0.161 NA
ATOM     14  N   UNL     1      -0.708  24.378 -26.877  1.00  0.00    -0.153 NA
ATOM     15  C   UNL     1      -2.548  25.066 -25.815  1.00  0.00     0.166 A 
BRANCH  12  16
ATOM     16  C   UNL     1       0.835  24.732 -24.994  1.00  0.00     0.123 C 
ATOM     17  N   UNL     1       2.749  25.493 -25.555  1.00  0.00    -0.197 NA
ATOM     18  C   UNL     1       1.489  26.135 -25.052  1.00  0.00     0.137 C 
ATOM     19  C   UNL     1       1.910  24.341 -26.034  1.00  0.00     0.137 C 
BRANCH  17  20
ATOM     20  S   UNL     1       3.904  26.251 -26.536  1.00  0.00     0.211 S 
ATOM     21  O   UNL     1       4.183  27.545 -25.955  1.00  0.00    -0.213 OA
ATOM     22  O   UNL     1       3.460  26.114 -27.906  1.00  0.00    -0.213 OA
ATOM     23  C   UNL     1       5.313  25.194 -26.287  1.00  0.00     0.176 C 
ENDBRANCH  17  20
BRANCH  16  24
ATOM     24  C   UNL     1       0.904  23.965 -23.684  1.00  0.00     0.155 C 
ATOM     25  C   UNL     1       0.729  22.521 -23.886  1.00  0.00     0.065 C 
ATOM     26  N   UNL     1       0.582  21.384 -24.056  1.00  0.00    -0.198 NA
ENDBRANCH  16  24
ENDBRANCH  12  16
ENDBRANCH   1  11
BRANCH   3  27
ATOM     27  C   UNL     1      -4.533  26.498 -30.860  1.00  0.00    -0.018 A 
ATOM     28  C   UNL     1      -5.328  26.334 -32.007  1.00  0.00     0.009 A 
ATOM     29  C   UNL     1      -4.312  27.805 -30.393  1.00  0.00     0.014 A 
ATOM     30  C   UNL     1      -5.877  27.436 -32.666  1.00  0.00     0.001 A 
ATOM     31  C   UNL     1      -4.871  28.919 -31.040  1.00  0.00    -0.022 A 
ATOM     32  C   UNL     1      -5.645  28.724 -32.188  1.00  0.00     0.006 A 
BRANCH  31  33
ATOM     33  C   UNL     1      -4.593  30.309 -30.531  1.00  0.00     0.191 C 
BRANCH  33  34
ATOM     34  O   UNL     1      -5.306  31.270 -31.296  1.00  0.00    -0.392 OA
ATOM     35  H   UNL     1      -6.251  31.176 -31.087  1.00  0.00     0.211 HD
ENDBRANCH  33  34
ENDBRANCH  31  33
ENDBRANCH   3  27
TORSDOF 7
ENDMDL
MODEL 9
REMARK VINA RESULT:    -9.627      4.173      7.965
REMARK INTER + INTRA:         -13.645
REMARK INTER:                 -13.513
REMARK INTRA:                  -0.132
REMARK UNBOUND:                -0.359
REMARK SMILES CS(=O)(=O)N1CC(CC#N)(n2ncc(-c3cc(-c4cccc(CO)c4)cc4ncccc34)n2)C1
REMARK SMILES IDX 15 1 16 2 17 3 26 4 27 5 28 6 29 7 30 8 31 9 32 10 14 11
REMARK SMILES IDX 11 12 12 13 33 14 13 15 7 16 5 17 6 18 34 19 2 20 3 21 4 22
REMARK SMILES IDX 1 23 8 24 9 25 10 26 18 27 19 28 25 29 20 30 22 31 21 32
REMARK SMILES IDX 23 33 24 34
REMARK H PARENT 24 35
ROOT
ATOM      1  C   UNL     1      -4.438  26.929 -30.575  1.00  0.00     0.014 A 
ATOM      2  C   UNL     1      -3.809  26.054 -29.674  1.00  0.00     0.020 A 
ATOM      3  C   UNL     1      -3.841  24.670 -29.868  1.00  0.00    -0.016 A 
ATOM      4  C   UNL     1      -4.525  24.184 -30.993  1.00  0.00     0.037 A 
ATOM      5  C   UNL     1      -5.162  25.015 -31.906  1.00  0.00     0.071 A 
ATOM      6  N   UNL     1      -5.794  24.434 -32.941  1.00  0.00    -0.256 NA
ATOM      7  C   UNL     1      -6.424  25.226 -33.834  1.00  0.00     0.112 A 
ATOM      8  C   UNL     1      -6.462  26.599 -33.742  1.00  0.00     0.021 A 
ATOM      9  C   UNL     1      -5.811  27.194 -32.668  1.00  0.00     0.012 A 
ATOM     10  C   UNL     1      -5.127  26.412 -31.707  1.00  0.00     0.010 A 
ENDROOT
BRANCH   1  11
ATOM     11  C   UNL     1      -4.360  28.358 -30.296  1.00  0.00     0.113 A 
ATOM     12  N   UNL     1      -3.958  30.183 -29.343  1.00  0.00    -0.174 N 
ATOM     13  N   UNL     1      -4.595  30.596 -30.458  1.00  0.00    -0.161 NA
ATOM     14  N   UNL     1      -3.772  28.857 -29.199  1.00  0.00    -0.153 NA
ATOM     15  C   UNL     1      -4.870  29.433 -31.056  1.00  0.00     0.166 A 
BRANCH  12  16
ATOM     16  C   UNL     1      -3.348  31.151 -28.419  1.00  0.00     0.123 C 
ATOM     17  N   UNL     1      -1.893  32.707 -28.552  1.00  0.00    -0.197 NA
ATOM     18  C   UNL     1      -3.326  32.594 -28.981  1.00  0.00     0.137 C 
ATOM     19  C   UNL     1      -1.814  31.207 -28.599  1.00  0.00     0.137 C 
BRANCH  17  20
ATOM     20  S   UNL     1      -0.734  33.705 -29.280  1.00  0.00     0.211 S 
ATOM     21  O   UNL     1      -1.443  34.764 -29.964  1.00  0.00    -0.213 OA
ATOM     22  O   UNL     1       0.199  32.845 -29.975  1.00  0.00    -0.213 OA
ATOM     23  C   UNL     1       0.079  34.388 -27.852  1.00  0.00     0.176 C 
ENDBRANCH  17  20
BRANCH  16  24
ATOM     24  C   UNL     1      -3.816  30.950 -26.986  1.00  0.00     0.155 C 
ATOM     25  C   UNL     1      -4.786  31.974 -26.580  1.00  0.00     0.065 C 
ATOM     26  N   UNL     1      -5.546  32.792 -26.267  1.00  0.00    -0.198 NA
ENDBRANCH  16  24
ENDBRANCH  12  16
ENDBRANCH   1  11
BRANCH   3  27
ATOM     27  C   UNL     1      -3.179  23.751 -28.927  1.00  0.00    -0.018 A 
ATOM     28  C   UNL     1      -2.942  22.411 -29.272  1.00  0.00     0.009 A 
ATOM     29  C   UNL     1      -2.766  24.188 -27.656  1.00  0.00     0.014 A 
ATOM     30  C   UNL     1      -2.321  21.536 -28.377  1.00  0.00     0.001 A 
ATOM     31  C   UNL     1      -2.129  23.321 -26.754  1.00  0.00    -0.022 A 
ATOM     32  C   UNL     1      -1.920  21.987 -27.122  1.00  0.00     0.006 A 
BRANCH  31  33
ATOM     33  C   UNL     1      -1.723  23.811 -25.389  1.00  0.00     0.191 C 
BRANCH  33  34
ATOM     34  O   UNL     1      -2.737  24.639 -24.838  1.00  0.00    -0.392 OA
ATOM     35  H   UNL     1      -3.479  24.069 -24.575  1.00  0.00     0.211 HD
ENDBRANCH  33  34
ENDBRANCH  31  33
ENDBRANCH   3  27
TORSDOF 7
ENDMDL
