MODEL 1
REMARK VINA RESULT:    -7.850      0.000      0.000
REMARK INTER + INTRA:         -10.801
REMARK INTER:                  -9.915
REMARK INTRA:                  -0.887
REMARK UNBOUND:                -0.887
REMARK SMILES C[C@H](CO)n1cc(-c2nc(-c3cnn(C)c3)cn3nccc23)cn1
REMARK SMILES IDX 5 1 6 2 7 3 23 4 24 5 2 6 1 7 3 8 4 9 8 11 9 12 22 13 10 14
REMARK SMILES IDX 21 15 18 16 17 17 20 18 19 19 11 20 12 21 16 22 13 23 14 24
REMARK SMILES IDX 15 25
REMARK H PARENT 4 10
ROOT
ATOM      1  N   UNL     1       5.372 -21.272  21.096  1.00  0.00    -0.267 N 
ATOM      2  C   UNL     1       5.061 -22.288  21.950  1.00  0.00     0.119 A 
ATOM      3  C   UNL     1       5.667 -23.432  21.457  1.00  0.00     0.040 A 
ATOM      4  C   UNL     1       6.298 -22.979  20.274  1.00  0.00     0.145 A 
ATOM      5  N   UNL     1       6.146 -21.668  20.065  1.00  0.00    -0.180 NA
ENDROOT
BRANCH   1   6
ATOM      6  C   UNL     1       4.951 -19.876  21.208  1.00  0.00     0.129 C 
ATOM      7  C   UNL     1       4.420 -19.585  22.612  1.00  0.00     0.036 C 
BRANCH   6   8
ATOM      8  C   UNL     1       3.939 -19.510  20.111  1.00  0.00     0.183 C 
BRANCH   8   9
ATOM      9  O   UNL     1       4.408 -19.834  18.803  1.00  0.00    -0.394 OA
ATOM     10  H   UNL     1       4.991 -20.617  18.917  1.00  0.00     0.210 HD
ENDBRANCH   8   9
ENDBRANCH   6   8
ENDBRANCH   1   6
BRANCH   3  11
ATOM     11  C   UNL     1       5.578 -24.753  22.047  1.00  0.00     0.100 A 
ATOM     12  N   UNL     1       6.562 -25.135  22.811  1.00  0.00    -0.244 NA
ATOM     13  C   UNL     1       4.442 -25.596  21.782  1.00  0.00     0.093 A 
ATOM     14  C   UNL     1       6.496 -26.377  23.421  1.00  0.00     0.092 A 
ATOM     15  C   UNL     1       3.325 -25.543  20.978  1.00  0.00     0.052 A 
ATOM     16  N   UNL     1       4.409 -26.819  22.423  1.00  0.00    -0.237 N 
ATOM     17  C   UNL     1       5.449 -27.202  23.247  1.00  0.00     0.142 A 
ATOM     18  C   UNL     1       2.650 -26.749  21.233  1.00  0.00     0.136 A 
ATOM     19  N   UNL     1       3.290 -27.516  22.113  1.00  0.00    -0.176 NA
BRANCH  14  20
ATOM     20  C   UNL     1       7.628 -26.686  24.243  1.00  0.00     0.040 A 
ATOM     21  C   UNL     1       7.917 -27.899  24.910  1.00  0.00     0.145 A 
ATOM     22  C   UNL     1       8.689 -25.865  24.567  1.00  0.00     0.118 A 
ATOM     23  N   UNL     1       9.061 -27.852  25.600  1.00  0.00    -0.181 NA
ATOM     24  N   UNL     1       9.510 -26.604  25.373  1.00  0.00    -0.275 N 
ATOM     25  C   UNL     1      10.753 -26.180  25.968  1.00  0.00     0.173 C 
ENDBRANCH  14  20
ENDBRANCH   3  11
TORSDOF 5
ENDMDL
MODEL 2
REMARK VINA RESULT:    -7.824      1.370      1.488
REMARK INTER + INTRA:         -10.769
REMARK INTER:                 -10.133
REMARK INTRA:                  -0.636
REMARK UNBOUND:                -0.887
REMARK SMILES C[C@H](CO)n1cc(-c2nc(-c3cnn(C)c3)cn3nccc23)cn1
REMARK SMILES IDX 5 1 6 2 7 3 23 4 24 5 2 6 1 7 3 8 4 9 8 11 9 12 22 13 10 14
REMARK SMILES IDX 21 15 18 16 17 17 20 18 19 19 11 20 12 21 16 22 13 23 14 24
REMARK SMILES IDX 15 25
REMARK H PARENT 4 10
ROOT
ATOM      1  N   UNL     1       5.665 -20.957  21.891  1.00  0.00    -0.267 N 
ATOM      2  C   UNL     1       5.549 -22.065  22.677  1.00  0.00     0.119 A 
ATOM      3  C   UNL     1       5.665 -23.166  21.845  1.00  0.00     0.040 A 
ATOM      4  C   UNL     1       5.821 -22.589  20.563  1.00  0.00     0.145 A 
ATOM      5  N   UNL     1       5.849 -21.253  20.588  1.00  0.00    -0.180 NA
ENDROOT
BRANCH   1   6
ATOM      6  C   UNL     1       5.603 -19.564  22.329  1.00  0.00     0.129 C 
ATOM      7  C   UNL     1       4.465 -18.827  21.623  1.00  0.00     0.036 C 
BRANCH   6   8
ATOM      8  C   UNL     1       6.959 -18.863  22.145  1.00  0.00     0.183 C 
BRANCH   8   9
ATOM      9  O   UNL     1       7.740 -18.858  23.338  1.00  0.00    -0.394 OA
ATOM     10  H   UNL     1       7.455 -18.060  23.838  1.00  0.00     0.210 HD
ENDBRANCH   8   9
ENDBRANCH   6   8
ENDBRANCH   1   6
BRANCH   3  11
ATOM     11  C   UNL     1       5.579 -24.551  22.266  1.00  0.00     0.100 A 
ATOM     12  N   UNL     1       6.552 -25.015  22.999  1.00  0.00    -0.244 NA
ATOM     13  C   UNL     1       4.460 -25.366  21.873  1.00  0.00     0.093 A 
ATOM     14  C   UNL     1       6.488 -26.324  23.449  1.00  0.00     0.092 A 
ATOM     15  C   UNL     1       3.359 -25.224  21.057  1.00  0.00     0.052 A 
ATOM     16  N   UNL     1       4.427 -26.659  22.357  1.00  0.00    -0.237 N 
ATOM     17  C   UNL     1       5.454 -27.131  23.151  1.00  0.00     0.142 A 
ATOM     18  C   UNL     1       2.693 -26.457  21.147  1.00  0.00     0.136 A 
ATOM     19  N   UNL     1       3.324 -27.322  21.939  1.00  0.00    -0.176 NA
BRANCH  14  20
ATOM     20  C   UNL     1       7.606 -26.722  24.251  1.00  0.00     0.040 A 
ATOM     21  C   UNL     1       7.842 -27.979  24.856  1.00  0.00     0.145 A 
ATOM     22  C   UNL     1       8.701 -25.965  24.613  1.00  0.00     0.118 A 
ATOM     23  N   UNL     1       8.987 -28.015  25.545  1.00  0.00    -0.181 NA
ATOM     24  N   UNL     1       9.490 -26.778  25.379  1.00  0.00    -0.275 N 
ATOM     25  C   UNL     1      10.750 -26.438  25.991  1.00  0.00     0.173 C 
ENDBRANCH  14  20
ENDBRANCH   3  11
TORSDOF 5
ENDMDL
MODEL 3
REMARK VINA RESULT:    -7.775      3.115      8.116
REMARK INTER + INTRA:         -10.707
REMARK INTER:                 -10.313
REMARK INTRA:                  -0.394
REMARK UNBOUND:                -0.887
REMARK SMILES C[C@H](CO)n1cc(-c2nc(-c3cnn(C)c3)cn3nccc23)cn1
REMARK SMILES IDX 5 1 6 2 7 3 23 4 24 5 2 6 1 7 3 8 4 9 8 11 9 12 22 13 10 14
REMARK SMILES IDX 21 15 18 16 17 17 20 18 19 19 11 20 12 21 16 22 13 23 14 24
REMARK SMILES IDX 15 25
REMARK H PARENT 4 10
ROOT
ATOM      1  N   UNL     1       4.997 -25.954  22.437  1.00  0.00    -0.267 N 
ATOM      2  C   UNL     1       5.687 -24.778  22.417  1.00  0.00     0.119 A 
ATOM      3  C   UNL     1       5.187 -24.032  21.364  1.00  0.00     0.040 A 
ATOM      4  C   UNL     1       4.208 -24.884  20.799  1.00  0.00     0.145 A 
ATOM      5  N   UNL     1       4.070 -26.037  21.461  1.00  0.00    -0.180 NA
ENDROOT
BRANCH   1   6
ATOM      6  C   UNL     1       5.180 -27.059  23.375  1.00  0.00     0.129 C 
ATOM      7  C   UNL     1       6.651 -27.193  23.770  1.00  0.00     0.036 C 
BRANCH   6   8
ATOM      8  C   UNL     1       4.603 -28.368  22.812  1.00  0.00     0.183 C 
BRANCH   8   9
ATOM      9  O   UNL     1       5.599 -29.372  22.627  1.00  0.00    -0.394 OA
ATOM     10  H   UNL     1       6.294 -29.184  23.298  1.00  0.00     0.210 HD
ENDBRANCH   8   9
ENDBRANCH   6   8
ENDBRANCH   1   6
BRANCH   3  11
ATOM     11  C   UNL     1       5.652 -22.718  20.968  1.00  0.00     0.100 A 
ATOM     12  N   UNL     1       4.753 -21.850  20.596  1.00  0.00    -0.244 NA
ATOM     13  C   UNL     1       7.056 -22.404  20.984  1.00  0.00     0.093 A 
ATOM     14  C   UNL     1       5.156 -20.573  20.243  1.00  0.00     0.092 A 
ATOM     15  C   UNL     1       8.229 -23.088  21.217  1.00  0.00     0.052 A 
ATOM     16  N   UNL     1       7.414 -21.115  20.642  1.00  0.00    -0.237 N 
ATOM     17  C   UNL     1       6.448 -20.200  20.271  1.00  0.00     0.142 A 
ATOM     18  C   UNL     1       9.239 -22.126  21.043  1.00  0.00     0.136 A 
ATOM     19  N   UNL     1       8.753 -20.931  20.710  1.00  0.00    -0.176 NA
BRANCH  14  20
ATOM     20  C   UNL     1       4.082 -19.705  19.862  1.00  0.00     0.040 A 
ATOM     21  C   UNL     1       2.848 -19.500  20.523  1.00  0.00     0.145 A 
ATOM     22  C   UNL     1       4.014 -18.873  18.762  1.00  0.00     0.118 A 
ATOM     23  N   UNL     1       2.065 -18.618  19.895  1.00  0.00    -0.181 NA
ATOM     24  N   UNL     1       2.799 -18.252  18.829  1.00  0.00    -0.275 N 
ATOM     25  C   UNL     1       2.266 -17.286  17.900  1.00  0.00     0.173 C 
ENDBRANCH  14  20
ENDBRANCH   3  11
TORSDOF 5
ENDMDL
MODEL 4
REMARK VINA RESULT:    -7.725      2.739      5.138
REMARK INTER + INTRA:         -10.644
REMARK INTER:                  -9.964
REMARK INTRA:                  -0.680
REMARK UNBOUND:                -0.887
REMARK SMILES C[C@H](CO)n1cc(-c2nc(-c3cnn(C)c3)cn3nccc23)cn1
REMARK SMILES IDX 5 1 6 2 7 3 23 4 24 5 2 6 1 7 3 8 4 9 8 11 9 12 22 13 10 14
REMARK SMILES IDX 21 15 18 16 17 17 20 18 19 19 11 20 12 21 16 22 13 23 14 24
REMARK SMILES IDX 15 25
REMARK H PARENT 4 10
ROOT
ATOM      1  N   UNL     1       4.135 -18.558  20.901  1.00  0.00    -0.267 N 
ATOM      2  C   UNL     1       4.785 -19.663  20.438  1.00  0.00     0.119 A 
ATOM      3  C   UNL     1       5.193 -20.388  21.545  1.00  0.00     0.040 A 
ATOM      4  C   UNL     1       4.750 -19.596  22.631  1.00  0.00     0.145 A 
ATOM      5  N   UNL     1       4.086 -18.502  22.248  1.00  0.00    -0.180 NA
ENDROOT
BRANCH   1   6
ATOM      6  C   UNL     1       3.530 -17.498  20.097  1.00  0.00     0.129 C 
ATOM      7  C   UNL     1       2.469 -16.749  20.903  1.00  0.00     0.036 C 
BRANCH   6   8
ATOM      8  C   UNL     1       2.979 -18.050  18.772  1.00  0.00     0.183 C 
BRANCH   8   9
ATOM      9  O   UNL     1       1.644 -18.537  18.894  1.00  0.00    -0.394 OA
ATOM     10  H   UNL     1       1.723 -19.429  19.301  1.00  0.00     0.210 HD
ENDBRANCH   8   9
ENDBRANCH   6   8
ENDBRANCH   1   6
BRANCH   3  11
ATOM     11  C   UNL     1       5.942 -21.628  21.510  1.00  0.00     0.100 A 
ATOM     12  N   UNL     1       5.272 -22.737  21.654  1.00  0.00    -0.244 NA
ATOM     13  C   UNL     1       7.369 -21.615  21.328  1.00  0.00     0.093 A 
ATOM     14  C   UNL     1       5.948 -23.944  21.591  1.00  0.00     0.092 A 
ATOM     15  C   UNL     1       8.357 -20.658  21.248  1.00  0.00     0.052 A 
ATOM     16  N   UNL     1       8.002 -22.841  21.255  1.00  0.00    -0.237 N 
ATOM     17  C   UNL     1       7.276 -24.008  21.388  1.00  0.00     0.142 A 
ATOM     18  C   UNL     1       9.544 -21.390  21.076  1.00  0.00     0.136 A 
ATOM     19  N   UNL     1       9.335 -22.706  21.066  1.00  0.00    -0.176 NA
BRANCH  14  20
ATOM     20  C   UNL     1       5.109 -25.094  21.754  1.00  0.00     0.040 A 
ATOM     21  C   UNL     1       5.306 -26.205  22.608  1.00  0.00     0.145 A 
ATOM     22  C   UNL     1       3.920 -25.373  21.112  1.00  0.00     0.118 A 
ATOM     23  N   UNL     1       4.328 -27.111  22.513  1.00  0.00    -0.181 NA
ATOM     24  N   UNL     1       3.498 -26.579  21.597  1.00  0.00    -0.275 N 
ATOM     25  C   UNL     1       2.300 -27.291  21.230  1.00  0.00     0.173 C 
ENDBRANCH  14  20
ENDBRANCH   3  11
TORSDOF 5
ENDMDL
MODEL 5
REMARK VINA RESULT:    -7.697      2.869      6.946
REMARK INTER + INTRA:         -10.608
REMARK INTER:                 -10.090
REMARK INTRA:                  -0.519
REMARK UNBOUND:                -0.887
REMARK SMILES C[C@H](CO)n1cc(-c2nc(-c3cnn(C)c3)cn3nccc23)cn1
REMARK SMILES IDX 5 1 6 2 7 3 23 4 24 5 2 6 1 7 3 8 4 9 8 11 9 12 22 13 10 14
REMARK SMILES IDX 21 15 18 16 17 17 20 18 19 19 11 20 12 21 16 22 13 23 14 24
REMARK SMILES IDX 15 25
REMARK H PARENT 4 10
ROOT
ATOM      1  N   UNL     1       9.219 -26.860  25.423  1.00  0.00    -0.267 N 
ATOM      2  C   UNL     1       8.366 -26.127  24.653  1.00  0.00     0.119 A 
ATOM      3  C   UNL     1       7.367 -26.986  24.224  1.00  0.00     0.040 A 
ATOM      4  C   UNL     1       7.747 -28.228  24.784  1.00  0.00     0.145 A 
ATOM      5  N   UNL     1       8.851 -28.153  25.533  1.00  0.00    -0.180 NA
ENDROOT
BRANCH   1   6
ATOM      6  C   UNL     1      10.426 -26.378  26.092  1.00  0.00     0.129 C 
ATOM      7  C   UNL     1      11.156 -25.359  25.217  1.00  0.00     0.036 C 
BRANCH   6   8
ATOM      8  C   UNL     1      11.333 -27.546  26.513  1.00  0.00     0.183 C 
BRANCH   8   9
ATOM      9  O   UNL     1      11.673 -28.397  25.420  1.00  0.00    -0.394 OA
ATOM     10  H   UNL     1      10.836 -28.537  24.922  1.00  0.00     0.210 HD
ENDBRANCH   8   9
ENDBRANCH   6   8
ENDBRANCH   1   6
BRANCH   3  11
ATOM     11  C   UNL     1       6.261 -26.625  23.361  1.00  0.00     0.100 A 
ATOM     12  N   UNL     1       6.173 -25.379  22.989  1.00  0.00    -0.244 NA
ATOM     13  C   UNL     1       5.304 -27.617  22.946  1.00  0.00     0.093 A 
ATOM     14  C   UNL     1       5.148 -25.003  22.135  1.00  0.00     0.092 A 
ATOM     15  C   UNL     1       5.057 -28.943  23.224  1.00  0.00     0.052 A 
ATOM     16  N   UNL     1       4.309 -27.204  22.082  1.00  0.00    -0.237 N 
ATOM     17  C   UNL     1       4.240 -25.884  21.680  1.00  0.00     0.142 A 
ATOM     18  C   UNL     1       3.929 -29.262  22.449  1.00  0.00     0.136 A 
ATOM     19  N   UNL     1       3.481 -28.221  21.749  1.00  0.00    -0.176 NA
BRANCH  14  20
ATOM     20  C   UNL     1       5.156 -23.613  21.788  1.00  0.00     0.040 A 
ATOM     21  C   UNL     1       5.711 -22.535  22.515  1.00  0.00     0.145 A 
ATOM     22  C   UNL     1       4.622 -23.018  20.663  1.00  0.00     0.118 A 
ATOM     23  N   UNL     1       5.541 -21.357  21.906  1.00  0.00    -0.181 NA
ATOM     24  N   UNL     1       4.878 -21.680  20.782  1.00  0.00    -0.275 N 
ATOM     25  C   UNL     1       4.515 -20.642  19.850  1.00  0.00     0.173 C 
ENDBRANCH  14  20
ENDBRANCH   3  11
TORSDOF 5
ENDMDL
MODEL 6
REMARK VINA RESULT:    -7.553      1.824      4.756
REMARK INTER + INTRA:         -10.426
REMARK INTER:                  -9.507
REMARK INTRA:                  -0.919
REMARK UNBOUND:                -0.887
REMARK SMILES C[C@H](CO)n1cc(-c2nc(-c3cnn(C)c3)cn3nccc23)cn1
REMARK SMILES IDX 5 1 6 2 7 3 23 4 24 5 2 6 1 7 3 8 4 9 8 11 9 12 22 13 10 14
REMARK SMILES IDX 21 15 18 16 17 17 20 18 19 19 11 20 12 21 16 22 13 23 14 24
REMARK SMILES IDX 15 25
REMARK H PARENT 4 10
ROOT
ATOM      1  N   UNL     1       7.782 -21.681  21.801  1.00  0.00    -0.267 N 
ATOM      2  C   UNL     1       7.248 -22.642  22.607  1.00  0.00     0.119 A 
ATOM      3  C   UNL     1       8.033 -23.774  22.464  1.00  0.00     0.040 A 
ATOM      4  C   UNL     1       9.004 -23.376  21.514  1.00  0.00     0.145 A 
ATOM      5  N   UNL     1       8.873 -22.103  21.130  1.00  0.00    -0.180 NA
ENDROOT
BRANCH   1   6
ATOM      6  C   UNL     1       7.288 -20.317  21.622  1.00  0.00     0.129 C 
ATOM      7  C   UNL     1       5.850 -20.194  22.126  1.00  0.00     0.036 C 
BRANCH   6   8
ATOM      8  C   UNL     1       7.438 -19.859  20.162  1.00  0.00     0.183 C 
BRANCH   8   9
ATOM      9  O   UNL     1       6.966 -20.832  19.231  1.00  0.00    -0.394 OA
ATOM     10  H   UNL     1       6.471 -20.326  18.547  1.00  0.00     0.210 HD
ENDBRANCH   8   9
ENDBRANCH   6   8
ENDBRANCH   1   6
BRANCH   3  11
ATOM     11  C   UNL     1       7.810 -25.043  23.127  1.00  0.00     0.100 A 
ATOM     12  N   UNL     1       6.780 -25.745  22.746  1.00  0.00    -0.244 NA
ATOM     13  C   UNL     1       8.697 -25.490  24.169  1.00  0.00     0.093 A 
ATOM     14  C   UNL     1       6.553 -26.979  23.333  1.00  0.00     0.092 A 
ATOM     15  C   UNL     1       9.775 -24.971  24.853  1.00  0.00     0.052 A 
ATOM     16  N   UNL     1       8.445 -26.733  24.715  1.00  0.00    -0.237 N 
ATOM     17  C   UNL     1       7.362 -27.475  24.286  1.00  0.00     0.142 A 
ATOM     18  C   UNL     1      10.140 -25.984  25.755  1.00  0.00     0.136 A 
ATOM     19  N   UNL     1       9.351 -27.054  25.668  1.00  0.00    -0.176 NA
BRANCH  14  20
ATOM     20  C   UNL     1       5.400 -27.664  22.830  1.00  0.00     0.040 A 
ATOM     21  C   UNL     1       5.125 -29.051  22.862  1.00  0.00     0.145 A 
ATOM     22  C   UNL     1       4.299 -27.120  22.200  1.00  0.00     0.118 A 
ATOM     23  N   UNL     1       3.953 -29.360  22.299  1.00  0.00    -0.181 NA
ATOM     24  N   UNL     1       3.471 -28.167  21.907  1.00  0.00    -0.275 N 
ATOM     25  C   UNL     1       2.191 -28.102  21.247  1.00  0.00     0.173 C 
ENDBRANCH  14  20
ENDBRANCH   3  11
TORSDOF 5
ENDMDL
MODEL 7
REMARK VINA RESULT:    -7.433      2.997      5.994
REMARK INTER + INTRA:         -10.275
REMARK INTER:                  -9.897
REMARK INTRA:                  -0.377
REMARK UNBOUND:                -0.887
REMARK SMILES C[C@H](CO)n1cc(-c2nc(-c3cnn(C)c3)cn3nccc23)cn1
REMARK SMILES IDX 5 1 6 2 7 3 23 4 24 5 2 6 1 7 3 8 4 9 8 11 9 12 22 13 10 14
REMARK SMILES IDX 21 15 18 16 17 17 20 18 19 19 11 20 12 21 16 22 13 23 14 24
REMARK SMILES IDX 15 25
REMARK H PARENT 4 10
ROOT
ATOM      1  N   UNL     1       3.998 -27.199  22.442  1.00  0.00    -0.267 N 
ATOM      2  C   UNL     1       4.956 -26.277  22.741  1.00  0.00     0.119 A 
ATOM      3  C   UNL     1       6.079 -26.975  23.150  1.00  0.00     0.040 A 
ATOM      4  C   UNL     1       5.663 -28.326  23.081  1.00  0.00     0.145 A 
ATOM      5  N   UNL     1       4.414 -28.469  22.628  1.00  0.00    -0.180 NA
ENDROOT
BRANCH   1   6
ATOM      6  C   UNL     1       2.642 -26.931  21.969  1.00  0.00     0.129 C 
ATOM      7  C   UNL     1       2.202 -27.993  20.962  1.00  0.00     0.036 C 
BRANCH   6   8
ATOM      8  C   UNL     1       2.520 -25.505  21.408  1.00  0.00     0.183 C 
BRANCH   8   9
ATOM      9  O   UNL     1       1.759 -25.454  20.203  1.00  0.00    -0.394 OA
ATOM     10  H   UNL     1       1.061 -26.140  20.300  1.00  0.00     0.210 HD
ENDBRANCH   8   9
ENDBRANCH   6   8
ENDBRANCH   1   6
BRANCH   3  11
ATOM     11  C   UNL     1       7.329 -26.381  23.582  1.00  0.00     0.100 A 
ATOM     12  N   UNL     1       7.666 -25.240  23.049  1.00  0.00    -0.244 NA
ATOM     13  C   UNL     1       8.154 -27.043  24.558  1.00  0.00     0.093 A 
ATOM     14  C   UNL     1       8.836 -24.624  23.463  1.00  0.00     0.092 A 
ATOM     15  C   UNL     1       8.143 -28.252  25.219  1.00  0.00     0.052 A 
ATOM     16  N   UNL     1       9.302 -26.387  24.954  1.00  0.00    -0.237 N 
ATOM     17  C   UNL     1       9.636 -25.169  24.396  1.00  0.00     0.142 A 
ATOM     18  C   UNL     1       9.291 -28.220  26.029  1.00  0.00     0.136 A 
ATOM     19  N   UNL     1       9.987 -27.094  25.884  1.00  0.00    -0.176 NA
BRANCH  14  20
ATOM     20  C   UNL     1       9.099 -23.374  22.816  1.00  0.00     0.040 A 
ATOM     21  C   UNL     1       8.878 -23.027  21.462  1.00  0.00     0.145 A 
ATOM     22  C   UNL     1       9.629 -22.227  23.372  1.00  0.00     0.118 A 
ATOM     23  N   UNL     1       9.239 -21.771  21.184  1.00  0.00    -0.181 NA
ATOM     24  N   UNL     1       9.691 -21.307  22.363  1.00  0.00    -0.275 N 
ATOM     25  C   UNL     1      10.174 -19.952  22.453  1.00  0.00     0.173 C 
ENDBRANCH  14  20
ENDBRANCH   3  11
TORSDOF 5
ENDMDL
MODEL 8
REMARK VINA RESULT:    -7.262      2.739      6.957
REMARK INTER + INTRA:         -10.059
REMARK INTER:                  -9.513
REMARK INTRA:                  -0.546
REMARK UNBOUND:                -0.887
REMARK SMILES C[C@H](CO)n1cc(-c2nc(-c3cnn(C)c3)cn3nccc23)cn1
REMARK SMILES IDX 5 1 6 2 7 3 23 4 24 5 2 6 1 7 3 8 4 9 8 11 9 12 22 13 10 14
REMARK SMILES IDX 21 15 18 16 17 17 20 18 19 19 11 20 12 21 16 22 13 23 14 24
REMARK SMILES IDX 15 25
REMARK H PARENT 4 10
ROOT
ATOM      1  N   UNL     1       9.811 -26.410  25.359  1.00  0.00    -0.267 N 
ATOM      2  C   UNL     1       8.522 -26.626  24.974  1.00  0.00     0.119 A 
ATOM      3  C   UNL     1       8.225 -25.686  24.002  1.00  0.00     0.040 A 
ATOM      4  C   UNL     1       9.419 -24.933  23.906  1.00  0.00     0.145 A 
ATOM      5  N   UNL     1      10.391 -25.382  24.705  1.00  0.00    -0.180 NA
ENDROOT
BRANCH   1   6
ATOM      6  C   UNL     1      10.560 -27.158  26.367  1.00  0.00     0.129 C 
ATOM      7  C   UNL     1       9.727 -28.322  26.903  1.00  0.00     0.036 C 
BRANCH   6   8
ATOM      8  C   UNL     1      11.065 -26.233  27.486  1.00  0.00     0.183 C 
BRANCH   8   9
ATOM      9  O   UNL     1      10.140 -25.193  27.796  1.00  0.00    -0.394 OA
ATOM     10  H   UNL     1      10.186 -25.079  28.772  1.00  0.00     0.210 HD
ENDBRANCH   8   9
ENDBRANCH   6   8
ENDBRANCH   1   6
BRANCH   3  11
ATOM     11  C   UNL     1       6.948 -25.542  23.332  1.00  0.00     0.100 A 
ATOM     12  N   UNL     1       6.617 -24.350  22.923  1.00  0.00    -0.244 NA
ATOM     13  C   UNL     1       6.091 -26.682  23.140  1.00  0.00     0.093 A 
ATOM     14  C   UNL     1       5.419 -24.179  22.247  1.00  0.00     0.092 A 
ATOM     15  C   UNL     1       6.092 -28.007  23.519  1.00  0.00     0.052 A 
ATOM     16  N   UNL     1       4.915 -26.471  22.447  1.00  0.00    -0.237 N 
ATOM     17  C   UNL     1       4.587 -25.206  22.001  1.00  0.00     0.142 A 
ATOM     18  C   UNL     1       4.909 -28.530  22.971  1.00  0.00     0.136 A 
ATOM     19  N   UNL     1       4.201 -27.614  22.313  1.00  0.00    -0.176 NA
BRANCH  14  20
ATOM     20  C   UNL     1       5.165 -22.830  21.839  1.00  0.00     0.040 A 
ATOM     21  C   UNL     1       4.479 -22.381  20.686  1.00  0.00     0.145 A 
ATOM     22  C   UNL     1       5.533 -21.666  22.482  1.00  0.00     0.118 A 
ATOM     23  N   UNL     1       4.421 -21.049  20.604  1.00  0.00    -0.181 NA
ATOM     24  N   UNL     1       5.068 -20.639  21.709  1.00  0.00    -0.275 N 
ATOM     25  C   UNL     1       5.205 -19.227  21.968  1.00  0.00     0.173 C 
ENDBRANCH  14  20
ENDBRANCH   3  11
TORSDOF 5
ENDMDL
MODEL 9
REMARK VINA RESULT:    -7.008      2.709      6.913
REMARK INTER + INTRA:          -9.738
REMARK INTER:                  -9.198
REMARK INTRA:                  -0.540
REMARK UNBOUND:                -0.887
REMARK SMILES C[C@H](CO)n1cc(-c2nc(-c3cnn(C)c3)cn3nccc23)cn1
REMARK SMILES IDX 5 1 6 2 7 3 23 4 24 5 2 6 1 7 3 8 4 9 8 11 9 12 22 13 10 14
REMARK SMILES IDX 21 15 18 16 17 17 20 18 19 19 11 20 12 21 16 22 13 23 14 24
REMARK SMILES IDX 15 25
REMARK H PARENT 4 10
ROOT
ATOM      1  N   UNL     1       8.520 -25.997  23.815  1.00  0.00    -0.267 N 
ATOM      2  C   UNL     1       7.190 -25.875  23.540  1.00  0.00     0.119 A 
ATOM      3  C   UNL     1       7.073 -24.983  22.488  1.00  0.00     0.040 A 
ATOM      4  C   UNL     1       8.412 -24.608  22.231  1.00  0.00     0.145 A 
ATOM      5  N   UNL     1       9.295 -25.238  23.012  1.00  0.00    -0.180 NA
ENDROOT
BRANCH   1   6
ATOM      6  C   UNL     1       9.126 -26.830  24.850  1.00  0.00     0.129 C 
ATOM      7  C   UNL     1       8.200 -27.989  25.220  1.00  0.00     0.036 C 
BRANCH   6   8
ATOM      8  C   UNL     1       9.533 -25.992  26.073  1.00  0.00     0.183 C 
BRANCH   8   9
ATOM      9  O   UNL     1      10.336 -24.867  25.723  1.00  0.00    -0.394 OA
ATOM     10  H   UNL     1      10.300 -24.810  24.741  1.00  0.00     0.210 HD
ENDBRANCH   8   9
ENDBRANCH   6   8
ENDBRANCH   1   6
BRANCH   3  11
ATOM     11  C   UNL     1       5.827 -24.547  21.889  1.00  0.00     0.100 A 
ATOM     12  N   UNL     1       5.767 -23.318  21.458  1.00  0.00    -0.244 NA
ATOM     13  C   UNL     1       4.710 -25.449  21.788  1.00  0.00     0.093 A 
ATOM     14  C   UNL     1       4.604 -22.876  20.848  1.00  0.00     0.092 A 
ATOM     15  C   UNL     1       4.417 -26.726  22.213  1.00  0.00     0.052 A 
ATOM     16  N   UNL     1       3.577 -24.973  21.158  1.00  0.00    -0.237 N 
ATOM     17  C   UNL     1       3.535 -23.676  20.688  1.00  0.00     0.142 A 
ATOM     18  C   UNL     1       3.109 -26.958  21.754  1.00  0.00     0.136 A 
ATOM     19  N   UNL     1       2.602 -25.911  21.106  1.00  0.00    -0.176 NA
BRANCH  14  20
ATOM     20  C   UNL     1       4.655 -21.514  20.408  1.00  0.00     0.040 A 
ATOM     21  C   UNL     1       5.773 -20.796  19.921  1.00  0.00     0.145 A 
ATOM     22  C   UNL     1       3.624 -20.599  20.362  1.00  0.00     0.118 A 
ATOM     23  N   UNL     1       5.475 -19.533  19.597  1.00  0.00    -0.181 NA
ATOM     24  N   UNL     1       4.163 -19.441  19.874  1.00  0.00    -0.275 N 
ATOM     25  C   UNL     1       3.476 -18.195  19.642  1.00  0.00     0.173 C 
ENDBRANCH  14  20
ENDBRANCH   3  11
TORSDOF 5
ENDMDL
