MODEL 1
REMARK VINA RESULT:    -9.491      0.000      0.000
REMARK INTER + INTRA:         -14.905
REMARK INTER:                 -13.374
REMARK INTRA:                  -1.531
REMARK UNBOUND:                -1.531
REMARK SMILES COc1nn(C)cc1Nc1ncc(C)c(-c2c[nH]c3c(NC(=O)[C@@H](C)N4CCN(C)[C@@H](C)C4)cccc23)n1
REMARK SMILES IDX 16 1 17 2 18 3 19 4 20 5 34 6 35 7 36 8 37 9 15 11 10 12
REMARK SMILES IDX 11 13 38 14 12 15 13 16 14 17 9 18 8 20 3 21 4 22 5 23 7 24
REMARK SMILES IDX 6 25 2 26 1 27 21 28 22 29 23 30 24 32 25 33 26 34 27 35
REMARK SMILES IDX 33 36 28 37 31 38 29 39 32 40 30 41
REMARK H PARENT 18 10 9 19 21 31
ROOT
ATOM      1  C   UNL     1     -13.738  15.498  20.152  1.00  0.00     0.026 A 
ATOM      2  C   UNL     1     -14.035  16.138  21.336  1.00  0.00     0.094 A 
ATOM      3  N   UNL     1     -15.170  16.878  21.143  1.00  0.00    -0.359 N 
ATOM      4  C   UNL     1     -15.653  16.722  19.862  1.00  0.00     0.070 A 
ATOM      5  C   UNL     1     -16.788  17.259  19.230  1.00  0.00     0.065 A 
ATOM      6  C   UNL     1     -17.004  16.874  17.893  1.00  0.00     0.028 A 
ATOM      7  C   UNL     1     -16.143  16.006  17.227  1.00  0.00     0.003 A 
ATOM      8  C   UNL     1     -15.025  15.487  17.879  1.00  0.00     0.011 A 
ATOM      9  C   UNL     1     -14.770  15.846  19.219  1.00  0.00     0.011 A 
ATOM     10  H   UNL     1     -15.631  17.457  21.840  1.00  0.00     0.166 HD
ENDROOT
BRANCH   1  11
ATOM     11  C   UNL     1     -12.616  14.585  19.975  1.00  0.00     0.081 A 
ATOM     12  C   UNL     1     -10.336  14.456  19.650  1.00  0.00     0.227 A 
ATOM     13  N   UNL     1     -10.373  13.118  19.589  1.00  0.00    -0.221 NA
ATOM     14  N   UNL     1     -11.425  15.210  19.840  1.00  0.00    -0.212 NA
ATOM     15  C   UNL     1     -11.572  12.529  19.748  1.00  0.00     0.120 A 
ATOM     16  C   UNL     1     -12.751  13.209  19.966  1.00  0.00    -0.006 A 
ATOM     17  C   UNL     1     -14.034  12.470  20.151  1.00  0.00     0.048 C 
BRANCH  12  18
ATOM     18  N   UNL     1      -9.142  15.164  19.542  1.00  0.00    -0.318 N 
ATOM     19  H   UNL     1      -8.549  14.674  18.881  1.00  0.00     0.170 HD
BRANCH  18  20
ATOM     20  C   UNL     1      -8.707  16.301  20.118  1.00  0.00     0.124 A 
ATOM     21  C   UNL     1      -8.987  17.617  19.684  1.00  0.00     0.256 A 
ATOM     22  N   UNL     1      -8.411  18.550  20.446  1.00  0.00    -0.133 NA
ATOM     23  N   UNL     1      -7.759  17.819  21.374  1.00  0.00    -0.270 N 
ATOM     24  C   UNL     1      -7.909  16.470  21.223  1.00  0.00     0.138 A 
ATOM     25  C   UNL     1      -6.996  18.492  22.396  1.00  0.00     0.173 C 
BRANCH  21  26
ATOM     26  O   UNL     1      -9.758  17.948  18.622  1.00  0.00    -0.478 OA
ATOM     27  C   UNL     1     -10.967  18.614  18.963  1.00  0.00     0.280 C 
ENDBRANCH  21  26
ENDBRANCH  18  20
ENDBRANCH  12  18
ENDBRANCH   1  11
BRANCH   5  28
ATOM     28  N   UNL     1     -17.727  18.139  19.791  1.00  0.00    -0.323 N 
ATOM     29  C   UNL     1     -18.341  18.114  21.029  1.00  0.00     0.241 C 
ATOM     30  O   UNL     1     -18.182  17.276  21.915  1.00  0.00    -0.273 OA
ATOM     31  H   UNL     1     -18.053  18.906  19.205  1.00  0.00     0.170 HD
BRANCH  29  32
ATOM     32  C   UNL     1     -19.246  19.355  21.252  1.00  0.00     0.143 C 
ATOM     33  C   UNL     1     -19.008  20.282  20.052  1.00  0.00     0.035 C 
BRANCH  32  34
ATOM     34  N   UNL     1     -20.670  18.916  21.408  1.00  0.00    -0.289 NA
ATOM     35  C   UNL     1     -20.986  18.745  22.851  1.00  0.00     0.101 C 
ATOM     36  C   UNL     1     -21.631  19.896  20.852  1.00  0.00     0.104 C 
ATOM     37  C   UNL     1     -22.449  18.319  23.084  1.00  0.00     0.100 C 
ATOM     38  C   UNL     1     -23.125  19.499  21.086  1.00  0.00     0.067 C 
ATOM     39  N   UNL     1     -23.415  19.287  22.525  1.00  0.00    -0.301 NA
ATOM     40  C   UNL     1     -24.011  20.594  20.475  1.00  0.00     0.026 C 
ATOM     41  C   UNL     1     -24.777  18.804  22.763  1.00  0.00     0.105 C 
ENDBRANCH  32  34
ENDBRANCH  29  32
ENDBRANCH   5  28
TORSDOF 7
ENDMDL
MODEL 2
REMARK VINA RESULT:    -9.414      1.864      2.306
REMARK INTER + INTRA:         -14.798
REMARK INTER:                 -13.693
REMARK INTRA:                  -1.105
REMARK UNBOUND:                -1.531
REMARK SMILES COc1nn(C)cc1Nc1ncc(C)c(-c2c[nH]c3c(NC(=O)[C@@H](C)N4CCN(C)[C@@H](C)C4)cccc23)n1
REMARK SMILES IDX 16 1 17 2 18 3 19 4 20 5 34 6 35 7 36 8 37 9 15 11 10 12
REMARK SMILES IDX 11 13 38 14 12 15 13 16 14 17 9 18 8 20 3 21 4 22 5 23 7 24
REMARK SMILES IDX 6 25 2 26 1 27 21 28 22 29 23 30 24 32 25 33 26 34 27 35
REMARK SMILES IDX 33 36 28 37 31 38 29 39 32 40 30 41
REMARK H PARENT 18 10 9 19 21 31
ROOT
ATOM      1  C   UNL     1     -13.058  15.773  20.444  1.00  0.00     0.026 A 
ATOM      2  C   UNL     1     -13.357  16.462  21.601  1.00  0.00     0.094 A 
ATOM      3  N   UNL     1     -14.595  17.024  21.450  1.00  0.00    -0.359 N 
ATOM      4  C   UNL     1     -15.142  16.701  20.227  1.00  0.00     0.070 A 
ATOM      5  C   UNL     1     -16.383  17.027  19.654  1.00  0.00     0.065 A 
ATOM      6  C   UNL     1     -16.639  16.509  18.370  1.00  0.00     0.028 A 
ATOM      7  C   UNL     1     -15.714  15.713  17.698  1.00  0.00     0.003 A 
ATOM      8  C   UNL     1     -14.491  15.404  18.291  1.00  0.00     0.011 A 
ATOM      9  C   UNL     1     -14.193  15.902  19.577  1.00  0.00     0.011 A 
ATOM     10  H   UNL     1     -15.082  17.590  22.139  1.00  0.00     0.166 HD
ENDROOT
BRANCH   1  11
ATOM     11  C   UNL     1     -11.834  15.008  20.241  1.00  0.00     0.081 A 
ATOM     12  C   UNL     1      -9.533  15.136  20.165  1.00  0.00     0.227 A 
ATOM     13  N   UNL     1      -9.423  13.835  19.865  1.00  0.00    -0.221 NA
ATOM     14  N   UNL     1     -10.708  15.746  20.357  1.00  0.00    -0.212 NA
ATOM     15  C   UNL     1     -10.563  13.127  19.778  1.00  0.00     0.120 A 
ATOM     16  C   UNL     1     -11.823  13.651  19.974  1.00  0.00    -0.006 A 
ATOM     17  C   UNL     1     -13.033  12.784  19.876  1.00  0.00     0.048 C 
BRANCH  12  18
ATOM     18  N   UNL     1      -8.415  15.952  20.322  1.00  0.00    -0.318 N 
ATOM     19  H   UNL     1      -8.537  16.483  21.178  1.00  0.00     0.170 HD
BRANCH  18  20
ATOM     20  C   UNL     1      -7.298  16.112  19.587  1.00  0.00     0.124 A 
ATOM     21  C   UNL     1      -6.172  15.257  19.583  1.00  0.00     0.256 A 
ATOM     22  N   UNL     1      -5.206  15.674  18.760  1.00  0.00    -0.133 NA
ATOM     23  N   UNL     1      -5.725  16.804  18.236  1.00  0.00    -0.270 N 
ATOM     24  C   UNL     1      -6.975  17.105  18.696  1.00  0.00     0.138 A 
ATOM     25  C   UNL     1      -4.952  17.560  17.282  1.00  0.00     0.173 C 
BRANCH  21  26
ATOM     26  O   UNL     1      -6.042  14.123  20.310  1.00  0.00    -0.478 OA
ATOM     27  C   UNL     1      -5.195  14.252  21.444  1.00  0.00     0.280 C 
ENDBRANCH  21  26
ENDBRANCH  18  20
ENDBRANCH  12  18
ENDBRANCH   1  11
BRANCH   5  28
ATOM     28  N   UNL     1     -17.394  17.815  20.226  1.00  0.00    -0.323 N 
ATOM     29  C   UNL     1     -18.209  17.565  21.315  1.00  0.00     0.241 C 
ATOM     30  O   UNL     1     -18.210  16.557  22.019  1.00  0.00    -0.273 OA
ATOM     31  H   UNL     1     -17.608  18.700  19.770  1.00  0.00     0.170 HD
BRANCH  29  32
ATOM     32  C   UNL     1     -19.125  18.774  21.643  1.00  0.00     0.143 C 
ATOM     33  C   UNL     1     -18.902  19.799  20.523  1.00  0.00     0.035 C 
BRANCH  32  34
ATOM     34  N   UNL     1     -20.543  18.309  21.768  1.00  0.00    -0.289 NA
ATOM     35  C   UNL     1     -21.018  18.517  23.162  1.00  0.00     0.101 C 
ATOM     36  C   UNL     1     -21.463  19.042  20.868  1.00  0.00     0.104 C 
ATOM     37  C   UNL     1     -22.484  18.083  23.353  1.00  0.00     0.100 C 
ATOM     38  C   UNL     1     -22.962  18.635  21.048  1.00  0.00     0.067 C 
ATOM     39  N   UNL     1     -23.408  18.803  22.452  1.00  0.00    -0.301 NA
ATOM     40  C   UNL     1     -23.804  19.467  20.072  1.00  0.00     0.026 C 
ATOM     41  C   UNL     1     -24.774  18.322  22.674  1.00  0.00     0.105 C 
ENDBRANCH  32  34
ENDBRANCH  29  32
ENDBRANCH   5  28
TORSDOF 7
ENDMDL
MODEL 3
REMARK VINA RESULT:    -9.214      1.835      2.995
REMARK INTER + INTRA:         -14.516
REMARK INTER:                 -14.791
REMARK INTRA:                   0.275
REMARK UNBOUND:                -1.531
REMARK SMILES COc1nn(C)cc1Nc1ncc(C)c(-c2c[nH]c3c(NC(=O)[C@@H](C)N4CCN(C)[C@@H](C)C4)cccc23)n1
REMARK SMILES IDX 16 1 17 2 18 3 19 4 20 5 34 6 35 7 36 8 37 9 15 11 10 12
REMARK SMILES IDX 11 13 38 14 12 15 13 16 14 17 9 18 8 20 3 21 4 22 5 23 7 24
REMARK SMILES IDX 6 25 2 26 1 27 21 28 22 29 23 30 24 32 25 33 26 34 27 35
REMARK SMILES IDX 33 36 28 37 31 38 29 39 32 40 30 41
REMARK H PARENT 18 10 9 19 21 31
ROOT
ATOM      1  C   UNL     1     -15.096  15.078  20.267  1.00  0.00     0.026 A 
ATOM      2  C   UNL     1     -16.238  14.548  19.705  1.00  0.00     0.094 A 
ATOM      3  N   UNL     1     -17.281  15.381  20.002  1.00  0.00    -0.359 N 
ATOM      4  C   UNL     1     -16.856  16.473  20.728  1.00  0.00     0.070 A 
ATOM      5  C   UNL     1     -17.557  17.584  21.226  1.00  0.00     0.065 A 
ATOM      6  C   UNL     1     -16.801  18.545  21.923  1.00  0.00     0.028 A 
ATOM      7  C   UNL     1     -15.428  18.409  22.111  1.00  0.00     0.003 A 
ATOM      8  C   UNL     1     -14.756  17.297  21.604  1.00  0.00     0.011 A 
ATOM      9  C   UNL     1     -15.475  16.308  20.899  1.00  0.00     0.011 A 
ATOM     10  H   UNL     1     -18.249  15.251  19.720  1.00  0.00     0.166 HD
ENDROOT
BRANCH   1  11
ATOM     11  C   UNL     1     -13.769  14.490  20.133  1.00  0.00     0.081 A 
ATOM     12  C   UNL     1     -11.507  14.912  20.279  1.00  0.00     0.227 A 
ATOM     13  N   UNL     1     -11.201  13.660  19.914  1.00  0.00    -0.221 NA
ATOM     14  N   UNL     1     -12.764  15.354  20.397  1.00  0.00    -0.212 NA
ATOM     15  C   UNL     1     -12.227  12.822  19.679  1.00  0.00     0.120 A 
ATOM     16  C   UNL     1     -13.557  13.168  19.788  1.00  0.00    -0.006 A 
ATOM     17  C   UNL     1     -14.630  12.165  19.526  1.00  0.00     0.048 C 
BRANCH  12  18
ATOM     18  N   UNL     1     -10.524  15.848  20.589  1.00  0.00    -0.318 N 
ATOM     19  H   UNL     1     -10.435  15.882  21.599  1.00  0.00     0.170 HD
BRANCH  18  20
ATOM     20  C   UNL     1      -9.739  16.628  19.821  1.00  0.00     0.124 A 
ATOM     21  C   UNL     1     -10.180  17.591  18.884  1.00  0.00     0.256 A 
ATOM     22  N   UNL     1      -9.175  18.208  18.259  1.00  0.00    -0.133 NA
ATOM     23  N   UNL     1      -8.083  17.631  18.805  1.00  0.00    -0.270 N 
ATOM     24  C   UNL     1      -8.370  16.684  19.746  1.00  0.00     0.138 A 
ATOM     25  C   UNL     1      -6.772  18.044  18.368  1.00  0.00     0.173 C 
BRANCH  21  26
ATOM     26  O   UNL     1     -11.472  17.898  18.620  1.00  0.00    -0.478 OA
ATOM     27  C   UNL     1     -11.846  19.217  18.995  1.00  0.00     0.280 C 
ENDBRANCH  21  26
ENDBRANCH  18  20
ENDBRANCH  12  18
ENDBRANCH   1  11
BRANCH   5  28
ATOM     28  N   UNL     1     -18.933  17.835  21.103  1.00  0.00    -0.323 N 
ATOM     29  C   UNL     1     -19.872  18.144  22.070  1.00  0.00     0.241 C 
ATOM     30  O   UNL     1     -19.675  18.258  23.278  1.00  0.00    -0.273 OA
ATOM     31  H   UNL     1     -19.340  17.748  20.174  1.00  0.00     0.170 HD
BRANCH  29  32
ATOM     32  C   UNL     1     -21.266  18.432  21.453  1.00  0.00     0.143 C 
ATOM     33  C   UNL     1     -22.205  18.730  22.630  1.00  0.00     0.035 C 
BRANCH  32  34
ATOM     34  N   UNL     1     -21.156  19.553  20.465  1.00  0.00    -0.289 NA
ATOM     35  C   UNL     1     -22.438  20.304  20.415  1.00  0.00     0.101 C 
ATOM     36  C   UNL     1     -20.087  20.516  20.815  1.00  0.00     0.104 C 
ATOM     37  C   UNL     1     -22.384  21.492  19.435  1.00  0.00     0.100 C 
ATOM     38  C   UNL     1     -20.015  21.741  19.848  1.00  0.00     0.067 C 
ATOM     39  N   UNL     1     -21.314  22.453  19.771  1.00  0.00    -0.301 NA
ATOM     40  C   UNL     1     -18.881  22.660  20.322  1.00  0.00     0.026 C 
ATOM     41  C   UNL     1     -21.308  23.537  18.785  1.00  0.00     0.105 C 
ENDBRANCH  32  34
ENDBRANCH  29  32
ENDBRANCH   5  28
TORSDOF 7
ENDMDL
MODEL 4
REMARK VINA RESULT:    -9.181      2.449     10.741
REMARK INTER + INTRA:         -14.469
REMARK INTER:                 -12.963
REMARK INTRA:                  -1.507
REMARK UNBOUND:                -1.531
REMARK SMILES COc1nn(C)cc1Nc1ncc(C)c(-c2c[nH]c3c(NC(=O)[C@@H](C)N4CCN(C)[C@@H](C)C4)cccc23)n1
REMARK SMILES IDX 16 1 17 2 18 3 19 4 20 5 34 6 35 7 36 8 37 9 15 11 10 12
REMARK SMILES IDX 11 13 38 14 12 15 13 16 14 17 9 18 8 20 3 21 4 22 5 23 7 24
REMARK SMILES IDX 6 25 2 26 1 27 21 28 22 29 23 30 24 32 25 33 26 34 27 35
REMARK SMILES IDX 33 36 28 37 31 38 29 39 32 40 30 41
REMARK H PARENT 18 10 9 19 21 31
ROOT
ATOM      1  C   UNL     1     -16.425  17.106  21.198  1.00  0.00     0.026 A 
ATOM      2  C   UNL     1     -15.278  17.676  21.708  1.00  0.00     0.094 A 
ATOM      3  N   UNL     1     -14.230  16.844  21.424  1.00  0.00    -0.359 N 
ATOM      4  C   UNL     1     -14.648  15.743  20.709  1.00  0.00     0.070 A 
ATOM      5  C   UNL     1     -13.933  14.652  20.187  1.00  0.00     0.065 A 
ATOM      6  C   UNL     1     -14.678  13.691  19.478  1.00  0.00     0.028 A 
ATOM      7  C   UNL     1     -16.054  13.810  19.300  1.00  0.00     0.003 A 
ATOM      8  C   UNL     1     -16.740  14.903  19.828  1.00  0.00     0.011 A 
ATOM      9  C   UNL     1     -16.032  15.891  20.545  1.00  0.00     0.011 A 
ATOM     10  H   UNL     1     -13.258  17.002  21.674  1.00  0.00     0.166 HD
ENDROOT
BRANCH   1  11
ATOM     11  C   UNL     1     -17.745  17.719  21.270  1.00  0.00     0.081 A 
ATOM     12  C   UNL     1     -19.195  19.179  20.227  1.00  0.00     0.227 A 
ATOM     13  N   UNL     1     -20.117  19.023  21.186  1.00  0.00    -0.221 NA
ATOM     14  N   UNL     1     -18.014  18.550  20.238  1.00  0.00    -0.212 NA
ATOM     15  C   UNL     1     -19.824  18.173  22.188  1.00  0.00     0.120 A 
ATOM     16  C   UNL     1     -18.647  17.462  22.286  1.00  0.00    -0.006 A 
ATOM     17  C   UNL     1     -18.415  16.526  23.424  1.00  0.00     0.048 C 
BRANCH  12  18
ATOM     18  N   UNL     1     -19.413  19.999  19.124  1.00  0.00    -0.318 N 
ATOM     19  H   UNL     1     -19.473  19.406  18.303  1.00  0.00     0.170 HD
BRANCH  18  20
ATOM     20  C   UNL     1     -19.558  21.333  18.999  1.00  0.00     0.124 A 
ATOM     21  C   UNL     1     -18.522  22.294  19.056  1.00  0.00     0.256 A 
ATOM     22  N   UNL     1     -18.965  23.545  18.910  1.00  0.00    -0.133 NA
ATOM     23  N   UNL     1     -20.296  23.376  18.758  1.00  0.00    -0.270 N 
ATOM     24  C   UNL     1     -20.697  22.072  18.800  1.00  0.00     0.138 A 
ATOM     25  C   UNL     1     -21.138  24.532  18.574  1.00  0.00     0.173 C 
BRANCH  21  26
ATOM     26  O   UNL     1     -17.207  22.024  19.229  1.00  0.00    -0.478 OA
ATOM     27  C   UNL     1     -16.770  22.095  20.580  1.00  0.00     0.280 C 
ENDBRANCH  21  26
ENDBRANCH  18  20
ENDBRANCH  12  18
ENDBRANCH   1  11
BRANCH   5  28
ATOM     28  N   UNL     1     -12.552  14.420  20.298  1.00  0.00    -0.323 N 
ATOM     29  C   UNL     1     -11.489  15.071  19.700  1.00  0.00     0.241 C 
ATOM     30  O   UNL     1     -11.549  16.015  18.916  1.00  0.00    -0.273 OA
ATOM     31  H   UNL     1     -12.259  13.634  20.875  1.00  0.00     0.170 HD
BRANCH  29  32
ATOM     32  C   UNL     1     -10.123  14.525  20.195  1.00  0.00     0.143 C 
ATOM     33  C   UNL     1      -9.955  13.141  19.554  1.00  0.00     0.035 C 
BRANCH  32  34
ATOM     34  N   UNL     1      -9.038  15.495  19.843  1.00  0.00    -0.289 NA
ATOM     35  C   UNL     1      -8.989  16.582  20.857  1.00  0.00     0.101 C 
ATOM     36  C   UNL     1      -7.700  14.861  19.802  1.00  0.00     0.104 C 
ATOM     37  C   UNL     1      -7.872  17.603  20.568  1.00  0.00     0.100 C 
ATOM     38  C   UNL     1      -6.543  15.874  19.525  1.00  0.00     0.067 C 
ATOM     39  N   UNL     1      -6.535  16.978  20.516  1.00  0.00    -0.301 NA
ATOM     40  C   UNL     1      -5.219  15.097  19.517  1.00  0.00     0.026 C 
ATOM     41  C   UNL     1      -5.532  18.002  20.214  1.00  0.00     0.105 C 
ENDBRANCH  32  34
ENDBRANCH  29  32
ENDBRANCH   5  28
TORSDOF 7
ENDMDL
MODEL 5
REMARK VINA RESULT:    -9.174      1.833     11.358
REMARK INTER + INTRA:         -14.459
REMARK INTER:                 -14.101
REMARK INTRA:                  -0.357
REMARK UNBOUND:                -1.531
REMARK SMILES COc1nn(C)cc1Nc1ncc(C)c(-c2c[nH]c3c(NC(=O)[C@@H](C)N4CCN(C)[C@@H](C)C4)cccc23)n1
REMARK SMILES IDX 16 1 17 2 18 3 19 4 20 5 34 6 35 7 36 8 37 9 15 11 10 12
REMARK SMILES IDX 11 13 38 14 12 15 13 16 14 17 9 18 8 20 3 21 4 22 5 23 7 24
REMARK SMILES IDX 6 25 2 26 1 27 21 28 22 29 23 30 24 32 25 33 26 34 27 35
REMARK SMILES IDX 33 36 28 37 31 38 29 39 32 40 30 41
REMARK H PARENT 18 10 9 19 21 31
ROOT
ATOM      1  C   UNL     1     -15.518  18.245  20.078  1.00  0.00     0.026 A 
ATOM      2  C   UNL     1     -14.268  18.761  20.348  1.00  0.00     0.094 A 
ATOM      3  N   UNL     1     -13.378  17.722  20.365  1.00  0.00    -0.359 N 
ATOM      4  C   UNL     1     -14.002  16.527  20.083  1.00  0.00     0.070 A 
ATOM      5  C   UNL     1     -13.494  15.221  19.970  1.00  0.00     0.065 A 
ATOM      6  C   UNL     1     -14.420  14.211  19.647  1.00  0.00     0.028 A 
ATOM      7  C   UNL     1     -15.771  14.485  19.449  1.00  0.00     0.003 A 
ATOM      8  C   UNL     1     -16.248  15.789  19.567  1.00  0.00     0.011 A 
ATOM      9  C   UNL     1     -15.355  16.833  19.889  1.00  0.00     0.011 A 
ATOM     10  H   UNL     1     -12.379  17.795  20.537  1.00  0.00     0.166 HD
ENDROOT
BRANCH   1  11
ATOM     11  C   UNL     1     -16.724  19.053  19.942  1.00  0.00     0.081 A 
ATOM     12  C   UNL     1     -19.023  19.038  20.130  1.00  0.00     0.227 A 
ATOM     13  N   UNL     1     -19.111  20.313  19.728  1.00  0.00    -0.221 NA
ATOM     14  N   UNL     1     -17.860  18.387  20.246  1.00  0.00    -0.212 NA
ATOM     15  C   UNL     1     -17.959  20.951  19.453  1.00  0.00     0.120 A 
ATOM     16  C   UNL     1     -16.708  20.381  19.557  1.00  0.00    -0.006 A 
ATOM     17  C   UNL     1     -15.481  21.172  19.249  1.00  0.00     0.048 C 
BRANCH  12  18
ATOM     18  N   UNL     1     -20.148  18.298  20.482  1.00  0.00    -0.318 N 
ATOM     19  H   UNL     1     -20.181  17.479  19.884  1.00  0.00     0.170 HD
BRANCH  18  20
ATOM     20  C   UNL     1     -21.100  18.484  21.417  1.00  0.00     0.124 A 
ATOM     21  C   UNL     1     -20.895  18.541  22.815  1.00  0.00     0.256 A 
ATOM     22  N   UNL     1     -22.027  18.725  23.499  1.00  0.00    -0.133 NA
ATOM     23  N   UNL     1     -22.960  18.786  22.525  1.00  0.00    -0.270 N 
ATOM     24  C   UNL     1     -22.453  18.651  21.264  1.00  0.00     0.138 A 
ATOM     25  C   UNL     1     -24.344  18.978  22.882  1.00  0.00     0.173 C 
BRANCH  21  26
ATOM     26  O   UNL     1     -19.700  18.435  23.441  1.00  0.00    -0.478 OA
ATOM     27  C   UNL     1     -19.127  17.135  23.387  1.00  0.00     0.280 C 
ENDBRANCH  21  26
ENDBRANCH  18  20
ENDBRANCH  12  18
ENDBRANCH   1  11
BRANCH   5  28
ATOM     28  N   UNL     1     -12.160  14.819  20.144  1.00  0.00    -0.323 N 
ATOM     29  C   UNL     1     -11.001  15.302  19.564  1.00  0.00     0.241 C 
ATOM     30  O   UNL     1     -10.912  16.212  18.742  1.00  0.00    -0.273 OA
ATOM     31  H   UNL     1     -11.991  14.028  20.762  1.00  0.00     0.170 HD
BRANCH  29  32
ATOM     32  C   UNL     1      -9.736  14.607  20.134  1.00  0.00     0.143 C 
ATOM     33  C   UNL     1      -9.668  13.225  19.471  1.00  0.00     0.035 C 
BRANCH  32  34
ATOM     34  N   UNL     1      -8.535  15.464  19.876  1.00  0.00    -0.289 NA
ATOM     35  C   UNL     1      -8.444  16.525  20.914  1.00  0.00     0.101 C 
ATOM     36  C   UNL     1      -7.269  14.695  19.911  1.00  0.00     0.104 C 
ATOM     37  C   UNL     1      -7.211  17.429  20.724  1.00  0.00     0.100 C 
ATOM     38  C   UNL     1      -5.998  15.587  19.734  1.00  0.00     0.067 C 
ATOM     39  N   UNL     1      -5.944  16.669  20.748  1.00  0.00    -0.301 NA
ATOM     40  C   UNL     1      -4.764  14.676  19.798  1.00  0.00     0.026 C 
ATOM     41  C   UNL     1      -4.823  17.587  20.536  1.00  0.00     0.105 C 
ENDBRANCH  32  34
ENDBRANCH  29  32
ENDBRANCH   5  28
TORSDOF 7
ENDMDL
MODEL 6
REMARK VINA RESULT:    -9.154      1.708      2.216
REMARK INTER + INTRA:         -14.431
REMARK INTER:                 -13.793
REMARK INTRA:                  -0.638
REMARK UNBOUND:                -1.531
REMARK SMILES COc1nn(C)cc1Nc1ncc(C)c(-c2c[nH]c3c(NC(=O)[C@@H](C)N4CCN(C)[C@@H](C)C4)cccc23)n1
REMARK SMILES IDX 16 1 17 2 18 3 19 4 20 5 34 6 35 7 36 8 37 9 15 11 10 12
REMARK SMILES IDX 11 13 38 14 12 15 13 16 14 17 9 18 8 20 3 21 4 22 5 23 7 24
REMARK SMILES IDX 6 25 2 26 1 27 21 28 22 29 23 30 24 32 25 33 26 34 27 35
REMARK SMILES IDX 33 36 28 37 31 38 29 39 32 40 30 41
REMARK H PARENT 18 10 9 19 21 31
ROOT
ATOM      1  C   UNL     1     -13.965  15.113  20.084  1.00  0.00     0.026 A 
ATOM      2  C   UNL     1     -14.053  15.891  21.219  1.00  0.00     0.094 A 
ATOM      3  N   UNL     1     -15.010  16.845  21.005  1.00  0.00    -0.359 N 
ATOM      4  C   UNL     1     -15.585  16.703  19.761  1.00  0.00     0.070 A 
ATOM      5  C   UNL     1     -16.609  17.426  19.127  1.00  0.00     0.065 A 
ATOM      6  C   UNL     1     -16.976  16.998  17.836  1.00  0.00     0.028 A 
ATOM      7  C   UNL     1     -16.360  15.915  17.215  1.00  0.00     0.003 A 
ATOM      8  C   UNL     1     -15.346  15.214  17.868  1.00  0.00     0.011 A 
ATOM      9  C   UNL     1     -14.947  15.608  19.163  1.00  0.00     0.011 A 
ATOM     10  H   UNL     1     -15.297  17.561  21.666  1.00  0.00     0.166 HD
ENDROOT
BRANCH   1  11
ATOM     11  C   UNL     1     -13.078  13.966  19.945  1.00  0.00     0.081 A 
ATOM     12  C   UNL     1     -10.881  13.315  19.680  1.00  0.00     0.227 A 
ATOM     13  N   UNL     1     -11.222  12.020  19.631  1.00  0.00    -0.221 NA
ATOM     14  N   UNL     1     -11.773  14.300  19.834  1.00  0.00    -0.212 NA
ATOM     15  C   UNL     1     -12.527  11.722  19.764  1.00  0.00     0.120 A 
ATOM     16  C   UNL     1     -13.524  12.657  19.945  1.00  0.00    -0.006 A 
ATOM     17  C   UNL     1     -14.946  12.234  20.104  1.00  0.00     0.048 C 
BRANCH  12  18
ATOM     18  N   UNL     1      -9.555  13.730  19.596  1.00  0.00    -0.318 N 
ATOM     19  H   UNL     1      -9.005  12.946  19.262  1.00  0.00     0.170 HD
BRANCH  18  20
ATOM     20  C   UNL     1      -8.956  14.909  19.853  1.00  0.00     0.124 A 
ATOM     21  C   UNL     1      -7.579  15.107  20.106  1.00  0.00     0.256 A 
ATOM     22  N   UNL     1      -7.272  16.386  20.339  1.00  0.00    -0.133 NA
ATOM     23  N   UNL     1      -8.466  17.005  20.232  1.00  0.00    -0.270 N 
ATOM     24  C   UNL     1      -9.502  16.165  19.938  1.00  0.00     0.138 A 
ATOM     25  C   UNL     1      -8.543  18.432  20.429  1.00  0.00     0.173 C 
BRANCH  21  26
ATOM     26  O   UNL     1      -6.633  14.139  20.113  1.00  0.00    -0.478 OA
ATOM     27  C   UNL     1      -5.333  14.598  20.461  1.00  0.00     0.280 C 
ENDBRANCH  21  26
ENDBRANCH  18  20
ENDBRANCH  12  18
ENDBRANCH   1  11
BRANCH   5  28
ATOM     28  N   UNL     1     -17.305  18.531  19.644  1.00  0.00    -0.323 N 
ATOM     29  C   UNL     1     -17.149  19.880  19.388  1.00  0.00     0.241 C 
ATOM     30  O   UNL     1     -16.332  20.397  18.629  1.00  0.00    -0.273 OA
ATOM     31  H   UNL     1     -18.017  18.343  20.347  1.00  0.00     0.170 HD
BRANCH  29  32
ATOM     32  C   UNL     1     -18.213  20.736  20.125  1.00  0.00     0.143 C 
ATOM     33  C   UNL     1     -18.199  22.115  19.451  1.00  0.00     0.035 C 
BRANCH  32  34
ATOM     34  N   UNL     1     -19.541  20.045  20.067  1.00  0.00    -0.289 NA
ATOM     35  C   UNL     1     -19.786  19.324  21.344  1.00  0.00     0.101 C 
ATOM     36  C   UNL     1     -20.664  20.988  19.862  1.00  0.00     0.104 C 
ATOM     37  C   UNL     1     -21.153  18.612  21.362  1.00  0.00     0.100 C 
ATOM     38  C   UNL     1     -22.066  20.297  19.889  1.00  0.00     0.067 C 
ATOM     39  N   UNL     1     -22.279  19.543  21.149  1.00  0.00    -0.301 NA
ATOM     40  C   UNL     1     -23.135  21.376  19.675  1.00  0.00     0.026 C 
ATOM     41  C   UNL     1     -23.537  18.793  21.154  1.00  0.00     0.105 C 
ENDBRANCH  32  34
ENDBRANCH  29  32
ENDBRANCH   5  28
TORSDOF 7
ENDMDL
MODEL 7
REMARK VINA RESULT:    -9.144      2.329      3.315
REMARK INTER + INTRA:         -14.416
REMARK INTER:                 -13.922
REMARK INTRA:                  -0.495
REMARK UNBOUND:                -1.531
REMARK SMILES COc1nn(C)cc1Nc1ncc(C)c(-c2c[nH]c3c(NC(=O)[C@@H](C)N4CCN(C)[C@@H](C)C4)cccc23)n1
REMARK SMILES IDX 16 1 17 2 18 3 19 4 20 5 34 6 35 7 36 8 37 9 15 11 10 12
REMARK SMILES IDX 11 13 38 14 12 15 13 16 14 17 9 18 8 20 3 21 4 22 5 23 7 24
REMARK SMILES IDX 6 25 2 26 1 27 21 28 22 29 23 30 24 32 25 33 26 34 27 35
REMARK SMILES IDX 33 36 28 37 31 38 29 39 32 40 30 41
REMARK H PARENT 18 10 9 19 21 31
ROOT
ATOM      1  C   UNL     1     -12.931  14.991  20.071  1.00  0.00     0.026 A 
ATOM      2  C   UNL     1     -14.013  14.348  20.634  1.00  0.00     0.094 A 
ATOM      3  N   UNL     1     -15.081  15.201  20.590  1.00  0.00    -0.359 N 
ATOM      4  C   UNL     1     -14.744  16.390  19.982  1.00  0.00     0.070 A 
ATOM      5  C   UNL     1     -15.510  17.533  19.697  1.00  0.00     0.065 A 
ATOM      6  C   UNL     1     -14.847  18.587  19.038  1.00  0.00     0.028 A 
ATOM      7  C   UNL     1     -13.503  18.505  18.683  1.00  0.00     0.003 A 
ATOM      8  C   UNL     1     -12.767  17.358  18.977  1.00  0.00     0.011 A 
ATOM      9  C   UNL     1     -13.391  16.278  19.636  1.00  0.00     0.011 A 
ATOM     10  H   UNL     1     -16.018  15.002  20.931  1.00  0.00     0.166 HD
ENDROOT
BRANCH   1  11
ATOM     11  C   UNL     1     -11.615  14.386  19.904  1.00  0.00     0.081 A 
ATOM     12  C   UNL     1      -9.344  14.769  20.034  1.00  0.00     0.227 A 
ATOM     13  N   UNL     1      -9.063  13.523  19.630  1.00  0.00    -0.221 NA
ATOM     14  N   UNL     1     -10.593  15.227  20.180  1.00  0.00    -0.212 NA
ATOM     15  C   UNL     1     -10.105  12.708  19.384  1.00  0.00     0.120 A 
ATOM     16  C   UNL     1     -11.428  13.072  19.519  1.00  0.00    -0.006 A 
ATOM     17  C   UNL     1     -12.519  12.093  19.242  1.00  0.00     0.048 C 
BRANCH  12  18
ATOM     18  N   UNL     1      -8.343  15.681  20.358  1.00  0.00    -0.318 N 
ATOM     19  H   UNL     1      -8.655  16.210  21.165  1.00  0.00     0.170 HD
BRANCH  18  20
ATOM     20  C   UNL     1      -7.133  15.929  19.820  1.00  0.00     0.124 A 
ATOM     21  C   UNL     1      -5.951  15.189  20.049  1.00  0.00     0.256 A 
ATOM     22  N   UNL     1      -4.897  15.674  19.387  1.00  0.00    -0.133 NA
ATOM     23  N   UNL     1      -5.417  16.732  18.730  1.00  0.00    -0.270 N 
ATOM     24  C   UNL     1      -6.751  16.922  18.954  1.00  0.00     0.138 A 
ATOM     25  C   UNL     1      -4.561  17.533  17.890  1.00  0.00     0.173 C 
BRANCH  21  26
ATOM     26  O   UNL     1      -5.848  14.094  20.838  1.00  0.00    -0.478 OA
ATOM     27  C   UNL     1      -4.850  14.194  21.846  1.00  0.00     0.280 C 
ENDBRANCH  21  26
ENDBRANCH  18  20
ENDBRANCH  12  18
ENDBRANCH   1  11
BRANCH   5  28
ATOM     28  N   UNL     1     -16.865  17.736  20.001  1.00  0.00    -0.323 N 
ATOM     29  C   UNL     1     -17.449  18.432  21.044  1.00  0.00     0.241 C 
ATOM     30  O   UNL     1     -16.869  19.027  21.949  1.00  0.00    -0.273 OA
ATOM     31  H   UNL     1     -17.549  17.284  19.398  1.00  0.00     0.170 HD
BRANCH  29  32
ATOM     32  C   UNL     1     -18.996  18.466  20.923  1.00  0.00     0.143 C 
ATOM     33  C   UNL     1     -19.542  17.819  22.203  1.00  0.00     0.035 C 
BRANCH  32  34
ATOM     34  N   UNL     1     -19.451  19.877  20.713  1.00  0.00    -0.289 NA
ATOM     35  C   UNL     1     -18.729  20.469  19.555  1.00  0.00     0.101 C 
ATOM     36  C   UNL     1     -20.902  19.971  20.431  1.00  0.00     0.104 C 
ATOM     37  C   UNL     1     -19.172  21.917  19.266  1.00  0.00     0.100 C 
ATOM     38  C   UNL     1     -21.380  21.426  20.119  1.00  0.00     0.067 C 
ATOM     39  N   UNL     1     -20.620  22.021  18.993  1.00  0.00    -0.301 NA
ATOM     40  C   UNL     1     -22.888  21.384  19.838  1.00  0.00     0.026 C 
ATOM     41  C   UNL     1     -20.969  23.423  18.753  1.00  0.00     0.105 C 
ENDBRANCH  32  34
ENDBRANCH  29  32
ENDBRANCH   5  28
TORSDOF 7
ENDMDL
MODEL 8
REMARK VINA RESULT:    -9.054      1.992      2.962
REMARK INTER + INTRA:         -14.290
REMARK INTER:                 -13.212
REMARK INTRA:                  -1.078
REMARK UNBOUND:                -1.531
REMARK SMILES COc1nn(C)cc1Nc1ncc(C)c(-c2c[nH]c3c(NC(=O)[C@@H](C)N4CCN(C)[C@@H](C)C4)cccc23)n1
REMARK SMILES IDX 16 1 17 2 18 3 19 4 20 5 34 6 35 7 36 8 37 9 15 11 10 12
REMARK SMILES IDX 11 13 38 14 12 15 13 16 14 17 9 18 8 20 3 21 4 22 5 23 7 24
REMARK SMILES IDX 6 25 2 26 1 27 21 28 22 29 23 30 24 32 25 33 26 34 27 35
REMARK SMILES IDX 33 36 28 37 31 38 29 39 32 40 30 41
REMARK H PARENT 18 10 9 19 21 31
ROOT
ATOM      1  C   UNL     1     -12.011  15.050  20.238  1.00  0.00     0.026 A 
ATOM      2  C   UNL     1     -12.991  14.349  20.908  1.00  0.00     0.094 A 
ATOM      3  N   UNL     1     -14.145  15.080  20.855  1.00  0.00    -0.359 N 
ATOM      4  C   UNL     1     -13.965  16.243  20.138  1.00  0.00     0.070 A 
ATOM      5  C   UNL     1     -14.861  17.274  19.807  1.00  0.00     0.065 A 
ATOM      6  C   UNL     1     -14.347  18.330  19.031  1.00  0.00     0.028 A 
ATOM      7  C   UNL     1     -13.019  18.358  18.611  1.00  0.00     0.003 A 
ATOM      8  C   UNL     1     -12.152  17.321  18.954  1.00  0.00     0.011 A 
ATOM      9  C   UNL     1     -12.625  16.242  19.729  1.00  0.00     0.011 A 
ATOM     10  H   UNL     1     -15.038  14.816  21.261  1.00  0.00     0.166 HD
ENDROOT
BRANCH   1  11
ATOM     11  C   UNL     1     -10.647  14.572  20.047  1.00  0.00     0.081 A 
ATOM     12  C   UNL     1      -8.420  15.074  20.377  1.00  0.00     0.227 A 
ATOM     13  N   UNL     1      -8.028  13.940  19.780  1.00  0.00    -0.221 NA
ATOM     14  N   UNL     1      -9.705  15.416  20.525  1.00  0.00    -0.212 NA
ATOM     15  C   UNL     1      -8.993  13.115  19.334  1.00  0.00     0.120 A 
ATOM     16  C   UNL     1     -10.344  13.362  19.452  1.00  0.00    -0.006 A 
ATOM     17  C   UNL     1     -11.345  12.379  18.945  1.00  0.00     0.048 C 
BRANCH  12  18
ATOM     18  N   UNL     1      -7.507  15.977  20.913  1.00  0.00    -0.318 N 
ATOM     19  H   UNL     1      -6.939  15.479  21.591  1.00  0.00     0.170 HD
BRANCH  18  20
ATOM     20  C   UNL     1      -7.277  17.284  20.677  1.00  0.00     0.124 A 
ATOM     21  C   UNL     1      -6.746  17.836  19.489  1.00  0.00     0.256 A 
ATOM     22  N   UNL     1      -6.619  19.164  19.544  1.00  0.00    -0.133 NA
ATOM     23  N   UNL     1      -7.074  19.458  20.780  1.00  0.00    -0.270 N 
ATOM     24  C   UNL     1      -7.483  18.367  21.493  1.00  0.00     0.138 A 
ATOM     25  C   UNL     1      -7.089  20.831  21.220  1.00  0.00     0.173 C 
BRANCH  21  26
ATOM     26  O   UNL     1      -6.397  17.137  18.383  1.00  0.00    -0.478 OA
ATOM     27  C   UNL     1      -5.796  17.923  17.362  1.00  0.00     0.280 C 
ENDBRANCH  21  26
ENDBRANCH  18  20
ENDBRANCH  12  18
ENDBRANCH   1  11
BRANCH   5  28
ATOM     28  N   UNL     1     -16.215  17.361  20.168  1.00  0.00    -0.323 N 
ATOM     29  C   UNL     1     -16.815  18.029  21.219  1.00  0.00     0.241 C 
ATOM     30  O   UNL     1     -16.253  18.699  22.083  1.00  0.00    -0.273 OA
ATOM     31  H   UNL     1     -16.880  16.831  19.607  1.00  0.00     0.170 HD
BRANCH  29  32
ATOM     32  C   UNL     1     -18.362  17.919  21.168  1.00  0.00     0.143 C 
ATOM     33  C   UNL     1     -18.786  17.202  22.457  1.00  0.00     0.035 C 
BRANCH  32  34
ATOM     34  N   UNL     1     -18.957  19.284  21.009  1.00  0.00    -0.289 NA
ATOM     35  C   UNL     1     -18.494  19.886  19.730  1.00  0.00     0.101 C 
ATOM     36  C   UNL     1     -20.437  19.260  20.982  1.00  0.00     0.104 C 
ATOM     37  C   UNL     1     -19.092  21.285  19.489  1.00  0.00     0.100 C 
ATOM     38  C   UNL     1     -21.075  20.664  20.724  1.00  0.00     0.067 C 
ATOM     39  N   UNL     1     -20.569  21.272  19.470  1.00  0.00    -0.301 NA
ATOM     40  C   UNL     1     -22.601  20.500  20.711  1.00  0.00     0.026 C 
ATOM     41  C   UNL     1     -21.064  22.635  19.262  1.00  0.00     0.105 C 
ENDBRANCH  32  34
ENDBRANCH  29  32
ENDBRANCH   5  28
TORSDOF 7
ENDMDL
MODEL 9
REMARK VINA RESULT:    -8.896      3.333     11.147
REMARK INTER + INTRA:         -14.068
REMARK INTER:                 -13.288
REMARK INTRA:                  -0.780
REMARK UNBOUND:                -1.531
REMARK SMILES COc1nn(C)cc1Nc1ncc(C)c(-c2c[nH]c3c(NC(=O)[C@@H](C)N4CCN(C)[C@@H](C)C4)cccc23)n1
REMARK SMILES IDX 16 1 17 2 18 3 19 4 20 5 34 6 35 7 36 8 37 9 15 11 10 12
REMARK SMILES IDX 11 13 38 14 12 15 13 16 14 17 9 18 8 20 3 21 4 22 5 23 7 24
REMARK SMILES IDX 6 25 2 26 1 27 21 28 22 29 23 30 24 32 25 33 26 34 27 35
REMARK SMILES IDX 33 36 28 37 31 38 29 39 32 40 30 41
REMARK H PARENT 18 10 9 19 21 31
ROOT
ATOM      1  C   UNL     1     -11.975  14.506  19.794  1.00  0.00     0.026 A 
ATOM      2  C   UNL     1     -10.758  13.941  20.112  1.00  0.00     0.094 A 
ATOM      3  N   UNL     1      -9.796  14.904  19.978  1.00  0.00    -0.359 N 
ATOM      4  C   UNL     1     -10.349  16.110  19.605  1.00  0.00     0.070 A 
ATOM      5  C   UNL     1      -9.761  17.366  19.376  1.00  0.00     0.065 A 
ATOM      6  C   UNL     1     -10.631  18.413  19.019  1.00  0.00     0.028 A 
ATOM      7  C   UNL     1     -12.005  18.221  18.898  1.00  0.00     0.003 A 
ATOM      8  C   UNL     1     -12.563  16.964  19.131  1.00  0.00     0.011 A 
ATOM      9  C   UNL     1     -11.727  15.886  19.492  1.00  0.00     0.011 A 
ATOM     10  H   UNL     1      -8.802  14.782  20.146  1.00  0.00     0.166 HD
ENDROOT
BRANCH   1  11
ATOM     11  C   UNL     1     -13.247  13.798  19.857  1.00  0.00     0.081 A 
ATOM     12  C   UNL     1     -15.521  14.049  20.151  1.00  0.00     0.227 A 
ATOM     13  N   UNL     1     -15.726  12.729  20.057  1.00  0.00    -0.221 NA
ATOM     14  N   UNL     1     -14.309  14.610  20.057  1.00  0.00    -0.212 NA
ATOM     15  C   UNL     1     -14.649  11.953  19.838  1.00  0.00     0.120 A 
ATOM     16  C   UNL     1     -13.361  12.428  19.707  1.00  0.00    -0.006 A 
ATOM     17  C   UNL     1     -12.227  11.495  19.446  1.00  0.00     0.048 C 
BRANCH  12  18
ATOM     18  N   UNL     1     -16.570  14.946  20.333  1.00  0.00    -0.318 N 
ATOM     19  H   UNL     1     -17.381  14.417  20.636  1.00  0.00     0.170 HD
BRANCH  18  20
ATOM     20  C   UNL     1     -16.655  16.283  20.194  1.00  0.00     0.124 A 
ATOM     21  C   UNL     1     -16.848  16.986  18.983  1.00  0.00     0.256 A 
ATOM     22  N   UNL     1     -16.882  18.311  19.150  1.00  0.00    -0.133 NA
ATOM     23  N   UNL     1     -16.711  18.449  20.482  1.00  0.00    -0.270 N 
ATOM     24  C   UNL     1     -16.575  17.266  21.149  1.00  0.00     0.138 A 
ATOM     25  C   UNL     1     -16.686  19.772  21.057  1.00  0.00     0.173 C 
BRANCH  21  26
ATOM     26  O   UNL     1     -16.996  16.423  17.761  1.00  0.00    -0.478 OA
ATOM     27  C   UNL     1     -15.774  16.206  17.068  1.00  0.00     0.280 C 
ENDBRANCH  21  26
ENDBRANCH  18  20
ENDBRANCH  12  18
ENDBRANCH   1  11
BRANCH   5  28
ATOM     28  N   UNL     1      -8.396  17.686  19.466  1.00  0.00    -0.323 N 
ATOM     29  C   UNL     1      -7.478  17.397  20.459  1.00  0.00     0.241 C 
ATOM     30  O   UNL     1      -7.689  16.784  21.503  1.00  0.00    -0.273 OA
ATOM     31  H   UNL     1      -8.001  18.248  18.715  1.00  0.00     0.170 HD
BRANCH  29  32
ATOM     32  C   UNL     1      -6.050  17.874  20.083  1.00  0.00     0.143 C 
ATOM     33  C   UNL     1      -5.310  18.104  21.407  1.00  0.00     0.035 C 
BRANCH  32  34
ATOM     34  N   UNL     1      -5.401  16.860  19.192  1.00  0.00    -0.289 NA
ATOM     35  C   UNL     1      -4.843  17.535  17.989  1.00  0.00     0.101 C 
ATOM     36  C   UNL     1      -4.290  16.145  19.859  1.00  0.00     0.104 C 
ATOM     37  C   UNL     1      -4.134  16.549  17.040  1.00  0.00     0.100 C 
ATOM     38  C   UNL     1      -3.540  15.147  18.918  1.00  0.00     0.067 C 
ATOM     39  N   UNL     1      -3.030  15.823  17.701  1.00  0.00    -0.301 NA
ATOM     40  C   UNL     1      -2.416  14.483  19.724  1.00  0.00     0.026 C 
ATOM     41  C   UNL     1      -2.423  14.891  16.748  1.00  0.00     0.105 C 
ENDBRANCH  32  34
ENDBRANCH  29  32
ENDBRANCH   5  28
TORSDOF 7
ENDMDL
