MODEL 8
REMARK VINA RESULT:    -8.245     10.089     13.136
REMARK INTER + INTRA:         -12.067
REMARK INTER:                 -10.945
REMARK INTRA:                  -1.122
REMARK UNBOUND:                -0.929
REMARK SMILES O=C(NS(=O)(=O)c1ccc(Oc2ccccc2)cc1)c1cccc(-c2cc(Cl)cc(Cl)c2)c1
REMARK SMILES IDX 1 1 2 2 3 3 20 5 21 6 33 7 22 8 24 9 23 10 25 11 26 12 32 13
REMARK SMILES IDX 27 14 30 15 29 16 28 17 31 18 4 19 5 20 6 21 7 22 8 23 19 24
REMARK SMILES IDX 9 25 18 26 10 27 11 28 12 29 13 30 17 31 14 32 16 33 15 34
REMARK H PARENT 3 4
ROOT
ATOM      1  O   UNL     1      40.685  15.619 -47.507  1.00  0.00    -0.268 OA
ATOM      2  C   UNL     1      40.430  14.453 -47.764  1.00  0.00     0.265 C 
ATOM      3  N   UNL     1      41.363  13.559 -48.297  1.00  0.00    -0.245 N 
ATOM      4  H   UNL     1      41.126  12.617 -48.582  1.00  0.00     0.183 HD
ENDROOT
BRANCH   2   5
ATOM      5  C   UNL     1      39.069  13.901 -47.501  1.00  0.00     0.041 A 
ATOM      6  C   UNL     1      38.773  13.091 -46.400  1.00  0.00     0.014 A 
ATOM      7  C   UNL     1      38.050  14.219 -48.416  1.00  0.00     0.022 A 
ATOM      8  C   UNL     1      37.479  12.598 -46.225  1.00  0.00     0.001 A 
ATOM      9  C   UNL     1      36.740  13.733 -48.255  1.00  0.00    -0.018 A 
ATOM     10  C   UNL     1      36.476  12.915 -47.144  1.00  0.00     0.009 A 
BRANCH   9  11
ATOM     11  C   UNL     1      35.680  14.073 -49.218  1.00  0.00    -0.015 A 
ATOM     12  C   UNL     1      35.982  14.726 -50.426  1.00  0.00     0.029 A 
ATOM     13  C   UNL     1      34.336  13.754 -48.959  1.00  0.00     0.029 A 
ATOM     14  C   UNL     1      34.972  15.046 -51.336  1.00  0.00     0.043 A 
ATOM     15  C   UNL     1      33.336  14.080 -49.878  1.00  0.00     0.043 A 
ATOM     16  C   UNL     1      33.646  14.727 -51.069  1.00  0.00     0.041 A 
ATOM     17  Cl  UNL     1      35.377  15.845 -52.806  1.00  0.00    -0.084 Cl
ATOM     18  Cl  UNL     1      31.698  13.682 -49.528  1.00  0.00    -0.084 Cl
ENDBRANCH   9  11
ENDBRANCH   2   5
BRANCH   3  19
ATOM     19  S   UNL     1      42.926  13.951 -48.712  1.00  0.00     0.264 S 
ATOM     20  O   UNL     1      43.428  12.785 -49.412  1.00  0.00    -0.201 OA
ATOM     21  O   UNL     1      42.953  15.254 -49.336  1.00  0.00    -0.201 OA
BRANCH  19  22
ATOM     22  C   UNL     1      43.755  14.025 -47.146  1.00  0.00     0.088 A 
ATOM     23  C   UNL     1      44.063  15.268 -46.583  1.00  0.00     0.026 A 
ATOM     24  C   UNL     1      44.137  12.840 -46.506  1.00  0.00     0.026 A 
ATOM     25  C   UNL     1      44.734  15.326 -45.361  1.00  0.00     0.048 A 
ATOM     26  C   UNL     1      44.810  12.903 -45.286  1.00  0.00     0.048 A 
ATOM     27  C   UNL     1      45.121  14.144 -44.722  1.00  0.00     0.127 A 
BRANCH  27  28
ATOM     28  O   UNL     1      45.752  14.126 -43.498  1.00  0.00    -0.457 OA
BRANCH  28  29
ATOM     29  C   UNL     1      45.113  14.751 -42.452  1.00  0.00     0.127 A 
ATOM     30  C   UNL     1      43.864  14.257 -42.078  1.00  0.00     0.047 A 
ATOM     31  C   UNL     1      45.705  15.792 -41.732  1.00  0.00     0.047 A 
ATOM     32  C   UNL     1      43.184  14.830 -41.004  1.00  0.00     0.004 A 
ATOM     33  C   UNL     1      45.023  16.363 -40.656  1.00  0.00     0.004 A 
ATOM     34  C   UNL     1      43.763  15.884 -40.296  1.00  0.00     0.000 A 
ENDBRANCH  28  29
ENDBRANCH  27  28
ENDBRANCH  19  22
ENDBRANCH   3  19
TORSDOF 6
ENDMDL
