MODEL 4
REMARK VINA RESULT:    -9.581      5.709     10.568
REMARK INTER + INTRA:         -16.800
REMARK INTER:                 -14.880
REMARK INTRA:                  -1.920
REMARK UNBOUND:                -1.617
REMARK SMILES Cc1c(C(=O)NCCCN2CC[NH+](C)CC2)[nH]c2cnnc(Nc3ccc(OCc4cccc(F)c4)c(Cl)c3)c12
REMARK SMILES IDX 1 1 2 2 3 3 17 4 18 5 19 6 20 7 21 8 22 9 40 10 4 12 5 13
REMARK SMILES IDX 6 14 7 16 8 17 9 18 10 19 16 20 11 21 15 22 12 23 13 24
REMARK SMILES IDX 14 25 23 27 24 29 39 30 25 31 37 32 26 33 27 34 38 35 28 36
REMARK SMILES IDX 29 37 30 38 36 39 31 40 34 41 32 42 33 43 35 44
REMARK H PARENT 17 11 6 15 13 26 23 28
ROOT
ATOM      1  C   UNL     1      18.767  35.266  14.432  1.00  0.00     0.048 C 
ATOM      2  C   UNL     1      17.898  34.852  15.609  1.00  0.00    -0.009 A 
ATOM      3  C   UNL     1      18.271  34.616  16.941  1.00  0.00     0.108 A 
ATOM      4  N   UNL     1      17.139  34.246  17.642  1.00  0.00    -0.349 N 
ATOM      5  C   UNL     1      16.031  34.262  16.834  1.00  0.00     0.071 A 
ATOM      6  C   UNL     1      14.686  33.986  17.074  1.00  0.00     0.162 A 
ATOM      7  N   UNL     1      13.788  34.082  16.063  1.00  0.00    -0.155 NA
ATOM      8  N   UNL     1      14.175  34.431  14.828  1.00  0.00    -0.132 NA
ATOM      9  C   UNL     1      15.477  34.700  14.536  1.00  0.00     0.162 A 
ATOM     10  C   UNL     1      16.469  34.634  15.539  1.00  0.00     0.049 A 
ATOM     11  H   UNL     1      17.174  34.002  18.621  1.00  0.00     0.167 HD
ENDROOT
BRANCH   3  12
ATOM     12  C   UNL     1      19.592  34.623  17.536  1.00  0.00     0.268 C 
ATOM     13  O   UNL     1      19.850  35.304  18.530  1.00  0.00    -0.268 OA
ATOM     14  N   UNL     1      20.498  33.836  16.924  1.00  0.00    -0.351 N 
ATOM     15  H   UNL     1      20.199  33.272  16.141  1.00  0.00     0.163 HD
BRANCH  14  16
ATOM     16  C   UNL     1      21.892  33.678  17.337  1.00  0.00     0.117 C 
BRANCH  16  17
ATOM     17  C   UNL     1      22.916  34.117  16.270  1.00  0.00     0.037 C 
BRANCH  17  18
ATOM     18  C   UNL     1      22.352  34.176  14.833  1.00  0.00     0.087 C 
BRANCH  18  19
ATOM     19  N   UNL     1      22.314  32.872  14.152  1.00  0.00    -0.292 NA
ATOM     20  C   UNL     1      23.570  32.538  13.467  1.00  0.00     0.146 C 
ATOM     21  C   UNL     1      21.176  32.653  13.245  1.00  0.00     0.146 C 
ATOM     22  C   UNL     1      23.791  33.381  12.186  1.00  0.00     0.277 C 
ATOM     23  C   UNL     1      21.275  33.513  11.962  1.00  0.00     0.277 C 
ATOM     24  N   UNL     1      22.593  33.163  11.234  1.00  0.00    -0.335 N 
ATOM     25  C   UNL     1      22.751  34.006   9.954  1.00  0.00     0.332 C 
ATOM     26  H   UNL     1      22.563  32.183  10.987  1.00  0.00     0.347 HD
ENDBRANCH  18  19
ENDBRANCH  17  18
ENDBRANCH  16  17
ENDBRANCH  14  16
ENDBRANCH   3  12
BRANCH   9  27
ATOM     27  N   UNL     1      15.846  35.066  13.228  1.00  0.00    -0.338 N 
ATOM     28  H   UNL     1      15.858  36.066  13.091  1.00  0.00     0.168 HD
BRANCH  27  29
ATOM     29  C   UNL     1      16.212  34.350  12.074  1.00  0.00     0.041 A 
ATOM     30  C   UNL     1      16.436  35.090  10.911  1.00  0.00     0.050 A 
ATOM     31  C   UNL     1      16.388  32.961  12.031  1.00  0.00     0.030 A 
ATOM     32  C   UNL     1      16.817  34.463   9.724  1.00  0.00     0.085 A 
ATOM     33  C   UNL     1      16.767  32.331  10.846  1.00  0.00     0.050 A 
ATOM     34  C   UNL     1      16.988  33.074   9.675  1.00  0.00     0.138 A 
ATOM     35  Cl  UNL     1      17.079  35.430   8.314  1.00  0.00    -0.080 Cl
BRANCH  34  36
ATOM     36  O   UNL     1      17.372  32.519   8.468  1.00  0.00    -0.487 OA
BRANCH  36  37
ATOM     37  C   UNL     1      16.437  32.454   7.391  1.00  0.00     0.265 C 
BRANCH  37  38
ATOM     38  C   UNL     1      15.935  31.029   7.177  1.00  0.00    -0.008 A 
ATOM     39  C   UNL     1      16.720  30.055   6.545  1.00  0.00     0.046 A 
ATOM     40  C   UNL     1      14.650  30.691   7.614  1.00  0.00     0.007 A 
ATOM     41  C   UNL     1      16.227  28.762   6.362  1.00  0.00     0.123 A 
ATOM     42  C   UNL     1      14.158  29.399   7.431  1.00  0.00     0.003 A 
ATOM     43  C   UNL     1      14.947  28.433   6.805  1.00  0.00     0.039 A 
ATOM     44  F   UNL     1      16.992  27.826   5.754  1.00  0.00    -0.207 F 
ENDBRANCH  37  38
ENDBRANCH  36  37
ENDBRANCH  34  36
ENDBRANCH  27  29
ENDBRANCH   9  27
TORSDOF 10
ENDMDL
