MODEL 2
REMARK VINA RESULT:    -7.493      3.029      4.840
REMARK INTER + INTRA:         -10.020
REMARK INTER:                  -9.223
REMARK INTRA:                  -0.797
REMARK UNBOUND:                -0.775
REMARK SMILES O=c1[nH]c2ncc(-c3ccc(-c4nc[nH]n4)cc3)nc2n1CC1CCOCC1
REMARK SMILES IDX 1 1 2 2 3 3 4 4 5 5 6 6 7 7 19 8 20 9 21 10 22 12 23 13
REMARK SMILES IDX 28 14 24 15 27 16 25 17 26 18 8 19 18 20 9 21 17 22 10 23
REMARK SMILES IDX 11 24 12 25 16 26 13 27 15 28 14 29
REMARK H PARENT 3 11 15 30
ROOT
ATOM      1  O   UNL     1      31.303  44.280  36.850  1.00  0.00    -0.248 OA
ATOM      2  C   UNL     1      31.137  44.402  38.064  1.00  0.00     0.328 A 
ATOM      3  N   UNL     1      30.371  43.617  38.857  1.00  0.00    -0.289 N 
ATOM      4  C   UNL     1      30.400  44.051  40.157  1.00  0.00     0.178 A 
ATOM      5  N   UNL     1      29.765  43.567  41.251  1.00  0.00    -0.233 NA
ATOM      6  C   UNL     1      30.003  44.251  42.410  1.00  0.00     0.142 A 
ATOM      7  C   UNL     1      30.852  45.381  42.460  1.00  0.00     0.091 A 
ATOM      8  N   UNL     1      31.472  45.836  41.324  1.00  0.00    -0.225 NA
ATOM      9  C   UNL     1      31.218  45.139  40.187  1.00  0.00     0.181 A 
ATOM     10  N   UNL     1      31.669  45.338  38.900  1.00  0.00    -0.275 N 
ATOM     11  H   UNL     1      29.843  42.821  38.527  1.00  0.00     0.173 HD
ENDROOT
BRANCH  10  12
ATOM     12  C   UNL     1      32.559  46.408  38.436  1.00  0.00     0.133 C 
BRANCH  12  13
ATOM     13  C   UNL     1      34.044  46.199  38.811  1.00  0.00     0.014 C 
ATOM     14  C   UNL     1      34.967  46.414  37.594  1.00  0.00     0.034 C 
ATOM     15  C   UNL     1      34.529  47.111  39.960  1.00  0.00     0.034 C 
ATOM     16  C   UNL     1      36.446  46.214  37.983  1.00  0.00     0.160 C 
ATOM     17  C   UNL     1      36.026  46.883  40.247  1.00  0.00     0.160 C 
ATOM     18  O   UNL     1      36.787  47.091  39.056  1.00  0.00    -0.381 OA
ENDBRANCH  12  13
ENDBRANCH  10  12
BRANCH   7  19
ATOM     19  C   UNL     1      31.104  46.144  43.719  1.00  0.00     0.002 A 
ATOM     20  C   UNL     1      30.197  46.081  44.784  1.00  0.00     0.011 A 
ATOM     21  C   UNL     1      32.248  46.940  43.868  1.00  0.00     0.011 A 
ATOM     22  C   UNL     1      30.424  46.790  45.960  1.00  0.00     0.013 A 
ATOM     23  C   UNL     1      32.477  47.652  45.042  1.00  0.00     0.013 A 
ATOM     24  C   UNL     1      31.567  47.587  46.104  1.00  0.00     0.021 A 
BRANCH  24  25
ATOM     25  C   UNL     1      31.812  48.355  47.376  1.00  0.00     0.180 A 
ATOM     26  N   UNL     1      30.935  48.376  48.368  1.00  0.00    -0.154 NA
ATOM     27  N   UNL     1      32.925  49.059  47.579  1.00  0.00    -0.216 NA
ATOM     28  N   UNL     1      31.540  49.153  49.263  1.00  0.00    -0.265 N 
ATOM     29  C   UNL     1      32.745  49.559  48.773  1.00  0.00     0.217 A 
ATOM     30  H   UNL     1      31.141  49.388  50.161  1.00  0.00     0.191 HD
ENDBRANCH  24  25
ENDBRANCH   7  19
TORSDOF 4
ENDMDL
