MODEL 8
REMARK VINA RESULT:    -8.836      4.132      6.000
REMARK INTER + INTRA:         -13.360
REMARK INTER:                 -12.295
REMARK INTRA:                  -1.065
REMARK UNBOUND:                -1.167
REMARK SMILES O=C1Cc2ccc(Oc3ccc(Nc4ncnc5ccn(CCO)c45)cc3Cl)cc2N1
REMARK SMILES IDX 14 1 15 2 16 3 17 4 18 5 19 6 20 7 21 8 25 9 13 10 12 12
REMARK SMILES IDX 9 13 27 14 10 15 26 16 11 17 28 18 8 19 7 20 1 21 2 22 31 23
REMARK SMILES IDX 3 24 30 25 4 26 29 27 5 28 6 29 22 31 23 32 24 33
REMARK H PARENT 13 11 31 30 24 34
ROOT
ATOM      1  C   UNL     1      22.193  34.553  13.473  1.00  0.00     0.158 A 
ATOM      2  N   UNL     1      21.506  35.611  13.985  1.00  0.00    -0.217 NA
ATOM      3  C   UNL     1      22.202  36.584  14.621  1.00  0.00     0.225 A 
ATOM      4  N   UNL     1      23.543  36.640  14.812  1.00  0.00    -0.235 NA
ATOM      5  C   UNL     1      24.232  35.611  14.307  1.00  0.00     0.094 A 
ATOM      6  C   UNL     1      25.636  35.359  14.318  1.00  0.00     0.048 A 
ATOM      7  C   UNL     1      25.817  34.168  13.648  1.00  0.00     0.088 A 
ATOM      8  N   UNL     1      24.606  33.652  13.235  1.00  0.00    -0.341 N 
ATOM      9  C   UNL     1      23.594  34.531  13.618  1.00  0.00     0.110 A 
ENDROOT
BRANCH   1  10
ATOM     10  N   UNL     1      21.488  33.541  12.799  1.00  0.00    -0.338 N 
ATOM     11  H   UNL     1      21.629  32.623  13.195  1.00  0.00     0.168 HD
BRANCH  10  12
ATOM     12  C   UNL     1      20.614  33.554  11.700  1.00  0.00     0.041 A 
ATOM     13  C   UNL     1      18.982  33.585   9.413  1.00  0.00     0.146 A 
ATOM     14  C   UNL     1      20.291  34.075   9.350  1.00  0.00     0.085 A 
ATOM     15  C   UNL     1      18.494  33.078  10.620  1.00  0.00     0.051 A 
ATOM     16  C   UNL     1      21.099  34.051  10.487  1.00  0.00     0.050 A 
ATOM     17  C   UNL     1      19.305  33.057  11.755  1.00  0.00     0.030 A 
ATOM     18  Cl  UNL     1      20.925  34.704   7.871  1.00  0.00    -0.080 Cl
BRANCH  13  19
ATOM     19  O   UNL     1      18.174  33.597   8.301  1.00  0.00    -0.456 OA
BRANCH  19  20
ATOM     20  C   UNL     1      17.730  32.416   7.737  1.00  0.00     0.129 A 
ATOM     21  O   UNL     1      13.914  28.230   6.174  1.00  0.00    -0.274 OA
ATOM     22  C   UNL     1      14.851  28.989   6.415  1.00  0.00     0.228 C 
ATOM     23  N   UNL     1      14.803  30.173   7.056  1.00  0.00    -0.325 N 
ATOM     24  C   UNL     1      16.316  28.757   6.035  1.00  0.00     0.138 C 
ATOM     25  C   UNL     1      16.045  30.781   7.162  1.00  0.00     0.048 A 
ATOM     26  C   UNL     1      16.998  29.978   6.568  1.00  0.00    -0.015 A 
ATOM     27  C   UNL     1      16.386  31.997   7.751  1.00  0.00     0.073 A 
ATOM     28  C   UNL     1      18.335  30.377   6.551  1.00  0.00     0.010 A 
ATOM     29  C   UNL     1      18.693  31.593   7.139  1.00  0.00     0.047 A 
ATOM     30  H   UNL     1      13.949  30.571   7.419  1.00  0.00     0.169 HD
ENDBRANCH  19  20
ENDBRANCH  13  19
ENDBRANCH  10  12
ENDBRANCH   1  10
BRANCH   8  31
ATOM     31  C   UNL     1      24.471  32.417  12.464  1.00  0.00     0.150 C 
BRANCH  31  32
ATOM     32  C   UNL     1      25.752  31.556  12.487  1.00  0.00     0.178 C 
BRANCH  32  33
ATOM     33  O   UNL     1      25.471  30.213  12.150  1.00  0.00    -0.395 OA
ATOM     34  H   UNL     1      26.216  29.857  11.657  1.00  0.00     0.210 HD
ENDBRANCH  32  33
ENDBRANCH  31  32
ENDBRANCH   8  31
TORSDOF 7
ENDMDL
