REMARK VINA RESULT:    -7.334      0.000      0.000
REMARK INTER + INTRA:         -11.948
REMARK INTER:                 -10.764
REMARK INTRA:                  -1.184
REMARK UNBOUND:                -1.184
REMARK SMILES CCC(C)(C)NC[C@@H](O)c1cc(O)cc(OC(=O)N(C)C)c1
REMARK SMILES IDX 7 1 6 2 3 4 4 5 5 6 2 7 1 8 8 9 9 10 10 12 11 13 22 14 12 15
REMARK SMILES IDX 15 16 14 17 13 18 16 20 17 21 18 22 19 23 20 24 21 25
REMARK H PARENT 6 3 9 11 13 19
ROOT
ATOM      1  C   UNL     1     134.019 112.003  39.830  1.00  0.00     0.118 C 
ENDROOT
BRANCH   1   2
ATOM      2  N   UNL     1     134.280 111.278  41.092  1.00  0.00    -0.309 NA
ATOM      3  H   UNL     1     134.472 110.304  40.865  1.00  0.00     0.123 HD
BRANCH   2   4
ATOM      4  C   UNL     1     135.394 111.800  41.915  1.00  0.00     0.012 C 
ATOM      5  C   UNL     1     134.866 112.612  43.113  1.00  0.00     0.028 C 
ATOM      6  C   UNL     1     136.296 110.661  42.436  1.00  0.00     0.028 C 
BRANCH   4   7
ATOM      7  C   UNL     1     136.275 112.702  41.001  1.00  0.00     0.018 C 
ATOM      8  C   UNL     1     136.531 114.122  41.499  1.00  0.00     0.006 C 
ENDBRANCH   4   7
ENDBRANCH   2   4
ENDBRANCH   1   2
BRANCH   1   9
ATOM      9  C   UNL     1     132.737 112.863  39.984  1.00  0.00     0.158 C 
BRANCH   9  10
ATOM     10  O   UNL     1     131.971 112.326  41.074  1.00  0.00    -0.387 OA
ATOM     11  H   UNL     1     131.072 112.691  40.937  1.00  0.00     0.211 HD
ENDBRANCH   9  10
BRANCH   9  12
ATOM     12  C   UNL     1     133.047 114.331  40.199  1.00  0.00    -0.011 A 
ATOM     13  C   UNL     1     132.639 115.014  41.356  1.00  0.00     0.052 A 
ATOM     14  C   UNL     1     133.760 115.043  39.219  1.00  0.00     0.054 A 
ATOM     15  C   UNL     1     132.944 116.364  41.524  1.00  0.00     0.119 A 
ATOM     16  C   UNL     1     134.044 116.397  39.400  1.00  0.00     0.136 A 
ATOM     17  C   UNL     1     133.653 117.061  40.558  1.00  0.00     0.093 A 
BRANCH  15  18
ATOM     18  O   UNL     1     132.555 117.043  42.642  1.00  0.00    -0.508 OA
ATOM     19  H   UNL     1     131.648 117.365  42.503  1.00  0.00     0.293 HD
ENDBRANCH  15  18
BRANCH  16  20
ATOM     20  O   UNL     1     134.811 117.145  38.482  1.00  0.00    -0.410 OA
BRANCH  20  21
ATOM     21  C   UNL     1     134.219 118.094  37.647  1.00  0.00     0.414 C 
ATOM     22  O   UNL     1     133.978 119.250  37.980  1.00  0.00    -0.224 OA
ATOM     23  N   UNL     1     133.928 117.585  36.387  1.00  0.00    -0.314 N 
ATOM     24  C   UNL     1     133.296 118.437  35.398  1.00  0.00     0.150 C 
ATOM     25  C   UNL     1     134.216 116.218  35.985  1.00  0.00     0.150 C 
ENDBRANCH  20  21
ENDBRANCH  16  20
ENDBRANCH   9  12
ENDBRANCH   1   9
TORSDOF 9
