MODEL 1
REMARK VINA RESULT:    -9.769      0.000      0.000
REMARK INTER + INTRA:         -13.918
REMARK INTER:                 -12.911
REMARK INTRA:                  -1.007
REMARK UNBOUND:                -1.007
REMARK SMILES Cn1nc(-c2cc3ncccc3c(-c3ccn([C@]4(CC#N)C[C@@H](C#N)C4)n3)n2)cc1CN
REMARK SMILES IDX 5 1 6 2 7 3 8 4 9 5 10 6 11 7 12 8 13 9 28 10 4 11 2 12 3 13
REMARK SMILES IDX 30 14 29 15 1 16 31 17 32 18 14 21 15 22 27 23 16 24 17 25
REMARK SMILES IDX 18 26 26 27 22 28 23 29 24 30 25 31 19 32 20 33 21 34
REMARK H PARENT 32 19 32 20
ROOT
ATOM      1  C   UNL     1      -9.965  14.332  19.832  1.00  0.00     0.093 A 
ATOM      2  C   UNL     1     -10.205  13.019  19.469  1.00  0.00     0.059 A 
ATOM      3  C   UNL     1     -11.492  12.526  19.477  1.00  0.00     0.075 A 
ATOM      4  N   UNL     1     -11.666  11.246  19.101  1.00  0.00    -0.256 NA
ATOM      5  C   UNL     1     -12.916  10.741  19.083  1.00  0.00     0.112 A 
ATOM      6  C   UNL     1     -14.035  11.466  19.425  1.00  0.00     0.021 A 
ATOM      7  C   UNL     1     -13.853  12.787  19.816  1.00  0.00     0.014 A 
ATOM      8  C   UNL     1     -12.557  13.363  19.863  1.00  0.00     0.028 A 
ATOM      9  C   UNL     1     -12.224  14.687  20.235  1.00  0.00     0.101 A 
ATOM     10  N   UNL     1     -10.954  15.171  20.207  1.00  0.00    -0.244 NA
ENDROOT
BRANCH   1  11
ATOM     11  C   UNL     1      -8.607  14.890  19.827  1.00  0.00     0.111 A 
ATOM     12  N   UNL     1      -7.019  16.313  19.848  1.00  0.00    -0.271 N 
ATOM     13  N   UNL     1      -8.360  16.211  19.870  1.00  0.00    -0.171 NA
ATOM     14  C   UNL     1      -6.376  15.105  19.793  1.00  0.00     0.052 A 
ATOM     15  C   UNL     1      -7.386  14.165  19.781  1.00  0.00     0.057 A 
ATOM     16  C   UNL     1      -6.417  17.626  19.878  1.00  0.00     0.174 C 
BRANCH  14  17
ATOM     17  C   UNL     1      -4.903  14.940  19.770  1.00  0.00     0.134 C 
BRANCH  17  18
ATOM     18  N   UNL     1      -4.559  13.546  19.994  1.00  0.00    -0.325 NA
ATOM     19  H   UNL     1      -4.559  13.367  20.998  1.00  0.00     0.119 HD
ATOM     20  H   UNL     1      -5.292  12.949  19.613  1.00  0.00     0.119 HD
ENDBRANCH  17  18
ENDBRANCH  14  17
ENDBRANCH   1  11
BRANCH   9  21
ATOM     21  C   UNL     1     -13.204  15.692  20.690  1.00  0.00     0.111 A 
ATOM     22  C   UNL     1     -13.363  16.158  22.028  1.00  0.00     0.052 A 
ATOM     23  N   UNL     1     -14.127  16.262  19.895  1.00  0.00    -0.171 NA
ATOM     24  C   UNL     1     -14.415  17.041  21.998  1.00  0.00     0.110 A 
ATOM     25  N   UNL     1     -14.827  17.074  20.701  1.00  0.00    -0.265 N 
BRANCH  25  26
ATOM     26  C   UNL     1     -15.995  17.860  20.188  1.00  0.00     0.078 C 
ATOM     27  C   UNL     1     -16.729  18.627  21.342  1.00  0.00     0.050 C 
ATOM     28  C   UNL     1     -17.308  17.019  20.064  1.00  0.00     0.050 C 
ATOM     29  C   UNL     1     -17.632  17.385  21.536  1.00  0.00     0.097 C 
ATOM     30  C   UNL     1     -19.022  17.658  21.823  1.00  0.00     0.066 C 
ATOM     31  N   UNL     1     -20.138  17.887  22.045  1.00  0.00    -0.198 NA
BRANCH  26  32
ATOM     32  C   UNL     1     -15.580  18.747  19.015  1.00  0.00     0.150 C 
ATOM     33  C   UNL     1     -14.703  19.843  19.444  1.00  0.00     0.065 C 
ATOM     34  N   UNL     1     -13.999  20.688  19.814  1.00  0.00    -0.198 NA
ENDBRANCH  26  32
ENDBRANCH  25  26
ENDBRANCH   9  21
TORSDOF 6
ENDMDL
MODEL 2
REMARK VINA RESULT:    -9.757      1.492      2.926
REMARK INTER + INTRA:         -13.901
REMARK INTER:                 -12.679
REMARK INTRA:                  -1.222
REMARK UNBOUND:                -1.007
REMARK SMILES Cn1nc(-c2cc3ncccc3c(-c3ccn([C@]4(CC#N)C[C@@H](C#N)C4)n3)n2)cc1CN
REMARK SMILES IDX 5 1 6 2 7 3 8 4 9 5 10 6 11 7 12 8 13 9 28 10 4 11 2 12 3 13
REMARK SMILES IDX 30 14 29 15 1 16 31 17 32 18 14 21 15 22 27 23 16 24 17 25
REMARK SMILES IDX 18 26 26 27 22 28 23 29 24 30 25 31 19 32 20 33 21 34
REMARK H PARENT 32 19 32 20
ROOT
ATOM      1  C   UNL     1     -11.108  15.131  20.043  1.00  0.00     0.093 A 
ATOM      2  C   UNL     1     -11.452  13.809  19.827  1.00  0.00     0.059 A 
ATOM      3  C   UNL     1     -12.774  13.423  19.888  1.00  0.00     0.075 A 
ATOM      4  N   UNL     1     -13.051  12.127  19.656  1.00  0.00    -0.256 NA
ATOM      5  C   UNL     1     -14.337  11.723  19.693  1.00  0.00     0.112 A 
ATOM      6  C   UNL     1     -15.393  12.567  19.952  1.00  0.00     0.021 A 
ATOM      7  C   UNL     1     -15.105  13.905  20.195  1.00  0.00     0.014 A 
ATOM      8  C   UNL     1     -13.767  14.378  20.178  1.00  0.00     0.028 A 
ATOM      9  C   UNL     1     -13.329  15.705  20.403  1.00  0.00     0.101 A 
ATOM     10  N   UNL     1     -12.025  16.081  20.323  1.00  0.00    -0.244 NA
ENDROOT
BRANCH   1  11
ATOM     11  C   UNL     1      -9.710  15.576  19.978  1.00  0.00     0.111 A 
ATOM     12  N   UNL     1      -8.016  16.856  19.786  1.00  0.00    -0.271 N 
ATOM     13  N   UNL     1      -9.361  16.860  19.785  1.00  0.00    -0.171 NA
ATOM     14  C   UNL     1      -7.469  15.615  19.973  1.00  0.00     0.052 A 
ATOM     15  C   UNL     1      -8.549  14.766  20.103  1.00  0.00     0.057 A 
ATOM     16  C   UNL     1      -7.313  18.104  19.592  1.00  0.00     0.174 C 
BRANCH  14  17
ATOM     17  C   UNL     1      -6.014  15.340  20.026  1.00  0.00     0.134 C 
BRANCH  17  18
ATOM     18  N   UNL     1      -5.762  13.949  19.687  1.00  0.00    -0.325 NA
ATOM     19  H   UNL     1      -6.656  13.463  19.621  1.00  0.00     0.119 HD
ATOM     20  H   UNL     1      -5.355  13.894  18.755  1.00  0.00     0.119 HD
ENDBRANCH  17  18
ENDBRANCH  14  17
ENDBRANCH   1  11
BRANCH   9  21
ATOM     21  C   UNL     1     -14.223  16.828  20.744  1.00  0.00     0.111 A 
ATOM     22  C   UNL     1     -14.569  17.251  22.060  1.00  0.00     0.052 A 
ATOM     23  N   UNL     1     -14.883  17.571  19.837  1.00  0.00    -0.171 NA
ATOM     24  C   UNL     1     -15.457  18.287  21.904  1.00  0.00     0.110 A 
ATOM     25  N   UNL     1     -15.601  18.444  20.559  1.00  0.00    -0.265 N 
BRANCH  25  26
ATOM     26  C   UNL     1     -16.522  19.425  19.900  1.00  0.00     0.078 C 
ATOM     27  C   UNL     1     -15.809  20.198  18.737  1.00  0.00     0.050 C 
ATOM     28  C   UNL     1     -16.586  20.808  20.628  1.00  0.00     0.050 C 
ATOM     29  C   UNL     1     -15.381  21.271  19.768  1.00  0.00     0.097 C 
ATOM     30  C   UNL     1     -15.429  22.640  19.306  1.00  0.00     0.066 C 
ATOM     31  N   UNL     1     -15.478  23.736  18.929  1.00  0.00    -0.198 NA
BRANCH  26  32
ATOM     32  C   UNL     1     -17.831  18.751  19.492  1.00  0.00     0.150 C 
ATOM     33  C   UNL     1     -18.764  18.647  20.619  1.00  0.00     0.065 C 
ATOM     34  N   UNL     1     -19.486  18.596  21.527  1.00  0.00    -0.198 NA
ENDBRANCH  26  32
ENDBRANCH  25  26
ENDBRANCH   9  21
TORSDOF 6
ENDMDL
MODEL 3
REMARK VINA RESULT:    -9.661      0.860      2.378
REMARK INTER + INTRA:         -13.774
REMARK INTER:                 -12.591
REMARK INTRA:                  -1.183
REMARK UNBOUND:                -1.007
REMARK SMILES Cn1nc(-c2cc3ncccc3c(-c3ccn([C@]4(CC#N)C[C@@H](C#N)C4)n3)n2)cc1CN
REMARK SMILES IDX 5 1 6 2 7 3 8 4 9 5 10 6 11 7 12 8 13 9 28 10 4 11 2 12 3 13
REMARK SMILES IDX 30 14 29 15 1 16 31 17 32 18 14 21 15 22 27 23 16 24 17 25
REMARK SMILES IDX 18 26 26 27 22 28 23 29 24 30 25 31 19 32 20 33 21 34
REMARK H PARENT 32 19 32 20
ROOT
ATOM      1  C   UNL     1      -9.960  14.438  19.859  1.00  0.00     0.093 A 
ATOM      2  C   UNL     1     -10.215  13.121  19.523  1.00  0.00     0.059 A 
ATOM      3  C   UNL     1     -11.506  12.640  19.551  1.00  0.00     0.075 A 
ATOM      4  N   UNL     1     -11.696  11.356  19.200  1.00  0.00    -0.256 NA
ATOM      5  C   UNL     1     -12.951  10.862  19.203  1.00  0.00     0.112 A 
ATOM      6  C   UNL     1     -14.060  11.603  19.542  1.00  0.00     0.021 A 
ATOM      7  C   UNL     1     -13.862  12.930  19.907  1.00  0.00     0.014 A 
ATOM      8  C   UNL     1     -12.560  13.494  19.931  1.00  0.00     0.028 A 
ATOM      9  C   UNL     1     -12.212  14.822  20.277  1.00  0.00     0.101 A 
ATOM     10  N   UNL     1     -10.937  15.293  20.229  1.00  0.00    -0.244 NA
ENDROOT
BRANCH   1  11
ATOM     11  C   UNL     1      -8.597  14.983  19.832  1.00  0.00     0.111 A 
ATOM     12  N   UNL     1      -6.994  16.389  19.849  1.00  0.00    -0.271 N 
ATOM     13  N   UNL     1      -8.335  16.299  19.905  1.00  0.00    -0.171 NA
ATOM     14  C   UNL     1      -6.365  15.177  19.742  1.00  0.00     0.052 A 
ATOM     15  C   UNL     1      -7.385  14.247  19.731  1.00  0.00     0.057 A 
ATOM     16  C   UNL     1      -6.378  17.696  19.898  1.00  0.00     0.174 C 
BRANCH  14  17
ATOM     17  C   UNL     1      -4.896  14.999  19.672  1.00  0.00     0.134 C 
BRANCH  17  18
ATOM     18  N   UNL     1      -4.554  13.611  19.933  1.00  0.00    -0.325 NA
ATOM     19  H   UNL     1      -4.240  13.529  20.900  1.00  0.00     0.119 HD
ATOM     20  H   UNL     1      -5.394  13.037  19.872  1.00  0.00     0.119 HD
ENDBRANCH  17  18
ENDBRANCH  14  17
ENDBRANCH   1  11
BRANCH   9  21
ATOM     21  C   UNL     1     -13.178  15.843  20.723  1.00  0.00     0.111 A 
ATOM     22  C   UNL     1     -13.441  16.212  22.074  1.00  0.00     0.052 A 
ATOM     23  N   UNL     1     -13.990  16.528  19.896  1.00  0.00    -0.171 NA
ATOM     24  C   UNL     1     -14.438  17.155  22.022  1.00  0.00     0.110 A 
ATOM     25  N   UNL     1     -14.721  17.314  20.700  1.00  0.00    -0.265 N 
BRANCH  25  26
ATOM     26  C   UNL     1     -15.793  18.205  20.149  1.00  0.00     0.078 C 
ATOM     27  C   UNL     1     -15.338  18.906  18.822  1.00  0.00     0.050 C 
ATOM     28  C   UNL     1     -15.793  19.640  20.773  1.00  0.00     0.050 C 
ATOM     29  C   UNL     1     -14.786  20.073  19.676  1.00  0.00     0.097 C 
ATOM     30  C   UNL     1     -14.983  21.397  19.131  1.00  0.00     0.066 C 
ATOM     31  N   UNL     1     -15.153  22.456  18.690  1.00  0.00    -0.198 NA
BRANCH  26  32
ATOM     32  C   UNL     1     -17.118  17.455  20.037  1.00  0.00     0.150 C 
ATOM     33  C   UNL     1     -18.258  18.375  19.933  1.00  0.00     0.065 C 
ATOM     34  N   UNL     1     -19.134  19.128  19.834  1.00  0.00    -0.198 NA
ENDBRANCH  26  32
ENDBRANCH  25  26
ENDBRANCH   9  21
TORSDOF 6
ENDMDL
MODEL 4
REMARK VINA RESULT:    -9.551      1.094      1.697
REMARK INTER + INTRA:         -13.629
REMARK INTER:                 -12.516
REMARK INTRA:                  -1.113
REMARK UNBOUND:                -1.007
REMARK SMILES Cn1nc(-c2cc3ncccc3c(-c3ccn([C@]4(CC#N)C[C@@H](C#N)C4)n3)n2)cc1CN
REMARK SMILES IDX 5 1 6 2 7 3 8 4 9 5 10 6 11 7 12 8 13 9 28 10 4 11 2 12 3 13
REMARK SMILES IDX 30 14 29 15 1 16 31 17 32 18 14 21 15 22 27 23 16 24 17 25
REMARK SMILES IDX 18 26 26 27 22 28 23 29 24 30 25 31 19 32 20 33 21 34
REMARK H PARENT 32 19 32 20
ROOT
ATOM      1  C   UNL     1     -10.611  14.853  19.991  1.00  0.00     0.093 A 
ATOM      2  C   UNL     1     -10.898  13.528  19.715  1.00  0.00     0.059 A 
ATOM      3  C   UNL     1     -12.203  13.086  19.743  1.00  0.00     0.075 A 
ATOM      4  N   UNL     1     -12.424  11.791  19.453  1.00  0.00    -0.256 NA
ATOM      5  C   UNL     1     -13.692  11.333  19.457  1.00  0.00     0.112 A 
ATOM      6  C   UNL     1     -14.785  12.121  19.738  1.00  0.00     0.021 A 
ATOM      7  C   UNL     1     -14.555  13.458  20.040  1.00  0.00     0.014 A 
ATOM      8  C   UNL     1     -13.239  13.986  20.061  1.00  0.00     0.028 A 
ATOM      9  C   UNL     1     -12.858  15.320  20.346  1.00  0.00     0.101 A 
ATOM     10  N   UNL     1     -11.570  15.752  20.299  1.00  0.00    -0.244 NA
ENDROOT
BRANCH   1  11
ATOM     11  C   UNL     1      -9.233  15.358  19.963  1.00  0.00     0.111 A 
ATOM     12  N   UNL     1      -7.104  15.382  19.852  1.00  0.00    -0.271 N 
ATOM     13  N   UNL     1      -8.163  14.554  19.832  1.00  0.00    -0.171 NA
ATOM     14  C   UNL     1      -7.440  16.703  19.990  1.00  0.00     0.052 A 
ATOM     15  C   UNL     1      -8.818  16.713  20.062  1.00  0.00     0.057 A 
ATOM     16  C   UNL     1      -5.776  14.822  19.737  1.00  0.00     0.174 C 
BRANCH  14  17
ATOM     17  C   UNL     1      -6.462  17.816  20.030  1.00  0.00     0.134 C 
BRANCH  17  18
ATOM     18  N   UNL     1      -6.747  18.760  18.962  1.00  0.00    -0.325 NA
ATOM     19  H   UNL     1      -6.235  19.623  19.145  1.00  0.00     0.119 HD
ATOM     20  H   UNL     1      -6.372  18.404  18.084  1.00  0.00     0.119 HD
ENDBRANCH  17  18
ENDBRANCH  14  17
ENDBRANCH   1  11
BRANCH   9  21
ATOM     21  C   UNL     1     -13.803  16.389  20.722  1.00  0.00     0.111 A 
ATOM     22  C   UNL     1     -14.028  16.879  22.042  1.00  0.00     0.052 A 
ATOM     23  N   UNL     1     -14.627  17.008  19.857  1.00  0.00    -0.171 NA
ATOM     24  C   UNL     1     -15.017  17.827  21.930  1.00  0.00     0.110 A 
ATOM     25  N   UNL     1     -15.330  17.872  20.606  1.00  0.00    -0.265 N 
BRANCH  25  26
ATOM     26  C   UNL     1     -16.405  18.725  20.003  1.00  0.00     0.078 C 
ATOM     27  C   UNL     1     -17.292  19.403  21.105  1.00  0.00     0.050 C 
ATOM     28  C   UNL     1     -17.693  17.926  19.618  1.00  0.00     0.050 C 
ATOM     29  C   UNL     1     -18.224  18.168  21.055  1.00  0.00     0.097 C 
ATOM     30  C   UNL     1     -19.638  18.444  21.164  1.00  0.00     0.066 C 
ATOM     31  N   UNL     1     -20.772  18.677  21.244  1.00  0.00    -0.198 NA
BRANCH  26  32
ATOM     32  C   UNL     1     -15.817  19.701  18.986  1.00  0.00     0.150 C 
ATOM     33  C   UNL     1     -14.934  20.685  19.623  1.00  0.00     0.065 C 
ATOM     34  N   UNL     1     -14.227  21.436  20.155  1.00  0.00    -0.198 NA
ENDBRANCH  26  32
ENDBRANCH  25  26
ENDBRANCH   9  21
TORSDOF 6
ENDMDL
MODEL 5
REMARK VINA RESULT:    -9.437      1.766      8.277
REMARK INTER + INTRA:         -13.478
REMARK INTER:                 -12.891
REMARK INTRA:                  -0.587
REMARK UNBOUND:                -1.007
REMARK SMILES Cn1nc(-c2cc3ncccc3c(-c3ccn([C@]4(CC#N)C[C@@H](C#N)C4)n3)n2)cc1CN
REMARK SMILES IDX 5 1 6 2 7 3 8 4 9 5 10 6 11 7 12 8 13 9 28 10 4 11 2 12 3 13
REMARK SMILES IDX 30 14 29 15 1 16 31 17 32 18 14 21 15 22 27 23 16 24 17 25
REMARK SMILES IDX 18 26 26 27 22 28 23 29 24 30 25 31 19 32 20 33 21 34
REMARK H PARENT 32 19 32 20
ROOT
ATOM      1  C   UNL     1     -13.509  15.210  20.423  1.00  0.00     0.093 A 
ATOM      2  C   UNL     1     -14.178  14.036  20.131  1.00  0.00     0.059 A 
ATOM      3  C   UNL     1     -13.470  12.910  19.769  1.00  0.00     0.075 A 
ATOM      4  N   UNL     1     -14.172  11.793  19.510  1.00  0.00    -0.256 NA
ATOM      5  C   UNL     1     -13.505  10.672  19.170  1.00  0.00     0.112 A 
ATOM      6  C   UNL     1     -12.134  10.602  19.076  1.00  0.00     0.021 A 
ATOM      7  C   UNL     1     -11.409  11.758  19.341  1.00  0.00     0.014 A 
ATOM      8  C   UNL     1     -12.064  12.966  19.692  1.00  0.00     0.028 A 
ATOM      9  C   UNL     1     -11.458  14.210  19.990  1.00  0.00     0.101 A 
ATOM     10  N   UNL     1     -12.164  15.311  20.364  1.00  0.00    -0.244 NA
ENDROOT
BRANCH   1  11
ATOM     11  C   UNL     1     -14.234  16.424  20.818  1.00  0.00     0.111 A 
ATOM     12  N   UNL     1     -14.616  18.456  21.339  1.00  0.00    -0.271 N 
ATOM     13  N   UNL     1     -13.631  17.615  20.981  1.00  0.00    -0.171 NA
ATOM     14  C   UNL     1     -15.848  17.861  21.416  1.00  0.00     0.052 A 
ATOM     15  C   UNL     1     -15.626  16.541  21.080  1.00  0.00     0.057 A 
ATOM     16  C   UNL     1     -14.294  19.841  21.601  1.00  0.00     0.174 C 
BRANCH  14  17
ATOM     17  C   UNL     1     -17.099  18.568  21.778  1.00  0.00     0.134 C 
BRANCH  17  18
ATOM     18  N   UNL     1     -17.662  17.986  22.985  1.00  0.00    -0.325 NA
ATOM     19  H   UNL     1     -16.898  17.694  23.593  1.00  0.00     0.119 HD
ATOM     20  H   UNL     1     -18.164  18.703  23.506  1.00  0.00     0.119 HD
ENDBRANCH  17  18
ENDBRANCH  14  17
ENDBRANCH   1  11
BRANCH   9  21
ATOM     21  C   UNL     1     -10.005  14.459  19.936  1.00  0.00     0.111 A 
ATOM     22  C   UNL     1      -8.997  13.476  19.713  1.00  0.00     0.052 A 
ATOM     23  N   UNL     1      -9.435  15.659  20.151  1.00  0.00    -0.171 NA
ATOM     24  C   UNL     1      -7.797  14.140  19.793  1.00  0.00     0.110 A 
ATOM     25  N   UNL     1      -8.116  15.440  20.045  1.00  0.00    -0.265 N 
BRANCH  25  26
ATOM     26  C   UNL     1      -7.125  16.541  20.273  1.00  0.00     0.078 C 
ATOM     27  C   UNL     1      -7.126  17.575  19.093  1.00  0.00     0.050 C 
ATOM     28  C   UNL     1      -5.675  16.183  19.808  1.00  0.00     0.050 C 
ATOM     29  C   UNL     1      -6.038  16.720  18.399  1.00  0.00     0.097 C 
ATOM     30  C   UNL     1      -4.996  17.459  17.722  1.00  0.00     0.066 C 
ATOM     31  N   UNL     1      -4.160  18.061  17.189  1.00  0.00    -0.198 NA
BRANCH  26  32
ATOM     32  C   UNL     1      -7.318  17.168  21.653  1.00  0.00     0.150 C 
ATOM     33  C   UNL     1      -6.436  16.559  22.656  1.00  0.00     0.065 C 
ATOM     34  N   UNL     1      -5.713  16.070  23.420  1.00  0.00    -0.198 NA
ENDBRANCH  26  32
ENDBRANCH  25  26
ENDBRANCH   9  21
TORSDOF 6
ENDMDL
MODEL 6
REMARK VINA RESULT:    -9.402      1.800      8.152
REMARK INTER + INTRA:         -13.432
REMARK INTER:                 -12.898
REMARK INTRA:                  -0.533
REMARK UNBOUND:                -1.007
REMARK SMILES Cn1nc(-c2cc3ncccc3c(-c3ccn([C@]4(CC#N)C[C@@H](C#N)C4)n3)n2)cc1CN
REMARK SMILES IDX 5 1 6 2 7 3 8 4 9 5 10 6 11 7 12 8 13 9 28 10 4 11 2 12 3 13
REMARK SMILES IDX 30 14 29 15 1 16 31 17 32 18 14 21 15 22 27 23 16 24 17 25
REMARK SMILES IDX 18 26 26 27 22 28 23 29 24 30 25 31 19 32 20 33 21 34
REMARK H PARENT 32 19 32 20
ROOT
ATOM      1  C   UNL     1     -13.547  15.262  20.411  1.00  0.00     0.093 A 
ATOM      2  C   UNL     1     -14.190  14.074  20.116  1.00  0.00     0.059 A 
ATOM      3  C   UNL     1     -13.456  12.959  19.772  1.00  0.00     0.075 A 
ATOM      4  N   UNL     1     -14.135  11.828  19.511  1.00  0.00    -0.256 NA
ATOM      5  C   UNL     1     -13.443  10.717  19.187  1.00  0.00     0.112 A 
ATOM      6  C   UNL     1     -12.069  10.671  19.113  1.00  0.00     0.021 A 
ATOM      7  C   UNL     1     -11.369  11.841  19.382  1.00  0.00     0.014 A 
ATOM      8  C   UNL     1     -12.051  13.039  19.716  1.00  0.00     0.028 A 
ATOM      9  C   UNL     1     -11.472  14.296  20.014  1.00  0.00     0.101 A 
ATOM     10  N   UNL     1     -12.202  15.386  20.370  1.00  0.00    -0.244 NA
ENDROOT
BRANCH   1  11
ATOM     11  C   UNL     1     -14.299  16.465  20.787  1.00  0.00     0.111 A 
ATOM     12  N   UNL     1     -14.723  18.490  21.304  1.00  0.00    -0.271 N 
ATOM     13  N   UNL     1     -13.716  17.662  20.975  1.00  0.00    -0.171 NA
ATOM     14  C   UNL     1     -15.948  17.879  21.339  1.00  0.00     0.052 A 
ATOM     15  C   UNL     1     -15.699  16.564  21.004  1.00  0.00     0.057 A 
ATOM     16  C   UNL     1     -14.426  19.877  21.582  1.00  0.00     0.174 C 
BRANCH  14  17
ATOM     17  C   UNL     1     -17.219  18.569  21.663  1.00  0.00     0.134 C 
BRANCH  17  18
ATOM     18  N   UNL     1     -17.785  18.012  22.881  1.00  0.00    -0.325 NA
ATOM     19  H   UNL     1     -17.574  17.015  22.913  1.00  0.00     0.119 HD
ATOM     20  H   UNL     1     -17.315  18.414  23.690  1.00  0.00     0.119 HD
ENDBRANCH  17  18
ENDBRANCH  14  17
ENDBRANCH   1  11
BRANCH   9  21
ATOM     21  C   UNL     1     -10.023  14.571  19.979  1.00  0.00     0.111 A 
ATOM     22  C   UNL     1      -8.999  13.622  19.687  1.00  0.00     0.052 A 
ATOM     23  N   UNL     1      -9.471  15.761  20.281  1.00  0.00    -0.171 NA
ATOM     24  C   UNL     1      -7.810  14.298  19.817  1.00  0.00     0.110 A 
ATOM     25  N   UNL     1      -8.149  15.570  20.161  1.00  0.00    -0.265 N 
BRANCH  25  26
ATOM     26  C   UNL     1      -7.175  16.668  20.468  1.00  0.00     0.078 C 
ATOM     27  C   UNL     1      -5.729  16.110  20.704  1.00  0.00     0.050 C 
ATOM     28  C   UNL     1      -7.145  17.069  21.979  1.00  0.00     0.050 C 
ATOM     29  C   UNL     1      -6.072  15.973  22.208  1.00  0.00     0.097 C 
ATOM     30  C   UNL     1      -5.011  16.314  23.127  1.00  0.00     0.066 C 
ATOM     31  N   UNL     1      -4.156  16.599  23.858  1.00  0.00    -0.198 NA
BRANCH  26  32
ATOM     32  C   UNL     1      -7.255  17.774  19.418  1.00  0.00     0.150 C 
ATOM     33  C   UNL     1      -6.311  17.547  18.316  1.00  0.00     0.065 C 
ATOM     34  N   UNL     1      -5.568  17.329  17.452  1.00  0.00    -0.198 NA
ENDBRANCH  26  32
ENDBRANCH  25  26
ENDBRANCH   9  21
TORSDOF 6
ENDMDL
MODEL 7
REMARK VINA RESULT:    -9.364      2.288     10.087
REMARK INTER + INTRA:         -13.383
REMARK INTER:                 -12.969
REMARK INTRA:                  -0.413
REMARK UNBOUND:                -1.007
REMARK SMILES Cn1nc(-c2cc3ncccc3c(-c3ccn([C@]4(CC#N)C[C@@H](C#N)C4)n3)n2)cc1CN
REMARK SMILES IDX 5 1 6 2 7 3 8 4 9 5 10 6 11 7 12 8 13 9 28 10 4 11 2 12 3 13
REMARK SMILES IDX 30 14 29 15 1 16 31 17 32 18 14 21 15 22 27 23 16 24 17 25
REMARK SMILES IDX 18 26 26 27 22 28 23 29 24 30 25 31 19 32 20 33 21 34
REMARK H PARENT 32 19 32 20
ROOT
ATOM      1  C   UNL     1     -17.999  19.093  19.794  1.00  0.00     0.093 A 
ATOM      2  C   UNL     1     -17.284  20.257  19.579  1.00  0.00     0.059 A 
ATOM      3  C   UNL     1     -15.953  20.193  19.225  1.00  0.00     0.075 A 
ATOM      4  N   UNL     1     -15.312  21.357  19.016  1.00  0.00    -0.256 NA
ATOM      5  C   UNL     1     -14.014  21.326  18.652  1.00  0.00     0.112 A 
ATOM      6  C   UNL     1     -13.301  20.162  18.477  1.00  0.00     0.021 A 
ATOM      7  C   UNL     1     -13.964  18.960  18.697  1.00  0.00     0.014 A 
ATOM      8  C   UNL     1     -15.326  18.939  19.091  1.00  0.00     0.028 A 
ATOM      9  C   UNL     1     -16.124  17.797  19.345  1.00  0.00     0.101 A 
ATOM     10  N   UNL     1     -17.441  17.869  19.676  1.00  0.00    -0.244 NA
ENDROOT
BRANCH   1  11
ATOM     11  C   UNL     1     -19.419  19.126  20.165  1.00  0.00     0.111 A 
ATOM     12  N   UNL     1     -21.523  19.445  20.034  1.00  0.00    -0.271 N 
ATOM     13  N   UNL     1     -20.379  19.575  19.339  1.00  0.00    -0.171 NA
ATOM     14  C   UNL     1     -21.347  18.926  21.290  1.00  0.00     0.052 A 
ATOM     15  C   UNL     1     -19.989  18.708  21.398  1.00  0.00     0.057 A 
ATOM     16  C   UNL     1     -22.766  19.854  19.420  1.00  0.00     0.174 C 
BRANCH  14  17
ATOM     17  C   UNL     1     -22.445  18.674  22.253  1.00  0.00     0.134 C 
BRANCH  17  18
ATOM     18  N   UNL     1     -22.178  19.374  23.499  1.00  0.00    -0.325 NA
ATOM     19  H   UNL     1     -22.142  20.375  23.309  1.00  0.00     0.119 HD
ATOM     20  H   UNL     1     -22.964  19.248  24.135  1.00  0.00     0.119 HD
ENDBRANCH  17  18
ENDBRANCH  14  17
ENDBRANCH   1  11
BRANCH   9  21
ATOM     21  C   UNL     1     -15.629  16.409  19.278  1.00  0.00     0.111 A 
ATOM     22  C   UNL     1     -16.378  15.275  18.849  1.00  0.00     0.052 A 
ATOM     23  N   UNL     1     -14.403  16.023  19.676  1.00  0.00    -0.171 NA
ATOM     24  C   UNL     1     -15.545  14.193  18.997  1.00  0.00     0.110 A 
ATOM     25  N   UNL     1     -14.377  14.696  19.483  1.00  0.00    -0.265 N 
BRANCH  25  26
ATOM     26  C   UNL     1     -13.178  13.880  19.861  1.00  0.00     0.078 C 
ATOM     27  C   UNL     1     -12.380  14.535  21.041  1.00  0.00     0.050 C 
ATOM     28  C   UNL     1     -11.916  14.183  18.988  1.00  0.00     0.050 C 
ATOM     29  C   UNL     1     -11.543  15.305  19.991  1.00  0.00     0.097 C 
ATOM     30  C   UNL     1     -10.134  15.439  20.287  1.00  0.00     0.066 C 
ATOM     31  N   UNL     1      -9.004  15.534  20.529  1.00  0.00    -0.198 NA
BRANCH  26  32
ATOM     32  C   UNL     1     -13.568  12.423  20.103  1.00  0.00     0.150 C 
ATOM     33  C   UNL     1     -12.688  11.496  19.380  1.00  0.00     0.065 C 
ATOM     34  N   UNL     1     -11.964  10.791  18.811  1.00  0.00    -0.198 NA
ENDBRANCH  26  32
ENDBRANCH  25  26
ENDBRANCH   9  21
TORSDOF 6
ENDMDL
MODEL 8
REMARK VINA RESULT:    -9.287      1.769      8.577
REMARK INTER + INTRA:         -13.280
REMARK INTER:                 -12.429
REMARK INTRA:                  -0.851
REMARK UNBOUND:                -1.007
REMARK SMILES Cn1nc(-c2cc3ncccc3c(-c3ccn([C@]4(CC#N)C[C@@H](C#N)C4)n3)n2)cc1CN
REMARK SMILES IDX 5 1 6 2 7 3 8 4 9 5 10 6 11 7 12 8 13 9 28 10 4 11 2 12 3 13
REMARK SMILES IDX 30 14 29 15 1 16 31 17 32 18 14 21 15 22 27 23 16 24 17 25
REMARK SMILES IDX 18 26 26 27 22 28 23 29 24 30 25 31 19 32 20 33 21 34
REMARK H PARENT 32 19 32 20
ROOT
ATOM      1  C   UNL     1     -14.206  15.852  20.172  1.00  0.00     0.093 A 
ATOM      2  C   UNL     1     -14.477  14.506  20.005  1.00  0.00     0.059 A 
ATOM      3  C   UNL     1     -13.445  13.618  19.792  1.00  0.00     0.075 A 
ATOM      4  N   UNL     1     -13.766  12.319  19.650  1.00  0.00    -0.256 NA
ATOM      5  C   UNL     1     -12.776  11.424  19.457  1.00  0.00     0.112 A 
ATOM      6  C   UNL     1     -11.443  11.764  19.400  1.00  0.00     0.021 A 
ATOM      7  C   UNL     1     -11.113  13.107  19.544  1.00  0.00     0.014 A 
ATOM      8  C   UNL     1     -12.118  14.089  19.738  1.00  0.00     0.028 A 
ATOM      9  C   UNL     1     -11.930  15.482  19.902  1.00  0.00     0.101 A 
ATOM     10  N   UNL     1     -12.952  16.349  20.130  1.00  0.00    -0.244 NA
ENDROOT
BRANCH   1  11
ATOM     11  C   UNL     1     -15.282  16.824  20.408  1.00  0.00     0.111 A 
ATOM     12  N   UNL     1     -16.275  18.682  20.735  1.00  0.00    -0.271 N 
ATOM     13  N   UNL     1     -15.060  18.144  20.531  1.00  0.00    -0.171 NA
ATOM     14  C   UNL     1     -17.289  17.761  20.751  1.00  0.00     0.052 A 
ATOM     15  C   UNL     1     -16.669  16.547  20.538  1.00  0.00     0.057 A 
ATOM     16  C   UNL     1     -16.386  20.111  20.917  1.00  0.00     0.174 C 
BRANCH  14  17
ATOM     17  C   UNL     1     -18.720  18.094  20.947  1.00  0.00     0.134 C 
BRANCH  17  18
ATOM     18  N   UNL     1     -19.303  17.199  21.933  1.00  0.00    -0.325 NA
ATOM     19  H   UNL     1     -18.567  16.885  22.564  1.00  0.00     0.119 HD
ATOM     20  H   UNL     1     -19.957  17.717  22.517  1.00  0.00     0.119 HD
ENDBRANCH  17  18
ENDBRANCH  14  17
ENDBRANCH   1  11
BRANCH   9  21
ATOM     21  C   UNL     1     -10.617  16.153  19.849  1.00  0.00     0.111 A 
ATOM     22  C   UNL     1     -10.330  17.377  19.177  1.00  0.00     0.052 A 
ATOM     23  N   UNL     1      -9.491  15.655  20.393  1.00  0.00    -0.171 NA
ATOM     24  C   UNL     1      -8.985  17.596  19.348  1.00  0.00     0.110 A 
ATOM     25  N   UNL     1      -8.536  16.546  20.089  1.00  0.00    -0.265 N 
BRANCH  25  26
ATOM     26  C   UNL     1      -7.107  16.318  20.482  1.00  0.00     0.078 C 
ATOM     27  C   UNL     1      -6.124  17.189  19.625  1.00  0.00     0.050 C 
ATOM     28  C   UNL     1      -6.454  15.086  19.774  1.00  0.00     0.050 C 
ATOM     29  C   UNL     1      -6.046  16.023  18.609  1.00  0.00     0.097 C 
ATOM     30  C   UNL     1      -4.742  15.779  18.034  1.00  0.00     0.066 C 
ATOM     31  N   UNL     1      -3.691  15.585  17.584  1.00  0.00    -0.198 NA
BRANCH  26  32
ATOM     32  C   UNL     1      -6.928  16.476  21.991  1.00  0.00     0.150 C 
ATOM     33  C   UNL     1      -7.031  17.879  22.408  1.00  0.00     0.065 C 
ATOM     34  N   UNL     1      -7.137  18.996  22.706  1.00  0.00    -0.198 NA
ENDBRANCH  26  32
ENDBRANCH  25  26
ENDBRANCH   9  21
TORSDOF 6
ENDMDL
MODEL 9
REMARK VINA RESULT:    -9.219      3.367      6.647
REMARK INTER + INTRA:         -13.190
REMARK INTER:                 -13.010
REMARK INTRA:                  -0.180
REMARK UNBOUND:                -1.007
REMARK SMILES Cn1nc(-c2cc3ncccc3c(-c3ccn([C@]4(CC#N)C[C@@H](C#N)C4)n3)n2)cc1CN
REMARK SMILES IDX 5 1 6 2 7 3 8 4 9 5 10 6 11 7 12 8 13 9 28 10 4 11 2 12 3 13
REMARK SMILES IDX 30 14 29 15 1 16 31 17 32 18 14 21 15 22 27 23 16 24 17 25
REMARK SMILES IDX 18 26 26 27 22 28 23 29 24 30 25 31 19 32 20 33 21 34
REMARK H PARENT 32 19 32 20
ROOT
ATOM      1  C   UNL     1     -14.280  16.385  19.571  1.00  0.00     0.093 A 
ATOM      2  C   UNL     1     -13.440  17.344  19.036  1.00  0.00     0.059 A 
ATOM      3  C   UNL     1     -13.844  18.661  18.981  1.00  0.00     0.075 A 
ATOM      4  N   UNL     1     -12.981  19.553  18.464  1.00  0.00    -0.256 NA
ATOM      5  C   UNL     1     -13.342  20.851  18.412  1.00  0.00     0.112 A 
ATOM      6  C   UNL     1     -14.554  21.322  18.866  1.00  0.00     0.021 A 
ATOM      7  C   UNL     1     -15.446  20.398  19.398  1.00  0.00     0.014 A 
ATOM      8  C   UNL     1     -15.118  19.020  19.464  1.00  0.00     0.028 A 
ATOM      9  C   UNL     1     -15.922  17.975  19.980  1.00  0.00     0.101 A 
ATOM     10  N   UNL     1     -15.508  16.682  20.047  1.00  0.00    -0.244 NA
ENDROOT
BRANCH   1  11
ATOM     11  C   UNL     1     -13.876  14.975  19.650  1.00  0.00     0.111 A 
ATOM     12  N   UNL     1     -14.009  12.850  19.759  1.00  0.00    -0.271 N 
ATOM     13  N   UNL     1     -14.760  13.963  19.688  1.00  0.00    -0.171 NA
ATOM     14  C   UNL     1     -12.662  13.095  19.769  1.00  0.00     0.052 A 
ATOM     15  C   UNL     1     -12.549  14.468  19.696  1.00  0.00     0.057 A 
ATOM     16  C   UNL     1     -14.667  11.565  19.823  1.00  0.00     0.174 C 
BRANCH  14  17
ATOM     17  C   UNL     1     -11.620  12.043  19.831  1.00  0.00     0.134 C 
BRANCH  17  18
ATOM     18  N   UNL     1     -11.259  11.626  18.486  1.00  0.00    -0.325 NA
ATOM     19  H   UNL     1     -10.581  12.288  18.110  1.00  0.00     0.119 HD
ATOM     20  H   UNL     1     -10.772  10.732  18.527  1.00  0.00     0.119 HD
ENDBRANCH  17  18
ENDBRANCH  14  17
ENDBRANCH   1  11
BRANCH   9  21
ATOM     21  C   UNL     1     -17.289  18.161  20.503  1.00  0.00     0.111 A 
ATOM     22  C   UNL     1     -17.887  17.417  21.562  1.00  0.00     0.052 A 
ATOM     23  N   UNL     1     -18.178  19.036  19.999  1.00  0.00    -0.171 NA
ATOM     24  C   UNL     1     -19.171  17.890  21.678  1.00  0.00     0.110 A 
ATOM     25  N   UNL     1     -19.289  18.861  20.730  1.00  0.00    -0.265 N 
BRANCH  25  26
ATOM     26  C   UNL     1     -20.541  19.630  20.436  1.00  0.00     0.078 C 
ATOM     27  C   UNL     1     -20.641  20.017  18.920  1.00  0.00     0.050 C 
ATOM     28  C   UNL     1     -20.408  21.165  20.703  1.00  0.00     0.050 C 
ATOM     29  C   UNL     1     -19.893  21.332  19.250  1.00  0.00     0.097 C 
ATOM     30  C   UNL     1     -20.356  22.510  18.551  1.00  0.00     0.066 C 
ATOM     31  N   UNL     1     -20.740  23.451  17.992  1.00  0.00    -0.198 NA
BRANCH  26  32
ATOM     32  C   UNL     1     -21.768  18.896  20.975  1.00  0.00     0.150 C 
ATOM     33  C   UNL     1     -21.982  19.168  22.402  1.00  0.00     0.065 C 
ATOM     34  N   UNL     1     -22.133  19.418  23.525  1.00  0.00    -0.198 NA
ENDBRANCH  26  32
ENDBRANCH  25  26
ENDBRANCH   9  21
TORSDOF 6
ENDMDL
