MODEL 1
REMARK VINA RESULT:    -9.886      0.000      0.000
REMARK INTER + INTRA:         -18.074
REMARK INTER:                 -16.533
REMARK INTRA:                  -1.541
REMARK UNBOUND:                -1.541
REMARK SMILES CC(C)O[C@H](Cc1ccc(OCc2noc(-c3ccc(OC(F)(F)F)cc3)n2)cc1)C(=O)O
REMARK SMILES IDX 11 1 10 2 7 3 8 4 30 5 9 6 29 7 6 8 5 9 4 10 2 11 1 12 3 13
REMARK SMILES IDX 31 14 32 15 33 16 12 18 13 19 14 20 28 21 15 22 16 23 17 24
REMARK SMILES IDX 18 25 27 26 19 27 26 28 20 29 21 30 22 31 23 32 24 33 25 34
REMARK H PARENT 33 17
ROOT
ATOM      1  O   UNL     1      36.072 -37.517 102.517  1.00  0.00    -0.485 OA
ENDROOT
BRANCH   1   2
ATOM      2  C   UNL     1      36.239 -37.574 103.874  1.00  0.00     0.120 A 
ATOM      3  C   UNL     1      36.490 -37.416 106.676  1.00  0.00    -0.045 A 
ATOM      4  C   UNL     1      36.851 -38.582 105.989  1.00  0.00     0.007 A 
ATOM      5  C   UNL     1      35.997 -36.330 105.947  1.00  0.00     0.007 A 
ATOM      6  C   UNL     1      36.727 -38.662 104.598  1.00  0.00     0.047 A 
ATOM      7  C   UNL     1      35.877 -36.411 104.557  1.00  0.00     0.047 A 
BRANCH   3   8
ATOM      8  C   UNL     1      36.611 -37.347 108.184  1.00  0.00     0.079 C 
BRANCH   8   9
ATOM      9  C   UNL     1      37.825 -38.130 108.708  1.00  0.00     0.232 C 
BRANCH   9  10
ATOM     10  O   UNL     1      38.925 -37.216 108.810  1.00  0.00    -0.364 OA
BRANCH  10  11
ATOM     11  C   UNL     1      40.215 -37.833 108.790  1.00  0.00     0.113 C 
ATOM     12  C   UNL     1      41.233 -36.723 108.563  1.00  0.00     0.038 C 
ATOM     13  C   UNL     1      40.291 -38.855 107.661  1.00  0.00     0.038 C 
ENDBRANCH  10  11
ENDBRANCH   9  10
BRANCH   9  14
ATOM     14  C   UNL     1      37.465 -38.747 110.063  1.00  0.00     0.333 C 
ATOM     15  O   UNL     1      37.646 -38.265 111.170  1.00  0.00    -0.249 OA
BRANCH  14  16
ATOM     16  O   UNL     1      36.931 -39.984 109.954  1.00  0.00    -0.479 OA
ATOM     17  H   UNL     1      36.414 -39.940 109.121  1.00  0.00     0.296 HD
ENDBRANCH  14  16
ENDBRANCH   9  14
ENDBRANCH   8   9
ENDBRANCH   3   8
ENDBRANCH   1   2
BRANCH   1  18
ATOM     18  C   UNL     1      36.594 -36.363 101.850  1.00  0.00     0.310 C 
BRANCH  18  19
ATOM     19  C   UNL     1      37.994 -36.585 101.388  1.00  0.00     0.209 A 
ATOM     20  N   UNL     1      38.685 -35.656 100.710  1.00  0.00    -0.058 NA
ATOM     21  N   UNL     1      38.697 -37.734 101.668  1.00  0.00    -0.188 NA
ATOM     22  O   UNL     1      39.930 -36.258 100.523  1.00  0.00    -0.334 OA
ATOM     23  C   UNL     1      39.867 -37.488 101.119  1.00  0.00     0.258 A 
BRANCH  23  24
ATOM     24  C   UNL     1      41.065 -38.318 101.061  1.00  0.00     0.040 A 
ATOM     25  C   UNL     1      41.488 -38.933  99.876  1.00  0.00     0.017 A 
ATOM     26  C   UNL     1      41.835 -38.507 102.216  1.00  0.00     0.017 A 
ATOM     27  C   UNL     1      42.649 -39.719  99.843  1.00  0.00     0.047 A 
ATOM     28  C   UNL     1      42.989 -39.295 102.184  1.00  0.00     0.047 A 
ATOM     29  C   UNL     1      43.405 -39.906 100.999  1.00  0.00     0.129 A 
BRANCH  29  30
ATOM     30  O   UNL     1      44.547 -40.643 101.113  1.00  0.00    -0.406 OA
BRANCH  30  31
ATOM     31  C   UNL     1      44.413 -42.047 101.260  1.00  0.00     0.573 C 
ATOM     32  F   UNL     1      44.782 -42.640 100.104  1.00  0.00    -0.132 F 
ATOM     33  F   UNL     1      45.212 -42.515 102.244  1.00  0.00    -0.132 F 
ATOM     34  F   UNL     1      43.133 -42.390 101.519  1.00  0.00    -0.132 F 
ENDBRANCH  30  31
ENDBRANCH  29  30
ENDBRANCH  23  24
ENDBRANCH  18  19
ENDBRANCH   1  18
TORSDOF 12
ENDMDL
MODEL 2
REMARK VINA RESULT:    -9.185      3.507      7.079
REMARK INTER + INTRA:         -16.901
REMARK INTER:                 -15.239
REMARK INTRA:                  -1.662
REMARK UNBOUND:                -1.541
REMARK SMILES CC(C)O[C@H](Cc1ccc(OCc2noc(-c3ccc(OC(F)(F)F)cc3)n2)cc1)C(=O)O
REMARK SMILES IDX 11 1 10 2 7 3 8 4 30 5 9 6 29 7 6 8 5 9 4 10 2 11 1 12 3 13
REMARK SMILES IDX 31 14 32 15 33 16 12 18 13 19 14 20 28 21 15 22 16 23 17 24
REMARK SMILES IDX 18 25 27 26 19 27 26 28 20 29 21 30 22 31 23 32 24 33 25 34
REMARK H PARENT 33 17
ROOT
ATOM      1  O   UNL     1      35.516 -37.752 108.955  1.00  0.00    -0.485 OA
ENDROOT
BRANCH   1   2
ATOM      2  C   UNL     1      35.570 -37.469 107.618  1.00  0.00     0.120 A 
ATOM      3  C   UNL     1      35.684 -37.173 104.818  1.00  0.00    -0.045 A 
ATOM      4  C   UNL     1      35.680 -36.052 105.658  1.00  0.00     0.007 A 
ATOM      5  C   UNL     1      35.626 -38.446 105.394  1.00  0.00     0.007 A 
ATOM      6  C   UNL     1      35.623 -36.197 107.048  1.00  0.00     0.047 A 
ATOM      7  C   UNL     1      35.573 -38.589 106.783  1.00  0.00     0.047 A 
BRANCH   3   8
ATOM      8  C   UNL     1      35.727 -37.003 103.314  1.00  0.00     0.079 C 
BRANCH   8   9
ATOM      9  C   UNL     1      37.143 -36.699 102.801  1.00  0.00     0.232 C 
BRANCH   9  10
ATOM     10  O   UNL     1      37.712 -37.927 102.331  1.00  0.00    -0.364 OA
BRANCH  10  11
ATOM     11  C   UNL     1      39.058 -38.160 102.755  1.00  0.00     0.113 C 
ATOM     12  C   UNL     1      39.885 -38.392 101.496  1.00  0.00     0.038 C 
ATOM     13  C   UNL     1      39.120 -39.387 103.658  1.00  0.00     0.038 C 
ENDBRANCH  10  11
ENDBRANCH   9  10
BRANCH   9  14
ATOM     14  C   UNL     1      37.048 -35.648 101.690  1.00  0.00     0.333 C 
ATOM     15  O   UNL     1      36.269 -35.630 100.751  1.00  0.00    -0.249 OA
BRANCH  14  16
ATOM     16  O   UNL     1      37.990 -34.685 101.794  1.00  0.00    -0.479 OA
ATOM     17  H   UNL     1      38.509 -34.952 102.583  1.00  0.00     0.296 HD
ENDBRANCH  14  16
ENDBRANCH   9  14
ENDBRANCH   8   9
ENDBRANCH   3   8
ENDBRANCH   1   2
BRANCH   1  18
ATOM     18  C   UNL     1      36.398 -37.013 109.808  1.00  0.00     0.310 C 
BRANCH  18  19
ATOM     19  C   UNL     1      37.712 -37.701 109.963  1.00  0.00     0.209 A 
ATOM     20  N   UNL     1      38.061 -38.344 111.087  1.00  0.00    -0.058 NA
ATOM     21  N   UNL     1      38.639 -37.771 108.949  1.00  0.00    -0.188 NA
ATOM     22  O   UNL     1      39.321 -38.861 110.780  1.00  0.00    -0.334 OA
ATOM     23  C   UNL     1      39.600 -38.484 109.495  1.00  0.00     0.258 A 
BRANCH  23  24
ATOM     24  C   UNL     1      40.878 -38.913 108.939  1.00  0.00     0.040 A 
ATOM     25  C   UNL     1      41.025 -39.256 107.589  1.00  0.00     0.017 A 
ATOM     26  C   UNL     1      42.007 -38.980 109.765  1.00  0.00     0.017 A 
ATOM     27  C   UNL     1      42.267 -39.657 107.074  1.00  0.00     0.047 A 
ATOM     28  C   UNL     1      43.244 -39.386 109.254  1.00  0.00     0.047 A 
ATOM     29  C   UNL     1      43.384 -39.726 107.907  1.00  0.00     0.129 A 
BRANCH  29  30
ATOM     30  O   UNL     1      44.645 -40.101 107.546  1.00  0.00    -0.406 OA
BRANCH  30  31
ATOM     31  C   UNL     1      44.985 -41.472 107.671  1.00  0.00     0.573 C 
ATOM     32  F   UNL     1      45.448 -41.690 108.921  1.00  0.00    -0.132 F 
ATOM     33  F   UNL     1      43.908 -42.264 107.479  1.00  0.00    -0.132 F 
ATOM     34  F   UNL     1      45.957 -41.814 106.797  1.00  0.00    -0.132 F 
ENDBRANCH  30  31
ENDBRANCH  29  30
ENDBRANCH  23  24
ENDBRANCH  18  19
ENDBRANCH   1  18
TORSDOF 12
ENDMDL
MODEL 3
REMARK VINA RESULT:    -9.083      4.388      7.090
REMARK INTER + INTRA:         -16.731
REMARK INTER:                 -15.157
REMARK INTRA:                  -1.574
REMARK UNBOUND:                -1.541
REMARK SMILES CC(C)O[C@H](Cc1ccc(OCc2noc(-c3ccc(OC(F)(F)F)cc3)n2)cc1)C(=O)O
REMARK SMILES IDX 11 1 10 2 7 3 8 4 30 5 9 6 29 7 6 8 5 9 4 10 2 11 1 12 3 13
REMARK SMILES IDX 31 14 32 15 33 16 12 18 13 19 14 20 28 21 15 22 16 23 17 24
REMARK SMILES IDX 18 25 27 26 19 27 26 28 20 29 21 30 22 31 23 32 24 33 25 34
REMARK H PARENT 33 17
ROOT
ATOM      1  O   UNL     1      41.405 -38.119 107.599  1.00  0.00    -0.485 OA
ENDROOT
BRANCH   1   2
ATOM      2  C   UNL     1      42.702 -38.410 107.919  1.00  0.00     0.120 A 
ATOM      3  C   UNL     1      45.270 -39.203 108.767  1.00  0.00    -0.045 A 
ATOM      4  C   UNL     1      45.112 -38.193 107.809  1.00  0.00     0.007 A 
ATOM      5  C   UNL     1      44.129 -39.816 109.294  1.00  0.00     0.007 A 
ATOM      6  C   UNL     1      43.837 -37.799 107.387  1.00  0.00     0.047 A 
ATOM      7  C   UNL     1      42.857 -39.418 108.873  1.00  0.00     0.047 A 
BRANCH   3   8
ATOM      8  C   UNL     1      46.654 -39.635 109.202  1.00  0.00     0.079 C 
BRANCH   8   9
ATOM      9  C   UNL     1      47.322 -40.569 108.181  1.00  0.00     0.232 C 
BRANCH   9  10
ATOM     10  O   UNL     1      46.391 -40.787 107.113  1.00  0.00    -0.364 OA
BRANCH  10  11
ATOM     11  C   UNL     1      46.134 -42.163 106.820  1.00  0.00     0.113 C 
ATOM     12  C   UNL     1      44.926 -42.199 105.893  1.00  0.00     0.038 C 
ATOM     13  C   UNL     1      45.834 -42.927 108.105  1.00  0.00     0.038 C 
ENDBRANCH  10  11
ENDBRANCH   9  10
BRANCH   9  14
ATOM     14  C   UNL     1      48.616 -39.913 107.688  1.00  0.00     0.333 C 
ATOM     15  O   UNL     1      48.885 -39.564 106.550  1.00  0.00    -0.249 OA
BRANCH  14  16
ATOM     16  O   UNL     1      49.542 -39.775 108.664  1.00  0.00    -0.479 OA
ATOM     17  H   UNL     1      49.808 -38.833 108.599  1.00  0.00     0.296 HD
ENDBRANCH  14  16
ENDBRANCH   9  14
ENDBRANCH   8   9
ENDBRANCH   3   8
ENDBRANCH   1   2
BRANCH   1  18
ATOM     18  C   UNL     1      40.577 -39.217 107.197  1.00  0.00     0.310 C 
BRANCH  18  19
ATOM     19  C   UNL     1      40.764 -39.544 105.754  1.00  0.00     0.209 A 
ATOM     20  N   UNL     1      39.764 -39.473 104.864  1.00  0.00    -0.058 NA
ATOM     21  N   UNL     1      41.985 -39.888 105.222  1.00  0.00    -0.188 NA
ATOM     22  O   UNL     1      40.383 -39.814 103.661  1.00  0.00    -0.334 OA
ATOM     23  C   UNL     1      41.701 -40.045 103.947  1.00  0.00     0.258 A 
BRANCH  23  24
ATOM     24  C   UNL     1      42.568 -40.419 102.836  1.00  0.00     0.040 A 
ATOM     25  C   UNL     1      43.012 -39.485 101.890  1.00  0.00     0.017 A 
ATOM     26  C   UNL     1      42.989 -41.748 102.700  1.00  0.00     0.017 A 
ATOM     27  C   UNL     1      43.853 -39.866 100.835  1.00  0.00     0.047 A 
ATOM     28  C   UNL     1      43.822 -42.130 101.645  1.00  0.00     0.047 A 
ATOM     29  C   UNL     1      44.262 -41.193 100.706  1.00  0.00     0.129 A 
BRANCH  29  30
ATOM     30  O   UNL     1      45.069 -41.704  99.733  1.00  0.00    -0.406 OA
BRANCH  30  31
ATOM     31  C   UNL     1      44.651 -41.561  98.386  1.00  0.00     0.573 C 
ATOM     32  F   UNL     1      45.111 -42.615  97.676  1.00  0.00    -0.132 F 
ATOM     33  F   UNL     1      43.304 -41.547  98.290  1.00  0.00    -0.132 F 
ATOM     34  F   UNL     1      45.153 -40.434  97.837  1.00  0.00    -0.132 F 
ENDBRANCH  30  31
ENDBRANCH  29  30
ENDBRANCH  23  24
ENDBRANCH  18  19
ENDBRANCH   1  18
TORSDOF 12
ENDMDL
MODEL 4
REMARK VINA RESULT:    -9.079      3.223      5.455
REMARK INTER + INTRA:         -16.724
REMARK INTER:                 -15.125
REMARK INTRA:                  -1.599
REMARK UNBOUND:                -1.541
REMARK SMILES CC(C)O[C@H](Cc1ccc(OCc2noc(-c3ccc(OC(F)(F)F)cc3)n2)cc1)C(=O)O
REMARK SMILES IDX 11 1 10 2 7 3 8 4 30 5 9 6 29 7 6 8 5 9 4 10 2 11 1 12 3 13
REMARK SMILES IDX 31 14 32 15 33 16 12 18 13 19 14 20 28 21 15 22 16 23 17 24
REMARK SMILES IDX 18 25 27 26 19 27 26 28 20 29 21 30 22 31 23 32 24 33 25 34
REMARK H PARENT 33 17
ROOT
ATOM      1  O   UNL     1      42.744 -38.808 107.928  1.00  0.00    -0.485 OA
ENDROOT
BRANCH   1   2
ATOM      2  C   UNL     1      41.433 -38.815 108.317  1.00  0.00     0.120 A 
ATOM      3  C   UNL     1      38.663 -38.825 108.836  1.00  0.00    -0.045 A 
ATOM      4  C   UNL     1      39.589 -38.804 109.887  1.00  0.00     0.007 A 
ATOM      5  C   UNL     1      39.137 -38.845 107.521  1.00  0.00     0.007 A 
ATOM      6  C   UNL     1      40.965 -38.799 109.631  1.00  0.00     0.047 A 
ATOM      7  C   UNL     1      40.511 -38.837 107.267  1.00  0.00     0.047 A 
BRANCH   3   8
ATOM      8  C   UNL     1      37.177 -38.849 109.126  1.00  0.00     0.079 C 
BRANCH   8   9
ATOM      9  C   UNL     1      36.433 -37.683 108.455  1.00  0.00     0.232 C 
BRANCH   9  10
ATOM     10  O   UNL     1      35.291 -38.224 107.778  1.00  0.00    -0.364 OA
BRANCH  10  11
ATOM     11  C   UNL     1      35.299 -38.040 106.360  1.00  0.00     0.113 C 
ATOM     12  C   UNL     1      35.683 -39.379 105.743  1.00  0.00     0.038 C 
ATOM     13  C   UNL     1      36.316 -36.972 105.973  1.00  0.00     0.038 C 
ENDBRANCH  10  11
ENDBRANCH   9  10
BRANCH   9  14
ATOM     14  C   UNL     1      36.034 -36.670 109.533  1.00  0.00     0.333 C 
ATOM     15  O   UNL     1      35.809 -36.890 110.712  1.00  0.00    -0.249 OA
BRANCH  14  16
ATOM     16  O   UNL     1      35.888 -35.416 109.049  1.00  0.00    -0.479 OA
ATOM     17  H   UNL     1      36.447 -34.872 109.644  1.00  0.00     0.296 HD
ENDBRANCH  14  16
ENDBRANCH   9  14
ENDBRANCH   8   9
ENDBRANCH   3   8
ENDBRANCH   1   2
BRANCH   1  18
ATOM     18  C   UNL     1      43.471 -40.031 108.087  1.00  0.00     0.310 C 
BRANCH  18  19
ATOM     19  C   UNL     1      43.745 -40.680 106.773  1.00  0.00     0.209 A 
ATOM     20  N   UNL     1      44.389 -41.852 106.669  1.00  0.00    -0.058 NA
ATOM     21  N   UNL     1      43.313 -40.153 105.578  1.00  0.00    -0.188 NA
ATOM     22  O   UNL     1      44.385 -42.097 105.295  1.00  0.00    -0.334 OA
ATOM     23  C   UNL     1      43.728 -41.049 104.710  1.00  0.00     0.258 A 
BRANCH  23  24
ATOM     24  C   UNL     1      43.590 -41.078 103.258  1.00  0.00     0.040 A 
ATOM     25  C   UNL     1      44.031 -42.162 102.489  1.00  0.00     0.017 A 
ATOM     26  C   UNL     1      42.989 -39.999 102.597  1.00  0.00     0.017 A 
ATOM     27  C   UNL     1      43.878 -42.171 101.095  1.00  0.00     0.047 A 
ATOM     28  C   UNL     1      42.842 -40.005 101.207  1.00  0.00     0.047 A 
ATOM     29  C   UNL     1      43.284 -41.090 100.446  1.00  0.00     0.129 A 
BRANCH  29  30
ATOM     30  O   UNL     1      43.076 -40.961  99.104  1.00  0.00    -0.406 OA
BRANCH  30  31
ATOM     31  C   UNL     1      44.163 -40.520  98.307  1.00  0.00     0.573 C 
ATOM     32  F   UNL     1      43.708 -39.601  97.427  1.00  0.00    -0.132 F 
ATOM     33  F   UNL     1      45.120 -39.939  99.063  1.00  0.00    -0.132 F 
ATOM     34  F   UNL     1      44.701 -41.542  97.608  1.00  0.00    -0.132 F 
ENDBRANCH  30  31
ENDBRANCH  29  30
ENDBRANCH  23  24
ENDBRANCH  18  19
ENDBRANCH   1  18
TORSDOF 12
ENDMDL
MODEL 5
REMARK VINA RESULT:    -9.067      4.032      7.400
REMARK INTER + INTRA:         -16.703
REMARK INTER:                 -15.013
REMARK INTRA:                  -1.690
REMARK UNBOUND:                -1.541
REMARK SMILES CC(C)O[C@H](Cc1ccc(OCc2noc(-c3ccc(OC(F)(F)F)cc3)n2)cc1)C(=O)O
REMARK SMILES IDX 11 1 10 2 7 3 8 4 30 5 9 6 29 7 6 8 5 9 4 10 2 11 1 12 3 13
REMARK SMILES IDX 31 14 32 15 33 16 12 18 13 19 14 20 28 21 15 22 16 23 17 24
REMARK SMILES IDX 18 25 27 26 19 27 26 28 20 29 21 30 22 31 23 32 24 33 25 34
REMARK H PARENT 33 17
ROOT
ATOM      1  O   UNL     1      35.723 -37.771 108.354  1.00  0.00    -0.485 OA
ENDROOT
BRANCH   1   2
ATOM      2  C   UNL     1      35.781 -37.390 107.042  1.00  0.00     0.120 A 
ATOM      3  C   UNL     1      35.870 -36.884 104.270  1.00  0.00    -0.045 A 
ATOM      4  C   UNL     1      36.017 -35.842 105.194  1.00  0.00     0.007 A 
ATOM      5  C   UNL     1      35.674 -38.184 104.747  1.00  0.00     0.007 A 
ATOM      6  C   UNL     1      35.973 -36.091 106.570  1.00  0.00     0.047 A 
ATOM      7  C   UNL     1      35.634 -38.431 106.123  1.00  0.00     0.047 A 
BRANCH   3   8
ATOM      8  C   UNL     1      35.901 -36.601 102.784  1.00  0.00     0.079 C 
BRANCH   8   9
ATOM      9  C   UNL     1      37.328 -36.363 102.264  1.00  0.00     0.232 C 
BRANCH   9  10
ATOM     10  O   UNL     1      37.851 -37.625 101.828  1.00  0.00    -0.364 OA
BRANCH  10  11
ATOM     11  C   UNL     1      39.101 -37.986 102.420  1.00  0.00     0.113 C 
ATOM     12  C   UNL     1      40.035 -38.373 101.279  1.00  0.00     0.038 C 
ATOM     13  C   UNL     1      38.913 -39.166 103.367  1.00  0.00     0.038 C 
ENDBRANCH  10  11
ENDBRANCH   9  10
BRANCH   9  14
ATOM     14  C   UNL     1      37.273 -35.341 101.125  1.00  0.00     0.333 C 
ATOM     15  O   UNL     1      36.497 -35.320 100.183  1.00  0.00    -0.249 OA
BRANCH  14  16
ATOM     16  O   UNL     1      38.248 -34.408 101.206  1.00  0.00    -0.479 OA
ATOM     17  H   UNL     1      38.159 -33.907 100.368  1.00  0.00     0.296 HD
ENDBRANCH  14  16
ENDBRANCH   9  14
ENDBRANCH   8   9
ENDBRANCH   3   8
ENDBRANCH   1   2
BRANCH   1  18
ATOM     18  C   UNL     1      36.593 -38.834 108.757  1.00  0.00     0.310 C 
BRANCH  18  19
ATOM     19  C   UNL     1      37.988 -38.350 108.965  1.00  0.00     0.209 A 
ATOM     20  N   UNL     1      38.276 -37.291 109.735  1.00  0.00    -0.058 NA
ATOM     21  N   UNL     1      39.084 -38.984 108.427  1.00  0.00    -0.188 NA
ATOM     22  O   UNL     1      39.669 -37.225 109.680  1.00  0.00    -0.334 OA
ATOM     23  C   UNL     1      40.081 -38.262 108.888  1.00  0.00     0.258 A 
BRANCH  23  24
ATOM     24  C   UNL     1      41.517 -38.409 108.679  1.00  0.00     0.040 A 
ATOM     25  C   UNL     1      42.174 -37.826 107.587  1.00  0.00     0.017 A 
ATOM     26  C   UNL     1      42.280 -39.144 109.595  1.00  0.00     0.017 A 
ATOM     27  C   UNL     1      43.558 -37.973 107.413  1.00  0.00     0.047 A 
ATOM     28  C   UNL     1      43.659 -39.296 109.417  1.00  0.00     0.047 A 
ATOM     29  C   UNL     1      44.308 -38.711 108.327  1.00  0.00     0.129 A 
BRANCH  29  30
ATOM     30  O   UNL     1      45.652 -38.940 108.280  1.00  0.00    -0.406 OA
BRANCH  30  31
ATOM     31  C   UNL     1      46.508 -37.965 108.851  1.00  0.00     0.573 C 
ATOM     32  F   UNL     1      47.450 -38.595 109.586  1.00  0.00    -0.132 F 
ATOM     33  F   UNL     1      47.134 -37.243 107.897  1.00  0.00    -0.132 F 
ATOM     34  F   UNL     1      45.824 -37.135 109.667  1.00  0.00    -0.132 F 
ENDBRANCH  30  31
ENDBRANCH  29  30
ENDBRANCH  23  24
ENDBRANCH  18  19
ENDBRANCH   1  18
TORSDOF 12
ENDMDL
MODEL 6
REMARK VINA RESULT:    -8.998      4.828      7.513
REMARK INTER + INTRA:         -16.588
REMARK INTER:                 -15.232
REMARK INTRA:                  -1.356
REMARK UNBOUND:                -1.541
REMARK SMILES CC(C)O[C@H](Cc1ccc(OCc2noc(-c3ccc(OC(F)(F)F)cc3)n2)cc1)C(=O)O
REMARK SMILES IDX 11 1 10 2 7 3 8 4 30 5 9 6 29 7 6 8 5 9 4 10 2 11 1 12 3 13
REMARK SMILES IDX 31 14 32 15 33 16 12 18 13 19 14 20 28 21 15 22 16 23 17 24
REMARK SMILES IDX 18 25 27 26 19 27 26 28 20 29 21 30 22 31 23 32 24 33 25 34
REMARK H PARENT 33 17
ROOT
ATOM      1  O   UNL     1      41.833 -39.629 108.159  1.00  0.00    -0.485 OA
ENDROOT
BRANCH   1   2
ATOM      2  C   UNL     1      43.170 -39.417 108.351  1.00  0.00     0.120 A 
ATOM      3  C   UNL     1      45.856 -38.708 108.827  1.00  0.00    -0.045 A 
ATOM      4  C   UNL     1      45.524 -39.987 108.362  1.00  0.00     0.007 A 
ATOM      5  C   UNL     1      44.830 -37.787 109.056  1.00  0.00     0.007 A 
ATOM      6  C   UNL     1      44.191 -40.340 108.126  1.00  0.00     0.047 A 
ATOM      7  C   UNL     1      43.499 -38.141 108.816  1.00  0.00     0.047 A 
BRANCH   3   8
ATOM      8  C   UNL     1      47.301 -38.342 109.097  1.00  0.00     0.079 C 
BRANCH   8   9
ATOM      9  C   UNL     1      48.046 -37.928 107.819  1.00  0.00     0.232 C 
BRANCH   9  10
ATOM     10  O   UNL     1      48.800 -36.745 108.114  1.00  0.00    -0.364 OA
BRANCH  10  11
ATOM     11  C   UNL     1      48.089 -35.521 107.907  1.00  0.00     0.113 C 
ATOM     12  C   UNL     1      48.821 -34.767 106.803  1.00  0.00     0.038 C 
ATOM     13  C   UNL     1      48.078 -34.696 109.189  1.00  0.00     0.038 C 
ENDBRANCH  10  11
ENDBRANCH   9  10
BRANCH   9  14
ATOM     14  C   UNL     1      48.948 -39.086 107.378  1.00  0.00     0.333 C 
ATOM     15  O   UNL     1      49.418 -39.281 106.268  1.00  0.00    -0.249 OA
BRANCH  14  16
ATOM     16  O   UNL     1      49.175 -39.982 108.364  1.00  0.00    -0.479 OA
ATOM     17  H   UNL     1      50.151 -40.076 108.372  1.00  0.00     0.296 HD
ENDBRANCH  14  16
ENDBRANCH   9  14
ENDBRANCH   8   9
ENDBRANCH   3   8
ENDBRANCH   1   2
BRANCH   1  18
ATOM     18  C   UNL     1      41.186 -38.817 107.172  1.00  0.00     0.310 C 
BRANCH  18  19
ATOM     19  C   UNL     1      41.255 -39.441 105.819  1.00  0.00     0.209 A 
ATOM     20  N   UNL     1      40.165 -39.879 105.171  1.00  0.00    -0.058 NA
ATOM     21  N   UNL     1      42.431 -39.564 105.116  1.00  0.00    -0.188 NA
ATOM     22  O   UNL     1      40.679 -40.335 103.957  1.00  0.00    -0.334 OA
ATOM     23  C   UNL     1      42.029 -40.115 103.991  1.00  0.00     0.258 A 
BRANCH  23  24
ATOM     24  C   UNL     1      42.797 -40.511 102.817  1.00  0.00     0.040 A 
ATOM     25  C   UNL     1      43.215 -39.584 101.853  1.00  0.00     0.017 A 
ATOM     26  C   UNL     1      43.147 -41.856 102.638  1.00  0.00     0.017 A 
ATOM     27  C   UNL     1      43.962 -39.988 100.737  1.00  0.00     0.047 A 
ATOM     28  C   UNL     1      43.886 -42.259 101.521  1.00  0.00     0.047 A 
ATOM     29  C   UNL     1      44.300 -41.329 100.564  1.00  0.00     0.129 A 
BRANCH  29  30
ATOM     30  O   UNL     1      45.014 -41.862  99.531  1.00  0.00    -0.406 OA
BRANCH  30  31
ATOM     31  C   UNL     1      44.495 -41.704  98.221  1.00  0.00     0.573 C 
ATOM     32  F   UNL     1      45.041 -40.597  97.671  1.00  0.00    -0.132 F 
ATOM     33  F   UNL     1      44.810 -42.759  97.438  1.00  0.00    -0.132 F 
ATOM     34  F   UNL     1      43.154 -41.545  98.243  1.00  0.00    -0.132 F 
ENDBRANCH  30  31
ENDBRANCH  29  30
ENDBRANCH  23  24
ENDBRANCH  18  19
ENDBRANCH   1  18
TORSDOF 12
ENDMDL
MODEL 7
REMARK VINA RESULT:    -8.997      6.158      8.450
REMARK INTER + INTRA:         -16.587
REMARK INTER:                 -15.354
REMARK INTRA:                  -1.233
REMARK UNBOUND:                -1.541
REMARK SMILES CC(C)O[C@H](Cc1ccc(OCc2noc(-c3ccc(OC(F)(F)F)cc3)n2)cc1)C(=O)O
REMARK SMILES IDX 11 1 10 2 7 3 8 4 30 5 9 6 29 7 6 8 5 9 4 10 2 11 1 12 3 13
REMARK SMILES IDX 31 14 32 15 33 16 12 18 13 19 14 20 28 21 15 22 16 23 17 24
REMARK SMILES IDX 18 25 27 26 19 27 26 28 20 29 21 30 22 31 23 32 24 33 25 34
REMARK H PARENT 33 17
ROOT
ATOM      1  O   UNL     1      44.616 -41.563 107.943  1.00  0.00    -0.485 OA
ENDROOT
BRANCH   1   2
ATOM      2  C   UNL     1      45.263 -40.449 108.402  1.00  0.00     0.120 A 
ATOM      3  C   UNL     1      46.366 -38.000 109.256  1.00  0.00    -0.045 A 
ATOM      4  C   UNL     1      47.076 -39.197 109.407  1.00  0.00     0.007 A 
ATOM      5  C   UNL     1      45.093 -38.040 108.676  1.00  0.00     0.007 A 
ATOM      6  C   UNL     1      46.530 -40.414 108.983  1.00  0.00     0.047 A 
ATOM      7  C   UNL     1      44.551 -39.256 108.251  1.00  0.00     0.047 A 
BRANCH   3   8
ATOM      8  C   UNL     1      46.959 -36.692 109.734  1.00  0.00     0.079 C 
BRANCH   8   9
ATOM      9  C   UNL     1      48.069 -36.179 108.803  1.00  0.00     0.232 C 
BRANCH   9  10
ATOM     10  O   UNL     1      47.827 -36.716 107.496  1.00  0.00    -0.364 OA
BRANCH  10  11
ATOM     11  C   UNL     1      49.002 -37.153 106.807  1.00  0.00     0.113 C 
ATOM     12  C   UNL     1      48.826 -38.642 106.534  1.00  0.00     0.038 C 
ATOM     13  C   UNL     1      50.236 -36.919 107.670  1.00  0.00     0.038 C 
ENDBRANCH  10  11
ENDBRANCH   9  10
BRANCH   9  14
ATOM     14  C   UNL     1      48.045 -34.647 108.806  1.00  0.00     0.333 C 
ATOM     15  O   UNL     1      47.883 -33.905 107.851  1.00  0.00    -0.249 OA
BRANCH  14  16
ATOM     16  O   UNL     1      48.280 -34.119 110.028  1.00  0.00    -0.479 OA
ATOM     17  H   UNL     1      48.674 -33.243 109.829  1.00  0.00     0.296 HD
ENDBRANCH  14  16
ENDBRANCH   9  14
ENDBRANCH   8   9
ENDBRANCH   3   8
ENDBRANCH   1   2
BRANCH   1  18
ATOM     18  C   UNL     1      43.547 -41.352 107.014  1.00  0.00     0.310 C 
BRANCH  18  19
ATOM     19  C   UNL     1      43.959 -41.686 105.621  1.00  0.00     0.209 A 
ATOM     20  N   UNL     1      44.729 -42.745 105.331  1.00  0.00    -0.058 NA
ATOM     21  N   UNL     1      43.536 -40.967 104.527  1.00  0.00    -0.188 NA
ATOM     22  O   UNL     1      44.825 -42.699 103.940  1.00  0.00    -0.334 OA
ATOM     23  C   UNL     1      44.091 -41.620 103.529  1.00  0.00     0.258 A 
BRANCH  23  24
ATOM     24  C   UNL     1      44.034 -41.361 102.095  1.00  0.00     0.040 A 
ATOM     25  C   UNL     1      44.646 -42.206 101.160  1.00  0.00     0.017 A 
ATOM     26  C   UNL     1      43.340 -40.240 101.620  1.00  0.00     0.017 A 
ATOM     27  C   UNL     1      44.569 -41.941  99.786  1.00  0.00     0.047 A 
ATOM     28  C   UNL     1      43.269 -39.973 100.249  1.00  0.00     0.047 A 
ATOM     29  C   UNL     1      43.881 -40.820  99.322  1.00  0.00     0.129 A 
BRANCH  29  30
ATOM     30  O   UNL     1      43.730 -40.438  98.022  1.00  0.00    -0.406 OA
BRANCH  30  31
ATOM     31  C   UNL     1      42.803 -41.159  97.226  1.00  0.00     0.573 C 
ATOM     32  F   UNL     1      43.357 -42.342  96.882  1.00  0.00    -0.132 F 
ATOM     33  F   UNL     1      41.665 -41.412  97.908  1.00  0.00    -0.132 F 
ATOM     34  F   UNL     1      42.508 -40.487  96.093  1.00  0.00    -0.132 F 
ENDBRANCH  30  31
ENDBRANCH  29  30
ENDBRANCH  23  24
ENDBRANCH  18  19
ENDBRANCH   1  18
TORSDOF 12
ENDMDL
MODEL 8
REMARK VINA RESULT:    -8.950      6.802     10.568
REMARK INTER + INTRA:         -16.508
REMARK INTER:                 -15.149
REMARK INTRA:                  -1.358
REMARK UNBOUND:                -1.541
REMARK SMILES CC(C)O[C@H](Cc1ccc(OCc2noc(-c3ccc(OC(F)(F)F)cc3)n2)cc1)C(=O)O
REMARK SMILES IDX 11 1 10 2 7 3 8 4 30 5 9 6 29 7 6 8 5 9 4 10 2 11 1 12 3 13
REMARK SMILES IDX 31 14 32 15 33 16 12 18 13 19 14 20 28 21 15 22 16 23 17 24
REMARK SMILES IDX 18 25 27 26 19 27 26 28 20 29 21 30 22 31 23 32 24 33 25 34
REMARK H PARENT 33 17
ROOT
ATOM      1  O   UNL     1      45.716 -42.695 105.558  1.00  0.00    -0.485 OA
ENDROOT
BRANCH   1   2
ATOM      2  C   UNL     1      44.857 -42.200 104.616  1.00  0.00     0.120 A 
ATOM      3  C   UNL     1      43.254 -41.310 102.476  1.00  0.00    -0.045 A 
ATOM      4  C   UNL     1      42.950 -40.954 103.796  1.00  0.00     0.007 A 
ATOM      5  C   UNL     1      44.367 -42.122 102.237  1.00  0.00     0.007 A 
ATOM      6  C   UNL     1      43.744 -41.395 104.859  1.00  0.00     0.047 A 
ATOM      7  C   UNL     1      45.162 -42.558 103.301  1.00  0.00     0.047 A 
BRANCH   3   8
ATOM      8  C   UNL     1      42.376 -40.843 101.334  1.00  0.00     0.079 C 
BRANCH   8   9
ATOM      9  C   UNL     1      42.826 -39.486 100.770  1.00  0.00     0.232 C 
BRANCH   9  10
ATOM     10  O   UNL     1      42.723 -39.549  99.342  1.00  0.00    -0.364 OA
BRANCH  10  11
ATOM     11  C   UNL     1      43.371 -40.678  98.749  1.00  0.00     0.113 C 
ATOM     12  C   UNL     1      44.844 -40.316  98.602  1.00  0.00     0.038 C 
ATOM     13  C   UNL     1      42.764 -40.974  97.382  1.00  0.00     0.038 C 
ENDBRANCH  10  11
ENDBRANCH   9  10
BRANCH   9  14
ATOM     14  C   UNL     1      41.935 -38.388 101.361  1.00  0.00     0.333 C 
ATOM     15  O   UNL     1      40.922 -37.912 100.874  1.00  0.00    -0.249 OA
BRANCH  14  16
ATOM     16  O   UNL     1      42.403 -37.903 102.532  1.00  0.00    -0.479 OA
ATOM     17  H   UNL     1      43.373 -38.030 102.464  1.00  0.00     0.296 HD
ENDBRANCH  14  16
ENDBRANCH   9  14
ENDBRANCH   8   9
ENDBRANCH   3   8
ENDBRANCH   1   2
BRANCH   1  18
ATOM     18  C   UNL     1      45.403 -42.417 106.928  1.00  0.00     0.310 C 
BRANCH  18  19
ATOM     19  C   UNL     1      46.376 -41.460 107.528  1.00  0.00     0.209 A 
ATOM     20  N   UNL     1      47.289 -41.836 108.436  1.00  0.00    -0.058 NA
ATOM     21  N   UNL     1      46.445 -40.137 107.158  1.00  0.00    -0.188 NA
ATOM     22  O   UNL     1      47.996 -40.658 108.683  1.00  0.00    -0.334 OA
ATOM     23  C   UNL     1      47.443 -39.692 107.889  1.00  0.00     0.258 A 
BRANCH  23  24
ATOM     24  C   UNL     1      48.021 -38.355 107.967  1.00  0.00     0.040 A 
ATOM     25  C   UNL     1      47.320 -37.271 108.510  1.00  0.00     0.017 A 
ATOM     26  C   UNL     1      49.322 -38.133 107.498  1.00  0.00     0.017 A 
ATOM     27  C   UNL     1      47.901 -35.996 108.583  1.00  0.00     0.047 A 
ATOM     28  C   UNL     1      49.899 -36.861 107.565  1.00  0.00     0.047 A 
ATOM     29  C   UNL     1      49.195 -35.785 108.109  1.00  0.00     0.129 A 
BRANCH  29  30
ATOM     30  O   UNL     1      49.879 -34.605 108.112  1.00  0.00    -0.406 OA
BRANCH  30  31
ATOM     31  C   UNL     1      49.359 -33.539 107.334  1.00  0.00     0.573 C 
ATOM     32  F   UNL     1      50.251 -32.524 107.342  1.00  0.00    -0.132 F 
ATOM     33  F   UNL     1      49.166 -33.917 106.051  1.00  0.00    -0.132 F 
ATOM     34  F   UNL     1      48.197 -33.082 107.848  1.00  0.00    -0.132 F 
ENDBRANCH  30  31
ENDBRANCH  29  30
ENDBRANCH  23  24
ENDBRANCH  18  19
ENDBRANCH   1  18
TORSDOF 12
ENDMDL
MODEL 9
REMARK VINA RESULT:    -8.879      4.703      7.241
REMARK INTER + INTRA:         -16.389
REMARK INTER:                 -15.373
REMARK INTRA:                  -1.016
REMARK UNBOUND:                -1.541
REMARK SMILES CC(C)O[C@H](Cc1ccc(OCc2noc(-c3ccc(OC(F)(F)F)cc3)n2)cc1)C(=O)O
REMARK SMILES IDX 11 1 10 2 7 3 8 4 30 5 9 6 29 7 6 8 5 9 4 10 2 11 1 12 3 13
REMARK SMILES IDX 31 14 32 15 33 16 12 18 13 19 14 20 28 21 15 22 16 23 17 24
REMARK SMILES IDX 18 25 27 26 19 27 26 28 20 29 21 30 22 31 23 32 24 33 25 34
REMARK H PARENT 33 17
ROOT
ATOM      1  O   UNL     1      41.625 -39.519 108.030  1.00  0.00    -0.485 OA
ENDROOT
BRANCH   1   2
ATOM      2  C   UNL     1      42.947 -39.405 108.362  1.00  0.00     0.120 A 
ATOM      3  C   UNL     1      45.612 -38.896 109.125  1.00  0.00    -0.045 A 
ATOM      4  C   UNL     1      45.245 -40.135 108.585  1.00  0.00     0.007 A 
ATOM      5  C   UNL     1      44.629 -37.913 109.285  1.00  0.00     0.007 A 
ATOM      6  C   UNL     1      43.922 -40.389 108.205  1.00  0.00     0.047 A 
ATOM      7  C   UNL     1      43.310 -38.168 108.902  1.00  0.00     0.047 A 
BRANCH   3   8
ATOM      8  C   UNL     1      47.042 -38.638 109.550  1.00  0.00     0.079 C 
BRANCH   8   9
ATOM      9  C   UNL     1      47.856 -37.930 108.456  1.00  0.00     0.232 C 
BRANCH   9  10
ATOM     10  O   UNL     1      47.510 -38.523 107.198  1.00  0.00    -0.364 OA
BRANCH  10  11
ATOM     11  C   UNL     1      48.523 -39.361 106.636  1.00  0.00     0.113 C 
ATOM     12  C   UNL     1      49.208 -40.066 107.800  1.00  0.00     0.038 C 
ATOM     13  C   UNL     1      49.533 -38.519 105.863  1.00  0.00     0.038 C 
ENDBRANCH  10  11
ENDBRANCH   9  10
BRANCH   9  14
ATOM     14  C   UNL     1      47.532 -36.433 108.493  1.00  0.00     0.333 C 
ATOM     15  O   UNL     1      47.591 -35.684 109.455  1.00  0.00    -0.249 OA
BRANCH  14  16
ATOM     16  O   UNL     1      47.094 -35.959 107.306  1.00  0.00    -0.479 OA
ATOM     17  H   UNL     1      46.615 -36.721 106.915  1.00  0.00     0.296 HD
ENDBRANCH  14  16
ENDBRANCH   9  14
ENDBRANCH   8   9
ENDBRANCH   3   8
ENDBRANCH   1   2
BRANCH   1  18
ATOM     18  C   UNL     1      41.152 -38.685 106.966  1.00  0.00     0.310 C 
BRANCH  18  19
ATOM     19  C   UNL     1      41.242 -39.376 105.648  1.00  0.00     0.209 A 
ATOM     20  N   UNL     1      40.170 -39.897 105.032  1.00  0.00    -0.058 NA
ATOM     21  N   UNL     1      42.419 -39.484 104.944  1.00  0.00    -0.188 NA
ATOM     22  O   UNL     1      40.698 -40.394 103.840  1.00  0.00    -0.334 OA
ATOM     23  C   UNL     1      42.037 -40.112 103.853  1.00  0.00     0.258 A 
BRANCH  23  24
ATOM     24  C   UNL     1      42.817 -40.534 102.696  1.00  0.00     0.040 A 
ATOM     25  C   UNL     1      43.222 -39.635 101.701  1.00  0.00     0.017 A 
ATOM     26  C   UNL     1      43.190 -41.878 102.564  1.00  0.00     0.017 A 
ATOM     27  C   UNL     1      43.981 -40.063 100.603  1.00  0.00     0.047 A 
ATOM     28  C   UNL     1      43.941 -42.307 101.465  1.00  0.00     0.047 A 
ATOM     29  C   UNL     1      44.343 -41.404 100.478  1.00  0.00     0.129 A 
BRANCH  29  30
ATOM     30  O   UNL     1      45.070 -41.960  99.466  1.00  0.00    -0.406 OA
BRANCH  30  31
ATOM     31  C   UNL     1      44.630 -41.733  98.137  1.00  0.00     0.573 C 
ATOM     32  F   UNL     1      45.005 -42.783  97.373  1.00  0.00    -0.132 F 
ATOM     33  F   UNL     1      43.285 -41.630  98.077  1.00  0.00    -0.132 F 
ATOM     34  F   UNL     1      45.191 -40.617  97.622  1.00  0.00    -0.132 F 
ENDBRANCH  30  31
ENDBRANCH  29  30
ENDBRANCH  23  24
ENDBRANCH  18  19
ENDBRANCH   1  18
TORSDOF 12
ENDMDL
