MODEL 8
REMARK VINA RESULT:    -6.676     11.620     16.180
REMARK INTER + INTRA:         -14.868
REMARK INTER:                 -10.852
REMARK INTRA:                  -4.016
REMARK UNBOUND:                -4.094
REMARK SMILES Cc1cc(OCCCc2c(C(=O)NCc3cc(C(=O)O)ccn3)[nH]c3c(-c4c(C)nn(C)c4C)cccc23)cc(C)c1Cl
REMARK SMILES IDX 9 1 10 2 24 3 25 4 26 5 35 6 36 7 37 8 38 9 8 11 7 12 6 13
REMARK SMILES IDX 5 14 4 15 2 16 3 17 42 18 40 19 39 20 1 21 43 22 41 23 11 24
REMARK SMILES IDX 12 25 13 26 14 28 15 29 16 30 23 31 17 32 22 33 21 34 18 35
REMARK SMILES IDX 19 36 20 37 27 39 28 40 33 41 30 42 31 43 29 44 34 45 32 46
REMARK H PARENT 24 10 13 27 20 38
ROOT
ATOM      1  C   UNL     1      27.105  14.269 -42.937  1.00  0.00    -0.009 A 
ATOM      2  C   UNL     1      27.975  13.718 -41.994  1.00  0.00     0.108 A 
ATOM      3  N   UNL     1      28.497  12.575 -42.565  1.00  0.00    -0.350 N 
ATOM      4  C   UNL     1      28.038  12.387 -43.842  1.00  0.00     0.054 A 
ATOM      5  C   UNL     1      28.316  11.377 -44.777  1.00  0.00     0.010 A 
ATOM      6  C   UNL     1      27.704  11.452 -46.032  1.00  0.00     0.011 A 
ATOM      7  C   UNL     1      26.831  12.494 -46.331  1.00  0.00     0.001 A 
ATOM      8  C   UNL     1      26.552  13.487 -45.383  1.00  0.00     0.010 A 
ATOM      9  C   UNL     1      27.169  13.439 -44.112  1.00  0.00     0.004 A 
ATOM     10  H   UNL     1      29.148  11.960 -42.092  1.00  0.00     0.167 HD
ENDROOT
BRANCH   1  11
ATOM     11  C   UNL     1      26.217  15.471 -42.811  1.00  0.00     0.042 C 
BRANCH  11  12
ATOM     12  C   UNL     1      25.453  15.499 -41.488  1.00  0.00     0.046 C 
BRANCH  12  13
ATOM     13  C   UNL     1      23.944  15.536 -41.718  1.00  0.00     0.230 C 
BRANCH  13  14
ATOM     14  O   UNL     1      23.406  14.286 -41.292  1.00  0.00    -0.494 OA
BRANCH  14  15
ATOM     15  C   UNL     1      23.741  13.178 -42.020  1.00  0.00     0.119 A 
ATOM     16  C   UNL     1      23.489  12.093 -44.192  1.00  0.00    -0.029 A 
ATOM     17  C   UNL     1      23.233  13.162 -43.321  1.00  0.00     0.051 A 
ATOM     18  C   UNL     1      24.276  11.020 -43.735  1.00  0.00     0.047 A 
ATOM     19  C   UNL     1      24.796  11.021 -42.427  1.00  0.00    -0.029 A 
ATOM     20  C   UNL     1      24.521  12.110 -41.579  1.00  0.00     0.051 A 
ATOM     21  C   UNL     1      22.914  12.129 -45.581  1.00  0.00     0.046 C 
ATOM     22  Cl  UNL     1      24.607   9.685 -44.793  1.00  0.00    -0.084 Cl
ATOM     23  C   UNL     1      25.644   9.890 -41.909  1.00  0.00     0.046 C 
ENDBRANCH  14  15
ENDBRANCH  13  14
ENDBRANCH  12  13
ENDBRANCH  11  12
ENDBRANCH   1  11
BRANCH   2  24
ATOM     24  C   UNL     1      28.376  14.074 -40.646  1.00  0.00     0.268 C 
ATOM     25  O   UNL     1      28.242  13.296 -39.705  1.00  0.00    -0.268 OA
ATOM     26  N   UNL     1      28.955  15.305 -40.491  1.00  0.00    -0.345 N 
ATOM     27  H   UNL     1      29.332  15.749 -41.313  1.00  0.00     0.164 HD
BRANCH  26  28
ATOM     28  C   UNL     1      29.592  15.686 -39.248  1.00  0.00     0.172 C 
BRANCH  28  29
ATOM     29  C   UNL     1      28.856  16.837 -38.607  1.00  0.00     0.060 A 
ATOM     30  C   UNL     1      29.551  17.896 -38.035  1.00  0.00     0.041 A 
ATOM     31  N   UNL     1      27.498  16.812 -38.686  1.00  0.00    -0.259 NA
ATOM     32  C   UNL     1      28.819  18.956 -37.498  1.00  0.00     0.063 A 
ATOM     33  C   UNL     1      26.818  17.852 -38.158  1.00  0.00     0.112 A 
ATOM     34  C   UNL     1      27.427  18.936 -37.556  1.00  0.00     0.036 A 
BRANCH  32  35
ATOM     35  C   UNL     1      29.475  20.121 -36.863  1.00  0.00     0.335 C 
ATOM     36  O   UNL     1      30.656  20.203 -36.583  1.00  0.00    -0.246 OA
BRANCH  35  37
ATOM     37  O   UNL     1      28.621  21.128 -36.613  1.00  0.00    -0.478 OA
ATOM     38  H   UNL     1      28.832  21.401 -35.696  1.00  0.00     0.297 HD
ENDBRANCH  35  37
ENDBRANCH  32  35
ENDBRANCH  28  29
ENDBRANCH  26  28
ENDBRANCH   2  24
BRANCH   5  39
ATOM     39  C   UNL     1      29.224  10.309 -44.437  1.00  0.00     0.028 A 
ATOM     40  C   UNL     1      28.957   8.954 -44.117  1.00  0.00     0.068 A 
ATOM     41  C   UNL     1      30.600  10.439 -44.352  1.00  0.00     0.043 A 
ATOM     42  N   UNL     1      30.082   8.278 -43.860  1.00  0.00    -0.178 NA
ATOM     43  N   UNL     1      31.057   9.193 -44.002  1.00  0.00    -0.272 N 
ATOM     44  C   UNL     1      27.641   8.272 -44.058  1.00  0.00     0.069 C 
ATOM     45  C   UNL     1      31.502  11.603 -44.550  1.00  0.00     0.067 C 
ATOM     46  C   UNL     1      32.430   8.798 -43.786  1.00  0.00     0.174 C 
ENDBRANCH   5  39
TORSDOF 11
ENDMDL
