REMARK SMILES COc1ccccc1C(=O)n1nc(-c2ccccn2)nc1NCc1ccc(F)cc1
REMARK SMILES IDX 11 1 12 2 13 3 20 4 21 5 9 6 10 7 8 8 3 9 4 10 5 11 7 12
REMARK SMILES IDX 6 13 2 14 1 15 22 16 23 18 24 19 25 20 30 21 26 22 29 23
REMARK SMILES IDX 27 24 28 25 14 26 15 27 19 28 16 29 18 30 17 31
REMARK H PARENT 22 17
REMARK INDEX MAP 11 1 12 2 13 3 20 4 21 5 9 6 10 7 8 8 3 9 4 10 5 11 7 12 6 13
REMARK INDEX MAP 2 14 1 15 22 16 42 17 23 18 24 19 25 20 30 21 26 22 29 23
REMARK INDEX MAP 27 24 28 25 14 26 15 27 19 28 16 29 18 30 17 31
ROOT
ATOM      1  N   UNL     1      -3.715  12.486  23.531  1.00  0.00    -0.160 N 
ATOM      2  N   UNL     1      -3.033  12.180  24.670  1.00  0.00    -0.139 NA
ATOM      3  C   UNL     1      -2.711  10.889  24.480  1.00  0.00     0.202 A 
ATOM      4  N   UNL     1      -3.139  10.379  23.274  1.00  0.00    -0.189 NA
ATOM      5  C   UNL     1      -3.753  11.381  22.693  1.00  0.00     0.229 A 
ENDROOT
BRANCH   1   6
ATOM      6  C   UNL     1      -4.215  13.780  23.312  1.00  0.00     0.285 C 
ATOM      7  O   UNL     1      -3.676  14.490  22.460  1.00  0.00    -0.266 OA
BRANCH   6   8
ATOM      8  C   UNL     1      -5.339  14.344  24.083  1.00  0.00     0.084 A 
ATOM      9  C   UNL     1      -6.660  13.982  23.786  1.00  0.00     0.131 A 
ATOM     10  C   UNL     1      -7.692  14.523  24.559  1.00  0.00     0.047 A 
ATOM     11  C   UNL     1      -7.406  15.430  25.588  1.00  0.00     0.004 A 
ATOM     12  C   UNL     1      -5.049  15.269  25.096  1.00  0.00     0.018 A 
ATOM     13  C   UNL     1      -6.090  15.809  25.849  1.00  0.00     0.001 A 
BRANCH   9  14
ATOM     14  O   UNL     1      -6.843  13.116  22.743  1.00  0.00    -0.496 OA
ATOM     15  C   UNL     1      -7.709  12.010  22.970  1.00  0.00     0.278 C 
ENDBRANCH   9  14
ENDBRANCH   6   8
ENDBRANCH   1   6
BRANCH   5  16
ATOM     16  N   UNL     1      -4.355  11.386  21.486  1.00  0.00    -0.350 N 
ATOM     17  H   UNL     1      -5.217  11.933  21.347  1.00  0.00     0.164 HD
BRANCH  16  18
ATOM     18  C   UNL     1      -3.801  10.631  20.389  1.00  0.00     0.152 C 
BRANCH  18  19
ATOM     19  C   UNL     1      -4.733   9.491  20.047  1.00  0.00    -0.029 A 
ATOM     20  C   UNL     1      -5.979   9.371  20.683  1.00  0.00     0.008 A 
ATOM     21  C   UNL     1      -4.338   8.510  19.122  1.00  0.00     0.008 A 
ATOM     22  C   UNL     1      -6.821   8.301  20.384  1.00  0.00     0.039 A 
ATOM     23  C   UNL     1      -5.183   7.443  18.821  1.00  0.00     0.039 A 
ATOM     24  C   UNL     1      -6.418   7.350  19.452  1.00  0.00     0.123 A 
ATOM     25  F   UNL     1      -7.226   6.324  19.165  1.00  0.00    -0.207 F 
ENDBRANCH  18  19
ENDBRANCH  16  18
ENDBRANCH   5  16
BRANCH   3  26
ATOM     26  C   UNL     1      -1.953  10.087  25.455  1.00  0.00     0.109 A 
ATOM     27  C   UNL     1      -0.623   9.747  25.216  1.00  0.00     0.032 A 
ATOM     28  N   UNL     1      -2.611   9.689  26.577  1.00  0.00    -0.253 NA
ATOM     29  C   UNL     1       0.052   8.963  26.148  1.00  0.00     0.004 A 
ATOM     30  C   UNL     1      -1.932   8.925  27.460  1.00  0.00     0.112 A 
ATOM     31  C   UNL     1      -0.613   8.543  27.294  1.00  0.00     0.020 A 
ENDBRANCH   3  26
TORSDOF 7
