MODEL 5
REMARK VINA RESULT:    -8.075      3.487      6.521
REMARK INTER + INTRA:         -13.518
REMARK INTER:                 -11.189
REMARK INTRA:                  -2.329
REMARK UNBOUND:                -1.195
REMARK SMILES CC(C)(C)OC(=O)CNc1nc(Cl)c2n(c1=O)[C@H](C(=O)NCc1ccc(C(=N)N)cc1)CC2(C)C
REMARK SMILES IDX 10 1 11 2 12 3 13 4 14 5 15 6 16 7 17 8 18 9 32 10 33 11
REMARK SMILES IDX 34 12 35 13 9 14 8 16 6 17 7 18 5 19 2 20 1 21 3 22 4 23
REMARK SMILES IDX 19 24 20 25 21 26 22 28 23 29 24 30 31 31 25 32 30 33 26 34
REMARK SMILES IDX 27 35 28 36 29 37
REMARK H PARENT 9 15 21 27 28 38 29 39 29 40
ROOT
ATOM      1  C   UNL     1      -4.934  13.175  22.714  1.00  0.00     0.194 A 
ATOM      2  N   UNL     1      -4.430  12.215  23.439  1.00  0.00    -0.212 NA
ATOM      3  C   UNL     1      -3.178  11.739  23.124  1.00  0.00     0.151 A 
ATOM      4  Cl  UNL     1      -2.635  10.475  24.172  1.00  0.00    -0.060 Cl
ATOM      5  C   UNL     1      -2.434  12.188  22.094  1.00  0.00     0.065 A 
ATOM      6  N   UNL     1      -2.952  13.173  21.274  1.00  0.00    -0.293 N 
ATOM      7  C   UNL     1      -4.162  13.774  21.513  1.00  0.00     0.294 A 
ATOM      8  O   UNL     1      -4.650  14.703  20.887  1.00  0.00    -0.265 OA
ATOM      9  C   UNL     1      -2.029  13.619  20.242  1.00  0.00     0.180 C 
ATOM     10  C   UNL     1      -0.692  13.034  20.691  1.00  0.00     0.048 C 
ATOM     11  C   UNL     1      -1.025  11.835  21.625  1.00  0.00     0.011 C 
ATOM     12  C   UNL     1      -1.016  10.513  20.843  1.00  0.00     0.018 C 
ATOM     13  C   UNL     1       0.038  11.779  22.732  1.00  0.00     0.018 C 
ENDROOT
BRANCH   1  14
ATOM     14  N   UNL     1      -6.171  13.737  22.990  1.00  0.00    -0.355 N 
ATOM     15  H   UNL     1      -6.168  14.208  23.898  1.00  0.00     0.162 HD
BRANCH  14  16
ATOM     16  C   UNL     1      -7.388  12.947  22.773  1.00  0.00     0.237 C 
BRANCH  16  17
ATOM     17  C   UNL     1      -7.642  12.602  21.303  1.00  0.00     0.325 C 
ATOM     18  O   UNL     1      -8.238  13.346  20.535  1.00  0.00    -0.250 OA
BRANCH  17  19
ATOM     19  O   UNL     1      -7.162  11.366  20.987  1.00  0.00    -0.459 OA
BRANCH  19  20
ATOM     20  C   UNL     1      -8.050  10.257  20.708  1.00  0.00     0.104 C 
ATOM     21  C   UNL     1      -8.117  10.198  19.174  1.00  0.00     0.056 C 
ATOM     22  C   UNL     1      -9.457  10.518  21.253  1.00  0.00     0.056 C 
ATOM     23  C   UNL     1      -7.469   8.937  21.226  1.00  0.00     0.056 C 
ENDBRANCH  19  20
ENDBRANCH  17  19
ENDBRANCH  16  17
ENDBRANCH  14  16
ENDBRANCH   1  14
BRANCH   9  24
ATOM     24  C   UNL     1      -2.390  13.177  18.811  1.00  0.00     0.243 C 
ATOM     25  O   UNL     1      -1.540  13.156  17.920  1.00  0.00    -0.273 OA
ATOM     26  N   UNL     1      -3.683  12.744  18.621  1.00  0.00    -0.350 N 
ATOM     27  H   UNL     1      -4.275  12.629  19.432  1.00  0.00     0.163 HD
BRANCH  26  28
ATOM     28  C   UNL     1      -4.122  12.166  17.373  1.00  0.00     0.151 C 
BRANCH  28  29
ATOM     29  C   UNL     1      -4.479  10.711  17.555  1.00  0.00    -0.029 A 
ATOM     30  C   UNL     1      -5.049   9.975  16.504  1.00  0.00     0.006 A 
ATOM     31  C   UNL     1      -4.299  10.091  18.802  1.00  0.00     0.006 A 
ATOM     32  C   UNL     1      -5.426   8.643  16.695  1.00  0.00     0.012 A 
ATOM     33  C   UNL     1      -4.677   8.761  18.995  1.00  0.00     0.012 A 
ATOM     34  C   UNL     1      -5.245   8.038  17.942  1.00  0.00     0.016 A 
BRANCH  34  35
ATOM     35  C   UNL     1      -5.651   6.625  18.162  1.00  0.00     0.122 C 
ATOM     36  N   UNL     1      -4.801   5.681  18.416  1.00  0.00    -0.284 NA
ATOM     37  N   UNL     1      -6.965   6.273  18.101  1.00  0.00    -0.384 N 
ATOM     38  H   UNL     1      -3.840   6.033  18.392  1.00  0.00     0.189 HD
ATOM     39  H   UNL     1      -7.624   6.947  18.468  1.00  0.00     0.158 HD
ATOM     40  H   UNL     1      -7.106   5.341  18.481  1.00  0.00     0.158 HD
ENDBRANCH  34  35
ENDBRANCH  28  29
ENDBRANCH  26  28
ENDBRANCH   9  24
TORSDOF 9
ENDMDL
