MODEL 4
REMARK VINA RESULT:    -8.107      1.614      2.519
REMARK INTER + INTRA:         -13.568
REMARK INTER:                 -12.177
REMARK INTRA:                  -1.391
REMARK UNBOUND:                -1.195
REMARK SMILES CC(C)(C)OC(=O)CNc1nc(Cl)c2n(c1=O)[C@H](C(=O)NCc1ccc(C(=N)N)cc1)CC2(C)C
REMARK SMILES IDX 10 1 11 2 12 3 13 4 14 5 15 6 16 7 17 8 18 9 32 10 33 11
REMARK SMILES IDX 34 12 35 13 9 14 8 16 6 17 7 18 5 19 2 20 1 21 3 22 4 23
REMARK SMILES IDX 19 24 20 25 21 26 22 28 23 29 24 30 31 31 25 32 30 33 26 34
REMARK SMILES IDX 27 35 28 36 29 37
REMARK H PARENT 9 15 21 27 28 38 29 39 29 40
ROOT
ATOM      1  C   UNL     1      -5.012   9.226  19.974  1.00  0.00     0.194 A 
ATOM      2  N   UNL     1      -6.120   9.005  20.625  1.00  0.00    -0.212 NA
ATOM      3  C   UNL     1      -6.694  10.044  21.319  1.00  0.00     0.151 A 
ATOM      4  Cl  UNL     1      -8.161   9.611  22.127  1.00  0.00    -0.060 Cl
ATOM      5  C   UNL     1      -6.175  11.286  21.390  1.00  0.00     0.065 A 
ATOM      6  N   UNL     1      -4.978  11.548  20.752  1.00  0.00    -0.293 N 
ATOM      7  C   UNL     1      -4.333  10.617  19.977  1.00  0.00     0.294 A 
ATOM      8  O   UNL     1      -3.320  10.793  19.317  1.00  0.00    -0.265 OA
ATOM      9  C   UNL     1      -4.557  12.937  20.846  1.00  0.00     0.180 C 
ATOM     10  C   UNL     1      -5.810  13.649  21.352  1.00  0.00     0.048 C 
ATOM     11  C   UNL     1      -6.682  12.566  22.049  1.00  0.00     0.011 C 
ATOM     12  C   UNL     1      -6.427  12.549  23.564  1.00  0.00     0.018 C 
ATOM     13  C   UNL     1      -8.159  12.897  21.786  1.00  0.00     0.018 C 
ENDROOT
BRANCH   1  14
ATOM     14  N   UNL     1      -4.393   8.242  19.218  1.00  0.00    -0.355 N 
ATOM     15  H   UNL     1      -3.794   8.652  18.496  1.00  0.00     0.162 HD
BRANCH  14  16
ATOM     16  C   UNL     1      -5.182   7.112  18.714  1.00  0.00     0.237 C 
BRANCH  16  17
ATOM     17  C   UNL     1      -6.106   7.480  17.550  1.00  0.00     0.325 C 
ATOM     18  O   UNL     1      -7.279   7.130  17.491  1.00  0.00    -0.250 OA
BRANCH  17  19
ATOM     19  O   UNL     1      -5.450   8.197  16.594  1.00  0.00    -0.459 OA
BRANCH  19  20
ATOM     20  C   UNL     1      -5.869   9.534  16.228  1.00  0.00     0.104 C 
ATOM     21  C   UNL     1      -6.522   9.364  14.847  1.00  0.00     0.056 C 
ATOM     22  C   UNL     1      -4.672  10.478  16.095  1.00  0.00     0.056 C 
ATOM     23  C   UNL     1      -6.921  10.071  17.205  1.00  0.00     0.056 C 
ENDBRANCH  19  20
ENDBRANCH  17  19
ENDBRANCH  16  17
ENDBRANCH  14  16
ENDBRANCH   1  14
BRANCH   9  24
ATOM     24  C   UNL     1      -3.349  13.190  21.767  1.00  0.00     0.243 C 
ATOM     25  O   UNL     1      -3.262  14.224  22.430  1.00  0.00    -0.273 OA
ATOM     26  N   UNL     1      -2.431  12.167  21.855  1.00  0.00    -0.350 N 
ATOM     27  H   UNL     1      -2.653  11.284  21.415  1.00  0.00     0.163 HD
BRANCH  26  28
ATOM     28  C   UNL     1      -1.328  12.203  22.785  1.00  0.00     0.151 C 
BRANCH  28  29
ATOM     29  C   UNL     1      -1.614  11.335  23.986  1.00  0.00    -0.029 A 
ATOM     30  C   UNL     1      -2.739  11.573  24.792  1.00  0.00     0.006 A 
ATOM     31  C   UNL     1      -0.722  10.312  24.346  1.00  0.00     0.006 A 
ATOM     32  C   UNL     1      -2.970  10.799  25.932  1.00  0.00     0.012 A 
ATOM     33  C   UNL     1      -0.950   9.540  25.487  1.00  0.00     0.012 A 
ATOM     34  C   UNL     1      -2.072   9.786  26.282  1.00  0.00     0.016 A 
BRANCH  34  35
ATOM     35  C   UNL     1      -2.300   8.963  27.499  1.00  0.00     0.122 C 
ATOM     36  N   UNL     1      -3.276   9.182  28.323  1.00  0.00    -0.284 NA
ATOM     37  N   UNL     1      -1.466   7.927  27.791  1.00  0.00    -0.384 N 
ATOM     38  H   UNL     1      -3.814  10.007  28.046  1.00  0.00     0.189 HD
ATOM     39  H   UNL     1      -1.120   7.398  27.001  1.00  0.00     0.158 HD
ATOM     40  H   UNL     1      -1.866   7.335  28.514  1.00  0.00     0.158 HD
ENDBRANCH  34  35
ENDBRANCH  28  29
ENDBRANCH  26  28
ENDBRANCH   9  24
TORSDOF 9
ENDMDL
