MODEL 8
REMARK VINA RESULT:    -7.728      2.123      2.939
REMARK INTER + INTRA:         -12.990
REMARK INTER:                 -11.442
REMARK INTRA:                  -1.548
REMARK UNBOUND:                -1.195
REMARK SMILES CC(C)(C)OC(=O)CNc1nc(Cl)c2n(c1=O)[C@H](C(=O)NCc1ccc(C(=N)N)cc1)CC2(C)C
REMARK SMILES IDX 10 1 11 2 12 3 13 4 14 5 15 6 16 7 17 8 18 9 32 10 33 11
REMARK SMILES IDX 34 12 35 13 9 14 8 16 6 17 7 18 5 19 2 20 1 21 3 22 4 23
REMARK SMILES IDX 19 24 20 25 21 26 22 28 23 29 24 30 31 31 25 32 30 33 26 34
REMARK SMILES IDX 27 35 28 36 29 37
REMARK H PARENT 9 15 21 27 28 38 29 39 29 40
ROOT
ATOM      1  C   UNL     1      -5.083  11.620  17.529  1.00  0.00     0.194 A 
ATOM      2  N   UNL     1      -6.081  11.808  18.347  1.00  0.00    -0.212 NA
ATOM      3  C   UNL     1      -5.997  12.830  19.264  1.00  0.00     0.151 A 
ATOM      4  Cl  UNL     1      -7.392  12.968  20.277  1.00  0.00    -0.060 Cl
ATOM      5  C   UNL     1      -4.934  13.649  19.390  1.00  0.00     0.065 A 
ATOM      6  N   UNL     1      -3.838  13.453  18.573  1.00  0.00    -0.293 N 
ATOM      7  C   UNL     1      -3.816  12.508  17.577  1.00  0.00     0.294 A 
ATOM      8  O   UNL     1      -2.923  12.327  16.763  1.00  0.00    -0.265 OA
ATOM      9  C   UNL     1      -2.786  14.441  18.758  1.00  0.00     0.180 C 
ATOM     10  C   UNL     1      -3.470  15.530  19.580  1.00  0.00     0.048 C 
ATOM     11  C   UNL     1      -4.678  14.855  20.290  1.00  0.00     0.011 C 
ATOM     12  C   UNL     1      -4.303  14.416  21.713  1.00  0.00     0.018 C 
ATOM     13  C   UNL     1      -5.825  15.875  20.358  1.00  0.00     0.018 C 
ENDROOT
BRANCH   1  14
ATOM     14  N   UNL     1      -5.107  10.638  16.551  1.00  0.00    -0.355 N 
ATOM     15  H   UNL     1      -4.370  10.788  15.858  1.00  0.00     0.162 HD
BRANCH  14  16
ATOM     16  C   UNL     1      -6.384  10.261  15.935  1.00  0.00     0.237 C 
BRANCH  16  17
ATOM     17  C   UNL     1      -6.902   8.893  16.386  1.00  0.00     0.325 C 
ATOM     18  O   UNL     1      -8.065   8.536  16.238  1.00  0.00    -0.250 OA
BRANCH  17  19
ATOM     19  O   UNL     1      -5.927   8.163  16.997  1.00  0.00    -0.459 OA
BRANCH  19  20
ATOM     20  C   UNL     1      -6.158   7.501  18.264  1.00  0.00     0.104 C 
ATOM     21  C   UNL     1      -4.750   7.277  18.839  1.00  0.00     0.056 C 
ATOM     22  C   UNL     1      -6.832   6.140  18.068  1.00  0.00     0.056 C 
ATOM     23  C   UNL     1      -6.944   8.400  19.224  1.00  0.00     0.056 C 
ENDBRANCH  19  20
ENDBRANCH  17  19
ENDBRANCH  16  17
ENDBRANCH  14  16
ENDBRANCH   1  14
BRANCH   9  24
ATOM     24  C   UNL     1      -1.516  13.916  19.455  1.00  0.00     0.243 C 
ATOM     25  O   UNL     1      -0.675  14.691  19.909  1.00  0.00    -0.273 OA
ATOM     26  N   UNL     1      -1.428  12.549  19.600  1.00  0.00    -0.350 N 
ATOM     27  H   UNL     1      -2.232  11.988  19.356  1.00  0.00     0.163 HD
BRANCH  26  28
ATOM     28  C   UNL     1      -0.370  11.925  20.359  1.00  0.00     0.151 C 
BRANCH  28  29
ATOM     29  C   UNL     1      -0.875  11.471  21.706  1.00  0.00    -0.029 A 
ATOM     30  C   UNL     1      -2.130  10.856  21.832  1.00  0.00     0.006 A 
ATOM     31  C   UNL     1      -0.116  11.712  22.863  1.00  0.00     0.006 A 
ATOM     32  C   UNL     1      -2.615  10.486  23.089  1.00  0.00     0.012 A 
ATOM     33  C   UNL     1      -0.599  11.345  24.120  1.00  0.00     0.012 A 
ATOM     34  C   UNL     1      -1.851  10.736  24.234  1.00  0.00     0.016 A 
BRANCH  34  35
ATOM     35  C   UNL     1      -2.360  10.357  25.578  1.00  0.00     0.122 C 
ATOM     36  N   UNL     1      -3.589  10.544  25.943  1.00  0.00    -0.284 NA
ATOM     37  N   UNL     1      -1.526   9.786  26.490  1.00  0.00    -0.384 N 
ATOM     38  H   UNL     1      -4.122  11.022  25.211  1.00  0.00     0.189 HD
ATOM     39  H   UNL     1      -0.835   9.145  26.121  1.00  0.00     0.158 HD
ATOM     40  H   UNL     1      -2.053   9.390  27.263  1.00  0.00     0.158 HD
ENDBRANCH  34  35
ENDBRANCH  28  29
ENDBRANCH  26  28
ENDBRANCH   9  24
TORSDOF 9
ENDMDL
