MODEL 7
REMARK VINA RESULT:    -7.807      1.798      2.483
REMARK INTER + INTRA:         -13.110
REMARK INTER:                 -11.620
REMARK INTRA:                  -1.489
REMARK UNBOUND:                -1.195
REMARK SMILES CC(C)(C)OC(=O)CNc1nc(Cl)c2n(c1=O)[C@H](C(=O)NCc1ccc(C(=N)N)cc1)CC2(C)C
REMARK SMILES IDX 10 1 11 2 12 3 13 4 14 5 15 6 16 7 17 8 18 9 32 10 33 11
REMARK SMILES IDX 34 12 35 13 9 14 8 16 6 17 7 18 5 19 2 20 1 21 3 22 4 23
REMARK SMILES IDX 19 24 20 25 21 26 22 28 23 29 24 30 31 31 25 32 30 33 26 34
REMARK SMILES IDX 27 35 28 36 29 37
REMARK H PARENT 9 15 21 27 28 38 29 39 29 40
ROOT
ATOM      1  C   UNL     1      -6.983  11.664  20.681  1.00  0.00     0.194 A 
ATOM      2  N   UNL     1      -7.504  12.049  21.813  1.00  0.00    -0.212 NA
ATOM      3  C   UNL     1      -6.878  13.049  22.520  1.00  0.00     0.151 A 
ATOM      4  Cl  UNL     1      -7.683  13.463  23.994  1.00  0.00    -0.060 Cl
ATOM      5  C   UNL     1      -5.738  13.653  22.130  1.00  0.00     0.065 A 
ATOM      6  N   UNL     1      -5.129  13.240  20.960  1.00  0.00    -0.293 N 
ATOM      7  C   UNL     1      -5.681  12.295  20.131  1.00  0.00     0.294 A 
ATOM      8  O   UNL     1      -5.250  11.937  19.046  1.00  0.00    -0.265 OA
ATOM      9  C   UNL     1      -3.946  14.012  20.613  1.00  0.00     0.180 C 
ATOM     10  C   UNL     1      -4.034  15.223  21.539  1.00  0.00     0.048 C 
ATOM     11  C   UNL     1      -4.933  14.800  22.736  1.00  0.00     0.011 C 
ATOM     12  C   UNL     1      -4.081  14.317  23.918  1.00  0.00     0.018 C 
ATOM     13  C   UNL     1      -5.760  16.020  23.169  1.00  0.00     0.018 C 
ENDROOT
BRANCH   1  14
ATOM     14  N   UNL     1      -7.574  10.691  19.890  1.00  0.00    -0.355 N 
ATOM     15  H   UNL     1      -8.412  11.051  19.426  1.00  0.00     0.162 HD
BRANCH  14  16
ATOM     16  C   UNL     1      -7.771   9.341  20.430  1.00  0.00     0.237 C 
BRANCH  16  17
ATOM     17  C   UNL     1      -6.537   8.443  20.300  1.00  0.00     0.325 C 
ATOM     18  O   UNL     1      -5.426   8.772  20.695  1.00  0.00    -0.250 OA
BRANCH  17  19
ATOM     19  O   UNL     1      -6.831   7.275  19.661  1.00  0.00    -0.459 OA
BRANCH  19  20
ATOM     20  C   UNL     1      -6.269   6.958  18.365  1.00  0.00     0.104 C 
ATOM     21  C   UNL     1      -7.008   5.683  17.930  1.00  0.00     0.056 C 
ATOM     22  C   UNL     1      -4.773   6.650  18.465  1.00  0.00     0.056 C 
ATOM     23  C   UNL     1      -6.562   8.066  17.348  1.00  0.00     0.056 C 
ENDBRANCH  19  20
ENDBRANCH  17  19
ENDBRANCH  16  17
ENDBRANCH  14  16
ENDBRANCH   1  14
BRANCH   9  24
ATOM     24  C   UNL     1      -2.609  13.264  20.781  1.00  0.00     0.243 C 
ATOM     25  O   UNL     1      -1.534  13.846  20.636  1.00  0.00    -0.273 OA
ATOM     26  N   UNL     1      -2.698  11.948  21.174  1.00  0.00    -0.350 N 
ATOM     27  H   UNL     1      -3.605  11.586  21.438  1.00  0.00     0.163 HD
BRANCH  26  28
ATOM     28  C   UNL     1      -1.532  11.166  21.510  1.00  0.00     0.151 C 
BRANCH  28  29
ATOM     29  C   UNL     1      -1.565  10.756  22.962  1.00  0.00    -0.029 A 
ATOM     30  C   UNL     1      -0.437  10.184  23.571  1.00  0.00     0.006 A 
ATOM     31  C   UNL     1      -2.748  10.888  23.706  1.00  0.00     0.006 A 
ATOM     32  C   UNL     1      -0.490   9.757  24.901  1.00  0.00     0.012 A 
ATOM     33  C   UNL     1      -2.804  10.461  25.034  1.00  0.00     0.012 A 
ATOM     34  C   UNL     1      -1.676   9.891  25.630  1.00  0.00     0.016 A 
BRANCH  34  35
ATOM     35  C   UNL     1      -1.750   9.431  27.042  1.00  0.00     0.122 C 
ATOM     36  N   UNL     1      -0.783   8.795  27.625  1.00  0.00    -0.284 NA
ATOM     37  N   UNL     1      -2.865   9.672  27.784  1.00  0.00    -0.384 N 
ATOM     38  H   UNL     1      -0.012   8.619  26.975  1.00  0.00     0.189 HD
ATOM     39  H   UNL     1      -3.325  10.559  27.620  1.00  0.00     0.158 HD
ATOM     40  H   UNL     1      -2.687   9.500  28.769  1.00  0.00     0.158 HD
ENDBRANCH  34  35
ENDBRANCH  28  29
ENDBRANCH  26  28
ENDBRANCH   9  24
TORSDOF 9
ENDMDL
