MODEL 8
REMARK VINA RESULT:    -7.407      3.443      7.190
REMARK INTER + INTRA:          -8.897
REMARK INTER:                  -8.726
REMARK INTRA:                  -0.171
REMARK UNBOUND:                 0.026
REMARK SMILES Cc1nc2c(-c3cnc(N)nc3)nc(N3CCOCC3)nc2n1C(C)C
REMARK SMILES IDX 1 1 2 2 3 3 4 4 5 5 13 6 14 7 21 8 22 9 23 10 24 11 25 12
REMARK SMILES IDX 26 13 6 14 7 15 12 16 8 17 11 18 9 19 10 20 15 23 16 24
REMARK SMILES IDX 20 25 17 26 19 27 18 28
REMARK H PARENT 10 21 10 22
ROOT
ATOM      1  C   UNL     1      -2.289 -12.538  16.602  1.00  0.00     0.088 C 
ATOM      2  C   UNL     1      -1.920 -11.100  16.592  1.00  0.00     0.108 A 
ATOM      3  N   UNL     1      -1.242 -10.522  15.616  1.00  0.00    -0.229 NA
ATOM      4  C   UNL     1      -1.106  -9.202  15.970  1.00  0.00     0.135 A 
ATOM      5  C   UNL     1      -0.503  -8.095  15.368  1.00  0.00     0.107 A 
ATOM      6  N   UNL     1      -0.557  -6.899  16.029  1.00  0.00    -0.210 NA
ATOM      7  C   UNL     1      -1.172  -6.789  17.227  1.00  0.00     0.228 A 
ATOM      8  N   UNL     1      -1.775  -7.811  17.855  1.00  0.00    -0.193 NA
ATOM      9  C   UNL     1      -1.713  -8.972  17.188  1.00  0.00     0.166 A 
ATOM     10  N   UNL     1      -2.239 -10.183  17.577  1.00  0.00    -0.310 N 
ENDROOT
BRANCH  10  11
ATOM     11  C   UNL     1      -2.967 -10.378  18.826  1.00  0.00     0.084 C 
ATOM     12  C   UNL     1      -2.038 -10.789  19.968  1.00  0.00     0.031 C 
ATOM     13  C   UNL     1      -4.171 -11.312  18.705  1.00  0.00     0.031 C 
ENDBRANCH  10  11
BRANCH   5  14
ATOM     14  C   UNL     1       0.184  -8.129  14.079  1.00  0.00     0.040 A 
ATOM     15  C   UNL     1       1.167  -7.214  13.740  1.00  0.00     0.127 A 
ATOM     16  C   UNL     1      -0.045  -9.047  13.070  1.00  0.00     0.127 A 
ATOM     17  N   UNL     1       1.846  -7.189  12.568  1.00  0.00    -0.221 NA
ATOM     18  N   UNL     1       0.602  -9.070  11.878  1.00  0.00    -0.221 NA
ATOM     19  C   UNL     1       1.513  -8.120  11.675  1.00  0.00     0.219 A 
BRANCH  19  20
ATOM     20  N   UNL     1       2.197  -8.134  10.479  1.00  0.00    -0.368 N 
ATOM     21  H   UNL     1       2.411  -7.185  10.203  1.00  0.00     0.159 HD
ATOM     22  H   UNL     1       1.704  -8.714   9.816  1.00  0.00     0.159 HD
ENDBRANCH  19  20
ENDBRANCH   5  14
BRANCH   7  23
ATOM     23  N   UNL     1      -1.212  -5.527  17.828  1.00  0.00    -0.336 N 
ATOM     24  C   UNL     1      -0.830  -4.422  16.935  1.00  0.00     0.148 C 
ATOM     25  C   UNL     1      -2.435  -5.268  18.607  1.00  0.00     0.148 C 
ATOM     26  C   UNL     1      -0.812  -3.096  17.710  1.00  0.00     0.181 C 
ATOM     27  C   UNL     1      -2.343  -3.901  19.301  1.00  0.00     0.181 C 
ATOM     28  O   UNL     1      -2.066  -2.849  18.362  1.00  0.00    -0.378 OA
ENDBRANCH   7  23
TORSDOF 4
ENDMDL
