MODEL 2
REMARK VINA RESULT:    -7.707      2.765      3.626
REMARK INTER + INTRA:         -10.776
REMARK INTER:                  -9.901
REMARK INTRA:                  -0.875
REMARK UNBOUND:                -1.042
REMARK SMILES Nc1cc(C(F)(F)F)c(-c2nc(N3CCOCC3)nc(N3CCOCC3)n2)cn1
REMARK SMILES IDX 2 1 3 2 4 3 9 4 28 5 29 6 1 7 5 10 6 11 7 12 8 13 10 14
REMARK SMILES IDX 11 15 27 16 12 17 20 18 19 19 13 20 14 21 18 22 15 23 17 24
REMARK SMILES IDX 16 25 21 26 22 27 26 28 23 29 25 30 24 31
REMARK H PARENT 1 8 1 9
ROOT
ATOM      1  C   UNL     1      -5.132 -12.025  22.266  1.00  0.00     0.123 A 
ATOM      2  C   UNL     1      -3.830 -11.803  22.677  1.00  0.00     0.060 A 
ATOM      3  C   UNL     1      -3.007 -10.912  21.959  1.00  0.00     0.072 A 
ATOM      4  C   UNL     1      -3.523 -10.275  20.814  1.00  0.00     0.050 A 
ATOM      5  C   UNL     1      -4.856 -10.566  20.511  1.00  0.00     0.126 A 
ATOM      6  N   UNL     1      -5.659 -11.414  21.203  1.00  0.00    -0.239 NA
ENDROOT
BRANCH   1   7
ATOM      7  N   UNL     1      -5.967 -12.875  22.980  1.00  0.00    -0.384 N 
ATOM      8  H   UNL     1      -5.465 -13.653  23.388  1.00  0.00     0.158 HD
ATOM      9  H   UNL     1      -6.693 -13.188  22.340  1.00  0.00     0.158 HD
ENDBRANCH   1   7
BRANCH   3  10
ATOM     10  C   UNL     1      -1.605 -10.676  22.462  1.00  0.00     0.417 C 
ATOM     11  F   UNL     1      -1.436  -9.487  23.101  1.00  0.00    -0.166 F 
ATOM     12  F   UNL     1      -1.214 -11.617  23.373  1.00  0.00    -0.166 F 
ATOM     13  F   UNL     1      -0.668 -10.736  21.475  1.00  0.00    -0.166 F 
ENDBRANCH   3  10
BRANCH   4  14
ATOM     14  C   UNL     1      -2.772  -9.357  19.947  1.00  0.00     0.169 A 
ATOM     15  N   UNL     1      -2.539  -9.735  18.697  1.00  0.00    -0.193 NA
ATOM     16  N   UNL     1      -2.426  -8.184  20.467  1.00  0.00    -0.193 NA
ATOM     17  C   UNL     1      -1.895  -8.853  17.941  1.00  0.00     0.230 A 
ATOM     18  C   UNL     1      -1.788  -7.355  19.656  1.00  0.00     0.230 A 
ATOM     19  N   UNL     1      -1.516  -7.661  18.392  1.00  0.00    -0.177 NA
BRANCH  17  20
ATOM     20  N   UNL     1      -1.643  -9.167  16.622  1.00  0.00    -0.336 N 
ATOM     21  C   UNL     1      -2.157 -10.424  16.070  1.00  0.00     0.148 C 
ATOM     22  C   UNL     1      -0.435  -8.625  15.997  1.00  0.00     0.148 C 
ATOM     23  C   UNL     1      -1.049 -11.161  15.298  1.00  0.00     0.181 C 
ATOM     24  C   UNL     1      -0.433  -8.981  14.503  1.00  0.00     0.181 C 
ATOM     25  O   UNL     1      -0.460 -10.392  14.240  1.00  0.00    -0.378 OA
ENDBRANCH  17  20
BRANCH  18  26
ATOM     26  N   UNL     1      -1.371  -6.135  20.146  1.00  0.00    -0.336 N 
ATOM     27  C   UNL     1      -0.190  -5.481  19.578  1.00  0.00     0.148 C 
ATOM     28  C   UNL     1      -1.706  -5.796  21.531  1.00  0.00     0.148 C 
ATOM     29  C   UNL     1       0.772  -5.065  20.704  1.00  0.00     0.181 C 
ATOM     30  C   UNL     1      -1.227  -4.370  21.841  1.00  0.00     0.181 C 
ATOM     31  O   UNL     1       0.188  -4.189  21.680  1.00  0.00    -0.378 OA
ENDBRANCH  18  26
ENDBRANCH   4  14
TORSDOF 5
ENDMDL
