MODEL 9
REMARK minimizedAffinity -9.73761177
REMARK CNNscore 0.162663251
REMARK CNNaffinity 6.71979666
REMARK SMILES C=CC(=O)N1CCC(Oc2cc3c(Nc4ccc(Cl)c(Cl)c4F)ncnc3cc2O[C@H]2CCOC2)CC1
REMARK SMILES IDX 10 1 11 2 12 3 13 4 24 5 25 6 26 7 27 8 28 9 29 10 9 11 8 12
REMARK SMILES IDX 3 13 4 14 5 15 6 16 37 17 7 18 36 19 2 20 1 21 30 22 31 23
REMARK SMILES IDX 32 24 35 25 33 26 34 27 14 28 15 30 16 31 22 32 17 33 20 34
REMARK SMILES IDX 18 35 23 36 21 37 19 38
REMARK H PARENT 14 29
ROOT
ATOM      1  C   UNL     1      19.152  37.409   6.440  1.00  0.00     0.162 A 
ATOM      2  C   UNL     1      18.033  38.095   6.916  1.00  0.00     0.064 A 
ATOM      3  C   UNL     1      17.911  39.495   6.758  1.00  0.00     0.047 A 
ATOM      4  C   UNL     1      16.831  40.277   7.213  1.00  0.00     0.141 A 
ATOM      5  N   UNL     1      16.780  41.606   7.019  1.00  0.00    -0.219 NA
ATOM      6  C   UNL     1      17.797  42.154   6.348  1.00  0.00     0.224 A 
ATOM      7  N   UNL     1      18.877  41.512   5.886  1.00  0.00    -0.236 NA
ATOM      8  C   UNL     1      18.927  40.195   6.098  1.00  0.00     0.080 A 
ATOM      9  C   UNL     1      20.047  39.500   5.654  1.00  0.00     0.079 A 
ATOM     10  C   UNL     1      20.196  38.118   5.833  1.00  0.00     0.163 A 
ENDROOT
BRANCH   1  11
ATOM     11  O   UNL     1      19.137  36.065   6.702  1.00  0.00    -0.486 OA
BRANCH  11  12
ATOM     12  C   UNL     1      19.166  35.675   8.084  1.00  0.00     0.177 C 
ATOM     13  C   UNL     1      16.766  32.105   7.819  1.00  0.00     0.245 C 
ATOM     14  O   UNL     1      15.560  32.182   7.603  1.00  0.00    -0.270 OA
ATOM     15  N   UNL     1      17.593  33.217   7.975  1.00  0.00    -0.339 N 
ATOM     16  C   UNL     1      18.985  33.208   7.514  1.00  0.00     0.123 C 
ATOM     17  C   UNL     1      16.929  34.517   7.896  1.00  0.00     0.123 C 
ATOM     18  C   UNL     1      19.820  34.293   8.186  1.00  0.00     0.067 C 
ATOM     19  C   UNL     1      17.730  35.605   8.604  1.00  0.00     0.067 C 
BRANCH  13  20
ATOM     20  C   UNL     1      17.412  30.775   7.984  1.00  0.00     0.063 C 
ATOM     21  C   UNL     1      17.345  29.860   7.008  1.00  0.00     0.014 C 
ENDBRANCH  13  20
ENDBRANCH  11  12
ENDBRANCH   1  11
BRANCH  10  22
ATOM     22  O   UNL     1      21.318  37.412   5.488  1.00  0.00    -0.484 OA
BRANCH  22  23
ATOM     23  C   UNL     1      21.184  36.111   4.900  1.00  0.00     0.201 C 
ATOM     24  C   UNL     1      21.052  36.296   3.402  1.00  0.00     0.076 C 
ATOM     25  C   UNL     1      22.487  35.319   4.993  1.00  0.00     0.205 C 
ATOM     26  C   UNL     1      22.492  36.473   2.972  1.00  0.00     0.164 C 
ATOM     27  O   UNL     1      23.282  35.653   3.841  1.00  0.00    -0.377 OA
ENDBRANCH  22  23
ENDBRANCH  10  22
BRANCH   4  28
ATOM     28  N   UNL     1      15.777  39.649   7.937  1.00  0.00    -0.337 N 
ATOM     29  H   UNL     1      16.154  39.336   8.826  1.00  0.00     0.168 HD
BRANCH  28  30
ATOM     30  C   UNL     1      14.462  40.162   8.063  1.00  0.00     0.078 A 
ATOM     31  C   UNL     1      14.230  41.522   7.807  1.00  0.00     0.031 A 
ATOM     32  C   UNL     1      13.376  39.373   8.488  1.00  0.00     0.166 A 
ATOM     33  C   UNL     1      12.943  42.056   7.907  1.00  0.00     0.024 A 
ATOM     34  C   UNL     1      12.084  39.902   8.594  1.00  0.00     0.097 A 
ATOM     35  C   UNL     1      11.869  41.247   8.288  1.00  0.00     0.062 A 
ATOM     36  F   UNL     1      13.587  38.093   8.840  1.00  0.00    -0.203 F 
ATOM     37  Cl  UNL     1      10.800  38.866   9.114  1.00  0.00    -0.079 Cl
ATOM     38  Cl  UNL     1      10.310  41.982   8.365  1.00  0.00    -0.083 Cl
ENDBRANCH  28  30
ENDBRANCH   4  28
TORSDOF 7
ENDMDL
