MODEL 1
REMARK VINA RESULT:    -8.035      0.000      0.000
REMARK INTER + INTRA:         -14.014
REMARK INTER:                 -13.437
REMARK INTRA:                  -0.577
REMARK UNBOUND:                -0.577
REMARK SMILES N=C(N)c1cccc(N2CCCCN(C3CCN(S(=O)(=O)c4ccc(N)cc4)CC3)C2=O)c1
REMARK SMILES IDX 14 1 31 2 32 3 9 4 8 5 4 6 5 7 33 8 6 9 7 10 2 11 1 12 3 13
REMARK SMILES IDX 10 17 13 19 12 20 11 21 15 23 16 24 30 25 17 26 29 27 18 28
REMARK SMILES IDX 19 29 20 30 21 31 22 32 23 33 28 34 24 35 27 36 25 37 26 38
REMARK H PARENT 1 14 3 15 3 16 26 39 26 40
REMARK Flexibility Score:   77.900
ROOT
ATOM      1  N   UNL     1     131.073 -18.612 165.155  1.00  0.00    -0.321 N 
ENDROOT
BRANCH   1   2
ATOM      2  C   UNL     1     131.239 -18.726 166.540  1.00  0.00     0.324 C 
ATOM      3  O   UNL     1     130.280 -18.777 167.308  1.00  0.00    -0.248 OA
BRANCH   2   4
ATOM      4  N   UNL     1     132.574 -18.754 166.964  1.00  0.00    -0.294 N 
BRANCH   4   5
ATOM      5  C   UNL     1     133.369 -17.558 167.071  1.00  0.00     0.046 A 
ATOM      6  C   UNL     1     135.449 -16.343 166.647  1.00  0.00     0.018 A 
ATOM      7  C   UNL     1     134.928 -15.189 167.229  1.00  0.00     0.012 A 
ATOM      8  C   UNL     1     134.679 -17.513 166.566  1.00  0.00     0.038 A 
ATOM      9  C   UNL     1     133.624 -15.203 167.708  1.00  0.00     0.003 A 
ATOM     10  C   UNL     1     132.855 -16.371 167.626  1.00  0.00     0.026 A 
BRANCH   6  11
ATOM     11  C   UNL     1     136.825 -16.320 166.089  1.00  0.00     0.122 C 
ATOM     12  N   UNL     1     137.519 -15.228 166.022  1.00  0.00    -0.284 NA
ATOM     13  N   UNL     1     137.393 -17.464 165.638  1.00  0.00    -0.384 N 
ATOM     14  H   UNL     1     136.995 -14.439 166.412  1.00  0.00     0.189 HD
ATOM     15  H   UNL     1     138.313 -17.387 165.224  1.00  0.00     0.158 HD
ATOM     16  H   UNL     1     136.878 -18.325 165.522  1.00  0.00     0.158 HD
ENDBRANCH   6  11
ENDBRANCH   4   5
BRANCH   4  17
ATOM     17  C   UNL     1     133.170 -20.079 167.129  1.00  0.00     0.127 CG0
ATOM     18  G   UNL     1     133.140 -20.904 165.850  1.00  0.00     0.000 G0
ENDBRANCH   4  17
ENDBRANCH   2   4
ENDBRANCH   1   2
BRANCH   1  19
ATOM     19  C   UNL     1     131.602 -19.652 164.266  1.00  0.00     0.122 C 
BRANCH  19  20
ATOM     20  C   UNL     1     133.040 -20.033 164.592  1.00  0.00     0.023 C 
BRANCH  20  21
ATOM     21  C   UNL     1     133.145 -20.906 165.842  1.00  0.00     0.024 CG0
ATOM     22  G   UNL     1     133.181 -20.073 167.117  1.00  0.00     0.000 G0
ENDBRANCH  20  21
ENDBRANCH  19  20
ENDBRANCH   1  19
BRANCH   1  23
ATOM     23  C   UNL     1     130.043 -17.710 164.608  1.00  0.00     0.089 C 
ATOM     24  C   UNL     1     129.660 -18.053 163.161  1.00  0.00     0.042 C 
ATOM     25  C   UNL     1     130.417 -16.227 164.786  1.00  0.00     0.042 C 
ATOM     26  C   UNL     1     128.554 -17.134 162.646  1.00  0.00     0.104 C 
ATOM     27  C   UNL     1     130.103 -15.402 163.544  1.00  0.00     0.104 C 
ATOM     28  N   UNL     1     128.736 -15.736 163.099  1.00  0.00    -0.198 NA
BRANCH  28  29
ATOM     29  S   UNL     1     127.854 -14.537 162.281  1.00  0.00     0.243 S 
ATOM     30  O   UNL     1     127.077 -15.176 161.240  1.00  0.00    -0.207 OA
ATOM     31  O   UNL     1     128.763 -13.453 161.971  1.00  0.00    -0.207 OA
BRANCH  29  32
ATOM     32  C   UNL     1     126.711 -13.946 163.511  1.00  0.00     0.082 A 
ATOM     33  C   UNL     1     125.783 -14.826 164.074  1.00  0.00     0.024 A 
ATOM     34  C   UNL     1     126.695 -12.593 163.854  1.00  0.00     0.024 A 
ATOM     35  C   UNL     1     124.862 -14.351 165.011  1.00  0.00     0.027 A 
ATOM     36  C   UNL     1     125.765 -12.130 164.789  1.00  0.00     0.027 A 
ATOM     37  C   UNL     1     124.837 -13.000 165.368  1.00  0.00     0.031 A 
BRANCH  37  38
ATOM     38  N   UNL     1     123.938 -12.538 166.311  1.00  0.00    -0.399 N 
ATOM     39  H   UNL     1     123.073 -13.033 166.482  1.00  0.00     0.156 HD
ATOM     40  H   UNL     1     124.054 -11.621 166.721  1.00  0.00     0.156 HD
ENDBRANCH  37  38
ENDBRANCH  29  32
ENDBRANCH  28  29
ENDBRANCH   1  23
TORSDOF 6
ENDMDL
MODEL 2
REMARK VINA RESULT:    -7.344      1.261      1.962
REMARK INTER + INTRA:         -12.859
REMARK INTER:                 -12.413
REMARK INTRA:                  -0.446
REMARK UNBOUND:                -0.577
REMARK SMILES N=C(N)c1cccc(N2CCCCN(C3CCN(S(=O)(=O)c4ccc(N)cc4)CC3)C2=O)c1
REMARK SMILES IDX 14 1 31 2 32 3 9 4 8 5 4 6 5 7 33 8 6 9 7 10 2 11 1 12 3 13
REMARK SMILES IDX 10 17 13 19 12 20 11 21 15 23 16 24 30 25 17 26 29 27 18 28
REMARK SMILES IDX 19 29 20 30 21 31 22 32 23 33 28 34 24 35 27 36 25 37 26 38
REMARK H PARENT 1 14 3 15 3 16 26 39 26 40
REMARK Flexibility Score:   77.900
ROOT
ATOM      1  N   UNL     1     130.472 -19.135 164.586  1.00  0.00    -0.321 N 
ENDROOT
BRANCH   1   2
ATOM      2  C   UNL     1     131.802 -19.568 164.635  1.00  0.00     0.324 C 
ATOM      3  O   UNL     1     132.365 -20.054 163.655  1.00  0.00    -0.248 OA
BRANCH   2   4
ATOM      4  N   UNL     1     132.415 -19.418 165.886  1.00  0.00    -0.294 N 
BRANCH   4   5
ATOM      5  C   UNL     1     133.220 -18.269 166.212  1.00  0.00     0.046 A 
ATOM      6  C   UNL     1     135.405 -17.187 166.398  1.00  0.00     0.018 A 
ATOM      7  C   UNL     1     134.812 -15.993 166.802  1.00  0.00     0.012 A 
ATOM      8  C   UNL     1     134.620 -18.312 166.104  1.00  0.00     0.038 A 
ATOM      9  C   UNL     1     133.428 -15.920 166.887  1.00  0.00     0.003 A 
ATOM     10  C   UNL     1     132.643 -17.042 166.591  1.00  0.00     0.026 A 
BRANCH   6  11
ATOM     11  C   UNL     1     136.882 -17.258 166.259  1.00  0.00     0.122 C 
ATOM     12  N   UNL     1     137.555 -18.302 166.626  1.00  0.00    -0.284 NA
ATOM     13  N   UNL     1     137.564 -16.214 165.731  1.00  0.00    -0.384 N 
ATOM     14  H   UNL     1     136.931 -19.030 166.987  1.00  0.00     0.189 HD
ATOM     15  H   UNL     1     138.573 -16.293 165.701  1.00  0.00     0.158 HD
ATOM     16  H   UNL     1     137.141 -15.315 165.552  1.00  0.00     0.158 HD
ENDBRANCH   6  11
ENDBRANCH   4   5
BRANCH   4  17
ATOM     17  C   UNL     1     132.337 -20.570 166.784  1.00  0.00     0.127 CG0
ATOM     18  G   UNL     1     130.926 -20.825 167.297  1.00  0.00     0.000 G0
ENDBRANCH   4  17
ENDBRANCH   2   4
ENDBRANCH   1   2
BRANCH   1  19
ATOM     19  C   UNL     1     129.494 -19.663 165.543  1.00  0.00     0.122 C 
BRANCH  19  20
ATOM     20  C   UNL     1     130.000 -19.639 166.980  1.00  0.00     0.023 C 
BRANCH  20  21
ATOM     21  C   UNL     1     130.915 -20.821 167.297  1.00  0.00     0.024 CG0
ATOM     22  G   UNL     1     132.332 -20.597 166.786  1.00  0.00     0.000 G0
ENDBRANCH  20  21
ENDBRANCH  19  20
ENDBRANCH   1  19
BRANCH   1  23
ATOM     23  C   UNL     1     130.129 -17.884 163.885  1.00  0.00     0.089 C 
ATOM     24  C   UNL     1     129.653 -16.779 164.839  1.00  0.00     0.042 C 
ATOM     25  C   UNL     1     129.154 -18.121 162.717  1.00  0.00     0.042 C 
ATOM     26  C   UNL     1     129.359 -15.483 164.086  1.00  0.00     0.104 C 
ATOM     27  C   UNL     1     128.064 -17.058 162.654  1.00  0.00     0.104 C 
ATOM     28  N   UNL     1     128.701 -15.734 162.783  1.00  0.00    -0.198 NA
BRANCH  28  29
ATOM     29  S   UNL     1     127.940 -14.412 162.035  1.00  0.00     0.243 S 
ATOM     30  O   UNL     1     127.240 -14.894 160.863  1.00  0.00    -0.207 OA
ATOM     31  O   UNL     1     128.911 -13.342 161.934  1.00  0.00    -0.207 OA
BRANCH  29  32
ATOM     32  C   UNL     1     126.711 -13.912 163.221  1.00  0.00     0.082 A 
ATOM     33  C   UNL     1     126.736 -12.614 163.739  1.00  0.00     0.024 A 
ATOM     34  C   UNL     1     125.775 -14.837 163.687  1.00  0.00     0.024 A 
ATOM     35  C   UNL     1     125.793 -12.236 164.698  1.00  0.00     0.027 A 
ATOM     36  C   UNL     1     124.841 -14.447 164.651  1.00  0.00     0.027 A 
ATOM     37  C   UNL     1     124.846 -13.149 165.170  1.00  0.00     0.031 A 
BRANCH  37  38
ATOM     38  N   UNL     1     123.903 -12.765 166.104  1.00  0.00    -0.399 N 
ATOM     39  H   UNL     1     124.019 -11.909 166.629  1.00  0.00     0.156 HD
ATOM     40  H   UNL     1     123.176 -13.407 166.391  1.00  0.00     0.156 HD
ENDBRANCH  37  38
ENDBRANCH  29  32
ENDBRANCH  28  29
ENDBRANCH   1  23
TORSDOF 6
ENDMDL
MODEL 3
REMARK VINA RESULT:    -7.091      3.075      8.747
REMARK INTER + INTRA:         -12.436
REMARK INTER:                 -12.374
REMARK INTRA:                  -0.062
REMARK UNBOUND:                -0.577
REMARK SMILES N=C(N)c1cccc(N2CCCCN(C3CCN(S(=O)(=O)c4ccc(N)cc4)CC3)C2=O)c1
REMARK SMILES IDX 14 1 31 2 32 3 9 4 8 5 4 6 5 7 33 8 6 9 7 10 2 11 1 12 3 13
REMARK SMILES IDX 10 17 13 19 12 20 11 21 15 23 16 24 30 25 17 26 29 27 18 28
REMARK SMILES IDX 19 29 20 30 21 31 22 32 23 33 28 34 24 35 27 36 25 37 26 38
REMARK H PARENT 1 14 3 15 3 16 26 39 26 40
REMARK Flexibility Score:   77.900
ROOT
ATOM      1  N   UNL     1     128.522 -17.654 162.681  1.00  0.00    -0.321 N 
ENDROOT
BRANCH   1   2
ATOM      2  C   UNL     1     127.681 -16.778 161.983  1.00  0.00     0.324 C 
ATOM      3  O   UNL     1     127.996 -16.304 160.893  1.00  0.00    -0.248 OA
BRANCH   2   4
ATOM      4  N   UNL     1     126.480 -16.482 162.639  1.00  0.00    -0.294 N 
BRANCH   4   5
ATOM      5  C   UNL     1     126.131 -15.140 163.029  1.00  0.00     0.046 A 
ATOM      6  C   UNL     1     125.065 -13.589 164.592  1.00  0.00     0.018 A 
ATOM      7  C   UNL     1     125.483 -12.496 163.837  1.00  0.00     0.012 A 
ATOM      8  C   UNL     1     125.386 -14.896 164.195  1.00  0.00     0.038 A 
ATOM      9  C   UNL     1     126.246 -12.712 162.696  1.00  0.00     0.003 A 
ATOM     10  C   UNL     1     126.568 -14.017 162.301  1.00  0.00     0.026 A 
BRANCH   6  11
ATOM     11  C   UNL     1     124.291 -13.362 165.838  1.00  0.00     0.122 C 
ATOM     12  N   UNL     1     124.291 -12.217 166.445  1.00  0.00    -0.284 NA
ATOM     13  N   UNL     1     123.552 -14.364 166.370  1.00  0.00    -0.384 N 
ATOM     14  H   UNL     1     124.864 -11.536 165.938  1.00  0.00     0.189 HD
ATOM     15  H   UNL     1     123.081 -14.172 167.246  1.00  0.00     0.158 HD
ATOM     16  H   UNL     1     123.606 -15.318 166.046  1.00  0.00     0.158 HD
ENDBRANCH   6  11
ENDBRANCH   4   5
BRANCH   4  17
ATOM     17  C   UNL     1     125.675 -17.628 163.061  1.00  0.00     0.127 CG0
ATOM     18  G   UNL     1     126.393 -18.518 164.066  1.00  0.00     0.000 G0
ENDBRANCH   4  17
ENDBRANCH   2   4
ENDBRANCH   1   2
BRANCH   1  19
ATOM     19  C   UNL     1     128.346 -19.103 162.544  1.00  0.00     0.122 C 
BRANCH  19  20
ATOM     20  C   UNL     1     127.197 -19.642 163.386  1.00  0.00     0.023 C 
BRANCH  20  21
ATOM     21  C   UNL     1     126.405 -18.530 164.075  1.00  0.00     0.024 CG0
ATOM     22  G   UNL     1     125.685 -17.639 163.072  1.00  0.00     0.000 G0
ENDBRANCH  20  21
ENDBRANCH  19  20
ENDBRANCH   1  19
BRANCH   1  23
ATOM     23  C   UNL     1     129.812 -17.173 163.209  1.00  0.00     0.089 C 
ATOM     24  C   UNL     1     130.823 -18.308 163.433  1.00  0.00     0.042 C 
ATOM     25  C   UNL     1     129.635 -16.282 164.452  1.00  0.00     0.042 C 
ATOM     26  C   UNL     1     132.163 -17.768 163.927  1.00  0.00     0.104 C 
ATOM     27  C   UNL     1     130.663 -16.593 165.533  1.00  0.00     0.104 C 
ATOM     28  N   UNL     1     131.994 -16.663 164.900  1.00  0.00    -0.198 NA
BRANCH  28  29
ATOM     29  S   UNL     1     133.344 -16.253 165.844  1.00  0.00     0.243 S 
ATOM     30  O   UNL     1     132.894 -15.425 166.944  1.00  0.00    -0.207 OA
ATOM     31  O   UNL     1     134.388 -15.797 164.949  1.00  0.00    -0.207 OA
BRANCH  29  32
ATOM     32  C   UNL     1     133.865 -17.810 166.529  1.00  0.00     0.082 A 
ATOM     33  C   UNL     1     132.949 -18.601 167.228  1.00  0.00     0.024 A 
ATOM     34  C   UNL     1     135.202 -18.201 166.433  1.00  0.00     0.024 A 
ATOM     35  C   UNL     1     133.370 -19.805 167.797  1.00  0.00     0.027 A 
ATOM     36  C   UNL     1     135.611 -19.405 167.012  1.00  0.00     0.027 A 
ATOM     37  C   UNL     1     134.704 -20.213 167.705  1.00  0.00     0.031 A 
BRANCH  37  38
ATOM     38  N   UNL     1     135.111 -21.414 168.252  1.00  0.00    -0.399 N 
ATOM     39  H   UNL     1     134.466 -22.188 168.331  1.00  0.00     0.156 HD
ATOM     40  H   UNL     1     136.002 -21.484 168.726  1.00  0.00     0.156 HD
ENDBRANCH  37  38
ENDBRANCH  29  32
ENDBRANCH  28  29
ENDBRANCH   1  23
TORSDOF 6
ENDMDL
MODEL 4
REMARK VINA RESULT:    -7.062      1.931      2.621
REMARK INTER + INTRA:         -12.387
REMARK INTER:                 -11.780
REMARK INTRA:                  -0.607
REMARK UNBOUND:                -0.577
REMARK SMILES N=C(N)c1cccc(N2CCCCN(C3CCN(S(=O)(=O)c4ccc(N)cc4)CC3)C2=O)c1
REMARK SMILES IDX 14 1 31 2 32 3 9 4 8 5 4 6 5 7 33 8 6 9 7 10 2 11 1 12 3 13
REMARK SMILES IDX 10 17 13 19 12 20 11 21 15 23 16 24 30 25 17 26 29 27 18 28
REMARK SMILES IDX 19 29 20 30 21 31 22 32 23 33 28 34 24 35 27 36 25 37 26 38
REMARK H PARENT 1 14 3 15 3 16 26 39 26 40
REMARK Flexibility Score:   77.900
ROOT
ATOM      1  N   UNL     1     129.185 -19.712 163.614  1.00  0.00    -0.321 N 
ENDROOT
BRANCH   1   2
ATOM      2  C   UNL     1     130.562 -19.775 163.861  1.00  0.00     0.324 C 
ATOM      3  O   UNL     1     131.389 -19.732 162.951  1.00  0.00    -0.248 OA
BRANCH   2   4
ATOM      4  N   UNL     1     130.903 -19.911 165.212  1.00  0.00    -0.294 N 
BRANCH   4   5
ATOM      5  C   UNL     1     131.295 -18.784 166.020  1.00  0.00     0.046 A 
ATOM      6  C   UNL     1     132.878 -16.996 166.550  1.00  0.00     0.018 A 
ATOM      7  C   UNL     1     132.054 -16.530 167.571  1.00  0.00     0.012 A 
ATOM      8  C   UNL     1     132.503 -18.108 165.781  1.00  0.00     0.038 A 
ATOM      9  C   UNL     1     130.841 -17.165 167.806  1.00  0.00     0.003 A 
ATOM     10  C   UNL     1     130.466 -18.275 167.037  1.00  0.00     0.026 A 
BRANCH   6  11
ATOM     11  C   UNL     1     134.153 -16.292 166.263  1.00  0.00     0.122 C 
ATOM     12  N   UNL     1     135.028 -16.055 167.188  1.00  0.00    -0.284 NA
ATOM     13  N   UNL     1     134.433 -15.882 165.003  1.00  0.00    -0.384 N 
ATOM     14  H   UNL     1     134.716 -16.430 168.089  1.00  0.00     0.189 HD
ATOM     15  H   UNL     1     135.293 -15.365 164.869  1.00  0.00     0.158 HD
ATOM     16  H   UNL     1     133.754 -15.898 164.256  1.00  0.00     0.158 HD
ENDBRANCH   6  11
ENDBRANCH   4   5
BRANCH   4  17
ATOM     17  C   UNL     1     131.006 -21.279 165.718  1.00  0.00     0.127 CG0
ATOM     18  G   UNL     1     129.648 -21.946 165.897  1.00  0.00     0.000 G0
ENDBRANCH   4  17
ENDBRANCH   2   4
ENDBRANCH   1   2
BRANCH   1  19
ATOM     19  C   UNL     1     128.305 -20.781 164.094  1.00  0.00     0.122 C 
BRANCH  19  20
ATOM     20  C   UNL     1     128.458 -21.048 165.586  1.00  0.00     0.023 C 
BRANCH  20  21
ATOM     21  C   UNL     1     129.634 -21.973 165.897  1.00  0.00     0.024 CG0
ATOM     22  G   UNL     1     130.973 -21.271 165.719  1.00  0.00     0.000 G0
ENDBRANCH  20  21
ENDBRANCH  19  20
ENDBRANCH   1  19
BRANCH   1  23
ATOM     23  C   UNL     1     128.560 -18.425 163.256  1.00  0.00     0.089 C 
ATOM     24  C   UNL     1     128.727 -18.077 161.769  1.00  0.00     0.042 C 
ATOM     25  C   UNL     1     129.006 -17.284 164.187  1.00  0.00     0.042 C 
ATOM     26  C   UNL     1     128.022 -16.767 161.423  1.00  0.00     0.104 C 
ATOM     27  C   UNL     1     129.295 -15.998 163.422  1.00  0.00     0.104 C 
ATOM     28  N   UNL     1     128.178 -15.752 162.490  1.00  0.00    -0.198 NA
BRANCH  28  29
ATOM     29  S   UNL     1     127.826 -14.141 162.082  1.00  0.00     0.243 S 
ATOM     30  O   UNL     1     127.153 -14.135 160.800  1.00  0.00    -0.207 OA
ATOM     31  O   UNL     1     129.026 -13.359 162.296  1.00  0.00    -0.207 OA
BRANCH  29  32
ATOM     32  C   UNL     1     126.637 -13.648 163.310  1.00  0.00     0.082 A 
ATOM     33  C   UNL     1     126.618 -12.327 163.765  1.00  0.00     0.024 A 
ATOM     34  C   UNL     1     125.779 -14.597 163.870  1.00  0.00     0.024 A 
ATOM     35  C   UNL     1     125.708 -11.951 164.757  1.00  0.00     0.027 A 
ATOM     36  C   UNL     1     124.878 -14.209 164.865  1.00  0.00     0.027 A 
ATOM     37  C   UNL     1     124.840 -12.889 165.323  1.00  0.00     0.031 A 
BRANCH  37  38
ATOM     38  N   UNL     1     123.928 -12.509 166.289  1.00  0.00    -0.399 N 
ATOM     39  H   UNL     1     123.789 -11.531 166.509  1.00  0.00     0.156 HD
ATOM     40  H   UNL     1     123.511 -13.199 166.899  1.00  0.00     0.156 HD
ENDBRANCH  37  38
ENDBRANCH  29  32
ENDBRANCH  28  29
ENDBRANCH   1  23
TORSDOF 6
ENDMDL
MODEL 5
REMARK VINA RESULT:    -6.998      1.948      4.142
REMARK INTER + INTRA:         -12.280
REMARK INTER:                 -11.817
REMARK INTRA:                  -0.463
REMARK UNBOUND:                -0.577
REMARK SMILES N=C(N)c1cccc(N2CCCCN(C3CCN(S(=O)(=O)c4ccc(N)cc4)CC3)C2=O)c1
REMARK SMILES IDX 14 1 31 2 32 3 9 4 8 5 4 6 5 7 33 8 6 9 7 10 2 11 1 12 3 13
REMARK SMILES IDX 10 17 13 19 12 20 11 21 15 23 16 24 30 25 17 26 29 27 18 28
REMARK SMILES IDX 19 29 20 30 21 31 22 32 23 33 28 34 24 35 27 36 25 37 26 38
REMARK H PARENT 1 14 3 15 3 16 26 39 26 40
REMARK Flexibility Score:   77.900
ROOT
ATOM      1  N   UNL     1     132.372 -16.379 165.392  1.00  0.00    -0.321 N 
ENDROOT
BRANCH   1   2
ATOM      2  C   UNL     1     133.083 -17.374 164.710  1.00  0.00     0.324 C 
ATOM      3  O   UNL     1     133.321 -17.294 163.506  1.00  0.00    -0.248 OA
BRANCH   2   4
ATOM      4  N   UNL     1     133.471 -18.459 165.507  1.00  0.00    -0.294 N 
BRANCH   4   5
ATOM      5  C   UNL     1     132.584 -19.557 165.791  1.00  0.00     0.046 A 
ATOM      6  C   UNL     1     131.496 -21.052 167.392  1.00  0.00     0.018 A 
ATOM      7  C   UNL     1     130.797 -21.687 166.369  1.00  0.00     0.012 A 
ATOM      8  C   UNL     1     132.377 -19.998 167.109  1.00  0.00     0.038 A 
ATOM      9  C   UNL     1     130.964 -21.249 165.061  1.00  0.00     0.003 A 
ATOM     10  C   UNL     1     131.843 -20.195 164.778  1.00  0.00     0.026 A 
BRANCH   6  11
ATOM     11  C   UNL     1     131.285 -21.484 168.797  1.00  0.00     0.122 C 
ATOM     12  N   UNL     1     132.129 -21.195 169.737  1.00  0.00    -0.284 NA
ATOM     13  N   UNL     1     130.183 -22.197 169.129  1.00  0.00    -0.384 N 
ATOM     14  H   UNL     1     132.905 -20.636 169.370  1.00  0.00     0.189 HD
ATOM     15  H   UNL     1     130.110 -22.508 170.090  1.00  0.00     0.158 HD
ATOM     16  H   UNL     1     129.552 -22.585 168.443  1.00  0.00     0.158 HD
ENDBRANCH   6  11
ENDBRANCH   4   5
BRANCH   4  17
ATOM     17  C   UNL     1     134.766 -18.337 166.175  1.00  0.00     0.127 CG0
ATOM     18  G   UNL     1     134.816 -17.175 167.159  1.00  0.00     0.000 G0
ENDBRANCH   4  17
ENDBRANCH   2   4
ENDBRANCH   1   2
BRANCH   1  19
ATOM     19  C   UNL     1     133.060 -15.524 166.364  1.00  0.00     0.122 C 
BRANCH  19  20
ATOM     20  C   UNL     1     134.549 -15.826 166.469  1.00  0.00     0.023 C 
BRANCH  20  21
ATOM     21  C   UNL     1     134.827 -17.165 167.153  1.00  0.00     0.024 CG0
ATOM     22  G   UNL     1     134.740 -18.331 166.177  1.00  0.00     0.000 G0
ENDBRANCH  20  21
ENDBRANCH  19  20
ENDBRANCH   1  19
BRANCH   1  23
ATOM     23  C   UNL     1     131.078 -15.907 164.866  1.00  0.00     0.089 C 
ATOM     24  C   UNL     1     130.219 -17.044 164.294  1.00  0.00     0.042 C 
ATOM     25  C   UNL     1     131.244 -14.736 163.881  1.00  0.00     0.042 C 
ATOM     26  C   UNL     1     128.865 -16.528 163.809  1.00  0.00     0.104 C 
ATOM     27  C   UNL     1     130.338 -14.875 162.664  1.00  0.00     0.104 C 
ATOM     28  N   UNL     1     128.981 -15.214 163.134  1.00  0.00    -0.198 NA
BRANCH  28  29
ATOM     29  S   UNL     1     127.665 -14.717 162.182  1.00  0.00     0.243 S 
ATOM     30  O   UNL     1     127.045 -15.895 161.612  1.00  0.00    -0.207 OA
ATOM     31  O   UNL     1     128.117 -13.632 161.335  1.00  0.00    -0.207 OA
BRANCH  29  32
ATOM     32  C   UNL     1     126.525 -14.036 163.367  1.00  0.00     0.082 A 
ATOM     33  C   UNL     1     126.671 -12.711 163.786  1.00  0.00     0.024 A 
ATOM     34  C   UNL     1     125.537 -14.847 163.929  1.00  0.00     0.024 A 
ATOM     35  C   UNL     1     125.798 -12.191 164.745  1.00  0.00     0.027 A 
ATOM     36  C   UNL     1     124.675 -14.315 164.891  1.00  0.00     0.027 A 
ATOM     37  C   UNL     1     124.801 -12.988 165.314  1.00  0.00     0.031 A 
BRANCH  37  38
ATOM     38  N   UNL     1     123.928 -12.464 166.246  1.00  0.00    -0.399 N 
ATOM     39  H   UNL     1     123.655 -11.491 166.205  1.00  0.00     0.156 HD
ATOM     40  H   UNL     1     123.679 -12.995 167.070  1.00  0.00     0.156 HD
ENDBRANCH  37  38
ENDBRANCH  29  32
ENDBRANCH  28  29
ENDBRANCH   1  23
TORSDOF 6
ENDMDL
MODEL 6
REMARK VINA RESULT:    -6.939      2.020      4.328
REMARK INTER + INTRA:         -12.181
REMARK INTER:                 -11.642
REMARK INTRA:                  -0.540
REMARK UNBOUND:                -0.577
REMARK SMILES N=C(N)c1cccc(N2CCCCN(C3CCN(S(=O)(=O)c4ccc(N)cc4)CC3)C2=O)c1
REMARK SMILES IDX 14 1 31 2 32 3 9 4 8 5 4 6 5 7 33 8 6 9 7 10 2 11 1 12 3 13
REMARK SMILES IDX 10 17 13 19 12 20 11 21 15 23 16 24 30 25 17 26 29 27 18 28
REMARK SMILES IDX 19 29 20 30 21 31 22 32 23 33 28 34 24 35 27 36 25 37 26 38
REMARK H PARENT 1 14 3 15 3 16 26 39 26 40
REMARK Flexibility Score:   77.900
ROOT
ATOM      1  N   UNL     1     132.642 -16.912 164.917  1.00  0.00    -0.321 N 
ENDROOT
BRANCH   1   2
ATOM      2  C   UNL     1     133.287 -18.153 164.852  1.00  0.00     0.324 C 
ATOM      3  O   UNL     1     133.591 -18.672 163.779  1.00  0.00    -0.248 OA
BRANCH   2   4
ATOM      4  N   UNL     1     133.531 -18.747 166.097  1.00  0.00    -0.294 N 
BRANCH   4   5
ATOM      5  C   UNL     1     132.514 -19.474 166.811  1.00  0.00     0.046 A 
ATOM      6  C   UNL     1     130.218 -20.297 166.990  1.00  0.00     0.018 A 
ATOM      7  C   UNL     1     130.514 -20.950 168.184  1.00  0.00     0.012 A 
ATOM      8  C   UNL     1     131.205 -19.569 166.310  1.00  0.00     0.038 A 
ATOM      9  C   UNL     1     131.809 -20.893 168.684  1.00  0.00     0.003 A 
ATOM     10  C   UNL     1     132.796 -20.168 168.003  1.00  0.00     0.026 A 
BRANCH   6  11
ATOM     11  C   UNL     1     128.847 -20.394 166.426  1.00  0.00     0.122 C 
ATOM     12  N   UNL     1     128.391 -19.523 165.582  1.00  0.00    -0.284 NA
ATOM     13  N   UNL     1     128.036 -21.416 166.787  1.00  0.00    -0.384 N 
ATOM     14  H   UNL     1     129.100 -18.815 165.371  1.00  0.00     0.189 HD
ATOM     15  H   UNL     1     127.096 -21.411 166.411  1.00  0.00     0.158 HD
ATOM     16  H   UNL     1     128.256 -22.053 167.539  1.00  0.00     0.158 HD
ENDBRANCH   6  11
ENDBRANCH   4   5
BRANCH   4  17
ATOM     17  C   UNL     1     134.823 -18.446 166.713  1.00  0.00     0.127 CG0
ATOM     18  G   UNL     1     134.911 -17.017 167.233  1.00  0.00     0.000 G0
ENDBRANCH   4  17
ENDBRANCH   2   4
ENDBRANCH   1   2
BRANCH   1  19
ATOM     19  C   UNL     1     133.133 -15.879 165.834  1.00  0.00     0.122 C 
BRANCH  19  20
ATOM     20  C   UNL     1     134.624 -16.002 166.120  1.00  0.00     0.023 C 
BRANCH  20  21
ATOM     21  C   UNL     1     134.925 -17.009 167.230  1.00  0.00     0.024 CG0
ATOM     22  G   UNL     1     134.809 -18.446 166.741  1.00  0.00     0.000 G0
ENDBRANCH  20  21
ENDBRANCH  19  20
ENDBRANCH   1  19
BRANCH   1  23
ATOM     23  C   UNL     1     131.760 -16.482 163.817  1.00  0.00     0.089 C 
ATOM     24  C   UNL     1     131.606 -14.955 163.741  1.00  0.00     0.042 C 
ATOM     25  C   UNL     1     130.406 -17.214 163.838  1.00  0.00     0.042 C 
ATOM     26  C   UNL     1     130.732 -14.543 162.559  1.00  0.00     0.104 C 
ATOM     27  C   UNL     1     129.240 -16.275 163.551  1.00  0.00     0.104 C 
ATOM     28  N   UNL     1     129.582 -15.459 162.371  1.00  0.00    -0.198 NA
BRANCH  28  29
ATOM     29  S   UNL     1     128.309 -14.908 161.391  1.00  0.00     0.243 S 
ATOM     30  O   UNL     1     127.752 -16.045 160.689  1.00  0.00    -0.207 OA
ATOM     31  O   UNL     1     128.779 -13.745 160.668  1.00  0.00    -0.207 OA
BRANCH  29  32
ATOM     32  C   UNL     1     127.088 -14.356 162.563  1.00  0.00     0.082 A 
ATOM     33  C   UNL     1     127.276 -13.149 163.241  1.00  0.00     0.024 A 
ATOM     34  C   UNL     1     125.989 -15.165 162.857  1.00  0.00     0.024 A 
ATOM     35  C   UNL     1     126.335 -12.737 164.188  1.00  0.00     0.027 A 
ATOM     36  C   UNL     1     125.058 -14.743 163.810  1.00  0.00     0.027 A 
ATOM     37  C   UNL     1     125.226 -13.533 164.490  1.00  0.00     0.031 A 
BRANCH  37  38
ATOM     38  N   UNL     1     124.288 -13.112 165.412  1.00  0.00    -0.399 N 
ATOM     39  H   UNL     1     123.300 -13.235 165.234  1.00  0.00     0.156 HD
ATOM     40  H   UNL     1     124.564 -12.534 166.195  1.00  0.00     0.156 HD
ENDBRANCH  37  38
ENDBRANCH  29  32
ENDBRANCH  28  29
ENDBRANCH   1  23
TORSDOF 6
ENDMDL
MODEL 7
REMARK VINA RESULT:    -6.841      2.107      4.548
REMARK INTER + INTRA:         -12.018
REMARK INTER:                 -11.334
REMARK INTRA:                  -0.684
REMARK UNBOUND:                -0.577
REMARK SMILES N=C(N)c1cccc(N2CCCCN(C3CCN(S(=O)(=O)c4ccc(N)cc4)CC3)C2=O)c1
REMARK SMILES IDX 14 1 31 2 32 3 9 4 8 5 4 6 5 7 33 8 6 9 7 10 2 11 1 12 3 13
REMARK SMILES IDX 10 17 13 19 12 20 11 21 15 23 16 24 30 25 17 26 29 27 18 28
REMARK SMILES IDX 19 29 20 30 21 31 22 32 23 33 28 34 24 35 27 36 25 37 26 38
REMARK H PARENT 1 14 3 15 3 16 26 39 26 40
REMARK Flexibility Score:   77.900
ROOT
ATOM      1  N   UNL     1     131.851 -17.725 165.454  1.00  0.00    -0.321 N 
ENDROOT
BRANCH   1   2
ATOM      2  C   UNL     1     131.798 -18.045 166.816  1.00  0.00     0.324 C 
ATOM      3  O   UNL     1     131.621 -17.188 167.679  1.00  0.00    -0.248 OA
BRANCH   2   4
ATOM      4  N   UNL     1     131.983 -19.404 167.099  1.00  0.00    -0.294 N 
BRANCH   4   5
ATOM      5  C   UNL     1     130.876 -20.298 167.322  1.00  0.00     0.046 A 
ATOM      6  C   UNL     1     128.667 -21.143 166.699  1.00  0.00     0.018 A 
ATOM      7  C   UNL     1     128.711 -22.092 167.718  1.00  0.00     0.012 A 
ATOM      8  C   UNL     1     129.737 -20.258 166.501  1.00  0.00     0.038 A 
ATOM      9  C   UNL     1     129.840 -22.169 168.523  1.00  0.00     0.003 A 
ATOM     10  C   UNL     1     130.910 -21.287 168.324  1.00  0.00     0.026 A 
BRANCH   6  11
ATOM     11  C   UNL     1     127.483 -21.088 165.804  1.00  0.00     0.122 C 
ATOM     12  N   UNL     1     126.531 -21.963 165.874  1.00  0.00    -0.284 NA
ATOM     13  N   UNL     1     127.373 -20.099 164.886  1.00  0.00    -0.384 N 
ATOM     14  H   UNL     1     126.715 -22.643 166.618  1.00  0.00     0.189 HD
ATOM     15  H   UNL     1     126.571 -20.133 164.269  1.00  0.00     0.158 HD
ATOM     16  H   UNL     1     128.128 -19.464 164.668  1.00  0.00     0.158 HD
ENDBRANCH   6  11
ENDBRANCH   4   5
BRANCH   4  17
ATOM     17  C   UNL     1     133.363 -19.834 167.326  1.00  0.00     0.127 CG0
ATOM     18  G   UNL     1     134.154 -19.990 166.034  1.00  0.00     0.000 G0
ENDBRANCH   4  17
ENDBRANCH   2   4
ENDBRANCH   1   2
BRANCH   1  19
ATOM     19  C   UNL     1     132.771 -18.443 164.567  1.00  0.00     0.122 C 
BRANCH  19  20
ATOM     20  C   UNL     1     134.131 -18.698 165.206  1.00  0.00     0.023 C 
BRANCH  20  21
ATOM     21  C   UNL     1     134.158 -19.987 166.027  1.00  0.00     0.024 CG0
ATOM     22  G   UNL     1     133.384 -19.848 167.331  1.00  0.00     0.000 G0
ENDBRANCH  20  21
ENDBRANCH  19  20
ENDBRANCH   1  19
BRANCH   1  23
ATOM     23  C   UNL     1     130.737 -16.991 164.826  1.00  0.00     0.089 C 
ATOM     24  C   UNL     1     130.271 -17.630 163.509  1.00  0.00     0.042 C 
ATOM     25  C   UNL     1     131.039 -15.488 164.682  1.00  0.00     0.042 C 
ATOM     26  C   UNL     1     129.082 -16.876 162.916  1.00  0.00     0.104 C 
ATOM     27  C   UNL     1     130.592 -14.939 163.333  1.00  0.00     0.104 C 
ATOM     28  N   UNL     1     129.219 -15.410 163.073  1.00  0.00    -0.198 NA
BRANCH  28  29
ATOM     29  S   UNL     1     128.215 -14.434 162.111  1.00  0.00     0.243 S 
ATOM     30  O   UNL     1     127.618 -15.266 161.087  1.00  0.00    -0.207 OA
ATOM     31  O   UNL     1     128.961 -13.243 161.759  1.00  0.00    -0.207 OA
BRANCH  29  32
ATOM     32  C   UNL     1     126.916 -13.945 163.224  1.00  0.00     0.082 A 
ATOM     33  C   UNL     1     126.854 -12.626 163.680  1.00  0.00     0.024 A 
ATOM     34  C   UNL     1     126.009 -14.895 163.697  1.00  0.00     0.024 A 
ATOM     35  C   UNL     1     125.856 -12.254 164.584  1.00  0.00     0.027 A 
ATOM     36  C   UNL     1     125.019 -14.511 164.606  1.00  0.00     0.027 A 
ATOM     37  C   UNL     1     124.938 -13.192 165.063  1.00  0.00     0.031 A 
BRANCH  37  38
ATOM     38  N   UNL     1     123.940 -12.816 165.941  1.00  0.00    -0.399 N 
ATOM     39  H   UNL     1     124.084 -12.877 166.940  1.00  0.00     0.156 HD
ATOM     40  H   UNL     1     123.005 -12.631 165.604  1.00  0.00     0.156 HD
ENDBRANCH  37  38
ENDBRANCH  29  32
ENDBRANCH  28  29
ENDBRANCH   1  23
TORSDOF 6
ENDMDL
MODEL 8
REMARK VINA RESULT:    -6.816      1.850      2.872
REMARK INTER + INTRA:         -11.975
REMARK INTER:                 -11.620
REMARK INTRA:                  -0.355
REMARK UNBOUND:                -0.577
REMARK SMILES N=C(N)c1cccc(N2CCCCN(C3CCN(S(=O)(=O)c4ccc(N)cc4)CC3)C2=O)c1
REMARK SMILES IDX 14 1 31 2 32 3 9 4 8 5 4 6 5 7 33 8 6 9 7 10 2 11 1 12 3 13
REMARK SMILES IDX 10 17 13 19 12 20 11 21 15 23 16 24 30 25 17 26 29 27 18 28
REMARK SMILES IDX 19 29 20 30 21 31 22 32 23 33 28 34 24 35 27 36 25 37 26 38
REMARK H PARENT 1 14 3 15 3 16 26 39 26 40
REMARK Flexibility Score:   77.900
ROOT
ATOM      1  N   UNL     1     131.569 -17.323 164.842  1.00  0.00    -0.321 N 
ENDROOT
BRANCH   1   2
ATOM      2  C   UNL     1     132.692 -17.993 164.340  1.00  0.00     0.324 C 
ATOM      3  O   UNL     1     133.298 -17.593 163.347  1.00  0.00    -0.248 OA
BRANCH   2   4
ATOM      4  N   UNL     1     133.042 -19.150 165.048  1.00  0.00    -0.294 N 
BRANCH   4   5
ATOM      5  C   UNL     1     134.390 -19.656 165.070  1.00  0.00     0.046 A 
ATOM      6  C   UNL     1     136.749 -19.397 165.659  1.00  0.00     0.018 A 
ATOM      7  C   UNL     1     137.042 -20.667 165.167  1.00  0.00     0.012 A 
ATOM      8  C   UNL     1     135.439 -18.897 165.614  1.00  0.00     0.038 A 
ATOM      9  C   UNL     1     136.014 -21.446 164.652  1.00  0.00     0.003 A 
ATOM     10  C   UNL     1     134.705 -20.948 164.608  1.00  0.00     0.026 A 
BRANCH   6  11
ATOM     11  C   UNL     1     137.835 -18.577 166.255  1.00  0.00     0.122 C 
ATOM     12  N   UNL     1     138.169 -17.424 165.768  1.00  0.00    -0.284 NA
ATOM     13  N   UNL     1     138.505 -19.027 167.343  1.00  0.00    -0.384 N 
ATOM     14  H   UNL     1     137.580 -17.184 164.966  1.00  0.00     0.189 HD
ATOM     15  H   UNL     1     139.267 -18.453 167.682  1.00  0.00     0.158 HD
ATOM     16  H   UNL     1     138.408 -19.967 167.698  1.00  0.00     0.158 HD
ENDBRANCH   6  11
ENDBRANCH   4   5
BRANCH   4  17
ATOM     17  C   UNL     1     131.935 -19.913 165.624  1.00  0.00     0.127 CG0
ATOM     18  G   UNL     1     131.426 -19.321 166.931  1.00  0.00     0.000 G0
ENDBRANCH   4  17
ENDBRANCH   2   4
ENDBRANCH   1   2
BRANCH   1  19
ATOM     19  C   UNL     1     131.544 -16.882 166.239  1.00  0.00     0.122 C 
BRANCH  19  20
ATOM     20  C   UNL     1     132.058 -17.943 167.204  1.00  0.00     0.023 C 
BRANCH  20  21
ATOM     21  C   UNL     1     131.436 -19.315 166.948  1.00  0.00     0.024 CG0
ATOM     22  G   UNL     1     131.929 -19.929 165.645  1.00  0.00     0.000 G0
ENDBRANCH  20  21
ENDBRANCH  19  20
ENDBRANCH   1  19
BRANCH   1  23
ATOM     23  C   UNL     1     130.609 -16.699 163.914  1.00  0.00     0.089 C 
ATOM     24  C   UNL     1     130.429 -15.195 164.168  1.00  0.00     0.042 C 
ATOM     25  C   UNL     1     129.270 -17.456 163.867  1.00  0.00     0.042 C 
ATOM     26  C   UNL     1     129.470 -14.570 163.156  1.00  0.00     0.104 C 
ATOM     27  C   UNL     1     128.074 -16.511 163.858  1.00  0.00     0.104 C 
ATOM     28  N   UNL     1     128.324 -15.459 162.854  1.00  0.00    -0.198 NA
BRANCH  28  29
ATOM     29  S   UNL     1     126.979 -14.753 162.095  1.00  0.00     0.243 S 
ATOM     30  O   UNL     1     126.121 -15.814 161.611  1.00  0.00    -0.207 OA
ATOM     31  O   UNL     1     127.467 -13.725 161.198  1.00  0.00    -0.207 OA
BRANCH  29  32
ATOM     32  C   UNL     1     126.124 -13.941 163.427  1.00  0.00     0.082 A 
ATOM     33  C   UNL     1     125.053 -14.583 164.055  1.00  0.00     0.024 A 
ATOM     34  C   UNL     1     126.474 -12.640 163.790  1.00  0.00     0.024 A 
ATOM     35  C   UNL     1     124.358 -13.928 165.076  1.00  0.00     0.027 A 
ATOM     36  C   UNL     1     125.768 -11.994 164.809  1.00  0.00     0.027 A 
ATOM     37  C   UNL     1     124.700 -12.627 165.454  1.00  0.00     0.031 A 
BRANCH  37  38
ATOM     38  N   UNL     1     124.024 -11.991 166.477  1.00  0.00    -0.399 N 
ATOM     39  H   UNL     1     123.109 -12.310 166.764  1.00  0.00     0.156 HD
ATOM     40  H   UNL     1     124.358 -11.107 166.839  1.00  0.00     0.156 HD
ENDBRANCH  37  38
ENDBRANCH  29  32
ENDBRANCH  28  29
ENDBRANCH   1  23
TORSDOF 6
ENDMDL
MODEL 9
REMARK VINA RESULT:    -6.649      1.971      2.989
REMARK INTER + INTRA:         -11.696
REMARK INTER:                 -11.319
REMARK INTRA:                  -0.377
REMARK UNBOUND:                -0.577
REMARK SMILES N=C(N)c1cccc(N2CCCCN(C3CCN(S(=O)(=O)c4ccc(N)cc4)CC3)C2=O)c1
REMARK SMILES IDX 14 1 31 2 32 3 9 4 8 5 4 6 5 7 33 8 6 9 7 10 2 11 1 12 3 13
REMARK SMILES IDX 10 17 13 19 12 20 11 21 15 23 16 24 30 25 17 26 29 27 18 28
REMARK SMILES IDX 19 29 20 30 21 31 22 32 23 33 28 34 24 35 27 36 25 37 26 38
REMARK H PARENT 1 14 3 15 3 16 26 39 26 40
REMARK Flexibility Score:   77.900
ROOT
ATOM      1  N   UNL     1     132.587 -16.717 164.679  1.00  0.00    -0.321 N 
ENDROOT
BRANCH   1   2
ATOM      2  C   UNL     1     132.965 -18.049 164.890  1.00  0.00     0.324 C 
ATOM      3  O   UNL     1     132.783 -18.919 164.040  1.00  0.00    -0.248 OA
BRANCH   2   4
ATOM      4  N   UNL     1     133.538 -18.297 166.143  1.00  0.00    -0.294 N 
BRANCH   4   5
ATOM      5  C   UNL     1     134.724 -19.100 166.298  1.00  0.00     0.046 A 
ATOM      6  C   UNL     1     137.129 -19.420 165.995  1.00  0.00     0.018 A 
ATOM      7  C   UNL     1     137.077 -20.650 166.645  1.00  0.00     0.012 A 
ATOM      8  C   UNL     1     135.968 -18.652 165.825  1.00  0.00     0.038 A 
ATOM      9  C   UNL     1     135.863 -21.100 167.148  1.00  0.00     0.003 A 
ATOM     10  C   UNL     1     134.703 -20.332 166.980  1.00  0.00     0.026 A 
BRANCH   6  11
ATOM     11  C   UNL     1     138.433 -18.912 165.498  1.00  0.00     0.122 C 
ATOM     12  N   UNL     1     138.535 -17.783 164.871  1.00  0.00    -0.284 NA
ATOM     13  N   UNL     1     139.563 -19.630 165.700  1.00  0.00    -0.384 N 
ATOM     14  H   UNL     1     137.622 -17.323 164.799  1.00  0.00     0.189 HD
ATOM     15  H   UNL     1     140.418 -19.264 165.301  1.00  0.00     0.158 HD
ATOM     16  H   UNL     1     139.556 -20.578 166.050  1.00  0.00     0.158 HD
ENDBRANCH   6  11
ENDBRANCH   4   5
BRANCH   4  17
ATOM     17  C   UNL     1     132.774 -17.841 167.304  1.00  0.00     0.127 CG0
ATOM     18  G   UNL     1     132.639 -16.326 167.364  1.00  0.00     0.000 G0
ENDBRANCH   4  17
ENDBRANCH   2   4
ENDBRANCH   1   2
BRANCH   1  19
ATOM     19  C   UNL     1     133.479 -15.629 165.091  1.00  0.00     0.122 C 
BRANCH  19  20
ATOM     20  C   UNL     1     133.724 -15.602 166.594  1.00  0.00     0.023 C 
BRANCH  20  21
ATOM     21  C   UNL     1     132.624 -16.318 167.378  1.00  0.00     0.024 CG0
ATOM     22  G   UNL     1     132.776 -17.832 167.319  1.00  0.00     0.000 G0
ENDBRANCH  20  21
ENDBRANCH  19  20
ENDBRANCH   1  19
BRANCH   1  23
ATOM     23  C   UNL     1     131.531 -16.398 163.701  1.00  0.00     0.089 C 
ATOM     24  C   UNL     1     131.562 -14.929 163.251  1.00  0.00     0.042 C 
ATOM     25  C   UNL     1     130.138 -16.840 164.185  1.00  0.00     0.042 C 
ATOM     26  C   UNL     1     130.491 -14.647 162.199  1.00  0.00     0.104 C 
ATOM     27  C   UNL     1     129.069 -15.794 163.894  1.00  0.00     0.104 C 
ATOM     28  N   UNL     1     129.222 -15.352 162.495  1.00  0.00    -0.198 NA
BRANCH  28  29
ATOM     29  S   UNL     1     127.833 -14.817 161.677  1.00  0.00     0.243 S 
ATOM     30  O   UNL     1     127.157 -15.972 161.126  1.00  0.00    -0.207 OA
ATOM     31  O   UNL     1     128.219 -13.707 160.829  1.00  0.00    -0.207 OA
BRANCH  29  32
ATOM     32  C   UNL     1     126.805 -14.168 162.977  1.00  0.00     0.082 A 
ATOM     33  C   UNL     1     125.740 -14.930 163.463  1.00  0.00     0.024 A 
ATOM     34  C   UNL     1     127.018 -12.872 163.452  1.00  0.00     0.024 A 
ATOM     35  C   UNL     1     124.912 -14.402 164.457  1.00  0.00     0.027 A 
ATOM     36  C   UNL     1     126.179 -12.355 164.442  1.00  0.00     0.027 A 
ATOM     37  C   UNL     1     125.115 -13.109 164.947  1.00  0.00     0.031 A 
BRANCH  37  38
ATOM     38  N   UNL     1     124.306 -12.599 165.944  1.00  0.00    -0.399 N 
ATOM     39  H   UNL     1     123.832 -13.218 166.588  1.00  0.00     0.156 HD
ATOM     40  H   UNL     1     124.048 -11.621 165.943  1.00  0.00     0.156 HD
ENDBRANCH  37  38
ENDBRANCH  29  32
ENDBRANCH  28  29
ENDBRANCH   1  23
TORSDOF 6
ENDMDL
