REMARK VINA RESULT:    -9.352      1.505      1.915
REMARK INTER + INTRA:         -17.531
REMARK INTER:                 -14.743
REMARK INTRA:                  -2.788
REMARK UNBOUND:                -2.165
REMARK SMILES N=C(N)c1ccc([C@H](NC(=O)OCc2ccccc2)P(=O)(Oc2ccccc2)Oc2ccccc2)cc1
REMARK SMILES IDX 9 1 10 2 11 3 8 5 7 6 4 7 5 8 37 9 6 10 36 11 2 12 1 13 3 14
REMARK SMILES IDX 20 18 21 19 22 20 23 21 24 22 28 23 25 24 27 25 26 26 29 27
REMARK SMILES IDX 30 28 31 29 35 30 32 31 34 32 33 33 12 34 13 35 14 36 15 37
REMARK SMILES IDX 19 38 16 39 18 40 17 41
REMARK H PARENT 9 4 1 15 3 16 3 17
ROOT
ATOM      1  N   UNL     1      -2.494  11.001  21.813  1.00  0.00    -0.301 N 
ATOM      2  C   UNL     1      -1.153  10.803  21.752  1.00  0.00     0.408 C 
ATOM      3  O   UNL     1      -0.440  11.115  20.811  1.00  0.00    -0.225 OA
ATOM      4  H   UNL     1      -2.947  10.750  22.680  1.00  0.00     0.168 HD
ENDROOT
BRANCH   1   5
ATOM      5  C   UNL     1      -3.210  11.779  20.807  1.00  0.00     0.257 C 
BRANCH   5   6
ATOM      6  C   UNL     1      -3.813  10.836  19.783  1.00  0.00    -0.011 A 
ATOM      7  C   UNL     1      -4.813   9.045  17.866  1.00  0.00     0.016 A 
ATOM      8  C   UNL     1      -4.509   8.588  19.153  1.00  0.00     0.012 A 
ATOM      9  C   UNL     1      -4.653  10.396  17.545  1.00  0.00     0.012 A 
ATOM     10  C   UNL     1      -4.014   9.483  20.107  1.00  0.00     0.007 A 
ATOM     11  C   UNL     1      -4.165  11.288  18.501  1.00  0.00     0.007 A 
BRANCH   7  12
ATOM     12  C   UNL     1      -5.288   8.088  16.835  1.00  0.00     0.122 C 
ATOM     13  N   UNL     1      -5.454   6.830  17.094  1.00  0.00    -0.284 NA
ATOM     14  N   UNL     1      -5.568   8.510  15.578  1.00  0.00    -0.384 N 
ATOM     15  H   UNL     1      -5.255   6.634  18.081  1.00  0.00     0.189 HD
ATOM     16  H   UNL     1      -5.400   9.450  15.251  1.00  0.00     0.158 HD
ATOM     17  H   UNL     1      -5.882   7.808  14.920  1.00  0.00     0.158 HD
ENDBRANCH   7  12
ENDBRANCH   5   6
BRANCH   5  18
ATOM     18  P   UNL     1      -4.366  12.938  21.651  1.00  0.00     0.457 P 
ATOM     19  O   UNL     1      -5.161  13.815  20.717  1.00  0.00    -0.231 OA
BRANCH  18  20
ATOM     20  O   UNL     1      -3.469  13.703  22.762  1.00  0.00    -0.414 OA
BRANCH  20  21
ATOM     21  C   UNL     1      -4.001  14.206  23.915  1.00  0.00     0.130 A 
ATOM     22  C   UNL     1      -4.861  15.299  23.801  1.00  0.00     0.047 A 
ATOM     23  C   UNL     1      -3.684  13.685  25.166  1.00  0.00     0.047 A 
ATOM     24  C   UNL     1      -5.449  15.843  24.943  1.00  0.00     0.004 A 
ATOM     25  C   UNL     1      -4.270  14.234  26.310  1.00  0.00     0.004 A 
ATOM     26  C   UNL     1      -5.158  15.307  26.197  1.00  0.00     0.000 A 
ENDBRANCH  20  21
ENDBRANCH  18  20
BRANCH  18  27
ATOM     27  O   UNL     1      -5.281  11.955  22.547  1.00  0.00    -0.414 OA
BRANCH  27  28
ATOM     28  C   UNL     1      -6.611  11.728  22.352  1.00  0.00     0.130 A 
ATOM     29  C   UNL     1      -7.476  12.479  23.149  1.00  0.00     0.047 A 
ATOM     30  C   UNL     1      -7.125  10.813  21.436  1.00  0.00     0.047 A 
ATOM     31  C   UNL     1      -8.859  12.327  23.024  1.00  0.00     0.004 A 
ATOM     32  C   UNL     1      -8.508  10.659  21.312  1.00  0.00     0.004 A 
ATOM     33  C   UNL     1      -9.373  11.415  22.106  1.00  0.00     0.000 A 
ENDBRANCH  27  28
ENDBRANCH  18  27
ENDBRANCH   5  18
ENDBRANCH   1   5
BRANCH   2  34
ATOM     34  O   UNL     1      -0.741  10.218  22.896  1.00  0.00    -0.445 OA
BRANCH  34  35
ATOM     35  C   UNL     1      -0.774  11.092  24.027  1.00  0.00     0.270 C 
BRANCH  35  36
ATOM     36  C   UNL     1      -1.088  10.259  25.242  1.00  0.00    -0.011 A 
ATOM     37  C   UNL     1      -0.275   9.168  25.587  1.00  0.00     0.007 A 
ATOM     38  C   UNL     1      -2.224  10.531  26.018  1.00  0.00     0.007 A 
ATOM     39  C   UNL     1      -0.587   8.375  26.692  1.00  0.00     0.000 A 
ATOM     40  C   UNL     1      -2.533   9.735  27.124  1.00  0.00     0.000 A 
ATOM     41  C   UNL     1      -1.715   8.657  27.459  1.00  0.00     0.000 A 
ENDBRANCH  35  36
ENDBRANCH  34  35
ENDBRANCH   2  34
TORSDOF 11
