MODEL 9
REMARK VINA RESULT:    -7.922      4.617     12.058
REMARK INTER + INTRA:         -13.382
REMARK INTER:                 -12.360
REMARK INTRA:                  -1.021
REMARK UNBOUND:                -1.754
REMARK SMILES CCOc1nn(C)cc1Nc1ncc(Cl)c(-c2c[nH]c3c(NC(=O)[C@@H](C)N4CCN(C)CC4)cccc23)n1
REMARK SMILES IDX 11 1 12 2 13 3 14 4 15 5 16 6 38 7 10 8 9 10 4 11 5 12 6 13
REMARK SMILES IDX 8 14 7 15 3 16 2 17 1 18 17 19 18 20 37 21 19 22 36 23 20 24
REMARK SMILES IDX 35 25 21 26 34 27 22 29 23 30 24 31 25 33 26 34 27 35 28 36
REMARK SMILES IDX 33 37 29 38 32 39 30 40 31 41
REMARK H PARENT 10 9 19 28 22 32
ROOT
ATOM      1  C   UNL     1     -13.922  16.930  19.043  1.00  0.00     0.228 A 
ATOM      2  N   UNL     1     -14.404  18.163  19.266  1.00  0.00    -0.220 NA
ATOM      3  C   UNL     1     -13.536  19.090  19.727  1.00  0.00     0.138 A 
ATOM      4  C   UNL     1     -12.199  18.857  19.944  1.00  0.00     0.085 A 
ATOM      5  Cl  UNL     1     -11.205  20.117  20.558  1.00  0.00    -0.080 Cl
ATOM      6  C   UNL     1     -11.785  17.571  19.658  1.00  0.00     0.097 A 
ATOM      7  N   UNL     1     -12.637  16.604  19.238  1.00  0.00    -0.211 NA
ENDROOT
BRANCH   1   8
ATOM      8  N   UNL     1     -14.843  16.000  18.568  1.00  0.00    -0.318 N 
ATOM      9  H   UNL     1     -14.987  16.164  17.578  1.00  0.00     0.170 HD
BRANCH   8  10
ATOM     10  C   UNL     1     -15.488  14.986  19.180  1.00  0.00     0.124 A 
ATOM     11  C   UNL     1     -14.935  13.739  19.553  1.00  0.00     0.256 A 
ATOM     12  N   UNL     1     -15.829  12.923  20.120  1.00  0.00    -0.133 NA
ATOM     13  N   UNL     1     -16.961  13.658  20.105  1.00  0.00    -0.270 N 
ATOM     14  C   UNL     1     -16.805  14.901  19.561  1.00  0.00     0.138 A 
ATOM     15  C   UNL     1     -18.189  13.081  20.604  1.00  0.00     0.173 C 
BRANCH  11  16
ATOM     16  O   UNL     1     -13.647  13.362  19.381  1.00  0.00    -0.475 OA
BRANCH  16  17
ATOM     17  C   UNL     1     -13.307  12.140  20.035  1.00  0.00     0.228 C 
ATOM     18  C   UNL     1     -12.496  11.293  19.070  1.00  0.00     0.049 C 
ENDBRANCH  16  17
ENDBRANCH  11  16
ENDBRANCH   8  10
ENDBRANCH   1   8
BRANCH   6  19
ATOM     19  C   UNL     1     -10.399  17.127  19.744  1.00  0.00     0.027 A 
ATOM     20  C   UNL     1      -9.319  17.982  19.721  1.00  0.00     0.094 A 
ATOM     21  C   UNL     1      -9.874  15.792  19.759  1.00  0.00     0.011 A 
ATOM     22  N   UNL     1      -8.180  17.225  19.749  1.00  0.00    -0.359 N 
ATOM     23  C   UNL     1     -10.472  14.513  19.773  1.00  0.00     0.011 A 
ATOM     24  C   UNL     1      -8.475  15.882  19.749  1.00  0.00     0.070 A 
ATOM     25  C   UNL     1      -9.667  13.376  19.768  1.00  0.00     0.003 A 
ATOM     26  C   UNL     1      -7.639  14.751  19.744  1.00  0.00     0.065 A 
ATOM     27  C   UNL     1      -8.278  13.499  19.756  1.00  0.00     0.028 A 
ATOM     28  H   UNL     1      -7.228  17.581  19.735  1.00  0.00     0.166 HD
BRANCH  26  29
ATOM     29  N   UNL     1      -6.234  14.746  19.718  1.00  0.00    -0.323 N 
ATOM     30  C   UNL     1      -5.323  15.379  20.545  1.00  0.00     0.241 C 
ATOM     31  O   UNL     1      -5.586  16.126  21.484  1.00  0.00    -0.273 OA
ATOM     32  H   UNL     1      -5.786  14.130  19.042  1.00  0.00     0.170 HD
BRANCH  30  33
ATOM     33  C   UNL     1      -3.859  15.122  20.086  1.00  0.00     0.143 C 
ATOM     34  C   UNL     1      -3.426  13.691  20.417  1.00  0.00     0.035 C 
BRANCH  33  35
ATOM     35  N   UNL     1      -3.694  15.541  18.665  1.00  0.00    -0.290 NA
ATOM     36  C   UNL     1      -3.716  17.012  18.520  1.00  0.00     0.101 C 
ATOM     37  C   UNL     1      -2.532  14.939  17.975  1.00  0.00     0.101 C 
ATOM     38  C   UNL     1      -3.117  17.497  17.180  1.00  0.00     0.099 C 
ATOM     39  C   UNL     1      -1.347  15.906  17.758  1.00  0.00     0.099 C 
ATOM     40  N   UNL     1      -1.712  17.096  16.962  1.00  0.00    -0.304 NA
ATOM     41  C   UNL     1      -0.780  18.189  17.227  1.00  0.00     0.105 C 
ENDBRANCH  33  35
ENDBRANCH  30  33
ENDBRANCH  26  29
ENDBRANCH   6  19
TORSDOF 8
ENDMDL
