MODEL 1
REMARK VINA RESULT:   -10.095      0.000      0.000
REMARK INTER + INTRA:         -16.377
REMARK INTER:                 -15.702
REMARK INTRA:                  -0.675
REMARK UNBOUND:                -0.675
REMARK SMILES Cc1nc(-c2ccc(C(F)(F)F)cc2)sc1CNCc1ccc(OC(C)(C)C(=O)O)cc1
REMARK SMILES IDX 19 1 18 2 17 4 16 5 2 6 3 7 4 8 15 9 1 10 5 11 6 12 14 13
REMARK SMILES IDX 7 14 13 15 8 16 9 17 10 18 11 19 12 20 20 21 21 22 32 23
REMARK SMILES IDX 22 24 31 25 23 26 24 27 25 28 26 29 27 30 28 31 29 32 30 33
REMARK H PARENT 18 3 30 34
ROOT
ATOM      1  C   UNL     1      46.884 -41.817 108.460  1.00  0.00     0.117 C 
ENDROOT
BRANCH   1   2
ATOM      2  N   UNL     1      46.205 -42.483 107.351  1.00  0.00    -0.308 NA
ATOM      3  H   UNL     1      46.405 -43.482 107.394  1.00  0.00     0.123 HD
BRANCH   2   4
ATOM      4  C   UNL     1      44.761 -42.275 107.419  1.00  0.00     0.130 C 
BRANCH   4   5
ATOM      5  C   UNL     1      44.267 -41.642 106.157  1.00  0.00     0.042 A 
ATOM      6  C   UNL     1      43.450 -40.539 105.984  1.00  0.00     0.053 A 
ATOM      7  N   UNL     1      43.166 -40.227 104.663  1.00  0.00    -0.241 NA
ATOM      8  C   UNL     1      43.756 -41.071 103.838  1.00  0.00     0.123 A 
ATOM      9  S   UNL     1      44.688 -42.287 104.626  1.00  0.00    -0.117 S 
ATOM     10  C   UNL     1      42.878 -39.676 107.051  1.00  0.00     0.068 C 
BRANCH   8  11
ATOM     11  C   UNL     1      43.645 -40.990 102.365  1.00  0.00     0.010 A 
ATOM     12  C   UNL     1      42.928 -39.987 101.692  1.00  0.00     0.012 A 
ATOM     13  C   UNL     1      44.295 -41.961 101.584  1.00  0.00     0.012 A 
ATOM     14  C   UNL     1      42.860 -39.961 100.293  1.00  0.00     0.014 A 
ATOM     15  C   UNL     1      44.230 -41.939 100.186  1.00  0.00     0.014 A 
ATOM     16  C   UNL     1      43.502 -40.942  99.525  1.00  0.00     0.056 A 
BRANCH  16  17
ATOM     17  C   UNL     1      43.445 -40.898  98.018  1.00  0.00     0.416 C 
ATOM     18  F   UNL     1      44.485 -41.547  97.422  1.00  0.00    -0.166 F 
ATOM     19  F   UNL     1      43.470 -39.626  97.535  1.00  0.00    -0.166 F 
ATOM     20  F   UNL     1      42.315 -41.469  97.511  1.00  0.00    -0.166 F 
ENDBRANCH  16  17
ENDBRANCH   8  11
ENDBRANCH   4   5
ENDBRANCH   2   4
ENDBRANCH   1   2
BRANCH   1  21
ATOM     21  C   UNL     1      47.003 -40.334 108.201  1.00  0.00    -0.034 A 
ATOM     22  C   UNL     1      46.200 -39.424 108.906  1.00  0.00     0.009 A 
ATOM     23  C   UNL     1      47.883 -39.845 107.227  1.00  0.00     0.009 A 
ATOM     24  C   UNL     1      46.297 -38.052 108.667  1.00  0.00     0.047 A 
ATOM     25  C   UNL     1      47.978 -38.472 106.987  1.00  0.00     0.047 A 
ATOM     26  C   UNL     1      47.209 -37.576 107.729  1.00  0.00     0.121 A 
BRANCH  26  27
ATOM     27  O   UNL     1      47.328 -36.249 107.433  1.00  0.00    -0.476 OA
BRANCH  27  28
ATOM     28  C   UNL     1      48.469 -35.566 107.987  1.00  0.00     0.199 C 
ATOM     29  C   UNL     1      49.734 -36.443 108.038  1.00  0.00     0.069 C 
ATOM     30  C   UNL     1      48.729 -34.410 107.003  1.00  0.00     0.069 C 
BRANCH  28  31
ATOM     31  C   UNL     1      48.181 -34.900 109.346  1.00  0.00     0.347 C 
ATOM     32  O   UNL     1      47.332 -35.219 110.164  1.00  0.00    -0.248 OA
BRANCH  31  33
ATOM     33  O   UNL     1      48.945 -33.811 109.591  1.00  0.00    -0.478 OA
ATOM     34  H   UNL     1      49.739 -34.182 110.036  1.00  0.00     0.296 HD
ENDBRANCH  31  33
ENDBRANCH  28  31
ENDBRANCH  27  28
ENDBRANCH  26  27
ENDBRANCH   1  21
TORSDOF 10
ENDMDL
MODEL 2
REMARK VINA RESULT:    -9.476      4.220      6.169
REMARK INTER + INTRA:         -15.413
REMARK INTER:                 -15.393
REMARK INTRA:                  -0.020
REMARK UNBOUND:                -0.675
REMARK SMILES Cc1nc(-c2ccc(C(F)(F)F)cc2)sc1CNCc1ccc(OC(C)(C)C(=O)O)cc1
REMARK SMILES IDX 19 1 18 2 17 4 16 5 2 6 3 7 4 8 15 9 1 10 5 11 6 12 14 13
REMARK SMILES IDX 7 14 13 15 8 16 9 17 10 18 11 19 12 20 20 21 21 22 32 23
REMARK SMILES IDX 22 24 31 25 23 26 24 27 25 28 26 29 27 30 28 31 29 32 30 33
REMARK H PARENT 18 3 30 34
ROOT
ATOM      1  C   UNL     1      44.252 -38.706 108.177  1.00  0.00     0.117 C 
ENDROOT
BRANCH   1   2
ATOM      2  N   UNL     1      44.347 -40.129 107.858  1.00  0.00    -0.308 NA
ATOM      3  H   UNL     1      44.447 -40.656 108.726  1.00  0.00     0.123 HD
BRANCH   2   4
ATOM      4  C   UNL     1      43.157 -40.589 107.148  1.00  0.00     0.130 C 
BRANCH   4   5
ATOM      5  C   UNL     1      43.512 -41.013 105.759  1.00  0.00     0.042 A 
ATOM      6  C   UNL     1      44.325 -42.049 105.332  1.00  0.00     0.053 A 
ATOM      7  N   UNL     1      44.459 -42.155 103.957  1.00  0.00    -0.241 NA
ATOM      8  C   UNL     1      43.761 -41.221 103.338  1.00  0.00     0.123 A 
ATOM      9  S   UNL     1      42.903 -40.168 104.397  1.00  0.00    -0.117 S 
ATOM     10  C   UNL     1      45.034 -43.037 106.188  1.00  0.00     0.068 C 
BRANCH   8  11
ATOM     11  C   UNL     1      43.701 -41.083 101.866  1.00  0.00     0.010 A 
ATOM     12  C   UNL     1      42.925 -40.117 101.205  1.00  0.00     0.012 A 
ATOM     13  C   UNL     1      44.466 -41.958 101.074  1.00  0.00     0.012 A 
ATOM     14  C   UNL     1      42.911 -40.034  99.807  1.00  0.00     0.014 A 
ATOM     15  C   UNL     1      44.454 -41.879  99.676  1.00  0.00     0.014 A 
ATOM     16  C   UNL     1      43.668 -40.919  99.027  1.00  0.00     0.056 A 
BRANCH  16  17
ATOM     17  C   UNL     1      43.667 -40.813  97.522  1.00  0.00     0.416 C 
ATOM     18  F   UNL     1      44.918 -40.828  96.982  1.00  0.00    -0.166 F 
ATOM     19  F   UNL     1      43.083 -39.664  97.084  1.00  0.00    -0.166 F 
ATOM     20  F   UNL     1      42.991 -41.831  96.916  1.00  0.00    -0.166 F 
ENDBRANCH  16  17
ENDBRANCH   8  11
ENDBRANCH   4   5
ENDBRANCH   2   4
ENDBRANCH   1   2
BRANCH   1  21
ATOM     21  C   UNL     1      42.850 -38.347 108.605  1.00  0.00    -0.034 A 
ATOM     22  C   UNL     1      42.228 -37.194 108.100  1.00  0.00     0.009 A 
ATOM     23  C   UNL     1      42.163 -39.130 109.542  1.00  0.00     0.009 A 
ATOM     24  C   UNL     1      40.934 -36.849 108.496  1.00  0.00     0.047 A 
ATOM     25  C   UNL     1      40.870 -38.782 109.940  1.00  0.00     0.047 A 
ATOM     26  C   UNL     1      40.246 -37.661 109.393  1.00  0.00     0.121 A 
BRANCH  26  27
ATOM     27  O   UNL     1      38.992 -37.359 109.839  1.00  0.00    -0.476 OA
BRANCH  27  28
ATOM     28  C   UNL     1      37.892 -37.938 109.108  1.00  0.00     0.199 C 
ATOM     29  C   UNL     1      38.281 -38.393 107.689  1.00  0.00     0.069 C 
ATOM     30  C   UNL     1      37.516 -39.189 109.925  1.00  0.00     0.069 C 
BRANCH  28  31
ATOM     31  C   UNL     1      36.632 -37.052 109.098  1.00  0.00     0.347 C 
ATOM     32  O   UNL     1      35.662 -37.132 109.834  1.00  0.00    -0.248 OA
BRANCH  31  33
ATOM     33  O   UNL     1      36.625 -36.128 108.111  1.00  0.00    -0.478 OA
ATOM     34  H   UNL     1      37.306 -35.480 108.396  1.00  0.00     0.296 HD
ENDBRANCH  31  33
ENDBRANCH  28  31
ENDBRANCH  27  28
ENDBRANCH  26  27
ENDBRANCH   1  21
TORSDOF 10
ENDMDL
MODEL 3
REMARK VINA RESULT:    -9.130      5.690      8.603
REMARK INTER + INTRA:         -14.876
REMARK INTER:                 -14.791
REMARK INTRA:                  -0.085
REMARK UNBOUND:                -0.675
REMARK SMILES Cc1nc(-c2ccc(C(F)(F)F)cc2)sc1CNCc1ccc(OC(C)(C)C(=O)O)cc1
REMARK SMILES IDX 19 1 18 2 17 4 16 5 2 6 3 7 4 8 15 9 1 10 5 11 6 12 14 13
REMARK SMILES IDX 7 14 13 15 8 16 9 17 10 18 11 19 12 20 20 21 21 22 32 23
REMARK SMILES IDX 22 24 31 25 23 26 24 27 25 28 26 29 27 30 28 31 29 32 30 33
REMARK H PARENT 18 3 30 34
ROOT
ATOM      1  C   UNL     1      37.184 -38.418 107.645  1.00  0.00     0.117 C 
ENDROOT
BRANCH   1   2
ATOM      2  N   UNL     1      38.453 -37.833 108.069  1.00  0.00    -0.308 NA
ATOM      3  H   UNL     1      38.299 -37.288 108.918  1.00  0.00     0.123 HD
BRANCH   2   4
ATOM      4  C   UNL     1      39.447 -38.869 108.334  1.00  0.00     0.130 C 
BRANCH   4   5
ATOM      5  C   UNL     1      40.502 -38.861 107.274  1.00  0.00     0.042 A 
ATOM      6  C   UNL     1      41.690 -38.154 107.215  1.00  0.00     0.053 A 
ATOM      7  N   UNL     1      42.437 -38.365 106.066  1.00  0.00    -0.241 NA
ATOM      8  C   UNL     1      41.836 -39.221 105.259  1.00  0.00     0.123 A 
ATOM      9  S   UNL     1      40.334 -39.814 105.858  1.00  0.00    -0.117 S 
ATOM     10  C   UNL     1      42.229 -37.228 108.246  1.00  0.00     0.068 C 
BRANCH   8  11
ATOM     11  C   UNL     1      42.394 -39.650 103.958  1.00  0.00     0.010 A 
ATOM     12  C   UNL     1      42.976 -40.909 103.737  1.00  0.00     0.012 A 
ATOM     13  C   UNL     1      42.337 -38.759 102.872  1.00  0.00     0.012 A 
ATOM     14  C   UNL     1      43.486 -41.259 102.481  1.00  0.00     0.014 A 
ATOM     15  C   UNL     1      42.846 -39.105 101.615  1.00  0.00     0.014 A 
ATOM     16  C   UNL     1      43.436 -40.359 101.408  1.00  0.00     0.056 A 
BRANCH  16  17
ATOM     17  C   UNL     1      43.966 -40.748 100.051  1.00  0.00     0.416 C 
ATOM     18  F   UNL     1      43.041 -40.629  99.058  1.00  0.00    -0.166 F 
ATOM     19  F   UNL     1      44.395 -42.039 100.012  1.00  0.00    -0.166 F 
ATOM     20  F   UNL     1      45.029 -39.989  99.657  1.00  0.00    -0.166 F 
ENDBRANCH  16  17
ENDBRANCH   8  11
ENDBRANCH   4   5
ENDBRANCH   2   4
ENDBRANCH   1   2
BRANCH   1  21
ATOM     21  C   UNL     1      36.913 -38.113 106.192  1.00  0.00    -0.034 A 
ATOM     22  C   UNL     1      36.226 -36.945 105.828  1.00  0.00     0.009 A 
ATOM     23  C   UNL     1      37.305 -39.007 105.186  1.00  0.00     0.009 A 
ATOM     24  C   UNL     1      35.963 -36.658 104.487  1.00  0.00     0.047 A 
ATOM     25  C   UNL     1      37.040 -38.721 103.845  1.00  0.00     0.047 A 
ATOM     26  C   UNL     1      36.399 -37.533 103.496  1.00  0.00     0.121 A 
BRANCH  26  27
ATOM     27  O   UNL     1      36.147 -37.321 102.171  1.00  0.00    -0.476 OA
BRANCH  27  28
ATOM     28  C   UNL     1      36.948 -36.318 101.516  1.00  0.00     0.199 C 
ATOM     29  C   UNL     1      36.205 -35.602 100.372  1.00  0.00     0.069 C 
ATOM     30  C   UNL     1      37.234 -35.284 102.621  1.00  0.00     0.069 C 
BRANCH  28  31
ATOM     31  C   UNL     1      38.326 -36.838 101.064  1.00  0.00     0.347 C 
ATOM     32  O   UNL     1      38.723 -37.993 101.070  1.00  0.00    -0.248 OA
BRANCH  31  33
ATOM     33  O   UNL     1      39.176 -35.860 100.676  1.00  0.00    -0.478 OA
ATOM     34  H   UNL     1      39.470 -36.150  99.785  1.00  0.00     0.296 HD
ENDBRANCH  31  33
ENDBRANCH  28  31
ENDBRANCH  27  28
ENDBRANCH  26  27
ENDBRANCH   1  21
TORSDOF 10
ENDMDL
MODEL 4
REMARK VINA RESULT:    -8.940      7.284     10.563
REMARK INTER + INTRA:         -14.580
REMARK INTER:                 -14.422
REMARK INTRA:                  -0.157
REMARK UNBOUND:                -0.675
REMARK SMILES Cc1nc(-c2ccc(C(F)(F)F)cc2)sc1CNCc1ccc(OC(C)(C)C(=O)O)cc1
REMARK SMILES IDX 19 1 18 2 17 4 16 5 2 6 3 7 4 8 15 9 1 10 5 11 6 12 14 13
REMARK SMILES IDX 7 14 13 15 8 16 9 17 10 18 11 19 12 20 20 21 21 22 32 23
REMARK SMILES IDX 22 24 31 25 23 26 24 27 25 28 26 29 27 30 28 31 29 32 30 33
REMARK H PARENT 18 3 30 34
ROOT
ATOM      1  C   UNL     1      35.686 -38.418 107.301  1.00  0.00     0.117 C 
ENDROOT
BRANCH   1   2
ATOM      2  N   UNL     1      36.942 -38.848 107.910  1.00  0.00    -0.308 NA
ATOM      3  H   UNL     1      37.344 -39.596 107.345  1.00  0.00     0.123 HD
BRANCH   2   4
ATOM      4  C   UNL     1      37.891 -37.742 107.994  1.00  0.00     0.130 C 
BRANCH   4   5
ATOM      5  C   UNL     1      39.198 -38.219 108.542  1.00  0.00     0.042 A 
ATOM      6  C   UNL     1      39.627 -38.302 109.856  1.00  0.00     0.053 A 
ATOM      7  N   UNL     1      40.920 -38.777 110.017  1.00  0.00    -0.241 NA
ATOM      8  C   UNL     1      41.472 -39.057 108.850  1.00  0.00     0.123 A 
ATOM      9  S   UNL     1      40.446 -38.759 107.499  1.00  0.00    -0.117 S 
ATOM     10  C   UNL     1      38.848 -37.952 111.072  1.00  0.00     0.068 C 
BRANCH   8  11
ATOM     11  C   UNL     1      42.844 -39.588 108.700  1.00  0.00     0.010 A 
ATOM     12  C   UNL     1      43.859 -39.405 109.654  1.00  0.00     0.012 A 
ATOM     13  C   UNL     1      43.160 -40.327 107.547  1.00  0.00     0.012 A 
ATOM     14  C   UNL     1      45.141 -39.935 109.457  1.00  0.00     0.014 A 
ATOM     15  C   UNL     1      44.440 -40.857 107.345  1.00  0.00     0.014 A 
ATOM     16  C   UNL     1      45.448 -40.659 108.297  1.00  0.00     0.056 A 
BRANCH  16  17
ATOM     17  C   UNL     1      46.823 -41.246 108.098  1.00  0.00     0.416 C 
ATOM     18  F   UNL     1      47.310 -41.062 106.839  1.00  0.00    -0.166 F 
ATOM     19  F   UNL     1      46.850 -42.590 108.318  1.00  0.00    -0.166 F 
ATOM     20  F   UNL     1      47.757 -40.712 108.936  1.00  0.00    -0.166 F 
ENDBRANCH  16  17
ENDBRANCH   8  11
ENDBRANCH   4   5
ENDBRANCH   2   4
ENDBRANCH   1   2
BRANCH   1  21
ATOM     21  C   UNL     1      35.881 -38.106 105.837  1.00  0.00    -0.034 A 
ATOM     22  C   UNL     1      35.472 -36.869 105.315  1.00  0.00     0.009 A 
ATOM     23  C   UNL     1      36.432 -39.057 104.968  1.00  0.00     0.009 A 
ATOM     24  C   UNL     1      35.641 -36.574 103.960  1.00  0.00     0.047 A 
ATOM     25  C   UNL     1      36.598 -38.763 103.613  1.00  0.00     0.047 A 
ATOM     26  C   UNL     1      36.232 -37.511 103.117  1.00  0.00     0.121 A 
BRANCH  26  27
ATOM     27  O   UNL     1      36.396 -37.292 101.780  1.00  0.00    -0.476 OA
BRANCH  27  28
ATOM     28  C   UNL     1      37.235 -36.180 101.409  1.00  0.00     0.199 C 
ATOM     29  C   UNL     1      37.502 -35.208 102.574  1.00  0.00     0.069 C 
ATOM     30  C   UNL     1      38.572 -36.833 101.014  1.00  0.00     0.069 C 
BRANCH  28  31
ATOM     31  C   UNL     1      36.744 -35.440 100.150  1.00  0.00     0.347 C 
ATOM     32  O   UNL     1      35.641 -35.509  99.630  1.00  0.00    -0.248 OA
BRANCH  31  33
ATOM     33  O   UNL     1      37.696 -34.682  99.558  1.00  0.00    -0.478 OA
ATOM     34  H   UNL     1      37.530 -33.783  99.918  1.00  0.00     0.296 HD
ENDBRANCH  31  33
ENDBRANCH  28  31
ENDBRANCH  27  28
ENDBRANCH  26  27
ENDBRANCH   1  21
TORSDOF 10
ENDMDL
MODEL 5
REMARK VINA RESULT:    -8.887      1.563      2.497
REMARK INTER + INTRA:         -14.498
REMARK INTER:                 -14.013
REMARK INTRA:                  -0.484
REMARK UNBOUND:                -0.675
REMARK SMILES Cc1nc(-c2ccc(C(F)(F)F)cc2)sc1CNCc1ccc(OC(C)(C)C(=O)O)cc1
REMARK SMILES IDX 19 1 18 2 17 4 16 5 2 6 3 7 4 8 15 9 1 10 5 11 6 12 14 13
REMARK SMILES IDX 7 14 13 15 8 16 9 17 10 18 11 19 12 20 20 21 21 22 32 23
REMARK SMILES IDX 22 24 31 25 23 26 24 27 25 28 26 29 27 30 28 31 29 32 30 33
REMARK H PARENT 18 3 30 34
ROOT
ATOM      1  C   UNL     1      42.925 -38.639 108.729  1.00  0.00     0.117 C 
ENDROOT
BRANCH   1   2
ATOM      2  N   UNL     1      42.372 -38.483 107.386  1.00  0.00    -0.308 NA
ATOM      3  H   UNL     1      43.125 -38.232 106.746  1.00  0.00     0.123 HD
BRANCH   2   4
ATOM      4  C   UNL     1      41.743 -39.720 106.930  1.00  0.00     0.130 C 
BRANCH   4   5
ATOM      5  C   UNL     1      42.445 -40.244 105.718  1.00  0.00     0.042 A 
ATOM      6  C   UNL     1      43.523 -41.108 105.626  1.00  0.00     0.053 A 
ATOM      7  N   UNL     1      43.944 -41.377 104.333  1.00  0.00    -0.241 NA
ATOM      8  C   UNL     1      43.203 -40.734 103.448  1.00  0.00     0.123 A 
ATOM      9  S   UNL     1      41.955 -39.773 104.144  1.00  0.00    -0.117 S 
ATOM     10  C   UNL     1      44.238 -41.765 106.752  1.00  0.00     0.068 C 
BRANCH   8  11
ATOM     11  C   UNL     1      43.407 -40.829 101.986  1.00  0.00     0.010 A 
ATOM     12  C   UNL     1      44.219 -41.797 101.374  1.00  0.00     0.012 A 
ATOM     13  C   UNL     1      42.751 -39.907 101.152  1.00  0.00     0.012 A 
ATOM     14  C   UNL     1      44.372 -41.838  99.982  1.00  0.00     0.014 A 
ATOM     15  C   UNL     1      42.902 -39.943  99.761  1.00  0.00     0.014 A 
ATOM     16  C   UNL     1      43.723 -40.906  99.161  1.00  0.00     0.056 A 
BRANCH  16  17
ATOM     17  C   UNL     1      43.873 -40.966  97.661  1.00  0.00     0.416 C 
ATOM     18  F   UNL     1      43.651 -42.209  97.148  1.00  0.00    -0.166 F 
ATOM     19  F   UNL     1      45.120 -40.607  97.250  1.00  0.00    -0.166 F 
ATOM     20  F   UNL     1      43.010 -40.137  97.006  1.00  0.00    -0.166 F 
ENDBRANCH  16  17
ENDBRANCH   8  11
ENDBRANCH   4   5
ENDBRANCH   2   4
ENDBRANCH   1   2
BRANCH   1  21
ATOM     21  C   UNL     1      44.365 -38.186 108.771  1.00  0.00    -0.034 A 
ATOM     22  C   UNL     1      45.272 -38.618 107.792  1.00  0.00     0.009 A 
ATOM     23  C   UNL     1      44.829 -37.365 109.807  1.00  0.00     0.009 A 
ATOM     24  C   UNL     1      46.608 -38.212 107.827  1.00  0.00     0.047 A 
ATOM     25  C   UNL     1      46.165 -36.961 109.843  1.00  0.00     0.047 A 
ATOM     26  C   UNL     1      47.044 -37.359 108.836  1.00  0.00     0.121 A 
BRANCH  26  27
ATOM     27  O   UNL     1      48.343 -36.951 108.939  1.00  0.00    -0.476 OA
BRANCH  27  28
ATOM     28  C   UNL     1      48.700 -35.751 108.226  1.00  0.00     0.199 C 
ATOM     29  C   UNL     1      50.180 -35.714 107.804  1.00  0.00     0.069 C 
ATOM     30  C   UNL     1      47.839 -35.803 106.949  1.00  0.00     0.069 C 
BRANCH  28  31
ATOM     31  C   UNL     1      48.283 -34.461 108.957  1.00  0.00     0.347 C 
ATOM     32  O   UNL     1      48.401 -34.210 110.147  1.00  0.00    -0.248 OA
BRANCH  31  33
ATOM     33  O   UNL     1      47.673 -33.555 108.159  1.00  0.00    -0.478 OA
ATOM     34  H   UNL     1      46.828 -33.370 108.624  1.00  0.00     0.296 HD
ENDBRANCH  31  33
ENDBRANCH  28  31
ENDBRANCH  27  28
ENDBRANCH  26  27
ENDBRANCH   1  21
TORSDOF 10
ENDMDL
MODEL 6
REMARK VINA RESULT:    -8.786      5.969      9.664
REMARK INTER + INTRA:         -14.341
REMARK INTER:                 -13.587
REMARK INTRA:                  -0.753
REMARK UNBOUND:                -0.675
REMARK SMILES Cc1nc(-c2ccc(C(F)(F)F)cc2)sc1CNCc1ccc(OC(C)(C)C(=O)O)cc1
REMARK SMILES IDX 19 1 18 2 17 4 16 5 2 6 3 7 4 8 15 9 1 10 5 11 6 12 14 13
REMARK SMILES IDX 7 14 13 15 8 16 9 17 10 18 11 19 12 20 20 21 21 22 32 23
REMARK SMILES IDX 22 24 31 25 23 26 24 27 25 28 26 29 27 30 28 31 29 32 30 33
REMARK H PARENT 18 3 30 34
ROOT
ATOM      1  C   UNL     1      44.144 -41.084 106.041  1.00  0.00     0.117 C 
ENDROOT
BRANCH   1   2
ATOM      2  N   UNL     1      45.464 -41.558 106.451  1.00  0.00    -0.308 NA
ATOM      3  H   UNL     1      46.175 -41.041 105.935  1.00  0.00     0.123 HD
BRANCH   2   4
ATOM      4  C   UNL     1      45.669 -41.363 107.883  1.00  0.00     0.130 C 
BRANCH   4   5
ATOM      5  C   UNL     1      45.884 -39.914 108.186  1.00  0.00     0.042 A 
ATOM      6  C   UNL     1      45.091 -39.034 108.901  1.00  0.00     0.053 A 
ATOM      7  N   UNL     1      45.579 -37.739 108.975  1.00  0.00    -0.241 NA
ATOM      8  C   UNL     1      46.728 -37.626 108.333  1.00  0.00     0.123 A 
ATOM      9  S   UNL     1      47.273 -39.091 107.609  1.00  0.00    -0.117 S 
ATOM     10  C   UNL     1      43.809 -39.344 109.587  1.00  0.00     0.068 C 
BRANCH   8  11
ATOM     11  C   UNL     1      47.496 -36.365 108.243  1.00  0.00     0.010 A 
ATOM     12  C   UNL     1      47.677 -35.484 109.322  1.00  0.00     0.012 A 
ATOM     13  C   UNL     1      48.090 -36.023 107.016  1.00  0.00     0.012 A 
ATOM     14  C   UNL     1      48.417 -34.304 109.176  1.00  0.00     0.014 A 
ATOM     15  C   UNL     1      48.830 -34.844 106.865  1.00  0.00     0.014 A 
ATOM     16  C   UNL     1      48.994 -33.966 107.944  1.00  0.00     0.056 A 
BRANCH  16  17
ATOM     17  C   UNL     1      49.809 -32.705 107.796  1.00  0.00     0.416 C 
ATOM     18  F   UNL     1      49.085 -31.649 107.332  1.00  0.00    -0.166 F 
ATOM     19  F   UNL     1      50.848 -32.859 106.930  1.00  0.00    -0.166 F 
ATOM     20  F   UNL     1      50.360 -32.287 108.972  1.00  0.00    -0.166 F 
ENDBRANCH  16  17
ENDBRANCH   8  11
ENDBRANCH   4   5
ENDBRANCH   2   4
ENDBRANCH   1   2
BRANCH   1  21
ATOM     21  C   UNL     1      43.927 -41.318 104.565  1.00  0.00    -0.034 A 
ATOM     22  C   UNL     1      42.971 -40.568 103.862  1.00  0.00     0.009 A 
ATOM     23  C   UNL     1      44.643 -42.310 103.883  1.00  0.00     0.009 A 
ATOM     24  C   UNL     1      42.757 -40.783 102.498  1.00  0.00     0.047 A 
ATOM     25  C   UNL     1      44.426 -42.526 102.520  1.00  0.00     0.047 A 
ATOM     26  C   UNL     1      43.508 -41.741 101.823  1.00  0.00     0.121 A 
BRANCH  26  27
ATOM     27  O   UNL     1      43.323 -42.014 100.499  1.00  0.00    -0.476 OA
BRANCH  27  28
ATOM     28  C   UNL     1      44.015 -41.164  99.563  1.00  0.00     0.199 C 
ATOM     29  C   UNL     1      44.958 -40.155 100.245  1.00  0.00     0.069 C 
ATOM     30  C   UNL     1      44.874 -42.137  98.734  1.00  0.00     0.069 C 
BRANCH  28  31
ATOM     31  C   UNL     1      43.075 -40.475  98.556  1.00  0.00     0.347 C 
ATOM     32  O   UNL     1      43.052 -40.618  97.343  1.00  0.00    -0.248 OA
BRANCH  31  33
ATOM     33  O   UNL     1      42.234 -39.579  99.121  1.00  0.00    -0.478 OA
ATOM     34  H   UNL     1      41.559 -39.425  98.424  1.00  0.00     0.296 HD
ENDBRANCH  31  33
ENDBRANCH  28  31
ENDBRANCH  27  28
ENDBRANCH  26  27
ENDBRANCH   1  21
TORSDOF 10
ENDMDL
MODEL 7
REMARK VINA RESULT:    -8.730      5.784      9.902
REMARK INTER + INTRA:         -14.253
REMARK INTER:                 -13.634
REMARK INTRA:                  -0.619
REMARK UNBOUND:                -0.675
REMARK SMILES Cc1nc(-c2ccc(C(F)(F)F)cc2)sc1CNCc1ccc(OC(C)(C)C(=O)O)cc1
REMARK SMILES IDX 19 1 18 2 17 4 16 5 2 6 3 7 4 8 15 9 1 10 5 11 6 12 14 13
REMARK SMILES IDX 7 14 13 15 8 16 9 17 10 18 11 19 12 20 20 21 21 22 32 23
REMARK SMILES IDX 22 24 31 25 23 26 24 27 25 28 26 29 27 30 28 31 29 32 30 33
REMARK H PARENT 18 3 30 34
ROOT
ATOM      1  C   UNL     1      42.036 -40.841 104.441  1.00  0.00     0.117 C 
ENDROOT
BRANCH   1   2
ATOM      2  N   UNL     1      42.591 -40.000 105.498  1.00  0.00    -0.308 NA
ATOM      3  H   UNL     1      41.830 -39.500 105.958  1.00  0.00     0.123 HD
BRANCH   2   4
ATOM      4  C   UNL     1      43.307 -40.802 106.486  1.00  0.00     0.130 C 
BRANCH   4   5
ATOM      5  C   UNL     1      44.527 -40.076 106.959  1.00  0.00     0.042 A 
ATOM      6  C   UNL     1      45.741 -40.579 107.395  1.00  0.00     0.053 A 
ATOM      7  N   UNL     1      46.662 -39.620 107.786  1.00  0.00    -0.241 NA
ATOM      8  C   UNL     1      46.167 -38.403 107.649  1.00  0.00     0.123 A 
ATOM      9  S   UNL     1      44.558 -38.364 107.036  1.00  0.00    -0.117 S 
ATOM     10  C   UNL     1      46.139 -42.010 107.467  1.00  0.00     0.068 C 
BRANCH   8  11
ATOM     11  C   UNL     1      46.919 -37.172 107.979  1.00  0.00     0.010 A 
ATOM     12  C   UNL     1      46.945 -36.595 109.259  1.00  0.00     0.012 A 
ATOM     13  C   UNL     1      47.658 -36.539 106.964  1.00  0.00     0.012 A 
ATOM     14  C   UNL     1      47.677 -35.428 109.512  1.00  0.00     0.014 A 
ATOM     15  C   UNL     1      48.390 -35.372 107.212  1.00  0.00     0.014 A 
ATOM     16  C   UNL     1      48.400 -34.798 108.489  1.00  0.00     0.056 A 
BRANCH  16  17
ATOM     17  C   UNL     1      49.205 -33.554 108.770  1.00  0.00     0.416 C 
ATOM     18  F   UNL     1      50.447 -33.818 109.265  1.00  0.00    -0.166 F 
ATOM     19  F   UNL     1      48.603 -32.741 109.681  1.00  0.00    -0.166 F 
ATOM     20  F   UNL     1      49.406 -32.788 107.660  1.00  0.00    -0.166 F 
ENDBRANCH  16  17
ENDBRANCH   8  11
ENDBRANCH   4   5
ENDBRANCH   2   4
ENDBRANCH   1   2
BRANCH   1  21
ATOM     21  C   UNL     1      42.826 -40.687 103.164  1.00  0.00    -0.034 A 
ATOM     22  C   UNL     1      42.799 -39.475 102.456  1.00  0.00     0.009 A 
ATOM     23  C   UNL     1      43.563 -41.758 102.643  1.00  0.00     0.009 A 
ATOM     24  C   UNL     1      43.520 -39.325 101.269  1.00  0.00     0.047 A 
ATOM     25  C   UNL     1      44.282 -41.608 101.455  1.00  0.00     0.047 A 
ATOM     26  C   UNL     1      44.285 -40.384 100.787  1.00  0.00     0.121 A 
BRANCH  26  27
ATOM     27  O   UNL     1      44.987 -40.306  99.619  1.00  0.00    -0.476 OA
BRANCH  27  28
ATOM     28  C   UNL     1      44.289 -40.699  98.421  1.00  0.00     0.199 C 
ATOM     29  C   UNL     1      42.770 -40.453  98.497  1.00  0.00     0.069 C 
ATOM     30  C   UNL     1      44.868 -39.778  97.330  1.00  0.00     0.069 C 
BRANCH  28  31
ATOM     31  C   UNL     1      44.613 -42.136  97.970  1.00  0.00     0.347 C 
ATOM     32  O   UNL     1      45.510 -42.857  98.377  1.00  0.00    -0.248 OA
BRANCH  31  33
ATOM     33  O   UNL     1      43.819 -42.584  96.971  1.00  0.00    -0.478 OA
ATOM     34  H   UNL     1      44.368 -43.271  96.531  1.00  0.00     0.296 HD
ENDBRANCH  31  33
ENDBRANCH  28  31
ENDBRANCH  27  28
ENDBRANCH  26  27
ENDBRANCH   1  21
TORSDOF 10
ENDMDL
MODEL 8
REMARK VINA RESULT:    -8.691      6.395      9.570
REMARK INTER + INTRA:         -14.194
REMARK INTER:                 -13.539
REMARK INTRA:                  -0.654
REMARK UNBOUND:                -0.675
REMARK SMILES Cc1nc(-c2ccc(C(F)(F)F)cc2)sc1CNCc1ccc(OC(C)(C)C(=O)O)cc1
REMARK SMILES IDX 19 1 18 2 17 4 16 5 2 6 3 7 4 8 15 9 1 10 5 11 6 12 14 13
REMARK SMILES IDX 7 14 13 15 8 16 9 17 10 18 11 19 12 20 20 21 21 22 32 23
REMARK SMILES IDX 22 24 31 25 23 26 24 27 25 28 26 29 27 30 28 31 29 32 30 33
REMARK H PARENT 18 3 30 34
ROOT
ATOM      1  C   UNL     1      44.433 -41.526 106.357  1.00  0.00     0.117 C 
ENDROOT
BRANCH   1   2
ATOM      2  N   UNL     1      45.476 -40.532 106.598  1.00  0.00    -0.308 NA
ATOM      3  H   UNL     1      46.180 -40.607 105.865  1.00  0.00     0.123 HD
BRANCH   2   4
ATOM      4  C   UNL     1      44.922 -39.180 106.599  1.00  0.00     0.130 C 
BRANCH   4   5
ATOM      5  C   UNL     1      43.782 -39.087 107.563  1.00  0.00     0.042 A 
ATOM      6  C   UNL     1      43.754 -39.331 108.925  1.00  0.00     0.053 A 
ATOM      7  N   UNL     1      42.513 -39.167 109.521  1.00  0.00    -0.241 NA
ATOM      8  C   UNL     1      41.605 -38.800 108.634  1.00  0.00     0.123 A 
ATOM      9  S   UNL     1      42.216 -38.634 107.032  1.00  0.00    -0.117 S 
ATOM     10  C   UNL     1      44.902 -39.726 109.783  1.00  0.00     0.068 C 
BRANCH   8  11
ATOM     11  C   UNL     1      40.188 -38.542 108.972  1.00  0.00     0.010 A 
ATOM     12  C   UNL     1      39.168 -38.427 108.014  1.00  0.00     0.012 A 
ATOM     13  C   UNL     1      39.830 -38.411 110.325  1.00  0.00     0.012 A 
ATOM     14  C   UNL     1      37.842 -38.184 108.396  1.00  0.00     0.014 A 
ATOM     15  C   UNL     1      38.506 -38.168 110.711  1.00  0.00     0.014 A 
ATOM     16  C   UNL     1      37.498 -38.042 109.747  1.00  0.00     0.056 A 
BRANCH  16  17
ATOM     17  C   UNL     1      36.066 -37.802 110.155  1.00  0.00     0.416 C 
ATOM     18  F   UNL     1      35.458 -38.912 110.662  1.00  0.00    -0.166 F 
ATOM     19  F   UNL     1      35.291 -37.393 109.113  1.00  0.00    -0.166 F 
ATOM     20  F   UNL     1      35.939 -36.841 111.115  1.00  0.00    -0.166 F 
ENDBRANCH  16  17
ENDBRANCH   8  11
ENDBRANCH   4   5
ENDBRANCH   2   4
ENDBRANCH   1   2
BRANCH   1  21
ATOM     21  C   UNL     1      44.174 -41.682 104.878  1.00  0.00    -0.034 A 
ATOM     22  C   UNL     1      43.032 -41.112 104.295  1.00  0.00     0.009 A 
ATOM     23  C   UNL     1      45.043 -42.429 104.072  1.00  0.00     0.009 A 
ATOM     24  C   UNL     1      42.779 -41.258 102.929  1.00  0.00     0.047 A 
ATOM     25  C   UNL     1      44.788 -42.577 102.707  1.00  0.00     0.047 A 
ATOM     26  C   UNL     1      43.675 -41.965 102.132  1.00  0.00     0.121 A 
BRANCH  26  27
ATOM     27  O   UNL     1      43.466 -42.164 100.798  1.00  0.00    -0.476 OA
BRANCH  27  28
ATOM     28  C   UNL     1      43.898 -41.111  99.914  1.00  0.00     0.199 C 
ATOM     29  C   UNL     1      44.675 -39.995 100.637  1.00  0.00     0.069 C 
ATOM     30  C   UNL     1      44.863 -41.812  98.939  1.00  0.00     0.069 C 
BRANCH  28  31
ATOM     31  C   UNL     1      42.763 -40.544  99.041  1.00  0.00     0.347 C 
ATOM     32  O   UNL     1      42.507 -40.824  97.881  1.00  0.00    -0.248 OA
BRANCH  31  33
ATOM     33  O   UNL     1      42.026 -39.591  99.658  1.00  0.00    -0.478 OA
ATOM     34  H   UNL     1      41.277 -40.095 100.046  1.00  0.00     0.296 HD
ENDBRANCH  31  33
ENDBRANCH  28  31
ENDBRANCH  27  28
ENDBRANCH  26  27
ENDBRANCH   1  21
TORSDOF 10
ENDMDL
MODEL 9
REMARK VINA RESULT:    -8.547      2.403      3.586
REMARK INTER + INTRA:         -13.969
REMARK INTER:                 -13.122
REMARK INTRA:                  -0.847
REMARK UNBOUND:                -0.675
REMARK SMILES Cc1nc(-c2ccc(C(F)(F)F)cc2)sc1CNCc1ccc(OC(C)(C)C(=O)O)cc1
REMARK SMILES IDX 19 1 18 2 17 4 16 5 2 6 3 7 4 8 15 9 1 10 5 11 6 12 14 13
REMARK SMILES IDX 7 14 13 15 8 16 9 17 10 18 11 19 12 20 20 21 21 22 32 23
REMARK SMILES IDX 22 24 31 25 23 26 24 27 25 28 26 29 27 30 28 31 29 32 30 33
REMARK H PARENT 18 3 30 34
ROOT
ATOM      1  C   UNL     1      41.632 -38.438 108.789  1.00  0.00     0.117 C 
ENDROOT
BRANCH   1   2
ATOM      2  N   UNL     1      40.760 -38.454 107.618  1.00  0.00    -0.308 NA
ATOM      3  H   UNL     1      41.148 -37.833 106.908  1.00  0.00     0.123 HD
BRANCH   2   4
ATOM      4  C   UNL     1      40.643 -39.802 107.069  1.00  0.00     0.130 C 
BRANCH   4   5
ATOM      5  C   UNL     1      40.787 -39.772 105.581  1.00  0.00     0.042 A 
ATOM      6  C   UNL     1      39.855 -39.447 104.609  1.00  0.00     0.053 A 
ATOM      7  N   UNL     1      40.316 -39.542 103.306  1.00  0.00    -0.241 NA
ATOM      8  C   UNL     1      41.579 -39.928 103.275  1.00  0.00     0.123 A 
ATOM      9  S   UNL     1      42.270 -40.193 104.830  1.00  0.00    -0.117 S 
ATOM     10  C   UNL     1      38.452 -39.007 104.831  1.00  0.00     0.068 C 
BRANCH   8  11
ATOM     11  C   UNL     1      42.349 -40.111 102.025  1.00  0.00     0.010 A 
ATOM     12  C   UNL     1      43.448 -40.977 101.908  1.00  0.00     0.012 A 
ATOM     13  C   UNL     1      41.963 -39.390 100.882  1.00  0.00     0.012 A 
ATOM     14  C   UNL     1      44.138 -41.111 100.696  1.00  0.00     0.014 A 
ATOM     15  C   UNL     1      42.650 -39.519  99.669  1.00  0.00     0.014 A 
ATOM     16  C   UNL     1      43.752 -40.377  99.566  1.00  0.00     0.056 A 
BRANCH  16  17
ATOM     17  C   UNL     1      44.483 -40.540  98.256  1.00  0.00     0.416 C 
ATOM     18  F   UNL     1      45.242 -41.670  98.202  1.00  0.00    -0.166 F 
ATOM     19  F   UNL     1      45.331 -39.505  98.004  1.00  0.00    -0.166 F 
ATOM     20  F   UNL     1      43.645 -40.606  97.183  1.00  0.00    -0.166 F 
ENDBRANCH  16  17
ENDBRANCH   8  11
ENDBRANCH   4   5
ENDBRANCH   2   4
ENDBRANCH   1   2
BRANCH   1  21
ATOM     21  C   UNL     1      43.059 -38.738 108.398  1.00  0.00    -0.034 A 
ATOM     22  C   UNL     1      43.779 -39.744 109.062  1.00  0.00     0.009 A 
ATOM     23  C   UNL     1      43.701 -37.994 107.400  1.00  0.00     0.009 A 
ATOM     24  C   UNL     1      45.102 -40.024 108.713  1.00  0.00     0.047 A 
ATOM     25  C   UNL     1      45.025 -38.273 107.053  1.00  0.00     0.047 A 
ATOM     26  C   UNL     1      45.713 -39.307 107.687  1.00  0.00     0.121 A 
BRANCH  26  27
ATOM     27  O   UNL     1      47.011 -39.516 107.322  1.00  0.00    -0.476 OA
BRANCH  27  28
ATOM     28  C   UNL     1      48.001 -38.687 107.961  1.00  0.00     0.199 C 
ATOM     29  C   UNL     1      47.439 -37.875 109.143  1.00  0.00     0.069 C 
ATOM     30  C   UNL     1      49.030 -39.691 108.517  1.00  0.00     0.069 C 
BRANCH  28  31
ATOM     31  C   UNL     1      48.779 -37.796 106.975  1.00  0.00     0.347 C 
ATOM     32  O   UNL     1      49.696 -38.127 106.238  1.00  0.00    -0.248 OA
BRANCH  31  33
ATOM     33  O   UNL     1      48.403 -36.497 107.002  1.00  0.00    -0.478 OA
ATOM     34  H   UNL     1      47.428 -36.537 106.890  1.00  0.00     0.296 HD
ENDBRANCH  31  33
ENDBRANCH  28  31
ENDBRANCH  27  28
ENDBRANCH  26  27
ENDBRANCH   1  21
TORSDOF 10
ENDMDL
