REMARK VINA RESULT:    -8.915      2.871      4.246
REMARK INTER + INTRA:         -17.240
REMARK INTER:                 -15.511
REMARK INTRA:                  -1.729
REMARK UNBOUND:                -1.810
REMARK SMILES CCCc1c(OCCCn2ccc3c(OCC(=O)O)cccc32)ccc2cc(C(=O)c3ccccc3)ccc12
REMARK SMILES IDX 8 1 7 2 6 3 5 4 4 5 39 6 24 7 38 8 26 9 25 10 37 11 27 12
REMARK SMILES IDX 28 13 3 14 2 15 1 16 29 17 30 18 31 19 32 20 36 21 33 22
REMARK SMILES IDX 35 23 34 24 9 25 10 26 11 27 23 28 12 29 22 30 13 31 21 32
REMARK SMILES IDX 14 33 20 34 15 35 16 36 17 37 18 38 19 39
REMARK H PARENT 19 40
ROOT
ATOM      1  C   UNL     1      -8.519  -8.432 -21.412  1.00  0.00     0.063 C 
ENDROOT
BRANCH   1   2
ATOM      2  C   UNL     1      -8.608  -9.274 -22.682  1.00  0.00     0.231 C 
BRANCH   2   3
ATOM      3  O   UNL     1      -8.212  -8.451 -23.779  1.00  0.00    -0.493 OA
BRANCH   3   4
ATOM      4  C   UNL     1      -8.990  -8.474 -24.909  1.00  0.00     0.123 A 
ATOM      5  C   UNL     1      -8.361  -8.937 -26.089  1.00  0.00     0.002 A 
ATOM      6  C   UNL     1      -9.081  -8.954 -27.324  1.00  0.00    -0.011 A 
ATOM      7  C   UNL     1     -10.323  -8.067 -24.947  1.00  0.00     0.047 A 
ATOM      8  C   UNL     1      -8.529  -9.367 -28.561  1.00  0.00     0.010 A 
ATOM      9  C   UNL     1     -10.436  -8.535 -27.330  1.00  0.00    -0.017 A 
ATOM     10  C   UNL     1     -11.037  -8.105 -26.144  1.00  0.00     0.012 A 
ATOM     11  C   UNL     1      -9.276  -9.368 -29.742  1.00  0.00     0.013 A 
ATOM     12  C   UNL     1     -11.182  -8.544 -28.521  1.00  0.00     0.021 A 
ATOM     13  C   UNL     1     -10.601  -8.941 -29.728  1.00  0.00     0.023 A 
BRANCH   5  14
ATOM     14  C   UNL     1      -6.908  -9.386 -26.017  1.00  0.00     0.040 C 
BRANCH  14  15
ATOM     15  C   UNL     1      -6.775 -10.787 -25.417  1.00  0.00     0.001 C 
ATOM     16  C   UNL     1      -5.648 -10.849 -24.399  1.00  0.00     0.004 C 
ENDBRANCH  14  15
ENDBRANCH   5  14
BRANCH  13  17
ATOM     17  C   UNL     1     -11.372  -8.967 -30.997  1.00  0.00     0.193 C 
ATOM     18  O   UNL     1     -10.990  -8.283 -31.943  1.00  0.00    -0.289 OA
BRANCH  17  19
ATOM     19  C   UNL     1     -12.586  -9.807 -31.151  1.00  0.00     0.022 A 
ATOM     20  C   UNL     1     -12.489 -11.175 -30.880  1.00  0.00     0.012 A 
ATOM     21  C   UNL     1     -13.801  -9.270 -31.595  1.00  0.00     0.012 A 
ATOM     22  C   UNL     1     -13.608 -11.998 -31.015  1.00  0.00     0.001 A 
ATOM     23  C   UNL     1     -14.919 -10.096 -31.729  1.00  0.00     0.001 A 
ATOM     24  C   UNL     1     -14.823 -11.457 -31.435  1.00  0.00     0.000 A 
ENDBRANCH  17  19
ENDBRANCH  13  17
ENDBRANCH   3   4
ENDBRANCH   2   3
ENDBRANCH   1   2
BRANCH   1  25
ATOM     25  C   UNL     1      -7.083  -8.175 -20.963  1.00  0.00     0.125 C 
BRANCH  25  26
ATOM     26  N   UNL     1      -6.772  -6.766 -20.785  1.00  0.00    -0.347 N 
ATOM     27  C   UNL     1      -7.712  -5.770 -20.827  1.00  0.00     0.087 A 
ATOM     28  C   UNL     1      -5.518  -6.232 -20.557  1.00  0.00     0.052 A 
ATOM     29  C   UNL     1      -7.069  -4.574 -20.612  1.00  0.00     0.032 A 
ATOM     30  C   UNL     1      -4.257  -6.838 -20.435  1.00  0.00     0.027 A 
ATOM     31  C   UNL     1      -5.682  -4.847 -20.437  1.00  0.00     0.042 A 
ATOM     32  C   UNL     1      -3.157  -6.018 -20.172  1.00  0.00     0.006 A 
ATOM     33  C   UNL     1      -4.554  -4.028 -20.197  1.00  0.00     0.129 A 
ATOM     34  C   UNL     1      -3.300  -4.637 -20.048  1.00  0.00     0.047 A 
BRANCH  33  35
ATOM     35  O   UNL     1      -4.760  -2.677 -20.079  1.00  0.00    -0.481 OA
BRANCH  35  36
ATOM     36  C   UNL     1      -4.376  -1.909 -21.215  1.00  0.00     0.351 C 
BRANCH  36  37
ATOM     37  C   UNL     1      -3.984  -0.506 -20.793  1.00  0.00     0.341 C 
ATOM     38  O   UNL     1      -4.575   0.252 -20.039  1.00  0.00    -0.248 OA
BRANCH  37  39
ATOM     39  O   UNL     1      -2.826  -0.110 -21.370  1.00  0.00    -0.479 OA
ATOM     40  H   UNL     1      -2.727   0.818 -21.069  1.00  0.00     0.296 HD
ENDBRANCH  37  39
ENDBRANCH  36  37
ENDBRANCH  35  36
ENDBRANCH  33  35
ENDBRANCH  25  26
ENDBRANCH   1  25
TORSDOF 13
