REMARK SMILES COc1cccc2cc[n+](-c3cccc(Cl)c3)cc12
REMARK SMILES IDX 3 1 4 2 5 3 6 4 7 5 8 6 9 7 10 8 18 9 19 10 2 11 1 12 11 13
REMARK SMILES IDX 12 14 17 15 13 16 15 17 14 18 16 19
REMARK H PARENT
REMARK INDEX MAP 3 1 4 2 5 3 6 4 7 5 8 6 9 7 10 8 18 9 19 10 2 11 1 12 11 13
REMARK INDEX MAP 12 14 17 15 13 16 15 17 14 18 16 19
ROOT
ATOM      1  C   UNL     1      -9.926 -43.487  28.880  1.00  0.00     0.132 A 
ATOM      2  C   UNL     1      -9.006 -44.102  29.734  1.00  0.00     0.047 A 
ATOM      3  C   UNL     1      -9.252 -45.384  30.224  1.00  0.00     0.004 A 
ATOM      4  C   UNL     1     -10.415 -46.063  29.867  1.00  0.00     0.009 A 
ATOM      5  C   UNL     1     -11.350 -45.464  29.011  1.00  0.00    -0.003 A 
ATOM      6  C   UNL     1     -12.519 -46.130  28.641  1.00  0.00     0.080 A 
ATOM      7  C   UNL     1     -13.428 -45.511  27.792  1.00  0.00     0.315 A 
ATOM      8  N   UNL     1     -13.201 -44.265  27.312  1.00  0.00    -0.166 N 
ATOM      9  C   UNL     1     -12.068 -43.605  27.660  1.00  0.00     0.327 A 
ATOM     10  C   UNL     1     -11.111 -44.170  28.514  1.00  0.00     0.088 A 
ENDROOT
BRANCH   1  11
ATOM     11  O   UNL     1      -9.775 -42.230  28.350  1.00  0.00    -0.496 OA
ATOM     12  C   UNL     1      -8.719 -42.038  27.411  1.00  0.00     0.278 C 
ENDBRANCH   1  11
BRANCH   8  13
ATOM     13  C   UNL     1     -14.166 -43.635  26.428  1.00  0.00     0.212 A 
ATOM     14  C   UNL     1     -13.794 -43.305  25.119  1.00  0.00     0.080 A 
ATOM     15  C   UNL     1     -15.454 -43.361  26.896  1.00  0.00     0.100 A 
ATOM     16  C   UNL     1     -14.723 -42.695  24.272  1.00  0.00     0.008 A 
ATOM     17  C   UNL     1     -16.370 -42.754  26.038  1.00  0.00     0.047 A 
ATOM     18  C   UNL     1     -16.011 -42.420  24.732  1.00  0.00     0.021 A 
ATOM     19  Cl  UNL     1     -17.959 -42.419  26.599  1.00  0.00    -0.084 Cl
ENDBRANCH   8  13
TORSDOF 2
