MODEL 1
REMARK VINA RESULT:   -10.874      0.000      0.000
REMARK INTER + INTRA:         -20.011
REMARK INTER:                 -18.184
REMARK INTRA:                  -1.827
REMARK UNBOUND:                -1.827
REMARK SMILES CCCOc1ccc(C[C@H](CC)C(=O)O)cc1CNC(=O)c1ccc([C@]23C[C@H]4C[C@H](C[C@H](C4)C2)C3)cc1
REMARK SMILES IDX 5 1 6 2 7 3 8 4 16 5 17 6 4 7 3 8 2 9 1 10 18 11 19 12 20 13
REMARK SMILES IDX 21 14 22 16 23 17 37 18 24 19 36 20 25 21 26 22 35 23 34 24
REMARK SMILES IDX 27 25 30 26 32 27 28 28 29 29 31 30 33 31 9 32 10 33 11 34
REMARK SMILES IDX 12 35 13 36 14 37 15 38
REMARK H PARENT 19 15 15 39
ROOT
ATOM      1  C   UNL     1      48.171 -37.925 107.830  1.00  0.00     0.124 A 
ATOM      2  C   UNL     1      48.821 -38.924 107.094  1.00  0.00     0.047 A 
ATOM      3  C   UNL     1      48.554 -40.275 107.333  1.00  0.00     0.007 A 
ATOM      4  C   UNL     1      47.663 -40.647 108.338  1.00  0.00    -0.047 A 
ATOM      5  C   UNL     1      47.087 -39.646 109.131  1.00  0.00     0.013 A 
ATOM      6  C   UNL     1      47.278 -38.284 108.858  1.00  0.00     0.014 A 
ENDROOT
BRANCH   1   7
ATOM      7  O   UNL     1      48.331 -36.578 107.624  1.00  0.00    -0.493 OA
BRANCH   7   8
ATOM      8  C   UNL     1      49.643 -36.040 107.788  1.00  0.00     0.229 C 
BRANCH   8   9
ATOM      9  C   UNL     1      49.531 -34.628 108.364  1.00  0.00     0.038 C 
ATOM     10  C   UNL     1      48.836 -33.665 107.411  1.00  0.00     0.007 C 
ENDBRANCH   8   9
ENDBRANCH   7   8
ENDBRANCH   1   7
BRANCH   6  11
ATOM     11  C   UNL     1      46.460 -37.217 109.554  1.00  0.00     0.156 C 
BRANCH  11  12
ATOM     12  N   UNL     1      45.028 -37.466 109.612  1.00  0.00    -0.348 N 
ATOM     13  C   UNL     1      44.251 -37.650 108.486  1.00  0.00     0.251 C 
ATOM     14  O   UNL     1      44.713 -37.718 107.350  1.00  0.00    -0.269 OA
ATOM     15  H   UNL     1      44.627 -37.574 110.530  1.00  0.00     0.164 HD
BRANCH  13  16
ATOM     16  C   UNL     1      42.787 -37.847 108.705  1.00  0.00     0.039 A 
ATOM     17  C   UNL     1      41.945 -36.739 108.592  1.00  0.00     0.014 A 
ATOM     18  C   UNL     1      42.226 -39.085 109.032  1.00  0.00     0.014 A 
ATOM     19  C   UNL     1      40.563 -36.871 108.771  1.00  0.00     0.005 A 
ATOM     20  C   UNL     1      40.838 -39.214 109.201  1.00  0.00     0.005 A 
ATOM     21  C   UNL     1      39.974 -38.115 109.062  1.00  0.00    -0.042 A 
BRANCH  21  22
ATOM     22  C   UNL     1      38.449 -38.226 109.233  1.00  0.00    -0.004 C 
ATOM     23  C   UNL     1      37.711 -37.720 107.954  1.00  0.00     0.015 C 
ATOM     24  C   UNL     1      37.951 -39.681 109.497  1.00  0.00     0.015 C 
ATOM     25  C   UNL     1      37.992 -37.355 110.437  1.00  0.00     0.015 C 
ATOM     26  C   UNL     1      36.184 -37.768 108.134  1.00  0.00    -0.010 C 
ATOM     27  C   UNL     1      36.425 -39.738 109.671  1.00  0.00    -0.010 C 
ATOM     28  C   UNL     1      36.464 -37.407 110.612  1.00  0.00    -0.010 C 
ATOM     29  C   UNL     1      35.788 -36.889 109.333  1.00  0.00     0.007 C 
ATOM     30  C   UNL     1      35.748 -39.214 108.398  1.00  0.00     0.007 C 
ATOM     31  C   UNL     1      36.025 -38.856 110.864  1.00  0.00     0.007 C 
ENDBRANCH  21  22
ENDBRANCH  13  16
ENDBRANCH  11  12
ENDBRANCH   6  11
BRANCH   4  32
ATOM     32  C   UNL     1      47.226 -42.083 108.522  1.00  0.00     0.050 C 
BRANCH  32  33
ATOM     33  C   UNL     1      45.772 -42.368 108.075  1.00  0.00     0.103 C 
BRANCH  33  34
ATOM     34  C   UNL     1      45.358 -43.850 108.133  1.00  0.00     0.012 C 
ATOM     35  C   UNL     1      43.915 -44.092 107.709  1.00  0.00     0.005 C 
ENDBRANCH  33  34
BRANCH  33  36
ATOM     36  C   UNL     1      45.527 -41.743 106.710  1.00  0.00     0.306 C 
ATOM     37  O   UNL     1      45.976 -42.184 105.661  1.00  0.00    -0.252 OA
BRANCH  36  38
ATOM     38  O   UNL     1      44.664 -40.709 106.724  1.00  0.00    -0.481 OA
ATOM     39  H   UNL     1      43.851 -41.013 107.205  1.00  0.00     0.296 HD
ENDBRANCH  36  38
ENDBRANCH  33  36
ENDBRANCH  32  33
ENDBRANCH   4  32
TORSDOF 12
ENDMDL
MODEL 2
REMARK VINA RESULT:   -10.873      5.473      9.340
REMARK INTER + INTRA:         -20.009
REMARK INTER:                 -18.120
REMARK INTRA:                  -1.889
REMARK UNBOUND:                -1.827
REMARK SMILES CCCOc1ccc(C[C@H](CC)C(=O)O)cc1CNC(=O)c1ccc([C@]23C[C@H]4C[C@H](C[C@H](C4)C2)C3)cc1
REMARK SMILES IDX 5 1 6 2 7 3 8 4 16 5 17 6 4 7 3 8 2 9 1 10 18 11 19 12 20 13
REMARK SMILES IDX 21 14 22 16 23 17 37 18 24 19 36 20 25 21 26 22 35 23 34 24
REMARK SMILES IDX 27 25 30 26 32 27 28 28 29 29 31 30 33 31 9 32 10 33 11 34
REMARK SMILES IDX 12 35 13 36 14 37 15 38
REMARK H PARENT 19 15 15 39
ROOT
ATOM      1  C   UNL     1      45.617 -40.272 108.568  1.00  0.00     0.124 A 
ATOM      2  C   UNL     1      46.769 -40.185 109.360  1.00  0.00     0.047 A 
ATOM      3  C   UNL     1      47.342 -38.944 109.652  1.00  0.00     0.007 A 
ATOM      4  C   UNL     1      46.796 -37.777 109.123  1.00  0.00    -0.047 A 
ATOM      5  C   UNL     1      45.699 -37.879 108.257  1.00  0.00     0.013 A 
ATOM      6  C   UNL     1      45.059 -39.103 108.015  1.00  0.00     0.014 A 
ENDROOT
BRANCH   1   7
ATOM      7  O   UNL     1      44.958 -41.440 108.279  1.00  0.00    -0.493 OA
BRANCH   7   8
ATOM      8  C   UNL     1      45.702 -42.471 107.630  1.00  0.00     0.229 C 
BRANCH   8   9
ATOM      9  C   UNL     1      44.728 -43.491 107.042  1.00  0.00     0.038 C 
ATOM     10  C   UNL     1      44.158 -44.428 108.098  1.00  0.00     0.007 C 
ENDBRANCH   8   9
ENDBRANCH   7   8
ENDBRANCH   1   7
BRANCH   6  11
ATOM     11  C   UNL     1      43.733 -39.170 107.287  1.00  0.00     0.156 C 
BRANCH  11  12
ATOM     12  N   UNL     1      43.816 -39.463 105.865  1.00  0.00    -0.348 N 
ATOM     13  C   UNL     1      42.732 -39.882 105.120  1.00  0.00     0.251 C 
ATOM     14  O   UNL     1      41.590 -39.950 105.567  1.00  0.00    -0.269 OA
ATOM     15  H   UNL     1      44.698 -39.273 105.416  1.00  0.00     0.164 HD
BRANCH  13  16
ATOM     16  C   UNL     1      42.984 -40.191 103.681  1.00  0.00     0.039 A 
ATOM     17  C   UNL     1      42.774 -39.180 102.740  1.00  0.00     0.014 A 
ATOM     18  C   UNL     1      43.404 -41.446 103.233  1.00  0.00     0.014 A 
ATOM     19  C   UNL     1      43.011 -39.411 101.380  1.00  0.00     0.005 A 
ATOM     20  C   UNL     1      43.649 -41.669 101.869  1.00  0.00     0.005 A 
ATOM     21  C   UNL     1      43.472 -40.655 100.913  1.00  0.00    -0.042 A 
BRANCH  21  22
ATOM     22  C   UNL     1      43.740 -40.867  99.413  1.00  0.00    -0.004 C 
ATOM     23  C   UNL     1      44.642 -39.726  98.846  1.00  0.00     0.015 C 
ATOM     24  C   UNL     1      44.455 -42.214  99.087  1.00  0.00     0.015 C 
ATOM     25  C   UNL     1      42.394 -40.857  98.634  1.00  0.00     0.015 C 
ATOM     26  C   UNL     1      44.868 -39.891  97.334  1.00  0.00    -0.010 C 
ATOM     27  C   UNL     1      44.691 -42.383  97.577  1.00  0.00    -0.010 C 
ATOM     28  C   UNL     1      42.626 -41.022  97.122  1.00  0.00    -0.010 C 
ATOM     29  C   UNL     1      43.509 -39.870  96.614  1.00  0.00     0.007 C 
ATOM     30  C   UNL     1      45.566 -41.230  97.067  1.00  0.00     0.007 C 
ATOM     31  C   UNL     1      43.336 -42.357  96.854  1.00  0.00     0.007 C 
ENDBRANCH  21  22
ENDBRANCH  13  16
ENDBRANCH  11  12
ENDBRANCH   6  11
BRANCH   4  32
ATOM     32  C   UNL     1      47.286 -36.409 109.541  1.00  0.00     0.050 C 
BRANCH  32  33
ATOM     33  C   UNL     1      48.133 -35.681 108.469  1.00  0.00     0.103 C 
BRANCH  33  34
ATOM     34  C   UNL     1      49.355 -36.472 107.966  1.00  0.00     0.012 C 
ATOM     35  C   UNL     1      49.151 -37.090 106.590  1.00  0.00     0.005 C 
ENDBRANCH  33  34
BRANCH  33  36
ATOM     36  C   UNL     1      48.497 -34.291 108.965  1.00  0.00     0.306 C 
ATOM     37  O   UNL     1      48.363 -33.916 110.123  1.00  0.00    -0.252 OA
BRANCH  36  38
ATOM     38  O   UNL     1      49.100 -33.516 108.043  1.00  0.00    -0.481 OA
ATOM     39  H   UNL     1      48.617 -33.652 107.186  1.00  0.00     0.296 HD
ENDBRANCH  36  38
ENDBRANCH  33  36
ENDBRANCH  32  33
ENDBRANCH   4  32
TORSDOF 12
ENDMDL
MODEL 3
REMARK VINA RESULT:   -10.597      5.305      9.144
REMARK INTER + INTRA:         -19.548
REMARK INTER:                 -17.750
REMARK INTRA:                  -1.798
REMARK UNBOUND:                -1.827
REMARK SMILES CCCOc1ccc(C[C@H](CC)C(=O)O)cc1CNC(=O)c1ccc([C@]23C[C@H]4C[C@H](C[C@H](C4)C2)C3)cc1
REMARK SMILES IDX 5 1 6 2 7 3 8 4 16 5 17 6 4 7 3 8 2 9 1 10 18 11 19 12 20 13
REMARK SMILES IDX 21 14 22 16 23 17 37 18 24 19 36 20 25 21 26 22 35 23 34 24
REMARK SMILES IDX 27 25 30 26 32 27 28 28 29 29 31 30 33 31 9 32 10 33 11 34
REMARK SMILES IDX 12 35 13 36 14 37 15 38
REMARK H PARENT 19 15 15 39
ROOT
ATOM      1  C   UNL     1      43.803 -38.951 108.998  1.00  0.00     0.124 A 
ATOM      2  C   UNL     1      44.405 -37.825 109.574  1.00  0.00     0.047 A 
ATOM      3  C   UNL     1      45.791 -37.652 109.523  1.00  0.00     0.007 A 
ATOM      4  C   UNL     1      46.598 -38.623 108.932  1.00  0.00    -0.047 A 
ATOM      5  C   UNL     1      45.998 -39.789 108.441  1.00  0.00     0.013 A 
ATOM      6  C   UNL     1      44.605 -39.947 108.408  1.00  0.00     0.014 A 
ENDROOT
BRANCH   1   7
ATOM      7  O   UNL     1      42.450 -39.173 108.953  1.00  0.00    -0.493 OA
BRANCH   7   8
ATOM      8  C   UNL     1      41.612 -38.055 108.659  1.00  0.00     0.229 C 
BRANCH   8   9
ATOM      9  C   UNL     1      40.160 -38.529 108.590  1.00  0.00     0.038 C 
ATOM     10  C   UNL     1      39.574 -38.811 109.966  1.00  0.00     0.007 C 
ENDBRANCH   8   9
ENDBRANCH   7   8
ENDBRANCH   1   7
BRANCH   6  11
ATOM     11  C   UNL     1      43.958 -41.089 107.653  1.00  0.00     0.156 C 
BRANCH  11  12
ATOM     12  N   UNL     1      44.032 -41.001 106.203  1.00  0.00    -0.348 N 
ATOM     13  C   UNL     1      43.010 -40.490 105.429  1.00  0.00     0.251 C 
ATOM     14  O   UNL     1      41.997 -39.977 105.898  1.00  0.00    -0.269 OA
ATOM     15  H   UNL     1      44.907 -41.266 105.780  1.00  0.00     0.164 HD
BRANCH  13  16
ATOM     16  C   UNL     1      43.213 -40.511 103.949  1.00  0.00     0.039 A 
ATOM     17  C   UNL     1      43.771 -41.654 103.373  1.00  0.00     0.014 A 
ATOM     18  C   UNL     1      42.885 -39.434 103.121  1.00  0.00     0.014 A 
ATOM     19  C   UNL     1      43.968 -41.733 101.990  1.00  0.00     0.005 A 
ATOM     20  C   UNL     1      43.075 -39.522 101.733  1.00  0.00     0.005 A 
ATOM     21  C   UNL     1      43.608 -40.676 101.134  1.00  0.00    -0.042 A 
BRANCH  21  22
ATOM     22  C   UNL     1      43.821 -40.805  99.615  1.00  0.00    -0.004 C 
ATOM     23  C   UNL     1      42.460 -40.715  98.856  1.00  0.00     0.015 C 
ATOM     24  C   UNL     1      44.748 -39.703  99.016  1.00  0.00     0.015 C 
ATOM     25  C   UNL     1      44.470 -42.181  99.292  1.00  0.00     0.015 C 
ATOM     26  C   UNL     1      42.650 -40.904  97.342  1.00  0.00    -0.010 C 
ATOM     27  C   UNL     1      44.937 -39.881  97.500  1.00  0.00    -0.010 C 
ATOM     28  C   UNL     1      44.658 -42.364  97.776  1.00  0.00    -0.010 C 
ATOM     29  C   UNL     1      43.290 -42.278  97.080  1.00  0.00     0.007 C 
ATOM     30  C   UNL     1      43.572 -39.802  96.805  1.00  0.00     0.007 C 
ATOM     31  C   UNL     1      45.570 -41.255  97.234  1.00  0.00     0.007 C 
ENDBRANCH  21  22
ENDBRANCH  13  16
ENDBRANCH  11  12
ENDBRANCH   6  11
BRANCH   4  32
ATOM     32  C   UNL     1      48.078 -38.402 108.715  1.00  0.00     0.050 C 
BRANCH  32  33
ATOM     33  C   UNL     1      48.423 -37.638 107.413  1.00  0.00     0.103 C 
BRANCH  33  34
ATOM     34  C   UNL     1      49.783 -38.007 106.790  1.00  0.00     0.012 C 
ATOM     35  C   UNL     1      49.663 -38.900 105.562  1.00  0.00     0.005 C 
ENDBRANCH  33  34
BRANCH  33  36
ATOM     36  C   UNL     1      48.269 -36.143 107.643  1.00  0.00     0.306 C 
ATOM     37  O   UNL     1      49.043 -35.466 108.307  1.00  0.00    -0.252 OA
BRANCH  36  38
ATOM     38  O   UNL     1      47.260 -35.580 106.952  1.00  0.00    -0.481 OA
ATOM     39  H   UNL     1      47.602 -35.385 106.041  1.00  0.00     0.296 HD
ENDBRANCH  36  38
ENDBRANCH  33  36
ENDBRANCH  32  33
ENDBRANCH   4  32
TORSDOF 12
ENDMDL
MODEL 4
REMARK VINA RESULT:   -10.264      5.453      8.984
REMARK INTER + INTRA:         -18.992
REMARK INTER:                 -17.109
REMARK INTRA:                  -1.883
REMARK UNBOUND:                -1.827
REMARK SMILES CCCOc1ccc(C[C@H](CC)C(=O)O)cc1CNC(=O)c1ccc([C@]23C[C@H]4C[C@H](C[C@H](C4)C2)C3)cc1
REMARK SMILES IDX 5 1 6 2 7 3 8 4 16 5 17 6 4 7 3 8 2 9 1 10 18 11 19 12 20 13
REMARK SMILES IDX 21 14 22 16 23 17 37 18 24 19 36 20 25 21 26 22 35 23 34 24
REMARK SMILES IDX 27 25 30 26 32 27 28 28 29 29 31 30 33 31 9 32 10 33 11 34
REMARK SMILES IDX 12 35 13 36 14 37 15 38
REMARK H PARENT 19 15 15 39
ROOT
ATOM      1  C   UNL     1      42.253 -38.528 109.149  1.00  0.00     0.124 A 
ATOM      2  C   UNL     1      42.775 -39.206 110.259  1.00  0.00     0.047 A 
ATOM      3  C   UNL     1      44.108 -39.625 110.278  1.00  0.00     0.007 A 
ATOM      4  C   UNL     1      44.927 -39.409 109.171  1.00  0.00    -0.047 A 
ATOM      5  C   UNL     1      44.373 -38.813 108.030  1.00  0.00     0.013 A 
ATOM      6  C   UNL     1      43.064 -38.312 108.018  1.00  0.00     0.014 A 
ENDROOT
BRANCH   1   7
ATOM      7  O   UNL     1      40.977 -38.032 109.070  1.00  0.00    -0.493 OA
BRANCH   7   8
ATOM      8  C   UNL     1      39.999 -38.591 109.947  1.00  0.00     0.229 C 
BRANCH   8   9
ATOM      9  C   UNL     1      38.835 -39.128 109.115  1.00  0.00     0.038 C 
ATOM     10  C   UNL     1      37.589 -39.381 109.953  1.00  0.00     0.007 C 
ENDBRANCH   8   9
ENDBRANCH   7   8
ENDBRANCH   1   7
BRANCH   6  11
ATOM     11  C   UNL     1      42.558 -37.451 106.880  1.00  0.00     0.156 C 
BRANCH  11  12
ATOM     12  N   UNL     1      42.780 -37.986 105.546  1.00  0.00    -0.348 N 
ATOM     13  C   UNL     1      42.165 -39.132 105.085  1.00  0.00     0.251 C 
ATOM     14  O   UNL     1      41.307 -39.741 105.718  1.00  0.00    -0.269 OA
ATOM     15  H   UNL     1      43.357 -37.435 104.931  1.00  0.00     0.164 HD
BRANCH  13  16
ATOM     16  C   UNL     1      42.531 -39.583 103.708  1.00  0.00     0.039 A 
ATOM     17  C   UNL     1      42.302 -38.711 102.642  1.00  0.00     0.014 A 
ATOM     18  C   UNL     1      43.075 -40.842 103.440  1.00  0.00     0.014 A 
ATOM     19  C   UNL     1      42.641 -39.078 101.335  1.00  0.00     0.005 A 
ATOM     20  C   UNL     1      43.423 -41.201 102.128  1.00  0.00     0.005 A 
ATOM     21  C   UNL     1      43.227 -40.324 101.048  1.00  0.00    -0.042 A 
BRANCH  21  22
ATOM     22  C   UNL     1      43.605 -40.686  99.601  1.00  0.00    -0.004 C 
ATOM     23  C   UNL     1      44.589 -39.630  99.006  1.00  0.00     0.015 C 
ATOM     24  C   UNL     1      44.297 -42.078  99.462  1.00  0.00     0.015 C 
ATOM     25  C   UNL     1      42.326 -40.714  98.717  1.00  0.00     0.015 C 
ATOM     26  C   UNL     1      44.927 -39.945  97.539  1.00  0.00    -0.010 C 
ATOM     27  C   UNL     1      44.645 -42.396  97.999  1.00  0.00    -0.010 C 
ATOM     28  C   UNL     1      42.671 -41.030  97.251  1.00  0.00    -0.010 C 
ATOM     29  C   UNL     1      43.631 -39.957  96.712  1.00  0.00     0.007 C 
ATOM     30  C   UNL     1      45.597 -41.322  97.457  1.00  0.00     0.007 C 
ATOM     31  C   UNL     1      43.353 -42.403  97.168  1.00  0.00     0.007 C 
ENDBRANCH  21  22
ENDBRANCH  13  16
ENDBRANCH  11  12
ENDBRANCH   6  11
BRANCH   4  32
ATOM     32  C   UNL     1      46.410 -39.701 109.210  1.00  0.00     0.050 C 
BRANCH  32  33
ATOM     33  C   UNL     1      46.940 -40.468 107.974  1.00  0.00     0.103 C 
BRANCH  33  34
ATOM     34  C   UNL     1      46.812 -42.001 108.062  1.00  0.00     0.012 C 
ATOM     35  C   UNL     1      45.588 -42.548 107.339  1.00  0.00     0.005 C 
ENDBRANCH  33  34
BRANCH  33  36
ATOM     36  C   UNL     1      48.358 -40.015 107.663  1.00  0.00     0.306 C 
ATOM     37  O   UNL     1      48.727 -39.613 106.567  1.00  0.00    -0.252 OA
BRANCH  36  38
ATOM     38  O   UNL     1      49.172 -39.977 108.734  1.00  0.00    -0.481 OA
ATOM     39  H   UNL     1      50.101 -40.089 108.400  1.00  0.00     0.296 HD
ENDBRANCH  36  38
ENDBRANCH  33  36
ENDBRANCH  32  33
ENDBRANCH   4  32
TORSDOF 12
ENDMDL
MODEL 5
REMARK VINA RESULT:   -10.258      5.541      9.676
REMARK INTER + INTRA:         -18.982
REMARK INTER:                 -17.075
REMARK INTRA:                  -1.907
REMARK UNBOUND:                -1.827
REMARK SMILES CCCOc1ccc(C[C@H](CC)C(=O)O)cc1CNC(=O)c1ccc([C@]23C[C@H]4C[C@H](C[C@H](C4)C2)C3)cc1
REMARK SMILES IDX 5 1 6 2 7 3 8 4 16 5 17 6 4 7 3 8 2 9 1 10 18 11 19 12 20 13
REMARK SMILES IDX 21 14 22 16 23 17 37 18 24 19 36 20 25 21 26 22 35 23 34 24
REMARK SMILES IDX 27 25 30 26 32 27 28 28 29 29 31 30 33 31 9 32 10 33 11 34
REMARK SMILES IDX 12 35 13 36 14 37 15 38
REMARK H PARENT 19 15 15 39
ROOT
ATOM      1  C   UNL     1      42.667 -37.780 108.058  1.00  0.00     0.124 A 
ATOM      2  C   UNL     1      41.971 -36.699 108.615  1.00  0.00     0.047 A 
ATOM      3  C   UNL     1      40.745 -36.894 109.256  1.00  0.00     0.007 A 
ATOM      4  C   UNL     1      40.177 -38.166 109.314  1.00  0.00    -0.047 A 
ATOM      5  C   UNL     1      40.834 -39.225 108.675  1.00  0.00     0.013 A 
ATOM      6  C   UNL     1      42.102 -39.069 108.097  1.00  0.00     0.014 A 
ENDROOT
BRANCH   1   7
ATOM      7  O   UNL     1      43.899 -37.688 107.462  1.00  0.00    -0.493 OA
BRANCH   7   8
ATOM      8  C   UNL     1      45.046 -37.848 108.296  1.00  0.00     0.229 C 
BRANCH   8   9
ATOM      9  C   UNL     1      46.233 -38.272 107.433  1.00  0.00     0.038 C 
ATOM     10  C   UNL     1      46.635 -39.721 107.668  1.00  0.00     0.007 C 
ENDBRANCH   8   9
ENDBRANCH   7   8
ENDBRANCH   1   7
BRANCH   6  11
ATOM     11  C   UNL     1      42.911 -40.263 107.634  1.00  0.00     0.156 C 
BRANCH  11  12
ATOM     12  N   UNL     1      43.040 -40.410 106.193  1.00  0.00    -0.348 N 
ATOM     13  C   UNL     1      43.864 -41.347 105.605  1.00  0.00     0.251 C 
ATOM     14  O   UNL     1      44.481 -42.199 106.240  1.00  0.00    -0.269 OA
ATOM     15  H   UNL     1      42.435 -39.837 105.626  1.00  0.00     0.164 HD
BRANCH  13  16
ATOM     16  C   UNL     1      43.928 -41.345 104.112  1.00  0.00     0.039 A 
ATOM     17  C   UNL     1      43.168 -40.401 103.419  1.00  0.00     0.014 A 
ATOM     18  C   UNL     1      44.699 -42.252 103.381  1.00  0.00     0.014 A 
ATOM     19  C   UNL     1      43.203 -40.344 102.021  1.00  0.00     0.005 A 
ATOM     20  C   UNL     1      44.738 -42.185 101.980  1.00  0.00     0.005 A 
ATOM     21  C   UNL     1      44.003 -41.222 101.268  1.00  0.00    -0.042 A 
BRANCH  21  22
ATOM     22  C   UNL     1      44.032 -41.118  99.733  1.00  0.00    -0.004 C 
ATOM     23  C   UNL     1      42.585 -40.991  99.161  1.00  0.00     0.015 C 
ATOM     24  C   UNL     1      44.839 -39.893  99.202  1.00  0.00     0.015 C 
ATOM     25  C   UNL     1      44.683 -42.397  99.133  1.00  0.00     0.015 C 
ATOM     26  C   UNL     1      42.594 -40.948  97.623  1.00  0.00    -0.010 C 
ATOM     27  C   UNL     1      44.845 -39.840  97.665  1.00  0.00    -0.010 C 
ATOM     28  C   UNL     1      44.689 -42.348  97.595  1.00  0.00    -0.010 C 
ATOM     29  C   UNL     1      43.243 -42.234  97.085  1.00  0.00     0.007 C 
ATOM     30  C   UNL     1      43.403 -39.733  97.153  1.00  0.00     0.007 C 
ATOM     31  C   UNL     1      45.488 -41.125  97.123  1.00  0.00     0.007 C 
ENDBRANCH  21  22
ENDBRANCH  13  16
ENDBRANCH  11  12
ENDBRANCH   6  11
BRANCH   4  32
ATOM     32  C   UNL     1      38.937 -38.447 110.132  1.00  0.00     0.050 C 
BRANCH  32  33
ATOM     33  C   UNL     1      37.700 -38.852 109.295  1.00  0.00     0.103 C 
BRANCH  33  34
ATOM     34  C   UNL     1      37.340 -37.873 108.161  1.00  0.00     0.012 C 
ATOM     35  C   UNL     1      36.383 -38.463 107.134  1.00  0.00     0.005 C 
ENDBRANCH  33  34
BRANCH  33  36
ATOM     36  C   UNL     1      36.527 -39.133 110.221  1.00  0.00     0.306 C 
ATOM     37  O   UNL     1      35.918 -38.271 110.841  1.00  0.00    -0.252 OA
BRANCH  36  38
ATOM     38  O   UNL     1      36.122 -40.417 110.224  1.00  0.00    -0.481 OA
ATOM     39  H   UNL     1      36.646 -40.887 110.924  1.00  0.00     0.296 HD
ENDBRANCH  36  38
ENDBRANCH  33  36
ENDBRANCH  32  33
ENDBRANCH   4  32
TORSDOF 12
ENDMDL
MODEL 6
REMARK VINA RESULT:    -9.961      5.404      8.148
REMARK INTER + INTRA:         -18.485
REMARK INTER:                 -16.715
REMARK INTRA:                  -1.770
REMARK UNBOUND:                -1.827
REMARK SMILES CCCOc1ccc(C[C@H](CC)C(=O)O)cc1CNC(=O)c1ccc([C@]23C[C@H]4C[C@H](C[C@H](C4)C2)C3)cc1
REMARK SMILES IDX 5 1 6 2 7 3 8 4 16 5 17 6 4 7 3 8 2 9 1 10 18 11 19 12 20 13
REMARK SMILES IDX 21 14 22 16 23 17 37 18 24 19 36 20 25 21 26 22 35 23 34 24
REMARK SMILES IDX 27 25 30 26 32 27 28 28 29 29 31 30 33 31 9 32 10 33 11 34
REMARK SMILES IDX 12 35 13 36 14 37 15 38
REMARK H PARENT 19 15 15 39
ROOT
ATOM      1  C   UNL     1      45.725 -38.638 108.820  1.00  0.00     0.124 A 
ATOM      2  C   UNL     1      46.598 -39.448 109.558  1.00  0.00     0.047 A 
ATOM      3  C   UNL     1      46.486 -40.840 109.518  1.00  0.00     0.007 A 
ATOM      4  C   UNL     1      45.473 -41.441 108.772  1.00  0.00    -0.047 A 
ATOM      5  C   UNL     1      44.548 -40.623 108.112  1.00  0.00     0.013 A 
ATOM      6  C   UNL     1      44.689 -39.228 108.071  1.00  0.00     0.014 A 
ENDROOT
BRANCH   1   7
ATOM      7  O   UNL     1      45.800 -37.269 108.757  1.00  0.00    -0.493 OA
BRANCH   7   8
ATOM      8  C   UNL     1      47.077 -36.670 108.976  1.00  0.00     0.229 C 
BRANCH   8   9
ATOM      9  C   UNL     1      47.767 -36.467 107.627  1.00  0.00     0.038 C 
ATOM     10  C   UNL     1      49.039 -37.294 107.495  1.00  0.00     0.007 C 
ENDBRANCH   8   9
ENDBRANCH   7   8
ENDBRANCH   1   7
BRANCH   6  11
ATOM     11  C   UNL     1      43.839 -38.374 107.155  1.00  0.00     0.156 C 
BRANCH  11  12
ATOM     12  N   UNL     1      43.852 -38.758 105.752  1.00  0.00    -0.348 N 
ATOM     13  C   UNL     1      42.953 -39.654 105.211  1.00  0.00     0.251 C 
ATOM     14  O   UNL     1      42.008 -40.127 105.838  1.00  0.00    -0.269 OA
ATOM     15  H   UNL     1      44.512 -38.279 105.160  1.00  0.00     0.164 HD
BRANCH  13  16
ATOM     16  C   UNL     1      43.123 -39.987 103.765  1.00  0.00     0.039 A 
ATOM     17  C   UNL     1      42.914 -38.977 102.823  1.00  0.00     0.014 A 
ATOM     18  C   UNL     1      43.466 -41.264 103.312  1.00  0.00     0.014 A 
ATOM     19  C   UNL     1      43.076 -39.230 101.457  1.00  0.00     0.005 A 
ATOM     20  C   UNL     1      43.637 -41.510 101.941  1.00  0.00     0.005 A 
ATOM     21  C   UNL     1      43.459 -40.498 100.983  1.00  0.00    -0.042 A 
BRANCH  21  22
ATOM     22  C   UNL     1      43.647 -40.735  99.474  1.00  0.00    -0.004 C 
ATOM     23  C   UNL     1      44.279 -42.138  99.210  1.00  0.00     0.015 C 
ATOM     24  C   UNL     1      42.318 -40.677  98.660  1.00  0.00     0.015 C 
ATOM     25  C   UNL     1      44.598 -39.653  98.888  1.00  0.00     0.015 C 
ATOM     26  C   UNL     1      44.530 -42.365  97.709  1.00  0.00    -0.010 C 
ATOM     27  C   UNL     1      42.559 -40.910  97.159  1.00  0.00    -0.010 C 
ATOM     28  C   UNL     1      44.844 -39.885  97.386  1.00  0.00    -0.010 C 
ATOM     29  C   UNL     1      45.476 -41.272  97.183  1.00  0.00     0.007 C 
ATOM     30  C   UNL     1      43.196 -42.290  96.955  1.00  0.00     0.007 C 
ATOM     31  C   UNL     1      43.509 -39.824  96.631  1.00  0.00     0.007 C 
ENDBRANCH  21  22
ENDBRANCH  13  16
ENDBRANCH  11  12
ENDBRANCH   6  11
BRANCH   4  32
ATOM     32  C   UNL     1      45.413 -42.939 108.574  1.00  0.00     0.050 C 
BRANCH  32  33
ATOM     33  C   UNL     1      44.342 -43.404 107.558  1.00  0.00     0.103 C 
BRANCH  33  34
ATOM     34  C   UNL     1      43.673 -44.750 107.896  1.00  0.00     0.012 C 
ATOM     35  C   UNL     1      43.920 -45.204 109.329  1.00  0.00     0.005 C 
ENDBRANCH  33  34
BRANCH  33  36
ATOM     36  C   UNL     1      44.924 -43.375 106.154  1.00  0.00     0.306 C 
ATOM     37  O   UNL     1      45.718 -42.532 105.755  1.00  0.00    -0.252 OA
BRANCH  36  38
ATOM     38  O   UNL     1      44.587 -44.435 105.394  1.00  0.00    -0.481 OA
ATOM     39  H   UNL     1      43.745 -44.199 104.922  1.00  0.00     0.296 HD
ENDBRANCH  36  38
ENDBRANCH  33  36
ENDBRANCH  32  33
ENDBRANCH   4  32
TORSDOF 12
ENDMDL
MODEL 7
REMARK VINA RESULT:    -9.857      1.246      5.108
REMARK INTER + INTRA:         -18.311
REMARK INTER:                 -17.392
REMARK INTRA:                  -0.919
REMARK UNBOUND:                -1.827
REMARK SMILES CCCOc1ccc(C[C@H](CC)C(=O)O)cc1CNC(=O)c1ccc([C@]23C[C@H]4C[C@H](C[C@H](C4)C2)C3)cc1
REMARK SMILES IDX 5 1 6 2 7 3 8 4 16 5 17 6 4 7 3 8 2 9 1 10 18 11 19 12 20 13
REMARK SMILES IDX 21 14 22 16 23 17 37 18 24 19 36 20 25 21 26 22 35 23 34 24
REMARK SMILES IDX 27 25 30 26 32 27 28 28 29 29 31 30 33 31 9 32 10 33 11 34
REMARK SMILES IDX 12 35 13 36 14 37 15 38
REMARK H PARENT 19 15 15 39
ROOT
ATOM      1  C   UNL     1      47.451 -40.217 107.396  1.00  0.00     0.124 A 
ATOM      2  C   UNL     1      48.377 -39.743 106.459  1.00  0.00     0.047 A 
ATOM      3  C   UNL     1      48.925 -38.463 106.580  1.00  0.00     0.007 A 
ATOM      4  C   UNL     1      48.523 -37.623 107.618  1.00  0.00    -0.047 A 
ATOM      5  C   UNL     1      47.528 -38.069 108.497  1.00  0.00     0.013 A 
ATOM      6  C   UNL     1      47.025 -39.377 108.444  1.00  0.00     0.014 A 
ENDROOT
BRANCH   1   7
ATOM      7  O   UNL     1      46.908 -41.476 107.386  1.00  0.00    -0.493 OA
BRANCH   7   8
ATOM      8  C   UNL     1      45.951 -41.770 106.368  1.00  0.00     0.229 C 
BRANCH   8   9
ATOM      9  C   UNL     1      44.779 -42.526 106.993  1.00  0.00     0.038 C 
ATOM     10  C   UNL     1      45.228 -43.524 108.052  1.00  0.00     0.007 C 
ENDBRANCH   8   9
ENDBRANCH   7   8
ENDBRANCH   1   7
BRANCH   6  11
ATOM     11  C   UNL     1      46.143 -39.929 109.543  1.00  0.00     0.156 C 
BRANCH  11  12
ATOM     12  N   UNL     1      44.720 -39.671 109.392  1.00  0.00    -0.348 N 
ATOM     13  C   UNL     1      44.170 -38.410 109.505  1.00  0.00     0.251 C 
ATOM     14  O   UNL     1      44.840 -37.390 109.642  1.00  0.00    -0.269 OA
ATOM     15  H   UNL     1      44.146 -40.454 109.124  1.00  0.00     0.164 HD
BRANCH  13  16
ATOM     16  C   UNL     1      42.685 -38.311 109.373  1.00  0.00     0.039 A 
ATOM     17  C   UNL     1      41.895 -39.209 110.093  1.00  0.00     0.014 A 
ATOM     18  C   UNL     1      42.055 -37.372 108.552  1.00  0.00     0.014 A 
ATOM     19  C   UNL     1      40.498 -39.149 110.019  1.00  0.00     0.005 A 
ATOM     20  C   UNL     1      40.654 -37.310 108.489  1.00  0.00     0.005 A 
ATOM     21  C   UNL     1      39.843 -38.186 109.230  1.00  0.00    -0.042 A 
BRANCH  21  22
ATOM     22  C   UNL     1      38.306 -38.138 109.187  1.00  0.00    -0.004 C 
ATOM     23  C   UNL     1      37.747 -37.290 110.372  1.00  0.00     0.015 C 
ATOM     24  C   UNL     1      37.734 -37.516 107.875  1.00  0.00     0.015 C 
ATOM     25  C   UNL     1      37.733 -39.579 109.304  1.00  0.00     0.015 C 
ATOM     26  C   UNL     1      36.209 -37.284 110.378  1.00  0.00    -0.010 C 
ATOM     27  C   UNL     1      36.196 -37.499 107.878  1.00  0.00    -0.010 C 
ATOM     28  C   UNL     1      36.194 -39.566 109.310  1.00  0.00    -0.010 C 
ATOM     29  C   UNL     1      35.697 -38.729 110.500  1.00  0.00     0.007 C 
ATOM     30  C   UNL     1      35.698 -36.671 109.069  1.00  0.00     0.007 C 
ATOM     31  C   UNL     1      35.681 -38.941 108.005  1.00  0.00     0.007 C 
ENDBRANCH  21  22
ENDBRANCH  13  16
ENDBRANCH  11  12
ENDBRANCH   6  11
BRANCH   4  32
ATOM     32  C   UNL     1      49.204 -36.298 107.878  1.00  0.00     0.050 C 
BRANCH  32  33
ATOM     33  C   UNL     1      48.232 -35.103 108.032  1.00  0.00     0.103 C 
BRANCH  33  34
ATOM     34  C   UNL     1      48.595 -33.864 107.191  1.00  0.00     0.012 C 
ATOM     35  C   UNL     1      49.897 -33.202 107.620  1.00  0.00     0.005 C 
ENDBRANCH  33  34
BRANCH  33  36
ATOM     36  C   UNL     1      48.054 -34.778 109.507  1.00  0.00     0.306 C 
ATOM     37  O   UNL     1      48.669 -33.900 110.098  1.00  0.00    -0.252 OA
BRANCH  36  38
ATOM     38  O   UNL     1      47.065 -35.466 110.108  1.00  0.00    -0.481 OA
ATOM     39  H   UNL     1      47.493 -36.112 110.729  1.00  0.00     0.296 HD
ENDBRANCH  36  38
ENDBRANCH  33  36
ENDBRANCH  32  33
ENDBRANCH   4  32
TORSDOF 12
ENDMDL
MODEL 8
REMARK VINA RESULT:    -9.790      4.579     10.312
REMARK INTER + INTRA:         -18.199
REMARK INTER:                 -16.308
REMARK INTRA:                  -1.891
REMARK UNBOUND:                -1.827
REMARK SMILES CCCOc1ccc(C[C@H](CC)C(=O)O)cc1CNC(=O)c1ccc([C@]23C[C@H]4C[C@H](C[C@H](C4)C2)C3)cc1
REMARK SMILES IDX 5 1 6 2 7 3 8 4 16 5 17 6 4 7 3 8 2 9 1 10 18 11 19 12 20 13
REMARK SMILES IDX 21 14 22 16 23 17 37 18 24 19 36 20 25 21 26 22 35 23 34 24
REMARK SMILES IDX 27 25 30 26 32 27 28 28 29 29 31 30 33 31 9 32 10 33 11 34
REMARK SMILES IDX 12 35 13 36 14 37 15 38
REMARK H PARENT 19 15 15 39
ROOT
ATOM      1  C   UNL     1      36.466 -37.137 103.641  1.00  0.00     0.124 A 
ATOM      2  C   UNL     1      35.673 -36.242 104.371  1.00  0.00     0.047 A 
ATOM      3  C   UNL     1      35.311 -36.522 105.691  1.00  0.00     0.007 A 
ATOM      4  C   UNL     1      35.701 -37.720 106.287  1.00  0.00    -0.047 A 
ATOM      5  C   UNL     1      36.416 -38.651 105.521  1.00  0.00     0.013 A 
ATOM      6  C   UNL     1      36.860 -38.357 104.224  1.00  0.00     0.014 A 
ENDROOT
BRANCH   1   7
ATOM      7  O   UNL     1      36.915 -36.916 102.363  1.00  0.00    -0.493 OA
BRANCH   7   8
ATOM      8  C   UNL     1      37.168 -35.565 101.981  1.00  0.00     0.229 C 
BRANCH   8   9
ATOM      9  C   UNL     1      37.354 -35.505 100.465  1.00  0.00     0.038 C 
ATOM     10  C   UNL     1      38.341 -34.426 100.042  1.00  0.00     0.007 C 
ENDBRANCH   8   9
ENDBRANCH   7   8
ENDBRANCH   1   7
BRANCH   6  11
ATOM     11  C   UNL     1      37.838 -39.258 103.501  1.00  0.00     0.156 C 
BRANCH  11  12
ATOM     12  N   UNL     1      39.112 -39.464 104.173  1.00  0.00    -0.348 N 
ATOM     13  C   UNL     1      40.323 -39.121 103.607  1.00  0.00     0.251 C 
ATOM     14  O   UNL     1      40.426 -38.526 102.538  1.00  0.00    -0.269 OA
ATOM     15  H   UNL     1      39.071 -39.808 105.119  1.00  0.00     0.164 HD
BRANCH  13  16
ATOM     16  C   UNL     1      41.549 -39.439 104.399  1.00  0.00     0.039 A 
ATOM     17  C   UNL     1      41.710 -38.829 105.645  1.00  0.00     0.014 A 
ATOM     18  C   UNL     1      42.546 -40.306 103.944  1.00  0.00     0.014 A 
ATOM     19  C   UNL     1      42.832 -39.104 106.435  1.00  0.00     0.005 A 
ATOM     20  C   UNL     1      43.664 -40.586 104.745  1.00  0.00     0.005 A 
ATOM     21  C   UNL     1      43.827 -40.004 106.013  1.00  0.00    -0.042 A 
BRANCH  21  22
ATOM     22  C   UNL     1      45.038 -40.297 106.916  1.00  0.00    -0.004 C 
ATOM     23  C   UNL     1      44.587 -41.010 108.230  1.00  0.00     0.015 C 
ATOM     24  C   UNL     1      46.111 -41.212 106.250  1.00  0.00     0.015 C 
ATOM     25  C   UNL     1      45.740 -38.964 107.301  1.00  0.00     0.015 C 
ATOM     26  C   UNL     1      45.779 -41.255 109.171  1.00  0.00    -0.010 C 
ATOM     27  C   UNL     1      47.303 -41.467 107.188  1.00  0.00    -0.010 C 
ATOM     28  C   UNL     1      46.931 -39.215 108.242  1.00  0.00    -0.010 C 
ATOM     29  C   UNL     1      46.432 -39.907 109.521  1.00  0.00     0.007 C 
ATOM     30  C   UNL     1      46.805 -42.151 108.468  1.00  0.00     0.007 C 
ATOM     31  C   UNL     1      47.954 -40.123 107.545  1.00  0.00     0.007 C 
ENDBRANCH  21  22
ENDBRANCH  13  16
ENDBRANCH  11  12
ENDBRANCH   6  11
BRANCH   4  32
ATOM     32  C   UNL     1      35.468 -37.991 107.756  1.00  0.00     0.050 C 
BRANCH  32  33
ATOM     33  C   UNL     1      36.517 -37.349 108.696  1.00  0.00     0.103 C 
BRANCH  33  34
ATOM     34  C   UNL     1      37.330 -38.352 109.536  1.00  0.00     0.012 C 
ATOM     35  C   UNL     1      38.570 -38.874 108.823  1.00  0.00     0.005 C 
ENDBRANCH  33  34
BRANCH  33  36
ATOM     36  C   UNL     1      35.853 -36.276 109.544  1.00  0.00     0.306 C 
ATOM     37  O   UNL     1      35.464 -36.448 110.692  1.00  0.00    -0.252 OA
BRANCH  36  38
ATOM     38  O   UNL     1      35.824 -35.058 108.970  1.00  0.00    -0.481 OA
ATOM     39  H   UNL     1      35.632 -34.401 109.689  1.00  0.00     0.296 HD
ENDBRANCH  36  38
ENDBRANCH  33  36
ENDBRANCH  32  33
ENDBRANCH   4  32
TORSDOF 12
ENDMDL
MODEL 9
REMARK VINA RESULT:    -9.653      5.539      9.215
REMARK INTER + INTRA:         -17.970
REMARK INTER:                 -16.605
REMARK INTRA:                  -1.365
REMARK UNBOUND:                -1.827
REMARK SMILES CCCOc1ccc(C[C@H](CC)C(=O)O)cc1CNC(=O)c1ccc([C@]23C[C@H]4C[C@H](C[C@H](C4)C2)C3)cc1
REMARK SMILES IDX 5 1 6 2 7 3 8 4 16 5 17 6 4 7 3 8 2 9 1 10 18 11 19 12 20 13
REMARK SMILES IDX 21 14 22 16 23 17 37 18 24 19 36 20 25 21 26 22 35 23 34 24
REMARK SMILES IDX 27 25 30 26 32 27 28 28 29 29 31 30 33 31 9 32 10 33 11 34
REMARK SMILES IDX 12 35 13 36 14 37 15 38
REMARK H PARENT 19 15 15 39
ROOT
ATOM      1  C   UNL     1      42.289 -38.482 109.055  1.00  0.00     0.124 A 
ATOM      2  C   UNL     1      42.735 -39.223 110.158  1.00  0.00     0.047 A 
ATOM      3  C   UNL     1      44.016 -39.782 110.172  1.00  0.00     0.007 A 
ATOM      4  C   UNL     1      44.854 -39.642 109.067  1.00  0.00    -0.047 A 
ATOM      5  C   UNL     1      44.368 -38.979 107.933  1.00  0.00     0.013 A 
ATOM      6  C   UNL     1      43.119 -38.341 107.927  1.00  0.00     0.014 A 
ENDROOT
BRANCH   1   7
ATOM      7  O   UNL     1      41.072 -37.854 108.981  1.00  0.00    -0.493 OA
BRANCH   7   8
ATOM      8  C   UNL     1      39.921 -38.604 109.366  1.00  0.00     0.229 C 
BRANCH   8   9
ATOM      9  C   UNL     1      39.148 -37.818 110.425  1.00  0.00     0.038 C 
ATOM     10  C   UNL     1      37.875 -38.529 110.863  1.00  0.00     0.007 C 
ENDBRANCH   8   9
ENDBRANCH   7   8
ENDBRANCH   1   7
BRANCH   6  11
ATOM     11  C   UNL     1      42.709 -37.420 106.798  1.00  0.00     0.156 C 
BRANCH  11  12
ATOM     12  N   UNL     1      42.920 -37.942 105.457  1.00  0.00    -0.348 N 
ATOM     13  C   UNL     1      42.187 -38.989 104.935  1.00  0.00     0.251 C 
ATOM     14  O   UNL     1      41.234 -39.502 105.515  1.00  0.00    -0.269 OA
ATOM     15  H   UNL     1      43.587 -37.452 104.882  1.00  0.00     0.164 HD
BRANCH  13  16
ATOM     16  C   UNL     1      42.553 -39.446 103.561  1.00  0.00     0.039 A 
ATOM     17  C   UNL     1      42.224 -38.624 102.480  1.00  0.00     0.014 A 
ATOM     18  C   UNL     1      43.193 -40.662 103.308  1.00  0.00     0.014 A 
ATOM     19  C   UNL     1      42.559 -38.997 101.173  1.00  0.00     0.005 A 
ATOM     20  C   UNL     1      43.534 -41.026 101.996  1.00  0.00     0.005 A 
ATOM     21  C   UNL     1      43.238 -40.198 100.900  1.00  0.00    -0.042 A 
BRANCH  21  22
ATOM     22  C   UNL     1      43.606 -40.567  99.452  1.00  0.00    -0.004 C 
ATOM     23  C   UNL     1      42.331 -40.613  98.553  1.00  0.00     0.015 C 
ATOM     24  C   UNL     1      44.597 -39.565  98.782  1.00  0.00     0.015 C 
ATOM     25  C   UNL     1      44.276 -41.970  99.423  1.00  0.00     0.015 C 
ATOM     26  C   UNL     1      42.676 -41.041  97.116  1.00  0.00    -0.010 C 
ATOM     27  C   UNL     1      44.940 -39.981  97.343  1.00  0.00    -0.010 C 
ATOM     28  C   UNL     1      44.619 -42.392  97.983  1.00  0.00    -0.010 C 
ATOM     29  C   UNL     1      43.330 -42.432  97.145  1.00  0.00     0.007 C 
ATOM     30  C   UNL     1      43.655 -40.030  96.507  1.00  0.00     0.007 C 
ATOM     31  C   UNL     1      45.589 -41.374  97.367  1.00  0.00     0.007 C 
ENDBRANCH  21  22
ENDBRANCH  13  16
ENDBRANCH  11  12
ENDBRANCH   6  11
BRANCH   4  32
ATOM     32  C   UNL     1      46.298 -40.090 109.103  1.00  0.00     0.050 C 
BRANCH  32  33
ATOM     33  C   UNL     1      47.322 -38.932 109.189  1.00  0.00     0.103 C 
BRANCH  33  34
ATOM     34  C   UNL     1      46.752 -37.541 108.853  1.00  0.00     0.012 C 
ATOM     35  C   UNL     1      46.796 -36.571 110.027  1.00  0.00     0.005 C 
ENDBRANCH  33  34
BRANCH  33  36
ATOM     36  C   UNL     1      48.551 -39.277 108.363  1.00  0.00     0.306 C 
ATOM     37  O   UNL     1      49.353 -38.453 107.944  1.00  0.00    -0.252 OA
BRANCH  36  38
ATOM     38  O   UNL     1      48.764 -40.599 108.216  1.00  0.00    -0.481 OA
ATOM     39  H   UNL     1      48.656 -41.013 109.112  1.00  0.00     0.296 HD
ENDBRANCH  36  38
ENDBRANCH  33  36
ENDBRANCH  32  33
ENDBRANCH   4  32
TORSDOF 12
ENDMDL
