REMARK SMILES C#CCN(C(=O)Oc1cccc2c(CN(C)CCC3CCCCCC3)c[nH]c12)C(C)C
REMARK SMILES IDX 8 1 9 2 10 3 11 4 12 5 13 6 26 7 27 8 28 9 7 11 5 12 6 13
REMARK SMILES IDX 4 14 3 15 2 16 1 17 29 18 30 19 31 20 14 21 15 22 16 23
REMARK SMILES IDX 17 24 18 25 19 26 20 27 25 28 21 29 24 30 22 31 23 32
REMARK H PARENT 27 10
REMARK INDEX MAP 8 1 9 2 10 3 11 4 12 5 13 6 26 7 27 8 28 9 61 10 7 11 5 12
REMARK INDEX MAP 6 13 4 14 3 15 2 16 1 17 29 18 30 19 31 20 14 21 15 22 16 23
REMARK INDEX MAP 17 24 18 25 19 26 20 27 25 28 21 29 24 30 22 31 23 32
ROOT
ATOM      1  C   UNL     1     133.595 114.031  39.679  1.00  0.00     0.156 A 
ATOM      2  C   UNL     1     134.031 115.335  39.410  1.00  0.00     0.049 A 
ATOM      3  C   UNL     1     135.248 115.560  38.778  1.00  0.00     0.005 A 
ATOM      4  C   UNL     1     136.058 114.486  38.398  1.00  0.00     0.011 A 
ATOM      5  C   UNL     1     135.641 113.160  38.654  1.00  0.00     0.008 A 
ATOM      6  C   UNL     1     136.220 111.870  38.397  1.00  0.00    -0.008 A 
ATOM      7  C   UNL     1     135.343 110.939  38.921  1.00  0.00     0.088 A 
ATOM      8  N   UNL     1     134.260 111.601  39.428  1.00  0.00    -0.358 N 
ATOM      9  C   UNL     1     134.412 112.960  39.295  1.00  0.00     0.089 A 
ATOM     10  H   UNL     1     133.441 111.143  39.852  1.00  0.00     0.166 HD
ENDROOT
BRANCH   1  11
ATOM     11  O   UNL     1     132.327 113.971  40.361  1.00  0.00    -0.408 OA
BRANCH  11  12
ATOM     12  C   UNL     1     131.974 113.262  41.514  1.00  0.00     0.416 C 
ATOM     13  O   UNL     1     131.264 112.262  41.506  1.00  0.00    -0.224 OA
BRANCH  12  14
ATOM     14  N   UNL     1     132.514 113.817  42.669  1.00  0.00    -0.294 N 
BRANCH  14  15
ATOM     15  C   UNL     1     133.315 113.023  43.591  1.00  0.00     0.213 C 
ATOM     16  C   UNL     1     134.606 112.665  42.990  1.00  0.00    -0.085 C 
ATOM     17  C   UNL     1     135.666 112.367  42.508  1.00  0.00     0.006 C 
ENDBRANCH  14  15
BRANCH  14  18
ATOM     18  C   UNL     1     132.336 115.245  42.981  1.00  0.00     0.083 C 
ATOM     19  C   UNL     1     133.640 115.901  43.436  1.00  0.00     0.031 C 
ATOM     20  C   UNL     1     131.203 115.494  43.978  1.00  0.00     0.031 C 
ENDBRANCH  14  18
ENDBRANCH  12  14
ENDBRANCH  11  12
ENDBRANCH   1  11
BRANCH   6  21
ATOM     21  C   UNL     1     137.543 111.592  37.743  1.00  0.00     0.122 C 
BRANCH  21  22
ATOM     22  N   UNL     1     138.599 111.143  38.668  1.00  0.00    -0.302 NA
ATOM     23  C   UNL     1     139.786 110.656  37.973  1.00  0.00     0.105 C 
BRANCH  22  24
ATOM     24  C   UNL     1     138.917 112.139  39.700  1.00  0.00     0.085 C 
BRANCH  24  25
ATOM     25  C   UNL     1     139.547 113.431  39.148  1.00  0.00     0.019 C 
BRANCH  25  26
ATOM     26  C   UNL     1     139.897 114.513  40.202  1.00  0.00    -0.010 C 
ATOM     27  C   UNL     1     138.583 115.031  40.826  1.00  0.00     0.003 C 
ATOM     28  C   UNL     1     140.898 113.968  41.236  1.00  0.00     0.003 C 
ATOM     29  C   UNL     1     138.782 116.222  41.758  1.00  0.00     0.000 C 
ATOM     30  C   UNL     1     141.247 114.901  42.395  1.00  0.00     0.000 C 
ATOM     31  C   UNL     1     140.059 117.018  41.522  1.00  0.00     0.000 C 
ATOM     32  C   UNL     1     141.368 116.360  41.969  1.00  0.00     0.000 C 
ENDBRANCH  25  26
ENDBRANCH  24  25
ENDBRANCH  22  24
ENDBRANCH  21  22
ENDBRANCH   6  21
TORSDOF 10
