REMARK VINA RESULT:    -7.779      1.987      2.828
REMARK INTER + INTRA:         -17.696
REMARK INTER:                 -15.538
REMARK INTRA:                  -2.158
REMARK UNBOUND:                -4.232
REMARK SMILES CC(C)Oc1ccc(-c2cccc(S(=O)(=O)N[C@H](Cc3cccc(C(=N)N)c3)C(=O)N3CCC(CCN)CC3)c2)cc1
REMARK SMILES IDX 17 1 14 3 15 4 16 5 13 6 9 7 10 8 40 9 11 10 12 11 8 12 5 13
REMARK SMILES IDX 6 14 42 15 7 16 41 17 4 18 2 19 1 20 3 21 18 22 19 23 20 24
REMARK SMILES IDX 21 25 28 26 22 27 24 28 23 29 25 30 26 31 27 32 29 36 30 37
REMARK SMILES IDX 31 38 32 39 39 40 33 41 38 42 34 43 35 44 36 45 37 46
REMARK H PARENT 17 2 26 33 27 34 27 35 37 47 37 48
ROOT
ATOM      1  N   UNL     1      -5.881  11.180  19.280  1.00  0.00    -0.198 NA
ATOM      2  H   UNL     1      -6.074  12.064  18.794  1.00  0.00     0.142 HD
ENDROOT
BRANCH   1   3
ATOM      3  S   UNL     1      -4.216  10.902  19.359  1.00  0.00     0.241 S 
ATOM      4  O   UNL     1      -3.624  11.589  18.232  1.00  0.00    -0.207 OA
ATOM      5  O   UNL     1      -4.000   9.488  19.580  1.00  0.00    -0.207 OA
BRANCH   3   6
ATOM      6  C   UNL     1      -3.705  11.778  20.814  1.00  0.00     0.083 A 
ATOM      7  C   UNL     1      -2.863  11.701  23.099  1.00  0.00    -0.017 A 
ATOM      8  C   UNL     1      -3.050  13.093  23.170  1.00  0.00     0.009 A 
ATOM      9  C   UNL     1      -3.198  11.052  21.900  1.00  0.00     0.030 A 
ATOM     10  C   UNL     1      -3.570  13.812  22.090  1.00  0.00     0.002 A 
ATOM     11  C   UNL     1      -3.906  13.154  20.908  1.00  0.00     0.022 A 
BRANCH   7  12
ATOM     12  C   UNL     1      -2.361  10.946  24.258  1.00  0.00    -0.018 A 
ATOM     13  C   UNL     1      -1.419   9.454  26.476  1.00  0.00     0.119 A 
ATOM     14  C   UNL     1      -2.509  10.309  26.616  1.00  0.00     0.047 A 
ATOM     15  C   UNL     1      -0.788   9.362  25.235  1.00  0.00     0.047 A 
ATOM     16  C   UNL     1      -2.977  11.043  25.515  1.00  0.00     0.012 A 
ATOM     17  C   UNL     1      -1.252  10.094  24.139  1.00  0.00     0.012 A 
BRANCH  13  18
ATOM     18  O   UNL     1      -0.862   8.681  27.454  1.00  0.00    -0.491 OA
BRANCH  18  19
ATOM     19  C   UNL     1      -1.335   7.341  27.631  1.00  0.00     0.167 C 
ATOM     20  C   UNL     1      -0.338   6.640  28.550  1.00  0.00     0.052 C 
ATOM     21  C   UNL     1      -2.715   7.368  28.282  1.00  0.00     0.052 C 
ENDBRANCH  18  19
ENDBRANCH  13  18
ENDBRANCH   7  12
ENDBRANCH   3   6
ENDBRANCH   1   3
BRANCH   1  22
ATOM     22  C   UNL     1      -6.641  11.139  20.577  1.00  0.00     0.163 C 
BRANCH  22  23
ATOM     23  C   UNL     1      -7.813  10.157  20.391  1.00  0.00     0.065 C 
BRANCH  23  24
ATOM     24  C   UNL     1      -7.668   9.269  19.176  1.00  0.00    -0.045 A 
ATOM     25  C   UNL     1      -8.156   9.693  17.932  1.00  0.00     0.004 A 
ATOM     26  C   UNL     1      -7.022   8.028  19.269  1.00  0.00     0.015 A 
ATOM     27  C   UNL     1      -7.998   8.895  16.798  1.00  0.00     0.001 A 
ATOM     28  C   UNL     1      -6.858   7.230  18.129  1.00  0.00     0.016 A 
ATOM     29  C   UNL     1      -7.346   7.665  16.893  1.00  0.00     0.012 A 
BRANCH  28  30
ATOM     30  C   UNL     1      -6.139   5.932  18.225  1.00  0.00     0.122 C 
ATOM     31  N   UNL     1      -6.757   4.795  18.213  1.00  0.00    -0.284 NA
ATOM     32  N   UNL     1      -4.789   5.902  18.340  1.00  0.00    -0.384 N 
ATOM     33  H   UNL     1      -7.764   4.921  18.080  1.00  0.00     0.189 HD
ATOM     34  H   UNL     1      -4.215   6.724  18.448  1.00  0.00     0.158 HD
ATOM     35  H   UNL     1      -4.354   4.990  18.400  1.00  0.00     0.158 HD
ENDBRANCH  28  30
ENDBRANCH  23  24
ENDBRANCH  22  23
BRANCH  22  36
ATOM     36  C   UNL     1      -7.191  12.551  20.834  1.00  0.00     0.241 C 
ATOM     37  O   UNL     1      -7.438  13.260  19.848  1.00  0.00    -0.273 OA
ATOM     38  N   UNL     1      -7.407  12.999  22.127  1.00  0.00    -0.341 N 
ATOM     39  C   UNL     1      -8.036  14.306  22.324  1.00  0.00     0.120 C 
ATOM     40  C   UNL     1      -7.150  12.255  23.363  1.00  0.00     0.120 C 
ATOM     41  C   UNL     1      -7.223  15.176  23.281  1.00  0.00     0.025 C 
ATOM     42  C   UNL     1      -6.303  13.081  24.332  1.00  0.00     0.025 C 
ATOM     43  C   UNL     1      -6.956  14.446  24.606  1.00  0.00    -0.006 C 
BRANCH  43  44
ATOM     44  C   UNL     1      -6.156  15.299  25.610  1.00  0.00     0.019 C 
BRANCH  44  45
ATOM     45  C   UNL     1      -4.840  14.686  26.096  1.00  0.00     0.078 C 
BRANCH  45  46
ATOM     46  N   UNL     1      -4.204  15.572  27.064  1.00  0.00    -0.330 NA
ATOM     47  H   UNL     1      -3.214  15.668  26.841  1.00  0.00     0.118 HD
ATOM     48  H   UNL     1      -4.604  16.506  26.996  1.00  0.00     0.118 HD
ENDBRANCH  45  46
ENDBRANCH  44  45
ENDBRANCH  43  44
ENDBRANCH  22  36
ENDBRANCH   1  22
TORSDOF 13
