MODEL 8
REMARK minimizedAffinity -7.08441591
REMARK CNNscore 0.426628977
REMARK CNNaffinity 5.29914522
REMARK SMILES N#C/C(=C\c1ccc(O)c(O)c1)C(=O)NCc1ccccc1
REMARK SMILES IDX 1 1 2 2 3 3 4 4 13 5 14 6 15 7 16 9 17 10 18 11 22 12 19 13
REMARK SMILES IDX 21 14 20 15 5 16 6 17 12 18 7 19 10 20 8 21 11 22 9 24
REMARK H PARENT 15 8 11 23 9 25
ROOT
ATOM      1  N   UNL     1      12.574   2.609  24.967  1.00  0.00    -0.192 NA
ATOM      2  C   UNL     1      13.522   3.208  25.271  1.00  0.00     0.105 C 
ATOM      3  C   UNL     1      14.676   3.915  25.710  1.00  0.00     0.117 C 
ATOM      4  C   UNL     1      15.701   3.341  26.371  1.00  0.00     0.033 C 
ENDROOT
BRANCH   3   5
ATOM      5  C   UNL     1      14.776   5.352  25.321  1.00  0.00     0.262 C 
ATOM      6  O   UNL     1      13.800   5.966  24.907  1.00  0.00    -0.268 OA
ATOM      7  N   UNL     1      16.014   5.925  25.511  1.00  0.00    -0.347 N 
ATOM      8  H   UNL     1      16.719   5.425  26.035  1.00  0.00     0.164 HD
BRANCH   7   9
ATOM      9  C   UNL     1      16.216   7.350  25.360  1.00  0.00     0.152 C 
BRANCH   9  10
ATOM     10  C   UNL     1      17.238   7.625  24.288  1.00  0.00    -0.029 A 
ATOM     11  C   UNL     1      18.363   6.801  24.140  1.00  0.00     0.005 A 
ATOM     12  C   UNL     1      17.097   8.740  23.448  1.00  0.00     0.005 A 
ATOM     13  C   UNL     1      19.319   7.079  23.161  1.00  0.00     0.000 A 
ATOM     14  C   UNL     1      18.055   9.016  22.471  1.00  0.00     0.000 A 
ATOM     15  C   UNL     1      19.165   8.186  22.328  1.00  0.00     0.000 A 
ENDBRANCH   9  10
ENDBRANCH   7   9
ENDBRANCH   3   5
BRANCH   4  16
ATOM     16  C   UNL     1      15.788   1.937  26.801  1.00  0.00    -0.020 A 
ATOM     17  C   UNL     1      14.887   1.382  27.725  1.00  0.00     0.012 A 
ATOM     18  C   UNL     1      16.839   1.150  26.315  1.00  0.00     0.058 A 
ATOM     19  C   UNL     1      15.009   0.048  28.133  1.00  0.00     0.051 A 
ATOM     20  C   UNL     1      16.956  -0.170  26.729  1.00  0.00     0.157 A 
ATOM     21  C   UNL     1      16.047  -0.723  27.626  1.00  0.00     0.157 A 
BRANCH  20  22
ATOM     22  O   UNL     1      17.981  -0.930  26.243  1.00  0.00    -0.504 OA
ATOM     23  H   UNL     1      17.852  -1.809  26.655  1.00  0.00     0.293 HD
ENDBRANCH  20  22
BRANCH  21  24
ATOM     24  O   UNL     1      16.219  -2.029  27.985  1.00  0.00    -0.504 OA
ATOM     25  H   UNL     1      15.486  -2.283  28.572  1.00  0.00     0.293 HD
ENDBRANCH  21  24
ENDBRANCH   4  16
TORSDOF 6
ENDMDL
