REMARK SMILES COc1nn(C)cc1Nc1ncc(C)c(-c2c[nH]c3c(NC(=O)[C@@H](C)N4CCN(C)[C@@H](C)C4)cccc23)n1
REMARK SMILES IDX 16 1 17 2 18 3 19 4 20 5 34 6 35 7 36 8 37 9 15 11 10 12
REMARK SMILES IDX 11 13 38 14 12 15 13 16 14 17 9 18 8 20 3 21 4 22 5 23 7 24
REMARK SMILES IDX 6 25 2 26 1 27 21 28 22 29 23 30 24 32 25 33 26 34 27 35
REMARK SMILES IDX 33 36 28 37 31 38 29 39 32 40 30 41
REMARK H PARENT 18 10 9 19 21 31
REMARK INDEX MAP 16 1 17 2 18 3 19 4 20 5 34 6 35 7 36 8 37 9 52 10 15 11
REMARK INDEX MAP 10 12 11 13 38 14 12 15 13 16 14 17 9 18 46 19 8 20 3 21 4 22
REMARK INDEX MAP 5 23 7 24 6 25 2 26 1 27 21 28 22 29 23 30 53 31 24 32 25 33
REMARK INDEX MAP 26 34 27 35 33 36 28 37 31 38 29 39 32 40 30 41
ROOT
ATOM      1  C   UNL     1       5.733 -24.512  22.778  1.00  0.00     0.026 A 
ATOM      2  C   UNL     1       5.695 -23.515  23.730  1.00  0.00     0.094 A 
ATOM      3  N   UNL     1       5.533 -22.320  23.085  1.00  0.00    -0.359 N 
ATOM      4  C   UNL     1       5.432 -22.500  21.722  1.00  0.00     0.070 A 
ATOM      5  C   UNL     1       5.237 -21.579  20.679  1.00  0.00     0.065 A 
ATOM      6  C   UNL     1       5.160 -22.109  19.377  1.00  0.00     0.028 A 
ATOM      7  C   UNL     1       5.271 -23.475  19.129  1.00  0.00     0.003 A 
ATOM      8  C   UNL     1       5.464 -24.367  20.183  1.00  0.00     0.011 A 
ATOM      9  C   UNL     1       5.546 -23.880  21.505  1.00  0.00     0.011 A 
ATOM     10  H   UNL     1       5.492 -21.405  23.556  1.00  0.00     0.166 HD
ENDROOT
BRANCH   1  11
ATOM     11  C   UNL     1       5.857 -25.931  23.084  1.00  0.00     0.081 A 
ATOM     12  C   UNL     1       7.175 -27.520  24.115  1.00  0.00     0.227 A 
ATOM     13  N   UNL     1       6.350 -28.510  23.749  1.00  0.00    -0.221 NA
ATOM     14  N   UNL     1       6.961 -26.236  23.803  1.00  0.00    -0.212 NA
ATOM     15  C   UNL     1       5.251 -28.168  23.052  1.00  0.00     0.120 A 
ATOM     16  C   UNL     1       4.926 -26.877  22.695  1.00  0.00    -0.006 A 
ATOM     17  C   UNL     1       3.674 -26.588  21.937  1.00  0.00     0.048 C 
BRANCH  12  18
ATOM     18  N   UNL     1       8.317 -27.757  24.875  1.00  0.00    -0.318 N 
ATOM     19  H   UNL     1       8.458 -28.748  25.116  1.00  0.00     0.170 HD
BRANCH  18  20
ATOM     20  C   UNL     1       9.273 -26.939  25.356  1.00  0.00     0.124 A 
ATOM     21  C   UNL     1      10.081 -27.176  26.492  1.00  0.00     0.256 A 
ATOM     22  N   UNL     1      10.938 -26.183  26.737  1.00  0.00    -0.133 NA
ATOM     23  N   UNL     1      10.672 -25.305  25.746  1.00  0.00    -0.270 N 
ATOM     24  C   UNL     1       9.688 -25.715  24.893  1.00  0.00     0.138 A 
ATOM     25  C   UNL     1      11.414 -24.070  25.678  1.00  0.00     0.173 C 
BRANCH  21  26
ATOM     26  O   UNL     1      10.034 -28.280  27.273  1.00  0.00    -0.478 OA
ATOM     27  C   UNL     1      11.273 -28.612  27.888  1.00  0.00     0.280 C 
ENDBRANCH  21  26
ENDBRANCH  18  20
ENDBRANCH  12  18
ENDBRANCH   1  11
BRANCH   5  28
ATOM     28  N   UNL     1       5.110 -20.186  20.799  1.00  0.00    -0.323 N 
ATOM     29  C   UNL     1       5.715 -19.310  21.682  1.00  0.00     0.241 C 
ATOM     30  O   UNL     1       6.510 -19.595  22.575  1.00  0.00    -0.273 OA
ATOM     31  H   UNL     1       4.466 -19.748  20.125  1.00  0.00     0.170 HD
BRANCH  29  32
ATOM     32  C   UNL     1       5.343 -17.834  21.379  1.00  0.00     0.143 C 
ATOM     33  C   UNL     1       6.579 -17.205  20.722  1.00  0.00     0.035 C 
BRANCH  32  34
ATOM     34  N   UNL     1       4.113 -17.792  20.525  1.00  0.00    -0.289 NA
ATOM     35  C   UNL     1       2.946 -17.380  21.349  1.00  0.00     0.101 C 
ATOM     36  C   UNL     1       4.231 -16.830  19.405  1.00  0.00     0.104 C 
ATOM     37  C   UNL     1       1.648 -17.290  20.523  1.00  0.00     0.100 C 
ATOM     38  C   UNL     1       2.925 -16.705  18.556  1.00  0.00     0.067 C 
ATOM     39  N   UNL     1       1.759 -16.340  19.397  1.00  0.00    -0.301 NA
ATOM     40  C   UNL     1       3.175 -15.679  17.442  1.00  0.00     0.026 C 
ATOM     41  C   UNL     1       0.501 -16.326  18.647  1.00  0.00     0.105 C 
ENDBRANCH  32  34
ENDBRANCH  29  32
ENDBRANCH   5  28
TORSDOF 7
