REMARK VINA RESULT:    -9.601      4.299      8.907
REMARK INTER + INTRA:         -12.758
REMARK INTER:                 -11.717
REMARK INTRA:                  -1.041
REMARK UNBOUND:                -0.912
REMARK SMILES Cc1cc(Nc2nn([C@@H]3CC(F)(F)C[C@@H]3C#N)c3cc[nH]c(=O)c23)ccc1C(=O)N1CCCC1
REMARK SMILES IDX 6 1 7 2 8 3 18 4 19 5 20 6 21 7 22 8 23 9 24 10 5 12 4 14
REMARK SMILES IDX 2 15 3 16 27 17 26 18 25 19 1 20 28 21 29 22 30 23 31 24
REMARK SMILES IDX 34 25 32 26 33 27 9 28 10 29 15 30 11 31 14 32 16 33 17 34
REMARK SMILES IDX 12 35 13 36
REMARK H PARENT 21 11 5 13
ROOT
ATOM      1  C   UNL     1       7.099 -19.955  19.551  1.00  0.00     0.166 A 
ATOM      2  N   UNL     1       8.314 -19.588  19.985  1.00  0.00    -0.153 NA
ATOM      3  N   UNL     1       8.197 -18.290  20.350  1.00  0.00    -0.258 N 
ATOM      4  C   UNL     1       6.937 -17.813  20.144  1.00  0.00     0.078 A 
ATOM      5  C   UNL     1       6.416 -16.519  20.365  1.00  0.00     0.046 A 
ATOM      6  C   UNL     1       5.119 -16.362  20.035  1.00  0.00     0.088 A 
ATOM      7  N   UNL     1       4.348 -17.400  19.530  1.00  0.00    -0.328 N 
ATOM      8  C   UNL     1       4.817 -18.691  19.297  1.00  0.00     0.261 A 
ATOM      9  O   UNL     1       4.107 -19.588  18.853  1.00  0.00    -0.269 OA
ATOM     10  C   UNL     1       6.211 -18.866  19.632  1.00  0.00     0.109 A 
ATOM     11  H   UNL     1       3.379 -17.236  19.288  1.00  0.00     0.169 HD
ENDROOT
BRANCH   1  12
ATOM     12  N   UNL     1       6.694 -21.166  19.101  1.00  0.00    -0.338 N 
ATOM     13  H   UNL     1       6.851 -21.347  18.108  1.00  0.00     0.168 HD
BRANCH  12  14
ATOM     14  C   UNL     1       6.096 -22.267  19.749  1.00  0.00     0.040 A 
ATOM     15  C   UNL     1       5.566 -23.379  21.883  1.00  0.00    -0.036 A 
ATOM     16  C   UNL     1       6.109 -22.303  21.157  1.00  0.00     0.030 A 
ATOM     17  C   UNL     1       4.990 -24.439  21.167  1.00  0.00     0.043 A 
ATOM     18  C   UNL     1       4.953 -24.415  19.770  1.00  0.00     0.016 A 
ATOM     19  C   UNL     1       5.514 -23.342  19.071  1.00  0.00     0.027 A 
ATOM     20  C   UNL     1       5.588 -23.356  23.384  1.00  0.00     0.045 C 
BRANCH  17  21
ATOM     21  C   UNL     1       4.376 -25.588  21.873  1.00  0.00     0.254 C 
ATOM     22  O   UNL     1       3.151 -25.679  21.904  1.00  0.00    -0.269 OA
ATOM     23  N   UNL     1       5.222 -26.498  22.476  1.00  0.00    -0.339 N 
ATOM     24  C   UNL     1       4.696 -27.660  23.168  1.00  0.00     0.120 C 
ATOM     25  C   UNL     1       6.671 -26.411  22.611  1.00  0.00     0.120 C 
ATOM     26  C   UNL     1       5.928 -28.488  23.511  1.00  0.00     0.023 C 
ATOM     27  C   UNL     1       7.009 -27.429  23.691  1.00  0.00     0.023 C 
ENDBRANCH  17  21
ENDBRANCH  12  14
ENDBRANCH   1  12
BRANCH   3  28
ATOM     28  C   UNL     1       9.385 -17.666  20.887  1.00  0.00     0.131 C 
ATOM     29  C   UNL     1      10.740 -18.201  20.402  1.00  0.00     0.105 C 
ATOM     30  C   UNL     1       9.459 -17.502  22.418  1.00  0.00     0.123 C 
ATOM     31  C   UNL     1      11.546 -18.360  21.672  1.00  0.00     0.251 C 
ATOM     32  C   UNL     1      10.962 -17.382  22.669  1.00  0.00     0.098 C 
ATOM     33  C   UNL     1       8.889 -18.618  23.188  1.00  0.00     0.068 C 
ATOM     34  N   UNL     1       8.465 -19.493  23.820  1.00  0.00    -0.198 NA
ATOM     35  F   UNL     1      12.854 -18.139  21.462  1.00  0.00    -0.207 F 
ATOM     36  F   UNL     1      11.416 -19.625  22.130  1.00  0.00    -0.207 F 
ENDBRANCH   3  28
TORSDOF 4
