REMARK SMILES COc1cc(/C=C(/C#N)C(N)=O)cc(CSCc2ccc(Cl)cc2)c1O
REMARK SMILES IDX 15 1 14 2 3 3 4 4 25 5 5 6 13 7 2 8 1 9 26 10 6 12 7 13 8 14
REMARK SMILES IDX 9 15 10 16 11 17 12 18 16 21 17 22 18 23 19 24 24 25 20 26
REMARK SMILES IDX 23 27 21 28 22 29
REMARK H PARENT 26 11 11 19 11 20
REMARK INDEX MAP 15 1 14 2 3 3 4 4 25 5 5 6 13 7 2 8 1 9 26 10 43 11 6 12 7 13
REMARK INDEX MAP 8 14 9 15 10 16 11 17 12 18 32 19 33 20 16 21 17 22 18 23
REMARK INDEX MAP 19 24 24 25 20 26 23 27 21 28 22 29
ROOT
ATOM      1  C   UNL     1      14.940   3.839  24.404  1.00  0.00     0.109 C 
ENDROOT
BRANCH   1   2
ATOM      2  C   UNL     1      13.809   4.050  25.379  1.00  0.00     0.008 A 
ATOM      3  C   UNL     1      11.552   4.836  25.911  1.00  0.00     0.161 A 
ATOM      4  C   UNL     1      11.717   4.437  27.235  1.00  0.00     0.058 A 
ATOM      5  C   UNL     1      12.601   4.638  24.999  1.00  0.00     0.161 A 
ATOM      6  C   UNL     1      12.910   3.822  27.641  1.00  0.00    -0.020 A 
ATOM      7  C   UNL     1      13.948   3.644  26.717  1.00  0.00     0.016 A 
BRANCH   3   8
ATOM      8  O   UNL     1      10.433   5.428  25.379  1.00  0.00    -0.493 OA
ATOM      9  C   UNL     1      10.413   6.852  25.359  1.00  0.00     0.278 C 
ENDBRANCH   3   8
BRANCH   5  10
ATOM     10  O   UNL     1      12.422   5.036  23.699  1.00  0.00    -0.504 OA
ATOM     11  H   UNL     1      11.568   5.454  23.422  1.00  0.00     0.293 HD
ENDBRANCH   5  10
BRANCH   6  12
ATOM     12  C   UNL     1      13.115   3.397  29.032  1.00  0.00     0.033 C 
ATOM     13  C   UNL     1      12.614   2.294  29.627  1.00  0.00     0.117 C 
ATOM     14  C   UNL     1      12.831   2.075  31.017  1.00  0.00     0.105 C 
ATOM     15  N   UNL     1      13.055   1.930  32.146  1.00  0.00    -0.192 NA
BRANCH  13  16
ATOM     16  C   UNL     1      11.782   1.288  28.918  1.00  0.00     0.259 C 
ATOM     17  N   UNL     1      10.441   1.524  28.896  1.00  0.00    -0.365 N 
ATOM     18  O   UNL     1      12.270   0.314  28.359  1.00  0.00    -0.269 OA
ATOM     19  H   UNL     1       9.810   0.864  28.420  1.00  0.00     0.159 HD
ATOM     20  H   UNL     1      10.058   2.363  29.355  1.00  0.00     0.159 HD
ENDBRANCH  13  16
ENDBRANCH   6  12
ENDBRANCH   1   2
BRANCH   1  21
ATOM     21  S   UNL     1      16.483   4.658  24.928  1.00  0.00    -0.152 SA
BRANCH  21  22
ATOM     22  C   UNL     1      17.661   3.294  24.671  1.00  0.00     0.105 C 
BRANCH  22  23
ATOM     23  C   UNL     1      17.336   2.079  25.505  1.00  0.00    -0.038 A 
ATOM     24  C   UNL     1      16.655   2.209  26.724  1.00  0.00     0.006 A 
ATOM     25  C   UNL     1      17.706   0.795  25.072  1.00  0.00     0.006 A 
ATOM     26  C   UNL     1      16.354   1.083  27.495  1.00  0.00     0.021 A 
ATOM     27  C   UNL     1      17.405  -0.331  25.842  1.00  0.00     0.021 A 
ATOM     28  C   UNL     1      16.731  -0.181  27.051  1.00  0.00     0.041 A 
ATOM     29  Cl  UNL     1      16.361  -1.566  28.002  1.00  0.00    -0.084 Cl
ENDBRANCH  22  23
ENDBRANCH  21  22
ENDBRANCH   1  21
TORSDOF 8
