MODEL 9
REMARK VINA RESULT:    -9.008      3.438     10.446
REMARK INTER + INTRA:         -14.450
REMARK INTER:                 -12.862
REMARK INTRA:                  -1.588
REMARK UNBOUND:                -1.757
REMARK SMILES COc1cc(O[C@H]2CCNCC2(F)F)c2c(Nc3ccc(Oc4ccn5ncnc5c4)c(C)c3)ncnc2c1
REMARK SMILES IDX 3 1 4 2 5 3 15 4 16 5 35 6 36 7 37 8 38 9 39 10 2 11 1 12
REMARK SMILES IDX 6 13 7 14 12 15 8 16 11 17 9 18 10 19 13 20 14 21 17 23
REMARK SMILES IDX 18 25 34 26 19 27 32 28 20 29 21 30 33 31 22 32 23 33 31 34
REMARK SMILES IDX 24 35 30 36 25 37 26 38 29 39 27 40 28 41
REMARK H PARENT 10 22 17 24
ROOT
ATOM      1  C   UNL     1      12.389   1.717  28.530  1.00  0.00     0.124 A 
ATOM      2  C   UNL     1      12.368   2.857  27.718  1.00  0.00     0.093 A 
ATOM      3  C   UNL     1      13.424   3.178  26.850  1.00  0.00     0.136 A 
ATOM      4  C   UNL     1      14.560   2.300  26.791  1.00  0.00     0.085 A 
ATOM      5  C   UNL     1      15.724   2.472  25.960  1.00  0.00     0.145 A 
ATOM      6  N   UNL     1      16.750   1.582  25.962  1.00  0.00    -0.218 NA
ATOM      7  C   UNL     1      16.641   0.523  26.792  1.00  0.00     0.224 A 
ATOM      8  N   UNL     1      15.612   0.252  27.624  1.00  0.00    -0.236 NA
ATOM      9  C   UNL     1      14.574   1.135  27.623  1.00  0.00     0.083 A 
ATOM     10  C   UNL     1      13.486   0.867  28.479  1.00  0.00     0.075 A 
ENDROOT
BRANCH   1  11
ATOM     11  O   UNL     1      11.378   1.361  29.404  1.00  0.00    -0.497 OA
ATOM     12  C   UNL     1      10.244   2.209  29.547  1.00  0.00     0.278 C 
ENDBRANCH   1  11
BRANCH   3  13
ATOM     13  O   UNL     1      13.417   4.301  26.039  1.00  0.00    -0.483 OA
BRANCH  13  14
ATOM     14  C   UNL     1      12.283   4.675  25.253  1.00  0.00     0.245 C 
ATOM     15  C   UNL     1      12.760   5.218  23.889  1.00  0.00     0.296 C 
ATOM     16  C   UNL     1      11.416   5.752  25.946  1.00  0.00     0.067 C 
ATOM     17  C   UNL     1      11.555   5.682  23.036  1.00  0.00     0.162 C 
ATOM     18  C   UNL     1      10.247   6.195  25.039  1.00  0.00     0.085 C 
ATOM     19  N   UNL     1      10.713   6.660  23.730  1.00  0.00    -0.311 NA
ATOM     20  F   UNL     1      13.596   6.245  24.069  1.00  0.00    -0.201 F 
ATOM     21  F   UNL     1      13.420   4.268  23.227  1.00  0.00    -0.201 F 
ATOM     22  H   UNL     1       9.926   6.919  23.153  1.00  0.00     0.122 HD
ENDBRANCH  13  14
ENDBRANCH   3  13
BRANCH   5  23
ATOM     23  N   UNL     1      15.829   3.567  25.081  1.00  0.00    -0.339 N 
ATOM     24  H   UNL     1      14.947   3.810  24.653  1.00  0.00     0.168 HD
BRANCH  23  25
ATOM     25  C   UNL     1      16.886   4.403  24.681  1.00  0.00     0.040 A 
ATOM     26  C   UNL     1      16.579   5.735  24.389  1.00  0.00     0.033 A 
ATOM     27  C   UNL     1      18.219   3.981  24.602  1.00  0.00     0.030 A 
ATOM     28  C   UNL     1      17.576   6.632  23.993  1.00  0.00    -0.006 A 
ATOM     29  C   UNL     1      19.218   4.871  24.210  1.00  0.00     0.049 A 
ATOM     30  C   UNL     1      18.903   6.197  23.886  1.00  0.00     0.130 A 
ATOM     31  C   UNL     1      17.209   8.075  23.679  1.00  0.00     0.048 C 
BRANCH  30  32
ATOM     32  O   UNL     1      19.880   7.098  23.513  1.00  0.00    -0.457 OA
BRANCH  32  33
ATOM     33  C   UNL     1      20.866   6.744  22.616  1.00  0.00     0.132 A 
ATOM     34  C   UNL     1      20.461   6.290  21.354  1.00  0.00     0.096 A 
ATOM     35  C   UNL     1      22.227   6.786  22.956  1.00  0.00     0.067 A 
ATOM     36  C   UNL     1      21.440   5.905  20.421  1.00  0.00     0.158 A 
ATOM     37  C   UNL     1      23.196   6.404  22.031  1.00  0.00     0.119 A 
ATOM     38  N   UNL     1      22.782   5.979  20.799  1.00  0.00    -0.221 N 
ATOM     39  N   UNL     1      21.379   5.443  19.148  1.00  0.00    -0.215 NA
ATOM     40  N   UNL     1      23.556   5.569  19.775  1.00  0.00    -0.155 NA
ATOM     41  C   UNL     1      22.656   5.276  18.855  1.00  0.00     0.247 A 
ENDBRANCH  32  33
ENDBRANCH  30  32
ENDBRANCH  23  25
ENDBRANCH   5  23
TORSDOF 7
ENDMDL
