REMARK SMILES Cc1cc(C(=O)O)[nH]c1/C=C1\C(=O)Nc2ncnc(Nc3ccc(F)c(Cl)c3)c21
REMARK SMILES IDX 10 1 11 2 12 3 13 4 14 5 15 6 16 7 17 8 18 9 19 10 29 11
REMARK SMILES IDX 9 13 2 14 3 15 4 16 8 17 1 18 5 20 6 21 7 22 20 24 21 26
REMARK SMILES IDX 22 27 28 28 23 29 26 30 24 31 27 32 25 33
REMARK H PARENT 14 12 8 19 7 23 20 25
REMARK INDEX MAP 10 1 11 2 12 3 13 4 14 5 15 6 16 7 17 8 18 9 19 10 29 11
REMARK INDEX MAP 37 12 9 13 2 14 3 15 4 16 8 17 1 18 35 19 5 20 6 21 7 22
REMARK INDEX MAP 34 23 20 24 39 25 21 26 22 27 28 28 23 29 26 30 24 31 27 32
REMARK INDEX MAP 25 33
ROOT
ATOM      1  C   UNL     1      10.696   1.604  30.370  1.00  0.00     0.041 C 
ATOM      2  C   UNL     1      10.160   0.442  30.783  1.00  0.00     0.056 C 
ATOM      3  C   UNL     1      10.599  -0.975  30.508  1.00  0.00     0.257 C 
ATOM      4  O   UNL     1      11.612  -1.357  29.958  1.00  0.00    -0.269 OA
ATOM      5  N   UNL     1       9.600  -1.771  31.019  1.00  0.00    -0.306 N 
ATOM      6  C   UNL     1       8.607  -1.023  31.625  1.00  0.00     0.146 A 
ATOM      7  N   UNL     1       7.546  -1.574  32.207  1.00  0.00    -0.218 NA
ATOM      8  C   UNL     1       6.729  -0.673  32.761  1.00  0.00     0.226 A 
ATOM      9  N   UNL     1       6.919   0.661  32.790  1.00  0.00    -0.218 NA
ATOM     10  C   UNL     1       8.032   1.165  32.210  1.00  0.00     0.144 A 
ATOM     11  C   UNL     1       8.907   0.327  31.558  1.00  0.00     0.073 A 
ATOM     12  H   UNL     1       9.592  -2.799  30.958  1.00  0.00     0.171 HD
ENDROOT
BRANCH   1  13
ATOM     13  C   UNL     1      11.872   1.854  29.607  1.00  0.00     0.042 A 
ATOM     14  C   UNL     1      13.176   2.105  30.026  1.00  0.00    -0.025 A 
ATOM     15  C   UNL     1      13.970   2.264  28.857  1.00  0.00     0.039 A 
ATOM     16  C   UNL     1      13.156   2.111  27.753  1.00  0.00     0.125 A 
ATOM     17  N   UNL     1      11.889   1.867  28.233  1.00  0.00    -0.349 N 
ATOM     18  C   UNL     1      13.673   2.198  31.426  1.00  0.00     0.046 C 
ATOM     19  H   UNL     1      11.061   1.714  27.639  1.00  0.00     0.167 HD
BRANCH  16  20
ATOM     20  C   UNL     1      13.504   2.186  26.365  1.00  0.00     0.352 C 
ATOM     21  O   UNL     1      12.753   2.242  25.403  1.00  0.00    -0.245 OA
BRANCH  20  22
ATOM     22  O   UNL     1      14.842   2.191  26.196  1.00  0.00    -0.477 OA
ATOM     23  H   UNL     1      15.226   2.240  25.285  1.00  0.00     0.297 HD
ENDBRANCH  20  22
ENDBRANCH  16  20
ENDBRANCH   1  13
BRANCH  10  24
ATOM     24  N   UNL     1       8.289   2.544  32.306  1.00  0.00    -0.339 N 
ATOM     25  H   UNL     1       9.166   2.788  32.788  1.00  0.00     0.168 HD
BRANCH  24  26
ATOM     26  C   UNL     1       7.540   3.644  31.849  1.00  0.00     0.041 A 
ATOM     27  C   UNL     1       7.551   4.831  32.604  1.00  0.00     0.029 A 
ATOM     28  C   UNL     1       6.829   3.635  30.641  1.00  0.00     0.049 A 
ATOM     29  C   UNL     1       6.848   5.963  32.181  1.00  0.00     0.043 A 
ATOM     30  C   UNL     1       6.126   4.765  30.216  1.00  0.00     0.078 A 
ATOM     31  C   UNL     1       6.136   5.922  30.989  1.00  0.00     0.141 A 
ATOM     32  Cl  UNL     1       5.259   4.714  28.728  1.00  0.00    -0.081 Cl
ATOM     33  F   UNL     1       5.469   7.018  30.598  1.00  0.00    -0.205 F 
ENDBRANCH  24  26
ENDBRANCH  10  24
TORSDOF 5
