MODEL 4
REMARK minimizedAffinity -8.16287041
REMARK CNNscore 0.921894491
REMARK CNNaffinity 7.95159864
REMARK SMILES COc1ccc(-c2cc3c(C)nc(N)nc3n([C@H]3CC[C@H](OCCO)CC3)c2=O)cn1
REMARK SMILES IDX 18 1 27 2 26 3 21 4 20 5 19 6 17 7 7 8 8 9 28 10 9 11 29 12
REMARK SMILES IDX 10 13 16 14 12 15 15 16 13 17 11 18 6 19 3 20 4 21 31 22
REMARK SMILES IDX 5 23 30 24 2 25 1 26 14 27 22 30 23 31 24 32 25 33
REMARK H PARENT 14 28 14 29 25 34
ROOT
ATOM      1  C   UNL     1      49.168  -1.546 -45.656  1.00  0.00     0.092 C 
ATOM      2  C   UNL     1      49.447  -2.991 -45.183  1.00  0.00     0.028 C 
ATOM      3  C   UNL     1      49.204  -3.201 -43.689  1.00  0.00     0.034 C 
ATOM      4  C   UNL     1      47.802  -2.751 -43.255  1.00  0.00     0.118 C 
ATOM      5  C   UNL     1      47.359  -1.434 -43.908  1.00  0.00     0.034 C 
ATOM      6  C   UNL     1      48.505  -0.678 -44.569  1.00  0.00     0.028 C 
ENDROOT
BRANCH   1   7
ATOM      7  N   UNL     1      50.363  -0.881 -46.225  1.00  0.00    -0.289 N 
ATOM      8  C   UNL     1      52.539   0.276 -46.007  1.00  0.00     0.050 A 
ATOM      9  C   UNL     1      52.613   0.410 -47.339  1.00  0.00     0.028 A 
ATOM     10  C   UNL     1      51.352  -0.391 -45.380  1.00  0.00     0.260 A 
ATOM     11  C   UNL     1      51.537  -0.075 -48.195  1.00  0.00     0.040 A 
ATOM     12  O   UNL     1      51.299  -0.479 -44.153  1.00  0.00    -0.269 OA
ATOM     13  C   UNL     1      51.526   0.056 -49.579  1.00  0.00     0.052 A 
ATOM     14  C   UNL     1      50.433  -0.709 -47.642  1.00  0.00     0.148 A 
ATOM     15  N   UNL     1      50.510  -0.405 -50.339  1.00  0.00    -0.218 NA
ATOM     16  N   UNL     1      49.415  -1.167 -48.398  1.00  0.00    -0.195 NA
ATOM     17  C   UNL     1      49.504  -1.013 -49.716  1.00  0.00     0.222 A 
ATOM     18  C   UNL     1      52.641   0.718 -50.336  1.00  0.00     0.067 C 
BRANCH   8  19
ATOM     19  C   UNL     1      53.652   0.770 -45.176  1.00  0.00     0.006 A 
ATOM     20  C   UNL     1      55.669   1.717 -43.570  1.00  0.00     0.212 A 
ATOM     21  C   UNL     1      55.948   1.458 -44.903  1.00  0.00     0.069 A 
ATOM     22  N   UNL     1      54.456   1.529 -43.010  1.00  0.00    -0.221 NA
ATOM     23  C   UNL     1      54.923   0.978 -45.716  1.00  0.00     0.016 A 
ATOM     24  C   UNL     1      53.483   1.052 -43.822  1.00  0.00     0.124 A 
BRANCH  20  25
ATOM     25  O   UNL     1      56.716   2.198 -42.811  1.00  0.00    -0.481 OA
ATOM     26  C   UNL     1      56.832   1.550 -41.549  1.00  0.00     0.280 C 
ENDBRANCH  20  25
ENDBRANCH   8  19
BRANCH  17  27
ATOM     27  N   UNL     1      48.464  -1.479 -50.487  1.00  0.00    -0.368 N 
ATOM     28  H   UNL     1      48.425  -0.978 -51.364  1.00  0.00     0.159 HD
ATOM     29  H   UNL     1      47.615  -1.537 -49.943  1.00  0.00     0.159 HD
ENDBRANCH  17  27
ENDBRANCH   1   7
BRANCH   4  30
ATOM     30  O   UNL     1      46.837  -3.745 -43.628  1.00  0.00    -0.376 OA
BRANCH  30  31
ATOM     31  C   UNL     1      45.987  -4.167 -42.564  1.00  0.00     0.188 C 
BRANCH  31  32
ATOM     32  C   UNL     1      46.701  -5.150 -41.637  1.00  0.00     0.184 C 
BRANCH  32  33
ATOM     33  O   UNL     1      46.637  -4.715 -40.284  1.00  0.00    -0.394 OA
ATOM     34  H   UNL     1      45.705  -4.743 -40.009  1.00  0.00     0.210 HD
ENDBRANCH  32  33
ENDBRANCH  31  32
ENDBRANCH  30  31
ENDBRANCH   4  30
TORSDOF 8
ENDMDL
