REMARK VINA RESULT:    -8.763      2.188      6.495
REMARK INTER + INTRA:         -13.725
REMARK INTER:                 -12.595
REMARK INTRA:                  -1.130
REMARK UNBOUND:                -1.376
REMARK SMILES COc1ccccc1C(=O)n1nc(-c2ccccn2)nc1NCc1cccs1
REMARK SMILES IDX 11 1 12 2 13 3 20 4 21 5 9 6 10 7 8 8 3 9 4 10 5 11 7 12
REMARK SMILES IDX 6 13 2 14 1 15 22 16 23 18 24 19 25 20 28 21 26 22 27 23
REMARK SMILES IDX 14 24 15 25 19 26 16 27 18 28 17 29
REMARK H PARENT 22 17
ROOT
ATOM      1  N   UNL     1     128.323 -14.449 160.973  1.00  0.00    -0.160 N 
ATOM      2  N   UNL     1     129.642 -14.650 161.219  1.00  0.00    -0.139 NA
ATOM      3  C   UNL     1     129.652 -15.019 162.510  1.00  0.00     0.202 A 
ATOM      4  N   UNL     1     128.399 -15.060 163.088  1.00  0.00    -0.189 NA
ATOM      5  C   UNL     1     127.585 -14.706 162.122  1.00  0.00     0.229 A 
ENDROOT
BRANCH   1   6
ATOM      6  C   UNL     1     127.873 -14.047 159.706  1.00  0.00     0.285 C 
ATOM      7  O   UNL     1     126.975 -13.204 159.649  1.00  0.00    -0.266 OA
BRANCH   6   8
ATOM      8  C   UNL     1     128.407 -14.600 158.441  1.00  0.00     0.084 A 
ATOM      9  C   UNL     1     129.267 -13.833 157.648  1.00  0.00     0.131 A 
ATOM     10  C   UNL     1     129.770 -14.357 156.454  1.00  0.00     0.047 A 
ATOM     11  C   UNL     1     129.380 -15.629 156.033  1.00  0.00     0.004 A 
ATOM     12  C   UNL     1     128.017 -15.876 158.015  1.00  0.00     0.018 A 
ATOM     13  C   UNL     1     128.504 -16.387 156.811  1.00  0.00     0.001 A 
BRANCH   9  14
ATOM     14  O   UNL     1     129.706 -12.611 158.086  1.00  0.00    -0.496 OA
ATOM     15  C   UNL     1     130.855 -12.192 157.345  1.00  0.00     0.278 C 
ENDBRANCH   9  14
ENDBRANCH   6   8
ENDBRANCH   1   6
BRANCH   5  16
ATOM     16  N   UNL     1     126.242 -14.594 162.178  1.00  0.00    -0.349 N 
ATOM     17  H   UNL     1     125.708 -14.224 161.390  1.00  0.00     0.164 HD
BRANCH  16  18
ATOM     18  C   UNL     1     125.504 -15.049 163.337  1.00  0.00     0.163 C 
BRANCH  18  19
ATOM     19  C   UNL     1     125.210 -13.945 164.315  1.00  0.00     0.024 A 
ATOM     20  C   UNL     1     124.318 -13.962 165.371  1.00  0.00     0.017 A 
ATOM     21  S   UNL     1     126.031 -12.445 164.210  1.00  0.00    -0.147 S 
ATOM     22  C   UNL     1     124.307 -12.733 166.091  1.00  0.00     0.012 A 
ATOM     23  C   UNL     1     125.192 -11.819 165.563  1.00  0.00     0.065 A 
ENDBRANCH  18  19
ENDBRANCH  16  18
ENDBRANCH   5  16
BRANCH   3  24
ATOM     24  C   UNL     1     130.866 -15.362 163.266  1.00  0.00     0.109 A 
ATOM     25  C   UNL     1     132.124 -15.198 162.684  1.00  0.00     0.032 A 
ATOM     26  N   UNL     1     130.709 -15.832 164.532  1.00  0.00    -0.253 NA
ATOM     27  C   UNL     1     133.256 -15.530 163.423  1.00  0.00     0.004 A 
ATOM     28  C   UNL     1     131.826 -16.146 165.222  1.00  0.00     0.112 A 
ATOM     29  C   UNL     1     133.109 -16.015 164.716  1.00  0.00     0.020 A 
ENDBRANCH   3  24
TORSDOF 7
