MODEL 1
REMARK VINA RESULT:    -8.203      0.000      0.000
REMARK INTER + INTRA:         -15.485
REMARK INTER:                 -13.478
REMARK INTRA:                  -2.007
REMARK UNBOUND:                -2.007
REMARK SMILES COc1ccc(-c2ccc(C(=O)N[C@H](CO)C(C)(C)C)cc2C(=O)O)c(C(=O)Nc2ccc(C(=N)N)cc2)n1
REMARK SMILES IDX 7 1 8 2 9 3 10 4 21 5 22 6 6 7 3 8 4 9 39 10 5 11 26 12 2 13
REMARK SMILES IDX 1 14 27 15 28 16 29 17 30 19 31 20 38 21 32 22 37 23 33 24
REMARK SMILES IDX 34 25 35 26 36 27 23 31 24 32 25 33 11 35 12 36 13 37 14 39
REMARK SMILES IDX 15 40 16 41 17 43 18 44 19 45 20 46
REMARK H PARENT 29 18 35 28 36 29 36 30 25 34 13 38 16 42
ROOT
ATOM      1  C   UNL     1      -5.821  13.978  21.880  1.00  0.00    -0.001 A 
ATOM      2  C   UNL     1      -4.639  13.960  21.113  1.00  0.00     0.010 A 
ATOM      3  C   UNL     1      -4.398  12.949  20.179  1.00  0.00     0.014 A 
ATOM      4  C   UNL     1      -5.328  11.921  19.977  1.00  0.00     0.040 A 
ATOM      5  C   UNL     1      -6.518  11.934  20.709  1.00  0.00     0.030 A 
ATOM      6  C   UNL     1      -6.772  12.962  21.638  1.00  0.00     0.068 A 
ENDROOT
BRANCH   1   7
ATOM      7  C   UNL     1      -5.959  15.000  22.934  1.00  0.00     0.014 A 
ATOM      8  C   UNL     1      -6.165  16.931  24.905  1.00  0.00     0.213 A 
ATOM      9  C   UNL     1      -6.567  17.247  23.620  1.00  0.00     0.069 A 
ATOM     10  N   UNL     1      -5.658  15.737  25.255  1.00  0.00    -0.208 NA
ATOM     11  C   UNL     1      -6.459  16.273  22.626  1.00  0.00     0.017 A 
ATOM     12  C   UNL     1      -5.585  14.798  24.274  1.00  0.00     0.140 A 
BRANCH   8  13
ATOM     13  O   UNL     1      -6.283  17.930  25.849  1.00  0.00    -0.481 OA
ATOM     14  C   UNL     1      -6.819  19.138  25.316  1.00  0.00     0.280 C 
ENDBRANCH   8  13
BRANCH  12  15
ATOM     15  C   UNL     1      -5.013  13.493  24.728  1.00  0.00     0.275 C 
ATOM     16  O   UNL     1      -5.780  12.613  25.103  1.00  0.00    -0.267 OA
ATOM     17  N   UNL     1      -3.632  13.422  24.645  1.00  0.00    -0.321 N 
ATOM     18  H   UNL     1      -3.150  14.256  24.333  1.00  0.00     0.170 HD
BRANCH  17  19
ATOM     19  C   UNL     1      -2.819  12.300  24.916  1.00  0.00     0.041 A 
ATOM     20  C   UNL     1      -1.745  11.903  24.118  1.00  0.00     0.027 A 
ATOM     21  C   UNL     1      -3.115  11.558  26.066  1.00  0.00     0.027 A 
ATOM     22  C   UNL     1      -0.975  10.781  24.457  1.00  0.00     0.014 A 
ATOM     23  C   UNL     1      -2.347  10.440  26.410  1.00  0.00     0.014 A 
ATOM     24  C   UNL     1      -1.275  10.046  25.604  1.00  0.00     0.016 A 
BRANCH  24  25
ATOM     25  C   UNL     1      -0.449   8.871  25.994  1.00  0.00     0.122 C 
ATOM     26  N   UNL     1       0.370   8.291  25.174  1.00  0.00    -0.284 NA
ATOM     27  N   UNL     1      -0.518   8.344  27.247  1.00  0.00    -0.384 N 
ATOM     28  H   UNL     1       0.392   8.768  24.271  1.00  0.00     0.189 HD
ATOM     29  H   UNL     1      -0.558   9.001  28.011  1.00  0.00     0.158 HD
ATOM     30  H   UNL     1       0.232   7.670  27.380  1.00  0.00     0.158 HD
ENDBRANCH  24  25
ENDBRANCH  17  19
ENDBRANCH  12  15
ENDBRANCH   1   7
BRANCH   6  31
ATOM     31  C   UNL     1      -8.069  12.955  22.358  1.00  0.00     0.336 C 
ATOM     32  O   UNL     1      -9.046  13.623  22.084  1.00  0.00    -0.246 OA
BRANCH  31  33
ATOM     33  O   UNL     1      -8.019  12.153  23.435  1.00  0.00    -0.478 OA
ATOM     34  H   UNL     1      -7.305  12.545  23.984  1.00  0.00     0.297 HD
ENDBRANCH  31  33
ENDBRANCH   6  31
BRANCH   4  35
ATOM     35  C   UNL     1      -4.963  10.828  19.026  1.00  0.00     0.251 C 
ATOM     36  O   UNL     1      -3.831  10.773  18.551  1.00  0.00    -0.269 OA
ATOM     37  N   UNL     1      -5.937   9.904  18.706  1.00  0.00    -0.346 N 
ATOM     38  H   UNL     1      -6.901  10.179  18.790  1.00  0.00     0.164 HD
BRANCH  37  39
ATOM     39  C   UNL     1      -5.654   8.784  17.792  1.00  0.00     0.113 C 
BRANCH  39  40
ATOM     40  C   UNL     1      -6.261   9.076  16.396  1.00  0.00     0.181 C 
BRANCH  40  41
ATOM     41  O   UNL     1      -5.378   8.719  15.328  1.00  0.00    -0.394 OA
ATOM     42  H   UNL     1      -5.127   7.775  15.442  1.00  0.00     0.210 HD
ENDBRANCH  40  41
ENDBRANCH  39  40
BRANCH  39  43
ATOM     43  C   UNL     1      -6.087   7.416  18.421  1.00  0.00    -0.016 C 
ATOM     44  C   UNL     1      -6.622   7.631  19.854  1.00  0.00     0.013 C 
ATOM     45  C   UNL     1      -4.931   6.401  18.483  1.00  0.00     0.013 C 
ATOM     46  C   UNL     1      -7.232   6.804  17.583  1.00  0.00     0.013 C 
ENDBRANCH  39  43
ENDBRANCH  37  39
ENDBRANCH   4  35
TORSDOF 12
ENDMDL
