MODEL 1
REMARK VINA RESULT:    -8.539      0.000      0.000
REMARK INTER + INTRA:         -15.618
REMARK INTER:                 -14.280
REMARK INTRA:                  -1.337
REMARK UNBOUND:                -1.337
REMARK SMILES COc1cc(OCC(=O)O)c(C)cc1SCc1ccc(OCc2ccc(C(F)(F)F)cc2)cc1
REMARK SMILES IDX 15 1 14 2 3 3 4 4 5 5 13 6 11 7 12 8 2 9 1 10 6 11 7 12 8 13
REMARK SMILES IDX 9 14 10 15 16 17 17 18 18 19 34 20 19 21 33 22 20 23 21 24
REMARK SMILES IDX 22 25 23 26 24 27 32 28 25 29 31 30 26 31 27 32 28 33 29 34
REMARK SMILES IDX 30 35
REMARK H PARENT 10 16
ROOT
ATOM      1  S   UNL     1     -10.393  -8.727 -23.133  1.00  0.00    -0.118 SA
ENDROOT
BRANCH   1   2
ATOM      2  C   UNL     1     -10.196  -8.388 -24.885  1.00  0.00     0.050 A 
ATOM      3  C   UNL     1     -11.274  -8.025 -25.715  1.00  0.00     0.136 A 
ATOM      4  C   UNL     1     -11.039  -7.803 -27.075  1.00  0.00     0.094 A 
ATOM      5  C   UNL     1      -9.750  -7.945 -27.601  1.00  0.00     0.126 A 
ATOM      6  C   UNL     1      -8.902  -8.487 -25.420  1.00  0.00     0.026 A 
ATOM      7  C   UNL     1      -8.665  -8.259 -26.781  1.00  0.00    -0.008 A 
ATOM      8  C   UNL     1      -7.277  -8.386 -27.339  1.00  0.00     0.048 C 
BRANCH   3   9
ATOM      9  O   UNL     1     -12.511  -7.928 -25.123  1.00  0.00    -0.495 OA
ATOM     10  C   UNL     1     -13.333  -6.838 -25.512  1.00  0.00     0.278 C 
ENDBRANCH   3   9
BRANCH   5  11
ATOM     11  O   UNL     1      -9.530  -7.712 -28.934  1.00  0.00    -0.481 OA
BRANCH  11  12
ATOM     12  C   UNL     1      -9.995  -8.785 -29.744  1.00  0.00     0.351 C 
BRANCH  12  13
ATOM     13  C   UNL     1      -8.972  -9.233 -30.772  1.00  0.00     0.341 C 
ATOM     14  O   UNL     1      -9.023 -10.202 -31.508  1.00  0.00    -0.248 OA
BRANCH  13  15
ATOM     15  O   UNL     1      -7.905  -8.409 -30.814  1.00  0.00    -0.479 OA
ATOM     16  H   UNL     1      -7.137  -9.017 -30.882  1.00  0.00     0.296 HD
ENDBRANCH  13  15
ENDBRANCH  12  13
ENDBRANCH  11  12
ENDBRANCH   5  11
ENDBRANCH   1   2
BRANCH   1  17
ATOM     17  C   UNL     1      -8.753  -9.452 -22.787  1.00  0.00     0.110 C 
BRANCH  17  18
ATOM     18  C   UNL     1      -7.833  -8.492 -22.071  1.00  0.00    -0.037 A 
ATOM     19  C   UNL     1      -6.594  -8.923 -21.579  1.00  0.00     0.008 A 
ATOM     20  C   UNL     1      -8.179  -7.140 -21.929  1.00  0.00     0.008 A 
ATOM     21  C   UNL     1      -5.719  -8.016 -20.975  1.00  0.00     0.047 A 
ATOM     22  C   UNL     1      -7.301  -6.234 -21.322  1.00  0.00     0.047 A 
ATOM     23  C   UNL     1      -6.064  -6.667 -20.845  1.00  0.00     0.119 A 
BRANCH  23  24
ATOM     24  O   UNL     1      -5.103  -5.890 -20.264  1.00  0.00    -0.489 OA
BRANCH  24  25
ATOM     25  C   UNL     1      -5.482  -4.626 -19.712  1.00  0.00     0.265 C 
BRANCH  25  26
ATOM     26  C   UNL     1      -4.727  -3.457 -20.309  1.00  0.00    -0.011 A 
ATOM     27  C   UNL     1      -4.400  -3.457 -21.671  1.00  0.00     0.008 A 
ATOM     28  C   UNL     1      -4.389  -2.341 -19.533  1.00  0.00     0.008 A 
ATOM     29  C   UNL     1      -3.716  -2.381 -22.238  1.00  0.00     0.013 A 
ATOM     30  C   UNL     1      -3.705  -1.264 -20.099  1.00  0.00     0.013 A 
ATOM     31  C   UNL     1      -3.353  -1.276 -21.457  1.00  0.00     0.056 A 
BRANCH  31  32
ATOM     32  C   UNL     1      -2.610  -0.110 -22.058  1.00  0.00     0.416 C 
ATOM     33  F   UNL     1      -3.154   1.089 -21.714  1.00  0.00    -0.166 F 
ATOM     34  F   UNL     1      -1.302  -0.048 -21.685  1.00  0.00    -0.166 F 
ATOM     35  F   UNL     1      -2.605  -0.141 -23.419  1.00  0.00    -0.166 F 
ENDBRANCH  31  32
ENDBRANCH  25  26
ENDBRANCH  24  25
ENDBRANCH  23  24
ENDBRANCH  17  18
ENDBRANCH   1  17
TORSDOF 12
ENDMDL
