MODEL 1
REMARK VINA RESULT:    -9.548      0.000      0.000
REMARK INTER + INTRA:         -17.174
REMARK INTER:                 -15.967
REMARK INTRA:                  -1.207
REMARK UNBOUND:                -1.207
REMARK SMILES CCCc1c(OCCCNc2ccc(CC(=O)O)cc2)ccc2c(C(F)(F)F)noc12
REMARK SMILES IDX 8 1 7 2 6 3 5 4 4 5 31 6 21 7 30 8 23 9 22 10 29 11 24 12
REMARK SMILES IDX 3 13 2 14 1 15 25 16 26 17 27 18 28 19 9 20 10 21 11 23
REMARK SMILES IDX 12 24 20 25 13 26 19 27 14 28 15 29 16 30 17 31 18 32
REMARK H PARENT 10 22 18 33
ROOT
ATOM      1  C   UNL     1       9.648   4.556  -6.409  1.00  0.00     0.063 C 
ENDROOT
BRANCH   1   2
ATOM      2  C   UNL     1       9.268   5.699  -7.347  1.00  0.00     0.231 C 
BRANCH   2   3
ATOM      3  O   UNL     1      10.479   6.247  -7.871  1.00  0.00    -0.493 OA
BRANCH   3   4
ATOM      4  C   UNL     1      10.386   7.112  -8.934  1.00  0.00     0.126 A 
ATOM      5  C   UNL     1      10.868   6.600 -10.162  1.00  0.00     0.040 A 
ATOM      6  C   UNL     1      10.776   7.478 -11.251  1.00  0.00     0.174 A 
ATOM      7  C   UNL     1       9.855   8.407  -8.850  1.00  0.00     0.048 A 
ATOM      8  O   UNL     1      11.182   7.215 -12.524  1.00  0.00    -0.355 OA
ATOM      9  C   UNL     1      10.261   8.758 -11.200  1.00  0.00     0.055 A 
ATOM     10  C   UNL     1       9.785   9.245  -9.974  1.00  0.00     0.018 A 
ATOM     11  N   UNL     1      10.942   8.312 -13.329  1.00  0.00    -0.074 NA
ATOM     12  C   UNL     1      10.383   9.240 -12.533  1.00  0.00     0.195 A 
BRANCH   5  13
ATOM     13  C   UNL     1      11.455   5.217 -10.285  1.00  0.00     0.043 C 
BRANCH  13  14
ATOM     14  C   UNL     1      10.558   4.230 -11.039  1.00  0.00     0.002 C 
ATOM     15  C   UNL     1       9.745   3.330 -10.119  1.00  0.00     0.004 C 
ENDBRANCH  13  14
ENDBRANCH   5  13
BRANCH  12  16
ATOM     16  C   UNL     1       9.990  10.579 -13.044  1.00  0.00     0.437 C 
ATOM     17  F   UNL     1      10.291  11.596 -12.196  1.00  0.00    -0.164 F 
ATOM     18  F   UNL     1       8.652  10.653 -13.287  1.00  0.00    -0.164 F 
ATOM     19  F   UNL     1      10.605  10.872 -14.224  1.00  0.00    -0.164 F 
ENDBRANCH  12  16
ENDBRANCH   3   4
ENDBRANCH   2   3
ENDBRANCH   1   2
BRANCH   1  20
ATOM     20  C   UNL     1       8.423   3.868  -5.816  1.00  0.00     0.116 C 
BRANCH  20  21
ATOM     21  N   UNL     1       8.713   2.480  -5.512  1.00  0.00    -0.385 N 
ATOM     22  H   UNL     1       8.063   1.775  -5.841  1.00  0.00     0.160 HD
BRANCH  21  23
ATOM     23  C   UNL     1       9.649   2.074  -4.577  1.00  0.00     0.034 A 
ATOM     24  C   UNL     1       9.503   2.267  -3.200  1.00  0.00     0.026 A 
ATOM     25  C   UNL     1      10.843   1.495  -5.023  1.00  0.00     0.026 A 
ATOM     26  C   UNL     1      10.499   1.871  -2.298  1.00  0.00     0.006 A 
ATOM     27  C   UNL     1      11.845   1.097  -4.132  1.00  0.00     0.006 A 
ATOM     28  C   UNL     1      11.678   1.274  -2.755  1.00  0.00    -0.037 A 
BRANCH  28  29
ATOM     29  C   UNL     1      12.757   0.858  -1.787  1.00  0.00     0.158 C 
BRANCH  29  30
ATOM     30  C   UNL     1      13.995   1.720  -1.840  1.00  0.00     0.307 C 
ATOM     31  O   UNL     1      14.185   2.741  -2.477  1.00  0.00    -0.252 OA
BRANCH  30  32
ATOM     32  O   UNL     1      14.976   1.231  -1.048  1.00  0.00    -0.481 OA
ATOM     33  H   UNL     1      15.018   1.875  -0.310  1.00  0.00     0.296 HD
ENDBRANCH  30  32
ENDBRANCH  29  30
ENDBRANCH  28  29
ENDBRANCH  21  23
ENDBRANCH  20  21
ENDBRANCH   1  20
TORSDOF 12
ENDMDL
MODEL 2
REMARK VINA RESULT:    -8.993      3.988      5.737
REMARK INTER + INTRA:         -16.246
REMARK INTER:                 -14.973
REMARK INTRA:                  -1.274
REMARK UNBOUND:                -1.207
REMARK SMILES CCCc1c(OCCCNc2ccc(CC(=O)O)cc2)ccc2c(C(F)(F)F)noc12
REMARK SMILES IDX 8 1 7 2 6 3 5 4 4 5 31 6 21 7 30 8 23 9 22 10 29 11 24 12
REMARK SMILES IDX 3 13 2 14 1 15 25 16 26 17 27 18 28 19 9 20 10 21 11 23
REMARK SMILES IDX 12 24 20 25 13 26 19 27 14 28 15 29 16 30 17 31 18 32
REMARK H PARENT 10 22 18 33
ROOT
ATOM      1  C   UNL     1       8.703   5.015  -6.851  1.00  0.00     0.063 C 
ENDROOT
BRANCH   1   2
ATOM      2  C   UNL     1       8.708   6.397  -7.498  1.00  0.00     0.231 C 
BRANCH   2   3
ATOM      3  O   UNL     1      10.029   6.640  -7.985  1.00  0.00    -0.493 OA
BRANCH   3   4
ATOM      4  C   UNL     1      10.167   7.415  -9.111  1.00  0.00     0.126 A 
ATOM      5  C   UNL     1      10.705   6.742 -10.233  1.00  0.00     0.040 A 
ATOM      6  C   UNL     1      10.849   7.526 -11.386  1.00  0.00     0.174 A 
ATOM      7  C   UNL     1       9.807   8.768  -9.185  1.00  0.00     0.048 A 
ATOM      8  O   UNL     1      11.350   7.105 -12.580  1.00  0.00    -0.355 OA
ATOM      9  C   UNL     1      10.506   8.861 -11.489  1.00  0.00     0.055 A 
ATOM     10  C   UNL     1       9.970   9.507 -10.366  1.00  0.00     0.018 A 
ATOM     11  N   UNL     1      11.347   8.149 -13.486  1.00  0.00    -0.074 NA
ATOM     12  C   UNL     1      10.834   9.205 -12.830  1.00  0.00     0.195 A 
BRANCH   5  13
ATOM     13  C   UNL     1      11.113   5.292 -10.186  1.00  0.00     0.043 C 
BRANCH  13  14
ATOM     14  C   UNL     1      10.182   4.362 -10.970  1.00  0.00     0.002 C 
ATOM     15  C   UNL     1       9.746   3.136 -10.180  1.00  0.00     0.004 C 
ENDBRANCH  13  14
ENDBRANCH   5  13
BRANCH  12  16
ATOM     16  C   UNL     1      10.679  10.533 -13.480  1.00  0.00     0.437 C 
ATOM     17  F   UNL     1      11.341  10.642 -14.661  1.00  0.00    -0.164 F 
ATOM     18  F   UNL     1      11.130  11.540 -12.683  1.00  0.00    -0.164 F 
ATOM     19  F   UNL     1       9.374  10.817 -13.748  1.00  0.00    -0.164 F 
ENDBRANCH  12  16
ENDBRANCH   3   4
ENDBRANCH   2   3
ENDBRANCH   1   2
BRANCH   1  20
ATOM     20  C   UNL     1       7.330   4.643  -6.300  1.00  0.00     0.116 C 
BRANCH  20  21
ATOM     21  N   UNL     1       6.369   5.695  -6.572  1.00  0.00    -0.385 N 
ATOM     22  H   UNL     1       6.411   6.156  -7.475  1.00  0.00     0.160 HD
BRANCH  21  23
ATOM     23  C   UNL     1       5.591   6.301  -5.601  1.00  0.00     0.034 A 
ATOM     24  C   UNL     1       5.335   7.675  -5.559  1.00  0.00     0.026 A 
ATOM     25  C   UNL     1       5.080   5.518  -4.559  1.00  0.00     0.026 A 
ATOM     26  C   UNL     1       4.573   8.243  -4.531  1.00  0.00     0.006 A 
ATOM     27  C   UNL     1       4.318   6.075  -3.526  1.00  0.00     0.006 A 
ATOM     28  C   UNL     1       4.050   7.447  -3.507  1.00  0.00    -0.037 A 
BRANCH  28  29
ATOM     29  C   UNL     1       3.239   8.059  -2.393  1.00  0.00     0.158 C 
BRANCH  29  30
ATOM     30  C   UNL     1       3.788   7.788  -1.013  1.00  0.00     0.307 C 
ATOM     31  O   UNL     1       3.548   6.853  -0.268  1.00  0.00    -0.252 OA
BRANCH  30  32
ATOM     32  O   UNL     1       4.653   8.750  -0.624  1.00  0.00    -0.481 OA
ATOM     33  H   UNL     1       4.331   9.551  -1.088  1.00  0.00     0.296 HD
ENDBRANCH  30  32
ENDBRANCH  29  30
ENDBRANCH  28  29
ENDBRANCH  21  23
ENDBRANCH  20  21
ENDBRANCH   1  20
TORSDOF 12
ENDMDL
MODEL 3
REMARK VINA RESULT:    -8.930      4.890      6.655
REMARK INTER + INTRA:         -16.142
REMARK INTER:                 -15.000
REMARK INTRA:                  -1.142
REMARK UNBOUND:                -1.207
REMARK SMILES CCCc1c(OCCCNc2ccc(CC(=O)O)cc2)ccc2c(C(F)(F)F)noc12
REMARK SMILES IDX 8 1 7 2 6 3 5 4 4 5 31 6 21 7 30 8 23 9 22 10 29 11 24 12
REMARK SMILES IDX 3 13 2 14 1 15 25 16 26 17 27 18 28 19 9 20 10 21 11 23
REMARK SMILES IDX 12 24 20 25 13 26 19 27 14 28 15 29 16 30 17 31 18 32
REMARK H PARENT 10 22 18 33
ROOT
ATOM      1  C   UNL     1      10.414  11.850  -5.900  1.00  0.00     0.063 C 
ENDROOT
BRANCH   1   2
ATOM      2  C   UNL     1      11.251  10.878  -6.727  1.00  0.00     0.231 C 
BRANCH   2   3
ATOM      3  O   UNL     1      10.349  10.060  -7.476  1.00  0.00    -0.493 OA
BRANCH   3   4
ATOM      4  C   UNL     1      10.444  10.086  -8.846  1.00  0.00     0.126 A 
ATOM      5  C   UNL     1      10.193   8.848  -9.483  1.00  0.00     0.040 A 
ATOM      6  C   UNL     1      10.288   8.866 -10.881  1.00  0.00     0.174 A 
ATOM      7  C   UNL     1      10.754  11.232  -9.592  1.00  0.00     0.048 A 
ATOM      8  O   UNL     1      10.100   7.800 -11.707  1.00  0.00    -0.355 OA
ATOM      9  C   UNL     1      10.594   9.977 -11.644  1.00  0.00     0.055 A 
ATOM     10  C   UNL     1      10.834  11.195 -10.993  1.00  0.00     0.018 A 
ATOM     11  N   UNL     1      10.279   8.187 -13.022  1.00  0.00    -0.074 NA
ATOM     12  C   UNL     1      10.572   9.499 -12.983  1.00  0.00     0.195 A 
BRANCH   5  13
ATOM     13  C   UNL     1       9.868   7.595  -8.710  1.00  0.00     0.043 C 
BRANCH  13  14
ATOM     14  C   UNL     1      10.768   6.404  -9.057  1.00  0.00     0.002 C 
ATOM     15  C   UNL     1      10.167   5.060  -8.667  1.00  0.00     0.004 C 
ENDBRANCH  13  14
ENDBRANCH   5  13
BRANCH  12  16
ATOM     16  C   UNL     1      10.844  10.279 -14.219  1.00  0.00     0.437 C 
ATOM     17  F   UNL     1       9.775  10.991 -14.662  1.00  0.00    -0.164 F 
ATOM     18  F   UNL     1      11.233   9.475 -15.247  1.00  0.00    -0.164 F 
ATOM     19  F   UNL     1      11.852  11.178 -14.040  1.00  0.00    -0.164 F 
ENDBRANCH  12  16
ENDBRANCH   3   4
ENDBRANCH   2   3
ENDBRANCH   1   2
BRANCH   1  20
ATOM     20  C   UNL     1       9.534  11.129  -4.885  1.00  0.00     0.116 C 
BRANCH  20  21
ATOM     21  N   UNL     1       8.343  10.601  -5.523  1.00  0.00    -0.385 N 
ATOM     22  H   UNL     1       8.210  10.790  -6.511  1.00  0.00     0.160 HD
BRANCH  21  23
ATOM     23  C   UNL     1       7.251  10.106  -4.833  1.00  0.00     0.034 A 
ATOM     24  C   UNL     1       7.071  10.260  -3.454  1.00  0.00     0.026 A 
ATOM     25  C   UNL     1       6.298   9.351  -5.527  1.00  0.00     0.026 A 
ATOM     26  C   UNL     1       5.966   9.706  -2.797  1.00  0.00     0.006 A 
ATOM     27  C   UNL     1       5.191   8.792  -4.880  1.00  0.00     0.006 A 
ATOM     28  C   UNL     1       5.009   8.972  -3.505  1.00  0.00    -0.037 A 
BRANCH  28  29
ATOM     29  C   UNL     1       3.825   8.364  -2.797  1.00  0.00     0.158 C 
BRANCH  29  30
ATOM     30  C   UNL     1       4.164   7.715  -1.477  1.00  0.00     0.307 C 
ATOM     31  O   UNL     1       4.712   6.646  -1.274  1.00  0.00    -0.252 OA
BRANCH  30  32
ATOM     32  O   UNL     1       3.782   8.482  -0.432  1.00  0.00    -0.481 OA
ATOM     33  H   UNL     1       3.360   7.843   0.180  1.00  0.00     0.296 HD
ENDBRANCH  30  32
ENDBRANCH  29  30
ENDBRANCH  28  29
ENDBRANCH  21  23
ENDBRANCH  20  21
ENDBRANCH   1  20
TORSDOF 12
ENDMDL
MODEL 4
REMARK VINA RESULT:    -8.785      5.972      7.399
REMARK INTER + INTRA:         -15.899
REMARK INTER:                 -14.537
REMARK INTRA:                  -1.361
REMARK UNBOUND:                -1.207
REMARK SMILES CCCc1c(OCCCNc2ccc(CC(=O)O)cc2)ccc2c(C(F)(F)F)noc12
REMARK SMILES IDX 8 1 7 2 6 3 5 4 4 5 31 6 21 7 30 8 23 9 22 10 29 11 24 12
REMARK SMILES IDX 3 13 2 14 1 15 25 16 26 17 27 18 28 19 9 20 10 21 11 23
REMARK SMILES IDX 12 24 20 25 13 26 19 27 14 28 15 29 16 30 17 31 18 32
REMARK H PARENT 10 22 18 33
ROOT
ATOM      1  C   UNL     1       9.918  12.028  -6.728  1.00  0.00     0.063 C 
ENDROOT
BRANCH   1   2
ATOM      2  C   UNL     1      10.822  11.317  -7.731  1.00  0.00     0.231 C 
BRANCH   2   3
ATOM      3  O   UNL     1      10.009  10.915  -8.835  1.00  0.00    -0.493 OA
BRANCH   3   4
ATOM      4  C   UNL     1      10.156   9.634  -9.309  1.00  0.00     0.126 A 
ATOM      5  C   UNL     1      10.526   9.542 -10.671  1.00  0.00     0.040 A 
ATOM      6  C   UNL     1      10.679   8.239 -11.162  1.00  0.00     0.174 A 
ATOM      7  C   UNL     1       9.971   8.481  -8.533  1.00  0.00     0.048 A 
ATOM      8  O   UNL     1      11.018   7.900 -12.437  1.00  0.00    -0.355 OA
ATOM      9  C   UNL     1      10.501   7.085 -10.424  1.00  0.00     0.055 A 
ATOM     10  C   UNL     1      10.139   7.197  -9.074  1.00  0.00     0.018 A 
ATOM     11  N   UNL     1      11.069   6.525 -12.560  1.00  0.00    -0.074 NA
ATOM     12  C   UNL     1      10.762   6.034 -11.346  1.00  0.00     0.195 A 
BRANCH   5  13
ATOM     13  C   UNL     1      10.723  10.761 -11.537  1.00  0.00     0.043 C 
BRANCH  13  14
ATOM     14  C   UNL     1       9.767  10.829 -12.733  1.00  0.00     0.002 C 
ATOM     15  C   UNL     1      10.469  11.130 -14.050  1.00  0.00     0.004 C 
ENDBRANCH  13  14
ENDBRANCH   5  13
BRANCH  12  16
ATOM     16  C   UNL     1      10.703   4.572 -11.083  1.00  0.00     0.437 C 
ATOM     17  F   UNL     1      11.354   4.195  -9.951  1.00  0.00    -0.164 F 
ATOM     18  F   UNL     1      11.245   3.853 -12.105  1.00  0.00    -0.164 F 
ATOM     19  F   UNL     1       9.421   4.132 -10.950  1.00  0.00    -0.164 F 
ENDBRANCH  12  16
ENDBRANCH   3   4
ENDBRANCH   2   3
ENDBRANCH   1   2
BRANCH   1  20
ATOM     20  C   UNL     1       9.390  11.080  -5.658  1.00  0.00     0.116 C 
BRANCH  20  21
ATOM     21  N   UNL     1       8.215  10.375  -6.134  1.00  0.00    -0.385 N 
ATOM     22  H   UNL     1       8.046  10.354  -7.134  1.00  0.00     0.160 HD
BRANCH  21  23
ATOM     23  C   UNL     1       7.170   9.977  -5.319  1.00  0.00     0.034 A 
ATOM     24  C   UNL     1       7.044  10.357  -3.979  1.00  0.00     0.026 A 
ATOM     25  C   UNL     1       6.213   9.092  -5.830  1.00  0.00     0.026 A 
ATOM     26  C   UNL     1       5.987   9.895  -3.186  1.00  0.00     0.006 A 
ATOM     27  C   UNL     1       5.153   8.623  -5.046  1.00  0.00     0.006 A 
ATOM     28  C   UNL     1       5.025   9.028  -3.715  1.00  0.00    -0.037 A 
BRANCH  28  29
ATOM     29  C   UNL     1       3.892   8.518  -2.859  1.00  0.00     0.158 C 
BRANCH  29  30
ATOM     30  C   UNL     1       4.341   7.782  -1.620  1.00  0.00     0.307 C 
ATOM     31  O   UNL     1       4.821   6.666  -1.530  1.00  0.00    -0.252 OA
BRANCH  30  32
ATOM     32  O   UNL     1       4.158   8.525  -0.505  1.00  0.00    -0.481 OA
ATOM     33  H   UNL     1       4.213   7.869   0.221  1.00  0.00     0.296 HD
ENDBRANCH  30  32
ENDBRANCH  29  30
ENDBRANCH  28  29
ENDBRANCH  21  23
ENDBRANCH  20  21
ENDBRANCH   1  20
TORSDOF 12
ENDMDL
MODEL 5
REMARK VINA RESULT:    -8.662      6.696     10.466
REMARK INTER + INTRA:         -15.692
REMARK INTER:                 -14.653
REMARK INTRA:                  -1.039
REMARK UNBOUND:                -1.207
REMARK SMILES CCCc1c(OCCCNc2ccc(CC(=O)O)cc2)ccc2c(C(F)(F)F)noc12
REMARK SMILES IDX 8 1 7 2 6 3 5 4 4 5 31 6 21 7 30 8 23 9 22 10 29 11 24 12
REMARK SMILES IDX 3 13 2 14 1 15 25 16 26 17 27 18 28 19 9 20 10 21 11 23
REMARK SMILES IDX 12 24 20 25 13 26 19 27 14 28 15 29 16 30 17 31 18 32
REMARK H PARENT 10 22 18 33
ROOT
ATOM      1  C   UNL     1       7.291   5.301  -6.965  1.00  0.00     0.063 C 
ENDROOT
BRANCH   1   2
ATOM      2  C   UNL     1       7.167   6.756  -6.519  1.00  0.00     0.231 C 
BRANCH   2   3
ATOM      3  O   UNL     1       5.775   7.057  -6.413  1.00  0.00    -0.493 OA
BRANCH   3   4
ATOM      4  C   UNL     1       5.166   6.870  -5.196  1.00  0.00     0.126 A 
ATOM      5  C   UNL     1       4.857   8.060  -4.496  1.00  0.00     0.040 A 
ATOM      6  C   UNL     1       4.236   7.877  -3.253  1.00  0.00     0.174 A 
ATOM      7  C   UNL     1       4.852   5.614  -4.658  1.00  0.00     0.048 A 
ATOM      8  O   UNL     1       3.856   8.866  -2.398  1.00  0.00    -0.355 OA
ATOM      9  C   UNL     1       3.916   6.654  -2.696  1.00  0.00     0.055 A 
ATOM     10  C   UNL     1       4.226   5.487  -3.408  1.00  0.00     0.018 A 
ATOM     11  N   UNL     1       3.281   8.316  -1.268  1.00  0.00    -0.074 NA
ATOM     12  C   UNL     1       3.314   6.983  -1.450  1.00  0.00     0.195 A 
BRANCH   5  13
ATOM     13  C   UNL     1       5.191   9.426  -5.040  1.00  0.00     0.043 C 
BRANCH  13  14
ATOM     14  C   UNL     1       6.612   9.893  -4.706  1.00  0.00     0.002 C 
ATOM     15  C   UNL     1       6.803  10.238  -3.235  1.00  0.00     0.004 C 
ENDBRANCH  13  14
ENDBRANCH   5  13
BRANCH  12  16
ATOM     16  C   UNL     1       2.788   6.039  -0.429  1.00  0.00     0.437 C 
ATOM     17  F   UNL     1       1.914   5.127  -0.929  1.00  0.00    -0.164 F 
ATOM     18  F   UNL     1       2.143   6.692   0.577  1.00  0.00    -0.164 F 
ATOM     19  F   UNL     1       3.786   5.325   0.162  1.00  0.00    -0.164 F 
ENDBRANCH  12  16
ENDBRANCH   3   4
ENDBRANCH   2   3
ENDBRANCH   1   2
BRANCH   1  20
ATOM     20  C   UNL     1       8.702   4.758  -6.768  1.00  0.00     0.116 C 
BRANCH  20  21
ATOM     21  N   UNL     1       9.689   5.746  -7.161  1.00  0.00    -0.385 N 
ATOM     22  H   UNL     1      10.014   6.400  -6.456  1.00  0.00     0.160 HD
BRANCH  21  23
ATOM     23  C   UNL     1      10.007   6.040  -8.474  1.00  0.00     0.034 A 
ATOM     24  C   UNL     1      10.080   7.342  -8.981  1.00  0.00     0.026 A 
ATOM     25  C   UNL     1      10.205   4.986  -9.375  1.00  0.00     0.026 A 
ATOM     26  C   UNL     1      10.369   7.584 -10.330  1.00  0.00     0.006 A 
ATOM     27  C   UNL     1      10.492   5.217 -10.724  1.00  0.00     0.006 A 
ATOM     28  C   UNL     1      10.586   6.523 -11.214  1.00  0.00    -0.037 A 
BRANCH  28  29
ATOM     29  C   UNL     1      10.885   6.781 -12.670  1.00  0.00     0.158 C 
BRANCH  29  30
ATOM     30  C   UNL     1      11.832   7.932 -12.908  1.00  0.00     0.307 C 
ATOM     31  O   UNL     1      11.581   9.051 -13.321  1.00  0.00    -0.252 OA
BRANCH  30  32
ATOM     32  O   UNL     1      13.105   7.602 -12.596  1.00  0.00    -0.481 OA
ATOM     33  H   UNL     1      13.134   6.633 -12.743  1.00  0.00     0.296 HD
ENDBRANCH  30  32
ENDBRANCH  29  30
ENDBRANCH  28  29
ENDBRANCH  21  23
ENDBRANCH  20  21
ENDBRANCH   1  20
TORSDOF 12
ENDMDL
MODEL 6
REMARK VINA RESULT:    -8.452      1.636      2.907
REMARK INTER + INTRA:         -15.342
REMARK INTER:                 -14.399
REMARK INTRA:                  -0.942
REMARK UNBOUND:                -1.207
REMARK SMILES CCCc1c(OCCCNc2ccc(CC(=O)O)cc2)ccc2c(C(F)(F)F)noc12
REMARK SMILES IDX 8 1 7 2 6 3 5 4 4 5 31 6 21 7 30 8 23 9 22 10 29 11 24 12
REMARK SMILES IDX 3 13 2 14 1 15 25 16 26 17 27 18 28 19 9 20 10 21 11 23
REMARK SMILES IDX 12 24 20 25 13 26 19 27 14 28 15 29 16 30 17 31 18 32
REMARK H PARENT 10 22 18 33
ROOT
ATOM      1  C   UNL     1       8.632   4.851  -7.434  1.00  0.00     0.063 C 
ENDROOT
BRANCH   1   2
ATOM      2  C   UNL     1       9.999   5.509  -7.605  1.00  0.00     0.231 C 
BRANCH   2   3
ATOM      3  O   UNL     1       9.780   6.900  -7.850  1.00  0.00    -0.493 OA
BRANCH   3   4
ATOM      4  C   UNL     1      10.149   7.402  -9.074  1.00  0.00     0.126 A 
ATOM      5  C   UNL     1      10.145   8.815  -9.162  1.00  0.00     0.040 A 
ATOM      6  C   UNL     1      10.522   9.336 -10.408  1.00  0.00     0.174 A 
ATOM      7  C   UNL     1      10.517   6.612 -10.172  1.00  0.00     0.048 A 
ATOM      8  O   UNL     1      10.583  10.656 -10.734  1.00  0.00    -0.355 OA
ATOM      9  C   UNL     1      10.886   8.584 -11.508  1.00  0.00     0.055 A 
ATOM     10  C   UNL     1      10.888   7.186 -11.398  1.00  0.00     0.018 A 
ATOM     11  N   UNL     1      10.986  10.797 -12.049  1.00  0.00    -0.074 NA
ATOM     12  C   UNL     1      11.173   9.549 -12.513  1.00  0.00     0.195 A 
BRANCH   5  13
ATOM     13  C   UNL     1       9.745   9.694  -8.005  1.00  0.00     0.043 C 
BRANCH  13  14
ATOM     14  C   UNL     1      10.865  10.617  -7.514  1.00  0.00     0.002 C 
ATOM     15  C   UNL     1      10.638  11.145  -6.104  1.00  0.00     0.004 C 
ENDBRANCH  13  14
ENDBRANCH   5  13
BRANCH  12  16
ATOM     16  C   UNL     1      11.605   9.288 -13.911  1.00  0.00     0.437 C 
ATOM     17  F   UNL     1      11.301  10.294 -14.772  1.00  0.00    -0.164 F 
ATOM     18  F   UNL     1      11.036   8.158 -14.413  1.00  0.00    -0.164 F 
ATOM     19  F   UNL     1      12.952   9.105 -14.000  1.00  0.00    -0.164 F 
ENDBRANCH  12  16
ENDBRANCH   3   4
ENDBRANCH   2   3
ENDBRANCH   1   2
BRANCH   1  20
ATOM     20  C   UNL     1       8.299   4.591  -5.968  1.00  0.00     0.116 C 
BRANCH  20  21
ATOM     21  N   UNL     1       8.386   3.174  -5.669  1.00  0.00    -0.385 N 
ATOM     22  H   UNL     1       7.601   2.584  -5.927  1.00  0.00     0.160 HD
BRANCH  21  23
ATOM     23  C   UNL     1       9.324   2.621  -4.816  1.00  0.00     0.034 A 
ATOM     24  C   UNL     1       9.198   2.617  -3.423  1.00  0.00     0.026 A 
ATOM     25  C   UNL     1      10.501   2.090  -5.358  1.00  0.00     0.026 A 
ATOM     26  C   UNL     1      10.196   2.077  -2.602  1.00  0.00     0.006 A 
ATOM     27  C   UNL     1      11.505   1.550  -4.547  1.00  0.00     0.006 A 
ATOM     28  C   UNL     1      11.357   1.531  -3.157  1.00  0.00    -0.037 A 
BRANCH  28  29
ATOM     29  C   UNL     1      12.439   0.960  -2.274  1.00  0.00     0.158 C 
BRANCH  29  30
ATOM     30  C   UNL     1      13.816   1.511  -2.555  1.00  0.00     0.307 C 
ATOM     31  O   UNL     1      14.840   0.904  -2.814  1.00  0.00    -0.252 OA
BRANCH  30  32
ATOM     32  O   UNL     1      13.833   2.861  -2.496  1.00  0.00    -0.481 OA
ATOM     33  H   UNL     1      13.795   3.051  -1.535  1.00  0.00     0.296 HD
ENDBRANCH  30  32
ENDBRANCH  29  30
ENDBRANCH  28  29
ENDBRANCH  21  23
ENDBRANCH  20  21
ENDBRANCH   1  20
TORSDOF 12
ENDMDL
MODEL 7
REMARK VINA RESULT:    -8.263      7.975     11.341
REMARK INTER + INTRA:         -15.025
REMARK INTER:                 -13.880
REMARK INTRA:                  -1.145
REMARK UNBOUND:                -1.207
REMARK SMILES CCCc1c(OCCCNc2ccc(CC(=O)O)cc2)ccc2c(C(F)(F)F)noc12
REMARK SMILES IDX 8 1 7 2 6 3 5 4 4 5 31 6 21 7 30 8 23 9 22 10 29 11 24 12
REMARK SMILES IDX 3 13 2 14 1 15 25 16 26 17 27 18 28 19 9 20 10 21 11 23
REMARK SMILES IDX 12 24 20 25 13 26 19 27 14 28 15 29 16 30 17 31 18 32
REMARK H PARENT 10 22 18 33
ROOT
ATOM      1  C   UNL     1       8.136  10.534  -6.214  1.00  0.00     0.063 C 
ENDROOT
BRANCH   1   2
ATOM      2  C   UNL     1       7.559  10.285  -4.823  1.00  0.00     0.231 C 
BRANCH   2   3
ATOM      3  O   UNL     1       6.160  10.037  -4.976  1.00  0.00    -0.493 OA
BRANCH   3   4
ATOM      4  C   UNL     1       5.545   9.231  -4.049  1.00  0.00     0.126 A 
ATOM      5  C   UNL     1       4.758   8.190  -4.596  1.00  0.00     0.040 A 
ATOM      6  C   UNL     1       4.128   7.361  -3.657  1.00  0.00     0.174 A 
ATOM      7  C   UNL     1       5.669   9.388  -2.662  1.00  0.00     0.048 A 
ATOM      8  O   UNL     1       3.316   6.306  -3.942  1.00  0.00    -0.355 OA
ATOM      9  C   UNL     1       4.229   7.493  -2.286  1.00  0.00     0.055 A 
ATOM     10  C   UNL     1       5.017   8.529  -1.764  1.00  0.00     0.018 A 
ATOM     11  N   UNL     1       2.870   5.727  -2.770  1.00  0.00    -0.074 NA
ATOM     12  C   UNL     1       3.424   6.439  -1.772  1.00  0.00     0.195 A 
BRANCH   5  13
ATOM     13  C   UNL     1       4.594   7.998  -6.082  1.00  0.00     0.043 C 
BRANCH  13  14
ATOM     14  C   UNL     1       3.419   8.779  -6.680  1.00  0.00     0.002 C 
ATOM     15  C   UNL     1       2.100   8.020  -6.625  1.00  0.00     0.004 C 
ENDBRANCH  13  14
ENDBRANCH   5  13
BRANCH  12  16
ATOM     16  C   UNL     1       3.166   6.120  -0.343  1.00  0.00     0.437 C 
ATOM     17  F   UNL     1       1.936   5.588  -0.117  1.00  0.00    -0.164 F 
ATOM     18  F   UNL     1       3.267   7.224   0.447  1.00  0.00    -0.164 F 
ATOM     19  F   UNL     1       4.065   5.221   0.146  1.00  0.00    -0.164 F 
ENDBRANCH  12  16
ENDBRANCH   3   4
ENDBRANCH   2   3
ENDBRANCH   1   2
BRANCH   1  20
ATOM     20  C   UNL     1       9.542  11.123  -6.156  1.00  0.00     0.116 C 
BRANCH  20  21
ATOM     21  N   UNL     1      10.484  10.266  -6.851  1.00  0.00    -0.385 N 
ATOM     22  H   UNL     1      11.360  10.048  -6.388  1.00  0.00     0.160 HD
BRANCH  21  23
ATOM     23  C   UNL     1      10.399   9.958  -8.197  1.00  0.00     0.034 A 
ATOM     24  C   UNL     1      10.165   8.668  -8.684  1.00  0.00     0.026 A 
ATOM     25  C   UNL     1      10.623  10.971  -9.138  1.00  0.00     0.026 A 
ATOM     26  C   UNL     1      10.127   8.403 -10.058  1.00  0.00     0.006 A 
ATOM     27  C   UNL     1      10.588  10.717 -10.513  1.00  0.00     0.006 A 
ATOM     28  C   UNL     1      10.331   9.428 -10.988  1.00  0.00    -0.037 A 
BRANCH  28  29
ATOM     29  C   UNL     1      10.302   9.143 -12.469  1.00  0.00     0.158 C 
BRANCH  29  30
ATOM     30  C   UNL     1       9.774  10.284 -13.304  1.00  0.00     0.307 C 
ATOM     31  O   UNL     1      10.400  11.137 -13.909  1.00  0.00    -0.252 OA
BRANCH  30  32
ATOM     32  O   UNL     1       8.423  10.290 -13.341  1.00  0.00    -0.481 OA
ATOM     33  H   UNL     1       8.217  10.811 -14.146  1.00  0.00     0.296 HD
ENDBRANCH  30  32
ENDBRANCH  29  30
ENDBRANCH  28  29
ENDBRANCH  21  23
ENDBRANCH  20  21
ENDBRANCH   1  20
TORSDOF 12
ENDMDL
MODEL 8
REMARK VINA RESULT:    -8.223      4.125      6.339
REMARK INTER + INTRA:         -14.959
REMARK INTER:                 -13.476
REMARK INTRA:                  -1.483
REMARK UNBOUND:                -1.207
REMARK SMILES CCCc1c(OCCCNc2ccc(CC(=O)O)cc2)ccc2c(C(F)(F)F)noc12
REMARK SMILES IDX 8 1 7 2 6 3 5 4 4 5 31 6 21 7 30 8 23 9 22 10 29 11 24 12
REMARK SMILES IDX 3 13 2 14 1 15 25 16 26 17 27 18 28 19 9 20 10 21 11 23
REMARK SMILES IDX 12 24 20 25 13 26 19 27 14 28 15 29 16 30 17 31 18 32
REMARK H PARENT 10 22 18 33
ROOT
ATOM      1  C   UNL     1       9.997   5.202  -6.903  1.00  0.00     0.063 C 
ENDROOT
BRANCH   1   2
ATOM      2  C   UNL     1      10.248   5.803  -8.284  1.00  0.00     0.231 C 
BRANCH   2   3
ATOM      3  O   UNL     1      10.066   7.216  -8.178  1.00  0.00    -0.493 OA
BRANCH   3   4
ATOM      4  C   UNL     1      10.197   7.969  -9.320  1.00  0.00     0.126 A 
ATOM      5  C   UNL     1      10.166   9.369  -9.116  1.00  0.00     0.040 A 
ATOM      6  C   UNL     1      10.301  10.143 -10.276  1.00  0.00     0.174 A 
ATOM      7  C   UNL     1      10.361   7.430 -10.604  1.00  0.00     0.048 A 
ATOM      8  O   UNL     1      10.290  11.504 -10.333  1.00  0.00    -0.355 OA
ATOM      9  C   UNL     1      10.460   9.642 -11.554  1.00  0.00     0.055 A 
ATOM     10  C   UNL     1      10.494   8.252 -11.733  1.00  0.00     0.018 A 
ATOM     11  N   UNL     1      10.441  11.921 -11.642  1.00  0.00    -0.074 NA
ATOM     12  C   UNL     1      10.549  10.799 -12.376  1.00  0.00     0.195 A 
BRANCH   5  13
ATOM     13  C   UNL     1       9.981   9.981  -7.752  1.00  0.00     0.043 C 
BRANCH  13  14
ATOM     14  C   UNL     1      11.225  10.705  -7.225  1.00  0.00     0.002 C 
ATOM     15  C   UNL     1      10.927  12.090  -6.668  1.00  0.00     0.004 C 
ENDBRANCH  13  14
ENDBRANCH   5  13
BRANCH  12  16
ATOM     16  C   UNL     1      10.715  10.842 -13.853  1.00  0.00     0.437 C 
ATOM     17  F   UNL     1       9.548  10.718 -14.537  1.00  0.00    -0.164 F 
ATOM     18  F   UNL     1      11.537   9.851 -14.297  1.00  0.00    -0.164 F 
ATOM     19  F   UNL     1      11.276  12.012 -14.266  1.00  0.00    -0.164 F 
ENDBRANCH  12  16
ENDBRANCH   3   4
ENDBRANCH   2   3
ENDBRANCH   1   2
BRANCH   1  20
ATOM     20  C   UNL     1       8.579   4.660  -6.761  1.00  0.00     0.116 C 
BRANCH  20  21
ATOM     21  N   UNL     1       7.609   5.642  -7.207  1.00  0.00    -0.385 N 
ATOM     22  H   UNL     1       7.795   6.135  -8.074  1.00  0.00     0.160 HD
BRANCH  21  23
ATOM     23  C   UNL     1       6.604   6.153  -6.405  1.00  0.00     0.034 A 
ATOM     24  C   UNL     1       5.716   5.358  -5.673  1.00  0.00     0.026 A 
ATOM     25  C   UNL     1       6.410   7.540  -6.365  1.00  0.00     0.026 A 
ATOM     26  C   UNL     1       4.691   5.926  -4.907  1.00  0.00     0.006 A 
ATOM     27  C   UNL     1       5.388   8.117  -5.604  1.00  0.00     0.006 A 
ATOM     28  C   UNL     1       4.521   7.313  -4.859  1.00  0.00    -0.037 A 
BRANCH  28  29
ATOM     29  C   UNL     1       3.410   7.926  -4.044  1.00  0.00     0.158 C 
BRANCH  29  30
ATOM     30  C   UNL     1       3.692   7.978  -2.561  1.00  0.00     0.307 C 
ATOM     31  O   UNL     1       4.446   8.718  -1.956  1.00  0.00    -0.252 OA
BRANCH  30  32
ATOM     32  O   UNL     1       2.973   7.054  -1.885  1.00  0.00    -0.481 OA
ATOM     33  H   UNL     1       3.263   6.204  -2.279  1.00  0.00     0.296 HD
ENDBRANCH  30  32
ENDBRANCH  29  30
ENDBRANCH  28  29
ENDBRANCH  21  23
ENDBRANCH  20  21
ENDBRANCH   1  20
TORSDOF 12
ENDMDL
MODEL 9
REMARK VINA RESULT:    -7.797      5.889      7.058
REMARK INTER + INTRA:         -14.247
REMARK INTER:                 -13.201
REMARK INTRA:                  -1.045
REMARK UNBOUND:                -1.207
REMARK SMILES CCCc1c(OCCCNc2ccc(CC(=O)O)cc2)ccc2c(C(F)(F)F)noc12
REMARK SMILES IDX 8 1 7 2 6 3 5 4 4 5 31 6 21 7 30 8 23 9 22 10 29 11 24 12
REMARK SMILES IDX 3 13 2 14 1 15 25 16 26 17 27 18 28 19 9 20 10 21 11 23
REMARK SMILES IDX 12 24 20 25 13 26 19 27 14 28 15 29 16 30 17 31 18 32
REMARK H PARENT 10 22 18 33
ROOT
ATOM      1  C   UNL     1       7.931  10.527  -4.850  1.00  0.00     0.063 C 
ENDROOT
BRANCH   1   2
ATOM      2  C   UNL     1       8.052  10.024  -6.286  1.00  0.00     0.231 C 
BRANCH   2   3
ATOM      3  O   UNL     1       9.400  10.241  -6.706  1.00  0.00    -0.493 OA
BRANCH   3   4
ATOM      4  C   UNL     1       9.751   9.842  -7.973  1.00  0.00     0.126 A 
ATOM      5  C   UNL     1      10.204  10.881  -8.820  1.00  0.00     0.040 A 
ATOM      6  C   UNL     1      10.565  10.481 -10.114  1.00  0.00     0.174 A 
ATOM      7  C   UNL     1       9.688   8.517  -8.426  1.00  0.00     0.048 A 
ATOM      8  O   UNL     1      11.017  11.298 -11.104  1.00  0.00    -0.355 OA
ATOM      9  C   UNL     1      10.511   9.186 -10.591  1.00  0.00     0.055 A 
ATOM     10  C   UNL     1      10.064   8.170  -9.733  1.00  0.00     0.018 A 
ATOM     11  N   UNL     1      11.267  10.560 -12.245  1.00  0.00    -0.074 NA
ATOM     12  C   UNL     1      10.967   9.287 -11.934  1.00  0.00     0.195 A 
BRANCH   5  13
ATOM     13  C   UNL     1      10.274  12.317  -8.368  1.00  0.00     0.043 C 
BRANCH  13  14
ATOM     14  C   UNL     1      11.531  12.649  -7.556  1.00  0.00     0.002 C 
ATOM     15  C   UNL     1      11.233  13.034  -6.113  1.00  0.00     0.004 C 
ENDBRANCH  13  14
ENDBRANCH   5  13
BRANCH  12  16
ATOM     16  C   UNL     1      11.100   8.185 -12.923  1.00  0.00     0.437 C 
ATOM     17  F   UNL     1      12.132   7.341 -12.663  1.00  0.00    -0.164 F 
ATOM     18  F   UNL     1      11.290   8.660 -14.185  1.00  0.00    -0.164 F 
ATOM     19  F   UNL     1       9.979   7.412 -12.975  1.00  0.00    -0.164 F 
ENDBRANCH  12  16
ENDBRANCH   3   4
ENDBRANCH   2   3
ENDBRANCH   1   2
BRANCH   1  20
ATOM     20  C   UNL     1       6.540  10.289  -4.273  1.00  0.00     0.116 C 
BRANCH  20  21
ATOM     21  N   UNL     1       5.813   9.323  -5.074  1.00  0.00    -0.385 N 
ATOM     22  H   UNL     1       5.712   9.507  -6.067  1.00  0.00     0.160 HD
BRANCH  21  23
ATOM     23  C   UNL     1       5.015   8.324  -4.544  1.00  0.00     0.034 A 
ATOM     24  C   UNL     1       4.378   8.419  -3.302  1.00  0.00     0.026 A 
ATOM     25  C   UNL     1       4.882   7.121  -5.247  1.00  0.00     0.026 A 
ATOM     26  C   UNL     1       3.612   7.362  -2.794  1.00  0.00     0.006 A 
ATOM     27  C   UNL     1       4.120   6.059  -4.747  1.00  0.00     0.006 A 
ATOM     28  C   UNL     1       3.469   6.173  -3.516  1.00  0.00    -0.037 A 
BRANCH  28  29
ATOM     29  C   UNL     1       2.655   5.030  -2.965  1.00  0.00     0.158 C 
BRANCH  29  30
ATOM     30  C   UNL     1       2.994   4.664  -1.540  1.00  0.00     0.307 C 
ATOM     31  O   UNL     1       3.886   3.941  -1.132  1.00  0.00    -0.252 OA
BRANCH  30  32
ATOM     32  O   UNL     1       2.157   5.258  -0.661  1.00  0.00    -0.481 OA
ATOM     33  H   UNL     1       2.483   4.951   0.211  1.00  0.00     0.296 HD
ENDBRANCH  30  32
ENDBRANCH  29  30
ENDBRANCH  28  29
ENDBRANCH  21  23
ENDBRANCH  20  21
ENDBRANCH   1  20
TORSDOF 12
ENDMDL
