MODEL 1
REMARK VINA RESULT:    -9.402      0.000      0.000
REMARK INTER + INTRA:         -13.398
REMARK INTER:                 -12.425
REMARK INTRA:                  -0.972
REMARK UNBOUND:                -0.972
REMARK SMILES O=C(NC[C@@H](O)c1ccc(F)cn1)[C@H]1CCN(c2ncnc3[nH]ccc23)CC12CC2
REMARK SMILES IDX 1 1 2 2 3 3 14 5 15 6 28 7 16 8 27 9 29 10 30 11 17 12 18 13
REMARK SMILES IDX 19 14 26 15 20 16 25 17 22 18 21 19 24 20 23 21 4 23 5 24
REMARK SMILES IDX 6 25 7 27 8 28 13 29 9 30 12 31 10 32 11 33
REMARK H PARENT 3 4 23 22 6 26
ROOT
ATOM      1  O   UNL     1     -13.782  18.902  20.971  1.00  0.00    -0.275 OA
ATOM      2  C   UNL     1     -14.207  18.255  20.017  1.00  0.00     0.223 C 
ATOM      3  N   UNL     1     -13.814  16.954  19.798  1.00  0.00    -0.353 N 
ATOM      4  H   UNL     1     -14.275  16.398  19.090  1.00  0.00     0.163 HD
ENDROOT
BRANCH   2   5
ATOM      5  C   UNL     1     -15.243  18.781  19.017  1.00  0.00     0.088 C 
ATOM      6  C   UNL     1     -16.309  17.725  18.709  1.00  0.00     0.035 C 
ATOM      7  C   UNL     1     -15.958  20.038  19.491  1.00  0.00    -0.000 C 
ATOM      8  C   UNL     1     -17.240  17.475  19.898  1.00  0.00     0.119 C 
ATOM      9  C   UNL     1     -16.814  19.808  20.723  1.00  0.00     0.126 C 
ATOM     10  C   UNL     1     -15.344  21.407  19.246  1.00  0.00     0.010 C 
ATOM     11  C   UNL     1     -16.519  20.967  18.425  1.00  0.00     0.010 C 
ATOM     12  N   UNL     1     -17.748  18.727  20.467  1.00  0.00    -0.355 N 
BRANCH  12  13
ATOM     13  C   UNL     1     -18.942  18.621  21.179  1.00  0.00     0.141 A 
ATOM     14  N   UNL     1     -18.883  18.046  22.417  1.00  0.00    -0.219 NA
ATOM     15  C   UNL     1     -20.228  19.041  20.747  1.00  0.00     0.061 A 
ATOM     16  C   UNL     1     -20.003  17.872  23.141  1.00  0.00     0.226 A 
ATOM     17  C   UNL     1     -20.799  19.719  19.623  1.00  0.00     0.033 A 
ATOM     18  C   UNL     1     -21.293  18.796  21.608  1.00  0.00     0.142 A 
ATOM     19  N   UNL     1     -21.254  18.211  22.812  1.00  0.00    -0.218 NA
ATOM     20  C   UNL     1     -22.159  19.831  19.823  1.00  0.00     0.085 A 
ATOM     21  N   UNL     1     -22.443  19.259  21.033  1.00  0.00    -0.346 N 
ATOM     22  H   UNL     1     -23.351  19.192  21.470  1.00  0.00     0.167 HD
ENDBRANCH  12  13
ENDBRANCH   2   5
BRANCH   3  23
ATOM     23  C   UNL     1     -12.885  16.286  20.697  1.00  0.00     0.154 C 
BRANCH  23  24
ATOM     24  C   UNL     1     -11.673  15.712  19.945  1.00  0.00     0.182 C 
BRANCH  24  25
ATOM     25  O   UNL     1     -10.492  15.971  20.729  1.00  0.00    -0.385 OA
ATOM     26  H   UNL     1     -10.231  15.094  21.085  1.00  0.00     0.211 HD
ENDBRANCH  24  25
BRANCH  24  27
ATOM     27  C   UNL     1     -11.824  14.218  19.720  1.00  0.00     0.071 A 
ATOM     28  C   UNL     1     -10.724  13.447  19.335  1.00  0.00     0.030 A 
ATOM     29  N   UNL     1     -13.067  13.689  19.906  1.00  0.00    -0.255 NA
ATOM     30  C   UNL     1     -10.900  12.078  19.138  1.00  0.00     0.043 A 
ATOM     31  C   UNL     1     -13.201  12.355  19.706  1.00  0.00     0.150 A 
ATOM     32  C   UNL     1     -12.158  11.528  19.329  1.00  0.00     0.141 A 
ATOM     33  F   UNL     1     -12.358  10.218  19.143  1.00  0.00    -0.205 F 
ENDBRANCH  24  27
ENDBRANCH  23  24
ENDBRANCH   3  23
TORSDOF 6
ENDMDL
MODEL 2
REMARK VINA RESULT:    -9.379      3.558      9.120
REMARK INTER + INTRA:         -13.367
REMARK INTER:                 -12.565
REMARK INTRA:                  -0.802
REMARK UNBOUND:                -0.972
REMARK SMILES O=C(NC[C@@H](O)c1ccc(F)cn1)[C@H]1CCN(c2ncnc3[nH]ccc23)CC12CC2
REMARK SMILES IDX 1 1 2 2 3 3 14 5 15 6 28 7 16 8 27 9 29 10 30 11 17 12 18 13
REMARK SMILES IDX 19 14 26 15 20 16 25 17 22 18 21 19 24 20 23 21 4 23 5 24
REMARK SMILES IDX 6 25 7 27 8 28 13 29 9 30 12 31 10 32 11 33
REMARK H PARENT 3 4 23 22 6 26
ROOT
ATOM      1  O   UNL     1     -16.404  18.658  18.914  1.00  0.00    -0.275 OA
ATOM      2  C   UNL     1     -16.090  18.567  20.098  1.00  0.00     0.223 C 
ATOM      3  N   UNL     1     -17.040  18.428  21.085  1.00  0.00    -0.353 N 
ATOM      4  H   UNL     1     -16.758  18.219  22.033  1.00  0.00     0.163 HD
ENDROOT
BRANCH   2   5
ATOM      5  C   UNL     1     -14.643  18.533  20.602  1.00  0.00     0.088 C 
ATOM      6  C   UNL     1     -14.472  17.529  21.747  1.00  0.00     0.035 C 
ATOM      7  C   UNL     1     -13.633  18.179  19.520  1.00  0.00    -0.000 C 
ATOM      8  C   UNL     1     -14.585  16.079  21.270  1.00  0.00     0.119 C 
ATOM      9  C   UNL     1     -13.801  16.769  18.986  1.00  0.00     0.126 C 
ATOM     10  C   UNL     1     -13.067  19.263  18.617  1.00  0.00     0.010 C 
ATOM     11  C   UNL     1     -12.209  18.684  19.702  1.00  0.00     0.010 C 
ATOM     12  N   UNL     1     -13.754  15.826  20.089  1.00  0.00    -0.355 N 
BRANCH  12  13
ATOM     13  C   UNL     1     -13.389  14.496  19.886  1.00  0.00     0.141 A 
ATOM     14  N   UNL     1     -14.391  13.567  19.878  1.00  0.00    -0.219 NA
ATOM     15  C   UNL     1     -12.074  13.996  19.696  1.00  0.00     0.061 A 
ATOM     16  C   UNL     1     -14.107  12.261  19.732  1.00  0.00     0.226 A 
ATOM     17  C   UNL     1     -10.749  14.523  19.564  1.00  0.00     0.033 A 
ATOM     18  C   UNL     1     -11.937  12.619  19.555  1.00  0.00     0.142 A 
ATOM     19  N   UNL     1     -12.906  11.695  19.570  1.00  0.00    -0.218 NA
ATOM     20  C   UNL     1      -9.875  13.471  19.382  1.00  0.00     0.085 A 
ATOM     21  N   UNL     1     -10.614  12.320  19.385  1.00  0.00    -0.346 N 
ATOM     22  H   UNL     1     -10.266  11.379  19.264  1.00  0.00     0.167 HD
ENDBRANCH  12  13
ENDBRANCH   2   5
BRANCH   3  23
ATOM     23  C   UNL     1     -18.458  18.374  20.764  1.00  0.00     0.154 C 
BRANCH  23  24
ATOM     24  C   UNL     1     -19.291  17.835  21.938  1.00  0.00     0.182 C 
BRANCH  24  25
ATOM     25  O   UNL     1     -18.518  17.982  23.145  1.00  0.00    -0.385 OA
ATOM     26  H   UNL     1     -19.026  17.493  23.828  1.00  0.00     0.211 HD
ENDBRANCH  24  25
BRANCH  24  27
ATOM     27  C   UNL     1     -20.602  18.589  22.072  1.00  0.00     0.071 A 
ATOM     28  C   UNL     1     -20.914  19.628  21.191  1.00  0.00     0.030 A 
ATOM     29  N   UNL     1     -21.434  18.203  23.081  1.00  0.00    -0.255 NA
ATOM     30  C   UNL     1     -22.126  20.297  21.344  1.00  0.00     0.043 A 
ATOM     31  C   UNL     1     -22.606  18.875  23.200  1.00  0.00     0.150 A 
ATOM     32  C   UNL     1     -22.983  19.910  22.364  1.00  0.00     0.141 A 
ATOM     33  F   UNL     1     -24.153  20.537  22.537  1.00  0.00    -0.205 F 
ENDBRANCH  24  27
ENDBRANCH  23  24
ENDBRANCH   3  23
TORSDOF 6
ENDMDL
MODEL 3
REMARK VINA RESULT:    -9.363      3.746      9.648
REMARK INTER + INTRA:         -13.346
REMARK INTER:                 -12.647
REMARK INTRA:                  -0.699
REMARK UNBOUND:                -0.972
REMARK SMILES O=C(NC[C@@H](O)c1ccc(F)cn1)[C@H]1CCN(c2ncnc3[nH]ccc23)CC12CC2
REMARK SMILES IDX 1 1 2 2 3 3 14 5 15 6 28 7 16 8 27 9 29 10 30 11 17 12 18 13
REMARK SMILES IDX 19 14 26 15 20 16 25 17 22 18 21 19 24 20 23 21 4 23 5 24
REMARK SMILES IDX 6 25 7 27 8 28 13 29 9 30 12 31 10 32 11 33
REMARK H PARENT 3 4 23 22 6 26
ROOT
ATOM      1  O   UNL     1     -16.341  17.002  21.505  1.00  0.00    -0.275 OA
ATOM      2  C   UNL     1     -16.909  16.819  20.431  1.00  0.00     0.223 C 
ATOM      3  N   UNL     1     -18.040  17.526  20.086  1.00  0.00    -0.353 N 
ATOM      4  H   UNL     1     -18.413  17.459  19.149  1.00  0.00     0.163 HD
ENDROOT
BRANCH   2   5
ATOM      5  C   UNL     1     -16.410  15.855  19.350  1.00  0.00     0.088 C 
ATOM      6  C   UNL     1     -15.570  16.583  18.295  1.00  0.00     0.035 C 
ATOM      7  C   UNL     1     -15.574  14.709  19.899  1.00  0.00    -0.000 C 
ATOM      8  C   UNL     1     -14.215  17.037  18.844  1.00  0.00     0.119 C 
ATOM      9  C   UNL     1     -14.268  15.168  20.522  1.00  0.00     0.126 C 
ATOM     10  C   UNL     1     -16.248  13.446  20.410  1.00  0.00     0.010 C 
ATOM     11  C   UNL     1     -15.537  13.421  19.090  1.00  0.00     0.010 C 
ATOM     12  N   UNL     1     -13.524  15.957  19.556  1.00  0.00    -0.355 N 
BRANCH  12  13
ATOM     13  C   UNL     1     -12.140  16.087  19.645  1.00  0.00     0.141 A 
ATOM     14  N   UNL     1     -11.632  17.355  19.700  1.00  0.00    -0.219 NA
ATOM     15  C   UNL     1     -11.188  15.034  19.673  1.00  0.00     0.061 A 
ATOM     16  C   UNL     1     -10.303  17.555  19.742  1.00  0.00     0.226 A 
ATOM     17  C   UNL     1     -11.193  13.602  19.701  1.00  0.00     0.033 A 
ATOM     18  C   UNL     1      -9.846  15.397  19.721  1.00  0.00     0.142 A 
ATOM     19  N   UNL     1      -9.334  16.634  19.749  1.00  0.00    -0.218 NA
ATOM     20  C   UNL     1      -9.887  13.159  19.734  1.00  0.00     0.085 A 
ATOM     21  N   UNL     1      -9.080  14.264  19.739  1.00  0.00    -0.346 N 
ATOM     22  H   UNL     1      -8.071  14.275  19.771  1.00  0.00     0.167 HD
ENDBRANCH  12  13
ENDBRANCH   2   5
BRANCH   3  23
ATOM     23  C   UNL     1     -18.602  18.529  20.978  1.00  0.00     0.154 C 
BRANCH  23  24
ATOM     24  C   UNL     1     -19.531  17.903  22.031  1.00  0.00     0.182 C 
BRANCH  24  25
ATOM     25  O   UNL     1     -18.854  17.933  23.304  1.00  0.00    -0.385 OA
ATOM     26  H   UNL     1     -18.649  18.881  23.454  1.00  0.00     0.211 HD
ENDBRANCH  24  25
BRANCH  24  27
ATOM     27  C   UNL     1     -20.842  18.663  22.128  1.00  0.00     0.071 A 
ATOM     28  C   UNL     1     -21.116  19.714  21.249  1.00  0.00     0.030 A 
ATOM     29  N   UNL     1     -21.711  18.270  23.102  1.00  0.00    -0.255 NA
ATOM     30  C   UNL     1     -22.330  20.388  21.367  1.00  0.00     0.043 A 
ATOM     31  C   UNL     1     -22.883  18.947  23.187  1.00  0.00     0.150 A 
ATOM     32  C   UNL     1     -23.224  19.994  22.351  1.00  0.00     0.141 A 
ATOM     33  F   UNL     1     -24.396  20.626  22.490  1.00  0.00    -0.205 F 
ENDBRANCH  24  27
ENDBRANCH  23  24
ENDBRANCH   3  23
TORSDOF 6
ENDMDL
MODEL 4
REMARK VINA RESULT:    -9.155      3.525      9.034
REMARK INTER + INTRA:         -13.071
REMARK INTER:                 -12.520
REMARK INTRA:                  -0.551
REMARK UNBOUND:                -0.972
REMARK SMILES O=C(NC[C@@H](O)c1ccc(F)cn1)[C@H]1CCN(c2ncnc3[nH]ccc23)CC12CC2
REMARK SMILES IDX 1 1 2 2 3 3 14 5 15 6 28 7 16 8 27 9 29 10 30 11 17 12 18 13
REMARK SMILES IDX 19 14 26 15 20 16 25 17 22 18 21 19 24 20 23 21 4 23 5 24
REMARK SMILES IDX 6 25 7 27 8 28 13 29 9 30 12 31 10 32 11 33
REMARK H PARENT 3 4 23 22 6 26
ROOT
ATOM      1  O   UNL     1     -16.181  17.494  19.070  1.00  0.00    -0.275 OA
ATOM      2  C   UNL     1     -15.918  18.017  20.149  1.00  0.00     0.223 C 
ATOM      3  N   UNL     1     -16.905  18.321  21.061  1.00  0.00    -0.353 N 
ATOM      4  H   UNL     1     -16.658  18.624  21.993  1.00  0.00     0.163 HD
ENDROOT
BRANCH   2   5
ATOM      5  C   UNL     1     -14.496  18.330  20.627  1.00  0.00     0.088 C 
ATOM      6  C   UNL     1     -14.071  17.399  21.768  1.00  0.00     0.035 C 
ATOM      7  C   UNL     1     -13.450  18.223  19.528  1.00  0.00    -0.000 C 
ATOM      8  C   UNL     1     -13.845  15.963  21.292  1.00  0.00     0.119 C 
ATOM      9  C   UNL     1     -13.287  16.812  18.995  1.00  0.00     0.126 C 
ATOM     10  C   UNL     1     -13.174  19.408  18.616  1.00  0.00     0.010 C 
ATOM     11  C   UNL     1     -12.184  19.052  19.685  1.00  0.00     0.010 C 
ATOM     12  N   UNL     1     -12.998  15.911  20.096  1.00  0.00    -0.355 N 
BRANCH  12  13
ATOM     13  C   UNL     1     -12.331  14.705  19.885  1.00  0.00     0.141 A 
ATOM     14  N   UNL     1     -10.969  14.752  19.782  1.00  0.00    -0.219 NA
ATOM     15  C   UNL     1     -12.922  13.421  19.751  1.00  0.00     0.061 A 
ATOM     16  C   UNL     1     -10.266  13.634  19.535  1.00  0.00     0.226 A 
ATOM     17  C   UNL     1     -14.229  12.842  19.834  1.00  0.00     0.033 A 
ATOM     18  C   UNL     1     -12.064  12.355  19.499  1.00  0.00     0.142 A 
ATOM     19  N   UNL     1     -10.731  12.390  19.372  1.00  0.00    -0.218 NA
ATOM     20  C   UNL     1     -14.123  11.485  19.606  1.00  0.00     0.085 A 
ATOM     21  N   UNL     1     -12.800  11.207  19.398  1.00  0.00    -0.346 N 
ATOM     22  H   UNL     1     -12.395  10.300  19.216  1.00  0.00     0.167 HD
ENDBRANCH  12  13
ENDBRANCH   2   5
BRANCH   3  23
ATOM     23  C   UNL     1     -18.302  18.023  20.785  1.00  0.00     0.154 C 
BRANCH  23  24
ATOM     24  C   UNL     1     -19.072  17.652  22.063  1.00  0.00     0.182 C 
BRANCH  24  25
ATOM     25  O   UNL     1     -18.238  17.959  23.198  1.00  0.00    -0.385 OA
ATOM     26  H   UNL     1     -18.796  18.527  23.771  1.00  0.00     0.211 HD
ENDBRANCH  24  25
BRANCH  24  27
ATOM     27  C   UNL     1     -20.377  18.421  22.161  1.00  0.00     0.071 A 
ATOM     28  C   UNL     1     -20.675  19.428  21.239  1.00  0.00     0.030 A 
ATOM     29  N   UNL     1     -21.217  18.081  23.180  1.00  0.00    -0.255 NA
ATOM     30  C   UNL     1     -21.882  20.113  21.360  1.00  0.00     0.043 A 
ATOM     31  C   UNL     1     -22.384  18.767  23.266  1.00  0.00     0.150 A 
ATOM     32  C   UNL     1     -22.747  19.773  22.389  1.00  0.00     0.141 A 
ATOM     33  F   UNL     1     -23.913  20.416  22.532  1.00  0.00    -0.205 F 
ENDBRANCH  24  27
ENDBRANCH  23  24
ENDBRANCH   3  23
TORSDOF 6
ENDMDL
MODEL 5
REMARK VINA RESULT:    -8.942      3.798      9.050
REMARK INTER + INTRA:         -12.790
REMARK INTER:                 -11.963
REMARK INTRA:                  -0.826
REMARK UNBOUND:                -0.972
REMARK SMILES O=C(NC[C@@H](O)c1ccc(F)cn1)[C@H]1CCN(c2ncnc3[nH]ccc23)CC12CC2
REMARK SMILES IDX 1 1 2 2 3 3 14 5 15 6 28 7 16 8 27 9 29 10 30 11 17 12 18 13
REMARK SMILES IDX 19 14 26 15 20 16 25 17 22 18 21 19 24 20 23 21 4 23 5 24
REMARK SMILES IDX 6 25 7 27 8 28 13 29 9 30 12 31 10 32 11 33
REMARK H PARENT 3 4 23 22 6 26
ROOT
ATOM      1  O   UNL     1     -18.893  18.383  19.640  1.00  0.00    -0.275 OA
ATOM      2  C   UNL     1     -18.329  19.385  20.071  1.00  0.00     0.223 C 
ATOM      3  N   UNL     1     -18.917  20.629  20.000  1.00  0.00    -0.353 N 
ATOM      4  H   UNL     1     -18.498  21.415  20.478  1.00  0.00     0.163 HD
ENDROOT
BRANCH   2   5
ATOM      5  C   UNL     1     -16.967  19.367  20.775  1.00  0.00     0.088 C 
ATOM      6  C   UNL     1     -16.937  18.335  21.908  1.00  0.00     0.035 C 
ATOM      7  C   UNL     1     -15.806  19.064  19.840  1.00  0.00    -0.000 C 
ATOM      8  C   UNL     1     -16.946  16.897  21.384  1.00  0.00     0.119 C 
ATOM      9  C   UNL     1     -15.862  17.666  19.252  1.00  0.00     0.126 C 
ATOM     10  C   UNL     1     -15.143  20.185  19.055  1.00  0.00     0.010 C 
ATOM     11  C   UNL     1     -14.435  19.592  20.236  1.00  0.00     0.010 C 
ATOM     12  N   UNL     1     -15.949  16.694  20.327  1.00  0.00    -0.355 N 
BRANCH  12  13
ATOM     13  C   UNL     1     -15.528  15.378  20.145  1.00  0.00     0.141 A 
ATOM     14  N   UNL     1     -16.496  14.430  19.966  1.00  0.00    -0.219 NA
ATOM     15  C   UNL     1     -14.188  14.910  20.138  1.00  0.00     0.061 A 
ATOM     16  C   UNL     1     -16.162  13.135  19.829  1.00  0.00     0.226 A 
ATOM     17  C   UNL     1     -12.870  15.466  20.216  1.00  0.00     0.033 A 
ATOM     18  C   UNL     1     -13.999  13.540  19.982  1.00  0.00     0.142 A 
ATOM     19  N   UNL     1     -14.938  12.597  19.831  1.00  0.00    -0.218 NA
ATOM     20  C   UNL     1     -11.954  14.437  20.137  1.00  0.00     0.085 A 
ATOM     21  N   UNL     1     -12.659  13.272  20.002  1.00  0.00    -0.346 N 
ATOM     22  H   UNL     1     -12.275  12.342  19.908  1.00  0.00     0.167 HD
ENDBRANCH  12  13
ENDBRANCH   2   5
BRANCH   3  23
ATOM     23  C   UNL     1     -20.239  20.805  19.420  1.00  0.00     0.154 C 
BRANCH  23  24
ATOM     24  C   UNL     1     -21.162  21.625  20.336  1.00  0.00     0.182 C 
BRANCH  24  25
ATOM     25  O   UNL     1     -21.986  22.469  19.508  1.00  0.00    -0.385 OA
ATOM     26  H   UNL     1     -21.352  22.952  18.935  1.00  0.00     0.211 HD
ENDBRANCH  24  25
BRANCH  24  27
ATOM     27  C   UNL     1     -22.039  20.721  21.184  1.00  0.00     0.071 A 
ATOM     28  C   UNL     1     -23.432  20.809  21.102  1.00  0.00     0.030 A 
ATOM     29  N   UNL     1     -21.402  19.844  22.011  1.00  0.00    -0.255 NA
ATOM     30  C   UNL     1     -24.205  19.963  21.895  1.00  0.00     0.043 A 
ATOM     31  C   UNL     1     -22.186  19.036  22.766  1.00  0.00     0.150 A 
ATOM     32  C   UNL     1     -23.569  19.064  22.737  1.00  0.00     0.141 A 
ATOM     33  F   UNL     1     -24.286  18.241  23.513  1.00  0.00    -0.205 F 
ENDBRANCH  24  27
ENDBRANCH  23  24
ENDBRANCH   3  23
TORSDOF 6
ENDMDL
MODEL 6
REMARK VINA RESULT:    -8.775      3.411      9.271
REMARK INTER + INTRA:         -12.568
REMARK INTER:                 -11.468
REMARK INTRA:                  -1.100
REMARK UNBOUND:                -0.972
REMARK SMILES O=C(NC[C@@H](O)c1ccc(F)cn1)[C@H]1CCN(c2ncnc3[nH]ccc23)CC12CC2
REMARK SMILES IDX 1 1 2 2 3 3 14 5 15 6 28 7 16 8 27 9 29 10 30 11 17 12 18 13
REMARK SMILES IDX 19 14 26 15 20 16 25 17 22 18 21 19 24 20 23 21 4 23 5 24
REMARK SMILES IDX 6 25 7 27 8 28 13 29 9 30 12 31 10 32 11 33
REMARK H PARENT 3 4 23 22 6 26
ROOT
ATOM      1  O   UNL     1     -16.581  17.516  21.400  1.00  0.00    -0.275 OA
ATOM      2  C   UNL     1     -16.570  17.636  20.178  1.00  0.00     0.223 C 
ATOM      3  N   UNL     1     -16.695  18.867  19.574  1.00  0.00    -0.353 N 
ATOM      4  H   UNL     1     -16.548  18.961  18.578  1.00  0.00     0.163 HD
ENDROOT
BRANCH   2   5
ATOM      5  C   UNL     1     -16.360  16.471  19.203  1.00  0.00     0.088 C 
ATOM      6  C   UNL     1     -15.312  16.815  18.138  1.00  0.00     0.035 C 
ATOM      7  C   UNL     1     -15.923  15.183  19.885  1.00  0.00    -0.000 C 
ATOM      8  C   UNL     1     -13.898  16.891  18.718  1.00  0.00     0.119 C 
ATOM      9  C   UNL     1     -14.555  15.286  20.535  1.00  0.00     0.126 C 
ATOM     10  C   UNL     1     -16.960  14.232  20.461  1.00  0.00     0.010 C 
ATOM     11  C   UNL     1     -16.258  13.874  19.185  1.00  0.00     0.010 C 
ATOM     12  N   UNL     1     -13.584  15.724  19.548  1.00  0.00    -0.355 N 
BRANCH  12  13
ATOM     13  C   UNL     1     -12.228  15.441  19.697  1.00  0.00     0.141 A 
ATOM     14  N   UNL     1     -11.397  16.489  19.982  1.00  0.00    -0.219 NA
ATOM     15  C   UNL     1     -11.606  14.170  19.572  1.00  0.00     0.061 A 
ATOM     16  C   UNL     1     -10.072  16.295  20.095  1.00  0.00     0.226 A 
ATOM     17  C   UNL     1     -12.006  12.812  19.355  1.00  0.00     0.033 A 
ATOM     18  C   UNL     1     -10.224  14.127  19.719  1.00  0.00     0.142 A 
ATOM     19  N   UNL     1      -9.395  15.148  19.973  1.00  0.00    -0.218 NA
ATOM     20  C   UNL     1     -10.878  12.019  19.349  1.00  0.00     0.085 A 
ATOM     21  N   UNL     1      -9.802  12.835  19.565  1.00  0.00    -0.346 N 
ATOM     22  H   UNL     1      -8.834  12.554  19.627  1.00  0.00     0.167 HD
ENDBRANCH  12  13
ENDBRANCH   2   5
BRANCH   3  23
ATOM     23  C   UNL     1     -16.835  20.082  20.363  1.00  0.00     0.154 C 
BRANCH  23  24
ATOM     24  C   UNL     1     -17.858  21.050  19.747  1.00  0.00     0.182 C 
BRANCH  24  25
ATOM     25  O   UNL     1     -17.745  20.973  18.312  1.00  0.00    -0.385 OA
ATOM     26  H   UNL     1     -16.923  20.462  18.154  1.00  0.00     0.211 HD
ENDBRANCH  24  25
BRANCH  24  27
ATOM     27  C   UNL     1     -19.272  20.697  20.172  1.00  0.00     0.071 A 
ATOM     28  C   UNL     1     -20.267  21.678  20.200  1.00  0.00     0.030 A 
ATOM     29  N   UNL     1     -19.505  19.399  20.521  1.00  0.00    -0.255 NA
ATOM     30  C   UNL     1     -21.554  21.316  20.595  1.00  0.00     0.043 A 
ATOM     31  C   UNL     1     -20.768  19.084  20.898  1.00  0.00     0.150 A 
ATOM     32  C   UNL     1     -21.804  19.999  20.947  1.00  0.00     0.141 A 
ATOM     33  F   UNL     1     -23.029  19.624  21.334  1.00  0.00    -0.205 F 
ENDBRANCH  24  27
ENDBRANCH  23  24
ENDBRANCH   3  23
TORSDOF 6
ENDMDL
MODEL 7
REMARK VINA RESULT:    -8.687      3.752      7.275
REMARK INTER + INTRA:         -12.452
REMARK INTER:                 -11.075
REMARK INTRA:                  -1.377
REMARK UNBOUND:                -0.972
REMARK SMILES O=C(NC[C@@H](O)c1ccc(F)cn1)[C@H]1CCN(c2ncnc3[nH]ccc23)CC12CC2
REMARK SMILES IDX 1 1 2 2 3 3 14 5 15 6 28 7 16 8 27 9 29 10 30 11 17 12 18 13
REMARK SMILES IDX 19 14 26 15 20 16 25 17 22 18 21 19 24 20 23 21 4 23 5 24
REMARK SMILES IDX 6 25 7 27 8 28 13 29 9 30 12 31 10 32 11 33
REMARK H PARENT 3 4 23 22 6 26
ROOT
ATOM      1  O   UNL     1     -14.809  19.851  20.842  1.00  0.00    -0.275 OA
ATOM      2  C   UNL     1     -15.547  19.596  19.894  1.00  0.00     0.223 C 
ATOM      3  N   UNL     1     -15.434  20.264  18.694  1.00  0.00    -0.353 N 
ATOM      4  H   UNL     1     -15.956  19.949  17.888  1.00  0.00     0.163 HD
ENDROOT
BRANCH   2   5
ATOM      5  C   UNL     1     -16.611  18.494  19.907  1.00  0.00     0.088 C 
ATOM      6  C   UNL     1     -16.510  17.602  18.664  1.00  0.00     0.035 C 
ATOM      7  C   UNL     1     -16.535  17.593  21.131  1.00  0.00    -0.000 C 
ATOM      8  C   UNL     1     -15.261  16.719  18.684  1.00  0.00     0.119 C 
ATOM      9  C   UNL     1     -15.256  16.780  21.195  1.00  0.00     0.126 C 
ATOM     10  C   UNL     1     -17.239  17.991  22.419  1.00  0.00     0.010 C 
ATOM     11  C   UNL     1     -17.817  16.899  21.568  1.00  0.00     0.010 C 
ATOM     12  N   UNL     1     -15.103  16.023  19.965  1.00  0.00    -0.355 N 
BRANCH  12  13
ATOM     13  C   UNL     1     -14.338  14.859  19.925  1.00  0.00     0.141 A 
ATOM     14  N   UNL     1     -15.011  13.669  19.890  1.00  0.00    -0.219 NA
ATOM     15  C   UNL     1     -12.921  14.773  19.930  1.00  0.00     0.061 A 
ATOM     16  C   UNL     1     -14.337  12.506  19.895  1.00  0.00     0.226 A 
ATOM     17  C   UNL     1     -11.805  15.671  19.900  1.00  0.00     0.033 A 
ATOM     18  C   UNL     1     -12.366  13.497  19.930  1.00  0.00     0.142 A 
ATOM     19  N   UNL     1     -13.012  12.324  19.921  1.00  0.00    -0.218 NA
ATOM     20  C   UNL     1     -10.643  14.926  19.913  1.00  0.00     0.085 A 
ATOM     21  N   UNL     1     -11.003  13.607  19.938  1.00  0.00    -0.346 N 
ATOM     22  H   UNL     1     -10.381  12.812  19.941  1.00  0.00     0.167 HD
ENDBRANCH  12  13
ENDBRANCH   2   5
BRANCH   3  23
ATOM     23  C   UNL     1     -14.426  21.295  18.498  1.00  0.00     0.154 C 
BRANCH  23  24
ATOM     24  C   UNL     1     -13.127  20.721  17.908  1.00  0.00     0.182 C 
BRANCH  24  25
ATOM     25  O   UNL     1     -12.674  21.607  16.866  1.00  0.00    -0.385 OA
ATOM     26  H   UNL     1     -13.383  21.577  16.188  1.00  0.00     0.211 HD
ENDBRANCH  24  25
BRANCH  24  27
ATOM     27  C   UNL     1     -12.053  20.587  18.973  1.00  0.00     0.071 A 
ATOM     28  C   UNL     1     -11.445  19.352  19.213  1.00  0.00     0.030 A 
ATOM     29  N   UNL     1     -11.729  21.716  19.665  1.00  0.00    -0.255 NA
ATOM     30  C   UNL     1     -10.463  19.268  20.198  1.00  0.00     0.043 A 
ATOM     31  C   UNL     1     -10.768  21.597  20.615  1.00  0.00     0.150 A 
ATOM     32  C   UNL     1     -10.121  20.410  20.906  1.00  0.00     0.141 A 
ATOM     33  F   UNL     1      -9.184  20.358  21.860  1.00  0.00    -0.205 F 
ENDBRANCH  24  27
ENDBRANCH  23  24
ENDBRANCH   3  23
TORSDOF 6
ENDMDL
MODEL 8
REMARK VINA RESULT:    -8.669      1.750      2.077
REMARK INTER + INTRA:         -12.428
REMARK INTER:                 -11.472
REMARK INTRA:                  -0.956
REMARK UNBOUND:                -0.972
REMARK SMILES O=C(NC[C@@H](O)c1ccc(F)cn1)[C@H]1CCN(c2ncnc3[nH]ccc23)CC12CC2
REMARK SMILES IDX 1 1 2 2 3 3 14 5 15 6 28 7 16 8 27 9 29 10 30 11 17 12 18 13
REMARK SMILES IDX 19 14 26 15 20 16 25 17 22 18 21 19 24 20 23 21 4 23 5 24
REMARK SMILES IDX 6 25 7 27 8 28 13 29 9 30 12 31 10 32 11 33
REMARK H PARENT 3 4 23 22 6 26
ROOT
ATOM      1  O   UNL     1     -13.758  17.623  18.150  1.00  0.00    -0.275 OA
ATOM      2  C   UNL     1     -13.659  18.336  19.145  1.00  0.00     0.223 C 
ATOM      3  N   UNL     1     -12.852  17.985  20.204  1.00  0.00    -0.353 N 
ATOM      4  H   UNL     1     -12.680  18.645  20.950  1.00  0.00     0.163 HD
ENDROOT
BRANCH   2   5
ATOM      5  C   UNL     1     -14.353  19.694  19.300  1.00  0.00     0.088 C 
ATOM      6  C   UNL     1     -15.691  19.727  18.553  1.00  0.00     0.035 C 
ATOM      7  C   UNL     1     -14.621  20.076  20.748  1.00  0.00    -0.000 C 
ATOM      8  C   UNL     1     -16.751  18.847  19.221  1.00  0.00     0.119 C 
ATOM      9  C   UNL     1     -15.607  19.151  21.437  1.00  0.00     0.126 C 
ATOM     10  C   UNL     1     -13.546  20.773  21.567  1.00  0.00     0.010 C 
ATOM     11  C   UNL     1     -14.724  21.559  21.072  1.00  0.00     0.010 C 
ATOM     12  N   UNL     1     -16.835  19.094  20.664  1.00  0.00    -0.355 N 
BRANCH  12  13
ATOM     13  C   UNL     1     -18.047  18.752  21.261  1.00  0.00     0.141 A 
ATOM     14  N   UNL     1     -17.992  18.083  22.452  1.00  0.00    -0.219 NA
ATOM     15  C   UNL     1     -19.347  19.016  20.754  1.00  0.00     0.061 A 
ATOM     16  C   UNL     1     -19.122  17.684  23.061  1.00  0.00     0.226 A 
ATOM     17  C   UNL     1     -19.932  19.700  19.640  1.00  0.00     0.033 A 
ATOM     18  C   UNL     1     -20.423  18.542  21.499  1.00  0.00     0.142 A 
ATOM     19  N   UNL     1     -20.383  17.864  22.654  1.00  0.00    -0.218 NA
ATOM     20  C   UNL     1     -21.304  19.595  19.732  1.00  0.00     0.085 A 
ATOM     21  N   UNL     1     -21.585  18.882  20.865  1.00  0.00    -0.346 N 
ATOM     22  H   UNL     1     -22.502  18.644  21.216  1.00  0.00     0.167 HD
ENDBRANCH  12  13
ENDBRANCH   2   5
BRANCH   3  23
ATOM     23  C   UNL     1     -12.072  16.757  20.183  1.00  0.00     0.154 C 
BRANCH  23  24
ATOM     24  C   UNL     1     -12.557  15.752  21.240  1.00  0.00     0.182 C 
BRANCH  24  25
ATOM     25  O   UNL     1     -13.271  16.479  22.260  1.00  0.00    -0.385 OA
ATOM     26  H   UNL     1     -12.837  16.219  23.101  1.00  0.00     0.211 HD
ENDBRANCH  24  25
BRANCH  24  27
ATOM     27  C   UNL     1     -13.466  14.703  20.624  1.00  0.00     0.071 A 
ATOM     28  C   UNL     1     -12.990  13.413  20.377  1.00  0.00     0.030 A 
ATOM     29  N   UNL     1     -14.741  15.089  20.330  1.00  0.00    -0.255 NA
ATOM     30  C   UNL     1     -13.853  12.477  19.811  1.00  0.00     0.043 A 
ATOM     31  C   UNL     1     -15.553  14.152  19.781  1.00  0.00     0.150 A 
ATOM     32  C   UNL     1     -15.153  12.855  19.512  1.00  0.00     0.141 A 
ATOM     33  F   UNL     1     -16.004  11.978  18.964  1.00  0.00    -0.205 F 
ENDBRANCH  24  27
ENDBRANCH  23  24
ENDBRANCH   3  23
TORSDOF 6
ENDMDL
MODEL 9
REMARK VINA RESULT:    -8.576      3.531      5.883
REMARK INTER + INTRA:         -12.306
REMARK INTER:                 -10.489
REMARK INTRA:                  -1.817
REMARK UNBOUND:                -0.972
REMARK SMILES O=C(NC[C@@H](O)c1ccc(F)cn1)[C@H]1CCN(c2ncnc3[nH]ccc23)CC12CC2
REMARK SMILES IDX 1 1 2 2 3 3 14 5 15 6 28 7 16 8 27 9 29 10 30 11 17 12 18 13
REMARK SMILES IDX 19 14 26 15 20 16 25 17 22 18 21 19 24 20 23 21 4 23 5 24
REMARK SMILES IDX 6 25 7 27 8 28 13 29 9 30 12 31 10 32 11 33
REMARK H PARENT 3 4 23 22 6 26
ROOT
ATOM      1  O   UNL     1     -13.709  17.290  17.876  1.00  0.00    -0.275 OA
ATOM      2  C   UNL     1     -13.639  17.416  19.096  1.00  0.00     0.223 C 
ATOM      3  N   UNL     1     -12.906  18.428  19.674  1.00  0.00    -0.353 N 
ATOM      4  H   UNL     1     -12.970  18.595  20.669  1.00  0.00     0.163 HD
ENDROOT
BRANCH   2   5
ATOM      5  C   UNL     1     -14.389  16.526  20.094  1.00  0.00     0.088 C 
ATOM      6  C   UNL     1     -14.820  17.316  21.335  1.00  0.00     0.035 C 
ATOM      7  C   UNL     1     -15.630  15.870  19.508  1.00  0.00    -0.000 C 
ATOM      8  C   UNL     1     -15.939  18.314  21.028  1.00  0.00     0.119 C 
ATOM      9  C   UNL     1     -16.706  16.867  19.123  1.00  0.00     0.126 C 
ATOM     10  C   UNL     1     -15.516  14.556  18.751  1.00  0.00     0.010 C 
ATOM     11  C   UNL     1     -16.092  14.563  20.136  1.00  0.00     0.010 C 
ATOM     12  N   UNL     1     -17.032  17.693  20.272  1.00  0.00    -0.355 N 
BRANCH  12  13
ATOM     13  C   UNL     1     -18.269  18.326  20.378  1.00  0.00     0.141 A 
ATOM     14  N   UNL     1     -18.686  19.069  19.309  1.00  0.00    -0.219 NA
ATOM     15  C   UNL     1     -19.147  18.292  21.493  1.00  0.00     0.061 A 
ATOM     16  C   UNL     1     -19.849  19.741  19.359  1.00  0.00     0.226 A 
ATOM     17  C   UNL     1     -19.212  17.649  22.771  1.00  0.00     0.033 A 
ATOM     18  C   UNL     1     -20.318  19.038  21.397  1.00  0.00     0.142 A 
ATOM     19  N   UNL     1     -20.727  19.789  20.367  1.00  0.00    -0.218 NA
ATOM     20  C   UNL     1     -20.376  18.042  23.400  1.00  0.00     0.085 A 
ATOM     21  N   UNL     1     -21.033  18.891  22.553  1.00  0.00    -0.346 N 
ATOM     22  H   UNL     1     -21.922  19.341  22.719  1.00  0.00     0.167 HD
ENDBRANCH  12  13
ENDBRANCH   2   5
BRANCH   3  23
ATOM     23  C   UNL     1     -12.190  19.399  18.861  1.00  0.00     0.154 C 
BRANCH  23  24
ATOM     24  C   UNL     1     -12.337  20.827  19.411  1.00  0.00     0.182 C 
BRANCH  24  25
ATOM     25  O   UNL     1     -11.587  21.717  18.561  1.00  0.00    -0.385 OA
ATOM     26  H   UNL     1     -11.855  21.475  17.649  1.00  0.00     0.211 HD
ENDBRANCH  24  25
BRANCH  24  27
ATOM     27  C   UNL     1     -13.794  21.254  19.446  1.00  0.00     0.071 A 
ATOM     28  C   UNL     1     -14.267  22.069  20.477  1.00  0.00     0.030 A 
ATOM     29  N   UNL     1     -14.593  20.800  18.438  1.00  0.00    -0.255 NA
ATOM     30  C   UNL     1     -15.609  22.441  20.476  1.00  0.00     0.043 A 
ATOM     31  C   UNL     1     -15.893  21.183  18.468  1.00  0.00     0.150 A 
ATOM     32  C   UNL     1     -16.431  21.991  19.454  1.00  0.00     0.141 A 
ATOM     33  F   UNL     1     -17.726  22.329  19.429  1.00  0.00    -0.205 F 
ENDBRANCH  24  27
ENDBRANCH  23  24
ENDBRANCH   3  23
TORSDOF 6
ENDMDL
