MODEL 1
REMARK minimizedAffinity -10.9252653
REMARK CNNscore 0.907047391
REMARK CNNaffinity 7.48649645
REMARK SMILES CN(Cc1ccccc1)Cc1ccc(C(=O)c2ccc(OCCCCCN3CCCCC3)cc2)cc1
REMARK SMILES IDX 17 1 18 2 19 3 20 4 33 5 34 6 15 7 16 8 14 9 11 10 12 11
REMARK SMILES IDX 36 12 13 13 35 14 10 15 2 16 1 17 3 18 4 19 5 20 9 21 6 22
REMARK SMILES IDX 8 23 7 24 21 25 22 26 23 27 24 28 25 29 26 30 27 31 28 32
REMARK SMILES IDX 32 33 29 34 31 35 30 36
REMARK H PARENT
ROOT
ATOM      1  C   UNL     1     -16.073 -42.874  25.671  1.00  0.00     0.023 A 
ATOM      2  C   UNL     1     -17.055 -42.578  24.723  1.00  0.00     0.016 A 
ATOM      3  C   UNL     1     -18.321 -42.168  25.148  1.00  0.00     0.047 A 
ATOM      4  C   UNL     1     -18.620 -42.059  26.511  1.00  0.00     0.119 A 
ATOM      5  C   UNL     1     -17.645 -42.390  27.453  1.00  0.00     0.047 A 
ATOM      6  C   UNL     1     -16.376 -42.803  27.035  1.00  0.00     0.016 A 
ENDROOT
BRANCH   1   7
ATOM      7  C   UNL     1     -14.714 -43.306  25.271  1.00  0.00     0.193 C 
ATOM      8  O   UNL     1     -14.345 -43.090  24.119  1.00  0.00    -0.289 OA
BRANCH   7   9
ATOM      9  C   UNL     1     -13.806 -44.003  26.223  1.00  0.00     0.023 A 
ATOM     10  C   UNL     1     -12.180 -45.412  28.045  1.00  0.00    -0.034 A 
ATOM     11  C   UNL     1     -12.140 -44.009  27.982  1.00  0.00     0.006 A 
ATOM     12  C   UNL     1     -13.034 -46.101  27.175  1.00  0.00     0.006 A 
ATOM     13  C   UNL     1     -12.959 -43.307  27.092  1.00  0.00     0.012 A 
ATOM     14  C   UNL     1     -13.847 -45.403  26.278  1.00  0.00     0.012 A 
BRANCH  10  15
ATOM     15  C   UNL     1     -11.272 -46.176  28.991  1.00  0.00     0.120 C 
BRANCH  15  16
ATOM     16  N   UNL     1     -11.448 -45.804  30.403  1.00  0.00    -0.298 NA
ATOM     17  C   UNL     1     -12.801 -46.091  30.879  1.00  0.00     0.106 C 
BRANCH  16  18
ATOM     18  C   UNL     1     -10.406 -46.377  31.272  1.00  0.00     0.120 C 
BRANCH  18  19
ATOM     19  C   UNL     1      -9.291 -45.452  31.718  1.00  0.00    -0.034 A 
ATOM     20  C   UNL     1      -9.591 -44.184  32.239  1.00  0.00     0.005 A 
ATOM     21  C   UNL     1      -7.946 -45.835  31.608  1.00  0.00     0.005 A 
ATOM     22  C   UNL     1      -8.571 -43.323  32.647  1.00  0.00     0.000 A 
ATOM     23  C   UNL     1      -6.926 -44.975  32.021  1.00  0.00     0.000 A 
ATOM     24  C   UNL     1      -7.239 -43.719  32.541  1.00  0.00     0.000 A 
ENDBRANCH  18  19
ENDBRANCH  16  18
ENDBRANCH  15  16
ENDBRANCH  10  15
ENDBRANCH   7   9
ENDBRANCH   1   7
BRANCH   4  25
ATOM     25  O   UNL     1     -19.893 -41.639  26.783  1.00  0.00    -0.494 OA
BRANCH  25  26
ATOM     26  C   UNL     1     -20.908 -42.000  25.847  1.00  0.00     0.229 C 
BRANCH  26  27
ATOM     27  C   UNL     1     -20.890 -41.003  24.689  1.00  0.00     0.042 C 
BRANCH  27  28
ATOM     28  C   UNL     1     -22.143 -41.029  23.806  1.00  0.00     0.005 C 
BRANCH  28  29
ATOM     29  C   UNL     1     -22.334 -39.753  22.983  1.00  0.00     0.016 C 
BRANCH  29  30
ATOM     30  C   UNL     1     -21.724 -39.900  21.581  1.00  0.00     0.084 C 
BRANCH  30  31
ATOM     31  N   UNL     1     -22.393 -39.048  20.579  1.00  0.00    -0.303 NA
ATOM     32  C   UNL     1     -21.422 -38.245  19.814  1.00  0.00     0.084 C 
ATOM     33  C   UNL     1     -23.376 -38.175  21.247  1.00  0.00     0.084 C 
ATOM     34  C   UNL     1     -22.115 -37.367  18.768  1.00  0.00     0.016 C 
ATOM     35  C   UNL     1     -24.123 -37.287  20.249  1.00  0.00     0.016 C 
ATOM     36  C   UNL     1     -23.157 -36.461  19.410  1.00  0.00     0.003 C 
ENDBRANCH  30  31
ENDBRANCH  29  30
ENDBRANCH  28  29
ENDBRANCH  27  28
ENDBRANCH  26  27
ENDBRANCH  25  26
ENDBRANCH   4  25
TORSDOF 13
ENDMDL
MODEL 2
REMARK minimizedAffinity -10.0512981
REMARK CNNscore 0.888715267
REMARK CNNaffinity 7.28013802
REMARK SMILES CN(Cc1ccccc1)Cc1ccc(C(=O)c2ccc(OCCCCCN3CCCCC3)cc2)cc1
REMARK SMILES IDX 17 1 18 2 19 3 20 4 33 5 34 6 15 7 16 8 14 9 11 10 12 11
REMARK SMILES IDX 36 12 13 13 35 14 10 15 2 16 1 17 3 18 4 19 5 20 9 21 6 22
REMARK SMILES IDX 8 23 7 24 21 25 22 26 23 27 24 28 25 29 26 30 27 31 28 32
REMARK SMILES IDX 32 33 29 34 31 35 30 36
REMARK H PARENT
ROOT
ATOM      1  C   UNL     1     -15.312 -42.778  24.650  1.00  0.00     0.023 A 
ATOM      2  C   UNL     1     -14.854 -42.074  25.766  1.00  0.00     0.016 A 
ATOM      3  C   UNL     1     -14.028 -42.714  26.693  1.00  0.00     0.047 A 
ATOM      4  C   UNL     1     -13.661 -44.055  26.522  1.00  0.00     0.119 A 
ATOM      5  C   UNL     1     -14.150 -44.761  25.422  1.00  0.00     0.047 A 
ATOM      6  C   UNL     1     -14.979 -44.127  24.491  1.00  0.00     0.016 A 
ENDROOT
BRANCH   1   7
ATOM      7  C   UNL     1     -16.183 -42.141  23.636  1.00  0.00     0.193 C 
ATOM      8  O   UNL     1     -15.673 -41.743  22.591  1.00  0.00    -0.289 OA
BRANCH   7   9
ATOM      9  C   UNL     1     -17.643 -41.962  23.864  1.00  0.00     0.023 A 
ATOM     10  C   UNL     1     -20.400 -41.507  24.242  1.00  0.00    -0.034 A 
ATOM     11  C   UNL     1     -19.648 -42.203  25.203  1.00  0.00     0.006 A 
ATOM     12  C   UNL     1     -19.757 -41.054  23.084  1.00  0.00     0.006 A 
ATOM     13  C   UNL     1     -18.278 -42.414  25.027  1.00  0.00     0.012 A 
ATOM     14  C   UNL     1     -18.388 -41.271  22.900  1.00  0.00     0.012 A 
BRANCH  10  15
ATOM     15  C   UNL     1     -21.893 -41.300  24.419  1.00  0.00     0.120 C 
BRANCH  15  16
ATOM     16  N   UNL     1     -22.356 -41.510  25.799  1.00  0.00    -0.298 NA
ATOM     17  C   UNL     1     -21.472 -40.872  26.774  1.00  0.00     0.106 C 
BRANCH  16  18
ATOM     18  C   UNL     1     -23.769 -41.139  25.984  1.00  0.00     0.120 C 
BRANCH  18  19
ATOM     19  C   UNL     1     -24.055 -39.878  26.776  1.00  0.00    -0.034 A 
ATOM     20  C   UNL     1     -24.253 -38.657  26.112  1.00  0.00     0.005 A 
ATOM     21  C   UNL     1     -24.115 -39.902  28.178  1.00  0.00     0.005 A 
ATOM     22  C   UNL     1     -24.511 -37.490  26.833  1.00  0.00     0.000 A 
ATOM     23  C   UNL     1     -24.379 -38.734  28.897  1.00  0.00     0.000 A 
ATOM     24  C   UNL     1     -24.578 -37.529  28.224  1.00  0.00     0.000 A 
ENDBRANCH  18  19
ENDBRANCH  16  18
ENDBRANCH  15  16
ENDBRANCH  10  15
ENDBRANCH   7   9
ENDBRANCH   1   7
BRANCH   4  25
ATOM     25  O   UNL     1     -12.843 -44.551  27.499  1.00  0.00    -0.494 OA
BRANCH  25  26
ATOM     26  C   UNL     1     -12.972 -45.939  27.809  1.00  0.00     0.229 C 
BRANCH  26  27
ATOM     27  C   UNL     1     -11.618 -46.618  27.608  1.00  0.00     0.042 C 
BRANCH  27  28
ATOM     28  C   UNL     1     -10.531 -46.177  28.595  1.00  0.00     0.005 C 
BRANCH  28  29
ATOM     29  C   UNL     1     -11.082 -45.751  29.958  1.00  0.00     0.016 C 
BRANCH  29  30
ATOM     30  C   UNL     1     -10.394 -46.516  31.098  1.00  0.00     0.084 C 
BRANCH  30  31
ATOM     31  N   UNL     1      -9.440 -45.677  31.848  1.00  0.00    -0.303 NA
ATOM     32  C   UNL     1      -9.848 -44.261  31.852  1.00  0.00     0.084 C 
ATOM     33  C   UNL     1      -8.089 -45.826  31.275  1.00  0.00     0.084 C 
ATOM     34  C   UNL     1      -8.863 -43.390  32.638  1.00  0.00     0.016 C 
ATOM     35  C   UNL     1      -7.051 -44.998  32.034  1.00  0.00     0.016 C 
ATOM     36  C   UNL     1      -7.448 -43.528  32.093  1.00  0.00     0.003 C 
ENDBRANCH  30  31
ENDBRANCH  29  30
ENDBRANCH  28  29
ENDBRANCH  27  28
ENDBRANCH  26  27
ENDBRANCH  25  26
ENDBRANCH   4  25
TORSDOF 13
ENDMDL
MODEL 3
REMARK minimizedAffinity -10.9644642
REMARK CNNscore 0.873569667
REMARK CNNaffinity 7.56860733
REMARK SMILES CN(Cc1ccccc1)Cc1ccc(C(=O)c2ccc(OCCCCCN3CCCCC3)cc2)cc1
REMARK SMILES IDX 17 1 18 2 19 3 20 4 33 5 34 6 15 7 16 8 14 9 11 10 12 11
REMARK SMILES IDX 36 12 13 13 35 14 10 15 2 16 1 17 3 18 4 19 5 20 9 21 6 22
REMARK SMILES IDX 8 23 7 24 21 25 22 26 23 27 24 28 25 29 26 30 27 31 28 32
REMARK SMILES IDX 32 33 29 34 31 35 30 36
REMARK H PARENT
ROOT
ATOM      1  C   UNL     1     -13.693 -43.710  26.287  1.00  0.00     0.023 A 
ATOM      2  C   UNL     1     -13.854 -45.016  26.755  1.00  0.00     0.016 A 
ATOM      3  C   UNL     1     -13.057 -45.475  27.806  1.00  0.00     0.047 A 
ATOM      4  C   UNL     1     -12.093 -44.644  28.390  1.00  0.00     0.119 A 
ATOM      5  C   UNL     1     -11.915 -43.351  27.895  1.00  0.00     0.047 A 
ATOM      6  C   UNL     1     -12.708 -42.887  26.841  1.00  0.00     0.016 A 
ENDROOT
BRANCH   1   7
ATOM      7  C   UNL     1     -14.520 -43.176  25.180  1.00  0.00     0.193 C 
ATOM      8  O   UNL     1     -13.990 -42.995  24.087  1.00  0.00    -0.289 OA
BRANCH   7   9
ATOM      9  C   UNL     1     -15.958 -42.842  25.372  1.00  0.00     0.023 A 
ATOM     10  C   UNL     1     -18.681 -42.283  25.845  1.00  0.00    -0.034 A 
ATOM     11  C   UNL     1     -18.199 -42.457  24.537  1.00  0.00     0.006 A 
ATOM     12  C   UNL     1     -17.779 -42.379  26.912  1.00  0.00     0.006 A 
ATOM     13  C   UNL     1     -16.853 -42.753  24.301  1.00  0.00     0.012 A 
ATOM     14  C   UNL     1     -16.431 -42.665  26.680  1.00  0.00     0.012 A 
BRANCH  10  15
ATOM     15  C   UNL     1     -20.135 -41.934  26.100  1.00  0.00     0.120 C 
BRANCH  15  16
ATOM     16  N   UNL     1     -20.960 -41.922  24.882  1.00  0.00    -0.298 NA
ATOM     17  C   UNL     1     -22.102 -42.830  24.987  1.00  0.00     0.106 C 
BRANCH  16  18
ATOM     18  C   UNL     1     -21.350 -40.561  24.478  1.00  0.00     0.120 C 
BRANCH  18  19
ATOM     19  C   UNL     1     -20.962 -40.117  23.081  1.00  0.00    -0.034 A 
ATOM     20  C   UNL     1     -21.847 -39.343  22.314  1.00  0.00     0.005 A 
ATOM     21  C   UNL     1     -19.725 -40.477  22.525  1.00  0.00     0.005 A 
ATOM     22  C   UNL     1     -21.500 -38.933  21.026  1.00  0.00     0.000 A 
ATOM     23  C   UNL     1     -19.377 -40.062  21.238  1.00  0.00     0.000 A 
ATOM     24  C   UNL     1     -20.264 -39.290  20.489  1.00  0.00     0.000 A 
ENDBRANCH  18  19
ENDBRANCH  16  18
ENDBRANCH  15  16
ENDBRANCH  10  15
ENDBRANCH   7   9
ENDBRANCH   1   7
BRANCH   4  25
ATOM     25  O   UNL     1     -11.391 -45.218  29.414  1.00  0.00    -0.494 OA
BRANCH  25  26
ATOM     26  C   UNL     1     -10.801 -46.493  29.160  1.00  0.00     0.229 C 
BRANCH  26  27
ATOM     27  C   UNL     1      -9.356 -46.478  29.656  1.00  0.00     0.042 C 
BRANCH  27  28
ATOM     28  C   UNL     1      -9.206 -46.485  31.182  1.00  0.00     0.005 C 
BRANCH  28  29
ATOM     29  C   UNL     1      -8.137 -45.517  31.693  1.00  0.00     0.016 C 
BRANCH  29  30
ATOM     30  C   UNL     1      -8.323 -44.116  31.091  1.00  0.00     0.084 C 
BRANCH  30  31
ATOM     31  N   UNL     1      -8.912 -43.161  32.050  1.00  0.00    -0.303 NA
ATOM     32  C   UNL     1      -8.152 -43.120  33.312  1.00  0.00     0.084 C 
ATOM     33  C   UNL     1     -10.320 -43.517  32.304  1.00  0.00     0.084 C 
ATOM     34  C   UNL     1      -8.756 -42.123  34.305  1.00  0.00     0.016 C 
ATOM     35  C   UNL     1     -10.991 -42.541  33.272  1.00  0.00     0.016 C 
ATOM     36  C   UNL     1     -10.220 -42.439  34.582  1.00  0.00     0.003 C 
ENDBRANCH  30  31
ENDBRANCH  29  30
ENDBRANCH  28  29
ENDBRANCH  27  28
ENDBRANCH  26  27
ENDBRANCH  25  26
ENDBRANCH   4  25
TORSDOF 13
ENDMDL
MODEL 4
REMARK minimizedAffinity -10.9444304
REMARK CNNscore 0.872204125
REMARK CNNaffinity 7.51829672
REMARK SMILES CN(Cc1ccccc1)Cc1ccc(C(=O)c2ccc(OCCCCCN3CCCCC3)cc2)cc1
REMARK SMILES IDX 17 1 18 2 19 3 20 4 33 5 34 6 15 7 16 8 14 9 11 10 12 11
REMARK SMILES IDX 36 12 13 13 35 14 10 15 2 16 1 17 3 18 4 19 5 20 9 21 6 22
REMARK SMILES IDX 8 23 7 24 21 25 22 26 23 27 24 28 25 29 26 30 27 31 28 32
REMARK SMILES IDX 32 33 29 34 31 35 30 36
REMARK H PARENT
ROOT
ATOM      1  C   UNL     1     -16.078 -42.796  25.629  1.00  0.00     0.023 A 
ATOM      2  C   UNL     1     -17.042 -42.487  24.667  1.00  0.00     0.016 A 
ATOM      3  C   UNL     1     -18.325 -42.114  25.072  1.00  0.00     0.047 A 
ATOM      4  C   UNL     1     -18.659 -42.054  26.431  1.00  0.00     0.119 A 
ATOM      5  C   UNL     1     -17.700 -42.397  27.386  1.00  0.00     0.047 A 
ATOM      6  C   UNL     1     -16.414 -42.774  26.986  1.00  0.00     0.016 A 
ENDROOT
BRANCH   1   7
ATOM      7  C   UNL     1     -14.701 -43.190  25.249  1.00  0.00     0.193 C 
ATOM      8  O   UNL     1     -14.304 -42.918  24.118  1.00  0.00    -0.289 OA
BRANCH   7   9
ATOM      9  C   UNL     1     -13.809 -43.915  26.194  1.00  0.00     0.023 A 
ATOM     10  C   UNL     1     -12.216 -45.374  28.006  1.00  0.00    -0.034 A 
ATOM     11  C   UNL     1     -12.135 -43.973  27.944  1.00  0.00     0.006 A 
ATOM     12  C   UNL     1     -13.095 -46.036  27.139  1.00  0.00     0.006 A 
ATOM     13  C   UNL     1     -12.937 -43.246  27.060  1.00  0.00     0.012 A 
ATOM     14  C   UNL     1     -13.892 -45.313  26.248  1.00  0.00     0.012 A 
BRANCH  10  15
ATOM     15  C   UNL     1     -11.326 -46.166  28.945  1.00  0.00     0.120 C 
BRANCH  15  16
ATOM     16  N   UNL     1     -11.506 -45.814  30.362  1.00  0.00    -0.298 NA
ATOM     17  C   UNL     1     -12.859 -46.114  30.831  1.00  0.00     0.106 C 
BRANCH  16  18
ATOM     18  C   UNL     1     -10.464 -46.394  31.226  1.00  0.00     0.120 C 
BRANCH  18  19
ATOM     19  C   UNL     1      -9.347 -45.473  31.676  1.00  0.00    -0.034 A 
ATOM     20  C   UNL     1      -9.646 -44.211  32.212  1.00  0.00     0.005 A 
ATOM     21  C   UNL     1      -8.002 -45.854  31.555  1.00  0.00     0.005 A 
ATOM     22  C   UNL     1      -8.624 -43.353  32.624  1.00  0.00     0.000 A 
ATOM     23  C   UNL     1      -6.981 -44.997  31.973  1.00  0.00     0.000 A 
ATOM     24  C   UNL     1      -7.292 -43.747  32.508  1.00  0.00     0.000 A 
ENDBRANCH  18  19
ENDBRANCH  16  18
ENDBRANCH  15  16
ENDBRANCH  10  15
ENDBRANCH   7   9
ENDBRANCH   1   7
BRANCH   4  25
ATOM     25  O   UNL     1     -19.946 -41.667  26.685  1.00  0.00    -0.494 OA
BRANCH  25  26
ATOM     26  C   UNL     1     -20.959 -42.666  26.568  1.00  0.00     0.229 C 
BRANCH  26  27
ATOM     27  C   UNL     1     -21.836 -42.342  25.360  1.00  0.00     0.042 C 
BRANCH  27  28
ATOM     28  C   UNL     1     -22.321 -40.889  25.295  1.00  0.00     0.005 C 
BRANCH  28  29
ATOM     29  C   UNL     1     -22.189 -40.265  23.904  1.00  0.00     0.016 C 
BRANCH  29  30
ATOM     30  C   UNL     1     -20.777 -40.468  23.336  1.00  0.00     0.084 C 
BRANCH  30  31
ATOM     31  N   UNL     1     -20.747 -40.426  21.861  1.00  0.00    -0.303 NA
ATOM     32  C   UNL     1     -20.456 -39.070  21.362  1.00  0.00     0.084 C 
ATOM     33  C   UNL     1     -22.032 -40.912  21.324  1.00  0.00     0.084 C 
ATOM     34  C   UNL     1     -20.415 -39.027  19.831  1.00  0.00     0.016 C 
ATOM     35  C   UNL     1     -22.047 -40.917  19.795  1.00  0.00     0.016 C 
ATOM     36  C   UNL     1     -21.717 -39.541  19.231  1.00  0.00     0.003 C 
ENDBRANCH  30  31
ENDBRANCH  29  30
ENDBRANCH  28  29
ENDBRANCH  27  28
ENDBRANCH  26  27
ENDBRANCH  25  26
ENDBRANCH   4  25
TORSDOF 13
ENDMDL
MODEL 5
REMARK minimizedAffinity -10.1426592
REMARK CNNscore 0.872062802
REMARK CNNaffinity 7.81173182
REMARK SMILES CN(Cc1ccccc1)Cc1ccc(C(=O)c2ccc(OCCCCCN3CCCCC3)cc2)cc1
REMARK SMILES IDX 17 1 18 2 19 3 20 4 33 5 34 6 15 7 16 8 14 9 11 10 12 11
REMARK SMILES IDX 36 12 13 13 35 14 10 15 2 16 1 17 3 18 4 19 5 20 9 21 6 22
REMARK SMILES IDX 8 23 7 24 21 25 22 26 23 27 24 28 25 29 26 30 27 31 28 32
REMARK SMILES IDX 32 33 29 34 31 35 30 36
REMARK H PARENT
ROOT
ATOM      1  C   UNL     1     -13.955 -44.230  26.173  1.00  0.00     0.023 A 
ATOM      2  C   UNL     1     -13.769 -45.606  26.018  1.00  0.00     0.016 A 
ATOM      3  C   UNL     1     -13.033 -46.313  26.972  1.00  0.00     0.047 A 
ATOM      4  C   UNL     1     -12.473 -45.659  28.075  1.00  0.00     0.119 A 
ATOM      5  C   UNL     1     -12.634 -44.279  28.206  1.00  0.00     0.047 A 
ATOM      6  C   UNL     1     -13.368 -43.564  27.254  1.00  0.00     0.016 A 
ENDROOT
BRANCH   1   7
ATOM      7  C   UNL     1     -14.733 -43.438  25.193  1.00  0.00     0.193 C 
ATOM      8  O   UNL     1     -14.202 -43.137  24.127  1.00  0.00    -0.289 OA
BRANCH   7   9
ATOM      9  C   UNL     1     -16.124 -42.991  25.482  1.00  0.00     0.023 A 
ATOM     10  C   UNL     1     -18.751 -42.069  25.923  1.00  0.00    -0.034 A 
ATOM     11  C   UNL     1     -17.889 -42.325  27.001  1.00  0.00     0.006 A 
ATOM     12  C   UNL     1     -18.285 -42.293  24.621  1.00  0.00     0.006 A 
ATOM     13  C   UNL     1     -16.580 -42.765  26.785  1.00  0.00     0.012 A 
ATOM     14  C   UNL     1     -16.980 -42.741  24.401  1.00  0.00     0.012 A 
BRANCH  10  15
ATOM     15  C   UNL     1     -20.181 -41.618  26.157  1.00  0.00     0.120 C 
BRANCH  15  16
ATOM     16  N   UNL     1     -20.927 -42.485  27.082  1.00  0.00    -0.298 NA
ATOM     17  C   UNL     1     -22.330 -42.089  27.189  1.00  0.00     0.106 C 
BRANCH  16  18
ATOM     18  C   UNL     1     -20.761 -43.915  26.772  1.00  0.00     0.120 C 
BRANCH  18  19
ATOM     19  C   UNL     1     -22.011 -44.773  26.777  1.00  0.00    -0.034 A 
ATOM     20  C   UNL     1     -22.503 -45.311  25.578  1.00  0.00     0.005 A 
ATOM     21  C   UNL     1     -22.705 -45.034  27.969  1.00  0.00     0.005 A 
ATOM     22  C   UNL     1     -23.657 -46.098  25.572  1.00  0.00     0.000 A 
ATOM     23  C   UNL     1     -23.856 -45.825  27.962  1.00  0.00     0.000 A 
ATOM     24  C   UNL     1     -24.331 -46.358  26.763  1.00  0.00     0.000 A 
ENDBRANCH  18  19
ENDBRANCH  16  18
ENDBRANCH  15  16
ENDBRANCH  10  15
ENDBRANCH   7   9
ENDBRANCH   1   7
BRANCH   4  25
ATOM     25  O   UNL     1     -11.786 -46.474  28.933  1.00  0.00    -0.494 OA
BRANCH  25  26
ATOM     26  C   UNL     1     -10.365 -46.504  28.800  1.00  0.00     0.229 C 
BRANCH  26  27
ATOM     27  C   UNL     1      -9.745 -45.702  29.944  1.00  0.00     0.042 C 
BRANCH  27  28
ATOM     28  C   UNL     1      -8.603 -46.415  30.676  1.00  0.00     0.005 C 
BRANCH  28  29
ATOM     29  C   UNL     1      -7.989 -45.582  31.804  1.00  0.00     0.016 C 
BRANCH  29  30
ATOM     30  C   UNL     1      -8.397 -44.105  31.689  1.00  0.00     0.084 C 
BRANCH  30  31
ATOM     31  N   UNL     1      -9.208 -43.650  32.834  1.00  0.00    -0.303 NA
ATOM     32  C   UNL     1     -10.447 -42.985  32.393  1.00  0.00     0.084 C 
ATOM     33  C   UNL     1      -8.408 -42.746  33.682  1.00  0.00     0.084 C 
ATOM     34  C   UNL     1     -11.295 -42.521  33.581  1.00  0.00     0.016 C 
ATOM     35  C   UNL     1      -9.193 -42.265  34.904  1.00  0.00     0.016 C 
ATOM     36  C   UNL     1     -10.501 -41.599  34.498  1.00  0.00     0.003 C 
ENDBRANCH  30  31
ENDBRANCH  29  30
ENDBRANCH  28  29
ENDBRANCH  27  28
ENDBRANCH  26  27
ENDBRANCH  25  26
ENDBRANCH   4  25
TORSDOF 13
ENDMDL
MODEL 6
REMARK minimizedAffinity -10.6917038
REMARK CNNscore 0.871311367
REMARK CNNaffinity 7.82867193
REMARK SMILES CN(Cc1ccccc1)Cc1ccc(C(=O)c2ccc(OCCCCCN3CCCCC3)cc2)cc1
REMARK SMILES IDX 17 1 18 2 19 3 20 4 33 5 34 6 15 7 16 8 14 9 11 10 12 11
REMARK SMILES IDX 36 12 13 13 35 14 10 15 2 16 1 17 3 18 4 19 5 20 9 21 6 22
REMARK SMILES IDX 8 23 7 24 21 25 22 26 23 27 24 28 25 29 26 30 27 31 28 32
REMARK SMILES IDX 32 33 29 34 31 35 30 36
REMARK H PARENT
ROOT
ATOM      1  C   UNL     1     -13.642 -44.026  26.406  1.00  0.00     0.023 A 
ATOM      2  C   UNL     1     -13.730 -45.419  26.454  1.00  0.00     0.016 A 
ATOM      3  C   UNL     1     -12.904 -46.132  27.326  1.00  0.00     0.047 A 
ATOM      4  C   UNL     1     -11.984 -45.468  28.147  1.00  0.00     0.119 A 
ATOM      5  C   UNL     1     -11.879 -44.079  28.070  1.00  0.00     0.047 A 
ATOM      6  C   UNL     1     -12.701 -43.359  27.197  1.00  0.00     0.016 A 
ENDROOT
BRANCH   1   7
ATOM      7  C   UNL     1     -14.501 -43.226  25.503  1.00  0.00     0.193 C 
ATOM      8  O   UNL     1     -14.041 -42.867  24.422  1.00  0.00    -0.289 OA
BRANCH   7   9
ATOM      9  C   UNL     1     -15.886 -42.838  25.886  1.00  0.00     0.023 A 
ATOM     10  C   UNL     1     -18.503 -42.189  26.711  1.00  0.00    -0.034 A 
ATOM     11  C   UNL     1     -18.171 -42.241  25.347  1.00  0.00     0.006 A 
ATOM     12  C   UNL     1     -17.504 -42.452  27.657  1.00  0.00     0.006 A 
ATOM     13  C   UNL     1     -16.879 -42.581  24.935  1.00  0.00     0.012 A 
ATOM     14  C   UNL     1     -16.210 -42.784  27.249  1.00  0.00     0.012 A 
BRANCH  10  15
ATOM     15  C   UNL     1     -19.897 -41.793  27.160  1.00  0.00     0.120 C 
BRANCH  15  16
ATOM     16  N   UNL     1     -20.965 -42.570  26.513  1.00  0.00    -0.298 NA
ATOM     17  C   UNL     1     -21.058 -42.285  25.082  1.00  0.00     0.106 C 
BRANCH  16  18
ATOM     18  C   UNL     1     -20.870 -44.011  26.801  1.00  0.00     0.120 C 
BRANCH  18  19
ATOM     19  C   UNL     1     -22.149 -44.725  27.191  1.00  0.00    -0.034 A 
ATOM     20  C   UNL     1     -22.576 -44.729  28.529  1.00  0.00     0.005 A 
ATOM     21  C   UNL     1     -22.921 -45.402  26.235  1.00  0.00     0.005 A 
ATOM     22  C   UNL     1     -23.749 -45.388  28.899  1.00  0.00     0.000 A 
ATOM     23  C   UNL     1     -24.098 -46.056  26.605  1.00  0.00     0.000 A 
ATOM     24  C   UNL     1     -24.512 -46.049  27.937  1.00  0.00     0.000 A 
ENDBRANCH  18  19
ENDBRANCH  16  18
ENDBRANCH  15  16
ENDBRANCH  10  15
ENDBRANCH   7   9
ENDBRANCH   1   7
BRANCH   4  25
ATOM     25  O   UNL     1     -11.248 -46.288  28.957  1.00  0.00    -0.494 OA
BRANCH  25  26
ATOM     26  C   UNL     1     -10.033 -45.755  29.485  1.00  0.00     0.229 C 
BRANCH  26  27
ATOM     27  C   UNL     1      -9.694 -46.488  30.783  1.00  0.00     0.042 C 
BRANCH  27  28
ATOM     28  C   UNL     1      -8.320 -46.146  31.368  1.00  0.00     0.005 C 
BRANCH  28  29
ATOM     29  C   UNL     1      -7.882 -44.706  31.091  1.00  0.00     0.016 C 
BRANCH  29  30
ATOM     30  C   UNL     1      -7.583 -43.955  32.398  1.00  0.00     0.084 C 
BRANCH  30  31
ATOM     31  N   UNL     1      -8.645 -42.996  32.756  1.00  0.00    -0.303 NA
ATOM     32  C   UNL     1      -8.586 -42.628  34.182  1.00  0.00     0.084 C 
ATOM     33  C   UNL     1      -9.963 -43.566  32.421  1.00  0.00     0.084 C 
ATOM     34  C   UNL     1      -9.682 -41.625  34.553  1.00  0.00     0.016 C 
ATOM     35  C   UNL     1     -11.103 -42.599  32.746  1.00  0.00     0.016 C 
ATOM     36  C   UNL     1     -11.064 -42.163  34.205  1.00  0.00     0.003 C 
ENDBRANCH  30  31
ENDBRANCH  29  30
ENDBRANCH  28  29
ENDBRANCH  27  28
ENDBRANCH  26  27
ENDBRANCH  25  26
ENDBRANCH   4  25
TORSDOF 13
ENDMDL
MODEL 7
REMARK minimizedAffinity -10.3945141
REMARK CNNscore 0.859421015
REMARK CNNaffinity 7.64441347
REMARK SMILES CN(Cc1ccccc1)Cc1ccc(C(=O)c2ccc(OCCCCCN3CCCCC3)cc2)cc1
REMARK SMILES IDX 17 1 18 2 19 3 20 4 33 5 34 6 15 7 16 8 14 9 11 10 12 11
REMARK SMILES IDX 36 12 13 13 35 14 10 15 2 16 1 17 3 18 4 19 5 20 9 21 6 22
REMARK SMILES IDX 8 23 7 24 21 25 22 26 23 27 24 28 25 29 26 30 27 31 28 32
REMARK SMILES IDX 32 33 29 34 31 35 30 36
REMARK H PARENT
ROOT
ATOM      1  C   UNL     1     -13.454 -43.970  26.614  1.00  0.00     0.023 A 
ATOM      2  C   UNL     1     -13.698 -45.326  26.843  1.00  0.00     0.016 A 
ATOM      3  C   UNL     1     -12.958 -46.003  27.816  1.00  0.00     0.047 A 
ATOM      4  C   UNL     1     -11.972 -45.342  28.556  1.00  0.00     0.119 A 
ATOM      5  C   UNL     1     -11.711 -43.995  28.298  1.00  0.00     0.047 A 
ATOM      6  C   UNL     1     -12.445 -43.311  27.324  1.00  0.00     0.016 A 
ENDROOT
BRANCH   1   7
ATOM      7  C   UNL     1     -14.217 -43.206  25.599  1.00  0.00     0.193 C 
ATOM      8  O   UNL     1     -13.637 -42.847  24.577  1.00  0.00    -0.289 OA
BRANCH   7   9
ATOM      9  C   UNL     1     -15.649 -42.856  25.801  1.00  0.00     0.023 A 
ATOM     10  C   UNL     1     -18.363 -42.268  26.290  1.00  0.00    -0.034 A 
ATOM     11  C   UNL     1     -17.881 -42.398  24.977  1.00  0.00     0.006 A 
ATOM     12  C   UNL     1     -17.466 -42.423  27.354  1.00  0.00     0.006 A 
ATOM     13  C   UNL     1     -16.540 -42.707  24.733  1.00  0.00     0.012 A 
ATOM     14  C   UNL     1     -16.123 -42.723  27.114  1.00  0.00     0.012 A 
BRANCH  10  15
ATOM     15  C   UNL     1     -19.812 -41.906  26.557  1.00  0.00     0.120 C 
BRANCH  15  16
ATOM     16  N   UNL     1     -20.674 -42.020  25.371  1.00  0.00    -0.298 NA
ATOM     17  C   UNL     1     -21.599 -43.148  25.475  1.00  0.00     0.106 C 
BRANCH  16  18
ATOM     18  C   UNL     1     -21.354 -40.756  25.042  1.00  0.00     0.120 C 
BRANCH  18  19
ATOM     19  C   UNL     1     -22.616 -40.428  25.815  1.00  0.00    -0.034 A 
ATOM     20  C   UNL     1     -22.555 -40.180  27.195  1.00  0.00     0.005 A 
ATOM     21  C   UNL     1     -23.864 -40.378  25.175  1.00  0.00     0.005 A 
ATOM     22  C   UNL     1     -23.712 -39.882  27.916  1.00  0.00     0.000 A 
ATOM     23  C   UNL     1     -25.021 -40.075  25.897  1.00  0.00     0.000 A 
ATOM     24  C   UNL     1     -24.945 -39.826  27.267  1.00  0.00     0.000 A 
ENDBRANCH  18  19
ENDBRANCH  16  18
ENDBRANCH  15  16
ENDBRANCH  10  15
ENDBRANCH   7   9
ENDBRANCH   1   7
BRANCH   4  25
ATOM     25  O   UNL     1     -11.333 -46.123  29.480  1.00  0.00    -0.494 OA
BRANCH  25  26
ATOM     26  C   UNL     1      -9.907 -46.159  29.422  1.00  0.00     0.229 C 
BRANCH  26  27
ATOM     27  C   UNL     1      -9.372 -46.699  30.748  1.00  0.00     0.042 C 
BRANCH  27  28
ATOM     28  C   UNL     1      -8.002 -46.145  31.156  1.00  0.00     0.005 C 
BRANCH  28  29
ATOM     29  C   UNL     1      -7.882 -44.629  30.980  1.00  0.00     0.016 C 
BRANCH  29  30
ATOM     30  C   UNL     1      -7.707 -43.925  32.334  1.00  0.00     0.084 C 
BRANCH  30  31
ATOM     31  N   UNL     1      -8.816 -43.002  32.640  1.00  0.00    -0.303 NA
ATOM     32  C   UNL     1      -8.824 -42.615  34.062  1.00  0.00     0.084 C 
ATOM     33  C   UNL     1     -10.099 -43.626  32.266  1.00  0.00     0.084 C 
ATOM     34  C   UNL     1      -9.969 -41.650  34.380  1.00  0.00     0.016 C 
ATOM     35  C   UNL     1     -11.286 -42.699  32.536  1.00  0.00     0.016 C 
ATOM     36  C   UNL     1     -11.316 -42.244  33.989  1.00  0.00     0.003 C 
ENDBRANCH  30  31
ENDBRANCH  29  30
ENDBRANCH  28  29
ENDBRANCH  27  28
ENDBRANCH  26  27
ENDBRANCH  25  26
ENDBRANCH   4  25
TORSDOF 13
ENDMDL
MODEL 8
REMARK minimizedAffinity -10.2485304
REMARK CNNscore 0.859134853
REMARK CNNaffinity 7.31682825
REMARK SMILES CN(Cc1ccccc1)Cc1ccc(C(=O)c2ccc(OCCCCCN3CCCCC3)cc2)cc1
REMARK SMILES IDX 17 1 18 2 19 3 20 4 33 5 34 6 15 7 16 8 14 9 11 10 12 11
REMARK SMILES IDX 36 12 13 13 35 14 10 15 2 16 1 17 3 18 4 19 5 20 9 21 6 22
REMARK SMILES IDX 8 23 7 24 21 25 22 26 23 27 24 28 25 29 26 30 27 31 28 32
REMARK SMILES IDX 32 33 29 34 31 35 30 36
REMARK H PARENT
ROOT
ATOM      1  C   UNL     1     -16.256 -43.014  25.004  1.00  0.00     0.023 A 
ATOM      2  C   UNL     1     -16.804 -42.765  26.264  1.00  0.00     0.016 A 
ATOM      3  C   UNL     1     -18.087 -42.221  26.363  1.00  0.00     0.047 A 
ATOM      4  C   UNL     1     -18.825 -41.914  25.214  1.00  0.00     0.119 A 
ATOM      5  C   UNL     1     -18.258 -42.134  23.957  1.00  0.00     0.047 A 
ATOM      6  C   UNL     1     -16.973 -42.676  23.852  1.00  0.00     0.016 A 
ENDROOT
BRANCH   1   7
ATOM      7  C   UNL     1     -14.903 -43.597  24.848  1.00  0.00     0.193 C 
ATOM      8  O   UNL     1     -14.492 -43.831  23.714  1.00  0.00    -0.289 OA
BRANCH   7   9
ATOM      9  C   UNL     1     -14.051 -43.915  26.026  1.00  0.00     0.023 A 
ATOM     10  C   UNL     1     -12.346 -44.442  28.208  1.00  0.00    -0.034 A 
ATOM     11  C   UNL     1     -13.187 -45.443  27.695  1.00  0.00     0.006 A 
ATOM     12  C   UNL     1     -12.380 -43.171  27.624  1.00  0.00     0.006 A 
ATOM     13  C   UNL     1     -14.020 -45.190  26.602  1.00  0.00     0.012 A 
ATOM     14  C   UNL     1     -13.218 -42.911  26.536  1.00  0.00     0.012 A 
BRANCH  10  15
ATOM     15  C   UNL     1     -11.461 -44.708  29.413  1.00  0.00     0.120 C 
BRANCH  15  16
ATOM     16  N   UNL     1     -12.204 -44.798  30.679  1.00  0.00    -0.298 NA
ATOM     17  C   UNL     1     -12.850 -46.100  30.841  1.00  0.00     0.106 C 
BRANCH  16  18
ATOM     18  C   UNL     1     -11.384 -44.422  31.843  1.00  0.00     0.120 C 
BRANCH  18  19
ATOM     19  C   UNL     1      -9.907 -44.759  31.787  1.00  0.00    -0.034 A 
ATOM     20  C   UNL     1      -9.487 -46.016  31.326  1.00  0.00     0.005 A 
ATOM     21  C   UNL     1      -8.937 -43.835  32.204  1.00  0.00     0.005 A 
ATOM     22  C   UNL     1      -8.129 -46.338  31.276  1.00  0.00     0.000 A 
ATOM     23  C   UNL     1      -7.580 -44.156  32.149  1.00  0.00     0.000 A 
ATOM     24  C   UNL     1      -7.176 -45.407  31.684  1.00  0.00     0.000 A 
ENDBRANCH  18  19
ENDBRANCH  16  18
ENDBRANCH  15  16
ENDBRANCH  10  15
ENDBRANCH   7   9
ENDBRANCH   1   7
BRANCH   4  25
ATOM     25  O   UNL     1     -20.068 -41.396  25.457  1.00  0.00    -0.494 OA
BRANCH  25  26
ATOM     26  C   UNL     1     -20.597 -41.571  26.771  1.00  0.00     0.229 C 
BRANCH  26  27
ATOM     27  C   UNL     1     -22.105 -41.330  26.733  1.00  0.00     0.042 C 
BRANCH  27  28
ATOM     28  C   UNL     1     -22.752 -41.550  25.361  1.00  0.00     0.005 C 
BRANCH  28  29
ATOM     29  C   UNL     1     -23.111 -43.012  25.084  1.00  0.00     0.016 C 
BRANCH  29  30
ATOM     30  C   UNL     1     -22.569 -43.934  26.186  1.00  0.00     0.084 C 
BRANCH  30  31
ATOM     31  N   UNL     1     -23.642 -44.522  27.011  1.00  0.00    -0.303 NA
ATOM     32  C   UNL     1     -23.188 -44.782  28.389  1.00  0.00     0.084 C 
ATOM     33  C   UNL     1     -24.129 -45.764  26.382  1.00  0.00     0.084 C 
ATOM     34  C   UNL     1     -24.304 -45.383  29.249  1.00  0.00     0.016 C 
ATOM     35  C   UNL     1     -25.266 -46.402  27.183  1.00  0.00     0.016 C 
ATOM     36  C   UNL     1     -24.853 -46.660  28.626  1.00  0.00     0.003 C 
ENDBRANCH  30  31
ENDBRANCH  29  30
ENDBRANCH  28  29
ENDBRANCH  27  28
ENDBRANCH  26  27
ENDBRANCH  25  26
ENDBRANCH   4  25
TORSDOF 13
ENDMDL
MODEL 9
REMARK minimizedAffinity -9.83043194
REMARK CNNscore 0.856358469
REMARK CNNaffinity 7.66055679
REMARK SMILES CN(Cc1ccccc1)Cc1ccc(C(=O)c2ccc(OCCCCCN3CCCCC3)cc2)cc1
REMARK SMILES IDX 17 1 18 2 19 3 20 4 33 5 34 6 15 7 16 8 14 9 11 10 12 11
REMARK SMILES IDX 36 12 13 13 35 14 10 15 2 16 1 17 3 18 4 19 5 20 9 21 6 22
REMARK SMILES IDX 8 23 7 24 21 25 22 26 23 27 24 28 25 29 26 30 27 31 28 32
REMARK SMILES IDX 32 33 29 34 31 35 30 36
REMARK H PARENT
ROOT
ATOM      1  C   UNL     1     -13.806 -44.009  26.220  1.00  0.00     0.023 A 
ATOM      2  C   UNL     1     -13.838 -45.403  26.303  1.00  0.00     0.016 A 
ATOM      3  C   UNL     1     -13.072 -46.052  27.275  1.00  0.00     0.047 A 
ATOM      4  C   UNL     1     -12.268 -45.324  28.159  1.00  0.00     0.119 A 
ATOM      5  C   UNL     1     -12.216 -43.933  28.048  1.00  0.00     0.047 A 
ATOM      6  C   UNL     1     -12.978 -43.277  27.076  1.00  0.00     0.016 A 
ENDROOT
BRANCH   1   7
ATOM      7  C   UNL     1     -14.606 -43.275  25.212  1.00  0.00     0.193 C 
ATOM      8  O   UNL     1     -14.072 -42.970  24.148  1.00  0.00    -0.289 OA
BRANCH   7   9
ATOM      9  C   UNL     1     -16.020 -42.889  25.470  1.00  0.00     0.023 A 
ATOM     10  C   UNL     1     -18.693 -42.079  25.857  1.00  0.00    -0.034 A 
ATOM     11  C   UNL     1     -17.855 -42.337  26.953  1.00  0.00     0.006 A 
ATOM     12  C   UNL     1     -18.180 -42.244  24.564  1.00  0.00     0.006 A 
ATOM     13  C   UNL     1     -16.524 -42.721  26.765  1.00  0.00     0.012 A 
ATOM     14  C   UNL     1     -16.853 -42.637  24.371  1.00  0.00     0.012 A 
BRANCH  10  15
ATOM     15  C   UNL     1     -20.145 -41.688  26.060  1.00  0.00     0.120 C 
BRANCH  15  16
ATOM     16  N   UNL     1     -20.985 -42.789  26.556  1.00  0.00    -0.298 NA
ATOM     17  C   UNL     1     -22.380 -42.379  26.722  1.00  0.00     0.106 C 
BRANCH  16  18
ATOM     18  C   UNL     1     -20.845 -44.015  25.752  1.00  0.00     0.120 C 
BRANCH  18  19
ATOM     19  C   UNL     1     -21.662 -44.104  24.478  1.00  0.00    -0.034 A 
ATOM     20  C   UNL     1     -21.512 -43.136  23.473  1.00  0.00     0.005 A 
ATOM     21  C   UNL     1     -22.588 -45.140  24.284  1.00  0.00     0.005 A 
ATOM     22  C   UNL     1     -22.263 -43.206  22.299  1.00  0.00     0.000 A 
ATOM     23  C   UNL     1     -23.336 -45.212  23.107  1.00  0.00     0.000 A 
ATOM     24  C   UNL     1     -23.173 -44.246  22.114  1.00  0.00     0.000 A 
ENDBRANCH  18  19
ENDBRANCH  16  18
ENDBRANCH  15  16
ENDBRANCH  10  15
ENDBRANCH   7   9
ENDBRANCH   1   7
BRANCH   4  25
ATOM     25  O   UNL     1     -11.580 -46.086  29.063  1.00  0.00    -0.494 OA
BRANCH  25  26
ATOM     26  C   UNL     1     -10.286 -46.544  28.672  1.00  0.00     0.229 C 
BRANCH  26  27
ATOM     27  C   UNL     1      -9.231 -45.812  29.501  1.00  0.00     0.042 C 
BRANCH  27  28
ATOM     28  C   UNL     1      -8.972 -46.419  30.884  1.00  0.00     0.005 C 
BRANCH  28  29
ATOM     29  C   UNL     1      -8.152 -45.512  31.804  1.00  0.00     0.016 C 
BRANCH  29  30
ATOM     30  C   UNL     1      -8.126 -44.068  31.280  1.00  0.00     0.084 C 
BRANCH  30  31
ATOM     31  N   UNL     1      -8.823 -43.126  32.177  1.00  0.00    -0.303 NA
ATOM     32  C   UNL     1      -8.158 -43.033  33.489  1.00  0.00     0.084 C 
ATOM     33  C   UNL     1     -10.230 -43.541  32.336  1.00  0.00     0.084 C 
ATOM     34  C   UNL     1      -8.876 -42.049  34.418  1.00  0.00     0.016 C 
ATOM     35  C   UNL     1     -11.010 -42.581  33.237  1.00  0.00     0.016 C 
ATOM     36  C   UNL     1     -10.340 -42.426  34.596  1.00  0.00     0.003 C 
ENDBRANCH  30  31
ENDBRANCH  29  30
ENDBRANCH  28  29
ENDBRANCH  27  28
ENDBRANCH  26  27
ENDBRANCH  25  26
ENDBRANCH   4  25
TORSDOF 13
ENDMDL
