MODEL 1
REMARK VINA RESULT:   -10.368      0.000      0.000
REMARK INTER + INTRA:         -15.252
REMARK INTER:                 -14.610
REMARK INTRA:                  -0.642
REMARK UNBOUND:                -0.642
REMARK SMILES N=C(N)c1ccc(CN(NS(=O)(=O)c2ccc3ccccc3c2)C(=O)N2CCCCC2)cc1
REMARK SMILES IDX 8 1 7 2 4 3 5 4 33 5 6 6 32 7 2 8 1 9 3 10 9 14 10 15 11 17
REMARK SMILES IDX 12 18 13 19 14 20 15 21 23 22 16 23 22 24 17 25 21 26 18 27
REMARK SMILES IDX 20 28 19 29 24 30 25 31 26 32 27 33 31 34 28 35 30 36 29 37
REMARK H PARENT 1 11 3 12 3 13 10 16
ROOT
ATOM      1  C   UNL     1     126.036 -14.811 162.398  1.00  0.00     0.178 C 
ENDROOT
BRANCH   1   2
ATOM      2  C   UNL     1     125.736 -13.769 163.455  1.00  0.00    -0.027 A 
ATOM      3  C   UNL     1     125.236 -11.843 165.434  1.00  0.00     0.016 A 
ATOM      4  C   UNL     1     124.602 -13.088 165.495  1.00  0.00     0.012 A 
ATOM      5  C   UNL     1     126.117 -11.553 164.386  1.00  0.00     0.012 A 
ATOM      6  C   UNL     1     124.851 -14.048 164.509  1.00  0.00     0.006 A 
ATOM      7  C   UNL     1     126.369 -12.516 163.404  1.00  0.00     0.006 A 
BRANCH   3   8
ATOM      8  C   UNL     1     124.982 -10.829 166.490  1.00  0.00     0.122 C 
ATOM      9  N   UNL     1     125.909 -10.028 166.906  1.00  0.00    -0.284 NA
ATOM     10  N   UNL     1     123.751 -10.718 167.049  1.00  0.00    -0.384 N 
ATOM     11  H   UNL     1     126.783 -10.178 166.394  1.00  0.00     0.189 HD
ATOM     12  H   UNL     1     122.992 -11.356 166.855  1.00  0.00     0.158 HD
ATOM     13  H   UNL     1     123.631 -10.015 167.767  1.00  0.00     0.158 HD
ENDBRANCH   3   8
ENDBRANCH   1   2
BRANCH   1  14
ATOM     14  N   UNL     1     126.894 -15.862 162.936  1.00  0.00    -0.241 N 
BRANCH  14  15
ATOM     15  N   UNL     1     128.201 -15.361 163.532  1.00  0.00    -0.119 NA
ATOM     16  H   UNL     1     128.631 -15.982 164.224  1.00  0.00     0.167 HD
BRANCH  15  17
ATOM     17  S   UNL     1     129.370 -14.744 162.458  1.00  0.00     0.257 S 
ATOM     18  O   UNL     1     129.298 -15.583 161.278  1.00  0.00    -0.205 OA
ATOM     19  O   UNL     1     129.231 -13.306 162.364  1.00  0.00    -0.205 OA
BRANCH  17  20
ATOM     20  C   UNL     1     130.881 -15.110 163.307  1.00  0.00     0.084 A 
ATOM     21  C   UNL     1     132.099 -14.955 162.643  1.00  0.00     0.022 A 
ATOM     22  C   UNL     1     130.837 -15.589 164.620  1.00  0.00     0.030 A 
ATOM     23  C   UNL     1     133.288 -15.254 163.311  1.00  0.00     0.010 A 
ATOM     24  C   UNL     1     132.028 -15.885 165.301  1.00  0.00    -0.017 A 
ATOM     25  C   UNL     1     133.269 -15.711 164.641  1.00  0.00    -0.018 A 
ATOM     26  C   UNL     1     132.015 -16.350 166.626  1.00  0.00     0.009 A 
ATOM     27  C   UNL     1     134.459 -15.999 165.328  1.00  0.00     0.009 A 
ATOM     28  C   UNL     1     133.208 -16.634 167.293  1.00  0.00     0.001 A 
ATOM     29  C   UNL     1     134.428 -16.456 166.646  1.00  0.00     0.001 A 
ENDBRANCH  17  20
ENDBRANCH  15  17
ENDBRANCH  14  15
BRANCH  14  30
ATOM     30  C   UNL     1     126.440 -17.155 163.138  1.00  0.00     0.335 C 
ATOM     31  O   UNL     1     125.411 -17.379 163.779  1.00  0.00    -0.247 OA
ATOM     32  N   UNL     1     127.170 -18.198 162.579  1.00  0.00    -0.324 N 
ATOM     33  C   UNL     1     128.024 -18.069 161.393  1.00  0.00     0.121 C 
ATOM     34  C   UNL     1     126.850 -19.558 163.016  1.00  0.00     0.121 C 
ATOM     35  C   UNL     1     127.856 -19.254 160.444  1.00  0.00     0.022 C 
ATOM     36  C   UNL     1     127.934 -20.556 162.635  1.00  0.00     0.022 C 
ATOM     37  C   UNL     1     128.175 -20.588 161.124  1.00  0.00     0.004 C 
ENDBRANCH  14  30
ENDBRANCH   1  14
TORSDOF 7
ENDMDL
MODEL 2
REMARK VINA RESULT:   -10.270      2.141      3.016
REMARK INTER + INTRA:         -15.114
REMARK INTER:                 -14.932
REMARK INTRA:                  -0.183
REMARK UNBOUND:                -0.642
REMARK SMILES N=C(N)c1ccc(CN(NS(=O)(=O)c2ccc3ccccc3c2)C(=O)N2CCCCC2)cc1
REMARK SMILES IDX 8 1 7 2 4 3 5 4 33 5 6 6 32 7 2 8 1 9 3 10 9 14 10 15 11 17
REMARK SMILES IDX 12 18 13 19 14 20 15 21 23 22 16 23 22 24 17 25 21 26 18 27
REMARK SMILES IDX 20 28 19 29 24 30 25 31 26 32 27 33 31 34 28 35 30 36 29 37
REMARK H PARENT 1 11 3 12 3 13 10 16
ROOT
ATOM      1  C   UNL     1     126.525 -14.778 162.926  1.00  0.00     0.178 C 
ENDROOT
BRANCH   1   2
ATOM      2  C   UNL     1     126.060 -13.685 163.866  1.00  0.00    -0.027 A 
ATOM      3  C   UNL     1     125.251 -11.661 165.633  1.00  0.00     0.016 A 
ATOM      4  C   UNL     1     124.668 -12.930 165.710  1.00  0.00     0.012 A 
ATOM      5  C   UNL     1     126.235 -11.397 164.675  1.00  0.00     0.012 A 
ATOM      6  C   UNL     1     125.070 -13.938 164.828  1.00  0.00     0.006 A 
ATOM      7  C   UNL     1     126.641 -12.408 163.799  1.00  0.00     0.006 A 
BRANCH   3   8
ATOM      8  C   UNL     1     124.832 -10.594 166.578  1.00  0.00     0.122 C 
ATOM      9  N   UNL     1     125.649  -9.671 166.972  1.00  0.00    -0.284 NA
ATOM     10  N   UNL     1     123.563 -10.563 167.057  1.00  0.00    -0.384 N 
ATOM     11  H   UNL     1     126.564  -9.773 166.525  1.00  0.00     0.189 HD
ATOM     12  H   UNL     1     122.884 -11.290 166.879  1.00  0.00     0.158 HD
ATOM     13  H   UNL     1     123.330  -9.819 167.701  1.00  0.00     0.158 HD
ENDBRANCH   3   8
ENDBRANCH   1   2
BRANCH   1  14
ATOM     14  N   UNL     1     127.952 -15.035 163.097  1.00  0.00    -0.241 N 
BRANCH  14  15
ATOM     15  N   UNL     1     128.282 -16.034 164.197  1.00  0.00    -0.119 NA
ATOM     16  H   UNL     1     127.490 -16.317 164.781  1.00  0.00     0.167 HD
BRANCH  15  17
ATOM     17  S   UNL     1     129.240 -17.378 163.777  1.00  0.00     0.257 S 
ATOM     18  O   UNL     1     128.756 -18.474 164.593  1.00  0.00    -0.205 OA
ATOM     19  O   UNL     1     129.310 -17.493 162.336  1.00  0.00    -0.205 OA
BRANCH  17  20
ATOM     20  C   UNL     1     130.834 -16.898 164.383  1.00  0.00     0.084 A 
ATOM     21  C   UNL     1     131.914 -16.830 163.501  1.00  0.00     0.022 A 
ATOM     22  C   UNL     1     131.004 -16.631 165.745  1.00  0.00     0.030 A 
ATOM     23  C   UNL     1     133.171 -16.461 163.982  1.00  0.00     0.010 A 
ATOM     24  C   UNL     1     132.263 -16.252 166.236  1.00  0.00    -0.017 A 
ATOM     25  C   UNL     1     133.359 -16.162 165.343  1.00  0.00    -0.018 A 
ATOM     26  C   UNL     1     132.459 -15.961 167.595  1.00  0.00     0.009 A 
ATOM     27  C   UNL     1     134.615 -15.774 165.836  1.00  0.00     0.009 A 
ATOM     28  C   UNL     1     133.715 -15.579 168.068  1.00  0.00     0.001 A 
ATOM     29  C   UNL     1     134.791 -15.483 167.189  1.00  0.00     0.001 A 
ENDBRANCH  17  20
ENDBRANCH  15  17
ENDBRANCH  14  15
BRANCH  14  30
ATOM     30  C   UNL     1     128.893 -14.628 162.166  1.00  0.00     0.335 C 
ATOM     31  O   UNL     1     130.002 -14.216 162.514  1.00  0.00    -0.247 OA
ATOM     32  N   UNL     1     128.558 -14.715 160.819  1.00  0.00    -0.324 N 
ATOM     33  C   UNL     1     127.576 -15.655 160.268  1.00  0.00     0.121 C 
ATOM     34  C   UNL     1     129.433 -14.038 159.861  1.00  0.00     0.121 C 
ATOM     35  C   UNL     1     128.066 -16.285 158.966  1.00  0.00     0.022 C 
ATOM     36  C   UNL     1     128.780 -13.883 158.494  1.00  0.00     0.022 C 
ATOM     37  C   UNL     1     128.378 -15.234 157.898  1.00  0.00     0.004 C 
ENDBRANCH  14  30
ENDBRANCH   1  14
TORSDOF 7
ENDMDL
MODEL 3
REMARK VINA RESULT:   -10.169      1.114      1.793
REMARK INTER + INTRA:         -14.972
REMARK INTER:                 -14.288
REMARK INTRA:                  -0.684
REMARK UNBOUND:                -0.642
REMARK SMILES N=C(N)c1ccc(CN(NS(=O)(=O)c2ccc3ccccc3c2)C(=O)N2CCCCC2)cc1
REMARK SMILES IDX 8 1 7 2 4 3 5 4 33 5 6 6 32 7 2 8 1 9 3 10 9 14 10 15 11 17
REMARK SMILES IDX 12 18 13 19 14 20 15 21 23 22 16 23 22 24 17 25 21 26 18 27
REMARK SMILES IDX 20 28 19 29 24 30 25 31 26 32 27 33 31 34 28 35 30 36 29 37
REMARK H PARENT 1 11 3 12 3 13 10 16
ROOT
ATOM      1  C   UNL     1     126.549 -15.492 162.334  1.00  0.00     0.178 C 
ENDROOT
BRANCH   1   2
ATOM      2  C   UNL     1     126.176 -14.388 163.301  1.00  0.00    -0.027 A 
ATOM      3  C   UNL     1     125.535 -12.352 165.122  1.00  0.00     0.016 A 
ATOM      4  C   UNL     1     124.789 -13.534 165.105  1.00  0.00     0.012 A 
ATOM      5  C   UNL     1     126.600 -12.179 164.231  1.00  0.00     0.012 A 
ATOM      6  C   UNL     1     125.108 -14.549 164.197  1.00  0.00     0.006 A 
ATOM      7  C   UNL     1     126.921 -13.197 163.328  1.00  0.00     0.006 A 
BRANCH   3   8
ATOM      8  C   UNL     1     125.204 -11.280 166.096  1.00  0.00     0.122 C 
ATOM      9  N   UNL     1     126.039 -10.333 166.380  1.00  0.00    -0.284 NA
ATOM     10  N   UNL     1     123.999 -11.270 166.719  1.00  0.00    -0.384 N 
ATOM     11  H   UNL     1     126.898 -10.421 165.830  1.00  0.00     0.189 HD
ATOM     12  H   UNL     1     123.321 -12.014 166.631  1.00  0.00     0.158 HD
ATOM     13  H   UNL     1     123.824 -10.521 167.377  1.00  0.00     0.158 HD
ENDBRANCH   3   8
ENDBRANCH   1   2
BRANCH   1  14
ATOM     14  N   UNL     1     127.097 -16.642 163.047  1.00  0.00    -0.241 N 
BRANCH  14  15
ATOM     15  N   UNL     1     128.244 -16.307 163.990  1.00  0.00    -0.119 NA
ATOM     16  H   UNL     1     128.203 -16.765 164.905  1.00  0.00     0.167 HD
BRANCH  15  17
ATOM     17  S   UNL     1     129.824 -16.354 163.355  1.00  0.00     0.257 S 
ATOM     18  O   UNL     1     129.965 -17.665 162.754  1.00  0.00    -0.205 OA
ATOM     19  O   UNL     1     130.076 -15.150 162.592  1.00  0.00    -0.205 OA
BRANCH  17  20
ATOM     20  C   UNL     1     130.813 -16.308 164.825  1.00  0.00     0.084 A 
ATOM     21  C   UNL     1     130.223 -16.582 166.059  1.00  0.00     0.022 A 
ATOM     22  C   UNL     1     132.164 -15.958 164.738  1.00  0.00     0.030 A 
ATOM     23  C   UNL     1     131.002 -16.535 167.217  1.00  0.00     0.010 A 
ATOM     24  C   UNL     1     132.955 -15.916 165.896  1.00  0.00    -0.017 A 
ATOM     25  C   UNL     1     132.369 -16.212 167.151  1.00  0.00    -0.018 A 
ATOM     26  C   UNL     1     134.319 -15.585 165.837  1.00  0.00     0.009 A 
ATOM     27  C   UNL     1     133.166 -16.178 168.306  1.00  0.00     0.009 A 
ATOM     28  C   UNL     1     135.094 -15.553 166.996  1.00  0.00     0.001 A 
ATOM     29  C   UNL     1     134.520 -15.852 168.228  1.00  0.00     0.001 A 
ENDBRANCH  17  20
ENDBRANCH  15  17
ENDBRANCH  14  15
BRANCH  14  30
ATOM     30  C   UNL     1     126.455 -17.868 163.075  1.00  0.00     0.335 C 
ATOM     31  O   UNL     1     125.395 -18.022 163.687  1.00  0.00    -0.247 OA
ATOM     32  N   UNL     1     127.029 -18.922 162.373  1.00  0.00    -0.324 N 
ATOM     33  C   UNL     1     127.908 -18.762 161.209  1.00  0.00     0.121 C 
ATOM     34  C   UNL     1     126.506 -20.266 162.624  1.00  0.00     0.121 C 
ATOM     35  C   UNL     1     127.578 -19.769 160.109  1.00  0.00     0.022 C 
ATOM     36  C   UNL     1     127.435 -21.353 162.102  1.00  0.00     0.022 C 
ATOM     37  C   UNL     1     127.688 -21.215 160.599  1.00  0.00     0.004 C 
ENDBRANCH  14  30
ENDBRANCH   1  14
TORSDOF 7
ENDMDL
MODEL 4
REMARK VINA RESULT:    -9.889      2.028      6.039
REMARK INTER + INTRA:         -14.578
REMARK INTER:                 -13.406
REMARK INTRA:                  -1.172
REMARK UNBOUND:                -0.642
REMARK SMILES N=C(N)c1ccc(CN(NS(=O)(=O)c2ccc3ccccc3c2)C(=O)N2CCCCC2)cc1
REMARK SMILES IDX 8 1 7 2 4 3 5 4 33 5 6 6 32 7 2 8 1 9 3 10 9 14 10 15 11 17
REMARK SMILES IDX 12 18 13 19 14 20 15 21 23 22 16 23 22 24 17 25 21 26 18 27
REMARK SMILES IDX 20 28 19 29 24 30 25 31 26 32 27 33 31 34 28 35 30 36 29 37
REMARK H PARENT 1 11 3 12 3 13 10 16
ROOT
ATOM      1  C   UNL     1     127.345 -16.610 161.528  1.00  0.00     0.178 C 
ENDROOT
BRANCH   1   2
ATOM      2  C   UNL     1     126.696 -17.905 161.970  1.00  0.00    -0.027 A 
ATOM      3  C   UNL     1     125.509 -20.292 162.845  1.00  0.00     0.016 A 
ATOM      4  C   UNL     1     126.658 -20.334 162.048  1.00  0.00     0.012 A 
ATOM      5  C   UNL     1     124.947 -19.063 163.204  1.00  0.00     0.012 A 
ATOM      6  C   UNL     1     127.249 -19.145 161.612  1.00  0.00     0.006 A 
ATOM      7  C   UNL     1     125.543 -17.874 162.772  1.00  0.00     0.006 A 
BRANCH   3   8
ATOM      8  C   UNL     1     124.890 -21.557 163.319  1.00  0.00     0.122 C 
ATOM      9  N   UNL     1     125.009 -21.959 164.544  1.00  0.00    -0.284 NA
ATOM     10  N   UNL     1     124.172 -22.329 162.466  1.00  0.00    -0.384 N 
ATOM     11  H   UNL     1     125.540 -21.286 165.103  1.00  0.00     0.189 HD
ATOM     12  H   UNL     1     124.100 -22.145 161.475  1.00  0.00     0.158 HD
ATOM     13  H   UNL     1     123.774 -23.182 162.838  1.00  0.00     0.158 HD
ENDBRANCH   3   8
ENDBRANCH   1   2
BRANCH   1  14
ATOM     14  N   UNL     1     127.560 -15.723 162.668  1.00  0.00    -0.241 N 
BRANCH  14  15
ATOM     15  N   UNL     1     128.504 -16.277 163.724  1.00  0.00    -0.119 NA
ATOM     16  H   UNL     1     128.129 -17.047 164.284  1.00  0.00     0.167 HD
BRANCH  15  17
ATOM     17  S   UNL     1     130.111 -16.593 163.254  1.00  0.00     0.257 S 
ATOM     18  O   UNL     1     130.133 -17.985 162.851  1.00  0.00    -0.205 OA
ATOM     19  O   UNL     1     130.571 -15.548 162.364  1.00  0.00    -0.205 OA
BRANCH  17  20
ATOM     20  C   UNL     1     130.980 -16.448 164.792  1.00  0.00     0.084 A 
ATOM     21  C   UNL     1     130.295 -16.650 165.991  1.00  0.00     0.022 A 
ATOM     22  C   UNL     1     132.332 -16.092 164.791  1.00  0.00     0.030 A 
ATOM     23  C   UNL     1     130.979 -16.525 167.201  1.00  0.00     0.010 A 
ATOM     24  C   UNL     1     133.029 -15.971 166.002  1.00  0.00    -0.017 A 
ATOM     25  C   UNL     1     132.346 -16.195 167.223  1.00  0.00    -0.018 A 
ATOM     26  C   UNL     1     134.391 -15.632 166.031  1.00  0.00     0.009 A 
ATOM     27  C   UNL     1     133.048 -16.082 168.433  1.00  0.00     0.009 A 
ATOM     28  C   UNL     1     135.072 -15.523 167.244  1.00  0.00     0.001 A 
ATOM     29  C   UNL     1     134.403 -15.750 168.443  1.00  0.00     0.001 A 
ENDBRANCH  17  20
ENDBRANCH  15  17
ENDBRANCH  14  15
BRANCH  14  30
ATOM     30  C   UNL     1     127.167 -14.395 162.654  1.00  0.00     0.335 C 
ATOM     31  O   UNL     1     127.449 -13.654 161.710  1.00  0.00    -0.247 OA
ATOM     32  N   UNL     1     126.425 -13.923 163.731  1.00  0.00    -0.324 N 
ATOM     33  C   UNL     1     125.579 -14.763 164.586  1.00  0.00     0.121 C 
ATOM     34  C   UNL     1     126.248 -12.475 163.847  1.00  0.00     0.121 C 
ATOM     35  C   UNL     1     124.245 -14.087 164.898  1.00  0.00     0.022 C 
ATOM     36  C   UNL     1     125.759 -12.062 165.228  1.00  0.00     0.022 C 
ATOM     37  C   UNL     1     124.431 -12.733 165.586  1.00  0.00     0.004 C 
ENDBRANCH  14  30
ENDBRANCH   1  14
TORSDOF 7
ENDMDL
MODEL 5
REMARK VINA RESULT:    -9.879      2.580      3.704
REMARK INTER + INTRA:         -14.563
REMARK INTER:                 -13.655
REMARK INTRA:                  -0.907
REMARK UNBOUND:                -0.642
REMARK SMILES N=C(N)c1ccc(CN(NS(=O)(=O)c2ccc3ccccc3c2)C(=O)N2CCCCC2)cc1
REMARK SMILES IDX 8 1 7 2 4 3 5 4 33 5 6 6 32 7 2 8 1 9 3 10 9 14 10 15 11 17
REMARK SMILES IDX 12 18 13 19 14 20 15 21 23 22 16 23 22 24 17 25 21 26 18 27
REMARK SMILES IDX 20 28 19 29 24 30 25 31 26 32 27 33 31 34 28 35 30 36 29 37
REMARK H PARENT 1 11 3 12 3 13 10 16
ROOT
ATOM      1  C   UNL     1     127.022 -15.542 161.162  1.00  0.00     0.178 C 
ENDROOT
BRANCH   1   2
ATOM      2  C   UNL     1     126.476 -14.763 162.341  1.00  0.00    -0.027 A 
ATOM      3  C   UNL     1     125.410 -13.336 164.509  1.00  0.00     0.016 A 
ATOM      4  C   UNL     1     126.001 -12.649 163.444  1.00  0.00     0.012 A 
ATOM      5  C   UNL     1     125.351 -14.734 164.499  1.00  0.00     0.012 A 
ATOM      6  C   UNL     1     126.533 -13.360 162.364  1.00  0.00     0.006 A 
ATOM      7  C   UNL     1     125.879 -15.443 163.415  1.00  0.00     0.006 A 
BRANCH   3   8
ATOM      8  C   UNL     1     124.833 -12.579 165.650  1.00  0.00     0.122 C 
ATOM      9  N   UNL     1     123.792 -13.000 166.293  1.00  0.00    -0.284 NA
ATOM     10  N   UNL     1     125.395 -11.412 166.051  1.00  0.00    -0.384 N 
ATOM     11  H   UNL     1     123.473 -13.902 165.928  1.00  0.00     0.189 HD
ATOM     12  H   UNL     1     126.151 -10.959 165.556  1.00  0.00     0.158 HD
ATOM     13  H   UNL     1     124.962 -10.933 166.830  1.00  0.00     0.158 HD
ENDBRANCH   3   8
ENDBRANCH   1   2
BRANCH   1  14
ATOM     14  N   UNL     1     128.361 -15.079 160.811  1.00  0.00    -0.241 N 
BRANCH  14  15
ATOM     15  N   UNL     1     129.464 -15.603 161.720  1.00  0.00    -0.119 NA
ATOM     16  H   UNL     1     129.982 -16.408 161.357  1.00  0.00     0.167 HD
BRANCH  15  17
ATOM     17  S   UNL     1     130.522 -14.460 162.412  1.00  0.00     0.257 S 
ATOM     18  O   UNL     1     131.630 -14.342 161.485  1.00  0.00    -0.205 OA
ATOM     19  O   UNL     1     129.771 -13.297 162.833  1.00  0.00    -0.205 OA
BRANCH  17  20
ATOM     20  C   UNL     1     131.095 -15.315 163.854  1.00  0.00     0.084 A 
ATOM     21  C   UNL     1     130.174 -15.953 164.687  1.00  0.00     0.022 A 
ATOM     22  C   UNL     1     132.458 -15.309 164.165  1.00  0.00     0.030 A 
ATOM     23  C   UNL     1     130.627 -16.617 165.828  1.00  0.00     0.010 A 
ATOM     24  C   UNL     1     132.922 -15.981 165.306  1.00  0.00    -0.017 A 
ATOM     25  C   UNL     1     131.996 -16.647 166.146  1.00  0.00    -0.018 A 
ATOM     26  C   UNL     1     134.287 -16.006 165.634  1.00  0.00     0.009 A 
ATOM     27  C   UNL     1     132.465 -17.326 167.282  1.00  0.00     0.009 A 
ATOM     28  C   UNL     1     134.734 -16.684 166.769  1.00  0.00     0.001 A 
ATOM     29  C   UNL     1     133.825 -17.346 167.590  1.00  0.00     0.001 A 
ENDBRANCH  17  20
ENDBRANCH  15  17
ENDBRANCH  14  15
BRANCH  14  30
ATOM     30  C   UNL     1     128.634 -14.454 159.606  1.00  0.00     0.335 C 
ATOM     31  O   UNL     1     129.217 -13.368 159.565  1.00  0.00    -0.247 OA
ATOM     32  N   UNL     1     128.249 -15.098 158.435  1.00  0.00    -0.324 N 
ATOM     33  C   UNL     1     128.083 -16.550 158.304  1.00  0.00     0.121 C 
ATOM     34  C   UNL     1     128.290 -14.324 157.194  1.00  0.00     0.121 C 
ATOM     35  C   UNL     1     128.669 -17.070 156.993  1.00  0.00     0.022 C 
ATOM     36  C   UNL     1     127.509 -14.994 156.071  1.00  0.00     0.022 C 
ATOM     37  C   UNL     1     128.033 -16.400 155.772  1.00  0.00     0.004 C 
ENDBRANCH  14  30
ENDBRANCH   1  14
TORSDOF 7
ENDMDL
MODEL 6
REMARK VINA RESULT:    -9.522      2.994      4.814
REMARK INTER + INTRA:         -14.060
REMARK INTER:                 -13.009
REMARK INTRA:                  -1.051
REMARK UNBOUND:                -0.642
REMARK SMILES N=C(N)c1ccc(CN(NS(=O)(=O)c2ccc3ccccc3c2)C(=O)N2CCCCC2)cc1
REMARK SMILES IDX 8 1 7 2 4 3 5 4 33 5 6 6 32 7 2 8 1 9 3 10 9 14 10 15 11 17
REMARK SMILES IDX 12 18 13 19 14 20 15 21 23 22 16 23 22 24 17 25 21 26 18 27
REMARK SMILES IDX 20 28 19 29 24 30 25 31 26 32 27 33 31 34 28 35 30 36 29 37
REMARK H PARENT 1 11 3 12 3 13 10 16
ROOT
ATOM      1  C   UNL     1     126.745 -14.991 161.565  1.00  0.00     0.178 C 
ENDROOT
BRANCH   1   2
ATOM      2  C   UNL     1     126.383 -14.090 162.727  1.00  0.00    -0.027 A 
ATOM      3  C   UNL     1     125.657 -12.416 164.859  1.00  0.00     0.016 A 
ATOM      4  C   UNL     1     126.573 -11.970 163.901  1.00  0.00     0.012 A 
ATOM      5  C   UNL     1     125.104 -13.697 164.760  1.00  0.00     0.012 A 
ATOM      6  C   UNL     1     126.935 -12.804 162.839  1.00  0.00     0.006 A 
ATOM      7  C   UNL     1     125.463 -14.528 163.694  1.00  0.00     0.006 A 
BRANCH   3   8
ATOM      8  C   UNL     1     125.263 -11.524 165.979  1.00  0.00     0.122 C 
ATOM      9  N   UNL     1     126.003 -10.531 166.356  1.00  0.00    -0.284 NA
ATOM     10  N   UNL     1     124.098 -11.732 166.642  1.00  0.00    -0.384 N 
ATOM     11  H   UNL     1     126.837 -10.450 165.768  1.00  0.00     0.189 HD
ATOM     12  H   UNL     1     123.501 -12.531 166.482  1.00  0.00     0.158 HD
ATOM     13  H   UNL     1     123.877 -11.098 167.400  1.00  0.00     0.158 HD
ENDBRANCH   3   8
ENDBRANCH   1   2
BRANCH   1  14
ATOM     14  N   UNL     1     128.192 -15.165 161.476  1.00  0.00    -0.241 N 
BRANCH  14  15
ATOM     15  N   UNL     1     128.721 -16.398 162.195  1.00  0.00    -0.119 NA
ATOM     16  H   UNL     1     129.039 -17.156 161.584  1.00  0.00     0.167 HD
BRANCH  15  17
ATOM     17  S   UNL     1     129.813 -16.152 163.479  1.00  0.00     0.257 S 
ATOM     18  O   UNL     1     131.135 -16.248 162.892  1.00  0.00    -0.205 OA
ATOM     19  O   UNL     1     129.414 -14.985 164.237  1.00  0.00    -0.205 OA
BRANCH  17  20
ATOM     20  C   UNL     1     129.542 -17.592 164.475  1.00  0.00     0.084 A 
ATOM     21  C   UNL     1     130.346 -17.816 165.593  1.00  0.00     0.022 A 
ATOM     22  C   UNL     1     128.553 -18.509 164.108  1.00  0.00     0.030 A 
ATOM     23  C   UNL     1     130.137 -18.957 166.370  1.00  0.00     0.010 A 
ATOM     24  C   UNL     1     128.331 -19.654 164.888  1.00  0.00    -0.017 A 
ATOM     25  C   UNL     1     129.130 -19.879 166.036  1.00  0.00    -0.018 A 
ATOM     26  C   UNL     1     127.333 -20.584 164.553  1.00  0.00     0.009 A 
ATOM     27  C   UNL     1     128.900 -21.021 166.819  1.00  0.00     0.009 A 
ATOM     28  C   UNL     1     127.120 -21.715 165.342  1.00  0.00     0.001 A 
ATOM     29  C   UNL     1     127.900 -21.932 166.475  1.00  0.00     0.001 A 
ENDBRANCH  17  20
ENDBRANCH  15  17
ENDBRANCH  14  15
BRANCH  14  30
ATOM     30  C   UNL     1     128.970 -14.438 160.591  1.00  0.00     0.335 C 
ATOM     31  O   UNL     1     129.917 -13.752 160.984  1.00  0.00    -0.247 OA
ATOM     32  N   UNL     1     128.666 -14.520 159.237  1.00  0.00    -0.324 N 
ATOM     33  C   UNL     1     127.992 -15.659 158.605  1.00  0.00     0.121 C 
ATOM     34  C   UNL     1     129.303 -13.552 158.342  1.00  0.00     0.121 C 
ATOM     35  C   UNL     1     128.634 -16.026 157.269  1.00  0.00     0.022 C 
ATOM     36  C   UNL     1     128.625 -13.493 156.980  1.00  0.00     0.022 C 
ATOM     37  C   UNL     1     128.625 -14.855 156.283  1.00  0.00     0.004 C 
ENDBRANCH  14  30
ENDBRANCH   1  14
TORSDOF 7
ENDMDL
MODEL 7
REMARK VINA RESULT:    -9.411      2.598      6.814
REMARK INTER + INTRA:         -13.903
REMARK INTER:                 -13.131
REMARK INTRA:                  -0.772
REMARK UNBOUND:                -0.642
REMARK SMILES N=C(N)c1ccc(CN(NS(=O)(=O)c2ccc3ccccc3c2)C(=O)N2CCCCC2)cc1
REMARK SMILES IDX 8 1 7 2 4 3 5 4 33 5 6 6 32 7 2 8 1 9 3 10 9 14 10 15 11 17
REMARK SMILES IDX 12 18 13 19 14 20 15 21 23 22 16 23 22 24 17 25 21 26 18 27
REMARK SMILES IDX 20 28 19 29 24 30 25 31 26 32 27 33 31 34 28 35 30 36 29 37
REMARK H PARENT 1 11 3 12 3 13 10 16
ROOT
ATOM      1  C   UNL     1     129.512 -16.015 164.714  1.00  0.00     0.178 C 
ENDROOT
BRANCH   1   2
ATOM      2  C   UNL     1     130.859 -16.073 165.404  1.00  0.00    -0.027 A 
ATOM      3  C   UNL     1     133.336 -16.141 166.720  1.00  0.00     0.016 A 
ATOM      4  C   UNL     1     133.249 -15.628 165.422  1.00  0.00     0.012 A 
ATOM      5  C   UNL     1     132.192 -16.623 167.364  1.00  0.00     0.012 A 
ATOM      6  C   UNL     1     132.015 -15.595 164.766  1.00  0.00     0.006 A 
ATOM      7  C   UNL     1     130.958 -16.584 166.708  1.00  0.00     0.006 A 
BRANCH   3   8
ATOM      8  C   UNL     1     134.646 -16.163 167.422  1.00  0.00     0.122 C 
ATOM      9  N   UNL     1     135.714 -15.662 166.890  1.00  0.00    -0.284 NA
ATOM     10  N   UNL     1     134.752 -16.715 168.656  1.00  0.00    -0.384 N 
ATOM     11  H   UNL     1     135.511 -15.245 165.978  1.00  0.00     0.189 HD
ATOM     12  H   UNL     1     133.997 -17.210 169.111  1.00  0.00     0.158 HD
ATOM     13  H   UNL     1     135.666 -16.709 169.089  1.00  0.00     0.158 HD
ENDBRANCH   3   8
ENDBRANCH   1   2
BRANCH   1  14
ATOM     14  N   UNL     1     129.606 -16.529 163.351  1.00  0.00    -0.241 N 
BRANCH  14  15
ATOM     15  N   UNL     1     129.760 -15.455 162.284  1.00  0.00    -0.119 NA
ATOM     16  H   UNL     1     130.602 -15.532 161.707  1.00  0.00     0.167 HD
BRANCH  15  17
ATOM     17  S   UNL     1     128.397 -15.094 161.329  1.00  0.00     0.257 S 
ATOM     18  O   UNL     1     128.735 -13.883 160.607  1.00  0.00    -0.205 OA
ATOM     19  O   UNL     1     127.964 -16.286 160.630  1.00  0.00    -0.205 OA
BRANCH  17  20
ATOM     20  C   UNL     1     127.185 -14.687 162.555  1.00  0.00     0.084 A 
ATOM     21  C   UNL     1     126.201 -15.620 162.886  1.00  0.00     0.022 A 
ATOM     22  C   UNL     1     127.201 -13.422 163.150  1.00  0.00     0.030 A 
ATOM     23  C   UNL     1     125.241 -15.294 163.845  1.00  0.00     0.010 A 
ATOM     24  C   UNL     1     126.244 -13.088 164.121  1.00  0.00    -0.017 A 
ATOM     25  C   UNL     1     125.254 -14.037 164.477  1.00  0.00    -0.018 A 
ATOM     26  C   UNL     1     126.247 -11.832 164.748  1.00  0.00     0.009 A 
ATOM     27  C   UNL     1     124.304 -13.704 165.455  1.00  0.00     0.009 A 
ATOM     28  C   UNL     1     125.293 -11.517 165.716  1.00  0.00     0.001 A 
ATOM     29  C   UNL     1     124.325 -12.452 166.072  1.00  0.00     0.001 A 
ENDBRANCH  17  20
ENDBRANCH  15  17
ENDBRANCH  14  15
BRANCH  14  30
ATOM     30  C   UNL     1     129.817 -17.871 163.080  1.00  0.00     0.335 C 
ATOM     31  O   UNL     1     130.952 -18.352 163.075  1.00  0.00    -0.247 OA
ATOM     32  N   UNL     1     128.706 -18.669 162.833  1.00  0.00    -0.324 N 
ATOM     33  C   UNL     1     127.357 -18.392 163.337  1.00  0.00     0.121 C 
ATOM     34  C   UNL     1     128.943 -20.006 162.285  1.00  0.00     0.121 C 
ATOM     35  C   UNL     1     126.673 -19.658 163.849  1.00  0.00     0.022 C 
ATOM     36  C   UNL     1     127.675 -20.628 161.715  1.00  0.00     0.022 C 
ATOM     37  C   UNL     1     126.570 -20.735 162.767  1.00  0.00     0.004 C 
ENDBRANCH  14  30
ENDBRANCH   1  14
TORSDOF 7
ENDMDL
MODEL 8
REMARK VINA RESULT:    -9.233      2.368      3.522
REMARK INTER + INTRA:         -13.653
REMARK INTER:                 -12.485
REMARK INTRA:                  -1.168
REMARK UNBOUND:                -0.642
REMARK SMILES N=C(N)c1ccc(CN(NS(=O)(=O)c2ccc3ccccc3c2)C(=O)N2CCCCC2)cc1
REMARK SMILES IDX 8 1 7 2 4 3 5 4 33 5 6 6 32 7 2 8 1 9 3 10 9 14 10 15 11 17
REMARK SMILES IDX 12 18 13 19 14 20 15 21 23 22 16 23 22 24 17 25 21 26 18 27
REMARK SMILES IDX 20 28 19 29 24 30 25 31 26 32 27 33 31 34 28 35 30 36 29 37
REMARK H PARENT 1 11 3 12 3 13 10 16
ROOT
ATOM      1  C   UNL     1     125.801 -17.743 163.640  1.00  0.00     0.178 C 
ENDROOT
BRANCH   1   2
ATOM      2  C   UNL     1     125.994 -16.264 163.378  1.00  0.00    -0.027 A 
ATOM      3  C   UNL     1     126.294 -13.517 162.892  1.00  0.00     0.016 A 
ATOM      4  C   UNL     1     126.682 -14.445 161.920  1.00  0.00     0.012 A 
ATOM      5  C   UNL     1     125.759 -13.955 164.108  1.00  0.00     0.012 A 
ATOM      6  C   UNL     1     126.534 -15.813 162.163  1.00  0.00     0.006 A 
ATOM      7  C   UNL     1     125.606 -15.324 164.346  1.00  0.00     0.006 A 
BRANCH   3   8
ATOM      8  C   UNL     1     126.439 -12.062 162.628  1.00  0.00     0.122 C 
ATOM      9  N   UNL     1     125.612 -11.419 161.868  1.00  0.00    -0.284 NA
ATOM     10  N   UNL     1     127.458 -11.363 163.188  1.00  0.00    -0.384 N 
ATOM     11  H   UNL     1     124.868 -12.035 161.528  1.00  0.00     0.189 HD
ATOM     12  H   UNL     1     128.203 -11.794 163.718  1.00  0.00     0.158 HD
ATOM     13  H   UNL     1     127.516 -10.376 162.973  1.00  0.00     0.158 HD
ENDBRANCH   3   8
ENDBRANCH   1   2
BRANCH   1  14
ATOM     14  N   UNL     1     127.013 -18.489 163.313  1.00  0.00    -0.241 N 
BRANCH  14  15
ATOM     15  N   UNL     1     128.184 -18.224 164.247  1.00  0.00    -0.119 NA
ATOM     16  H   UNL     1     128.248 -18.849 165.055  1.00  0.00     0.167 HD
BRANCH  15  17
ATOM     17  S   UNL     1     129.716 -17.985 163.540  1.00  0.00     0.257 S 
ATOM     18  O   UNL     1     130.206 -19.309 163.214  1.00  0.00    -0.205 OA
ATOM     19  O   UNL     1     129.628 -16.950 162.531  1.00  0.00    -0.205 OA
BRANCH  17  20
ATOM     20  C   UNL     1     130.659 -17.364 164.905  1.00  0.00     0.084 A 
ATOM     21  C   UNL     1     130.077 -17.301 166.171  1.00  0.00     0.022 A 
ATOM     22  C   UNL     1     131.963 -16.906 164.692  1.00  0.00     0.030 A 
ATOM     23  C   UNL     1     130.819 -16.802 167.243  1.00  0.00     0.010 A 
ATOM     24  C   UNL     1     132.718 -16.409 165.766  1.00  0.00    -0.017 A 
ATOM     25  C   UNL     1     132.141 -16.361 167.058  1.00  0.00    -0.018 A 
ATOM     26  C   UNL     1     134.036 -15.959 165.585  1.00  0.00     0.009 A 
ATOM     27  C   UNL     1     132.902 -15.872 168.132  1.00  0.00     0.009 A 
ATOM     28  C   UNL     1     134.776 -15.474 166.663  1.00  0.00     0.001 A 
ATOM     29  C   UNL     1     134.212 -15.433 167.936  1.00  0.00     0.001 A 
ENDBRANCH  17  20
ENDBRANCH  15  17
ENDBRANCH  14  15
BRANCH  14  30
ATOM     30  C   UNL     1     127.011 -19.544 162.415  1.00  0.00     0.335 C 
ATOM     31  O   UNL     1     127.416 -19.401 161.259  1.00  0.00    -0.247 OA
ATOM     32  N   UNL     1     126.556 -20.780 162.862  1.00  0.00    -0.324 N 
ATOM     33  C   UNL     1     126.587 -21.218 164.261  1.00  0.00     0.121 C 
ATOM     34  C   UNL     1     126.300 -21.810 161.853  1.00  0.00     0.121 C 
ATOM     35  C   UNL     1     127.043 -22.671 164.388  1.00  0.00     0.022 C 
ATOM     36  C   UNL     1     125.469 -22.961 162.404  1.00  0.00     0.022 C 
ATOM     37  C   UNL     1     126.144 -23.628 163.604  1.00  0.00     0.004 C 
ENDBRANCH  14  30
ENDBRANCH   1  14
TORSDOF 7
ENDMDL
MODEL 9
REMARK VINA RESULT:    -9.084      2.766      3.730
REMARK INTER + INTRA:         -13.443
REMARK INTER:                 -11.864
REMARK INTRA:                  -1.579
REMARK UNBOUND:                -0.642
REMARK SMILES N=C(N)c1ccc(CN(NS(=O)(=O)c2ccc3ccccc3c2)C(=O)N2CCCCC2)cc1
REMARK SMILES IDX 8 1 7 2 4 3 5 4 33 5 6 6 32 7 2 8 1 9 3 10 9 14 10 15 11 17
REMARK SMILES IDX 12 18 13 19 14 20 15 21 23 22 16 23 22 24 17 25 21 26 18 27
REMARK SMILES IDX 20 28 19 29 24 30 25 31 26 32 27 33 31 34 28 35 30 36 29 37
REMARK H PARENT 1 11 3 12 3 13 10 16
ROOT
ATOM      1  C   UNL     1     127.447 -17.989 162.232  1.00  0.00     0.178 C 
ENDROOT
BRANCH   1   2
ATOM      2  C   UNL     1     127.276 -16.547 162.659  1.00  0.00    -0.027 A 
ATOM      3  C   UNL     1     126.947 -13.859 163.394  1.00  0.00     0.016 A 
ATOM      4  C   UNL     1     128.212 -14.452 163.462  1.00  0.00     0.012 A 
ATOM      5  C   UNL     1     125.844 -14.603 162.964  1.00  0.00     0.012 A 
ATOM      6  C   UNL     1     128.376 -15.791 163.096  1.00  0.00     0.006 A 
ATOM      7  C   UNL     1     126.011 -15.941 162.593  1.00  0.00     0.006 A 
BRANCH   3   8
ATOM      8  C   UNL     1     126.776 -12.432 163.770  1.00  0.00     0.122 C 
ATOM      9  N   UNL     1     126.038 -12.072 164.770  1.00  0.00    -0.284 NA
ATOM     10  N   UNL     1     127.402 -11.458 163.063  1.00  0.00    -0.384 N 
ATOM     11  H   UNL     1     125.644 -12.886 165.249  1.00  0.00     0.189 HD
ATOM     12  H   UNL     1     127.923 -11.634 162.215  1.00  0.00     0.158 HD
ATOM     13  H   UNL     1     127.250 -10.502 163.357  1.00  0.00     0.158 HD
ENDBRANCH   3   8
ENDBRANCH   1   2
BRANCH   1  14
ATOM     14  N   UNL     1     126.748 -18.887 163.147  1.00  0.00    -0.241 N 
BRANCH  14  15
ATOM     15  N   UNL     1     127.246 -18.832 164.583  1.00  0.00    -0.119 NA
ATOM     16  H   UNL     1     126.515 -18.839 165.299  1.00  0.00     0.167 HD
BRANCH  15  17
ATOM     17  S   UNL     1     128.528 -19.870 165.011  1.00  0.00     0.257 S 
ATOM     18  O   UNL     1     128.241 -20.307 166.363  1.00  0.00    -0.205 OA
ATOM     19  O   UNL     1     128.754 -20.825 163.947  1.00  0.00    -0.205 OA
BRANCH  17  20
ATOM     20  C   UNL     1     129.902 -18.753 165.070  1.00  0.00     0.084 A 
ATOM     21  C   UNL     1     130.619 -18.483 163.903  1.00  0.00     0.022 A 
ATOM     22  C   UNL     1     130.280 -18.186 166.290  1.00  0.00     0.030 A 
ATOM     23  C   UNL     1     131.708 -17.611 163.953  1.00  0.00     0.010 A 
ATOM     24  C   UNL     1     131.369 -17.303 166.348  1.00  0.00    -0.017 A 
ATOM     25  C   UNL     1     132.089 -17.007 165.165  1.00  0.00    -0.018 A 
ATOM     26  C   UNL     1     131.760 -16.704 167.557  1.00  0.00     0.009 A 
ATOM     27  C   UNL     1     133.172 -16.116 165.225  1.00  0.00     0.009 A 
ATOM     28  C   UNL     1     132.841 -15.822 167.598  1.00  0.00     0.001 A 
ATOM     29  C   UNL     1     133.544 -15.526 166.433  1.00  0.00     0.001 A 
ENDBRANCH  17  20
ENDBRANCH  15  17
ENDBRANCH  14  15
BRANCH  14  30
ATOM     30  C   UNL     1     125.564 -19.517 162.802  1.00  0.00     0.335 C 
ATOM     31  O   UNL     1     124.471 -18.984 163.010  1.00  0.00    -0.247 OA
ATOM     32  N   UNL     1     125.642 -20.764 162.193  1.00  0.00    -0.324 N 
ATOM     33  C   UNL     1     126.790 -21.235 161.411  1.00  0.00     0.121 C 
ATOM     34  C   UNL     1     124.405 -21.539 162.080  1.00  0.00     0.121 C 
ATOM     35  C   UNL     1     126.350 -21.960 160.140  1.00  0.00     0.022 C 
ATOM     36  C   UNL     1     124.670 -23.002 161.751  1.00  0.00     0.022 C 
ATOM     37  C   UNL     1     125.451 -23.161 160.444  1.00  0.00     0.004 C 
ENDBRANCH  14  30
ENDBRANCH   1  14
TORSDOF 7
ENDMDL
