MODEL 4
REMARK VINA RESULT:   -10.113      2.586      3.309
REMARK INTER + INTRA:         -15.098
REMARK INTER:                 -14.237
REMARK INTRA:                  -0.862
REMARK UNBOUND:                -0.846
REMARK SMILES CN1CCN(C(=O)Cn2cc(Nc3nc4c(N5C[C@H]6CC[C@@H](C5)N6C(=O)[C@@H]5CCC(F)(F)C5)cccn4n3)cn2)CC1
REMARK SMILES IDX 13 1 14 2 15 3 16 4 34 5 35 6 36 7 37 8 38 9 12 10 11 12
REMARK SMILES IDX 9 13 10 14 40 15 39 16 8 17 6 18 2 19 3 20 42 21 4 22 41 23
REMARK SMILES IDX 5 24 7 25 1 26 17 27 23 28 18 29 22 30 19 31 21 32 24 33
REMARK SMILES IDX 20 34 25 35 26 36 27 37 28 38 33 39 29 40 30 41 31 42 32 43
REMARK H PARENT 12 11
ROOT
ATOM      1  C   UNL     1     -12.210  14.963  20.245  1.00  0.00     0.247 A 
ATOM      2  N   UNL     1     -13.265  15.829  20.264  1.00  0.00    -0.190 NA
ATOM      3  C   UNL     1     -14.322  15.045  20.170  1.00  0.00     0.180 A 
ATOM      4  C   UNL     1     -15.749  15.321  20.123  1.00  0.00     0.082 A 
ATOM      5  C   UNL     1     -16.562  14.240  19.995  1.00  0.00     0.031 A 
ATOM      6  C   UNL     1     -16.084  12.872  19.899  1.00  0.00     0.022 A 
ATOM      7  C   UNL     1     -14.767  12.646  19.953  1.00  0.00     0.115 A 
ATOM      8  N   UNL     1     -13.893  13.720  20.089  1.00  0.00    -0.217 N 
ATOM      9  N   UNL     1     -12.547  13.678  20.161  1.00  0.00    -0.127 NA
ENDROOT
BRANCH   1  10
ATOM     10  N   UNL     1     -10.986  15.526  20.313  1.00  0.00    -0.320 N 
ATOM     11  H   UNL     1     -11.030  16.514  20.532  1.00  0.00     0.170 HD
BRANCH  10  12
ATOM     12  C   UNL     1      -9.770  14.971  20.113  1.00  0.00     0.079 A 
ATOM     13  N   UNL     1      -7.625  14.556  19.915  1.00  0.00    -0.261 N 
ATOM     14  C   UNL     1      -8.527  15.540  20.215  1.00  0.00     0.135 A 
ATOM     15  N   UNL     1      -8.211  13.386  19.569  1.00  0.00    -0.179 NA
ATOM     16  C   UNL     1      -9.515  13.638  19.723  1.00  0.00     0.161 A 
BRANCH  13  17
ATOM     17  C   UNL     1      -6.193  14.722  19.725  1.00  0.00     0.244 C 
BRANCH  17  18
ATOM     18  C   UNL     1      -5.404  14.794  21.017  1.00  0.00     0.244 C 
ATOM     19  N   UNL     1      -4.316  18.719  22.569  1.00  0.00    -0.303 NA
ATOM     20  C   UNL     1      -5.256  18.583  21.443  1.00  0.00     0.105 C 
ATOM     21  C   UNL     1      -4.395  17.514  23.420  1.00  0.00     0.105 C 
ATOM     22  C   UNL     1      -5.129  17.274  20.637  1.00  0.00     0.135 C 
ATOM     23  C   UNL     1      -4.242  16.175  22.673  1.00  0.00     0.135 C 
ATOM     24  N   UNL     1      -5.105  16.080  21.490  1.00  0.00    -0.339 N 
ATOM     25  O   UNL     1      -5.057  13.792  21.643  1.00  0.00    -0.273 OA
ATOM     26  C   UNL     1      -2.950  18.975  22.115  1.00  0.00     0.105 C 
ENDBRANCH  17  18
ENDBRANCH  13  17
ENDBRANCH  10  12
ENDBRANCH   1  10
BRANCH   4  27
ATOM     27  N   UNL     1     -16.270  16.634  20.234  1.00  0.00    -0.364 N 
ATOM     28  C   UNL     1     -16.861  17.314  19.037  1.00  0.00     0.141 C 
ATOM     29  C   UNL     1     -16.838  17.119  21.535  1.00  0.00     0.141 C 
ATOM     30  C   UNL     1     -17.053  18.845  19.256  1.00  0.00     0.105 C 
ATOM     31  C   UNL     1     -17.007  18.662  21.547  1.00  0.00     0.105 C 
ATOM     32  C   UNL     1     -15.724  19.497  19.662  1.00  0.00     0.029 C 
ATOM     33  N   UNL     1     -17.869  19.064  20.443  1.00  0.00    -0.333 N 
ATOM     34  C   UNL     1     -15.685  19.361  21.194  1.00  0.00     0.029 C 
BRANCH  33  35
ATOM     35  C   UNL     1     -19.232  19.024  20.574  1.00  0.00     0.226 C 
ATOM     36  O   UNL     1     -19.762  18.280  21.406  1.00  0.00    -0.275 OA
BRANCH  35  37
ATOM     37  C   UNL     1     -20.120  19.952  19.754  1.00  0.00     0.085 C 
ATOM     38  C   UNL     1     -19.975  21.452  20.005  1.00  0.00     0.020 C 
ATOM     39  C   UNL     1     -21.626  19.644  19.817  1.00  0.00     0.090 C 
ATOM     40  C   UNL     1     -21.290  22.021  19.494  1.00  0.00     0.078 C 
ATOM     41  C   UNL     1     -22.292  20.999  19.984  1.00  0.00     0.248 C 
ATOM     42  F   UNL     1     -22.560  21.221  21.293  1.00  0.00    -0.207 F 
ATOM     43  F   UNL     1     -23.459  21.073  19.317  1.00  0.00    -0.207 F 
ENDBRANCH  35  37
ENDBRANCH  33  35
ENDBRANCH   4  27
TORSDOF 7
ENDMDL
