MODEL 1
REMARK VINA RESULT:   -10.964      0.000      0.000
REMARK INTER + INTRA:         -14.950
REMARK INTER:                 -14.809
REMARK INTRA:                  -0.141
REMARK UNBOUND:                -0.141
REMARK SMILES Cc1nccc2cc(NC(=O)[C@@H]3C[C@H]3c3ccc(S(=O)(=O)Nc4ccccn4)cc3)ccc12
REMARK SMILES IDX 15 1 16 2 17 3 18 4 29 5 30 6 14 7 12 8 13 9 10 10 9 11
REMARK SMILES IDX 11 12 8 14 2 15 3 16 33 17 4 18 32 19 6 20 5 21 31 22 7 23
REMARK SMILES IDX 1 24 19 25 20 26 21 27 22 28 23 30 24 31 28 32 25 33 27 34
REMARK SMILES IDX 26 35
REMARK H PARENT 9 13 22 29
ROOT
ATOM      1  C   UNL     1       4.321 -18.749  21.525  1.00  0.00    -0.044 A 
ATOM      2  C   UNL     1       2.950 -18.982  21.723  1.00  0.00     0.005 A 
ATOM      3  C   UNL     1       1.984 -18.078  21.272  1.00  0.00     0.022 A 
ATOM      4  C   UNL     1       2.384 -16.920  20.607  1.00  0.00     0.087 A 
ATOM      5  C   UNL     1       3.736 -16.679  20.360  1.00  0.00     0.022 A 
ATOM      6  C   UNL     1       4.691 -17.586  20.826  1.00  0.00     0.005 A 
ENDROOT
BRANCH   1   7
ATOM      7  C   UNL     1       5.372 -19.722  22.002  1.00  0.00     0.032 C 
ATOM      8  C   UNL     1       6.105 -20.572  20.975  1.00  0.00     0.087 C 
ATOM      9  C   UNL     1       6.838 -19.490  21.725  1.00  0.00     0.023 C 
BRANCH   8  10
ATOM     10  C   UNL     1       6.329 -22.015  21.265  1.00  0.00     0.228 C 
ATOM     11  N   UNL     1       5.157 -22.703  21.482  1.00  0.00    -0.326 N 
ATOM     12  O   UNL     1       7.474 -22.437  21.310  1.00  0.00    -0.274 OA
ATOM     13  H   UNL     1       4.305 -22.163  21.413  1.00  0.00     0.169 HD
BRANCH  11  14
ATOM     14  C   UNL     1       5.008 -24.069  21.794  1.00  0.00     0.041 A 
ATOM     15  C   UNL     1       4.265 -28.191  22.546  1.00  0.00     0.045 A 
ATOM     16  N   UNL     1       3.209 -28.828  21.980  1.00  0.00    -0.261 NA
ATOM     17  C   UNL     1       4.555 -26.825  22.326  1.00  0.00     0.003 A 
ATOM     18  C   UNL     1       2.408 -28.109  21.171  1.00  0.00     0.112 A 
ATOM     19  C   UNL     1       5.642 -26.129  22.899  1.00  0.00     0.013 A 
ATOM     20  C   UNL     1       3.690 -26.111  21.471  1.00  0.00    -0.013 A 
ATOM     21  C   UNL     1       2.604 -26.770  20.889  1.00  0.00     0.029 A 
ATOM     22  C   UNL     1       5.864 -24.773  22.636  1.00  0.00     0.027 A 
ATOM     23  C   UNL     1       3.926 -24.746  21.216  1.00  0.00     0.035 A 
ATOM     24  C   UNL     1       5.123 -29.045  23.438  1.00  0.00     0.067 C 
ENDBRANCH  11  14
ENDBRANCH   8  10
ENDBRANCH   1   7
BRANCH   4  25
ATOM     25  S   UNL     1       1.153 -15.784  20.004  1.00  0.00     0.263 S 
ATOM     26  O   UNL     1       1.299 -15.717  18.564  1.00  0.00    -0.201 OA
ATOM     27  O   UNL     1       1.217 -14.583  20.811  1.00  0.00    -0.201 OA
BRANCH  25  28
ATOM     28  N   UNL     1      -0.301 -16.583  20.295  1.00  0.00    -0.263 N 
ATOM     29  H   UNL     1      -0.448 -16.717  21.294  1.00  0.00     0.182 HD
BRANCH  28  30
ATOM     30  C   UNL     1      -1.452 -16.038  19.697  1.00  0.00     0.139 A 
ATOM     31  C   UNL     1      -1.959 -14.792  20.024  1.00  0.00     0.048 A 
ATOM     32  N   UNL     1      -1.996 -16.870  18.792  1.00  0.00    -0.239 NA
ATOM     33  C   UNL     1      -3.124 -14.376  19.388  1.00  0.00     0.005 A 
ATOM     34  C   UNL     1      -3.127 -16.438  18.190  1.00  0.00     0.113 A 
ATOM     35  C   UNL     1      -3.725 -15.214  18.453  1.00  0.00     0.020 A 
ENDBRANCH  28  30
ENDBRANCH  25  28
ENDBRANCH   4  25
TORSDOF 6
ENDMDL
MODEL 2
REMARK VINA RESULT:   -10.813      1.371      2.130
REMARK INTER + INTRA:         -14.746
REMARK INTER:                 -14.583
REMARK INTRA:                  -0.163
REMARK UNBOUND:                -0.141
REMARK SMILES Cc1nccc2cc(NC(=O)[C@@H]3C[C@H]3c3ccc(S(=O)(=O)Nc4ccccn4)cc3)ccc12
REMARK SMILES IDX 15 1 16 2 17 3 18 4 29 5 30 6 14 7 12 8 13 9 10 10 9 11
REMARK SMILES IDX 11 12 8 14 2 15 3 16 33 17 4 18 32 19 6 20 5 21 31 22 7 23
REMARK SMILES IDX 1 24 19 25 20 26 21 27 22 28 23 30 24 31 28 32 25 33 27 34
REMARK SMILES IDX 26 35
REMARK H PARENT 9 13 22 29
ROOT
ATOM      1  C   UNL     1       3.241 -18.818  20.808  1.00  0.00    -0.044 A 
ATOM      2  C   UNL     1       3.139 -17.638  21.564  1.00  0.00     0.005 A 
ATOM      3  C   UNL     1       2.427 -16.531  21.095  1.00  0.00     0.022 A 
ATOM      4  C   UNL     1       1.799 -16.594  19.852  1.00  0.00     0.087 A 
ATOM      5  C   UNL     1       1.849 -17.764  19.094  1.00  0.00     0.022 A 
ATOM      6  C   UNL     1       2.573 -18.860  19.571  1.00  0.00     0.005 A 
ENDROOT
BRANCH   1   7
ATOM      7  C   UNL     1       4.001 -20.022  21.308  1.00  0.00     0.032 C 
ATOM      8  C   UNL     1       5.038 -20.665  20.399  1.00  0.00     0.087 C 
ATOM      9  C   UNL     1       5.469 -19.937  21.646  1.00  0.00     0.023 C 
BRANCH   8  10
ATOM     10  C   UNL     1       5.088 -22.150  20.303  1.00  0.00     0.228 C 
ATOM     11  N   UNL     1       4.792 -22.772  21.494  1.00  0.00    -0.326 N 
ATOM     12  O   UNL     1       5.398 -22.662  19.239  1.00  0.00    -0.274 OA
ATOM     13  H   UNL     1       4.574 -22.162  22.272  1.00  0.00     0.169 HD
BRANCH  11  14
ATOM     14  C   UNL     1       4.763 -24.156  21.758  1.00  0.00     0.041 A 
ATOM     15  C   UNL     1       4.968 -28.292  22.737  1.00  0.00     0.045 A 
ATOM     16  N   UNL     1       5.945 -28.774  23.546  1.00  0.00    -0.261 NA
ATOM     17  C   UNL     1       4.856 -26.927  22.385  1.00  0.00     0.003 A 
ATOM     18  C   UNL     1       6.844 -27.895  24.028  1.00  0.00     0.112 A 
ATOM     19  C   UNL     1       3.855 -26.391  21.545  1.00  0.00     0.013 A 
ATOM     20  C   UNL     1       5.819 -26.042  22.913  1.00  0.00    -0.013 A 
ATOM     21  C   UNL     1       6.824 -26.542  23.747  1.00  0.00     0.029 A 
ATOM     22  C   UNL     1       3.811 -25.027  21.237  1.00  0.00     0.027 A 
ATOM     23  C   UNL     1       5.761 -24.672  22.595  1.00  0.00     0.035 A 
ATOM     24  C   UNL     1       3.993 -29.318  22.231  1.00  0.00     0.067 C 
ENDBRANCH  11  14
ENDBRANCH   8  10
ENDBRANCH   1   7
BRANCH   4  25
ATOM     25  S   UNL     1       0.866 -15.195  19.269  1.00  0.00     0.263 S 
ATOM     26  O   UNL     1       1.787 -14.330  18.559  1.00  0.00    -0.201 OA
ATOM     27  O   UNL     1       0.077 -14.689  20.374  1.00  0.00    -0.201 OA
BRANCH  25  28
ATOM     28  N   UNL     1      -0.156 -15.856  18.104  1.00  0.00    -0.263 N 
ATOM     29  H   UNL     1       0.165 -16.779  17.821  1.00  0.00     0.182 HD
BRANCH  28  30
ATOM     30  C   UNL     1      -1.529 -15.884  18.410  1.00  0.00     0.139 A 
ATOM     31  C   UNL     1      -2.396 -14.851  18.099  1.00  0.00     0.048 A 
ATOM     32  N   UNL     1      -1.884 -17.015  19.045  1.00  0.00    -0.239 NA
ATOM     33  C   UNL     1      -3.726 -14.980  18.485  1.00  0.00     0.005 A 
ATOM     34  C   UNL     1      -3.183 -17.111  19.406  1.00  0.00     0.113 A 
ATOM     35  C   UNL     1      -4.132 -16.131  19.154  1.00  0.00     0.020 A 
ENDBRANCH  28  30
ENDBRANCH  25  28
ENDBRANCH   4  25
TORSDOF 6
ENDMDL
MODEL 3
REMARK VINA RESULT:   -10.735      0.727      1.636
REMARK INTER + INTRA:         -14.641
REMARK INTER:                 -14.580
REMARK INTRA:                  -0.061
REMARK UNBOUND:                -0.141
REMARK SMILES Cc1nccc2cc(NC(=O)[C@@H]3C[C@H]3c3ccc(S(=O)(=O)Nc4ccccn4)cc3)ccc12
REMARK SMILES IDX 15 1 16 2 17 3 18 4 29 5 30 6 14 7 12 8 13 9 10 10 9 11
REMARK SMILES IDX 11 12 8 14 2 15 3 16 33 17 4 18 32 19 6 20 5 21 31 22 7 23
REMARK SMILES IDX 1 24 19 25 20 26 21 27 22 28 23 30 24 31 28 32 25 33 27 34
REMARK SMILES IDX 26 35
REMARK H PARENT 9 13 22 29
ROOT
ATOM      1  C   UNL     1       4.230 -18.740  21.539  1.00  0.00    -0.044 A 
ATOM      2  C   UNL     1       2.860 -19.027  21.660  1.00  0.00     0.005 A 
ATOM      3  C   UNL     1       1.885 -18.138  21.200  1.00  0.00     0.022 A 
ATOM      4  C   UNL     1       2.275 -16.939  20.604  1.00  0.00     0.087 A 
ATOM      5  C   UNL     1       3.627 -16.642  20.435  1.00  0.00     0.022 A 
ATOM      6  C   UNL     1       4.591 -17.536  20.909  1.00  0.00     0.005 A 
ENDROOT
BRANCH   1   7
ATOM      7  C   UNL     1       5.291 -19.697  22.025  1.00  0.00     0.032 C 
ATOM      8  C   UNL     1       6.019 -20.565  21.009  1.00  0.00     0.087 C 
ATOM      9  C   UNL     1       6.752 -19.463  21.730  1.00  0.00     0.023 C 
BRANCH   8  10
ATOM     10  C   UNL     1       6.254 -22.000  21.327  1.00  0.00     0.228 C 
ATOM     11  N   UNL     1       5.092 -22.736  21.359  1.00  0.00    -0.326 N 
ATOM     12  O   UNL     1       7.394 -22.376  21.548  1.00  0.00    -0.274 OA
ATOM     13  H   UNL     1       4.239 -22.229  21.160  1.00  0.00     0.169 HD
BRANCH  11  14
ATOM     14  C   UNL     1       4.951 -24.110  21.641  1.00  0.00     0.041 A 
ATOM     15  C   UNL     1       4.817 -28.233  22.682  1.00  0.00     0.045 A 
ATOM     16  N   UNL     1       5.737 -28.775  23.521  1.00  0.00    -0.261 NA
ATOM     17  C   UNL     1       4.818 -26.870  22.308  1.00  0.00     0.003 A 
ATOM     18  C   UNL     1       6.689 -27.960  24.012  1.00  0.00     0.112 A 
ATOM     19  C   UNL     1       3.880 -26.272  21.438  1.00  0.00     0.013 A 
ATOM     20  C   UNL     1       5.833 -26.052  22.848  1.00  0.00    -0.013 A 
ATOM     21  C   UNL     1       6.778 -26.614  23.712  1.00  0.00     0.029 A 
ATOM     22  C   UNL     1       3.947 -24.914  21.110  1.00  0.00     0.027 A 
ATOM     23  C   UNL     1       5.887 -24.687  22.509  1.00  0.00     0.035 A 
ATOM     24  C   UNL     1       3.779 -29.191  22.167  1.00  0.00     0.067 C 
ENDBRANCH  11  14
ENDBRANCH   8  10
ENDBRANCH   1   7
BRANCH   4  25
ATOM     25  S   UNL     1       1.034 -15.820  19.990  1.00  0.00     0.263 S 
ATOM     26  O   UNL     1       1.155 -15.795  18.546  1.00  0.00    -0.201 OA
ATOM     27  O   UNL     1       1.113 -14.596  20.760  1.00  0.00    -0.201 OA
BRANCH  25  28
ATOM     28  N   UNL     1      -0.416 -16.608  20.330  1.00  0.00    -0.263 N 
ATOM     29  H   UNL     1      -0.566 -16.674  21.335  1.00  0.00     0.182 HD
BRANCH  28  30
ATOM     30  C   UNL     1      -1.568 -16.115  19.690  1.00  0.00     0.139 A 
ATOM     31  C   UNL     1      -2.090 -14.856  19.934  1.00  0.00     0.048 A 
ATOM     32  N   UNL     1      -2.098 -17.010  18.838  1.00  0.00    -0.239 NA
ATOM     33  C   UNL     1      -3.255 -14.495  19.265  1.00  0.00     0.005 A 
ATOM     34  C   UNL     1      -3.228 -16.629  18.203  1.00  0.00     0.113 A 
ATOM     35  C   UNL     1      -3.841 -15.398  18.382  1.00  0.00     0.020 A 
ENDBRANCH  28  30
ENDBRANCH  25  28
ENDBRANCH   4  25
TORSDOF 6
ENDMDL
MODEL 4
REMARK VINA RESULT:   -10.569      1.509      1.970
REMARK INTER + INTRA:         -14.417
REMARK INTER:                 -13.946
REMARK INTRA:                  -0.471
REMARK UNBOUND:                -0.141
REMARK SMILES Cc1nccc2cc(NC(=O)[C@@H]3C[C@H]3c3ccc(S(=O)(=O)Nc4ccccn4)cc3)ccc12
REMARK SMILES IDX 15 1 16 2 17 3 18 4 29 5 30 6 14 7 12 8 13 9 10 10 9 11
REMARK SMILES IDX 11 12 8 14 2 15 3 16 33 17 4 18 32 19 6 20 5 21 31 22 7 23
REMARK SMILES IDX 1 24 19 25 20 26 21 27 22 28 23 30 24 31 28 32 25 33 27 34
REMARK SMILES IDX 26 35
REMARK H PARENT 9 13 22 29
ROOT
ATOM      1  C   UNL     1       3.061 -18.616  20.911  1.00  0.00    -0.044 A 
ATOM      2  C   UNL     1       2.564 -18.848  19.618  1.00  0.00     0.005 A 
ATOM      3  C   UNL     1       1.887 -17.854  18.907  1.00  0.00     0.022 A 
ATOM      4  C   UNL     1       1.700 -16.600  19.488  1.00  0.00     0.087 A 
ATOM      5  C   UNL     1       2.214 -16.326  20.755  1.00  0.00     0.022 A 
ATOM      6  C   UNL     1       2.880 -17.333  21.459  1.00  0.00     0.005 A 
ENDROOT
BRANCH   1   7
ATOM      7  C   UNL     1       3.800 -19.681  21.685  1.00  0.00     0.032 C 
ATOM      8  C   UNL     1       5.163 -20.137  21.187  1.00  0.00     0.087 C 
ATOM      9  C   UNL     1       5.047 -19.355  22.470  1.00  0.00     0.023 C 
BRANCH   8  10
ATOM     10  C   UNL     1       5.477 -21.592  21.182  1.00  0.00     0.228 C 
ATOM     11  N   UNL     1       5.588 -22.118  22.449  1.00  0.00    -0.326 N 
ATOM     12  O   UNL     1       5.629 -22.159  20.112  1.00  0.00    -0.274 OA
ATOM     13  H   UNL     1       5.439 -21.472  23.213  1.00  0.00     0.169 HD
BRANCH  11  14
ATOM     14  C   UNL     1       5.889 -23.448  22.805  1.00  0.00     0.041 A 
ATOM     15  C   UNL     1       6.503 -27.556  23.724  1.00  0.00     0.045 A 
ATOM     16  N   UNL     1       5.633 -28.508  23.298  1.00  0.00    -0.261 NA
ATOM     17  C   UNL     1       6.344 -26.180  23.443  1.00  0.00     0.003 A 
ATOM     18  C   UNL     1       4.573 -28.103  22.574  1.00  0.00     0.112 A 
ATOM     19  C   UNL     1       7.226 -25.163  23.870  1.00  0.00     0.013 A 
ATOM     20  C   UNL     1       5.219 -25.802  22.680  1.00  0.00    -0.013 A 
ATOM     21  C   UNL     1       4.326 -26.784  22.243  1.00  0.00     0.029 A 
ATOM     22  C   UNL     1       7.001 -23.819  23.555  1.00  0.00     0.027 A 
ATOM     23  C   UNL     1       5.007 -24.445  22.371  1.00  0.00     0.035 A 
ATOM     24  C   UNL     1       7.667 -28.068  24.526  1.00  0.00     0.067 C 
ENDBRANCH  11  14
ENDBRANCH   8  10
ENDBRANCH   1   7
BRANCH   4  25
ATOM     25  S   UNL     1       0.865 -15.323  18.570  1.00  0.00     0.263 S 
ATOM     26  O   UNL     1       0.130 -15.972  17.503  1.00  0.00    -0.201 OA
ATOM     27  O   UNL     1       1.826 -14.280  18.278  1.00  0.00    -0.201 OA
BRANCH  25  28
ATOM     28  N   UNL     1      -0.286 -14.742  19.654  1.00  0.00    -0.263 N 
ATOM     29  H   UNL     1      -0.338 -13.726  19.619  1.00  0.00     0.182 HD
BRANCH  28  30
ATOM     30  C   UNL     1      -1.573 -15.305  19.570  1.00  0.00     0.139 A 
ATOM     31  C   UNL     1      -1.876 -16.575  20.029  1.00  0.00     0.048 A 
ATOM     32  N   UNL     1      -2.453 -14.474  18.986  1.00  0.00    -0.239 NA
ATOM     33  C   UNL     1      -3.178 -17.035  19.859  1.00  0.00     0.005 A 
ATOM     34  C   UNL     1      -3.710 -14.948  18.835  1.00  0.00     0.113 A 
ATOM     35  C   UNL     1      -4.117 -16.209  19.248  1.00  0.00     0.020 A 
ENDBRANCH  28  30
ENDBRANCH  25  28
ENDBRANCH   4  25
TORSDOF 6
ENDMDL
MODEL 5
REMARK VINA RESULT:    -9.979      1.257      1.756
REMARK INTER + INTRA:         -13.619
REMARK INTER:                 -13.389
REMARK INTRA:                  -0.230
REMARK UNBOUND:                -0.141
REMARK SMILES Cc1nccc2cc(NC(=O)[C@@H]3C[C@H]3c3ccc(S(=O)(=O)Nc4ccccn4)cc3)ccc12
REMARK SMILES IDX 15 1 16 2 17 3 18 4 29 5 30 6 14 7 12 8 13 9 10 10 9 11
REMARK SMILES IDX 11 12 8 14 2 15 3 16 33 17 4 18 32 19 6 20 5 21 31 22 7 23
REMARK SMILES IDX 1 24 19 25 20 26 21 27 22 28 23 30 24 31 28 32 25 33 27 34
REMARK SMILES IDX 26 35
REMARK H PARENT 9 13 22 29
ROOT
ATOM      1  C   UNL     1       5.749 -18.364  21.114  1.00  0.00    -0.044 A 
ATOM      2  C   UNL     1       6.249 -17.209  20.489  1.00  0.00     0.005 A 
ATOM      3  C   UNL     1       5.398 -16.188  20.057  1.00  0.00     0.022 A 
ATOM      4  C   UNL     1       4.023 -16.311  20.251  1.00  0.00     0.087 A 
ATOM      5  C   UNL     1       3.499 -17.428  20.902  1.00  0.00     0.022 A 
ATOM      6  C   UNL     1       4.360 -18.446  21.319  1.00  0.00     0.005 A 
ENDROOT
BRANCH   1   7
ATOM      7  C   UNL     1       6.659 -19.469  21.591  1.00  0.00     0.032 C 
ATOM      8  C   UNL     1       7.232 -20.441  20.570  1.00  0.00     0.087 C 
ATOM      9  C   UNL     1       8.135 -19.461  21.274  1.00  0.00     0.023 C 
BRANCH   8  10
ATOM     10  C   UNL     1       7.250 -21.895  20.893  1.00  0.00     0.228 C 
ATOM     11  N   UNL     1       6.003 -22.389  21.200  1.00  0.00    -0.326 N 
ATOM     12  O   UNL     1       8.318 -22.487  20.886  1.00  0.00    -0.274 OA
ATOM     13  H   UNL     1       5.240 -21.725  21.162  1.00  0.00     0.169 HD
BRANCH  11  14
ATOM     14  C   UNL     1       5.666 -23.708  21.564  1.00  0.00     0.041 A 
ATOM     15  C   UNL     1       4.340 -27.637  22.516  1.00  0.00     0.045 A 
ATOM     16  N   UNL     1       3.118 -28.080  22.122  1.00  0.00    -0.261 NA
ATOM     17  C   UNL     1       4.826 -26.342  22.222  1.00  0.00     0.003 A 
ATOM     18  C   UNL     1       2.346 -27.231  21.418  1.00  0.00     0.112 A 
ATOM     19  C   UNL     1       6.089 -25.847  22.617  1.00  0.00     0.013 A 
ATOM     20  C   UNL     1       3.983 -25.488  21.482  1.00  0.00    -0.013 A 
ATOM     21  C   UNL     1       2.727 -25.947  21.077  1.00  0.00     0.029 A 
ATOM     22  C   UNL     1       6.501 -24.550  22.292  1.00  0.00     0.027 A 
ATOM     23  C   UNL     1       4.412 -24.185  21.163  1.00  0.00     0.035 A 
ATOM     24  C   UNL     1       5.158 -28.628  23.296  1.00  0.00     0.067 C 
ENDBRANCH  11  14
ENDBRANCH   8  10
ENDBRANCH   1   7
BRANCH   4  25
ATOM     25  S   UNL     1       2.942 -14.996  19.729  1.00  0.00     0.263 S 
ATOM     26  O   UNL     1       3.679 -14.186  18.780  1.00  0.00    -0.201 OA
ATOM     27  O   UNL     1       2.356 -14.401  20.912  1.00  0.00    -0.201 OA
BRANCH  25  28
ATOM     28  N   UNL     1       1.746 -15.790  18.847  1.00  0.00    -0.263 N 
ATOM     29  H   UNL     1       1.869 -16.800  18.895  1.00  0.00     0.182 HD
BRANCH  28  30
ATOM     30  C   UNL     1       0.414 -15.441  19.132  1.00  0.00     0.139 A 
ATOM     31  C   UNL     1      -0.163 -14.253  18.720  1.00  0.00     0.048 A 
ATOM     32  N   UNL     1      -0.214 -16.385  19.856  1.00  0.00    -0.239 NA
ATOM     33  C   UNL     1      -1.480 -14.005  19.095  1.00  0.00     0.005 A 
ATOM     34  C   UNL     1      -1.492 -16.116  20.203  1.00  0.00     0.113 A 
ATOM     35  C   UNL     1      -2.162 -14.952  19.853  1.00  0.00     0.020 A 
ENDBRANCH  28  30
ENDBRANCH  25  28
ENDBRANCH   4  25
TORSDOF 6
ENDMDL
MODEL 6
REMARK VINA RESULT:    -9.714      2.683      3.642
REMARK INTER + INTRA:         -13.262
REMARK INTER:                 -12.700
REMARK INTRA:                  -0.562
REMARK UNBOUND:                -0.141
REMARK SMILES Cc1nccc2cc(NC(=O)[C@@H]3C[C@H]3c3ccc(S(=O)(=O)Nc4ccccn4)cc3)ccc12
REMARK SMILES IDX 15 1 16 2 17 3 18 4 29 5 30 6 14 7 12 8 13 9 10 10 9 11
REMARK SMILES IDX 11 12 8 14 2 15 3 16 33 17 4 18 32 19 6 20 5 21 31 22 7 23
REMARK SMILES IDX 1 24 19 25 20 26 21 27 22 28 23 30 24 31 28 32 25 33 27 34
REMARK SMILES IDX 26 35
REMARK H PARENT 9 13 22 29
ROOT
ATOM      1  C   UNL     1       4.565 -19.403  20.234  1.00  0.00    -0.044 A 
ATOM      2  C   UNL     1       4.160 -18.465  21.199  1.00  0.00     0.005 A 
ATOM      3  C   UNL     1       3.284 -17.423  20.879  1.00  0.00     0.022 A 
ATOM      4  C   UNL     1       2.797 -17.309  19.578  1.00  0.00     0.087 A 
ATOM      5  C   UNL     1       3.151 -18.247  18.607  1.00  0.00     0.022 A 
ATOM      6  C   UNL     1       4.035 -19.277  18.938  1.00  0.00     0.005 A 
ENDROOT
BRANCH   1   7
ATOM      7  C   UNL     1       5.504 -20.536  20.570  1.00  0.00     0.032 C 
ATOM      8  C   UNL     1       4.920 -21.850  21.069  1.00  0.00     0.087 C 
ATOM      9  C   UNL     1       5.574 -21.776  19.712  1.00  0.00     0.023 C 
BRANCH   8  10
ATOM     10  C   UNL     1       5.574 -22.537  22.216  1.00  0.00     0.228 C 
ATOM     11  N   UNL     1       6.108 -23.758  21.873  1.00  0.00    -0.326 N 
ATOM     12  O   UNL     1       5.556 -22.001  23.313  1.00  0.00    -0.274 OA
ATOM     13  H   UNL     1       6.003 -24.032  20.905  1.00  0.00     0.169 HD
BRANCH  11  14
ATOM     14  C   UNL     1       6.777 -24.671  22.712  1.00  0.00     0.041 A 
ATOM     15  C   UNL     1       9.071 -27.208  25.243  1.00  0.00     0.045 A 
ATOM     16  N   UNL     1      10.308 -26.844  25.666  1.00  0.00    -0.261 NA
ATOM     17  C   UNL     1       8.270 -26.400  24.404  1.00  0.00     0.003 A 
ATOM     18  C   UNL     1      10.780 -25.651  25.257  1.00  0.00     0.112 A 
ATOM     19  C   UNL     1       6.980 -26.746  23.944  1.00  0.00     0.013 A 
ATOM     20  C   UNL     1       8.804 -25.158  24.002  1.00  0.00    -0.013 A 
ATOM     21  C   UNL     1      10.078 -24.786  24.440  1.00  0.00     0.029 A 
ATOM     22  C   UNL     1       6.247 -25.894  23.111  1.00  0.00     0.027 A 
ATOM     23  C   UNL     1       8.054 -24.312  23.163  1.00  0.00     0.035 A 
ATOM     24  C   UNL     1       8.597 -28.548  25.732  1.00  0.00     0.067 C 
ENDBRANCH  11  14
ENDBRANCH   8  10
ENDBRANCH   1   7
BRANCH   4  25
ATOM     25  S   UNL     1       1.658 -16.001  19.179  1.00  0.00     0.263 S 
ATOM     26  O   UNL     1       2.387 -15.018  18.403  1.00  0.00    -0.201 OA
ATOM     27  O   UNL     1       0.968 -15.620  20.395  1.00  0.00    -0.201 OA
BRANCH  25  28
ATOM     28  N   UNL     1       0.570 -16.730  18.119  1.00  0.00    -0.263 N 
ATOM     29  H   UNL     1       0.529 -17.735  18.275  1.00  0.00     0.182 HD
BRANCH  28  30
ATOM     30  C   UNL     1      -0.725 -16.184  18.069  1.00  0.00     0.139 A 
ATOM     31  C   UNL     1      -1.005 -14.945  17.519  1.00  0.00     0.048 A 
ATOM     32  N   UNL     1      -1.640 -16.997  18.626  1.00  0.00    -0.239 NA
ATOM     33  C   UNL     1      -2.322 -14.498  17.560  1.00  0.00     0.005 A 
ATOM     34  C   UNL     1      -2.910 -16.535  18.649  1.00  0.00     0.113 A 
ATOM     35  C   UNL     1      -3.297 -15.305  18.137  1.00  0.00     0.020 A 
ENDBRANCH  28  30
ENDBRANCH  25  28
ENDBRANCH   4  25
TORSDOF 6
ENDMDL
MODEL 7
REMARK VINA RESULT:    -9.611      4.780      6.424
REMARK INTER + INTRA:         -13.123
REMARK INTER:                 -12.911
REMARK INTRA:                  -0.212
REMARK UNBOUND:                -0.141
REMARK SMILES Cc1nccc2cc(NC(=O)[C@@H]3C[C@H]3c3ccc(S(=O)(=O)Nc4ccccn4)cc3)ccc12
REMARK SMILES IDX 15 1 16 2 17 3 18 4 29 5 30 6 14 7 12 8 13 9 10 10 9 11
REMARK SMILES IDX 11 12 8 14 2 15 3 16 33 17 4 18 32 19 6 20 5 21 31 22 7 23
REMARK SMILES IDX 1 24 19 25 20 26 21 27 22 28 23 30 24 31 28 32 25 33 27 34
REMARK SMILES IDX 26 35
REMARK H PARENT 9 13 22 29
ROOT
ATOM      1  C   UNL     1       5.299 -23.426  21.754  1.00  0.00    -0.044 A 
ATOM      2  C   UNL     1       4.465 -23.056  20.685  1.00  0.00     0.005 A 
ATOM      3  C   UNL     1       4.019 -21.740  20.531  1.00  0.00     0.022 A 
ATOM      4  C   UNL     1       4.408 -20.770  21.453  1.00  0.00     0.087 A 
ATOM      5  C   UNL     1       5.266 -21.098  22.504  1.00  0.00     0.022 A 
ATOM      6  C   UNL     1       5.696 -22.419  22.651  1.00  0.00     0.005 A 
ENDROOT
BRANCH   1   7
ATOM      7  C   UNL     1       5.793 -24.842  21.926  1.00  0.00     0.032 C 
ATOM      8  C   UNL     1       5.825 -25.445  23.322  1.00  0.00     0.087 C 
ATOM      9  C   UNL     1       4.850 -25.961  22.295  1.00  0.00     0.023 C 
BRANCH   8  10
ATOM     10  C   UNL     1       7.017 -26.234  23.738  1.00  0.00     0.228 C 
ATOM     11  N   UNL     1       7.974 -25.465  24.361  1.00  0.00    -0.326 N 
ATOM     12  O   UNL     1       7.055 -27.426  23.479  1.00  0.00    -0.274 OA
ATOM     13  H   UNL     1       7.756 -24.483  24.467  1.00  0.00     0.169 HD
BRANCH  11  14
ATOM     14  C   UNL     1       9.222 -25.886  24.862  1.00  0.00     0.041 A 
ATOM     15  C   UNL     1      12.816 -27.356  26.602  1.00  0.00     0.045 A 
ATOM     16  N   UNL     1      12.788 -28.288  27.589  1.00  0.00    -0.261 NA
ATOM     17  C   UNL     1      11.651 -26.839  25.992  1.00  0.00     0.003 A 
ATOM     18  C   UNL     1      11.582 -28.730  27.993  1.00  0.00     0.112 A 
ATOM     19  C   UNL     1      11.642 -25.868  24.965  1.00  0.00     0.013 A 
ATOM     20  C   UNL     1      10.410 -27.332  26.446  1.00  0.00    -0.013 A 
ATOM     21  C   UNL     1      10.384 -28.292  27.461  1.00  0.00     0.029 A 
ATOM     22  C   UNL     1      10.445 -25.400  24.410  1.00  0.00     0.027 A 
ATOM     23  C   UNL     1       9.215 -26.851  25.877  1.00  0.00     0.035 A 
ATOM     24  C   UNL     1      14.189 -26.901  26.192  1.00  0.00     0.067 C 
ENDBRANCH  11  14
ENDBRANCH   8  10
ENDBRANCH   1   7
BRANCH   4  25
ATOM     25  S   UNL     1       3.865 -19.088  21.240  1.00  0.00     0.263 S 
ATOM     26  O   UNL     1       4.895 -18.396  20.491  1.00  0.00    -0.201 OA
ATOM     27  O   UNL     1       3.427 -18.591  22.528  1.00  0.00    -0.201 OA
BRANCH  25  28
ATOM     28  N   UNL     1       2.541 -19.226  20.207  1.00  0.00    -0.263 N 
ATOM     29  H   UNL     1       1.771 -19.708  20.667  1.00  0.00     0.182 HD
BRANCH  28  30
ATOM     30  C   UNL     1       2.088 -18.040  19.600  1.00  0.00     0.139 A 
ATOM     31  C   UNL     1       2.545 -17.597  18.370  1.00  0.00     0.048 A 
ATOM     32  N   UNL     1       1.183 -17.396  20.356  1.00  0.00    -0.239 NA
ATOM     33  C   UNL     1       2.047 -16.391  17.888  1.00  0.00     0.005 A 
ATOM     34  C   UNL     1       0.718 -16.227  19.860  1.00  0.00     0.113 A 
ATOM     35  C   UNL     1       1.116 -15.687  18.646  1.00  0.00     0.020 A 
ENDBRANCH  28  30
ENDBRANCH  25  28
ENDBRANCH   4  25
TORSDOF 6
ENDMDL
MODEL 8
REMARK VINA RESULT:    -9.428      6.525      9.201
REMARK INTER + INTRA:         -12.876
REMARK INTER:                 -12.569
REMARK INTRA:                  -0.307
REMARK UNBOUND:                -0.141
REMARK SMILES Cc1nccc2cc(NC(=O)[C@@H]3C[C@H]3c3ccc(S(=O)(=O)Nc4ccccn4)cc3)ccc12
REMARK SMILES IDX 15 1 16 2 17 3 18 4 29 5 30 6 14 7 12 8 13 9 10 10 9 11
REMARK SMILES IDX 11 12 8 14 2 15 3 16 33 17 4 18 32 19 6 20 5 21 31 22 7 23
REMARK SMILES IDX 1 24 19 25 20 26 21 27 22 28 23 30 24 31 28 32 25 33 27 34
REMARK SMILES IDX 26 35
REMARK H PARENT 9 13 22 29
ROOT
ATOM      1  C   UNL     1       9.175 -19.576  20.828  1.00  0.00    -0.044 A 
ATOM      2  C   UNL     1       9.018 -18.191  20.657  1.00  0.00     0.005 A 
ATOM      3  C   UNL     1      10.121 -17.344  20.512  1.00  0.00     0.022 A 
ATOM      4  C   UNL     1      11.407 -17.882  20.533  1.00  0.00     0.087 A 
ATOM      5  C   UNL     1      11.595 -19.258  20.663  1.00  0.00     0.022 A 
ATOM      6  C   UNL     1      10.484 -20.091  20.818  1.00  0.00     0.005 A 
ENDROOT
BRANCH   1   7
ATOM      7  C   UNL     1       7.990 -20.500  20.979  1.00  0.00     0.032 C 
ATOM      8  C   UNL     1       7.997 -21.526  22.102  1.00  0.00     0.087 C 
ATOM      9  C   UNL     1       7.035 -20.366  22.140  1.00  0.00     0.023 C 
BRANCH   8  10
ATOM     10  C   UNL     1       7.542 -22.913  21.812  1.00  0.00     0.228 C 
ATOM     11  N   UNL     1       6.246 -23.144  22.215  1.00  0.00    -0.326 N 
ATOM     12  O   UNL     1       8.323 -23.695  21.295  1.00  0.00    -0.274 OA
ATOM     13  H   UNL     1       5.767 -22.361  22.642  1.00  0.00     0.169 HD
BRANCH  11  14
ATOM     14  C   UNL     1       5.512 -24.342  22.107  1.00  0.00     0.041 A 
ATOM     15  C   UNL     1       3.545 -28.112  21.969  1.00  0.00     0.045 A 
ATOM     16  N   UNL     1       4.046 -29.190  22.626  1.00  0.00    -0.261 NA
ATOM     17  C   UNL     1       4.160 -26.840  21.986  1.00  0.00     0.003 A 
ATOM     18  C   UNL     1       5.186 -29.019  23.323  1.00  0.00     0.112 A 
ATOM     19  C   UNL     1       3.669 -25.698  21.314  1.00  0.00     0.013 A 
ATOM     20  C   UNL     1       5.351 -26.707  22.730  1.00  0.00    -0.013 A 
ATOM     21  C   UNL     1       5.864 -27.818  23.406  1.00  0.00     0.029 A 
ATOM     22  C   UNL     1       4.336 -24.469  21.375  1.00  0.00     0.027 A 
ATOM     23  C   UNL     1       6.010 -25.464  22.781  1.00  0.00     0.035 A 
ATOM     24  C   UNL     1       2.272 -28.362  21.210  1.00  0.00     0.067 C 
ENDBRANCH  11  14
ENDBRANCH   8  10
ENDBRANCH   1   7
BRANCH   4  25
ATOM     25  S   UNL     1      12.810 -16.809  20.317  1.00  0.00     0.263 S 
ATOM     26  O   UNL     1      13.957 -17.651  20.040  1.00  0.00    -0.201 OA
ATOM     27  O   UNL     1      12.832 -15.870  21.419  1.00  0.00    -0.201 OA
BRANCH  25  28
ATOM     28  N   UNL     1      12.468 -15.990  18.885  1.00  0.00    -0.263 N 
ATOM     29  H   UNL     1      12.314 -14.999  19.061  1.00  0.00     0.182 HD
BRANCH  28  30
ATOM     30  C   UNL     1      13.374 -16.167  17.823  1.00  0.00     0.139 A 
ATOM     31  C   UNL     1      13.236 -17.158  16.867  1.00  0.00     0.048 A 
ATOM     32  N   UNL     1      14.381 -15.277  17.862  1.00  0.00    -0.239 NA
ATOM     33  C   UNL     1      14.216 -17.255  15.885  1.00  0.00     0.005 A 
ATOM     34  C   UNL     1      15.318 -15.396  16.894  1.00  0.00     0.113 A 
ATOM     35  C   UNL     1      15.282 -16.359  15.896  1.00  0.00     0.020 A 
ENDBRANCH  28  30
ENDBRANCH  25  28
ENDBRANCH   4  25
TORSDOF 6
ENDMDL
MODEL 9
REMARK VINA RESULT:    -9.420      5.339     12.271
REMARK INTER + INTRA:         -12.865
REMARK INTER:                 -12.418
REMARK INTRA:                  -0.447
REMARK UNBOUND:                -0.141
REMARK SMILES Cc1nccc2cc(NC(=O)[C@@H]3C[C@H]3c3ccc(S(=O)(=O)Nc4ccccn4)cc3)ccc12
REMARK SMILES IDX 15 1 16 2 17 3 18 4 29 5 30 6 14 7 12 8 13 9 10 10 9 11
REMARK SMILES IDX 11 12 8 14 2 15 3 16 33 17 4 18 32 19 6 20 5 21 31 22 7 23
REMARK SMILES IDX 1 24 19 25 20 26 21 27 22 28 23 30 24 31 28 32 25 33 27 34
REMARK SMILES IDX 26 35
REMARK H PARENT 9 13 22 29
ROOT
ATOM      1  C   UNL     1       5.939 -25.622  23.113  1.00  0.00    -0.044 A 
ATOM      2  C   UNL     1       6.250 -26.929  23.522  1.00  0.00     0.005 A 
ATOM      3  C   UNL     1       7.436 -27.218  24.202  1.00  0.00     0.022 A 
ATOM      4  C   UNL     1       8.334 -26.190  24.485  1.00  0.00     0.087 A 
ATOM      5  C   UNL     1       8.037 -24.875  24.125  1.00  0.00     0.022 A 
ATOM      6  C   UNL     1       6.852 -24.602  23.438  1.00  0.00     0.005 A 
ENDROOT
BRANCH   1   7
ATOM      7  C   UNL     1       4.657 -25.297  22.385  1.00  0.00     0.032 C 
ATOM      8  C   UNL     1       4.737 -24.710  20.984  1.00  0.00     0.087 C 
ATOM      9  C   UNL     1       4.208 -26.105  21.192  1.00  0.00     0.023 C 
BRANCH   8  10
ATOM     10  C   UNL     1       3.839 -23.576  20.628  1.00  0.00     0.228 C 
ATOM     11  N   UNL     1       4.450 -22.350  20.760  1.00  0.00    -0.326 N 
ATOM     12  O   UNL     1       2.690 -23.817  20.295  1.00  0.00    -0.274 OA
ATOM     13  H   UNL     1       5.414 -22.365  21.066  1.00  0.00     0.169 HD
BRANCH  11  14
ATOM     14  C   UNL     1       3.889 -21.080  20.521  1.00  0.00     0.041 A 
ATOM     15  C   UNL     1       2.413 -17.213  19.534  1.00  0.00     0.045 A 
ATOM     16  N   UNL     1       2.879 -16.540  18.451  1.00  0.00    -0.261 NA
ATOM     17  C   UNL     1       2.870 -18.499  19.902  1.00  0.00     0.003 A 
ATOM     18  C   UNL     1       3.822 -17.141  17.702  1.00  0.00     0.112 A 
ATOM     19  C   UNL     1       2.410 -19.228  21.021  1.00  0.00     0.013 A 
ATOM     20  C   UNL     1       3.857 -19.092  19.088  1.00  0.00    -0.013 A 
ATOM     21  C   UNL     1       4.334 -18.396  17.973  1.00  0.00     0.029 A 
ATOM     22  C   UNL     1       2.913 -20.498  21.325  1.00  0.00     0.027 A 
ATOM     23  C   UNL     1       4.353 -20.371  19.406  1.00  0.00     0.035 A 
ATOM     24  C   UNL     1       1.362 -16.493  20.331  1.00  0.00     0.067 C 
ENDBRANCH  11  14
ENDBRANCH   8  10
ENDBRANCH   1   7
BRANCH   4  25
ATOM     25  S   UNL     1       9.830 -26.553  25.378  1.00  0.00     0.263 S 
ATOM     26  O   UNL     1      10.928 -25.974  24.630  1.00  0.00    -0.201 OA
ATOM     27  O   UNL     1       9.824 -27.963  25.710  1.00  0.00    -0.201 OA
BRANCH  25  28
ATOM     28  N   UNL     1       9.684 -25.640  26.787  1.00  0.00    -0.263 N 
ATOM     29  H   UNL     1       8.923 -25.988  27.367  1.00  0.00     0.182 HD
BRANCH  28  30
ATOM     30  C   UNL     1      10.851 -25.472  27.554  1.00  0.00     0.139 A 
ATOM     31  C   UNL     1      11.628 -24.326  27.511  1.00  0.00     0.048 A 
ATOM     32  N   UNL     1      11.122 -26.550  28.310  1.00  0.00    -0.239 NA
ATOM     33  C   UNL     1      12.780 -24.292  28.290  1.00  0.00     0.005 A 
ATOM     34  C   UNL     1      12.247 -26.486  29.058  1.00  0.00     0.113 A 
ATOM     35  C   UNL     1      13.100 -25.392  29.080  1.00  0.00     0.020 A 
ENDBRANCH  28  30
ENDBRANCH  25  28
ENDBRANCH   4  25
TORSDOF 6
ENDMDL
