REMARK VINA RESULT:   -10.967      1.706      8.259
REMARK INTER + INTRA:         -14.282
REMARK INTER:                 -13.504
REMARK INTRA:                  -0.778
REMARK UNBOUND:                -0.750
REMARK SMILES Cc1cc(C#N)ccc1NC[C@H]1CC[C@H](c2nnn3cnc4[nH]ccc4c23)CC1
REMARK SMILES IDX 11 1 10 2 9 4 2 5 3 6 4 7 8 8 5 9 7 10 6 11 1 12 12 13 29 14
REMARK SMILES IDX 13 15 28 16 14 17 15 18 16 19 17 20 27 21 18 22 26 23 19 24
REMARK SMILES IDX 25 25 22 26 20 27 24 28 21 29 23 30
REMARK H PARENT 10 3 23 31
ROOT
ATOM      1  C   UNL     1      -2.364  21.094 -27.392  1.00  0.00     0.116 C 
ENDROOT
BRANCH   1   2
ATOM      2  N   UNL     1      -2.539  21.824 -26.149  1.00  0.00    -0.385 N 
ATOM      3  H   UNL     1      -3.487  21.982 -25.832  1.00  0.00     0.160 HD
BRANCH   2   4
ATOM      4  C   UNL     1      -1.504  22.185 -25.300  1.00  0.00     0.037 A 
ATOM      5  C   UNL     1      -1.298  23.542 -24.965  1.00  0.00    -0.027 A 
ATOM      6  C   UNL     1      -0.235  23.909 -24.116  1.00  0.00     0.025 A 
ATOM      7  C   UNL     1       0.637  22.947 -23.605  1.00  0.00     0.052 A 
ATOM      8  C   UNL     1      -0.606  21.239 -24.782  1.00  0.00     0.027 A 
ATOM      9  C   UNL     1       1.716  23.333 -22.744  1.00  0.00     0.099 C 
ATOM     10  C   UNL     1       0.450  21.609 -23.941  1.00  0.00     0.021 A 
ATOM     11  N   UNL     1       2.591  23.645 -22.047  1.00  0.00    -0.192 NA
ATOM     12  C   UNL     1      -2.199  24.629 -25.492  1.00  0.00     0.046 C 
ENDBRANCH   2   4
ENDBRANCH   1   2
BRANCH   1  13
ATOM     13  C   UNL     1      -3.362  21.587 -28.457  1.00  0.00     0.008 C 
ATOM     14  C   UNL     1      -3.399  23.123 -28.530  1.00  0.00     0.006 C 
ATOM     15  C   UNL     1      -3.004  20.997 -29.828  1.00  0.00     0.006 C 
ATOM     16  C   UNL     1      -4.345  23.616 -29.625  1.00  0.00     0.010 C 
ATOM     17  C   UNL     1      -3.949  21.487 -30.924  1.00  0.00     0.010 C 
ATOM     18  C   UNL     1      -3.991  23.020 -30.995  1.00  0.00     0.042 C 
BRANCH  18  19
ATOM     19  C   UNL     1      -4.932  23.492 -32.053  1.00  0.00     0.094 A 
ATOM     20  N   UNL     1      -5.537  22.606 -32.930  1.00  0.00    -0.134 NA
ATOM     21  C   UNL     1      -5.367  24.748 -32.368  1.00  0.00     0.103 A 
ATOM     22  N   UNL     1      -6.322  23.290 -33.764  1.00  0.00    -0.061 NA
ATOM     23  C   UNL     1      -5.175  26.175 -31.896  1.00  0.00     0.047 A 
ATOM     24  N   UNL     1      -6.219  24.584 -33.423  1.00  0.00    -0.201 N 
ATOM     25  C   UNL     1      -4.448  26.836 -30.905  1.00  0.00     0.032 A 
ATOM     26  C   UNL     1      -5.910  27.090 -32.631  1.00  0.00     0.141 A 
ATOM     27  C   UNL     1      -6.892  25.635 -34.059  1.00  0.00     0.228 A 
ATOM     28  C   UNL     1      -4.754  28.178 -31.048  1.00  0.00     0.085 A 
ATOM     29  N   UNL     1      -6.757  26.890 -33.687  1.00  0.00    -0.218 NA
ATOM     30  N   UNL     1      -5.640  28.320 -32.096  1.00  0.00    -0.346 N 
ATOM     31  H   UNL     1      -6.037  29.187 -32.430  1.00  0.00     0.167 HD
ENDBRANCH  18  19
ENDBRANCH   1  13
TORSDOF 4
