REMARK VINA RESULT:    -9.572      4.426      8.144
REMARK INTER + INTRA:         -12.561
REMARK INTER:                 -11.728
REMARK INTRA:                  -0.833
REMARK UNBOUND:                -0.750
REMARK SMILES Cc1cc(C#N)ccc1NC[C@H]1CC[C@H](c2nnn3cnc4[nH]ccc4c23)CC1
REMARK SMILES IDX 11 1 10 2 9 4 2 5 3 6 4 7 8 8 5 9 7 10 6 11 1 12 12 13 29 14
REMARK SMILES IDX 13 15 28 16 14 17 15 18 16 19 17 20 27 21 18 22 26 23 19 24
REMARK SMILES IDX 25 25 22 26 20 27 24 28 21 29 23 30
REMARK H PARENT 10 3 23 31
ROOT
ATOM      1  C   UNL     1      -5.506  26.648 -32.124  1.00  0.00     0.116 C 
ENDROOT
BRANCH   1   2
ATOM      2  N   UNL     1      -4.490  25.666 -31.787  1.00  0.00    -0.385 N 
ATOM      3  H   UNL     1      -3.633  26.008 -31.374  1.00  0.00     0.160 HD
BRANCH   2   4
ATOM      4  C   UNL     1      -4.676  24.294 -31.855  1.00  0.00     0.037 A 
ATOM      5  C   UNL     1      -4.018  23.441 -30.940  1.00  0.00    -0.027 A 
ATOM      6  C   UNL     1      -4.193  22.046 -31.021  1.00  0.00     0.025 A 
ATOM      7  C   UNL     1      -5.004  21.482 -32.006  1.00  0.00     0.052 A 
ATOM      8  C   UNL     1      -5.476  23.700 -32.843  1.00  0.00     0.027 A 
ATOM      9  C   UNL     1      -5.173  20.060 -32.079  1.00  0.00     0.099 C 
ATOM     10  C   UNL     1      -5.645  22.313 -32.920  1.00  0.00     0.021 A 
ATOM     11  N   UNL     1      -5.310  18.909 -32.139  1.00  0.00    -0.192 NA
ATOM     12  C   UNL     1      -3.121  23.986 -29.859  1.00  0.00     0.046 C 
ENDBRANCH   2   4
ENDBRANCH   1   2
BRANCH   1  13
ATOM     13  C   UNL     1      -5.425  27.860 -31.177  1.00  0.00     0.008 C 
ATOM     14  C   UNL     1      -4.174  27.798 -30.285  1.00  0.00     0.006 C 
ATOM     15  C   UNL     1      -5.436  29.164 -31.988  1.00  0.00     0.006 C 
ATOM     16  C   UNL     1      -4.057  29.028 -29.384  1.00  0.00     0.010 C 
ATOM     17  C   UNL     1      -5.321  30.395 -31.090  1.00  0.00     0.010 C 
ATOM     18  C   UNL     1      -4.076  30.332 -30.195  1.00  0.00     0.042 C 
BRANCH  18  19
ATOM     19  C   UNL     1      -3.981  31.526 -29.306  1.00  0.00     0.094 A 
ATOM     20  N   UNL     1      -5.116  32.147 -28.807  1.00  0.00    -0.134 NA
ATOM     21  C   UNL     1      -2.895  32.204 -28.831  1.00  0.00     0.103 A 
ATOM     22  N   UNL     1      -4.746  33.179 -28.047  1.00  0.00    -0.061 NA
ATOM     23  C   UNL     1      -1.384  32.146 -28.919  1.00  0.00     0.047 A 
ATOM     24  N   UNL     1      -3.403  33.213 -28.062  1.00  0.00    -0.201 N 
ATOM     25  C   UNL     1      -0.425  31.345 -29.543  1.00  0.00     0.032 A 
ATOM     26  C   UNL     1      -0.762  33.145 -28.191  1.00  0.00     0.141 A 
ATOM     27  C   UNL     1      -2.619  34.153 -27.382  1.00  0.00     0.228 A 
ATOM     28  C   UNL     1       0.799  31.877 -29.181  1.00  0.00     0.085 A 
ATOM     29  N   UNL     1      -1.304  34.144 -27.429  1.00  0.00    -0.218 NA
ATOM     30  N   UNL     1       0.585  32.966 -28.362  1.00  0.00    -0.346 N 
ATOM     31  H   UNL     1       1.295  33.551 -27.945  1.00  0.00     0.167 HD
ENDBRANCH  18  19
ENDBRANCH   1  13
TORSDOF 4
