MODEL 1
REMARK VINA RESULT:    -9.698      0.000      0.000
REMARK INTER + INTRA:         -12.524
REMARK INTER:                 -11.966
REMARK INTRA:                  -0.557
REMARK UNBOUND:                -0.557
REMARK SMILES CO[C@@]1(c2cccc(-c3cn(C)c4cnc(NC(N)=O)cc34)n2)CCOC1
REMARK SMILES IDX 4 1 5 2 6 3 7 4 8 5 23 6 3 7 24 8 27 9 25 10 26 11 2 12 1 13
REMARK SMILES IDX 9 14 10 15 22 16 11 17 21 18 13 19 16 20 14 21 15 22 12 23
REMARK SMILES IDX 17 24 18 25 19 26 20 27
REMARK H PARENT 17 28 19 29 19 30
ROOT
ATOM      1  C   UNL     1       5.808 -21.396  21.495  1.00  0.00     0.075 A 
ATOM      2  C   UNL     1       7.194 -21.326  21.351  1.00  0.00     0.027 A 
ATOM      3  C   UNL     1       7.927 -22.504  21.240  1.00  0.00     0.004 A 
ATOM      4  C   UNL     1       7.268 -23.727  21.298  1.00  0.00     0.029 A 
ATOM      5  C   UNL     1       5.890 -23.729  21.469  1.00  0.00     0.073 A 
ATOM      6  N   UNL     1       5.167 -22.588  21.564  1.00  0.00    -0.250 NA
ENDROOT
BRANCH   1   7
ATOM      7  C   UNL     1       4.974 -20.120  21.661  1.00  0.00     0.135 C 
ATOM      8  C   UNL     1       3.691 -20.085  20.830  1.00  0.00     0.073 C 
ATOM      9  C   UNL     1       5.694 -18.909  21.035  1.00  0.00     0.202 C 
ATOM     10  C   UNL     1       4.186 -19.696  19.455  1.00  0.00     0.164 C 
ATOM     11  O   UNL     1       5.293 -18.805  19.655  1.00  0.00    -0.378 OA
BRANCH   7  12
ATOM     12  O   UNL     1       4.743 -19.853  23.056  1.00  0.00    -0.369 OA
ATOM     13  C   UNL     1       3.453 -19.315  23.344  1.00  0.00     0.196 C 
ENDBRANCH   7  12
ENDBRANCH   1   7
BRANCH   5  14
ATOM     14  C   UNL     1       5.125 -24.962  21.599  1.00  0.00     0.026 A 
ATOM     15  C   UNL     1       3.883 -25.175  21.027  1.00  0.00     0.096 A 
ATOM     16  C   UNL     1       5.458 -26.153  22.326  1.00  0.00     0.014 A 
ATOM     17  N   UNL     1       3.459 -26.431  21.380  1.00  0.00    -0.349 N 
ATOM     18  C   UNL     1       6.565 -26.553  23.094  1.00  0.00     0.058 A 
ATOM     19  C   UNL     1       4.402 -27.051  22.169  1.00  0.00     0.067 A 
ATOM     20  C   UNL     1       6.533 -27.819  23.659  1.00  0.00     0.134 A 
ATOM     21  C   UNL     1       4.427 -28.307  22.762  1.00  0.00     0.140 A 
ATOM     22  N   UNL     1       5.498 -28.674  23.502  1.00  0.00    -0.237 NA
ATOM     23  C   UNL     1       2.196 -27.013  20.983  1.00  0.00     0.149 C 
BRANCH  20  24
ATOM     24  N   UNL     1       7.559 -28.342  24.446  1.00  0.00    -0.293 N 
ATOM     25  C   UNL     1       8.495 -27.676  25.176  1.00  0.00     0.317 C 
ATOM     26  N   UNL     1       9.339 -28.517  25.835  1.00  0.00    -0.351 N 
ATOM     27  O   UNL     1       8.648 -26.467  25.288  1.00  0.00    -0.249 OA
ATOM     28  H   UNL     1       7.570 -29.348  24.440  1.00  0.00     0.173 HD
ATOM     29  H   UNL     1       9.266 -29.520  25.801  1.00  0.00     0.161 HD
ATOM     30  H   UNL     1      10.062 -28.094  26.400  1.00  0.00     0.161 HD
ENDBRANCH  20  24
ENDBRANCH   5  14
TORSDOF 4
ENDMDL
MODEL 2
REMARK VINA RESULT:    -8.970      0.873      1.757
REMARK INTER + INTRA:         -11.625
REMARK INTER:                 -11.298
REMARK INTRA:                  -0.327
REMARK UNBOUND:                -0.557
REMARK SMILES CO[C@@]1(c2cccc(-c3cn(C)c4cnc(NC(N)=O)cc34)n2)CCOC1
REMARK SMILES IDX 4 1 5 2 6 3 7 4 8 5 23 6 3 7 24 8 27 9 25 10 26 11 2 12 1 13
REMARK SMILES IDX 9 14 10 15 22 16 11 17 21 18 13 19 16 20 14 21 15 22 12 23
REMARK SMILES IDX 17 24 18 25 19 26 20 27
REMARK H PARENT 17 28 19 29 19 30
ROOT
ATOM      1  C   UNL     1       6.758 -21.316  20.906  1.00  0.00     0.075 A 
ATOM      2  C   UNL     1       8.139 -21.407  21.080  1.00  0.00     0.027 A 
ATOM      3  C   UNL     1       8.707 -22.641  21.384  1.00  0.00     0.004 A 
ATOM      4  C   UNL     1       7.885 -23.754  21.533  1.00  0.00     0.029 A 
ATOM      5  C   UNL     1       6.516 -23.591  21.374  1.00  0.00     0.073 A 
ATOM      6  N   UNL     1       5.956 -22.398  21.064  1.00  0.00    -0.250 NA
ENDROOT
BRANCH   1   7
ATOM      7  C   UNL     1       6.094 -19.966  20.611  1.00  0.00     0.135 C 
ATOM      8  C   UNL     1       6.011 -19.021  21.810  1.00  0.00     0.073 C 
ATOM      9  C   UNL     1       4.585 -20.145  20.346  1.00  0.00     0.202 C 
ATOM     10  C   UNL     1       4.818 -19.548  22.577  1.00  0.00     0.164 C 
ATOM     11  O   UNL     1       3.887 -20.038  21.601  1.00  0.00    -0.378 OA
BRANCH   7  12
ATOM     12  O   UNL     1       6.700 -19.354  19.459  1.00  0.00    -0.369 OA
ATOM     13  C   UNL     1       7.111 -18.003  19.662  1.00  0.00     0.196 C 
ENDBRANCH   7  12
ENDBRANCH   1   7
BRANCH   5  14
ATOM     14  C   UNL     1       5.576 -24.687  21.568  1.00  0.00     0.026 A 
ATOM     15  C   UNL     1       4.300 -24.727  21.034  1.00  0.00     0.096 A 
ATOM     16  C   UNL     1       5.744 -25.889  22.333  1.00  0.00     0.014 A 
ATOM     17  N   UNL     1       3.700 -25.890  21.444  1.00  0.00    -0.349 N 
ATOM     18  C   UNL     1       6.799 -26.428  23.091  1.00  0.00     0.058 A 
ATOM     19  C   UNL     1       4.559 -26.619  22.235  1.00  0.00     0.067 A 
ATOM     20  C   UNL     1       6.590 -27.653  23.705  1.00  0.00     0.134 A 
ATOM     21  C   UNL     1       4.409 -27.844  22.875  1.00  0.00     0.140 A 
ATOM     22  N   UNL     1       5.433 -28.344  23.605  1.00  0.00    -0.237 NA
ATOM     23  C   UNL     1       2.352 -26.285  21.099  1.00  0.00     0.149 C 
BRANCH  20  24
ATOM     24  N   UNL     1       7.546 -28.299  24.488  1.00  0.00    -0.293 N 
ATOM     25  C   UNL     1       8.535 -27.753  25.248  1.00  0.00     0.317 C 
ATOM     26  N   UNL     1       9.279 -28.694  25.892  1.00  0.00    -0.351 N 
ATOM     27  O   UNL     1       8.807 -26.570  25.398  1.00  0.00    -0.249 OA
ATOM     28  H   UNL     1       7.456 -29.301  24.453  1.00  0.00     0.173 HD
ATOM     29  H   UNL     1       9.106 -29.683  25.827  1.00  0.00     0.161 HD
ATOM     30  H   UNL     1      10.033 -28.362  26.477  1.00  0.00     0.161 HD
ENDBRANCH  20  24
ENDBRANCH   5  14
TORSDOF 4
ENDMDL
MODEL 3
REMARK VINA RESULT:    -8.896      1.989      2.973
REMARK INTER + INTRA:         -11.533
REMARK INTER:                 -10.958
REMARK INTRA:                  -0.576
REMARK UNBOUND:                -0.557
REMARK SMILES CO[C@@]1(c2cccc(-c3cn(C)c4cnc(NC(N)=O)cc34)n2)CCOC1
REMARK SMILES IDX 4 1 5 2 6 3 7 4 8 5 23 6 3 7 24 8 27 9 25 10 26 11 2 12 1 13
REMARK SMILES IDX 9 14 10 15 22 16 11 17 21 18 13 19 16 20 14 21 15 22 12 23
REMARK SMILES IDX 17 24 18 25 19 26 20 27
REMARK H PARENT 17 28 19 29 19 30
ROOT
ATOM      1  C   UNL     1       5.208 -22.194  21.581  1.00  0.00     0.075 A 
ATOM      2  C   UNL     1       4.289 -22.131  20.534  1.00  0.00     0.027 A 
ATOM      3  C   UNL     1       3.661 -23.298  20.109  1.00  0.00     0.004 A 
ATOM      4  C   UNL     1       3.980 -24.507  20.719  1.00  0.00     0.029 A 
ATOM      5  C   UNL     1       4.923 -24.505  21.737  1.00  0.00     0.073 A 
ATOM      6  N   UNL     1       5.529 -23.374  22.167  1.00  0.00    -0.250 NA
ENDROOT
BRANCH   1   7
ATOM      7  C   UNL     1       5.949 -20.935  22.048  1.00  0.00     0.135 C 
ATOM      8  C   UNL     1       6.392 -20.002  20.920  1.00  0.00     0.073 C 
ATOM      9  C   UNL     1       7.336 -21.295  22.616  1.00  0.00     0.202 C 
ATOM     10  C   UNL     1       7.650 -20.666  20.404  1.00  0.00     0.164 C 
ATOM     11  O   UNL     1       8.291 -21.268  21.537  1.00  0.00    -0.378 OA
BRANCH   7  12
ATOM     12  O   UNL     1       5.190 -20.258  23.066  1.00  0.00    -0.369 OA
ATOM     13  C   UNL     1       4.418 -19.158  22.587  1.00  0.00     0.196 C 
ENDBRANCH   7  12
ENDBRANCH   1   7
BRANCH   5  14
ATOM     14  C   UNL     1       5.361 -25.731  22.392  1.00  0.00     0.026 A 
ATOM     15  C   UNL     1       4.704 -26.945  22.298  1.00  0.00     0.096 A 
ATOM     16  C   UNL     1       6.491 -25.935  23.251  1.00  0.00     0.014 A 
ATOM     17  N   UNL     1       5.384 -27.860  23.060  1.00  0.00    -0.349 N 
ATOM     18  C   UNL     1       7.528 -25.108  23.718  1.00  0.00     0.058 A 
ATOM     19  C   UNL     1       6.480 -27.272  23.651  1.00  0.00     0.067 A 
ATOM     20  C   UNL     1       8.474 -25.674  24.559  1.00  0.00     0.134 A 
ATOM     21  C   UNL     1       7.458 -27.782  24.497  1.00  0.00     0.140 A 
ATOM     22  N   UNL     1       8.445 -26.971  24.940  1.00  0.00    -0.237 NA
ATOM     23  C   UNL     1       4.996 -29.244  23.224  1.00  0.00     0.149 C 
BRANCH  20  24
ATOM     24  N   UNL     1       9.551 -24.971  25.097  1.00  0.00    -0.293 N 
ATOM     25  C   UNL     1      10.880 -25.258  25.019  1.00  0.00     0.317 C 
ATOM     26  N   UNL     1      11.651 -24.336  25.658  1.00  0.00    -0.351 N 
ATOM     27  O   UNL     1      11.416 -26.209  24.468  1.00  0.00    -0.249 OA
ATOM     28  H   UNL     1       9.258 -24.152  25.604  1.00  0.00     0.173 HD
ATOM     29  H   UNL     1      11.282 -23.523  26.121  1.00  0.00     0.161 HD
ATOM     30  H   UNL     1      12.651 -24.483  25.642  1.00  0.00     0.161 HD
ENDBRANCH  20  24
ENDBRANCH   5  14
TORSDOF 4
ENDMDL
MODEL 4
REMARK VINA RESULT:    -8.562      1.920      2.876
REMARK INTER + INTRA:         -11.122
REMARK INTER:                 -10.521
REMARK INTRA:                  -0.601
REMARK UNBOUND:                -0.557
REMARK SMILES CO[C@@]1(c2cccc(-c3cn(C)c4cnc(NC(N)=O)cc34)n2)CCOC1
REMARK SMILES IDX 4 1 5 2 6 3 7 4 8 5 23 6 3 7 24 8 27 9 25 10 26 11 2 12 1 13
REMARK SMILES IDX 9 14 10 15 22 16 11 17 21 18 13 19 16 20 14 21 15 22 12 23
REMARK SMILES IDX 17 24 18 25 19 26 20 27
REMARK H PARENT 17 28 19 29 19 30
ROOT
ATOM      1  C   UNL     1       6.397 -21.143  21.457  1.00  0.00     0.075 A 
ATOM      2  C   UNL     1       5.676 -20.321  20.591  1.00  0.00     0.027 A 
ATOM      3  C   UNL     1       4.510 -20.806  20.005  1.00  0.00     0.004 A 
ATOM      4  C   UNL     1       4.100 -22.108  20.274  1.00  0.00     0.029 A 
ATOM      5  C   UNL     1       4.878 -22.884  21.122  1.00  0.00     0.073 A 
ATOM      6  N   UNL     1       6.005 -22.417  21.709  1.00  0.00    -0.250 NA
ENDROOT
BRANCH   1   7
ATOM      7  C   UNL     1       7.707 -20.656  22.088  1.00  0.00     0.135 C 
ATOM      8  C   UNL     1       8.808 -20.312  21.084  1.00  0.00     0.073 C 
ATOM      9  C   UNL     1       8.416 -21.806  22.832  1.00  0.00     0.202 C 
ATOM     10  C   UNL     1       9.375 -21.666  20.722  1.00  0.00     0.164 C 
ATOM     11  O   UNL     1       9.293 -22.475  21.905  1.00  0.00    -0.378 OA
BRANCH   7  12
ATOM     12  O   UNL     1       7.446 -19.590  23.018  1.00  0.00    -0.369 OA
ATOM     13  C   UNL     1       8.603 -18.841  23.389  1.00  0.00     0.196 C 
ENDBRANCH   7  12
ENDBRANCH   1   7
BRANCH   5  14
ATOM     14  C   UNL     1       4.557 -24.275  21.415  1.00  0.00     0.026 A 
ATOM     15  C   UNL     1       3.454 -24.944  20.917  1.00  0.00     0.096 A 
ATOM     16  C   UNL     1       5.260 -25.201  22.255  1.00  0.00     0.014 A 
ATOM     17  N   UNL     1       3.463 -26.220  21.420  1.00  0.00    -0.349 N 
ATOM     18  C   UNL     1       6.438 -25.129  23.021  1.00  0.00     0.058 A 
ATOM     19  C   UNL     1       4.556 -26.405  22.237  1.00  0.00     0.067 A 
ATOM     20  C   UNL     1       6.820 -26.262  23.722  1.00  0.00     0.134 A 
ATOM     21  C   UNL     1       4.989 -27.508  22.963  1.00  0.00     0.140 A 
ATOM     22  N   UNL     1       6.121 -27.419  23.698  1.00  0.00    -0.237 NA
ATOM     23  C   UNL     1       2.459 -27.222  21.137  1.00  0.00     0.149 C 
BRANCH  20  24
ATOM     24  N   UNL     1       7.961 -26.329  24.522  1.00  0.00    -0.293 N 
ATOM     25  C   UNL     1       9.214 -25.867  24.258  1.00  0.00     0.317 C 
ATOM     26  N   UNL     1      10.081 -26.098  25.282  1.00  0.00    -0.351 N 
ATOM     27  O   UNL     1       9.615 -25.302  23.250  1.00  0.00    -0.249 OA
ATOM     28  H   UNL     1       7.786 -26.791  25.399  1.00  0.00     0.173 HD
ATOM     29  H   UNL     1       9.820 -26.544  26.145  1.00  0.00     0.161 HD
ATOM     30  H   UNL     1      11.033 -25.782  25.158  1.00  0.00     0.161 HD
ENDBRANCH  20  24
ENDBRANCH   5  14
TORSDOF 4
ENDMDL
MODEL 5
REMARK VINA RESULT:    -8.557      2.244      3.964
REMARK INTER + INTRA:         -11.116
REMARK INTER:                 -10.602
REMARK INTRA:                  -0.513
REMARK UNBOUND:                -0.557
REMARK SMILES CO[C@@]1(c2cccc(-c3cn(C)c4cnc(NC(N)=O)cc34)n2)CCOC1
REMARK SMILES IDX 4 1 5 2 6 3 7 4 8 5 23 6 3 7 24 8 27 9 25 10 26 11 2 12 1 13
REMARK SMILES IDX 9 14 10 15 22 16 11 17 21 18 13 19 16 20 14 21 15 22 12 23
REMARK SMILES IDX 17 24 18 25 19 26 20 27
REMARK H PARENT 17 28 19 29 19 30
ROOT
ATOM      1  C   UNL     1       5.033 -20.715  21.180  1.00  0.00     0.075 A 
ATOM      2  C   UNL     1       4.712 -20.867  19.831  1.00  0.00     0.027 A 
ATOM      3  C   UNL     1       4.913 -22.101  19.218  1.00  0.00     0.004 A 
ATOM      4  C   UNL     1       5.451 -23.151  19.955  1.00  0.00     0.029 A 
ATOM      5  C   UNL     1       5.774 -22.926  21.286  1.00  0.00     0.073 A 
ATOM      6  N   UNL     1       5.569 -21.734  21.895  1.00  0.00    -0.250 NA
ENDROOT
BRANCH   1   7
ATOM      7  C   UNL     1       4.864 -19.359  21.876  1.00  0.00     0.135 C 
ATOM      8  C   UNL     1       3.866 -19.358  23.034  1.00  0.00     0.073 C 
ATOM      9  C   UNL     1       4.151 -18.354  20.949  1.00  0.00     0.202 C 
ATOM     10  C   UNL     1       2.529 -19.272  22.333  1.00  0.00     0.164 C 
ATOM     11  O   UNL     1       2.730 -18.466  21.163  1.00  0.00    -0.378 OA
BRANCH   7  12
ATOM     12  O   UNL     1       6.148 -18.823  22.243  1.00  0.00    -0.369 OA
ATOM     13  C   UNL     1       6.550 -17.690  21.476  1.00  0.00     0.196 C 
ENDBRANCH   7  12
ENDBRANCH   1   7
BRANCH   5  14
ATOM     14  C   UNL     1       6.395 -23.949  22.118  1.00  0.00     0.026 A 
ATOM     15  C   UNL     1       7.596 -23.791  22.787  1.00  0.00     0.096 A 
ATOM     16  C   UNL     1       5.938 -25.281  22.394  1.00  0.00     0.014 A 
ATOM     17  N   UNL     1       7.878 -24.961  23.443  1.00  0.00    -0.349 N 
ATOM     18  C   UNL     1       4.803 -26.023  22.022  1.00  0.00     0.058 A 
ATOM     19  C   UNL     1       6.882 -25.886  23.223  1.00  0.00     0.067 A 
ATOM     20  C   UNL     1       4.699 -27.321  22.498  1.00  0.00     0.134 A 
ATOM     21  C   UNL     1       6.722 -27.193  23.669  1.00  0.00     0.140 A 
ATOM     22  N   UNL     1       5.626 -27.894  23.297  1.00  0.00    -0.237 NA
ATOM     23  C   UNL     1       9.061 -25.189  24.244  1.00  0.00     0.149 C 
BRANCH  20  24
ATOM     24  N   UNL     1       3.631 -28.169  22.205  1.00  0.00    -0.293 N 
ATOM     25  C   UNL     1       2.577 -27.954  21.370  1.00  0.00     0.317 C 
ATOM     26  N   UNL     1       1.726 -29.015  21.320  1.00  0.00    -0.351 N 
ATOM     27  O   UNL     1       2.332 -26.959  20.703  1.00  0.00    -0.249 OA
ATOM     28  H   UNL     1       3.688 -29.042  22.703  1.00  0.00     0.173 HD
ATOM     29  H   UNL     1       1.870 -29.871  21.830  1.00  0.00     0.161 HD
ATOM     30  H   UNL     1       0.918 -28.929  20.719  1.00  0.00     0.161 HD
ENDBRANCH  20  24
ENDBRANCH   5  14
TORSDOF 4
ENDMDL
MODEL 6
REMARK VINA RESULT:    -8.511      3.203      7.760
REMARK INTER + INTRA:         -11.059
REMARK INTER:                 -10.443
REMARK INTRA:                  -0.615
REMARK UNBOUND:                -0.557
REMARK SMILES CO[C@@]1(c2cccc(-c3cn(C)c4cnc(NC(N)=O)cc34)n2)CCOC1
REMARK SMILES IDX 4 1 5 2 6 3 7 4 8 5 23 6 3 7 24 8 27 9 25 10 26 11 2 12 1 13
REMARK SMILES IDX 9 14 10 15 22 16 11 17 21 18 13 19 16 20 14 21 15 22 12 23
REMARK SMILES IDX 17 24 18 25 19 26 20 27
REMARK H PARENT 17 28 19 29 19 30
ROOT
ATOM      1  C   UNL     1       9.461 -26.719  25.624  1.00  0.00     0.075 A 
ATOM      2  C   UNL     1       8.843 -27.970  25.608  1.00  0.00     0.027 A 
ATOM      3  C   UNL     1       7.735 -28.171  24.790  1.00  0.00     0.004 A 
ATOM      4  C   UNL     1       7.250 -27.116  24.023  1.00  0.00     0.029 A 
ATOM      5  C   UNL     1       7.894 -25.889  24.105  1.00  0.00     0.073 A 
ATOM      6  N   UNL     1       8.981 -25.688  24.886  1.00  0.00    -0.250 NA
ENDROOT
BRANCH   1   7
ATOM      7  C   UNL     1      10.659 -26.450  26.543  1.00  0.00     0.135 C 
ATOM      8  C   UNL     1      11.878 -25.852  25.842  1.00  0.00     0.073 C 
ATOM      9  C   UNL     1      11.288 -27.774  27.023  1.00  0.00     0.202 C 
ATOM     10  C   UNL     1      12.524 -27.056  25.194  1.00  0.00     0.164 C 
ATOM     11  O   UNL     1      12.301 -28.166  26.076  1.00  0.00    -0.378 OA
BRANCH   7  12
ATOM     12  O   UNL     1      10.245 -25.688  27.691  1.00  0.00    -0.369 OA
ATOM     13  C   UNL     1      11.322 -25.211  28.496  1.00  0.00     0.196 C 
ENDBRANCH   7  12
ENDBRANCH   1   7
BRANCH   5  14
ATOM     14  C   UNL     1       7.422 -24.715  23.383  1.00  0.00     0.026 A 
ATOM     15  C   UNL     1       7.954 -23.445  23.522  1.00  0.00     0.096 A 
ATOM     16  C   UNL     1       6.347 -24.614  22.439  1.00  0.00     0.014 A 
ATOM     17  N   UNL     1       7.248 -22.594  22.712  1.00  0.00    -0.349 N 
ATOM     18  C   UNL     1       5.443 -25.536  21.882  1.00  0.00     0.058 A 
ATOM     19  C   UNL     1       6.263 -23.280  22.037  1.00  0.00     0.067 A 
ATOM     20  C   UNL     1       4.514 -25.057  20.972  1.00  0.00     0.134 A 
ATOM     21  C   UNL     1       5.309 -22.860  21.119  1.00  0.00     0.140 A 
ATOM     22  N   UNL     1       4.444 -23.760  20.597  1.00  0.00    -0.237 NA
ATOM     23  C   UNL     1       7.500 -21.174  22.593  1.00  0.00     0.149 C 
BRANCH  20  24
ATOM     24  N   UNL     1       3.558 -25.858  20.346  1.00  0.00    -0.293 N 
ATOM     25  C   UNL     1       2.567 -26.599  20.913  1.00  0.00     0.317 C 
ATOM     26  N   UNL     1       1.808 -27.250  19.989  1.00  0.00    -0.351 N 
ATOM     27  O   UNL     1       2.307 -26.732  22.101  1.00  0.00    -0.249 OA
ATOM     28  H   UNL     1       3.657 -25.860  19.345  1.00  0.00     0.173 HD
ATOM     29  H   UNL     1       1.953 -27.177  18.996  1.00  0.00     0.161 HD
ATOM     30  H   UNL     1       1.050 -27.821  20.336  1.00  0.00     0.161 HD
ENDBRANCH  20  24
ENDBRANCH   5  14
TORSDOF 4
ENDMDL
MODEL 7
REMARK VINA RESULT:    -8.487      1.948      4.034
REMARK INTER + INTRA:         -11.029
REMARK INTER:                 -10.575
REMARK INTRA:                  -0.455
REMARK UNBOUND:                -0.557
REMARK SMILES CO[C@@]1(c2cccc(-c3cn(C)c4cnc(NC(N)=O)cc34)n2)CCOC1
REMARK SMILES IDX 4 1 5 2 6 3 7 4 8 5 23 6 3 7 24 8 27 9 25 10 26 11 2 12 1 13
REMARK SMILES IDX 9 14 10 15 22 16 11 17 21 18 13 19 16 20 14 21 15 22 12 23
REMARK SMILES IDX 17 24 18 25 19 26 20 27
REMARK H PARENT 17 28 19 29 19 30
ROOT
ATOM      1  C   UNL     1       7.050 -22.033  22.497  1.00  0.00     0.075 A 
ATOM      2  C   UNL     1       8.261 -21.344  22.565  1.00  0.00     0.027 A 
ATOM      3  C   UNL     1       9.398 -22.009  23.016  1.00  0.00     0.004 A 
ATOM      4  C   UNL     1       9.300 -23.338  23.414  1.00  0.00     0.029 A 
ATOM      5  C   UNL     1       8.060 -23.958  23.348  1.00  0.00     0.073 A 
ATOM      6  N   UNL     1       6.952 -23.325  22.896  1.00  0.00    -0.250 NA
ENDROOT
BRANCH   1   7
ATOM      7  C   UNL     1       5.770 -21.321  22.043  1.00  0.00     0.135 C 
ATOM      8  C   UNL     1       4.867 -22.154  21.132  1.00  0.00     0.073 C 
ATOM      9  C   UNL     1       6.099 -20.174  21.067  1.00  0.00     0.202 C 
ATOM     10  C   UNL     1       5.533 -22.022  19.781  1.00  0.00     0.164 C 
ATOM     11  O   UNL     1       6.094 -20.702  19.726  1.00  0.00    -0.378 OA
BRANCH   7  12
ATOM     12  O   UNL     1       5.071 -20.780  23.179  1.00  0.00    -0.369 OA
ATOM     13  C   UNL     1       4.135 -19.754  22.854  1.00  0.00     0.196 C 
ENDBRANCH   7  12
ENDBRANCH   1   7
BRANCH   5  14
ATOM     14  C   UNL     1       7.852 -25.329  23.797  1.00  0.00     0.026 A 
ATOM     15  C   UNL     1       8.701 -26.008  24.653  1.00  0.00     0.096 A 
ATOM     16  C   UNL     1       6.796 -26.236  23.452  1.00  0.00     0.014 A 
ATOM     17  N   UNL     1       8.205 -27.274  24.833  1.00  0.00    -0.349 N 
ATOM     18  C   UNL     1       5.648 -26.141  22.646  1.00  0.00     0.058 A 
ATOM     19  C   UNL     1       7.041 -27.439  24.114  1.00  0.00     0.067 A 
ATOM     20  C   UNL     1       4.833 -27.258  22.552  1.00  0.00     0.134 A 
ATOM     21  C   UNL     1       6.187 -28.527  23.980  1.00  0.00     0.140 A 
ATOM     22  N   UNL     1       5.089 -28.419  23.196  1.00  0.00    -0.237 NA
ATOM     23  C   UNL     1       8.824 -28.290  25.655  1.00  0.00     0.149 C 
BRANCH  20  24
ATOM     24  N   UNL     1       3.668 -27.305  21.786  1.00  0.00    -0.293 N 
ATOM     25  C   UNL     1       3.051 -26.295  21.113  1.00  0.00     0.317 C 
ATOM     26  N   UNL     1       1.933 -26.710  20.459  1.00  0.00    -0.351 N 
ATOM     27  O   UNL     1       3.382 -25.119  21.046  1.00  0.00    -0.249 OA
ATOM     28  H   UNL     1       3.264 -28.226  21.760  1.00  0.00     0.173 HD
ATOM     29  H   UNL     1       1.608 -27.663  20.457  1.00  0.00     0.161 HD
ATOM     30  H   UNL     1       1.421 -26.014  19.935  1.00  0.00     0.161 HD
ENDBRANCH  20  24
ENDBRANCH   5  14
TORSDOF 4
ENDMDL
MODEL 8
REMARK VINA RESULT:    -8.208      2.510      8.324
REMARK INTER + INTRA:         -10.684
REMARK INTER:                 -10.318
REMARK INTRA:                  -0.366
REMARK UNBOUND:                -0.557
REMARK SMILES CO[C@@]1(c2cccc(-c3cn(C)c4cnc(NC(N)=O)cc34)n2)CCOC1
REMARK SMILES IDX 4 1 5 2 6 3 7 4 8 5 23 6 3 7 24 8 27 9 25 10 26 11 2 12 1 13
REMARK SMILES IDX 9 14 10 15 22 16 11 17 21 18 13 19 16 20 14 21 15 22 12 23
REMARK SMILES IDX 17 24 18 25 19 26 20 27
REMARK H PARENT 17 28 19 29 19 30
ROOT
ATOM      1  C   UNL     1       5.136 -26.306  22.268  1.00  0.00     0.075 A 
ATOM      2  C   UNL     1       3.802 -26.404  21.873  1.00  0.00     0.027 A 
ATOM      3  C   UNL     1       3.243 -25.386  21.105  1.00  0.00     0.004 A 
ATOM      4  C   UNL     1       4.018 -24.282  20.765  1.00  0.00     0.029 A 
ATOM      5  C   UNL     1       5.331 -24.233  21.211  1.00  0.00     0.073 A 
ATOM      6  N   UNL     1       5.888 -25.224  21.947  1.00  0.00    -0.250 NA
ENDROOT
BRANCH   1   7
ATOM      7  C   UNL     1       5.772 -27.387  23.149  1.00  0.00     0.135 C 
ATOM      8  C   UNL     1       6.520 -28.478  22.380  1.00  0.00     0.073 C 
ATOM      9  C   UNL     1       4.688 -28.264  23.808  1.00  0.00     0.202 C 
ATOM     10  C   UNL     1       5.406 -29.384  21.906  1.00  0.00     0.164 C 
ATOM     11  O   UNL     1       4.400 -29.369  22.929  1.00  0.00    -0.378 OA
BRANCH   7  12
ATOM     12  O   UNL     1       6.572 -26.783  24.181  1.00  0.00    -0.369 OA
ATOM     13  C   UNL     1       7.734 -27.533  24.535  1.00  0.00     0.196 C 
ENDBRANCH   7  12
ENDBRANCH   1   7
BRANCH   5  14
ATOM     14  C   UNL     1       6.197 -23.090  20.952  1.00  0.00     0.026 A 
ATOM     15  C   UNL     1       7.544 -23.044  21.264  1.00  0.00     0.096 A 
ATOM     16  C   UNL     1       5.861 -21.823  20.372  1.00  0.00     0.014 A 
ATOM     17  N   UNL     1       8.026 -21.812  20.902  1.00  0.00    -0.349 N 
ATOM     18  C   UNL     1       4.679 -21.266  19.852  1.00  0.00     0.058 A 
ATOM     19  C   UNL     1       7.021 -21.048  20.352  1.00  0.00     0.067 A 
ATOM     20  C   UNL     1       4.739 -19.972  19.360  1.00  0.00     0.134 A 
ATOM     21  C   UNL     1       7.018 -19.754  19.845  1.00  0.00     0.140 A 
ATOM     22  N   UNL     1       5.871 -19.233  19.354  1.00  0.00    -0.237 NA
ATOM     23  C   UNL     1       9.394 -21.379  21.083  1.00  0.00     0.149 C 
BRANCH  20  24
ATOM     24  N   UNL     1       3.643 -19.297  18.820  1.00  0.00    -0.293 N 
ATOM     25  C   UNL     1       2.726 -18.519  19.456  1.00  0.00     0.317 C 
ATOM     26  N   UNL     1       1.796 -18.007  18.605  1.00  0.00    -0.351 N 
ATOM     27  O   UNL     1       2.657 -18.253  20.648  1.00  0.00    -0.249 OA
ATOM     28  H   UNL     1       3.560 -19.437  17.827  1.00  0.00     0.173 HD
ATOM     29  H   UNL     1       1.797 -18.170  17.612  1.00  0.00     0.161 HD
ATOM     30  H   UNL     1       1.080 -17.416  19.006  1.00  0.00     0.161 HD
ENDBRANCH  20  24
ENDBRANCH   5  14
TORSDOF 4
ENDMDL
MODEL 9
REMARK VINA RESULT:    -8.091      2.828      5.175
REMARK INTER + INTRA:         -10.541
REMARK INTER:                  -9.757
REMARK INTRA:                  -0.783
REMARK UNBOUND:                -0.557
REMARK SMILES CO[C@@]1(c2cccc(-c3cn(C)c4cnc(NC(N)=O)cc34)n2)CCOC1
REMARK SMILES IDX 4 1 5 2 6 3 7 4 8 5 23 6 3 7 24 8 27 9 25 10 26 11 2 12 1 13
REMARK SMILES IDX 9 14 10 15 22 16 11 17 21 18 13 19 16 20 14 21 15 22 12 23
REMARK SMILES IDX 17 24 18 25 19 26 20 27
REMARK H PARENT 17 28 19 29 19 30
ROOT
ATOM      1  C   UNL     1       3.636 -18.485  20.830  1.00  0.00     0.075 A 
ATOM      2  C   UNL     1       2.848 -18.482  21.981  1.00  0.00     0.027 A 
ATOM      3  C   UNL     1       3.255 -19.226  23.085  1.00  0.00     0.004 A 
ATOM      4  C   UNL     1       4.424 -19.975  23.012  1.00  0.00     0.029 A 
ATOM      5  C   UNL     1       5.148 -19.956  21.828  1.00  0.00     0.073 A 
ATOM      6  N   UNL     1       4.769 -19.225  20.753  1.00  0.00    -0.250 NA
ENDROOT
BRANCH   1   7
ATOM      7  C   UNL     1       3.197 -17.710  19.581  1.00  0.00     0.135 C 
ATOM      8  C   UNL     1       4.299 -17.500  18.542  1.00  0.00     0.073 C 
ATOM      9  C   UNL     1       2.912 -16.235  19.925  1.00  0.00     0.202 C 
ATOM     10  C   UNL     1       5.081 -16.335  19.107  1.00  0.00     0.164 C 
ATOM     11  O   UNL     1       4.133 -15.486  19.769  1.00  0.00    -0.378 OA
BRANCH   7  12
ATOM     12  O   UNL     1       2.008 -18.297  19.022  1.00  0.00    -0.369 OA
ATOM     13  C   UNL     1       1.261 -17.417  18.182  1.00  0.00     0.196 C 
ENDBRANCH   7  12
ENDBRANCH   1   7
BRANCH   5  14
ATOM     14  C   UNL     1       6.353 -20.755  21.641  1.00  0.00     0.026 A 
ATOM     15  C   UNL     1       7.577 -20.243  21.249  1.00  0.00     0.096 A 
ATOM     16  C   UNL     1       6.523 -22.171  21.789  1.00  0.00     0.014 A 
ATOM     17  N   UNL     1       8.465 -21.283  21.154  1.00  0.00    -0.349 N 
ATOM     18  C   UNL     1       5.672 -23.225  22.168  1.00  0.00     0.058 A 
ATOM     19  C   UNL     1       7.850 -22.471  21.481  1.00  0.00     0.067 A 
ATOM     20  C   UNL     1       6.206 -24.503  22.201  1.00  0.00     0.134 A 
ATOM     21  C   UNL     1       8.328 -23.775  21.532  1.00  0.00     0.140 A 
ATOM     22  N   UNL     1       7.494 -24.777  21.893  1.00  0.00    -0.237 NA
ATOM     23  C   UNL     1       9.850 -21.148  20.757  1.00  0.00     0.149 C 
BRANCH  20  24
ATOM     24  N   UNL     1       5.476 -25.639  22.553  1.00  0.00    -0.293 N 
ATOM     25  C   UNL     1       4.394 -26.182  21.931  1.00  0.00     0.317 C 
ATOM     26  N   UNL     1       3.944 -27.307  22.552  1.00  0.00    -0.351 N 
ATOM     27  O   UNL     1       3.816 -25.780  20.930  1.00  0.00    -0.249 OA
ATOM     28  H   UNL     1       5.833 -26.080  23.385  1.00  0.00     0.173 HD
ATOM     29  H   UNL     1       4.376 -27.703  23.370  1.00  0.00     0.161 HD
ATOM     30  H   UNL     1       3.142 -27.767  22.146  1.00  0.00     0.161 HD
ENDBRANCH  20  24
ENDBRANCH   5  14
TORSDOF 4
ENDMDL
