REMARK VINA RESULT:    -8.840      0.000      0.000
REMARK INTER + INTRA:         -14.082
REMARK INTER:                 -12.974
REMARK INTRA:                  -1.108
REMARK UNBOUND:                -1.108
REMARK SMILES CCN(CC)C/C=C/C(=O)Nc1ccc2ncnc(Nc3cccc(Br)c3)c2c1
REMARK SMILES IDX 9 1 10 2 11 3 8 5 7 6 6 7 3 8 2 9 1 10 4 11 5 12 12 13 13 14
REMARK SMILES IDX 29 15 14 16 28 17 15 18 19 19 16 20 18 21 17 22 20 23 21 25
REMARK SMILES IDX 22 26 27 27 23 28 25 29 24 30 26 31
REMARK H PARENT 11 4 20 24
ROOT
ATOM      1  C   UNL     1      16.500  34.330  10.013  1.00  0.00     0.248 C 
ATOM      2  O   UNL     1      16.316  35.526  10.200  1.00  0.00    -0.270 OA
ATOM      3  N   UNL     1      16.869  33.388  10.952  1.00  0.00    -0.322 N 
ATOM      4  H   UNL     1      16.914  32.424  10.646  1.00  0.00     0.170 HD
ENDROOT
BRANCH   1   5
ATOM      5  C   UNL     1      16.308  33.719   8.667  1.00  0.00     0.068 C 
ATOM      6  C   UNL     1      16.809  32.505   8.383  1.00  0.00    -0.006 C 
BRANCH   6   7
ATOM      7  C   UNL     1      16.680  31.769   7.076  1.00  0.00     0.112 C 
BRANCH   7   8
ATOM      8  N   UNL     1      16.438  30.324   7.211  1.00  0.00    -0.300 NA
BRANCH   8   9
ATOM      9  C   UNL     1      15.071  29.943   6.805  1.00  0.00     0.081 C 
ATOM     10  C   UNL     1      14.061  29.684   7.922  1.00  0.00     0.021 C 
ENDBRANCH   8   9
BRANCH   8  11
ATOM     11  C   UNL     1      17.455  29.520   6.518  1.00  0.00     0.081 C 
ATOM     12  C   UNL     1      16.946  28.118   6.193  1.00  0.00     0.021 C 
ENDBRANCH   8  11
ENDBRANCH   7   8
ENDBRANCH   6   7
ENDBRANCH   1   5
BRANCH   3  13
ATOM     13  C   UNL     1      17.166  33.612  12.313  1.00  0.00     0.042 A 
ATOM     14  C   UNL     1      16.137  34.085  13.125  1.00  0.00     0.028 A 
ATOM     15  C   UNL     1      18.413  33.384  12.889  1.00  0.00     0.040 A 
ATOM     16  C   UNL     1      16.368  34.332  14.483  1.00  0.00     0.031 A 
ATOM     17  C   UNL     1      18.655  33.643  14.269  1.00  0.00     0.045 A 
ATOM     18  C   UNL     1      17.608  34.119  15.067  1.00  0.00     0.076 A 
ATOM     19  C   UNL     1      19.884  33.449  14.934  1.00  0.00     0.141 A 
ATOM     20  N   UNL     1      17.743  34.374  16.370  1.00  0.00    -0.236 NA
ATOM     21  N   UNL     1      20.021  33.689  16.251  1.00  0.00    -0.219 NA
ATOM     22  C   UNL     1      18.947  34.141  16.901  1.00  0.00     0.224 A 
BRANCH  19  23
ATOM     23  N   UNL     1      20.999  32.975  14.207  1.00  0.00    -0.340 N 
ATOM     24  H   UNL     1      20.928  31.991  13.979  1.00  0.00     0.168 HD
BRANCH  23  25
ATOM     25  C   UNL     1      22.009  33.658  13.507  1.00  0.00     0.041 A 
ATOM     26  C   UNL     1      23.003  32.909  12.853  1.00  0.00     0.026 A 
ATOM     27  C   UNL     1      22.109  35.053  13.470  1.00  0.00     0.041 A 
ATOM     28  C   UNL     1      24.049  33.533  12.164  1.00  0.00     0.003 A 
ATOM     29  C   UNL     1      23.154  35.676  12.781  1.00  0.00     0.020 A 
ATOM     30  C   UNL     1      24.123  34.922  12.125  1.00  0.00     0.016 A 
ATOM     31  Br  UNL     1      23.260  37.565  12.747  1.00  0.00    -0.051 Br
ENDBRANCH  23  25
ENDBRANCH  19  23
ENDBRANCH   3  13
TORSDOF 8
