REMARK SMILES Cc1cc(C#N)ccc1NC[C@H]1CC[C@H](c2nnn3cnc4[nH]ccc4c23)CC1
REMARK SMILES IDX 11 1 10 2 9 4 2 5 3 6 4 7 8 8 5 9 7 10 6 11 1 12 12 13 13 14
REMARK SMILES IDX 29 15 14 16 28 17 15 18 16 19 17 20 27 21 18 22 26 23 19 24
REMARK SMILES IDX 25 25 22 26 20 27 24 28 21 29 23 30
REMARK H PARENT 10 3 23 31
REMARK INDEX MAP 11 1 10 2 36 3 9 4 2 5 3 6 4 7 8 8 5 9 7 10 6 11 1 12 12 13
REMARK INDEX MAP 13 14 29 15 14 16 28 17 15 18 16 19 17 20 27 21 18 22 26 23
REMARK INDEX MAP 19 24 25 25 22 26 20 27 24 28 21 29 23 30 46 31
ROOT
ATOM      1  C   UNL     1       7.762 -22.851  22.065  1.00  0.00     0.116 C 
ENDROOT
BRANCH   1   2
ATOM      2  N   UNL     1       7.033 -23.518  23.130  1.00  0.00    -0.385 N 
ATOM      3  H   UNL     1       6.934 -23.023  24.028  1.00  0.00     0.160 HD
BRANCH   2   4
ATOM      4  C   UNL     1       6.462 -24.776  23.018  1.00  0.00     0.037 A 
ATOM      5  C   UNL     1       7.107 -25.903  23.575  1.00  0.00    -0.027 A 
ATOM      6  C   UNL     1       6.533 -27.183  23.445  1.00  0.00     0.025 A 
ATOM      7  C   UNL     1       5.332 -27.363  22.757  1.00  0.00     0.052 A 
ATOM      8  C   UNL     1       5.261 -24.986  22.322  1.00  0.00     0.027 A 
ATOM      9  C   UNL     1       4.760 -28.671  22.630  1.00  0.00     0.099 C 
ATOM     10  C   UNL     1       4.697 -26.260  22.194  1.00  0.00     0.021 A 
ATOM     11  N   UNL     1       4.296 -29.730  22.526  1.00  0.00    -0.192 NA
ATOM     12  C   UNL     1       8.411 -25.777  24.320  1.00  0.00     0.046 C 
ENDBRANCH   2   4
ENDBRANCH   1   2
BRANCH   1  13
ATOM     13  C   UNL     1       6.959 -21.651  21.527  1.00  0.00     0.008 C 
ATOM     14  C   UNL     1       5.971 -21.158  22.594  1.00  0.00     0.006 C 
ATOM     15  C   UNL     1       6.211 -22.007  20.231  1.00  0.00     0.006 C 
ATOM     16  C   UNL     1       5.127 -19.988  22.091  1.00  0.00     0.010 C 
ATOM     17  C   UNL     1       5.366 -20.838  19.725  1.00  0.00     0.010 C 
ATOM     18  C   UNL     1       4.383 -20.340  20.794  1.00  0.00     0.042 C 
BRANCH  18  19
ATOM     19  C   UNL     1       3.578 -19.187  20.297  1.00  0.00     0.094 A 
ATOM     20  N   UNL     1       2.197 -19.262  20.189  1.00  0.00    -0.134 NA
ATOM     21  C   UNL     1       3.957 -17.941  19.885  1.00  0.00     0.103 A 
ATOM     22  N   UNL     1       1.735 -18.101  19.723  1.00  0.00    -0.061 NA
ATOM     23  C   UNL     1       5.226 -17.130  19.719  1.00  0.00     0.047 A 
ATOM     24  N   UNL     1       2.799 -17.303  19.540  1.00  0.00    -0.201 N 
ATOM     25  C   UNL     1       6.594 -17.317  19.924  1.00  0.00     0.032 A 
ATOM     26  C   UNL     1       4.992 -15.855  19.235  1.00  0.00     0.141 A 
ATOM     27  C   UNL     1       2.740 -15.989  19.060  1.00  0.00     0.228 A 
ATOM     28  C   UNL     1       7.194 -16.127  19.555  1.00  0.00     0.085 A 
ATOM     29  N   UNL     1       3.814 -15.246  18.898  1.00  0.00    -0.218 NA
ATOM     30  N   UNL     1       6.216 -15.248  19.139  1.00  0.00    -0.346 N 
ATOM     31  H   UNL     1       6.380 -14.287  18.808  1.00  0.00     0.167 HD
ENDBRANCH  18  19
ENDBRANCH   1  13
TORSDOF 4
