MODEL 4
REMARK VINA RESULT:   -10.358      2.770      3.395
REMARK INTER + INTRA:         -13.536
REMARK INTER:                 -13.312
REMARK INTRA:                  -0.223
REMARK UNBOUND:                -0.150
REMARK SMILES CS(=O)(=O)N1CC(CC#N)(n2ccc(-c3cc(-c4cc[nH]n4)cc4ncccc34)n2)C1
REMARK SMILES IDX 11 1 12 2 13 3 14 4 30 5 7 6 5 7 6 8 31 9 2 10 3 11 4 12
REMARK SMILES IDX 1 13 8 14 9 15 10 16 15 17 16 18 29 19 17 20 28 21 24 22
REMARK SMILES IDX 23 23 27 24 25 25 26 26 18 27 19 28 22 29 20 30 21 31
REMARK H PARENT 21 32
ROOT
ATOM      1  N   UNL     1       4.865 -21.838  20.965  1.00  0.00    -0.262 N 
ATOM      2  C   UNL     1       4.593 -22.341  19.721  1.00  0.00     0.110 A 
ATOM      3  C   UNL     1       4.645 -23.709  19.841  1.00  0.00     0.050 A 
ATOM      4  C   UNL     1       4.973 -23.954  21.196  1.00  0.00     0.093 A 
ATOM      5  N   UNL     1       5.099 -22.804  21.873  1.00  0.00    -0.172 NA
ENDROOT
BRANCH   1   6
ATOM      6  C   UNL     1       4.908 -20.394  21.341  1.00  0.00     0.103 C 
ATOM      7  N   UNL     1       4.012 -18.705  20.338  1.00  0.00    -0.197 NA
ATOM      8  C   UNL     1       3.506 -19.739  21.293  1.00  0.00     0.135 C 
ATOM      9  C   UNL     1       5.264 -19.500  20.129  1.00  0.00     0.135 C 
BRANCH   7  10
ATOM     10  S   UNL     1       3.118 -18.036  19.067  1.00  0.00     0.211 S 
ATOM     11  O   UNL     1       3.809 -18.346  17.836  1.00  0.00    -0.213 OA
ATOM     12  O   UNL     1       1.738 -18.419  19.275  1.00  0.00    -0.213 OA
ATOM     13  C   UNL     1       3.295 -16.297  19.405  1.00  0.00     0.176 C 
ENDBRANCH   7  10
BRANCH   6  14
ATOM     14  C   UNL     1       5.726 -20.168  22.616  1.00  0.00     0.153 C 
ATOM     15  C   UNL     1       6.952 -19.388  22.398  1.00  0.00     0.065 C 
ATOM     16  N   UNL     1       7.909 -18.757  22.218  1.00  0.00    -0.198 NA
ENDBRANCH   6  14
ENDBRANCH   1   6
BRANCH   4  17
ATOM     17  C   UNL     1       5.129 -25.246  21.858  1.00  0.00     0.012 A 
ATOM     18  C   UNL     1       6.248 -25.418  22.688  1.00  0.00     0.021 A 
ATOM     19  C   UNL     1       4.193 -26.302  21.698  1.00  0.00     0.010 A 
ATOM     20  C   UNL     1       6.450 -26.610  23.386  1.00  0.00     0.005 A 
ATOM     21  C   UNL     1       3.058 -26.257  20.856  1.00  0.00     0.012 A 
ATOM     22  C   UNL     1       4.395 -27.505  22.411  1.00  0.00     0.072 A 
ATOM     23  C   UNL     1       5.505 -27.633  23.234  1.00  0.00     0.039 A 
ATOM     24  C   UNL     1       2.192 -27.341  20.767  1.00  0.00     0.021 A 
ATOM     25  N   UNL     1       3.557 -28.553  22.331  1.00  0.00    -0.256 NA
ATOM     26  C   UNL     1       2.482 -28.456  21.522  1.00  0.00     0.112 A 
BRANCH  20  27
ATOM     27  C   UNL     1       7.619 -26.776  24.257  1.00  0.00     0.092 A 
ATOM     28  C   UNL     1       8.624 -25.820  24.580  1.00  0.00     0.050 A 
ATOM     29  N   UNL     1       7.869 -27.939  24.884  1.00  0.00    -0.176 NA
ATOM     30  C   UNL     1       9.492 -26.463  25.428  1.00  0.00     0.106 A 
ATOM     31  N   UNL     1       8.996 -27.722  25.575  1.00  0.00    -0.285 N 
ATOM     32  H   UNL     1       9.372 -28.483  26.131  1.00  0.00     0.189 HD
ENDBRANCH  20  27
ENDBRANCH   4  17
TORSDOF 5
ENDMDL
