MODEL 8
REMARK VINA RESULT:    -8.024      2.391      4.536
REMARK INTER + INTRA:         -11.572
REMARK INTER:                 -10.733
REMARK INTRA:                  -0.838
REMARK UNBOUND:                -0.499
REMARK SMILES N=C(N)c1cccc(-n2cncc2C(=O)Nc2ccc(-c3ccccc3S(N)(=O)=O)cc2)c1
REMARK SMILES IDX 17 1 18 2 19 3 20 4 31 5 32 6 16 7 14 8 15 9 13 11 9 12
REMARK SMILES IDX 10 13 11 14 12 15 8 16 4 17 5 18 33 19 6 20 7 21 2 22 1 23
REMARK SMILES IDX 3 24 21 28 22 29 26 30 23 31 25 32 24 33 27 34 29 35 30 36
REMARK SMILES IDX 28 37
REMARK H PARENT 16 10 1 25 3 26 3 27 28 38 28 39
ROOT
ATOM      1  C   UNL     1      -4.790   9.951  21.113  1.00  0.00     0.041 A 
ATOM      2  C   UNL     1      -4.204   9.765  19.862  1.00  0.00     0.027 A 
ATOM      3  C   UNL     1      -4.999   9.525  18.735  1.00  0.00     0.011 A 
ATOM      4  C   UNL     1      -6.395   9.468  18.833  1.00  0.00    -0.017 A 
ATOM      5  C   UNL     1      -6.977   9.643  20.094  1.00  0.00     0.011 A 
ATOM      6  C   UNL     1      -6.185   9.888  21.220  1.00  0.00     0.027 A 
ENDROOT
BRANCH   1   7
ATOM      7  N   UNL     1      -4.071  10.228  22.293  1.00  0.00    -0.321 N 
ATOM      8  C   UNL     1      -3.414  11.397  22.632  1.00  0.00     0.274 C 
ATOM      9  O   UNL     1      -3.245  12.358  21.891  1.00  0.00    -0.267 OA
ATOM     10  H   UNL     1      -4.041   9.479  22.972  1.00  0.00     0.170 HD
BRANCH   8  11
ATOM     11  C   UNL     1      -2.864  11.378  23.966  1.00  0.00     0.131 A 
ATOM     12  N   UNL     1      -3.275  12.057  25.107  1.00  0.00    -0.295 N 
ATOM     13  C   UNL     1      -2.494  11.562  26.133  1.00  0.00     0.205 A 
ATOM     14  N   UNL     1      -1.588  10.707  25.720  1.00  0.00    -0.244 NA
ATOM     15  C   UNL     1      -1.780  10.623  24.373  1.00  0.00     0.145 A 
BRANCH  12  16
ATOM     16  C   UNL     1      -4.267  13.075  25.246  1.00  0.00     0.048 A 
ATOM     17  C   UNL     1      -6.514  13.900  24.797  1.00  0.00     0.018 A 
ATOM     18  C   UNL     1      -6.235  15.056  25.531  1.00  0.00     0.012 A 
ATOM     19  C   UNL     1      -5.535  12.903  24.665  1.00  0.00     0.038 A 
ATOM     20  C   UNL     1      -4.983  15.224  26.120  1.00  0.00     0.003 A 
ATOM     21  C   UNL     1      -4.005  14.237  25.984  1.00  0.00     0.027 A 
BRANCH  17  22
ATOM     22  C   UNL     1      -7.861  13.734  24.173  1.00  0.00     0.122 C 
ATOM     23  N   UNL     1      -8.219  12.572  23.737  1.00  0.00    -0.284 NA
ATOM     24  N   UNL     1      -8.716  14.795  24.070  1.00  0.00    -0.384 N 
ATOM     25  H   UNL     1      -9.144  12.622  23.310  1.00  0.00     0.189 HD
ATOM     26  H   UNL     1      -9.685  14.553  23.897  1.00  0.00     0.158 HD
ATOM     27  H   UNL     1      -8.641  15.494  24.801  1.00  0.00     0.158 HD
ENDBRANCH  17  22
ENDBRANCH  12  16
ENDBRANCH   8  11
ENDBRANCH   1   7
BRANCH   4  28
ATOM     28  C   UNL     1      -7.222   9.218  17.645  1.00  0.00     0.002 A 
ATOM     29  C   UNL     1      -7.872  10.312  17.040  1.00  0.00     0.010 A 
ATOM     30  C   UNL     1      -7.400   7.945  17.068  1.00  0.00     0.090 A 
ATOM     31  C   UNL     1      -8.663  10.148  15.901  1.00  0.00     0.001 A 
ATOM     32  C   UNL     1      -8.195   7.783  15.921  1.00  0.00     0.022 A 
ATOM     33  C   UNL     1      -8.822   8.884  15.341  1.00  0.00     0.001 A 
BRANCH  30  34
ATOM     34  S   UNL     1      -6.630   6.528  17.804  1.00  0.00     0.238 S 
ATOM     35  O   UNL     1      -7.055   6.411  19.180  1.00  0.00    -0.207 OA
ATOM     36  O   UNL     1      -5.246   6.484  17.393  1.00  0.00    -0.207 OA
BRANCH  34  37
ATOM     37  N   UNL     1      -7.342   5.202  17.042  1.00  0.00    -0.225 NA
ATOM     38  H   UNL     1      -8.328   5.411  16.870  1.00  0.00     0.137 HD
ATOM     39  H   UNL     1      -6.817   4.994  16.191  1.00  0.00     0.137 HD
ENDBRANCH  34  37
ENDBRANCH  30  34
ENDBRANCH   4  28
TORSDOF 7
ENDMDL
