REMARK SMILES COc1ccc2c(c1)CC/C(=C\c1ccc(CN(C)Cc3ccccc3)cc1)C2=O
REMARK SMILES IDX 13 1 14 2 15 3 16 4 27 5 28 6 12 7 3 8 4 9 8 10 5 11 7 12
REMARK SMILES IDX 6 13 9 14 29 15 10 16 11 17 30 18 2 19 1 20 17 21 18 22
REMARK SMILES IDX 19 23 20 24 21 25 22 26 26 27 23 28 25 29 24 30
REMARK H PARENT
REMARK INDEX MAP 13 1 14 2 15 3 16 4 27 5 28 6 12 7 3 8 4 9 8 10 5 11 7 12
REMARK INDEX MAP 6 13 9 14 29 15 10 16 11 17 30 18 2 19 1 20 17 21 18 22 19 23
REMARK INDEX MAP 20 24 21 25 22 26 26 27 23 28 25 29 24 30
ROOT
ATOM      1  C   UNL     1     134.394 111.702  39.170  1.00  0.00    -0.025 A 
ATOM      2  C   UNL     1     133.434 112.714  39.091  1.00  0.00     0.008 A 
ATOM      3  C   UNL     1     132.949 113.313  40.256  1.00  0.00     0.005 A 
ATOM      4  C   UNL     1     133.414 112.904  41.516  1.00  0.00    -0.034 A 
ATOM      5  C   UNL     1     134.379 111.890  41.587  1.00  0.00     0.005 A 
ATOM      6  C   UNL     1     134.864 111.292  40.421  1.00  0.00     0.008 A 
ENDROOT
BRANCH   1   7
ATOM      7  C   UNL     1     134.916 111.087  37.950  1.00  0.00     0.015 C 
ATOM      8  C   UNL     1     140.693 109.409  35.635  1.00  0.00     0.119 A 
ATOM      9  C   UNL     1     139.712 108.898  34.785  1.00  0.00     0.047 A 
ATOM     10  C   UNL     1     140.308 110.109  36.784  1.00  0.00     0.050 A 
ATOM     11  C   UNL     1     138.359 109.089  35.081  1.00  0.00     0.016 A 
ATOM     12  C   UNL     1     138.954 110.294  37.101  1.00  0.00    -0.033 A 
ATOM     13  C   UNL     1     137.977 109.784  36.234  1.00  0.00     0.026 A 
ATOM     14  C   UNL     1     138.564 111.079  38.323  1.00  0.00     0.041 C 
ATOM     15  C   UNL     1     136.528 109.989  36.507  1.00  0.00     0.189 C 
ATOM     16  C   UNL     1     137.230 110.592  38.884  1.00  0.00     0.044 C 
ATOM     17  C   UNL     1     136.164 110.598  37.826  1.00  0.00     0.001 C 
ATOM     18  O   UNL     1     135.684 109.663  35.680  1.00  0.00    -0.289 OA
BRANCH   8  19
ATOM     19  O   UNL     1     142.044 109.300  35.461  1.00  0.00    -0.497 OA
ATOM     20  C   UNL     1     142.499 108.938  34.163  1.00  0.00     0.278 C 
ENDBRANCH   8  19
ENDBRANCH   1   7
BRANCH   4  21
ATOM     21  C   UNL     1     132.892 113.567  42.775  1.00  0.00     0.120 C 
BRANCH  21  22
ATOM     22  N   UNL     1     132.191 114.841  42.517  1.00  0.00    -0.298 NA
ATOM     23  C   UNL     1     130.939 114.913  43.278  1.00  0.00     0.106 C 
BRANCH  22  24
ATOM     24  C   UNL     1     133.045 115.992  42.866  1.00  0.00     0.120 C 
BRANCH  24  25
ATOM     25  C   UNL     1     133.320 116.916  41.697  1.00  0.00    -0.034 A 
ATOM     26  C   UNL     1     133.582 116.396  40.422  1.00  0.00     0.005 A 
ATOM     27  C   UNL     1     133.341 118.307  41.879  1.00  0.00     0.005 A 
ATOM     28  C   UNL     1     133.850 117.251  39.350  1.00  0.00     0.000 A 
ATOM     29  C   UNL     1     133.608 119.160  40.807  1.00  0.00     0.000 A 
ATOM     30  C   UNL     1     133.863 118.631  39.544  1.00  0.00     0.000 A 
ENDBRANCH  24  25
ENDBRANCH  22  24
ENDBRANCH  21  22
ENDBRANCH   4  21
TORSDOF 6
