REMARK VINA RESULT:    -8.322      0.000      0.000
REMARK INTER + INTRA:         -11.346
REMARK INTER:                 -11.241
REMARK INTRA:                  -0.105
REMARK UNBOUND:                -0.105
REMARK SMILES NCCCn1c2ccc(C(N)=O)cc2nc1[C@H]1CC[C@H](O)CC1
REMARK SMILES IDX 4 1 3 2 2 3 1 4 5 7 6 8 16 9 7 10 14 11 15 12 8 13 13 14
REMARK SMILES IDX 9 15 17 16 23 17 18 18 22 19 19 20 20 21 21 22 10 24 11 25
REMARK SMILES IDX 12 26
REMARK H PARENT 1 5 1 6 21 23 11 27 11 28
ROOT
ATOM      1  C   UNL     1      -3.031  22.821 -30.535  1.00  0.00     0.125 C 
ENDROOT
BRANCH   1   2
ATOM      2  C   UNL     1      -4.055  21.726 -30.247  1.00  0.00     0.037 C 
BRANCH   2   3
ATOM      3  C   UNL     1      -4.658  21.120 -31.513  1.00  0.00     0.079 C 
BRANCH   3   4
ATOM      4  N   UNL     1      -4.460  19.678 -31.579  1.00  0.00    -0.330 NA
ATOM      5  H   UNL     1      -3.499  19.486 -31.867  1.00  0.00     0.118 HD
ATOM      6  H   UNL     1      -5.043  19.271 -32.309  1.00  0.00     0.118 HD
ENDBRANCH   3   4
ENDBRANCH   2   3
ENDBRANCH   1   2
BRANCH   1   7
ATOM      7  N   UNL     1      -3.100  23.902 -29.565  1.00  0.00    -0.328 N 
ATOM      8  C   UNL     1      -2.675  23.816 -28.256  1.00  0.00     0.068 A 
ATOM      9  C   UNL     1      -3.608  25.168 -29.771  1.00  0.00     0.112 A 
ATOM     10  C   UNL     1      -2.062  22.800 -27.513  1.00  0.00     0.029 A 
ATOM     11  C   UNL     1      -2.981  25.059 -27.716  1.00  0.00     0.090 A 
ATOM     12  N   UNL     1      -3.561  25.870 -28.655  1.00  0.00    -0.233 NA
ATOM     13  C   UNL     1      -1.769  23.079 -26.173  1.00  0.00     0.016 A 
ATOM     14  C   UNL     1      -2.683  25.327 -26.375  1.00  0.00     0.044 A 
ATOM     15  C   UNL     1      -2.085  24.320 -25.601  1.00  0.00     0.041 A 
BRANCH   9  16
ATOM     16  C   UNL     1      -4.151  25.672 -31.080  1.00  0.00     0.056 C 
ATOM     17  C   UNL     1      -5.204  24.696 -31.628  1.00  0.00     0.014 C 
ATOM     18  C   UNL     1      -4.745  27.082 -30.921  1.00  0.00     0.014 C 
ATOM     19  C   UNL     1      -5.818  25.203 -32.928  1.00  0.00     0.032 C 
ATOM     20  C   UNL     1      -5.350  27.582 -32.229  1.00  0.00     0.032 C 
ATOM     21  C   UNL     1      -6.393  26.610 -32.774  1.00  0.00     0.114 C 
BRANCH  21  22
ATOM     22  O   UNL     1      -6.830  27.081 -34.044  1.00  0.00    -0.393 OA
ATOM     23  H   UNL     1      -6.695  28.044 -34.058  1.00  0.00     0.210 HD
ENDBRANCH  21  22
ENDBRANCH   9  16
BRANCH  15  24
ATOM     24  C   UNL     1      -1.782  24.630 -24.179  1.00  0.00     0.248 C 
ATOM     25  N   UNL     1      -2.581  25.540 -23.545  1.00  0.00    -0.366 N 
ATOM     26  O   UNL     1      -0.836  24.117 -23.595  1.00  0.00    -0.270 OA
ATOM     27  H   UNL     1      -2.358  25.751 -22.581  1.00  0.00     0.159 HD
ATOM     28  H   UNL     1      -3.312  26.067 -23.996  1.00  0.00     0.159 HD
ENDBRANCH  15  24
ENDBRANCH   1   7
TORSDOF 7
