MODEL 1
REMARK VINA RESULT:    -8.746      0.000      0.000
REMARK INTER + INTRA:         -12.054
REMARK INTER:                 -10.791
REMARK INTRA:                  -1.263
REMARK UNBOUND:                -1.263
REMARK SMILES O=c1cc(N2CCOCC2)nc(Cc2nc3ccccc3n2C2CCCCC2)[nH]1
REMARK SMILES IDX 13 1 12 2 1 3 2 4 3 5 29 6 4 7 11 8 5 10 6 11 10 12 7 13
REMARK SMILES IDX 9 14 8 15 14 16 15 17 22 18 16 19 21 20 17 21 20 22 18 23
REMARK SMILES IDX 19 24 23 25 24 26 28 27 25 28 27 29 26 30
REMARK H PARENT 29 9
ROOT
ATOM      1  C   UNL     1     -17.979   9.652  27.856  1.00  0.00     0.150 C 
ENDROOT
BRANCH   1   2
ATOM      2  C   UNL     1     -16.806  10.437  27.301  1.00  0.00     0.118 A 
ATOM      3  O   UNL     1     -14.339   9.956  24.860  1.00  0.00    -0.269 OA
ATOM      4  C   UNL     1     -15.004  10.459  25.758  1.00  0.00     0.252 A 
ATOM      5  C   UNL     1     -14.623  11.731  26.372  1.00  0.00     0.118 A 
ATOM      6  N   UNL     1     -16.124   9.882  26.258  1.00  0.00    -0.310 N 
ATOM      7  C   UNL     1     -15.364  12.246  27.377  1.00  0.00     0.136 A 
ATOM      8  N   UNL     1     -16.443  11.542  27.874  1.00  0.00    -0.217 NA
ATOM      9  H   UNL     1     -16.450   9.053  25.788  1.00  0.00     0.171 HD
BRANCH   7  10
ATOM     10  N   UNL     1     -15.052  13.499  27.953  1.00  0.00    -0.352 N 
ATOM     11  C   UNL     1     -13.635  13.954  27.870  1.00  0.00     0.146 C 
ATOM     12  C   UNL     1     -15.692  13.968  29.210  1.00  0.00     0.146 C 
ATOM     13  C   UNL     1     -13.498  15.457  28.167  1.00  0.00     0.181 C 
ATOM     14  C   UNL     1     -15.452  15.470  29.448  1.00  0.00     0.181 C 
ATOM     15  O   UNL     1     -14.055  15.793  29.445  1.00  0.00    -0.378 OA
ENDBRANCH   7  10
ENDBRANCH   1   2
BRANCH   1  16
ATOM     16  C   UNL     1     -19.195   9.820  27.002  1.00  0.00     0.117 A 
ATOM     17  N   UNL     1     -19.405   9.132  25.899  1.00  0.00    -0.233 NA
ATOM     18  N   UNL     1     -20.229  10.715  27.221  1.00  0.00    -0.324 N 
ATOM     19  C   UNL     1     -20.608   9.550  25.403  1.00  0.00     0.089 A 
ATOM     20  C   UNL     1     -21.164  10.528  26.215  1.00  0.00     0.068 A 
ATOM     21  C   UNL     1     -21.292   9.123  24.252  1.00  0.00     0.030 A 
ATOM     22  C   UNL     1     -22.411  11.108  25.932  1.00  0.00     0.028 A 
ATOM     23  C   UNL     1     -22.533   9.696  23.950  1.00  0.00     0.002 A 
ATOM     24  C   UNL     1     -23.083  10.672  24.782  1.00  0.00     0.002 A 
BRANCH  18  25
ATOM     25  C   UNL     1     -20.375  11.681  28.308  1.00  0.00     0.089 C 
ATOM     26  C   UNL     1     -20.052  13.113  27.860  1.00  0.00     0.025 C 
ATOM     27  C   UNL     1     -21.710  11.558  29.072  1.00  0.00     0.025 C 
ATOM     28  C   UNL     1     -20.062  14.102  29.026  1.00  0.00     0.002 C 
ATOM     29  C   UNL     1     -22.198  12.894  29.639  1.00  0.00     0.002 C 
ATOM     30  C   UNL     1     -21.037  13.736  30.147  1.00  0.00     0.000 C 
ENDBRANCH  18  25
ENDBRANCH   1  16
TORSDOF 4
ENDMDL
MODEL 2
REMARK VINA RESULT:    -8.500      3.625      6.663
REMARK INTER + INTRA:         -11.751
REMARK INTER:                 -10.826
REMARK INTRA:                  -0.926
REMARK UNBOUND:                -1.263
REMARK SMILES O=c1cc(N2CCOCC2)nc(Cc2nc3ccccc3n2C2CCCCC2)[nH]1
REMARK SMILES IDX 13 1 12 2 1 3 2 4 3 5 29 6 4 7 11 8 5 10 6 11 10 12 7 13
REMARK SMILES IDX 9 14 8 15 14 16 15 17 22 18 16 19 21 20 17 21 20 22 18 23
REMARK SMILES IDX 19 24 23 25 24 26 28 27 25 28 27 29 26 30
REMARK H PARENT 29 9
ROOT
ATOM      1  C   UNL     1     -19.476  13.997  28.551  1.00  0.00     0.150 C 
ENDROOT
BRANCH   1   2
ATOM      2  C   UNL     1     -19.924  14.172  29.989  1.00  0.00     0.118 A 
ATOM      3  O   UNL     1     -22.243  12.666  32.140  1.00  0.00    -0.269 OA
ATOM      4  C   UNL     1     -21.376  13.415  31.706  1.00  0.00     0.252 A 
ATOM      5  C   UNL     1     -20.856  14.528  32.500  1.00  0.00     0.118 A 
ATOM      6  N   UNL     1     -20.842  13.283  30.467  1.00  0.00    -0.310 N 
ATOM      7  C   UNL     1     -19.918  15.350  31.981  1.00  0.00     0.136 A 
ATOM      8  N   UNL     1     -19.496  15.183  30.677  1.00  0.00    -0.217 NA
ATOM      9  H   UNL     1     -21.123  12.471  29.940  1.00  0.00     0.171 HD
BRANCH   7  10
ATOM     10  N   UNL     1     -19.358  16.400  32.744  1.00  0.00    -0.352 N 
ATOM     11  C   UNL     1     -20.297  17.419  33.294  1.00  0.00     0.146 C 
ATOM     12  C   UNL     1     -18.047  17.010  32.399  1.00  0.00     0.146 C 
ATOM     13  C   UNL     1     -19.642  18.262  34.401  1.00  0.00     0.181 C 
ATOM     14  C   UNL     1     -17.501  17.878  33.547  1.00  0.00     0.181 C 
ATOM     15  O   UNL     1     -18.438  18.890  33.941  1.00  0.00    -0.378 OA
ENDBRANCH   7  10
ENDBRANCH   1   2
BRANCH   1  16
ATOM     16  C   UNL     1     -18.728  12.716  28.368  1.00  0.00     0.117 A 
ATOM     17  N   UNL     1     -19.313  11.537  28.316  1.00  0.00    -0.233 NA
ATOM     18  N   UNL     1     -17.353  12.581  28.261  1.00  0.00    -0.324 N 
ATOM     19  C   UNL     1     -18.319  10.617  28.137  1.00  0.00     0.089 A 
ATOM     20  C   UNL     1     -17.078  11.235  28.077  1.00  0.00     0.068 A 
ATOM     21  C   UNL     1     -18.412   9.220  28.009  1.00  0.00     0.030 A 
ATOM     22  C   UNL     1     -15.894  10.507  27.879  1.00  0.00     0.028 A 
ATOM     23  C   UNL     1     -17.241   8.478  27.817  1.00  0.00     0.002 A 
ATOM     24  C   UNL     1     -16.001   9.115  27.751  1.00  0.00     0.002 A 
BRANCH  18  25
ATOM     25  C   UNL     1     -16.336  13.629  28.300  1.00  0.00     0.089 C 
ATOM     26  C   UNL     1     -16.044  14.104  29.730  1.00  0.00     0.025 C 
ATOM     27  C   UNL     1     -15.066  13.292  27.489  1.00  0.00     0.025 C 
ATOM     28  C   UNL     1     -15.089  15.298  29.762  1.00  0.00     0.002 C 
ATOM     29  C   UNL     1     -13.801  13.928  28.070  1.00  0.00     0.002 C 
ATOM     30  C   UNL     1     -14.082  15.323  28.610  1.00  0.00     0.000 C 
ENDBRANCH  18  25
ENDBRANCH   1  16
TORSDOF 4
ENDMDL
MODEL 3
REMARK VINA RESULT:    -8.338      2.596      8.032
REMARK INTER + INTRA:         -11.551
REMARK INTER:                 -11.311
REMARK INTRA:                  -0.240
REMARK UNBOUND:                -1.263
REMARK SMILES O=c1cc(N2CCOCC2)nc(Cc2nc3ccccc3n2C2CCCCC2)[nH]1
REMARK SMILES IDX 13 1 12 2 1 3 2 4 3 5 29 6 4 7 11 8 5 10 6 11 10 12 7 13
REMARK SMILES IDX 9 14 8 15 14 16 15 17 22 18 16 19 21 20 17 21 20 22 18 23
REMARK SMILES IDX 19 24 23 25 24 26 28 27 25 28 27 29 26 30
REMARK H PARENT 29 9
ROOT
ATOM      1  C   UNL     1     -18.292  11.057  28.533  1.00  0.00     0.150 C 
ENDROOT
BRANCH   1   2
ATOM      2  C   UNL     1     -19.591  11.584  27.955  1.00  0.00     0.118 A 
ATOM      3  O   UNL     1     -22.025  13.932  28.874  1.00  0.00    -0.269 OA
ATOM      4  C   UNL     1     -21.421  13.066  28.252  1.00  0.00     0.252 A 
ATOM      5  C   UNL     1     -21.979  12.460  27.043  1.00  0.00     0.118 A 
ATOM      6  N   UNL     1     -20.209  12.595  28.634  1.00  0.00    -0.310 N 
ATOM      7  C   UNL     1     -21.298  11.490  26.395  1.00  0.00     0.136 A 
ATOM      8  N   UNL     1     -20.107  11.019  26.909  1.00  0.00    -0.217 NA
ATOM      9  H   UNL     1     -19.770  13.061  29.412  1.00  0.00     0.171 HD
BRANCH   7  10
ATOM     10  N   UNL     1     -21.787  10.925  25.195  1.00  0.00    -0.352 N 
ATOM     11  C   UNL     1     -22.979  10.035  25.296  1.00  0.00     0.146 C 
ATOM     12  C   UNL     1     -20.876  10.480  24.108  1.00  0.00     0.146 C 
ATOM     13  C   UNL     1     -23.639   9.806  23.925  1.00  0.00     0.181 C 
ATOM     14  C   UNL     1     -21.637  10.223  22.794  1.00  0.00     0.181 C 
ATOM     15  O   UNL     1     -22.704   9.281  22.972  1.00  0.00    -0.378 OA
ENDBRANCH   7  10
ENDBRANCH   1   2
BRANCH   1  16
ATOM     16  C   UNL     1     -17.206  12.080  28.445  1.00  0.00     0.117 A 
ATOM     17  N   UNL     1     -17.280  13.265  29.014  1.00  0.00    -0.233 NA
ATOM     18  N   UNL     1     -16.014  11.948  27.752  1.00  0.00    -0.324 N 
ATOM     19  C   UNL     1     -16.111  13.911  28.724  1.00  0.00     0.089 A 
ATOM     20  C   UNL     1     -15.283  13.109  27.951  1.00  0.00     0.068 A 
ATOM     21  C   UNL     1     -15.687  15.196  29.101  1.00  0.00     0.030 A 
ATOM     22  C   UNL     1     -14.012  13.536  27.535  1.00  0.00     0.028 A 
ATOM     23  C   UNL     1     -14.425  15.642  28.690  1.00  0.00     0.002 A 
ATOM     24  C   UNL     1     -13.601  14.820  27.920  1.00  0.00     0.002 A 
BRANCH  18  25
ATOM     25  C   UNL     1     -15.548  10.810  26.963  1.00  0.00     0.089 C 
ATOM     26  C   UNL     1     -16.627  10.284  26.007  1.00  0.00     0.025 C 
ATOM     27  C   UNL     1     -14.181  11.043  26.284  1.00  0.00     0.025 C 
ATOM     28  C   UNL     1     -16.193   9.006  25.288  1.00  0.00     0.002 C 
ATOM     29  C   UNL     1     -14.033  10.282  24.964  1.00  0.00     0.002 C 
ATOM     30  C   UNL     1     -14.685   8.910  25.042  1.00  0.00     0.000 C 
ENDBRANCH  18  25
ENDBRANCH   1  16
TORSDOF 4
ENDMDL
MODEL 4
REMARK VINA RESULT:    -8.336      2.521      6.700
REMARK INTER + INTRA:         -11.549
REMARK INTER:                 -10.459
REMARK INTRA:                  -1.090
REMARK UNBOUND:                -1.263
REMARK SMILES O=c1cc(N2CCOCC2)nc(Cc2nc3ccccc3n2C2CCCCC2)[nH]1
REMARK SMILES IDX 13 1 12 2 1 3 2 4 3 5 29 6 4 7 11 8 5 10 6 11 10 12 7 13
REMARK SMILES IDX 9 14 8 15 14 16 15 17 22 18 16 19 21 20 17 21 20 22 18 23
REMARK SMILES IDX 19 24 23 25 24 26 28 27 25 28 27 29 26 30
REMARK H PARENT 29 9
ROOT
ATOM      1  C   UNL     1     -18.761  10.919  28.396  1.00  0.00     0.150 C 
ENDROOT
BRANCH   1   2
ATOM      2  C   UNL     1     -18.712   9.883  27.289  1.00  0.00     0.118 A 
ATOM      3  O   UNL     1     -16.616   7.230  26.371  1.00  0.00    -0.269 OA
ATOM      4  C   UNL     1     -17.532   8.043  26.365  1.00  0.00     0.252 A 
ATOM      5  C   UNL     1     -18.497   8.104  25.267  1.00  0.00     0.118 A 
ATOM      6  N   UNL     1     -17.719   8.949  27.356  1.00  0.00    -0.310 N 
ATOM      7  C   UNL     1     -19.481   9.030  25.280  1.00  0.00     0.136 A 
ATOM      8  N   UNL     1     -19.539   9.964  26.295  1.00  0.00    -0.217 NA
ATOM      9  H   UNL     1     -17.120   8.864  28.161  1.00  0.00     0.171 HD
BRANCH   7  10
ATOM     10  N   UNL     1     -20.459   9.078  24.261  1.00  0.00    -0.352 N 
ATOM     11  C   UNL     1     -20.881  10.425  23.783  1.00  0.00     0.146 C 
ATOM     12  C   UNL     1     -21.588   8.113  24.209  1.00  0.00     0.146 C 
ATOM     13  C   UNL     1     -21.630  10.348  22.443  1.00  0.00     0.181 C 
ATOM     14  C   UNL     1     -22.310   8.150  22.849  1.00  0.00     0.181 C 
ATOM     15  O   UNL     1     -22.762   9.471  22.522  1.00  0.00    -0.378 OA
ENDBRANCH   7  10
ENDBRANCH   1   2
BRANCH   1  16
ATOM     16  C   UNL     1     -17.592  11.848  28.321  1.00  0.00     0.117 A 
ATOM     17  N   UNL     1     -16.443  11.522  27.769  1.00  0.00    -0.233 NA
ATOM     18  N   UNL     1     -17.538  13.135  28.830  1.00  0.00    -0.324 N 
ATOM     19  C   UNL     1     -15.631  12.615  27.882  1.00  0.00     0.089 A 
ATOM     20  C   UNL     1     -16.290  13.654  28.524  1.00  0.00     0.068 A 
ATOM     21  C   UNL     1     -14.307  12.790  27.445  1.00  0.00     0.030 A 
ATOM     22  C   UNL     1     -15.678  14.898  28.747  1.00  0.00     0.028 A 
ATOM     23  C   UNL     1     -13.678  14.022  27.665  1.00  0.00     0.002 A 
ATOM     24  C   UNL     1     -14.357  15.059  28.305  1.00  0.00     0.002 A 
BRANCH  18  25
ATOM     25  C   UNL     1     -18.582  13.871  29.542  1.00  0.00     0.089 C 
ATOM     26  C   UNL     1     -19.852  14.040  28.699  1.00  0.00     0.025 C 
ATOM     27  C   UNL     1     -18.851  13.343  30.967  1.00  0.00     0.025 C 
ATOM     28  C   UNL     1     -20.889  14.933  29.383  1.00  0.00     0.002 C 
ATOM     29  C   UNL     1     -20.301  13.543  31.413  1.00  0.00     0.002 C 
ATOM     30  C   UNL     1     -20.856  14.868  30.911  1.00  0.00     0.000 C 
ENDBRANCH  18  25
ENDBRANCH   1  16
TORSDOF 4
ENDMDL
MODEL 5
REMARK VINA RESULT:    -7.959      1.033      3.653
REMARK INTER + INTRA:         -11.084
REMARK INTER:                 -10.516
REMARK INTRA:                  -0.567
REMARK UNBOUND:                -1.263
REMARK SMILES O=c1cc(N2CCOCC2)nc(Cc2nc3ccccc3n2C2CCCCC2)[nH]1
REMARK SMILES IDX 13 1 12 2 1 3 2 4 3 5 29 6 4 7 11 8 5 10 6 11 10 12 7 13
REMARK SMILES IDX 9 14 8 15 14 16 15 17 22 18 16 19 21 20 17 21 20 22 18 23
REMARK SMILES IDX 19 24 23 25 24 26 28 27 25 28 27 29 26 30
REMARK H PARENT 29 9
ROOT
ATOM      1  C   UNL     1     -18.072   9.444  26.738  1.00  0.00     0.150 C 
ENDROOT
BRANCH   1   2
ATOM      2  C   UNL     1     -16.799  10.236  26.511  1.00  0.00     0.118 A 
ATOM      3  O   UNL     1     -13.866   9.865  24.630  1.00  0.00    -0.269 OA
ATOM      4  C   UNL     1     -14.704  10.321  25.399  1.00  0.00     0.252 A 
ATOM      5  C   UNL     1     -14.454  11.534  26.175  1.00  0.00     0.118 A 
ATOM      6  N   UNL     1     -15.912   9.739  25.600  1.00  0.00    -0.310 N 
ATOM      7  C   UNL     1     -15.390  11.996  27.033  1.00  0.00     0.136 A 
ATOM      8  N   UNL     1     -16.557  11.286  27.230  1.00  0.00    -0.217 NA
ATOM      9  H   UNL     1     -16.137   8.954  25.010  1.00  0.00     0.171 HD
BRANCH   7  10
ATOM     10  N   UNL     1     -15.198  13.195  27.755  1.00  0.00    -0.352 N 
ATOM     11  C   UNL     1     -13.806  13.724  27.841  1.00  0.00     0.146 C 
ATOM     12  C   UNL     1     -15.964  13.500  28.992  1.00  0.00     0.146 C 
ATOM     13  C   UNL     1     -13.780  15.193  28.297  1.00  0.00     0.181 C 
ATOM     14  C   UNL     1     -15.830  14.979  29.398  1.00  0.00     0.181 C 
ATOM     15  O   UNL     1     -14.458  15.368  29.549  1.00  0.00    -0.378 OA
ENDBRANCH   7  10
ENDBRANCH   1   2
BRANCH   1  16
ATOM     16  C   UNL     1     -19.222  10.347  27.054  1.00  0.00     0.117 A 
ATOM     17  N   UNL     1     -19.248  11.147  28.099  1.00  0.00    -0.233 NA
ATOM     18  N   UNL     1     -20.401  10.449  26.334  1.00  0.00    -0.324 N 
ATOM     19  C   UNL     1     -20.441  11.811  28.051  1.00  0.00     0.089 A 
ATOM     20  C   UNL     1     -21.183  11.415  26.947  1.00  0.00     0.068 A 
ATOM     21  C   UNL     1     -20.954  12.783  28.927  1.00  0.00     0.030 A 
ATOM     22  C   UNL     1     -22.442  11.966  26.661  1.00  0.00     0.028 A 
ATOM     23  C   UNL     1     -22.212  13.338  28.661  1.00  0.00     0.002 A 
ATOM     24  C   UNL     1     -22.942  12.935  27.542  1.00  0.00     0.002 A 
BRANCH  18  25
ATOM     25  C   UNL     1     -20.792   9.720  25.129  1.00  0.00     0.089 C 
ATOM     26  C   UNL     1     -22.104   8.947  25.317  1.00  0.00     0.025 C 
ATOM     27  C   UNL     1     -20.757  10.577  23.846  1.00  0.00     0.025 C 
ATOM     28  C   UNL     1     -22.439   8.069  24.111  1.00  0.00     0.002 C 
ATOM     29  C   UNL     1     -21.791  10.137  22.807  1.00  0.00     0.002 C 
ATOM     30  C   UNL     1     -21.934   8.623  22.777  1.00  0.00     0.000 C 
ENDBRANCH  18  25
ENDBRANCH   1  16
TORSDOF 4
ENDMDL
MODEL 6
REMARK VINA RESULT:    -7.897      2.994      6.822
REMARK INTER + INTRA:         -11.007
REMARK INTER:                  -9.814
REMARK INTRA:                  -1.194
REMARK UNBOUND:                -1.263
REMARK SMILES O=c1cc(N2CCOCC2)nc(Cc2nc3ccccc3n2C2CCCCC2)[nH]1
REMARK SMILES IDX 13 1 12 2 1 3 2 4 3 5 29 6 4 7 11 8 5 10 6 11 10 12 7 13
REMARK SMILES IDX 9 14 8 15 14 16 15 17 22 18 16 19 21 20 17 21 20 22 18 23
REMARK SMILES IDX 19 24 23 25 24 26 28 27 25 28 27 29 26 30
REMARK H PARENT 29 9
ROOT
ATOM      1  C   UNL     1     -18.792   9.839  27.830  1.00  0.00     0.150 C 
ENDROOT
BRANCH   1   2
ATOM      2  C   UNL     1     -19.872  10.194  26.827  1.00  0.00     0.118 A 
ATOM      3  O   UNL     1     -20.054  10.803  23.381  1.00  0.00    -0.269 OA
ATOM      4  C   UNL     1     -20.372  10.673  24.557  1.00  0.00     0.252 A 
ATOM      5  C   UNL     1     -21.729  10.961  25.020  1.00  0.00     0.118 A 
ATOM      6  N   UNL     1     -19.503  10.268  25.515  1.00  0.00    -0.310 N 
ATOM      7  C   UNL     1     -22.040  10.832  26.328  1.00  0.00     0.136 A 
ATOM      8  N   UNL     1     -21.063  10.493  27.242  1.00  0.00    -0.217 NA
ATOM      9  H   UNL     1     -18.590   9.980  25.201  1.00  0.00     0.171 HD
BRANCH   7  10
ATOM     10  N   UNL     1     -23.356  11.051  26.796  1.00  0.00    -0.352 N 
ATOM     11  C   UNL     1     -24.015  12.329  26.404  1.00  0.00     0.146 C 
ATOM     12  C   UNL     1     -23.792  10.617  28.149  1.00  0.00     0.146 C 
ATOM     13  C   UNL     1     -25.535  12.282  26.630  1.00  0.00     0.181 C 
ATOM     14  C   UNL     1     -25.325  10.657  28.296  1.00  0.00     0.181 C 
ATOM     15  O   UNL     1     -25.855  11.954  27.990  1.00  0.00    -0.378 OA
ENDBRANCH   7  10
ENDBRANCH   1   2
BRANCH   1  16
ATOM     16  C   UNL     1     -17.737  10.897  27.888  1.00  0.00     0.117 A 
ATOM     17  N   UNL     1     -16.533  10.748  27.376  1.00  0.00    -0.233 NA
ATOM     18  N   UNL     1     -17.857  12.137  28.493  1.00  0.00    -0.324 N 
ATOM     19  C   UNL     1     -15.861  11.913  27.614  1.00  0.00     0.089 A 
ATOM     20  C   UNL     1     -16.665  12.817  28.294  1.00  0.00     0.068 A 
ATOM     21  C   UNL     1     -14.548  12.271  27.264  1.00  0.00     0.030 A 
ATOM     22  C   UNL     1     -16.213  14.100  28.641  1.00  0.00     0.028 A 
ATOM     23  C   UNL     1     -14.077  13.544  27.608  1.00  0.00     0.002 A 
ATOM     24  C   UNL     1     -14.901  14.444  28.284  1.00  0.00     0.002 A 
BRANCH  18  25
ATOM     25  C   UNL     1     -19.010  12.692  29.199  1.00  0.00     0.089 C 
ATOM     26  C   UNL     1     -18.633  13.250  30.578  1.00  0.00     0.025 C 
ATOM     27  C   UNL     1     -19.851  13.665  28.346  1.00  0.00     0.025 C 
ATOM     28  C   UNL     1     -19.858  13.697  31.378  1.00  0.00     0.002 C 
ATOM     29  C   UNL     1     -20.532  14.754  29.180  1.00  0.00     0.002 C 
ATOM     30  C   UNL     1     -21.015  14.206  30.515  1.00  0.00     0.000 C 
ENDBRANCH  18  25
ENDBRANCH   1  16
TORSDOF 4
ENDMDL
MODEL 7
REMARK VINA RESULT:    -7.849      2.745      5.267
REMARK INTER + INTRA:         -10.948
REMARK INTER:                 -10.509
REMARK INTRA:                  -0.439
REMARK UNBOUND:                -1.263
REMARK SMILES O=c1cc(N2CCOCC2)nc(Cc2nc3ccccc3n2C2CCCCC2)[nH]1
REMARK SMILES IDX 13 1 12 2 1 3 2 4 3 5 29 6 4 7 11 8 5 10 6 11 10 12 7 13
REMARK SMILES IDX 9 14 8 15 14 16 15 17 22 18 16 19 21 20 17 21 20 22 18 23
REMARK SMILES IDX 19 24 23 25 24 26 28 27 25 28 27 29 26 30
REMARK H PARENT 29 9
ROOT
ATOM      1  C   UNL     1     -17.046  12.167  28.792  1.00  0.00     0.150 C 
ENDROOT
BRANCH   1   2
ATOM      2  C   UNL     1     -16.767  13.561  29.321  1.00  0.00     0.118 A 
ATOM      3  O   UNL     1     -14.239  15.963  28.976  1.00  0.00    -0.269 OA
ATOM      4  C   UNL     1     -15.265  15.398  29.337  1.00  0.00     0.252 A 
ATOM      5  C   UNL     1     -16.152  15.986  30.340  1.00  0.00     0.118 A 
ATOM      6  N   UNL     1     -15.652  14.192  28.852  1.00  0.00    -0.310 N 
ATOM      7  C   UNL     1     -17.262  15.326  30.734  1.00  0.00     0.136 A 
ATOM      8  N   UNL     1     -17.528  14.063  30.242  1.00  0.00    -0.217 NA
ATOM      9  H   UNL     1     -15.102  13.814  28.097  1.00  0.00     0.171 HD
BRANCH   7  10
ATOM     10  N   UNL     1     -18.165  15.893  31.661  1.00  0.00    -0.352 N 
ATOM     11  C   UNL     1     -19.620  15.765  31.362  1.00  0.00     0.146 C 
ATOM     12  C   UNL     1     -17.873  17.170  32.363  1.00  0.00     0.146 C 
ATOM     13  C   UNL     1     -20.486  16.060  32.598  1.00  0.00     0.181 C 
ATOM     14  C   UNL     1     -18.827  17.403  33.549  1.00  0.00     0.181 C 
ATOM     15  O   UNL     1     -20.202  17.356  33.143  1.00  0.00    -0.378 OA
ENDBRANCH   7  10
ENDBRANCH   1   2
BRANCH   1  16
ATOM     16  C   UNL     1     -18.446  12.054  28.278  1.00  0.00     0.117 A 
ATOM     17  N   UNL     1     -19.367  12.973  28.478  1.00  0.00    -0.233 NA
ATOM     18  N   UNL     1     -18.970  10.987  27.568  1.00  0.00    -0.324 N 
ATOM     19  C   UNL     1     -20.503  12.527  27.862  1.00  0.00     0.089 A 
ATOM     20  C   UNL     1     -20.287  11.294  27.263  1.00  0.00     0.068 A 
ATOM     21  C   UNL     1     -21.764  13.138  27.772  1.00  0.00     0.030 A 
ATOM     22  C   UNL     1     -21.296  10.629  26.548  1.00  0.00     0.028 A 
ATOM     23  C   UNL     1     -22.784  12.487  27.068  1.00  0.00     0.002 A 
ATOM     24  C   UNL     1     -22.549  11.251  26.463  1.00  0.00     0.002 A 
BRANCH  18  25
ATOM     25  C   UNL     1     -18.300   9.753  27.161  1.00  0.00     0.089 C 
ATOM     26  C   UNL     1     -17.184  10.008  26.139  1.00  0.00     0.025 C 
ATOM     27  C   UNL     1     -17.863   8.865  28.345  1.00  0.00     0.025 C 
ATOM     28  C   UNL     1     -16.580   8.709  25.603  1.00  0.00     0.002 C 
ATOM     29  C   UNL     1     -16.607   8.044  28.043  1.00  0.00     0.002 C 
ATOM     30  C   UNL     1     -16.601   7.552  26.603  1.00  0.00     0.000 C 
ENDBRANCH  18  25
ENDBRANCH   1  16
TORSDOF 4
ENDMDL
MODEL 8
REMARK VINA RESULT:    -7.844      4.423      8.204
REMARK INTER + INTRA:         -10.941
REMARK INTER:                 -10.432
REMARK INTRA:                  -0.509
REMARK UNBOUND:                -1.263
REMARK SMILES O=c1cc(N2CCOCC2)nc(Cc2nc3ccccc3n2C2CCCCC2)[nH]1
REMARK SMILES IDX 13 1 12 2 1 3 2 4 3 5 29 6 4 7 11 8 5 10 6 11 10 12 7 13
REMARK SMILES IDX 9 14 8 15 14 16 15 17 22 18 16 19 21 20 17 21 20 22 18 23
REMARK SMILES IDX 19 24 23 25 24 26 28 27 25 28 27 29 26 30
REMARK H PARENT 29 9
ROOT
ATOM      1  C   UNL     1     -20.746  14.635  29.921  1.00  0.00     0.150 C 
ENDROOT
BRANCH   1   2
ATOM      2  C   UNL     1     -21.485  13.312  29.989  1.00  0.00     0.118 A 
ATOM      3  O   UNL     1     -22.184  10.663  27.805  1.00  0.00    -0.269 OA
ATOM      4  C   UNL     1     -22.155  11.366  28.809  1.00  0.00     0.252 A 
ATOM      5  C   UNL     1     -22.904  11.013  30.014  1.00  0.00     0.118 A 
ATOM      6  N   UNL     1     -21.446  12.520  28.880  1.00  0.00    -0.310 N 
ATOM      7  C   UNL     1     -22.870  11.823  31.095  1.00  0.00     0.136 A 
ATOM      8  N   UNL     1     -22.184  13.020  31.041  1.00  0.00    -0.217 NA
ATOM      9  H   UNL     1     -20.855  12.733  28.092  1.00  0.00     0.171 HD
BRANCH   7  10
ATOM     10  N   UNL     1     -23.538  11.481  32.292  1.00  0.00    -0.352 N 
ATOM     11  C   UNL     1     -23.772  12.573  33.279  1.00  0.00     0.146 C 
ATOM     12  C   UNL     1     -23.312  10.180  32.976  1.00  0.00     0.146 C 
ATOM     13  C   UNL     1     -24.824  12.180  34.329  1.00  0.00     0.181 C 
ATOM     14  C   UNL     1     -24.383   9.903  34.047  1.00  0.00     0.181 C 
ATOM     15  O   UNL     1     -24.466  10.966  35.005  1.00  0.00    -0.378 OA
ENDBRANCH   7  10
ENDBRANCH   1   2
BRANCH   1  16
ATOM     16  C   UNL     1     -19.270  14.424  29.803  1.00  0.00     0.117 A 
ATOM     17  N   UNL     1     -18.711  13.752  28.819  1.00  0.00    -0.233 NA
ATOM     18  N   UNL     1     -18.309  14.865  30.698  1.00  0.00    -0.324 N 
ATOM     19  C   UNL     1     -17.364  13.779  29.045  1.00  0.00     0.089 A 
ATOM     20  C   UNL     1     -17.071  14.485  30.203  1.00  0.00     0.068 A 
ATOM     21  C   UNL     1     -16.323  13.218  28.285  1.00  0.00     0.030 A 
ATOM     22  C   UNL     1     -15.752  14.673  30.646  1.00  0.00     0.028 A 
ATOM     23  C   UNL     1     -15.002  13.390  28.715  1.00  0.00     0.002 A 
ATOM     24  C   UNL     1     -14.724  14.110  29.878  1.00  0.00     0.002 A 
BRANCH  18  25
ATOM     25  C   UNL     1     -18.502  15.619  31.935  1.00  0.00     0.089 C 
ATOM     26  C   UNL     1     -17.886  17.023  31.862  1.00  0.00     0.025 C 
ATOM     27  C   UNL     1     -19.958  15.609  32.447  1.00  0.00     0.025 C 
ATOM     28  C   UNL     1     -17.958  17.759  33.201  1.00  0.00     0.002 C 
ATOM     29  C   UNL     1     -20.331  16.882  33.211  1.00  0.00     0.002 C 
ATOM     30  C   UNL     1     -19.168  17.379  34.057  1.00  0.00     0.000 C 
ENDBRANCH  18  25
ENDBRANCH   1  16
TORSDOF 4
ENDMDL
MODEL 9
REMARK VINA RESULT:    -7.836      3.048      7.773
REMARK INTER + INTRA:         -10.932
REMARK INTER:                  -9.659
REMARK INTRA:                  -1.273
REMARK UNBOUND:                -1.263
REMARK SMILES O=c1cc(N2CCOCC2)nc(Cc2nc3ccccc3n2C2CCCCC2)[nH]1
REMARK SMILES IDX 13 1 12 2 1 3 2 4 3 5 29 6 4 7 11 8 5 10 6 11 10 12 7 13
REMARK SMILES IDX 9 14 8 15 14 16 15 17 22 18 16 19 21 20 17 21 20 22 18 23
REMARK SMILES IDX 19 24 23 25 24 26 28 27 25 28 27 29 26 30
REMARK H PARENT 29 9
ROOT
ATOM      1  C   UNL     1     -20.484  11.452  29.094  1.00  0.00     0.150 C 
ENDROOT
BRANCH   1   2
ATOM      2  C   UNL     1     -21.475  11.800  27.999  1.00  0.00     0.118 A 
ATOM      3  O   UNL     1     -24.118  14.060  27.574  1.00  0.00    -0.269 OA
ATOM      4  C   UNL     1     -23.307  13.167  27.362  1.00  0.00     0.252 A 
ATOM      5  C   UNL     1     -23.350  12.366  26.139  1.00  0.00     0.118 A 
ATOM      6  N   UNL     1     -22.323  12.842  28.236  1.00  0.00    -0.310 N 
ATOM      7  C   UNL     1     -22.456  11.372  25.947  1.00  0.00     0.136 A 
ATOM      8  N   UNL     1     -21.542  11.064  26.935  1.00  0.00    -0.217 NA
ATOM      9  H   UNL     1     -22.223  13.440  29.042  1.00  0.00     0.171 HD
BRANCH   7  10
ATOM     10  N   UNL     1     -22.439  10.618  24.752  1.00  0.00    -0.352 N 
ATOM     11  C   UNL     1     -23.083   9.274  24.784  1.00  0.00     0.146 C 
ATOM     12  C   UNL     1     -21.273  10.631  23.830  1.00  0.00     0.146 C 
ATOM     13  C   UNL     1     -23.346   8.731  23.369  1.00  0.00     0.181 C 
ATOM     14  C   UNL     1     -21.620  10.018  22.461  1.00  0.00     0.181 C 
ATOM     15  O   UNL     1     -22.143   8.689  22.590  1.00  0.00    -0.378 OA
ENDBRANCH   7  10
ENDBRANCH   1   2
BRANCH   1  16
ATOM     16  C   UNL     1     -19.089  11.815  28.697  1.00  0.00     0.117 A 
ATOM     17  N   UNL     1     -18.576  13.014  28.870  1.00  0.00    -0.233 NA
ATOM     18  N   UNL     1     -18.173  10.979  28.081  1.00  0.00    -0.324 N 
ATOM     19  C   UNL     1     -17.295  12.962  28.398  1.00  0.00     0.089 A 
ATOM     20  C   UNL     1     -16.999  11.696  27.913  1.00  0.00     0.068 A 
ATOM     21  C   UNL     1     -16.318  13.972  28.360  1.00  0.00     0.030 A 
ATOM     22  C   UNL     1     -15.736  11.377  27.388  1.00  0.00     0.028 A 
ATOM     23  C   UNL     1     -15.055  13.674  27.834  1.00  0.00     0.002 A 
ATOM     24  C   UNL     1     -14.771  12.394  27.358  1.00  0.00     0.002 A 
BRANCH  18  25
ATOM     25  C   UNL     1     -18.346   9.582  27.684  1.00  0.00     0.089 C 
ATOM     26  C   UNL     1     -18.203   9.388  26.168  1.00  0.00     0.025 C 
ATOM     27  C   UNL     1     -17.505   8.592  28.517  1.00  0.00     0.025 C 
ATOM     28  C   UNL     1     -18.527   7.957  25.734  1.00  0.00     0.002 C 
ATOM     29  C   UNL     1     -17.090   7.349  27.725  1.00  0.00     0.002 C 
ATOM     30  C   UNL     1     -18.199   6.896  26.787  1.00  0.00     0.000 C 
ENDBRANCH  18  25
ENDBRANCH   1  16
TORSDOF 4
ENDMDL
