MODEL 9
REMARK VINA RESULT:    -7.360     14.733     19.226
REMARK INTER + INTRA:         -14.605
REMARK INTER:                 -10.940
REMARK INTRA:                  -3.665
REMARK UNBOUND:                -2.727
REMARK SMILES Cc1cc(OCCCc2c(C(=O)NCc3c[nH]c(C(=O)O)c3)[nH]c3c(-c4c(C)nn(C)c4C)cccc23)cc(C)c1Cl
REMARK SMILES IDX 9 1 10 2 23 3 24 4 25 5 34 6 35 7 36 8 37 9 8 11 7 12 6 13
REMARK SMILES IDX 5 14 4 15 2 16 3 17 41 18 39 19 38 20 1 21 42 22 40 23 11 24
REMARK SMILES IDX 12 25 13 26 14 28 15 29 16 30 22 31 17 32 18 33 19 35 20 36
REMARK SMILES IDX 21 37 26 39 27 40 32 41 29 42 30 43 28 44 33 45 31 46
REMARK H PARENT 23 10 13 27 17 34 21 38
ROOT
ATOM      1  C   UNL     1      26.287  15.355 -41.741  1.00  0.00    -0.009 A 
ATOM      2  C   UNL     1      26.980  14.437 -40.950  1.00  0.00     0.108 A 
ATOM      3  N   UNL     1      27.362  13.411 -41.785  1.00  0.00    -0.350 N 
ATOM      4  C   UNL     1      26.996  13.657 -43.085  1.00  0.00     0.054 A 
ATOM      5  C   UNL     1      27.214  12.910 -44.253  1.00  0.00     0.010 A 
ATOM      6  C   UNL     1      26.723  13.411 -45.462  1.00  0.00     0.011 A 
ATOM      7  C   UNL     1      26.030  14.619 -45.496  1.00  0.00     0.001 A 
ATOM      8  C   UNL     1      25.815  15.351 -44.321  1.00  0.00     0.010 A 
ATOM      9  C   UNL     1      26.310  14.867 -43.090  1.00  0.00     0.004 A 
ATOM     10  H   UNL     1      27.837  12.570 -41.490  1.00  0.00     0.167 HD
ENDROOT
BRANCH   1  11
ATOM     11  C   UNL     1      25.650  16.637 -41.284  1.00  0.00     0.042 C 
BRANCH  11  12
ATOM     12  C   UNL     1      24.593  16.436 -40.191  1.00  0.00     0.046 C 
BRANCH  12  13
ATOM     13  C   UNL     1      23.204  16.935 -40.588  1.00  0.00     0.230 C 
BRANCH  13  14
ATOM     14  O   UNL     1      22.311  15.821 -40.634  1.00  0.00    -0.494 OA
BRANCH  14  15
ATOM     15  C   UNL     1      22.583  14.835 -41.540  1.00  0.00     0.119 A 
ATOM     16  C   UNL     1      23.308  12.631 -42.276  1.00  0.00    -0.029 A 
ATOM     17  C   UNL     1      23.080  13.566 -41.250  1.00  0.00     0.051 A 
ATOM     18  C   UNL     1      23.032  12.992 -43.609  1.00  0.00     0.047 A 
ATOM     19  C   UNL     1      22.541  14.273 -43.915  1.00  0.00    -0.029 A 
ATOM     20  C   UNL     1      22.324  15.182 -42.867  1.00  0.00     0.051 A 
ATOM     21  C   UNL     1      23.838  11.268 -41.916  1.00  0.00     0.046 C 
ATOM     22  Cl  UNL     1      23.296  11.845 -44.885  1.00  0.00    -0.084 Cl
ATOM     23  C   UNL     1      22.234  14.699 -45.324  1.00  0.00     0.046 C 
ENDBRANCH  14  15
ENDBRANCH  13  14
ENDBRANCH  12  13
ENDBRANCH  11  12
ENDBRANCH   1  11
BRANCH   2  24
ATOM     24  C   UNL     1      27.247  14.477 -39.522  1.00  0.00     0.268 C 
ATOM     25  O   UNL     1      26.869  13.609 -38.740  1.00  0.00    -0.268 OA
ATOM     26  N   UNL     1      27.941  15.593 -39.106  1.00  0.00    -0.347 N 
ATOM     27  H   UNL     1      27.957  16.399 -39.710  1.00  0.00     0.164 HD
BRANCH  26  28
ATOM     28  C   UNL     1      28.142  15.864 -37.701  1.00  0.00     0.153 C 
BRANCH  28  29
ATOM     29  C   UNL     1      28.521  17.301 -37.561  1.00  0.00    -0.010 A 
ATOM     30  C   UNL     1      27.677  18.394 -37.636  1.00  0.00     0.088 A 
ATOM     31  C   UNL     1      29.826  17.824 -37.329  1.00  0.00     0.040 A 
ATOM     32  N   UNL     1      28.419  19.529 -37.455  1.00  0.00    -0.355 N 
ATOM     33  C   UNL     1      29.743  19.205 -37.267  1.00  0.00     0.125 A 
ATOM     34  H   UNL     1      28.065  20.478 -37.454  1.00  0.00     0.166 HD
BRANCH  33  35
ATOM     35  C   UNL     1      30.791  20.160 -37.049  1.00  0.00     0.352 C 
ATOM     36  O   UNL     1      31.359  20.857 -37.873  1.00  0.00    -0.245 OA
BRANCH  35  37
ATOM     37  O   UNL     1      31.120  20.228 -35.740  1.00  0.00    -0.477 OA
ATOM     38  H   UNL     1      31.976  20.704 -35.763  1.00  0.00     0.297 HD
ENDBRANCH  35  37
ENDBRANCH  33  35
ENDBRANCH  28  29
ENDBRANCH  26  28
ENDBRANCH   2  24
BRANCH   5  39
ATOM     39  C   UNL     1      27.933  11.663 -44.171  1.00  0.00     0.028 A 
ATOM     40  C   UNL     1      27.449  10.344 -43.973  1.00  0.00     0.068 A 
ATOM     41  C   UNL     1      29.310  11.544 -44.222  1.00  0.00     0.043 A 
ATOM     42  N   UNL     1      28.452   9.464 -43.884  1.00  0.00    -0.178 NA
ATOM     43  N   UNL     1      29.560  10.202 -44.080  1.00  0.00    -0.272 N 
ATOM     44  C   UNL     1      26.042   9.894 -43.842  1.00  0.00     0.069 C 
ATOM     45  C   UNL     1      30.385  12.555 -44.388  1.00  0.00     0.067 C 
ATOM     46  C   UNL     1      30.846   9.544 -44.081  1.00  0.00     0.174 C 
ENDBRANCH   5  39
TORSDOF 11
ENDMDL
