REMARK SMILES CCN1CCN(CC(=O)Nc2ccc(-c3cccc4c(=O)cc(N5CCOCC5)oc34)c3sc4ccccc4c23)CC1
REMARK SMILES IDX 8 1 9 2 10 3 7 5 6 6 3 7 4 8 42 9 5 10 41 11 2 12 1 13 11 14
REMARK SMILES IDX 12 15 40 16 13 17 39 18 32 19 14 20 38 21 34 22 33 23 37 24
REMARK SMILES IDX 35 25 36 26 15 27 16 28 31 29 17 30 30 31 19 32 18 33 23 34
REMARK SMILES IDX 20 35 22 36 21 37 24 38 25 39 29 40 26 41 28 42 27 43
REMARK H PARENT 10 4
REMARK INDEX MAP 8 1 9 2 10 3 54 4 7 5 6 6 3 7 4 8 42 9 5 10 41 11 2 12 1 13
REMARK INDEX MAP 11 14 12 15 40 16 13 17 39 18 32 19 14 20 38 21 34 22 33 23
REMARK INDEX MAP 37 24 35 25 36 26 15 27 16 28 31 29 17 30 30 31 19 32 18 33
REMARK INDEX MAP 23 34 20 35 22 36 21 37 24 38 25 39 29 40 26 41 28 42 27 43
ROOT
ATOM      1  C   UNL     1      45.421  -2.994 -47.488  1.00  0.00     0.238 C 
ATOM      2  O   UNL     1      45.984  -2.763 -48.553  1.00  0.00    -0.273 OA
ATOM      3  N   UNL     1      45.910  -2.771 -46.212  1.00  0.00    -0.324 N 
ATOM      4  H   UNL     1      45.271  -3.039 -45.450  1.00  0.00     0.170 HD
ENDROOT
BRANCH   1   5
ATOM      5  C   UNL     1      43.978  -3.527 -47.458  1.00  0.00     0.185 C 
BRANCH   5   6
ATOM      6  N   UNL     1      43.852  -4.769 -48.265  1.00  0.00    -0.292 NA
ATOM      7  N   UNL     1      42.942  -6.959 -46.445  1.00  0.00    -0.301 NA
ATOM      8  C   UNL     1      42.004  -5.927 -46.907  1.00  0.00     0.100 C 
ATOM      9  C   UNL     1      44.315  -6.438 -46.387  1.00  0.00     0.100 C 
ATOM     10  C   UNL     1      42.458  -5.286 -48.244  1.00  0.00     0.100 C 
ATOM     11  C   UNL     1      44.745  -5.829 -47.740  1.00  0.00     0.100 C 
BRANCH   7  12
ATOM     12  C   UNL     1      42.518  -7.632 -45.213  1.00  0.00     0.081 C 
ATOM     13  C   UNL     1      42.906  -6.967 -43.897  1.00  0.00     0.021 C 
ENDBRANCH   7  12
ENDBRANCH   5   6
ENDBRANCH   1   5
BRANCH   3  14
ATOM     14  C   UNL     1      47.144  -2.235 -45.792  1.00  0.00     0.050 A 
ATOM     15  C   UNL     1      47.598  -1.019 -46.324  1.00  0.00     0.027 A 
ATOM     16  C   UNL     1      47.953  -2.944 -44.832  1.00  0.00     0.025 A 
ATOM     17  C   UNL     1      48.833  -0.497 -45.984  1.00  0.00     0.012 A 
ATOM     18  C   UNL     1      47.738  -4.202 -44.075  1.00  0.00     0.002 A 
ATOM     19  C   UNL     1      49.202  -2.377 -44.512  1.00  0.00     0.046 A 
ATOM     20  C   UNL     1      49.673  -1.164 -45.091  1.00  0.00     0.003 A 
ATOM     21  C   UNL     1      46.653  -5.125 -44.020  1.00  0.00     0.010 A 
ATOM     22  C   UNL     1      48.831  -4.509 -43.261  1.00  0.00     0.036 A 
ATOM     23  S   UNL     1      50.052  -3.330 -43.357  1.00  0.00    -0.134 S 
ATOM     24  C   UNL     1      46.700  -6.282 -43.231  1.00  0.00     0.001 A 
ATOM     25  C   UNL     1      48.883  -5.669 -42.452  1.00  0.00     0.019 A 
ATOM     26  C   UNL     1      47.809  -6.552 -42.452  1.00  0.00     0.002 A 
BRANCH  20  27
ATOM     27  C   UNL     1      51.007  -0.620 -44.787  1.00  0.00     0.027 A 
ATOM     28  C   UNL     1      51.472  -0.599 -43.458  1.00  0.00     0.013 A 
ATOM     29  C   UNL     1      51.843  -0.101 -45.795  1.00  0.00     0.148 A 
ATOM     30  C   UNL     1      52.733  -0.086 -43.145  1.00  0.00     0.002 A 
ATOM     31  O   UNL     1      51.367  -0.099 -47.084  1.00  0.00    -0.440 OA
ATOM     32  C   UNL     1      53.103   0.398 -45.476  1.00  0.00     0.065 A 
ATOM     33  C   UNL     1      53.552   0.413 -44.154  1.00  0.00     0.016 A 
ATOM     34  C   UNL     1      52.194   0.264 -48.142  1.00  0.00     0.200 A 
ATOM     35  C   UNL     1      53.952   0.896 -46.563  1.00  0.00     0.194 A 
ATOM     36  C   UNL     1      53.428   0.750 -47.929  1.00  0.00     0.119 A 
ATOM     37  O   UNL     1      55.053   1.392 -46.358  1.00  0.00    -0.289 OA
BRANCH  34  38
ATOM     38  N   UNL     1      51.632   0.075 -49.407  1.00  0.00    -0.338 N 
ATOM     39  C   UNL     1      50.207   0.298 -49.727  1.00  0.00     0.148 C 
ATOM     40  C   UNL     1      52.453  -0.339 -50.569  1.00  0.00     0.148 C 
ATOM     41  C   UNL     1      49.795  -0.484 -50.984  1.00  0.00     0.181 C 
ATOM     42  C   UNL     1      51.892   0.261 -51.865  1.00  0.00     0.181 C 
ATOM     43  O   UNL     1      50.543  -0.134 -52.156  1.00  0.00    -0.378 OA
ENDBRANCH  34  38
ENDBRANCH  20  27
ENDBRANCH   3  14
TORSDOF 6
