MODEL 1
REMARK minimizedAffinity -9.24847984
REMARK CNNscore 0.981647253
REMARK CNNaffinity 7.89093637
REMARK SMILES CC[C@@]1(C(=O)O)Cc2cc(OCCCOc3ccc(CC(C)(C)C)cc3Cl)ccc2O1
REMARK SMILES IDX 13 1 12 2 11 3 10 4 3 5 7 6 31 7 8 8 30 9 9 10 29 11 28 12
REMARK SMILES IDX 2 13 1 14 4 15 5 16 6 17 14 19 15 20 16 21 17 22 26 23 18 24
REMARK SMILES IDX 25 25 19 26 27 27 20 28 21 29 22 30 23 31 24 32
REMARK H PARENT 6 18
ROOT
ATOM      1  C   UNL     1      -8.067  -8.140 -22.100  1.00  0.00     0.083 C 
ENDROOT
BRANCH   1   2
ATOM      2  C   UNL     1      -7.782  -6.970 -21.159  1.00  0.00     0.233 C 
BRANCH   2   3
ATOM      3  O   UNL     1      -6.650  -7.303 -20.356  1.00  0.00    -0.493 OA
BRANCH   3   4
ATOM      4  C   UNL     1      -5.615  -6.406 -20.335  1.00  0.00     0.119 A 
ATOM      5  C   UNL     1      -3.622  -2.276 -21.037  1.00  0.00     0.209 C 
ATOM      6  C   UNL     1      -4.955  -2.850 -21.576  1.00  0.00     0.100 C 
ATOM      7  O   UNL     1      -2.818  -3.377 -20.526  1.00  0.00    -0.475 OA
ATOM      8  C   UNL     1      -4.924  -4.200 -20.970  1.00  0.00     0.002 A 
ATOM      9  C   UNL     1      -3.682  -4.430 -20.414  1.00  0.00     0.124 A 
ATOM     10  C   UNL     1      -5.902  -5.179 -20.945  1.00  0.00     0.054 A 
ATOM     11  C   UNL     1      -3.364  -5.631 -19.817  1.00  0.00     0.050 A 
ATOM     12  C   UNL     1      -4.346  -6.629 -19.776  1.00  0.00     0.050 A 
BRANCH   5  13
ATOM     13  C   UNL     1      -2.821  -1.585 -22.159  1.00  0.00     0.058 C 
ATOM     14  C   UNL     1      -2.383  -0.164 -21.819  1.00  0.00     0.009 C 
ENDBRANCH   5  13
BRANCH   5  15
ATOM     15  C   UNL     1      -3.914  -1.283 -19.900  1.00  0.00     0.348 C 
ATOM     16  O   UNL     1      -4.687  -0.338 -19.915  1.00  0.00    -0.248 OA
BRANCH  15  17
ATOM     17  O   UNL     1      -3.217  -1.544 -18.770  1.00  0.00    -0.478 OA
ATOM     18  H   UNL     1      -3.522  -0.847 -18.151  1.00  0.00     0.296 HD
ENDBRANCH  15  17
ENDBRANCH   5  15
ENDBRANCH   3   4
ENDBRANCH   2   3
ENDBRANCH   1   2
BRANCH   1  19
ATOM     19  C   UNL     1      -8.533  -7.673 -23.477  1.00  0.00     0.233 C 
BRANCH  19  20
ATOM     20  O   UNL     1      -8.817  -8.826 -24.268  1.00  0.00    -0.492 OA
BRANCH  20  21
ATOM     21  C   UNL     1      -8.546  -8.771 -25.610  1.00  0.00     0.137 A 
ATOM     22  C   UNL     1      -9.320  -8.085 -26.549  1.00  0.00     0.048 A 
ATOM     23  C   UNL     1      -7.409  -9.464 -26.054  1.00  0.00     0.083 A 
ATOM     24  C   UNL     1      -8.965  -8.090 -27.903  1.00  0.00     0.007 A 
ATOM     25  C   UNL     1      -7.056  -9.470 -27.407  1.00  0.00     0.028 A 
ATOM     26  C   UNL     1      -7.835  -8.786 -28.349  1.00  0.00    -0.046 A 
ATOM     27  Cl  UNL     1      -6.399 -10.336 -24.951  1.00  0.00    -0.080 Cl
BRANCH  26  28
ATOM     28  C   UNL     1      -7.456  -8.791 -29.812  1.00  0.00     0.041 C 
BRANCH  28  29
ATOM     29  C   UNL     1      -8.598  -9.065 -30.830  1.00  0.00    -0.034 C 
ATOM     30  C   UNL     1      -8.071  -8.716 -32.236  1.00  0.00     0.011 C 
ATOM     31  C   UNL     1      -9.018 -10.545 -30.827  1.00  0.00     0.011 C 
ATOM     32  C   UNL     1      -9.832  -8.190 -30.548  1.00  0.00     0.011 C 
ENDBRANCH  28  29
ENDBRANCH  26  28
ENDBRANCH  20  21
ENDBRANCH  19  20
ENDBRANCH   1  19
TORSDOF 11
ENDMDL
MODEL 2
REMARK minimizedAffinity -9.17443275
REMARK CNNscore 0.973833203
REMARK CNNaffinity 7.70713282
REMARK SMILES CC[C@@]1(C(=O)O)Cc2cc(OCCCOc3ccc(CC(C)(C)C)cc3Cl)ccc2O1
REMARK SMILES IDX 13 1 12 2 11 3 10 4 3 5 7 6 31 7 8 8 30 9 9 10 29 11 28 12
REMARK SMILES IDX 2 13 1 14 4 15 5 16 6 17 14 19 15 20 16 21 17 22 26 23 18 24
REMARK SMILES IDX 25 25 19 26 27 27 20 28 21 29 22 30 23 31 24 32
REMARK H PARENT 6 18
ROOT
ATOM      1  C   UNL     1      -8.340  -7.989 -21.815  1.00  0.00     0.083 C 
ENDROOT
BRANCH   1   2
ATOM      2  C   UNL     1      -7.800  -6.862 -20.935  1.00  0.00     0.233 C 
BRANCH   2   3
ATOM      3  O   UNL     1      -6.572  -7.296 -20.350  1.00  0.00    -0.493 OA
BRANCH   3   4
ATOM      4  C   UNL     1      -5.541  -6.396 -20.326  1.00  0.00     0.119 A 
ATOM      5  C   UNL     1      -3.561  -2.257 -21.013  1.00  0.00     0.209 C 
ATOM      6  C   UNL     1      -4.893  -2.832 -21.553  1.00  0.00     0.100 C 
ATOM      7  O   UNL     1      -2.753  -3.357 -20.508  1.00  0.00    -0.475 OA
ATOM      8  C   UNL     1      -4.857  -4.185 -20.953  1.00  0.00     0.002 A 
ATOM      9  C   UNL     1      -3.614  -4.413 -20.399  1.00  0.00     0.124 A 
ATOM     10  C   UNL     1      -5.833  -5.167 -20.931  1.00  0.00     0.054 A 
ATOM     11  C   UNL     1      -3.292  -5.616 -19.807  1.00  0.00     0.050 A 
ATOM     12  C   UNL     1      -4.271  -6.617 -19.770  1.00  0.00     0.050 A 
BRANCH   5  13
ATOM     13  C   UNL     1      -2.764  -1.559 -22.134  1.00  0.00     0.058 C 
ATOM     14  C   UNL     1      -2.584  -0.059 -21.919  1.00  0.00     0.009 C 
ENDBRANCH   5  13
BRANCH   5  15
ATOM     15  C   UNL     1      -3.856  -1.269 -19.872  1.00  0.00     0.348 C 
ATOM     16  O   UNL     1      -4.657  -0.347 -19.871  1.00  0.00    -0.248 OA
BRANCH  15  17
ATOM     17  O   UNL     1      -3.124  -1.506 -18.759  1.00  0.00    -0.478 OA
ATOM     18  H   UNL     1      -3.435  -0.816 -18.134  1.00  0.00     0.296 HD
ENDBRANCH  15  17
ENDBRANCH   5  15
ENDBRANCH   3   4
ENDBRANCH   2   3
ENDBRANCH   1   2
BRANCH   1  19
ATOM     19  C   UNL     1      -8.554  -7.541 -23.259  1.00  0.00     0.233 C 
BRANCH  19  20
ATOM     20  O   UNL     1      -8.211  -8.627 -24.119  1.00  0.00    -0.492 OA
BRANCH  20  21
ATOM     21  C   UNL     1      -8.721  -8.629 -25.391  1.00  0.00     0.137 A 
ATOM     22  C   UNL     1      -9.953  -8.080 -25.753  1.00  0.00     0.048 A 
ATOM     23  C   UNL     1      -7.937  -9.233 -26.385  1.00  0.00     0.083 A 
ATOM     24  C   UNL     1     -10.394  -8.134 -27.081  1.00  0.00     0.007 A 
ATOM     25  C   UNL     1      -8.378  -9.288 -27.712  1.00  0.00     0.028 A 
ATOM     26  C   UNL     1      -9.616  -8.743 -28.073  1.00  0.00    -0.046 A 
ATOM     27  Cl  UNL     1      -6.397  -9.934 -26.016  1.00  0.00    -0.080 Cl
BRANCH  26  28
ATOM     28  C   UNL     1     -10.095  -8.800 -29.506  1.00  0.00     0.041 C 
BRANCH  28  29
ATOM     29  C   UNL     1      -9.006  -8.982 -30.600  1.00  0.00    -0.034 C 
ATOM     30  C   UNL     1      -9.431  -8.154 -31.830  1.00  0.00     0.011 C 
ATOM     31  C   UNL     1      -7.634  -8.471 -30.127  1.00  0.00     0.011 C 
ATOM     32  C   UNL     1      -8.875 -10.453 -31.032  1.00  0.00     0.011 C 
ENDBRANCH  28  29
ENDBRANCH  26  28
ENDBRANCH  20  21
ENDBRANCH  19  20
ENDBRANCH   1  19
TORSDOF 11
ENDMDL
MODEL 3
REMARK minimizedAffinity -9.02299881
REMARK CNNscore 0.957903147
REMARK CNNaffinity 7.81259918
REMARK SMILES CC[C@@]1(C(=O)O)Cc2cc(OCCCOc3ccc(CC(C)(C)C)cc3Cl)ccc2O1
REMARK SMILES IDX 13 1 12 2 11 3 10 4 3 5 7 6 31 7 8 8 30 9 9 10 29 11 28 12
REMARK SMILES IDX 2 13 1 14 4 15 5 16 6 17 14 19 15 20 16 21 17 22 26 23 18 24
REMARK SMILES IDX 25 25 19 26 27 27 20 28 21 29 22 30 23 31 24 32
REMARK H PARENT 6 18
ROOT
ATOM      1  C   UNL     1      -7.674  -8.146 -22.173  1.00  0.00     0.083 C 
ENDROOT
BRANCH   1   2
ATOM      2  C   UNL     1      -7.722  -6.940 -21.236  1.00  0.00     0.233 C 
BRANCH   2   3
ATOM      3  O   UNL     1      -6.736  -7.118 -20.220  1.00  0.00    -0.493 OA
BRANCH   3   4
ATOM      4  C   UNL     1      -5.662  -6.269 -20.236  1.00  0.00     0.119 A 
ATOM      5  C   UNL     1      -3.503  -2.244 -21.045  1.00  0.00     0.209 C 
ATOM      6  C   UNL     1      -4.874  -2.763 -21.544  1.00  0.00     0.100 C 
ATOM      7  O   UNL     1      -2.737  -3.372 -20.537  1.00  0.00    -0.475 OA
ATOM      8  C   UNL     1      -4.888  -4.105 -20.920  1.00  0.00     0.002 A 
ATOM      9  C   UNL     1      -3.644  -4.384 -20.389  1.00  0.00     0.124 A 
ATOM     10  C   UNL     1      -5.909  -5.039 -20.857  1.00  0.00     0.054 A 
ATOM     11  C   UNL     1      -3.367  -5.590 -19.783  1.00  0.00     0.050 A 
ATOM     12  C   UNL     1      -4.391  -6.541 -19.704  1.00  0.00     0.050 A 
BRANCH   5  13
ATOM     13  C   UNL     1      -2.700  -1.604 -22.196  1.00  0.00     0.058 C 
ATOM     14  C   UNL     1      -2.340  -0.141 -21.958  1.00  0.00     0.009 C 
ENDBRANCH   5  13
BRANCH   5  15
ATOM     15  C   UNL     1      -3.723  -1.223 -19.916  1.00  0.00     0.348 C 
ATOM     16  O   UNL     1      -4.378  -0.193 -19.958  1.00  0.00    -0.248 OA
BRANCH  15  17
ATOM     17  O   UNL     1      -3.108  -1.564 -18.760  1.00  0.00    -0.478 OA
ATOM     18  H   UNL     1      -3.355  -0.836 -18.151  1.00  0.00     0.296 HD
ENDBRANCH  15  17
ENDBRANCH   5  15
ENDBRANCH   3   4
ENDBRANCH   2   3
ENDBRANCH   1   2
BRANCH   1  19
ATOM     19  C   UNL     1      -8.497  -7.926 -23.440  1.00  0.00     0.233 C 
BRANCH  19  20
ATOM     20  O   UNL     1      -8.195  -8.976 -24.358  1.00  0.00    -0.492 OA
BRANCH  20  21
ATOM     21  C   UNL     1      -8.551  -8.808 -25.671  1.00  0.00     0.137 A 
ATOM     22  C   UNL     1      -7.670  -8.906 -26.750  1.00  0.00     0.048 A 
ATOM     23  C   UNL     1      -9.898  -8.514 -25.927  1.00  0.00     0.083 A 
ATOM     24  C   UNL     1      -8.126  -8.714 -28.060  1.00  0.00     0.007 A 
ATOM     25  C   UNL     1     -10.353  -8.320 -27.236  1.00  0.00     0.028 A 
ATOM     26  C   UNL     1      -9.469  -8.413 -28.317  1.00  0.00    -0.046 A 
ATOM     27  Cl  UNL     1     -11.050  -8.378 -24.642  1.00  0.00    -0.080 Cl
BRANCH  26  28
ATOM     28  C   UNL     1      -9.958  -8.204 -29.732  1.00  0.00     0.041 C 
BRANCH  28  29
ATOM     29  C   UNL     1      -9.000  -8.644 -30.875  1.00  0.00    -0.034 C 
ATOM     30  C   UNL     1      -9.299 -10.123 -31.198  1.00  0.00     0.011 C 
ATOM     31  C   UNL     1      -9.224  -7.818 -32.153  1.00  0.00     0.011 C 
ATOM     32  C   UNL     1      -7.525  -8.532 -30.454  1.00  0.00     0.011 C 
ENDBRANCH  28  29
ENDBRANCH  26  28
ENDBRANCH  20  21
ENDBRANCH  19  20
ENDBRANCH   1  19
TORSDOF 11
ENDMDL
MODEL 4
REMARK minimizedAffinity -7.31903982
REMARK CNNscore 0.910620809
REMARK CNNaffinity 7.43893242
REMARK SMILES CC[C@@]1(C(=O)O)Cc2cc(OCCCOc3ccc(CC(C)(C)C)cc3Cl)ccc2O1
REMARK SMILES IDX 13 1 12 2 11 3 10 4 3 5 7 6 31 7 8 8 30 9 9 10 29 11 28 12
REMARK SMILES IDX 2 13 1 14 4 15 5 16 6 17 14 19 15 20 16 21 17 22 26 23 18 24
REMARK SMILES IDX 25 25 19 26 27 27 20 28 21 29 22 30 23 31 24 32
REMARK H PARENT 6 18
ROOT
ATOM      1  C   UNL     1      -7.241  -6.676 -19.399  1.00  0.00     0.083 C 
ENDROOT
BRANCH   1   2
ATOM      2  C   UNL     1      -6.871  -7.304 -20.743  1.00  0.00     0.233 C 
BRANCH   2   3
ATOM      3  O   UNL     1      -5.454  -7.472 -20.787  1.00  0.00    -0.493 OA
BRANCH   3   4
ATOM      4  C   UNL     1      -4.688  -6.346 -20.656  1.00  0.00     0.119 A 
ATOM      5  C   UNL     1      -3.793  -1.808 -21.021  1.00  0.00     0.209 C 
ATOM      6  C   UNL     1      -4.907  -2.665 -21.671  1.00  0.00     0.100 C 
ATOM      7  O   UNL     1      -2.758  -2.699 -20.517  1.00  0.00    -0.475 OA
ATOM      8  C   UNL     1      -4.558  -4.000 -21.134  1.00  0.00     0.002 A 
ATOM      9  C   UNL     1      -3.326  -3.942 -20.513  1.00  0.00     0.124 A 
ATOM     10  C   UNL     1      -5.252  -5.195 -21.220  1.00  0.00     0.054 A 
ATOM     11  C   UNL     1      -2.739  -5.060 -19.959  1.00  0.00     0.050 A 
ATOM     12  C   UNL     1      -3.432  -6.275 -20.031  1.00  0.00     0.050 A 
BRANCH   5  13
ATOM     13  C   UNL     1      -3.145  -0.865 -22.054  1.00  0.00     0.058 C 
ATOM     14  C   UNL     1      -1.619  -0.901 -22.051  1.00  0.00     0.009 C 
ENDBRANCH   5  13
BRANCH   5  15
ATOM     15  C   UNL     1      -4.385  -0.998 -19.856  1.00  0.00     0.348 C 
ATOM     16  O   UNL     1      -4.768   0.161 -19.871  1.00  0.00    -0.248 OA
BRANCH  15  17
ATOM     17  O   UNL     1      -4.484  -1.708 -18.708  1.00  0.00    -0.478 OA
ATOM     18  H   UNL     1      -4.886  -1.068 -18.082  1.00  0.00     0.296 HD
ENDBRANCH  15  17
ENDBRANCH   5  15
ENDBRANCH   3   4
ENDBRANCH   2   3
ENDBRANCH   1   2
BRANCH   1  19
ATOM     19  C   UNL     1      -8.446  -5.745 -19.509  1.00  0.00     0.233 C 
BRANCH  19  20
ATOM     20  O   UNL     1      -9.549  -6.500 -20.011  1.00  0.00    -0.492 OA
BRANCH  20  21
ATOM     21  C   UNL     1     -10.377  -7.111 -19.107  1.00  0.00     0.137 A 
ATOM     22  C   UNL     1     -10.860  -8.417 -19.229  1.00  0.00     0.048 A 
ATOM     23  C   UNL     1     -10.761  -6.355 -17.989  1.00  0.00     0.083 A 
ATOM     24  C   UNL     1     -11.708  -8.956 -18.255  1.00  0.00     0.007 A 
ATOM     25  C   UNL     1     -11.609  -6.894 -17.016  1.00  0.00     0.028 A 
ATOM     26  C   UNL     1     -12.097  -8.200 -17.141  1.00  0.00    -0.046 A 
ATOM     27  Cl  UNL     1     -10.202  -4.732 -17.767  1.00  0.00    -0.080 Cl
BRANCH  26  28
ATOM     28  C   UNL     1     -13.014  -8.784 -16.092  1.00  0.00     0.041 C 
BRANCH  28  29
ATOM     29  C   UNL     1     -14.491  -8.300 -16.105  1.00  0.00    -0.034 C 
ATOM     30  C   UNL     1     -15.225  -8.990 -14.937  1.00  0.00     0.011 C 
ATOM     31  C   UNL     1     -14.592  -6.778 -15.903  1.00  0.00     0.011 C 
ATOM     32  C   UNL     1     -15.202  -8.683 -17.414  1.00  0.00     0.011 C 
ENDBRANCH  28  29
ENDBRANCH  26  28
ENDBRANCH  20  21
ENDBRANCH  19  20
ENDBRANCH   1  19
TORSDOF 11
ENDMDL
MODEL 5
REMARK minimizedAffinity -8.84361839
REMARK CNNscore 0.770760536
REMARK CNNaffinity 7.02072287
REMARK SMILES CC[C@@]1(C(=O)O)Cc2cc(OCCCOc3ccc(CC(C)(C)C)cc3Cl)ccc2O1
REMARK SMILES IDX 13 1 12 2 11 3 10 4 3 5 7 6 31 7 8 8 30 9 9 10 29 11 28 12
REMARK SMILES IDX 2 13 1 14 4 15 5 16 6 17 14 19 15 20 16 21 17 22 26 23 18 24
REMARK SMILES IDX 25 25 19 26 27 27 20 28 21 29 22 30 23 31 24 32
REMARK H PARENT 6 18
ROOT
ATOM      1  C   UNL     1      -6.926  -9.100 -22.068  1.00  0.00     0.083 C 
ENDROOT
BRANCH   1   2
ATOM      2  C   UNL     1      -8.016  -9.304 -23.119  1.00  0.00     0.233 C 
BRANCH   2   3
ATOM      3  O   UNL     1      -7.388  -9.565 -24.375  1.00  0.00    -0.493 OA
BRANCH   3   4
ATOM      4  C   UNL     1      -8.003  -9.072 -25.494  1.00  0.00     0.119 A 
ATOM      5  C   UNL     1      -8.699  -8.645 -30.061  1.00  0.00     0.209 C 
ATOM      6  C   UNL     1      -7.507  -9.252 -29.282  1.00  0.00     0.100 C 
ATOM      7  O   UNL     1      -9.491  -7.841 -29.142  1.00  0.00    -0.475 OA
ATOM      8  C   UNL     1      -7.958  -9.020 -27.891  1.00  0.00     0.002 A 
ATOM      9  C   UNL     1      -9.070  -8.203 -27.893  1.00  0.00     0.124 A 
ATOM     10  C   UNL     1      -7.406  -9.461 -26.700  1.00  0.00     0.054 A 
ATOM     11  C   UNL     1      -9.672  -7.793 -26.723  1.00  0.00     0.050 A 
ATOM     12  C   UNL     1      -9.131  -8.236 -25.510  1.00  0.00     0.050 A 
BRANCH   5  13
ATOM     13  C   UNL     1      -8.209  -7.724 -31.197  1.00  0.00     0.058 C 
ATOM     14  C   UNL     1      -7.033  -8.291 -31.985  1.00  0.00     0.009 C 
ENDBRANCH   5  13
BRANCH   5  15
ATOM     15  C   UNL     1      -9.568  -9.779 -30.630  1.00  0.00     0.348 C 
ATOM     16  O   UNL     1      -9.193 -10.834 -31.117  1.00  0.00    -0.248 OA
BRANCH  15  17
ATOM     17  O   UNL     1     -10.895  -9.531 -30.541  1.00  0.00    -0.478 OA
ATOM     18  H   UNL     1     -11.301 -10.339 -30.923  1.00  0.00     0.296 HD
ENDBRANCH  15  17
ENDBRANCH   5  15
ENDBRANCH   3   4
ENDBRANCH   2   3
ENDBRANCH   1   2
BRANCH   1  19
ATOM     19  C   UNL     1      -6.968  -7.700 -21.459  1.00  0.00     0.233 C 
BRANCH  19  20
ATOM     20  O   UNL     1      -5.874  -7.574 -20.552  1.00  0.00    -0.492 OA
BRANCH  20  21
ATOM     21  C   UNL     1      -5.215  -6.374 -20.496  1.00  0.00     0.137 A 
ATOM     22  C   UNL     1      -3.828  -6.232 -20.409  1.00  0.00     0.048 A 
ATOM     23  C   UNL     1      -6.008  -5.216 -20.526  1.00  0.00     0.083 A 
ATOM     24  C   UNL     1      -3.245  -4.961 -20.352  1.00  0.00     0.007 A 
ATOM     25  C   UNL     1      -5.425  -3.946 -20.468  1.00  0.00     0.028 A 
ATOM     26  C   UNL     1      -4.035  -3.805 -20.375  1.00  0.00    -0.046 A 
ATOM     27  Cl  UNL     1      -7.733  -5.310 -20.635  1.00  0.00    -0.080 Cl
BRANCH  26  28
ATOM     28  C   UNL     1      -3.402  -2.434 -20.312  1.00  0.00     0.041 C 
BRANCH  28  29
ATOM     29  C   UNL     1      -3.478  -1.569 -21.602  1.00  0.00    -0.034 C 
ATOM     30  C   UNL     1      -4.691  -0.626 -21.468  1.00  0.00     0.011 C 
ATOM     31  C   UNL     1      -2.217  -0.707 -21.782  1.00  0.00     0.011 C 
ATOM     32  C   UNL     1      -3.679  -2.436 -22.856  1.00  0.00     0.011 C 
ENDBRANCH  28  29
ENDBRANCH  26  28
ENDBRANCH  20  21
ENDBRANCH  19  20
ENDBRANCH   1  19
TORSDOF 11
ENDMDL
MODEL 6
REMARK minimizedAffinity -8.56965065
REMARK CNNscore 0.761396229
REMARK CNNaffinity 7.11521292
REMARK SMILES CC[C@@]1(C(=O)O)Cc2cc(OCCCOc3ccc(CC(C)(C)C)cc3Cl)ccc2O1
REMARK SMILES IDX 13 1 12 2 11 3 10 4 3 5 7 6 31 7 8 8 30 9 9 10 29 11 28 12
REMARK SMILES IDX 2 13 1 14 4 15 5 16 6 17 14 19 15 20 16 21 17 22 26 23 18 24
REMARK SMILES IDX 25 25 19 26 27 27 20 28 21 29 22 30 23 31 24 32
REMARK H PARENT 6 18
ROOT
ATOM      1  C   UNL     1      -7.618  -7.615 -22.447  1.00  0.00     0.083 C 
ENDROOT
BRANCH   1   2
ATOM      2  C   UNL     1      -6.822  -8.140 -21.253  1.00  0.00     0.233 C 
BRANCH   2   3
ATOM      3  O   UNL     1      -6.763  -7.113 -20.263  1.00  0.00    -0.493 OA
BRANCH   3   4
ATOM      4  C   UNL     1      -5.697  -6.255 -20.317  1.00  0.00     0.119 A 
ATOM      5  C   UNL     1      -3.621  -2.179 -21.088  1.00  0.00     0.209 C 
ATOM      6  C   UNL     1      -5.022  -2.686 -21.511  1.00  0.00     0.100 C 
ATOM      7  O   UNL     1      -2.815  -3.324 -20.691  1.00  0.00    -0.475 OA
ATOM      8  C   UNL     1      -4.985  -4.055 -20.952  1.00  0.00     0.002 A 
ATOM      9  C   UNL     1      -3.705  -4.349 -20.526  1.00  0.00     0.124 A 
ATOM     10  C   UNL     1      -5.994  -4.999 -20.860  1.00  0.00     0.054 A 
ATOM     11  C   UNL     1      -3.379  -5.580 -19.999  1.00  0.00     0.050 A 
ATOM     12  C   UNL     1      -4.390  -6.542 -19.892  1.00  0.00     0.050 A 
BRANCH   5  13
ATOM     13  C   UNL     1      -2.906  -1.480 -22.263  1.00  0.00     0.058 C 
ATOM     14  C   UNL     1      -2.044  -0.294 -21.842  1.00  0.00     0.009 C 
ENDBRANCH   5  13
BRANCH   5  15
ATOM     15  C   UNL     1      -3.763  -1.214 -19.900  1.00  0.00     0.348 C 
ATOM     16  O   UNL     1      -4.527  -0.267 -19.794  1.00  0.00    -0.248 OA
BRANCH  15  17
ATOM     17  O   UNL     1      -2.930  -1.505 -18.873  1.00  0.00    -0.478 OA
ATOM     18  H   UNL     1      -3.152  -0.823 -18.203  1.00  0.00     0.296 HD
ENDBRANCH  15  17
ENDBRANCH   5  15
ENDBRANCH   3   4
ENDBRANCH   2   3
ENDBRANCH   1   2
BRANCH   1  19
ATOM     19  C   UNL     1      -8.885  -8.431 -22.699  1.00  0.00     0.233 C 
BRANCH  19  20
ATOM     20  O   UNL     1      -8.846  -8.913 -24.042  1.00  0.00    -0.492 OA
BRANCH  20  21
ATOM     21  C   UNL     1      -9.765  -8.420 -24.931  1.00  0.00     0.137 A 
ATOM     22  C   UNL     1     -11.120  -8.233 -24.650  1.00  0.00     0.048 A 
ATOM     23  C   UNL     1      -9.292  -8.089 -26.210  1.00  0.00     0.083 A 
ATOM     24  C   UNL     1     -11.986  -7.727 -25.627  1.00  0.00     0.007 A 
ATOM     25  C   UNL     1     -10.158  -7.585 -27.186  1.00  0.00     0.028 A 
ATOM     26  C   UNL     1     -11.517  -7.403 -26.906  1.00  0.00    -0.046 A 
ATOM     27  Cl  UNL     1      -7.625  -8.290 -26.633  1.00  0.00    -0.080 Cl
BRANCH  26  28
ATOM     28  C   UNL     1     -12.455  -6.858 -27.959  1.00  0.00     0.041 C 
BRANCH  28  29
ATOM     29  C   UNL     1     -13.181  -5.524 -27.625  1.00  0.00    -0.034 C 
ATOM     30  C   UNL     1     -12.546  -4.950 -26.342  1.00  0.00     0.011 C 
ATOM     31  C   UNL     1     -13.010  -4.488 -28.750  1.00  0.00     0.011 C 
ATOM     32  C   UNL     1     -14.680  -5.743 -27.365  1.00  0.00     0.011 C 
ENDBRANCH  28  29
ENDBRANCH  26  28
ENDBRANCH  20  21
ENDBRANCH  19  20
ENDBRANCH   1  19
TORSDOF 11
ENDMDL
MODEL 7
REMARK minimizedAffinity -6.08141851
REMARK CNNscore 0.735915065
REMARK CNNaffinity 7.28520346
REMARK SMILES CC[C@@]1(C(=O)O)Cc2cc(OCCCOc3ccc(CC(C)(C)C)cc3Cl)ccc2O1
REMARK SMILES IDX 13 1 12 2 11 3 10 4 3 5 7 6 31 7 8 8 30 9 9 10 29 11 28 12
REMARK SMILES IDX 2 13 1 14 4 15 5 16 6 17 14 19 15 20 16 21 17 22 26 23 18 24
REMARK SMILES IDX 25 25 19 26 27 27 20 28 21 29 22 30 23 31 24 32
REMARK H PARENT 6 18
ROOT
ATOM      1  C   UNL     1     -10.520  -9.536 -21.868  1.00  0.00     0.083 C 
ENDROOT
BRANCH   1   2
ATOM      2  C   UNL     1     -11.916  -9.106 -21.419  1.00  0.00     0.233 C 
BRANCH   2   3
ATOM      3  O   UNL     1     -11.887  -8.879 -20.010  1.00  0.00    -0.493 OA
BRANCH   3   4
ATOM      4  C   UNL     1     -10.835  -8.155 -19.516  1.00  0.00     0.119 A 
ATOM      5  C   UNL     1      -6.716  -6.034 -19.755  1.00  0.00     0.209 C 
ATOM      6  C   UNL     1      -7.372  -7.061 -20.711  1.00  0.00     0.100 C 
ATOM      7  O   UNL     1      -7.429  -6.063 -18.487  1.00  0.00    -0.475 OA
ATOM      8  C   UNL     1      -8.644  -7.309 -19.997  1.00  0.00     0.002 A 
ATOM      9  C   UNL     1      -8.594  -6.731 -18.745  1.00  0.00     0.124 A 
ATOM     10  C   UNL     1      -9.756  -8.030 -20.399  1.00  0.00     0.054 A 
ATOM     11  C   UNL     1      -9.635  -6.846 -17.849  1.00  0.00     0.050 A 
ATOM     12  C   UNL     1     -10.770  -7.565 -18.244  1.00  0.00     0.050 A 
BRANCH   5  13
ATOM     13  C   UNL     1      -5.243  -6.396 -19.479  1.00  0.00     0.058 C 
ATOM     14  C   UNL     1      -4.470  -6.823 -20.724  1.00  0.00     0.009 C 
ENDBRANCH   5  13
BRANCH   5  15
ATOM     15  C   UNL     1      -6.816  -4.628 -20.368  1.00  0.00     0.348 C 
ATOM     16  O   UNL     1      -7.733  -4.163 -21.026  1.00  0.00    -0.248 OA
BRANCH  15  17
ATOM     17  O   UNL     1      -5.738  -3.853 -20.103  1.00  0.00    -0.478 OA
ATOM     18  H   UNL     1      -5.960  -3.003 -20.540  1.00  0.00     0.296 HD
ENDBRANCH  15  17
ENDBRANCH   5  15
ENDBRANCH   3   4
ENDBRANCH   2   3
ENDBRANCH   1   2
BRANCH   1  19
ATOM     19  C   UNL     1     -10.329  -9.391 -23.376  1.00  0.00     0.233 C 
BRANCH  19  20
ATOM     20  O   UNL     1      -9.038  -8.830 -23.611  1.00  0.00    -0.492 OA
BRANCH  20  21
ATOM     21  C   UNL     1      -8.602  -8.732 -24.907  1.00  0.00     0.137 A 
ATOM     22  C   UNL     1      -9.135  -7.860 -25.859  1.00  0.00     0.048 A 
ATOM     23  C   UNL     1      -7.550  -9.579 -25.285  1.00  0.00     0.083 A 
ATOM     24  C   UNL     1      -8.626  -7.835 -27.163  1.00  0.00     0.007 A 
ATOM     25  C   UNL     1      -7.043  -9.555 -26.588  1.00  0.00     0.028 A 
ATOM     26  C   UNL     1      -7.580  -8.685 -27.545  1.00  0.00    -0.046 A 
ATOM     27  Cl  UNL     1      -6.837 -10.686 -24.161  1.00  0.00    -0.080 Cl
BRANCH  26  28
ATOM     28  C   UNL     1      -7.035  -8.656 -28.954  1.00  0.00     0.041 C 
BRANCH  28  29
ATOM     29  C   UNL     1      -8.064  -8.826 -30.106  1.00  0.00    -0.034 C 
ATOM     30  C   UNL     1      -9.013  -9.981 -29.724  1.00  0.00     0.011 C 
ATOM     31  C   UNL     1      -8.909  -7.556 -30.305  1.00  0.00     0.011 C 
ATOM     32  C   UNL     1      -7.377  -9.188 -31.433  1.00  0.00     0.011 C 
ENDBRANCH  28  29
ENDBRANCH  26  28
ENDBRANCH  20  21
ENDBRANCH  19  20
ENDBRANCH   1  19
TORSDOF 11
ENDMDL
MODEL 8
REMARK minimizedAffinity -8.7491684
REMARK CNNscore 0.725006521
REMARK CNNaffinity 6.97255278
REMARK SMILES CC[C@@]1(C(=O)O)Cc2cc(OCCCOc3ccc(CC(C)(C)C)cc3Cl)ccc2O1
REMARK SMILES IDX 13 1 12 2 11 3 10 4 3 5 7 6 31 7 8 8 30 9 9 10 29 11 28 12
REMARK SMILES IDX 2 13 1 14 4 15 5 16 6 17 14 19 15 20 16 21 17 22 26 23 18 24
REMARK SMILES IDX 25 25 19 26 27 27 20 28 21 29 22 30 23 31 24 32
REMARK H PARENT 6 18
ROOT
ATOM      1  C   UNL     1      -7.372  -8.942 -22.046  1.00  0.00     0.083 C 
ENDROOT
BRANCH   1   2
ATOM      2  C   UNL     1      -8.588  -9.162 -22.945  1.00  0.00     0.233 C 
BRANCH   2   3
ATOM      3  O   UNL     1      -8.598  -8.144 -23.946  1.00  0.00    -0.493 OA
BRANCH   3   4
ATOM      4  C   UNL     1      -8.488  -8.549 -25.249  1.00  0.00     0.119 A 
ATOM      5  C   UNL     1      -9.592  -8.553 -29.755  1.00  0.00     0.209 C 
ATOM      6  C   UNL     1     -10.355  -7.978 -28.537  1.00  0.00     0.100 C 
ATOM      7  O   UNL     1      -8.575  -9.476 -29.271  1.00  0.00    -0.475 OA
ATOM      8  C   UNL     1      -9.434  -8.363 -27.445  1.00  0.00     0.002 A 
ATOM      9  C   UNL     1      -8.468  -9.221 -27.932  1.00  0.00     0.124 A 
ATOM     10  C   UNL     1      -9.463  -8.020 -26.104  1.00  0.00     0.054 A 
ATOM     11  C   UNL     1      -7.503  -9.768 -27.114  1.00  0.00     0.050 A 
ATOM     12  C   UNL     1      -7.514  -9.424 -25.757  1.00  0.00     0.050 A 
BRANCH   5  13
ATOM     13  C   UNL     1     -10.540  -9.338 -30.685  1.00  0.00     0.058 C 
ATOM     14  C   UNL     1      -9.878 -10.521 -31.384  1.00  0.00     0.009 C 
ENDBRANCH   5  13
BRANCH   5  15
ATOM     15  C   UNL     1      -8.918  -7.405 -30.525  1.00  0.00     0.348 C 
ATOM     16  O   UNL     1      -9.449  -6.585 -31.258  1.00  0.00    -0.248 OA
BRANCH  15  17
ATOM     17  O   UNL     1      -7.583  -7.333 -30.317  1.00  0.00    -0.478 OA
ATOM     18  H   UNL     1      -7.313  -6.557 -30.852  1.00  0.00     0.296 HD
ENDBRANCH  15  17
ENDBRANCH   5  15
ENDBRANCH   3   4
ENDBRANCH   2   3
ENDBRANCH   1   2
BRANCH   1  19
ATOM     19  C   UNL     1      -7.306  -7.515 -21.506  1.00  0.00     0.233 C 
BRANCH  19  20
ATOM     20  O   UNL     1      -6.230  -7.441 -20.570  1.00  0.00    -0.492 OA
BRANCH  20  21
ATOM     21  C   UNL     1      -5.488  -6.290 -20.530  1.00  0.00     0.137 A 
ATOM     22  C   UNL     1      -4.091  -6.247 -20.512  1.00  0.00     0.048 A 
ATOM     23  C   UNL     1      -6.198  -5.080 -20.501  1.00  0.00     0.083 A 
ATOM     24  C   UNL     1      -3.418  -5.020 -20.465  1.00  0.00     0.007 A 
ATOM     25  C   UNL     1      -5.525  -3.855 -20.454  1.00  0.00     0.028 A 
ATOM     26  C   UNL     1      -4.126  -3.812 -20.430  1.00  0.00    -0.046 A 
ATOM     27  Cl  UNL     1      -7.929  -5.052 -20.524  1.00  0.00    -0.080 Cl
BRANCH  26  28
ATOM     28  C   UNL     1      -3.396  -2.489 -20.378  1.00  0.00     0.041 C 
BRANCH  28  29
ATOM     29  C   UNL     1      -3.499  -1.584 -21.638  1.00  0.00    -0.034 C 
ATOM     30  C   UNL     1      -3.652  -2.503 -22.868  1.00  0.00     0.011 C 
ATOM     31  C   UNL     1      -4.728  -0.660 -21.574  1.00  0.00     0.011 C 
ATOM     32  C   UNL     1      -2.235  -0.730 -21.830  1.00  0.00     0.011 C 
ENDBRANCH  28  29
ENDBRANCH  26  28
ENDBRANCH  20  21
ENDBRANCH  19  20
ENDBRANCH   1  19
TORSDOF 11
ENDMDL
MODEL 9
REMARK minimizedAffinity -7.83793116
REMARK CNNscore 0.679120898
REMARK CNNaffinity 6.99645853
REMARK SMILES CC[C@@]1(C(=O)O)Cc2cc(OCCCOc3ccc(CC(C)(C)C)cc3Cl)ccc2O1
REMARK SMILES IDX 13 1 12 2 11 3 10 4 3 5 7 6 31 7 8 8 30 9 9 10 29 11 28 12
REMARK SMILES IDX 2 13 1 14 4 15 5 16 6 17 14 19 15 20 16 21 17 22 26 23 18 24
REMARK SMILES IDX 25 25 19 26 27 27 20 28 21 29 22 30 23 31 24 32
REMARK H PARENT 6 18
ROOT
ATOM      1  C   UNL     1      -6.483 -10.359 -23.242  1.00  0.00     0.083 C 
ENDROOT
BRANCH   1   2
ATOM      2  C   UNL     1      -7.325  -9.368 -22.441  1.00  0.00     0.233 C 
BRANCH   2   3
ATOM      3  O   UNL     1      -6.580  -8.970 -21.290  1.00  0.00    -0.493 OA
BRANCH   3   4
ATOM      4  C   UNL     1      -6.564  -7.634 -20.989  1.00  0.00     0.119 A 
ATOM      5  C   UNL     1      -4.578  -3.479 -20.429  1.00  0.00     0.209 C 
ATOM      6  C   UNL     1      -3.942  -4.885 -20.554  1.00  0.00     0.100 C 
ATOM      7  O   UNL     1      -5.994  -3.637 -20.131  1.00  0.00    -0.475 OA
ATOM      8  C   UNL     1      -5.161  -5.715 -20.678  1.00  0.00     0.002 A 
ATOM      9  C   UNL     1      -6.275  -4.945 -20.409  1.00  0.00     0.124 A 
ATOM     10  C   UNL     1      -5.285  -7.063 -20.965  1.00  0.00     0.054 A 
ATOM     11  C   UNL     1      -7.545  -5.481 -20.412  1.00  0.00     0.050 A 
ATOM     12  C   UNL     1      -7.688  -6.841 -20.709  1.00  0.00     0.050 A 
BRANCH   5  13
ATOM     13  C   UNL     1      -3.937  -2.680 -19.276  1.00  0.00     0.058 C 
ATOM     14  C   UNL     1      -3.579  -1.244 -19.646  1.00  0.00     0.009 C 
ENDBRANCH   5  13
BRANCH   5  15
ATOM     15  C   UNL     1      -4.414  -2.723 -21.758  1.00  0.00     0.348 C 
ATOM     16  O   UNL     1      -3.518  -2.842 -22.579  1.00  0.00    -0.248 OA
BRANCH  15  17
ATOM     17  O   UNL     1      -5.417  -1.848 -22.002  1.00  0.00    -0.478 OA
ATOM     18  H   UNL     1      -5.178  -1.469 -22.875  1.00  0.00     0.296 HD
ENDBRANCH  15  17
ENDBRANCH   5  15
ENDBRANCH   3   4
ENDBRANCH   2   3
ENDBRANCH   1   2
BRANCH   1  19
ATOM     19  C   UNL     1      -6.854 -10.367 -24.724  1.00  0.00     0.233 C 
BRANCH  19  20
ATOM     20  O   UNL     1      -7.636  -9.204 -24.993  1.00  0.00    -0.492 OA
BRANCH  20  21
ATOM     21  C   UNL     1      -7.861  -8.866 -26.302  1.00  0.00     0.137 A 
ATOM     22  C   UNL     1      -6.911  -8.967 -27.322  1.00  0.00     0.048 A 
ATOM     23  C   UNL     1      -9.139  -8.383 -26.620  1.00  0.00     0.083 A 
ATOM     24  C   UNL     1      -7.232  -8.592 -28.632  1.00  0.00     0.007 A 
ATOM     25  C   UNL     1      -9.458  -8.008 -27.929  1.00  0.00     0.028 A 
ATOM     26  C   UNL     1      -8.505  -8.104 -28.950  1.00  0.00    -0.046 A 
ATOM     27  Cl  UNL     1     -10.370  -8.232 -25.412  1.00  0.00    -0.080 Cl
BRANCH  26  28
ATOM     28  C   UNL     1      -8.848  -7.699 -30.366  1.00  0.00     0.041 C 
BRANCH  28  29
ATOM     29  C   UNL     1      -8.696  -8.792 -31.461  1.00  0.00    -0.034 C 
ATOM     30  C   UNL     1      -7.373  -9.540 -31.201  1.00  0.00     0.011 C 
ATOM     31  C   UNL     1      -9.844  -9.814 -31.406  1.00  0.00     0.011 C 
ATOM     32  C   UNL     1      -8.633  -8.179 -32.870  1.00  0.00     0.011 C 
ENDBRANCH  28  29
ENDBRANCH  26  28
ENDBRANCH  20  21
ENDBRANCH  19  20
ENDBRANCH   1  19
TORSDOF 11
ENDMDL
