REMARK VINA RESULT:    -9.229      4.684      7.398
REMARK INTER + INTRA:         -12.594
REMARK INTER:                 -11.450
REMARK INTRA:                  -1.144
REMARK UNBOUND:                -0.937
REMARK SMILES Cc1cc(C(=O)O)[nH]c1/C=C1\C(=O)Nc2ncnc(Nc3ccc(F)c(Cl)c3)c21
REMARK SMILES IDX 10 1 11 2 12 3 13 4 14 5 15 6 16 7 17 8 18 9 19 10 29 11
REMARK SMILES IDX 9 13 2 14 3 15 4 16 8 17 1 18 5 20 6 21 7 22 20 24 21 26
REMARK SMILES IDX 22 27 28 28 23 29 26 30 24 31 27 32 25 33
REMARK H PARENT 14 12 8 19 7 23 20 25
ROOT
ATOM      1  C   UNL     1      19.201  34.203  13.324  1.00  0.00     0.041 C 
ATOM      2  C   UNL     1      20.506  33.935  13.498  1.00  0.00     0.056 C 
ATOM      3  C   UNL     1      21.385  32.925  12.802  1.00  0.00     0.257 C 
ATOM      4  O   UNL     1      21.121  32.230  11.841  1.00  0.00    -0.269 OA
ATOM      5  N   UNL     1      22.579  32.948  13.485  1.00  0.00    -0.306 N 
ATOM      6  C   UNL     1      22.570  33.888  14.500  1.00  0.00     0.146 A 
ATOM      7  N   UNL     1      23.620  34.106  15.287  1.00  0.00    -0.218 NA
ATOM      8  C   UNL     1      23.411  35.080  16.177  1.00  0.00     0.226 A 
ATOM      9  N   UNL     1      22.292  35.823  16.295  1.00  0.00    -0.218 NA
ATOM     10  C   UNL     1      21.266  35.580  15.448  1.00  0.00     0.144 A 
ATOM     11  C   UNL     1      21.358  34.555  14.533  1.00  0.00     0.073 A 
ATOM     12  H   UNL     1      23.374  32.368  13.270  1.00  0.00     0.171 HD
ENDROOT
BRANCH   1  13
ATOM     13  C   UNL     1      18.268  33.667  12.390  1.00  0.00     0.042 A 
ATOM     14  C   UNL     1      16.888  33.513  12.491  1.00  0.00    -0.025 A 
ATOM     15  C   UNL     1      16.438  32.945  11.267  1.00  0.00     0.039 A 
ATOM     16  C   UNL     1      17.531  32.761  10.444  1.00  0.00     0.125 A 
ATOM     17  N   UNL     1      18.629  33.203  11.148  1.00  0.00    -0.349 N 
ATOM     18  C   UNL     1      16.021  33.864  13.649  1.00  0.00     0.046 C 
ATOM     19  H   UNL     1      19.573  33.159  10.773  1.00  0.00     0.167 HD
BRANCH  16  20
ATOM     20  C   UNL     1      17.575  32.220   9.118  1.00  0.00     0.352 C 
ATOM     21  O   UNL     1      17.760  31.059   8.784  1.00  0.00    -0.245 OA
BRANCH  20  22
ATOM     22  O   UNL     1      17.373  33.179   8.192  1.00  0.00    -0.477 OA
ATOM     23  H   UNL     1      16.427  33.076   7.969  1.00  0.00     0.297 HD
ENDBRANCH  20  22
ENDBRANCH  16  20
ENDBRANCH   1  13
BRANCH  10  24
ATOM     24  N   UNL     1      20.126  36.401  15.501  1.00  0.00    -0.339 N 
ATOM     25  H   UNL     1      20.239  37.255  14.968  1.00  0.00     0.168 HD
BRANCH  24  26
ATOM     26  C   UNL     1      19.066  36.430  16.425  1.00  0.00     0.041 A 
ATOM     27  C   UNL     1      17.878  35.743  16.116  1.00  0.00     0.029 A 
ATOM     28  C   UNL     1      19.159  37.062  17.673  1.00  0.00     0.049 A 
ATOM     29  C   UNL     1      16.806  35.716  17.011  1.00  0.00     0.043 A 
ATOM     30  C   UNL     1      18.088  37.036  18.570  1.00  0.00     0.078 A 
ATOM     31  C   UNL     1      16.915  36.365  18.234  1.00  0.00     0.141 A 
ATOM     32  Cl  UNL     1      18.237  37.829  20.092  1.00  0.00    -0.081 Cl
ATOM     33  F   UNL     1      15.877  36.327  19.081  1.00  0.00    -0.205 F 
ENDBRANCH  24  26
ENDBRANCH  10  24
TORSDOF 5
