REMARK VINA RESULT:    -8.774      1.520      2.045
REMARK INTER + INTRA:         -10.462
REMARK INTER:                 -10.531
REMARK INTRA:                   0.069
REMARK UNBOUND:                 0.364
REMARK SMILES CCNC(=O)Nc1ccc(-c2nc(C3=CCOCC3)c3sccc3n2)cc1
REMARK SMILES IDX 7 1 8 2 9 3 10 4 26 5 27 6 6 7 3 8 4 9 5 10 2 13 1 14 11 15
REMARK SMILES IDX 12 16 25 17 13 18 24 19 20 20 23 21 21 22 22 23 14 24 15 25
REMARK SMILES IDX 19 26 16 27 18 28 17 29
REMARK H PARENT 3 11 6 12
ROOT
ATOM      1  C   UNL     1      53.757   0.263 -42.916  1.00  0.00     0.042 A 
ATOM      2  C   UNL     1      53.220   1.167 -43.828  1.00  0.00     0.027 A 
ATOM      3  C   UNL     1      52.240   0.758 -44.745  1.00  0.00     0.014 A 
ATOM      4  C   UNL     1      51.763  -0.565 -44.784  1.00  0.00     0.019 A 
ATOM      5  C   UNL     1      52.318  -1.462 -43.854  1.00  0.00     0.014 A 
ATOM      6  C   UNL     1      53.297  -1.057 -42.936  1.00  0.00     0.027 A 
ENDROOT
BRANCH   1   7
ATOM      7  N   UNL     1      54.742   0.590 -41.962  1.00  0.00    -0.308 N 
ATOM      8  N   UNL     1      56.662   1.339 -41.001  1.00  0.00    -0.338 N 
ATOM      9  C   UNL     1      55.980   1.151 -42.185  1.00  0.00     0.319 C 
ATOM     10  O   UNL     1      56.461   1.460 -43.268  1.00  0.00    -0.249 OA
ATOM     11  H   UNL     1      56.223   1.105 -40.126  1.00  0.00     0.165 HD
ATOM     12  H   UNL     1      54.516   0.383 -41.003  1.00  0.00     0.171 HD
BRANCH   8  13
ATOM     13  C   UNL     1      57.993   1.910 -40.970  1.00  0.00     0.114 C 
ATOM     14  C   UNL     1      58.223   2.723 -39.709  1.00  0.00     0.027 C 
ENDBRANCH   8  13
ENDBRANCH   1   7
BRANCH   4  15
ATOM     15  C   UNL     1      50.731  -0.993 -45.753  1.00  0.00     0.160 A 
ATOM     16  N   UNL     1      50.878  -0.588 -47.027  1.00  0.00    -0.227 NA
ATOM     17  N   UNL     1      49.726  -1.749 -45.293  1.00  0.00    -0.227 NA
ATOM     18  C   UNL     1      49.953  -0.949 -47.945  1.00  0.00     0.088 A 
ATOM     19  C   UNL     1      48.812  -2.125 -46.216  1.00  0.00     0.086 A 
ATOM     20  C   UNL     1      48.884  -1.751 -47.557  1.00  0.00     0.079 A 
ATOM     21  C   UNL     1      47.675  -2.942 -45.938  1.00  0.00     0.041 A 
ATOM     22  S   UNL     1      47.572  -2.433 -48.442  1.00  0.00    -0.140 S 
ATOM     23  C   UNL     1      46.916  -3.184 -47.059  1.00  0.00     0.068 A 
BRANCH  18  24
ATOM     24  C   UNL     1      50.151  -0.475 -49.317  1.00  0.00    -0.020 C 
ATOM     25  C   UNL     1      49.426  -0.987 -50.329  1.00  0.00     0.007 C 
ATOM     26  C   UNL     1      51.264   0.496 -49.609  1.00  0.00     0.066 C 
ATOM     27  C   UNL     1      49.639  -0.597 -51.762  1.00  0.00     0.188 C 
ATOM     28  C   UNL     1      51.671   0.412 -51.080  1.00  0.00     0.165 C 
ATOM     29  O   UNL     1      50.511   0.528 -51.907  1.00  0.00    -0.377 OA
ENDBRANCH  18  24
ENDBRANCH   4  15
TORSDOF 4
