MODEL 1
REMARK VINA RESULT:   -10.883      0.000      0.000
REMARK INTER + INTRA:         -20.047
REMARK INTER:                 -18.200
REMARK INTRA:                  -1.847
REMARK UNBOUND:                -1.847
REMARK SMILES CCCOc1ccc(C[C@H](CC)C(=O)O)cc1CNC(=O)c1ccc([C@]23C[C@H]4C[C@H](C[C@H](C4)C2)C3)cc1
REMARK SMILES IDX 5 1 6 2 7 3 8 4 16 5 17 6 4 7 3 8 2 9 1 10 18 11 19 12 20 13
REMARK SMILES IDX 21 14 22 16 23 17 37 18 24 19 36 20 25 21 26 22 35 23 34 24
REMARK SMILES IDX 27 25 30 26 32 27 28 28 29 29 31 30 33 31 9 32 10 33 11 34
REMARK SMILES IDX 12 35 13 36 14 37 15 38
REMARK H PARENT 19 15 15 39
ROOT
ATOM      1  C   UNL     1      48.150 -37.956 107.731  1.00  0.00     0.124 A 
ATOM      2  C   UNL     1      48.771 -38.965 106.985  1.00  0.00     0.047 A 
ATOM      3  C   UNL     1      48.507 -40.312 107.247  1.00  0.00     0.007 A 
ATOM      4  C   UNL     1      47.650 -40.670 108.286  1.00  0.00    -0.047 A 
ATOM      5  C   UNL     1      47.105 -39.658 109.087  1.00  0.00     0.013 A 
ATOM      6  C   UNL     1      47.291 -38.299 108.793  1.00  0.00     0.014 A 
ENDROOT
BRANCH   1   7
ATOM      7  O   UNL     1      48.308 -36.612 107.505  1.00  0.00    -0.493 OA
BRANCH   7   8
ATOM      8  C   UNL     1      49.570 -36.033 107.837  1.00  0.00     0.229 C 
BRANCH   8   9
ATOM      9  C   UNL     1      49.340 -34.633 108.403  1.00  0.00     0.038 C 
ATOM     10  C   UNL     1      48.165 -33.924 107.744  1.00  0.00     0.007 C 
ENDBRANCH   8   9
ENDBRANCH   7   8
ENDBRANCH   1   7
BRANCH   6  11
ATOM     11  C   UNL     1      46.501 -37.222 109.504  1.00  0.00     0.156 C 
BRANCH  11  12
ATOM     12  N   UNL     1      45.068 -37.454 109.596  1.00  0.00    -0.348 N 
ATOM     13  C   UNL     1      44.269 -37.656 108.489  1.00  0.00     0.251 C 
ATOM     14  O   UNL     1      44.708 -37.756 107.346  1.00  0.00    -0.269 OA
ATOM     15  H   UNL     1      44.684 -37.537 110.523  1.00  0.00     0.164 HD
BRANCH  13  16
ATOM     16  C   UNL     1      42.807 -37.833 108.740  1.00  0.00     0.039 A 
ATOM     17  C   UNL     1      41.949 -36.774 108.433  1.00  0.00     0.014 A 
ATOM     18  C   UNL     1      42.263 -39.001 109.281  1.00  0.00     0.014 A 
ATOM     19  C   UNL     1      40.569 -36.893 108.634  1.00  0.00     0.005 A 
ATOM     20  C   UNL     1      40.877 -39.118 109.471  1.00  0.00     0.005 A 
ATOM     21  C   UNL     1      39.997 -38.074 109.139  1.00  0.00    -0.042 A 
BRANCH  21  22
ATOM     22  C   UNL     1      38.473 -38.175 109.329  1.00  0.00    -0.004 C 
ATOM     23  C   UNL     1      38.035 -39.664 109.495  1.00  0.00     0.015 C 
ATOM     24  C   UNL     1      37.943 -37.405 110.577  1.00  0.00     0.015 C 
ATOM     25  C   UNL     1      37.750 -37.590 108.082  1.00  0.00     0.015 C 
ATOM     26  C   UNL     1      36.507 -39.787 109.624  1.00  0.00    -0.010 C 
ATOM     27  C   UNL     1      36.417 -37.529 110.717  1.00  0.00    -0.010 C 
ATOM     28  C   UNL     1      36.222 -37.715 108.217  1.00  0.00    -0.010 C 
ATOM     29  C   UNL     1      35.845 -39.198 108.366  1.00  0.00     0.007 C 
ATOM     30  C   UNL     1      36.037 -39.008 110.859  1.00  0.00     0.007 C 
ATOM     31  C   UNL     1      35.752 -36.947 109.460  1.00  0.00     0.007 C 
ENDBRANCH  21  22
ENDBRANCH  13  16
ENDBRANCH  11  12
ENDBRANCH   6  11
BRANCH   4  32
ATOM     32  C   UNL     1      47.214 -42.102 108.501  1.00  0.00     0.050 C 
BRANCH  32  33
ATOM     33  C   UNL     1      45.756 -42.394 108.072  1.00  0.00     0.103 C 
BRANCH  33  34
ATOM     34  C   UNL     1      45.354 -43.880 108.123  1.00  0.00     0.012 C 
ATOM     35  C   UNL     1      43.904 -44.128 107.730  1.00  0.00     0.005 C 
ENDBRANCH  33  34
BRANCH  33  36
ATOM     36  C   UNL     1      45.486 -41.760 106.717  1.00  0.00     0.306 C 
ATOM     37  O   UNL     1      45.932 -42.183 105.658  1.00  0.00    -0.252 OA
BRANCH  36  38
ATOM     38  O   UNL     1      44.607 -40.741 106.749  1.00  0.00    -0.481 OA
ATOM     39  H   UNL     1      43.885 -40.957 106.102  1.00  0.00     0.296 HD
ENDBRANCH  36  38
ENDBRANCH  33  36
ENDBRANCH  32  33
ENDBRANCH   4  32
TORSDOF 12
ENDMDL
MODEL 2
REMARK VINA RESULT:   -10.825      5.478      9.324
REMARK INTER + INTRA:         -19.950
REMARK INTER:                 -18.062
REMARK INTRA:                  -1.888
REMARK UNBOUND:                -1.847
REMARK SMILES CCCOc1ccc(C[C@H](CC)C(=O)O)cc1CNC(=O)c1ccc([C@]23C[C@H]4C[C@H](C[C@H](C4)C2)C3)cc1
REMARK SMILES IDX 5 1 6 2 7 3 8 4 16 5 17 6 4 7 3 8 2 9 1 10 18 11 19 12 20 13
REMARK SMILES IDX 21 14 22 16 23 17 37 18 24 19 36 20 25 21 26 22 35 23 34 24
REMARK SMILES IDX 27 25 30 26 32 27 28 28 29 29 31 30 33 31 9 32 10 33 11 34
REMARK SMILES IDX 12 35 13 36 14 37 15 38
REMARK H PARENT 19 15 15 39
ROOT
ATOM      1  C   UNL     1      45.673 -40.392 108.556  1.00  0.00     0.124 A 
ATOM      2  C   UNL     1      46.838 -40.302 109.329  1.00  0.00     0.047 A 
ATOM      3  C   UNL     1      47.412 -39.059 109.613  1.00  0.00     0.007 A 
ATOM      4  C   UNL     1      46.853 -37.893 109.094  1.00  0.00    -0.047 A 
ATOM      5  C   UNL     1      45.742 -37.999 108.246  1.00  0.00     0.013 A 
ATOM      6  C   UNL     1      45.102 -39.225 108.014  1.00  0.00     0.014 A 
ENDROOT
BRANCH   1   7
ATOM      7  O   UNL     1      45.014 -41.562 108.277  1.00  0.00    -0.493 OA
BRANCH   7   8
ATOM      8  C   UNL     1      45.688 -42.517 107.458  1.00  0.00     0.229 C 
BRANCH   8   9
ATOM      9  C   UNL     1      44.674 -43.545 106.956  1.00  0.00     0.038 C 
ATOM     10  C   UNL     1      44.126 -44.417 108.078  1.00  0.00     0.007 C 
ENDBRANCH   8   9
ENDBRANCH   7   8
ENDBRANCH   1   7
BRANCH   6  11
ATOM     11  C   UNL     1      43.766 -39.296 107.307  1.00  0.00     0.156 C 
BRANCH  11  12
ATOM     12  N   UNL     1      43.827 -39.559 105.878  1.00  0.00    -0.348 N 
ATOM     13  C   UNL     1      42.726 -39.934 105.135  1.00  0.00     0.251 C 
ATOM     14  O   UNL     1      41.587 -39.983 105.592  1.00  0.00    -0.269 OA
ATOM     15  H   UNL     1      44.710 -39.382 105.425  1.00  0.00     0.164 HD
BRANCH  13  16
ATOM     16  C   UNL     1      42.957 -40.217 103.686  1.00  0.00     0.039 A 
ATOM     17  C   UNL     1      42.747 -39.186 102.769  1.00  0.00     0.014 A 
ATOM     18  C   UNL     1      43.357 -41.468 103.209  1.00  0.00     0.014 A 
ATOM     19  C   UNL     1      42.964 -39.392 101.401  1.00  0.00     0.005 A 
ATOM     20  C   UNL     1      43.583 -41.666 101.838  1.00  0.00     0.005 A 
ATOM     21  C   UNL     1      43.405 -40.632 100.905  1.00  0.00    -0.042 A 
BRANCH  21  22
ATOM     22  C   UNL     1      43.652 -40.817  99.397  1.00  0.00    -0.004 C 
ATOM     23  C   UNL     1      44.340 -42.189  99.114  1.00  0.00     0.015 C 
ATOM     24  C   UNL     1      42.350 -40.777  98.538  1.00  0.00     0.015 C 
ATOM     25  C   UNL     1      44.585 -39.687  98.876  1.00  0.00     0.015 C 
ATOM     26  C   UNL     1      44.649 -42.362  97.617  1.00  0.00    -0.010 C 
ATOM     27  C   UNL     1      42.651 -40.957  97.041  1.00  0.00    -0.010 C 
ATOM     28  C   UNL     1      44.890 -39.865  97.378  1.00  0.00    -0.010 C 
ATOM     29  C   UNL     1      45.575 -41.223  97.157  1.00  0.00     0.007 C 
ATOM     30  C   UNL     1      43.341 -42.309  96.819  1.00  0.00     0.007 C 
ATOM     31  C   UNL     1      43.580 -39.825  96.579  1.00  0.00     0.007 C 
ENDBRANCH  21  22
ENDBRANCH  13  16
ENDBRANCH  11  12
ENDBRANCH   6  11
BRANCH   4  32
ATOM     32  C   UNL     1      47.345 -36.524 109.505  1.00  0.00     0.050 C 
BRANCH  32  33
ATOM     33  C   UNL     1      48.139 -35.776 108.406  1.00  0.00     0.103 C 
BRANCH  33  34
ATOM     34  C   UNL     1      49.407 -36.503 107.919  1.00  0.00     0.012 C 
ATOM     35  C   UNL     1      49.202 -37.268 106.618  1.00  0.00     0.005 C 
ENDBRANCH  33  34
BRANCH  33  36
ATOM     36  C   UNL     1      48.417 -34.352 108.858  1.00  0.00     0.306 C 
ATOM     37  O   UNL     1      48.421 -33.989 110.028  1.00  0.00    -0.252 OA
BRANCH  36  38
ATOM     38  O   UNL     1      48.782 -33.518 107.865  1.00  0.00    -0.481 OA
ATOM     39  H   UNL     1      48.802 -34.053 107.028  1.00  0.00     0.296 HD
ENDBRANCH  36  38
ENDBRANCH  33  36
ENDBRANCH  32  33
ENDBRANCH   4  32
TORSDOF 12
ENDMDL
MODEL 3
REMARK VINA RESULT:   -10.659      5.319      9.189
REMARK INTER + INTRA:         -19.672
REMARK INTER:                 -17.953
REMARK INTRA:                  -1.719
REMARK UNBOUND:                -1.847
REMARK SMILES CCCOc1ccc(C[C@H](CC)C(=O)O)cc1CNC(=O)c1ccc([C@]23C[C@H]4C[C@H](C[C@H](C4)C2)C3)cc1
REMARK SMILES IDX 5 1 6 2 7 3 8 4 16 5 17 6 4 7 3 8 2 9 1 10 18 11 19 12 20 13
REMARK SMILES IDX 21 14 22 16 23 17 37 18 24 19 36 20 25 21 26 22 35 23 34 24
REMARK SMILES IDX 27 25 30 26 32 27 28 28 29 29 31 30 33 31 9 32 10 33 11 34
REMARK SMILES IDX 12 35 13 36 14 37 15 38
REMARK H PARENT 19 15 15 39
ROOT
ATOM      1  C   UNL     1      43.709 -39.194 108.999  1.00  0.00     0.124 A 
ATOM      2  C   UNL     1      44.269 -38.050 109.582  1.00  0.00     0.047 A 
ATOM      3  C   UNL     1      45.646 -37.820 109.523  1.00  0.00     0.007 A 
ATOM      4  C   UNL     1      46.488 -38.751 108.917  1.00  0.00    -0.047 A 
ATOM      5  C   UNL     1      45.932 -39.936 108.418  1.00  0.00     0.013 A 
ATOM      6  C   UNL     1      44.546 -40.150 108.392  1.00  0.00     0.014 A 
ENDROOT
BRANCH   1   7
ATOM      7  O   UNL     1      42.366 -39.470 108.960  1.00  0.00    -0.493 OA
BRANCH   7   8
ATOM      8  C   UNL     1      41.469 -38.362 108.880  1.00  0.00     0.229 C 
BRANCH   8   9
ATOM      9  C   UNL     1      40.036 -38.871 109.029  1.00  0.00     0.038 C 
ATOM     10  C   UNL     1      39.392 -38.422 110.333  1.00  0.00     0.007 C 
ENDBRANCH   8   9
ENDBRANCH   7   8
ENDBRANCH   1   7
BRANCH   6  11
ATOM     11  C   UNL     1      43.941 -41.310 107.630  1.00  0.00     0.156 C 
BRANCH  11  12
ATOM     12  N   UNL     1      44.024 -41.217 106.181  1.00  0.00    -0.348 N 
ATOM     13  C   UNL     1      43.073 -40.575 105.414  1.00  0.00     0.251 C 
ATOM     14  O   UNL     1      42.131 -39.946 105.891  1.00  0.00    -0.269 OA
ATOM     15  H   UNL     1      44.859 -41.584 105.754  1.00  0.00     0.164 HD
BRANCH  13  16
ATOM     16  C   UNL     1      43.271 -40.606 103.934  1.00  0.00     0.039 A 
ATOM     17  C   UNL     1      43.776 -41.773 103.357  1.00  0.00     0.014 A 
ATOM     18  C   UNL     1      42.989 -39.516 103.105  1.00  0.00     0.014 A 
ATOM     19  C   UNL     1      43.965 -41.861 101.973  1.00  0.00     0.005 A 
ATOM     20  C   UNL     1      43.172 -39.613 101.717  1.00  0.00     0.005 A 
ATOM     21  C   UNL     1      43.651 -40.790 101.117  1.00  0.00    -0.042 A 
BRANCH  21  22
ATOM     22  C   UNL     1      43.854 -40.929  99.598  1.00  0.00    -0.004 C 
ATOM     23  C   UNL     1      44.730 -39.759  99.049  1.00  0.00     0.015 C 
ATOM     24  C   UNL     1      44.556 -42.257  99.178  1.00  0.00     0.015 C 
ATOM     25  C   UNL     1      42.476 -40.886  98.879  1.00  0.00     0.015 C 
ATOM     26  C   UNL     1      44.891 -39.850  97.522  1.00  0.00    -0.010 C 
ATOM     27  C   UNL     1      44.728 -42.352  97.653  1.00  0.00    -0.010 C 
ATOM     28  C   UNL     1      42.643 -40.978  97.352  1.00  0.00    -0.010 C 
ATOM     29  C   UNL     1      43.502 -39.800  96.863  1.00  0.00     0.007 C 
ATOM     30  C   UNL     1      45.578 -41.173  97.162  1.00  0.00     0.007 C 
ATOM     31  C   UNL     1      43.343 -42.296  96.990  1.00  0.00     0.007 C 
ENDBRANCH  21  22
ENDBRANCH  13  16
ENDBRANCH  11  12
ENDBRANCH   6  11
BRANCH   4  32
ATOM     32  C   UNL     1      47.956 -38.467 108.691  1.00  0.00     0.050 C 
BRANCH  32  33
ATOM     33  C   UNL     1      48.248 -37.556 107.474  1.00  0.00     0.103 C 
BRANCH  33  34
ATOM     34  C   UNL     1      49.617 -37.790 106.807  1.00  0.00     0.012 C 
ATOM     35  C   UNL     1      49.598 -38.897 105.762  1.00  0.00     0.005 C 
ENDBRANCH  33  34
BRANCH  33  36
ATOM     36  C   UNL     1      48.025 -36.102 107.861  1.00  0.00     0.306 C 
ATOM     37  O   UNL     1      48.527 -35.565 108.839  1.00  0.00    -0.252 OA
BRANCH  36  38
ATOM     38  O   UNL     1      47.309 -35.397 106.964  1.00  0.00    -0.481 OA
ATOM     39  H   UNL     1      46.735 -36.043 106.476  1.00  0.00     0.296 HD
ENDBRANCH  36  38
ENDBRANCH  33  36
ENDBRANCH  32  33
ENDBRANCH   4  32
TORSDOF 12
ENDMDL
MODEL 4
REMARK VINA RESULT:   -10.231      5.185      9.251
REMARK INTER + INTRA:         -18.956
REMARK INTER:                 -16.805
REMARK INTRA:                  -2.151
REMARK UNBOUND:                -1.847
REMARK SMILES CCCOc1ccc(C[C@H](CC)C(=O)O)cc1CNC(=O)c1ccc([C@]23C[C@H]4C[C@H](C[C@H](C4)C2)C3)cc1
REMARK SMILES IDX 5 1 6 2 7 3 8 4 16 5 17 6 4 7 3 8 2 9 1 10 18 11 19 12 20 13
REMARK SMILES IDX 21 14 22 16 23 17 37 18 24 19 36 20 25 21 26 22 35 23 34 24
REMARK SMILES IDX 27 25 30 26 32 27 28 28 29 29 31 30 33 31 9 32 10 33 11 34
REMARK SMILES IDX 12 35 13 36 14 37 15 38
REMARK H PARENT 19 15 15 39
ROOT
ATOM      1  C   UNL     1      43.230 -39.003 108.938  1.00  0.00     0.124 A 
ATOM      2  C   UNL     1      43.478 -37.733 109.475  1.00  0.00     0.047 A 
ATOM      3  C   UNL     1      44.783 -37.243 109.577  1.00  0.00     0.007 A 
ATOM      4  C   UNL     1      45.861 -38.032 109.182  1.00  0.00    -0.047 A 
ATOM      5  C   UNL     1      45.613 -39.335 108.732  1.00  0.00     0.013 A 
ATOM      6  C   UNL     1      44.310 -39.818 108.545  1.00  0.00     0.014 A 
ENDROOT
BRANCH   1   7
ATOM      7  O   UNL     1      41.982 -39.538 108.748  1.00  0.00    -0.493 OA
BRANCH   7   8
ATOM      8  C   UNL     1      40.903 -38.628 108.532  1.00  0.00     0.229 C 
BRANCH   8   9
ATOM      9  C   UNL     1      40.003 -39.179 107.427  1.00  0.00     0.038 C 
ATOM     10  C   UNL     1      40.769 -39.464 106.142  1.00  0.00     0.007 C 
ENDBRANCH   8   9
ENDBRANCH   7   8
ENDBRANCH   1   7
BRANCH   6  11
ATOM     11  C   UNL     1      44.047 -41.124 107.826  1.00  0.00     0.156 C 
BRANCH  11  12
ATOM     12  N   UNL     1      43.969 -41.035 106.377  1.00  0.00    -0.348 N 
ATOM     13  C   UNL     1      44.343 -42.068 105.540  1.00  0.00     0.251 C 
ATOM     14  O   UNL     1      44.679 -43.178 105.944  1.00  0.00    -0.269 OA
ATOM     15  H   UNL     1      43.553 -40.199 105.998  1.00  0.00     0.164 HD
BRANCH  13  16
ATOM     16  C   UNL     1      44.252 -41.809 104.072  1.00  0.00     0.039 A 
ATOM     17  C   UNL     1      45.182 -42.425 103.232  1.00  0.00     0.014 A 
ATOM     18  C   UNL     1      43.291 -40.968 103.505  1.00  0.00     0.014 A 
ATOM     19  C   UNL     1      45.132 -42.230 101.847  1.00  0.00     0.005 A 
ATOM     20  C   UNL     1      43.239 -40.784 102.114  1.00  0.00     0.005 A 
ATOM     21  C   UNL     1      44.148 -41.420 101.252  1.00  0.00    -0.042 A 
BRANCH  21  22
ATOM     22  C   UNL     1      44.112 -41.243  99.724  1.00  0.00    -0.004 C 
ATOM     23  C   UNL     1      42.642 -41.095  99.220  1.00  0.00     0.015 C 
ATOM     24  C   UNL     1      44.893 -39.991  99.218  1.00  0.00     0.015 C 
ATOM     25  C   UNL     1      44.740 -42.489  99.038  1.00  0.00     0.015 C 
ATOM     26  C   UNL     1      42.585 -40.979  97.687  1.00  0.00    -0.010 C 
ATOM     27  C   UNL     1      44.834 -39.864  97.687  1.00  0.00    -0.010 C 
ATOM     28  C   UNL     1      44.681 -42.368  97.505  1.00  0.00    -0.010 C 
ATOM     29  C   UNL     1      43.215 -42.236  97.061  1.00  0.00     0.007 C 
ATOM     30  C   UNL     1      43.372 -39.740  97.242  1.00  0.00     0.007 C 
ATOM     31  C   UNL     1      45.457 -41.120  97.058  1.00  0.00     0.007 C 
ENDBRANCH  21  22
ENDBRANCH  13  16
ENDBRANCH  11  12
ENDBRANCH   6  11
BRANCH   4  32
ATOM     32  C   UNL     1      47.270 -37.484 109.127  1.00  0.00     0.050 C 
BRANCH  32  33
ATOM     33  C   UNL     1      47.831 -37.316 107.694  1.00  0.00     0.103 C 
BRANCH  33  34
ATOM     34  C   UNL     1      49.107 -38.129 107.402  1.00  0.00     0.012 C 
ATOM     35  C   UNL     1      48.827 -39.482 106.761  1.00  0.00     0.005 C 
ENDBRANCH  33  34
BRANCH  33  36
ATOM     36  C   UNL     1      47.995 -35.837 107.381  1.00  0.00     0.306 C 
ATOM     37  O   UNL     1      48.352 -35.398 106.295  1.00  0.00    -0.252 OA
BRANCH  36  38
ATOM     38  O   UNL     1      47.598 -35.016 108.373  1.00  0.00    -0.481 OA
ATOM     39  H   UNL     1      48.119 -35.262 109.181  1.00  0.00     0.296 HD
ENDBRANCH  36  38
ENDBRANCH  33  36
ENDBRANCH  32  33
ENDBRANCH   4  32
TORSDOF 12
ENDMDL
MODEL 5
REMARK VINA RESULT:   -10.220      5.560      9.705
REMARK INTER + INTRA:         -18.938
REMARK INTER:                 -16.742
REMARK INTRA:                  -2.196
REMARK UNBOUND:                -1.847
REMARK SMILES CCCOc1ccc(C[C@H](CC)C(=O)O)cc1CNC(=O)c1ccc([C@]23C[C@H]4C[C@H](C[C@H](C4)C2)C3)cc1
REMARK SMILES IDX 5 1 6 2 7 3 8 4 16 5 17 6 4 7 3 8 2 9 1 10 18 11 19 12 20 13
REMARK SMILES IDX 21 14 22 16 23 17 37 18 24 19 36 20 25 21 26 22 35 23 34 24
REMARK SMILES IDX 27 25 30 26 32 27 28 28 29 29 31 30 33 31 9 32 10 33 11 34
REMARK SMILES IDX 12 35 13 36 14 37 15 38
REMARK H PARENT 19 15 15 39
ROOT
ATOM      1  C   UNL     1      42.711 -37.974 107.978  1.00  0.00     0.124 A 
ATOM      2  C   UNL     1      42.174 -36.805 108.533  1.00  0.00     0.047 A 
ATOM      3  C   UNL     1      40.938 -36.825 109.184  1.00  0.00     0.007 A 
ATOM      4  C   UNL     1      40.202 -38.007 109.255  1.00  0.00    -0.047 A 
ATOM      5  C   UNL     1      40.702 -39.150 108.619  1.00  0.00     0.013 A 
ATOM      6  C   UNL     1      41.975 -39.173 108.031  1.00  0.00     0.014 A 
ENDROOT
BRANCH   1   7
ATOM      7  O   UNL     1      43.939 -38.056 107.373  1.00  0.00    -0.493 OA
BRANCH   7   8
ATOM      8  C   UNL     1      45.091 -37.865 108.195  1.00  0.00     0.229 C 
BRANCH   8   9
ATOM      9  C   UNL     1      46.013 -39.074 108.045  1.00  0.00     0.038 C 
ATOM     10  C   UNL     1      45.786 -40.118 109.129  1.00  0.00     0.007 C 
ENDBRANCH   8   9
ENDBRANCH   7   8
ENDBRANCH   1   7
BRANCH   6  11
ATOM     11  C   UNL     1      42.609 -40.469 107.571  1.00  0.00     0.156 C 
BRANCH  11  12
ATOM     12  N   UNL     1      42.785 -40.604 106.134  1.00  0.00    -0.348 N 
ATOM     13  C   UNL     1      43.832 -41.302 105.568  1.00  0.00     0.251 C 
ATOM     14  O   UNL     1      44.646 -41.949 106.222  1.00  0.00    -0.269 OA
ATOM     15  H   UNL     1      42.056 -40.221 105.553  1.00  0.00     0.164 HD
BRANCH  13  16
ATOM     16  C   UNL     1      43.906 -41.310 104.076  1.00  0.00     0.039 A 
ATOM     17  C   UNL     1      43.177 -40.350 103.371  1.00  0.00     0.014 A 
ATOM     18  C   UNL     1      44.658 -42.243 103.356  1.00  0.00     0.014 A 
ATOM     19  C   UNL     1      43.223 -40.303 101.973  1.00  0.00     0.005 A 
ATOM     20  C   UNL     1      44.709 -42.185 101.954  1.00  0.00     0.005 A 
ATOM     21  C   UNL     1      44.005 -41.207 101.231  1.00  0.00    -0.042 A 
BRANCH  21  22
ATOM     22  C   UNL     1      44.047 -41.113  99.696  1.00  0.00    -0.004 C 
ATOM     23  C   UNL     1      42.606 -40.983  99.111  1.00  0.00     0.015 C 
ATOM     24  C   UNL     1      44.864 -39.896  99.164  1.00  0.00     0.015 C 
ATOM     25  C   UNL     1      44.697 -42.399  99.110  1.00  0.00     0.015 C 
ATOM     26  C   UNL     1      42.628 -40.950  97.573  1.00  0.00    -0.010 C 
ATOM     27  C   UNL     1      44.884 -39.852  97.627  1.00  0.00    -0.010 C 
ATOM     28  C   UNL     1      44.716 -42.360  97.572  1.00  0.00    -0.010 C 
ATOM     29  C   UNL     1      43.275 -42.243  97.049  1.00  0.00     0.007 C 
ATOM     30  C   UNL     1      43.447 -39.742  97.102  1.00  0.00     0.007 C 
ATOM     31  C   UNL     1      45.525 -41.144  97.099  1.00  0.00     0.007 C 
ENDBRANCH  21  22
ENDBRANCH  13  16
ENDBRANCH  11  12
ENDBRANCH   6  11
BRANCH   4  32
ATOM     32  C   UNL     1      38.942 -38.110 110.084  1.00  0.00     0.050 C 
BRANCH  32  33
ATOM     33  C   UNL     1      37.720 -38.673 109.317  1.00  0.00     0.103 C 
BRANCH  33  34
ATOM     34  C   UNL     1      37.181 -37.757 108.202  1.00  0.00     0.012 C 
ATOM     35  C   UNL     1      36.604 -38.522 107.018  1.00  0.00     0.005 C 
ENDBRANCH  33  34
BRANCH  33  36
ATOM     36  C   UNL     1      36.643 -39.085 110.308  1.00  0.00     0.306 C 
ATOM     37  O   UNL     1      36.102 -38.320 111.095  1.00  0.00    -0.252 OA
BRANCH  36  38
ATOM     38  O   UNL     1      36.233 -40.362 110.178  1.00  0.00    -0.481 OA
ATOM     39  H   UNL     1      35.241 -40.355 110.214  1.00  0.00     0.296 HD
ENDBRANCH  36  38
ENDBRANCH  33  36
ENDBRANCH  32  33
ENDBRANCH   4  32
TORSDOF 12
ENDMDL
MODEL 6
REMARK VINA RESULT:   -10.197      5.626      9.917
REMARK INTER + INTRA:         -18.899
REMARK INTER:                 -17.356
REMARK INTRA:                  -1.543
REMARK UNBOUND:                -1.847
REMARK SMILES CCCOc1ccc(C[C@H](CC)C(=O)O)cc1CNC(=O)c1ccc([C@]23C[C@H]4C[C@H](C[C@H](C4)C2)C3)cc1
REMARK SMILES IDX 5 1 6 2 7 3 8 4 16 5 17 6 4 7 3 8 2 9 1 10 18 11 19 12 20 13
REMARK SMILES IDX 21 14 22 16 23 17 37 18 24 19 36 20 25 21 26 22 35 23 34 24
REMARK SMILES IDX 27 25 30 26 32 27 28 28 29 29 31 30 33 31 9 32 10 33 11 34
REMARK SMILES IDX 12 35 13 36 14 37 15 38
REMARK H PARENT 19 15 15 39
ROOT
ATOM      1  C   UNL     1      42.200 -37.747 108.315  1.00  0.00     0.124 A 
ATOM      2  C   UNL     1      41.339 -36.763 108.818  1.00  0.00     0.047 A 
ATOM      3  C   UNL     1      39.962 -36.992 108.897  1.00  0.00     0.007 A 
ATOM      4  C   UNL     1      39.423 -38.192 108.437  1.00  0.00    -0.047 A 
ATOM      5  C   UNL     1      40.279 -39.133 107.851  1.00  0.00     0.013 A 
ATOM      6  C   UNL     1      41.670 -38.960 107.836  1.00  0.00     0.014 A 
ENDROOT
BRANCH   1   7
ATOM      7  O   UNL     1      43.565 -37.629 108.255  1.00  0.00    -0.493 OA
BRANCH   7   8
ATOM      8  C   UNL     1      44.303 -37.918 109.442  1.00  0.00     0.229 C 
BRANCH   8   9
ATOM      9  C   UNL     1      45.623 -38.584 109.055  1.00  0.00     0.038 C 
ATOM     10  C   UNL     1      45.591 -40.094 109.245  1.00  0.00     0.007 C 
ENDBRANCH   8   9
ENDBRANCH   7   8
ENDBRANCH   1   7
BRANCH   6  11
ATOM     11  C   UNL     1      42.601 -40.084 107.433  1.00  0.00     0.156 C 
BRANCH  11  12
ATOM     12  N   UNL     1      42.757 -40.285 106.001  1.00  0.00    -0.348 N 
ATOM     13  C   UNL     1      43.741 -41.085 105.458  1.00  0.00     0.251 C 
ATOM     14  O   UNL     1      44.504 -41.772 106.133  1.00  0.00    -0.269 OA
ATOM     15  H   UNL     1      42.057 -39.866 105.409  1.00  0.00     0.164 HD
BRANCH  13  16
ATOM     16  C   UNL     1      43.805 -41.154 103.967  1.00  0.00     0.039 A 
ATOM     17  C   UNL     1      43.181 -40.145 103.230  1.00  0.00     0.014 A 
ATOM     18  C   UNL     1      44.445 -42.188 103.279  1.00  0.00     0.014 A 
ATOM     19  C   UNL     1      43.224 -40.152 101.831  1.00  0.00     0.005 A 
ATOM     20  C   UNL     1      44.493 -42.185 101.876  1.00  0.00     0.005 A 
ATOM     21  C   UNL     1      43.897 -41.162 101.121  1.00  0.00    -0.042 A 
BRANCH  21  22
ATOM     22  C   UNL     1      43.940 -41.128  99.583  1.00  0.00    -0.004 C 
ATOM     23  C   UNL     1      44.633 -42.408  99.020  1.00  0.00     0.015 C 
ATOM     24  C   UNL     1      42.531 -41.046  98.917  1.00  0.00     0.015 C 
ATOM     25  C   UNL     1      44.748 -39.886  99.109  1.00  0.00     0.015 C 
ATOM     26  C   UNL     1      44.739 -42.359  97.487  1.00  0.00    -0.010 C 
ATOM     27  C   UNL     1      42.628 -41.005  97.383  1.00  0.00    -0.010 C 
ATOM     28  C   UNL     1      44.850 -39.843  97.574  1.00  0.00    -0.010 C 
ATOM     29  C   UNL     1      45.549 -41.118  97.074  1.00  0.00     0.007 C 
ATOM     30  C   UNL     1      43.332 -42.273  96.883  1.00  0.00     0.007 C 
ATOM     31  C   UNL     1      43.441 -39.769  96.968  1.00  0.00     0.007 C 
ENDBRANCH  21  22
ENDBRANCH  13  16
ENDBRANCH  11  12
ENDBRANCH   6  11
BRANCH   4  32
ATOM     32  C   UNL     1      37.967 -38.543 108.650  1.00  0.00     0.050 C 
BRANCH  32  33
ATOM     33  C   UNL     1      37.175 -37.500 109.475  1.00  0.00     0.103 C 
BRANCH  33  34
ATOM     34  C   UNL     1      36.407 -38.078 110.678  1.00  0.00     0.012 C 
ATOM     35  C   UNL     1      36.008 -39.537 110.496  1.00  0.00     0.005 C 
ENDBRANCH  33  34
BRANCH  33  36
ATOM     36  C   UNL     1      36.287 -36.685 108.548  1.00  0.00     0.306 C 
ATOM     37  O   UNL     1      35.977 -37.028 107.415  1.00  0.00    -0.252 OA
BRANCH  36  38
ATOM     38  O   UNL     1      35.756 -35.586 109.118  1.00  0.00    -0.481 OA
ATOM     39  H   UNL     1      35.818 -34.853 108.451  1.00  0.00     0.296 HD
ENDBRANCH  36  38
ENDBRANCH  33  36
ENDBRANCH  32  33
ENDBRANCH   4  32
TORSDOF 12
ENDMDL
MODEL 7
REMARK VINA RESULT:    -9.984      5.475      8.936
REMARK INTER + INTRA:         -18.542
REMARK INTER:                 -16.705
REMARK INTRA:                  -1.837
REMARK UNBOUND:                -1.847
REMARK SMILES CCCOc1ccc(C[C@H](CC)C(=O)O)cc1CNC(=O)c1ccc([C@]23C[C@H]4C[C@H](C[C@H](C4)C2)C3)cc1
REMARK SMILES IDX 5 1 6 2 7 3 8 4 16 5 17 6 4 7 3 8 2 9 1 10 18 11 19 12 20 13
REMARK SMILES IDX 21 14 22 16 23 17 37 18 24 19 36 20 25 21 26 22 35 23 34 24
REMARK SMILES IDX 27 25 30 26 32 27 28 28 29 29 31 30 33 31 9 32 10 33 11 34
REMARK SMILES IDX 12 35 13 36 14 37 15 38
REMARK H PARENT 19 15 15 39
ROOT
ATOM      1  C   UNL     1      42.213 -38.473 109.066  1.00  0.00     0.124 A 
ATOM      2  C   UNL     1      42.645 -39.204 110.180  1.00  0.00     0.047 A 
ATOM      3  C   UNL     1      43.947 -39.709 110.242  1.00  0.00     0.007 A 
ATOM      4  C   UNL     1      44.822 -39.525 109.173  1.00  0.00    -0.047 A 
ATOM      5  C   UNL     1      44.355 -38.873 108.025  1.00  0.00     0.013 A 
ATOM      6  C   UNL     1      43.081 -38.288 107.972  1.00  0.00     0.014 A 
ENDROOT
BRANCH   1   7
ATOM      7  O   UNL     1      40.975 -37.895 108.947  1.00  0.00    -0.493 OA
BRANCH   7   8
ATOM      8  C   UNL     1      39.838 -38.719 109.202  1.00  0.00     0.229 C 
BRANCH   8   9
ATOM      9  C   UNL     1      38.906 -38.668 107.992  1.00  0.00     0.038 C 
ATOM     10  C   UNL     1      37.632 -37.882 108.271  1.00  0.00     0.007 C 
ENDBRANCH   8   9
ENDBRANCH   7   8
ENDBRANCH   1   7
BRANCH   6  11
ATOM     11  C   UNL     1      42.678 -37.375 106.834  1.00  0.00     0.156 C 
BRANCH  11  12
ATOM     12  N   UNL     1      42.874 -37.917 105.498  1.00  0.00    -0.348 N 
ATOM     13  C   UNL     1      42.212 -39.036 105.037  1.00  0.00     0.251 C 
ATOM     14  O   UNL     1      41.331 -39.610 105.673  1.00  0.00    -0.269 OA
ATOM     15  H   UNL     1      43.472 -37.390 104.882  1.00  0.00     0.164 HD
BRANCH  13  16
ATOM     16  C   UNL     1      42.555 -39.501 103.660  1.00  0.00     0.039 A 
ATOM     17  C   UNL     1      42.210 -38.686 102.580  1.00  0.00     0.014 A 
ATOM     18  C   UNL     1      43.191 -40.719 103.404  1.00  0.00     0.014 A 
ATOM     19  C   UNL     1      42.523 -39.066 101.270  1.00  0.00     0.005 A 
ATOM     20  C   UNL     1      43.512 -41.090 102.089  1.00  0.00     0.005 A 
ATOM     21  C   UNL     1      43.198 -40.268 100.994  1.00  0.00    -0.042 A 
BRANCH  21  22
ATOM     22  C   UNL     1      43.543 -40.645  99.542  1.00  0.00    -0.004 C 
ATOM     23  C   UNL     1      44.244 -42.039  99.485  1.00  0.00     0.015 C 
ATOM     24  C   UNL     1      42.301 -40.723  98.602  1.00  0.00     0.015 C 
ATOM     25  C   UNL     1      44.512 -39.587  98.942  1.00  0.00     0.015 C 
ATOM     26  C   UNL     1      44.650 -42.402  98.046  1.00  0.00    -0.010 C 
ATOM     27  C   UNL     1      42.699 -41.093  97.163  1.00  0.00    -0.010 C 
ATOM     28  C   UNL     1      44.915 -39.955  97.503  1.00  0.00    -0.010 C 
ATOM     29  C   UNL     1      45.608 -41.327  97.505  1.00  0.00     0.007 C 
ATOM     30  C   UNL     1      43.398 -42.458  97.163  1.00  0.00     0.007 C 
ATOM     31  C   UNL     1      43.661 -40.025  96.621  1.00  0.00     0.007 C 
ENDBRANCH  21  22
ENDBRANCH  13  16
ENDBRANCH  11  12
ENDBRANCH   6  11
BRANCH   4  32
ATOM     32  C   UNL     1      46.281 -39.913 109.264  1.00  0.00     0.050 C 
BRANCH  32  33
ATOM     33  C   UNL     1      46.827 -40.636 108.008  1.00  0.00     0.103 C 
BRANCH  33  34
ATOM     34  C   UNL     1      46.785 -42.174 108.080  1.00  0.00     0.012 C 
ATOM     35  C   UNL     1      45.372 -42.740 108.110  1.00  0.00     0.005 C 
ENDBRANCH  33  34
BRANCH  33  36
ATOM     36  C   UNL     1      48.210 -40.101 107.674  1.00  0.00     0.306 C 
ATOM     37  O   UNL     1      48.510 -39.589 106.603  1.00  0.00    -0.252 OA
BRANCH  36  38
ATOM     38  O   UNL     1      49.075 -40.126 108.706  1.00  0.00    -0.481 OA
ATOM     39  H   UNL     1      48.727 -40.783 109.363  1.00  0.00     0.296 HD
ENDBRANCH  36  38
ENDBRANCH  33  36
ENDBRANCH  32  33
ENDBRANCH   4  32
TORSDOF 12
ENDMDL
MODEL 8
REMARK VINA RESULT:    -9.872      5.434      8.220
REMARK INTER + INTRA:         -18.355
REMARK INTER:                 -16.663
REMARK INTRA:                  -1.692
REMARK UNBOUND:                -1.847
REMARK SMILES CCCOc1ccc(C[C@H](CC)C(=O)O)cc1CNC(=O)c1ccc([C@]23C[C@H]4C[C@H](C[C@H](C4)C2)C3)cc1
REMARK SMILES IDX 5 1 6 2 7 3 8 4 16 5 17 6 4 7 3 8 2 9 1 10 18 11 19 12 20 13
REMARK SMILES IDX 21 14 22 16 23 17 37 18 24 19 36 20 25 21 26 22 35 23 34 24
REMARK SMILES IDX 27 25 30 26 32 27 28 28 29 29 31 30 33 31 9 32 10 33 11 34
REMARK SMILES IDX 12 35 13 36 14 37 15 38
REMARK H PARENT 19 15 15 39
ROOT
ATOM      1  C   UNL     1      45.635 -38.680 108.835  1.00  0.00     0.124 A 
ATOM      2  C   UNL     1      46.496 -39.485 109.590  1.00  0.00     0.047 A 
ATOM      3  C   UNL     1      46.399 -40.879 109.540  1.00  0.00     0.007 A 
ATOM      4  C   UNL     1      45.411 -41.485 108.765  1.00  0.00    -0.047 A 
ATOM      5  C   UNL     1      44.495 -40.672 108.086  1.00  0.00     0.013 A 
ATOM      6  C   UNL     1      44.624 -39.275 108.057  1.00  0.00     0.014 A 
ENDROOT
BRANCH   1   7
ATOM      7  O   UNL     1      45.697 -37.310 108.782  1.00  0.00    -0.493 OA
BRANCH   7   8
ATOM      8  C   UNL     1      46.984 -36.706 108.906  1.00  0.00     0.229 C 
BRANCH   8   9
ATOM      9  C   UNL     1      47.658 -36.687 107.534  1.00  0.00     0.038 C 
ATOM     10  C   UNL     1      49.127 -37.081 107.602  1.00  0.00     0.007 C 
ENDBRANCH   8   9
ENDBRANCH   7   8
ENDBRANCH   1   7
BRANCH   6  11
ATOM     11  C   UNL     1      43.789 -38.425 107.123  1.00  0.00     0.156 C 
BRANCH  11  12
ATOM     12  N   UNL     1      43.832 -38.808 105.721  1.00  0.00    -0.348 N 
ATOM     13  C   UNL     1      42.909 -39.659 105.147  1.00  0.00     0.251 C 
ATOM     14  O   UNL     1      41.921 -40.085 105.740  1.00  0.00    -0.269 OA
ATOM     15  H   UNL     1      44.535 -38.362 105.154  1.00  0.00     0.164 HD
BRANCH  13  16
ATOM     16  C   UNL     1      43.113 -39.998 103.707  1.00  0.00     0.039 A 
ATOM     17  C   UNL     1      42.868 -39.009 102.752  1.00  0.00     0.014 A 
ATOM     18  C   UNL     1      43.523 -41.262 103.273  1.00  0.00     0.014 A 
ATOM     19  C   UNL     1      43.059 -39.269 101.390  1.00  0.00     0.005 A 
ATOM     20  C   UNL     1      43.722 -41.514 101.907  1.00  0.00     0.005 A 
ATOM     21  C   UNL     1      43.509 -40.522 100.935  1.00  0.00    -0.042 A 
BRANCH  21  22
ATOM     22  C   UNL     1      43.726 -40.766  99.431  1.00  0.00    -0.004 C 
ATOM     23  C   UNL     1      44.687 -39.692  98.831  1.00  0.00     0.015 C 
ATOM     24  C   UNL     1      44.345 -42.161  99.105  1.00  0.00     0.015 C 
ATOM     25  C   UNL     1      42.365 -40.677  98.684  1.00  0.00     0.015 C 
ATOM     26  C   UNL     1      44.865 -39.887  97.315  1.00  0.00    -0.010 C 
ATOM     27  C   UNL     1      44.533 -42.359  97.592  1.00  0.00    -0.010 C 
ATOM     28  C   UNL     1      42.550 -40.872  97.169  1.00  0.00    -0.010 C 
ATOM     29  C   UNL     1      43.493 -39.786  96.627  1.00  0.00     0.007 C 
ATOM     30  C   UNL     1      45.468 -41.271  97.048  1.00  0.00     0.007 C 
ATOM     31  C   UNL     1      43.166 -42.253  96.900  1.00  0.00     0.007 C 
ENDBRANCH  21  22
ENDBRANCH  13  16
ENDBRANCH  11  12
ENDBRANCH   6  11
BRANCH   4  32
ATOM     32  C   UNL     1      45.371 -42.982 108.557  1.00  0.00     0.050 C 
BRANCH  32  33
ATOM     33  C   UNL     1      44.318 -43.453 107.524  1.00  0.00     0.103 C 
BRANCH  33  34
ATOM     34  C   UNL     1      43.563 -44.738 107.913  1.00  0.00     0.012 C 
ATOM     35  C   UNL     1      43.950 -45.274 109.285  1.00  0.00     0.005 C 
ENDBRANCH  33  34
BRANCH  33  36
ATOM     36  C   UNL     1      44.959 -43.544 106.148  1.00  0.00     0.306 C 
ATOM     37  O   UNL     1      44.684 -44.397 105.315  1.00  0.00    -0.252 OA
BRANCH  36  38
ATOM     38  O   UNL     1      45.791 -42.524 105.859  1.00  0.00    -0.481 OA
ATOM     39  H   UNL     1      46.452 -42.865 105.201  1.00  0.00     0.296 HD
ENDBRANCH  36  38
ENDBRANCH  33  36
ENDBRANCH  32  33
ENDBRANCH   4  32
TORSDOF 12
ENDMDL
MODEL 9
REMARK VINA RESULT:    -9.852      5.519      9.249
REMARK INTER + INTRA:         -18.322
REMARK INTER:                 -16.485
REMARK INTRA:                  -1.837
REMARK UNBOUND:                -1.847
REMARK SMILES CCCOc1ccc(C[C@H](CC)C(=O)O)cc1CNC(=O)c1ccc([C@]23C[C@H]4C[C@H](C[C@H](C4)C2)C3)cc1
REMARK SMILES IDX 5 1 6 2 7 3 8 4 16 5 17 6 4 7 3 8 2 9 1 10 18 11 19 12 20 13
REMARK SMILES IDX 21 14 22 16 23 17 37 18 24 19 36 20 25 21 26 22 35 23 34 24
REMARK SMILES IDX 27 25 30 26 32 27 28 28 29 29 31 30 33 31 9 32 10 33 11 34
REMARK SMILES IDX 12 35 13 36 14 37 15 38
REMARK H PARENT 19 15 15 39
ROOT
ATOM      1  C   UNL     1      42.752 -38.966 108.848  1.00  0.00     0.124 A 
ATOM      2  C   UNL     1      43.561 -39.413 109.900  1.00  0.00     0.047 A 
ATOM      3  C   UNL     1      44.931 -39.136 109.915  1.00  0.00     0.007 A 
ATOM      4  C   UNL     1      45.518 -38.444 108.857  1.00  0.00    -0.047 A 
ATOM      5  C   UNL     1      44.720 -38.081 107.765  1.00  0.00     0.013 A 
ATOM      6  C   UNL     1      43.331 -38.276 107.766  1.00  0.00     0.014 A 
ENDROOT
BRANCH   1   7
ATOM      7  O   UNL     1      41.393 -39.143 108.782  1.00  0.00    -0.493 OA
BRANCH   7   8
ATOM      8  C   UNL     1      40.593 -38.453 109.742  1.00  0.00     0.229 C 
BRANCH   8   9
ATOM      9  C   UNL     1      39.135 -38.875 109.568  1.00  0.00     0.038 C 
ATOM     10  C   UNL     1      38.281 -38.529 110.781  1.00  0.00     0.007 C 
ENDBRANCH   8   9
ENDBRANCH   7   8
ENDBRANCH   1   7
BRANCH   6  11
ATOM     11  C   UNL     1      42.447 -37.659 106.703  1.00  0.00     0.156 C 
BRANCH  11  12
ATOM     12  N   UNL     1      42.655 -38.154 105.351  1.00  0.00    -0.348 N 
ATOM     13  C   UNL     1      42.311 -39.432 104.959  1.00  0.00     0.251 C 
ATOM     14  O   UNL     1      41.712 -40.224 105.682  1.00  0.00    -0.269 OA
ATOM     15  H   UNL     1      43.002 -37.491 104.677  1.00  0.00     0.164 HD
BRANCH  13  16
ATOM     16  C   UNL     1      42.632 -39.811 103.550  1.00  0.00     0.039 A 
ATOM     17  C   UNL     1      42.379 -38.881 102.539  1.00  0.00     0.014 A 
ATOM     18  C   UNL     1      43.158 -41.057 103.198  1.00  0.00     0.014 A 
ATOM     19  C   UNL     1      42.676 -39.180 101.205  1.00  0.00     0.005 A 
ATOM     20  C   UNL     1      43.464 -41.347 101.859  1.00  0.00     0.005 A 
ATOM     21  C   UNL     1      43.243 -40.412 100.834  1.00  0.00    -0.042 A 
BRANCH  21  22
ATOM     22  C   UNL     1      43.575 -40.698  99.359  1.00  0.00    -0.004 C 
ATOM     23  C   UNL     1      44.261 -42.092  99.207  1.00  0.00     0.015 C 
ATOM     24  C   UNL     1      42.326 -40.703  98.424  1.00  0.00     0.015 C 
ATOM     25  C   UNL     1      44.551 -39.613  98.821  1.00  0.00     0.015 C 
ATOM     26  C   UNL     1      44.654 -42.366  97.745  1.00  0.00    -0.010 C 
ATOM     27  C   UNL     1      42.711 -40.984  96.962  1.00  0.00    -0.010 C 
ATOM     28  C   UNL     1      44.941 -39.892  97.359  1.00  0.00    -0.010 C 
ATOM     29  C   UNL     1      45.620 -41.268  97.267  1.00  0.00     0.007 C 
ATOM     30  C   UNL     1      43.395 -42.353  96.870  1.00  0.00     0.007 C 
ATOM     31  C   UNL     1      43.680 -39.893  96.483  1.00  0.00     0.007 C 
ENDBRANCH  21  22
ENDBRANCH  13  16
ENDBRANCH  11  12
ENDBRANCH   6  11
BRANCH   4  32
ATOM     32  C   UNL     1      46.959 -37.987 108.907  1.00  0.00     0.050 C 
BRANCH  32  33
ATOM     33  C   UNL     1      47.597 -37.738 107.519  1.00  0.00     0.103 C 
BRANCH  33  34
ATOM     34  C   UNL     1      48.607 -38.812 107.071  1.00  0.00     0.012 C 
ATOM     35  C   UNL     1      48.965 -39.801 108.173  1.00  0.00     0.005 C 
ENDBRANCH  33  34
BRANCH  33  36
ATOM     36  C   UNL     1      48.175 -36.333 107.469  1.00  0.00     0.306 C 
ATOM     37  O   UNL     1      49.356 -36.067 107.648  1.00  0.00    -0.252 OA
BRANCH  36  38
ATOM     38  O   UNL     1      47.294 -35.388 107.089  1.00  0.00    -0.481 OA
ATOM     39  H   UNL     1      46.453 -35.854 106.843  1.00  0.00     0.296 HD
ENDBRANCH  36  38
ENDBRANCH  33  36
ENDBRANCH  32  33
ENDBRANCH   4  32
TORSDOF 12
ENDMDL
