MODEL 6
REMARK VINA RESULT:    -9.904      3.935      8.174
REMARK INTER + INTRA:         -14.920
REMARK INTER:                 -14.181
REMARK INTRA:                  -0.739
REMARK UNBOUND:                -1.253
REMARK SMILES COc1ccc2c(ccn2S(=O)(=O)c2cccc(C(=O)Nc3ccc(Cl)cc3C(=O)O)c2)c1C
REMARK SMILES IDX 14 1 15 2 16 3 17 4 18 5 32 6 11 7 12 8 13 9 10 10 3 11 4 12
REMARK SMILES IDX 33 13 5 14 7 15 6 16 8 17 9 18 34 19 2 20 1 21 19 22 20 23
REMARK SMILES IDX 21 24 22 26 23 27 28 28 24 29 27 30 25 31 26 32 29 33 30 34
REMARK SMILES IDX 31 35
REMARK H PARENT 21 25 31 36
ROOT
ATOM      1  C   UNL     1      40.004   4.076 132.890  1.00  0.00     0.089 A 
ATOM      2  C   UNL     1      41.393   3.937 132.816  1.00  0.00     0.022 A 
ATOM      3  C   UNL     1      41.963   3.288 131.722  1.00  0.00     0.002 A 
ATOM      4  C   UNL     1      41.148   2.789 130.701  1.00  0.00     0.014 A 
ATOM      5  C   UNL     1      39.757   2.956 130.763  1.00  0.00     0.041 A 
ATOM      6  C   UNL     1      39.183   3.601 131.865  1.00  0.00     0.036 A 
ENDROOT
BRANCH   1   7
ATOM      7  S   UNL     1      39.285   4.880 134.297  1.00  0.00     0.268 S 
ATOM      8  O   UNL     1      40.336   5.087 135.276  1.00  0.00    -0.201 OA
ATOM      9  O   UNL     1      38.434   5.964 133.847  1.00  0.00    -0.201 OA
BRANCH   7  10
ATOM     10  N   UNL     1      38.247   3.694 134.947  1.00  0.00    -0.241 N 
ATOM     11  C   UNL     1      36.319   3.270 138.596  1.00  0.00     0.122 A 
ATOM     12  C   UNL     1      37.271   4.285 138.517  1.00  0.00     0.049 A 
ATOM     13  C   UNL     1      36.058   2.441 137.478  1.00  0.00     0.000 A 
ATOM     14  C   UNL     1      37.988   4.520 137.341  1.00  0.00     0.032 A 
ATOM     15  C   UNL     1      36.778   2.678 136.276  1.00  0.00     0.007 A 
ATOM     16  C   UNL     1      37.727   3.710 136.226  1.00  0.00     0.065 A 
ATOM     17  C   UNL     1      36.757   2.063 134.986  1.00  0.00     0.030 A 
ATOM     18  C   UNL     1      37.656   2.724 134.181  1.00  0.00     0.105 A 
ATOM     19  C   UNL     1      35.026   1.346 137.602  1.00  0.00     0.049 C 
BRANCH  11  20
ATOM     20  O   UNL     1      35.578   2.990 139.718  1.00  0.00    -0.496 OA
ATOM     21  C   UNL     1      36.250   3.003 140.971  1.00  0.00     0.278 C 
ENDBRANCH  11  20
ENDBRANCH   7  10
ENDBRANCH   1   7
BRANCH   5  22
ATOM     22  C   UNL     1      38.851   2.422 129.707  1.00  0.00     0.255 C 
ATOM     23  O   UNL     1      39.270   2.387 128.556  1.00  0.00    -0.269 OA
ATOM     24  N   UNL     1      37.621   1.983 130.155  1.00  0.00    -0.321 N 
ATOM     25  H   UNL     1      37.473   1.956 131.163  1.00  0.00     0.170 HD
BRANCH  24  26
ATOM     26  C   UNL     1      36.541   1.469 129.399  1.00  0.00     0.056 A 
ATOM     27  C   UNL     1      35.602   2.312 128.786  1.00  0.00     0.028 A 
ATOM     28  C   UNL     1      36.379   0.069 129.260  1.00  0.00     0.084 A 
ATOM     29  C   UNL     1      34.535   1.790 128.047  1.00  0.00     0.023 A 
ATOM     30  C   UNL     1      35.302  -0.444 128.514  1.00  0.00     0.038 A 
ATOM     31  C   UNL     1      34.390   0.416 127.914  1.00  0.00     0.042 A 
ATOM     32  Cl  UNL     1      33.076  -0.222 127.006  1.00  0.00    -0.084 Cl
BRANCH  28  33
ATOM     33  C   UNL     1      37.285  -0.956 129.849  1.00  0.00     0.337 C 
ATOM     34  O   UNL     1      37.964  -0.808 130.850  1.00  0.00    -0.246 OA
BRANCH  33  35
ATOM     35  O   UNL     1      37.323  -2.127 129.181  1.00  0.00    -0.478 OA
ATOM     36  H   UNL     1      38.141  -2.034 128.643  1.00  0.00     0.297 HD
ENDBRANCH  33  35
ENDBRANCH  28  33
ENDBRANCH  24  26
ENDBRANCH   5  22
TORSDOF 7
ENDMDL
