MODEL 1
REMARK minimizedAffinity -8.81935024
REMARK CNNscore 0.899291277
REMARK CNNaffinity 7.6825223
REMARK SMILES COc1ccc(-c2ccc3c(N4CCOC[C@@H]4C)nc(N4CCOC[C@@H]4C)nc3n2)cc1CO
REMARK SMILES IDX 3 1 4 2 5 3 6 4 31 5 32 6 2 7 1 8 33 9 34 10 7 12 8 13 30 14
REMARK SMILES IDX 9 15 29 16 10 17 28 18 11 19 20 20 19 21 12 22 13 23 17 24
REMARK SMILES IDX 14 25 16 26 15 27 18 28 21 29 22 30 26 31 23 32 25 33 24 34
REMARK SMILES IDX 27 35
REMARK H PARENT 34 11
ROOT
ATOM      1  C   UNL     1      39.406  49.346  42.807  1.00  0.00     0.124 A 
ATOM      2  C   UNL     1      39.263  48.033  42.358  1.00  0.00     0.047 A 
ATOM      3  C   UNL     1      38.016  47.556  41.933  1.00  0.00     0.014 A 
ATOM      4  C   UNL     1      36.868  48.366  41.942  1.00  0.00     0.001 A 
ATOM      5  C   UNL     1      37.031  49.683  42.404  1.00  0.00     0.020 A 
ATOM      6  C   UNL     1      38.282  50.187  42.822  1.00  0.00     0.020 A 
ENDROOT
BRANCH   1   7
ATOM      7  O   UNL     1      40.578  49.895  43.253  1.00  0.00    -0.496 OA
ATOM      8  C   UNL     1      41.349  49.135  44.177  1.00  0.00     0.278 C 
ENDBRANCH   1   7
BRANCH   6   9
ATOM      9  C   UNL     1      38.354  51.612  43.307  1.00  0.00     0.195 C 
BRANCH   9  10
ATOM     10  O   UNL     1      39.288  52.341  42.521  1.00  0.00    -0.392 OA
ATOM     11  H   UNL     1      39.117  52.093  41.595  1.00  0.00     0.211 HD
ENDBRANCH   9  10
ENDBRANCH   6   9
BRANCH   4  12
ATOM     12  C   UNL     1      35.561  47.831  41.492  1.00  0.00     0.073 A 
ATOM     13  C   UNL     1      35.209  47.692  40.158  1.00  0.00     0.030 A 
ATOM     14  N   UNL     1      34.711  47.457  42.484  1.00  0.00    -0.228 NA
ATOM     15  C   UNL     1      33.954  47.181  39.854  1.00  0.00     0.018 A 
ATOM     16  C   UNL     1      33.506  46.955  42.204  1.00  0.00     0.167 A 
ATOM     17  C   UNL     1      33.072  46.817  40.894  1.00  0.00     0.062 A 
ATOM     18  N   UNL     1      32.757  46.597  43.231  1.00  0.00    -0.193 NA
ATOM     19  C   UNL     1      31.786  46.293  40.727  1.00  0.00     0.144 A 
ATOM     20  C   UNL     1      31.549  46.078  43.012  1.00  0.00     0.229 A 
ATOM     21  N   UNL     1      31.051  45.912  41.782  1.00  0.00    -0.195 NA
BRANCH  19  22
ATOM     22  N   UNL     1      31.218  46.166  39.450  1.00  0.00    -0.349 N 
ATOM     23  C   UNL     1      30.743  47.418  38.828  1.00  0.00     0.147 C 
ATOM     24  C   UNL     1      31.952  45.263  38.530  1.00  0.00     0.106 C 
ATOM     25  C   UNL     1      31.839  48.092  37.987  1.00  0.00     0.181 C 
ATOM     26  C   UNL     1      33.007  46.063  37.730  1.00  0.00     0.185 C 
ATOM     27  O   UNL     1      32.421  47.182  37.041  1.00  0.00    -0.377 OA
ATOM     28  C   UNL     1      30.961  44.569  37.591  1.00  0.00     0.033 C 
ENDBRANCH  19  22
BRANCH  20  29
ATOM     29  N   UNL     1      30.784  45.699  44.095  1.00  0.00    -0.333 N 
ATOM     30  C   UNL     1      29.576  44.907  43.874  1.00  0.00     0.148 C 
ATOM     31  C   UNL     1      30.867  46.483  45.340  1.00  0.00     0.108 C 
ATOM     32  C   UNL     1      29.169  44.164  45.154  1.00  0.00     0.181 C 
ATOM     33  C   UNL     1      30.393  45.620  46.528  1.00  0.00     0.185 C 
ATOM     34  O   UNL     1      29.101  45.039  46.290  1.00  0.00    -0.377 OA
ATOM     35  C   UNL     1      30.019  47.755  45.227  1.00  0.00     0.033 C 
ENDBRANCH  20  29
ENDBRANCH   4  12
TORSDOF 6
ENDMDL
MODEL 2
REMARK minimizedAffinity -7.16532516
REMARK CNNscore 0.570340693
REMARK CNNaffinity 7.17339754
REMARK SMILES COc1ccc(-c2ccc3c(N4CCOC[C@@H]4C)nc(N4CCOC[C@@H]4C)nc3n2)cc1CO
REMARK SMILES IDX 3 1 4 2 5 3 6 4 31 5 32 6 2 7 1 8 33 9 34 10 7 12 8 13 30 14
REMARK SMILES IDX 9 15 29 16 10 17 28 18 11 19 20 20 19 21 12 22 13 23 17 24
REMARK SMILES IDX 14 25 16 26 15 27 18 28 21 29 22 30 26 31 23 32 25 33 24 34
REMARK SMILES IDX 27 35
REMARK H PARENT 34 11
ROOT
ATOM      1  C   UNL     1      40.893  49.770  43.405  1.00  0.00     0.124 A 
ATOM      2  C   UNL     1      40.693  48.421  43.114  1.00  0.00     0.047 A 
ATOM      3  C   UNL     1      39.439  47.961  42.687  1.00  0.00     0.014 A 
ATOM      4  C   UNL     1      38.343  48.826  42.537  1.00  0.00     0.001 A 
ATOM      5  C   UNL     1      38.562  50.180  42.842  1.00  0.00     0.020 A 
ATOM      6  C   UNL     1      39.821  50.665  43.260  1.00  0.00     0.020 A 
ENDROOT
BRANCH   1   7
ATOM      7  O   UNL     1      42.075  50.307  43.841  1.00  0.00    -0.496 OA
ATOM      8  C   UNL     1      42.561  49.882  45.108  1.00  0.00     0.278 C 
ENDBRANCH   1   7
BRANCH   6   9
ATOM      9  C   UNL     1      39.956  52.133  43.570  1.00  0.00     0.195 C 
BRANCH   9  10
ATOM     10  O   UNL     1      39.135  52.889  42.688  1.00  0.00    -0.392 OA
ATOM     11  H   UNL     1      38.282  52.422  42.643  1.00  0.00     0.211 HD
ENDBRANCH   9  10
ENDBRANCH   6   9
BRANCH   4  12
ATOM     12  C   UNL     1      37.028  48.309  42.090  1.00  0.00     0.073 A 
ATOM     13  C   UNL     1      36.781  47.855  40.802  1.00  0.00     0.030 A 
ATOM     14  N   UNL     1      36.056  48.286  43.039  1.00  0.00    -0.228 NA
ATOM     15  C   UNL     1      35.508  47.395  40.495  1.00  0.00     0.018 A 
ATOM     16  C   UNL     1      34.830  47.837  42.758  1.00  0.00     0.167 A 
ATOM     17  C   UNL     1      34.501  47.398  41.484  1.00  0.00     0.062 A 
ATOM     18  N   UNL     1      33.957  47.830  43.748  1.00  0.00    -0.193 NA
ATOM     19  C   UNL     1      33.183  46.964  41.308  1.00  0.00     0.144 A 
ATOM     20  C   UNL     1      32.721  47.381  43.529  1.00  0.00     0.229 A 
ATOM     21  N   UNL     1      32.318  46.941  42.332  1.00  0.00    -0.195 NA
BRANCH  19  22
ATOM     22  N   UNL     1      32.720  46.556  40.047  1.00  0.00    -0.349 N 
ATOM     23  C   UNL     1      33.022  45.162  39.669  1.00  0.00     0.147 C 
ATOM     24  C   UNL     1      31.342  46.997  39.719  1.00  0.00     0.106 C 
ATOM     25  C   UNL     1      31.907  44.197  40.102  1.00  0.00     0.181 C 
ATOM     26  C   UNL     1      30.320  45.934  40.184  1.00  0.00     0.185 C 
ATOM     27  O   UNL     1      30.617  44.633  39.646  1.00  0.00    -0.377 OA
ATOM     28  C   UNL     1      31.227  47.246  38.212  1.00  0.00     0.033 C 
ENDBRANCH  19  22
BRANCH  20  29
ATOM     29  N   UNL     1      31.825  47.371  44.577  1.00  0.00    -0.333 N 
ATOM     30  C   UNL     1      32.307  47.636  45.931  1.00  0.00     0.148 C 
ATOM     31  C   UNL     1      30.567  46.617  44.437  1.00  0.00     0.108 C 
ATOM     32  C   UNL     1      31.157  48.091  46.841  1.00  0.00     0.181 C 
ATOM     33  C   UNL     1      29.523  47.161  45.436  1.00  0.00     0.185 C 
ATOM     34  O   UNL     1      30.033  47.201  46.779  1.00  0.00    -0.377 OA
ATOM     35  C   UNL     1      30.810  45.123  44.675  1.00  0.00     0.033 C 
ENDBRANCH  20  29
ENDBRANCH   4  12
TORSDOF 6
ENDMDL
MODEL 3
REMARK minimizedAffinity -7.6239109
REMARK CNNscore 0.513044417
REMARK CNNaffinity 6.50272369
REMARK SMILES COc1ccc(-c2ccc3c(N4CCOC[C@@H]4C)nc(N4CCOC[C@@H]4C)nc3n2)cc1CO
REMARK SMILES IDX 3 1 4 2 5 3 6 4 31 5 32 6 2 7 1 8 33 9 34 10 7 12 8 13 30 14
REMARK SMILES IDX 9 15 29 16 10 17 28 18 11 19 20 20 19 21 12 22 13 23 17 24
REMARK SMILES IDX 14 25 16 26 15 27 18 28 21 29 22 30 26 31 23 32 25 33 24 34
REMARK SMILES IDX 27 35
REMARK H PARENT 34 11
ROOT
ATOM      1  C   UNL     1      30.340  45.949  44.703  1.00  0.00     0.124 A 
ATOM      2  C   UNL     1      30.930  45.563  43.500  1.00  0.00     0.047 A 
ATOM      3  C   UNL     1      32.095  46.195  43.041  1.00  0.00     0.014 A 
ATOM      4  C   UNL     1      32.711  47.231  43.762  1.00  0.00     0.001 A 
ATOM      5  C   UNL     1      32.098  47.610  44.968  1.00  0.00     0.020 A 
ATOM      6  C   UNL     1      30.933  46.977  45.454  1.00  0.00     0.020 A 
ENDROOT
BRANCH   1   7
ATOM      7  O   UNL     1      29.198  45.402  45.222  1.00  0.00    -0.496 OA
ATOM      8  C   UNL     1      29.199  44.003  45.481  1.00  0.00     0.278 C 
ENDBRANCH   1   7
BRANCH   6   9
ATOM      9  C   UNL     1      30.346  47.458  46.756  1.00  0.00     0.195 C 
BRANCH   9  10
ATOM     10  O   UNL     1      30.375  46.409  47.715  1.00  0.00    -0.392 OA
ATOM     11  H   UNL     1      31.252  45.993  47.637  1.00  0.00     0.211 HD
ENDBRANCH   9  10
ENDBRANCH   6   9
BRANCH   4  12
ATOM     12  C   UNL     1      33.938  47.884  43.248  1.00  0.00     0.073 A 
ATOM     13  C   UNL     1      34.751  47.326  42.272  1.00  0.00     0.030 A 
ATOM     14  N   UNL     1      34.222  49.098  43.786  1.00  0.00    -0.228 NA
ATOM     15  C   UNL     1      35.879  48.028  41.870  1.00  0.00     0.018 A 
ATOM     16  C   UNL     1      35.299  49.787  43.399  1.00  0.00     0.167 A 
ATOM     17  C   UNL     1      36.175  49.279  42.452  1.00  0.00     0.062 A 
ATOM     18  N   UNL     1      35.482  50.969  43.960  1.00  0.00    -0.193 NA
ATOM     19  C   UNL     1      37.274  50.085  42.139  1.00  0.00     0.144 A 
ATOM     20  C   UNL     1      36.534  51.707  43.604  1.00  0.00     0.229 A 
ATOM     21  N   UNL     1      37.429  51.293  42.701  1.00  0.00    -0.195 NA
BRANCH  19  22
ATOM     22  N   UNL     1      38.259  49.646  41.241  1.00  0.00    -0.349 N 
ATOM     23  C   UNL     1      39.231  50.666  40.802  1.00  0.00     0.147 C 
ATOM     24  C   UNL     1      38.855  48.328  41.567  1.00  0.00     0.106 C 
ATOM     25  C   UNL     1      40.463  50.715  41.720  1.00  0.00     0.181 C 
ATOM     26  C   UNL     1      40.093  48.515  42.474  1.00  0.00     0.185 C 
ATOM     27  O   UNL     1      41.052  49.417  41.894  1.00  0.00    -0.377 OA
ATOM     28  C   UNL     1      39.229  47.598  40.273  1.00  0.00     0.033 C 
ENDBRANCH  19  22
BRANCH  20  29
ATOM     29  N   UNL     1      36.704  52.943  44.191  1.00  0.00    -0.333 N 
ATOM     30  C   UNL     1      37.385  53.032  45.481  1.00  0.00     0.148 C 
ATOM     31  C   UNL     1      35.798  54.043  43.821  1.00  0.00     0.108 C 
ATOM     32  C   UNL     1      37.932  54.448  45.713  1.00  0.00     0.181 C 
ATOM     33  C   UNL     1      36.467  55.397  44.145  1.00  0.00     0.185 C 
ATOM     34  O   UNL     1      36.932  55.455  45.503  1.00  0.00    -0.377 OA
ATOM     35  C   UNL     1      34.465  53.911  44.566  1.00  0.00     0.033 C 
ENDBRANCH  20  29
ENDBRANCH   4  12
TORSDOF 6
ENDMDL
MODEL 4
REMARK minimizedAffinity -8.41281223
REMARK CNNscore 0.43509075
REMARK CNNaffinity 6.53175354
REMARK SMILES COc1ccc(-c2ccc3c(N4CCOC[C@@H]4C)nc(N4CCOC[C@@H]4C)nc3n2)cc1CO
REMARK SMILES IDX 3 1 4 2 5 3 6 4 31 5 32 6 2 7 1 8 33 9 34 10 7 12 8 13 30 14
REMARK SMILES IDX 9 15 29 16 10 17 28 18 11 19 20 20 19 21 12 22 13 23 17 24
REMARK SMILES IDX 14 25 16 26 15 27 18 28 21 29 22 30 26 31 23 32 25 33 24 34
REMARK SMILES IDX 27 35
REMARK H PARENT 34 11
ROOT
ATOM      1  C   UNL     1      30.245  46.016  44.859  1.00  0.00     0.124 A 
ATOM      2  C   UNL     1      30.668  45.538  43.619  1.00  0.00     0.047 A 
ATOM      3  C   UNL     1      31.806  46.073  42.999  1.00  0.00     0.014 A 
ATOM      4  C   UNL     1      32.560  47.101  43.588  1.00  0.00     0.001 A 
ATOM      5  C   UNL     1      32.114  47.573  44.835  1.00  0.00     0.020 A 
ATOM      6  C   UNL     1      30.978  47.037  45.482  1.00  0.00     0.020 A 
ENDROOT
BRANCH   1   7
ATOM      7  O   UNL     1      29.142  45.565  45.533  1.00  0.00    -0.496 OA
ATOM      8  C   UNL     1      28.996  44.159  45.688  1.00  0.00     0.278 C 
ENDBRANCH   1   7
BRANCH   6   9
ATOM      9  C   UNL     1      30.575  47.614  46.815  1.00  0.00     0.195 C 
BRANCH   9  10
ATOM     10  O   UNL     1      30.462  46.573  47.777  1.00  0.00    -0.392 OA
ATOM     11  H   UNL     1      31.238  45.998  47.648  1.00  0.00     0.211 HD
ENDBRANCH   9  10
ENDBRANCH   6   9
BRANCH   4  12
ATOM     12  C   UNL     1      33.754  47.651  42.905  1.00  0.00     0.073 A 
ATOM     13  C   UNL     1      34.449  48.764  43.356  1.00  0.00     0.030 A 
ATOM     14  N   UNL     1      34.154  46.978  41.795  1.00  0.00    -0.228 NA
ATOM     15  C   UNL     1      35.554  49.192  42.633  1.00  0.00     0.018 A 
ATOM     16  C   UNL     1      35.222  47.374  41.098  1.00  0.00     0.167 A 
ATOM     17  C   UNL     1      35.946  48.497  41.469  1.00  0.00     0.062 A 
ATOM     18  N   UNL     1      35.549  46.645  40.047  1.00  0.00    -0.193 NA
ATOM     19  C   UNL     1      37.034  48.821  40.653  1.00  0.00     0.144 A 
ATOM     20  C   UNL     1      36.613  46.986  39.319  1.00  0.00     0.229 A 
ATOM     21  N   UNL     1      37.366  48.054  39.604  1.00  0.00    -0.195 NA
BRANCH  19  22
ATOM     22  N   UNL     1      37.802  49.971  40.895  1.00  0.00    -0.349 N 
ATOM     23  C   UNL     1      37.176  50.994  41.755  1.00  0.00     0.147 C 
ATOM     24  C   UNL     1      39.232  49.712  41.189  1.00  0.00     0.106 C 
ATOM     25  C   UNL     1      37.510  50.777  43.240  1.00  0.00     0.181 C 
ATOM     26  C   UNL     1      39.438  49.533  42.711  1.00  0.00     0.185 C 
ATOM     27  O   UNL     1      38.923  50.650  43.457  1.00  0.00    -0.377 OA
ATOM     28  C   UNL     1      40.085  50.866  40.652  1.00  0.00     0.033 C 
ENDBRANCH  19  22
BRANCH  20  29
ATOM     29  N   UNL     1      36.948  46.208  38.231  1.00  0.00    -0.333 N 
ATOM     30  C   UNL     1      36.037  46.146  37.090  1.00  0.00     0.148 C 
ATOM     31  C   UNL     1      37.890  45.089  38.412  1.00  0.00     0.108 C 
ATOM     32  C   UNL     1      36.777  45.691  35.824  1.00  0.00     0.181 C 
ATOM     33  C   UNL     1      38.524  44.721  37.054  1.00  0.00     0.185 C 
ATOM     34  O   UNL     1      37.532  44.491  36.041  1.00  0.00    -0.377 OA
ATOM     35  C   UNL     1      37.170  43.878  39.015  1.00  0.00     0.033 C 
ENDBRANCH  20  29
ENDBRANCH   4  12
TORSDOF 6
ENDMDL
MODEL 5
REMARK minimizedAffinity -7.68815899
REMARK CNNscore 0.377498031
REMARK CNNaffinity 6.53413153
REMARK SMILES COc1ccc(-c2ccc3c(N4CCOC[C@@H]4C)nc(N4CCOC[C@@H]4C)nc3n2)cc1CO
REMARK SMILES IDX 3 1 4 2 5 3 6 4 31 5 32 6 2 7 1 8 33 9 34 10 7 12 8 13 30 14
REMARK SMILES IDX 9 15 29 16 10 17 28 18 11 19 20 20 19 21 12 22 13 23 17 24
REMARK SMILES IDX 14 25 16 26 15 27 18 28 21 29 22 30 26 31 23 32 25 33 24 34
REMARK SMILES IDX 27 35
REMARK H PARENT 34 11
ROOT
ATOM      1  C   UNL     1      30.250  45.994  44.884  1.00  0.00     0.124 A 
ATOM      2  C   UNL     1      30.593  45.448  43.647  1.00  0.00     0.047 A 
ATOM      3  C   UNL     1      31.720  45.907  42.952  1.00  0.00     0.014 A 
ATOM      4  C   UNL     1      32.543  46.925  43.461  1.00  0.00     0.001 A 
ATOM      5  C   UNL     1      32.177  47.467  44.705  1.00  0.00     0.020 A 
ATOM      6  C   UNL     1      31.053  47.008  45.427  1.00  0.00     0.020 A 
ENDROOT
BRANCH   1   7
ATOM      7  O   UNL     1      29.162  45.621  45.626  1.00  0.00    -0.496 OA
ATOM      8  C   UNL     1      28.884  44.229  45.730  1.00  0.00     0.278 C 
ENDBRANCH   1   7
BRANCH   6   9
ATOM      9  C   UNL     1      30.738  47.657  46.750  1.00  0.00     0.195 C 
BRANCH   9  10
ATOM     10  O   UNL     1      30.524  46.657  47.738  1.00  0.00    -0.392 OA
ATOM     11  H   UNL     1      31.228  45.996  47.613  1.00  0.00     0.211 HD
ENDBRANCH   9  10
ENDBRANCH   6   9
BRANCH   4  12
ATOM     12  C   UNL     1      33.725  47.394  42.701  1.00  0.00     0.073 A 
ATOM     13  C   UNL     1      34.217  46.748  41.576  1.00  0.00     0.030 A 
ATOM     14  N   UNL     1      34.305  48.531  43.166  1.00  0.00    -0.228 NA
ATOM     15  C   UNL     1      35.335  47.278  40.945  1.00  0.00     0.018 A 
ATOM     16  C   UNL     1      35.374  49.055  42.561  1.00  0.00     0.167 A 
ATOM     17  C   UNL     1      35.942  48.447  41.450  1.00  0.00     0.062 A 
ATOM     18  N   UNL     1      35.857  50.174  43.069  1.00  0.00    -0.193 NA
ATOM     19  C   UNL     1      37.066  49.081  40.913  1.00  0.00     0.144 A 
ATOM     20  C   UNL     1      36.915  50.750  42.499  1.00  0.00     0.229 A 
ATOM     21  N   UNL     1      37.525  50.231  41.428  1.00  0.00    -0.195 NA
BRANCH  19  22
ATOM     22  N   UNL     1      37.760  48.523  39.828  1.00  0.00    -0.349 N 
ATOM     23  C   UNL     1      38.495  47.274  40.106  1.00  0.00     0.147 C 
ATOM     24  C   UNL     1      37.013  48.525  38.546  1.00  0.00     0.106 C 
ATOM     25  C   UNL     1      37.627  46.031  39.852  1.00  0.00     0.181 C 
ATOM     26  C   UNL     1      36.201  47.218  38.402  1.00  0.00     0.185 C 
ATOM     27  O   UNL     1      37.032  46.052  38.546  1.00  0.00    -0.377 OA
ATOM     28  C   UNL     1      37.993  48.694  37.381  1.00  0.00     0.033 C 
ENDBRANCH  19  22
BRANCH  20  29
ATOM     29  N   UNL     1      37.400  51.924  43.036  1.00  0.00    -0.333 N 
ATOM     30  C   UNL     1      36.772  52.473  44.236  1.00  0.00     0.148 C 
ATOM     31  C   UNL     1      38.143  52.855  42.170  1.00  0.00     0.108 C 
ATOM     32  C   UNL     1      37.725  53.435  44.960  1.00  0.00     0.181 C 
ATOM     33  C   UNL     1      39.025  53.778  43.037  1.00  0.00     0.185 C 
ATOM     34  O   UNL     1      38.270  54.423  44.076  1.00  0.00    -0.377 OA
ATOM     35  C   UNL     1      37.174  53.683  41.319  1.00  0.00     0.033 C 
ENDBRANCH  20  29
ENDBRANCH   4  12
TORSDOF 6
ENDMDL
MODEL 6
REMARK minimizedAffinity -7.56130171
REMARK CNNscore 0.317648679
REMARK CNNaffinity 6.16272736
REMARK SMILES COc1ccc(-c2ccc3c(N4CCOC[C@@H]4C)nc(N4CCOC[C@@H]4C)nc3n2)cc1CO
REMARK SMILES IDX 3 1 4 2 5 3 6 4 31 5 32 6 2 7 1 8 33 9 34 10 7 12 8 13 30 14
REMARK SMILES IDX 9 15 29 16 10 17 28 18 11 19 20 20 19 21 12 22 13 23 17 24
REMARK SMILES IDX 14 25 16 26 15 27 18 28 21 29 22 30 26 31 23 32 25 33 24 34
REMARK SMILES IDX 27 35
REMARK H PARENT 34 11
ROOT
ATOM      1  C   UNL     1      30.363  46.101  44.488  1.00  0.00     0.124 A 
ATOM      2  C   UNL     1      31.026  45.772  43.306  1.00  0.00     0.047 A 
ATOM      3  C   UNL     1      32.268  46.345  43.001  1.00  0.00     0.014 A 
ATOM      4  C   UNL     1      32.892  47.266  43.859  1.00  0.00     0.001 A 
ATOM      5  C   UNL     1      32.205  47.589  45.042  1.00  0.00     0.020 A 
ATOM      6  C   UNL     1      30.960  47.012  45.373  1.00  0.00     0.020 A 
ENDROOT
BRANCH   1   7
ATOM      7  O   UNL     1      29.143  45.604  44.862  1.00  0.00    -0.496 OA
ATOM      8  C   UNL     1      29.050  44.204  45.100  1.00  0.00     0.278 C 
ENDBRANCH   1   7
BRANCH   6   9
ATOM      9  C   UNL     1      30.298  47.428  46.661  1.00  0.00     0.195 C 
BRANCH   9  10
ATOM     10  O   UNL     1      30.312  46.344  47.582  1.00  0.00    -0.392 OA
ATOM     11  H   UNL     1      31.203  45.956  47.532  1.00  0.00     0.211 HD
ENDBRANCH   9  10
ENDBRANCH   6   9
BRANCH   4  12
ATOM     12  C   UNL     1      34.203  47.860  43.507  1.00  0.00     0.073 A 
ATOM     13  C   UNL     1      35.141  47.226  42.705  1.00  0.00     0.030 A 
ATOM     14  N   UNL     1      34.435  49.101  44.008  1.00  0.00    -0.228 NA
ATOM     15  C   UNL     1      36.338  47.878  42.444  1.00  0.00     0.018 A 
ATOM     16  C   UNL     1      35.579  49.743  43.755  1.00  0.00     0.167 A 
ATOM     17  C   UNL     1      36.576  49.158  42.990  1.00  0.00     0.062 A 
ATOM     18  N   UNL     1      35.707  50.954  44.266  1.00  0.00    -0.193 NA
ATOM     19  C   UNL     1      37.733  49.921  42.806  1.00  0.00     0.144 A 
ATOM     20  C   UNL     1      36.822  51.647  44.036  1.00  0.00     0.229 A 
ATOM     21  N   UNL     1      37.835  51.159  43.311  1.00  0.00    -0.195 NA
BRANCH  19  22
ATOM     22  N   UNL     1      38.833  49.406  42.101  1.00  0.00    -0.349 N 
ATOM     23  C   UNL     1      39.229  48.026  42.441  1.00  0.00     0.147 C 
ATOM     24  C   UNL     1      38.836  49.707  40.649  1.00  0.00     0.106 C 
ATOM     25  C   UNL     1      38.512  46.991  41.559  1.00  0.00     0.181 C 
ATOM     26  C   UNL     1      38.107  48.585  39.873  1.00  0.00     0.185 C 
ATOM     27  O   UNL     1      38.659  47.288  40.161  1.00  0.00    -0.377 OA
ATOM     28  C   UNL     1      40.279  49.864  40.159  1.00  0.00     0.033 C 
ENDBRANCH  19  22
BRANCH  20  29
ATOM     29  N   UNL     1      36.936  52.914  44.567  1.00  0.00    -0.333 N 
ATOM     30  C   UNL     1      38.259  53.424  44.921  1.00  0.00     0.148 C 
ATOM     31  C   UNL     1      35.772  53.516  45.239  1.00  0.00     0.108 C 
ATOM     32  C   UNL     1      38.253  54.958  44.989  1.00  0.00     0.181 C 
ATOM     33  C   UNL     1      35.924  55.052  45.264  1.00  0.00     0.185 C 
ATOM     34  O   UNL     1      37.189  55.459  45.811  1.00  0.00    -0.377 OA
ATOM     35  C   UNL     1      35.635  52.967  46.664  1.00  0.00     0.033 C 
ENDBRANCH  20  29
ENDBRANCH   4  12
TORSDOF 6
ENDMDL
MODEL 7
REMARK minimizedAffinity -7.79803705
REMARK CNNscore 0.285277128
REMARK CNNaffinity 6.30503035
REMARK SMILES COc1ccc(-c2ccc3c(N4CCOC[C@@H]4C)nc(N4CCOC[C@@H]4C)nc3n2)cc1CO
REMARK SMILES IDX 3 1 4 2 5 3 6 4 31 5 32 6 2 7 1 8 33 9 34 10 7 12 8 13 30 14
REMARK SMILES IDX 9 15 29 16 10 17 28 18 11 19 20 20 19 21 12 22 13 23 17 24
REMARK SMILES IDX 14 25 16 26 15 27 18 28 21 29 22 30 26 31 23 32 25 33 24 34
REMARK SMILES IDX 27 35
REMARK H PARENT 34 11
ROOT
ATOM      1  C   UNL     1      30.284  45.886  44.745  1.00  0.00     0.124 A 
ATOM      2  C   UNL     1      30.808  45.496  43.513  1.00  0.00     0.047 A 
ATOM      3  C   UNL     1      31.936  46.137  42.982  1.00  0.00     0.014 A 
ATOM      4  C   UNL     1      32.581  47.186  43.657  1.00  0.00     0.001 A 
ATOM      5  C   UNL     1      32.034  47.569  44.894  1.00  0.00     0.020 A 
ATOM      6  C   UNL     1      30.906  46.927  45.451  1.00  0.00     0.020 A 
ENDROOT
BRANCH   1   7
ATOM      7  O   UNL     1      29.180  45.330  45.334  1.00  0.00    -0.496 OA
ATOM      8  C   UNL     1      29.195  43.926  45.562  1.00  0.00     0.278 C 
ENDBRANCH   1   7
BRANCH   6   9
ATOM      9  C   UNL     1      30.390  47.414  46.781  1.00  0.00     0.195 C 
BRANCH   9  10
ATOM     10  O   UNL     1      30.447  46.360  47.734  1.00  0.00    -0.392 OA
ATOM     11  H   UNL     1      31.313  45.931  47.614  1.00  0.00     0.211 HD
ENDBRANCH   9  10
ENDBRANCH   6   9
BRANCH   4  12
ATOM     12  C   UNL     1      33.769  47.848  43.068  1.00  0.00     0.073 A 
ATOM     13  C   UNL     1      34.509  48.819  43.727  1.00  0.00     0.030 A 
ATOM     14  N   UNL     1      34.115  47.428  41.823  1.00  0.00    -0.228 NA
ATOM     15  C   UNL     1      35.603  49.373  43.075  1.00  0.00     0.018 A 
ATOM     16  C   UNL     1      35.171  47.946  41.191  1.00  0.00     0.167 A 
ATOM     17  C   UNL     1      35.938  48.944  41.773  1.00  0.00     0.062 A 
ATOM     18  N   UNL     1      35.445  47.460  39.994  1.00  0.00    -0.193 NA
ATOM     19  C   UNL     1      37.009  49.417  41.009  1.00  0.00     0.144 A 
ATOM     20  C   UNL     1      36.495  47.930  39.321  1.00  0.00     0.229 A 
ATOM     21  N   UNL     1      37.286  48.893  39.806  1.00  0.00    -0.195 NA
BRANCH  19  22
ATOM     22  N   UNL     1      37.817  50.469  41.470  1.00  0.00    -0.349 N 
ATOM     23  C   UNL     1      37.491  51.809  40.945  1.00  0.00     0.147 C 
ATOM     24  C   UNL     1      38.115  50.432  42.922  1.00  0.00     0.106 C 
ATOM     25  C   UNL     1      36.479  52.543  41.839  1.00  0.00     0.181 C 
ATOM     26  C   UNL     1      37.040  51.221  43.705  1.00  0.00     0.185 C 
ATOM     27  O   UNL     1      36.896  52.565  43.213  1.00  0.00    -0.377 OA
ATOM     28  C   UNL     1      39.511  51.009  43.175  1.00  0.00     0.033 C 
ENDBRANCH  19  22
BRANCH  20  29
ATOM     29  N   UNL     1      36.774  47.404  38.077  1.00  0.00    -0.333 N 
ATOM     30  C   UNL     1      35.873  46.404  37.507  1.00  0.00     0.148 C 
ATOM     31  C   UNL     1      38.160  47.435  37.580  1.00  0.00     0.108 C 
ATOM     32  C   UNL     1      36.032  46.333  35.981  1.00  0.00     0.181 C 
ATOM     33  C   UNL     1      38.161  47.318  36.041  1.00  0.00     0.185 C 
ATOM     34  O   UNL     1      37.403  46.185  35.587  1.00  0.00    -0.377 OA
ATOM     35  C   UNL     1      38.977  46.300  38.206  1.00  0.00     0.033 C 
ENDBRANCH  20  29
ENDBRANCH   4  12
TORSDOF 6
ENDMDL
MODEL 8
REMARK minimizedAffinity -7.92948151
REMARK CNNscore 0.270533532
REMARK CNNaffinity 6.31264496
REMARK SMILES COc1ccc(-c2ccc3c(N4CCOC[C@@H]4C)nc(N4CCOC[C@@H]4C)nc3n2)cc1CO
REMARK SMILES IDX 3 1 4 2 5 3 6 4 31 5 32 6 2 7 1 8 33 9 34 10 7 12 8 13 30 14
REMARK SMILES IDX 9 15 29 16 10 17 28 18 11 19 20 20 19 21 12 22 13 23 17 24
REMARK SMILES IDX 14 25 16 26 15 27 18 28 21 29 22 30 26 31 23 32 25 33 24 34
REMARK SMILES IDX 27 35
REMARK H PARENT 34 11
ROOT
ATOM      1  C   UNL     1      30.374  46.067  44.618  1.00  0.00     0.124 A 
ATOM      2  C   UNL     1      30.996  45.609  43.457  1.00  0.00     0.047 A 
ATOM      3  C   UNL     1      32.235  46.129  43.058  1.00  0.00     0.014 A 
ATOM      4  C   UNL     1      32.897  47.122  43.799  1.00  0.00     0.001 A 
ATOM      5  C   UNL     1      32.251  47.575  44.962  1.00  0.00     0.020 A 
ATOM      6  C   UNL     1      31.009  47.054  45.387  1.00  0.00     0.020 A 
ENDROOT
BRANCH   1   7
ATOM      7  O   UNL     1      29.160  45.630  45.077  1.00  0.00    -0.496 OA
ATOM      8  C   UNL     1      29.049  44.258  45.437  1.00  0.00     0.278 C 
ENDBRANCH   1   7
BRANCH   6   9
ATOM      9  C   UNL     1      30.393  47.609  46.645  1.00  0.00     0.195 C 
BRANCH   9  10
ATOM     10  O   UNL     1      30.402  46.617  47.665  1.00  0.00    -0.392 OA
ATOM     11  H   UNL     1      31.282  46.201  47.631  1.00  0.00     0.211 HD
ENDBRANCH   9  10
ENDBRANCH   6   9
BRANCH   4  12
ATOM     12  C   UNL     1      34.204  47.656  43.350  1.00  0.00     0.073 A 
ATOM     13  C   UNL     1      34.837  48.735  43.950  1.00  0.00     0.030 A 
ATOM     14  N   UNL     1      34.773  47.004  42.303  1.00  0.00    -0.228 NA
ATOM     15  C   UNL     1      36.059  49.151  43.441  1.00  0.00     0.018 A 
ATOM     16  C   UNL     1      35.954  47.389  41.812  1.00  0.00     0.167 A 
ATOM     17  C   UNL     1      36.630  48.480  42.339  1.00  0.00     0.062 A 
ATOM     18  N   UNL     1      36.440  46.681  40.809  1.00  0.00    -0.193 NA
ATOM     19  C   UNL     1      37.849  48.795  41.733  1.00  0.00     0.144 A 
ATOM     20  C   UNL     1      37.621  47.012  40.286  1.00  0.00     0.229 A 
ATOM     21  N   UNL     1      38.339  48.049  40.732  1.00  0.00    -0.195 NA
BRANCH  19  22
ATOM     22  N   UNL     1      38.591  49.915  42.142  1.00  0.00    -0.349 N 
ATOM     23  C   UNL     1      39.755  49.636  43.005  1.00  0.00     0.147 C 
ATOM     24  C   UNL     1      38.840  50.918  41.078  1.00  0.00     0.106 C 
ATOM     25  C   UNL     1      41.036  49.415  42.184  1.00  0.00     0.181 C 
ATOM     26  C   UNL     1      40.163  50.596  40.344  1.00  0.00     0.185 C 
ATOM     27  O   UNL     1      41.269  50.487  41.258  1.00  0.00    -0.377 OA
ATOM     28  C   UNL     1      38.879  52.320  41.692  1.00  0.00     0.033 C 
ENDBRANCH  19  22
BRANCH  20  29
ATOM     29  N   UNL     1      38.120  46.256  39.247  1.00  0.00    -0.333 N 
ATOM     30  C   UNL     1      39.305  46.722  38.529  1.00  0.00     0.148 C 
ATOM     31  C   UNL     1      37.224  45.321  38.545  1.00  0.00     0.108 C 
ATOM     32  C   UNL     1      39.996  45.560  37.802  1.00  0.00     0.181 C 
ATOM     33  C   UNL     1      38.060  44.236  37.834  1.00  0.00     0.185 C 
ATOM     34  O   UNL     1      39.080  44.804  36.998  1.00  0.00    -0.377 OA
ATOM     35  C   UNL     1      36.351  46.075  37.535  1.00  0.00     0.033 C 
ENDBRANCH  20  29
ENDBRANCH   4  12
TORSDOF 6
ENDMDL
MODEL 9
REMARK minimizedAffinity -7.88150549
REMARK CNNscore 0.266092956
REMARK CNNaffinity 6.49691772
REMARK SMILES COc1ccc(-c2ccc3c(N4CCOC[C@@H]4C)nc(N4CCOC[C@@H]4C)nc3n2)cc1CO
REMARK SMILES IDX 3 1 4 2 5 3 6 4 31 5 32 6 2 7 1 8 33 9 34 10 7 12 8 13 30 14
REMARK SMILES IDX 9 15 29 16 10 17 28 18 11 19 20 20 19 21 12 22 13 23 17 24
REMARK SMILES IDX 14 25 16 26 15 27 18 28 21 29 22 30 26 31 23 32 25 33 24 34
REMARK SMILES IDX 27 35
REMARK H PARENT 34 11
ROOT
ATOM      1  C   UNL     1      30.073  45.836  44.812  1.00  0.00     0.124 A 
ATOM      2  C   UNL     1      30.224  45.173  43.594  1.00  0.00     0.047 A 
ATOM      3  C   UNL     1      31.254  45.527  42.712  1.00  0.00     0.014 A 
ATOM      4  C   UNL     1      32.168  46.551  43.009  1.00  0.00     0.001 A 
ATOM      5  C   UNL     1      31.995  47.211  44.238  1.00  0.00     0.020 A 
ATOM      6  C   UNL     1      30.972  46.860  45.146  1.00  0.00     0.020 A 
ENDROOT
BRANCH   1   7
ATOM      7  O   UNL     1      29.090  45.569  45.727  1.00  0.00    -0.496 OA
ATOM      8  C   UNL     1      28.786  44.204  45.985  1.00  0.00     0.278 C 
ENDBRANCH   1   7
BRANCH   6   9
ATOM      9  C   UNL     1      30.864  47.631  46.436  1.00  0.00     0.195 C 
BRANCH   9  10
ATOM     10  O   UNL     1      30.702  46.729  47.524  1.00  0.00    -0.392 OA
ATOM     11  H   UNL     1      31.339  46.007  47.376  1.00  0.00     0.211 HD
ENDBRANCH   9  10
ENDBRANCH   6   9
BRANCH   4  12
ATOM     12  C   UNL     1      33.243  46.907  42.054  1.00  0.00     0.073 A 
ATOM     13  C   UNL     1      33.138  46.731  40.682  1.00  0.00     0.030 A 
ATOM     14  N   UNL     1      34.360  47.447  42.607  1.00  0.00    -0.228 NA
ATOM     15  C   UNL     1      34.212  47.099  39.883  1.00  0.00     0.018 A 
ATOM     16  C   UNL     1      35.396  47.814  41.848  1.00  0.00     0.167 A 
ATOM     17  C   UNL     1      35.376  47.638  40.472  1.00  0.00     0.062 A 
ATOM     18  N   UNL     1      36.429  48.351  42.470  1.00  0.00    -0.193 NA
ATOM     19  C   UNL     1      36.524  48.047  39.786  1.00  0.00     0.144 A 
ATOM     20  C   UNL     1      37.487  48.748  41.762  1.00  0.00     0.229 A 
ATOM     21  N   UNL     1      37.553  48.613  40.433  1.00  0.00    -0.195 NA
BRANCH  19  22
ATOM     22  N   UNL     1      36.641  47.860  38.400  1.00  0.00    -0.349 N 
ATOM     23  C   UNL     1      37.639  48.707  37.718  1.00  0.00     0.147 C 
ATOM     24  C   UNL     1      36.634  46.444  37.961  1.00  0.00     0.106 C 
ATOM     25  C   UNL     1      39.019  48.033  37.661  1.00  0.00     0.181 C 
ATOM     26  C   UNL     1      38.078  45.891  37.926  1.00  0.00     0.185 C 
ATOM     27  O   UNL     1      38.944  46.707  37.117  1.00  0.00    -0.377 OA
ATOM     28  C   UNL     1      35.971  46.335  36.584  1.00  0.00     0.033 C 
ENDBRANCH  19  22
BRANCH  20  29
ATOM     29  N   UNL     1      38.553  49.316  42.426  1.00  0.00    -0.333 N 
ATOM     30  C   UNL     1      38.734  50.765  42.377  1.00  0.00     0.148 C 
ATOM     31  C   UNL     1      39.738  48.491  42.718  1.00  0.00     0.108 C 
ATOM     32  C   UNL     1      39.606  51.247  43.546  1.00  0.00     0.181 C 
ATOM     33  C   UNL     1      40.531  49.117  43.885  1.00  0.00     0.185 C 
ATOM     34  O   UNL     1      40.828  50.503  43.651  1.00  0.00    -0.377 OA
ATOM     35  C   UNL     1      40.622  48.368  41.473  1.00  0.00     0.033 C 
ENDBRANCH  20  29
ENDBRANCH   4  12
TORSDOF 6
ENDMDL
