REMARK VINA RESULT:   -10.364      6.252     11.576
REMARK INTER + INTRA:         -16.530
REMARK INTER:                 -14.977
REMARK INTRA:                  -1.553
REMARK UNBOUND:                -1.319
REMARK SMILES O=C(Nc1ccc(-c2cc3c(Nc4ccc(Oc5cccc(C(F)(F)F)c5)c(Cl)c4)ncnc3s2)cc1)NC1CC1
REMARK SMILES IDX 13 1 14 2 15 3 16 4 28 5 29 6 30 7 12 8 11 10 8 11 9 12
REMARK SMILES IDX 35 13 10 14 34 15 33 16 31 17 32 18 7 19 4 20 5 21 37 22
REMARK SMILES IDX 6 23 36 24 3 25 1 26 2 27 38 28 39 31 40 32 41 33 17 34
REMARK SMILES IDX 18 35 19 36 27 37 20 38 22 39 21 40 23 41 24 42 25 43 26 44
REMARK H PARENT 12 9 3 29 38 30
ROOT
ATOM      1  C   UNL     1      15.126   6.271  24.457  1.00  0.00     0.041 A 
ATOM      2  C   UNL     1      14.401   7.308  25.053  1.00  0.00     0.030 A 
ATOM      3  C   UNL     1      13.237   7.818  24.463  1.00  0.00     0.051 A 
ATOM      4  C   UNL     1      12.790   7.308  23.244  1.00  0.00     0.146 A 
ATOM      5  C   UNL     1      13.491   6.265  22.640  1.00  0.00     0.085 A 
ATOM      6  Cl  UNL     1      12.972   5.581  21.142  1.00  0.00    -0.080 Cl
ATOM      7  C   UNL     1      14.651   5.759  23.237  1.00  0.00     0.050 A 
ENDROOT
BRANCH   1   8
ATOM      8  N   UNL     1      16.307   5.732  24.996  1.00  0.00    -0.340 N 
ATOM      9  H   UNL     1      16.925   6.416  25.409  1.00  0.00     0.168 HD
BRANCH   8  10
ATOM     10  C   UNL     1      16.803   4.419  25.062  1.00  0.00     0.142 A 
ATOM     11  C   UNL     1      14.792   2.261  27.377  1.00  0.00     0.037 A 
ATOM     12  C   UNL     1      15.051   3.478  26.769  1.00  0.00     0.034 A 
ATOM     13  S   UNL     1      15.922   1.077  26.869  1.00  0.00    -0.115 S 
ATOM     14  C   UNL     1      16.179   3.444  25.877  1.00  0.00     0.055 A 
ATOM     15  C   UNL     1      16.733   2.176  25.855  1.00  0.00     0.129 A 
ATOM     16  N   UNL     1      17.795   1.777  25.138  1.00  0.00    -0.225 NA
ATOM     17  N   UNL     1      17.877   4.034  24.332  1.00  0.00    -0.219 NA
ATOM     18  C   UNL     1      18.307   2.766  24.405  1.00  0.00     0.225 A 
BRANCH  11  19
ATOM     19  C   UNL     1      13.750   1.931  28.361  1.00  0.00    -0.008 A 
ATOM     20  C   UNL     1      11.756   1.242  30.253  1.00  0.00     0.042 A 
ATOM     21  C   UNL     1      12.359   0.260  29.469  1.00  0.00     0.027 A 
ATOM     22  C   UNL     1      12.158   2.572  30.087  1.00  0.00     0.027 A 
ATOM     23  C   UNL     1      13.346   0.601  28.533  1.00  0.00     0.012 A 
ATOM     24  C   UNL     1      13.145   2.913  29.155  1.00  0.00     0.012 A 
BRANCH  20  25
ATOM     25  N   UNL     1      10.752   0.985  31.208  1.00  0.00    -0.308 N 
ATOM     26  O   UNL     1       8.853   0.712  29.889  1.00  0.00    -0.248 OA
ATOM     27  C   UNL     1       9.407   0.767  30.979  1.00  0.00     0.319 C 
ATOM     28  N   UNL     1       8.717   0.608  32.170  1.00  0.00    -0.335 N 
ATOM     29  H   UNL     1      11.056   0.921  32.166  1.00  0.00     0.171 HD
ATOM     30  H   UNL     1       9.199   0.750  33.044  1.00  0.00     0.165 HD
BRANCH  28  31
ATOM     31  C   UNL     1       7.315   0.336  32.208  1.00  0.00     0.084 C 
ATOM     32  C   UNL     1       6.807  -1.073  32.082  1.00  0.00     0.027 C 
ATOM     33  C   UNL     1       6.697  -0.354  33.393  1.00  0.00     0.027 C 
ENDBRANCH  28  31
ENDBRANCH  20  25
ENDBRANCH  11  19
ENDBRANCH   8  10
ENDBRANCH   1   8
BRANCH   4  34
ATOM     34  O   UNL     1      11.626   7.761  22.664  1.00  0.00    -0.456 OA
BRANCH  34  35
ATOM     35  C   UNL     1      10.484   7.717  23.432  1.00  0.00     0.128 A 
ATOM     36  C   UNL     1      10.294   6.578  24.215  1.00  0.00     0.047 A 
ATOM     37  C   UNL     1       9.510   8.718  23.394  1.00  0.00     0.060 A 
ATOM     38  C   UNL     1       9.146   6.455  24.995  1.00  0.00     0.004 A 
ATOM     39  C   UNL     1       8.345   8.599  24.170  1.00  0.00     0.059 A 
ATOM     40  C   UNL     1       8.180   7.463  24.980  1.00  0.00     0.013 A 
BRANCH  39  41
ATOM     41  C   UNL     1       7.305   9.692  24.154  1.00  0.00     0.416 C 
ATOM     42  F   UNL     1       7.753  10.823  23.541  1.00  0.00    -0.166 F 
ATOM     43  F   UNL     1       6.909  10.075  25.400  1.00  0.00    -0.166 F 
ATOM     44  F   UNL     1       6.168   9.335  23.496  1.00  0.00    -0.166 F 
ENDBRANCH  39  41
ENDBRANCH  34  35
ENDBRANCH   4  34
TORSDOF 8
