MODEL 2
REMARK minimizedAffinity -7.88271189
REMARK CNNscore 0.327494204
REMARK CNNaffinity 6.74227095
REMARK SMILES Cc1nc(NC(=O)N2CCC[C@H]2C(N)=O)sc1-c1ccnc(C(C)(C)C(F)(F)F)c1
REMARK SMILES IDX 1 1 2 2 3 3 4 4 16 5 17 6 18 7 19 8 30 9 20 10 22 11 21 12
REMARK SMILES IDX 23 13 24 14 25 15 26 16 27 17 28 18 29 19 5 20 6 21 7 22
REMARK SMILES IDX 8 24 9 25 12 26 10 27 11 28 13 29 14 30 15 31
REMARK H PARENT 5 23 14 32 14 33
ROOT
ATOM      1  C   UNL     1      45.856  -3.931 -50.855  1.00  0.00     0.068 C 
ATOM      2  C   UNL     1      46.530  -3.767 -49.539  1.00  0.00     0.058 A 
ATOM      3  N   UNL     1      46.040  -4.493 -48.461  1.00  0.00    -0.225 NA
ATOM      4  C   UNL     1      46.747  -4.234 -47.388  1.00  0.00     0.191 A 
ATOM      5  S   UNL     1      47.998  -3.101 -47.578  1.00  0.00    -0.096 S 
ATOM      6  C   UNL     1      47.613  -2.949 -49.245  1.00  0.00     0.059 A 
ENDROOT
BRANCH   6   7
ATOM      7  C   UNL     1      48.400  -2.070 -50.109  1.00  0.00    -0.003 A 
ATOM      8  C   UNL     1      48.260  -2.105 -51.494  1.00  0.00     0.030 A 
ATOM      9  C   UNL     1      49.327  -1.181 -49.550  1.00  0.00     0.034 A 
ATOM     10  C   UNL     1      49.045  -1.259 -52.251  1.00  0.00     0.112 A 
ATOM     11  C   UNL     1      50.094  -0.360 -50.379  1.00  0.00     0.056 A 
ATOM     12  N   UNL     1      49.945  -0.400 -51.726  1.00  0.00    -0.260 NA
BRANCH  11  13
ATOM     13  C   UNL     1      51.116   0.630 -49.811  1.00  0.00     0.102 C 
ATOM     14  C   UNL     1      50.566   2.075 -49.823  1.00  0.00     0.027 C 
ATOM     15  C   UNL     1      51.442   0.268 -48.349  1.00  0.00     0.027 C 
BRANCH  13  16
ATOM     16  C   UNL     1      52.395   0.603 -50.655  1.00  0.00     0.399 C 
ATOM     17  F   UNL     1      53.478   1.022 -49.956  1.00  0.00    -0.170 F 
ATOM     18  F   UNL     1      52.676  -0.631 -51.130  1.00  0.00    -0.170 F 
ATOM     19  F   UNL     1      52.290   1.426 -51.728  1.00  0.00    -0.170 F 
ENDBRANCH  13  16
ENDBRANCH  11  13
ENDBRANCH   6   7
BRANCH   4  20
ATOM     20  N   UNL     1      46.436  -4.814 -46.186  1.00  0.00    -0.283 N 
ATOM     21  C   UNL     1      46.905  -4.460 -44.950  1.00  0.00     0.324 C 
ATOM     22  O   UNL     1      47.771  -3.618 -44.725  1.00  0.00    -0.248 OA
ATOM     23  H   UNL     1      45.986  -5.708 -46.290  1.00  0.00     0.174 HD
BRANCH  21  24
ATOM     24  N   UNL     1      46.343  -5.177 -43.905  1.00  0.00    -0.312 N 
ATOM     25  C   UNL     1      45.788  -4.600 -42.687  1.00  0.00     0.122 C 
ATOM     26  C   UNL     1      46.665  -6.602 -43.704  1.00  0.00     0.176 C 
ATOM     27  C   UNL     1      46.210  -5.560 -41.588  1.00  0.00     0.024 C 
ATOM     28  C   UNL     1      46.166  -6.909 -42.286  1.00  0.00     0.037 C 
BRANCH  26  29
ATOM     29  C   UNL     1      46.031  -7.586 -44.713  1.00  0.00     0.240 C 
ATOM     30  N   UNL     1      46.872  -8.168 -45.615  1.00  0.00    -0.368 N 
ATOM     31  O   UNL     1      44.859  -7.955 -44.654  1.00  0.00    -0.273 OA
ATOM     32  H   UNL     1      46.502  -8.944 -46.145  1.00  0.00     0.159 HD
ATOM     33  H   UNL     1      47.871  -8.179 -45.409  1.00  0.00     0.159 HD
ENDBRANCH  26  29
ENDBRANCH  21  24
ENDBRANCH   4  20
TORSDOF 6
ENDMDL
