REMARK VINA RESULT:    -9.084      5.421      9.656
REMARK INTER + INTRA:         -11.777
REMARK INTER:                 -11.922
REMARK INTRA:                   0.145
REMARK UNBOUND:                 0.494
REMARK SMILES CN(c1ncnc2[nH]ccc12)[C@H]1C[C@@H](CS(=O)(=O)N2C[C@@H]3[C@H](C2)[C@H]3C(F)(F)F)C1
REMARK SMILES IDX 15 1 14 2 12 3 29 4 13 5 2 6 1 7 3 8 4 9 11 10 5 11 10 12
REMARK SMILES IDX 7 13 6 14 9 15 8 16 16 18 17 19 18 20 19 21 20 22 23 23
REMARK SMILES IDX 21 24 22 25 24 26 25 27 26 28 27 29 28 30
REMARK H PARENT 8 17
ROOT
ATOM      1  C   UNL     1       7.348 -23.456  23.371  1.00  0.00     0.158 C 
ENDROOT
BRANCH   1   2
ATOM      2  C   UNL     1       7.690 -22.493  22.247  1.00  0.00     0.009 C 
ATOM      3  C   UNL     1       7.332 -20.562  21.375  1.00  0.00     0.084 C 
ATOM      4  C   UNL     1       8.109 -21.052  22.630  1.00  0.00     0.029 C 
ATOM      5  C   UNL     1       6.470 -21.846  21.545  1.00  0.00     0.029 C 
BRANCH   3   6
ATOM      6  N   UNL     1       6.593 -19.346  21.565  1.00  0.00    -0.356 N 
ATOM      7  C   UNL     1       7.273 -18.054  21.507  1.00  0.00     0.145 C 
BRANCH   6   8
ATOM      8  C   UNL     1       5.192 -19.225  21.691  1.00  0.00     0.141 A 
ATOM      9  N   UNL     1       4.638 -19.350  22.933  1.00  0.00    -0.219 NA
ATOM     10  C   UNL     1       4.300 -18.976  20.621  1.00  0.00     0.061 A 
ATOM     11  C   UNL     1       3.303 -19.276  23.080  1.00  0.00     0.226 A 
ATOM     12  C   UNL     1       4.388 -18.703  19.221  1.00  0.00     0.033 A 
ATOM     13  C   UNL     1       2.947 -18.921  20.930  1.00  0.00     0.142 A 
ATOM     14  N   UNL     1       2.378 -19.074  22.133  1.00  0.00    -0.218 NA
ATOM     15  C   UNL     1       3.110 -18.534  18.731  1.00  0.00     0.085 A 
ATOM     16  N   UNL     1       2.245 -18.674  19.782  1.00  0.00    -0.346 N 
ATOM     17  H   UNL     1       1.239 -18.590  19.749  1.00  0.00     0.167 HD
ENDBRANCH   6   8
ENDBRANCH   3   6
ENDBRANCH   1   2
BRANCH   1  18
ATOM     18  S   UNL     1       8.257 -24.989  23.168  1.00  0.00     0.214 S 
ATOM     19  O   UNL     1       8.932 -25.284  24.413  1.00  0.00    -0.212 OA
ATOM     20  O   UNL     1       8.981 -24.916  21.916  1.00  0.00    -0.212 OA
BRANCH  18  21
ATOM     21  N   UNL     1       7.050 -26.127  22.978  1.00  0.00    -0.201 NA
ATOM     22  C   UNL     1       5.643 -25.694  22.872  1.00  0.00     0.106 C 
ATOM     23  C   UNL     1       7.172 -27.441  23.637  1.00  0.00     0.106 C 
ATOM     24  C   UNL     1       4.853 -26.939  23.130  1.00  0.00     0.022 C 
ATOM     25  C   UNL     1       5.786 -28.005  23.597  1.00  0.00     0.022 C 
ATOM     26  C   UNL     1       5.048 -28.182  22.283  1.00  0.00     0.104 C 
BRANCH  26  27
ATOM     27  C   UNL     1       3.972 -29.190  22.132  1.00  0.00     0.392 C 
ATOM     28  F   UNL     1       2.825 -28.632  21.682  1.00  0.00    -0.171 F 
ATOM     29  F   UNL     1       3.710 -29.783  23.318  1.00  0.00    -0.171 F 
ATOM     30  F   UNL     1       4.341 -30.149  21.255  1.00  0.00    -0.171 F 
ENDBRANCH  26  27
ENDBRANCH  18  21
ENDBRANCH   1  18
TORSDOF 6
