MODEL 4
REMARK VINA RESULT:    -8.330      1.954      3.524
REMARK INTER + INTRA:         -12.437
REMARK INTER:                 -11.515
REMARK INTRA:                  -0.922
REMARK UNBOUND:                -1.185
REMARK SMILES CO[C@@H]1CCCN(S(=O)(=O)C[C@H]2CC[C@H](N(C)c3ncnc4[nH]ccc34)CC2)C1
REMARK SMILES IDX 11 1 8 2 9 3 10 4 7 5 3 6 4 7 29 8 5 9 6 10 2 11 1 12 12 13
REMARK SMILES IDX 28 14 13 15 27 16 14 17 15 18 16 19 17 20 18 21 19 22 26 23
REMARK SMILES IDX 20 24 25 25 22 26 21 27 24 28 23 29
REMARK H PARENT 23 30
ROOT
ATOM      1  C   UNL     1       5.164 -18.155  20.379  1.00  0.00     0.157 C 
ENDROOT
BRANCH   1   2
ATOM      2  S   UNL     1       4.752 -17.160  18.943  1.00  0.00     0.214 S 
ATOM      3  O   UNL     1       4.397 -18.031  17.845  1.00  0.00    -0.212 OA
ATOM      4  O   UNL     1       5.763 -16.134  18.786  1.00  0.00    -0.212 OA
BRANCH   2   5
ATOM      5  N   UNL     1       3.330 -16.377  19.442  1.00  0.00    -0.199 NA
ATOM      6  C   UNL     1       0.894 -16.495  19.907  1.00  0.00     0.133 C 
ATOM      7  C   UNL     1       0.862 -14.962  19.949  1.00  0.00     0.035 C 
ATOM      8  C   UNL     1       2.042 -16.971  19.000  1.00  0.00     0.134 C 
ATOM      9  C   UNL     1       2.217 -14.388  20.346  1.00  0.00     0.019 C 
ATOM     10  C   UNL     1       3.324 -14.895  19.426  1.00  0.00     0.102 C 
BRANCH   6  11
ATOM     11  O   UNL     1      -0.379 -16.926  19.409  1.00  0.00    -0.380 OA
ATOM     12  C   UNL     1      -1.459 -16.125  19.873  1.00  0.00     0.195 C 
ENDBRANCH   6  11
ENDBRANCH   2   5
ENDBRANCH   1   2
BRANCH   1  13
ATOM     13  C   UNL     1       5.044 -19.677  20.202  1.00  0.00     0.005 C 
ATOM     14  C   UNL     1       6.236 -20.470  20.772  1.00  0.00     0.007 C 
ATOM     15  C   UNL     1       3.694 -20.254  20.647  1.00  0.00     0.007 C 
ATOM     16  C   UNL     1       5.835 -21.413  21.904  1.00  0.00     0.025 C 
ATOM     17  C   UNL     1       3.717 -21.776  20.536  1.00  0.00     0.025 C 
ATOM     18  C   UNL     1       4.751 -22.439  21.484  1.00  0.00     0.083 C 
BRANCH  18  19
ATOM     19  N   UNL     1       5.341 -23.637  20.814  1.00  0.00    -0.356 N 
ATOM     20  C   UNL     1       5.177 -23.658  19.351  1.00  0.00     0.145 C 
BRANCH  19  21
ATOM     21  C   UNL     1       4.765 -24.851  21.274  1.00  0.00     0.141 A 
ATOM     22  N   UNL     1       3.533 -25.240  20.854  1.00  0.00    -0.219 NA
ATOM     23  C   UNL     1       5.453 -25.698  22.164  1.00  0.00     0.061 A 
ATOM     24  C   UNL     1       3.029 -26.404  21.315  1.00  0.00     0.226 A 
ATOM     25  C   UNL     1       6.709 -25.687  22.833  1.00  0.00     0.033 A 
ATOM     26  C   UNL     1       4.810 -26.864  22.546  1.00  0.00     0.142 A 
ATOM     27  N   UNL     1       3.597 -27.282  22.158  1.00  0.00    -0.218 NA
ATOM     28  C   UNL     1       6.793 -26.837  23.591  1.00  0.00     0.085 A 
ATOM     29  N   UNL     1       5.630 -27.542  23.405  1.00  0.00    -0.346 N 
ATOM     30  H   UNL     1       5.389 -28.425  23.830  1.00  0.00     0.167 HD
ENDBRANCH  19  21
ENDBRANCH  18  19
ENDBRANCH   1  13
TORSDOF 6
ENDMDL
