MODEL 1
REMARK VINA RESULT:   -10.057      0.000      0.000
REMARK INTER + INTRA:         -14.236
REMARK INTER:                 -13.585
REMARK INTRA:                  -0.651
REMARK UNBOUND:                -0.651
REMARK SMILES COC(=O)N1CCC(n2ncc3c(N4[C@@H]5CC[C@H]4COC5)nc(-c4ccc(NC(=O)Nc5cccnc5)cc4)nc32)CC1
REMARK SMILES IDX 9 1 10 2 11 3 12 4 13 5 22 6 23 7 40 8 41 9 8 10 3 11 4 12
REMARK SMILES IDX 5 13 6 14 43 15 7 16 42 17 2 18 1 19 24 20 25 21 39 22 26 23
REMARK SMILES IDX 38 24 27 25 28 26 29 27 30 28 31 29 32 32 33 33 37 34 34 35
REMARK SMILES IDX 36 36 35 37 14 38 15 39 18 40 16 41 21 42 17 43 19 44 20 45
REMARK H PARENT 28 30 31 31
ROOT
ATOM      1  N   UNL     1     -20.582 -30.648 -58.043  1.00  0.00    -0.244 N 
ATOM      2  N   UNL     1     -21.397 -30.339 -57.008  1.00  0.00    -0.178 NA
ATOM      3  C   UNL     1     -20.831 -30.966 -55.972  1.00  0.00     0.149 A 
ATOM      4  C   UNL     1     -19.641 -31.641 -56.316  1.00  0.00     0.082 A 
ATOM      5  C   UNL     1     -18.659 -32.422 -55.684  1.00  0.00     0.144 A 
ATOM      6  N   UNL     1     -17.701 -32.960 -56.487  1.00  0.00    -0.210 NA
ATOM      7  C   UNL     1     -17.700 -32.717 -57.820  1.00  0.00     0.163 A 
ATOM      8  N   UNL     1     -18.587 -31.958 -58.489  1.00  0.00    -0.208 NA
ATOM      9  C   UNL     1     -19.532 -31.451 -57.682  1.00  0.00     0.164 A 
ENDROOT
BRANCH   1  10
ATOM     10  C   UNL     1     -20.911 -30.153 -59.372  1.00  0.00     0.113 C 
ATOM     11  C   UNL     1     -22.318 -28.448 -62.853  1.00  0.00     0.409 C 
ATOM     12  O   UNL     1     -22.545 -27.248 -62.968  1.00  0.00    -0.224 OA
ATOM     13  N   UNL     1     -22.183 -29.101 -61.639  1.00  0.00    -0.308 N 
ATOM     14  C   UNL     1     -22.427 -28.377 -60.401  1.00  0.00     0.125 C 
ATOM     15  C   UNL     1     -22.029 -30.550 -61.566  1.00  0.00     0.125 C 
ATOM     16  C   UNL     1     -21.368 -28.686 -59.343  1.00  0.00     0.049 C 
ATOM     17  C   UNL     1     -21.886 -31.057 -60.135  1.00  0.00     0.049 C 
BRANCH  11  18
ATOM     18  O   UNL     1     -22.170 -29.293 -63.910  1.00  0.00    -0.453 OA
ATOM     19  C   UNL     1     -21.140 -28.913 -64.827  1.00  0.00     0.284 C 
ENDBRANCH  11  18
ENDBRANCH   1  10
BRANCH   7  20
ATOM     20  C   UNL     1     -16.612 -33.336 -58.608  1.00  0.00     0.019 A 
ATOM     21  C   UNL     1     -16.715 -33.495 -60.001  1.00  0.00     0.014 A 
ATOM     22  C   UNL     1     -15.430 -33.796 -58.003  1.00  0.00     0.014 A 
ATOM     23  C   UNL     1     -15.686 -34.083 -60.749  1.00  0.00     0.027 A 
ATOM     24  C   UNL     1     -14.394 -34.378 -58.750  1.00  0.00     0.027 A 
ATOM     25  C   UNL     1     -14.511 -34.521 -60.130  1.00  0.00     0.042 A 
BRANCH  25  26
ATOM     26  N   UNL     1     -13.526 -35.100 -60.957  1.00  0.00    -0.308 N 
ATOM     27  C   UNL     1     -13.012 -34.592 -62.142  1.00  0.00     0.323 C 
ATOM     28  O   UNL     1     -13.406 -33.579 -62.703  1.00  0.00    -0.248 OA
ATOM     29  N   UNL     1     -11.985 -35.405 -62.602  1.00  0.00    -0.306 N 
ATOM     30  H   UNL     1     -13.255 -36.041 -60.723  1.00  0.00     0.171 HD
ATOM     31  H   UNL     1     -11.603 -36.060 -61.941  1.00  0.00     0.171 HD
BRANCH  29  32
ATOM     32  C   UNL     1     -11.310 -35.309 -63.840  1.00  0.00     0.061 A 
ATOM     33  C   UNL     1     -11.935 -35.102 -65.067  1.00  0.00     0.029 A 
ATOM     34  C   UNL     1      -9.923 -35.468 -63.861  1.00  0.00     0.137 A 
ATOM     35  C   UNL     1     -11.174 -35.063 -66.236  1.00  0.00     0.022 A 
ATOM     36  N   UNL     1      -9.158 -35.441 -64.976  1.00  0.00    -0.263 NA
ATOM     37  C   UNL     1      -9.807 -35.241 -66.142  1.00  0.00     0.111 A 
ENDBRANCH  29  32
ENDBRANCH  25  26
ENDBRANCH   7  20
BRANCH   5  38
ATOM     38  N   UNL     1     -18.655 -32.717 -54.334  1.00  0.00    -0.345 N 
ATOM     39  C   UNL     1     -19.579 -33.743 -53.808  1.00  0.00     0.110 C 
ATOM     40  C   UNL     1     -17.394 -32.996 -53.620  1.00  0.00     0.110 C 
ATOM     41  C   UNL     1     -19.360 -33.553 -52.291  1.00  0.00     0.030 C 
ATOM     42  C   UNL     1     -19.094 -35.160 -54.227  1.00  0.00     0.185 C 
ATOM     43  C   UNL     1     -17.907 -33.059 -52.167  1.00  0.00     0.030 C 
ATOM     44  C   UNL     1     -16.849 -34.382 -54.058  1.00  0.00     0.185 C 
ATOM     45  O   UNL     1     -17.768 -35.445 -53.732  1.00  0.00    -0.377 OA
ENDBRANCH   5  38
TORSDOF 6
ENDMDL
MODEL 2
REMARK VINA RESULT:    -9.779      4.633     11.215
REMARK INTER + INTRA:         -13.861
REMARK INTER:                 -12.699
REMARK INTRA:                  -1.162
REMARK UNBOUND:                -0.651
REMARK SMILES COC(=O)N1CCC(n2ncc3c(N4[C@@H]5CC[C@H]4COC5)nc(-c4ccc(NC(=O)Nc5cccnc5)cc4)nc32)CC1
REMARK SMILES IDX 9 1 10 2 11 3 12 4 13 5 22 6 23 7 40 8 41 9 8 10 3 11 4 12
REMARK SMILES IDX 5 13 6 14 43 15 7 16 42 17 2 18 1 19 24 20 25 21 39 22 26 23
REMARK SMILES IDX 38 24 27 25 28 26 29 27 30 28 31 29 32 32 33 33 37 34 34 35
REMARK SMILES IDX 36 36 35 37 14 38 15 39 18 40 16 41 21 42 17 43 19 44 20 45
REMARK H PARENT 28 30 31 31
ROOT
ATOM      1  N   UNL     1     -18.877 -32.017 -59.103  1.00  0.00    -0.244 N 
ATOM      2  N   UNL     1     -17.645 -32.570 -59.188  1.00  0.00    -0.178 NA
ATOM      3  C   UNL     1     -17.355 -32.877 -57.920  1.00  0.00     0.149 A 
ATOM      4  C   UNL     1     -18.399 -32.566 -57.023  1.00  0.00     0.082 A 
ATOM      5  C   UNL     1     -18.662 -32.664 -55.647  1.00  0.00     0.144 A 
ATOM      6  N   UNL     1     -19.830 -32.118 -55.211  1.00  0.00    -0.210 NA
ATOM      7  C   UNL     1     -20.691 -31.542 -56.083  1.00  0.00     0.163 A 
ATOM      8  N   UNL     1     -20.522 -31.438 -57.414  1.00  0.00    -0.208 NA
ATOM      9  C   UNL     1     -19.357 -31.967 -57.820  1.00  0.00     0.164 A 
ENDROOT
BRANCH   1  10
ATOM     10  C   UNL     1     -19.514 -31.523 -60.315  1.00  0.00     0.113 C 
ATOM     11  C   UNL     1     -20.754 -30.196 -64.017  1.00  0.00     0.409 C 
ATOM     12  O   UNL     1     -20.553 -30.818 -65.054  1.00  0.00    -0.224 OA
ATOM     13  N   UNL     1     -20.073 -30.420 -62.832  1.00  0.00    -0.308 N 
ATOM     14  C   UNL     1     -18.970 -31.367 -62.802  1.00  0.00     0.125 C 
ATOM     15  C   UNL     1     -20.276 -29.569 -61.664  1.00  0.00     0.125 C 
ATOM     16  C   UNL     1     -19.023 -32.265 -61.567  1.00  0.00     0.049 C 
ATOM     17  C   UNL     1     -19.436 -29.999 -60.467  1.00  0.00     0.049 C 
BRANCH  11  18
ATOM     18  O   UNL     1     -21.676 -29.201 -63.899  1.00  0.00    -0.453 OA
ATOM     19  C   UNL     1     -21.641 -28.238 -64.956  1.00  0.00     0.284 C 
ENDBRANCH  11  18
ENDBRANCH   1  10
BRANCH   7  20
ATOM     20  C   UNL     1     -21.940 -30.987 -55.516  1.00  0.00     0.019 A 
ATOM     21  C   UNL     1     -21.970 -30.412 -54.234  1.00  0.00     0.014 A 
ATOM     22  C   UNL     1     -23.150 -31.014 -56.229  1.00  0.00     0.014 A 
ATOM     23  C   UNL     1     -23.153 -29.887 -53.695  1.00  0.00     0.027 A 
ATOM     24  C   UNL     1     -24.336 -30.482 -55.696  1.00  0.00     0.027 A 
ATOM     25  C   UNL     1     -24.345 -29.909 -54.426  1.00  0.00     0.042 A 
BRANCH  25  26
ATOM     26  N   UNL     1     -25.488 -29.360 -53.810  1.00  0.00    -0.308 N 
ATOM     27  C   UNL     1     -25.856 -28.022 -53.751  1.00  0.00     0.323 C 
ATOM     28  O   UNL     1     -25.185 -27.088 -54.167  1.00  0.00    -0.248 OA
ATOM     29  N   UNL     1     -27.100 -27.898 -53.147  1.00  0.00    -0.306 N 
ATOM     30  H   UNL     1     -26.032 -29.995 -53.248  1.00  0.00     0.171 HD
ATOM     31  H   UNL     1     -27.646 -28.740 -53.070  1.00  0.00     0.171 HD
BRANCH  29  32
ATOM     32  C   UNL     1     -27.752 -26.701 -52.775  1.00  0.00     0.061 A 
ATOM     33  C   UNL     1     -27.640 -26.096 -51.526  1.00  0.00     0.029 A 
ATOM     34  C   UNL     1     -28.602 -26.086 -53.696  1.00  0.00     0.137 A 
ATOM     35  C   UNL     1     -28.361 -24.933 -51.250  1.00  0.00     0.022 A 
ATOM     36  N   UNL     1     -29.318 -24.963 -53.459  1.00  0.00    -0.263 NA
ATOM     37  C   UNL     1     -29.181 -24.414 -52.234  1.00  0.00     0.111 A 
ENDBRANCH  29  32
ENDBRANCH  25  26
ENDBRANCH   7  20
BRANCH   5  38
ATOM     38  N   UNL     1     -17.787 -33.213 -54.729  1.00  0.00    -0.345 N 
ATOM     39  C   UNL     1     -17.886 -32.829 -53.305  1.00  0.00     0.110 C 
ATOM     40  C   UNL     1     -17.558 -34.670 -54.673  1.00  0.00     0.110 C 
ATOM     41  C   UNL     1     -16.610 -33.505 -52.753  1.00  0.00     0.030 C 
ATOM     42  C   UNL     1     -19.139 -33.487 -52.663  1.00  0.00     0.185 C 
ATOM     43  C   UNL     1     -16.396 -34.730 -53.661  1.00  0.00     0.030 C 
ATOM     44  C   UNL     1     -18.816 -35.368 -54.088  1.00  0.00     0.185 C 
ATOM     45  O   UNL     1     -19.093 -34.928 -52.743  1.00  0.00    -0.377 OA
ENDBRANCH   5  38
TORSDOF 6
ENDMDL
MODEL 3
REMARK VINA RESULT:    -9.034      1.677      2.188
REMARK INTER + INTRA:         -12.854
REMARK INTER:                 -12.169
REMARK INTRA:                  -0.685
REMARK UNBOUND:                -0.651
REMARK SMILES COC(=O)N1CCC(n2ncc3c(N4[C@@H]5CC[C@H]4COC5)nc(-c4ccc(NC(=O)Nc5cccnc5)cc4)nc32)CC1
REMARK SMILES IDX 9 1 10 2 11 3 12 4 13 5 22 6 23 7 40 8 41 9 8 10 3 11 4 12
REMARK SMILES IDX 5 13 6 14 43 15 7 16 42 17 2 18 1 19 24 20 25 21 39 22 26 23
REMARK SMILES IDX 38 24 27 25 28 26 29 27 30 28 31 29 32 32 33 33 37 34 34 35
REMARK SMILES IDX 36 36 35 37 14 38 15 39 18 40 16 41 21 42 17 43 19 44 20 45
REMARK H PARENT 28 30 31 31
ROOT
ATOM      1  N   UNL     1     -21.167 -30.016 -57.320  1.00  0.00    -0.244 N 
ATOM      2  N   UNL     1     -21.884 -30.167 -56.183  1.00  0.00    -0.178 NA
ATOM      3  C   UNL     1     -21.310 -31.219 -55.591  1.00  0.00     0.149 A 
ATOM      4  C   UNL     1     -20.207 -31.725 -56.311  1.00  0.00     0.082 A 
ATOM      5  C   UNL     1     -19.258 -32.753 -56.189  1.00  0.00     0.144 A 
ATOM      6  N   UNL     1     -18.403 -32.919 -57.235  1.00  0.00    -0.210 NA
ATOM      7  C   UNL     1     -18.466 -32.103 -58.314  1.00  0.00     0.163 A 
ATOM      8  N   UNL     1     -19.325 -31.082 -58.489  1.00  0.00    -0.208 NA
ATOM      9  C   UNL     1     -20.169 -30.946 -57.454  1.00  0.00     0.164 A 
ENDROOT
BRANCH   1  10
ATOM     10  C   UNL     1     -21.535 -28.961 -58.252  1.00  0.00     0.113 C 
ATOM     11  C   UNL     1     -23.103 -25.916 -60.548  1.00  0.00     0.409 C 
ATOM     12  O   UNL     1     -23.510 -24.861 -60.074  1.00  0.00    -0.224 OA
ATOM     13  N   UNL     1     -22.898 -27.071 -59.812  1.00  0.00    -0.308 N 
ATOM     14  C   UNL     1     -23.282 -27.109 -58.409  1.00  0.00     0.125 C 
ATOM     15  C   UNL     1     -22.522 -28.327 -60.453  1.00  0.00     0.125 C 
ATOM     16  C   UNL     1     -22.215 -27.779 -57.545  1.00  0.00     0.049 C 
ATOM     17  C   UNL     1     -22.338 -29.466 -59.457  1.00  0.00     0.049 C 
BRANCH  11  18
ATOM     18  O   UNL     1     -22.798 -26.085 -61.864  1.00  0.00    -0.453 OA
ATOM     19  C   UNL     1     -21.832 -25.159 -62.368  1.00  0.00     0.284 C 
ENDBRANCH  11  18
ENDBRANCH   1  10
BRANCH   7  20
ATOM     20  C   UNL     1     -17.487 -32.354 -59.395  1.00  0.00     0.019 A 
ATOM     21  C   UNL     1     -17.282 -31.423 -60.428  1.00  0.00     0.014 A 
ATOM     22  C   UNL     1     -16.723 -33.532 -59.442  1.00  0.00     0.014 A 
ATOM     23  C   UNL     1     -16.357 -31.660 -61.455  1.00  0.00     0.027 A 
ATOM     24  C   UNL     1     -15.790 -33.770 -60.464  1.00  0.00     0.027 A 
ATOM     25  C   UNL     1     -15.595 -32.832 -61.476  1.00  0.00     0.042 A 
BRANCH  25  26
ATOM     26  N   UNL     1     -14.687 -32.990 -62.543  1.00  0.00    -0.308 N 
ATOM     27  C   UNL     1     -13.610 -33.863 -62.614  1.00  0.00     0.323 C 
ATOM     28  O   UNL     1     -13.229 -34.587 -61.704  1.00  0.00    -0.248 OA
ATOM     29  N   UNL     1     -13.023 -33.792 -63.870  1.00  0.00    -0.306 N 
ATOM     30  H   UNL     1     -14.757 -32.311 -63.282  1.00  0.00     0.171 HD
ATOM     31  H   UNL     1     -13.564 -33.347 -64.592  1.00  0.00     0.171 HD
BRANCH  29  32
ATOM     32  C   UNL     1     -11.824 -34.413 -64.288  1.00  0.00     0.061 A 
ATOM     33  C   UNL     1     -10.633 -34.398 -63.566  1.00  0.00     0.029 A 
ATOM     34  C   UNL     1     -11.800 -35.058 -65.525  1.00  0.00     0.137 A 
ATOM     35  C   UNL     1      -9.495 -35.011 -64.092  1.00  0.00     0.022 A 
ATOM     36  N   UNL     1     -10.713 -35.656 -66.066  1.00  0.00    -0.263 NA
ATOM     37  C   UNL     1      -9.581 -35.614 -65.332  1.00  0.00     0.111 A 
ENDBRANCH  29  32
ENDBRANCH  25  26
ENDBRANCH   7  20
BRANCH   5  38
ATOM     38  N   UNL     1     -19.194 -33.624 -55.118  1.00  0.00    -0.345 N 
ATOM     39  C   UNL     1     -18.366 -34.844 -55.217  1.00  0.00     0.110 C 
ATOM     40  C   UNL     1     -18.915 -33.133 -53.754  1.00  0.00     0.110 C 
ATOM     41  C   UNL     1     -18.785 -35.562 -53.914  1.00  0.00     0.030 C 
ATOM     42  C   UNL     1     -16.859 -34.472 -55.140  1.00  0.00     0.185 C 
ATOM     43  C   UNL     1     -19.146 -34.424 -52.942  1.00  0.00     0.030 C 
ATOM     44  C   UNL     1     -17.428 -32.697 -53.658  1.00  0.00     0.185 C 
ATOM     45  O   UNL     1     -16.531 -33.799 -53.906  1.00  0.00    -0.377 OA
ENDBRANCH   5  38
TORSDOF 6
ENDMDL
MODEL 4
REMARK VINA RESULT:    -8.573      5.192      8.041
REMARK INTER + INTRA:         -12.232
REMARK INTER:                 -11.487
REMARK INTRA:                  -0.744
REMARK UNBOUND:                -0.651
REMARK SMILES COC(=O)N1CCC(n2ncc3c(N4[C@@H]5CC[C@H]4COC5)nc(-c4ccc(NC(=O)Nc5cccnc5)cc4)nc32)CC1
REMARK SMILES IDX 9 1 10 2 11 3 12 4 13 5 22 6 23 7 40 8 41 9 8 10 3 11 4 12
REMARK SMILES IDX 5 13 6 14 43 15 7 16 42 17 2 18 1 19 24 20 25 21 39 22 26 23
REMARK SMILES IDX 38 24 27 25 28 26 29 27 30 28 31 29 32 32 33 33 37 34 34 35
REMARK SMILES IDX 36 36 35 37 14 38 15 39 18 40 16 41 21 42 17 43 19 44 20 45
REMARK H PARENT 28 30 31 31
ROOT
ATOM      1  N   UNL     1     -26.309 -26.766 -56.421  1.00  0.00    -0.244 N 
ATOM      2  N   UNL     1     -27.508 -26.346 -55.955  1.00  0.00    -0.178 NA
ATOM      3  C   UNL     1     -27.758 -27.182 -54.943  1.00  0.00     0.149 A 
ATOM      4  C   UNL     1     -26.719 -28.111 -54.724  1.00  0.00     0.082 A 
ATOM      5  C   UNL     1     -26.428 -29.170 -53.848  1.00  0.00     0.144 A 
ATOM      6  N   UNL     1     -25.287 -29.869 -54.097  1.00  0.00    -0.210 NA
ATOM      7  C   UNL     1     -24.475 -29.522 -55.124  1.00  0.00     0.163 A 
ATOM      8  N   UNL     1     -24.673 -28.506 -55.984  1.00  0.00    -0.208 NA
ATOM      9  C   UNL     1     -25.811 -27.841 -55.732  1.00  0.00     0.164 A 
ENDROOT
BRANCH   1  10
ATOM     10  C   UNL     1     -25.722 -26.093 -57.570  1.00  0.00     0.113 C 
ATOM     11  C   UNL     1     -23.683 -24.692 -60.869  1.00  0.00     0.409 C 
ATOM     12  O   UNL     1     -23.526 -25.353 -61.890  1.00  0.00    -0.224 OA
ATOM     13  N   UNL     1     -24.044 -25.228 -59.644  1.00  0.00    -0.308 N 
ATOM     14  C   UNL     1     -24.147 -26.671 -59.491  1.00  0.00     0.125 C 
ATOM     15  C   UNL     1     -24.103 -24.407 -58.439  1.00  0.00     0.125 C 
ATOM     16  C   UNL     1     -25.395 -27.074 -58.706  1.00  0.00     0.049 C 
ATOM     17  C   UNL     1     -24.533 -25.196 -57.207  1.00  0.00     0.049 C 
BRANCH  11  18
ATOM     18  O   UNL     1     -23.521 -23.341 -60.810  1.00  0.00    -0.453 OA
ATOM     19  C   UNL     1     -22.495 -22.834 -61.667  1.00  0.00     0.284 C 
ENDBRANCH  11  18
ENDBRANCH   1  10
BRANCH   7  20
ATOM     20  C   UNL     1     -23.252 -30.333 -55.308  1.00  0.00     0.019 A 
ATOM     21  C   UNL     1     -23.048 -31.100 -56.468  1.00  0.00     0.014 A 
ATOM     22  C   UNL     1     -22.241 -30.377 -54.333  1.00  0.00     0.014 A 
ATOM     23  C   UNL     1     -21.890 -31.870 -56.644  1.00  0.00     0.027 A 
ATOM     24  C   UNL     1     -21.076 -31.141 -54.508  1.00  0.00     0.027 A 
ATOM     25  C   UNL     1     -20.888 -31.890 -55.668  1.00  0.00     0.042 A 
BRANCH  25  26
ATOM     26  N   UNL     1     -19.756 -32.690 -55.924  1.00  0.00    -0.308 N 
ATOM     27  C   UNL     1     -18.863 -32.577 -56.980  1.00  0.00     0.323 C 
ATOM     28  O   UNL     1     -18.973 -31.795 -57.915  1.00  0.00    -0.248 OA
ATOM     29  N   UNL     1     -17.823 -33.483 -56.823  1.00  0.00    -0.306 N 
ATOM     30  H   UNL     1     -19.656 -33.507 -55.344  1.00  0.00     0.171 HD
ATOM     31  H   UNL     1     -17.722 -33.893 -55.909  1.00  0.00     0.171 HD
BRANCH  29  32
ATOM     32  C   UNL     1     -16.798 -33.776 -57.751  1.00  0.00     0.061 A 
ATOM     33  C   UNL     1     -17.013 -34.122 -59.082  1.00  0.00     0.029 A 
ATOM     34  C   UNL     1     -15.473 -33.760 -57.312  1.00  0.00     0.137 A 
ATOM     35  C   UNL     1     -15.927 -34.430 -59.903  1.00  0.00     0.022 A 
ATOM     36  N   UNL     1     -14.400 -34.059 -58.079  1.00  0.00    -0.263 NA
ATOM     37  C   UNL     1     -14.656 -34.391 -59.362  1.00  0.00     0.111 A 
ENDBRANCH  29  32
ENDBRANCH  25  26
ENDBRANCH   7  20
BRANCH   5  38
ATOM     38  N   UNL     1     -27.254 -29.569 -52.814  1.00  0.00    -0.345 N 
ATOM     39  C   UNL     1     -26.903 -30.764 -52.019  1.00  0.00     0.110 C 
ATOM     40  C   UNL     1     -27.718 -28.607 -51.797  1.00  0.00     0.110 C 
ATOM     41  C   UNL     1     -28.190 -30.916 -51.177  1.00  0.00     0.030 C 
ATOM     42  C   UNL     1     -25.706 -30.445 -51.079  1.00  0.00     0.185 C 
ATOM     43  C   UNL     1     -28.729 -29.482 -51.027  1.00  0.00     0.030 C 
ATOM     44  C   UNL     1     -26.531 -28.220 -50.873  1.00  0.00     0.185 C 
ATOM     45  O   UNL     1     -26.007 -29.365 -50.170  1.00  0.00    -0.377 OA
ENDBRANCH   5  38
TORSDOF 6
ENDMDL
MODEL 5
REMARK VINA RESULT:    -8.462      4.451     12.956
REMARK INTER + INTRA:         -12.081
REMARK INTER:                 -10.954
REMARK INTRA:                  -1.127
REMARK UNBOUND:                -0.651
REMARK SMILES COC(=O)N1CCC(n2ncc3c(N4[C@@H]5CC[C@H]4COC5)nc(-c4ccc(NC(=O)Nc5cccnc5)cc4)nc32)CC1
REMARK SMILES IDX 9 1 10 2 11 3 12 4 13 5 22 6 23 7 40 8 41 9 8 10 3 11 4 12
REMARK SMILES IDX 5 13 6 14 43 15 7 16 42 17 2 18 1 19 24 20 25 21 39 22 26 23
REMARK SMILES IDX 38 24 27 25 28 26 29 27 30 28 31 29 32 32 33 33 37 34 34 35
REMARK SMILES IDX 36 36 35 37 14 38 15 39 18 40 16 41 21 42 17 43 19 44 20 45
REMARK H PARENT 28 30 31 31
ROOT
ATOM      1  N   UNL     1     -19.210 -31.352 -60.974  1.00  0.00    -0.244 N 
ATOM      2  N   UNL     1     -19.077 -31.589 -62.300  1.00  0.00    -0.178 NA
ATOM      3  C   UNL     1     -20.061 -30.867 -62.844  1.00  0.00     0.149 A 
ATOM      4  C   UNL     1     -20.803 -30.136 -61.892  1.00  0.00     0.082 A 
ATOM      5  C   UNL     1     -21.888 -29.245 -61.869  1.00  0.00     0.144 A 
ATOM      6  N   UNL     1     -22.329 -28.856 -60.641  1.00  0.00    -0.210 NA
ATOM      7  C   UNL     1     -21.718 -29.297 -59.516  1.00  0.00     0.163 A 
ATOM      8  N   UNL     1     -20.659 -30.126 -59.461  1.00  0.00    -0.208 NA
ATOM      9  C   UNL     1     -20.251 -30.509 -60.680  1.00  0.00     0.164 A 
ENDROOT
BRANCH   1  10
ATOM     10  C   UNL     1     -18.306 -32.013 -60.044  1.00  0.00     0.113 C 
ATOM     11  C   UNL     1     -15.374 -33.977 -57.912  1.00  0.00     0.409 C 
ATOM     12  O   UNL     1     -14.188 -33.670 -57.964  1.00  0.00    -0.224 OA
ATOM     13  N   UNL     1     -16.319 -33.588 -58.846  1.00  0.00    -0.308 N 
ATOM     14  C   UNL     1     -15.901 -32.862 -60.035  1.00  0.00     0.125 C 
ATOM     15  C   UNL     1     -17.692 -34.080 -58.794  1.00  0.00     0.125 C 
ATOM     16  C   UNL     1     -16.834 -31.693 -60.347  1.00  0.00     0.049 C 
ATOM     17  C   UNL     1     -18.564 -33.518 -59.909  1.00  0.00     0.049 C 
BRANCH  11  18
ATOM     18  O   UNL     1     -15.914 -34.743 -56.924  1.00  0.00    -0.453 OA
ATOM     19  C   UNL     1     -16.101 -34.056 -55.684  1.00  0.00     0.284 C 
ENDBRANCH  11  18
ENDBRANCH   1  10
BRANCH   7  20
ATOM     20  C   UNL     1     -22.262 -28.810 -58.229  1.00  0.00     0.019 A 
ATOM     21  C   UNL     1     -23.231 -27.794 -58.181  1.00  0.00     0.014 A 
ATOM     22  C   UNL     1     -21.832 -29.336 -56.999  1.00  0.00     0.014 A 
ATOM     23  C   UNL     1     -23.746 -27.330 -56.963  1.00  0.00     0.027 A 
ATOM     24  C   UNL     1     -22.351 -28.880 -55.777  1.00  0.00     0.027 A 
ATOM     25  C   UNL     1     -23.317 -27.877 -55.749  1.00  0.00     0.042 A 
BRANCH  25  26
ATOM     26  N   UNL     1     -23.887 -27.353 -54.570  1.00  0.00    -0.308 N 
ATOM     27  C   UNL     1     -24.901 -27.908 -53.803  1.00  0.00     0.323 C 
ATOM     28  O   UNL     1     -25.525 -28.922 -54.087  1.00  0.00    -0.248 OA
ATOM     29  N   UNL     1     -25.110 -27.143 -52.664  1.00  0.00    -0.306 N 
ATOM     30  H   UNL     1     -23.609 -26.416 -54.328  1.00  0.00     0.171 HD
ATOM     31  H   UNL     1     -24.385 -26.485 -52.429  1.00  0.00     0.171 HD
BRANCH  29  32
ATOM     32  C   UNL     1     -26.143 -27.293 -51.711  1.00  0.00     0.061 A 
ATOM     33  C   UNL     1     -27.266 -26.474 -51.628  1.00  0.00     0.029 A 
ATOM     34  C   UNL     1     -26.030 -28.303 -50.755  1.00  0.00     0.137 A 
ATOM     35  C   UNL     1     -28.208 -26.688 -50.620  1.00  0.00     0.022 A 
ATOM     36  N   UNL     1     -26.921 -28.534 -49.763  1.00  0.00    -0.263 NA
ATOM     37  C   UNL     1     -27.992 -27.713 -49.719  1.00  0.00     0.111 A 
ENDBRANCH  29  32
ENDBRANCH  25  26
ENDBRANCH   7  20
BRANCH   5  38
ATOM     38  N   UNL     1     -22.554 -28.807 -62.998  1.00  0.00    -0.345 N 
ATOM     39  C   UNL     1     -23.873 -28.154 -62.860  1.00  0.00     0.110 C 
ATOM     40  C   UNL     1     -21.870 -27.983 -64.013  1.00  0.00     0.110 C 
ATOM     41  C   UNL     1     -24.283 -28.058 -64.347  1.00  0.00     0.030 C 
ATOM     42  C   UNL     1     -23.699 -26.722 -62.279  1.00  0.00     0.185 C 
ATOM     43  C   UNL     1     -22.952 -27.940 -65.111  1.00  0.00     0.030 C 
ATOM     44  C   UNL     1     -21.628 -26.558 -63.443  1.00  0.00     0.185 C 
ATOM     45  O   UNL     1     -22.867 -25.895 -63.119  1.00  0.00    -0.377 OA
ENDBRANCH   5  38
TORSDOF 6
ENDMDL
MODEL 6
REMARK VINA RESULT:    -8.313      5.072      9.622
REMARK INTER + INTRA:         -11.880
REMARK INTER:                 -11.272
REMARK INTRA:                  -0.608
REMARK UNBOUND:                -0.651
REMARK SMILES COC(=O)N1CCC(n2ncc3c(N4[C@@H]5CC[C@H]4COC5)nc(-c4ccc(NC(=O)Nc5cccnc5)cc4)nc32)CC1
REMARK SMILES IDX 9 1 10 2 11 3 12 4 13 5 22 6 23 7 40 8 41 9 8 10 3 11 4 12
REMARK SMILES IDX 5 13 6 14 43 15 7 16 42 17 2 18 1 19 24 20 25 21 39 22 26 23
REMARK SMILES IDX 38 24 27 25 28 26 29 27 30 28 31 29 32 32 33 33 37 34 34 35
REMARK SMILES IDX 36 36 35 37 14 38 15 39 18 40 16 41 21 42 17 43 19 44 20 45
REMARK H PARENT 28 30 31 31
ROOT
ATOM      1  N   UNL     1     -25.662 -28.775 -53.398  1.00  0.00    -0.244 N 
ATOM      2  N   UNL     1     -26.560 -27.763 -53.417  1.00  0.00    -0.178 NA
ATOM      3  C   UNL     1     -26.216 -27.065 -54.504  1.00  0.00     0.149 A 
ATOM      4  C   UNL     1     -25.133 -27.633 -55.207  1.00  0.00     0.082 A 
ATOM      5  C   UNL     1     -24.378 -27.367 -56.361  1.00  0.00     0.144 A 
ATOM      6  N   UNL     1     -23.319 -28.188 -56.597  1.00  0.00    -0.210 NA
ATOM      7  C   UNL     1     -23.045 -29.219 -55.763  1.00  0.00     0.163 A 
ATOM      8  N   UNL     1     -23.738 -29.552 -54.658  1.00  0.00    -0.208 NA
ATOM      9  C   UNL     1     -24.767 -28.721 -54.435  1.00  0.00     0.164 A 
ENDROOT
BRANCH   1  10
ATOM     10  C   UNL     1     -25.711 -29.742 -52.311  1.00  0.00     0.113 C 
ATOM     11  C   UNL     1     -26.414 -32.646 -49.469  1.00  0.00     0.409 C 
ATOM     12  O   UNL     1     -26.743 -33.793 -49.751  1.00  0.00    -0.224 OA
ATOM     13  N   UNL     1     -26.504 -31.575 -50.343  1.00  0.00    -0.308 N 
ATOM     14  C   UNL     1     -27.125 -31.759 -51.646  1.00  0.00     0.125 C 
ATOM     15  C   UNL     1     -26.206 -30.213 -49.913  1.00  0.00     0.125 C 
ATOM     16  C   UNL     1     -26.328 -31.077 -52.757  1.00  0.00     0.049 C 
ATOM     17  C   UNL     1     -26.359 -29.193 -51.035  1.00  0.00     0.049 C 
BRANCH  11  18
ATOM     18  O   UNL     1     -25.915 -32.278 -48.257  1.00  0.00    -0.453 OA
ATOM     19  C   UNL     1     -25.489 -33.372 -47.440  1.00  0.00     0.284 C 
ENDBRANCH  11  18
ENDBRANCH   1  10
BRANCH   7  20
ATOM     20  C   UNL     1     -21.880 -30.063 -56.108  1.00  0.00     0.019 A 
ATOM     21  C   UNL     1     -20.755 -29.529 -56.760  1.00  0.00     0.014 A 
ATOM     22  C   UNL     1     -21.846 -31.435 -55.807  1.00  0.00     0.014 A 
ATOM     23  C   UNL     1     -19.651 -30.327 -57.090  1.00  0.00     0.027 A 
ATOM     24  C   UNL     1     -20.739 -32.237 -56.128  1.00  0.00     0.027 A 
ATOM     25  C   UNL     1     -19.630 -31.688 -56.767  1.00  0.00     0.042 A 
BRANCH  25  26
ATOM     26  N   UNL     1     -18.481 -32.418 -57.134  1.00  0.00    -0.308 N 
ATOM     27  C   UNL     1     -17.885 -32.483 -58.386  1.00  0.00     0.323 C 
ATOM     28  O   UNL     1     -18.326 -31.967 -59.404  1.00  0.00    -0.248 OA
ATOM     29  N   UNL     1     -16.713 -33.224 -58.316  1.00  0.00    -0.306 N 
ATOM     30  H   UNL     1     -18.127 -33.056 -56.440  1.00  0.00     0.171 HD
ATOM     31  H   UNL     1     -16.341 -33.387 -57.395  1.00  0.00     0.171 HD
BRANCH  29  32
ATOM     32  C   UNL     1     -15.899 -33.638 -59.395  1.00  0.00     0.061 A 
ATOM     33  C   UNL     1     -15.259 -34.872 -59.474  1.00  0.00     0.029 A 
ATOM     34  C   UNL     1     -15.678 -32.748 -60.447  1.00  0.00     0.137 A 
ATOM     35  C   UNL     1     -14.445 -35.163 -60.569  1.00  0.00     0.022 A 
ATOM     36  N   UNL     1     -14.890 -32.996 -61.519  1.00  0.00    -0.263 NA
ATOM     37  C   UNL     1     -14.288 -34.204 -61.551  1.00  0.00     0.111 A 
ENDBRANCH  29  32
ENDBRANCH  25  26
ENDBRANCH   7  20
BRANCH   5  38
ATOM     38  N   UNL     1     -24.612 -26.302 -57.211  1.00  0.00    -0.345 N 
ATOM     39  C   UNL     1     -23.785 -26.142 -58.425  1.00  0.00     0.110 C 
ATOM     40  C   UNL     1     -25.974 -25.990 -57.683  1.00  0.00     0.110 C 
ATOM     41  C   UNL     1     -24.262 -24.749 -58.895  1.00  0.00     0.030 C 
ATOM     42  C   UNL     1     -24.182 -27.209 -59.484  1.00  0.00     0.185 C 
ATOM     43  C   UNL     1     -25.718 -24.651 -58.405  1.00  0.00     0.030 C 
ATOM     44  C   UNL     1     -26.428 -27.071 -58.701  1.00  0.00     0.185 C 
ATOM     45  O   UNL     1     -25.571 -27.103 -59.861  1.00  0.00    -0.377 OA
ENDBRANCH   5  38
TORSDOF 6
ENDMDL
MODEL 7
REMARK VINA RESULT:    -8.302      4.824     12.842
REMARK INTER + INTRA:         -11.865
REMARK INTER:                 -10.683
REMARK INTRA:                  -1.182
REMARK UNBOUND:                -0.651
REMARK SMILES COC(=O)N1CCC(n2ncc3c(N4[C@@H]5CC[C@H]4COC5)nc(-c4ccc(NC(=O)Nc5cccnc5)cc4)nc32)CC1
REMARK SMILES IDX 9 1 10 2 11 3 12 4 13 5 22 6 23 7 40 8 41 9 8 10 3 11 4 12
REMARK SMILES IDX 5 13 6 14 43 15 7 16 42 17 2 18 1 19 24 20 25 21 39 22 26 23
REMARK SMILES IDX 38 24 27 25 28 26 29 27 30 28 31 29 32 32 33 33 37 34 34 35
REMARK SMILES IDX 36 36 35 37 14 38 15 39 18 40 16 41 21 42 17 43 19 44 20 45
REMARK H PARENT 28 30 31 31
ROOT
ATOM      1  N   UNL     1     -19.815 -29.224 -60.125  1.00  0.00    -0.244 N 
ATOM      2  N   UNL     1     -19.762 -28.684 -61.364  1.00  0.00    -0.178 NA
ATOM      3  C   UNL     1     -20.770 -27.806 -61.362  1.00  0.00     0.149 A 
ATOM      4  C   UNL     1     -21.447 -27.743 -60.126  1.00  0.00     0.082 A 
ATOM      5  C   UNL     1     -22.521 -27.041 -59.554  1.00  0.00     0.144 A 
ATOM      6  N   UNL     1     -22.885 -27.408 -58.295  1.00  0.00    -0.210 NA
ATOM      7  C   UNL     1     -22.213 -28.383 -57.638  1.00  0.00     0.163 A 
ATOM      8  N   UNL     1     -21.160 -29.078 -58.109  1.00  0.00    -0.208 NA
ATOM      9  C   UNL     1     -20.828 -28.712 -59.356  1.00  0.00     0.164 A 
ENDROOT
BRANCH   1  10
ATOM     10  C   UNL     1     -18.864 -30.267 -59.767  1.00  0.00     0.113 C 
ATOM     11  C   UNL     1     -15.998 -33.203 -59.363  1.00  0.00     0.409 C 
ATOM     12  O   UNL     1     -14.843 -33.070 -59.751  1.00  0.00    -0.224 OA
ATOM     13  N   UNL     1     -17.054 -32.408 -59.777  1.00  0.00    -0.308 N 
ATOM     14  C   UNL     1     -16.842 -31.414 -60.817  1.00  0.00     0.125 C 
ATOM     15  C   UNL     1     -18.426 -32.689 -59.368  1.00  0.00     0.125 C 
ATOM     16  C   UNL     1     -17.515 -30.084 -60.480  1.00  0.00     0.049 C 
ATOM     17  C   UNL     1     -19.426 -31.684 -59.928  1.00  0.00     0.049 C 
BRANCH  11  18
ATOM     18  O   UNL     1     -16.391 -34.155 -58.471  1.00  0.00    -0.453 OA
ATOM     19  C   UNL     1     -15.614 -34.193 -57.271  1.00  0.00     0.284 C 
ENDBRANCH  11  18
ENDBRANCH   1  10
BRANCH   7  20
ATOM     20  C   UNL     1     -22.676 -28.704 -56.270  1.00  0.00     0.019 A 
ATOM     21  C   UNL     1     -22.342 -29.921 -55.651  1.00  0.00     0.014 A 
ATOM     22  C   UNL     1     -23.470 -27.813 -55.530  1.00  0.00     0.014 A 
ATOM     23  C   UNL     1     -22.781 -30.228 -54.355  1.00  0.00     0.027 A 
ATOM     24  C   UNL     1     -23.905 -28.112 -54.229  1.00  0.00     0.027 A 
ATOM     25  C   UNL     1     -23.560 -29.321 -53.629  1.00  0.00     0.042 A 
BRANCH  25  26
ATOM     26  N   UNL     1     -23.957 -29.708 -52.333  1.00  0.00    -0.308 N 
ATOM     27  C   UNL     1     -25.103 -30.403 -51.973  1.00  0.00     0.323 C 
ATOM     28  O   UNL     1     -26.003 -30.722 -52.738  1.00  0.00    -0.248 OA
ATOM     29  N   UNL     1     -25.082 -30.683 -50.613  1.00  0.00    -0.306 N 
ATOM     30  H   UNL     1     -23.410 -29.333 -51.576  1.00  0.00     0.171 HD
ATOM     31  H   UNL     1     -24.195 -30.583 -50.150  1.00  0.00     0.171 HD
BRANCH  29  32
ATOM     32  C   UNL     1     -26.124 -31.245 -49.841  1.00  0.00     0.061 A 
ATOM     33  C   UNL     1     -26.281 -32.607 -49.597  1.00  0.00     0.029 A 
ATOM     34  C   UNL     1     -27.095 -30.396 -49.307  1.00  0.00     0.137 A 
ATOM     35  C   UNL     1     -27.371 -33.058 -48.852  1.00  0.00     0.022 A 
ATOM     36  N   UNL     1     -28.165 -30.801 -48.585  1.00  0.00    -0.263 NA
ATOM     37  C   UNL     1     -28.278 -32.130 -48.378  1.00  0.00     0.111 A 
ENDBRANCH  29  32
ENDBRANCH  25  26
ENDBRANCH   7  20
BRANCH   5  38
ATOM     38  N   UNL     1     -23.247 -26.067 -60.212  1.00  0.00    -0.345 N 
ATOM     39  C   UNL     1     -24.113 -26.446 -61.349  1.00  0.00     0.110 C 
ATOM     40  C   UNL     1     -24.071 -25.097 -59.466  1.00  0.00     0.110 C 
ATOM     41  C   UNL     1     -24.514 -25.045 -61.862  1.00  0.00     0.030 C 
ATOM     42  C   UNL     1     -25.377 -27.188 -60.831  1.00  0.00     0.185 C 
ATOM     43  C   UNL     1     -24.489 -24.150 -60.609  1.00  0.00     0.030 C 
ATOM     44  C   UNL     1     -25.317 -25.818 -58.883  1.00  0.00     0.185 C 
ATOM     45  O   UNL     1     -26.148 -26.372 -59.924  1.00  0.00    -0.377 OA
ENDBRANCH   5  38
TORSDOF 6
ENDMDL
MODEL 8
REMARK VINA RESULT:    -8.202      5.488     10.400
REMARK INTER + INTRA:         -11.731
REMARK INTER:                 -10.818
REMARK INTRA:                  -0.913
REMARK UNBOUND:                -0.651
REMARK SMILES COC(=O)N1CCC(n2ncc3c(N4[C@@H]5CC[C@H]4COC5)nc(-c4ccc(NC(=O)Nc5cccnc5)cc4)nc32)CC1
REMARK SMILES IDX 9 1 10 2 11 3 12 4 13 5 22 6 23 7 40 8 41 9 8 10 3 11 4 12
REMARK SMILES IDX 5 13 6 14 43 15 7 16 42 17 2 18 1 19 24 20 25 21 39 22 26 23
REMARK SMILES IDX 38 24 27 25 28 26 29 27 30 28 31 29 32 32 33 33 37 34 34 35
REMARK SMILES IDX 36 36 35 37 14 38 15 39 18 40 16 41 21 42 17 43 19 44 20 45
REMARK H PARENT 28 30 31 31
ROOT
ATOM      1  N   UNL     1     -26.775 -28.727 -53.953  1.00  0.00    -0.244 N 
ATOM      2  N   UNL     1     -27.743 -27.784 -53.879  1.00  0.00    -0.178 NA
ATOM      3  C   UNL     1     -27.794 -27.295 -55.122  1.00  0.00     0.149 A 
ATOM      4  C   UNL     1     -26.901 -27.936 -56.006  1.00  0.00     0.082 A 
ATOM      5  C   UNL     1     -26.535 -27.863 -57.360  1.00  0.00     0.144 A 
ATOM      6  N   UNL     1     -25.506 -28.662 -57.756  1.00  0.00    -0.210 NA
ATOM      7  C   UNL     1     -24.902 -29.496 -56.876  1.00  0.00     0.163 A 
ATOM      8  N   UNL     1     -25.216 -29.641 -55.575  1.00  0.00    -0.208 NA
ATOM      9  C   UNL     1     -26.221 -28.834 -55.203  1.00  0.00     0.164 A 
ENDROOT
BRANCH   1  10
ATOM     10  C   UNL     1     -26.415 -29.466 -52.752  1.00  0.00     0.113 C 
ATOM     11  C   UNL     1     -25.940 -31.867 -49.433  1.00  0.00     0.409 C 
ATOM     12  O   UNL     1     -26.050 -33.087 -49.468  1.00  0.00    -0.224 OA
ATOM     13  N   UNL     1     -26.419 -31.015 -50.414  1.00  0.00    -0.308 N 
ATOM     14  C   UNL     1     -27.204 -31.553 -51.515  1.00  0.00     0.125 C 
ATOM     15  C   UNL     1     -26.361 -29.565 -50.261  1.00  0.00     0.125 C 
ATOM     16  C   UNL     1     -26.788 -30.953 -52.857  1.00  0.00     0.049 C 
ATOM     17  C   UNL     1     -26.933 -28.821 -51.462  1.00  0.00     0.049 C 
BRANCH  11  18
ATOM     18  O   UNL     1     -25.329 -31.191 -48.421  1.00  0.00    -0.453 OA
ATOM     19  C   UNL     1     -25.302 -31.894 -47.176  1.00  0.00     0.284 C 
ENDBRANCH  11  18
ENDBRANCH   1  10
BRANCH   7  20
ATOM     20  C   UNL     1     -23.802 -30.333 -57.401  1.00  0.00     0.019 A 
ATOM     21  C   UNL     1     -22.709 -29.767 -58.080  1.00  0.00     0.014 A 
ATOM     22  C   UNL     1     -23.799 -31.730 -57.251  1.00  0.00     0.014 A 
ATOM     23  C   UNL     1     -21.666 -30.559 -58.580  1.00  0.00     0.027 A 
ATOM     24  C   UNL     1     -22.753 -32.527 -57.743  1.00  0.00     0.027 A 
ATOM     25  C   UNL     1     -21.675 -31.947 -58.407  1.00  0.00     0.042 A 
BRANCH  25  26
ATOM     26  N   UNL     1     -20.587 -32.668 -58.940  1.00  0.00    -0.308 N 
ATOM     27  C   UNL     1     -19.297 -32.749 -58.434  1.00  0.00     0.323 C 
ATOM     28  O   UNL     1     -18.879 -32.125 -57.468  1.00  0.00    -0.248 OA
ATOM     29  N   UNL     1     -18.546 -33.641 -59.186  1.00  0.00    -0.306 N 
ATOM     30  H   UNL     1     -20.731 -33.069 -59.852  1.00  0.00     0.171 HD
ATOM     31  H   UNL     1     -19.060 -34.259 -59.792  1.00  0.00     0.171 HD
BRANCH  29  32
ATOM     32  C   UNL     1     -17.159 -33.891 -59.081  1.00  0.00     0.061 A 
ATOM     33  C   UNL     1     -16.531 -34.399 -57.947  1.00  0.00     0.029 A 
ATOM     34  C   UNL     1     -16.337 -33.577 -60.165  1.00  0.00     0.137 A 
ATOM     35  C   UNL     1     -15.146 -34.570 -57.937  1.00  0.00     0.022 A 
ATOM     36  N   UNL     1     -14.993 -33.725 -60.186  1.00  0.00    -0.263 NA
ATOM     37  C   UNL     1     -14.428 -34.218 -59.064  1.00  0.00     0.111 A 
ENDBRANCH  29  32
ENDBRANCH  25  26
ENDBRANCH   7  20
BRANCH   5  38
ATOM     38  N   UNL     1     -27.108 -26.997 -58.272  1.00  0.00    -0.345 N 
ATOM     39  C   UNL     1     -27.117 -25.545 -57.993  1.00  0.00     0.110 C 
ATOM     40  C   UNL     1     -26.767 -27.066 -59.706  1.00  0.00     0.110 C 
ATOM     41  C   UNL     1     -28.024 -25.054 -59.144  1.00  0.00     0.030 C 
ATOM     42  C   UNL     1     -25.688 -24.960 -58.175  1.00  0.00     0.185 C 
ATOM     43  C   UNL     1     -27.788 -26.064 -60.282  1.00  0.00     0.030 C 
ATOM     44  C   UNL     1     -25.320 -26.541 -59.918  1.00  0.00     0.185 C 
ATOM     45  O   UNL     1     -25.188 -25.163 -59.514  1.00  0.00    -0.377 OA
ENDBRANCH   5  38
TORSDOF 6
ENDMDL
MODEL 9
REMARK VINA RESULT:    -8.174      4.261     12.724
REMARK INTER + INTRA:         -11.693
REMARK INTER:                 -10.555
REMARK INTRA:                  -1.138
REMARK UNBOUND:                -0.651
REMARK SMILES COC(=O)N1CCC(n2ncc3c(N4[C@@H]5CC[C@H]4COC5)nc(-c4ccc(NC(=O)Nc5cccnc5)cc4)nc32)CC1
REMARK SMILES IDX 9 1 10 2 11 3 12 4 13 5 22 6 23 7 40 8 41 9 8 10 3 11 4 12
REMARK SMILES IDX 5 13 6 14 43 15 7 16 42 17 2 18 1 19 24 20 25 21 39 22 26 23
REMARK SMILES IDX 38 24 27 25 28 26 29 27 30 28 31 29 32 32 33 33 37 34 34 35
REMARK SMILES IDX 36 36 35 37 14 38 15 39 18 40 16 41 21 42 17 43 19 44 20 45
REMARK H PARENT 28 30 31 31
ROOT
ATOM      1  N   UNL     1     -19.132 -31.194 -60.956  1.00  0.00    -0.244 N 
ATOM      2  N   UNL     1     -18.690 -30.928 -62.207  1.00  0.00    -0.178 NA
ATOM      3  C   UNL     1     -19.735 -30.326 -62.783  1.00  0.00     0.149 A 
ATOM      4  C   UNL     1     -20.831 -30.163 -61.910  1.00  0.00     0.082 A 
ATOM      5  C   UNL     1     -22.127 -29.623 -61.944  1.00  0.00     0.144 A 
ATOM      6  N   UNL     1     -22.886 -29.792 -60.826  1.00  0.00    -0.210 NA
ATOM      7  C   UNL     1     -22.384 -30.426 -59.740  1.00  0.00     0.163 A 
ATOM      8  N   UNL     1     -21.146 -30.942 -59.624  1.00  0.00    -0.208 NA
ATOM      9  C   UNL     1     -20.421 -30.779 -60.741  1.00  0.00     0.164 A 
ENDROOT
BRANCH   1  10
ATOM     10  C   UNL     1     -18.253 -31.891 -60.030  1.00  0.00     0.113 C 
ATOM     11  C   UNL     1     -15.388 -33.961 -57.905  1.00  0.00     0.409 C 
ATOM     12  O   UNL     1     -14.194 -33.685 -57.946  1.00  0.00    -0.224 OA
ATOM     13  N   UNL     1     -16.316 -33.534 -58.840  1.00  0.00    -0.308 N 
ATOM     14  C   UNL     1     -15.871 -32.804 -60.017  1.00  0.00     0.125 C 
ATOM     15  C   UNL     1     -17.702 -33.991 -58.803  1.00  0.00     0.125 C 
ATOM     16  C   UNL     1     -16.771 -31.607 -60.319  1.00  0.00     0.049 C 
ATOM     17  C   UNL     1     -18.552 -33.390 -59.917  1.00  0.00     0.049 C 
BRANCH  11  18
ATOM     18  O   UNL     1     -15.955 -34.726 -56.932  1.00  0.00    -0.453 OA
ATOM     19  C   UNL     1     -16.089 -34.066 -55.670  1.00  0.00     0.284 C 
ENDBRANCH  11  18
ENDBRANCH   1  10
BRANCH   7  20
ATOM     20  C   UNL     1     -23.280 -30.550 -58.570  1.00  0.00     0.019 A 
ATOM     21  C   UNL     1     -23.968 -29.440 -58.052  1.00  0.00     0.014 A 
ATOM     22  C   UNL     1     -23.480 -31.780 -57.920  1.00  0.00     0.014 A 
ATOM     23  C   UNL     1     -24.816 -29.556 -56.942  1.00  0.00     0.027 A 
ATOM     24  C   UNL     1     -24.334 -31.902 -56.812  1.00  0.00     0.027 A 
ATOM     25  C   UNL     1     -25.014 -30.792 -56.317  1.00  0.00     0.042 A 
BRANCH  25  26
ATOM     26  N   UNL     1     -25.883 -30.820 -55.208  1.00  0.00    -0.308 N 
ATOM     27  C   UNL     1     -25.565 -30.580 -53.878  1.00  0.00     0.323 C 
ATOM     28  O   UNL     1     -24.437 -30.382 -53.449  1.00  0.00    -0.248 OA
ATOM     29  N   UNL     1     -26.717 -30.600 -53.103  1.00  0.00    -0.306 N 
ATOM     30  H   UNL     1     -26.810 -31.171 -55.386  1.00  0.00     0.171 HD
ATOM     31  H   UNL     1     -27.590 -30.534 -53.598  1.00  0.00     0.171 HD
BRANCH  29  32
ATOM     32  C   UNL     1     -26.798 -30.542 -51.693  1.00  0.00     0.061 A 
ATOM     33  C   UNL     1     -26.872 -31.655 -50.859  1.00  0.00     0.029 A 
ATOM     34  C   UNL     1     -26.846 -29.291 -51.076  1.00  0.00     0.137 A 
ATOM     35  C   UNL     1     -26.988 -31.482 -49.479  1.00  0.00     0.022 A 
ATOM     36  N   UNL     1     -26.965 -29.089 -49.743  1.00  0.00    -0.263 NA
ATOM     37  C   UNL     1     -27.036 -30.197 -48.975  1.00  0.00     0.111 A 
ENDBRANCH  29  32
ENDBRANCH  25  26
ENDBRANCH   7  20
BRANCH   5  38
ATOM     38  N   UNL     1     -22.679 -29.003 -63.049  1.00  0.00    -0.345 N 
ATOM     39  C   UNL     1     -23.957 -28.275 -62.916  1.00  0.00     0.110 C 
ATOM     40  C   UNL     1     -21.870 -28.116 -63.907  1.00  0.00     0.110 C 
ATOM     41  C   UNL     1     -24.252 -27.970 -64.402  1.00  0.00     0.030 C 
ATOM     42  C   UNL     1     -23.732 -26.941 -62.150  1.00  0.00     0.185 C 
ATOM     43  C   UNL     1     -22.863 -27.861 -65.058  1.00  0.00     0.030 C 
ATOM     44  C   UNL     1     -21.575 -26.793 -63.148  1.00  0.00     0.185 C 
ATOM     45  O   UNL     1     -22.789 -26.083 -62.825  1.00  0.00    -0.377 OA
ENDBRANCH   5  38
TORSDOF 6
ENDMDL
