MODEL 1
REMARK VINA RESULT:   -10.602      0.000      0.000
REMARK INTER + INTRA:         -16.763
REMARK INTER:                 -15.251
REMARK INTRA:                  -1.512
REMARK UNBOUND:                -1.512
REMARK SMILES Nc1noc2ccc(-n3nc(C(F)(F)F)cc3C(=O)Nc3ccc(-c4ccccc4CN4CCCC4)cc3F)cc12
REMARK SMILES IDX 18 1 19 2 20 3 17 5 9 6 10 7 11 8 16 9 8 10 2 11 3 12 41 13
REMARK SMILES IDX 4 14 40 15 5 16 6 17 7 18 1 19 12 22 13 23 14 24 15 25 21 26
REMARK SMILES IDX 22 27 38 28 23 29 37 30 24 31 39 32 25 33 26 34 30 35 27 36
REMARK SMILES IDX 29 37 28 38 31 39 32 40 33 41 36 42 34 43 35 44
REMARK H PARENT 20 4 1 20 1 21
ROOT
ATOM      1  C   UNL     1     128.311 -16.169 162.803  1.00  0.00     0.274 C 
ATOM      2  O   UNL     1     127.464 -16.958 163.201  1.00  0.00    -0.267 OA
ATOM      3  N   UNL     1     129.577 -16.016 163.332  1.00  0.00    -0.318 N 
ATOM      4  H   UNL     1     130.163 -15.275 162.957  1.00  0.00     0.170 HD
ENDROOT
BRANCH   1   5
ATOM      5  C   UNL     1     128.040 -15.272 161.707  1.00  0.00     0.133 A 
ATOM      6  N   UNL     1     127.234 -14.146 161.714  1.00  0.00    -0.227 N 
ATOM      7  N   UNL     1     127.004 -13.707 160.447  1.00  0.00    -0.163 NA
ATOM      8  C   UNL     1     127.889 -14.361 159.674  1.00  0.00     0.167 A 
ATOM      9  C   UNL     1     128.561 -15.349 160.429  1.00  0.00     0.069 A 
BRANCH   6  10
ATOM     10  C   UNL     1     126.668 -13.429 162.814  1.00  0.00     0.066 A 
ATOM     11  C   UNL     1     124.189 -13.426 165.732  1.00  0.00     0.174 A 
ATOM     12  N   UNL     1     124.102 -12.346 166.511  1.00  0.00    -0.061 NA
ATOM     13  C   UNL     1     125.148 -13.251 164.698  1.00  0.00     0.068 A 
ATOM     14  O   UNL     1     125.020 -11.440 166.004  1.00  0.00    -0.354 OA
ATOM     15  C   UNL     1     125.666 -14.003 163.624  1.00  0.00     0.044 A 
ATOM     16  C   UNL     1     125.650 -11.984 164.929  1.00  0.00     0.169 A 
ATOM     17  C   UNL     1     126.651 -11.386 164.173  1.00  0.00     0.053 A 
ATOM     18  C   UNL     1     127.160 -12.143 163.109  1.00  0.00     0.032 A 
BRANCH  11  19
ATOM     19  N   UNL     1     123.466 -14.544 165.907  1.00  0.00    -0.380 N 
ATOM     20  H   UNL     1     123.848 -15.301 166.459  1.00  0.00     0.158 HD
ATOM     21  H   UNL     1     122.547 -14.697 165.509  1.00  0.00     0.158 HD
ENDBRANCH  11  19
ENDBRANCH   6  10
BRANCH   8  22
ATOM     22  C   UNL     1     128.067 -14.085 158.203  1.00  0.00     0.435 C 
ATOM     23  F   UNL     1     129.352 -14.306 157.806  1.00  0.00    -0.164 F 
ATOM     24  F   UNL     1     127.285 -14.898 157.443  1.00  0.00    -0.164 F 
ATOM     25  F   UNL     1     127.767 -12.808 157.853  1.00  0.00    -0.164 F 
ENDBRANCH   8  22
ENDBRANCH   1   5
BRANCH   3  26
ATOM     26  C   UNL     1     130.196 -16.783 164.341  1.00  0.00     0.077 A 
ATOM     27  C   UNL     1     130.398 -16.351 165.651  1.00  0.00     0.030 A 
ATOM     28  C   UNL     1     130.607 -18.074 163.989  1.00  0.00     0.147 A 
ATOM     29  C   UNL     1     130.991 -17.211 166.587  1.00  0.00     0.011 A 
ATOM     30  C   UNL     1     131.194 -18.932 164.912  1.00  0.00     0.050 A 
ATOM     31  C   UNL     1     131.384 -18.512 166.234  1.00  0.00    -0.015 A 
ATOM     32  F   UNL     1     130.417 -18.501 162.729  1.00  0.00    -0.205 F 
BRANCH  31  33
ATOM     33  C   UNL     1     131.973 -19.415 167.230  1.00  0.00    -0.014 A 
ATOM     34  C   UNL     1     131.116 -20.147 168.072  1.00  0.00     0.009 A 
ATOM     35  C   UNL     1     133.371 -19.580 167.369  1.00  0.00    -0.026 A 
ATOM     36  C   UNL     1     131.622 -21.020 169.036  1.00  0.00     0.001 A 
ATOM     37  C   UNL     1     133.864 -20.460 168.352  1.00  0.00     0.006 A 
ATOM     38  C   UNL     1     132.996 -21.176 169.177  1.00  0.00     0.000 A 
BRANCH  35  39
ATOM     39  C   UNL     1     134.366 -18.827 166.501  1.00  0.00     0.120 C 
BRANCH  39  40
ATOM     40  N   UNL     1     134.756 -17.529 167.058  1.00  0.00    -0.299 NA
ATOM     41  C   UNL     1     134.418 -16.396 166.196  1.00  0.00     0.085 C 
ATOM     42  C   UNL     1     134.081 -17.255 168.328  1.00  0.00     0.085 C 
ATOM     43  C   UNL     1     134.520 -15.201 167.135  1.00  0.00     0.017 C 
ATOM     44  C   UNL     1     134.315 -15.768 168.536  1.00  0.00     0.017 C 
ENDBRANCH  39  40
ENDBRANCH  35  39
ENDBRANCH  31  33
ENDBRANCH   3  26
TORSDOF 8
ENDMDL
MODEL 2
REMARK VINA RESULT:   -10.434      2.044      3.138
REMARK INTER + INTRA:         -16.521
REMARK INTER:                 -14.646
REMARK INTRA:                  -1.876
REMARK UNBOUND:                -1.512
REMARK SMILES Nc1noc2ccc(-n3nc(C(F)(F)F)cc3C(=O)Nc3ccc(-c4ccccc4CN4CCCC4)cc3F)cc12
REMARK SMILES IDX 18 1 19 2 20 3 17 5 9 6 10 7 11 8 16 9 8 10 2 11 3 12 41 13
REMARK SMILES IDX 4 14 40 15 5 16 6 17 7 18 1 19 12 22 13 23 14 24 15 25 21 26
REMARK SMILES IDX 22 27 38 28 23 29 37 30 24 31 39 32 25 33 26 34 30 35 27 36
REMARK SMILES IDX 29 37 28 38 31 39 32 40 33 41 36 42 34 43 35 44
REMARK H PARENT 20 4 1 20 1 21
ROOT
ATOM      1  C   UNL     1     130.061 -14.316 162.192  1.00  0.00     0.274 C 
ATOM      2  O   UNL     1     130.524 -13.293 162.681  1.00  0.00    -0.267 OA
ATOM      3  N   UNL     1     130.328 -15.601 162.617  1.00  0.00    -0.318 N 
ATOM      4  H   UNL     1     129.935 -16.372 162.082  1.00  0.00     0.170 HD
ENDROOT
BRANCH   1   5
ATOM      5  C   UNL     1     129.168 -14.265 161.061  1.00  0.00     0.133 A 
ATOM      6  N   UNL     1     127.790 -14.413 161.063  1.00  0.00    -0.227 N 
ATOM      7  N   UNL     1     127.319 -14.575 159.797  1.00  0.00    -0.163 NA
ATOM      8  C   UNL     1     128.339 -14.236 158.989  1.00  0.00     0.167 A 
ATOM      9  C   UNL     1     129.515 -14.031 159.744  1.00  0.00     0.069 A 
BRANCH   6  10
ATOM     10  C   UNL     1     126.867 -14.400 162.155  1.00  0.00     0.066 A 
ATOM     11  C   UNL     1     125.390 -12.466 165.110  1.00  0.00     0.174 A 
ATOM     12  N   UNL     1     124.436 -13.036 165.850  1.00  0.00    -0.061 NA
ATOM     13  C   UNL     1     125.828 -13.325 164.067  1.00  0.00     0.068 A 
ATOM     14  O   UNL     1     124.222 -14.286 165.291  1.00  0.00    -0.354 OA
ATOM     15  C   UNL     1     126.759 -13.283 163.008  1.00  0.00     0.044 A 
ATOM     16  C   UNL     1     125.044 -14.454 164.222  1.00  0.00     0.169 A 
ATOM     17  C   UNL     1     125.100 -15.568 163.394  1.00  0.00     0.053 A 
ATOM     18  C   UNL     1     126.028 -15.515 162.345  1.00  0.00     0.032 A 
BRANCH  11  19
ATOM     19  N   UNL     1     125.872 -11.231 165.322  1.00  0.00    -0.380 N 
ATOM     20  H   UNL     1     126.522 -10.830 164.656  1.00  0.00     0.158 HD
ATOM     21  H   UNL     1     125.640 -10.657 166.123  1.00  0.00     0.158 HD
ENDBRANCH  11  19
ENDBRANCH   6  10
BRANCH   8  22
ATOM     22  C   UNL     1     128.214 -14.153 157.489  1.00  0.00     0.435 C 
ATOM     23  F   UNL     1     129.300 -14.695 156.868  1.00  0.00    -0.164 F 
ATOM     24  F   UNL     1     127.131 -14.839 157.037  1.00  0.00    -0.164 F 
ATOM     25  F   UNL     1     128.098 -12.881 157.026  1.00  0.00    -0.164 F 
ENDBRANCH   8  22
ENDBRANCH   1   5
BRANCH   3  26
ATOM     26  C   UNL     1     131.080 -16.007 163.740  1.00  0.00     0.077 A 
ATOM     27  C   UNL     1     130.532 -16.408 164.958  1.00  0.00     0.030 A 
ATOM     28  C   UNL     1     132.473 -16.026 163.592  1.00  0.00     0.147 A 
ATOM     29  C   UNL     1     131.372 -16.830 165.998  1.00  0.00     0.011 A 
ATOM     30  C   UNL     1     133.312 -16.445 164.619  1.00  0.00     0.050 A 
ATOM     31  C   UNL     1     132.767 -16.865 165.839  1.00  0.00    -0.015 A 
ATOM     32  F   UNL     1     133.013 -15.642 162.423  1.00  0.00    -0.205 F 
BRANCH  31  33
ATOM     33  C   UNL     1     133.635 -17.339 166.923  1.00  0.00    -0.014 A 
ATOM     34  C   UNL     1     134.002 -16.439 167.941  1.00  0.00     0.009 A 
ATOM     35  C   UNL     1     134.111 -18.669 166.985  1.00  0.00    -0.026 A 
ATOM     36  C   UNL     1     134.824 -16.837 168.996  1.00  0.00     0.001 A 
ATOM     37  C   UNL     1     134.944 -19.052 168.054  1.00  0.00     0.006 A 
ATOM     38  C   UNL     1     135.297 -18.143 169.052  1.00  0.00     0.000 A 
BRANCH  35  39
ATOM     39  C   UNL     1     133.762 -19.704 165.928  1.00  0.00     0.120 C 
BRANCH  39  40
ATOM     40  N   UNL     1     134.692 -19.711 164.795  1.00  0.00    -0.299 NA
ATOM     41  C   UNL     1     135.794 -20.662 164.946  1.00  0.00     0.085 C 
ATOM     42  C   UNL     1     134.029 -20.093 163.547  1.00  0.00     0.085 C 
ATOM     43  C   UNL     1     136.342 -20.788 163.531  1.00  0.00     0.017 C 
ATOM     44  C   UNL     1     135.188 -20.398 162.613  1.00  0.00     0.017 C 
ENDBRANCH  39  40
ENDBRANCH  35  39
ENDBRANCH  31  33
ENDBRANCH   3  26
TORSDOF 8
ENDMDL
MODEL 3
REMARK VINA RESULT:   -10.417      1.846      3.186
REMARK INTER + INTRA:         -16.496
REMARK INTER:                 -14.498
REMARK INTRA:                  -1.999
REMARK UNBOUND:                -1.512
REMARK SMILES Nc1noc2ccc(-n3nc(C(F)(F)F)cc3C(=O)Nc3ccc(-c4ccccc4CN4CCCC4)cc3F)cc12
REMARK SMILES IDX 18 1 19 2 20 3 17 5 9 6 10 7 11 8 16 9 8 10 2 11 3 12 41 13
REMARK SMILES IDX 4 14 40 15 5 16 6 17 7 18 1 19 12 22 13 23 14 24 15 25 21 26
REMARK SMILES IDX 22 27 38 28 23 29 37 30 24 31 39 32 25 33 26 34 30 35 27 36
REMARK SMILES IDX 29 37 28 38 31 39 32 40 33 41 36 42 34 43 35 44
REMARK H PARENT 20 4 1 20 1 21
ROOT
ATOM      1  C   UNL     1     130.110 -14.415 162.223  1.00  0.00     0.274 C 
ATOM      2  O   UNL     1     130.660 -13.433 162.704  1.00  0.00    -0.267 OA
ATOM      3  N   UNL     1     130.268 -15.716 162.657  1.00  0.00    -0.318 N 
ATOM      4  H   UNL     1     129.810 -16.453 162.128  1.00  0.00     0.170 HD
ENDROOT
BRANCH   1   5
ATOM      5  C   UNL     1     129.221 -14.296 161.094  1.00  0.00     0.133 A 
ATOM      6  N   UNL     1     127.840 -14.404 161.088  1.00  0.00    -0.227 N 
ATOM      7  N   UNL     1     127.368 -14.504 159.817  1.00  0.00    -0.163 NA
ATOM      8  C   UNL     1     128.398 -14.164 159.023  1.00  0.00     0.167 A 
ATOM      9  C   UNL     1     129.578 -14.022 159.787  1.00  0.00     0.069 A 
BRANCH   6  10
ATOM     10  C   UNL     1     126.916 -14.407 162.180  1.00  0.00     0.066 A 
ATOM     11  C   UNL     1     125.375 -12.483 165.108  1.00  0.00     0.174 A 
ATOM     12  N   UNL     1     124.438 -13.073 165.854  1.00  0.00    -0.061 NA
ATOM     13  C   UNL     1     125.840 -13.341 164.076  1.00  0.00     0.068 A 
ATOM     14  O   UNL     1     124.263 -14.336 165.310  1.00  0.00    -0.354 OA
ATOM     15  C   UNL     1     126.771 -13.283 163.018  1.00  0.00     0.044 A 
ATOM     16  C   UNL     1     125.092 -14.491 164.245  1.00  0.00     0.169 A 
ATOM     17  C   UNL     1     125.183 -15.614 163.431  1.00  0.00     0.053 A 
ATOM     18  C   UNL     1     126.111 -15.545 162.382  1.00  0.00     0.032 A 
BRANCH  11  19
ATOM     19  N   UNL     1     125.817 -11.230 165.304  1.00  0.00    -0.380 N 
ATOM     20  H   UNL     1     126.668 -10.927 164.847  1.00  0.00     0.158 HD
ATOM     21  H   UNL     1     125.361 -10.550 165.900  1.00  0.00     0.158 HD
ENDBRANCH  11  19
ENDBRANCH   6  10
BRANCH   8  22
ATOM     22  C   UNL     1     128.280 -14.021 157.527  1.00  0.00     0.435 C 
ATOM     23  F   UNL     1     129.406 -14.455 156.894  1.00  0.00    -0.164 F 
ATOM     24  F   UNL     1     127.252 -14.761 157.033  1.00  0.00    -0.164 F 
ATOM     25  F   UNL     1     128.076 -12.741 157.122  1.00  0.00    -0.164 F 
ENDBRANCH   8  22
ENDBRANCH   1   5
BRANCH   3  26
ATOM     26  C   UNL     1     130.986 -16.177 163.780  1.00  0.00     0.077 A 
ATOM     27  C   UNL     1     130.436 -16.372 165.046  1.00  0.00     0.030 A 
ATOM     28  C   UNL     1     132.340 -16.478 163.583  1.00  0.00     0.147 A 
ATOM     29  C   UNL     1     131.233 -16.872 166.086  1.00  0.00     0.011 A 
ATOM     30  C   UNL     1     133.135 -16.975 164.609  1.00  0.00     0.050 A 
ATOM     31  C   UNL     1     132.585 -17.190 165.878  1.00  0.00    -0.015 A 
ATOM     32  F   UNL     1     132.881 -16.293 162.368  1.00  0.00    -0.205 F 
BRANCH  31  33
ATOM     33  C   UNL     1     133.401 -17.744 166.965  1.00  0.00    -0.014 A 
ATOM     34  C   UNL     1     134.202 -16.870 167.724  1.00  0.00     0.009 A 
ATOM     35  C   UNL     1     133.407 -19.122 167.281  1.00  0.00    -0.026 A 
ATOM     36  C   UNL     1     134.998 -17.342 168.769  1.00  0.00     0.001 A 
ATOM     37  C   UNL     1     134.220 -19.581 168.335  1.00  0.00     0.006 A 
ATOM     38  C   UNL     1     135.007 -18.698 169.074  1.00  0.00     0.000 A 
BRANCH  35  39
ATOM     39  C   UNL     1     132.572 -20.133 166.512  1.00  0.00     0.120 C 
BRANCH  39  40
ATOM     40  N   UNL     1     131.217 -20.291 167.046  1.00  0.00    -0.299 NA
ATOM     41  C   UNL     1     130.181 -20.332 166.014  1.00  0.00     0.085 C 
ATOM     42  C   UNL     1     131.065 -21.544 167.787  1.00  0.00     0.085 C 
ATOM     43  C   UNL     1     128.978 -20.909 166.749  1.00  0.00     0.017 C 
ATOM     44  C   UNL     1     129.559 -21.690 167.924  1.00  0.00     0.017 C 
ENDBRANCH  39  40
ENDBRANCH  35  39
ENDBRANCH  31  33
ENDBRANCH   3  26
TORSDOF 8
ENDMDL
MODEL 4
REMARK VINA RESULT:   -10.293      1.215      1.737
REMARK INTER + INTRA:         -16.318
REMARK INTER:                 -14.953
REMARK INTRA:                  -1.365
REMARK UNBOUND:                -1.512
REMARK SMILES Nc1noc2ccc(-n3nc(C(F)(F)F)cc3C(=O)Nc3ccc(-c4ccccc4CN4CCCC4)cc3F)cc12
REMARK SMILES IDX 18 1 19 2 20 3 17 5 9 6 10 7 11 8 16 9 8 10 2 11 3 12 41 13
REMARK SMILES IDX 4 14 40 15 5 16 6 17 7 18 1 19 12 22 13 23 14 24 15 25 21 26
REMARK SMILES IDX 22 27 38 28 23 29 37 30 24 31 39 32 25 33 26 34 30 35 27 36
REMARK SMILES IDX 29 37 28 38 31 39 32 40 33 41 36 42 34 43 35 44
REMARK H PARENT 20 4 1 20 1 21
ROOT
ATOM      1  C   UNL     1     129.978 -14.852 162.303  1.00  0.00     0.274 C 
ATOM      2  O   UNL     1     130.804 -14.098 162.801  1.00  0.00    -0.267 OA
ATOM      3  N   UNL     1     129.743 -16.155 162.694  1.00  0.00    -0.318 N 
ATOM      4  H   UNL     1     129.078 -16.702 162.154  1.00  0.00     0.170 HD
ENDROOT
BRANCH   1   5
ATOM      5  C   UNL     1     129.152 -14.432 161.199  1.00  0.00     0.133 A 
ATOM      6  N   UNL     1     127.774 -14.293 161.177  1.00  0.00    -0.227 N 
ATOM      7  N   UNL     1     127.322 -14.141 159.903  1.00  0.00    -0.163 NA
ATOM      8  C   UNL     1     128.416 -13.889 159.162  1.00  0.00     0.167 A 
ATOM      9  C   UNL     1     129.584 -14.058 159.940  1.00  0.00     0.069 A 
BRANCH   6  10
ATOM     10  C   UNL     1     126.836 -14.273 162.257  1.00  0.00     0.066 A 
ATOM     11  C   UNL     1     125.346 -12.333 165.202  1.00  0.00     0.174 A 
ATOM     12  N   UNL     1     124.375 -12.893 165.925  1.00  0.00    -0.061 NA
ATOM     13  C   UNL     1     125.786 -13.193 164.160  1.00  0.00     0.068 A 
ATOM     14  O   UNL     1     124.150 -14.137 165.357  1.00  0.00    -0.354 OA
ATOM     15  C   UNL     1     126.732 -13.158 163.114  1.00  0.00     0.044 A 
ATOM     16  C   UNL     1     124.985 -14.311 164.299  1.00  0.00     0.169 A 
ATOM     17  C   UNL     1     125.036 -15.422 163.466  1.00  0.00     0.053 A 
ATOM     18  C   UNL     1     125.979 -15.377 162.429  1.00  0.00     0.032 A 
BRANCH  11  19
ATOM     19  N   UNL     1     125.842 -11.105 165.426  1.00  0.00    -0.380 N 
ATOM     20  H   UNL     1     126.669 -11.001 166.000  1.00  0.00     0.158 HD
ATOM     21  H   UNL     1     125.435 -10.251 165.065  1.00  0.00     0.158 HD
ENDBRANCH  11  19
ENDBRANCH   6  10
BRANCH   8  22
ATOM     22  C   UNL     1     128.361 -13.535 157.698  1.00  0.00     0.435 C 
ATOM     23  F   UNL     1     127.411 -14.261 157.044  1.00  0.00    -0.164 F 
ATOM     24  F   UNL     1     128.041 -12.227 157.511  1.00  0.00    -0.164 F 
ATOM     25  F   UNL     1     129.532 -13.753 157.046  1.00  0.00    -0.164 F 
ENDBRANCH   8  22
ENDBRANCH   1   5
BRANCH   3  26
ATOM     26  C   UNL     1     130.303 -16.849 163.787  1.00  0.00     0.077 A 
ATOM     27  C   UNL     1     130.580 -16.280 165.029  1.00  0.00     0.030 A 
ATOM     28  C   UNL     1     130.571 -18.211 163.598  1.00  0.00     0.147 A 
ATOM     29  C   UNL     1     131.103 -17.072 166.061  1.00  0.00     0.011 A 
ATOM     30  C   UNL     1     131.088 -19.003 164.618  1.00  0.00     0.050 A 
ATOM     31  C   UNL     1     131.351 -18.442 165.873  1.00  0.00    -0.015 A 
ATOM     32  F   UNL     1     130.309 -18.770 162.405  1.00  0.00    -0.205 F 
BRANCH  31  33
ATOM     33  C   UNL     1     131.868 -19.269 166.970  1.00  0.00    -0.014 A 
ATOM     34  C   UNL     1     130.958 -20.017 167.741  1.00  0.00     0.009 A 
ATOM     35  C   UNL     1     133.246 -19.346 167.276  1.00  0.00    -0.026 A 
ATOM     36  C   UNL     1     131.394 -20.820 168.796  1.00  0.00     0.001 A 
ATOM     37  C   UNL     1     133.667 -20.158 168.347  1.00  0.00     0.006 A 
ATOM     38  C   UNL     1     132.749 -20.890 169.099  1.00  0.00     0.000 A 
BRANCH  35  39
ATOM     39  C   UNL     1     134.294 -18.572 166.493  1.00  0.00     0.120 C 
BRANCH  39  40
ATOM     40  N   UNL     1     134.638 -17.284 167.102  1.00  0.00    -0.299 NA
ATOM     41  C   UNL     1     134.412 -16.139 166.220  1.00  0.00     0.085 C 
ATOM     42  C   UNL     1     133.831 -17.011 168.293  1.00  0.00     0.085 C 
ATOM     43  C   UNL     1     134.427 -14.954 167.176  1.00  0.00     0.017 C 
ATOM     44  C   UNL     1     134.062 -15.530 168.540  1.00  0.00     0.017 C 
ENDBRANCH  39  40
ENDBRANCH  35  39
ENDBRANCH  31  33
ENDBRANCH   3  26
TORSDOF 8
ENDMDL
MODEL 5
REMARK VINA RESULT:    -9.738      1.458      2.678
REMARK INTER + INTRA:         -15.520
REMARK INTER:                 -13.641
REMARK INTRA:                  -1.879
REMARK UNBOUND:                -1.512
REMARK SMILES Nc1noc2ccc(-n3nc(C(F)(F)F)cc3C(=O)Nc3ccc(-c4ccccc4CN4CCCC4)cc3F)cc12
REMARK SMILES IDX 18 1 19 2 20 3 17 5 9 6 10 7 11 8 16 9 8 10 2 11 3 12 41 13
REMARK SMILES IDX 4 14 40 15 5 16 6 17 7 18 1 19 12 22 13 23 14 24 15 25 21 26
REMARK SMILES IDX 22 27 38 28 23 29 37 30 24 31 39 32 25 33 26 34 30 35 27 36
REMARK SMILES IDX 29 37 28 38 31 39 32 40 33 41 36 42 34 43 35 44
REMARK H PARENT 20 4 1 20 1 21
ROOT
ATOM      1  C   UNL     1     128.840 -15.828 162.681  1.00  0.00     0.274 C 
ATOM      2  O   UNL     1     128.239 -16.830 163.045  1.00  0.00    -0.267 OA
ATOM      3  N   UNL     1     129.989 -15.326 163.260  1.00  0.00    -0.318 N 
ATOM      4  H   UNL     1     130.354 -14.444 162.909  1.00  0.00     0.170 HD
ENDROOT
BRANCH   1   5
ATOM      5  C   UNL     1     128.367 -15.032 161.576  1.00  0.00     0.133 A 
ATOM      6  N   UNL     1     127.391 -14.049 161.598  1.00  0.00    -0.227 N 
ATOM      7  N   UNL     1     127.021 -13.706 160.334  1.00  0.00    -0.163 NA
ATOM      8  C   UNL     1     127.954 -14.242 159.529  1.00  0.00     0.167 A 
ATOM      9  C   UNL     1     128.819 -15.078 160.271  1.00  0.00     0.069 A 
BRANCH   6  10
ATOM     10  C   UNL     1     126.781 -13.385 162.708  1.00  0.00     0.066 A 
ATOM     11  C   UNL     1     124.249 -13.554 165.575  1.00  0.00     0.174 A 
ATOM     12  N   UNL     1     124.112 -12.502 166.385  1.00  0.00    -0.061 NA
ATOM     13  C   UNL     1     125.221 -13.315 164.566  1.00  0.00     0.068 A 
ATOM     14  O   UNL     1     125.008 -11.551 165.923  1.00  0.00    -0.354 OA
ATOM     15  C   UNL     1     125.784 -14.017 163.479  1.00  0.00     0.044 A 
ATOM     16  C   UNL     1     125.676 -12.041 164.846  1.00  0.00     0.169 A 
ATOM     17  C   UNL     1     126.671 -11.387 164.129  1.00  0.00     0.053 A 
ATOM     18  C   UNL     1     127.224 -12.094 163.052  1.00  0.00     0.032 A 
BRANCH  11  19
ATOM     19  N   UNL     1     123.560 -14.699 165.701  1.00  0.00    -0.380 N 
ATOM     20  H   UNL     1     123.642 -15.237 166.555  1.00  0.00     0.158 HD
ATOM     21  H   UNL     1     122.956 -15.084 164.985  1.00  0.00     0.158 HD
ENDBRANCH  11  19
ENDBRANCH   6  10
BRANCH   8  22
ATOM     22  C   UNL     1     128.001 -14.004 158.041  1.00  0.00     0.435 C 
ATOM     23  F   UNL     1     129.227 -14.303 157.526  1.00  0.00    -0.164 F 
ATOM     24  F   UNL     1     127.106 -14.786 157.380  1.00  0.00    -0.164 F 
ATOM     25  F   UNL     1     127.737 -12.718 157.692  1.00  0.00    -0.164 F 
ENDBRANCH   8  22
ENDBRANCH   1   5
BRANCH   3  26
ATOM     26  C   UNL     1     130.763 -15.897 164.292  1.00  0.00     0.077 A 
ATOM     27  C   UNL     1     130.284 -16.200 165.566  1.00  0.00     0.030 A 
ATOM     28  C   UNL     1     132.097 -16.196 163.989  1.00  0.00     0.147 A 
ATOM     29  C   UNL     1     131.131 -16.803 166.507  1.00  0.00     0.011 A 
ATOM     30  C   UNL     1     132.942 -16.795 164.916  1.00  0.00     0.050 A 
ATOM     31  C   UNL     1     132.463 -17.118 166.191  1.00  0.00    -0.015 A 
ATOM     32  F   UNL     1     132.570 -15.909 162.764  1.00  0.00    -0.205 F 
BRANCH  31  33
ATOM     33  C   UNL     1     133.330 -17.778 167.173  1.00  0.00    -0.014 A 
ATOM     34  C   UNL     1     134.231 -16.994 167.918  1.00  0.00     0.009 A 
ATOM     35  C   UNL     1     133.290 -19.173 167.402  1.00  0.00    -0.026 A 
ATOM     36  C   UNL     1     135.079 -17.570 168.865  1.00  0.00     0.001 A 
ATOM     37  C   UNL     1     134.157 -19.738 168.358  1.00  0.00     0.006 A 
ATOM     38  C   UNL     1     135.043 -18.942 169.084  1.00  0.00     0.000 A 
BRANCH  35  39
ATOM     39  C   UNL     1     132.348 -20.092 166.642  1.00  0.00     0.120 C 
BRANCH  39  40
ATOM     40  N   UNL     1     132.830 -20.436 165.301  1.00  0.00    -0.299 NA
ATOM     41  C   UNL     1     133.133 -21.857 165.134  1.00  0.00     0.085 C 
ATOM     42  C   UNL     1     131.835 -20.136 164.270  1.00  0.00     0.085 C 
ATOM     43  C   UNL     1     133.193 -22.026 163.622  1.00  0.00     0.017 C 
ATOM     44  C   UNL     1     132.354 -20.885 163.054  1.00  0.00     0.017 C 
ENDBRANCH  39  40
ENDBRANCH  35  39
ENDBRANCH  31  33
ENDBRANCH   3  26
TORSDOF 8
ENDMDL
MODEL 6
REMARK VINA RESULT:    -9.681      2.965      5.313
REMARK INTER + INTRA:         -15.437
REMARK INTER:                 -14.314
REMARK INTRA:                  -1.124
REMARK UNBOUND:                -1.512
REMARK SMILES Nc1noc2ccc(-n3nc(C(F)(F)F)cc3C(=O)Nc3ccc(-c4ccccc4CN4CCCC4)cc3F)cc12
REMARK SMILES IDX 18 1 19 2 20 3 17 5 9 6 10 7 11 8 16 9 8 10 2 11 3 12 41 13
REMARK SMILES IDX 4 14 40 15 5 16 6 17 7 18 1 19 12 22 13 23 14 24 15 25 21 26
REMARK SMILES IDX 22 27 38 28 23 29 37 30 24 31 39 32 25 33 26 34 30 35 27 36
REMARK SMILES IDX 29 37 28 38 31 39 32 40 33 41 36 42 34 43 35 44
REMARK H PARENT 20 4 1 20 1 21
ROOT
ATOM      1  C   UNL     1     129.675 -14.769 162.696  1.00  0.00     0.274 C 
ATOM      2  O   UNL     1     130.666 -14.189 162.271  1.00  0.00    -0.267 OA
ATOM      3  N   UNL     1     129.671 -16.006 163.308  1.00  0.00    -0.318 N 
ATOM      4  H   UNL     1     128.772 -16.413 163.553  1.00  0.00     0.170 HD
ENDROOT
BRANCH   1   5
ATOM      5  C   UNL     1     128.360 -14.192 162.570  1.00  0.00     0.133 A 
ATOM      6  N   UNL     1     127.612 -14.034 161.414  1.00  0.00    -0.227 N 
ATOM      7  N   UNL     1     126.547 -13.217 161.635  1.00  0.00    -0.163 NA
ATOM      8  C   UNL     1     126.453 -13.102 162.971  1.00  0.00     0.167 A 
ATOM      9  C   UNL     1     127.570 -13.704 163.594  1.00  0.00     0.069 A 
BRANCH   6  10
ATOM     10  C   UNL     1     127.802 -14.599 160.114  1.00  0.00     0.066 A 
ATOM     11  C   UNL     1     128.214 -13.988 156.358  1.00  0.00     0.174 A 
ATOM     12  N   UNL     1     128.386 -15.031 155.544  1.00  0.00    -0.061 NA
ATOM     13  C   UNL     1     128.069 -14.397 157.710  1.00  0.00     0.068 A 
ATOM     14  O   UNL     1     128.370 -16.152 156.358  1.00  0.00    -0.354 OA
ATOM     15  C   UNL     1     127.877 -13.784 158.967  1.00  0.00     0.044 A 
ATOM     16  C   UNL     1     128.191 -15.773 157.650  1.00  0.00     0.169 A 
ATOM     17  C   UNL     1     128.145 -16.614 158.756  1.00  0.00     0.053 A 
ATOM     18  C   UNL     1     127.955 -15.994 159.999  1.00  0.00     0.032 A 
BRANCH  11  19
ATOM     19  N   UNL     1     128.187 -12.709 155.950  1.00  0.00    -0.380 N 
ATOM     20  H   UNL     1     128.462 -11.977 156.593  1.00  0.00     0.158 HD
ATOM     21  H   UNL     1     127.894 -12.409 155.028  1.00  0.00     0.158 HD
ENDBRANCH  11  19
ENDBRANCH   6  10
BRANCH   8  22
ATOM     22  C   UNL     1     125.328 -12.378 163.663  1.00  0.00     0.435 C 
ATOM     23  F   UNL     1     124.370 -13.244 164.098  1.00  0.00    -0.164 F 
ATOM     24  F   UNL     1     125.765 -11.706 164.761  1.00  0.00    -0.164 F 
ATOM     25  F   UNL     1     124.700 -11.472 162.869  1.00  0.00    -0.164 F 
ENDBRANCH   8  22
ENDBRANCH   1   5
BRANCH   3  26
ATOM     26  C   UNL     1     130.778 -16.802 163.668  1.00  0.00     0.077 A 
ATOM     27  C   UNL     1     132.111 -16.420 163.517  1.00  0.00     0.030 A 
ATOM     28  C   UNL     1     130.499 -18.050 164.239  1.00  0.00     0.147 A 
ATOM     29  C   UNL     1     133.137 -17.274 163.945  1.00  0.00     0.011 A 
ATOM     30  C   UNL     1     131.512 -18.902 164.667  1.00  0.00     0.050 A 
ATOM     31  C   UNL     1     132.851 -18.517 164.534  1.00  0.00    -0.015 A 
ATOM     32  F   UNL     1     129.219 -18.430 164.389  1.00  0.00    -0.205 F 
BRANCH  31  33
ATOM     33  C   UNL     1     133.932 -19.389 165.008  1.00  0.00    -0.014 A 
ATOM     34  C   UNL     1     134.653 -20.149 164.068  1.00  0.00     0.009 A 
ATOM     35  C   UNL     1     134.280 -19.489 166.375  1.00  0.00    -0.026 A 
ATOM     36  C   UNL     1     135.690 -20.994 164.462  1.00  0.00     0.001 A 
ATOM     37  C   UNL     1     135.326 -20.352 166.757  1.00  0.00     0.006 A 
ATOM     38  C   UNL     1     136.026 -21.096 165.808  1.00  0.00     0.000 A 
BRANCH  35  39
ATOM     39  C   UNL     1     133.553 -18.705 167.455  1.00  0.00     0.120 C 
BRANCH  39  40
ATOM     40  N   UNL     1     134.126 -17.376 167.691  1.00  0.00    -0.299 NA
ATOM     41  C   UNL     1     135.178 -17.014 166.741  1.00  0.00     0.085 C 
ATOM     42  C   UNL     1     133.121 -16.319 167.567  1.00  0.00     0.085 C 
ATOM     43  C   UNL     1     135.300 -15.506 166.914  1.00  0.00     0.017 C 
ATOM     44  C   UNL     1     133.955 -15.052 167.473  1.00  0.00     0.017 C 
ENDBRANCH  39  40
ENDBRANCH  35  39
ENDBRANCH  31  33
ENDBRANCH   3  26
TORSDOF 8
ENDMDL
MODEL 7
REMARK VINA RESULT:    -9.661      1.524      2.318
REMARK INTER + INTRA:         -15.409
REMARK INTER:                 -13.779
REMARK INTRA:                  -1.630
REMARK UNBOUND:                -1.512
REMARK SMILES Nc1noc2ccc(-n3nc(C(F)(F)F)cc3C(=O)Nc3ccc(-c4ccccc4CN4CCCC4)cc3F)cc12
REMARK SMILES IDX 18 1 19 2 20 3 17 5 9 6 10 7 11 8 16 9 8 10 2 11 3 12 41 13
REMARK SMILES IDX 4 14 40 15 5 16 6 17 7 18 1 19 12 22 13 23 14 24 15 25 21 26
REMARK SMILES IDX 22 27 38 28 23 29 37 30 24 31 39 32 25 33 26 34 30 35 27 36
REMARK SMILES IDX 29 37 28 38 31 39 32 40 33 41 36 42 34 43 35 44
REMARK H PARENT 20 4 1 20 1 21
ROOT
ATOM      1  C   UNL     1     129.954 -14.909 162.316  1.00  0.00     0.274 C 
ATOM      2  O   UNL     1     130.837 -14.189 162.762  1.00  0.00    -0.267 OA
ATOM      3  N   UNL     1     129.663 -16.186 162.751  1.00  0.00    -0.318 N 
ATOM      4  H   UNL     1     128.950 -16.710 162.250  1.00  0.00     0.170 HD
ENDROOT
BRANCH   1   5
ATOM      5  C   UNL     1     129.113 -14.474 161.228  1.00  0.00     0.133 A 
ATOM      6  N   UNL     1     127.737 -14.314 161.234  1.00  0.00    -0.227 N 
ATOM      7  N   UNL     1     127.263 -14.152 159.969  1.00  0.00    -0.163 NA
ATOM      8  C   UNL     1     128.345 -13.915 159.208  1.00  0.00     0.167 A 
ATOM      9  C   UNL     1     129.526 -14.103 159.962  1.00  0.00     0.069 A 
BRANCH   6  10
ATOM     10  C   UNL     1     126.822 -14.282 162.333  1.00  0.00     0.066 A 
ATOM     11  C   UNL     1     125.367 -12.299 165.266  1.00  0.00     0.174 A 
ATOM     12  N   UNL     1     124.417 -12.856 166.021  1.00  0.00    -0.061 NA
ATOM     13  C   UNL     1     125.796 -13.176 164.234  1.00  0.00     0.068 A 
ATOM     14  O   UNL     1     124.198 -14.115 165.484  1.00  0.00    -0.354 OA
ATOM     15  C   UNL     1     126.720 -13.151 163.168  1.00  0.00     0.044 A 
ATOM     16  C   UNL     1     125.013 -14.300 164.412  1.00  0.00     0.169 A 
ATOM     17  C   UNL     1     125.062 -15.429 163.602  1.00  0.00     0.053 A 
ATOM     18  C   UNL     1     125.982 -15.393 162.546  1.00  0.00     0.032 A 
BRANCH  11  19
ATOM     19  N   UNL     1     125.851 -11.061 165.454  1.00  0.00    -0.380 N 
ATOM     20  H   UNL     1     125.308 -10.263 165.148  1.00  0.00     0.158 HD
ATOM     21  H   UNL     1     126.748 -10.857 165.879  1.00  0.00     0.158 HD
ENDBRANCH  11  19
ENDBRANCH   6  10
BRANCH   8  22
ATOM     22  C   UNL     1     128.267 -13.556 157.746  1.00  0.00     0.435 C 
ATOM     23  F   UNL     1     127.369 -14.340 157.087  1.00  0.00    -0.164 F 
ATOM     24  F   UNL     1     127.859 -12.271 157.567  1.00  0.00    -0.164 F 
ATOM     25  F   UNL     1     129.451 -13.690 157.094  1.00  0.00    -0.164 F 
ENDBRANCH   8  22
ENDBRANCH   1   5
BRANCH   3  26
ATOM     26  C   UNL     1     130.224 -16.881 163.843  1.00  0.00     0.077 A 
ATOM     27  C   UNL     1     130.528 -16.306 165.077  1.00  0.00     0.030 A 
ATOM     28  C   UNL     1     130.462 -18.249 163.665  1.00  0.00     0.147 A 
ATOM     29  C   UNL     1     131.048 -17.098 166.110  1.00  0.00     0.011 A 
ATOM     30  C   UNL     1     130.977 -19.042 164.686  1.00  0.00     0.050 A 
ATOM     31  C   UNL     1     131.268 -18.474 165.932  1.00  0.00    -0.015 A 
ATOM     32  F   UNL     1     130.174 -18.815 162.481  1.00  0.00    -0.205 F 
BRANCH  31  33
ATOM     33  C   UNL     1     131.782 -19.300 167.030  1.00  0.00    -0.014 A 
ATOM     34  C   UNL     1     130.874 -20.070 167.782  1.00  0.00     0.009 A 
ATOM     35  C   UNL     1     133.156 -19.356 167.356  1.00  0.00    -0.026 A 
ATOM     36  C   UNL     1     131.308 -20.874 168.836  1.00  0.00     0.001 A 
ATOM     37  C   UNL     1     133.575 -20.168 168.428  1.00  0.00     0.006 A 
ATOM     38  C   UNL     1     132.659 -20.922 169.160  1.00  0.00     0.000 A 
BRANCH  35  39
ATOM     39  C   UNL     1     134.202 -18.557 166.596  1.00  0.00     0.120 C 
BRANCH  39  40
ATOM     40  N   UNL     1     135.441 -19.303 166.358  1.00  0.00    -0.299 NA
ATOM     41  C   UNL     1     135.466 -20.004 165.073  1.00  0.00     0.085 C 
ATOM     42  C   UNL     1     136.611 -18.425 166.334  1.00  0.00     0.085 C 
ATOM     43  C   UNL     1     136.942 -20.324 164.879  1.00  0.00     0.017 C 
ATOM     44  C   UNL     1     137.693 -19.298 165.721  1.00  0.00     0.017 C 
ENDBRANCH  39  40
ENDBRANCH  35  39
ENDBRANCH  31  33
ENDBRANCH   3  26
TORSDOF 8
ENDMDL
MODEL 8
REMARK VINA RESULT:    -9.398      1.388      2.307
REMARK INTER + INTRA:         -15.031
REMARK INTER:                 -13.477
REMARK INTRA:                  -1.553
REMARK UNBOUND:                -1.512
REMARK SMILES Nc1noc2ccc(-n3nc(C(F)(F)F)cc3C(=O)Nc3ccc(-c4ccccc4CN4CCCC4)cc3F)cc12
REMARK SMILES IDX 18 1 19 2 20 3 17 5 9 6 10 7 11 8 16 9 8 10 2 11 3 12 41 13
REMARK SMILES IDX 4 14 40 15 5 16 6 17 7 18 1 19 12 22 13 23 14 24 15 25 21 26
REMARK SMILES IDX 22 27 38 28 23 29 37 30 24 31 39 32 25 33 26 34 30 35 27 36
REMARK SMILES IDX 29 37 28 38 31 39 32 40 33 41 36 42 34 43 35 44
REMARK H PARENT 20 4 1 20 1 21
ROOT
ATOM      1  C   UNL     1     127.929 -16.478 162.403  1.00  0.00     0.274 C 
ATOM      2  O   UNL     1     126.989 -17.182 162.750  1.00  0.00    -0.267 OA
ATOM      3  N   UNL     1     129.194 -16.500 162.955  1.00  0.00    -0.318 N 
ATOM      4  H   UNL     1     129.869 -15.815 162.625  1.00  0.00     0.170 HD
ENDROOT
BRANCH   1   5
ATOM      5  C   UNL     1     127.784 -15.503 161.352  1.00  0.00     0.133 A 
ATOM      6  N   UNL     1     127.123 -14.287 161.410  1.00  0.00    -0.227 N 
ATOM      7  N   UNL     1     126.963 -13.763 160.165  1.00  0.00    -0.163 NA
ATOM      8  C   UNL     1     127.770 -14.483 159.366  1.00  0.00     0.167 A 
ATOM      9  C   UNL     1     128.306 -15.582 160.074  1.00  0.00     0.069 A 
BRANCH   6  10
ATOM     10  C   UNL     1     126.637 -13.560 162.541  1.00  0.00     0.066 A 
ATOM     11  C   UNL     1     124.249 -13.460 165.531  1.00  0.00     0.174 A 
ATOM     12  N   UNL     1     124.256 -12.393 166.335  1.00  0.00    -0.061 NA
ATOM     13  C   UNL     1     125.187 -13.324 164.473  1.00  0.00     0.068 A 
ATOM     14  O   UNL     1     125.217 -11.538 165.819  1.00  0.00    -0.354 OA
ATOM     15  C   UNL     1     125.623 -14.085 163.368  1.00  0.00     0.044 A 
ATOM     16  C   UNL     1     125.778 -12.098 164.715  1.00  0.00     0.169 A 
ATOM     17  C   UNL     1     126.795 -11.551 163.942  1.00  0.00     0.053 A 
ATOM     18  C   UNL     1     127.222 -12.315 162.847  1.00  0.00     0.032 A 
BRANCH  11  19
ATOM     19  N   UNL     1     123.458 -14.530 165.705  1.00  0.00    -0.380 N 
ATOM     20  H   UNL     1     122.475 -14.466 165.469  1.00  0.00     0.158 HD
ATOM     21  H   UNL     1     123.774 -15.419 166.075  1.00  0.00     0.158 HD
ENDBRANCH  11  19
ENDBRANCH   6  10
BRANCH   8  22
ATOM     22  C   UNL     1     127.997 -14.161 157.911  1.00  0.00     0.435 C 
ATOM     23  F   UNL     1     127.120 -14.829 157.109  1.00  0.00    -0.164 F 
ATOM     24  F   UNL     1     127.818 -12.838 157.656  1.00  0.00    -0.164 F 
ATOM     25  F   UNL     1     129.242 -14.483 157.475  1.00  0.00    -0.164 F 
ENDBRANCH   8  22
ENDBRANCH   1   5
BRANCH   3  26
ATOM     26  C   UNL     1     129.702 -17.383 163.931  1.00  0.00     0.077 A 
ATOM     27  C   UNL     1     129.831 -18.761 163.762  1.00  0.00     0.030 A 
ATOM     28  C   UNL     1     130.125 -16.813 165.138  1.00  0.00     0.147 A 
ATOM     29  C   UNL     1     130.385 -19.543 164.785  1.00  0.00     0.011 A 
ATOM     30  C   UNL     1     130.677 -17.582 166.156  1.00  0.00     0.050 A 
ATOM     31  C   UNL     1     130.825 -18.964 165.987  1.00  0.00    -0.015 A 
ATOM     32  F   UNL     1     130.006 -15.486 165.312  1.00  0.00    -0.205 F 
BRANCH  31  33
ATOM     33  C   UNL     1     131.434 -19.787 167.038  1.00  0.00    -0.014 A 
ATOM     34  C   UNL     1     130.600 -20.580 167.848  1.00  0.00     0.009 A 
ATOM     35  C   UNL     1     132.830 -19.817 167.262  1.00  0.00    -0.026 A 
ATOM     36  C   UNL     1     131.125 -21.382 168.861  1.00  0.00     0.001 A 
ATOM     37  C   UNL     1     133.343 -20.628 168.294  1.00  0.00     0.006 A 
ATOM     38  C   UNL     1     132.497 -21.405 169.085  1.00  0.00     0.000 A 
BRANCH  35  39
ATOM     39  C   UNL     1     133.802 -18.993 166.434  1.00  0.00     0.120 C 
BRANCH  39  40
ATOM     40  N   UNL     1     134.236 -19.668 165.208  1.00  0.00    -0.299 NA
ATOM     41  C   UNL     1     133.789 -21.058 165.113  1.00  0.00     0.085 C 
ATOM     42  C   UNL     1     133.706 -19.016 164.009  1.00  0.00     0.085 C 
ATOM     43  C   UNL     1     133.982 -21.387 163.639  1.00  0.00     0.017 C 
ATOM     44  C   UNL     1     133.945 -20.044 162.916  1.00  0.00     0.017 C 
ENDBRANCH  39  40
ENDBRANCH  35  39
ENDBRANCH  31  33
ENDBRANCH   3  26
TORSDOF 8
ENDMDL
MODEL 9
REMARK VINA RESULT:    -9.092      4.644      8.217
REMARK INTER + INTRA:         -14.590
REMARK INTER:                 -12.394
REMARK INTRA:                  -2.195
REMARK UNBOUND:                -1.512
REMARK SMILES Nc1noc2ccc(-n3nc(C(F)(F)F)cc3C(=O)Nc3ccc(-c4ccccc4CN4CCCC4)cc3F)cc12
REMARK SMILES IDX 18 1 19 2 20 3 17 5 9 6 10 7 11 8 16 9 8 10 2 11 3 12 41 13
REMARK SMILES IDX 4 14 40 15 5 16 6 17 7 18 1 19 12 22 13 23 14 24 15 25 21 26
REMARK SMILES IDX 22 27 38 28 23 29 37 30 24 31 39 32 25 33 26 34 30 35 27 36
REMARK SMILES IDX 29 37 28 38 31 39 32 40 33 41 36 42 34 43 35 44
REMARK H PARENT 20 4 1 20 1 21
ROOT
ATOM      1  C   UNL     1     130.862 -18.462 165.486  1.00  0.00     0.274 C 
ATOM      2  O   UNL     1     129.932 -18.894 166.155  1.00  0.00    -0.267 OA
ATOM      3  N   UNL     1     131.240 -18.926 164.243  1.00  0.00    -0.318 N 
ATOM      4  H   UNL     1     132.076 -18.530 163.820  1.00  0.00     0.170 HD
ENDROOT
BRANCH   1   5
ATOM      5  C   UNL     1     131.697 -17.391 165.972  1.00  0.00     0.133 A 
ATOM      6  N   UNL     1     131.942 -16.169 165.368  1.00  0.00    -0.227 N 
ATOM      7  N   UNL     1     132.979 -15.530 165.973  1.00  0.00    -0.163 NA
ATOM      8  C   UNL     1     133.191 -16.196 167.122  1.00  0.00     0.167 A 
ATOM      9  C   UNL     1     132.403 -17.368 167.160  1.00  0.00     0.069 A 
BRANCH   6  10
ATOM     10  C   UNL     1     131.272 -15.534 164.275  1.00  0.00     0.066 A 
ATOM     11  C   UNL     1     127.991 -14.166 162.856  1.00  0.00     0.174 A 
ATOM     12  N   UNL     1     127.988 -13.613 161.640  1.00  0.00    -0.061 NA
ATOM     13  C   UNL     1     129.285 -14.627 163.218  1.00  0.00     0.068 A 
ATOM     14  O   UNL     1     129.295 -13.693 161.186  1.00  0.00    -0.354 OA
ATOM     15  C   UNL     1     129.891 -15.258 164.325  1.00  0.00     0.044 A 
ATOM     16  C   UNL     1     130.069 -14.288 162.131  1.00  0.00     0.169 A 
ATOM     17  C   UNL     1     131.437 -14.520 162.047  1.00  0.00     0.053 A 
ATOM     18  C   UNL     1     132.028 -15.147 163.152  1.00  0.00     0.032 A 
BRANCH  11  19
ATOM     19  N   UNL     1     126.907 -14.267 163.642  1.00  0.00    -0.380 N 
ATOM     20  H   UNL     1     127.027 -14.363 164.643  1.00  0.00     0.158 HD
ATOM     21  H   UNL     1     125.953 -14.267 163.302  1.00  0.00     0.158 HD
ENDBRANCH  11  19
ENDBRANCH   6  10
BRANCH   8  22
ATOM     22  C   UNL     1     134.179 -15.749 168.168  1.00  0.00     0.435 C 
ATOM     23  F   UNL     1     134.619 -16.799 168.918  1.00  0.00    -0.164 F 
ATOM     24  F   UNL     1     135.284 -15.189 167.607  1.00  0.00    -0.164 F 
ATOM     25  F   UNL     1     133.671 -14.838 169.037  1.00  0.00    -0.164 F 
ENDBRANCH   8  22
ENDBRANCH   1   5
BRANCH   3  26
ATOM     26  C   UNL     1     130.596 -19.894 163.443  1.00  0.00     0.077 A 
ATOM     27  C   UNL     1     130.760 -21.272 163.581  1.00  0.00     0.030 A 
ATOM     28  C   UNL     1     129.716 -19.418 162.464  1.00  0.00     0.147 A 
ATOM     29  C   UNL     1     130.040 -22.148 162.756  1.00  0.00     0.011 A 
ATOM     30  C   UNL     1     128.997 -20.281 161.643  1.00  0.00     0.050 A 
ATOM     31  C   UNL     1     129.144 -21.666 161.788  1.00  0.00    -0.015 A 
ATOM     32  F   UNL     1     129.550 -18.092 162.321  1.00  0.00    -0.205 F 
BRANCH  31  33
ATOM     33  C   UNL     1     128.372 -22.592 160.953  1.00  0.00    -0.014 A 
ATOM     34  C   UNL     1     128.975 -23.132 159.801  1.00  0.00     0.009 A 
ATOM     35  C   UNL     1     127.045 -22.968 161.266  1.00  0.00    -0.026 A 
ATOM     36  C   UNL     1     128.288 -24.018 158.971  1.00  0.00     0.001 A 
ATOM     37  C   UNL     1     126.364 -23.859 160.414  1.00  0.00     0.006 A 
ATOM     38  C   UNL     1     126.981 -24.380 159.277  1.00  0.00     0.000 A 
BRANCH  35  39
ATOM     39  C   UNL     1     126.319 -22.433 162.489  1.00  0.00     0.120 C 
BRANCH  39  40
ATOM     40  N   UNL     1     125.755 -21.095 162.289  1.00  0.00    -0.299 NA
ATOM     41  C   UNL     1     124.299 -21.089 162.136  1.00  0.00     0.085 C 
ATOM     42  C   UNL     1     126.020 -20.215 163.429  1.00  0.00     0.085 C 
ATOM     43  C   UNL     1     123.930 -19.630 162.368  1.00  0.00     0.017 C 
ATOM     44  C   UNL     1     125.068 -19.052 163.202  1.00  0.00     0.017 C 
ENDBRANCH  39  40
ENDBRANCH  35  39
ENDBRANCH  31  33
ENDBRANCH   3  26
TORSDOF 8
ENDMDL
