MODEL 6
REMARK VINA RESULT:    -7.215      2.408      6.119
REMARK INTER + INTRA:          -9.553
REMARK INTER:                  -8.787
REMARK INTRA:                  -0.766
REMARK UNBOUND:                -0.651
REMARK SMILES c1cc2c(ncn3nnc([C@H]4CC[C@H](CNC5CC5)CC4)c23)[nH]1
REMARK SMILES IDX 11 1 21 2 20 3 14 4 13 5 12 6 10 7 1 8 2 9 23 10 3 11 4 12
REMARK SMILES IDX 22 13 5 14 7 15 6 16 9 17 8 18 15 20 16 21 17 23 18 24 19 25
REMARK H PARENT 23 19 16 22
ROOT
ATOM      1  C   UNL     1      -4.267  23.024 -28.340  1.00  0.00     0.042 C 
ATOM      2  C   UNL     1      -4.247  23.588 -29.769  1.00  0.00     0.010 C 
ATOM      3  C   UNL     1      -3.388  22.763 -30.729  1.00  0.00     0.005 C 
ATOM      4  C   UNL     1      -3.773  21.274 -30.752  1.00  0.00     0.003 C 
ATOM      5  C   UNL     1      -3.745  20.701 -29.325  1.00  0.00     0.005 C 
ATOM      6  C   UNL     1      -4.571  21.517 -28.327  1.00  0.00     0.010 C 
ENDROOT
BRANCH   1   7
ATOM      7  C   UNL     1      -3.030  23.394 -27.582  1.00  0.00     0.094 A 
ATOM      8  C   UNL     1      -3.489  28.147 -28.011  1.00  0.00     0.085 A 
ATOM      9  C   UNL     1      -3.835  26.818 -28.176  1.00  0.00     0.032 A 
ATOM     10  N   UNL     1      -2.309  28.213 -27.299  1.00  0.00    -0.346 N 
ATOM     11  C   UNL     1      -2.830  26.086 -27.542  1.00  0.00     0.047 A 
ATOM     12  C   UNL     1      -1.889  26.945 -27.003  1.00  0.00     0.141 A 
ATOM     13  C   UNL     1      -2.506  24.624 -27.299  1.00  0.00     0.103 A 
ATOM     14  N   UNL     1      -0.745  26.667 -26.303  1.00  0.00    -0.218 NA
ATOM     15  N   UNL     1      -1.359  24.382 -26.599  1.00  0.00    -0.201 N 
ATOM     16  C   UNL     1      -0.506  25.385 -26.118  1.00  0.00     0.228 A 
ATOM     17  N   UNL     1      -2.173  22.446 -27.047  1.00  0.00    -0.134 NA
ATOM     18  N   UNL     1      -1.155  23.065 -26.446  1.00  0.00    -0.061 NA
ATOM     19  H   UNL     1      -1.818  29.055 -27.031  1.00  0.00     0.167 HD
ENDBRANCH   1   7
BRANCH   4  20
ATOM     20  C   UNL     1      -5.124  21.062 -31.472  1.00  0.00     0.084 C 
BRANCH  20  21
ATOM     21  N   UNL     1      -5.180  21.801 -32.735  1.00  0.00    -0.314 NA
ATOM     22  H   UNL     1      -4.295  22.285 -32.884  1.00  0.00     0.122 HD
BRANCH  21  23
ATOM     23  C   UNL     1      -6.312  22.729 -32.789  1.00  0.00     0.053 C 
ATOM     24  C   UNL     1      -6.711  23.317 -34.113  1.00  0.00     0.020 C 
ATOM     25  C   UNL     1      -6.076  24.186 -33.067  1.00  0.00     0.020 C 
ENDBRANCH  21  23
ENDBRANCH  20  21
ENDBRANCH   4  20
TORSDOF 4
ENDMDL
