MODEL 1
REMARK VINA RESULT:   -10.305      0.000      0.000
REMARK INTER + INTRA:         -15.116
REMARK INTER:                 -13.919
REMARK INTRA:                  -1.197
REMARK UNBOUND:                -1.197
REMARK SMILES CC(=N)N1CCC(Oc2ccc3nc(C(C)(C)C)n(Cc4ccc5ccc(C(=N)N)cc5c4)c3c2)CC1
REMARK SMILES IDX 9 1 10 2 11 3 12 4 13 5 14 6 19 7 34 8 35 9 8 10 7 11 2 12
REMARK SMILES IDX 3 13 4 14 5 15 37 16 6 17 36 18 1 19 20 21 21 22 22 23 33 24
REMARK SMILES IDX 23 25 32 26 24 27 31 28 25 29 27 30 26 31 28 32 29 33 30 34
REMARK SMILES IDX 15 38 16 39 17 40 18 41
REMARK H PARENT 3 20 29 35 30 36 30 37
ROOT
ATOM      1  C   UNL     1      -3.523  11.915  23.491  1.00  0.00     0.121 A 
ATOM      2  C   UNL     1      -3.187  13.253  23.712  1.00  0.00     0.049 A 
ATOM      3  C   UNL     1      -4.156  14.259  23.656  1.00  0.00     0.034 A 
ATOM      4  C   UNL     1      -5.484  13.899  23.395  1.00  0.00     0.089 A 
ATOM      5  N   UNL     1      -6.590  14.690  23.295  1.00  0.00    -0.233 NA
ATOM      6  C   UNL     1      -7.623  13.897  23.057  1.00  0.00     0.115 A 
ATOM      7  N   UNL     1      -7.189  12.577  22.993  1.00  0.00    -0.323 N 
ATOM      8  C   UNL     1      -5.815  12.566  23.202  1.00  0.00     0.072 A 
ATOM      9  C   UNL     1      -4.851  11.541  23.246  1.00  0.00     0.075 A 
ENDROOT
BRANCH   1  10
ATOM     10  O   UNL     1      -2.477  11.039  23.594  1.00  0.00    -0.490 OA
BRANCH  10  11
ATOM     11  C   UNL     1      -1.885  10.846  24.885  1.00  0.00     0.176 C 
ATOM     12  C   UNL     1      -1.623   7.837  27.743  1.00  0.00     0.093 C 
ATOM     13  N   UNL     1      -2.584   7.698  28.603  1.00  0.00    -0.289 NA
ATOM     14  N   UNL     1      -1.424   9.028  27.069  1.00  0.00    -0.361 N 
ATOM     15  C   UNL     1      -2.318  10.172  27.274  1.00  0.00     0.121 C 
ATOM     16  C   UNL     1      -0.350   9.270  26.112  1.00  0.00     0.121 C 
ATOM     17  C   UNL     1      -2.955  10.568  25.946  1.00  0.00     0.066 C 
ATOM     18  C   UNL     1      -0.947   9.638  24.760  1.00  0.00     0.066 C 
ATOM     19  C   UNL     1      -0.707   6.655  27.490  1.00  0.00     0.086 C 
ATOM     20  H   UNL     1      -2.585   6.757  29.004  1.00  0.00     0.189 HD
ENDBRANCH  10  11
ENDBRANCH   1  10
BRANCH   7  21
ATOM     21  C   UNL     1      -7.968  11.360  22.810  1.00  0.00     0.159 C 
BRANCH  21  22
ATOM     22  C   UNL     1      -7.958  10.821  21.401  1.00  0.00    -0.028 A 
ATOM     23  C   UNL     1      -8.406  11.574  20.308  1.00  0.00     0.006 A 
ATOM     24  C   UNL     1      -7.419   9.545  21.156  1.00  0.00     0.014 A 
ATOM     25  C   UNL     1      -8.360  11.050  19.013  1.00  0.00     0.009 A 
ATOM     26  C   UNL     1      -7.366   9.004  19.861  1.00  0.00    -0.017 A 
ATOM     27  C   UNL     1      -7.848   9.768  18.773  1.00  0.00    -0.018 A 
ATOM     28  C   UNL     1      -6.852   7.718  19.624  1.00  0.00     0.020 A 
ATOM     29  C   UNL     1      -7.808   9.229  17.477  1.00  0.00     0.009 A 
ATOM     30  C   UNL     1      -6.820   7.196  18.327  1.00  0.00     0.017 A 
ATOM     31  C   UNL     1      -7.300   7.946  17.253  1.00  0.00     0.012 A 
BRANCH  30  32
ATOM     32  C   UNL     1      -6.287   5.829  18.094  1.00  0.00     0.122 C 
ATOM     33  N   UNL     1      -5.093   5.486  18.455  1.00  0.00    -0.284 NA
ATOM     34  N   UNL     1      -7.056   4.892  17.489  1.00  0.00    -0.384 N 
ATOM     35  H   UNL     1      -4.590   6.280  18.863  1.00  0.00     0.189 HD
ATOM     36  H   UNL     1      -6.656   3.969  17.371  1.00  0.00     0.158 HD
ATOM     37  H   UNL     1      -8.028   5.036  17.255  1.00  0.00     0.158 HD
ENDBRANCH  30  32
ENDBRANCH  21  22
ENDBRANCH   7  21
BRANCH   6  38
ATOM     38  C   UNL     1      -9.031  14.459  22.849  1.00  0.00     0.020 C 
ATOM     39  C   UNL     1     -10.156  13.514  23.293  1.00  0.00     0.019 C 
ATOM     40  C   UNL     1      -9.226  14.861  21.377  1.00  0.00     0.019 C 
ATOM     41  C   UNL     1      -9.182  15.747  23.702  1.00  0.00     0.019 C 
ENDBRANCH   6  38
TORSDOF 6
ENDMDL
MODEL 2
REMARK VINA RESULT:   -10.142      2.136      8.656
REMARK INTER + INTRA:         -14.896
REMARK INTER:                 -13.524
REMARK INTRA:                  -1.372
REMARK UNBOUND:                -1.197
REMARK SMILES CC(=N)N1CCC(Oc2ccc3nc(C(C)(C)C)n(Cc4ccc5ccc(C(=N)N)cc5c4)c3c2)CC1
REMARK SMILES IDX 9 1 10 2 11 3 12 4 13 5 14 6 19 7 34 8 35 9 8 10 7 11 2 12
REMARK SMILES IDX 3 13 4 14 5 15 37 16 6 17 36 18 1 19 20 21 21 22 22 23 33 24
REMARK SMILES IDX 23 25 32 26 24 27 31 28 25 29 27 30 26 31 28 32 29 33 30 34
REMARK SMILES IDX 15 38 16 39 17 40 18 41
REMARK H PARENT 3 20 29 35 30 36 30 37
ROOT
ATOM      1  C   UNL     1      -7.242  10.468  21.479  1.00  0.00     0.121 A 
ATOM      2  C   UNL     1      -8.406  10.861  22.146  1.00  0.00     0.049 A 
ATOM      3  C   UNL     1      -8.394  11.930  23.047  1.00  0.00     0.034 A 
ATOM      4  C   UNL     1      -7.193  12.621  23.255  1.00  0.00     0.089 A 
ATOM      5  N   UNL     1      -6.938  13.683  24.071  1.00  0.00    -0.233 NA
ATOM      6  C   UNL     1      -5.662  14.002  23.917  1.00  0.00     0.115 A 
ATOM      7  N   UNL     1      -5.077  13.138  22.997  1.00  0.00    -0.323 N 
ATOM      8  C   UNL     1      -6.049  12.242  22.570  1.00  0.00     0.072 A 
ATOM      9  C   UNL     1      -6.040  11.162  21.667  1.00  0.00     0.075 A 
ENDROOT
BRANCH   1  10
ATOM     10  O   UNL     1      -7.407   9.419  20.615  1.00  0.00    -0.490 OA
BRANCH  10  11
ATOM     11  C   UNL     1      -7.109   9.634  19.230  1.00  0.00     0.176 C 
ATOM     12  C   UNL     1      -8.930   8.993  15.547  1.00  0.00     0.093 C 
ATOM     13  N   UNL     1      -8.818   7.831  14.981  1.00  0.00    -0.289 NA
ATOM     14  N   UNL     1      -8.035   9.415  16.513  1.00  0.00    -0.361 N 
ATOM     15  C   UNL     1      -6.942   8.548  16.963  1.00  0.00     0.121 C 
ATOM     16  C   UNL     1      -8.079  10.716  17.172  1.00  0.00     0.121 C 
ATOM     17  C   UNL     1      -7.065   8.307  18.464  1.00  0.00     0.066 C 
ATOM     18  C   UNL     1      -8.232  10.519  18.674  1.00  0.00     0.066 C 
ATOM     19  C   UNL     1     -10.074   9.894  15.121  1.00  0.00     0.086 C 
ATOM     20  H   UNL     1      -9.561   7.684  14.294  1.00  0.00     0.189 HD
ENDBRANCH  10  11
ENDBRANCH   1  10
BRANCH   7  21
ATOM     21  C   UNL     1      -3.719  13.138  22.470  1.00  0.00     0.159 C 
BRANCH  21  22
ATOM     22  C   UNL     1      -2.767  12.225  23.203  1.00  0.00    -0.028 A 
ATOM     23  C   UNL     1      -1.436  12.052  22.800  1.00  0.00     0.006 A 
ATOM     24  C   UNL     1      -3.200  11.575  24.373  1.00  0.00     0.014 A 
ATOM     25  C   UNL     1      -0.576  11.216  23.518  1.00  0.00     0.009 A 
ATOM     26  C   UNL     1      -2.347  10.732  25.105  1.00  0.00    -0.017 A 
ATOM     27  C   UNL     1      -1.016  10.547  24.668  1.00  0.00    -0.018 A 
ATOM     28  C   UNL     1      -2.792  10.063  26.258  1.00  0.00     0.020 A 
ATOM     29  C   UNL     1      -0.162   9.697  25.389  1.00  0.00     0.009 A 
ATOM     30  C   UNL     1      -1.928   9.218  26.964  1.00  0.00     0.017 A 
ATOM     31  C   UNL     1      -0.616   9.030  26.531  1.00  0.00     0.012 A 
BRANCH  30  32
ATOM     32  C   UNL     1      -2.417   8.506  28.173  1.00  0.00     0.122 C 
ATOM     33  N   UNL     1      -1.787   7.495  28.677  1.00  0.00    -0.284 NA
ATOM     34  N   UNL     1      -3.553   8.912  28.789  1.00  0.00    -0.384 N 
ATOM     35  H   UNL     1      -0.970   7.251  28.110  1.00  0.00     0.189 HD
ATOM     36  H   UNL     1      -3.834   8.408  29.621  1.00  0.00     0.158 HD
ATOM     37  H   UNL     1      -4.062   9.744  28.527  1.00  0.00     0.158 HD
ENDBRANCH  30  32
ENDBRANCH  21  22
ENDBRANCH   7  21
BRANCH   6  38
ATOM     38  C   UNL     1      -5.019  15.137  24.716  1.00  0.00     0.020 C 
ATOM     39  C   UNL     1      -4.191  16.112  23.869  1.00  0.00     0.019 C 
ATOM     40  C   UNL     1      -4.159  14.559  25.853  1.00  0.00     0.019 C 
ATOM     41  C   UNL     1      -6.146  15.979  25.374  1.00  0.00     0.019 C 
ENDBRANCH   6  38
TORSDOF 6
ENDMDL
MODEL 3
REMARK VINA RESULT:   -10.052      2.351      8.491
REMARK INTER + INTRA:         -14.774
REMARK INTER:                 -13.526
REMARK INTRA:                  -1.248
REMARK UNBOUND:                -1.197
REMARK SMILES CC(=N)N1CCC(Oc2ccc3nc(C(C)(C)C)n(Cc4ccc5ccc(C(=N)N)cc5c4)c3c2)CC1
REMARK SMILES IDX 9 1 10 2 11 3 12 4 13 5 14 6 19 7 34 8 35 9 8 10 7 11 2 12
REMARK SMILES IDX 3 13 4 14 5 15 37 16 6 17 36 18 1 19 20 21 21 22 22 23 33 24
REMARK SMILES IDX 23 25 32 26 24 27 31 28 25 29 27 30 26 31 28 32 29 33 30 34
REMARK SMILES IDX 15 38 16 39 17 40 18 41
REMARK H PARENT 3 20 29 35 30 36 30 37
ROOT
ATOM      1  C   UNL     1      -6.632  10.481  21.125  1.00  0.00     0.121 A 
ATOM      2  C   UNL     1      -7.924  10.631  21.637  1.00  0.00     0.049 A 
ATOM      3  C   UNL     1      -8.193  11.550  22.656  1.00  0.00     0.034 A 
ATOM      4  C   UNL     1      -7.144  12.340  23.143  1.00  0.00     0.089 A 
ATOM      5  N   UNL     1      -7.161  13.293  24.118  1.00  0.00    -0.233 NA
ATOM      6  C   UNL     1      -5.934  13.780  24.215  1.00  0.00     0.115 A 
ATOM      7  N   UNL     1      -5.105  13.136  23.302  1.00  0.00    -0.323 N 
ATOM      8  C   UNL     1      -5.870  12.203  22.612  1.00  0.00     0.072 A 
ATOM      9  C   UNL     1      -5.579  11.277  21.593  1.00  0.00     0.075 A 
ENDROOT
BRANCH   1  10
ATOM     10  O   UNL     1      -6.521   9.558  20.120  1.00  0.00    -0.490 OA
BRANCH  10  11
ATOM     11  C   UNL     1      -5.751   9.910  18.964  1.00  0.00     0.176 C 
ATOM     12  C   UNL     1      -6.333  10.283  14.863  1.00  0.00     0.093 C 
ATOM     13  N   UNL     1      -6.238   9.228  14.114  1.00  0.00    -0.289 NA
ATOM     14  N   UNL     1      -5.750  10.333  16.116  1.00  0.00    -0.361 N 
ATOM     15  C   UNL     1      -5.030   9.178  16.664  1.00  0.00     0.121 C 
ATOM     16  C   UNL     1      -5.788  11.491  17.003  1.00  0.00     0.121 C 
ATOM     17  C   UNL     1      -5.680   8.744  17.973  1.00  0.00     0.066 C 
ATOM     18  C   UNL     1      -6.460  11.105  18.314  1.00  0.00     0.066 C 
ATOM     19  C   UNL     1      -7.102  11.476  14.332  1.00  0.00     0.086 C 
ATOM     20  H   UNL     1      -6.726   9.363  13.225  1.00  0.00     0.189 HD
ENDBRANCH  10  11
ENDBRANCH   1  10
BRANCH   7  21
ATOM     21  C   UNL     1      -3.699  13.374  23.008  1.00  0.00     0.159 C 
BRANCH  21  22
ATOM     22  C   UNL     1      -2.756  12.365  23.618  1.00  0.00    -0.028 A 
ATOM     23  C   UNL     1      -1.456  12.169  23.135  1.00  0.00     0.006 A 
ATOM     24  C   UNL     1      -3.163  11.641  24.752  1.00  0.00     0.014 A 
ATOM     25  C   UNL     1      -0.602  11.241  23.740  1.00  0.00     0.009 A 
ATOM     26  C   UNL     1      -2.317  10.705  25.371  1.00  0.00    -0.017 A 
ATOM     27  C   UNL     1      -1.018  10.500  24.853  1.00  0.00    -0.018 A 
ATOM     28  C   UNL     1      -2.737   9.964  26.488  1.00  0.00     0.020 A 
ATOM     29  C   UNL     1      -0.171   9.559  25.461  1.00  0.00     0.009 A 
ATOM     30  C   UNL     1      -1.881   9.029  27.080  1.00  0.00     0.017 A 
ATOM     31  C   UNL     1      -0.601   8.822  26.567  1.00  0.00     0.012 A 
BRANCH  30  32
ATOM     32  C   UNL     1      -2.345   8.242  28.252  1.00  0.00     0.122 C 
ATOM     33  N   UNL     1      -1.616   7.320  28.794  1.00  0.00    -0.284 NA
ATOM     34  N   UNL     1      -3.564   8.481  28.793  1.00  0.00    -0.384 N 
ATOM     35  H   UNL     1      -0.737   7.198  28.281  1.00  0.00     0.189 HD
ATOM     36  H   UNL     1      -3.826   7.934  29.604  1.00  0.00     0.158 HD
ATOM     37  H   UNL     1      -4.164   9.238  28.501  1.00  0.00     0.158 HD
ENDBRANCH  30  32
ENDBRANCH  21  22
ENDBRANCH   7  21
BRANCH   6  38
ATOM     38  C   UNL     1      -5.578  14.853  25.247  1.00  0.00     0.020 C 
ATOM     39  C   UNL     1      -4.735  14.341  26.421  1.00  0.00     0.019 C 
ATOM     40  C   UNL     1      -6.858  15.528  25.767  1.00  0.00     0.019 C 
ATOM     41  C   UNL     1      -4.731  15.951  24.547  1.00  0.00     0.019 C 
ENDBRANCH   6  38
TORSDOF 6
ENDMDL
MODEL 4
REMARK VINA RESULT:    -9.911      3.722      4.610
REMARK INTER + INTRA:         -14.584
REMARK INTER:                 -13.317
REMARK INTRA:                  -1.267
REMARK UNBOUND:                -1.197
REMARK SMILES CC(=N)N1CCC(Oc2ccc3nc(C(C)(C)C)n(Cc4ccc5ccc(C(=N)N)cc5c4)c3c2)CC1
REMARK SMILES IDX 9 1 10 2 11 3 12 4 13 5 14 6 19 7 34 8 35 9 8 10 7 11 2 12
REMARK SMILES IDX 3 13 4 14 5 15 37 16 6 17 36 18 1 19 20 21 21 22 22 23 33 24
REMARK SMILES IDX 23 25 32 26 24 27 31 28 25 29 27 30 26 31 28 32 29 33 30 34
REMARK SMILES IDX 15 38 16 39 17 40 18 41
REMARK H PARENT 3 20 29 35 30 36 30 37
ROOT
ATOM      1  C   UNL     1      -0.905  11.292  22.014  1.00  0.00     0.121 A 
ATOM      2  C   UNL     1       0.370  11.864  21.979  1.00  0.00     0.049 A 
ATOM      3  C   UNL     1       0.638  12.979  21.179  1.00  0.00     0.034 A 
ATOM      4  C   UNL     1      -0.406  13.533  20.426  1.00  0.00     0.089 A 
ATOM      5  N   UNL     1      -0.389  14.607  19.586  1.00  0.00    -0.233 NA
ATOM      6  C   UNL     1      -1.618  14.760  19.117  1.00  0.00     0.115 A 
ATOM      7  N   UNL     1      -2.443  13.775  19.649  1.00  0.00    -0.323 N 
ATOM      8  C   UNL     1      -1.674  12.976  20.487  1.00  0.00     0.072 A 
ATOM      9  C   UNL     1      -1.960  11.848  21.278  1.00  0.00     0.075 A 
ENDROOT
BRANCH   1  10
ATOM     10  O   UNL     1      -1.025  10.217  22.853  1.00  0.00    -0.490 OA
BRANCH  10  11
ATOM     11  C   UNL     1      -0.988  10.457  24.265  1.00  0.00     0.176 C 
ATOM     12  C   UNL     1      -2.282   8.590  27.748  1.00  0.00     0.093 C 
ATOM     13  N   UNL     1      -3.501   8.778  28.149  1.00  0.00    -0.289 NA
ATOM     14  N   UNL     1      -1.662   9.476  26.887  1.00  0.00    -0.361 N 
ATOM     15  C   UNL     1      -2.372  10.646  26.362  1.00  0.00     0.121 C 
ATOM     16  C   UNL     1      -0.287   9.348  26.415  1.00  0.00     0.121 C 
ATOM     17  C   UNL     1      -2.404  10.586  24.839  1.00  0.00     0.066 C 
ATOM     18  C   UNL     1      -0.278   9.253  24.895  1.00  0.00     0.066 C 
ATOM     19  C   UNL     1      -1.539   7.367  28.251  1.00  0.00     0.086 C 
ATOM     20  H   UNL     1      -3.801   8.030  28.780  1.00  0.00     0.189 HD
ENDBRANCH  10  11
ENDBRANCH   1  10
BRANCH   7  21
ATOM     21  C   UNL     1      -3.875  13.578  19.469  1.00  0.00     0.159 C 
BRANCH  21  22
ATOM     22  C   UNL     1      -4.235  12.457  18.525  1.00  0.00    -0.028 A 
ATOM     23  C   UNL     1      -4.273  12.631  17.135  1.00  0.00     0.006 A 
ATOM     24  C   UNL     1      -4.477  11.172  19.044  1.00  0.00     0.014 A 
ATOM     25  C   UNL     1      -4.588  11.562  16.291  1.00  0.00     0.009 A 
ATOM     26  C   UNL     1      -4.794  10.089  18.208  1.00  0.00    -0.017 A 
ATOM     27  C   UNL     1      -4.855  10.289  16.810  1.00  0.00    -0.018 A 
ATOM     28  C   UNL     1      -5.061   8.812  18.732  1.00  0.00     0.020 A 
ATOM     29  C   UNL     1      -5.183   9.213  15.970  1.00  0.00     0.009 A 
ATOM     30  C   UNL     1      -5.388   7.752  17.881  1.00  0.00     0.017 A 
ATOM     31  C   UNL     1      -5.453   7.949  16.501  1.00  0.00     0.012 A 
BRANCH  30  32
ATOM     32  C   UNL     1      -5.682   6.411  18.451  1.00  0.00     0.122 C 
ATOM     33  N   UNL     1      -4.828   5.440  18.401  1.00  0.00    -0.284 NA
ATOM     34  N   UNL     1      -6.873   6.173  19.051  1.00  0.00    -0.384 N 
ATOM     35  H   UNL     1      -3.984   5.719  17.892  1.00  0.00     0.189 HD
ATOM     36  H   UNL     1      -7.018   5.250  19.442  1.00  0.00     0.158 HD
ATOM     37  H   UNL     1      -7.565   6.889  19.220  1.00  0.00     0.158 HD
ENDBRANCH  30  32
ENDBRANCH  21  22
ENDBRANCH   7  21
BRANCH   6  38
ATOM     38  C   UNL     1      -1.957  15.858  18.107  1.00  0.00     0.020 C 
ATOM     39  C   UNL     1      -3.375  16.426  18.249  1.00  0.00     0.019 C 
ATOM     40  C   UNL     1      -1.732  15.346  16.675  1.00  0.00     0.019 C 
ATOM     41  C   UNL     1      -0.986  17.050  18.327  1.00  0.00     0.019 C 
ENDBRANCH   6  38
TORSDOF 6
ENDMDL
MODEL 5
REMARK VINA RESULT:    -9.707      2.677      7.877
REMARK INTER + INTRA:         -14.309
REMARK INTER:                 -12.804
REMARK INTRA:                  -1.505
REMARK UNBOUND:                -1.197
REMARK SMILES CC(=N)N1CCC(Oc2ccc3nc(C(C)(C)C)n(Cc4ccc5ccc(C(=N)N)cc5c4)c3c2)CC1
REMARK SMILES IDX 9 1 10 2 11 3 12 4 13 5 14 6 19 7 34 8 35 9 8 10 7 11 2 12
REMARK SMILES IDX 3 13 4 14 5 15 37 16 6 17 36 18 1 19 20 21 21 22 22 23 33 24
REMARK SMILES IDX 23 25 32 26 24 27 31 28 25 29 27 30 26 31 28 32 29 33 30 34
REMARK SMILES IDX 15 38 16 39 17 40 18 41
REMARK H PARENT 3 20 29 35 30 36 30 37
ROOT
ATOM      1  C   UNL     1      -8.159  12.520  22.306  1.00  0.00     0.121 A 
ATOM      2  C   UNL     1      -9.003  11.481  22.708  1.00  0.00     0.049 A 
ATOM      3  C   UNL     1      -8.894  10.205  22.148  1.00  0.00     0.034 A 
ATOM      4  C   UNL     1      -7.901   9.976  21.186  1.00  0.00     0.089 A 
ATOM      5  N   UNL     1      -7.603   8.832  20.508  1.00  0.00    -0.233 NA
ATOM      6  C   UNL     1      -6.574   9.097  19.718  1.00  0.00     0.115 A 
ATOM      7  N   UNL     1      -6.201  10.428  19.875  1.00  0.00    -0.323 N 
ATOM      8  C   UNL     1      -7.051  11.005  20.811  1.00  0.00     0.072 A 
ATOM      9  C   UNL     1      -7.153  12.299  21.357  1.00  0.00     0.075 A 
ENDROOT
BRANCH   1  10
ATOM     10  O   UNL     1      -8.370  13.708  22.952  1.00  0.00    -0.490 OA
BRANCH  10  11
ATOM     11  C   UNL     1      -7.266  14.302  23.647  1.00  0.00     0.176 C 
ATOM     12  C   UNL     1      -6.411  17.866  25.612  1.00  0.00     0.093 C 
ATOM     13  N   UNL     1      -6.011  18.887  24.920  1.00  0.00    -0.289 NA
ATOM     14  N   UNL     1      -6.301  16.577  25.125  1.00  0.00    -0.361 N 
ATOM     15  C   UNL     1      -5.758  16.315  23.788  1.00  0.00     0.121 C 
ATOM     16  C   UNL     1      -6.701  15.377  25.854  1.00  0.00     0.121 C 
ATOM     17  C   UNL     1      -6.799  15.583  22.947  1.00  0.00     0.066 C 
ATOM     18  C   UNL     1      -7.765  14.632  25.060  1.00  0.00     0.066 C 
ATOM     19  C   UNL     1      -7.008  18.114  26.984  1.00  0.00     0.086 C 
ATOM     20  H   UNL     1      -6.168  19.761  25.430  1.00  0.00     0.189 HD
ENDBRANCH  10  11
ENDBRANCH   1  10
BRANCH   7  21
ATOM     21  C   UNL     1      -5.096  11.152  19.262  1.00  0.00     0.159 C 
BRANCH  21  22
ATOM     22  C   UNL     1      -3.884  11.305  20.149  1.00  0.00    -0.028 A 
ATOM     23  C   UNL     1      -2.732  11.984  19.732  1.00  0.00     0.006 A 
ATOM     24  C   UNL     1      -3.929  10.812  21.466  1.00  0.00     0.014 A 
ATOM     25  C   UNL     1      -1.637  12.126  20.590  1.00  0.00     0.009 A 
ATOM     26  C   UNL     1      -2.837  10.948  22.340  1.00  0.00    -0.017 A 
ATOM     27  C   UNL     1      -1.672  11.611  21.893  1.00  0.00    -0.018 A 
ATOM     28  C   UNL     1      -2.875  10.430  23.646  1.00  0.00     0.020 A 
ATOM     29  C   UNL     1      -0.574  11.740  22.758  1.00  0.00     0.009 A 
ATOM     30  C   UNL     1      -1.772  10.566  24.494  1.00  0.00     0.017 A 
ATOM     31  C   UNL     1      -0.619  11.216  24.053  1.00  0.00     0.012 A 
BRANCH  30  32
ATOM     32  C   UNL     1      -1.822  10.002  25.867  1.00  0.00     0.122 C 
ATOM     33  N   UNL     1      -2.897  10.033  26.586  1.00  0.00    -0.284 NA
ATOM     34  N   UNL     1      -0.720   9.425  26.406  1.00  0.00    -0.384 N 
ATOM     35  H   UNL     1      -3.651  10.526  26.097  1.00  0.00     0.189 HD
ATOM     36  H   UNL     1      -0.810   9.035  27.337  1.00  0.00     0.158 HD
ATOM     37  H   UNL     1       0.135   9.270  25.893  1.00  0.00     0.158 HD
ENDBRANCH  30  32
ENDBRANCH  21  22
ENDBRANCH   7  21
BRANCH   6  38
ATOM     38  C   UNL     1      -5.994   8.039  18.778  1.00  0.00     0.020 C 
ATOM     39  C   UNL     1      -4.492   7.790  18.963  1.00  0.00     0.019 C 
ATOM     40  C   UNL     1      -6.293   8.412  17.316  1.00  0.00     0.019 C 
ATOM     41  C   UNL     1      -6.699   6.685  19.061  1.00  0.00     0.019 C 
ENDBRANCH   6  38
TORSDOF 6
ENDMDL
MODEL 6
REMARK VINA RESULT:    -9.101      3.708      8.189
REMARK INTER + INTRA:         -13.490
REMARK INTER:                 -12.188
REMARK INTRA:                  -1.302
REMARK UNBOUND:                -1.197
REMARK SMILES CC(=N)N1CCC(Oc2ccc3nc(C(C)(C)C)n(Cc4ccc5ccc(C(=N)N)cc5c4)c3c2)CC1
REMARK SMILES IDX 9 1 10 2 11 3 12 4 13 5 14 6 19 7 34 8 35 9 8 10 7 11 2 12
REMARK SMILES IDX 3 13 4 14 5 15 37 16 6 17 36 18 1 19 20 21 21 22 22 23 33 24
REMARK SMILES IDX 23 25 32 26 24 27 31 28 25 29 27 30 26 31 28 32 29 33 30 34
REMARK SMILES IDX 15 38 16 39 17 40 18 41
REMARK H PARENT 3 20 29 35 30 36 30 37
ROOT
ATOM      1  C   UNL     1      -8.191  12.449  22.056  1.00  0.00     0.121 A 
ATOM      2  C   UNL     1      -9.114  11.463  22.414  1.00  0.00     0.049 A 
ATOM      3  C   UNL     1      -9.043  10.177  21.869  1.00  0.00     0.034 A 
ATOM      4  C   UNL     1      -8.009   9.884  20.970  1.00  0.00     0.089 A 
ATOM      5  N   UNL     1      -7.736   8.718  20.319  1.00  0.00    -0.233 NA
ATOM      6  C   UNL     1      -6.649   8.919  19.590  1.00  0.00     0.115 A 
ATOM      7  N   UNL     1      -6.212  10.228  19.760  1.00  0.00    -0.323 N 
ATOM      8  C   UNL     1      -7.082  10.861  20.639  1.00  0.00     0.072 A 
ATOM      9  C   UNL     1      -7.143  12.163  21.170  1.00  0.00     0.075 A 
ENDROOT
BRANCH   1  10
ATOM     10  O   UNL     1      -8.372  13.654  22.680  1.00  0.00    -0.490 OA
BRANCH  10  11
ATOM     11  C   UNL     1      -7.296  14.170  23.474  1.00  0.00     0.176 C 
ATOM     12  C   UNL     1      -6.416  17.632  25.603  1.00  0.00     0.093 C 
ATOM     13  N   UNL     1      -5.912  18.648  24.974  1.00  0.00    -0.289 NA
ATOM     14  N   UNL     1      -6.334  16.351  25.088  1.00  0.00    -0.361 N 
ATOM     15  C   UNL     1      -5.704  16.097  23.788  1.00  0.00     0.121 C 
ATOM     16  C   UNL     1      -6.849  15.156  25.748  1.00  0.00     0.121 C 
ATOM     17  C   UNL     1      -6.712  15.442  22.850  1.00  0.00     0.066 C 
ATOM     18  C   UNL     1      -7.885  14.489  24.854  1.00  0.00     0.066 C 
ATOM     19  C   UNL     1      -7.102  17.876  26.933  1.00  0.00     0.086 C 
ATOM     20  H   UNL     1      -6.063  19.515  25.496  1.00  0.00     0.189 HD
ENDBRANCH  10  11
ENDBRANCH   1  10
BRANCH   7  21
ATOM     21  C   UNL     1      -5.033  10.883  19.209  1.00  0.00     0.159 C 
BRANCH  21  22
ATOM     22  C   UNL     1      -3.882  11.010  20.178  1.00  0.00    -0.028 A 
ATOM     23  C   UNL     1      -3.866  10.348  21.412  1.00  0.00     0.006 A 
ATOM     24  C   UNL     1      -2.753  11.762  19.809  1.00  0.00     0.014 A 
ATOM     25  C   UNL     1      -2.772  10.470  22.273  1.00  0.00     0.009 A 
ATOM     26  C   UNL     1      -1.645  11.894  20.663  1.00  0.00    -0.017 A 
ATOM     27  C   UNL     1      -1.658  11.241  21.917  1.00  0.00    -0.018 A 
ATOM     28  C   UNL     1      -0.529  12.668  20.303  1.00  0.00     0.020 A 
ATOM     29  C   UNL     1      -0.559  11.379  22.780  1.00  0.00     0.009 A 
ATOM     30  C   UNL     1       0.556  12.796  21.175  1.00  0.00     0.017 A 
ATOM     31  C   UNL     1       0.543  12.156  22.415  1.00  0.00     0.012 A 
BRANCH  30  32
ATOM     32  C   UNL     1       1.723  13.629  20.786  1.00  0.00     0.122 C 
ATOM     33  N   UNL     1       1.594  14.861  20.411  1.00  0.00    -0.284 NA
ATOM     34  N   UNL     1       2.973  13.108  20.820  1.00  0.00    -0.384 N 
ATOM     35  H   UNL     1       0.608  15.135  20.384  1.00  0.00     0.189 HD
ATOM     36  H   UNL     1       3.738  13.722  20.566  1.00  0.00     0.158 HD
ATOM     37  H   UNL     1       3.185  12.190  21.185  1.00  0.00     0.158 HD
ENDBRANCH  30  32
ENDBRANCH  21  22
ENDBRANCH   7  21
BRANCH   6  38
ATOM     38  C   UNL     1      -6.074   7.821  18.692  1.00  0.00     0.020 C 
ATOM     39  C   UNL     1      -6.097   8.156  17.196  1.00  0.00     0.019 C 
ATOM     40  C   UNL     1      -6.805   6.492  18.950  1.00  0.00     0.019 C 
ATOM     41  C   UNL     1      -4.582   7.605  19.068  1.00  0.00     0.019 C 
ENDBRANCH   6  38
TORSDOF 6
ENDMDL
MODEL 7
REMARK VINA RESULT:    -9.023      1.950      7.752
REMARK INTER + INTRA:         -13.385
REMARK INTER:                 -12.114
REMARK INTRA:                  -1.271
REMARK UNBOUND:                -1.197
REMARK SMILES CC(=N)N1CCC(Oc2ccc3nc(C(C)(C)C)n(Cc4ccc5ccc(C(=N)N)cc5c4)c3c2)CC1
REMARK SMILES IDX 9 1 10 2 11 3 12 4 13 5 14 6 19 7 34 8 35 9 8 10 7 11 2 12
REMARK SMILES IDX 3 13 4 14 5 15 37 16 6 17 36 18 1 19 20 21 21 22 22 23 33 24
REMARK SMILES IDX 23 25 32 26 24 27 31 28 25 29 27 30 26 31 28 32 29 33 30 34
REMARK SMILES IDX 15 38 16 39 17 40 18 41
REMARK H PARENT 3 20 29 35 30 36 30 37
ROOT
ATOM      1  C   UNL     1      -6.958  11.687  20.900  1.00  0.00     0.121 A 
ATOM      2  C   UNL     1      -7.038  12.554  19.808  1.00  0.00     0.049 A 
ATOM      3  C   UNL     1      -6.714  13.908  19.936  1.00  0.00     0.034 A 
ATOM      4  C   UNL     1      -6.283  14.380  21.183  1.00  0.00     0.089 A 
ATOM      5  N   UNL     1      -5.915  15.641  21.549  1.00  0.00    -0.233 NA
ATOM      6  C   UNL     1      -5.567  15.596  22.826  1.00  0.00     0.115 A 
ATOM      7  N   UNL     1      -5.716  14.297  23.301  1.00  0.00    -0.323 N 
ATOM      8  C   UNL     1      -6.182  13.508  22.256  1.00  0.00     0.072 A 
ATOM      9  C   UNL     1      -6.513  12.144  22.147  1.00  0.00     0.075 A 
ENDROOT
BRANCH   1  10
ATOM     10  O   UNL     1      -7.288  10.388  20.622  1.00  0.00    -0.490 OA
BRANCH  10  11
ATOM     11  C   UNL     1      -6.709   9.779  19.461  1.00  0.00     0.176 C 
ATOM     12  C   UNL     1      -5.914   5.947  18.055  1.00  0.00     0.093 C 
ATOM     13  N   UNL     1      -4.820   5.355  18.423  1.00  0.00    -0.289 NA
ATOM     14  N   UNL     1      -6.045   7.322  18.115  1.00  0.00    -0.361 N 
ATOM     15  C   UNL     1      -4.962   8.165  18.632  1.00  0.00     0.121 C 
ATOM     16  C   UNL     1      -7.230   8.062  17.694  1.00  0.00     0.121 C 
ATOM     17  C   UNL     1      -5.463   8.966  19.829  1.00  0.00     0.066 C 
ATOM     18  C   UNL     1      -7.781   8.853  18.872  1.00  0.00     0.066 C 
ATOM     19  C   UNL     1      -7.061   5.093  17.550  1.00  0.00     0.086 C 
ATOM     20  H   UNL     1      -4.897   4.340  18.314  1.00  0.00     0.189 HD
ENDBRANCH  10  11
ENDBRANCH   1  10
BRANCH   7  21
ATOM     21  C   UNL     1      -5.404  13.758  24.618  1.00  0.00     0.159 C 
BRANCH  21  22
ATOM     22  C   UNL     1      -4.175  12.882  24.656  1.00  0.00    -0.028 A 
ATOM     23  C   UNL     1      -3.093  13.072  23.788  1.00  0.00     0.006 A 
ATOM     24  C   UNL     1      -4.075  11.880  25.638  1.00  0.00     0.014 A 
ATOM     25  C   UNL     1      -1.961  12.256  23.868  1.00  0.00     0.009 A 
ATOM     26  C   UNL     1      -2.944  11.052  25.732  1.00  0.00    -0.017 A 
ATOM     27  C   UNL     1      -1.873  11.240  24.830  1.00  0.00    -0.018 A 
ATOM     28  C   UNL     1      -2.858  10.035  26.698  1.00  0.00     0.020 A 
ATOM     29  C   UNL     1      -0.745  10.408  24.911  1.00  0.00     0.009 A 
ATOM     30  C   UNL     1      -1.728   9.214  26.764  1.00  0.00     0.017 A 
ATOM     31  C   UNL     1      -0.672   9.396  25.870  1.00  0.00     0.012 A 
BRANCH  30  32
ATOM     32  C   UNL     1      -1.658   8.134  27.781  1.00  0.00     0.122 C 
ATOM     33  N   UNL     1      -0.689   7.277  27.810  1.00  0.00    -0.284 NA
ATOM     34  N   UNL     1      -2.626   8.022  28.723  1.00  0.00    -0.384 N 
ATOM     35  H   UNL     1      -0.040   7.431  27.032  1.00  0.00     0.189 HD
ATOM     36  H   UNL     1      -2.523   7.283  29.407  1.00  0.00     0.158 HD
ATOM     37  H   UNL     1      -3.371   8.694  28.839  1.00  0.00     0.158 HD
ENDBRANCH  30  32
ENDBRANCH  21  22
ENDBRANCH   7  21
BRANCH   6  38
ATOM     38  C   UNL     1      -5.131  16.853  23.581  1.00  0.00     0.020 C 
ATOM     39  C   UNL     1      -5.383  18.162  22.821  1.00  0.00     0.019 C 
ATOM     40  C   UNL     1      -3.648  16.744  23.973  1.00  0.00     0.019 C 
ATOM     41  C   UNL     1      -5.949  16.949  24.898  1.00  0.00     0.019 C 
ENDBRANCH   6  38
TORSDOF 6
ENDMDL
MODEL 8
REMARK VINA RESULT:    -8.813      1.682      2.213
REMARK INTER + INTRA:         -13.101
REMARK INTER:                 -12.134
REMARK INTRA:                  -0.967
REMARK UNBOUND:                -1.197
REMARK SMILES CC(=N)N1CCC(Oc2ccc3nc(C(C)(C)C)n(Cc4ccc5ccc(C(=N)N)cc5c4)c3c2)CC1
REMARK SMILES IDX 9 1 10 2 11 3 12 4 13 5 14 6 19 7 34 8 35 9 8 10 7 11 2 12
REMARK SMILES IDX 3 13 4 14 5 15 37 16 6 17 36 18 1 19 20 21 21 22 22 23 33 24
REMARK SMILES IDX 23 25 32 26 24 27 31 28 25 29 27 30 26 31 28 32 29 33 30 34
REMARK SMILES IDX 15 38 16 39 17 40 18 41
REMARK H PARENT 3 20 29 35 30 36 30 37
ROOT
ATOM      1  C   UNL     1      -4.212  12.375  22.329  1.00  0.00     0.121 A 
ATOM      2  C   UNL     1      -3.896  13.730  22.208  1.00  0.00     0.049 A 
ATOM      3  C   UNL     1      -4.891  14.687  21.989  1.00  0.00     0.034 A 
ATOM      4  C   UNL     1      -6.225  14.264  21.915  1.00  0.00     0.089 A 
ATOM      5  N   UNL     1      -7.354  15.001  21.714  1.00  0.00    -0.233 NA
ATOM      6  C   UNL     1      -8.381  14.165  21.741  1.00  0.00     0.115 A 
ATOM      7  N   UNL     1      -7.919  12.871  21.956  1.00  0.00    -0.323 N 
ATOM      8  C   UNL     1      -6.534  12.921  22.062  1.00  0.00     0.072 A 
ATOM      9  C   UNL     1      -5.544  11.943  22.274  1.00  0.00     0.075 A 
ENDROOT
BRANCH   1  10
ATOM     10  O   UNL     1      -3.140  11.556  22.559  1.00  0.00    -0.490 OA
BRANCH  10  11
ATOM     11  C   UNL     1      -2.497  11.630  23.838  1.00  0.00     0.176 C 
ATOM     12  C   UNL     1      -1.996   9.215  27.185  1.00  0.00     0.093 C 
ATOM     13  N   UNL     1      -2.921   9.198  28.095  1.00  0.00    -0.289 NA
ATOM     14  N   UNL     1      -1.878  10.268  26.297  1.00  0.00    -0.361 N 
ATOM     15  C   UNL     1      -2.818  11.393  26.325  1.00  0.00     0.121 C 
ATOM     16  C   UNL     1      -0.848  10.373  25.268  1.00  0.00     0.121 C 
ATOM     17  C   UNL     1      -3.517  11.509  24.974  1.00  0.00     0.066 C 
ATOM     18  C   UNL     1      -1.507  10.460  23.898  1.00  0.00     0.066 C 
ATOM     19  C   UNL     1      -1.033   8.046  27.115  1.00  0.00     0.086 C 
ATOM     20  H   UNL     1      -2.863   8.348  28.662  1.00  0.00     0.189 HD
ENDBRANCH  10  11
ENDBRANCH   1  10
BRANCH   7  21
ATOM     21  C   UNL     1      -8.678  11.638  22.118  1.00  0.00     0.159 C 
BRANCH  21  22
ATOM     22  C   UNL     1      -8.177  10.485  21.283  1.00  0.00    -0.028 A 
ATOM     23  C   UNL     1      -7.807   9.257  21.848  1.00  0.00     0.006 A 
ATOM     24  C   UNL     1      -8.142  10.612  19.883  1.00  0.00     0.014 A 
ATOM     25  C   UNL     1      -7.370   8.203  21.041  1.00  0.00     0.009 A 
ATOM     26  C   UNL     1      -7.706   9.562  19.059  1.00  0.00    -0.017 A 
ATOM     27  C   UNL     1      -7.309   8.340  19.648  1.00  0.00    -0.018 A 
ATOM     28  C   UNL     1      -7.647   9.702  17.662  1.00  0.00     0.020 A 
ATOM     29  C   UNL     1      -6.861   7.290  18.830  1.00  0.00     0.009 A 
ATOM     30  C   UNL     1      -7.197   8.647  16.862  1.00  0.00     0.017 A 
ATOM     31  C   UNL     1      -6.800   7.442  17.443  1.00  0.00     0.012 A 
BRANCH  30  32
ATOM     32  C   UNL     1      -7.127   8.815  15.388  1.00  0.00     0.122 C 
ATOM     33  N   UNL     1      -6.024   9.116  14.781  1.00  0.00    -0.284 NA
ATOM     34  N   UNL     1      -8.238   8.650  14.630  1.00  0.00    -0.384 N 
ATOM     35  H   UNL     1      -5.263   9.256  15.452  1.00  0.00     0.189 HD
ATOM     36  H   UNL     1      -8.135   8.755  13.628  1.00  0.00     0.158 HD
ATOM     37  H   UNL     1      -9.120   8.326  14.999  1.00  0.00     0.158 HD
ENDBRANCH  30  32
ENDBRANCH  21  22
ENDBRANCH   7  21
BRANCH   6  38
ATOM     38  C   UNL     1      -9.813  14.650  21.510  1.00  0.00     0.020 C 
ATOM     39  C   UNL     1     -10.512  13.997  20.310  1.00  0.00     0.019 C 
ATOM     40  C   UNL     1      -9.835  16.181  21.367  1.00  0.00     0.019 C 
ATOM     41  C   UNL     1     -10.665  14.292  22.758  1.00  0.00     0.019 C 
ENDBRANCH   6  38
TORSDOF 6
ENDMDL
MODEL 9
REMARK VINA RESULT:    -8.786      2.733      7.380
REMARK INTER + INTRA:         -13.064
REMARK INTER:                 -11.651
REMARK INTRA:                  -1.413
REMARK UNBOUND:                -1.197
REMARK SMILES CC(=N)N1CCC(Oc2ccc3nc(C(C)(C)C)n(Cc4ccc5ccc(C(=N)N)cc5c4)c3c2)CC1
REMARK SMILES IDX 9 1 10 2 11 3 12 4 13 5 14 6 19 7 34 8 35 9 8 10 7 11 2 12
REMARK SMILES IDX 3 13 4 14 5 15 37 16 6 17 36 18 1 19 20 21 21 22 22 23 33 24
REMARK SMILES IDX 23 25 32 26 24 27 31 28 25 29 27 30 26 31 28 32 29 33 30 34
REMARK SMILES IDX 15 38 16 39 17 40 18 41
REMARK H PARENT 3 20 29 35 30 36 30 37
ROOT
ATOM      1  C   UNL     1      -8.824  10.782  22.190  1.00  0.00     0.121 A 
ATOM      2  C   UNL     1     -10.150  10.741  22.628  1.00  0.00     0.049 A 
ATOM      3  C   UNL     1     -10.729  11.834  23.281  1.00  0.00     0.034 A 
ATOM      4  C   UNL     1      -9.958  12.988  23.470  1.00  0.00     0.089 A 
ATOM      5  N   UNL     1     -10.298  14.165  24.069  1.00  0.00    -0.233 NA
ATOM      6  C   UNL     1      -9.246  14.965  23.992  1.00  0.00     0.115 A 
ATOM      7  N   UNL     1      -8.207  14.305  23.345  1.00  0.00    -0.323 N 
ATOM      8  C   UNL     1      -8.651  13.031  23.010  1.00  0.00     0.072 A 
ATOM      9  C   UNL     1      -8.049  11.937  22.360  1.00  0.00     0.075 A 
ENDROOT
BRANCH   1  10
ATOM     10  O   UNL     1      -8.398   9.648  21.553  1.00  0.00    -0.490 OA
BRANCH  10  11
ATOM     11  C   UNL     1      -7.190   9.720  20.784  1.00  0.00     0.176 C 
ATOM     12  C   UNL     1      -5.789   8.386  17.104  1.00  0.00     0.093 C 
ATOM     13  N   UNL     1      -5.307   7.185  17.010  1.00  0.00    -0.289 NA
ATOM     14  N   UNL     1      -5.867   9.039  18.320  1.00  0.00    -0.361 N 
ATOM     15  C   UNL     1      -5.441   8.383  19.561  1.00  0.00     0.121 C 
ATOM     16  C   UNL     1      -6.368  10.397  18.502  1.00  0.00     0.121 C 
ATOM     17  C   UNL     1      -6.611   8.323  20.536  1.00  0.00     0.066 C 
ATOM     18  C   UNL     1      -7.561  10.376  19.448  1.00  0.00     0.066 C 
ATOM     19  C   UNL     1      -6.268   9.071  15.838  1.00  0.00     0.086 C 
ATOM     20  H   UNL     1      -5.325   6.857  16.041  1.00  0.00     0.189 HD
ENDBRANCH  10  11
ENDBRANCH   1  10
BRANCH   7  21
ATOM     21  C   UNL     1      -6.886  14.800  22.982  1.00  0.00     0.159 C 
BRANCH  21  22
ATOM     22  C   UNL     1      -5.744  14.055  23.629  1.00  0.00    -0.028 A 
ATOM     23  C   UNL     1      -5.732  13.740  24.994  1.00  0.00     0.006 A 
ATOM     24  C   UNL     1      -4.681  13.598  22.829  1.00  0.00     0.014 A 
ATOM     25  C   UNL     1      -4.667  13.029  25.553  1.00  0.00     0.009 A 
ATOM     26  C   UNL     1      -3.604  12.881  23.376  1.00  0.00    -0.017 A 
ATOM     27  C   UNL     1      -3.595  12.596  24.760  1.00  0.00    -0.018 A 
ATOM     28  C   UNL     1      -2.531  12.448  22.579  1.00  0.00     0.020 A 
ATOM     29  C   UNL     1      -2.516  11.891  25.315  1.00  0.00     0.009 A 
ATOM     30  C   UNL     1      -1.463  11.747  23.148  1.00  0.00     0.017 A 
ATOM     31  C   UNL     1      -1.450  11.470  24.515  1.00  0.00     0.012 A 
BRANCH  30  32
ATOM     32  C   UNL     1      -0.329  11.309  22.294  1.00  0.00     0.122 C 
ATOM     33  N   UNL     1      -0.297  10.142  21.737  1.00  0.00    -0.284 NA
ATOM     34  N   UNL     1       0.718  12.141  22.072  1.00  0.00    -0.384 N 
ATOM     35  H   UNL     1      -1.115   9.585  22.005  1.00  0.00     0.189 HD
ATOM     36  H   UNL     1       1.456  11.805  21.467  1.00  0.00     0.158 HD
ATOM     37  H   UNL     1       0.742  13.101  22.386  1.00  0.00     0.158 HD
ENDBRANCH  30  32
ENDBRANCH  21  22
ENDBRANCH   7  21
BRANCH   6  38
ATOM     38  C   UNL     1      -9.262  16.368  24.603  1.00  0.00     0.020 C 
ATOM     39  C   UNL     1      -8.114  16.640  25.583  1.00  0.00     0.019 C 
ATOM     40  C   UNL     1     -10.616  16.631  25.284  1.00  0.00     0.019 C 
ATOM     41  C   UNL     1      -9.114  17.408  23.458  1.00  0.00     0.019 C 
ENDBRANCH   6  38
TORSDOF 6
ENDMDL
