MODEL 1
REMARK VINA RESULT:    -7.850      0.000      0.000
REMARK INTER + INTRA:         -13.696
REMARK INTER:                 -12.668
REMARK INTRA:                  -1.028
REMARK UNBOUND:                -1.028
REMARK SMILES CCC[C@H](Sc1ccc(OCC(=O)O)c(C)c1)c1sc(-c2ccc(C(F)(F)F)cc2)nc1C
REMARK SMILES IDX 6 1 7 2 8 3 9 4 15 5 16 6 17 7 5 8 4 9 3 10 2 11 1 12 18 13
REMARK SMILES IDX 19 14 32 15 20 16 31 17 33 18 21 19 22 20 30 21 23 22 29 23
REMARK SMILES IDX 24 24 25 25 26 26 27 27 28 28 10 29 11 30 12 31 13 32 14 33
REMARK H PARENT 14 34
ROOT
ATOM      1  C   UNL     1       6.498   5.694  -6.072  1.00  0.00     0.008 A 
ATOM      2  C   UNL     1       6.887   6.954  -6.526  1.00  0.00     0.019 A 
ATOM      3  C   UNL     1       6.174   8.098  -6.151  1.00  0.00     0.048 A 
ATOM      4  C   UNL     1       5.066   7.995  -5.307  1.00  0.00     0.123 A 
ATOM      5  C   UNL     1       4.673   6.730  -4.835  1.00  0.00    -0.008 A 
ATOM      6  C   UNL     1       3.500   6.586  -3.904  1.00  0.00     0.048 C 
ATOM      7  C   UNL     1       5.400   5.589  -5.216  1.00  0.00     0.022 A 
ENDROOT
BRANCH   1   8
ATOM      8  S   UNL     1       7.436   4.259  -6.554  1.00  0.00    -0.117 SA
BRANCH   8   9
ATOM      9  C   UNL     1       9.145   4.962  -6.578  1.00  0.00     0.094 C 
BRANCH   9  10
ATOM     10  C   UNL     1      10.123   4.018  -5.856  1.00  0.00     0.020 C 
BRANCH  10  11
ATOM     11  C   UNL     1       9.420   3.087  -4.860  1.00  0.00    -0.002 C 
ATOM     12  C   UNL     1       9.712   3.491  -3.422  1.00  0.00     0.004 C 
ENDBRANCH  10  11
ENDBRANCH   9  10
BRANCH   9  13
ATOM     13  C   UNL     1       9.534   5.251  -8.009  1.00  0.00     0.041 A 
ATOM     14  S   UNL     1       9.705   6.889  -8.514  1.00  0.00    -0.117 S 
ATOM     15  C   UNL     1       9.807   4.417  -9.084  1.00  0.00     0.053 A 
ATOM     16  C   UNL     1      10.128   6.382 -10.101  1.00  0.00     0.123 A 
ATOM     17  N   UNL     1      10.157   5.074 -10.254  1.00  0.00    -0.241 NA
ATOM     18  C   UNL     1       9.782   2.930  -9.125  1.00  0.00     0.068 C 
BRANCH  16  19
ATOM     19  C   UNL     1      10.439   7.340 -11.184  1.00  0.00     0.010 A 
ATOM     20  C   UNL     1      10.196   8.708 -10.966  1.00  0.00     0.012 A 
ATOM     21  C   UNL     1      10.977   6.965 -12.426  1.00  0.00     0.012 A 
ATOM     22  C   UNL     1      10.474   9.665 -11.948  1.00  0.00     0.014 A 
ATOM     23  C   UNL     1      11.255   7.922 -13.412  1.00  0.00     0.014 A 
ATOM     24  C   UNL     1      11.000   9.281 -13.186  1.00  0.00     0.056 A 
BRANCH  24  25
ATOM     25  C   UNL     1      11.324  10.309 -14.241  1.00  0.00     0.416 C 
ATOM     26  F   UNL     1      12.516  10.937 -14.035  1.00  0.00    -0.166 F 
ATOM     27  F   UNL     1      11.398   9.765 -15.488  1.00  0.00    -0.166 F 
ATOM     28  F   UNL     1      10.392  11.300 -14.321  1.00  0.00    -0.166 F 
ENDBRANCH  24  25
ENDBRANCH  16  19
ENDBRANCH   9  13
ENDBRANCH   8   9
ENDBRANCH   1   8
BRANCH   4  29
ATOM     29  O   UNL     1       4.299   9.046  -4.878  1.00  0.00    -0.482 OA
BRANCH  29  30
ATOM     30  C   UNL     1       4.939  10.173  -4.298  1.00  0.00     0.351 C 
BRANCH  30  31
ATOM     31  C   UNL     1       5.908   9.858  -3.169  1.00  0.00     0.341 C 
ATOM     32  O   UNL     1       5.671   9.311  -2.105  1.00  0.00    -0.248 OA
BRANCH  31  33
ATOM     33  O   UNL     1       7.164  10.271  -3.449  1.00  0.00    -0.479 OA
ATOM     34  H   UNL     1       7.257  10.095  -4.410  1.00  0.00     0.296 HD
ENDBRANCH  31  33
ENDBRANCH  30  31
ENDBRANCH  29  30
ENDBRANCH   4  29
TORSDOF 11
ENDMDL
MODEL 2
REMARK VINA RESULT:    -7.662      4.932      7.498
REMARK INTER + INTRA:         -13.393
REMARK INTER:                 -12.935
REMARK INTRA:                  -0.458
REMARK UNBOUND:                -1.028
REMARK SMILES CCC[C@H](Sc1ccc(OCC(=O)O)c(C)c1)c1sc(-c2ccc(C(F)(F)F)cc2)nc1C
REMARK SMILES IDX 6 1 7 2 8 3 9 4 15 5 16 6 17 7 5 8 4 9 3 10 2 11 1 12 18 13
REMARK SMILES IDX 19 14 32 15 20 16 31 17 33 18 21 19 22 20 30 21 23 22 29 23
REMARK SMILES IDX 24 24 25 25 26 26 27 27 28 28 10 29 11 30 12 31 13 32 14 33
REMARK H PARENT 14 34
ROOT
ATOM      1  C   UNL     1      10.641   1.223  -3.628  1.00  0.00     0.008 A 
ATOM      2  C   UNL     1      10.743   1.288  -2.239  1.00  0.00     0.019 A 
ATOM      3  C   UNL     1      11.990   1.207  -1.611  1.00  0.00     0.048 A 
ATOM      4  C   UNL     1      13.156   1.071  -2.369  1.00  0.00     0.123 A 
ATOM      5  C   UNL     1      13.064   1.017  -3.772  1.00  0.00    -0.008 A 
ATOM      6  C   UNL     1      14.301   0.898  -4.619  1.00  0.00     0.048 C 
ATOM      7  C   UNL     1      11.805   1.103  -4.390  1.00  0.00     0.022 A 
ENDROOT
BRANCH   1   8
ATOM      8  S   UNL     1       9.039   1.345  -4.398  1.00  0.00    -0.117 SA
BRANCH   8   9
ATOM      9  C   UNL     1       8.644   3.122  -4.084  1.00  0.00     0.094 C 
BRANCH   9  10
ATOM     10  C   UNL     1       9.629   3.718  -3.061  1.00  0.00     0.020 C 
BRANCH  10  11
ATOM     11  C   UNL     1       8.928   4.240  -1.801  1.00  0.00    -0.002 C 
ATOM     12  C   UNL     1       7.415   4.239  -1.967  1.00  0.00     0.004 C 
ENDBRANCH  10  11
ENDBRANCH   9  10
BRANCH   9  13
ATOM     13  C   UNL     1       8.628   3.859  -5.402  1.00  0.00     0.041 A 
ATOM     14  S   UNL     1      10.008   3.768  -6.429  1.00  0.00    -0.117 S 
ATOM     15  C   UNL     1       7.665   4.652  -6.011  1.00  0.00     0.053 A 
ATOM     16  C   UNL     1       9.239   4.770  -7.595  1.00  0.00     0.123 A 
ATOM     17  N   UNL     1       8.021   5.144  -7.258  1.00  0.00    -0.241 NA
ATOM     18  C   UNL     1       6.317   5.018  -5.500  1.00  0.00     0.068 C 
BRANCH  16  19
ATOM     19  C   UNL     1       9.893   5.158  -8.863  1.00  0.00     0.010 A 
ATOM     20  C   UNL     1      10.238   6.506  -9.061  1.00  0.00     0.012 A 
ATOM     21  C   UNL     1      10.202   4.251  -9.890  1.00  0.00     0.012 A 
ATOM     22  C   UNL     1      10.863   6.936 -10.236  1.00  0.00     0.014 A 
ATOM     23  C   UNL     1      10.826   4.678 -11.069  1.00  0.00     0.014 A 
ATOM     24  C   UNL     1      11.157   6.026 -11.258  1.00  0.00     0.056 A 
BRANCH  24  25
ATOM     25  C   UNL     1      11.852   6.478 -12.519  1.00  0.00     0.416 C 
ATOM     26  F   UNL     1      11.055   7.220 -13.338  1.00  0.00    -0.166 F 
ATOM     27  F   UNL     1      12.944   7.249 -12.260  1.00  0.00    -0.166 F 
ATOM     28  F   UNL     1      12.300   5.439 -13.279  1.00  0.00    -0.166 F 
ENDBRANCH  24  25
ENDBRANCH  16  19
ENDBRANCH   9  13
ENDBRANCH   8   9
ENDBRANCH   1   8
BRANCH   4  29
ATOM     29  O   UNL     1      14.424   0.985  -1.860  1.00  0.00    -0.482 OA
BRANCH  29  30
ATOM     30  C   UNL     1      15.133   2.181  -1.573  1.00  0.00     0.351 C 
BRANCH  30  31
ATOM     31  C   UNL     1      16.564   1.988  -1.095  1.00  0.00     0.341 C 
ATOM     32  O   UNL     1      17.421   1.257  -1.562  1.00  0.00    -0.248 OA
BRANCH  31  33
ATOM     33  O   UNL     1      16.844   2.746  -0.011  1.00  0.00    -0.479 OA
ATOM     34  H   UNL     1      16.444   2.244   0.732  1.00  0.00     0.296 HD
ENDBRANCH  31  33
ENDBRANCH  30  31
ENDBRANCH  29  30
ENDBRANCH   4  29
TORSDOF 11
ENDMDL
MODEL 3
REMARK VINA RESULT:    -7.403      6.942      9.746
REMARK INTER + INTRA:         -12.975
REMARK INTER:                 -11.860
REMARK INTRA:                  -1.115
REMARK UNBOUND:                -1.028
REMARK SMILES CCC[C@H](Sc1ccc(OCC(=O)O)c(C)c1)c1sc(-c2ccc(C(F)(F)F)cc2)nc1C
REMARK SMILES IDX 6 1 7 2 8 3 9 4 15 5 16 6 17 7 5 8 4 9 3 10 2 11 1 12 18 13
REMARK SMILES IDX 19 14 32 15 20 16 31 17 33 18 21 19 22 20 30 21 23 22 29 23
REMARK SMILES IDX 24 24 25 25 26 26 27 27 28 28 10 29 11 30 12 31 13 32 14 33
REMARK H PARENT 14 34
ROOT
ATOM      1  C   UNL     1      12.900  14.494  -6.502  1.00  0.00     0.008 A 
ATOM      2  C   UNL     1      13.249  15.742  -7.018  1.00  0.00     0.019 A 
ATOM      3  C   UNL     1      14.305  15.867  -7.927  1.00  0.00     0.048 A 
ATOM      4  C   UNL     1      15.020  14.740  -8.339  1.00  0.00     0.123 A 
ATOM      5  C   UNL     1      14.667  13.476  -7.832  1.00  0.00    -0.008 A 
ATOM      6  C   UNL     1      15.399  12.239  -8.275  1.00  0.00     0.048 C 
ATOM      7  C   UNL     1      13.602  13.363  -6.923  1.00  0.00     0.022 A 
ENDROOT
BRANCH   1   8
ATOM      8  S   UNL     1      11.540  14.367  -5.358  1.00  0.00    -0.117 SA
BRANCH   8   9
ATOM      9  C   UNL     1      10.137  14.081  -6.527  1.00  0.00     0.094 C 
BRANCH   9  10
ATOM     10  C   UNL     1      10.255  15.016  -7.745  1.00  0.00     0.020 C 
BRANCH  10  11
ATOM     11  C   UNL     1       8.959  15.786  -8.026  1.00  0.00    -0.002 C 
ATOM     12  C   UNL     1       8.208  15.194  -9.210  1.00  0.00     0.004 C 
ENDBRANCH  10  11
ENDBRANCH   9  10
BRANCH   9  13
ATOM     13  C   UNL     1      10.098  12.617  -6.894  1.00  0.00     0.041 A 
ATOM     14  S   UNL     1      10.284  12.164  -8.546  1.00  0.00    -0.117 S 
ATOM     15  C   UNL     1       9.934  11.471  -6.129  1.00  0.00     0.053 A 
ATOM     16  C   UNL     1      10.141  10.501  -8.133  1.00  0.00     0.123 A 
ATOM     17  N   UNL     1       9.978  10.283  -6.844  1.00  0.00    -0.241 NA
ATOM     18  C   UNL     1       9.735  11.368  -4.658  1.00  0.00     0.068 C 
BRANCH  16  19
ATOM     19  C   UNL     1      10.209   9.424  -9.144  1.00  0.00     0.010 A 
ATOM     20  C   UNL     1      10.216   9.774 -10.505  1.00  0.00     0.012 A 
ATOM     21  C   UNL     1      10.276   8.058  -8.824  1.00  0.00     0.012 A 
ATOM     22  C   UNL     1      10.283   8.803 -11.510  1.00  0.00     0.014 A 
ATOM     23  C   UNL     1      10.343   7.083  -9.827  1.00  0.00     0.014 A 
ATOM     24  C   UNL     1      10.340   7.444 -11.181  1.00  0.00     0.056 A 
BRANCH  24  25
ATOM     25  C   UNL     1      10.436   6.392 -12.257  1.00  0.00     0.416 C 
ATOM     26  F   UNL     1      11.611   6.430 -12.947  1.00  0.00    -0.166 F 
ATOM     27  F   UNL     1      10.337   5.129 -11.757  1.00  0.00    -0.166 F 
ATOM     28  F   UNL     1       9.453   6.500 -13.196  1.00  0.00    -0.166 F 
ENDBRANCH  24  25
ENDBRANCH  16  19
ENDBRANCH   9  13
ENDBRANCH   8   9
ENDBRANCH   1   8
BRANCH   4  29
ATOM     29  O   UNL     1      16.067  14.747  -9.222  1.00  0.00    -0.482 OA
BRANCH  29  30
ATOM     30  C   UNL     1      17.111  15.692  -9.043  1.00  0.00     0.351 C 
BRANCH  30  31
ATOM     31  C   UNL     1      18.293  15.204  -8.221  1.00  0.00     0.341 C 
ATOM     32  O   UNL     1      18.275  14.537  -7.199  1.00  0.00    -0.248 OA
BRANCH  31  33
ATOM     33  O   UNL     1      19.475  15.603  -8.743  1.00  0.00    -0.479 OA
ATOM     34  H   UNL     1      19.335  16.556  -8.931  1.00  0.00     0.296 HD
ENDBRANCH  31  33
ENDBRANCH  30  31
ENDBRANCH  29  30
ENDBRANCH   4  29
TORSDOF 11
ENDMDL
MODEL 4
REMARK VINA RESULT:    -7.309      7.947     10.578
REMARK INTER + INTRA:         -12.823
REMARK INTER:                 -11.930
REMARK INTRA:                  -0.893
REMARK UNBOUND:                -1.028
REMARK SMILES CCC[C@H](Sc1ccc(OCC(=O)O)c(C)c1)c1sc(-c2ccc(C(F)(F)F)cc2)nc1C
REMARK SMILES IDX 6 1 7 2 8 3 9 4 15 5 16 6 17 7 5 8 4 9 3 10 2 11 1 12 18 13
REMARK SMILES IDX 19 14 32 15 20 16 31 17 33 18 21 19 22 20 30 21 23 22 29 23
REMARK SMILES IDX 24 24 25 25 26 26 27 27 28 28 10 29 11 30 12 31 13 32 14 33
REMARK H PARENT 14 34
ROOT
ATOM      1  C   UNL     1      14.399  15.317  -7.071  1.00  0.00     0.008 A 
ATOM      2  C   UNL     1      15.051  15.137  -8.291  1.00  0.00     0.019 A 
ATOM      3  C   UNL     1      16.423  14.863  -8.331  1.00  0.00     0.048 A 
ATOM      4  C   UNL     1      17.158  14.757  -7.149  1.00  0.00     0.123 A 
ATOM      5  C   UNL     1      16.506  14.926  -5.913  1.00  0.00    -0.008 A 
ATOM      6  C   UNL     1      17.262  14.792  -4.620  1.00  0.00     0.048 C 
ATOM      7  C   UNL     1      15.127  15.196  -5.886  1.00  0.00     0.022 A 
ENDROOT
BRANCH   1   8
ATOM      8  S   UNL     1      12.649  15.649  -7.053  1.00  0.00    -0.117 SA
BRANCH   8   9
ATOM      9  C   UNL     1      12.018  14.105  -6.256  1.00  0.00     0.094 C 
BRANCH   9  10
ATOM     10  C   UNL     1      11.137  14.449  -5.042  1.00  0.00     0.020 C 
BRANCH  10  11
ATOM     11  C   UNL     1      11.260  13.420  -3.911  1.00  0.00    -0.002 C 
ATOM     12  C   UNL     1      10.506  12.140  -4.243  1.00  0.00     0.004 C 
ENDBRANCH  10  11
ENDBRANCH   9  10
BRANCH   9  13
ATOM     13  C   UNL     1      11.309  13.273  -7.298  1.00  0.00     0.041 A 
ATOM     14  S   UNL     1      11.955  11.733  -7.721  1.00  0.00    -0.117 S 
ATOM     15  C   UNL     1      10.159  13.499  -8.042  1.00  0.00     0.053 A 
ATOM     16  C   UNL     1      10.678  11.476  -8.842  1.00  0.00     0.123 A 
ATOM     17  N   UNL     1       9.809  12.465  -8.898  1.00  0.00    -0.241 NA
ATOM     18  C   UNL     1       9.269  14.690  -8.021  1.00  0.00     0.068 C 
BRANCH  16  19
ATOM     19  C   UNL     1      10.571  10.246  -9.656  1.00  0.00     0.010 A 
ATOM     20  C   UNL     1      10.828  10.325 -11.036  1.00  0.00     0.012 A 
ATOM     21  C   UNL     1      10.234   8.989  -9.128  1.00  0.00     0.012 A 
ATOM     22  C   UNL     1      10.748   9.197 -11.860  1.00  0.00     0.014 A 
ATOM     23  C   UNL     1      10.153   7.858  -9.951  1.00  0.00     0.014 A 
ATOM     24  C   UNL     1      10.402   7.951 -11.326  1.00  0.00     0.056 A 
BRANCH  24  25
ATOM     25  C   UNL     1      10.337   6.725 -12.203  1.00  0.00     0.416 C 
ATOM     26  F   UNL     1      11.559   6.302 -12.631  1.00  0.00    -0.166 F 
ATOM     27  F   UNL     1       9.774   5.661 -11.565  1.00  0.00    -0.166 F 
ATOM     28  F   UNL     1       9.596   6.918 -13.332  1.00  0.00    -0.166 F 
ENDBRANCH  24  25
ENDBRANCH  16  19
ENDBRANCH   9  13
ENDBRANCH   8   9
ENDBRANCH   1   8
BRANCH   4  29
ATOM     29  O   UNL     1      18.500  14.492  -7.072  1.00  0.00    -0.482 OA
BRANCH  29  30
ATOM     30  C   UNL     1      19.369  15.057  -8.043  1.00  0.00     0.351 C 
BRANCH  30  31
ATOM     31  C   UNL     1      20.770  14.466  -8.080  1.00  0.00     0.341 C 
ATOM     32  O   UNL     1      21.180  13.468  -7.513  1.00  0.00    -0.248 OA
BRANCH  31  33
ATOM     33  O   UNL     1      21.608  15.196  -8.851  1.00  0.00    -0.479 OA
ATOM     34  H   UNL     1      21.674  14.673  -9.679  1.00  0.00     0.296 HD
ENDBRANCH  31  33
ENDBRANCH  30  31
ENDBRANCH  29  30
ENDBRANCH   4  29
TORSDOF 11
ENDMDL
MODEL 5
REMARK VINA RESULT:    -7.138      7.255      9.458
REMARK INTER + INTRA:         -12.547
REMARK INTER:                 -11.484
REMARK INTRA:                  -1.063
REMARK UNBOUND:                -1.028
REMARK SMILES CCC[C@H](Sc1ccc(OCC(=O)O)c(C)c1)c1sc(-c2ccc(C(F)(F)F)cc2)nc1C
REMARK SMILES IDX 6 1 7 2 8 3 9 4 15 5 16 6 17 7 5 8 4 9 3 10 2 11 1 12 18 13
REMARK SMILES IDX 19 14 32 15 20 16 31 17 33 18 21 19 22 20 30 21 23 22 29 23
REMARK SMILES IDX 24 24 25 25 26 26 27 27 28 28 10 29 11 30 12 31 13 32 14 33
REMARK H PARENT 14 34
ROOT
ATOM      1  C   UNL     1      13.426  14.847  -5.653  1.00  0.00     0.008 A 
ATOM      2  C   UNL     1      12.831  14.635  -4.409  1.00  0.00     0.019 A 
ATOM      3  C   UNL     1      13.597  14.665  -3.240  1.00  0.00     0.048 A 
ATOM      4  C   UNL     1      14.969  14.918  -3.299  1.00  0.00     0.123 A 
ATOM      5  C   UNL     1      15.576  15.146  -4.548  1.00  0.00    -0.008 A 
ATOM      6  C   UNL     1      17.046  15.447  -4.646  1.00  0.00     0.048 C 
ATOM      7  C   UNL     1      14.794  15.117  -5.716  1.00  0.00     0.022 A 
ENDROOT
BRANCH   1   8
ATOM      8  S   UNL     1      12.419  14.818  -7.123  1.00  0.00    -0.117 SA
BRANCH   8   9
ATOM      9  C   UNL     1      10.811  14.237  -6.423  1.00  0.00     0.094 C 
BRANCH   9  10
ATOM     10  C   UNL     1       9.659  15.138  -6.906  1.00  0.00     0.020 C 
BRANCH  10  11
ATOM     11  C   UNL     1       9.795  15.531  -8.382  1.00  0.00    -0.002 C 
ATOM     12  C   UNL     1       8.497  15.294  -9.140  1.00  0.00     0.004 C 
ENDBRANCH  10  11
ENDBRANCH   9  10
BRANCH   9  13
ATOM     13  C   UNL     1      10.623  12.780  -6.775  1.00  0.00     0.041 A 
ATOM     14  S   UNL     1      10.767  12.292  -8.421  1.00  0.00    -0.117 S 
ATOM     15  C   UNL     1      10.339  11.666  -5.998  1.00  0.00     0.053 A 
ATOM     16  C   UNL     1      10.452  10.658  -7.991  1.00  0.00     0.123 A 
ATOM     17  N   UNL     1      10.263  10.472  -6.700  1.00  0.00    -0.241 NA
ATOM     18  C   UNL     1      10.125  11.600  -4.527  1.00  0.00     0.068 C 
BRANCH  16  19
ATOM     19  C   UNL     1      10.413   9.568  -8.989  1.00  0.00     0.010 A 
ATOM     20  C   UNL     1      10.555   9.893 -10.349  1.00  0.00     0.012 A 
ATOM     21  C   UNL     1      10.248   8.213  -8.658  1.00  0.00     0.012 A 
ATOM     22  C   UNL     1      10.531   8.908 -11.343  1.00  0.00     0.014 A 
ATOM     23  C   UNL     1      10.222   7.224  -9.651  1.00  0.00     0.014 A 
ATOM     24  C   UNL     1      10.356   7.562 -11.004  1.00  0.00     0.056 A 
BRANCH  24  25
ATOM     25  C   UNL     1      10.353   6.491 -12.066  1.00  0.00     0.416 C 
ATOM     26  F   UNL     1       9.567   6.795 -13.137  1.00  0.00    -0.166 F 
ATOM     27  F   UNL     1      11.597   6.257 -12.570  1.00  0.00    -0.166 F 
ATOM     28  F   UNL     1       9.904   5.288 -11.607  1.00  0.00    -0.166 F 
ENDBRANCH  24  25
ENDBRANCH  16  19
ENDBRANCH   9  13
ENDBRANCH   8   9
ENDBRANCH   1   8
BRANCH   4  29
ATOM     29  O   UNL     1      15.812  14.972  -2.220  1.00  0.00    -0.482 OA
BRANCH  29  30
ATOM     30  C   UNL     1      15.900  13.846  -1.360  1.00  0.00     0.351 C 
BRANCH  30  31
ATOM     31  C   UNL     1      15.459  14.090   0.075  1.00  0.00     0.341 C 
ATOM     32  O   UNL     1      14.325  14.247   0.496  1.00  0.00    -0.248 OA
BRANCH  31  33
ATOM     33  O   UNL     1      16.507  14.131   0.928  1.00  0.00    -0.479 OA
ATOM     34  H   UNL     1      17.274  14.310   0.343  1.00  0.00     0.296 HD
ENDBRANCH  31  33
ENDBRANCH  30  31
ENDBRANCH  29  30
ENDBRANCH   4  29
TORSDOF 11
ENDMDL
MODEL 6
REMARK VINA RESULT:    -7.011      6.579     10.410
REMARK INTER + INTRA:         -12.342
REMARK INTER:                 -11.814
REMARK INTRA:                  -0.528
REMARK UNBOUND:                -1.028
REMARK SMILES CCC[C@H](Sc1ccc(OCC(=O)O)c(C)c1)c1sc(-c2ccc(C(F)(F)F)cc2)nc1C
REMARK SMILES IDX 6 1 7 2 8 3 9 4 15 5 16 6 17 7 5 8 4 9 3 10 2 11 1 12 18 13
REMARK SMILES IDX 19 14 32 15 20 16 31 17 33 18 21 19 22 20 30 21 23 22 29 23
REMARK SMILES IDX 24 24 25 25 26 26 27 27 28 28 10 29 11 30 12 31 13 32 14 33
REMARK H PARENT 14 34
ROOT
ATOM      1  C   UNL     1      10.301  11.554 -10.174  1.00  0.00     0.008 A 
ATOM      2  C   UNL     1      10.340  10.203  -9.828  1.00  0.00     0.019 A 
ATOM      3  C   UNL     1      10.478   9.220 -10.814  1.00  0.00     0.048 A 
ATOM      4  C   UNL     1      10.588   9.577 -12.159  1.00  0.00     0.123 A 
ATOM      5  C   UNL     1      10.561  10.938 -12.516  1.00  0.00    -0.008 A 
ATOM      6  C   UNL     1      10.704  11.359 -13.952  1.00  0.00     0.048 C 
ATOM      7  C   UNL     1      10.427  11.917 -11.516  1.00  0.00     0.022 A 
ENDROOT
BRANCH   1   8
ATOM      8  S   UNL     1      10.141  12.782  -8.894  1.00  0.00    -0.117 SA
BRANCH   8   9
ATOM      9  C   UNL     1      11.189  12.033  -7.569  1.00  0.00     0.094 C 
BRANCH   9  10
ATOM     10  C   UNL     1      12.364  12.966  -7.222  1.00  0.00     0.020 C 
BRANCH  10  11
ATOM     11  C   UNL     1      13.728  12.346  -7.551  1.00  0.00    -0.002 C 
ATOM     12  C   UNL     1      14.762  13.417  -7.866  1.00  0.00     0.004 C 
ENDBRANCH  10  11
ENDBRANCH   9  10
BRANCH   9  13
ATOM     13  C   UNL     1      10.315  11.701  -6.383  1.00  0.00     0.041 A 
ATOM     14  S   UNL     1       8.930  10.703  -6.618  1.00  0.00    -0.117 S 
ATOM     15  C   UNL     1      10.394  12.052  -5.043  1.00  0.00     0.053 A 
ATOM     16  C   UNL     1       8.543  10.803  -4.947  1.00  0.00     0.123 A 
ATOM     17  N   UNL     1       9.394  11.522  -4.243  1.00  0.00    -0.241 NA
ATOM     18  C   UNL     1      11.415  12.904  -4.374  1.00  0.00     0.068 C 
BRANCH  16  19
ATOM     19  C   UNL     1       7.364  10.127  -4.364  1.00  0.00     0.010 A 
ATOM     20  C   UNL     1       6.426   9.539  -5.230  1.00  0.00     0.012 A 
ATOM     21  C   UNL     1       7.126  10.027  -2.983  1.00  0.00     0.012 A 
ATOM     22  C   UNL     1       5.292   8.881  -4.742  1.00  0.00     0.014 A 
ATOM     23  C   UNL     1       5.991   9.370  -2.491  1.00  0.00     0.014 A 
ATOM     24  C   UNL     1       5.058   8.796  -3.365  1.00  0.00     0.056 A 
BRANCH  24  25
ATOM     25  C   UNL     1       3.850   8.067  -2.829  1.00  0.00     0.416 C 
ATOM     26  F   UNL     1       2.979   7.677  -3.802  1.00  0.00    -0.166 F 
ATOM     27  F   UNL     1       4.187   6.935  -2.151  1.00  0.00    -0.166 F 
ATOM     28  F   UNL     1       3.119   8.820  -1.958  1.00  0.00    -0.166 F 
ENDBRANCH  24  25
ENDBRANCH  16  19
ENDBRANCH   9  13
ENDBRANCH   8   9
ENDBRANCH   1   8
BRANCH   4  29
ATOM     29  O   UNL     1      10.727   8.700 -13.202  1.00  0.00    -0.482 OA
BRANCH  29  30
ATOM     30  C   UNL     1      11.024   7.341 -12.922  1.00  0.00     0.351 C 
BRANCH  30  31
ATOM     31  C   UNL     1      12.452   7.069 -12.472  1.00  0.00     0.341 C 
ATOM     32  O   UNL     1      13.478   7.593 -12.870  1.00  0.00    -0.248 OA
BRANCH  31  33
ATOM     33  O   UNL     1      12.510   6.112 -11.519  1.00  0.00    -0.479 OA
ATOM     34  H   UNL     1      11.619   5.700 -11.550  1.00  0.00     0.296 HD
ENDBRANCH  31  33
ENDBRANCH  30  31
ENDBRANCH  29  30
ENDBRANCH   4  29
TORSDOF 11
ENDMDL
MODEL 7
REMARK VINA RESULT:    -7.003      6.262      9.902
REMARK INTER + INTRA:         -12.330
REMARK INTER:                 -11.355
REMARK INTRA:                  -0.974
REMARK UNBOUND:                -1.028
REMARK SMILES CCC[C@H](Sc1ccc(OCC(=O)O)c(C)c1)c1sc(-c2ccc(C(F)(F)F)cc2)nc1C
REMARK SMILES IDX 6 1 7 2 8 3 9 4 15 5 16 6 17 7 5 8 4 9 3 10 2 11 1 12 18 13
REMARK SMILES IDX 19 14 32 15 20 16 31 17 33 18 21 19 22 20 30 21 23 22 29 23
REMARK SMILES IDX 24 24 25 25 26 26 27 27 28 28 10 29 11 30 12 31 13 32 14 33
REMARK H PARENT 14 34
ROOT
ATOM      1  C   UNL     1      10.359   6.968  -9.269  1.00  0.00     0.008 A 
ATOM      2  C   UNL     1      10.059   8.269  -8.866  1.00  0.00     0.019 A 
ATOM      3  C   UNL     1       9.821   9.270  -9.814  1.00  0.00     0.048 A 
ATOM      4  C   UNL     1       9.870   8.979 -11.179  1.00  0.00     0.123 A 
ATOM      5  C   UNL     1      10.161   7.666 -11.594  1.00  0.00    -0.008 A 
ATOM      6  C   UNL     1      10.196   7.312 -13.055  1.00  0.00     0.048 C 
ATOM      7  C   UNL     1      10.394   6.668 -10.632  1.00  0.00     0.022 A 
ENDROOT
BRANCH   1   8
ATOM      8  S   UNL     1      10.642   5.712  -8.038  1.00  0.00    -0.117 SA
BRANCH   8   9
ATOM      9  C   UNL     1       9.086   4.726  -8.193  1.00  0.00     0.094 C 
BRANCH   9  10
ATOM     10  C   UNL     1       9.374   3.373  -8.870  1.00  0.00     0.020 C 
BRANCH  10  11
ATOM     11  C   UNL     1       9.464   3.483 -10.397  1.00  0.00    -0.002 C 
ATOM     12  C   UNL     1      10.877   3.205 -10.890  1.00  0.00     0.004 C 
ENDBRANCH  10  11
ENDBRANCH   9  10
BRANCH   9  13
ATOM     13  C   UNL     1       8.454   4.593  -6.829  1.00  0.00     0.041 A 
ATOM     14  S   UNL     1       7.001   5.456  -6.492  1.00  0.00    -0.117 S 
ATOM     15  C   UNL     1       8.818   3.868  -5.702  1.00  0.00     0.053 A 
ATOM     16  C   UNL     1       6.956   4.812  -4.899  1.00  0.00     0.123 A 
ATOM     17  N   UNL     1       7.950   3.991  -4.627  1.00  0.00    -0.241 NA
ATOM     18  C   UNL     1       9.999   2.982  -5.520  1.00  0.00     0.068 C 
BRANCH  16  19
ATOM     19  C   UNL     1       5.885   5.149  -3.937  1.00  0.00     0.010 A 
ATOM     20  C   UNL     1       6.079   4.847  -2.578  1.00  0.00     0.012 A 
ATOM     21  C   UNL     1       4.677   5.765  -4.300  1.00  0.00     0.012 A 
ATOM     22  C   UNL     1       5.106   5.143  -1.617  1.00  0.00     0.014 A 
ATOM     23  C   UNL     1       3.700   6.063  -3.341  1.00  0.00     0.014 A 
ATOM     24  C   UNL     1       3.901   5.749  -1.990  1.00  0.00     0.056 A 
BRANCH  24  25
ATOM     25  C   UNL     1       2.857   6.094  -0.958  1.00  0.00     0.416 C 
ATOM     26  F   UNL     1       1.873   5.158  -0.851  1.00  0.00    -0.166 F 
ATOM     27  F   UNL     1       3.387   6.224   0.290  1.00  0.00    -0.166 F 
ATOM     28  F   UNL     1       2.221   7.272  -1.218  1.00  0.00    -0.166 F 
ENDBRANCH  24  25
ENDBRANCH  16  19
ENDBRANCH   9  13
ENDBRANCH   8   9
ENDBRANCH   1   8
BRANCH   4  29
ATOM     29  O   UNL     1       9.653   9.879 -12.188  1.00  0.00    -0.482 OA
BRANCH  29  30
ATOM     30  C   UNL     1      10.658  10.838 -12.482  1.00  0.00     0.351 C 
BRANCH  30  31
ATOM     31  C   UNL     1      11.562  10.490 -13.655  1.00  0.00     0.341 C 
ATOM     32  O   UNL     1      11.359  10.678 -14.843  1.00  0.00    -0.248 OA
BRANCH  31  33
ATOM     33  O   UNL     1      12.708   9.896 -13.254  1.00  0.00    -0.479 OA
ATOM     34  H   UNL     1      13.299   9.985 -14.032  1.00  0.00     0.296 HD
ENDBRANCH  31  33
ENDBRANCH  30  31
ENDBRANCH  29  30
ENDBRANCH   4  29
TORSDOF 11
ENDMDL
MODEL 8
REMARK VINA RESULT:    -6.990      3.954      5.968
REMARK INTER + INTRA:         -12.308
REMARK INTER:                 -11.710
REMARK INTRA:                  -0.598
REMARK UNBOUND:                -1.028
REMARK SMILES CCC[C@H](Sc1ccc(OCC(=O)O)c(C)c1)c1sc(-c2ccc(C(F)(F)F)cc2)nc1C
REMARK SMILES IDX 6 1 7 2 8 3 9 4 15 5 16 6 17 7 5 8 4 9 3 10 2 11 1 12 18 13
REMARK SMILES IDX 19 14 32 15 20 16 31 17 33 18 21 19 22 20 30 21 23 22 29 23
REMARK SMILES IDX 24 24 25 25 26 26 27 27 28 28 10 29 11 30 12 31 13 32 14 33
REMARK H PARENT 14 34
ROOT
ATOM      1  C   UNL     1       8.701  10.824  -4.446  1.00  0.00     0.008 A 
ATOM      2  C   UNL     1       7.884  10.633  -5.560  1.00  0.00     0.019 A 
ATOM      3  C   UNL     1       6.563  10.198  -5.408  1.00  0.00     0.048 A 
ATOM      4  C   UNL     1       6.039   9.957  -4.135  1.00  0.00     0.123 A 
ATOM      5  C   UNL     1       6.853  10.159  -3.005  1.00  0.00    -0.008 A 
ATOM      6  C   UNL     1       6.313   9.935  -1.620  1.00  0.00     0.048 C 
ATOM      7  C   UNL     1       8.177  10.601  -3.171  1.00  0.00     0.022 A 
ENDROOT
BRANCH   1   8
ATOM      8  S   UNL     1      10.373  11.395  -4.672  1.00  0.00    -0.117 SA
BRANCH   8   9
ATOM      9  C   UNL     1      10.080  12.920  -5.675  1.00  0.00     0.094 C 
BRANCH   9  10
ATOM     10  C   UNL     1      11.086  14.018  -5.286  1.00  0.00     0.020 C 
BRANCH  10  11
ATOM     11  C   UNL     1      11.737  13.767  -3.920  1.00  0.00    -0.002 C 
ATOM     12  C   UNL     1      12.845  14.773  -3.640  1.00  0.00     0.004 C 
ENDBRANCH  10  11
ENDBRANCH   9  10
BRANCH   9  13
ATOM     13  C   UNL     1      10.122  12.557  -7.140  1.00  0.00     0.041 A 
ATOM     14  S   UNL     1      10.510  10.940  -7.590  1.00  0.00    -0.117 S 
ATOM     15  C   UNL     1       9.897  13.303  -8.289  1.00  0.00     0.053 A 
ATOM     16  C   UNL     1      10.349  11.337  -9.255  1.00  0.00     0.123 A 
ATOM     17  N   UNL     1      10.013  12.592  -9.474  1.00  0.00    -0.241 NA
ATOM     18  C   UNL     1       9.540  14.743  -8.395  1.00  0.00     0.068 C 
BRANCH  16  19
ATOM     19  C   UNL     1      10.559  10.346 -10.331  1.00  0.00     0.010 A 
ATOM     20  C   UNL     1      10.251   8.998 -10.077  1.00  0.00     0.012 A 
ATOM     21  C   UNL     1      11.043  10.672 -11.608  1.00  0.00     0.012 A 
ATOM     22  C   UNL     1      10.424   8.012 -11.055  1.00  0.00     0.014 A 
ATOM     23  C   UNL     1      11.218   9.687 -12.590  1.00  0.00     0.014 A 
ATOM     24  C   UNL     1      10.917   8.345 -12.321  1.00  0.00     0.056 A 
BRANCH  24  25
ATOM     25  C   UNL     1      11.083   7.293 -13.388  1.00  0.00     0.416 C 
ATOM     26  F   UNL     1      11.254   7.811 -14.637  1.00  0.00    -0.166 F 
ATOM     27  F   UNL     1      12.162   6.493 -13.163  1.00  0.00    -0.166 F 
ATOM     28  F   UNL     1      10.011   6.455 -13.480  1.00  0.00    -0.166 F 
ENDBRANCH  24  25
ENDBRANCH  16  19
ENDBRANCH   9  13
ENDBRANCH   8   9
ENDBRANCH   1   8
BRANCH   4  29
ATOM     29  O   UNL     1       4.765   9.532  -3.872  1.00  0.00    -0.482 OA
BRANCH  29  30
ATOM     30  C   UNL     1       4.350   8.262  -4.354  1.00  0.00     0.351 C 
BRANCH  30  31
ATOM     31  C   UNL     1       3.616   8.284  -5.686  1.00  0.00     0.341 C 
ATOM     32  O   UNL     1       3.297   9.253  -6.354  1.00  0.00    -0.248 OA
BRANCH  31  33
ATOM     33  O   UNL     1       3.307   7.039  -6.116  1.00  0.00    -0.479 OA
ATOM     34  H   UNL     1       2.815   6.650  -5.360  1.00  0.00     0.296 HD
ENDBRANCH  31  33
ENDBRANCH  30  31
ENDBRANCH  29  30
ENDBRANCH   4  29
TORSDOF 11
ENDMDL
MODEL 9
REMARK VINA RESULT:    -6.647      7.809      9.849
REMARK INTER + INTRA:         -11.755
REMARK INTER:                 -10.917
REMARK INTRA:                  -0.838
REMARK UNBOUND:                -1.028
REMARK SMILES CCC[C@H](Sc1ccc(OCC(=O)O)c(C)c1)c1sc(-c2ccc(C(F)(F)F)cc2)nc1C
REMARK SMILES IDX 6 1 7 2 8 3 9 4 15 5 16 6 17 7 5 8 4 9 3 10 2 11 1 12 18 13
REMARK SMILES IDX 19 14 32 15 20 16 31 17 33 18 21 19 22 20 30 21 23 22 29 23
REMARK SMILES IDX 24 24 25 25 26 26 27 27 28 28 10 29 11 30 12 31 13 32 14 33
REMARK H PARENT 14 34
ROOT
ATOM      1  C   UNL     1      14.268  15.323  -5.785  1.00  0.00     0.008 A 
ATOM      2  C   UNL     1      15.489  15.294  -6.459  1.00  0.00     0.019 A 
ATOM      3  C   UNL     1      16.694  15.320  -5.750  1.00  0.00     0.048 A 
ATOM      4  C   UNL     1      16.693  15.365  -4.355  1.00  0.00     0.123 A 
ATOM      5  C   UNL     1      15.467  15.383  -3.666  1.00  0.00    -0.008 A 
ATOM      6  C   UNL     1      15.429  15.406  -2.163  1.00  0.00     0.048 C 
ATOM      7  C   UNL     1      14.262  15.352  -4.390  1.00  0.00     0.022 A 
ENDROOT
BRANCH   1   8
ATOM      8  S   UNL     1      12.751  15.272  -6.716  1.00  0.00    -0.117 SA
BRANCH   8   9
ATOM      9  C   UNL     1      12.009  13.706  -6.075  1.00  0.00     0.094 C 
BRANCH   9  10
ATOM     10  C   UNL     1      11.064  14.003  -4.896  1.00  0.00     0.020 C 
BRANCH  10  11
ATOM     11  C   UNL     1      10.971  12.837  -3.904  1.00  0.00    -0.002 C 
ATOM     12  C   UNL     1      10.155  11.687  -4.476  1.00  0.00     0.004 C 
ENDBRANCH  10  11
ENDBRANCH   9  10
BRANCH   9  13
ATOM     13  C   UNL     1      11.336  12.980  -7.216  1.00  0.00     0.041 A 
ATOM     14  S   UNL     1      11.940  11.441  -7.700  1.00  0.00    -0.117 S 
ATOM     15  C   UNL     1      10.253  13.311  -8.017  1.00  0.00     0.053 A 
ATOM     16  C   UNL     1      10.734  11.323  -8.919  1.00  0.00     0.123 A 
ATOM     17  N   UNL     1       9.916  12.355  -8.963  1.00  0.00    -0.241 NA
ATOM     18  C   UNL     1       9.418  14.542  -7.973  1.00  0.00     0.068 C 
BRANCH  16  19
ATOM     19  C   UNL     1      10.629  10.155  -9.821  1.00  0.00     0.010 A 
ATOM     20  C   UNL     1      10.311   8.902  -9.269  1.00  0.00     0.012 A 
ATOM     21  C   UNL     1      10.822  10.224 -11.210  1.00  0.00     0.012 A 
ATOM     22  C   UNL     1      10.192   7.760 -10.068  1.00  0.00     0.014 A 
ATOM     23  C   UNL     1      10.705   9.082 -12.013  1.00  0.00     0.014 A 
ATOM     24  C   UNL     1      10.396   7.836 -11.450  1.00  0.00     0.056 A 
BRANCH  24  25
ATOM     25  C   UNL     1      10.247   6.615 -12.322  1.00  0.00     0.416 C 
ATOM     26  F   UNL     1       9.413   6.806 -13.383  1.00  0.00    -0.166 F 
ATOM     27  F   UNL     1      11.435   6.207 -12.849  1.00  0.00    -0.166 F 
ATOM     28  F   UNL     1       9.749   5.539 -11.649  1.00  0.00    -0.166 F 
ENDBRANCH  24  25
ENDBRANCH  16  19
ENDBRANCH   9  13
ENDBRANCH   8   9
ENDBRANCH   1   8
BRANCH   4  29
ATOM     29  O   UNL     1      17.811  15.393  -3.563  1.00  0.00    -0.482 OA
BRANCH  29  30
ATOM     30  C   UNL     1      18.709  14.294  -3.602  1.00  0.00     0.351 C 
BRANCH  30  31
ATOM     31  C   UNL     1      18.566  13.299  -2.461  1.00  0.00     0.341 C 
ATOM     32  O   UNL     1      18.656  12.084  -2.506  1.00  0.00    -0.248 OA
BRANCH  31  33
ATOM     33  O   UNL     1      18.300  13.911  -1.284  1.00  0.00    -0.479 OA
ATOM     34  H   UNL     1      19.191  14.110  -0.921  1.00  0.00     0.296 HD
ENDBRANCH  31  33
ENDBRANCH  30  31
ENDBRANCH  29  30
ENDBRANCH   4  29
TORSDOF 11
ENDMDL
