REMARK VINA RESULT:    -6.622      2.373      4.008
REMARK INTER + INTRA:         -14.532
REMARK INTER:                 -13.120
REMARK INTRA:                  -1.412
REMARK UNBOUND:                -0.749
REMARK SMILES N=C(N)NCCC[C@H](NC(=O)CN1CCCC[C@H](NS(=O)(=O)Cc2ccccc2)C1=O)C(=O)O
REMARK SMILES IDX 12 1 10 2 9 3 11 4 8 6 7 7 6 8 5 9 4 10 1 11 2 12 3 13 32 18
REMARK SMILES IDX 33 19 34 20 13 22 14 23 30 25 31 26 18 27 17 28 16 29 15 30
REMARK SMILES IDX 19 32 20 34 21 35 22 36 23 37 24 38 25 39 29 40 26 41 28 42
REMARK SMILES IDX 27 43
REMARK H PARENT 9 5 1 14 3 15 3 16 4 17 34 21 19 33
REMARK Flexibility Score:  298.900
ROOT
ATOM      1  C   UNL     1      -1.450  10.523  21.327  1.00  0.00     0.219 C 
ENDROOT
BRANCH   1   2
ATOM      2  C   UNL     1      -1.046  11.082  22.702  1.00  0.00     0.240 C 
ATOM      3  N   UNL     1      -1.611  10.394  23.756  1.00  0.00    -0.341 N 
ATOM      4  O   UNL     1      -0.298  12.047  22.856  1.00  0.00    -0.273 OA
ATOM      5  H   UNL     1      -2.193   9.578  23.581  1.00  0.00     0.164 HD
BRANCH   3   6
ATOM      6  C   UNL     1      -1.348  10.727  25.163  1.00  0.00     0.192 C 
BRANCH   6   7
ATOM      7  C   UNL     1      -2.617  11.270  25.837  1.00  0.00     0.039 C 
BRANCH   7   8
ATOM      8  C   UNL     1      -3.489  12.210  24.986  1.00  0.00     0.024 C 
BRANCH   8   9
ATOM      9  C   UNL     1      -4.236  13.308  25.747  1.00  0.00     0.116 C 
BRANCH   9  10
ATOM     10  N   UNL     1      -5.162  13.996  24.884  1.00  0.00    -0.357 N 
ATOM     11  N   UNL     1      -6.551  12.239  24.161  1.00  0.00    -0.270 NA
ATOM     12  C   UNL     1      -6.283  13.476  24.353  1.00  0.00     0.185 C 
ATOM     13  N   UNL     1      -7.175  14.428  24.046  1.00  0.00    -0.370 N 
ATOM     14  H   UNL     1      -5.743  11.682  24.442  1.00  0.00     0.191 HD
ATOM     15  H   UNL     1      -8.055  14.103  23.666  1.00  0.00     0.159 HD
ATOM     16  H   UNL     1      -7.195  15.282  24.597  1.00  0.00     0.159 HD
ATOM     17  H   UNL     1      -4.987  14.971  24.671  1.00  0.00     0.163 HD
ENDBRANCH   9  10
ENDBRANCH   8   9
ENDBRANCH   7   8
ENDBRANCH   6   7
BRANCH   6  18
ATOM     18  C   UNL     1      -0.885   9.439  25.840  1.00  0.00     0.326 C 
ATOM     19  O   UNL     1       0.100   8.783  25.524  1.00  0.00    -0.250 OA
BRANCH  18  20
ATOM     20  O   UNL     1      -1.677   9.042  26.852  1.00  0.00    -0.480 OA
ATOM     21  H   UNL     1      -2.577   9.334  26.592  1.00  0.00     0.296 HD
ENDBRANCH  18  20
ENDBRANCH   6  18
ENDBRANCH   3   6
ENDBRANCH   1   2
BRANCH   1  22
ATOM     22  N   UNL     1      -2.611  11.222  20.778  1.00  0.00    -0.332 N 
BRANCH  22  23
ATOM     23  C   UNL     1      -2.410  12.032  19.580  1.00  0.00     0.120 CG0
ATOM     24  G   UNL     1      -2.781  13.494  19.809  1.00  0.00     0.000 G0
ENDBRANCH  22  23
BRANCH  22  25
ATOM     25  C   UNL     1      -3.856  10.946  21.316  1.00  0.00     0.241 C 
ATOM     26  O   UNL     1      -4.021  10.066  22.166  1.00  0.00    -0.273 OA
BRANCH  25  27
ATOM     27  C   UNL     1      -5.048  11.765  20.798  1.00  0.00     0.158 C 
BRANCH  27  28
ATOM     28  C   UNL     1      -4.909  13.235  21.197  1.00  0.00     0.030 C 
BRANCH  28  29
ATOM     29  C   UNL     1      -3.471  13.748  21.124  1.00  0.00     0.004 C 
BRANCH  29  30
ATOM     30  C   UNL     1      -2.765  13.500  19.792  1.00  0.00     0.022 CG0
ATOM     31  G   UNL     1      -2.393  12.040  19.556  1.00  0.00     0.000 G0
ENDBRANCH  29  30
ENDBRANCH  28  29
ENDBRANCH  27  28
BRANCH  27  32
ATOM     32  N   UNL     1      -6.282  11.222  21.419  1.00  0.00    -0.202 NA
ATOM     33  H   UNL     1      -6.109  10.602  22.223  1.00  0.00     0.141 HD
BRANCH  32  34
ATOM     34  S   UNL     1      -7.526  10.731  20.413  1.00  0.00     0.216 S 
ATOM     35  O   UNL     1      -8.061   9.506  20.969  1.00  0.00    -0.212 OA
ATOM     36  O   UNL     1      -8.384  11.882  20.215  1.00  0.00    -0.212 OA
BRANCH  34  37
ATOM     37  C   UNL     1      -6.730  10.376  18.834  1.00  0.00     0.189 C 
BRANCH  37  38
ATOM     38  C   UNL     1      -6.381   8.918  18.703  1.00  0.00    -0.032 A 
ATOM     39  C   UNL     1      -7.340   7.986  18.279  1.00  0.00     0.005 A 
ATOM     40  C   UNL     1      -5.081   8.467  18.976  1.00  0.00     0.005 A 
ATOM     41  C   UNL     1      -7.007   6.638  18.137  1.00  0.00     0.000 A 
ATOM     42  C   UNL     1      -4.750   7.118  18.838  1.00  0.00     0.000 A 
ATOM     43  C   UNL     1      -5.713   6.204  18.417  1.00  0.00     0.000 A 
ENDBRANCH  37  38
ENDBRANCH  34  37
ENDBRANCH  32  34
ENDBRANCH  27  32
ENDBRANCH  25  27
ENDBRANCH  22  25
ENDBRANCH   1  22
TORSDOF 13
