MODEL 9
REMARK VINA RESULT:    -7.726      3.303     10.372
REMARK INTER + INTRA:         -12.675
REMARK INTER:                 -12.538
REMARK INTRA:                  -0.137
REMARK UNBOUND:                -0.433
REMARK SMILES Cc1ccc(Cn2nc(CCCc3ccc(OC(C)(C)C(=O)O)cc3)nc2O)cc1
REMARK SMILES IDX 12 1 11 2 10 3 9 4 7 5 8 6 27 7 26 8 6 9 5 10 2 11 3 12
REMARK SMILES IDX 30 13 4 14 29 15 1 16 28 17 13 19 14 20 25 21 15 22 24 23
REMARK SMILES IDX 16 24 17 25 18 26 19 27 20 28 21 29 22 30 23 31
REMARK H PARENT 28 18 23 32
ROOT
ATOM      1  C   UNL     1       7.665   4.811  -7.378  1.00  0.00     0.036 C 
ENDROOT
BRANCH   1   2
ATOM      2  C   UNL     1       9.106   4.974  -6.883  1.00  0.00     0.013 C 
BRANCH   2   3
ATOM      3  C   UNL     1       9.873   6.054  -7.646  1.00  0.00     0.080 C 
BRANCH   3   4
ATOM      4  C   UNL     1      10.402   5.584  -8.952  1.00  0.00     0.154 A 
ATOM      5  N   UNL     1      11.404   5.517 -10.777  1.00  0.00    -0.211 N 
ATOM      6  N   UNL     1      11.160   6.357  -9.744  1.00  0.00    -0.153 NA
ATOM      7  C   UNL     1      10.763   4.331 -10.583  1.00  0.00     0.312 A 
ATOM      8  N   UNL     1      10.127   4.329  -9.444  1.00  0.00    -0.179 NA
BRANCH   5   9
ATOM      9  C   UNL     1      12.191   5.925 -11.921  1.00  0.00     0.185 C 
BRANCH   9  10
ATOM     10  C   UNL     1      11.739   7.261 -12.453  1.00  0.00    -0.026 A 
ATOM     11  C   UNL     1      10.896   9.740 -13.496  1.00  0.00    -0.051 A 
ATOM     12  C   UNL     1       9.960   8.815 -13.018  1.00  0.00     0.004 A 
ATOM     13  C   UNL     1      12.258   9.423 -13.434  1.00  0.00     0.004 A 
ATOM     14  C   UNL     1      10.377   7.584 -12.508  1.00  0.00     0.006 A 
ATOM     15  C   UNL     1      12.676   8.192 -12.926  1.00  0.00     0.006 A 
ATOM     16  C   UNL     1      10.448  11.072 -14.019  1.00  0.00     0.044 C 
ENDBRANCH   9  10
ENDBRANCH   5   9
BRANCH   7  17
ATOM     17  O   UNL     1      10.757   3.310 -11.415  1.00  0.00    -0.479 OA
ATOM     18  H   UNL     1      10.415   3.721 -12.229  1.00  0.00     0.297 HD
ENDBRANCH   7  17
ENDBRANCH   3   4
ENDBRANCH   2   3
ENDBRANCH   1   2
BRANCH   1  19
ATOM     19  C   UNL     1       6.699   5.598  -6.527  1.00  0.00    -0.048 A 
ATOM     20  C   UNL     1       6.714   7.000  -6.548  1.00  0.00     0.007 A 
ATOM     21  C   UNL     1       5.783   4.939  -5.698  1.00  0.00     0.007 A 
ATOM     22  C   UNL     1       5.832   7.728  -5.745  1.00  0.00     0.047 A 
ATOM     23  C   UNL     1       4.901   5.671  -4.899  1.00  0.00     0.047 A 
ATOM     24  C   UNL     1       4.954   7.064  -4.897  1.00  0.00     0.121 A 
BRANCH  24  25
ATOM     25  O   UNL     1       4.051   7.752  -4.135  1.00  0.00    -0.476 OA
BRANCH  25  26
ATOM     26  C   UNL     1       4.413   7.944  -2.752  1.00  0.00     0.199 C 
ATOM     27  C   UNL     1       3.074   8.246  -2.053  1.00  0.00     0.069 C 
ATOM     28  C   UNL     1       5.004   6.673  -2.115  1.00  0.00     0.069 C 
BRANCH  26  29
ATOM     29  C   UNL     1       5.298   9.182  -2.492  1.00  0.00     0.347 C 
ATOM     30  O   UNL     1       5.470  10.138  -3.235  1.00  0.00    -0.248 OA
BRANCH  29  31
ATOM     31  O   UNL     1       5.864   9.202  -1.265  1.00  0.00    -0.478 OA
ATOM     32  H   UNL     1       5.590   8.346  -0.871  1.00  0.00     0.296 HD
ENDBRANCH  29  31
ENDBRANCH  26  29
ENDBRANCH  25  26
ENDBRANCH  24  25
ENDBRANCH   1  19
TORSDOF 11
ENDMDL
