REMARK SMILES COc1cccc2cc(C(=O)NCCCCCCNc3c4c(nc5ccccc35)CCCC4)oc12
REMARK SMILES IDX 14 1 13 2 12 3 10 4 11 5 9 7 3 8 4 9 35 10 5 11 34 12 7 13
REMARK SMILES IDX 6 14 8 15 2 16 1 17 15 18 16 19 17 20 18 21 19 22 20 24
REMARK SMILES IDX 21 25 29 26 22 27 33 28 28 29 24 30 23 31 30 32 32 33 27 34
REMARK SMILES IDX 25 35 31 36 26 37
REMARK H PARENT 12 6 19 23
REMARK INDEX MAP 14 1 13 2 12 3 10 4 11 5 43 6 9 7 3 8 4 9 35 10 5 11 34 12
REMARK INDEX MAP 7 13 6 14 8 15 2 16 1 17 15 18 16 19 17 20 18 21 19 22 56 23
REMARK INDEX MAP 20 24 21 25 29 26 22 27 33 28 28 29 24 30 23 31 30 32 32 33
REMARK INDEX MAP 27 34 25 35 31 36 26 37
ROOT
ATOM      1  C   UNL     1     138.793 108.520  40.488  1.00  0.00     0.021 C 
ENDROOT
BRANCH   1   2
ATOM      2  C   UNL     1     138.924 109.639  39.454  1.00  0.00     0.116 C 
BRANCH   2   3
ATOM      3  N   UNL     1     139.347 110.889  40.041  1.00  0.00    -0.349 N 
ATOM      4  C   UNL     1     139.714 111.986  39.293  1.00  0.00     0.287 C 
ATOM      5  O   UNL     1     139.693 111.991  38.065  1.00  0.00    -0.266 OA
ATOM      6  H   UNL     1     139.376 110.964  41.068  1.00  0.00     0.163 HD
BRANCH   4   7
ATOM      7  C   UNL     1     140.130 113.120  40.091  1.00  0.00     0.192 A 
ATOM      8  C   UNL     1     139.234 116.109  41.812  1.00  0.00     0.162 A 
ATOM      9  C   UNL     1     140.100 116.960  42.518  1.00  0.00     0.050 A 
ATOM     10  C   UNL     1     139.838 114.992  41.221  1.00  0.00     0.176 A 
ATOM     11  C   UNL     1     141.472 116.693  42.613  1.00  0.00     0.005 A 
ATOM     12  O   UNL     1     139.192 114.036  40.490  1.00  0.00    -0.447 OA
ATOM     13  C   UNL     1     141.194 114.695  41.296  1.00  0.00     0.025 A 
ATOM     14  C   UNL     1     142.036 115.562  42.009  1.00  0.00     0.012 A 
ATOM     15  C   UNL     1     141.373 113.489  40.569  1.00  0.00     0.065 A 
BRANCH   8  16
ATOM     16  O   UNL     1     137.887 116.274  41.660  1.00  0.00    -0.493 OA
ATOM     17  C   UNL     1     137.459 117.155  40.631  1.00  0.00     0.278 C 
ENDBRANCH   8  16
ENDBRANCH   4   7
ENDBRANCH   2   3
ENDBRANCH   1   2
BRANCH   1  18
ATOM     18  C   UNL     1     137.398 108.368  41.104  1.00  0.00     0.002 C 
BRANCH  18  19
ATOM     19  C   UNL     1     137.115 109.370  42.225  1.00  0.00     0.002 C 
BRANCH  19  20
ATOM     20  C   UNL     1     135.988 110.334  41.835  1.00  0.00     0.021 C 
BRANCH  20  21
ATOM     21  C   UNL     1     136.152 111.715  42.473  1.00  0.00     0.113 C 
BRANCH  21  22
ATOM     22  N   UNL     1     136.559 112.690  41.466  1.00  0.00    -0.384 N 
ATOM     23  H   UNL     1     137.551 112.893  41.278  1.00  0.00     0.160 HD
BRANCH  22  24
ATOM     24  C   UNL     1     135.524 113.339  40.765  1.00  0.00     0.049 A 
ATOM     25  C   UNL     1     135.303 113.034  39.407  1.00  0.00    -0.003 A 
ATOM     26  C   UNL     1     134.748 114.354  41.387  1.00  0.00     0.024 A 
ATOM     27  C   UNL     1     134.301 113.739  38.735  1.00  0.00     0.046 A 
ATOM     28  C   UNL     1     136.080 111.942  38.709  1.00  0.00     0.039 C 
ATOM     29  C   UNL     1     134.866 114.709  42.754  1.00  0.00     0.012 A 
ATOM     30  C   UNL     1     133.786 115.017  40.602  1.00  0.00     0.073 A 
ATOM     31  N   UNL     1     133.572 114.723  39.313  1.00  0.00    -0.252 NA
ATOM     32  C   UNL     1     133.996 113.494  37.280  1.00  0.00     0.056 C 
ATOM     33  C   UNL     1     135.948 111.953  37.186  1.00  0.00     0.005 C 
ATOM     34  C   UNL     1     134.080 115.714  43.315  1.00  0.00     0.001 A 
ATOM     35  C   UNL     1     133.016 116.018  41.181  1.00  0.00     0.029 A 
ATOM     36  C   UNL     1     134.496 112.145  36.778  1.00  0.00     0.007 C 
ATOM     37  C   UNL     1     133.154 116.375  42.524  1.00  0.00     0.002 A 
ENDBRANCH  22  24
ENDBRANCH  21  22
ENDBRANCH  20  21
ENDBRANCH  19  20
ENDBRANCH  18  19
ENDBRANCH   1  18
TORSDOF 10
