MODEL 1
REMARK VINA RESULT:    -9.004      0.000      0.000
REMARK INTER + INTRA:         -14.169
REMARK INTER:                 -13.216
REMARK INTRA:                  -0.953
REMARK UNBOUND:                -0.953
REMARK SMILES N=C1N=C(NCCS(=O)(=O)O)/C(=C/[C@H](O)CNC(=O)c2cc(Br)c(Br)[nH]2)N1
REMARK SMILES IDX 1 1 2 2 3 3 4 4 5 5 12 6 13 7 27 8 6 12 7 13 8 14 9 15 10 16
REMARK SMILES IDX 11 17 14 19 15 20 16 22 17 23 18 24 19 25 20 27 21 28 26 29
REMARK SMILES IDX 22 30 24 31 23 33 25 34
REMARK H PARENT 1 9 5 10 27 11 11 18 15 21 17 26 26 32
ROOT
ATOM      1  N   UNL     1      15.820  35.869   9.884  1.00  0.00    -0.267 NA
ATOM      2  C   UNL     1      16.489  34.782   9.949  1.00  0.00     0.221 C 
ATOM      3  N   UNL     1      16.172  33.767   9.076  1.00  0.00    -0.194 NA
ATOM      4  C   UNL     1      16.999  32.783   9.377  1.00  0.00     0.153 C 
ATOM      5  N   UNL     1      17.013  31.576   8.732  1.00  0.00    -0.367 N 
ATOM      6  C   UNL     1      17.914  33.188  10.517  1.00  0.00     0.083 C 
ATOM      7  C   UNL     1      18.853  32.419  11.079  1.00  0.00     0.036 C 
ATOM      8  N   UNL     1      17.503  34.455  10.781  1.00  0.00    -0.322 N 
ATOM      9  H   UNL     1      15.143  35.711   9.129  1.00  0.00     0.191 HD
ATOM     10  H   UNL     1      17.673  30.864   9.022  1.00  0.00     0.162 HD
ATOM     11  H   UNL     1      17.848  35.054  11.522  1.00  0.00     0.170 HD
ENDROOT
BRANCH   5  12
ATOM     12  C   UNL     1      16.083  31.216   7.673  1.00  0.00     0.133 C 
BRANCH  12  13
ATOM     13  C   UNL     1      16.732  30.292   6.663  1.00  0.00     0.188 C 
BRANCH  13  14
ATOM     14  S   UNL     1      16.161  28.621   6.874  1.00  0.00     0.266 S 
ATOM     15  O   UNL     1      15.926  28.368   8.277  1.00  0.00    -0.200 OA
ATOM     16  O   UNL     1      15.181  28.310   5.859  1.00  0.00    -0.200 OA
BRANCH  14  17
ATOM     17  O   UNL     1      17.528  27.842   6.514  1.00  0.00    -0.285 OA
ATOM     18  H   UNL     1      18.282  28.383   6.836  1.00  0.00     0.234 HD
ENDBRANCH  14  17
ENDBRANCH  13  14
ENDBRANCH  12  13
ENDBRANCH   5  12
BRANCH   7  19
ATOM     19  C   UNL     1      19.741  32.906  12.179  1.00  0.00     0.158 C 
BRANCH  19  20
ATOM     20  O   UNL     1      21.090  32.641  11.790  1.00  0.00    -0.387 OA
ATOM     21  H   UNL     1      21.643  32.845  12.565  1.00  0.00     0.211 HD
ENDBRANCH  19  20
BRANCH  19  22
ATOM     22  C   UNL     1      19.447  32.218  13.530  1.00  0.00     0.152 C 
BRANCH  22  23
ATOM     23  N   UNL     1      19.111  33.173  14.576  1.00  0.00    -0.348 N 
ATOM     24  C   UNL     1      17.837  33.690  14.668  1.00  0.00     0.267 C 
ATOM     25  O   UNL     1      16.972  33.427  13.835  1.00  0.00    -0.268 OA
ATOM     26  H   UNL     1      19.790  33.370  15.297  1.00  0.00     0.163 HD
BRANCH  24  27
ATOM     27  C   UNL     1      17.591  34.560  15.792  1.00  0.00     0.106 A 
ATOM     28  C   UNL     1      18.424  35.373  16.551  1.00  0.00     0.050 A 
ATOM     29  N   UNL     1      16.320  34.709  16.316  1.00  0.00    -0.344 N 
ATOM     30  C   UNL     1      17.627  36.005  17.532  1.00  0.00     0.050 A 
ATOM     31  C   UNL     1      16.337  35.581  17.366  1.00  0.00     0.097 A 
ATOM     32  H   UNL     1      15.499  34.230  15.962  1.00  0.00     0.167 HD
ATOM     33  Br  UNL     1      18.316  37.205  18.797  1.00  0.00    -0.048 Br
ATOM     34  Br  UNL     1      14.804  36.072  18.372  1.00  0.00    -0.030 Br
ENDBRANCH  24  27
ENDBRANCH  22  23
ENDBRANCH  19  22
ENDBRANCH   7  19
TORSDOF 9
ENDMDL
MODEL 2
REMARK VINA RESULT:    -8.844      1.094      1.833
REMARK INTER + INTRA:         -13.933
REMARK INTER:                 -12.923
REMARK INTRA:                  -1.010
REMARK UNBOUND:                -0.953
REMARK SMILES N=C1N=C(NCCS(=O)(=O)O)/C(=C/[C@H](O)CNC(=O)c2cc(Br)c(Br)[nH]2)N1
REMARK SMILES IDX 1 1 2 2 3 3 4 4 5 5 12 6 13 7 27 8 6 12 7 13 8 14 9 15 10 16
REMARK SMILES IDX 11 17 14 19 15 20 16 22 17 23 18 24 19 25 20 27 21 28 26 29
REMARK SMILES IDX 22 30 24 31 23 33 25 34
REMARK H PARENT 1 9 5 10 27 11 11 18 15 21 17 26 26 32
ROOT
ATOM      1  N   UNL     1      15.381  35.495   8.821  1.00  0.00    -0.267 NA
ATOM      2  C   UNL     1      16.174  34.512   9.012  1.00  0.00     0.221 C 
ATOM      3  N   UNL     1      16.178  33.488   8.093  1.00  0.00    -0.194 NA
ATOM      4  C   UNL     1      17.066  32.622   8.546  1.00  0.00     0.153 C 
ATOM      5  N   UNL     1      17.376  31.448   7.913  1.00  0.00    -0.367 N 
ATOM      6  C   UNL     1      17.678  33.117   9.843  1.00  0.00     0.083 C 
ATOM      7  C   UNL     1      18.593  32.472  10.573  1.00  0.00     0.036 C 
ATOM      8  N   UNL     1      17.047  34.306  10.024  1.00  0.00    -0.322 N 
ATOM      9  H   UNL     1      14.891  35.267   7.950  1.00  0.00     0.191 HD
ATOM     10  H   UNL     1      18.063  30.828   8.324  1.00  0.00     0.162 HD
ATOM     11  H   UNL     1      17.155  34.925  10.819  1.00  0.00     0.170 HD
ENDROOT
BRANCH   5  12
ATOM     12  C   UNL     1      16.726  30.993   6.694  1.00  0.00     0.133 C 
BRANCH  12  13
ATOM     13  C   UNL     1      16.576  29.485   6.684  1.00  0.00     0.188 C 
BRANCH  13  14
ATOM     14  S   UNL     1      14.938  29.007   7.183  1.00  0.00     0.266 S 
ATOM     15  O   UNL     1      14.218  28.495   6.040  1.00  0.00    -0.200 OA
ATOM     16  O   UNL     1      15.000  28.294   8.439  1.00  0.00    -0.200 OA
BRANCH  14  17
ATOM     17  O   UNL     1      14.324  30.473   7.463  1.00  0.00    -0.285 OA
ATOM     18  H   UNL     1      13.371  30.370   7.675  1.00  0.00     0.234 HD
ENDBRANCH  14  17
ENDBRANCH  13  14
ENDBRANCH  12  13
ENDBRANCH   5  12
BRANCH   7  19
ATOM     19  C   UNL     1      19.176  33.046  11.825  1.00  0.00     0.158 C 
BRANCH  19  20
ATOM     20  O   UNL     1      20.595  33.076  11.663  1.00  0.00    -0.387 OA
ATOM     21  H   UNL     1      20.799  32.479  10.922  1.00  0.00     0.211 HD
ENDBRANCH  19  20
BRANCH  19  22
ATOM     22  C   UNL     1      18.815  32.222  13.081  1.00  0.00     0.152 C 
BRANCH  22  23
ATOM     23  N   UNL     1      18.400  33.064  14.194  1.00  0.00    -0.348 N 
ATOM     24  C   UNL     1      17.165  33.674  14.186  1.00  0.00     0.267 C 
ATOM     25  O   UNL     1      16.412  33.595  13.218  1.00  0.00    -0.268 OA
ATOM     26  H   UNL     1      18.981  33.108  15.019  1.00  0.00     0.163 HD
BRANCH  24  27
ATOM     27  C   UNL     1      16.821  34.415  15.376  1.00  0.00     0.106 A 
ATOM     28  C   UNL     1      15.614  34.644  16.024  1.00  0.00     0.050 A 
ATOM     29  N   UNL     1      17.790  35.072  16.113  1.00  0.00    -0.344 N 
ATOM     30  C   UNL     1      15.882  35.446  17.157  1.00  0.00     0.050 A 
ATOM     31  C   UNL     1      17.227  35.695  17.189  1.00  0.00     0.097 A 
ATOM     32  H   UNL     1      18.775  35.083  15.876  1.00  0.00     0.167 HD
ATOM     33  Br  UNL     1      14.551  36.016  18.348  1.00  0.00    -0.048 Br
ATOM     34  Br  UNL     1      18.198  36.711  18.465  1.00  0.00    -0.030 Br
ENDBRANCH  24  27
ENDBRANCH  22  23
ENDBRANCH  19  22
ENDBRANCH   7  19
TORSDOF 9
ENDMDL
MODEL 3
REMARK VINA RESULT:    -8.349      5.438      8.735
REMARK INTER + INTRA:         -13.207
REMARK INTER:                 -12.127
REMARK INTRA:                  -1.080
REMARK UNBOUND:                -0.953
REMARK SMILES N=C1N=C(NCCS(=O)(=O)O)/C(=C/[C@H](O)CNC(=O)c2cc(Br)c(Br)[nH]2)N1
REMARK SMILES IDX 1 1 2 2 3 3 4 4 5 5 12 6 13 7 27 8 6 12 7 13 8 14 9 15 10 16
REMARK SMILES IDX 11 17 14 19 15 20 16 22 17 23 18 24 19 25 20 27 21 28 26 29
REMARK SMILES IDX 22 30 24 31 23 33 25 34
REMARK H PARENT 1 9 5 10 27 11 11 18 15 21 17 26 26 32
ROOT
ATOM      1  N   UNL     1      22.878  31.681  15.194  1.00  0.00    -0.267 NA
ATOM      2  C   UNL     1      22.106  32.637  14.846  1.00  0.00     0.221 C 
ATOM      3  N   UNL     1      22.662  33.874  14.613  1.00  0.00    -0.194 NA
ATOM      4  C   UNL     1      21.647  34.654  14.292  1.00  0.00     0.153 C 
ATOM      5  N   UNL     1      21.774  35.980  13.979  1.00  0.00    -0.367 N 
ATOM      6  C   UNL     1      20.347  33.871  14.316  1.00  0.00     0.083 C 
ATOM      7  C   UNL     1      19.131  34.364  14.061  1.00  0.00     0.036 C 
ATOM      8  N   UNL     1      20.765  32.628  14.669  1.00  0.00    -0.322 N 
ATOM      9  H   UNL     1      23.814  32.100  15.220  1.00  0.00     0.191 HD
ATOM     10  H   UNL     1      20.948  36.519  13.749  1.00  0.00     0.162 HD
ATOM     11  H   UNL     1      20.174  31.823  14.837  1.00  0.00     0.170 HD
ENDROOT
BRANCH   5  12
ATOM     12  C   UNL     1      23.038  36.700  14.016  1.00  0.00     0.133 C 
BRANCH  12  13
ATOM     13  C   UNL     1      23.166  37.643  12.837  1.00  0.00     0.188 C 
BRANCH  13  14
ATOM     14  S   UNL     1      23.542  36.749  11.347  1.00  0.00     0.266 S 
ATOM     15  O   UNL     1      23.463  35.329  11.607  1.00  0.00    -0.200 OA
ATOM     16  O   UNL     1      22.872  37.367  10.225  1.00  0.00    -0.200 OA
BRANCH  14  17
ATOM     17  O   UNL     1      25.117  37.085  11.245  1.00  0.00    -0.285 OA
ATOM     18  H   UNL     1      25.559  36.728  12.046  1.00  0.00     0.234 HD
ENDBRANCH  14  17
ENDBRANCH  13  14
ENDBRANCH  12  13
ENDBRANCH   5  12
BRANCH   7  19
ATOM     19  C   UNL     1      17.900  33.517  14.071  1.00  0.00     0.158 C 
BRANCH  19  20
ATOM     20  O   UNL     1      18.289  32.190  13.710  1.00  0.00    -0.387 OA
ATOM     21  H   UNL     1      18.784  31.834  14.468  1.00  0.00     0.211 HD
ENDBRANCH  19  20
BRANCH  19  22
ATOM     22  C   UNL     1      16.819  34.025  13.091  1.00  0.00     0.152 C 
BRANCH  22  23
ATOM     23  N   UNL     1      16.706  33.184  11.908  1.00  0.00    -0.348 N 
ATOM     24  C   UNL     1      17.065  33.669  10.669  1.00  0.00     0.267 C 
ATOM     25  O   UNL     1      17.415  34.836  10.509  1.00  0.00    -0.268 OA
ATOM     26  H   UNL     1      16.464  32.211  12.019  1.00  0.00     0.163 HD
BRANCH  24  27
ATOM     27  C   UNL     1      16.995  32.725   9.580  1.00  0.00     0.106 A 
ATOM     28  C   UNL     1      17.946  32.250   8.686  1.00  0.00     0.050 A 
ATOM     29  N   UNL     1      15.807  32.094   9.257  1.00  0.00    -0.344 N 
ATOM     30  C   UNL     1      17.304  31.328   7.828  1.00  0.00     0.050 A 
ATOM     31  C   UNL     1      15.990  31.249   8.200  1.00  0.00     0.097 A 
ATOM     32  H   UNL     1      14.931  32.247   9.743  1.00  0.00     0.167 HD
ATOM     33  Br  UNL     1      18.192  30.421   6.448  1.00  0.00    -0.048 Br
ATOM     34  Br  UNL     1      14.618  30.184   7.434  1.00  0.00    -0.030 Br
ENDBRANCH  24  27
ENDBRANCH  22  23
ENDBRANCH  19  22
ENDBRANCH   7  19
TORSDOF 9
ENDMDL
MODEL 4
REMARK VINA RESULT:    -8.276      1.851      2.802
REMARK INTER + INTRA:         -13.099
REMARK INTER:                 -12.173
REMARK INTRA:                  -0.926
REMARK UNBOUND:                -0.953
REMARK SMILES N=C1N=C(NCCS(=O)(=O)O)/C(=C/[C@H](O)CNC(=O)c2cc(Br)c(Br)[nH]2)N1
REMARK SMILES IDX 1 1 2 2 3 3 4 4 5 5 12 6 13 7 27 8 6 12 7 13 8 14 9 15 10 16
REMARK SMILES IDX 11 17 14 19 15 20 16 22 17 23 18 24 19 25 20 27 21 28 26 29
REMARK SMILES IDX 22 30 24 31 23 33 25 34
REMARK H PARENT 1 9 5 10 27 11 11 18 15 21 17 26 26 32
ROOT
ATOM      1  N   UNL     1      15.374  35.567   8.463  1.00  0.00    -0.267 NA
ATOM      2  C   UNL     1      15.949  34.561   9.001  1.00  0.00     0.221 C 
ATOM      3  N   UNL     1      16.277  33.491   8.201  1.00  0.00    -0.194 NA
ATOM      4  C   UNL     1      16.834  32.611   9.013  1.00  0.00     0.153 C 
ATOM      5  N   UNL     1      17.308  31.393   8.607  1.00  0.00    -0.367 N 
ATOM      6  C   UNL     1      16.871  33.147  10.432  1.00  0.00     0.083 C 
ATOM      7  C   UNL     1      17.349  32.502  11.501  1.00  0.00     0.036 C 
ATOM      8  N   UNL     1      16.298  34.371  10.294  1.00  0.00    -0.322 N 
ATOM      9  H   UNL     1      15.284  35.314   7.473  1.00  0.00     0.191 HD
ATOM     10  H   UNL     1      17.717  30.766   9.289  1.00  0.00     0.162 HD
ATOM     11  H   UNL     1      16.098  35.026  11.040  1.00  0.00     0.170 HD
ENDROOT
BRANCH   5  12
ATOM     12  C   UNL     1      17.206  30.903   7.241  1.00  0.00     0.133 C 
BRANCH  12  13
ATOM     13  C   UNL     1      15.760  30.692   6.841  1.00  0.00     0.188 C 
BRANCH  13  14
ATOM     14  S   UNL     1      15.080  29.261   7.649  1.00  0.00     0.266 S 
ATOM     15  O   UNL     1      14.034  28.698   6.827  1.00  0.00    -0.200 OA
ATOM     16  O   UNL     1      16.149  28.458   8.196  1.00  0.00    -0.200 OA
BRANCH  14  17
ATOM     17  O   UNL     1      14.325  29.999   8.870  1.00  0.00    -0.285 OA
ATOM     18  H   UNL     1      14.987  30.537   9.358  1.00  0.00     0.234 HD
ENDBRANCH  14  17
ENDBRANCH  13  14
ENDBRANCH  12  13
ENDBRANCH   5  12
BRANCH   7  19
ATOM     19  C   UNL     1      17.383  33.115  12.864  1.00  0.00     0.158 C 
BRANCH  19  20
ATOM     20  O   UNL     1      16.121  33.750  13.080  1.00  0.00    -0.387 OA
ATOM     21  H   UNL     1      15.567  33.527  12.311  1.00  0.00     0.211 HD
ENDBRANCH  19  20
BRANCH  19  22
ATOM     22  C   UNL     1      18.518  34.151  13.023  1.00  0.00     0.152 C 
BRANCH  22  23
ATOM     23  N   UNL     1      18.529  34.762  14.344  1.00  0.00    -0.348 N 
ATOM     24  C   UNL     1      19.714  35.167  14.917  1.00  0.00     0.267 C 
ATOM     25  O   UNL     1      20.798  34.959  14.375  1.00  0.00    -0.268 OA
ATOM     26  H   UNL     1      17.650  34.983  14.789  1.00  0.00     0.163 HD
BRANCH  24  27
ATOM     27  C   UNL     1      19.601  35.838  16.189  1.00  0.00     0.106 A 
ATOM     28  C   UNL     1      18.507  36.216  16.958  1.00  0.00     0.050 A 
ATOM     29  N   UNL     1      20.726  36.235  16.890  1.00  0.00    -0.344 N 
ATOM     30  C   UNL     1      19.001  36.844  18.125  1.00  0.00     0.050 A 
ATOM     31  C   UNL     1      20.367  36.842  18.060  1.00  0.00     0.097 A 
ATOM     32  H   UNL     1      21.676  36.092  16.570  1.00  0.00     0.167 HD
ATOM     33  Br  UNL     1      17.888  37.525  19.471  1.00  0.00    -0.048 Br
ATOM     34  Br  UNL     1      21.600  37.537  19.324  1.00  0.00    -0.030 Br
ENDBRANCH  24  27
ENDBRANCH  22  23
ENDBRANCH  19  22
ENDBRANCH   7  19
TORSDOF 9
ENDMDL
MODEL 5
REMARK VINA RESULT:    -8.225      3.945      4.893
REMARK INTER + INTRA:         -13.025
REMARK INTER:                 -11.913
REMARK INTRA:                  -1.112
REMARK UNBOUND:                -0.953
REMARK SMILES N=C1N=C(NCCS(=O)(=O)O)/C(=C/[C@H](O)CNC(=O)c2cc(Br)c(Br)[nH]2)N1
REMARK SMILES IDX 1 1 2 2 3 3 4 4 5 5 12 6 13 7 27 8 6 12 7 13 8 14 9 15 10 16
REMARK SMILES IDX 11 17 14 19 15 20 16 22 17 23 18 24 19 25 20 27 21 28 26 29
REMARK SMILES IDX 22 30 24 31 23 33 25 34
REMARK H PARENT 1 9 5 10 27 11 11 18 15 21 17 26 26 32
ROOT
ATOM      1  N   UNL     1      15.362  35.744   8.810  1.00  0.00    -0.267 NA
ATOM      2  C   UNL     1      15.966  34.697   9.227  1.00  0.00     0.221 C 
ATOM      3  N   UNL     1      16.138  33.650   8.351  1.00  0.00    -0.194 NA
ATOM      4  C   UNL     1      16.766  32.719   9.045  1.00  0.00     0.153 C 
ATOM      5  N   UNL     1      17.131  31.504   8.534  1.00  0.00    -0.367 N 
ATOM      6  C   UNL     1      17.019  33.195  10.464  1.00  0.00     0.083 C 
ATOM      7  C   UNL     1      17.613  32.490  11.432  1.00  0.00     0.036 C 
ATOM      8  N   UNL     1      16.481  34.442  10.450  1.00  0.00    -0.322 N 
ATOM      9  H   UNL     1      15.127  35.535   7.833  1.00  0.00     0.191 HD
ATOM     10  H   UNL     1      17.605  30.835   9.129  1.00  0.00     0.162 HD
ATOM     11  H   UNL     1      16.412  35.072  11.240  1.00  0.00     0.170 HD
ENDROOT
BRANCH   5  12
ATOM     12  C   UNL     1      16.823  31.074   7.178  1.00  0.00     0.133 C 
BRANCH  12  13
ATOM     13  C   UNL     1      16.540  29.586   7.126  1.00  0.00     0.188 C 
BRANCH  13  14
ATOM     14  S   UNL     1      14.811  29.260   7.385  1.00  0.00     0.266 S 
ATOM     15  O   UNL     1      14.222  30.356   8.120  1.00  0.00    -0.200 OA
ATOM     16  O   UNL     1      14.227  28.743   6.169  1.00  0.00    -0.200 OA
BRANCH  14  17
ATOM     17  O   UNL     1      14.941  28.047   8.441  1.00  0.00    -0.285 OA
ATOM     18  H   UNL     1      15.321  28.405   9.273  1.00  0.00     0.234 HD
ENDBRANCH  14  17
ENDBRANCH  13  14
ENDBRANCH  12  13
ENDBRANCH   5  12
BRANCH   7  19
ATOM     19  C   UNL     1      17.858  33.045  12.798  1.00  0.00     0.158 C 
BRANCH  19  20
ATOM     20  O   UNL     1      18.359  34.374  12.638  1.00  0.00    -0.387 OA
ATOM     21  H   UNL     1      19.229  34.289  12.210  1.00  0.00     0.211 HD
ENDBRANCH  19  20
BRANCH  19  22
ATOM     22  C   UNL     1      18.870  32.205  13.610  1.00  0.00     0.152 C 
BRANCH  22  23
ATOM     23  N   UNL     1      20.250  32.531  13.281  1.00  0.00    -0.348 N 
ATOM     24  C   UNL     1      21.147  32.852  14.276  1.00  0.00     0.267 C 
ATOM     25  O   UNL     1      20.801  32.950  15.451  1.00  0.00    -0.268 OA
ATOM     26  H   UNL     1      20.568  32.415  12.331  1.00  0.00     0.163 HD
BRANCH  24  27
ATOM     27  C   UNL     1      22.507  33.074  13.848  1.00  0.00     0.106 A 
ATOM     28  C   UNL     1      23.492  33.960  14.267  1.00  0.00     0.050 A 
ATOM     29  N   UNL     1      23.068  32.322  12.831  1.00  0.00    -0.344 N 
ATOM     30  C   UNL     1      24.643  33.722  13.483  1.00  0.00     0.050 A 
ATOM     31  C   UNL     1      24.357  32.710  12.608  1.00  0.00     0.097 A 
ATOM     32  H   UNL     1      22.578  31.591  12.328  1.00  0.00     0.167 HD
ATOM     33  Br  UNL     1      26.240  34.683  13.687  1.00  0.00    -0.048 Br
ATOM     34  Br  UNL     1      25.494  31.939  11.298  1.00  0.00    -0.030 Br
ENDBRANCH  24  27
ENDBRANCH  22  23
ENDBRANCH  19  22
ENDBRANCH   7  19
TORSDOF 9
ENDMDL
MODEL 6
REMARK VINA RESULT:    -8.160      5.581      9.566
REMARK INTER + INTRA:         -12.929
REMARK INTER:                 -11.623
REMARK INTRA:                  -1.306
REMARK UNBOUND:                -0.953
REMARK SMILES N=C1N=C(NCCS(=O)(=O)O)/C(=C/[C@H](O)CNC(=O)c2cc(Br)c(Br)[nH]2)N1
REMARK SMILES IDX 1 1 2 2 3 3 4 4 5 5 12 6 13 7 27 8 6 12 7 13 8 14 9 15 10 16
REMARK SMILES IDX 11 17 14 19 15 20 16 22 17 23 18 24 19 25 20 27 21 28 26 29
REMARK SMILES IDX 22 30 24 31 23 33 25 34
REMARK H PARENT 1 9 5 10 27 11 11 18 15 21 17 26 26 32
ROOT
ATOM      1  N   UNL     1      20.251  31.078  13.981  1.00  0.00    -0.267 NA
ATOM      2  C   UNL     1      19.583  32.161  14.104  1.00  0.00     0.221 C 
ATOM      3  N   UNL     1      20.001  33.083  15.036  1.00  0.00    -0.194 NA
ATOM      4  C   UNL     1      19.132  34.074  14.954  1.00  0.00     0.153 C 
ATOM      5  N   UNL     1      19.192  35.204  15.722  1.00  0.00    -0.367 N 
ATOM      6  C   UNL     1      18.084  33.775  13.898  1.00  0.00     0.083 C 
ATOM      7  C   UNL     1      17.050  34.560  13.577  1.00  0.00     0.036 C 
ATOM      8  N   UNL     1      18.478  32.560  13.436  1.00  0.00    -0.322 N 
ATOM      9  H   UNL     1      21.007  31.160  14.669  1.00  0.00     0.191 HD
ATOM     10  H   UNL     1      18.485  35.921  15.609  1.00  0.00     0.162 HD
ATOM     11  H   UNL     1      17.996  31.998  12.744  1.00  0.00     0.170 HD
ENDROOT
BRANCH   5  12
ATOM     12  C   UNL     1      20.191  35.424  16.757  1.00  0.00     0.133 C 
BRANCH  12  13
ATOM     13  C   UNL     1      19.834  34.682  18.029  1.00  0.00     0.188 C 
BRANCH  13  14
ATOM     14  S   UNL     1      18.151  35.008  18.502  1.00  0.00     0.266 S 
ATOM     15  O   UNL     1      17.870  36.415  18.334  1.00  0.00    -0.200 OA
ATOM     16  O   UNL     1      17.288  33.979  17.969  1.00  0.00    -0.200 OA
BRANCH  14  17
ATOM     17  O   UNL     1      18.290  34.779  20.094  1.00  0.00    -0.285 OA
ATOM     18  H   UNL     1      17.844  33.934  20.321  1.00  0.00     0.234 HD
ENDBRANCH  14  17
ENDBRANCH  13  14
ENDBRANCH  12  13
ENDBRANCH   5  12
BRANCH   7  19
ATOM     19  C   UNL     1      16.078  34.210  12.497  1.00  0.00     0.158 C 
BRANCH  19  20
ATOM     20  O   UNL     1      15.792  32.815  12.612  1.00  0.00    -0.387 OA
ATOM     21  H   UNL     1      15.601  32.652  13.552  1.00  0.00     0.211 HD
ENDBRANCH  19  20
BRANCH  19  22
ATOM     22  C   UNL     1      16.626  34.511  11.083  1.00  0.00     0.152 C 
BRANCH  22  23
ATOM     23  N   UNL     1      16.580  33.346  10.212  1.00  0.00    -0.348 N 
ATOM     24  C   UNL     1      16.233  33.478   8.886  1.00  0.00     0.267 C 
ATOM     25  O   UNL     1      15.878  34.556   8.416  1.00  0.00    -0.268 OA
ATOM     26  H   UNL     1      16.909  32.458  10.563  1.00  0.00     0.163 HD
BRANCH  24  27
ATOM     27  C   UNL     1      16.304  32.274   8.094  1.00  0.00     0.106 A 
ATOM     28  C   UNL     1      15.347  31.342   7.712  1.00  0.00     0.050 A 
ATOM     29  N   UNL     1      17.501  31.849   7.545  1.00  0.00    -0.344 N 
ATOM     30  C   UNL     1      15.994  30.360   6.929  1.00  0.00     0.050 A 
ATOM     31  C   UNL     1      17.317  30.695   6.840  1.00  0.00     0.097 A 
ATOM     32  H   UNL     1      18.383  32.334   7.659  1.00  0.00     0.167 HD
ATOM     33  Br  UNL     1      15.100  28.890   6.183  1.00  0.00    -0.048 Br
ATOM     34  Br  UNL     1      18.699  29.771   5.924  1.00  0.00    -0.030 Br
ENDBRANCH  24  27
ENDBRANCH  22  23
ENDBRANCH  19  22
ENDBRANCH   7  19
TORSDOF 9
ENDMDL
MODEL 7
REMARK VINA RESULT:    -8.041      5.438      8.307
REMARK INTER + INTRA:         -12.754
REMARK INTER:                 -11.626
REMARK INTRA:                  -1.128
REMARK UNBOUND:                -0.953
REMARK SMILES N=C1N=C(NCCS(=O)(=O)O)/C(=C/[C@H](O)CNC(=O)c2cc(Br)c(Br)[nH]2)N1
REMARK SMILES IDX 1 1 2 2 3 3 4 4 5 5 12 6 13 7 27 8 6 12 7 13 8 14 9 15 10 16
REMARK SMILES IDX 11 17 14 19 15 20 16 22 17 23 18 24 19 25 20 27 21 28 26 29
REMARK SMILES IDX 22 30 24 31 23 33 25 34
REMARK H PARENT 1 9 5 10 27 11 11 18 15 21 17 26 26 32
ROOT
ATOM      1  N   UNL     1      23.350  38.199  12.606  1.00  0.00    -0.267 NA
ATOM      2  C   UNL     1      23.170  37.018  13.060  1.00  0.00     0.221 C 
ATOM      3  N   UNL     1      24.228  36.139  13.029  1.00  0.00    -0.194 NA
ATOM      4  C   UNL     1      23.758  35.015  13.538  1.00  0.00     0.153 C 
ATOM      5  N   UNL     1      24.502  33.877  13.689  1.00  0.00    -0.367 N 
ATOM      6  C   UNL     1      22.299  35.177  13.926  1.00  0.00     0.083 C 
ATOM      7  C   UNL     1      21.518  34.227  14.449  1.00  0.00     0.036 C 
ATOM      8  N   UNL     1      22.052  36.469  13.586  1.00  0.00    -0.322 N 
ATOM      9  H   UNL     1      24.328  38.212  12.297  1.00  0.00     0.191 HD
ATOM     10  H   UNL     1      24.070  33.048  14.081  1.00  0.00     0.162 HD
ATOM     11  H   UNL     1      21.160  36.944  13.651  1.00  0.00     0.170 HD
ENDROOT
BRANCH   5  12
ATOM     12  C   UNL     1      25.886  33.755  13.257  1.00  0.00     0.133 C 
BRANCH  12  13
ATOM     13  C   UNL     1      26.271  32.303  13.058  1.00  0.00     0.188 C 
BRANCH  13  14
ATOM     14  S   UNL     1      25.775  31.731  11.449  1.00  0.00     0.266 S 
ATOM     15  O   UNL     1      24.762  32.613  10.917  1.00  0.00    -0.200 OA
ATOM     16  O   UNL     1      26.942  31.348  10.687  1.00  0.00    -0.200 OA
BRANCH  14  17
ATOM     17  O   UNL     1      24.995  30.389  11.891  1.00  0.00    -0.285 OA
ATOM     18  H   UNL     1      25.237  29.673  11.262  1.00  0.00     0.234 HD
ENDBRANCH  14  17
ENDBRANCH  13  14
ENDBRANCH  12  13
ENDBRANCH   5  12
BRANCH   7  19
ATOM     19  C   UNL     1      20.096  34.478  14.839  1.00  0.00     0.158 C 
BRANCH  19  20
ATOM     20  O   UNL     1      20.076  34.735  16.245  1.00  0.00    -0.387 OA
ATOM     21  H   UNL     1      19.994  35.699  16.345  1.00  0.00     0.211 HD
ENDBRANCH  19  20
BRANCH  19  22
ATOM     22  C   UNL     1      19.172  33.282  14.518  1.00  0.00     0.152 C 
BRANCH  22  23
ATOM     23  N   UNL     1      18.618  33.357  13.174  1.00  0.00    -0.348 N 
ATOM     24  C   UNL     1      19.064  32.507  12.186  1.00  0.00     0.267 C 
ATOM     25  O   UNL     1      19.987  31.719  12.380  1.00  0.00    -0.268 OA
ATOM     26  H   UNL     1      17.830  33.964  13.001  1.00  0.00     0.163 HD
BRANCH  24  27
ATOM     27  C   UNL     1      18.387  32.608  10.916  1.00  0.00     0.106 A 
ATOM     28  C   UNL     1      17.509  33.549  10.391  1.00  0.00     0.050 A 
ATOM     29  N   UNL     1      18.560  31.648   9.935  1.00  0.00    -0.344 N 
ATOM     30  C   UNL     1      17.165  33.131   9.085  1.00  0.00     0.050 A 
ATOM     31  C   UNL     1      17.824  31.960   8.828  1.00  0.00     0.097 A 
ATOM     32  H   UNL     1      19.150  30.831  10.037  1.00  0.00     0.167 HD
ATOM     33  Br  UNL     1      15.997  34.091   7.976  1.00  0.00    -0.048 Br
ATOM     34  Br  UNL     1      17.772  30.911   7.248  1.00  0.00    -0.030 Br
ENDBRANCH  24  27
ENDBRANCH  22  23
ENDBRANCH  19  22
ENDBRANCH   7  19
TORSDOF 9
ENDMDL
MODEL 8
REMARK VINA RESULT:    -8.010      5.178      8.772
REMARK INTER + INTRA:         -12.708
REMARK INTER:                 -11.461
REMARK INTRA:                  -1.248
REMARK UNBOUND:                -0.953
REMARK SMILES N=C1N=C(NCCS(=O)(=O)O)/C(=C/[C@H](O)CNC(=O)c2cc(Br)c(Br)[nH]2)N1
REMARK SMILES IDX 1 1 2 2 3 3 4 4 5 5 12 6 13 7 27 8 6 12 7 13 8 14 9 15 10 16
REMARK SMILES IDX 11 17 14 19 15 20 16 22 17 23 18 24 19 25 20 27 21 28 26 29
REMARK SMILES IDX 22 30 24 31 23 33 25 34
REMARK H PARENT 1 9 5 10 27 11 11 18 15 21 17 26 26 32
ROOT
ATOM      1  N   UNL     1      17.795  34.061  17.636  1.00  0.00    -0.267 NA
ATOM      2  C   UNL     1      18.157  33.893  16.422  1.00  0.00     0.221 C 
ATOM      3  N   UNL     1      19.424  33.412  16.179  1.00  0.00    -0.194 NA
ATOM      4  C   UNL     1      19.525  33.356  14.864  1.00  0.00     0.153 C 
ATOM      5  N   UNL     1      20.642  32.923  14.204  1.00  0.00    -0.367 N 
ATOM      6  C   UNL     1      18.239  33.830  14.212  1.00  0.00     0.083 C 
ATOM      7  C   UNL     1      18.014  33.918  12.897  1.00  0.00     0.036 C 
ATOM      8  N   UNL     1      17.464  34.130  15.286  1.00  0.00    -0.322 N 
ATOM      9  H   UNL     1      18.608  33.772  18.191  1.00  0.00     0.191 HD
ATOM     10  H   UNL     1      20.650  32.914  13.190  1.00  0.00     0.162 HD
ATOM     11  H   UNL     1      16.533  34.528  15.260  1.00  0.00     0.170 HD
ENDROOT
BRANCH   5  12
ATOM     12  C   UNL     1      21.871  32.523  14.873  1.00  0.00     0.133 C 
BRANCH  12  13
ATOM     13  C   UNL     1      23.039  33.382  14.433  1.00  0.00     0.188 C 
BRANCH  13  14
ATOM     14  S   UNL     1      23.163  33.423  12.659  1.00  0.00     0.266 S 
ATOM     15  O   UNL     1      22.072  34.203  12.121  1.00  0.00    -0.200 OA
ATOM     16  O   UNL     1      24.537  33.648  12.273  1.00  0.00    -0.200 OA
BRANCH  14  17
ATOM     17  O   UNL     1      22.793  31.884  12.348  1.00  0.00    -0.285 OA
ATOM     18  H   UNL     1      22.522  31.819  11.406  1.00  0.00     0.234 HD
ENDBRANCH  14  17
ENDBRANCH  13  14
ENDBRANCH  12  13
ENDBRANCH   5  12
BRANCH   7  19
ATOM     19  C   UNL     1      16.703  34.362  12.332  1.00  0.00     0.158 C 
BRANCH  19  20
ATOM     20  O   UNL     1      15.759  33.315  12.566  1.00  0.00    -0.387 OA
ATOM     21  H   UNL     1      16.264  32.484  12.555  1.00  0.00     0.211 HD
ENDBRANCH  19  20
BRANCH  19  22
ATOM     22  C   UNL     1      16.779  34.663  10.818  1.00  0.00     0.152 C 
BRANCH  22  23
ATOM     23  N   UNL     1      16.706  33.455  10.010  1.00  0.00    -0.348 N 
ATOM     24  C   UNL     1      16.200  33.501   8.729  1.00  0.00     0.267 C 
ATOM     25  O   UNL     1      15.725  34.532   8.259  1.00  0.00    -0.268 OA
ATOM     26  H   UNL     1      17.129  32.607  10.356  1.00  0.00     0.163 HD
BRANCH  24  27
ATOM     27  C   UNL     1      16.254  32.264   7.987  1.00  0.00     0.106 A 
ATOM     28  C   UNL     1      15.279  31.348   7.614  1.00  0.00     0.050 A 
ATOM     29  N   UNL     1      17.452  31.782   7.490  1.00  0.00    -0.344 N 
ATOM     30  C   UNL     1      15.916  30.316   6.888  1.00  0.00     0.050 A 
ATOM     31  C   UNL     1      17.251  30.606   6.825  1.00  0.00     0.097 A 
ATOM     32  H   UNL     1      18.345  32.244   7.610  1.00  0.00     0.167 HD
ATOM     33  Br  UNL     1      14.997  28.846   6.174  1.00  0.00    -0.048 Br
ATOM     34  Br  UNL     1      18.628  29.605   5.986  1.00  0.00    -0.030 Br
ENDBRANCH  24  27
ENDBRANCH  22  23
ENDBRANCH  19  22
ENDBRANCH   7  19
TORSDOF 9
ENDMDL
MODEL 9
REMARK VINA RESULT:    -7.981      1.829      2.222
REMARK INTER + INTRA:         -12.667
REMARK INTER:                 -11.709
REMARK INTRA:                  -0.959
REMARK UNBOUND:                -0.953
REMARK SMILES N=C1N=C(NCCS(=O)(=O)O)/C(=C/[C@H](O)CNC(=O)c2cc(Br)c(Br)[nH]2)N1
REMARK SMILES IDX 1 1 2 2 3 3 4 4 5 5 12 6 13 7 27 8 6 12 7 13 8 14 9 15 10 16
REMARK SMILES IDX 11 17 14 19 15 20 16 22 17 23 18 24 19 25 20 27 21 28 26 29
REMARK SMILES IDX 22 30 24 31 23 33 25 34
REMARK H PARENT 1 9 5 10 27 11 11 18 15 21 17 26 26 32
ROOT
ATOM      1  N   UNL     1      15.370  32.812  12.337  1.00  0.00    -0.267 NA
ATOM      2  C   UNL     1      16.519  32.634  11.809  1.00  0.00     0.221 C 
ATOM      3  N   UNL     1      16.592  32.464  10.445  1.00  0.00    -0.194 NA
ATOM      4  C   UNL     1      17.875  32.290  10.187  1.00  0.00     0.153 C 
ATOM      5  N   UNL     1      18.378  32.087   8.930  1.00  0.00    -0.367 N 
ATOM      6  C   UNL     1      18.688  32.353  11.466  1.00  0.00     0.083 C 
ATOM      7  C   UNL     1      20.011  32.195  11.562  1.00  0.00     0.036 C 
ATOM      8  N   UNL     1      17.732  32.578  12.405  1.00  0.00    -0.322 N 
ATOM      9  H   UNL     1      14.715  32.783  11.549  1.00  0.00     0.191 HD
ATOM     10  H   UNL     1      19.375  31.953   8.809  1.00  0.00     0.162 HD
ATOM     11  H   UNL     1      17.877  32.635  13.406  1.00  0.00     0.170 HD
ENDROOT
BRANCH   5  12
ATOM     12  C   UNL     1      17.552  31.987   7.737  1.00  0.00     0.133 C 
BRANCH  12  13
ATOM     13  C   UNL     1      17.623  30.597   7.136  1.00  0.00     0.188 C 
BRANCH  13  14
ATOM     14  S   UNL     1      16.088  29.729   7.364  1.00  0.00     0.266 S 
ATOM     15  O   UNL     1      15.291  29.843   6.164  1.00  0.00    -0.200 OA
ATOM     16  O   UNL     1      16.338  28.460   8.007  1.00  0.00    -0.200 OA
BRANCH  14  17
ATOM     17  O   UNL     1      15.400  30.716   8.439  1.00  0.00    -0.285 OA
ATOM     18  H   UNL     1      14.572  31.069   8.045  1.00  0.00     0.234 HD
ENDBRANCH  14  17
ENDBRANCH  13  14
ENDBRANCH  12  13
ENDBRANCH   5  12
BRANCH   7  19
ATOM     19  C   UNL     1      20.745  32.307  12.860  1.00  0.00     0.158 C 
BRANCH  19  20
ATOM     20  O   UNL     1      20.088  31.453  13.799  1.00  0.00    -0.387 OA
ATOM     21  H   UNL     1      20.591  31.522  14.629  1.00  0.00     0.211 HD
ENDBRANCH  19  20
BRANCH  19  22
ATOM     22  C   UNL     1      20.772  33.752  13.405  1.00  0.00     0.152 C 
BRANCH  22  23
ATOM     23  N   UNL     1      19.552  34.097  14.120  1.00  0.00    -0.348 N 
ATOM     24  C   UNL     1      19.496  33.999  15.493  1.00  0.00     0.267 C 
ATOM     25  O   UNL     1      20.433  33.550  16.148  1.00  0.00    -0.268 OA
ATOM     26  H   UNL     1      18.785  34.510  13.610  1.00  0.00     0.163 HD
BRANCH  24  27
ATOM     27  C   UNL     1      18.268  34.448  16.105  1.00  0.00     0.106 A 
ATOM     28  C   UNL     1      18.006  35.200  17.243  1.00  0.00     0.050 A 
ATOM     29  N   UNL     1      17.039  34.139  15.551  1.00  0.00    -0.344 N 
ATOM     30  C   UNL     1      16.603  35.333  17.355  1.00  0.00     0.050 A 
ATOM     31  C   UNL     1      16.031  34.672  16.302  1.00  0.00     0.097 A 
ATOM     32  H   UNL     1      16.917  33.592  14.707  1.00  0.00     0.167 HD
ATOM     33  Br  UNL     1      15.769  36.274  18.745  1.00  0.00    -0.048 Br
ATOM     34  Br  UNL     1      14.186  34.490  15.898  1.00  0.00    -0.030 Br
ENDBRANCH  24  27
ENDBRANCH  22  23
ENDBRANCH  19  22
ENDBRANCH   7  19
TORSDOF 9
ENDMDL
