MODEL 2
REMARK minimizedAffinity -7.32580233
REMARK CNNscore 0.73862505
REMARK CNNaffinity 6.80143785
REMARK SMILES CC1(C)OCCn2c1nc1c(N3CCOCC3)nc(-c3cnc(N)nc3)nc12
REMARK SMILES IDX 20 1 21 2 22 3 23 4 25 5 26 6 19 7 2 8 4 9 8 10 5 11 7 12
REMARK SMILES IDX 9 13 6 14 28 15 10 16 27 17 11 18 18 19 1 20 3 21 12 22
REMARK SMILES IDX 13 23 17 24 14 25 16 26 15 27 24 28
REMARK H PARENT 24 29 24 30
ROOT
ATOM      1  C   UNL     1      31.361  46.011  43.768  1.00  0.00     0.056 A 
ATOM      2  C   UNL     1      31.131  46.268  45.106  1.00  0.00     0.128 A 
ATOM      3  N   UNL     1      30.150  45.699  45.847  1.00  0.00    -0.221 NA
ATOM      4  C   UNL     1      29.347  44.843  45.213  1.00  0.00     0.219 A 
ATOM      5  N   UNL     1      29.473  44.496  43.931  1.00  0.00    -0.221 NA
ATOM      6  C   UNL     1      30.471  45.095  43.239  1.00  0.00     0.128 A 
ENDROOT
BRANCH   1   7
ATOM      7  C   UNL     1      32.432  46.637  42.997  1.00  0.00     0.167 A 
ATOM      8  C   UNL     1      37.015  50.190  42.093  1.00  0.00     0.120 C 
ATOM      9  O   UNL     1      37.301  50.575  43.460  1.00  0.00    -0.366 OA
ATOM     10  C   UNL     1      35.885  49.191  42.058  1.00  0.00     0.143 A 
ATOM     11  C   UNL     1      36.147  50.811  44.272  1.00  0.00     0.183 C 
ATOM     12  N   UNL     1      35.135  48.914  43.173  1.00  0.00    -0.308 N 
ATOM     13  N   UNL     1      35.438  48.505  41.020  1.00  0.00    -0.224 NA
ATOM     14  C   UNL     1      35.379  49.513  44.464  1.00  0.00     0.154 C 
ATOM     15  C   UNL     1      34.173  48.010  42.841  1.00  0.00     0.166 A 
ATOM     16  C   UNL     1      34.379  47.744  41.496  1.00  0.00     0.151 A 
ATOM     17  N   UNL     1      33.234  47.500  43.649  1.00  0.00    -0.208 NA
ATOM     18  C   UNL     1      33.496  46.821  40.885  1.00  0.00     0.161 A 
ATOM     19  N   UNL     1      32.516  46.300  41.688  1.00  0.00    -0.208 NA
ATOM     20  C   UNL     1      36.668  51.434  41.268  1.00  0.00     0.051 C 
ATOM     21  C   UNL     1      38.298  49.552  41.554  1.00  0.00     0.051 C 
BRANCH  18  22
ATOM     22  N   UNL     1      33.523  46.391  39.553  1.00  0.00    -0.350 N 
ATOM     23  C   UNL     1      33.728  47.369  38.471  1.00  0.00     0.146 C 
ATOM     24  C   UNL     1      32.473  45.387  39.276  1.00  0.00     0.146 C 
ATOM     25  C   UNL     1      32.381  47.742  37.841  1.00  0.00     0.181 C 
ATOM     26  C   UNL     1      32.132  45.348  37.778  1.00  0.00     0.181 C 
ATOM     27  O   UNL     1      31.683  46.618  37.271  1.00  0.00    -0.378 OA
ENDBRANCH  18  22
ENDBRANCH   1   7
BRANCH   4  28
ATOM     28  N   UNL     1      28.349  44.239  45.945  1.00  0.00    -0.368 N 
ATOM     29  H   UNL     1      28.597  44.240  46.924  1.00  0.00     0.159 HD
ATOM     30  H   UNL     1      28.105  43.353  45.525  1.00  0.00     0.159 HD
ENDBRANCH   4  28
TORSDOF 3
ENDMDL
