MODEL 1
REMARK VINA RESULT:    -9.361      0.000      0.000
REMARK INTER + INTRA:         -15.885
REMARK INTER:                 -14.560
REMARK INTRA:                  -1.325
REMARK UNBOUND:                -1.325
REMARK SMILES CCc1cc(Oc2cc(F)cc([C@@H](C)NC(=O)c3sc4ccc(Cl)cc4c3C)c2)ccc1CCC(=O)O
REMARK SMILES IDX 3 1 4 2 5 3 30 4 31 5 32 6 2 7 1 8 33 9 34 10 35 11 36 12
REMARK SMILES IDX 37 13 6 15 7 16 8 17 29 18 9 19 12 20 11 21 10 22 13 23
REMARK SMILES IDX 14 24 15 25 16 26 17 27 18 29 19 30 27 31 20 32 26 33 21 34
REMARK SMILES IDX 25 35 22 36 23 37 28 38 24 39
REMARK H PARENT 37 14 15 28
ROOT
ATOM      1  C   UNL     1      -8.073  -6.756 -20.356  1.00  0.00    -0.041 A 
ATOM      2  C   UNL     1      -8.828  -7.571 -21.221  1.00  0.00     0.051 A 
ATOM      3  C   UNL     1      -8.204  -8.492 -22.065  1.00  0.00     0.127 A 
ATOM      4  C   UNL     1      -6.824  -8.644 -22.028  1.00  0.00     0.047 A 
ATOM      5  C   UNL     1      -6.061  -7.849 -21.172  1.00  0.00     0.008 A 
ATOM      6  C   UNL     1      -6.669  -6.903 -20.327  1.00  0.00    -0.044 A 
ENDROOT
BRANCH   1   7
ATOM      7  C   UNL     1      -8.818  -5.786 -19.467  1.00  0.00     0.032 C 
ATOM      8  C   UNL     1      -9.795  -6.499 -18.541  1.00  0.00     0.009 C 
ENDBRANCH   1   7
BRANCH   6   9
ATOM      9  C   UNL     1      -5.773  -6.071 -19.432  1.00  0.00     0.047 C 
BRANCH   9  10
ATOM     10  C   UNL     1      -4.553  -5.549 -20.187  1.00  0.00     0.127 C 
BRANCH  10  11
ATOM     11  C   UNL     1      -4.575  -4.051 -20.273  1.00  0.00     0.303 C 
ATOM     12  O   UNL     1      -3.773  -3.267 -19.797  1.00  0.00    -0.252 OA
BRANCH  11  13
ATOM     13  O   UNL     1      -5.640  -3.603 -20.969  1.00  0.00    -0.481 OA
ATOM     14  H   UNL     1      -5.816  -4.314 -21.621  1.00  0.00     0.296 HD
ENDBRANCH  11  13
ENDBRANCH  10  11
ENDBRANCH   9  10
ENDBRANCH   6   9
BRANCH   3  15
ATOM     15  O   UNL     1      -8.901  -9.331 -22.905  1.00  0.00    -0.457 OA
BRANCH  15  16
ATOM     16  C   UNL     1      -9.112  -8.906 -24.198  1.00  0.00     0.130 A 
ATOM     17  C   UNL     1      -8.009  -8.892 -25.044  1.00  0.00     0.086 A 
ATOM     18  C   UNL     1     -10.354  -8.427 -24.640  1.00  0.00     0.053 A 
ATOM     19  C   UNL     1      -8.162  -8.433 -26.344  1.00  0.00     0.127 A 
ATOM     20  C   UNL     1     -10.518  -7.980 -25.962  1.00  0.00    -0.019 A 
ATOM     21  C   UNL     1      -9.395  -7.982 -26.807  1.00  0.00     0.045 A 
ATOM     22  F   UNL     1      -7.105  -8.419 -27.166  1.00  0.00    -0.207 F 
BRANCH  20  23
ATOM     23  C   UNL     1     -11.833  -7.436 -26.491  1.00  0.00     0.110 C 
ATOM     24  C   UNL     1     -12.802  -6.954 -25.409  1.00  0.00     0.036 C 
BRANCH  23  25
ATOM     25  N   UNL     1     -11.559  -6.364 -27.427  1.00  0.00    -0.345 N 
ATOM     26  C   UNL     1     -12.176  -6.261 -28.656  1.00  0.00     0.262 C 
ATOM     27  O   UNL     1     -13.050  -7.058 -28.993  1.00  0.00    -0.268 OA
ATOM     28  H   UNL     1     -10.808  -5.721 -27.222  1.00  0.00     0.164 HD
BRANCH  26  29
ATOM     29  C   UNL     1     -11.719  -5.163 -29.510  1.00  0.00     0.096 A 
ATOM     30  S   UNL     1     -10.442  -5.390 -30.626  1.00  0.00    -0.130 S 
ATOM     31  C   UNL     1     -12.207  -3.860 -29.554  1.00  0.00    -0.020 A 
ATOM     32  C   UNL     1     -10.504  -3.771 -31.181  1.00  0.00     0.035 A 
ATOM     33  C   UNL     1     -11.499  -3.044 -30.525  1.00  0.00    -0.002 A 
ATOM     34  C   UNL     1      -9.682  -3.191 -32.167  1.00  0.00     0.021 A 
ATOM     35  C   UNL     1     -11.662  -1.681 -30.890  1.00  0.00     0.030 A 
ATOM     36  C   UNL     1      -9.866  -1.847 -32.500  1.00  0.00     0.022 A 
ATOM     37  C   UNL     1     -10.845  -1.103 -31.865  1.00  0.00     0.041 A 
ATOM     38  C   UNL     1     -13.334  -3.362 -28.695  1.00  0.00     0.047 C 
ATOM     39  Cl  UNL     1     -11.063   0.554 -32.281  1.00  0.00    -0.084 Cl
ENDBRANCH  26  29
ENDBRANCH  23  25
ENDBRANCH  20  23
ENDBRANCH  15  16
ENDBRANCH   3  15
TORSDOF 10
ENDMDL
MODEL 2
REMARK VINA RESULT:    -9.354      2.787      4.103
REMARK INTER + INTRA:         -15.874
REMARK INTER:                 -16.102
REMARK INTRA:                   0.228
REMARK UNBOUND:                -1.325
REMARK SMILES CCc1cc(Oc2cc(F)cc([C@@H](C)NC(=O)c3sc4ccc(Cl)cc4c3C)c2)ccc1CCC(=O)O
REMARK SMILES IDX 3 1 4 2 5 3 30 4 31 5 32 6 2 7 1 8 33 9 34 10 35 11 36 12
REMARK SMILES IDX 37 13 6 15 7 16 8 17 29 18 9 19 12 20 11 21 10 22 13 23
REMARK SMILES IDX 14 24 15 25 16 26 17 27 18 29 19 30 27 31 20 32 26 33 21 34
REMARK SMILES IDX 25 35 22 36 23 37 28 38 24 39
REMARK H PARENT 37 14 15 28
ROOT
ATOM      1  C   UNL     1      -5.088  -6.325 -20.441  1.00  0.00    -0.041 A 
ATOM      2  C   UNL     1      -5.586  -7.529 -20.979  1.00  0.00     0.051 A 
ATOM      3  C   UNL     1      -6.934  -7.661 -21.317  1.00  0.00     0.127 A 
ATOM      4  C   UNL     1      -7.796  -6.582 -21.166  1.00  0.00     0.047 A 
ATOM      5  C   UNL     1      -7.319  -5.380 -20.642  1.00  0.00     0.008 A 
ATOM      6  C   UNL     1      -5.968  -5.234 -20.278  1.00  0.00    -0.044 A 
ENDROOT
BRANCH   1   7
ATOM      7  C   UNL     1      -3.616  -6.255 -20.105  1.00  0.00     0.032 C 
ATOM      8  C   UNL     1      -3.159  -7.464 -19.299  1.00  0.00     0.009 C 
ENDBRANCH   1   7
BRANCH   6   9
ATOM      9  C   UNL     1      -5.528  -3.901 -19.707  1.00  0.00     0.047 C 
BRANCH   9  10
ATOM     10  C   UNL     1      -4.668  -3.119 -20.698  1.00  0.00     0.127 C 
BRANCH  10  11
ATOM     11  C   UNL     1      -3.949  -1.994 -20.014  1.00  0.00     0.303 C 
ATOM     12  O   UNL     1      -2.817  -2.001 -19.563  1.00  0.00    -0.252 OA
BRANCH  11  13
ATOM     13  O   UNL     1      -4.715  -0.887 -19.925  1.00  0.00    -0.481 OA
ATOM     14  H   UNL     1      -5.085  -0.779 -20.827  1.00  0.00     0.296 HD
ENDBRANCH  11  13
ENDBRANCH  10  11
ENDBRANCH   9  10
ENDBRANCH   6   9
BRANCH   3  15
ATOM     15  O   UNL     1      -7.459  -8.805 -21.873  1.00  0.00    -0.457 OA
BRANCH  15  16
ATOM     16  C   UNL     1      -8.630  -8.686 -22.588  1.00  0.00     0.130 A 
ATOM     17  C   UNL     1      -9.792  -9.138 -21.972  1.00  0.00     0.086 A 
ATOM     18  C   UNL     1      -8.662  -8.209 -23.906  1.00  0.00     0.053 A 
ATOM     19  C   UNL     1     -10.990  -9.077 -22.667  1.00  0.00     0.127 A 
ATOM     20  C   UNL     1      -9.878  -8.127 -24.607  1.00  0.00    -0.019 A 
ATOM     21  C   UNL     1     -11.044  -8.579 -23.966  1.00  0.00     0.045 A 
ATOM     22  F   UNL     1     -12.115  -9.507 -22.081  1.00  0.00    -0.207 F 
BRANCH  20  23
ATOM     23  C   UNL     1      -9.970  -7.636 -26.040  1.00  0.00     0.110 C 
ATOM     24  C   UNL     1     -10.410  -8.698 -27.050  1.00  0.00     0.036 C 
BRANCH  23  25
ATOM     25  N   UNL     1     -10.869  -6.499 -26.092  1.00  0.00    -0.345 N 
ATOM     26  C   UNL     1     -12.195  -6.604 -26.460  1.00  0.00     0.262 C 
ATOM     27  O   UNL     1     -12.699  -7.698 -26.704  1.00  0.00    -0.268 OA
ATOM     28  H   UNL     1     -10.489  -5.573 -25.959  1.00  0.00     0.164 HD
BRANCH  26  29
ATOM     29  C   UNL     1     -12.936  -5.343 -26.541  1.00  0.00     0.096 A 
ATOM     30  S   UNL     1     -13.946  -4.834 -25.257  1.00  0.00    -0.130 S 
ATOM     31  C   UNL     1     -12.940  -4.424 -27.586  1.00  0.00    -0.020 A 
ATOM     32  C   UNL     1     -14.415  -3.397 -26.063  1.00  0.00     0.035 A 
ATOM     33  C   UNL     1     -13.804  -3.289 -27.313  1.00  0.00    -0.002 A 
ATOM     34  C   UNL     1     -15.300  -2.414 -25.576  1.00  0.00     0.021 A 
ATOM     35  C   UNL     1     -14.104  -2.139 -28.091  1.00  0.00     0.030 A 
ATOM     36  C   UNL     1     -15.576  -1.298 -26.368  1.00  0.00     0.022 A 
ATOM     37  C   UNL     1     -14.984  -1.165 -27.612  1.00  0.00     0.041 A 
ATOM     38  C   UNL     1     -12.142  -4.592 -28.847  1.00  0.00     0.047 C 
ATOM     39  Cl  UNL     1     -15.333   0.214 -28.582  1.00  0.00    -0.084 Cl
ENDBRANCH  26  29
ENDBRANCH  23  25
ENDBRANCH  20  23
ENDBRANCH  15  16
ENDBRANCH   3  15
TORSDOF 10
ENDMDL
MODEL 3
REMARK VINA RESULT:    -8.988      2.496      3.619
REMARK INTER + INTRA:         -15.305
REMARK INTER:                 -15.301
REMARK INTRA:                  -0.004
REMARK UNBOUND:                -1.325
REMARK SMILES CCc1cc(Oc2cc(F)cc([C@@H](C)NC(=O)c3sc4ccc(Cl)cc4c3C)c2)ccc1CCC(=O)O
REMARK SMILES IDX 3 1 4 2 5 3 30 4 31 5 32 6 2 7 1 8 33 9 34 10 35 11 36 12
REMARK SMILES IDX 37 13 6 15 7 16 8 17 29 18 9 19 12 20 11 21 10 22 13 23
REMARK SMILES IDX 14 24 15 25 16 26 17 27 18 29 19 30 27 31 20 32 26 33 21 34
REMARK SMILES IDX 25 35 22 36 23 37 28 38 24 39
REMARK H PARENT 37 14 15 28
ROOT
ATOM      1  C   UNL     1      -7.998  -6.170 -20.218  1.00  0.00    -0.041 A 
ATOM      2  C   UNL     1      -8.672  -7.161 -20.958  1.00  0.00     0.051 A 
ATOM      3  C   UNL     1      -7.964  -8.142 -21.655  1.00  0.00     0.127 A 
ATOM      4  C   UNL     1      -6.576  -8.174 -21.591  1.00  0.00     0.047 A 
ATOM      5  C   UNL     1      -5.893  -7.204 -20.856  1.00  0.00     0.008 A 
ATOM      6  C   UNL     1      -6.588  -6.198 -20.161  1.00  0.00    -0.044 A 
ENDROOT
BRANCH   1   7
ATOM      7  C   UNL     1      -8.833  -5.145 -19.484  1.00  0.00     0.032 C 
ATOM      8  C   UNL     1      -9.928  -5.796 -18.650  1.00  0.00     0.009 C 
ENDBRANCH   1   7
BRANCH   6   9
ATOM      9  C   UNL     1      -5.776  -5.175 -19.395  1.00  0.00     0.047 C 
BRANCH   9  10
ATOM     10  C   UNL     1      -4.518  -4.767 -20.158  1.00  0.00     0.127 C 
BRANCH  10  11
ATOM     11  C   UNL     1      -4.429  -3.274 -20.288  1.00  0.00     0.303 C 
ATOM     12  O   UNL     1      -3.796  -2.504 -19.587  1.00  0.00    -0.252 OA
BRANCH  11  13
ATOM     13  O   UNL     1      -5.165  -2.814 -21.320  1.00  0.00    -0.481 OA
ATOM     14  H   UNL     1      -4.506  -2.635 -22.024  1.00  0.00     0.296 HD
ENDBRANCH  11  13
ENDBRANCH  10  11
ENDBRANCH   9  10
ENDBRANCH   6   9
BRANCH   3  15
ATOM     15  O   UNL     1      -8.578  -9.148 -22.366  1.00  0.00    -0.457 OA
BRANCH  15  16
ATOM     16  C   UNL     1      -8.080  -9.439 -23.617  1.00  0.00     0.130 A 
ATOM     17  C   UNL     1      -7.026 -10.343 -23.680  1.00  0.00     0.086 A 
ATOM     18  C   UNL     1      -8.545  -8.805 -24.778  1.00  0.00     0.053 A 
ATOM     19  C   UNL     1      -6.463 -10.637 -24.913  1.00  0.00     0.127 A 
ATOM     20  C   UNL     1      -7.990  -9.115 -26.032  1.00  0.00    -0.019 A 
ATOM     21  C   UNL     1      -6.931 -10.038 -26.079  1.00  0.00     0.045 A 
ATOM     22  F   UNL     1      -5.448 -11.508 -24.983  1.00  0.00    -0.207 F 
BRANCH  20  23
ATOM     23  C   UNL     1      -8.441  -8.448 -27.319  1.00  0.00     0.110 C 
ATOM     24  C   UNL     1      -8.906  -9.418 -28.408  1.00  0.00     0.036 C 
BRANCH  23  25
ATOM     25  N   UNL     1      -9.494  -7.500 -27.016  1.00  0.00    -0.345 N 
ATOM     26  C   UNL     1     -10.826  -7.741 -27.285  1.00  0.00     0.262 C 
ATOM     27  O   UNL     1     -11.192  -8.821 -27.745  1.00  0.00    -0.268 OA
ATOM     28  H   UNL     1      -9.239  -6.578 -26.693  1.00  0.00     0.164 HD
BRANCH  26  29
ATOM     29  C   UNL     1     -11.746  -6.640 -26.991  1.00  0.00     0.096 A 
ATOM     30  S   UNL     1     -12.659  -6.619 -25.545  1.00  0.00    -0.130 S 
ATOM     31  C   UNL     1     -12.008  -5.519 -27.775  1.00  0.00    -0.020 A 
ATOM     32  C   UNL     1     -13.423  -5.135 -25.930  1.00  0.00     0.035 A 
ATOM     33  C   UNL     1     -12.988  -4.641 -27.161  1.00  0.00    -0.002 A 
ATOM     34  C   UNL     1     -14.377  -4.456 -25.146  1.00  0.00     0.021 A 
ATOM     35  C   UNL     1     -13.542  -3.411 -27.605  1.00  0.00     0.030 A 
ATOM     36  C   UNL     1     -14.904  -3.250 -25.614  1.00  0.00     0.022 A 
ATOM     37  C   UNL     1     -14.490  -2.737 -26.831  1.00  0.00     0.041 A 
ATOM     38  C   UNL     1     -11.350  -5.255 -29.099  1.00  0.00     0.047 C 
ATOM     39  Cl  UNL     1     -15.149  -1.251 -27.399  1.00  0.00    -0.084 Cl
ENDBRANCH  26  29
ENDBRANCH  23  25
ENDBRANCH  20  23
ENDBRANCH  15  16
ENDBRANCH   3  15
TORSDOF 10
ENDMDL
MODEL 4
REMARK VINA RESULT:    -8.649      3.202      3.876
REMARK INTER + INTRA:         -14.777
REMARK INTER:                 -13.632
REMARK INTRA:                  -1.145
REMARK UNBOUND:                -1.325
REMARK SMILES CCc1cc(Oc2cc(F)cc([C@@H](C)NC(=O)c3sc4ccc(Cl)cc4c3C)c2)ccc1CCC(=O)O
REMARK SMILES IDX 3 1 4 2 5 3 30 4 31 5 32 6 2 7 1 8 33 9 34 10 35 11 36 12
REMARK SMILES IDX 37 13 6 15 7 16 8 17 29 18 9 19 12 20 11 21 10 22 13 23
REMARK SMILES IDX 14 24 15 25 16 26 17 27 18 29 19 30 27 31 20 32 26 33 21 34
REMARK SMILES IDX 25 35 22 36 23 37 28 38 24 39
REMARK H PARENT 37 14 15 28
ROOT
ATOM      1  C   UNL     1      -7.486  -6.196 -21.095  1.00  0.00    -0.041 A 
ATOM      2  C   UNL     1      -8.159  -6.876 -22.129  1.00  0.00     0.051 A 
ATOM      3  C   UNL     1      -7.658  -8.071 -22.647  1.00  0.00     0.127 A 
ATOM      4  C   UNL     1      -6.502  -8.628 -22.115  1.00  0.00     0.047 A 
ATOM      5  C   UNL     1      -5.826  -7.972 -21.086  1.00  0.00     0.008 A 
ATOM      6  C   UNL     1      -6.306  -6.757 -20.562  1.00  0.00    -0.044 A 
ENDROOT
BRANCH   1   7
ATOM      7  C   UNL     1      -8.093  -4.910 -20.580  1.00  0.00     0.032 C 
ATOM      8  C   UNL     1      -9.084  -5.161 -19.452  1.00  0.00     0.009 C 
ENDBRANCH   1   7
BRANCH   6   9
ATOM      9  C   UNL     1      -5.511  -6.100 -19.453  1.00  0.00     0.047 C 
BRANCH   9  10
ATOM     10  C   UNL     1      -4.357  -5.266 -20.004  1.00  0.00     0.127 C 
BRANCH  10  11
ATOM     11  C   UNL     1      -4.759  -3.828 -20.160  1.00  0.00     0.303 C 
ATOM     12  O   UNL     1      -5.031  -3.240 -21.192  1.00  0.00    -0.252 OA
BRANCH  11  13
ATOM     13  O   UNL     1      -4.796  -3.185 -18.975  1.00  0.00    -0.481 OA
ATOM     14  H   UNL     1      -3.864  -2.923 -18.816  1.00  0.00     0.296 HD
ENDBRANCH  11  13
ENDBRANCH  10  11
ENDBRANCH   9  10
ENDBRANCH   6   9
BRANCH   3  15
ATOM     15  O   UNL     1      -8.297  -8.786 -23.635  1.00  0.00    -0.457 OA
BRANCH  15  16
ATOM     16  C   UNL     1      -9.657  -8.619 -23.763  1.00  0.00     0.130 A 
ATOM     17  C   UNL     1     -10.459  -9.221 -22.799  1.00  0.00     0.086 A 
ATOM     18  C   UNL     1     -10.234  -7.947 -24.849  1.00  0.00     0.053 A 
ATOM     19  C   UNL     1     -11.837  -9.115 -22.907  1.00  0.00     0.127 A 
ATOM     20  C   UNL     1     -11.631  -7.821 -24.952  1.00  0.00    -0.019 A 
ATOM     21  C   UNL     1     -12.426  -8.426 -23.964  1.00  0.00     0.045 A 
ATOM     22  F   UNL     1     -12.617  -9.690 -21.982  1.00  0.00    -0.207 F 
BRANCH  20  23
ATOM     23  C   UNL     1     -12.311  -7.119 -26.114  1.00  0.00     0.110 C 
ATOM     24  C   UNL     1     -12.764  -5.688 -25.815  1.00  0.00     0.036 C 
BRANCH  23  25
ATOM     25  N   UNL     1     -11.421  -7.129 -27.258  1.00  0.00    -0.345 N 
ATOM     26  C   UNL     1     -11.871  -7.197 -28.561  1.00  0.00     0.262 C 
ATOM     27  O   UNL     1     -13.074  -7.188 -28.816  1.00  0.00    -0.268 OA
ATOM     28  H   UNL     1     -10.427  -7.198 -27.100  1.00  0.00     0.164 HD
BRANCH  26  29
ATOM     29  C   UNL     1     -10.832  -7.283 -29.591  1.00  0.00     0.096 A 
ATOM     30  S   UNL     1     -10.916  -6.326 -31.006  1.00  0.00    -0.130 S 
ATOM     31  C   UNL     1      -9.698  -8.090 -29.588  1.00  0.00    -0.020 A 
ATOM     32  C   UNL     1      -9.462  -6.966 -31.646  1.00  0.00     0.035 A 
ATOM     33  C   UNL     1      -8.897  -7.910 -30.787  1.00  0.00    -0.002 A 
ATOM     34  C   UNL     1      -8.865  -6.622 -32.875  1.00  0.00     0.021 A 
ATOM     35  C   UNL     1      -7.682  -8.522 -31.195  1.00  0.00     0.030 A 
ATOM     36  C   UNL     1      -7.673  -7.246 -33.248  1.00  0.00     0.022 A 
ATOM     37  C   UNL     1      -7.091  -8.186 -32.415  1.00  0.00     0.041 A 
ATOM     38  C   UNL     1      -9.348  -9.034 -28.474  1.00  0.00     0.047 C 
ATOM     39  Cl  UNL     1      -5.621  -8.950 -32.885  1.00  0.00    -0.084 Cl
ENDBRANCH  26  29
ENDBRANCH  23  25
ENDBRANCH  20  23
ENDBRANCH  15  16
ENDBRANCH   3  15
TORSDOF 10
ENDMDL
MODEL 5
REMARK VINA RESULT:    -8.502      2.037      2.935
REMARK INTER + INTRA:         -14.549
REMARK INTER:                 -14.428
REMARK INTRA:                  -0.120
REMARK UNBOUND:                -1.325
REMARK SMILES CCc1cc(Oc2cc(F)cc([C@@H](C)NC(=O)c3sc4ccc(Cl)cc4c3C)c2)ccc1CCC(=O)O
REMARK SMILES IDX 3 1 4 2 5 3 30 4 31 5 32 6 2 7 1 8 33 9 34 10 35 11 36 12
REMARK SMILES IDX 37 13 6 15 7 16 8 17 29 18 9 19 12 20 11 21 10 22 13 23
REMARK SMILES IDX 14 24 15 25 16 26 17 27 18 29 19 30 27 31 20 32 26 33 21 34
REMARK SMILES IDX 25 35 22 36 23 37 28 38 24 39
REMARK H PARENT 37 14 15 28
ROOT
ATOM      1  C   UNL     1      -7.584  -6.047 -20.532  1.00  0.00    -0.041 A 
ATOM      2  C   UNL     1      -8.216  -7.064 -21.273  1.00  0.00     0.051 A 
ATOM      3  C   UNL     1      -7.484  -8.136 -21.789  1.00  0.00     0.127 A 
ATOM      4  C   UNL     1      -6.122  -8.232 -21.536  1.00  0.00     0.047 A 
ATOM      5  C   UNL     1      -5.481  -7.237 -20.797  1.00  0.00     0.008 A 
ATOM      6  C   UNL     1      -6.198  -6.140 -20.285  1.00  0.00    -0.044 A 
ENDROOT
BRANCH   1   7
ATOM      7  C   UNL     1      -8.443  -4.921 -20.000  1.00  0.00     0.032 C 
ATOM      8  C   UNL     1      -9.379  -5.392 -18.896  1.00  0.00     0.009 C 
ENDBRANCH   1   7
BRANCH   6   9
ATOM      9  C   UNL     1      -5.430  -5.095 -19.501  1.00  0.00     0.047 C 
BRANCH   9  10
ATOM     10  C   UNL     1      -4.510  -4.276 -20.404  1.00  0.00     0.127 C 
BRANCH  10  11
ATOM     11  C   UNL     1      -4.018  -3.047 -19.696  1.00  0.00     0.303 C 
ATOM     12  O   UNL     1      -3.008  -2.408 -19.933  1.00  0.00    -0.252 OA
BRANCH  11  13
ATOM     13  O   UNL     1      -4.843  -2.679 -18.694  1.00  0.00    -0.481 OA
ATOM     14  H   UNL     1      -5.711  -3.057 -18.947  1.00  0.00     0.296 HD
ENDBRANCH  11  13
ENDBRANCH  10  11
ENDBRANCH   9  10
ENDBRANCH   6   9
BRANCH   3  15
ATOM     15  O   UNL     1      -8.062  -9.169 -22.492  1.00  0.00    -0.457 OA
BRANCH  15  16
ATOM     16  C   UNL     1      -9.114  -8.860 -23.326  1.00  0.00     0.130 A 
ATOM     17  C   UNL     1     -10.395  -9.039 -22.816  1.00  0.00     0.086 A 
ATOM     18  C   UNL     1      -8.927  -8.460 -24.657  1.00  0.00     0.053 A 
ATOM     19  C   UNL     1     -11.487  -8.782 -23.631  1.00  0.00     0.127 A 
ATOM     20  C   UNL     1     -10.031  -8.179 -25.480  1.00  0.00    -0.019 A 
ATOM     21  C   UNL     1     -11.319  -8.356 -24.946  1.00  0.00     0.045 A 
ATOM     22  F   UNL     1     -12.724  -8.949 -23.147  1.00  0.00    -0.207 F 
BRANCH  20  23
ATOM     23  C   UNL     1      -9.890  -7.759 -26.932  1.00  0.00     0.110 C 
ATOM     24  C   UNL     1     -10.116  -8.884 -27.944  1.00  0.00     0.036 C 
BRANCH  23  25
ATOM     25  N   UNL     1     -10.800  -6.662 -27.197  1.00  0.00    -0.345 N 
ATOM     26  C   UNL     1     -11.160  -6.273 -28.471  1.00  0.00     0.262 C 
ATOM     27  O   UNL     1     -10.765  -6.893 -29.456  1.00  0.00    -0.268 OA
ATOM     28  H   UNL     1     -11.103  -6.085 -26.425  1.00  0.00     0.164 HD
BRANCH  26  29
ATOM     29  C   UNL     1     -12.022  -5.092 -28.557  1.00  0.00     0.096 A 
ATOM     30  S   UNL     1     -13.293  -4.848 -27.439  1.00  0.00    -0.130 S 
ATOM     31  C   UNL     1     -11.954  -4.056 -29.485  1.00  0.00    -0.020 A 
ATOM     32  C   UNL     1     -13.784  -3.376 -28.165  1.00  0.00     0.035 A 
ATOM     33  C   UNL     1     -12.983  -3.055 -29.262  1.00  0.00    -0.002 A 
ATOM     34  C   UNL     1     -14.852  -2.554 -27.753  1.00  0.00     0.021 A 
ATOM     35  C   UNL     1     -13.279  -1.854 -29.960  1.00  0.00     0.030 A 
ATOM     36  C   UNL     1     -15.119  -1.382 -28.464  1.00  0.00     0.022 A 
ATOM     37  C   UNL     1     -14.340  -1.039 -29.556  1.00  0.00     0.041 A 
ATOM     38  C   UNL     1     -10.935  -3.988 -30.586  1.00  0.00     0.047 C 
ATOM     39  Cl  UNL     1     -14.678   0.407 -30.426  1.00  0.00    -0.084 Cl
ENDBRANCH  26  29
ENDBRANCH  23  25
ENDBRANCH  20  23
ENDBRANCH  15  16
ENDBRANCH   3  15
TORSDOF 10
ENDMDL
MODEL 6
REMARK VINA RESULT:    -8.324      2.513      3.913
REMARK INTER + INTRA:         -14.272
REMARK INTER:                 -13.391
REMARK INTRA:                  -0.881
REMARK UNBOUND:                -1.325
REMARK SMILES CCc1cc(Oc2cc(F)cc([C@@H](C)NC(=O)c3sc4ccc(Cl)cc4c3C)c2)ccc1CCC(=O)O
REMARK SMILES IDX 3 1 4 2 5 3 30 4 31 5 32 6 2 7 1 8 33 9 34 10 35 11 36 12
REMARK SMILES IDX 37 13 6 15 7 16 8 17 29 18 9 19 12 20 11 21 10 22 13 23
REMARK SMILES IDX 14 24 15 25 16 26 17 27 18 29 19 30 27 31 20 32 26 33 21 34
REMARK SMILES IDX 25 35 22 36 23 37 28 38 24 39
REMARK H PARENT 37 14 15 28
ROOT
ATOM      1  C   UNL     1     -10.052  -8.822 -22.239  1.00  0.00    -0.041 A 
ATOM      2  C   UNL     1     -11.068  -8.893 -23.212  1.00  0.00     0.051 A 
ATOM      3  C   UNL     1     -10.893  -8.324 -24.475  1.00  0.00     0.127 A 
ATOM      4  C   UNL     1      -9.688  -7.716 -24.802  1.00  0.00     0.047 A 
ATOM      5  C   UNL     1      -8.667  -7.643 -23.853  1.00  0.00     0.008 A 
ATOM      6  C   UNL     1      -8.831  -8.194 -22.569  1.00  0.00    -0.044 A 
ENDROOT
BRANCH   1   7
ATOM      7  C   UNL     1     -10.312  -9.466 -20.896  1.00  0.00     0.032 C 
ATOM      8  C   UNL     1     -11.412  -8.750 -20.125  1.00  0.00     0.009 C 
ENDBRANCH   1   7
BRANCH   6   9
ATOM      9  C   UNL     1      -7.682  -8.067 -21.590  1.00  0.00     0.047 C 
BRANCH   9  10
ATOM     10  C   UNL     1      -7.243  -6.614 -21.422  1.00  0.00     0.127 C 
BRANCH  10  11
ATOM     11  C   UNL     1      -8.058  -5.926 -20.366  1.00  0.00     0.303 C 
ATOM     12  O   UNL     1      -8.543  -6.418 -19.363  1.00  0.00    -0.252 OA
BRANCH  11  13
ATOM     13  O   UNL     1      -8.231  -4.616 -20.639  1.00  0.00    -0.481 OA
ATOM     14  H   UNL     1      -8.948  -4.337 -20.031  1.00  0.00     0.296 HD
ENDBRANCH  11  13
ENDBRANCH  10  11
ENDBRANCH   9  10
ENDBRANCH   6   9
BRANCH   3  15
ATOM     15  O   UNL     1     -11.845  -8.395 -25.468  1.00  0.00    -0.457 OA
BRANCH  15  16
ATOM     16  C   UNL     1     -11.911  -7.349 -26.361  1.00  0.00     0.130 A 
ATOM     17  C   UNL     1     -12.501  -6.173 -25.911  1.00  0.00     0.086 A 
ATOM     18  C   UNL     1     -11.483  -7.467 -27.691  1.00  0.00     0.053 A 
ATOM     19  C   UNL     1     -12.628  -5.105 -26.786  1.00  0.00     0.127 A 
ATOM     20  C   UNL     1     -11.592  -6.379 -28.575  1.00  0.00    -0.019 A 
ATOM     21  C   UNL     1     -12.182  -5.195 -28.102  1.00  0.00     0.045 A 
ATOM     22  F   UNL     1     -13.193  -3.967 -26.360  1.00  0.00    -0.207 F 
BRANCH  20  23
ATOM     23  C   UNL     1     -11.161  -6.455 -30.029  1.00  0.00     0.110 C 
ATOM     24  C   UNL     1     -12.058  -7.322 -30.914  1.00  0.00     0.036 C 
BRANCH  23  25
ATOM     25  N   UNL     1     -11.081  -5.111 -30.568  1.00  0.00    -0.345 N 
ATOM     26  C   UNL     1      -9.985  -4.642 -31.262  1.00  0.00     0.262 C 
ATOM     27  O   UNL     1      -9.033  -5.378 -31.513  1.00  0.00    -0.268 OA
ATOM     28  H   UNL     1     -11.810  -4.452 -30.338  1.00  0.00     0.164 HD
BRANCH  26  29
ATOM     29  C   UNL     1     -10.039  -3.234 -31.663  1.00  0.00     0.096 A 
ATOM     30  S   UNL     1      -8.664  -2.454 -32.318  1.00  0.00    -0.130 S 
ATOM     31  C   UNL     1     -11.126  -2.368 -31.585  1.00  0.00    -0.020 A 
ATOM     32  C   UNL     1      -9.477  -0.957 -32.502  1.00  0.00     0.035 A 
ATOM     33  C   UNL     1     -10.802  -1.038 -32.071  1.00  0.00    -0.002 A 
ATOM     34  C   UNL     1      -8.929   0.236 -33.015  1.00  0.00     0.021 A 
ATOM     35  C   UNL     1     -11.595   0.136 -32.168  1.00  0.00     0.030 A 
ATOM     36  C   UNL     1      -9.736   1.373 -33.094  1.00  0.00     0.022 A 
ATOM     37  C   UNL     1     -11.054   1.320 -32.673  1.00  0.00     0.041 A 
ATOM     38  C   UNL     1     -12.475  -2.769 -31.060  1.00  0.00     0.047 C 
ATOM     39  Cl  UNL     1     -12.039   2.729 -32.773  1.00  0.00    -0.084 Cl
ENDBRANCH  26  29
ENDBRANCH  23  25
ENDBRANCH  20  23
ENDBRANCH  15  16
ENDBRANCH   3  15
TORSDOF 10
ENDMDL
MODEL 7
REMARK VINA RESULT:    -8.196      5.071     10.240
REMARK INTER + INTRA:         -14.073
REMARK INTER:                 -13.199
REMARK INTRA:                  -0.874
REMARK UNBOUND:                -1.325
REMARK SMILES CCc1cc(Oc2cc(F)cc([C@@H](C)NC(=O)c3sc4ccc(Cl)cc4c3C)c2)ccc1CCC(=O)O
REMARK SMILES IDX 3 1 4 2 5 3 30 4 31 5 32 6 2 7 1 8 33 9 34 10 35 11 36 12
REMARK SMILES IDX 37 13 6 15 7 16 8 17 29 18 9 19 12 20 11 21 10 22 13 23
REMARK SMILES IDX 14 24 15 25 16 26 17 27 18 29 19 30 27 31 20 32 26 33 21 34
REMARK SMILES IDX 25 35 22 36 23 37 28 38 24 39
REMARK H PARENT 37 14 15 28
ROOT
ATOM      1  C   UNL     1     -10.110  -9.288 -31.047  1.00  0.00    -0.041 A 
ATOM      2  C   UNL     1      -9.860  -7.907 -30.928  1.00  0.00     0.051 A 
ATOM      3  C   UNL     1     -10.911  -6.989 -30.882  1.00  0.00     0.127 A 
ATOM      4  C   UNL     1     -12.226  -7.437 -30.911  1.00  0.00     0.047 A 
ATOM      5  C   UNL     1     -12.491  -8.802 -31.021  1.00  0.00     0.008 A 
ATOM      6  C   UNL     1     -11.446  -9.741 -31.087  1.00  0.00    -0.044 A 
ENDROOT
BRANCH   1   7
ATOM      7  C   UNL     1      -8.921 -10.222 -31.085  1.00  0.00     0.032 C 
ATOM      8  C   UNL     1      -7.624  -9.505 -30.736  1.00  0.00     0.009 C 
ENDBRANCH   1   7
BRANCH   6   9
ATOM      9  C   UNL     1     -11.814 -11.205 -31.215  1.00  0.00     0.047 C 
BRANCH   9  10
ATOM     10  C   UNL     1     -13.326 -11.413 -31.156  1.00  0.00     0.127 C 
BRANCH  10  11
ATOM     11  C   UNL     1     -13.663 -12.717 -30.493  1.00  0.00     0.303 C 
ATOM     12  O   UNL     1     -14.409 -12.898 -29.547  1.00  0.00    -0.252 OA
BRANCH  11  13
ATOM     13  O   UNL     1     -13.020 -13.754 -31.067  1.00  0.00    -0.481 OA
ATOM     14  H   UNL     1     -12.368 -13.331 -31.665  1.00  0.00     0.296 HD
ENDBRANCH  11  13
ENDBRANCH  10  11
ENDBRANCH   9  10
ENDBRANCH   6   9
BRANCH   3  15
ATOM     15  O   UNL     1     -10.717  -5.634 -30.736  1.00  0.00    -0.457 OA
BRANCH  15  16
ATOM     16  C   UNL     1     -11.557  -4.960 -29.877  1.00  0.00     0.130 A 
ATOM     17  C   UNL     1     -12.097  -3.763 -30.335  1.00  0.00     0.086 A 
ATOM     18  C   UNL     1     -11.806  -5.400 -28.570  1.00  0.00     0.053 A 
ATOM     19  C   UNL     1     -12.916  -3.027 -29.492  1.00  0.00     0.127 A 
ATOM     20  C   UNL     1     -12.652  -4.667 -27.719  1.00  0.00    -0.019 A 
ATOM     21  C   UNL     1     -13.197  -3.464 -28.200  1.00  0.00     0.045 A 
ATOM     22  F   UNL     1     -13.442  -1.874 -29.925  1.00  0.00    -0.207 F 
BRANCH  20  23
ATOM     23  C   UNL     1     -12.945  -5.086 -26.289  1.00  0.00     0.110 C 
ATOM     24  C   UNL     1     -14.290  -5.788 -26.095  1.00  0.00     0.036 C 
BRANCH  23  25
ATOM     25  N   UNL     1     -11.869  -5.934 -25.816  1.00  0.00    -0.345 N 
ATOM     26  C   UNL     1     -11.918  -7.312 -25.866  1.00  0.00     0.262 C 
ATOM     27  O   UNL     1     -12.871  -7.892 -26.383  1.00  0.00    -0.268 OA
ATOM     28  H   UNL     1     -11.093  -5.508 -25.329  1.00  0.00     0.164 HD
BRANCH  26  29
ATOM     29  C   UNL     1     -10.780  -8.013 -25.267  1.00  0.00     0.096 A 
ATOM     30  S   UNL     1     -10.835  -8.551 -23.643  1.00  0.00    -0.130 S 
ATOM     31  C   UNL     1      -9.567  -8.335 -25.869  1.00  0.00    -0.020 A 
ATOM     32  C   UNL     1      -9.255  -9.209 -23.703  1.00  0.00     0.035 A 
ATOM     33  C   UNL     1      -8.673  -9.030 -24.959  1.00  0.00    -0.002 A 
ATOM     34  C   UNL     1      -8.577  -9.857 -22.650  1.00  0.00     0.021 A 
ATOM     35  C   UNL     1      -7.358  -9.531 -25.148  1.00  0.00     0.030 A 
ATOM     36  C   UNL     1      -7.284 -10.335 -22.870  1.00  0.00     0.022 A 
ATOM     37  C   UNL     1      -6.683 -10.171 -24.106  1.00  0.00     0.041 A 
ATOM     38  C   UNL     1      -9.228  -8.000 -27.293  1.00  0.00     0.047 C 
ATOM     39  Cl  UNL     1      -5.087 -10.762 -24.364  1.00  0.00    -0.084 Cl
ENDBRANCH  26  29
ENDBRANCH  23  25
ENDBRANCH  20  23
ENDBRANCH  15  16
ENDBRANCH   3  15
TORSDOF 10
ENDMDL
MODEL 8
REMARK VINA RESULT:    -8.188      2.903      3.904
REMARK INTER + INTRA:         -14.060
REMARK INTER:                 -13.062
REMARK INTRA:                  -0.997
REMARK UNBOUND:                -1.325
REMARK SMILES CCc1cc(Oc2cc(F)cc([C@@H](C)NC(=O)c3sc4ccc(Cl)cc4c3C)c2)ccc1CCC(=O)O
REMARK SMILES IDX 3 1 4 2 5 3 30 4 31 5 32 6 2 7 1 8 33 9 34 10 35 11 36 12
REMARK SMILES IDX 37 13 6 15 7 16 8 17 29 18 9 19 12 20 11 21 10 22 13 23
REMARK SMILES IDX 14 24 15 25 16 26 17 27 18 29 19 30 27 31 20 32 26 33 21 34
REMARK SMILES IDX 25 35 22 36 23 37 28 38 24 39
REMARK H PARENT 37 14 15 28
ROOT
ATOM      1  C   UNL     1      -7.454  -5.793 -20.349  1.00  0.00    -0.041 A 
ATOM      2  C   UNL     1      -8.109  -6.846 -21.016  1.00  0.00     0.051 A 
ATOM      3  C   UNL     1      -7.389  -7.922 -21.539  1.00  0.00     0.127 A 
ATOM      4  C   UNL     1      -6.012  -7.984 -21.368  1.00  0.00     0.047 A 
ATOM      5  C   UNL     1      -5.348  -6.953 -20.703  1.00  0.00     0.008 A 
ATOM      6  C   UNL     1      -6.054  -5.852 -20.184  1.00  0.00    -0.044 A 
ENDROOT
BRANCH   1   7
ATOM      7  C   UNL     1      -8.302  -4.665 -19.803  1.00  0.00     0.032 C 
ATOM      8  C   UNL     1      -9.563  -5.179 -19.123  1.00  0.00     0.009 C 
ENDBRANCH   1   7
BRANCH   6   9
ATOM      9  C   UNL     1      -5.261  -4.767 -19.484  1.00  0.00     0.047 C 
BRANCH   9  10
ATOM     10  C   UNL     1      -4.283  -4.081 -20.435  1.00  0.00     0.127 C 
BRANCH  10  11
ATOM     11  C   UNL     1      -4.335  -2.589 -20.274  1.00  0.00     0.303 C 
ATOM     12  O   UNL     1      -4.679  -1.765 -21.103  1.00  0.00    -0.252 OA
BRANCH  11  13
ATOM     13  O   UNL     1      -3.935  -2.201 -19.046  1.00  0.00    -0.481 OA
ATOM     14  H   UNL     1      -3.923  -1.222 -19.096  1.00  0.00     0.296 HD
ENDBRANCH  11  13
ENDBRANCH  10  11
ENDBRANCH   9  10
ENDBRANCH   6   9
BRANCH   3  15
ATOM     15  O   UNL     1      -7.987  -8.988 -22.172  1.00  0.00    -0.457 OA
BRANCH  15  16
ATOM     16  C   UNL     1      -8.726  -8.724 -23.303  1.00  0.00     0.130 A 
ATOM     17  C   UNL     1     -10.106  -8.638 -23.147  1.00  0.00     0.086 A 
ATOM     18  C   UNL     1      -8.146  -8.623 -24.575  1.00  0.00     0.053 A 
ATOM     19  C   UNL     1     -10.897  -8.414 -24.264  1.00  0.00     0.127 A 
ATOM     20  C   UNL     1      -8.942  -8.376 -25.706  1.00  0.00    -0.019 A 
ATOM     21  C   UNL     1     -10.334  -8.282 -25.531  1.00  0.00     0.045 A 
ATOM     22  F   UNL     1     -12.226  -8.328 -24.124  1.00  0.00    -0.207 F 
BRANCH  20  23
ATOM     23  C   UNL     1      -8.371  -8.273 -27.109  1.00  0.00     0.110 C 
ATOM     24  C   UNL     1      -7.334  -9.345 -27.453  1.00  0.00     0.036 C 
BRANCH  23  25
ATOM     25  N   UNL     1      -9.459  -8.310 -28.066  1.00  0.00    -0.345 N 
ATOM     26  C   UNL     1      -9.302  -7.984 -29.398  1.00  0.00     0.262 C 
ATOM     27  O   UNL     1      -8.195  -7.703 -29.854  1.00  0.00    -0.268 OA
ATOM     28  H   UNL     1     -10.397  -8.476 -27.730  1.00  0.00     0.164 HD
BRANCH  26  29
ATOM     29  C   UNL     1     -10.524  -7.993 -30.205  1.00  0.00     0.096 A 
ATOM     30  S   UNL     1     -11.305  -9.463 -30.602  1.00  0.00    -0.130 S 
ATOM     31  C   UNL     1     -11.200  -6.899 -30.738  1.00  0.00    -0.020 A 
ATOM     32  C   UNL     1     -12.542  -8.682 -31.493  1.00  0.00     0.035 A 
ATOM     33  C   UNL     1     -12.376  -7.296 -31.492  1.00  0.00    -0.002 A 
ATOM     34  C   UNL     1     -13.615  -9.306 -32.161  1.00  0.00     0.021 A 
ATOM     35  C   UNL     1     -13.336  -6.521 -32.195  1.00  0.00     0.030 A 
ATOM     36  C   UNL     1     -14.539  -8.515 -32.846  1.00  0.00     0.022 A 
ATOM     37  C   UNL     1     -14.398  -7.138 -32.861  1.00  0.00     0.041 A 
ATOM     38  C   UNL     1     -10.759  -5.475 -30.551  1.00  0.00     0.047 C 
ATOM     39  Cl  UNL     1     -15.543  -6.172 -33.710  1.00  0.00    -0.084 Cl
ENDBRANCH  26  29
ENDBRANCH  23  25
ENDBRANCH  20  23
ENDBRANCH  15  16
ENDBRANCH   3  15
TORSDOF 10
ENDMDL
MODEL 9
REMARK VINA RESULT:    -8.090      4.207      5.959
REMARK INTER + INTRA:         -13.908
REMARK INTER:                 -13.428
REMARK INTRA:                  -0.480
REMARK UNBOUND:                -1.325
REMARK SMILES CCc1cc(Oc2cc(F)cc([C@@H](C)NC(=O)c3sc4ccc(Cl)cc4c3C)c2)ccc1CCC(=O)O
REMARK SMILES IDX 3 1 4 2 5 3 30 4 31 5 32 6 2 7 1 8 33 9 34 10 35 11 36 12
REMARK SMILES IDX 37 13 6 15 7 16 8 17 29 18 9 19 12 20 11 21 10 22 13 23
REMARK SMILES IDX 14 24 15 25 16 26 17 27 18 29 19 30 27 31 20 32 26 33 21 34
REMARK SMILES IDX 25 35 22 36 23 37 28 38 24 39
REMARK H PARENT 37 14 15 28
ROOT
ATOM      1  C   UNL     1      -7.409  -9.522 -25.043  1.00  0.00    -0.041 A 
ATOM      2  C   UNL     1      -6.967  -9.834 -26.344  1.00  0.00     0.051 A 
ATOM      3  C   UNL     1      -7.546  -9.232 -27.463  1.00  0.00     0.127 A 
ATOM      4  C   UNL     1      -8.544  -8.280 -27.300  1.00  0.00     0.047 A 
ATOM      5  C   UNL     1      -8.989  -7.953 -26.019  1.00  0.00     0.008 A 
ATOM      6  C   UNL     1      -8.430  -8.562 -24.880  1.00  0.00    -0.044 A 
ENDROOT
BRANCH   1   7
ATOM      7  C   UNL     1      -6.730 -10.209 -23.881  1.00  0.00     0.032 C 
ATOM      8  C   UNL     1      -5.503 -10.996 -24.322  1.00  0.00     0.009 C 
ENDBRANCH   1   7
BRANCH   6   9
ATOM      9  C   UNL     1      -8.974  -8.162 -23.524  1.00  0.00     0.047 C 
BRANCH   9  10
ATOM     10  C   UNL     1      -9.751  -9.302 -22.870  1.00  0.00     0.127 C 
BRANCH  10  11
ATOM     11  C   UNL     1     -11.230  -9.107 -23.034  1.00  0.00     0.303 C 
ATOM     12  O   UNL     1     -11.815  -8.632 -23.991  1.00  0.00    -0.252 OA
BRANCH  11  13
ATOM     13  O   UNL     1     -11.916  -9.527 -21.951  1.00  0.00    -0.481 OA
ATOM     14  H   UNL     1     -12.554  -8.804 -21.776  1.00  0.00     0.296 HD
ENDBRANCH  11  13
ENDBRANCH  10  11
ENDBRANCH   9  10
ENDBRANCH   6   9
BRANCH   3  15
ATOM     15  O   UNL     1      -7.126  -9.482 -28.750  1.00  0.00    -0.457 OA
BRANCH  15  16
ATOM     16  C   UNL     1      -7.930  -9.042 -29.778  1.00  0.00     0.130 A 
ATOM     17  C   UNL     1      -7.305  -8.370 -30.822  1.00  0.00     0.086 A 
ATOM     18  C   UNL     1      -9.325  -9.182 -29.755  1.00  0.00     0.053 A 
ATOM     19  C   UNL     1      -8.077  -7.871 -31.860  1.00  0.00     0.127 A 
ATOM     20  C   UNL     1     -10.109  -8.695 -30.815  1.00  0.00    -0.019 A 
ATOM     21  C   UNL     1      -9.460  -8.027 -31.868  1.00  0.00     0.045 A 
ATOM     22  F   UNL     1      -7.483  -7.224 -32.872  1.00  0.00    -0.207 F 
BRANCH  20  23
ATOM     23  C   UNL     1     -11.623  -8.803 -30.837  1.00  0.00     0.110 C 
ATOM     24  C   UNL     1     -12.164 -10.211 -30.579  1.00  0.00     0.036 C 
BRANCH  23  25
ATOM     25  N   UNL     1     -12.177  -7.874 -29.872  1.00  0.00    -0.345 N 
ATOM     26  C   UNL     1     -12.607  -6.607 -30.207  1.00  0.00     0.262 C 
ATOM     27  O   UNL     1     -12.597  -6.225 -31.376  1.00  0.00    -0.268 OA
ATOM     28  H   UNL     1     -12.151  -8.119 -28.892  1.00  0.00     0.164 HD
BRANCH  26  29
ATOM     29  C   UNL     1     -13.060  -5.771 -29.093  1.00  0.00     0.096 A 
ATOM     30  S   UNL     1     -13.103  -6.383 -27.496  1.00  0.00    -0.130 S 
ATOM     31  C   UNL     1     -13.492  -4.449 -29.143  1.00  0.00    -0.020 A 
ATOM     32  C   UNL     1     -13.703  -4.917 -26.843  1.00  0.00     0.035 A 
ATOM     33  C   UNL     1     -13.871  -3.948 -27.833  1.00  0.00    -0.002 A 
ATOM     34  C   UNL     1     -14.006  -4.665 -25.490  1.00  0.00     0.021 A 
ATOM     35  C   UNL     1     -14.363  -2.678 -27.429  1.00  0.00     0.030 A 
ATOM     36  C   UNL     1     -14.491  -3.407 -25.127  1.00  0.00     0.022 A 
ATOM     37  C   UNL     1     -14.668  -2.427 -26.089  1.00  0.00     0.041 A 
ATOM     38  C   UNL     1     -13.557  -3.640 -30.406  1.00  0.00     0.047 C 
ATOM     39  Cl  UNL     1     -15.268  -0.880 -25.631  1.00  0.00    -0.084 Cl
ENDBRANCH  26  29
ENDBRANCH  23  25
ENDBRANCH  20  23
ENDBRANCH  15  16
ENDBRANCH   3  15
TORSDOF 10
ENDMDL
