MODEL 5
REMARK minimizedAffinity -8.03550053
REMARK CNNscore 0.25437054
REMARK CNNaffinity 6.45080757
REMARK SMILES COc1ccc(-c2ccc3c(N4CCOCC4)nc(N4C[C@@H](C)O[C@@H](C)C4)nc3n2)cc1CO
REMARK SMILES IDX 3 1 4 2 5 3 6 4 31 5 32 6 2 7 1 8 33 9 34 10 7 12 8 13 30 14
REMARK SMILES IDX 9 15 29 16 10 17 28 18 11 19 19 20 18 21 12 22 13 23 17 24
REMARK SMILES IDX 14 25 16 26 15 27 20 28 21 29 27 30 22 31 25 32 24 33 23 34
REMARK SMILES IDX 26 35
REMARK H PARENT 34 11
ROOT
ATOM      1  C   UNL     1      51.193   0.195 -50.129  1.00  0.00     0.124 A 
ATOM      2  C   UNL     1      51.925   0.503 -48.980  1.00  0.00     0.047 A 
ATOM      3  C   UNL     1      51.500   0.057 -47.723  1.00  0.00     0.014 A 
ATOM      4  C   UNL     1      50.329  -0.700 -47.573  1.00  0.00     0.001 A 
ATOM      5  C   UNL     1      49.597  -0.990 -48.736  1.00  0.00     0.020 A 
ATOM      6  C   UNL     1      50.019  -0.570 -50.014  1.00  0.00     0.020 A 
ENDROOT
BRANCH   1   7
ATOM      7  O   UNL     1      51.520   0.610 -51.393  1.00  0.00    -0.496 OA
ATOM      8  C   UNL     1      52.842   0.348 -51.846  1.00  0.00     0.278 C 
ENDBRANCH   1   7
BRANCH   6   9
ATOM      9  C   UNL     1      49.179  -0.874 -51.230  1.00  0.00     0.195 C 
BRANCH   9  10
ATOM     10  O   UNL     1      48.395  -2.051 -51.042  1.00  0.00    -0.392 OA
ATOM     11  H   UNL     1      47.779  -2.092 -51.793  1.00  0.00     0.211 HD
ENDBRANCH   9  10
ENDBRANCH   6   9
BRANCH   4  12
ATOM     12  C   UNL     1      49.865  -1.170 -46.252  1.00  0.00     0.073 A 
ATOM     13  C   UNL     1      50.574  -0.933 -45.084  1.00  0.00     0.030 A 
ATOM     14  N   UNL     1      48.692  -1.853 -46.249  1.00  0.00    -0.228 NA
ATOM     15  C   UNL     1      50.055  -1.418 -43.894  1.00  0.00     0.018 A 
ATOM     16  C   UNL     1      48.178  -2.315 -45.105  1.00  0.00     0.167 A 
ATOM     17  C   UNL     1      48.837  -2.132 -43.897  1.00  0.00     0.062 A 
ATOM     18  N   UNL     1      47.018  -2.946 -45.179  1.00  0.00    -0.193 NA
ATOM     19  C   UNL     1      48.208  -2.669 -42.768  1.00  0.00     0.143 A 
ATOM     20  C   UNL     1      46.456  -3.412 -44.064  1.00  0.00     0.229 A 
ATOM     21  N   UNL     1      47.024  -3.289 -42.861  1.00  0.00    -0.195 NA
BRANCH  19  22
ATOM     22  N   UNL     1      48.826  -2.576 -41.500  1.00  0.00    -0.351 N 
ATOM     23  C   UNL     1      48.906  -1.171 -41.023  1.00  0.00     0.146 C 
ATOM     24  C   UNL     1      50.115  -3.298 -41.414  1.00  0.00     0.146 C 
ATOM     25  C   UNL     1      50.363  -0.695 -40.907  1.00  0.00     0.181 C 
ATOM     26  C   UNL     1      50.822  -2.909 -40.106  1.00  0.00     0.181 C 
ATOM     27  O   UNL     1      51.154  -1.512 -40.029  1.00  0.00    -0.378 OA
ENDBRANCH  19  22
BRANCH  20  28
ATOM     28  N   UNL     1      45.239  -4.039 -44.155  1.00  0.00    -0.336 N 
ATOM     29  C   UNL     1      44.905  -4.799 -45.356  1.00  0.00     0.151 C 
ATOM     30  C   UNL     1      44.348  -4.144 -43.007  1.00  0.00     0.151 C 
ATOM     31  C   UNL     1      43.419  -5.206 -45.317  1.00  0.00     0.135 C 
ATOM     32  C   UNL     1      43.702  -5.548 -42.939  1.00  0.00     0.135 C 
ATOM     33  O   UNL     1      43.095  -6.001 -44.164  1.00  0.00    -0.372 OA
ATOM     34  C   UNL     1      43.038  -6.015 -46.549  1.00  0.00     0.040 C 
ATOM     35  C   UNL     1      44.697  -6.616 -42.487  1.00  0.00     0.040 C 
ENDBRANCH  20  28
ENDBRANCH   4  12
TORSDOF 6
ENDMDL
