REMARK VINA RESULT:    -7.521      1.423      2.851
REMARK INTER + INTRA:          -8.863
REMARK INTER:                  -8.491
REMARK INTRA:                  -0.373
REMARK UNBOUND:                -0.462
REMARK SMILES c1ccc(Nc2ncnc3ccccc23)cc1
REMARK SMILES IDX 5 1 4 3 1 4 2 5 17 6 3 7 16 8 6 9 7 10 15 11 8 12 14 13
REMARK SMILES IDX 10 14 9 15 13 16 11 17 12 18
REMARK H PARENT 5 2
ROOT
ATOM      1  N   UNL     1      16.108  32.515   8.746  1.00  0.00    -0.340 N 
ATOM      2  H   UNL     1      16.166  33.145   7.951  1.00  0.00     0.168 HD
ENDROOT
BRANCH   1   3
ATOM      3  C   UNL     1      16.859  32.965   9.845  1.00  0.00     0.040 A 
ATOM      4  C   UNL     1      18.277  33.924  12.078  1.00  0.00     0.000 A 
ATOM      5  C   UNL     1      18.893  33.059  11.177  1.00  0.00     0.002 A 
ATOM      6  C   UNL     1      16.958  34.318  11.867  1.00  0.00     0.002 A 
ATOM      7  C   UNL     1      18.188  32.585  10.067  1.00  0.00     0.026 A 
ATOM      8  C   UNL     1      16.257  33.843  10.756  1.00  0.00     0.026 A 
ENDBRANCH   1   3
BRANCH   1   9
ATOM      9  C   UNL     1      15.807  31.229   8.279  1.00  0.00     0.141 A 
ATOM     10  N   UNL     1      14.618  30.769   8.715  1.00  0.00    -0.219 NA
ATOM     11  C   UNL     1      16.652  30.466   7.449  1.00  0.00     0.043 A 
ATOM     12  C   UNL     1      14.231  29.578   8.251  1.00  0.00     0.224 A 
ATOM     13  C   UNL     1      17.972  30.809   7.050  1.00  0.00     0.014 A 
ATOM     14  C   UNL     1      16.121  29.236   7.033  1.00  0.00     0.076 A 
ATOM     15  N   UNL     1      14.918  28.796   7.413  1.00  0.00    -0.236 NA
ATOM     16  C   UNL     1      18.717  29.975   6.217  1.00  0.00     0.001 A 
ATOM     17  C   UNL     1      16.880  28.424   6.199  1.00  0.00     0.029 A 
ATOM     18  C   UNL     1      18.164  28.781   5.782  1.00  0.00     0.002 A 
ENDBRANCH   1   9
TORSDOF 2
