REMARK SMILES Cc1cc(/C=C/C(=O)c2cc3ccccc3nc2N(C)C)cc(C)c1OC(C)(C)C(=O)O
REMARK SMILES IDX 1 1 2 2 3 3 4 4 22 5 23 6 24 7 25 8 26 9 27 10 28 11 29 12
REMARK SMILES IDX 30 13 31 14 32 15 5 17 6 18 7 19 8 20 9 21 10 22 18 23 11 24
REMARK SMILES IDX 17 25 12 26 16 27 13 28 15 29 14 30 19 31 20 32 21 33
REMARK H PARENT 32 16
REMARK INDEX MAP 1 1 2 2 3 3 4 4 22 5 23 6 24 7 25 8 26 9 27 10 28 11 29 12
REMARK INDEX MAP 30 13 31 14 32 15 60 16 5 17 6 18 7 19 8 20 9 21 10 22 18 23
REMARK INDEX MAP 11 24 17 25 12 26 16 27 13 28 15 29 14 30 19 31 20 32 21 33
ROOT
ATOM      1  C   UNL     1       6.001   9.824  -1.334  1.00  0.00     0.048 C 
ATOM      2  C   UNL     1       5.954   9.752  -2.835  1.00  0.00    -0.008 A 
ATOM      3  C   UNL     1       7.058  10.252  -3.549  1.00  0.00     0.015 A 
ATOM      4  C   UNL     1       7.139  10.123  -4.939  1.00  0.00    -0.025 A 
ATOM      5  C   UNL     1       6.106   9.469  -5.613  1.00  0.00     0.015 A 
ATOM      6  C   UNL     1       4.991   8.961  -4.922  1.00  0.00    -0.008 A 
ATOM      7  C   UNL     1       3.989   8.161  -5.707  1.00  0.00     0.048 C 
ATOM      8  C   UNL     1       4.875   9.195  -3.542  1.00  0.00     0.126 A 
ENDROOT
BRANCH   8   9
ATOM      9  O   UNL     1       3.776   8.739  -2.864  1.00  0.00    -0.476 OA
BRANCH   9  10
ATOM     10  C   UNL     1       3.817   7.380  -2.358  1.00  0.00     0.200 C 
ATOM     11  C   UNL     1       2.753   6.486  -3.006  1.00  0.00     0.069 C 
ATOM     12  C   UNL     1       5.181   6.680  -2.431  1.00  0.00     0.069 C 
BRANCH  10  13
ATOM     13  C   UNL     1       3.467   7.531  -0.868  1.00  0.00     0.347 C 
ATOM     14  O   UNL     1       3.757   6.764   0.038  1.00  0.00    -0.248 OA
BRANCH  13  15
ATOM     15  O   UNL     1       2.781   8.661  -0.580  1.00  0.00    -0.478 OA
ATOM     16  H   UNL     1       2.509   8.851   0.353  1.00  0.00     0.296 HD
ENDBRANCH  13  15
ENDBRANCH  10  13
ENDBRANCH   9  10
ENDBRANCH   8   9
BRANCH   4  17
ATOM     17  C   UNL     1       8.266  10.661  -5.710  1.00  0.00     0.012 C 
ATOM     18  C   UNL     1       9.430  11.035  -5.157  1.00  0.00     0.053 C 
BRANCH  18  19
ATOM     19  C   UNL     1      10.518  11.577  -6.014  1.00  0.00     0.189 C 
ATOM     20  O   UNL     1      11.492  12.162  -5.548  1.00  0.00    -0.289 OA
BRANCH  19  21
ATOM     21  C   UNL     1      10.364  11.461  -7.480  1.00  0.00     0.065 A 
ATOM     22  C   UNL     1      10.440  10.170  -8.016  1.00  0.00     0.026 A 
ATOM     23  C   UNL     1      10.181  12.551  -8.340  1.00  0.00     0.140 A 
ATOM     24  C   UNL     1      10.386   9.985  -9.397  1.00  0.00     0.001 A 
ATOM     25  N   UNL     1      10.159  12.369  -9.686  1.00  0.00    -0.230 NA
ATOM     26  C   UNL     1      10.469   8.708  -9.980  1.00  0.00     0.010 A 
ATOM     27  C   UNL     1      10.252  11.130 -10.203  1.00  0.00     0.073 A 
ATOM     28  C   UNL     1      10.424   8.565 -11.365  1.00  0.00     0.001 A 
ATOM     29  C   UNL     1      10.210  10.958 -11.581  1.00  0.00     0.029 A 
ATOM     30  C   UNL     1      10.295   9.692 -12.168  1.00  0.00     0.002 A 
BRANCH  23  31
ATOM     31  N   UNL     1       9.991  13.857  -7.874  1.00  0.00    -0.362 N 
ATOM     32  C   UNL     1       8.833  14.548  -8.437  1.00  0.00     0.145 C 
ATOM     33  C   UNL     1      11.206  14.657  -7.753  1.00  0.00     0.145 C 
ENDBRANCH  23  31
ENDBRANCH  19  21
ENDBRANCH  18  19
ENDBRANCH   4  17
TORSDOF 8
