MODEL 3
REMARK VINA RESULT:    -6.531      9.386     12.492
REMARK INTER + INTRA:          -9.059
REMARK INTER:                  -8.433
REMARK INTRA:                  -0.626
REMARK UNBOUND:                -0.619
REMARK SMILES O=C(O)c1cc(S(=O)(=O)Nc2ccc(Br)cc2)c2ccccc2c1O
REMARK SMILES IDX 4 1 5 2 6 3 18 4 19 5 20 6 21 7 22 8 23 9 24 10 2 11 1 12
REMARK SMILES IDX 3 13 25 15 7 17 8 18 9 19 10 20 11 22 12 23 17 24 13 25
REMARK SMILES IDX 16 26 14 27 15 28
REMARK H PARENT 3 14 25 16 10 21
ROOT
ATOM      1  C   UNL     1      41.842  14.786 -47.621  1.00  0.00     0.103 A 
ATOM      2  C   UNL     1      40.570  14.707 -48.190  1.00  0.00     0.042 A 
ATOM      3  C   UNL     1      39.829  13.517 -48.119  1.00  0.00     0.096 A 
ATOM      4  C   UNL     1      40.346  12.356 -47.478  1.00  0.00     0.006 A 
ATOM      5  C   UNL     1      39.670  11.112 -47.374  1.00  0.00     0.010 A 
ATOM      6  C   UNL     1      40.229  10.010 -46.724  1.00  0.00     0.001 A 
ATOM      7  C   UNL     1      41.485  10.114 -46.154  1.00  0.00     0.001 A 
ATOM      8  C   UNL     1      42.180  11.317 -46.241  1.00  0.00     0.012 A 
ATOM      9  C   UNL     1      41.639  12.448 -46.894  1.00  0.00     0.026 A 
ATOM     10  C   UNL     1      42.368  13.660 -46.974  1.00  0.00     0.138 A 
ENDROOT
BRANCH   1  11
ATOM     11  C   UNL     1      42.548  16.087 -47.739  1.00  0.00     0.339 C 
ATOM     12  O   UNL     1      43.705  16.303 -47.433  1.00  0.00    -0.246 OA
BRANCH  11  13
ATOM     13  O   UNL     1      41.772  17.070 -48.239  1.00  0.00    -0.478 OA
ATOM     14  H   UNL     1      42.324  17.436 -48.968  1.00  0.00     0.297 HD
ENDBRANCH  11  13
ENDBRANCH   1  11
BRANCH  10  15
ATOM     15  O   UNL     1      43.615  13.682 -46.387  1.00  0.00    -0.506 OA
ATOM     16  H   UNL     1      43.507  13.921 -45.443  1.00  0.00     0.293 HD
ENDBRANCH  10  15
BRANCH   3  17
ATOM     17  S   UNL     1      38.207  13.534 -48.871  1.00  0.00     0.262 S 
ATOM     18  O   UNL     1      38.025  14.823 -49.504  1.00  0.00    -0.201 OA
ATOM     19  O   UNL     1      38.047  12.299 -49.606  1.00  0.00    -0.201 OA
BRANCH  17  20
ATOM     20  N   UNL     1      37.193  13.546 -47.495  1.00  0.00    -0.280 N 
ATOM     21  H   UNL     1      36.815  14.491 -47.400  1.00  0.00     0.180 HD
BRANCH  20  22
ATOM     22  C   UNL     1      36.139  12.575 -47.547  1.00  0.00     0.049 A 
ATOM     23  C   UNL     1      36.178  11.457 -46.711  1.00  0.00     0.028 A 
ATOM     24  C   UNL     1      35.040  12.793 -48.377  1.00  0.00     0.028 A 
ATOM     25  C   UNL     1      35.128  10.535 -46.732  1.00  0.00     0.018 A 
ATOM     26  C   UNL     1      33.989  11.873 -48.399  1.00  0.00     0.018 A 
ATOM     27  C   UNL     1      34.041  10.747 -47.580  1.00  0.00     0.018 A 
ATOM     28  Br  UNL     1      32.619   9.501 -47.608  1.00  0.00    -0.051 Br
ENDBRANCH  20  22
ENDBRANCH  17  20
ENDBRANCH   3  17
TORSDOF 6
ENDMDL
