MODEL 1
REMARK minimizedAffinity -11.4505539
REMARK CNNscore 0.949086785
REMARK CNNaffinity 8.20078945
REMARK SMILES Nc1ccc(-c2cc3c(Nc4ccc(Oc5cccc(C(F)(F)F)c5)c(Cl)c4)ncnc3s2)cc1
REMARK SMILES IDX 11 1 12 2 13 3 14 4 26 5 27 6 28 7 10 8 9 10 6 11 7 12 33 13
REMARK SMILES IDX 8 14 32 15 31 16 29 17 30 18 5 19 2 20 3 21 35 22 4 23 34 24
REMARK SMILES IDX 1 25 15 28 16 29 17 30 25 31 18 32 20 33 19 34 21 35 22 36
REMARK SMILES IDX 23 37 24 38
REMARK H PARENT 10 9 1 26 1 27
ROOT
ATOM      1  C   UNL     1      12.732   1.786  29.052  1.00  0.00     0.041 A 
ATOM      2  C   UNL     1      11.437   2.260  28.769  1.00  0.00     0.030 A 
ATOM      3  C   UNL     1      10.468   2.377  29.771  1.00  0.00     0.051 A 
ATOM      4  C   UNL     1      10.784   2.036  31.086  1.00  0.00     0.146 A 
ATOM      5  C   UNL     1      12.055   1.541  31.382  1.00  0.00     0.085 A 
ATOM      6  Cl  UNL     1      12.481   1.078  32.991  1.00  0.00    -0.080 Cl
ATOM      7  C   UNL     1      13.019   1.426  30.373  1.00  0.00     0.050 A 
ENDROOT
BRANCH   1   8
ATOM      8  N   UNL     1      13.654   1.704  27.993  1.00  0.00    -0.340 N 
ATOM      9  H   UNL     1      13.520   2.402  27.276  1.00  0.00     0.168 HD
BRANCH   8  10
ATOM     10  C   UNL     1      14.731   0.842  27.728  1.00  0.00     0.142 A 
ATOM     11  C   UNL     1      17.205   2.358  25.357  1.00  0.00     0.037 A 
ATOM     12  C   UNL     1      16.036   2.420  26.094  1.00  0.00     0.034 A 
ATOM     13  S   UNL     1      18.000   0.860  25.599  1.00  0.00    -0.115 S 
ATOM     14  C   UNL     1      15.777   1.228  26.857  1.00  0.00     0.055 A 
ATOM     15  C   UNL     1      16.791   0.306  26.661  1.00  0.00     0.129 A 
ATOM     16  N   UNL     1      16.883  -0.914  27.213  1.00  0.00    -0.225 NA
ATOM     17  N   UNL     1      14.809  -0.386  28.295  1.00  0.00    -0.219 NA
ATOM     18  C   UNL     1      15.853  -1.180  28.016  1.00  0.00     0.225 A 
BRANCH  11  19
ATOM     19  C   UNL     1      17.792   3.381  24.484  1.00  0.00    -0.008 A 
ATOM     20  C   UNL     1      18.891   5.380  22.810  1.00  0.00     0.031 A 
ATOM     21  C   UNL     1      19.106   4.029  22.540  1.00  0.00     0.026 A 
ATOM     22  C   UNL     1      18.098   5.726  23.904  1.00  0.00     0.026 A 
ATOM     23  C   UNL     1      18.569   3.037  23.371  1.00  0.00     0.012 A 
ATOM     24  C   UNL     1      17.557   4.739  24.737  1.00  0.00     0.012 A 
BRANCH  20  25
ATOM     25  N   UNL     1      19.388   6.355  21.964  1.00  0.00    -0.399 N 
ATOM     26  H   UNL     1      19.305   7.332  22.208  1.00  0.00     0.156 HD
ATOM     27  H   UNL     1      20.030   6.105  21.224  1.00  0.00     0.156 HD
ENDBRANCH  20  25
ENDBRANCH  11  19
ENDBRANCH   8  10
ENDBRANCH   1   8
BRANCH   4  28
ATOM     28  O   UNL     1       9.836   2.112  32.081  1.00  0.00    -0.456 OA
BRANCH  28  29
ATOM     29  C   UNL     1       8.865   1.136  32.095  1.00  0.00     0.128 A 
ATOM     30  C   UNL     1       7.560   1.552  32.360  1.00  0.00     0.047 A 
ATOM     31  C   UNL     1       9.128  -0.204  31.793  1.00  0.00     0.060 A 
ATOM     32  C   UNL     1       6.521   0.623  32.368  1.00  0.00     0.004 A 
ATOM     33  C   UNL     1       8.087  -1.146  31.793  1.00  0.00     0.059 A 
ATOM     34  C   UNL     1       6.783  -0.720  32.093  1.00  0.00     0.013 A 
BRANCH  33  35
ATOM     35  C   UNL     1       8.382  -2.596  31.498  1.00  0.00     0.416 C 
ATOM     36  F   UNL     1       7.496  -3.448  32.083  1.00  0.00    -0.166 F 
ATOM     37  F   UNL     1       8.339  -2.868  30.164  1.00  0.00    -0.166 F 
ATOM     38  F   UNL     1       9.615  -2.995  31.919  1.00  0.00    -0.166 F 
ENDBRANCH  33  35
ENDBRANCH  28  29
ENDBRANCH   4  28
TORSDOF 7
ENDMDL
MODEL 2
REMARK minimizedAffinity -10.9891472
REMARK CNNscore 0.930630863
REMARK CNNaffinity 7.94696665
REMARK SMILES Nc1ccc(-c2cc3c(Nc4ccc(Oc5cccc(C(F)(F)F)c5)c(Cl)c4)ncnc3s2)cc1
REMARK SMILES IDX 11 1 12 2 13 3 14 4 26 5 27 6 28 7 10 8 9 10 6 11 7 12 33 13
REMARK SMILES IDX 8 14 32 15 31 16 29 17 30 18 5 19 2 20 3 21 35 22 4 23 34 24
REMARK SMILES IDX 1 25 15 28 16 29 17 30 25 31 18 32 20 33 19 34 21 35 22 36
REMARK SMILES IDX 23 37 24 38
REMARK H PARENT 10 9 1 26 1 27
ROOT
ATOM      1  C   UNL     1      12.856   1.789  29.069  1.00  0.00     0.041 A 
ATOM      2  C   UNL     1      11.636   1.940  28.384  1.00  0.00     0.030 A 
ATOM      3  C   UNL     1      10.409   1.842  29.048  1.00  0.00     0.051 A 
ATOM      4  C   UNL     1      10.381   1.606  30.422  1.00  0.00     0.146 A 
ATOM      5  C   UNL     1      11.579   1.430  31.115  1.00  0.00     0.085 A 
ATOM      6  Cl  UNL     1      11.591   1.107  32.812  1.00  0.00    -0.080 Cl
ATOM      7  C   UNL     1      12.803   1.528  30.443  1.00  0.00     0.050 A 
ENDROOT
BRANCH   1   8
ATOM      8  N   UNL     1      14.049   1.909  28.333  1.00  0.00    -0.340 N 
ATOM      9  H   UNL     1      14.281   2.858  28.078  1.00  0.00     0.168 HD
BRANCH   8  10
ATOM     10  C   UNL     1      14.991   0.970  27.879  1.00  0.00     0.142 A 
ATOM     11  C   UNL     1      17.301   2.416  25.308  1.00  0.00     0.037 A 
ATOM     12  C   UNL     1      16.244   2.534  26.192  1.00  0.00     0.034 A 
ATOM     13  S   UNL     1      17.960   0.835  25.352  1.00  0.00    -0.115 S 
ATOM     14  C   UNL     1      15.956   1.319  26.906  1.00  0.00     0.055 A 
ATOM     15  C   UNL     1      16.838   0.321  26.524  1.00  0.00     0.129 A 
ATOM     16  N   UNL     1      16.869  -0.940  26.983  1.00  0.00    -0.225 NA
ATOM     17  N   UNL     1      15.009  -0.298  28.354  1.00  0.00    -0.219 NA
ATOM     18  C   UNL     1      15.922  -1.166  27.895  1.00  0.00     0.225 A 
BRANCH  11  19
ATOM     19  C   UNL     1      17.881   3.440  24.431  1.00  0.00    -0.008 A 
ATOM     20  C   UNL     1      18.966   5.443  22.751  1.00  0.00     0.031 A 
ATOM     21  C   UNL     1      19.157   4.091  22.464  1.00  0.00     0.026 A 
ATOM     22  C   UNL     1      18.202   5.787  23.867  1.00  0.00     0.026 A 
ATOM     23  C   UNL     1      18.626   3.098  23.297  1.00  0.00     0.012 A 
ATOM     24  C   UNL     1      17.669   4.798  24.702  1.00  0.00     0.012 A 
BRANCH  20  25
ATOM     25  N   UNL     1      19.455   6.420  21.904  1.00  0.00    -0.399 N 
ATOM     26  H   UNL     1      19.390   7.395  22.160  1.00  0.00     0.156 HD
ATOM     27  H   UNL     1      20.077   6.169  21.146  1.00  0.00     0.156 HD
ENDBRANCH  20  25
ENDBRANCH  11  19
ENDBRANCH   8  10
ENDBRANCH   1   8
BRANCH   4  28
ATOM     28  O   UNL     1       9.184   1.473  31.090  1.00  0.00    -0.456 OA
BRANCH  28  29
ATOM     29  C   UNL     1       8.481   2.629  31.347  1.00  0.00     0.128 A 
ATOM     30  C   UNL     1       8.623   3.181  32.621  1.00  0.00     0.047 A 
ATOM     31  C   UNL     1       7.708   3.280  30.381  1.00  0.00     0.060 A 
ATOM     32  C   UNL     1       7.959   4.362  32.946  1.00  0.00     0.004 A 
ATOM     33  C   UNL     1       7.039   4.474  30.698  1.00  0.00     0.059 A 
ATOM     34  C   UNL     1       7.166   5.002  31.993  1.00  0.00     0.013 A 
BRANCH  33  35
ATOM     35  C   UNL     1       6.181   5.155  29.660  1.00  0.00     0.416 C 
ATOM     36  F   UNL     1       5.209   4.344  29.160  1.00  0.00    -0.166 F 
ATOM     37  F   UNL     1       5.538   6.246  30.162  1.00  0.00    -0.166 F 
ATOM     38  F   UNL     1       6.885   5.601  28.583  1.00  0.00    -0.166 F 
ENDBRANCH  33  35
ENDBRANCH  28  29
ENDBRANCH   4  28
TORSDOF 7
ENDMDL
MODEL 3
REMARK minimizedAffinity -10.996542
REMARK CNNscore 0.929891467
REMARK CNNaffinity 7.97281647
REMARK SMILES Nc1ccc(-c2cc3c(Nc4ccc(Oc5cccc(C(F)(F)F)c5)c(Cl)c4)ncnc3s2)cc1
REMARK SMILES IDX 11 1 12 2 13 3 14 4 26 5 27 6 28 7 10 8 9 10 6 11 7 12 33 13
REMARK SMILES IDX 8 14 32 15 31 16 29 17 30 18 5 19 2 20 3 21 35 22 4 23 34 24
REMARK SMILES IDX 1 25 15 28 16 29 17 30 25 31 18 32 20 33 19 34 21 35 22 36
REMARK SMILES IDX 23 37 24 38
REMARK H PARENT 10 9 1 26 1 27
ROOT
ATOM      1  C   UNL     1      12.625   1.583  29.204  1.00  0.00     0.041 A 
ATOM      2  C   UNL     1      11.338   1.714  28.649  1.00  0.00     0.030 A 
ATOM      3  C   UNL     1      10.188   1.596  29.438  1.00  0.00     0.051 A 
ATOM      4  C   UNL     1      10.307   1.361  30.807  1.00  0.00     0.146 A 
ATOM      5  C   UNL     1      11.574   1.204  31.371  1.00  0.00     0.085 A 
ATOM      6  Cl  UNL     1      11.767   0.882  33.057  1.00  0.00    -0.080 Cl
ATOM      7  C   UNL     1      12.719   1.323  30.575  1.00  0.00     0.050 A 
ENDROOT
BRANCH   1   8
ATOM      8  N   UNL     1      13.733   1.722  28.348  1.00  0.00    -0.340 N 
ATOM      9  H   UNL     1      13.825   2.642  27.940  1.00  0.00     0.168 HD
BRANCH   8  10
ATOM     10  C   UNL     1      14.745   0.836  27.944  1.00  0.00     0.142 A 
ATOM     11  C   UNL     1      17.094   2.404  25.481  1.00  0.00     0.037 A 
ATOM     12  C   UNL     1      15.991   2.465  26.312  1.00  0.00     0.034 A 
ATOM     13  S   UNL     1      17.836   0.862  25.563  1.00  0.00    -0.115 S 
ATOM     14  C   UNL     1      15.736   1.237  27.017  1.00  0.00     0.055 A 
ATOM     15  C   UNL     1      16.689   0.288  26.682  1.00  0.00     0.129 A 
ATOM     16  N   UNL     1      16.767  -0.968  27.148  1.00  0.00    -0.225 NA
ATOM     17  N   UNL     1      14.811  -0.428  28.425  1.00  0.00    -0.219 NA
ATOM     18  C   UNL     1      15.792  -1.245  28.013  1.00  0.00     0.225 A 
BRANCH  11  19
ATOM     19  C   UNL     1      17.658   3.457  24.629  1.00  0.00    -0.008 A 
ATOM     20  C   UNL     1      18.709   5.513  22.992  1.00  0.00     0.031 A 
ATOM     21  C   UNL     1      19.060   4.180  22.776  1.00  0.00     0.026 A 
ATOM     22  C   UNL     1      17.805   5.809  24.013  1.00  0.00     0.026 A 
ATOM     23  C   UNL     1      18.546   3.162  23.588  1.00  0.00     0.012 A 
ATOM     24  C   UNL     1      17.288   4.794  24.827  1.00  0.00     0.012 A 
BRANCH  20  25
ATOM     25  N   UNL     1      19.185   6.511  22.162  1.00  0.00    -0.399 N 
ATOM     26  H   UNL     1      19.000   7.481  22.374  1.00  0.00     0.156 HD
ATOM     27  H   UNL     1      19.903   6.304  21.480  1.00  0.00     0.156 HD
ENDBRANCH  20  25
ENDBRANCH  11  19
ENDBRANCH   8  10
ENDBRANCH   1   8
BRANCH   4  28
ATOM     28  O   UNL     1       9.189   1.208  31.596  1.00  0.00    -0.456 OA
BRANCH  28  29
ATOM     29  C   UNL     1       8.240   2.205  31.533  1.00  0.00     0.128 A 
ATOM     30  C   UNL     1       8.235   2.996  30.384  1.00  0.00     0.047 A 
ATOM     31  C   UNL     1       7.271   2.396  32.522  1.00  0.00     0.060 A 
ATOM     32  C   UNL     1       7.290   4.009  30.240  1.00  0.00     0.004 A 
ATOM     33  C   UNL     1       6.310   3.411  32.384  1.00  0.00     0.059 A 
ATOM     34  C   UNL     1       6.337   4.222  31.237  1.00  0.00     0.013 A 
BRANCH  33  35
ATOM     35  C   UNL     1       5.287   3.634  33.470  1.00  0.00     0.416 C 
ATOM     36  F   UNL     1       5.784   4.321  34.535  1.00  0.00    -0.166 F 
ATOM     37  F   UNL     1       4.216   4.350  33.028  1.00  0.00    -0.166 F 
ATOM     38  F   UNL     1       4.776   2.478  33.979  1.00  0.00    -0.166 F 
ENDBRANCH  33  35
ENDBRANCH  28  29
ENDBRANCH   4  28
TORSDOF 7
ENDMDL
MODEL 4
REMARK minimizedAffinity -10.746953
REMARK CNNscore 0.922258973
REMARK CNNaffinity 8.15848827
REMARK SMILES Nc1ccc(-c2cc3c(Nc4ccc(Oc5cccc(C(F)(F)F)c5)c(Cl)c4)ncnc3s2)cc1
REMARK SMILES IDX 11 1 12 2 13 3 14 4 26 5 27 6 28 7 10 8 9 10 6 11 7 12 33 13
REMARK SMILES IDX 8 14 32 15 31 16 29 17 30 18 5 19 2 20 3 21 35 22 4 23 34 24
REMARK SMILES IDX 1 25 15 28 16 29 17 30 25 31 18 32 20 33 19 34 21 35 22 36
REMARK SMILES IDX 23 37 24 38
REMARK H PARENT 10 9 1 26 1 27
ROOT
ATOM      1  C   UNL     1      12.974   1.878  28.977  1.00  0.00     0.041 A 
ATOM      2  C   UNL     1      11.681   2.355  28.695  1.00  0.00     0.030 A 
ATOM      3  C   UNL     1      10.710   2.471  29.696  1.00  0.00     0.051 A 
ATOM      4  C   UNL     1      11.024   2.124  31.009  1.00  0.00     0.146 A 
ATOM      5  C   UNL     1      12.294   1.626  31.305  1.00  0.00     0.085 A 
ATOM      6  Cl  UNL     1      12.717   1.157  32.913  1.00  0.00    -0.080 Cl
ATOM      7  C   UNL     1      13.259   1.513  30.298  1.00  0.00     0.050 A 
ENDROOT
BRANCH   1   8
ATOM      8  N   UNL     1      13.897   1.798  27.919  1.00  0.00    -0.340 N 
ATOM      9  H   UNL     1      13.794   2.527  27.227  1.00  0.00     0.168 HD
BRANCH   8  10
ATOM     10  C   UNL     1      14.941   0.905  27.627  1.00  0.00     0.142 A 
ATOM     11  C   UNL     1      17.410   2.358  25.211  1.00  0.00     0.037 A 
ATOM     12  C   UNL     1      16.260   2.452  25.973  1.00  0.00     0.034 A 
ATOM     13  S   UNL     1      18.163   0.834  25.428  1.00  0.00    -0.115 S 
ATOM     14  C   UNL     1      15.979   1.264  26.735  1.00  0.00     0.055 A 
ATOM     15  C   UNL     1      16.960   0.312  26.513  1.00  0.00     0.129 A 
ATOM     16  N   UNL     1      17.026  -0.913  27.057  1.00  0.00    -0.225 NA
ATOM     17  N   UNL     1      14.993  -0.328  28.186  1.00  0.00    -0.219 NA
ATOM     18  C   UNL     1      16.006  -1.153  27.881  1.00  0.00     0.225 A 
BRANCH  11  19
ATOM     19  C   UNL     1      18.009   3.367  24.331  1.00  0.00    -0.008 A 
ATOM     20  C   UNL     1      19.137   5.343  22.647  1.00  0.00     0.031 A 
ATOM     21  C   UNL     1      19.167   3.996  22.284  1.00  0.00     0.026 A 
ATOM     22  C   UNL     1      18.513   5.699  23.843  1.00  0.00     0.026 A 
ATOM     23  C   UNL     1      18.615   3.015  23.118  1.00  0.00     0.012 A 
ATOM     24  C   UNL     1      17.959   4.722  24.680  1.00  0.00     0.012 A 
BRANCH  20  25
ATOM     25  N   UNL     1      19.645   6.312  21.802  1.00  0.00    -0.399 N 
ATOM     26  H   UNL     1      19.701   7.274  22.105  1.00  0.00     0.156 HD
ATOM     27  H   UNL     1      20.170   6.043  20.980  1.00  0.00     0.156 HD
ENDBRANCH  20  25
ENDBRANCH  11  19
ENDBRANCH   8  10
ENDBRANCH   1   8
BRANCH   4  28
ATOM     28  O   UNL     1      10.075   2.198  32.004  1.00  0.00    -0.456 OA
BRANCH  28  29
ATOM     29  C   UNL     1       9.068   1.259  31.977  1.00  0.00     0.128 A 
ATOM     30  C   UNL     1       9.402  -0.007  31.498  1.00  0.00     0.047 A 
ATOM     31  C   UNL     1       7.781   1.510  32.463  1.00  0.00     0.060 A 
ATOM     32  C   UNL     1       8.440  -1.015  31.462  1.00  0.00     0.004 A 
ATOM     33  C   UNL     1       6.806   0.500  32.436  1.00  0.00     0.059 A 
ATOM     34  C   UNL     1       7.147  -0.762  31.921  1.00  0.00     0.013 A 
BRANCH  33  35
ATOM     35  C   UNL     1       5.410   0.785  32.933  1.00  0.00     0.416 C 
ATOM     36  F   UNL     1       4.455   0.081  32.265  1.00  0.00    -0.166 F 
ATOM     37  F   UNL     1       5.258   0.468  34.248  1.00  0.00    -0.166 F 
ATOM     38  F   UNL     1       5.053   2.095  32.822  1.00  0.00    -0.166 F 
ENDBRANCH  33  35
ENDBRANCH  28  29
ENDBRANCH   4  28
TORSDOF 7
ENDMDL
MODEL 5
REMARK minimizedAffinity -9.83910179
REMARK CNNscore 0.737549722
REMARK CNNaffinity 7.8460331
REMARK SMILES Nc1ccc(-c2cc3c(Nc4ccc(Oc5cccc(C(F)(F)F)c5)c(Cl)c4)ncnc3s2)cc1
REMARK SMILES IDX 11 1 12 2 13 3 14 4 26 5 27 6 28 7 10 8 9 10 6 11 7 12 33 13
REMARK SMILES IDX 8 14 32 15 31 16 29 17 30 18 5 19 2 20 3 21 35 22 4 23 34 24
REMARK SMILES IDX 1 25 15 28 16 29 17 30 25 31 18 32 20 33 19 34 21 35 22 36
REMARK SMILES IDX 23 37 24 38
REMARK H PARENT 10 9 1 26 1 27
ROOT
ATOM      1  C   UNL     1      12.424   2.002  29.335  1.00  0.00     0.041 A 
ATOM      2  C   UNL     1      11.099   1.811  28.902  1.00  0.00     0.030 A 
ATOM      3  C   UNL     1      10.116   1.306  29.759  1.00  0.00     0.051 A 
ATOM      4  C   UNL     1      10.440   0.998  31.080  1.00  0.00     0.146 A 
ATOM      5  C   UNL     1      11.754   1.158  31.522  1.00  0.00     0.085 A 
ATOM      6  Cl  UNL     1      12.206   0.761  33.142  1.00  0.00    -0.080 Cl
ATOM      7  C   UNL     1      12.732   1.663  30.658  1.00  0.00     0.050 A 
ENDROOT
BRANCH   1   8
ATOM      8  N   UNL     1      13.355   2.521  28.416  1.00  0.00    -0.340 N 
ATOM      9  H   UNL     1      13.208   3.494  28.188  1.00  0.00     0.168 HD
BRANCH   8  10
ATOM     10  C   UNL     1      14.454   1.958  27.748  1.00  0.00     0.142 A 
ATOM     11  C   UNL     1      16.152   4.423  25.493  1.00  0.00     0.037 A 
ATOM     12  C   UNL     1      15.168   4.093  26.408  1.00  0.00     0.034 A 
ATOM     13  S   UNL     1      17.168   3.079  25.180  1.00  0.00    -0.115 S 
ATOM     14  C   UNL     1      15.232   2.726  26.850  1.00  0.00     0.055 A 
ATOM     15  C   UNL     1      16.293   2.076  26.241  1.00  0.00     0.129 A 
ATOM     16  N   UNL     1      16.658   0.797  26.417  1.00  0.00    -0.225 NA
ATOM     17  N   UNL     1      14.809   0.665  27.938  1.00  0.00    -0.219 NA
ATOM     18  C   UNL     1      15.865   0.163  27.281  1.00  0.00     0.225 A 
BRANCH  11  19
ATOM     19  C   UNL     1      16.403   5.714  24.844  1.00  0.00    -0.008 A 
ATOM     20  C   UNL     1      16.929   8.203  23.604  1.00  0.00     0.031 A 
ATOM     21  C   UNL     1      15.676   7.932  24.154  1.00  0.00     0.026 A 
ATOM     22  C   UNL     1      17.927   7.234  23.705  1.00  0.00     0.026 A 
ATOM     23  C   UNL     1      15.411   6.699  24.763  1.00  0.00     0.012 A 
ATOM     24  C   UNL     1      17.667   6.000  24.314  1.00  0.00     0.012 A 
BRANCH  20  25
ATOM     25  N   UNL     1      17.200   9.437  23.041  1.00  0.00    -0.399 N 
ATOM     26  H   UNL     1      18.077   9.599  22.567  1.00  0.00     0.156 HD
ATOM     27  H   UNL     1      16.453  10.102  22.894  1.00  0.00     0.156 HD
ENDBRANCH  20  25
ENDBRANCH  11  19
ENDBRANCH   8  10
ENDBRANCH   1   8
BRANCH   4  28
ATOM     28  O   UNL     1       9.496   0.469  31.932  1.00  0.00    -0.456 OA
BRANCH  28  29
ATOM     29  C   UNL     1       8.343   1.199  32.117  1.00  0.00     0.128 A 
ATOM     30  C   UNL     1       7.196   0.483  32.462  1.00  0.00     0.047 A 
ATOM     31  C   UNL     1       8.304   2.594  32.039  1.00  0.00     0.060 A 
ATOM     32  C   UNL     1       5.997   1.157  32.688  1.00  0.00     0.004 A 
ATOM     33  C   UNL     1       7.102   3.282  32.270  1.00  0.00     0.059 A 
ATOM     34  C   UNL     1       5.947   2.547  32.585  1.00  0.00     0.013 A 
BRANCH  33  35
ATOM     35  C   UNL     1       7.060   4.786  32.153  1.00  0.00     0.416 C 
ATOM     36  F   UNL     1       7.273   5.225  30.882  1.00  0.00    -0.166 F 
ATOM     37  F   UNL     1       5.855   5.296  32.529  1.00  0.00    -0.166 F 
ATOM     38  F   UNL     1       7.988   5.416  32.926  1.00  0.00    -0.166 F 
ENDBRANCH  33  35
ENDBRANCH  28  29
ENDBRANCH   4  28
TORSDOF 7
ENDMDL
MODEL 6
REMARK minimizedAffinity -10.5309744
REMARK CNNscore 0.734923661
REMARK CNNaffinity 7.72996902
REMARK SMILES Nc1ccc(-c2cc3c(Nc4ccc(Oc5cccc(C(F)(F)F)c5)c(Cl)c4)ncnc3s2)cc1
REMARK SMILES IDX 11 1 12 2 13 3 14 4 26 5 27 6 28 7 10 8 9 10 6 11 7 12 33 13
REMARK SMILES IDX 8 14 32 15 31 16 29 17 30 18 5 19 2 20 3 21 35 22 4 23 34 24
REMARK SMILES IDX 1 25 15 28 16 29 17 30 25 31 18 32 20 33 19 34 21 35 22 36
REMARK SMILES IDX 23 37 24 38
REMARK H PARENT 10 9 1 26 1 27
ROOT
ATOM      1  C   UNL     1      13.188   1.901  29.393  1.00  0.00     0.041 A 
ATOM      2  C   UNL     1      13.606   2.092  30.723  1.00  0.00     0.030 A 
ATOM      3  C   UNL     1      12.763   1.806  31.802  1.00  0.00     0.051 A 
ATOM      4  C   UNL     1      11.483   1.304  31.568  1.00  0.00     0.146 A 
ATOM      5  C   UNL     1      11.041   1.131  30.255  1.00  0.00     0.085 A 
ATOM      6  Cl  UNL     1       9.453   0.540  29.918  1.00  0.00    -0.080 Cl
ATOM      7  C   UNL     1      11.891   1.420  29.181  1.00  0.00     0.050 A 
ENDROOT
BRANCH   1   8
ATOM      8  N   UNL     1      14.095   2.205  28.362  1.00  0.00    -0.340 N 
ATOM      9  H   UNL     1      14.026   3.152  28.019  1.00  0.00     0.168 HD
BRANCH   8  10
ATOM     10  C   UNL     1      15.086   1.453  27.709  1.00  0.00     0.142 A 
ATOM     11  C   UNL     1      17.167   3.555  25.408  1.00  0.00     0.037 A 
ATOM     12  C   UNL     1      16.143   3.412  26.326  1.00  0.00     0.034 A 
ATOM     13  S   UNL     1      17.947   2.056  25.126  1.00  0.00    -0.115 S 
ATOM     14  C   UNL     1      15.980   2.063  26.797  1.00  0.00     0.055 A 
ATOM     15  C   UNL     1      16.919   1.234  26.205  1.00  0.00     0.129 A 
ATOM     16  N   UNL     1      17.066  -0.084  26.408  1.00  0.00    -0.225 NA
ATOM     17  N   UNL     1      15.222   0.123  27.927  1.00  0.00    -0.219 NA
ATOM     18  C   UNL     1      16.180  -0.560  27.283  1.00  0.00     0.225 A 
BRANCH  11  19
ATOM     19  C   UNL     1      17.628   4.774  24.734  1.00  0.00    -0.008 A 
ATOM     20  C   UNL     1      18.559   7.110  23.435  1.00  0.00     0.031 A 
ATOM     21  C   UNL     1      17.396   7.138  24.205  1.00  0.00     0.026 A 
ATOM     22  C   UNL     1      19.271   5.914  23.343  1.00  0.00     0.026 A 
ATOM     23  C   UNL     1      16.930   5.982  24.844  1.00  0.00     0.012 A 
ATOM     24  C   UNL     1      18.809   4.756  23.980  1.00  0.00     0.012 A 
BRANCH  20  25
ATOM     25  N   UNL     1      19.039   8.263  22.841  1.00  0.00    -0.399 N 
ATOM     26  H   UNL     1      19.830   8.221  22.214  1.00  0.00     0.156 HD
ATOM     27  H   UNL     1      18.477   9.104  22.840  1.00  0.00     0.156 HD
ENDBRANCH  20  25
ENDBRANCH  11  19
ENDBRANCH   8  10
ENDBRANCH   1   8
BRANCH   4  28
ATOM     28  O   UNL     1      10.624   1.046  32.613  1.00  0.00    -0.456 OA
BRANCH  28  29
ATOM     29  C   UNL     1       9.335   1.517  32.493  1.00  0.00     0.128 A 
ATOM     30  C   UNL     1       8.319   0.562  32.466  1.00  0.00     0.047 A 
ATOM     31  C   UNL     1       9.021   2.878  32.466  1.00  0.00     0.060 A 
ATOM     32  C   UNL     1       6.988   0.964  32.369  1.00  0.00     0.004 A 
ATOM     33  C   UNL     1       7.683   3.294  32.374  1.00  0.00     0.059 A 
ATOM     34  C   UNL     1       6.671   2.322  32.316  1.00  0.00     0.013 A 
BRANCH  33  35
ATOM     35  C   UNL     1       7.353   4.765  32.314  1.00  0.00     0.416 C 
ATOM     36  F   UNL     1       7.309   5.247  31.042  1.00  0.00    -0.166 F 
ATOM     37  F   UNL     1       6.137   5.041  32.862  1.00  0.00    -0.166 F 
ATOM     38  F   UNL     1       8.247   5.549  32.978  1.00  0.00    -0.166 F 
ENDBRANCH  33  35
ENDBRANCH  28  29
ENDBRANCH   4  28
TORSDOF 7
ENDMDL
MODEL 7
REMARK minimizedAffinity -10.0170135
REMARK CNNscore 0.694434106
REMARK CNNaffinity 7.75168228
REMARK SMILES Nc1ccc(-c2cc3c(Nc4ccc(Oc5cccc(C(F)(F)F)c5)c(Cl)c4)ncnc3s2)cc1
REMARK SMILES IDX 11 1 12 2 13 3 14 4 26 5 27 6 28 7 10 8 9 10 6 11 7 12 33 13
REMARK SMILES IDX 8 14 32 15 31 16 29 17 30 18 5 19 2 20 3 21 35 22 4 23 34 24
REMARK SMILES IDX 1 25 15 28 16 29 17 30 25 31 18 32 20 33 19 34 21 35 22 36
REMARK SMILES IDX 23 37 24 38
REMARK H PARENT 10 9 1 26 1 27
ROOT
ATOM      1  C   UNL     1      12.666   2.155  29.142  1.00  0.00     0.041 A 
ATOM      2  C   UNL     1      11.333   2.007  28.716  1.00  0.00     0.030 A 
ATOM      3  C   UNL     1      10.337   1.544  29.582  1.00  0.00     0.051 A 
ATOM      4  C   UNL     1      10.656   1.235  30.904  1.00  0.00     0.146 A 
ATOM      5  C   UNL     1      11.976   1.352  31.339  1.00  0.00     0.085 A 
ATOM      6  Cl  UNL     1      12.421   0.952  32.960  1.00  0.00    -0.080 Cl
ATOM      7  C   UNL     1      12.968   1.815  30.466  1.00  0.00     0.050 A 
ENDROOT
BRANCH   1   8
ATOM      8  N   UNL     1      13.610   2.634  28.216  1.00  0.00    -0.340 N 
ATOM      9  H   UNL     1      13.477   3.601  27.955  1.00  0.00     0.168 HD
BRANCH   8  10
ATOM     10  C   UNL     1      14.708   2.037  27.575  1.00  0.00     0.142 A 
ATOM     11  C   UNL     1      16.534   4.448  25.362  1.00  0.00     0.037 A 
ATOM     12  C   UNL     1      15.518   4.149  26.251  1.00  0.00     0.034 A 
ATOM     13  S   UNL     1      17.517   3.074  25.074  1.00  0.00    -0.115 S 
ATOM     14  C   UNL     1      15.531   2.780  26.695  1.00  0.00     0.055 A 
ATOM     15  C   UNL     1      16.587   2.099  26.113  1.00  0.00     0.129 A 
ATOM     16  N   UNL     1      16.908   0.809  26.298  1.00  0.00    -0.225 NA
ATOM     17  N   UNL     1      15.019   0.734  27.774  1.00  0.00    -0.219 NA
ATOM     18  C   UNL     1      16.075   0.200  27.142  1.00  0.00     0.225 A 
BRANCH  11  19
ATOM     19  C   UNL     1      16.840   5.731  24.719  1.00  0.00    -0.008 A 
ATOM     20  C   UNL     1      17.471   8.201  23.490  1.00  0.00     0.031 A 
ATOM     21  C   UNL     1      16.209   7.982  24.042  1.00  0.00     0.026 A 
ATOM     22  C   UNL     1      18.426   7.188  23.583  1.00  0.00     0.026 A 
ATOM     23  C   UNL     1      15.892   6.758  24.645  1.00  0.00     0.012 A 
ATOM     24  C   UNL     1      18.114   5.963  24.186  1.00  0.00     0.012 A 
BRANCH  20  25
ATOM     25  N   UNL     1      17.795   9.424  22.933  1.00  0.00    -0.399 N 
ATOM     26  H   UNL     1      18.677   9.550  22.457  1.00  0.00     0.156 HD
ATOM     27  H   UNL     1      17.077  10.123  22.792  1.00  0.00     0.156 HD
ENDBRANCH  20  25
ENDBRANCH  11  19
ENDBRANCH   8  10
ENDBRANCH   1   8
BRANCH   4  28
ATOM     28  O   UNL     1       9.698   0.746  31.764  1.00  0.00    -0.456 OA
BRANCH  28  29
ATOM     29  C   UNL     1       8.674   1.600  32.109  1.00  0.00     0.128 A 
ATOM     30  C   UNL     1       8.987   2.957  32.183  1.00  0.00     0.047 A 
ATOM     31  C   UNL     1       7.360   1.169  32.314  1.00  0.00     0.060 A 
ATOM     32  C   UNL     1       7.996   3.883  32.504  1.00  0.00     0.004 A 
ATOM     33  C   UNL     1       6.354   2.095  32.633  1.00  0.00     0.059 A 
ATOM     34  C   UNL     1       6.689   3.455  32.735  1.00  0.00     0.013 A 
BRANCH  33  35
ATOM     35  C   UNL     1       4.944   1.620  32.883  1.00  0.00     0.416 C 
ATOM     36  F   UNL     1       4.697   0.388  32.357  1.00  0.00    -0.166 F 
ATOM     37  F   UNL     1       4.663   1.523  34.212  1.00  0.00    -0.166 F 
ATOM     38  F   UNL     1       3.993   2.444  32.362  1.00  0.00    -0.166 F 
ENDBRANCH  33  35
ENDBRANCH  28  29
ENDBRANCH   4  28
TORSDOF 7
ENDMDL
MODEL 8
REMARK minimizedAffinity -10.1016035
REMARK CNNscore 0.38580361
REMARK CNNaffinity 7.43801641
REMARK SMILES Nc1ccc(-c2cc3c(Nc4ccc(Oc5cccc(C(F)(F)F)c5)c(Cl)c4)ncnc3s2)cc1
REMARK SMILES IDX 11 1 12 2 13 3 14 4 26 5 27 6 28 7 10 8 9 10 6 11 7 12 33 13
REMARK SMILES IDX 8 14 32 15 31 16 29 17 30 18 5 19 2 20 3 21 35 22 4 23 34 24
REMARK SMILES IDX 1 25 15 28 16 29 17 30 25 31 18 32 20 33 19 34 21 35 22 36
REMARK SMILES IDX 23 37 24 38
REMARK H PARENT 10 9 1 26 1 27
ROOT
ATOM      1  C   UNL     1      11.985   1.146  30.279  1.00  0.00     0.041 A 
ATOM      2  C   UNL     1      11.034   2.101  29.874  1.00  0.00     0.030 A 
ATOM      3  C   UNL     1      11.349   3.094  28.939  1.00  0.00     0.051 A 
ATOM      4  C   UNL     1      12.625   3.137  28.377  1.00  0.00     0.146 A 
ATOM      5  C   UNL     1      13.588   2.214  28.784  1.00  0.00     0.085 A 
ATOM      6  Cl  UNL     1      15.190   2.249  28.136  1.00  0.00    -0.080 Cl
ATOM      7  C   UNL     1      13.265   1.224  29.720  1.00  0.00     0.050 A 
ENDROOT
BRANCH   1   8
ATOM      8  N   UNL     1      11.590   0.175  31.217  1.00  0.00    -0.340 N 
ATOM      9  H   UNL     1      12.246   0.045  31.974  1.00  0.00     0.168 HD
BRANCH   8  10
ATOM     10  C   UNL     1      10.462  -0.656  31.317  1.00  0.00     0.142 A 
ATOM     11  C   UNL     1       7.343   1.281  32.066  1.00  0.00     0.037 A 
ATOM     12  C   UNL     1       8.703   1.219  31.819  1.00  0.00     0.034 A 
ATOM     13  S   UNL     1       6.641  -0.281  32.009  1.00  0.00    -0.115 S 
ATOM     14  C   UNL     1       9.183  -0.118  31.594  1.00  0.00     0.055 A 
ATOM     15  C   UNL     1       8.137  -1.022  31.673  1.00  0.00     0.129 A 
ATOM     16  N   UNL     1       8.212  -2.352  31.514  1.00  0.00    -0.225 NA
ATOM     17  N   UNL     1      10.556  -1.997  31.152  1.00  0.00    -0.219 NA
ATOM     18  C   UNL     1       9.456  -2.757  31.256  1.00  0.00     0.225 A 
BRANCH  11  19
ATOM     19  C   UNL     1       6.511   2.462  32.322  1.00  0.00    -0.008 A 
ATOM     20  C   UNL     1       4.872   4.717  32.809  1.00  0.00     0.031 A 
ATOM     21  C   UNL     1       6.135   4.866  32.235  1.00  0.00     0.026 A 
ATOM     22  C   UNL     1       4.421   3.432  33.110  1.00  0.00     0.026 A 
ATOM     23  C   UNL     1       6.951   3.752  31.998  1.00  0.00     0.012 A 
ATOM     24  C   UNL     1       5.233   2.315  32.875  1.00  0.00     0.012 A 
BRANCH  20  25
ATOM     25  N   UNL     1       4.052   5.814  33.003  1.00  0.00    -0.399 N 
ATOM     26  H   UNL     1       3.177   5.715  33.497  1.00  0.00     0.156 HD
ATOM     27  H   UNL     1       4.414   6.748  32.862  1.00  0.00     0.156 HD
ENDBRANCH  20  25
ENDBRANCH  11  19
ENDBRANCH   8  10
ENDBRANCH   1   8
BRANCH   4  28
ATOM     28  O   UNL     1      12.967   4.125  27.481  1.00  0.00    -0.456 OA
BRANCH  28  29
ATOM     29  C   UNL     1      13.211   3.733  26.183  1.00  0.00     0.128 A 
ATOM     30  C   UNL     1      12.197   3.024  25.540  1.00  0.00     0.047 A 
ATOM     31  C   UNL     1      14.378   4.072  25.493  1.00  0.00     0.060 A 
ATOM     32  C   UNL     1      12.364   2.614  24.218  1.00  0.00     0.004 A 
ATOM     33  C   UNL     1      14.554   3.669  24.160  1.00  0.00     0.059 A 
ATOM     34  C   UNL     1      13.538   2.928  23.533  1.00  0.00     0.013 A 
BRANCH  33  35
ATOM     35  C   UNL     1      15.830   4.011  23.430  1.00  0.00     0.416 C 
ATOM     36  F   UNL     1      16.573   2.913  23.119  1.00  0.00    -0.166 F 
ATOM     37  F   UNL     1      15.592   4.649  22.251  1.00  0.00    -0.166 F 
ATOM     38  F   UNL     1      16.656   4.832  24.137  1.00  0.00    -0.166 F 
ENDBRANCH  33  35
ENDBRANCH  28  29
ENDBRANCH   4  28
TORSDOF 7
ENDMDL
MODEL 9
REMARK minimizedAffinity -10.6104584
REMARK CNNscore 0.28798306
REMARK CNNaffinity 7.07241297
REMARK SMILES Nc1ccc(-c2cc3c(Nc4ccc(Oc5cccc(C(F)(F)F)c5)c(Cl)c4)ncnc3s2)cc1
REMARK SMILES IDX 11 1 12 2 13 3 14 4 26 5 27 6 28 7 10 8 9 10 6 11 7 12 33 13
REMARK SMILES IDX 8 14 32 15 31 16 29 17 30 18 5 19 2 20 3 21 35 22 4 23 34 24
REMARK SMILES IDX 1 25 15 28 16 29 17 30 25 31 18 32 20 33 19 34 21 35 22 36
REMARK SMILES IDX 23 37 24 38
REMARK H PARENT 10 9 1 26 1 27
ROOT
ATOM      1  C   UNL     1      12.277   1.109  29.727  1.00  0.00     0.041 A 
ATOM      2  C   UNL     1      12.847   2.292  30.232  1.00  0.00     0.030 A 
ATOM      3  C   UNL     1      13.211   3.346  29.388  1.00  0.00     0.051 A 
ATOM      4  C   UNL     1      12.994   3.241  28.014  1.00  0.00     0.146 A 
ATOM      5  C   UNL     1      12.452   2.066  27.491  1.00  0.00     0.085 A 
ATOM      6  Cl  UNL     1      12.194   1.881  25.793  1.00  0.00    -0.080 Cl
ATOM      7  C   UNL     1      12.091   1.016  28.343  1.00  0.00     0.050 A 
ENDROOT
BRANCH   1   8
ATOM      8  N   UNL     1      11.930   0.097  30.640  1.00  0.00    -0.340 N 
ATOM      9  H   UNL     1      12.709  -0.261  31.173  1.00  0.00     0.168 HD
BRANCH   8  10
ATOM     10  C   UNL     1      10.711  -0.521  30.965  1.00  0.00     0.142 A 
ATOM     11  C   UNL     1       7.927   1.958  31.351  1.00  0.00     0.037 A 
ATOM     12  C   UNL     1       9.249   1.650  31.081  1.00  0.00     0.034 A 
ATOM     13  S   UNL     1       7.024   0.539  31.677  1.00  0.00    -0.115 S 
ATOM     14  C   UNL     1       9.534   0.242  31.152  1.00  0.00     0.055 A 
ATOM     15  C   UNL     1       8.385  -0.463  31.471  1.00  0.00     0.129 A 
ATOM     16  N   UNL     1       8.275  -1.792  31.619  1.00  0.00    -0.225 NA
ATOM     17  N   UNL     1      10.617  -1.865  31.109  1.00  0.00    -0.219 NA
ATOM     18  C   UNL     1       9.435  -2.417  31.421  1.00  0.00     0.225 A 
BRANCH  11  19
ATOM     19  C   UNL     1       7.277   3.273  31.355  1.00  0.00    -0.008 A 
ATOM     20  C   UNL     1       5.996   5.797  31.397  1.00  0.00     0.031 A 
ATOM     21  C   UNL     1       6.498   5.272  30.206  1.00  0.00     0.026 A 
ATOM     22  C   UNL     1       6.112   5.038  32.562  1.00  0.00     0.026 A 
ATOM     23  C   UNL     1       7.137   4.026  30.183  1.00  0.00     0.012 A 
ATOM     24  C   UNL     1       6.750   3.792  32.545  1.00  0.00     0.012 A 
BRANCH  20  25
ATOM     25  N   UNL     1       5.328   7.008  31.409  1.00  0.00    -0.399 N 
ATOM     26  H   UNL     1       5.045   7.425  32.284  1.00  0.00     0.156 HD
ATOM     27  H   UNL     1       5.322   7.591  30.582  1.00  0.00     0.156 HD
ENDBRANCH  20  25
ENDBRANCH  11  19
ENDBRANCH   8  10
ENDBRANCH   1   8
BRANCH   4  28
ATOM     28  O   UNL     1      13.375   4.252  27.161  1.00  0.00    -0.456 OA
BRANCH  28  29
ATOM     29  C   UNL     1      14.560   4.081  26.479  1.00  0.00     0.128 A 
ATOM     30  C   UNL     1      15.013   5.164  25.726  1.00  0.00     0.047 A 
ATOM     31  C   UNL     1      15.329   2.918  26.571  1.00  0.00     0.060 A 
ATOM     32  C   UNL     1      16.215   5.072  25.028  1.00  0.00     0.004 A 
ATOM     33  C   UNL     1      16.545   2.817  25.876  1.00  0.00     0.059 A 
ATOM     34  C   UNL     1      16.974   3.903  25.095  1.00  0.00     0.013 A 
BRANCH  33  35
ATOM     35  C   UNL     1      17.356   1.547  25.954  1.00  0.00     0.416 C 
ATOM     36  F   UNL     1      16.604   0.456  26.269  1.00  0.00    -0.166 F 
ATOM     37  F   UNL     1      17.965   1.253  24.772  1.00  0.00    -0.166 F 
ATOM     38  F   UNL     1      18.350   1.595  26.883  1.00  0.00    -0.166 F 
ENDBRANCH  33  35
ENDBRANCH  28  29
ENDBRANCH   4  28
TORSDOF 7
ENDMDL
