MODEL 4
REMARK VINA RESULT:    -7.201      1.361      2.895
REMARK INTER + INTRA:         -11.556
REMARK INTER:                 -10.169
REMARK INTRA:                  -1.388
REMARK UNBOUND:                -1.408
REMARK SMILES CC1=C(C2=C(C)C(=O)c3c(cc(O)c(O)c3CC(C)C)C2=O)C(=O)c2cc(O)c(O)c(CC(C)C)c2C1=O
REMARK SMILES IDX 1 1 2 2 3 3 23 4 24 5 25 6 26 7 27 8 29 9 31 10 36 11 37 12
REMARK SMILES IDX 38 13 4 14 5 15 21 16 7 17 10 18 22 19 8 20 9 21 11 22 16 23
REMARK SMILES IDX 12 24 14 25 6 26 17 27 18 28 19 29 20 30 13 31 15 33 32 35
REMARK SMILES IDX 33 36 34 37 35 38 30 39 28 41
REMARK H PARENT 13 32 15 34 30 40 28 42
ROOT
ATOM      1  C   UNL     1      37.634  12.900 -45.627  1.00  0.00     0.049 C 
ATOM      2  C   UNL     1      37.666  12.193 -46.953  1.00  0.00     0.009 C 
ATOM      3  C   UNL     1      38.752  12.061 -47.734  1.00  0.00     0.041 C 
ATOM      4  C   UNL     1      38.666  11.318 -49.020  1.00  0.00     0.195 C 
ATOM      5  O   UNL     1      39.679  11.018 -49.646  1.00  0.00    -0.289 OA
ATOM      6  C   UNL     1      37.337  10.952 -49.536  1.00  0.00     0.038 A 
ATOM      7  C   UNL     1      37.278  10.418 -50.833  1.00  0.00     0.063 A 
ATOM      8  C   UNL     1      36.050  10.077 -51.361  1.00  0.00     0.158 A 
ATOM      9  C   UNL     1      34.886  10.282 -50.621  1.00  0.00     0.161 A 
ATOM     10  C   UNL     1      34.906  10.833 -49.325  1.00  0.00     0.010 A 
ATOM     11  C   UNL     1      36.177  11.135 -48.763  1.00  0.00     0.041 A 
ATOM     12  C   UNL     1      36.362  11.594 -47.357  1.00  0.00     0.190 C 
ATOM     13  O   UNL     1      35.486  11.465 -46.509  1.00  0.00    -0.289 OA
ENDROOT
BRANCH   3  14
ATOM     14  C   UNL     1      40.063  12.620 -47.412  1.00  0.00     0.041 C 
ATOM     15  C   UNL     1      41.024  11.937 -46.765  1.00  0.00     0.009 C 
ATOM     16  C   UNL     1      40.309  14.005 -47.889  1.00  0.00     0.195 C 
ATOM     17  C   UNL     1      42.376  12.532 -46.543  1.00  0.00     0.190 C 
ATOM     18  C   UNL     1      41.611  14.634 -47.609  1.00  0.00     0.038 A 
ATOM     19  O   UNL     1      39.428  14.637 -48.469  1.00  0.00    -0.289 OA
ATOM     20  O   UNL     1      43.265  11.811 -46.107  1.00  0.00    -0.289 OA
ATOM     21  C   UNL     1      42.618  13.964 -46.892  1.00  0.00     0.041 A 
ATOM     22  C   UNL     1      41.801  15.943 -48.073  1.00  0.00     0.063 A 
ATOM     23  C   UNL     1      43.837  14.640 -46.565  1.00  0.00     0.010 A 
ATOM     24  C   UNL     1      43.006  16.567 -47.832  1.00  0.00     0.158 A 
ATOM     25  C   UNL     1      44.011  15.926 -47.100  1.00  0.00     0.161 A 
ATOM     26  C   UNL     1      40.882  10.523 -46.262  1.00  0.00     0.049 C 
BRANCH  23  27
ATOM     27  C   UNL     1      44.906  13.955 -45.718  1.00  0.00     0.043 C 
BRANCH  27  28
ATOM     28  C   UNL     1      44.863  13.972 -44.171  1.00  0.00    -0.013 C 
ATOM     29  C   UNL     1      45.152  15.396 -43.672  1.00  0.00     0.008 C 
ATOM     30  C   UNL     1      45.882  13.009 -43.555  1.00  0.00     0.008 C 
ENDBRANCH  27  28
ENDBRANCH  23  27
BRANCH  24  31
ATOM     31  O   UNL     1      43.265  17.833 -48.287  1.00  0.00    -0.504 OA
ATOM     32  H   UNL     1      42.448  18.364 -48.232  1.00  0.00     0.293 HD
ENDBRANCH  24  31
BRANCH  25  33
ATOM     33  O   UNL     1      45.179  16.622 -46.942  1.00  0.00    -0.504 OA
ATOM     34  H   UNL     1      45.535  16.746 -47.846  1.00  0.00     0.293 HD
ENDBRANCH  25  33
ENDBRANCH   3  14
BRANCH  10  35
ATOM     35  C   UNL     1      33.577  11.097 -48.637  1.00  0.00     0.043 C 
BRANCH  35  36
ATOM     36  C   UNL     1      32.876   9.874 -47.992  1.00  0.00    -0.013 C 
ATOM     37  C   UNL     1      32.121  10.227 -46.709  1.00  0.00     0.008 C 
ATOM     38  C   UNL     1      33.805   8.686 -47.739  1.00  0.00     0.008 C 
ENDBRANCH  35  36
ENDBRANCH  10  35
BRANCH   9  39
ATOM     39  O   UNL     1      33.696   9.930 -51.209  1.00  0.00    -0.504 OA
ATOM     40  H   UNL     1      33.849   9.038 -51.585  1.00  0.00     0.293 HD
ENDBRANCH   9  39
BRANCH   8  41
ATOM     41  O   UNL     1      35.923   9.545 -52.614  1.00  0.00    -0.504 OA
ATOM     42  H   UNL     1      36.753   9.090 -52.844  1.00  0.00     0.293 HD
ENDBRANCH   8  41
TORSDOF 9
ENDMDL
