MODEL 5
REMARK VINA RESULT:    -9.791      2.527      3.697
REMARK INTER + INTRA:         -17.426
REMARK INTER:                 -15.632
REMARK INTRA:                  -1.794
REMARK UNBOUND:                -1.625
REMARK SMILES CC(C)(O)CC(=O)NCCn1ccc2ncnc(Nc3ccc(Oc4cccc(C(F)(F)F)c4)c(Cl)c3)c21
REMARK SMILES IDX 11 1 12 2 13 3 14 4 15 5 16 6 17 7 18 8 38 9 10 10 9 11 8 12
REMARK SMILES IDX 6 13 7 14 5 16 2 17 1 18 3 19 4 20 19 22 20 24 37 25 21 26
REMARK SMILES IDX 35 27 22 28 23 29 36 30 24 31 25 32 34 33 26 34 29 35 27 36
REMARK SMILES IDX 28 37 30 38 31 39 32 40 33 41
REMARK H PARENT 8 15 4 21 19 23
ROOT
ATOM      1  N   UNL     1      15.079  40.409   8.636  1.00  0.00    -0.341 N 
ATOM      2  C   UNL     1      14.858  41.718   8.263  1.00  0.00     0.088 A 
ATOM      3  C   UNL     1      13.510  41.949   8.085  1.00  0.00     0.048 A 
ATOM      4  C   UNL     1      12.851  40.720   8.384  1.00  0.00     0.094 A 
ATOM      5  N   UNL     1      11.550  40.415   8.371  1.00  0.00    -0.235 NA
ATOM      6  C   UNL     1      11.253  39.137   8.720  1.00  0.00     0.225 A 
ATOM      7  N   UNL     1      12.124  38.163   9.076  1.00  0.00    -0.217 NA
ATOM      8  C   UNL     1      13.451  38.459   9.099  1.00  0.00     0.158 A 
ATOM      9  C   UNL     1      13.852  39.761   8.741  1.00  0.00     0.110 A 
ENDROOT
BRANCH   1  10
ATOM     10  C   UNL     1      16.395  39.844   8.931  1.00  0.00     0.143 C 
BRANCH  10  11
ATOM     11  C   UNL     1      17.233  39.597   7.651  1.00  0.00     0.137 C 
BRANCH  11  12
ATOM     12  N   UNL     1      18.494  38.894   7.872  1.00  0.00    -0.354 N 
ATOM     13  C   UNL     1      19.121  38.150   6.945  1.00  0.00     0.222 C 
ATOM     14  O   UNL     1      18.679  37.985   5.807  1.00  0.00    -0.275 OA
ATOM     15  H   UNL     1      18.900  38.973   8.793  1.00  0.00     0.163 HD
BRANCH  13  16
ATOM     16  C   UNL     1      20.438  37.483   7.392  1.00  0.00     0.134 C 
BRANCH  16  17
ATOM     17  C   UNL     1      20.561  35.937   7.220  1.00  0.00     0.068 C 
ATOM     18  C   UNL     1      21.309  35.335   8.428  1.00  0.00     0.042 C 
ATOM     19  C   UNL     1      21.269  35.529   5.908  1.00  0.00     0.042 C 
BRANCH  17  20
ATOM     20  O   UNL     1      19.273  35.344   7.226  1.00  0.00    -0.390 OA
ATOM     21  H   UNL     1      19.294  34.585   7.815  1.00  0.00     0.211 HD
ENDBRANCH  17  20
ENDBRANCH  16  17
ENDBRANCH  13  16
ENDBRANCH  11  12
ENDBRANCH  10  11
ENDBRANCH   1  10
BRANCH   8  22
ATOM     22  N   UNL     1      14.382  37.467   9.454  1.00  0.00    -0.338 N 
ATOM     23  H   UNL     1      15.098  37.332   8.756  1.00  0.00     0.168 HD
BRANCH  22  24
ATOM     24  C   UNL     1      14.538  36.631  10.573  1.00  0.00     0.041 A 
ATOM     25  C   UNL     1      15.514  35.633  10.495  1.00  0.00     0.050 A 
ATOM     26  C   UNL     1      13.797  36.762  11.756  1.00  0.00     0.030 A 
ATOM     27  C   UNL     1      15.738  34.765  11.564  1.00  0.00     0.085 A 
ATOM     28  C   UNL     1      14.017  35.895  12.827  1.00  0.00     0.051 A 
ATOM     29  C   UNL     1      14.981  34.890  12.734  1.00  0.00     0.146 A 
ATOM     30  Cl  UNL     1      16.946  33.538  11.423  1.00  0.00    -0.080 Cl
BRANCH  29  31
ATOM     31  O   UNL     1      15.188  34.041  13.797  1.00  0.00    -0.456 OA
BRANCH  31  32
ATOM     32  C   UNL     1      15.561  34.531  15.034  1.00  0.00     0.128 A 
ATOM     33  C   UNL     1      16.855  35.042  15.154  1.00  0.00     0.060 A 
ATOM     34  C   UNL     1      14.726  34.530  16.165  1.00  0.00     0.047 A 
ATOM     35  C   UNL     1      17.327  35.552  16.370  1.00  0.00     0.059 A 
ATOM     36  C   UNL     1      15.184  35.036  17.380  1.00  0.00     0.004 A 
ATOM     37  C   UNL     1      16.477  35.546  17.484  1.00  0.00     0.013 A 
BRANCH  35  38
ATOM     38  C   UNL     1      18.751  36.100  16.462  1.00  0.00     0.416 C 
ATOM     39  F   UNL     1      18.900  36.810  17.580  1.00  0.00    -0.166 F 
ATOM     40  F   UNL     1      19.612  35.081  16.483  1.00  0.00    -0.166 F 
ATOM     41  F   UNL     1      19.059  36.885  15.429  1.00  0.00    -0.166 F 
ENDBRANCH  35  38
ENDBRANCH  31  32
ENDBRANCH  29  31
ENDBRANCH  22  24
ENDBRANCH   8  22
TORSDOF 11
ENDMDL
