MODEL 5
REMARK VINA RESULT:    -7.366      5.100     10.026
REMARK INTER + INTRA:         -10.414
REMARK INTER:                 -10.631
REMARK INTRA:                   0.216
REMARK UNBOUND:                -0.895
REMARK SMILES O=C(Nc1ccc(Oc2cncc(Cl)n2)cc1C(=O)[O-])c1ccc(Cl)cc1Cl
REMARK SMILES IDX 4 1 5 2 6 3 7 4 16 5 17 6 3 7 1 8 2 9 21 11 22 12 27 13
REMARK SMILES IDX 23 14 26 15 24 16 28 17 25 18 18 19 19 20 20 21 8 22 9 23
REMARK SMILES IDX 10 24 15 25 11 26 13 27 12 28 14 29
REMARK H PARENT 3 10
ROOT
ATOM      1  C   UNL     1      -9.408  -7.615 -20.603  1.00  0.00     0.050 A 
ATOM      2  C   UNL     1      -8.608  -6.784 -19.810  1.00  0.00     0.030 A 
ATOM      3  C   UNL     1      -8.953  -6.516 -18.483  1.00  0.00     0.049 A 
ATOM      4  C   UNL     1     -10.110  -7.075 -17.948  1.00  0.00     0.130 A 
ATOM      5  C   UNL     1     -10.900  -7.930 -18.711  1.00  0.00     0.059 A 
ATOM      6  C   UNL     1     -10.575  -8.204 -20.054  1.00  0.00     0.024 A 
ENDROOT
BRANCH   1   7
ATOM      7  N   UNL     1      -9.098  -7.897 -21.949  1.00  0.00    -0.321 N 
ATOM      8  O   UNL     1      -6.966  -8.839 -21.904  1.00  0.00    -0.269 OA
ATOM      9  C   UNL     1      -7.972  -8.463 -22.495  1.00  0.00     0.257 C 
ATOM     10  H   UNL     1      -9.882  -7.659 -22.580  1.00  0.00     0.170 HD
BRANCH   9  11
ATOM     11  C   UNL     1      -8.052  -8.656 -23.968  1.00  0.00     0.058 A 
ATOM     12  C   UNL     1      -8.937  -7.849 -24.707  1.00  0.00     0.017 A 
ATOM     13  C   UNL     1      -7.297  -9.633 -24.629  1.00  0.00     0.055 A 
ATOM     14  C   UNL     1      -9.064  -8.018 -26.087  1.00  0.00     0.021 A 
ATOM     15  C   UNL     1      -7.431  -9.801 -26.013  1.00  0.00     0.041 A 
ATOM     16  C   UNL     1      -8.312  -8.996 -26.732  1.00  0.00     0.042 A 
ATOM     17  Cl  UNL     1      -6.136 -10.636 -23.832  1.00  0.00    -0.083 Cl
ATOM     18  Cl  UNL     1      -8.470  -9.212 -28.433  1.00  0.00    -0.084 Cl
ENDBRANCH   9  11
ENDBRANCH   1   7
BRANCH   6  19
ATOM     19  C   UNL     1     -11.481  -9.124 -20.856  1.00  0.00     0.074 C 
ATOM     20  O   UNL     1     -10.926  -9.991 -21.598  1.00  0.00    -0.545 OA
ATOM     21  O   UNL     1     -12.741  -8.962 -20.718  1.00  0.00    -0.545 OA
ENDBRANCH   6  19
BRANCH   4  22
ATOM     22  O   UNL     1     -10.474  -6.837 -16.645  1.00  0.00    -0.437 OA
BRANCH  22  23
ATOM     23  C   UNL     1     -11.827  -6.873 -16.386  1.00  0.00     0.239 A 
ATOM     24  C   UNL     1     -12.588  -8.040 -16.492  1.00  0.00     0.179 A 
ATOM     25  N   UNL     1     -12.358  -5.707 -15.944  1.00  0.00    -0.198 NA
ATOM     26  N   UNL     1     -13.913  -8.083 -16.193  1.00  0.00    -0.256 NA
ATOM     27  C   UNL     1     -13.673  -5.757 -15.651  1.00  0.00     0.151 A 
ATOM     28  C   UNL     1     -14.436  -6.908 -15.771  1.00  0.00     0.152 A 
ATOM     29  Cl  UNL     1     -14.357  -4.282 -15.108  1.00  0.00    -0.060 Cl
ENDBRANCH  22  23
ENDBRANCH   4  22
TORSDOF 5
ENDMDL
