MODEL 1
REMARK VINA RESULT:    -9.140      0.000      0.000
REMARK INTER + INTRA:         -16.380
REMARK INTER:                 -15.285
REMARK INTRA:                  -1.095
REMARK UNBOUND:                -1.095
REMARK SMILES CCCc1c(OCCCSc2ccc(CC(=O)O)cc2Cl)ccc2c(-c3ccccc3)coc12
REMARK SMILES IDX 8 1 7 2 6 3 5 4 4 5 34 6 22 7 33 8 24 9 23 10 32 11 25 12
REMARK SMILES IDX 3 13 2 14 1 15 26 16 27 17 31 18 28 19 30 20 29 21 9 22
REMARK SMILES IDX 10 23 11 24 12 25 20 26 13 27 19 28 14 29 21 30 15 31 16 32
REMARK SMILES IDX 17 33 18 34
REMARK H PARENT 18 35
ROOT
ATOM      1  C   UNL     1       7.851   4.628  -7.021  1.00  0.00     0.053 C 
ENDROOT
BRANCH   1   2
ATOM      2  C   UNL     1       9.253   5.080  -6.611  1.00  0.00     0.230 C 
BRANCH   2   3
ATOM      3  O   UNL     1      10.139   4.752  -7.682  1.00  0.00    -0.493 OA
BRANCH   3   4
ATOM      4  C   UNL     1      10.316   5.681  -8.679  1.00  0.00     0.126 A 
ATOM      5  C   UNL     1      10.867   5.172  -9.877  1.00  0.00     0.037 A 
ATOM      6  C   UNL     1      11.037   6.105 -10.911  1.00  0.00     0.141 A 
ATOM      7  C   UNL     1       9.993   7.038  -8.554  1.00  0.00     0.047 A 
ATOM      8  O   UNL     1      11.540   5.823 -12.148  1.00  0.00    -0.463 OA
ATOM      9  C   UNL     1      10.719   7.456 -10.825  1.00  0.00     0.029 A 
ATOM     10  C   UNL     1      10.191   7.936  -9.614  1.00  0.00     0.016 A 
ATOM     11  C   UNL     1      11.547   6.984 -12.852  1.00  0.00     0.205 A 
ATOM     12  C   UNL     1      11.055   8.024 -12.092  1.00  0.00     0.028 A 
BRANCH   5  13
ATOM     13  C   UNL     1      11.214   3.716 -10.047  1.00  0.00     0.043 C 
BRANCH  13  14
ATOM     14  C   UNL     1      10.221   3.002 -10.968  1.00  0.00     0.002 C 
ATOM     15  C   UNL     1       8.880   2.796 -10.283  1.00  0.00     0.004 C 
ENDBRANCH  13  14
ENDBRANCH   5  13
BRANCH  12  16
ATOM     16  C   UNL     1      10.923   9.381 -12.586  1.00  0.00    -0.015 A 
ATOM     17  C   UNL     1      11.094   9.667 -13.947  1.00  0.00     0.009 A 
ATOM     18  C   UNL     1      10.621  10.425 -11.703  1.00  0.00     0.009 A 
ATOM     19  C   UNL     1      10.967  10.976 -14.415  1.00  0.00     0.001 A 
ATOM     20  C   UNL     1      10.492  11.734 -12.174  1.00  0.00     0.001 A 
ATOM     21  C   UNL     1      10.665  12.009 -13.530  1.00  0.00     0.000 A 
ENDBRANCH  12  16
ENDBRANCH   3   4
ENDBRANCH   2   3
ENDBRANCH   1   2
BRANCH   1  22
ATOM     22  C   UNL     1       6.768   5.021  -6.021  1.00  0.00     0.078 C 
BRANCH  22  23
ATOM     23  S   UNL     1       6.244   6.758  -6.227  1.00  0.00    -0.124 SA
BRANCH  23  24
ATOM     24  C   UNL     1       5.125   6.874  -4.834  1.00  0.00     0.026 A 
ATOM     25  C   UNL     1       4.690   5.674  -4.255  1.00  0.00     0.017 A 
ATOM     26  C   UNL     1       4.657   8.087  -4.308  1.00  0.00     0.054 A 
ATOM     27  C   UNL     1       3.816   5.681  -3.165  1.00  0.00     0.005 A 
ATOM     28  C   UNL     1       3.781   8.094  -3.215  1.00  0.00     0.026 A 
ATOM     29  C   UNL     1       3.350   6.891  -2.637  1.00  0.00    -0.035 A 
ATOM     30  Cl  UNL     1       5.121   9.623  -4.961  1.00  0.00    -0.083 Cl
BRANCH  29  31
ATOM     31  C   UNL     1       2.422   6.903  -1.445  1.00  0.00     0.158 C 
BRANCH  31  32
ATOM     32  C   UNL     1       2.743   7.980  -0.437  1.00  0.00     0.307 C 
ATOM     33  O   UNL     1       2.105   8.986  -0.179  1.00  0.00    -0.252 OA
BRANCH  32  34
ATOM     34  O   UNL     1       3.894   7.723   0.220  1.00  0.00    -0.481 OA
ATOM     35  H   UNL     1       3.902   8.379   0.949  1.00  0.00     0.296 HD
ENDBRANCH  32  34
ENDBRANCH  31  32
ENDBRANCH  29  31
ENDBRANCH  23  24
ENDBRANCH  22  23
ENDBRANCH   1  22
TORSDOF 12
ENDMDL
