MODEL 7
REMARK VINA RESULT:    -7.315      2.506      4.738
REMARK INTER + INTRA:          -9.429
REMARK INTER:                  -9.427
REMARK INTRA:                  -0.002
REMARK UNBOUND:                -0.189
REMARK SMILES NCCn1c(C2CCCCC2)nc2cc(C(N)=O)ccc21
REMARK SMILES IDX 3 1 2 2 1 3 4 6 5 7 21 8 12 9 20 10 13 11 19 12 14 13 15 14
REMARK SMILES IDX 6 15 7 16 11 17 8 18 10 19 9 20 16 21 17 22 18 23
REMARK H PARENT 1 4 1 5 17 24 17 25
ROOT
ATOM      1  C   UNL     1      -2.882  24.933 -28.449  1.00  0.00     0.139 C 
ENDROOT
BRANCH   1   2
ATOM      2  C   UNL     1      -3.626  24.912 -27.105  1.00  0.00     0.099 C 
BRANCH   2   3
ATOM      3  N   UNL     1      -2.761  24.591 -25.969  1.00  0.00    -0.329 NA
ATOM      4  H   UNL     1      -2.472  25.444 -25.491  1.00  0.00     0.118 HD
ATOM      5  H   UNL     1      -1.903  24.153 -26.307  1.00  0.00     0.118 HD
ENDBRANCH   2   3
ENDBRANCH   1   2
BRANCH   1   6
ATOM      6  N   UNL     1      -3.638  25.551 -29.523  1.00  0.00    -0.326 N 
ATOM      7  C   UNL     1      -4.211  24.943 -30.628  1.00  0.00     0.113 A 
ATOM      8  C   UNL     1      -3.873  26.911 -29.617  1.00  0.00     0.068 A 
ATOM      9  N   UNL     1      -4.808  25.845 -31.387  1.00  0.00    -0.233 NA
ATOM     10  C   UNL     1      -3.533  28.001 -28.808  1.00  0.00     0.029 A 
ATOM     11  C   UNL     1      -4.609  27.056 -30.785  1.00  0.00     0.090 A 
ATOM     12  C   UNL     1      -3.962  29.267 -29.228  1.00  0.00     0.016 A 
ATOM     13  C   UNL     1      -5.036  28.326 -31.197  1.00  0.00     0.044 A 
ATOM     14  C   UNL     1      -4.694  29.437 -30.411  1.00  0.00     0.041 A 
BRANCH   7  15
ATOM     15  C   UNL     1      -4.188  23.481 -31.000  1.00  0.00     0.056 C 
ATOM     16  C   UNL     1      -5.062  23.124 -32.208  1.00  0.00     0.011 C 
ATOM     17  C   UNL     1      -4.443  22.561 -29.798  1.00  0.00     0.011 C 
ATOM     18  C   UNL     1      -4.914  21.649 -32.579  1.00  0.00     0.001 C 
ATOM     19  C   UNL     1      -4.319  21.089 -30.188  1.00  0.00     0.001 C 
ATOM     20  C   UNL     1      -5.199  20.741 -31.385  1.00  0.00     0.000 C 
ENDBRANCH   7  15
BRANCH  14  21
ATOM     21  C   UNL     1      -5.107  30.816 -30.788  1.00  0.00     0.248 C 
ATOM     22  N   UNL     1      -5.227  31.739 -29.787  1.00  0.00    -0.366 N 
ATOM     23  O   UNL     1      -5.367  31.117 -31.947  1.00  0.00    -0.270 OA
ATOM     24  H   UNL     1      -5.277  31.481 -28.812  1.00  0.00     0.159 HD
ATOM     25  H   UNL     1      -5.622  32.632 -30.052  1.00  0.00     0.159 HD
ENDBRANCH  14  21
ENDBRANCH   1   6
TORSDOF 5
ENDMDL
