MODEL 1
REMARK VINA RESULT:    -9.103      0.000      0.000
REMARK INTER + INTRA:         -15.206
REMARK INTER:                 -14.159
REMARK INTRA:                  -1.048
REMARK UNBOUND:                -1.048
REMARK SMILES CCC(CC)n1cc(-c2nc(-c3cnn([C@H]4C[C@@H](C(=O)NCCO)C4)c3)cn3nccc23)cn1
REMARK SMILES IDX 12 1 13 2 14 3 15 4 26 5 11 6 9 7 10 8 32 9 31 10 28 11
REMARK SMILES IDX 27 12 30 13 29 14 8 15 6 16 7 17 34 18 33 19 3 20 2 21 1 22
REMARK SMILES IDX 4 23 5 24 16 25 17 26 25 27 18 28 19 29 20 30 21 31 22 33
REMARK SMILES IDX 23 34 24 35
REMARK H PARENT 21 32 24 36
ROOT
ATOM      1  C   UNL     1       4.569 -18.856  20.855  1.00  0.00     0.040 A 
ATOM      2  C   UNL     1       3.743 -18.325  21.871  1.00  0.00     0.145 A 
ATOM      3  N   UNL     1       2.818 -17.483  21.398  1.00  0.00    -0.181 NA
ATOM      4  N   UNL     1       3.039 -17.487  20.073  1.00  0.00    -0.269 N 
ATOM      5  C   UNL     1       4.081 -18.289  19.697  1.00  0.00     0.119 A 
ENDROOT
BRANCH   1   6
ATOM      6  C   UNL     1       5.665 -19.769  20.987  1.00  0.00     0.092 A 
ATOM      7  C   UNL     1       6.230 -21.941  21.560  1.00  0.00     0.100 A 
ATOM      8  N   UNL     1       5.300 -21.041  21.397  1.00  0.00    -0.244 NA
ATOM      9  C   UNL     1       7.618 -21.667  21.294  1.00  0.00     0.093 A 
ATOM     10  C   UNL     1       8.790 -22.387  21.277  1.00  0.00     0.052 A 
ATOM     11  N   UNL     1       7.939 -20.384  20.900  1.00  0.00    -0.237 N 
ATOM     12  C   UNL     1       6.947 -19.435  20.749  1.00  0.00     0.142 A 
ATOM     13  C   UNL     1       9.774 -21.454  20.913  1.00  0.00     0.136 A 
ATOM     14  N   UNL     1       9.269 -20.239  20.696  1.00  0.00    -0.176 NA
BRANCH   7  15
ATOM     15  C   UNL     1       5.814 -23.251  22.016  1.00  0.00     0.040 A 
ATOM     16  N   UNL     1       5.003 -25.297  22.204  1.00  0.00    -0.269 N 
ATOM     17  C   UNL     1       5.154 -24.253  21.331  1.00  0.00     0.119 A 
ATOM     18  N   UNL     1       5.534 -25.051  23.413  1.00  0.00    -0.181 NA
ATOM     19  C   UNL     1       6.046 -23.823  23.290  1.00  0.00     0.145 A 
BRANCH  16  20
ATOM     20  C   UNL     1       4.333 -26.566  21.923  1.00  0.00     0.107 C 
BRANCH  20  21
ATOM     21  C   UNL     1       4.527 -27.585  23.065  1.00  0.00     0.024 C 
ATOM     22  C   UNL     1       5.618 -28.626  22.851  1.00  0.00     0.006 C 
ENDBRANCH  20  21
BRANCH  20  23
ATOM     23  C   UNL     1       2.857 -26.395  21.510  1.00  0.00     0.024 C 
ATOM     24  C   UNL     1       2.182 -27.718  21.173  1.00  0.00     0.006 C 
ENDBRANCH  20  23
ENDBRANCH  16  20
ENDBRANCH   7  15
ENDBRANCH   1   6
BRANCH   4  25
ATOM     25  C   UNL     1       2.263 -16.676  19.113  1.00  0.00     0.109 C 
ATOM     26  C   UNL     1       1.040 -17.403  18.514  1.00  0.00     0.040 C 
ATOM     27  C   UNL     1       1.268 -15.706  19.785  1.00  0.00     0.040 C 
ATOM     28  C   UNL     1       0.259 -16.064  18.655  1.00  0.00     0.082 C 
BRANCH  28  29
ATOM     29  C   UNL     1      -1.250 -16.162  18.991  1.00  0.00     0.223 C 
ATOM     30  O   UNL     1      -1.694 -16.486  20.095  1.00  0.00    -0.275 OA
ATOM     31  N   UNL     1      -2.090 -15.854  17.941  1.00  0.00    -0.354 N 
ATOM     32  H   UNL     1      -1.703 -15.586  17.046  1.00  0.00     0.163 HD
BRANCH  31  33
ATOM     33  C   UNL     1      -3.537 -15.887  18.079  1.00  0.00     0.144 C 
BRANCH  33  34
ATOM     34  C   UNL     1      -4.118 -17.263  17.761  1.00  0.00     0.177 C 
BRANCH  34  35
ATOM     35  O   UNL     1      -4.066 -18.094  18.921  1.00  0.00    -0.395 OA
ATOM     36  H   UNL     1      -4.976 -18.120  19.269  1.00  0.00     0.210 HD
ENDBRANCH  34  35
ENDBRANCH  33  34
ENDBRANCH  31  33
ENDBRANCH  28  29
ENDBRANCH   4  25
TORSDOF 10
ENDMDL
MODEL 2
REMARK VINA RESULT:    -8.973      0.978      1.471
REMARK INTER + INTRA:         -15.005
REMARK INTER:                 -14.440
REMARK INTRA:                  -0.565
REMARK UNBOUND:                -1.048
REMARK SMILES CCC(CC)n1cc(-c2nc(-c3cnn([C@H]4C[C@@H](C(=O)NCCO)C4)c3)cn3nccc23)cn1
REMARK SMILES IDX 12 1 13 2 14 3 15 4 26 5 11 6 9 7 10 8 32 9 31 10 28 11
REMARK SMILES IDX 27 12 30 13 29 14 8 15 6 16 7 17 34 18 33 19 3 20 2 21 1 22
REMARK SMILES IDX 4 23 5 24 16 25 17 26 25 27 18 28 19 29 20 30 21 31 22 33
REMARK SMILES IDX 23 34 24 35
REMARK H PARENT 21 32 24 36
ROOT
ATOM      1  C   UNL     1       4.215 -19.655  20.038  1.00  0.00     0.040 A 
ATOM      2  C   UNL     1       2.914 -19.699  20.587  1.00  0.00     0.145 A 
ATOM      3  N   UNL     1       2.088 -18.808  20.031  1.00  0.00    -0.181 NA
ATOM      4  N   UNL     1       2.854 -18.202  19.109  1.00  0.00    -0.269 N 
ATOM      5  C   UNL     1       4.139 -18.669  19.077  1.00  0.00     0.119 A 
ENDROOT
BRANCH   1   6
ATOM      6  C   UNL     1       5.357 -20.445  20.392  1.00  0.00     0.092 A 
ATOM      7  C   UNL     1       6.021 -22.445  21.352  1.00  0.00     0.100 A 
ATOM      8  N   UNL     1       5.048 -21.661  20.980  1.00  0.00    -0.244 NA
ATOM      9  C   UNL     1       7.404 -22.106  21.139  1.00  0.00     0.093 A 
ATOM     10  C   UNL     1       8.621 -22.724  21.320  1.00  0.00     0.052 A 
ATOM     11  N   UNL     1       7.667 -20.881  20.561  1.00  0.00    -0.237 N 
ATOM     12  C   UNL     1       6.628 -20.051  20.189  1.00  0.00     0.142 A 
ATOM     13  C   UNL     1       9.564 -21.784  20.874  1.00  0.00     0.136 A 
ATOM     14  N   UNL     1       8.996 -20.664  20.427  1.00  0.00    -0.176 NA
BRANCH   7  15
ATOM     15  C   UNL     1       5.660 -23.695  21.988  1.00  0.00     0.040 A 
ATOM     16  N   UNL     1       4.813 -25.667  22.512  1.00  0.00    -0.269 N 
ATOM     17  C   UNL     1       4.800 -24.687  21.556  1.00  0.00     0.119 A 
ATOM     18  N   UNL     1       5.636 -25.389  23.537  1.00  0.00    -0.181 NA
ATOM     19  C   UNL     1       6.166 -24.209  23.206  1.00  0.00     0.145 A 
BRANCH  16  20
ATOM     20  C   UNL     1       4.028 -26.901  22.494  1.00  0.00     0.107 C 
BRANCH  20  21
ATOM     21  C   UNL     1       2.859 -26.825  21.489  1.00  0.00     0.024 C 
ATOM     22  C   UNL     1       2.192 -28.149  21.141  1.00  0.00     0.006 C 
ENDBRANCH  20  21
BRANCH  20  23
ATOM     23  C   UNL     1       4.891 -28.167  22.323  1.00  0.00     0.024 C 
ATOM     24  C   UNL     1       4.855 -29.073  23.548  1.00  0.00     0.006 C 
ENDBRANCH  20  23
ENDBRANCH  16  20
ENDBRANCH   7  15
ENDBRANCH   1   6
BRANCH   4  25
ATOM     25  C   UNL     1       2.376 -17.109  18.238  1.00  0.00     0.109 C 
ATOM     26  C   UNL     1       0.925 -17.285  17.742  1.00  0.00     0.040 C 
ATOM     27  C   UNL     1       1.884 -15.869  19.016  1.00  0.00     0.040 C 
ATOM     28  C   UNL     1       0.730 -15.758  17.978  1.00  0.00     0.082 C 
BRANCH  28  29
ATOM     29  C   UNL     1      -0.670 -15.293  18.449  1.00  0.00     0.223 C 
ATOM     30  O   UNL     1      -0.864 -14.546  19.410  1.00  0.00    -0.275 OA
ATOM     31  N   UNL     1      -1.718 -15.785  17.699  1.00  0.00    -0.354 N 
ATOM     32  H   UNL     1      -1.534 -16.393  16.911  1.00  0.00     0.163 HD
BRANCH  31  33
ATOM     33  C   UNL     1      -3.101 -15.446  17.993  1.00  0.00     0.144 C 
BRANCH  33  34
ATOM     34  C   UNL     1      -3.847 -16.597  18.666  1.00  0.00     0.177 C 
BRANCH  34  35
ATOM     35  O   UNL     1      -3.083 -17.799  18.565  1.00  0.00    -0.395 OA
ATOM     36  H   UNL     1      -2.969 -18.118  19.479  1.00  0.00     0.210 HD
ENDBRANCH  34  35
ENDBRANCH  33  34
ENDBRANCH  31  33
ENDBRANCH  28  29
ENDBRANCH   4  25
TORSDOF 10
ENDMDL
MODEL 3
REMARK VINA RESULT:    -8.837      1.295      1.515
REMARK INTER + INTRA:         -14.793
REMARK INTER:                 -14.014
REMARK INTRA:                  -0.780
REMARK UNBOUND:                -1.048
REMARK SMILES CCC(CC)n1cc(-c2nc(-c3cnn([C@H]4C[C@@H](C(=O)NCCO)C4)c3)cn3nccc23)cn1
REMARK SMILES IDX 12 1 13 2 14 3 15 4 26 5 11 6 9 7 10 8 32 9 31 10 28 11
REMARK SMILES IDX 27 12 30 13 29 14 8 15 6 16 7 17 34 18 33 19 3 20 2 21 1 22
REMARK SMILES IDX 4 23 5 24 16 25 17 26 25 27 18 28 19 29 20 30 21 31 22 33
REMARK SMILES IDX 23 34 24 35
REMARK H PARENT 21 32 24 36
ROOT
ATOM      1  C   UNL     1       5.262 -18.270  19.544  1.00  0.00     0.040 A 
ATOM      2  C   UNL     1       5.441 -16.922  19.928  1.00  0.00     0.145 A 
ATOM      3  N   UNL     1       4.577 -16.095  19.330  1.00  0.00    -0.181 NA
ATOM      4  N   UNL     1       3.829 -16.916  18.574  1.00  0.00    -0.269 N 
ATOM      5  C   UNL     1       4.203 -18.229  18.662  1.00  0.00     0.119 A 
ENDROOT
BRANCH   1   6
ATOM      6  C   UNL     1       6.006 -19.420  19.964  1.00  0.00     0.092 A 
ATOM      7  C   UNL     1       5.830 -21.666  20.500  1.00  0.00     0.100 A 
ATOM      8  N   UNL     1       5.245 -20.569  20.108  1.00  0.00    -0.244 NA
ATOM      9  C   UNL     1       7.245 -21.732  20.756  1.00  0.00     0.093 A 
ATOM     10  C   UNL     1       8.154 -22.713  21.080  1.00  0.00     0.052 A 
ATOM     11  N   UNL     1       7.963 -20.562  20.612  1.00  0.00    -0.237 N 
ATOM     12  C   UNL     1       7.328 -19.403  20.214  1.00  0.00     0.142 A 
ATOM     13  C   UNL     1       9.385 -22.042  21.163  1.00  0.00     0.136 A 
ATOM     14  N   UNL     1       9.275 -20.741  20.895  1.00  0.00    -0.176 NA
BRANCH   7  15
ATOM     15  C   UNL     1       4.997 -22.840  20.666  1.00  0.00     0.040 A 
ATOM     16  N   UNL     1       4.170 -24.829  21.156  1.00  0.00    -0.269 N 
ATOM     17  C   UNL     1       5.302 -24.063  21.232  1.00  0.00     0.119 A 
ATOM     18  N   UNL     1       3.138 -24.183  20.589  1.00  0.00    -0.181 NA
ATOM     19  C   UNL     1       3.632 -22.972  20.317  1.00  0.00     0.145 A 
BRANCH  16  20
ATOM     20  C   UNL     1       4.033 -26.213  21.606  1.00  0.00     0.107 C 
BRANCH  20  21
ATOM     21  C   UNL     1       4.939 -26.518  22.816  1.00  0.00     0.024 C 
ATOM     22  C   UNL     1       5.127 -27.991  23.155  1.00  0.00     0.006 C 
ENDBRANCH  20  21
BRANCH  20  23
ATOM     23  C   UNL     1       2.567 -26.637  21.826  1.00  0.00     0.024 C 
ATOM     24  C   UNL     1       2.159 -27.820  20.957  1.00  0.00     0.006 C 
ENDBRANCH  20  23
ENDBRANCH  16  20
ENDBRANCH   7  15
ENDBRANCH   1   6
BRANCH   4  25
ATOM     25  C   UNL     1       2.734 -16.451  17.699  1.00  0.00     0.109 C 
ATOM     26  C   UNL     1       1.521 -17.403  17.643  1.00  0.00     0.040 C 
ATOM     27  C   UNL     1       1.802 -15.419  18.370  1.00  0.00     0.040 C 
ATOM     28  C   UNL     1       0.611 -16.140  17.674  1.00  0.00     0.082 C 
BRANCH  28  29
ATOM     29  C   UNL     1      -0.740 -16.264  18.421  1.00  0.00     0.223 C 
ATOM     30  O   UNL     1      -0.863 -16.725  19.558  1.00  0.00    -0.275 OA
ATOM     31  N   UNL     1      -1.830 -15.810  17.708  1.00  0.00    -0.354 N 
ATOM     32  H   UNL     1      -1.704 -15.430  16.779  1.00  0.00     0.163 HD
BRANCH  31  33
ATOM     33  C   UNL     1      -3.176 -15.842  18.257  1.00  0.00     0.144 C 
BRANCH  33  34
ATOM     34  C   UNL     1      -3.895 -17.154  17.946  1.00  0.00     0.177 C 
BRANCH  34  35
ATOM     35  O   UNL     1      -3.553 -18.140  18.921  1.00  0.00    -0.395 OA
ATOM     36  H   UNL     1      -3.206 -18.900  18.418  1.00  0.00     0.210 HD
ENDBRANCH  34  35
ENDBRANCH  33  34
ENDBRANCH  31  33
ENDBRANCH  28  29
ENDBRANCH   4  25
TORSDOF 10
ENDMDL
MODEL 4
REMARK VINA RESULT:    -8.551      6.991     13.064
REMARK INTER + INTRA:         -14.347
REMARK INTER:                 -13.645
REMARK INTRA:                  -0.702
REMARK UNBOUND:                -1.048
REMARK SMILES CCC(CC)n1cc(-c2nc(-c3cnn([C@H]4C[C@@H](C(=O)NCCO)C4)c3)cn3nccc23)cn1
REMARK SMILES IDX 12 1 13 2 14 3 15 4 26 5 11 6 9 7 10 8 32 9 31 10 28 11
REMARK SMILES IDX 27 12 30 13 29 14 8 15 6 16 7 17 34 18 33 19 3 20 2 21 1 22
REMARK SMILES IDX 4 23 5 24 16 25 17 26 25 27 18 28 19 29 20 30 21 31 22 33
REMARK SMILES IDX 23 34 24 35
REMARK H PARENT 21 32 24 36
ROOT
ATOM      1  C   UNL     1       7.773 -26.966  24.463  1.00  0.00     0.040 A 
ATOM      2  C   UNL     1       7.999 -28.233  25.046  1.00  0.00     0.145 A 
ATOM      3  N   UNL     1       9.149 -28.292  25.724  1.00  0.00    -0.181 NA
ATOM      4  N   UNL     1       9.656 -27.055  25.593  1.00  0.00    -0.269 N 
ATOM      5  C   UNL     1       8.871 -26.223  24.841  1.00  0.00     0.119 A 
ENDROOT
BRANCH   1   6
ATOM      6  C   UNL     1       6.664 -26.541  23.661  1.00  0.00     0.092 A 
ATOM      7  C   UNL     1       5.749 -24.728  22.548  1.00  0.00     0.100 A 
ATOM      8  N   UNL     1       6.720 -25.213  23.270  1.00  0.00    -0.244 NA
ATOM      9  C   UNL     1       4.638 -25.535  22.115  1.00  0.00     0.093 A 
ATOM     10  C   UNL     1       3.540 -25.365  21.303  1.00  0.00     0.052 A 
ATOM     11  N   UNL     1       4.616 -26.849  22.537  1.00  0.00    -0.237 N 
ATOM     12  C   UNL     1       5.642 -27.345  23.317  1.00  0.00     0.142 A 
ATOM     13  C   UNL     1       2.884 -26.607  21.331  1.00  0.00     0.136 A 
ATOM     14  N   UNL     1       3.520 -27.503  22.085  1.00  0.00    -0.176 NA
BRANCH   7  15
ATOM     15  C   UNL     1       5.828 -23.329  22.182  1.00  0.00     0.040 A 
ATOM     16  N   UNL     1       5.874 -21.121  22.153  1.00  0.00    -0.269 N 
ATOM     17  C   UNL     1       5.711 -22.203  22.975  1.00  0.00     0.119 A 
ATOM     18  N   UNL     1       6.105 -21.464  20.874  1.00  0.00    -0.181 NA
ATOM     19  C   UNL     1       6.102 -22.799  20.898  1.00  0.00     0.145 A 
BRANCH  16  20
ATOM     20  C   UNL     1       5.800 -19.716  22.551  1.00  0.00     0.107 C 
BRANCH  20  21
ATOM     21  C   UNL     1       7.081 -18.943  22.177  1.00  0.00     0.024 C 
ATOM     22  C   UNL     1       8.339 -19.325  22.946  1.00  0.00     0.006 C 
ENDBRANCH  20  21
BRANCH  20  23
ATOM     23  C   UNL     1       4.511 -19.017  22.075  1.00  0.00     0.024 C 
ATOM     24  C   UNL     1       3.344 -19.216  23.034  1.00  0.00     0.006 C 
ENDBRANCH  20  23
ENDBRANCH  16  20
ENDBRANCH   7  15
ENDBRANCH   1   6
BRANCH   4  25
ATOM     25  C   UNL     1      10.950 -26.636  26.166  1.00  0.00     0.109 C 
ATOM     26  C   UNL     1      11.508 -27.597  27.237  1.00  0.00     0.040 C 
ATOM     27  C   UNL     1      12.166 -27.019  25.293  1.00  0.00     0.040 C 
ATOM     28  C   UNL     1      12.916 -27.374  26.610  1.00  0.00     0.082 C 
BRANCH  28  29
ATOM     29  C   UNL     1      13.891 -28.577  26.625  1.00  0.00     0.223 C 
ATOM     30  O   UNL     1      14.752 -28.760  27.488  1.00  0.00    -0.275 OA
ATOM     31  N   UNL     1      13.727 -29.457  25.575  1.00  0.00    -0.354 N 
ATOM     32  H   UNL     1      13.011 -29.288  24.880  1.00  0.00     0.163 HD
BRANCH  31  33
ATOM     33  C   UNL     1      14.551 -30.647  25.433  1.00  0.00     0.144 C 
BRANCH  33  34
ATOM     34  C   UNL     1      15.600 -30.496  24.333  1.00  0.00     0.177 C 
BRANCH  34  35
ATOM     35  O   UNL     1      15.421 -29.251  23.657  1.00  0.00    -0.395 OA
ATOM     36  H   UNL     1      14.725 -28.780  24.149  1.00  0.00     0.210 HD
ENDBRANCH  34  35
ENDBRANCH  33  34
ENDBRANCH  31  33
ENDBRANCH  28  29
ENDBRANCH   4  25
TORSDOF 10
ENDMDL
MODEL 5
REMARK VINA RESULT:    -8.475      4.958     11.017
REMARK INTER + INTRA:         -14.230
REMARK INTER:                 -13.273
REMARK INTRA:                  -0.957
REMARK UNBOUND:                -1.048
REMARK SMILES CCC(CC)n1cc(-c2nc(-c3cnn([C@H]4C[C@@H](C(=O)NCCO)C4)c3)cn3nccc23)cn1
REMARK SMILES IDX 12 1 13 2 14 3 15 4 26 5 11 6 9 7 10 8 32 9 31 10 28 11
REMARK SMILES IDX 27 12 30 13 29 14 8 15 6 16 7 17 34 18 33 19 3 20 2 21 1 22
REMARK SMILES IDX 4 23 5 24 16 25 17 26 25 27 18 28 19 29 20 30 21 31 22 33
REMARK SMILES IDX 23 34 24 35
REMARK H PARENT 21 32 24 36
ROOT
ATOM      1  C   UNL     1       7.428 -27.198  24.266  1.00  0.00     0.040 A 
ATOM      2  C   UNL     1       7.610 -28.464  24.865  1.00  0.00     0.145 A 
ATOM      3  N   UNL     1       8.724 -28.534  25.599  1.00  0.00    -0.181 NA
ATOM      4  N   UNL     1       9.252 -27.303  25.487  1.00  0.00    -0.269 N 
ATOM      5  C   UNL     1       8.516 -26.466  24.694  1.00  0.00     0.119 A 
ENDROOT
BRANCH   1   6
ATOM      6  C   UNL     1       6.366 -26.764  23.408  1.00  0.00     0.092 A 
ATOM      7  C   UNL     1       5.605 -24.993  22.125  1.00  0.00     0.100 A 
ATOM      8  N   UNL     1       6.527 -25.483  22.905  1.00  0.00    -0.244 NA
ATOM      9  C   UNL     1       4.443 -25.750  21.741  1.00  0.00     0.093 A 
ATOM     10  C   UNL     1       3.371 -25.571  20.895  1.00  0.00     0.052 A 
ATOM     11  N   UNL     1       4.316 -27.016  22.274  1.00  0.00    -0.237 N 
ATOM     12  C   UNL     1       5.291 -27.517  23.114  1.00  0.00     0.142 A 
ATOM     13  C   UNL     1       2.623 -26.753  21.017  1.00  0.00     0.136 A 
ATOM     14  N   UNL     1       3.180 -27.625  21.858  1.00  0.00    -0.176 NA
BRANCH   7  15
ATOM     15  C   UNL     1       5.795 -23.641  21.641  1.00  0.00     0.040 A 
ATOM     16  N   UNL     1       5.662 -21.475  21.224  1.00  0.00    -0.269 N 
ATOM     17  C   UNL     1       5.075 -22.495  21.924  1.00  0.00     0.119 A 
ATOM     18  N   UNL     1       6.729 -21.874  20.512  1.00  0.00    -0.181 NA
ATOM     19  C   UNL     1       6.823 -23.178  20.785  1.00  0.00     0.145 A 
BRANCH  16  20
ATOM     20  C   UNL     1       5.219 -20.082  21.195  1.00  0.00     0.107 C 
BRANCH  20  21
ATOM     21  C   UNL     1       3.947 -19.900  20.341  1.00  0.00     0.024 C 
ATOM     22  C   UNL     1       4.108 -19.074  19.072  1.00  0.00     0.006 C 
ENDBRANCH  20  21
BRANCH  20  23
ATOM     23  C   UNL     1       5.101 -19.453  22.598  1.00  0.00     0.024 C 
ATOM     24  C   UNL     1       3.655 -19.236  23.027  1.00  0.00     0.006 C 
ENDBRANCH  20  23
ENDBRANCH  16  20
ENDBRANCH   7  15
ENDBRANCH   1   6
BRANCH   4  25
ATOM     25  C   UNL     1      10.522 -26.898  26.121  1.00  0.00     0.109 C 
ATOM     26  C   UNL     1      11.395 -25.968  25.251  1.00  0.00     0.040 C 
ATOM     27  C   UNL     1      10.373 -25.718  27.106  1.00  0.00     0.040 C 
ATOM     28  C   UNL     1      11.718 -25.168  26.547  1.00  0.00     0.082 C 
BRANCH  28  29
ATOM     29  C   UNL     1      11.906 -23.637  26.400  1.00  0.00     0.223 C 
ATOM     30  O   UNL     1      12.645 -22.958  27.117  1.00  0.00    -0.275 OA
ATOM     31  N   UNL     1      11.170 -23.067  25.382  1.00  0.00    -0.354 N 
ATOM     32  H   UNL     1      10.575 -23.645  24.803  1.00  0.00     0.163 HD
BRANCH  31  33
ATOM     33  C   UNL     1      11.231 -21.643  25.094  1.00  0.00     0.144 C 
BRANCH  33  34
ATOM     34  C   UNL     1      10.204 -21.221  24.044  1.00  0.00     0.177 C 
BRANCH  34  35
ATOM     35  O   UNL     1       9.159 -22.191  23.969  1.00  0.00    -0.395 OA
ATOM     36  H   UNL     1       9.190 -22.681  24.810  1.00  0.00     0.210 HD
ENDBRANCH  34  35
ENDBRANCH  33  34
ENDBRANCH  31  33
ENDBRANCH  28  29
ENDBRANCH   4  25
TORSDOF 10
ENDMDL
MODEL 6
REMARK VINA RESULT:    -8.397      3.540      6.170
REMARK INTER + INTRA:         -14.109
REMARK INTER:                 -13.540
REMARK INTRA:                  -0.569
REMARK UNBOUND:                -1.048
REMARK SMILES CCC(CC)n1cc(-c2nc(-c3cnn([C@H]4C[C@@H](C(=O)NCCO)C4)c3)cn3nccc23)cn1
REMARK SMILES IDX 12 1 13 2 14 3 15 4 26 5 11 6 9 7 10 8 32 9 31 10 28 11
REMARK SMILES IDX 27 12 30 13 29 14 8 15 6 16 7 17 34 18 33 19 3 20 2 21 1 22
REMARK SMILES IDX 4 23 5 24 16 25 17 26 25 27 18 28 19 29 20 30 21 31 22 33
REMARK SMILES IDX 23 34 24 35
REMARK H PARENT 21 32 24 36
ROOT
ATOM      1  C   UNL     1       6.275 -22.564  22.480  1.00  0.00     0.040 A 
ATOM      2  C   UNL     1       7.504 -21.921  22.211  1.00  0.00     0.145 A 
ATOM      3  N   UNL     1       7.383 -20.594  22.111  1.00  0.00    -0.181 NA
ATOM      4  N   UNL     1       6.075 -20.381  22.334  1.00  0.00    -0.269 N 
ATOM      5  C   UNL     1       5.366 -21.530  22.555  1.00  0.00     0.119 A 
ENDROOT
BRANCH   1   6
ATOM      6  C   UNL     1       6.020 -23.965  22.636  1.00  0.00     0.092 A 
ATOM      7  C   UNL     1       6.821 -25.915  23.594  1.00  0.00     0.100 A 
ATOM      8  N   UNL     1       6.959 -24.633  23.405  1.00  0.00    -0.244 NA
ATOM      9  C   UNL     1       5.707 -26.654  23.060  1.00  0.00     0.093 A 
ATOM     10  C   UNL     1       5.233 -27.944  23.146  1.00  0.00     0.052 A 
ATOM     11  N   UNL     1       4.802 -25.953  22.290  1.00  0.00    -0.237 N 
ATOM     12  C   UNL     1       4.969 -24.598  22.082  1.00  0.00     0.142 A 
ATOM     13  C   UNL     1       4.070 -27.946  22.359  1.00  0.00     0.136 A 
ATOM     14  N   UNL     1       3.811 -26.751  21.828  1.00  0.00    -0.176 NA
BRANCH   7  15
ATOM     15  C   UNL     1       7.838 -26.584  24.380  1.00  0.00     0.040 A 
ATOM     16  N   UNL     1       9.611 -27.112  25.587  1.00  0.00    -0.269 N 
ATOM     17  C   UNL     1       9.002 -26.079  24.927  1.00  0.00     0.119 A 
ATOM     18  N   UNL     1       8.914 -28.259  25.521  1.00  0.00    -0.181 NA
ATOM     19  C   UNL     1       7.830 -27.932  24.813  1.00  0.00     0.145 A 
BRANCH  16  20
ATOM     20  C   UNL     1      10.889 -27.050  26.294  1.00  0.00     0.107 C 
BRANCH  20  21
ATOM     21  C   UNL     1      12.073 -26.847  25.327  1.00  0.00     0.024 C 
ATOM     22  C   UNL     1      13.189 -27.880  25.411  1.00  0.00     0.006 C 
ENDBRANCH  20  21
BRANCH  20  23
ATOM     23  C   UNL     1      10.887 -26.048  27.466  1.00  0.00     0.024 C 
ATOM     24  C   UNL     1      11.847 -26.443  28.581  1.00  0.00     0.006 C 
ENDBRANCH  20  23
ENDBRANCH  16  20
ENDBRANCH   7  15
ENDBRANCH   1   6
BRANCH   4  25
ATOM     25  C   UNL     1       5.448 -19.044  22.306  1.00  0.00     0.109 C 
ATOM     26  C   UNL     1       5.044 -18.565  20.896  1.00  0.00     0.040 C 
ATOM     27  C   UNL     1       3.944 -19.058  22.654  1.00  0.00     0.040 C 
ATOM     28  C   UNL     1       3.742 -17.997  21.534  1.00  0.00     0.082 C 
BRANCH  28  29
ATOM     29  C   UNL     1       2.457 -18.043  20.670  1.00  0.00     0.223 C 
ATOM     30  O   UNL     1       2.100 -19.023  20.013  1.00  0.00    -0.275 OA
ATOM     31  N   UNL     1       1.717 -16.879  20.686  1.00  0.00    -0.354 N 
ATOM     32  H   UNL     1       2.028 -16.089  21.237  1.00  0.00     0.163 HD
BRANCH  31  33
ATOM     33  C   UNL     1       0.477 -16.746  19.938  1.00  0.00     0.144 C 
BRANCH  33  34
ATOM     34  C   UNL     1       0.721 -16.527  18.447  1.00  0.00     0.177 C 
BRANCH  34  35
ATOM     35  O   UNL     1       0.777 -17.784  17.772  1.00  0.00    -0.395 OA
ATOM     36  H   UNL     1       1.691 -18.104  17.882  1.00  0.00     0.210 HD
ENDBRANCH  34  35
ENDBRANCH  33  34
ENDBRANCH  31  33
ENDBRANCH  28  29
ENDBRANCH   4  25
TORSDOF 10
ENDMDL
MODEL 7
REMARK VINA RESULT:    -8.352      3.509      6.264
REMARK INTER + INTRA:         -14.038
REMARK INTER:                 -13.443
REMARK INTRA:                  -0.595
REMARK UNBOUND:                -1.048
REMARK SMILES CCC(CC)n1cc(-c2nc(-c3cnn([C@H]4C[C@@H](C(=O)NCCO)C4)c3)cn3nccc23)cn1
REMARK SMILES IDX 12 1 13 2 14 3 15 4 26 5 11 6 9 7 10 8 32 9 31 10 28 11
REMARK SMILES IDX 27 12 30 13 29 14 8 15 6 16 7 17 34 18 33 19 3 20 2 21 1 22
REMARK SMILES IDX 4 23 5 24 16 25 17 26 25 27 18 28 19 29 20 30 21 31 22 33
REMARK SMILES IDX 23 34 24 35
REMARK H PARENT 21 32 24 36
ROOT
ATOM      1  C   UNL     1       4.952 -23.390  21.412  1.00  0.00     0.040 A 
ATOM      2  C   UNL     1       4.186 -23.146  20.250  1.00  0.00     0.145 A 
ATOM      3  N   UNL     1       4.044 -21.843  19.989  1.00  0.00    -0.181 NA
ATOM      4  N   UNL     1       4.734 -21.248  20.976  1.00  0.00    -0.269 N 
ATOM      5  C   UNL     1       5.293 -22.131  21.858  1.00  0.00     0.119 A 
ENDROOT
BRANCH   1   6
ATOM      6  C   UNL     1       5.296 -24.650  22.002  1.00  0.00     0.092 A 
ATOM      7  C   UNL     1       6.903 -25.749  23.255  1.00  0.00     0.100 A 
ATOM      8  N   UNL     1       6.496 -24.645  22.695  1.00  0.00    -0.244 NA
ATOM      9  C   UNL     1       6.132 -26.964  23.208  1.00  0.00     0.093 A 
ATOM     10  C   UNL     1       6.226 -28.226  23.750  1.00  0.00     0.052 A 
ATOM     11  N   UNL     1       4.949 -26.928  22.497  1.00  0.00    -0.237 N 
ATOM     12  C   UNL     1       4.538 -25.757  21.893  1.00  0.00     0.142 A 
ATOM     13  C   UNL     1       5.089 -28.900  23.275  1.00  0.00     0.136 A 
ATOM     14  N   UNL     1       4.321 -28.127  22.507  1.00  0.00    -0.176 NA
BRANCH   7  15
ATOM     15  C   UNL     1       8.175 -25.713  23.947  1.00  0.00     0.040 A 
ATOM     16  N   UNL     1       9.896 -26.060  25.289  1.00  0.00    -0.269 N 
ATOM     17  C   UNL     1       8.620 -26.473  25.013  1.00  0.00     0.119 A 
ATOM     18  N   UNL     1      10.323 -25.090  24.464  1.00  0.00    -0.181 NA
ATOM     19  C   UNL     1       9.291 -24.899  23.638  1.00  0.00     0.145 A 
BRANCH  16  20
ATOM     20  C   UNL     1      10.754 -26.566  26.360  1.00  0.00     0.107 C 
BRANCH  20  21
ATOM     21  C   UNL     1      12.240 -26.581  25.949  1.00  0.00     0.024 C 
ATOM     22  C   UNL     1      12.820 -27.943  25.592  1.00  0.00     0.006 C 
ENDBRANCH  20  21
BRANCH  20  23
ATOM     23  C   UNL     1      10.507 -25.870  27.714  1.00  0.00     0.024 C 
ATOM     24  C   UNL     1      11.726 -25.909  28.627  1.00  0.00     0.006 C 
ENDBRANCH  20  23
ENDBRANCH  16  20
ENDBRANCH   7  15
ENDBRANCH   1   6
BRANCH   4  25
ATOM     25  C   UNL     1       4.850 -19.783  21.124  1.00  0.00     0.109 C 
ATOM     26  C   UNL     1       4.587 -18.993  19.825  1.00  0.00     0.040 C 
ATOM     27  C   UNL     1       3.583 -19.117  21.702  1.00  0.00     0.040 C 
ATOM     28  C   UNL     1       3.812 -17.957  20.691  1.00  0.00     0.082 C 
BRANCH  28  29
ATOM     29  C   UNL     1       2.588 -17.269  20.037  1.00  0.00     0.223 C 
ATOM     30  O   UNL     1       1.481 -17.798  19.913  1.00  0.00    -0.275 OA
ATOM     31  N   UNL     1       2.826 -15.987  19.588  1.00  0.00    -0.354 N 
ATOM     32  H   UNL     1       3.741 -15.571  19.705  1.00  0.00     0.163 HD
BRANCH  31  33
ATOM     33  C   UNL     1       1.789 -15.188  18.955  1.00  0.00     0.144 C 
BRANCH  33  34
ATOM     34  C   UNL     1       1.011 -14.345  19.964  1.00  0.00     0.177 C 
BRANCH  34  35
ATOM     35  O   UNL     1       1.842 -14.038  21.085  1.00  0.00    -0.395 OA
ATOM     36  H   UNL     1       2.684 -14.503  20.926  1.00  0.00     0.210 HD
ENDBRANCH  34  35
ENDBRANCH  33  34
ENDBRANCH  31  33
ENDBRANCH  28  29
ENDBRANCH   4  25
TORSDOF 10
ENDMDL
MODEL 8
REMARK VINA RESULT:    -8.124      7.208     13.088
REMARK INTER + INTRA:         -13.683
REMARK INTER:                 -13.334
REMARK INTRA:                  -0.349
REMARK UNBOUND:                -1.048
REMARK SMILES CCC(CC)n1cc(-c2nc(-c3cnn([C@H]4C[C@@H](C(=O)NCCO)C4)c3)cn3nccc23)cn1
REMARK SMILES IDX 12 1 13 2 14 3 15 4 26 5 11 6 9 7 10 8 32 9 31 10 28 11
REMARK SMILES IDX 27 12 30 13 29 14 8 15 6 16 7 17 34 18 33 19 3 20 2 21 1 22
REMARK SMILES IDX 4 23 5 24 16 25 17 26 25 27 18 28 19 29 20 30 21 31 22 33
REMARK SMILES IDX 23 34 24 35
REMARK H PARENT 21 32 24 36
ROOT
ATOM      1  C   UNL     1       8.805 -26.138  24.514  1.00  0.00     0.040 A 
ATOM      2  C   UNL     1       9.717 -25.125  24.140  1.00  0.00     0.145 A 
ATOM      3  N   UNL     1      10.784 -25.068  24.942  1.00  0.00    -0.181 NA
ATOM      4  N   UNL     1      10.568 -26.058  25.824  1.00  0.00    -0.269 N 
ATOM      5  C   UNL     1       9.393 -26.726  25.614  1.00  0.00     0.119 A 
ENDROOT
BRANCH   1   6
ATOM      6  C   UNL     1       7.556 -26.480  23.902  1.00  0.00     0.092 A 
ATOM      7  C   UNL     1       5.808 -25.650  22.630  1.00  0.00     0.100 A 
ATOM      8  N   UNL     1       6.957 -25.441  23.210  1.00  0.00    -0.244 NA
ATOM      9  C   UNL     1       5.159 -26.935  22.655  1.00  0.00     0.093 A 
ATOM     10  C   UNL     1       4.035 -27.495  22.090  1.00  0.00     0.052 A 
ATOM     11  N   UNL     1       5.785 -27.939  23.366  1.00  0.00    -0.237 N 
ATOM     12  C   UNL     1       6.992 -27.699  23.991  1.00  0.00     0.142 A 
ATOM     13  C   UNL     1       4.031 -28.821  22.553  1.00  0.00     0.136 A 
ATOM     14  N   UNL     1       5.076 -29.093  23.334  1.00  0.00    -0.176 NA
BRANCH   7  15
ATOM     15  C   UNL     1       5.199 -24.532  21.939  1.00  0.00     0.040 A 
ATOM     16  N   UNL     1       4.568 -22.537  21.231  1.00  0.00    -0.269 N 
ATOM     17  C   UNL     1       5.348 -23.176  22.157  1.00  0.00     0.119 A 
ATOM     18  N   UNL     1       3.929 -23.386  20.409  1.00  0.00    -0.181 NA
ATOM     19  C   UNL     1       4.331 -24.591  20.823  1.00  0.00     0.145 A 
BRANCH  16  20
ATOM     20  C   UNL     1       4.390 -21.092  21.102  1.00  0.00     0.107 C 
BRANCH  20  21
ATOM     21  C   UNL     1       4.835 -20.341  22.374  1.00  0.00     0.024 C 
ATOM     22  C   UNL     1       3.748 -19.568  23.108  1.00  0.00     0.006 C 
ENDBRANCH  20  21
BRANCH  20  23
ATOM     23  C   UNL     1       5.008 -20.516  19.812  1.00  0.00     0.024 C 
ATOM     24  C   UNL     1       4.118 -19.474  19.146  1.00  0.00     0.006 C 
ENDBRANCH  20  23
ENDBRANCH  16  20
ENDBRANCH   7  15
ENDBRANCH   1   6
BRANCH   4  25
ATOM     25  C   UNL     1      11.483 -26.375  26.938  1.00  0.00     0.109 C 
ATOM     26  C   UNL     1      11.561 -27.877  27.285  1.00  0.00     0.040 C 
ATOM     27  C   UNL     1      12.965 -26.470  26.514  1.00  0.00     0.040 C 
ATOM     28  C   UNL     1      13.094 -27.686  27.477  1.00  0.00     0.082 C 
BRANCH  28  29
ATOM     29  C   UNL     1      14.006 -28.873  27.079  1.00  0.00     0.223 C 
ATOM     30  O   UNL     1      14.882 -29.347  27.805  1.00  0.00    -0.275 OA
ATOM     31  N   UNL     1      13.764 -29.380  25.819  1.00  0.00    -0.354 N 
ATOM     32  H   UNL     1      13.036 -28.979  25.243  1.00  0.00     0.163 HD
BRANCH  31  33
ATOM     33  C   UNL     1      14.520 -30.501  25.283  1.00  0.00     0.144 C 
BRANCH  33  34
ATOM     34  C   UNL     1      15.683 -30.047  24.402  1.00  0.00     0.177 C 
BRANCH  34  35
ATOM     35  O   UNL     1      15.362 -28.804  23.777  1.00  0.00    -0.395 OA
ATOM     36  H   UNL     1      14.513 -28.948  23.319  1.00  0.00     0.210 HD
ENDBRANCH  34  35
ENDBRANCH  33  34
ENDBRANCH  31  33
ENDBRANCH  28  29
ENDBRANCH   4  25
TORSDOF 10
ENDMDL
