REMARK SMILES Cc1ccccc1Nc1ncnn2ccc(CN3CCC(N)CC3)c12
REMARK SMILES IDX 9 1 10 2 11 3 12 4 13 5 14 6 15 7 16 8 25 9 8 10 7 12 2 13
REMARK SMILES IDX 3 14 4 15 6 16 5 17 1 18 17 19 18 20 19 21 24 22 20 23 23 24
REMARK SMILES IDX 21 25 22 26
REMARK H PARENT 8 11 22 27 22 28
REMARK INDEX MAP 9 1 10 2 11 3 12 4 13 5 14 6 15 7 16 8 25 9 8 10 33 11 7 12
REMARK INDEX MAP 2 13 3 14 4 15 6 16 5 17 1 18 17 19 18 20 19 21 24 22 20 23
REMARK INDEX MAP 23 24 21 25 22 26 44 27 45 28
ROOT
ATOM      1  C   UNL     1      18.888  33.874  15.784  1.00  0.00     0.158 A 
ATOM      2  N   UNL     1      18.992  34.003  17.076  1.00  0.00    -0.215 NA
ATOM      3  C   UNL     1      17.883  34.260  17.837  1.00  0.00     0.247 A 
ATOM      4  N   UNL     1      16.667  34.402  17.418  1.00  0.00    -0.156 NA
ATOM      5  N   UNL     1      16.546  34.284  16.089  1.00  0.00    -0.235 N 
ATOM      6  C   UNL     1      15.376  34.410  15.393  1.00  0.00     0.114 A 
ATOM      7  C   UNL     1      15.659  34.270  14.056  1.00  0.00     0.027 A 
ATOM      8  C   UNL     1      17.064  34.038  13.929  1.00  0.00    -0.003 A 
ATOM      9  C   UNL     1      17.572  34.040  15.223  1.00  0.00     0.112 A 
ENDROOT
BRANCH   1  10
ATOM     10  N   UNL     1      19.978  33.568  14.995  1.00  0.00    -0.338 N 
ATOM     11  H   UNL     1      20.144  32.566  14.821  1.00  0.00     0.168 HD
BRANCH  10  12
ATOM     12  C   UNL     1      20.892  34.459  14.398  1.00  0.00     0.043 A 
ATOM     13  C   UNL     1      21.597  34.096  13.228  1.00  0.00    -0.028 A 
ATOM     14  C   UNL     1      22.510  34.997  12.648  1.00  0.00     0.005 A 
ATOM     15  C   UNL     1      22.757  36.239  13.226  1.00  0.00     0.000 A 
ATOM     16  C   UNL     1      21.172  35.714  14.965  1.00  0.00     0.026 A 
ATOM     17  C   UNL     1      22.090  36.597  14.389  1.00  0.00     0.002 A 
ATOM     18  C   UNL     1      21.379  32.775  12.549  1.00  0.00     0.046 C 
ENDBRANCH  10  12
ENDBRANCH   1  10
BRANCH   8  19
ATOM     19  C   UNL     1      17.781  33.862  12.625  1.00  0.00     0.122 C 
BRANCH  19  20
ATOM     20  N   UNL     1      16.838  33.743  11.486  1.00  0.00    -0.299 NA
ATOM     21  C   UNL     1      17.306  32.632  10.624  1.00  0.00     0.086 C 
ATOM     22  C   UNL     1      16.796  34.998  10.702  1.00  0.00     0.086 C 
ATOM     23  C   UNL     1      16.459  32.451   9.362  1.00  0.00     0.034 C 
ATOM     24  C   UNL     1      15.901  34.878   9.467  1.00  0.00     0.034 C 
ATOM     25  C   UNL     1      16.386  33.749   8.564  1.00  0.00     0.053 C 
BRANCH  25  26
ATOM     26  N   UNL     1      15.509  33.581   7.405  1.00  0.00    -0.328 NA
ATOM     27  H   UNL     1      14.548  33.397   7.726  1.00  0.00     0.119 HD
ATOM     28  H   UNL     1      15.523  34.440   6.837  1.00  0.00     0.119 HD
ENDBRANCH  25  26
ENDBRANCH  19  20
ENDBRANCH   8  19
TORSDOF 5
