MODEL 8
REMARK VINA RESULT:    -4.019      3.662      7.819
REMARK INTER + INTRA:          -6.254
REMARK INTER:                  -7.933
REMARK INTRA:                   1.678
REMARK UNBOUND:                 0.231
REMARK SMILES CCCCN(c1cccc(-c2ccc(Cl)cc2)c1C)S(=O)(=O)c1ccc(O[C@H](C)C(=O)O)c(C)c1C
REMARK SMILES IDX 23 1 24 2 25 3 26 4 33 5 34 6 35 7 36 8 20 9 21 10 22 11
REMARK SMILES IDX 5 12 4 13 3 14 2 15 1 16 6 17 7 18 18 19 8 20 10 21 9 22
REMARK SMILES IDX 19 23 11 24 12 25 17 26 13 27 16 28 14 29 15 30 27 31 28 32
REMARK SMILES IDX 29 33 30 34 31 35 32 36
REMARK H PARENT 32 37
ROOT
ATOM      1  C   UNL     1       3.815   8.178  -3.935  1.00  0.00     0.091 A 
ATOM      2  C   UNL     1       3.608   8.731  -2.663  1.00  0.00     0.026 A 
ATOM      3  C   UNL     1       3.064   7.962  -1.637  1.00  0.00     0.048 A 
ATOM      4  C   UNL     1       2.690   6.641  -1.878  1.00  0.00     0.123 A 
ATOM      5  C   UNL     1       2.902   6.061  -3.147  1.00  0.00    -0.005 A 
ATOM      6  C   UNL     1       2.522   4.615  -3.374  1.00  0.00     0.049 C 
ATOM      7  C   UNL     1       3.505   6.823  -4.189  1.00  0.00    -0.024 A 
ATOM      8  C   UNL     1       3.734   6.172  -5.530  1.00  0.00     0.046 C 
ENDROOT
BRANCH   1   9
ATOM      9  S   UNL     1       4.490   9.281  -5.188  1.00  0.00     0.264 S 
ATOM     10  O   UNL     1       3.794   8.993  -6.427  1.00  0.00    -0.201 OA
ATOM     11  O   UNL     1       4.474  10.617  -4.635  1.00  0.00    -0.201 OA
BRANCH   9  12
ATOM     12  N   UNL     1       6.097   8.714  -5.351  1.00  0.00    -0.266 N 
BRANCH  12  13
ATOM     13  C   UNL     1       6.450   8.014  -6.614  1.00  0.00     0.136 C 
BRANCH  13  14
ATOM     14  C   UNL     1       6.690   6.530  -6.335  1.00  0.00     0.022 C 
BRANCH  14  15
ATOM     15  C   UNL     1       7.961   6.034  -7.024  1.00  0.00    -0.002 C 
ATOM     16  C   UNL     1       8.268   4.593  -6.651  1.00  0.00     0.004 C 
ENDBRANCH  14  15
ENDBRANCH  13  14
ENDBRANCH  12  13
BRANCH  12  17
ATOM     17  C   UNL     1       7.120   9.549  -4.765  1.00  0.00     0.055 A 
ATOM     18  C   UNL     1       7.003   9.750  -3.383  1.00  0.00     0.027 A 
ATOM     19  C   UNL     1       8.206  10.113  -5.473  1.00  0.00    -0.019 A 
ATOM     20  C   UNL     1       7.914  10.540  -2.694  1.00  0.00     0.003 A 
ATOM     21  C   UNL     1       9.115  10.954  -4.773  1.00  0.00    -0.013 A 
ATOM     22  C   UNL     1       8.956  11.145  -3.387  1.00  0.00     0.009 A 
ATOM     23  C   UNL     1       8.395   9.892  -6.953  1.00  0.00     0.047 C 
BRANCH  21  24
ATOM     24  C   UNL     1      10.220  11.660  -5.443  1.00  0.00    -0.018 A 
ATOM     25  C   UNL     1      10.891  11.078  -6.531  1.00  0.00     0.010 A 
ATOM     26  C   UNL     1      10.635  12.925  -4.997  1.00  0.00     0.010 A 
ATOM     27  C   UNL     1      11.943  11.747  -7.162  1.00  0.00     0.021 A 
ATOM     28  C   UNL     1      11.687  13.596  -5.626  1.00  0.00     0.021 A 
ATOM     29  C   UNL     1      12.335  13.005  -6.707  1.00  0.00     0.041 A 
ATOM     30  Cl  UNL     1      13.632  13.828  -7.481  1.00  0.00    -0.084 Cl
ENDBRANCH  21  24
ENDBRANCH  12  17
ENDBRANCH   9  12
ENDBRANCH   1   9
BRANCH   4  31
ATOM     31  O   UNL     1       2.183   5.832  -0.894  1.00  0.00    -0.479 OA
BRANCH  31  32
ATOM     32  C   UNL     1       3.080   5.465   0.160  1.00  0.00     0.279 C 
ATOM     33  C   UNL     1       3.451   6.726   0.933  1.00  0.00     0.066 C 
BRANCH  32  34
ATOM     34  C   UNL     1       4.333   4.840  -0.451  1.00  0.00     0.344 C 
ATOM     35  O   UNL     1       5.336   5.426  -0.831  1.00  0.00    -0.248 OA
BRANCH  34  36
ATOM     36  O   UNL     1       4.292   3.489  -0.496  1.00  0.00    -0.479 OA
ATOM     37  H   UNL     1       3.505   3.258   0.039  1.00  0.00     0.296 HD
ENDBRANCH  34  36
ENDBRANCH  32  34
ENDBRANCH  31  32
ENDBRANCH   4  31
TORSDOF 11
ENDMDL
