MODEL 1
REMARK VINA RESULT:   -10.591      0.000      0.000
REMARK INTER + INTRA:         -15.256
REMARK INTER:                 -13.996
REMARK INTRA:                  -1.260
REMARK UNBOUND:                -1.260
REMARK SMILES Cc1nn(-c2ccc3onc(N)c3c2)c2c1CCN(c1ccc(-c3ccccc3CN3CCCC3)cc1)C2=O
REMARK SMILES IDX 1 1 2 2 3 3 4 4 15 5 16 6 17 7 18 8 19 9 38 10 39 11 5 12
REMARK SMILES IDX 6 13 14 14 7 15 13 16 8 17 11 18 9 19 10 20 12 21 20 24
REMARK SMILES IDX 21 25 37 26 22 27 36 28 23 29 24 30 25 31 29 32 26 33 28 34
REMARK SMILES IDX 27 35 30 36 31 37 32 38 35 39 33 40 34 41
REMARK H PARENT 12 22 12 23
ROOT
ATOM      1  C   UNL     1      -4.820  15.486  26.316  1.00  0.00     0.069 C 
ATOM      2  C   UNL     1      -4.383  14.333  25.495  1.00  0.00     0.064 A 
ATOM      3  N   UNL     1      -3.786  13.288  26.075  1.00  0.00    -0.172 NA
ATOM      4  N   UNL     1      -3.438  12.445  25.054  1.00  0.00    -0.227 N 
ATOM      5  C   UNL     1      -3.993  12.874  23.861  1.00  0.00     0.136 A 
ATOM      6  C   UNL     1      -4.522  14.126  24.115  1.00  0.00     0.008 A 
ATOM      7  C   UNL     1      -5.146  14.930  23.046  1.00  0.00     0.062 C 
ATOM      8  C   UNL     1      -4.536  14.509  21.698  1.00  0.00     0.131 C 
ATOM      9  N   UNL     1      -4.482  13.041  21.502  1.00  0.00    -0.307 N 
ATOM     10  C   UNL     1      -4.116  12.195  22.587  1.00  0.00     0.277 C 
ATOM     11  O   UNL     1      -3.937  10.987  22.483  1.00  0.00    -0.267 OA
ENDROOT
BRANCH   4  12
ATOM     12  C   UNL     1      -2.548  11.366  25.349  1.00  0.00     0.066 A 
ATOM     13  C   UNL     1      -1.344  11.186  24.650  1.00  0.00     0.032 A 
ATOM     14  C   UNL     1      -2.875  10.504  26.420  1.00  0.00     0.044 A 
ATOM     15  C   UNL     1      -0.468  10.134  24.957  1.00  0.00     0.053 A 
ATOM     16  C   UNL     1      -2.004   9.444  26.738  1.00  0.00     0.068 A 
ATOM     17  C   UNL     1      -0.846   9.294  25.999  1.00  0.00     0.169 A 
ATOM     18  C   UNL     1      -1.948   8.378  27.671  1.00  0.00     0.174 A 
ATOM     19  O   UNL     1      -0.151   8.224  26.463  1.00  0.00    -0.354 OA
ATOM     20  N   UNL     1      -0.843   7.646  27.516  1.00  0.00    -0.061 NA
BRANCH  18  21
ATOM     21  N   UNL     1      -2.895   8.139  28.593  1.00  0.00    -0.380 N 
ATOM     22  H   UNL     1      -2.912   8.676  29.452  1.00  0.00     0.158 HD
ATOM     23  H   UNL     1      -3.623   7.447  28.480  1.00  0.00     0.158 HD
ENDBRANCH  18  21
ENDBRANCH   4  12
BRANCH   9  24
ATOM     24  C   UNL     1      -4.664  12.530  20.167  1.00  0.00     0.044 A 
ATOM     25  C   UNL     1      -5.780  12.900  19.398  1.00  0.00     0.027 A 
ATOM     26  C   UNL     1      -3.754  11.637  19.587  1.00  0.00     0.027 A 
ATOM     27  C   UNL     1      -5.974  12.398  18.105  1.00  0.00     0.011 A 
ATOM     28  C   UNL     1      -3.946  11.135  18.290  1.00  0.00     0.011 A 
ATOM     29  C   UNL     1      -5.063  11.505  17.535  1.00  0.00    -0.018 A 
BRANCH  29  30
ATOM     30  C   UNL     1      -5.267  10.984  16.177  1.00  0.00    -0.014 A 
ATOM     31  C   UNL     1      -4.610  11.619  15.105  1.00  0.00     0.009 A 
ATOM     32  C   UNL     1      -6.098   9.873  15.903  1.00  0.00    -0.026 A 
ATOM     33  C   UNL     1      -4.771  11.176  13.792  1.00  0.00     0.001 A 
ATOM     34  C   UNL     1      -6.250   9.441  14.571  1.00  0.00     0.006 A 
ATOM     35  C   UNL     1      -5.593  10.087  13.525  1.00  0.00     0.000 A 
BRANCH  32  36
ATOM     36  C   UNL     1      -6.834   9.123  17.000  1.00  0.00     0.120 C 
BRANCH  36  37
ATOM     37  N   UNL     1      -6.320   7.768  17.225  1.00  0.00    -0.299 NA
ATOM     38  C   UNL     1      -7.228   6.973  18.049  1.00  0.00     0.085 C 
ATOM     39  C   UNL     1      -5.038   7.732  17.926  1.00  0.00     0.085 C 
ATOM     40  C   UNL     1      -6.374   5.774  18.428  1.00  0.00     0.017 C 
ATOM     41  C   UNL     1      -4.940   6.288  18.402  1.00  0.00     0.017 C 
ENDBRANCH  36  37
ENDBRANCH  32  36
ENDBRANCH  29  30
ENDBRANCH   9  24
TORSDOF 6
ENDMDL
MODEL 2
REMARK VINA RESULT:    -9.777      1.835      2.449
REMARK INTER + INTRA:         -14.181
REMARK INTER:                 -12.967
REMARK INTRA:                  -1.214
REMARK UNBOUND:                -1.260
REMARK SMILES Cc1nn(-c2ccc3onc(N)c3c2)c2c1CCN(c1ccc(-c3ccccc3CN3CCCC3)cc1)C2=O
REMARK SMILES IDX 1 1 2 2 3 3 4 4 15 5 16 6 17 7 18 8 19 9 38 10 39 11 5 12
REMARK SMILES IDX 6 13 14 14 7 15 13 16 8 17 11 18 9 19 10 20 12 21 20 24
REMARK SMILES IDX 21 25 37 26 22 27 36 28 23 29 24 30 25 31 29 32 26 33 28 34
REMARK SMILES IDX 27 35 30 36 31 37 32 38 35 39 33 40 34 41
REMARK H PARENT 12 22 12 23
ROOT
ATOM      1  C   UNL     1      -5.763  15.826  26.511  1.00  0.00     0.069 C 
ATOM      2  C   UNL     1      -5.407  14.697  25.618  1.00  0.00     0.064 A 
ATOM      3  N   UNL     1      -4.442  13.845  25.974  1.00  0.00    -0.172 NA
ATOM      4  N   UNL     1      -4.300  12.984  24.919  1.00  0.00    -0.227 N 
ATOM      5  C   UNL     1      -5.311  13.180  23.995  1.00  0.00     0.136 A 
ATOM      6  C   UNL     1      -5.969  14.331  24.387  1.00  0.00     0.008 A 
ATOM      7  C   UNL     1      -7.077  14.894  23.593  1.00  0.00     0.062 C 
ATOM      8  C   UNL     1      -6.899  14.461  22.128  1.00  0.00     0.131 C 
ATOM      9  N   UNL     1      -6.610  13.016  21.965  1.00  0.00    -0.307 N 
ATOM     10  C   UNL     1      -5.723  12.366  22.870  1.00  0.00     0.277 C 
ATOM     11  O   UNL     1      -5.343  11.207  22.741  1.00  0.00    -0.267 OA
ENDROOT
BRANCH   4  12
ATOM     12  C   UNL     1      -3.159  12.124  24.904  1.00  0.00     0.066 A 
ATOM     13  C   UNL     1      -2.137  12.265  23.952  1.00  0.00     0.032 A 
ATOM     14  C   UNL     1      -3.041  11.150  25.923  1.00  0.00     0.044 A 
ATOM     15  C   UNL     1      -1.011  11.427  23.954  1.00  0.00     0.053 A 
ATOM     16  C   UNL     1      -1.917  10.304  25.936  1.00  0.00     0.068 A 
ATOM     17  C   UNL     1      -0.954  10.466  24.958  1.00  0.00     0.169 A 
ATOM     18  C   UNL     1      -1.424   9.229  26.719  1.00  0.00     0.174 A 
ATOM     19  O   UNL     1       0.040   9.560  25.149  1.00  0.00    -0.354 OA
ATOM     20  N   UNL     1      -0.254   8.780  26.257  1.00  0.00    -0.061 NA
BRANCH  18  21
ATOM     21  N   UNL     1      -2.061   8.727  27.789  1.00  0.00    -0.380 N 
ATOM     22  H   UNL     1      -1.532   8.273  28.525  1.00  0.00     0.158 HD
ATOM     23  H   UNL     1      -3.062   8.784  27.922  1.00  0.00     0.158 HD
ENDBRANCH  18  21
ENDBRANCH   4  12
BRANCH   9  24
ATOM     24  C   UNL     1      -7.132  12.349  20.800  1.00  0.00     0.044 A 
ATOM     25  C   UNL     1      -6.404  12.316  19.599  1.00  0.00     0.027 A 
ATOM     26  C   UNL     1      -8.386  11.723  20.806  1.00  0.00     0.027 A 
ATOM     27  C   UNL     1      -6.909  11.683  18.457  1.00  0.00     0.011 A 
ATOM     28  C   UNL     1      -8.892  11.087  19.662  1.00  0.00     0.011 A 
ATOM     29  C   UNL     1      -8.161  11.064  18.470  1.00  0.00    -0.018 A 
BRANCH  29  30
ATOM     30  C   UNL     1      -8.685  10.397  17.272  1.00  0.00    -0.014 A 
ATOM     31  C   UNL     1      -9.998  10.692  16.855  1.00  0.00     0.009 A 
ATOM     32  C   UNL     1      -7.927   9.469  16.521  1.00  0.00    -0.026 A 
ATOM     33  C   UNL     1     -10.555  10.084  15.730  1.00  0.00     0.001 A 
ATOM     34  C   UNL     1      -8.506   8.864  15.389  1.00  0.00     0.006 A 
ATOM     35  C   UNL     1      -9.809   9.168  14.997  1.00  0.00     0.000 A 
BRANCH  32  36
ATOM     36  C   UNL     1      -6.500   9.101  16.892  1.00  0.00     0.120 C 
BRANCH  36  37
ATOM     37  N   UNL     1      -6.341   7.692  17.264  1.00  0.00    -0.299 NA
ATOM     38  C   UNL     1      -7.188   7.331  18.399  1.00  0.00     0.085 C 
ATOM     39  C   UNL     1      -4.983   7.338  17.673  1.00  0.00     0.085 C 
ATOM     40  C   UNL     1      -6.632   5.980  18.817  1.00  0.00     0.017 C 
ATOM     41  C   UNL     1      -5.169   6.007  18.390  1.00  0.00     0.017 C 
ENDBRANCH  36  37
ENDBRANCH  32  36
ENDBRANCH  29  30
ENDBRANCH   9  24
TORSDOF 6
ENDMDL
MODEL 3
REMARK VINA RESULT:    -9.580      4.702      7.526
REMARK INTER + INTRA:         -13.921
REMARK INTER:                 -12.238
REMARK INTRA:                  -1.683
REMARK UNBOUND:                -1.260
REMARK SMILES Cc1nn(-c2ccc3onc(N)c3c2)c2c1CCN(c1ccc(-c3ccccc3CN3CCCC3)cc1)C2=O
REMARK SMILES IDX 1 1 2 2 3 3 4 4 15 5 16 6 17 7 18 8 19 9 38 10 39 11 5 12
REMARK SMILES IDX 6 13 14 14 7 15 13 16 8 17 11 18 9 19 10 20 12 21 20 24
REMARK SMILES IDX 21 25 37 26 22 27 36 28 23 29 24 30 25 31 29 32 26 33 28 34
REMARK SMILES IDX 27 35 30 36 31 37 32 38 35 39 33 40 34 41
REMARK H PARENT 12 22 12 23
ROOT
ATOM      1  C   UNL     1     -13.768  14.902  24.610  1.00  0.00     0.069 C 
ATOM      2  C   UNL     1     -12.364  14.767  24.155  1.00  0.00     0.064 A 
ATOM      3  N   UNL     1     -11.460  15.688  24.496  1.00  0.00    -0.172 NA
ATOM      4  N   UNL     1     -10.302  15.326  23.862  1.00  0.00    -0.227 N 
ATOM      5  C   UNL     1     -10.435  14.073  23.290  1.00  0.00     0.136 A 
ATOM      6  C   UNL     1     -11.775  13.748  23.392  1.00  0.00     0.008 A 
ATOM      7  C   UNL     1     -12.309  12.496  22.822  1.00  0.00     0.062 C 
ATOM      8  C   UNL     1     -11.405  12.064  21.655  1.00  0.00     0.131 C 
ATOM      9  N   UNL     1      -9.958  12.102  21.978  1.00  0.00    -0.307 N 
ATOM     10  C   UNL     1      -9.433  13.181  22.745  1.00  0.00     0.277 C 
ATOM     11  O   UNL     1      -8.237  13.349  22.960  1.00  0.00    -0.267 OA
ENDROOT
BRANCH   4  12
ATOM     12  C   UNL     1      -9.231  16.272  23.830  1.00  0.00     0.066 A 
ATOM     13  C   UNL     1      -8.779  16.839  22.628  1.00  0.00     0.032 A 
ATOM     14  C   UNL     1      -8.665  16.684  25.058  1.00  0.00     0.044 A 
ATOM     15  C   UNL     1      -7.737  17.779  22.607  1.00  0.00     0.053 A 
ATOM     16  C   UNL     1      -7.620  17.627  25.050  1.00  0.00     0.068 A 
ATOM     17  C   UNL     1      -7.193  18.132  23.837  1.00  0.00     0.169 A 
ATOM     18  C   UNL     1      -6.788  18.277  25.997  1.00  0.00     0.174 A 
ATOM     19  O   UNL     1      -6.187  19.020  24.047  1.00  0.00    -0.354 OA
ATOM     20  N   UNL     1      -5.931  19.113  25.406  1.00  0.00    -0.061 NA
BRANCH  18  21
ATOM     21  N   UNL     1      -6.856  18.070  27.322  1.00  0.00    -0.380 N 
ATOM     22  H   UNL     1      -6.288  18.626  27.950  1.00  0.00     0.158 HD
ATOM     23  H   UNL     1      -7.465  17.386  27.751  1.00  0.00     0.158 HD
ENDBRANCH  18  21
ENDBRANCH   4  12
BRANCH   9  24
ATOM     24  C   UNL     1      -9.105  11.110  21.375  1.00  0.00     0.044 A 
ATOM     25  C   UNL     1      -8.729  11.205  20.026  1.00  0.00     0.027 A 
ATOM     26  C   UNL     1      -8.631  10.006  22.097  1.00  0.00     0.027 A 
ATOM     27  C   UNL     1      -7.911  10.238  19.427  1.00  0.00     0.011 A 
ATOM     28  C   UNL     1      -7.810   9.038  21.498  1.00  0.00     0.011 A 
ATOM     29  C   UNL     1      -7.445   9.139  20.153  1.00  0.00    -0.018 A 
BRANCH  29  30
ATOM     30  C   UNL     1      -6.584   8.130  19.523  1.00  0.00    -0.014 A 
ATOM     31  C   UNL     1      -7.118   6.851  19.268  1.00  0.00     0.009 A 
ATOM     32  C   UNL     1      -5.241   8.388  19.164  1.00  0.00    -0.026 A 
ATOM     33  C   UNL     1      -6.348   5.848  18.680  1.00  0.00     0.001 A 
ATOM     34  C   UNL     1      -4.477   7.362  18.574  1.00  0.00     0.006 A 
ATOM     35  C   UNL     1      -5.026   6.103  18.334  1.00  0.00     0.000 A 
BRANCH  32  36
ATOM     36  C   UNL     1      -4.588   9.741  19.393  1.00  0.00     0.120 C 
BRANCH  36  37
ATOM     37  N   UNL     1      -4.009   9.888  20.732  1.00  0.00    -0.299 NA
ATOM     38  C   UNL     1      -4.681  10.933  21.502  1.00  0.00     0.085 C 
ATOM     39  C   UNL     1      -2.597  10.267  20.727  1.00  0.00     0.085 C 
ATOM     40  C   UNL     1      -3.739  11.144  22.676  1.00  0.00     0.017 C 
ATOM     41  C   UNL     1      -2.361  10.759  22.149  1.00  0.00     0.017 C 
ENDBRANCH  36  37
ENDBRANCH  32  36
ENDBRANCH  29  30
ENDBRANCH   9  24
TORSDOF 6
ENDMDL
MODEL 4
REMARK VINA RESULT:    -9.110      4.936      7.264
REMARK INTER + INTRA:         -13.300
REMARK INTER:                 -11.924
REMARK INTRA:                  -1.376
REMARK UNBOUND:                -1.260
REMARK SMILES Cc1nn(-c2ccc3onc(N)c3c2)c2c1CCN(c1ccc(-c3ccccc3CN3CCCC3)cc1)C2=O
REMARK SMILES IDX 1 1 2 2 3 3 4 4 15 5 16 6 17 7 18 8 19 9 38 10 39 11 5 12
REMARK SMILES IDX 6 13 14 14 7 15 13 16 8 17 11 18 9 19 10 20 12 21 20 24
REMARK SMILES IDX 21 25 37 26 22 27 36 28 23 29 24 30 25 31 29 32 26 33 28 34
REMARK SMILES IDX 27 35 30 36 31 37 32 38 35 39 33 40 34 41
REMARK H PARENT 12 22 12 23
ROOT
ATOM      1  C   UNL     1     -13.379  15.246  24.396  1.00  0.00     0.069 C 
ATOM      2  C   UNL     1     -11.958  14.943  24.100  1.00  0.00     0.064 A 
ATOM      3  N   UNL     1     -10.990  15.681  24.648  1.00  0.00    -0.172 NA
ATOM      4  N   UNL     1      -9.819  15.208  24.121  1.00  0.00    -0.227 N 
ATOM      5  C   UNL     1     -10.045  14.049  23.400  1.00  0.00     0.136 A 
ATOM      6  C   UNL     1     -11.419  13.922  23.305  1.00  0.00     0.008 A 
ATOM      7  C   UNL     1     -12.039  12.824  22.539  1.00  0.00     0.062 C 
ATOM      8  C   UNL     1     -11.054  12.370  21.448  1.00  0.00     0.131 C 
ATOM      9  N   UNL     1      -9.673  12.158  21.944  1.00  0.00    -0.307 N 
ATOM     10  C   UNL     1      -9.111  13.069  22.884  1.00  0.00     0.277 C 
ATOM     11  O   UNL     1      -7.944  13.034  23.258  1.00  0.00    -0.267 OA
ENDROOT
BRANCH   4  12
ATOM     12  C   UNL     1      -8.633  15.980  24.323  1.00  0.00     0.066 A 
ATOM     13  C   UNL     1      -7.943  15.973  25.546  1.00  0.00     0.032 A 
ATOM     14  C   UNL     1      -8.118  16.715  23.230  1.00  0.00     0.044 A 
ATOM     15  C   UNL     1      -6.770  16.720  25.731  1.00  0.00     0.053 A 
ATOM     16  C   UNL     1      -6.943  17.469  23.403  1.00  0.00     0.068 A 
ATOM     17  C   UNL     1      -6.319  17.450  24.636  1.00  0.00     0.169 A 
ATOM     18  C   UNL     1      -6.125  18.328  22.626  1.00  0.00     0.174 A 
ATOM     19  O   UNL     1      -5.210  18.233  24.593  1.00  0.00    -0.354 OA
ATOM     20  N   UNL     1      -5.086  18.787  23.328  1.00  0.00    -0.061 NA
BRANCH  18  21
ATOM     21  N   UNL     1      -6.372  18.640  21.343  1.00  0.00    -0.380 N 
ATOM     22  H   UNL     1      -5.934  18.108  20.601  1.00  0.00     0.158 HD
ATOM     23  H   UNL     1      -6.995  19.383  21.058  1.00  0.00     0.158 HD
ENDBRANCH  18  21
ENDBRANCH   4  12
BRANCH   9  24
ATOM     24  C   UNL     1      -8.891  11.108  21.342  1.00  0.00     0.044 A 
ATOM     25  C   UNL     1      -8.519  11.171  19.989  1.00  0.00     0.027 A 
ATOM     26  C   UNL     1      -8.487   9.980  22.066  1.00  0.00     0.027 A 
ATOM     27  C   UNL     1      -7.771  10.149  19.390  1.00  0.00     0.011 A 
ATOM     28  C   UNL     1      -7.736   8.956  21.467  1.00  0.00     0.011 A 
ATOM     29  C   UNL     1      -7.374   9.026  20.119  1.00  0.00    -0.018 A 
BRANCH  29  30
ATOM     30  C   UNL     1      -6.587   7.958  19.489  1.00  0.00    -0.014 A 
ATOM     31  C   UNL     1      -7.236   6.759  19.135  1.00  0.00     0.009 A 
ATOM     32  C   UNL     1      -5.203   8.084  19.226  1.00  0.00    -0.026 A 
ATOM     33  C   UNL     1      -6.541   5.706  18.542  1.00  0.00     0.001 A 
ATOM     34  C   UNL     1      -4.516   7.009  18.628  1.00  0.00     0.006 A 
ATOM     35  C   UNL     1      -5.180   5.830  18.290  1.00  0.00     0.000 A 
BRANCH  32  36
ATOM     36  C   UNL     1      -4.426   9.344  19.565  1.00  0.00     0.120 C 
BRANCH  36  37
ATOM     37  N   UNL     1      -4.047  10.130  18.386  1.00  0.00    -0.299 NA
ATOM     38  C   UNL     1      -4.181  11.565  18.624  1.00  0.00     0.085 C 
ATOM     39  C   UNL     1      -4.868   9.860  17.207  1.00  0.00     0.085 C 
ATOM     40  C   UNL     1      -4.075  12.149  17.225  1.00  0.00     0.017 C 
ATOM     41  C   UNL     1      -4.579  11.048  16.299  1.00  0.00     0.017 C 
ENDBRANCH  36  37
ENDBRANCH  32  36
ENDBRANCH  29  30
ENDBRANCH   9  24
TORSDOF 6
ENDMDL
MODEL 5
REMARK VINA RESULT:    -8.544      2.585      3.555
REMARK INTER + INTRA:         -12.551
REMARK INTER:                 -11.115
REMARK INTRA:                  -1.436
REMARK UNBOUND:                -1.260
REMARK SMILES Cc1nn(-c2ccc3onc(N)c3c2)c2c1CCN(c1ccc(-c3ccccc3CN3CCCC3)cc1)C2=O
REMARK SMILES IDX 1 1 2 2 3 3 4 4 15 5 16 6 17 7 18 8 19 9 38 10 39 11 5 12
REMARK SMILES IDX 6 13 14 14 7 15 13 16 8 17 11 18 9 19 10 20 12 21 20 24
REMARK SMILES IDX 21 25 37 26 22 27 36 28 23 29 24 30 25 31 29 32 26 33 28 34
REMARK SMILES IDX 27 35 30 36 31 37 32 38 35 39 33 40 34 41
REMARK H PARENT 12 22 12 23
ROOT
ATOM      1  C   UNL     1      -6.999  16.586  25.544  1.00  0.00     0.069 C 
ATOM      2  C   UNL     1      -6.536  15.397  24.790  1.00  0.00     0.064 A 
ATOM      3  N   UNL     1      -5.567  14.626  25.290  1.00  0.00    -0.172 NA
ATOM      4  N   UNL     1      -5.317  13.677  24.335  1.00  0.00    -0.227 N 
ATOM      5  C   UNL     1      -6.266  13.741  23.330  1.00  0.00     0.136 A 
ATOM      6  C   UNL     1      -6.994  14.893  23.565  1.00  0.00     0.008 A 
ATOM      7  C   UNL     1      -8.063  15.329  22.647  1.00  0.00     0.062 C 
ATOM      8  C   UNL     1      -7.764  14.770  21.245  1.00  0.00     0.131 C 
ATOM      9  N   UNL     1      -7.409  13.331  21.242  1.00  0.00    -0.307 N 
ATOM     10  C   UNL     1      -6.565  12.808  22.263  1.00  0.00     0.277 C 
ATOM     11  O   UNL     1      -6.132  11.661  22.272  1.00  0.00    -0.267 OA
ENDROOT
BRANCH   4  12
ATOM     12  C   UNL     1      -4.145  12.872  24.480  1.00  0.00     0.066 A 
ATOM     13  C   UNL     1      -3.932  12.071  25.613  1.00  0.00     0.032 A 
ATOM     14  C   UNL     1      -3.217  12.843  23.414  1.00  0.00     0.044 A 
ATOM     15  C   UNL     1      -2.786  11.270  25.741  1.00  0.00     0.053 A 
ATOM     16  C   UNL     1      -2.064  12.044  23.530  1.00  0.00     0.068 A 
ATOM     17  C   UNL     1      -1.888  11.298  24.679  1.00  0.00     0.169 A 
ATOM     18  C   UNL     1      -0.915  11.744  22.755  1.00  0.00     0.174 A 
ATOM     19  O   UNL     1      -0.725  10.602  24.591  1.00  0.00    -0.354 OA
ATOM     20  N   UNL     1      -0.111  10.881  23.380  1.00  0.00    -0.061 NA
BRANCH  18  21
ATOM     21  N   UNL     1      -0.670  12.270  21.543  1.00  0.00    -0.380 N 
ATOM     22  H   UNL     1      -0.209  11.711  20.834  1.00  0.00     0.158 HD
ATOM     23  H   UNL     1      -0.935  13.208  21.276  1.00  0.00     0.158 HD
ENDBRANCH  18  21
ENDBRANCH   4  12
BRANCH   9  24
ATOM     24  C   UNL     1      -7.820  12.535  20.113  1.00  0.00     0.044 A 
ATOM     25  C   UNL     1      -7.314  12.790  18.828  1.00  0.00     0.027 A 
ATOM     26  C   UNL     1      -8.748  11.493  20.242  1.00  0.00     0.027 A 
ATOM     27  C   UNL     1      -7.718  12.032  17.721  1.00  0.00     0.011 A 
ATOM     28  C   UNL     1      -9.152  10.732  19.134  1.00  0.00     0.011 A 
ATOM     29  C   UNL     1      -8.646  10.997  17.858  1.00  0.00    -0.018 A 
BRANCH  29  30
ATOM     30  C   UNL     1      -9.064  10.201  16.696  1.00  0.00    -0.014 A 
ATOM     31  C   UNL     1     -10.371  10.368  16.199  1.00  0.00     0.009 A 
ATOM     32  C   UNL     1      -8.208   9.273  16.059  1.00  0.00    -0.026 A 
ATOM     33  C   UNL     1     -10.830   9.635  15.105  1.00  0.00     0.001 A 
ATOM     34  C   UNL     1      -8.689   8.540  14.956  1.00  0.00     0.006 A 
ATOM     35  C   UNL     1      -9.988   8.719  14.484  1.00  0.00     0.000 A 
BRANCH  32  36
ATOM     36  C   UNL     1      -6.781   9.038  16.522  1.00  0.00     0.120 C 
BRANCH  36  37
ATOM     37  N   UNL     1      -6.560   7.694  17.067  1.00  0.00    -0.299 NA
ATOM     38  C   UNL     1      -7.292   7.488  18.315  1.00  0.00     0.085 C 
ATOM     39  C   UNL     1      -5.163   7.410  17.392  1.00  0.00     0.085 C 
ATOM     40  C   UNL     1      -6.673   6.211  18.861  1.00  0.00     0.017 C 
ATOM     41  C   UNL     1      -5.256   6.190  18.299  1.00  0.00     0.017 C 
ENDBRANCH  36  37
ENDBRANCH  32  36
ENDBRANCH  29  30
ENDBRANCH   9  24
TORSDOF 6
ENDMDL
MODEL 6
REMARK VINA RESULT:    -8.502      1.808      3.620
REMARK INTER + INTRA:         -12.495
REMARK INTER:                 -11.619
REMARK INTRA:                  -0.876
REMARK UNBOUND:                -1.260
REMARK SMILES Cc1nn(-c2ccc3onc(N)c3c2)c2c1CCN(c1ccc(-c3ccccc3CN3CCCC3)cc1)C2=O
REMARK SMILES IDX 1 1 2 2 3 3 4 4 15 5 16 6 17 7 18 8 19 9 38 10 39 11 5 12
REMARK SMILES IDX 6 13 14 14 7 15 13 16 8 17 11 18 9 19 10 20 12 21 20 24
REMARK SMILES IDX 21 25 37 26 22 27 36 28 23 29 24 30 25 31 29 32 26 33 28 34
REMARK SMILES IDX 27 35 30 36 31 37 32 38 35 39 33 40 34 41
REMARK H PARENT 12 22 12 23
ROOT
ATOM      1  C   UNL     1      -5.059  15.289  26.345  1.00  0.00     0.069 C 
ATOM      2  C   UNL     1      -4.582  14.173  25.495  1.00  0.00     0.064 A 
ATOM      3  N   UNL     1      -3.951  13.135  26.050  1.00  0.00    -0.172 NA
ATOM      4  N   UNL     1      -3.573  12.331  25.008  1.00  0.00    -0.227 N 
ATOM      5  C   UNL     1      -4.142  12.770  23.826  1.00  0.00     0.136 A 
ATOM      6  C   UNL     1      -4.713  13.997  24.110  1.00  0.00     0.008 A 
ATOM      7  C   UNL     1      -5.363  14.805  23.061  1.00  0.00     0.062 C 
ATOM      8  C   UNL     1      -4.739  14.440  21.704  1.00  0.00     0.131 C 
ATOM      9  N   UNL     1      -4.634  12.979  21.471  1.00  0.00    -0.307 N 
ATOM     10  C   UNL     1      -4.241  12.119  22.535  1.00  0.00     0.277 C 
ATOM     11  O   UNL     1      -4.021  10.921  22.401  1.00  0.00    -0.267 OA
ENDROOT
BRANCH   4  12
ATOM     12  C   UNL     1      -2.647  11.276  25.278  1.00  0.00     0.066 A 
ATOM     13  C   UNL     1      -1.481  11.100  24.516  1.00  0.00     0.032 A 
ATOM     14  C   UNL     1      -2.896  10.433  26.386  1.00  0.00     0.044 A 
ATOM     15  C   UNL     1      -0.569  10.071  24.797  1.00  0.00     0.053 A 
ATOM     16  C   UNL     1      -1.989   9.398  26.678  1.00  0.00     0.068 A 
ATOM     17  C   UNL     1      -0.871   9.251  25.879  1.00  0.00     0.169 A 
ATOM     18  C   UNL     1      -1.860   8.356  27.632  1.00  0.00     0.174 A 
ATOM     19  O   UNL     1      -0.130   8.205  26.328  1.00  0.00    -0.354 OA
ATOM     20  N   UNL     1      -0.751   7.641  27.431  1.00  0.00    -0.061 NA
BRANCH  18  21
ATOM     21  N   UNL     1      -2.748   8.122  28.611  1.00  0.00    -0.380 N 
ATOM     22  H   UNL     1      -2.762   8.715  29.433  1.00  0.00     0.158 HD
ATOM     23  H   UNL     1      -3.434   7.381  28.579  1.00  0.00     0.158 HD
ENDBRANCH  18  21
ENDBRANCH   4  12
BRANCH   9  24
ATOM     24  C   UNL     1      -4.798  12.497  20.123  1.00  0.00     0.044 A 
ATOM     25  C   UNL     1      -4.247  11.267  19.725  1.00  0.00     0.027 A 
ATOM     26  C   UNL     1      -5.491  13.233  19.153  1.00  0.00     0.027 A 
ATOM     27  C   UNL     1      -4.389  10.795  18.413  1.00  0.00     0.011 A 
ATOM     28  C   UNL     1      -5.635  12.759  17.840  1.00  0.00     0.011 A 
ATOM     29  C   UNL     1      -5.080  11.537  17.452  1.00  0.00    -0.018 A 
BRANCH  29  30
ATOM     30  C   UNL     1      -5.229  11.037  16.079  1.00  0.00    -0.014 A 
ATOM     31  C   UNL     1      -6.328  10.209  15.778  1.00  0.00     0.009 A 
ATOM     32  C   UNL     1      -4.313  11.352  15.048  1.00  0.00    -0.026 A 
ATOM     33  C   UNL     1      -6.520   9.696  14.495  1.00  0.00     0.001 A 
ATOM     34  C   UNL     1      -4.521  10.823  13.759  1.00  0.00     0.006 A 
ATOM     35  C   UNL     1      -5.615  10.002  13.486  1.00  0.00     0.000 A 
BRANCH  32  36
ATOM     36  C   UNL     1      -3.107  12.245  15.282  1.00  0.00     0.120 C 
BRANCH  36  37
ATOM     37  N   UNL     1      -3.121  13.466  14.469  1.00  0.00    -0.299 NA
ATOM     38  C   UNL     1      -1.875  14.219  14.598  1.00  0.00     0.085 C 
ATOM     39  C   UNL     1      -4.176  14.408  14.835  1.00  0.00     0.085 C 
ATOM     40  C   UNL     1      -2.225  15.559  13.973  1.00  0.00     0.017 C 
ATOM     41  C   UNL     1      -3.728  15.708  14.179  1.00  0.00     0.017 C 
ENDBRANCH  36  37
ENDBRANCH  32  36
ENDBRANCH  29  30
ENDBRANCH   9  24
TORSDOF 6
ENDMDL
MODEL 7
REMARK VINA RESULT:    -8.311      2.898      5.304
REMARK INTER + INTRA:         -12.244
REMARK INTER:                 -11.007
REMARK INTRA:                  -1.237
REMARK UNBOUND:                -1.260
REMARK SMILES Cc1nn(-c2ccc3onc(N)c3c2)c2c1CCN(c1ccc(-c3ccccc3CN3CCCC3)cc1)C2=O
REMARK SMILES IDX 1 1 2 2 3 3 4 4 15 5 16 6 17 7 18 8 19 9 38 10 39 11 5 12
REMARK SMILES IDX 6 13 14 14 7 15 13 16 8 17 11 18 9 19 10 20 12 21 20 24
REMARK SMILES IDX 21 25 37 26 22 27 36 28 23 29 24 30 25 31 29 32 26 33 28 34
REMARK SMILES IDX 27 35 30 36 31 37 32 38 35 39 33 40 34 41
REMARK H PARENT 12 22 12 23
ROOT
ATOM      1  C   UNL     1      -0.138  11.433  24.162  1.00  0.00     0.069 C 
ATOM      2  C   UNL     1      -1.491  11.934  23.821  1.00  0.00     0.064 A 
ATOM      3  N   UNL     1      -1.970  13.024  24.423  1.00  0.00    -0.172 NA
ATOM      4  N   UNL     1      -3.249  13.174  23.959  1.00  0.00    -0.227 N 
ATOM      5  C   UNL     1      -3.493  12.292  22.921  1.00  0.00     0.136 A 
ATOM      6  C   UNL     1      -2.409  11.435  22.886  1.00  0.00     0.008 A 
ATOM      7  C   UNL     1      -2.350  10.307  21.937  1.00  0.00     0.062 C 
ATOM      8  C   UNL     1      -3.787   9.892  21.578  1.00  0.00     0.131 C 
ATOM      9  N   UNL     1      -4.664  11.034  21.224  1.00  0.00    -0.307 N 
ATOM     10  C   UNL     1      -4.583  12.246  21.968  1.00  0.00     0.277 C 
ATOM     11  O   UNL     1      -5.345  13.194  21.816  1.00  0.00    -0.267 OA
ENDROOT
BRANCH   4  12
ATOM     12  C   UNL     1      -4.101  14.106  24.628  1.00  0.00     0.066 A 
ATOM     13  C   UNL     1      -4.732  13.794  25.843  1.00  0.00     0.032 A 
ATOM     14  C   UNL     1      -4.250  15.396  24.070  1.00  0.00     0.044 A 
ATOM     15  C   UNL     1      -5.554  14.721  26.502  1.00  0.00     0.053 A 
ATOM     16  C   UNL     1      -5.071  16.335  24.721  1.00  0.00     0.068 A 
ATOM     17  C   UNL     1      -5.693  15.967  25.899  1.00  0.00     0.169 A 
ATOM     18  C   UNL     1      -5.502  17.671  24.518  1.00  0.00     0.174 A 
ATOM     19  O   UNL     1      -6.431  17.008  26.364  1.00  0.00    -0.354 OA
ATOM     20  N   UNL     1      -6.312  18.082  25.496  1.00  0.00    -0.061 NA
BRANCH  18  21
ATOM     21  N   UNL     1      -5.138  18.424  23.466  1.00  0.00    -0.380 N 
ATOM     22  H   UNL     1      -4.409  18.099  22.841  1.00  0.00     0.158 HD
ATOM     23  H   UNL     1      -5.563  19.313  23.241  1.00  0.00     0.158 HD
ENDBRANCH  18  21
ENDBRANCH   4  12
BRANCH   9  24
ATOM     24  C   UNL     1      -5.677  10.823  20.221  1.00  0.00     0.044 A 
ATOM     25  C   UNL     1      -6.797  10.017  20.484  1.00  0.00     0.027 A 
ATOM     26  C   UNL     1      -5.583  11.392  18.944  1.00  0.00     0.027 A 
ATOM     27  C   UNL     1      -7.780   9.794  19.512  1.00  0.00     0.011 A 
ATOM     28  C   UNL     1      -6.569  11.171  17.970  1.00  0.00     0.011 A 
ATOM     29  C   UNL     1      -7.677  10.363  18.240  1.00  0.00    -0.018 A 
BRANCH  29  30
ATOM     30  C   UNL     1      -8.712  10.131  17.225  1.00  0.00    -0.014 A 
ATOM     31  C   UNL     1      -9.906  10.874  17.295  1.00  0.00     0.009 A 
ATOM     32  C   UNL     1      -8.558   9.189  16.181  1.00  0.00    -0.026 A 
ATOM     33  C   UNL     1     -10.929  10.692  16.365  1.00  0.00     0.001 A 
ATOM     34  C   UNL     1      -9.603   9.016  15.251  1.00  0.00     0.006 A 
ATOM     35  C   UNL     1     -10.778   9.761  15.343  1.00  0.00     0.000 A 
BRANCH  32  36
ATOM     36  C   UNL     1      -7.300   8.353  16.023  1.00  0.00     0.120 C 
BRANCH  36  37
ATOM     37  N   UNL     1      -6.821   7.778  17.284  1.00  0.00    -0.299 NA
ATOM     38  C   UNL     1      -5.361   7.731  17.340  1.00  0.00     0.085 C 
ATOM     39  C   UNL     1      -7.256   6.401  17.510  1.00  0.00     0.085 C 
ATOM     40  C   UNL     1      -5.099   6.824  18.531  1.00  0.00     0.017 C 
ATOM     41  C   UNL     1      -6.319   5.913  18.607  1.00  0.00     0.017 C 
ENDBRANCH  36  37
ENDBRANCH  32  36
ENDBRANCH  29  30
ENDBRANCH   9  24
TORSDOF 6
ENDMDL
MODEL 8
REMARK VINA RESULT:    -8.158      4.204      8.689
REMARK INTER + INTRA:         -12.041
REMARK INTER:                 -10.295
REMARK INTRA:                  -1.746
REMARK UNBOUND:                -1.260
REMARK SMILES Cc1nn(-c2ccc3onc(N)c3c2)c2c1CCN(c1ccc(-c3ccccc3CN3CCCC3)cc1)C2=O
REMARK SMILES IDX 1 1 2 2 3 3 4 4 15 5 16 6 17 7 18 8 19 9 38 10 39 11 5 12
REMARK SMILES IDX 6 13 14 14 7 15 13 16 8 17 11 18 9 19 10 20 12 21 20 24
REMARK SMILES IDX 21 25 37 26 22 27 36 28 23 29 24 30 25 31 29 32 26 33 28 34
REMARK SMILES IDX 27 35 30 36 31 37 32 38 35 39 33 40 34 41
REMARK H PARENT 12 22 12 23
ROOT
ATOM      1  C   UNL     1      -5.277   6.924  18.751  1.00  0.00     0.069 C 
ATOM      2  C   UNL     1      -5.156   8.242  19.419  1.00  0.00     0.064 A 
ATOM      3  N   UNL     1      -3.983   8.881  19.424  1.00  0.00    -0.172 NA
ATOM      4  N   UNL     1      -4.178  10.008  20.177  1.00  0.00    -0.227 N 
ATOM      5  C   UNL     1      -5.521  10.167  20.471  1.00  0.00     0.136 A 
ATOM      6  C   UNL     1      -6.141   8.997  20.070  1.00  0.00     0.008 A 
ATOM      7  C   UNL     1      -7.583   8.776  20.289  1.00  0.00     0.062 C 
ATOM      8  C   UNL     1      -8.029   9.616  21.498  1.00  0.00     0.131 C 
ATOM      9  N   UNL     1      -7.556  11.020  21.454  1.00  0.00    -0.307 N 
ATOM     10  C   UNL     1      -6.234  11.307  21.010  1.00  0.00     0.277 C 
ATOM     11  O   UNL     1      -5.726  12.423  21.049  1.00  0.00    -0.267 OA
ENDROOT
BRANCH   4  12
ATOM     12  C   UNL     1      -3.027  10.754  20.578  1.00  0.00     0.066 A 
ATOM     13  C   UNL     1      -2.486  11.771  19.775  1.00  0.00     0.032 A 
ATOM     14  C   UNL     1      -2.469  10.491  21.850  1.00  0.00     0.044 A 
ATOM     15  C   UNL     1      -1.366  12.510  20.184  1.00  0.00     0.053 A 
ATOM     16  C   UNL     1      -1.345  11.225  22.271  1.00  0.00     0.068 A 
ATOM     17  C   UNL     1      -0.835  12.195  21.430  1.00  0.00     0.169 A 
ATOM     18  C   UNL     1      -0.491  11.278  23.402  1.00  0.00     0.174 A 
ATOM     19  O   UNL     1       0.238  12.785  22.019  1.00  0.00    -0.354 OA
ATOM     20  N   UNL     1       0.456  12.208  23.261  1.00  0.00    -0.061 NA
BRANCH  18  21
ATOM     21  N   UNL     1      -0.623  10.484  24.478  1.00  0.00    -0.380 N 
ATOM     22  H   UNL     1      -1.527  10.089  24.707  1.00  0.00     0.158 HD
ATOM     23  H   UNL     1       0.145  10.235  25.086  1.00  0.00     0.158 HD
ENDBRANCH  18  21
ENDBRANCH   4  12
BRANCH   9  24
ATOM     24  C   UNL     1      -8.413  12.040  22.003  1.00  0.00     0.044 A 
ATOM     25  C   UNL     1      -8.482  12.255  23.389  1.00  0.00     0.027 A 
ATOM     26  C   UNL     1      -9.221  12.843  21.188  1.00  0.00     0.027 A 
ATOM     27  C   UNL     1      -9.322  13.234  23.934  1.00  0.00     0.011 A 
ATOM     28  C   UNL     1     -10.062  13.826  21.733  1.00  0.00     0.011 A 
ATOM     29  C   UNL     1     -10.127  14.029  23.114  1.00  0.00    -0.018 A 
BRANCH  29  30
ATOM     30  C   UNL     1     -11.004  15.058  23.689  1.00  0.00    -0.014 A 
ATOM     31  C   UNL     1     -12.363  14.750  23.894  1.00  0.00     0.009 A 
ATOM     32  C   UNL     1     -10.540  16.346  24.042  1.00  0.00    -0.026 A 
ATOM     33  C   UNL     1     -13.247  15.687  24.427  1.00  0.00     0.001 A 
ATOM     34  C   UNL     1     -11.447  17.281  24.578  1.00  0.00     0.006 A 
ATOM     35  C   UNL     1     -12.789  16.954  24.768  1.00  0.00     0.000 A 
BRANCH  32  36
ATOM     36  C   UNL     1      -9.089  16.761  23.866  1.00  0.00     0.120 C 
BRANCH  36  37
ATOM     37  N   UNL     1      -8.307  16.684  25.104  1.00  0.00    -0.299 NA
ATOM     38  C   UNL     1      -7.950  18.011  25.603  1.00  0.00     0.085 C 
ATOM     39  C   UNL     1      -7.037  15.977  24.959  1.00  0.00     0.085 C 
ATOM     40  C   UNL     1      -6.896  17.702  26.654  1.00  0.00     0.017 C 
ATOM     41  C   UNL     1      -6.259  16.394  26.200  1.00  0.00     0.017 C 
ENDBRANCH  36  37
ENDBRANCH  32  36
ENDBRANCH  29  30
ENDBRANCH   9  24
TORSDOF 6
ENDMDL
MODEL 9
REMARK VINA RESULT:    -8.154      4.097      6.215
REMARK INTER + INTRA:         -12.036
REMARK INTER:                 -10.717
REMARK INTRA:                  -1.319
REMARK UNBOUND:                -1.260
REMARK SMILES Cc1nn(-c2ccc3onc(N)c3c2)c2c1CCN(c1ccc(-c3ccccc3CN3CCCC3)cc1)C2=O
REMARK SMILES IDX 1 1 2 2 3 3 4 4 15 5 16 6 17 7 18 8 19 9 38 10 39 11 5 12
REMARK SMILES IDX 6 13 14 14 7 15 13 16 8 17 11 18 9 19 10 20 12 21 20 24
REMARK SMILES IDX 21 25 37 26 22 27 36 28 23 29 24 30 25 31 29 32 26 33 28 34
REMARK SMILES IDX 27 35 30 36 31 37 32 38 35 39 33 40 34 41
REMARK H PARENT 12 22 12 23
ROOT
ATOM      1  C   UNL     1      -0.641  18.415  19.170  1.00  0.00     0.069 C 
ATOM      2  C   UNL     1      -1.674  17.554  19.793  1.00  0.00     0.064 A 
ATOM      3  N   UNL     1      -2.539  18.075  20.666  1.00  0.00    -0.172 NA
ATOM      4  N   UNL     1      -3.296  17.025  21.112  1.00  0.00    -0.227 N 
ATOM      5  C   UNL     1      -3.031  15.888  20.368  1.00  0.00     0.136 A 
ATOM      6  C   UNL     1      -1.933  16.192  19.585  1.00  0.00     0.008 A 
ATOM      7  C   UNL     1      -1.318  15.186  18.698  1.00  0.00     0.062 C 
ATOM      8  C   UNL     1      -1.608  13.787  19.268  1.00  0.00     0.131 C 
ATOM      9  N   UNL     1      -3.027  13.582  19.649  1.00  0.00    -0.307 N 
ATOM     10  C   UNL     1      -3.743  14.629  20.296  1.00  0.00     0.277 C 
ATOM     11  O   UNL     1      -4.878  14.506  20.744  1.00  0.00    -0.267 OA
ENDROOT
BRANCH   4  12
ATOM     12  C   UNL     1      -4.131  17.236  22.252  1.00  0.00     0.066 A 
ATOM     13  C   UNL     1      -5.053  18.293  22.310  1.00  0.00     0.032 A 
ATOM     14  C   UNL     1      -4.059  16.307  23.315  1.00  0.00     0.044 A 
ATOM     15  C   UNL     1      -5.881  18.485  23.427  1.00  0.00     0.053 A 
ATOM     16  C   UNL     1      -4.885  16.488  24.441  1.00  0.00     0.068 A 
ATOM     17  C   UNL     1      -5.754  17.562  24.459  1.00  0.00     0.169 A 
ATOM     18  C   UNL     1      -5.118  15.845  25.683  1.00  0.00     0.174 A 
ATOM     19  O   UNL     1      -6.455  17.554  25.623  1.00  0.00    -0.354 OA
ATOM     20  N   UNL     1      -6.056  16.474  26.394  1.00  0.00    -0.061 NA
BRANCH  18  21
ATOM     21  N   UNL     1      -4.469  14.741  26.090  1.00  0.00    -0.380 N 
ATOM     22  H   UNL     1      -3.787  14.803  26.837  1.00  0.00     0.158 HD
ATOM     23  H   UNL     1      -4.629  13.823  25.699  1.00  0.00     0.158 HD
ENDBRANCH  18  21
ENDBRANCH   4  12
BRANCH   9  24
ATOM     24  C   UNL     1      -3.590  12.268  19.475  1.00  0.00     0.044 A 
ATOM     25  C   UNL     1      -4.399  11.970  18.366  1.00  0.00     0.027 A 
ATOM     26  C   UNL     1      -3.374  11.242  20.404  1.00  0.00     0.027 A 
ATOM     27  C   UNL     1      -4.964  10.699  18.195  1.00  0.00     0.011 A 
ATOM     28  C   UNL     1      -3.937   9.968  20.232  1.00  0.00     0.011 A 
ATOM     29  C   UNL     1      -4.745   9.683  19.128  1.00  0.00    -0.018 A 
BRANCH  29  30
ATOM     30  C   UNL     1      -5.335   8.351  18.943  1.00  0.00    -0.014 A 
ATOM     31  C   UNL     1      -4.740   7.471  18.018  1.00  0.00     0.009 A 
ATOM     32  C   UNL     1      -6.478   7.917  19.655  1.00  0.00    -0.026 A 
ATOM     33  C   UNL     1      -5.259   6.197  17.792  1.00  0.00     0.001 A 
ATOM     34  C   UNL     1      -6.990   6.627  19.412  1.00  0.00     0.006 A 
ATOM     35  C   UNL     1      -6.386   5.775  18.489  1.00  0.00     0.000 A 
BRANCH  32  36
ATOM     36  C   UNL     1      -7.176   8.796  20.678  1.00  0.00     0.120 C 
BRANCH  36  37
ATOM     37  N   UNL     1      -7.332  10.187  20.241  1.00  0.00    -0.299 NA
ATOM     38  C   UNL     1      -7.290  11.118  21.367  1.00  0.00     0.085 C 
ATOM     39  C   UNL     1      -8.602  10.457  19.570  1.00  0.00     0.085 C 
ATOM     40  C   UNL     1      -7.795  12.412  20.752  1.00  0.00     0.017 C 
ATOM     41  C   UNL     1      -8.701  11.976  19.607  1.00  0.00     0.017 C 
ENDBRANCH  36  37
ENDBRANCH  32  36
ENDBRANCH  29  30
ENDBRANCH   9  24
TORSDOF 6
ENDMDL
