MODEL 1
REMARK VINA RESULT:   -10.799      0.000      0.000
REMARK INTER + INTRA:         -19.480
REMARK INTER:                 -17.743
REMARK INTRA:                  -1.737
REMARK UNBOUND:                -1.737
REMARK SMILES CS(=O)(=O)CC[NH2+]Cc1ccc(-c2ccc3ncnc(Nc4ccc(OCc5cccc(F)c5)c(Cl)c4)c3c2)o1
REMARK SMILES IDX 13 1 14 2 15 3 16 4 17 5 18 6 19 7 20 8 38 9 39 10 12 11
REMARK SMILES IDX 9 12 40 13 10 14 11 15 8 16 7 17 6 20 5 21 2 22 3 23 4 24
REMARK SMILES IDX 1 25 21 26 22 28 37 29 23 30 35 31 24 32 25 33 36 34 26 35
REMARK SMILES IDX 27 36 28 37 34 38 29 39 32 40 30 41 31 42 33 43
REMARK H PARENT 7 18 7 19 21 27
ROOT
ATOM      1  C   UNL     1      13.342  40.515   8.406  1.00  0.00     0.018 A 
ATOM      2  C   UNL     1      13.341  41.633   7.569  1.00  0.00     0.014 A 
ATOM      3  C   UNL     1      14.504  42.063   6.938  1.00  0.00     0.030 A 
ATOM      4  C   UNL     1      15.719  41.367   7.132  1.00  0.00     0.076 A 
ATOM      5  N   UNL     1      16.840  41.811   6.497  1.00  0.00    -0.236 NA
ATOM      6  C   UNL     1      17.979  41.112   6.717  1.00  0.00     0.224 A 
ATOM      7  N   UNL     1      18.120  40.020   7.501  1.00  0.00    -0.219 NA
ATOM      8  C   UNL     1      17.005  39.568   8.131  1.00  0.00     0.141 A 
ATOM      9  C   UNL     1      15.740  40.220   7.986  1.00  0.00     0.044 A 
ATOM     10  C   UNL     1      14.533  39.813   8.618  1.00  0.00     0.026 A 
ENDROOT
BRANCH   1  11
ATOM     11  C   UNL     1      12.071  40.085   9.056  1.00  0.00     0.134 A 
ATOM     12  C   UNL     1      10.893  39.132  10.657  1.00  0.00     0.158 A 
ATOM     13  O   UNL     1      12.156  39.430  10.248  1.00  0.00    -0.455 OA
ATOM     14  C   UNL     1       9.987  39.602   9.720  1.00  0.00     0.052 A 
ATOM     15  C   UNL     1      10.732  40.211   8.711  1.00  0.00     0.051 A 
BRANCH  12  16
ATOM     16  C   UNL     1      10.758  38.388  11.963  1.00  0.00     0.337 C 
BRANCH  16  17
ATOM     17  N   UNL     1      12.168  38.043  12.465  1.00  0.00    -0.339 N 
ATOM     18  H   UNL     1      12.281  38.418  13.396  1.00  0.00     0.346 HD
ATOM     19  H   UNL     1      12.846  38.492  11.864  1.00  0.00     0.346 HD
BRANCH  17  20
ATOM     20  C   UNL     1      12.458  36.534  12.502  1.00  0.00     0.277 C 
BRANCH  20  21
ATOM     21  C   UNL     1      13.942  36.310  12.831  1.00  0.00     0.197 C 
BRANCH  21  22
ATOM     22  S   UNL     1      14.155  34.748  13.879  1.00  0.00     0.152 S 
ATOM     23  O   UNL     1      14.246  33.606  12.963  1.00  0.00    -0.229 OA
ATOM     24  O   UNL     1      13.133  34.759  14.932  1.00  0.00    -0.229 OA
ATOM     25  C   UNL     1      15.841  34.964  14.696  1.00  0.00     0.158 C 
ENDBRANCH  21  22
ENDBRANCH  20  21
ENDBRANCH  17  20
ENDBRANCH  16  17
ENDBRANCH  12  16
ENDBRANCH   1  11
BRANCH   8  26
ATOM     26  N   UNL     1      17.127  38.441   8.969  1.00  0.00    -0.340 N 
ATOM     27  H   UNL     1      17.166  38.670   9.952  1.00  0.00     0.168 HD
BRANCH  26  28
ATOM     28  C   UNL     1      17.193  37.063   8.704  1.00  0.00     0.041 A 
ATOM     29  C   UNL     1      18.322  36.443   8.156  1.00  0.00     0.050 A 
ATOM     30  C   UNL     1      16.060  36.290   8.966  1.00  0.00     0.030 A 
ATOM     31  C   UNL     1      18.328  35.069   7.905  1.00  0.00     0.085 A 
ATOM     32  C   UNL     1      16.062  34.918   8.718  1.00  0.00     0.050 A 
ATOM     33  C   UNL     1      17.201  34.287   8.188  1.00  0.00     0.138 A 
ATOM     34  Cl  UNL     1      19.751  34.350   7.234  1.00  0.00    -0.080 Cl
BRANCH  33  35
ATOM     35  O   UNL     1      17.280  32.933   7.924  1.00  0.00    -0.487 OA
BRANCH  35  36
ATOM     36  C   UNL     1      16.152  32.094   8.176  1.00  0.00     0.265 C 
BRANCH  36  37
ATOM     37  C   UNL     1      16.255  30.780   7.409  1.00  0.00    -0.008 A 
ATOM     38  C   UNL     1      15.122  30.019   7.087  1.00  0.00     0.046 A 
ATOM     39  C   UNL     1      17.518  30.319   7.022  1.00  0.00     0.007 A 
ATOM     40  C   UNL     1      15.253  28.821   6.384  1.00  0.00     0.123 A 
ATOM     41  C   UNL     1      17.649  29.121   6.320  1.00  0.00     0.003 A 
ATOM     42  C   UNL     1      16.517  28.372   5.999  1.00  0.00     0.039 A 
ATOM     43  F   UNL     1      14.156  28.094   6.075  1.00  0.00    -0.207 F 
ENDBRANCH  36  37
ENDBRANCH  35  36
ENDBRANCH  33  35
ENDBRANCH  26  28
ENDBRANCH   8  26
TORSDOF 11
ENDMDL
