MODEL 1
REMARK VINA RESULT:   -10.838      0.000      0.000
REMARK INTER + INTRA:         -16.849
REMARK INTER:                 -15.273
REMARK INTRA:                  -1.577
REMARK UNBOUND:                -1.577
REMARK SMILES CN1CCN(C(=O)Cn2cc(Nc3nc4c(N5C[C@H]6CC[C@@H](C5)N6C(=O)[C@@H]5CCC(F)(F)C5)cccn4n3)cn2)CC1
REMARK SMILES IDX 13 1 14 2 15 3 16 4 34 5 35 6 36 7 37 8 38 9 12 10 11 12
REMARK SMILES IDX 9 13 10 14 40 15 39 16 8 17 6 18 2 19 3 20 42 21 4 22 41 23
REMARK SMILES IDX 5 24 7 25 1 26 17 27 18 28 23 29 19 30 22 31 20 32 24 33
REMARK SMILES IDX 21 34 25 35 26 36 27 37 28 38 33 39 29 40 30 41 31 42 32 43
REMARK H PARENT 12 11
ROOT
ATOM      1  C   UNL     1       5.466 -18.710  19.929  1.00  0.00     0.247 A 
ATOM      2  N   UNL     1       5.801 -19.904  20.497  1.00  0.00    -0.190 NA
ATOM      3  C   UNL     1       7.105 -19.814  20.681  1.00  0.00     0.180 A 
ATOM      4  C   UNL     1       8.080 -20.730  21.256  1.00  0.00     0.082 A 
ATOM      5  C   UNL     1       9.358 -20.274  21.315  1.00  0.00     0.031 A 
ATOM      6  C   UNL     1       9.778 -18.966  20.845  1.00  0.00     0.022 A 
ATOM      7  C   UNL     1       8.861 -18.149  20.312  1.00  0.00     0.115 A 
ATOM      8  N   UNL     1       7.539 -18.566  20.231  1.00  0.00    -0.217 N 
ATOM      9  N   UNL     1       6.488 -17.878  19.733  1.00  0.00    -0.127 NA
ENDROOT
BRANCH   1  10
ATOM     10  N   UNL     1       4.160 -18.529  19.650  1.00  0.00    -0.320 N 
ATOM     11  H   UNL     1       3.746 -19.316  19.165  1.00  0.00     0.170 HD
BRANCH  10  12
ATOM     12  C   UNL     1       3.364 -17.483  19.957  1.00  0.00     0.079 A 
ATOM     13  N   UNL     1       2.185 -15.647  19.767  1.00  0.00    -0.261 N 
ATOM     14  C   UNL     1       3.030 -16.478  19.084  1.00  0.00     0.135 A 
ATOM     15  N   UNL     1       2.009 -16.008  21.057  1.00  0.00    -0.179 NA
ATOM     16  C   UNL     1       2.706 -17.146  21.159  1.00  0.00     0.161 A 
BRANCH  13  17
ATOM     17  C   UNL     1       1.610 -14.399  19.292  1.00  0.00     0.244 C 
BRANCH  17  18
ATOM     18  C   UNL     1       0.546 -14.594  18.231  1.00  0.00     0.244 C 
ATOM     19  N   UNL     1      -3.143 -16.303  19.482  1.00  0.00    -0.303 NA
ATOM     20  C   UNL     1      -2.614 -16.401  18.103  1.00  0.00     0.105 C 
ATOM     21  C   UNL     1      -2.036 -16.072  20.432  1.00  0.00     0.105 C 
ATOM     22  C   UNL     1      -1.800 -15.156  17.702  1.00  0.00     0.135 C 
ATOM     23  C   UNL     1      -1.213 -14.821  20.067  1.00  0.00     0.135 C 
ATOM     24  N   UNL     1      -0.743 -14.874  18.678  1.00  0.00    -0.339 N 
ATOM     25  O   UNL     1       0.792 -14.488  17.028  1.00  0.00    -0.273 OA
ATOM     26  C   UNL     1      -3.881 -17.516  19.836  1.00  0.00     0.105 C 
ENDBRANCH  17  18
ENDBRANCH  13  17
ENDBRANCH  10  12
ENDBRANCH   1  10
BRANCH   4  27
ATOM     27  N   UNL     1       7.712 -22.019  21.712  1.00  0.00    -0.364 N 
ATOM     28  C   UNL     1       7.732 -23.190  20.779  1.00  0.00     0.141 C 
ATOM     29  C   UNL     1       6.919 -22.219  22.966  1.00  0.00     0.141 C 
ATOM     30  C   UNL     1       7.745 -24.557  21.515  1.00  0.00     0.105 C 
ATOM     31  C   UNL     1       7.038 -23.661  23.522  1.00  0.00     0.105 C 
ATOM     32  C   UNL     1       8.970 -24.653  22.433  1.00  0.00     0.029 C 
ATOM     33  N   UNL     1       6.647 -24.584  22.471  1.00  0.00    -0.333 N 
ATOM     34  C   UNL     1       8.506 -24.037  23.764  1.00  0.00     0.029 C 
BRANCH  33  35
ATOM     35  C   UNL     1       5.385 -25.109  22.375  1.00  0.00     0.226 C 
ATOM     36  O   UNL     1       4.508 -24.548  21.718  1.00  0.00    -0.275 OA
BRANCH  35  37
ATOM     37  C   UNL     1       5.118 -26.419  23.101  1.00  0.00     0.085 C 
ATOM     38  C   UNL     1       6.411 -27.242  23.254  1.00  0.00     0.020 C 
ATOM     39  C   UNL     1       4.139 -27.332  22.348  1.00  0.00     0.090 C 
ATOM     40  C   UNL     1       6.131 -28.602  22.621  1.00  0.00     0.078 C 
ATOM     41  C   UNL     1       4.628 -28.716  22.693  1.00  0.00     0.248 C 
ATOM     42  F   UNL     1       4.145 -29.656  21.864  1.00  0.00    -0.207 F 
ATOM     43  F   UNL     1       4.247 -29.037  23.953  1.00  0.00    -0.207 F 
ENDBRANCH  35  37
ENDBRANCH  33  35
ENDBRANCH   4  27
TORSDOF 7
ENDMDL
MODEL 2
REMARK VINA RESULT:   -10.510      5.270     13.178
REMARK INTER + INTRA:         -16.388
REMARK INTER:                 -15.440
REMARK INTRA:                  -0.948
REMARK UNBOUND:                -1.577
REMARK SMILES CN1CCN(C(=O)Cn2cc(Nc3nc4c(N5C[C@H]6CC[C@@H](C5)N6C(=O)[C@@H]5CCC(F)(F)C5)cccn4n3)cn2)CC1
REMARK SMILES IDX 13 1 14 2 15 3 16 4 34 5 35 6 36 7 37 8 38 9 12 10 11 12
REMARK SMILES IDX 9 13 10 14 40 15 39 16 8 17 6 18 2 19 3 20 42 21 4 22 41 23
REMARK SMILES IDX 5 24 7 25 1 26 17 27 18 28 23 29 19 30 22 31 20 32 24 33
REMARK SMILES IDX 21 34 25 35 26 36 27 37 28 38 33 39 29 40 30 41 31 42 32 43
REMARK H PARENT 12 11
ROOT
ATOM      1  C   UNL     1       6.593 -28.063  23.778  1.00  0.00     0.247 A 
ATOM      2  N   UNL     1       6.634 -26.764  23.364  1.00  0.00    -0.190 NA
ATOM      3  C   UNL     1       5.502 -26.603  22.705  1.00  0.00     0.180 A 
ATOM      4  C   UNL     1       4.916 -25.457  22.026  1.00  0.00     0.082 A 
ATOM      5  C   UNL     1       3.690 -25.657  21.476  1.00  0.00     0.031 A 
ATOM      6  C   UNL     1       2.969 -26.917  21.531  1.00  0.00     0.022 A 
ATOM      7  C   UNL     1       3.537 -27.957  22.153  1.00  0.00     0.115 A 
ATOM      8  N   UNL     1       4.789 -27.803  22.735  1.00  0.00    -0.217 N 
ATOM      9  N   UNL     1       5.505 -28.734  23.404  1.00  0.00    -0.127 NA
ENDROOT
BRANCH   1  10
ATOM     10  N   UNL     1       7.644 -28.489  24.505  1.00  0.00    -0.320 N 
ATOM     11  H   UNL     1       7.781 -29.491  24.455  1.00  0.00     0.170 HD
BRANCH  10  12
ATOM     12  C   UNL     1       8.519 -27.765  25.235  1.00  0.00     0.079 A 
ATOM     13  N   UNL     1      10.054 -27.231  26.703  1.00  0.00    -0.261 N 
ATOM     14  C   UNL     1       9.281 -28.269  26.260  1.00  0.00     0.135 A 
ATOM     15  N   UNL     1       9.786 -26.062  26.081  1.00  0.00    -0.179 NA
ATOM     16  C   UNL     1       8.871 -26.400  25.165  1.00  0.00     0.161 A 
BRANCH  13  17
ATOM     17  C   UNL     1      10.980 -27.246  27.824  1.00  0.00     0.244 C 
BRANCH  17  18
ATOM     18  C   UNL     1      11.789 -28.524  27.916  1.00  0.00     0.244 C 
ATOM     19  N   UNL     1      15.247 -28.808  25.455  1.00  0.00    -0.303 NA
ATOM     20  C   UNL     1      14.479 -29.978  25.937  1.00  0.00     0.105 C 
ATOM     21  C   UNL     1      14.385 -27.609  25.442  1.00  0.00     0.105 C 
ATOM     22  C   UNL     1      13.859 -29.735  27.326  1.00  0.00     0.135 C 
ATOM     23  C   UNL     1      13.762 -27.329  26.824  1.00  0.00     0.135 C 
ATOM     24  N   UNL     1      13.059 -28.507  27.345  1.00  0.00    -0.339 N 
ATOM     25  O   UNL     1      11.364 -29.529  28.489  1.00  0.00    -0.273 OA
ATOM     26  C   UNL     1      15.791 -29.066  24.121  1.00  0.00     0.105 C 
ENDBRANCH  17  18
ENDBRANCH  13  17
ENDBRANCH  10  12
ENDBRANCH   1  10
BRANCH   4  27
ATOM     27  N   UNL     1       5.593 -24.217  21.939  1.00  0.00    -0.364 N 
ATOM     28  C   UNL     1       5.781 -23.367  23.159  1.00  0.00     0.141 C 
ATOM     29  C   UNL     1       5.785 -23.508  20.635  1.00  0.00     0.141 C 
ATOM     30  C   UNL     1       6.898 -22.300  22.993  1.00  0.00     0.105 C 
ATOM     31  C   UNL     1       6.925 -22.458  20.689  1.00  0.00     0.105 C 
ATOM     32  C   UNL     1       8.235 -22.979  22.668  1.00  0.00     0.029 C 
ATOM     33  N   UNL     1       6.642 -21.539  21.778  1.00  0.00    -0.333 N 
ATOM     34  C   UNL     1       8.244 -23.103  21.135  1.00  0.00     0.029 C 
BRANCH  33  35
ATOM     35  C   UNL     1       6.024 -20.332  21.589  1.00  0.00     0.226 C 
ATOM     36  O   UNL     1       6.649 -19.349  21.189  1.00  0.00    -0.275 OA
BRANCH  35  37
ATOM     37  C   UNL     1       4.532 -20.259  21.879  1.00  0.00     0.085 C 
ATOM     38  C   UNL     1       3.707 -20.491  20.599  1.00  0.00     0.020 C 
ATOM     39  C   UNL     1       4.091 -18.885  22.406  1.00  0.00     0.090 C 
ATOM     40  C   UNL     1       2.800 -19.273  20.447  1.00  0.00     0.078 C 
ATOM     41  C   UNL     1       2.695 -18.740  21.854  1.00  0.00     0.248 C 
ATOM     42  F   UNL     1       2.256 -17.471  21.890  1.00  0.00    -0.207 F 
ATOM     43  F   UNL     1       1.834 -19.499  22.575  1.00  0.00    -0.207 F 
ENDBRANCH  35  37
ENDBRANCH  33  35
ENDBRANCH   4  27
TORSDOF 7
ENDMDL
MODEL 3
REMARK VINA RESULT:   -10.286      6.089     13.082
REMARK INTER + INTRA:         -16.072
REMARK INTER:                 -14.918
REMARK INTRA:                  -1.154
REMARK UNBOUND:                -1.577
REMARK SMILES CN1CCN(C(=O)Cn2cc(Nc3nc4c(N5C[C@H]6CC[C@@H](C5)N6C(=O)[C@@H]5CCC(F)(F)C5)cccn4n3)cn2)CC1
REMARK SMILES IDX 13 1 14 2 15 3 16 4 34 5 35 6 36 7 37 8 38 9 12 10 11 12
REMARK SMILES IDX 9 13 10 14 40 15 39 16 8 17 6 18 2 19 3 20 42 21 4 22 41 23
REMARK SMILES IDX 5 24 7 25 1 26 17 27 18 28 23 29 19 30 22 31 20 32 24 33
REMARK SMILES IDX 21 34 25 35 26 36 27 37 28 38 33 39 29 40 30 41 31 42 32 43
REMARK H PARENT 12 11
ROOT
ATOM      1  C   UNL     1       6.226 -27.898  23.393  1.00  0.00     0.247 A 
ATOM      2  N   UNL     1       6.223 -26.632  22.884  1.00  0.00    -0.190 NA
ATOM      3  C   UNL     1       5.050 -26.533  22.286  1.00  0.00     0.180 A 
ATOM      4  C   UNL     1       4.407 -25.446  21.563  1.00  0.00     0.082 A 
ATOM      5  C   UNL     1       3.152 -25.699  21.105  1.00  0.00     0.031 A 
ATOM      6  C   UNL     1       2.456 -26.959  21.296  1.00  0.00     0.022 A 
ATOM      7  C   UNL     1       3.076 -27.944  21.957  1.00  0.00     0.115 A 
ATOM      8  N   UNL     1       4.358 -27.735  22.448  1.00  0.00    -0.217 N 
ATOM      9  N   UNL     1       5.128 -28.606  23.137  1.00  0.00    -0.127 NA
ENDROOT
BRANCH   1  10
ATOM     10  N   UNL     1       7.326 -28.258  24.083  1.00  0.00    -0.320 N 
ATOM     11  H   UNL     1       7.519 -29.251  24.032  1.00  0.00     0.170 HD
BRANCH  10  12
ATOM     12  C   UNL     1       8.184 -27.480  24.778  1.00  0.00     0.079 A 
ATOM     13  N   UNL     1       9.668 -26.831  26.252  1.00  0.00    -0.261 N 
ATOM     14  C   UNL     1       8.896 -27.896  25.876  1.00  0.00     0.135 A 
ATOM     15  N   UNL     1       9.444 -25.722  25.514  1.00  0.00    -0.179 NA
ATOM     16  C   UNL     1       8.560 -26.133  24.596  1.00  0.00     0.161 A 
BRANCH  13  17
ATOM     17  C   UNL     1      10.548 -26.753  27.407  1.00  0.00     0.244 C 
BRANCH  17  18
ATOM     18  C   UNL     1      11.299 -28.042  27.676  1.00  0.00     0.244 C 
ATOM     19  N   UNL     1      15.009 -28.579  25.666  1.00  0.00    -0.303 NA
ATOM     20  C   UNL     1      14.151 -29.694  26.128  1.00  0.00     0.105 C 
ATOM     21  C   UNL     1      14.194 -27.362  25.473  1.00  0.00     0.105 C 
ATOM     22  C   UNL     1      13.382 -29.341  27.416  1.00  0.00     0.135 C 
ATOM     23  C   UNL     1      13.424 -26.974  26.751  1.00  0.00     0.135 C 
ATOM     24  N   UNL     1      12.626 -28.095  27.260  1.00  0.00    -0.339 N 
ATOM     25  O   UNL     1      10.777 -28.995  28.258  1.00  0.00    -0.273 OA
ATOM     26  C   UNL     1      15.696 -28.940  24.426  1.00  0.00     0.105 C 
ENDBRANCH  17  18
ENDBRANCH  13  17
ENDBRANCH  10  12
ENDBRANCH   1  10
BRANCH   4  27
ATOM     27  N   UNL     1       5.059 -24.208  21.344  1.00  0.00    -0.364 N 
ATOM     28  C   UNL     1       5.663 -23.894  20.010  1.00  0.00     0.141 C 
ATOM     29  C   UNL     1       5.536 -23.353  22.476  1.00  0.00     0.141 C 
ATOM     30  C   UNL     1       5.926 -22.377  19.802  1.00  0.00     0.105 C 
ATOM     31  C   UNL     1       5.772 -21.881  22.052  1.00  0.00     0.105 C 
ATOM     32  C   UNL     1       4.616 -21.589  19.935  1.00  0.00     0.029 C 
ATOM     33  N   UNL     1       6.696 -21.876  20.931  1.00  0.00    -0.333 N 
ATOM     34  C   UNL     1       4.503 -21.276  21.437  1.00  0.00     0.029 C 
BRANCH  33  35
ATOM     35  C   UNL     1       8.043 -21.674  21.081  1.00  0.00     0.226 C 
ATOM     36  O   UNL     1       8.808 -22.608  21.321  1.00  0.00    -0.275 OA
BRANCH  35  37
ATOM     37  C   UNL     1       8.555 -20.249  20.922  1.00  0.00     0.085 C 
ATOM     38  C   UNL     1       8.297 -19.422  22.196  1.00  0.00     0.020 C 
ATOM     39  C   UNL     1       7.856 -19.484  19.789  1.00  0.00     0.090 C 
ATOM     40  C   UNL     1       7.494 -18.201  21.759  1.00  0.00     0.078 C 
ATOM     41  C   UNL     1       7.838 -18.064  20.296  1.00  0.00     0.248 C 
ATOM     42  F   UNL     1       6.964 -17.290  19.633  1.00  0.00    -0.207 F 
ATOM     43  F   UNL     1       9.069 -17.512  20.159  1.00  0.00    -0.207 F 
ENDBRANCH  35  37
ENDBRANCH  33  35
ENDBRANCH   4  27
TORSDOF 7
ENDMDL
MODEL 4
REMARK VINA RESULT:   -10.202      5.046     12.080
REMARK INTER + INTRA:         -15.954
REMARK INTER:                 -14.946
REMARK INTRA:                  -1.008
REMARK UNBOUND:                -1.577
REMARK SMILES CN1CCN(C(=O)Cn2cc(Nc3nc4c(N5C[C@H]6CC[C@@H](C5)N6C(=O)[C@@H]5CCC(F)(F)C5)cccn4n3)cn2)CC1
REMARK SMILES IDX 13 1 14 2 15 3 16 4 34 5 35 6 36 7 37 8 38 9 12 10 11 12
REMARK SMILES IDX 9 13 10 14 40 15 39 16 8 17 6 18 2 19 3 20 42 21 4 22 41 23
REMARK SMILES IDX 5 24 7 25 1 26 17 27 18 28 23 29 19 30 22 31 20 32 24 33
REMARK SMILES IDX 21 34 25 35 26 36 27 37 28 38 33 39 29 40 30 41 31 42 32 43
REMARK H PARENT 12 11
ROOT
ATOM      1  C   UNL     1       6.084 -28.168  23.687  1.00  0.00     0.247 A 
ATOM      2  N   UNL     1       6.207 -26.877  23.264  1.00  0.00    -0.190 NA
ATOM      3  C   UNL     1       5.127 -26.678  22.531  1.00  0.00     0.180 A 
ATOM      4  C   UNL     1       4.634 -25.517  21.805  1.00  0.00     0.082 A 
ATOM      5  C   UNL     1       3.438 -25.673  21.178  1.00  0.00     0.031 A 
ATOM      6  C   UNL     1       2.663 -26.901  21.199  1.00  0.00     0.022 A 
ATOM      7  C   UNL     1       3.146 -27.956  21.868  1.00  0.00     0.115 A 
ATOM      8  N   UNL     1       4.363 -27.847  22.528  1.00  0.00    -0.217 N 
ATOM      9  N   UNL     1       4.995 -28.798  23.251  1.00  0.00    -0.127 NA
ENDROOT
BRANCH   1  10
ATOM     10  N   UNL     1       7.068 -28.627  24.485  1.00  0.00    -0.320 N 
ATOM     11  H   UNL     1       6.995 -29.620  24.673  1.00  0.00     0.170 HD
BRANCH  10  12
ATOM     12  C   UNL     1       8.114 -27.957  25.014  1.00  0.00     0.079 A 
ATOM     13  N   UNL     1       9.976 -27.527  26.084  1.00  0.00    -0.261 N 
ATOM     14  C   UNL     1       9.092 -28.529  25.789  1.00  0.00     0.135 A 
ATOM     15  N   UNL     1       9.592 -26.321  25.612  1.00  0.00    -0.179 NA
ATOM     16  C   UNL     1       8.471 -26.594  24.934  1.00  0.00     0.161 A 
BRANCH  13  17
ATOM     17  C   UNL     1      11.149 -27.618  26.938  1.00  0.00     0.244 C 
BRANCH  17  18
ATOM     18  C   UNL     1      12.201 -26.572  26.626  1.00  0.00     0.244 C 
ATOM     19  N   UNL     1      11.893 -22.850  28.663  1.00  0.00    -0.303 NA
ATOM     20  C   UNL     1      12.541 -23.017  27.342  1.00  0.00     0.105 C 
ATOM     21  C   UNL     1      10.920 -23.939  28.889  1.00  0.00     0.105 C 
ATOM     22  C   UNL     1      13.216 -24.394  27.195  1.00  0.00     0.135 C 
ATOM     23  C   UNL     1      11.570 -25.331  28.765  1.00  0.00     0.135 C 
ATOM     24  N   UNL     1      12.278 -25.482  27.488  1.00  0.00    -0.339 N 
ATOM     25  O   UNL     1      12.973 -26.683  25.672  1.00  0.00    -0.273 OA
ATOM     26  C   UNL     1      11.236 -21.546  28.751  1.00  0.00     0.105 C 
ENDBRANCH  17  18
ENDBRANCH  13  17
ENDBRANCH  10  12
ENDBRANCH   1  10
BRANCH   4  27
ATOM     27  N   UNL     1       5.367 -24.307  21.749  1.00  0.00    -0.364 N 
ATOM     28  C   UNL     1       5.552 -23.474  22.980  1.00  0.00     0.141 C 
ATOM     29  C   UNL     1       5.633 -23.600  20.457  1.00  0.00     0.141 C 
ATOM     30  C   UNL     1       6.719 -22.456  22.859  1.00  0.00     0.105 C 
ATOM     31  C   UNL     1       6.815 -22.601  20.556  1.00  0.00     0.105 C 
ATOM     32  C   UNL     1       8.035 -23.191  22.573  1.00  0.00     0.029 C 
ATOM     33  N   UNL     1       6.536 -21.678  21.642  1.00  0.00    -0.333 N 
ATOM     34  C   UNL     1       8.090 -23.306  21.040  1.00  0.00     0.029 C 
BRANCH  33  35
ATOM     35  C   UNL     1       5.978 -20.443  21.441  1.00  0.00     0.226 C 
ATOM     36  O   UNL     1       6.639 -19.509  20.986  1.00  0.00    -0.275 OA
BRANCH  35  37
ATOM     37  C   UNL     1       4.506 -20.278  21.790  1.00  0.00     0.085 C 
ATOM     38  C   UNL     1       3.619 -20.452  20.543  1.00  0.00     0.020 C 
ATOM     39  C   UNL     1       4.174 -18.882  22.338  1.00  0.00     0.090 C 
ATOM     40  C   UNL     1       2.784 -19.179  20.430  1.00  0.00     0.078 C 
ATOM     41  C   UNL     1       2.769 -18.647  21.842  1.00  0.00     0.248 C 
ATOM     42  F   UNL     1       2.412 -17.354  21.898  1.00  0.00    -0.207 F 
ATOM     43  F   UNL     1       1.891 -19.354  22.594  1.00  0.00    -0.207 F 
ENDBRANCH  35  37
ENDBRANCH  33  35
ENDBRANCH   4  27
TORSDOF 7
ENDMDL
MODEL 5
REMARK VINA RESULT:   -10.122      6.173     12.034
REMARK INTER + INTRA:         -15.841
REMARK INTER:                 -14.360
REMARK INTRA:                  -1.481
REMARK UNBOUND:                -1.577
REMARK SMILES CN1CCN(C(=O)Cn2cc(Nc3nc4c(N5C[C@H]6CC[C@@H](C5)N6C(=O)[C@@H]5CCC(F)(F)C5)cccn4n3)cn2)CC1
REMARK SMILES IDX 13 1 14 2 15 3 16 4 34 5 35 6 36 7 37 8 38 9 12 10 11 12
REMARK SMILES IDX 9 13 10 14 40 15 39 16 8 17 6 18 2 19 3 20 42 21 4 22 41 23
REMARK SMILES IDX 5 24 7 25 1 26 17 27 18 28 23 29 19 30 22 31 20 32 24 33
REMARK SMILES IDX 21 34 25 35 26 36 27 37 28 38 33 39 29 40 30 41 31 42 32 43
REMARK H PARENT 12 11
ROOT
ATOM      1  C   UNL     1       5.901 -28.031  23.534  1.00  0.00     0.247 A 
ATOM      2  N   UNL     1       6.061 -26.739  23.127  1.00  0.00    -0.190 NA
ATOM      3  C   UNL     1       4.975 -26.492  22.419  1.00  0.00     0.180 A 
ATOM      4  C   UNL     1       4.510 -25.303  21.719  1.00  0.00     0.082 A 
ATOM      5  C   UNL     1       3.297 -25.407  21.115  1.00  0.00     0.031 A 
ATOM      6  C   UNL     1       2.479 -26.607  21.135  1.00  0.00     0.022 A 
ATOM      7  C   UNL     1       2.937 -27.688  21.778  1.00  0.00     0.115 A 
ATOM      8  N   UNL     1       4.170 -27.632  22.415  1.00  0.00    -0.217 N 
ATOM      9  N   UNL     1       4.781 -28.616  23.111  1.00  0.00    -0.127 NA
ENDROOT
BRANCH   1  10
ATOM     10  N   UNL     1       6.883 -28.538  24.305  1.00  0.00    -0.320 N 
ATOM     11  H   UNL     1       6.809 -29.540  24.434  1.00  0.00     0.170 HD
BRANCH  10  12
ATOM     12  C   UNL     1       7.928 -27.900  24.875  1.00  0.00     0.079 A 
ATOM     13  N   UNL     1       9.783 -27.534  25.979  1.00  0.00    -0.261 N 
ATOM     14  C   UNL     1       8.897 -28.515  25.629  1.00  0.00     0.135 A 
ATOM     15  N   UNL     1       9.409 -26.303  25.565  1.00  0.00    -0.179 NA
ATOM     16  C   UNL     1       8.293 -26.537  24.865  1.00  0.00     0.161 A 
BRANCH  13  17
ATOM     17  C   UNL     1      10.949 -27.673  26.837  1.00  0.00     0.244 C 
BRANCH  17  18
ATOM     18  C   UNL     1      11.999 -26.606  26.601  1.00  0.00     0.244 C 
ATOM     19  N   UNL     1      11.684 -23.040  28.899  1.00  0.00    -0.303 NA
ATOM     20  C   UNL     1      12.332 -23.111  27.570  1.00  0.00     0.105 C 
ATOM     21  C   UNL     1      10.713 -24.143  29.047  1.00  0.00     0.105 C 
ATOM     22  C   UNL     1      13.010 -24.472  27.325  1.00  0.00     0.135 C 
ATOM     23  C   UNL     1      11.366 -25.522  28.823  1.00  0.00     0.135 C 
ATOM     24  N   UNL     1      12.074 -25.580  27.539  1.00  0.00    -0.339 N 
ATOM     25  O   UNL     1      12.771 -26.647  25.642  1.00  0.00    -0.273 OA
ATOM     26  C   UNL     1      11.025 -21.747  29.081  1.00  0.00     0.105 C 
ENDBRANCH  17  18
ENDBRANCH  13  17
ENDBRANCH  10  12
ENDBRANCH   1  10
BRANCH   4  27
ATOM     27  N   UNL     1       5.285 -24.119  21.666  1.00  0.00    -0.364 N 
ATOM     28  C   UNL     1       6.031 -23.755  20.419  1.00  0.00     0.141 C 
ATOM     29  C   UNL     1       5.733 -23.409  22.906  1.00  0.00     0.141 C 
ATOM     30  C   UNL     1       6.443 -22.258  20.371  1.00  0.00     0.105 C 
ATOM     31  C   UNL     1       6.134 -21.936  22.636  1.00  0.00     0.105 C 
ATOM     32  C   UNL     1       5.200 -21.363  20.468  1.00  0.00     0.029 C 
ATOM     33  N   UNL     1       7.151 -21.927  21.599  1.00  0.00    -0.333 N 
ATOM     34  C   UNL     1       4.983 -21.165  21.977  1.00  0.00     0.029 C 
BRANCH  33  35
ATOM     35  C   UNL     1       8.492 -21.867  21.874  1.00  0.00     0.226 C 
ATOM     36  O   UNL     1       9.325 -22.343  21.103  1.00  0.00    -0.275 OA
BRANCH  35  37
ATOM     37  C   UNL     1       8.908 -21.173  23.163  1.00  0.00     0.085 C 
ATOM     38  C   UNL     1       9.436 -19.753  22.883  1.00  0.00     0.020 C 
ATOM     39  C   UNL     1      10.050 -21.898  23.890  1.00  0.00     0.090 C 
ATOM     40  C   UNL     1      10.838 -19.692  23.481  1.00  0.00     0.078 C 
ATOM     41  C   UNL     1      10.814 -20.770  24.536  1.00  0.00     0.248 C 
ATOM     42  F   UNL     1      12.046 -21.136  24.924  1.00  0.00    -0.207 F 
ATOM     43  F   UNL     1      10.146 -20.331  25.632  1.00  0.00    -0.207 F 
ENDBRANCH  35  37
ENDBRANCH  33  35
ENDBRANCH   4  27
TORSDOF 7
ENDMDL
MODEL 6
REMARK VINA RESULT:   -10.111      4.869     10.383
REMARK INTER + INTRA:         -15.825
REMARK INTER:                 -15.359
REMARK INTRA:                  -0.466
REMARK UNBOUND:                -1.577
REMARK SMILES CN1CCN(C(=O)Cn2cc(Nc3nc4c(N5C[C@H]6CC[C@@H](C5)N6C(=O)[C@@H]5CCC(F)(F)C5)cccn4n3)cn2)CC1
REMARK SMILES IDX 13 1 14 2 15 3 16 4 34 5 35 6 36 7 37 8 38 9 12 10 11 12
REMARK SMILES IDX 9 13 10 14 40 15 39 16 8 17 6 18 2 19 3 20 42 21 4 22 41 23
REMARK SMILES IDX 5 24 7 25 1 26 17 27 18 28 23 29 19 30 22 31 20 32 24 33
REMARK SMILES IDX 21 34 25 35 26 36 27 37 28 38 33 39 29 40 30 41 31 42 32 43
REMARK H PARENT 12 11
ROOT
ATOM      1  C   UNL     1       5.715 -28.272  23.491  1.00  0.00     0.247 A 
ATOM      2  N   UNL     1       5.538 -27.048  22.915  1.00  0.00    -0.190 NA
ATOM      3  C   UNL     1       4.428 -27.184  22.214  1.00  0.00     0.180 A 
ATOM      4  C   UNL     1       3.675 -26.259  21.380  1.00  0.00     0.082 A 
ATOM      5  C   UNL     1       2.533 -26.749  20.830  1.00  0.00     0.031 A 
ATOM      6  C   UNL     1       2.053 -28.106  21.030  1.00  0.00     0.022 A 
ATOM      7  C   UNL     1       2.771 -28.937  21.794  1.00  0.00     0.115 A 
ATOM      8  N   UNL     1       3.945 -28.483  22.381  1.00  0.00    -0.217 N 
ATOM      9  N   UNL     1       4.786 -29.175  23.181  1.00  0.00    -0.127 NA
ENDROOT
BRANCH   1  10
ATOM     10  N   UNL     1       6.790 -28.402  24.292  1.00  0.00    -0.320 N 
ATOM     11  H   UNL     1       6.859 -29.318  24.718  1.00  0.00     0.170 HD
BRANCH  10  12
ATOM     12  C   UNL     1       7.765 -27.505  24.556  1.00  0.00     0.079 A 
ATOM     13  N   UNL     1       8.902 -25.634  24.616  1.00  0.00    -0.261 N 
ATOM     14  C   UNL     1       7.778 -26.212  24.093  1.00  0.00     0.135 A 
ATOM     15  N   UNL     1       9.662 -26.494  25.328  1.00  0.00    -0.179 NA
ATOM     16  C   UNL     1       8.948 -27.626  25.315  1.00  0.00     0.161 A 
BRANCH  13  17
ATOM     17  C   UNL     1       9.394 -24.290  24.361  1.00  0.00     0.244 C 
BRANCH  17  18
ATOM     18  C   UNL     1       9.294 -23.881  22.905  1.00  0.00     0.244 C 
ATOM     19  N   UNL     1       9.107 -19.714  22.072  1.00  0.00    -0.303 NA
ATOM     20  C   UNL     1       8.544 -20.758  21.187  1.00  0.00     0.105 C 
ATOM     21  C   UNL     1       9.203 -20.223  23.456  1.00  0.00     0.105 C 
ATOM     22  C   UNL     1       9.361 -22.064  21.234  1.00  0.00     0.135 C 
ATOM     23  C   UNL     1      10.030 -21.521  23.538  1.00  0.00     0.135 C 
ATOM     24  N   UNL     1       9.525 -22.540  22.611  1.00  0.00    -0.339 N 
ATOM     25  O   UNL     1       9.046 -24.693  22.011  1.00  0.00    -0.273 OA
ATOM     26  C   UNL     1       8.286 -18.504  22.024  1.00  0.00     0.105 C 
ENDBRANCH  17  18
ENDBRANCH  13  17
ENDBRANCH  10  12
ENDBRANCH   1  10
BRANCH   4  27
ATOM     27  N   UNL     1       4.118 -24.933  21.150  1.00  0.00    -0.364 N 
ATOM     28  C   UNL     1       5.271 -24.373  21.925  1.00  0.00     0.141 C 
ATOM     29  C   UNL     1       3.257 -23.916  20.468  1.00  0.00     0.141 C 
ATOM     30  C   UNL     1       5.901 -23.118  21.260  1.00  0.00     0.105 C 
ATOM     31  C   UNL     1       4.074 -22.726  19.904  1.00  0.00     0.105 C 
ATOM     32  C   UNL     1       6.390 -23.458  19.846  1.00  0.00     0.029 C 
ATOM     33  N   UNL     1       4.846 -22.152  20.993  1.00  0.00    -0.333 N 
ATOM     34  C   UNL     1       5.167 -23.216  18.945  1.00  0.00     0.029 C 
BRANCH  33  35
ATOM     35  C   UNL     1       4.426 -21.061  21.706  1.00  0.00     0.226 C 
ATOM     36  O   UNL     1       4.815 -20.860  22.857  1.00  0.00    -0.275 OA
BRANCH  35  37
ATOM     37  C   UNL     1       3.471 -20.100  21.012  1.00  0.00     0.085 C 
ATOM     38  C   UNL     1       4.200 -19.278  19.932  1.00  0.00     0.020 C 
ATOM     39  C   UNL     1       2.861 -19.067  21.971  1.00  0.00     0.090 C 
ATOM     40  C   UNL     1       3.961 -17.810  20.277  1.00  0.00     0.078 C 
ATOM     41  C   UNL     1       2.696 -17.848  21.098  1.00  0.00     0.248 C 
ATOM     42  F   UNL     1       2.514 -16.724  21.811  1.00  0.00    -0.207 F 
ATOM     43  F   UNL     1       1.621 -18.004  20.288  1.00  0.00    -0.207 F 
ENDBRANCH  35  37
ENDBRANCH  33  35
ENDBRANCH   4  27
TORSDOF 7
ENDMDL
MODEL 7
REMARK VINA RESULT:   -10.061      5.972     12.948
REMARK INTER + INTRA:         -15.755
REMARK INTER:                 -14.434
REMARK INTRA:                  -1.321
REMARK UNBOUND:                -1.577
REMARK SMILES CN1CCN(C(=O)Cn2cc(Nc3nc4c(N5C[C@H]6CC[C@@H](C5)N6C(=O)[C@@H]5CCC(F)(F)C5)cccn4n3)cn2)CC1
REMARK SMILES IDX 13 1 14 2 15 3 16 4 34 5 35 6 36 7 37 8 38 9 12 10 11 12
REMARK SMILES IDX 9 13 10 14 40 15 39 16 8 17 6 18 2 19 3 20 42 21 4 22 41 23
REMARK SMILES IDX 5 24 7 25 1 26 17 27 18 28 23 29 19 30 22 31 20 32 24 33
REMARK SMILES IDX 21 34 25 35 26 36 27 37 28 38 33 39 29 40 30 41 31 42 32 43
REMARK H PARENT 12 11
ROOT
ATOM      1  C   UNL     1       6.256 -27.759  23.485  1.00  0.00     0.247 A 
ATOM      2  N   UNL     1       6.312 -26.467  23.052  1.00  0.00    -0.190 NA
ATOM      3  C   UNL     1       5.166 -26.294  22.419  1.00  0.00     0.180 A 
ATOM      4  C   UNL     1       4.585 -25.146  21.739  1.00  0.00     0.082 A 
ATOM      5  C   UNL     1       3.341 -25.328  21.223  1.00  0.00     0.031 A 
ATOM      6  C   UNL     1       2.598 -26.573  21.315  1.00  0.00     0.022 A 
ATOM      7  C   UNL     1       3.161 -27.615  21.939  1.00  0.00     0.115 A 
ATOM      8  N   UNL     1       4.430 -27.479  22.486  1.00  0.00    -0.217 N 
ATOM      9  N   UNL     1       5.145 -28.414  23.150  1.00  0.00    -0.127 NA
ENDROOT
BRANCH   1  10
ATOM     10  N   UNL     1       7.316 -28.196  24.192  1.00  0.00    -0.320 N 
ATOM     11  H   UNL     1       7.396 -29.206  24.205  1.00  0.00     0.170 HD
BRANCH  10  12
ATOM     12  C   UNL     1       8.265 -27.476  24.829  1.00  0.00     0.079 A 
ATOM     13  N   UNL     1       9.791 -26.882  26.283  1.00  0.00    -0.261 N 
ATOM     14  C   UNL     1       8.874 -27.856  26.000  1.00  0.00     0.135 A 
ATOM     15  N   UNL     1       9.763 -25.851  25.410  1.00  0.00    -0.179 NA
ATOM     16  C   UNL     1       8.852 -26.234  24.507  1.00  0.00     0.161 A 
BRANCH  13  17
ATOM     17  C   UNL     1      10.640 -26.795  27.460  1.00  0.00     0.244 C 
BRANCH  17  18
ATOM     18  C   UNL     1      11.392 -28.079  27.752  1.00  0.00     0.244 C 
ATOM     19  N   UNL     1      15.083 -28.666  25.722  1.00  0.00    -0.303 NA
ATOM     20  C   UNL     1      14.229 -29.769  26.217  1.00  0.00     0.105 C 
ATOM     21  C   UNL     1      14.268 -27.453  25.509  1.00  0.00     0.105 C 
ATOM     22  C   UNL     1      13.472 -29.387  27.503  1.00  0.00     0.135 C 
ATOM     23  C   UNL     1      13.510 -27.035  26.785  1.00  0.00     0.135 C 
ATOM     24  N   UNL     1      12.715 -28.143  27.326  1.00  0.00    -0.339 N 
ATOM     25  O   UNL     1      10.874 -29.018  28.360  1.00  0.00    -0.273 OA
ATOM     26  C   UNL     1      15.759 -29.056  24.484  1.00  0.00     0.105 C 
ENDBRANCH  17  18
ENDBRANCH  13  17
ENDBRANCH  10  12
ENDBRANCH   1  10
BRANCH   4  27
ATOM     27  N   UNL     1       5.285 -23.921  21.616  1.00  0.00    -0.364 N 
ATOM     28  C   UNL     1       5.959 -23.557  20.329  1.00  0.00     0.141 C 
ATOM     29  C   UNL     1       5.736 -23.142  22.812  1.00  0.00     0.141 C 
ATOM     30  C   UNL     1       6.278 -22.041  20.215  1.00  0.00     0.105 C 
ATOM     31  C   UNL     1       6.036 -21.658  22.479  1.00  0.00     0.105 C 
ATOM     32  C   UNL     1       4.988 -21.218  20.331  1.00  0.00     0.029 C 
ATOM     33  N   UNL     1       7.011 -21.626  21.402  1.00  0.00    -0.333 N 
ATOM     34  C   UNL     1       4.816 -20.981  21.841  1.00  0.00     0.029 C 
BRANCH  33  35
ATOM     35  C   UNL     1       8.355 -21.476  21.621  1.00  0.00     0.226 C 
ATOM     36  O   UNL     1       9.177 -21.705  20.734  1.00  0.00    -0.275 OA
BRANCH  35  37
ATOM     37  C   UNL     1       8.787 -21.001  23.001  1.00  0.00     0.085 C 
ATOM     38  C   UNL     1       9.532 -19.656  22.915  1.00  0.00     0.020 C 
ATOM     39  C   UNL     1       9.764 -21.968  23.687  1.00  0.00     0.090 C 
ATOM     40  C   UNL     1      10.889 -19.874  23.578  1.00  0.00     0.078 C 
ATOM     41  C   UNL     1      10.643 -21.046  24.496  1.00  0.00     0.248 C 
ATOM     42  F   UNL     1      11.783 -21.636  24.891  1.00  0.00    -0.207 F 
ATOM     43  F   UNL     1       9.980 -20.636  25.605  1.00  0.00    -0.207 F 
ENDBRANCH  35  37
ENDBRANCH  33  35
ENDBRANCH   4  27
TORSDOF 7
ENDMDL
MODEL 8
REMARK VINA RESULT:    -9.924      6.221     12.099
REMARK INTER + INTRA:         -15.562
REMARK INTER:                 -14.346
REMARK INTRA:                  -1.216
REMARK UNBOUND:                -1.577
REMARK SMILES CN1CCN(C(=O)Cn2cc(Nc3nc4c(N5C[C@H]6CC[C@@H](C5)N6C(=O)[C@@H]5CCC(F)(F)C5)cccn4n3)cn2)CC1
REMARK SMILES IDX 13 1 14 2 15 3 16 4 34 5 35 6 36 7 37 8 38 9 12 10 11 12
REMARK SMILES IDX 9 13 10 14 40 15 39 16 8 17 6 18 2 19 3 20 42 21 4 22 41 23
REMARK SMILES IDX 5 24 7 25 1 26 17 27 18 28 23 29 19 30 22 31 20 32 24 33
REMARK SMILES IDX 21 34 25 35 26 36 27 37 28 38 33 39 29 40 30 41 31 42 32 43
REMARK H PARENT 12 11
ROOT
ATOM      1  C   UNL     1       5.910 -28.194  23.453  1.00  0.00     0.247 A 
ATOM      2  N   UNL     1       5.991 -26.923  22.963  1.00  0.00    -0.190 NA
ATOM      3  C   UNL     1       4.853 -26.761  22.313  1.00  0.00     0.180 A 
ATOM      4  C   UNL     1       4.296 -25.635  21.576  1.00  0.00     0.082 A 
ATOM      5  C   UNL     1       3.054 -25.821  21.059  1.00  0.00     0.031 A 
ATOM      6  C   UNL     1       2.290 -27.048  21.200  1.00  0.00     0.022 A 
ATOM      7  C   UNL     1       2.831 -28.071  21.874  1.00  0.00     0.115 A 
ATOM      8  N   UNL     1       4.098 -27.930  22.426  1.00  0.00    -0.217 N 
ATOM      9  N   UNL     1       4.792 -28.845  23.137  1.00  0.00    -0.127 NA
ENDROOT
BRANCH   1  10
ATOM     10  N   UNL     1       6.958 -28.615  24.188  1.00  0.00    -0.320 N 
ATOM     11  H   UNL     1       7.016 -29.624  24.255  1.00  0.00     0.170 HD
BRANCH  10  12
ATOM     12  C   UNL     1       7.919 -27.883  24.792  1.00  0.00     0.079 A 
ATOM     13  N   UNL     1       9.688 -27.345  25.966  1.00  0.00    -0.261 N 
ATOM     14  C   UNL     1       8.905 -28.403  25.592  1.00  0.00     0.135 A 
ATOM     15  N   UNL     1       9.226 -26.156  25.521  1.00  0.00    -0.179 NA
ATOM     16  C   UNL     1       8.164 -26.493  24.779  1.00  0.00     0.161 A 
BRANCH  13  17
ATOM     17  C   UNL     1      10.824 -27.375  26.873  1.00  0.00     0.244 C 
BRANCH  17  18
ATOM     18  C   UNL     1      11.891 -26.354  26.530  1.00  0.00     0.244 C 
ATOM     19  N   UNL     1      11.836 -22.694  28.696  1.00  0.00    -0.303 NA
ATOM     20  C   UNL     1      12.398 -22.838  27.334  1.00  0.00     0.105 C 
ATOM     21  C   UNL     1      10.841 -23.756  28.947  1.00  0.00     0.105 C 
ATOM     22  C   UNL     1      13.015 -24.231  27.105  1.00  0.00     0.135 C 
ATOM     23  C   UNL     1      11.433 -25.164  28.741  1.00  0.00     0.135 C 
ATOM     24  N   UNL     1      12.058 -25.296  27.420  1.00  0.00    -0.339 N 
ATOM     25  O   UNL     1      12.601 -26.459  25.528  1.00  0.00    -0.273 OA
ATOM     26  C   UNL     1      11.232 -21.372  28.865  1.00  0.00     0.105 C 
ENDBRANCH  17  18
ENDBRANCH  13  17
ENDBRANCH  10  12
ENDBRANCH   1  10
BRANCH   4  27
ATOM     27  N   UNL     1       5.016 -24.428  21.405  1.00  0.00    -0.364 N 
ATOM     28  C   UNL     1       5.653 -24.104  20.089  1.00  0.00     0.141 C 
ATOM     29  C   UNL     1       5.525 -23.636  22.570  1.00  0.00     0.141 C 
ATOM     30  C   UNL     1       5.999 -22.597  19.933  1.00  0.00     0.105 C 
ATOM     31  C   UNL     1       5.844 -22.166  22.196  1.00  0.00     0.105 C 
ATOM     32  C   UNL     1       4.731 -21.745  20.078  1.00  0.00     0.029 C 
ATOM     33  N   UNL     1       6.781 -22.175  21.086  1.00  0.00    -0.333 N 
ATOM     34  C   UNL     1       4.617 -21.475  21.587  1.00  0.00     0.029 C 
BRANCH  33  35
ATOM     35  C   UNL     1       8.135 -22.050  21.256  1.00  0.00     0.226 C 
ATOM     36  O   UNL     1       8.841 -23.027  21.505  1.00  0.00    -0.275 OA
BRANCH  35  37
ATOM     37  C   UNL     1       8.730 -20.657  21.110  1.00  0.00     0.085 C 
ATOM     38  C   UNL     1       8.401 -19.783  22.335  1.00  0.00     0.020 C 
ATOM     39  C   UNL     1       8.173 -19.893  19.900  1.00  0.00     0.090 C 
ATOM     40  C   UNL     1       7.702 -18.537  21.797  1.00  0.00     0.078 C 
ATOM     41  C   UNL     1       8.182 -18.459  20.368  1.00  0.00     0.248 C 
ATOM     42  F   UNL     1       7.410 -17.664  19.611  1.00  0.00    -0.207 F 
ATOM     43  F   UNL     1       9.446 -17.971  20.330  1.00  0.00    -0.207 F 
ENDBRANCH  35  37
ENDBRANCH  33  35
ENDBRANCH   4  27
TORSDOF 7
ENDMDL
MODEL 9
REMARK VINA RESULT:    -5.329      4.222     10.286
REMARK INTER + INTRA:          -9.086
REMARK INTER:                  -7.510
REMARK INTRA:                  -1.576
REMARK UNBOUND:                -1.577
REMARK SMILES CN1CCN(C(=O)Cn2cc(Nc3nc4c(N5C[C@H]6CC[C@@H](C5)N6C(=O)[C@@H]5CCC(F)(F)C5)cccn4n3)cn2)CC1
REMARK SMILES IDX 13 1 14 2 15 3 16 4 34 5 35 6 36 7 37 8 38 9 12 10 11 12
REMARK SMILES IDX 9 13 10 14 40 15 39 16 8 17 6 18 2 19 3 20 42 21 4 22 41 23
REMARK SMILES IDX 5 24 7 25 1 26 17 27 18 28 23 29 19 30 22 31 20 32 24 33
REMARK SMILES IDX 21 34 25 35 26 36 27 37 28 38 33 39 29 40 30 41 31 42 32 43
REMARK H PARENT 12 11
ROOT
ATOM      1  C   UNL     1       7.863 -17.970  20.891  1.00  0.00     0.247 A 
ATOM      2  N   UNL     1       6.569 -17.696  20.560  1.00  0.00    -0.190 NA
ATOM      3  C   UNL     1       6.647 -16.572  19.871  1.00  0.00     0.180 A 
ATOM      4  C   UNL     1       5.641 -15.750  19.216  1.00  0.00     0.082 A 
ATOM      5  C   UNL     1       6.105 -14.658  18.555  1.00  0.00     0.031 A 
ATOM      6  C   UNL     1       7.507 -14.287  18.481  1.00  0.00     0.022 A 
ATOM      7  C   UNL     1       8.410 -15.057  19.102  1.00  0.00     0.115 A 
ATOM      8  N   UNL     1       7.987 -16.187  19.789  1.00  0.00    -0.217 N 
ATOM      9  N   UNL     1       8.752 -17.075  20.462  1.00  0.00    -0.127 NA
ENDROOT
BRANCH   1  10
ATOM     10  N   UNL     1       8.070 -19.099  21.597  1.00  0.00    -0.320 N 
ATOM     11  H   UNL     1       8.881 -19.046  22.201  1.00  0.00     0.170 HD
BRANCH  10  12
ATOM     12  C   UNL     1       7.336 -20.232  21.617  1.00  0.00     0.079 A 
ATOM     13  N   UNL     1       6.602 -22.238  21.134  1.00  0.00    -0.261 N 
ATOM     14  C   UNL     1       7.507 -21.285  20.753  1.00  0.00     0.135 A 
ATOM     15  N   UNL     1       5.800 -21.839  22.145  1.00  0.00    -0.179 NA
ATOM     16  C   UNL     1       6.273 -20.627  22.457  1.00  0.00     0.161 A 
BRANCH  13  17
ATOM     17  C   UNL     1       6.348 -23.513  20.482  1.00  0.00     0.244 C 
BRANCH  17  18
ATOM     18  C   UNL     1       4.889 -23.922  20.514  1.00  0.00     0.244 C 
ATOM     19  N   UNL     1       3.946 -27.583  22.464  1.00  0.00    -0.303 NA
ATOM     20  C   UNL     1       3.127 -26.989  21.384  1.00  0.00     0.105 C 
ATOM     21  C   UNL     1       5.337 -27.091  22.371  1.00  0.00     0.105 C 
ATOM     22  C   UNL     1       3.165 -25.448  21.406  1.00  0.00     0.135 C 
ATOM     23  C   UNL     1       5.409 -25.552  22.407  1.00  0.00     0.135 C 
ATOM     24  N   UNL     1       4.543 -24.949  21.387  1.00  0.00    -0.339 N 
ATOM     25  O   UNL     1       4.036 -23.362  19.822  1.00  0.00    -0.273 OA
ATOM     26  C   UNL     1       3.911 -29.044  22.389  1.00  0.00     0.105 C 
ENDBRANCH  17  18
ENDBRANCH  13  17
ENDBRANCH  10  12
ENDBRANCH   1  10
BRANCH   4  27
ATOM     27  N   UNL     1       4.263 -16.071  19.277  1.00  0.00    -0.364 N 
ATOM     28  C   UNL     1       3.655 -17.004  18.276  1.00  0.00     0.141 C 
ATOM     29  C   UNL     1       3.285 -15.227  20.035  1.00  0.00     0.141 C 
ATOM     30  C   UNL     1       2.291 -17.589  18.736  1.00  0.00     0.105 C 
ATOM     31  C   UNL     1       1.975 -15.986  20.367  1.00  0.00     0.105 C 
ATOM     32  C   UNL     1       2.460 -18.347  20.060  1.00  0.00     0.029 C 
ATOM     33  N   UNL     1       1.418 -16.492  19.124  1.00  0.00    -0.333 N 
ATOM     34  C   UNL     1       2.270 -17.275  21.146  1.00  0.00     0.029 C 
BRANCH  33  35
ATOM     35  C   UNL     1       0.438 -15.834  18.429  1.00  0.00     0.226 C 
ATOM     36  O   UNL     1       0.478 -15.742  17.202  1.00  0.00    -0.275 OA
BRANCH  35  37
ATOM     37  C   UNL     1      -0.707 -15.236  19.233  1.00  0.00     0.085 C 
ATOM     38  C   UNL     1      -1.382 -16.304  20.114  1.00  0.00     0.020 C 
ATOM     39  C   UNL     1      -1.826 -14.667  18.349  1.00  0.00     0.090 C 
ATOM     40  C   UNL     1      -2.861 -16.296  19.740  1.00  0.00     0.078 C 
ATOM     41  C   UNL     1      -3.067 -14.914  19.170  1.00  0.00     0.248 C 
ATOM     42  F   UNL     1      -4.193 -14.822  18.443  1.00  0.00    -0.207 F 
ATOM     43  F   UNL     1      -3.144 -14.005  20.172  1.00  0.00    -0.207 F 
ENDBRANCH  35  37
ENDBRANCH  33  35
ENDBRANCH   4  27
TORSDOF 7
ENDMDL
