MODEL 8
REMARK VINA RESULT:    -9.608      4.583     10.742
REMARK INTER + INTRA:         -13.173
REMARK INTER:                 -12.297
REMARK INTRA:                  -0.875
REMARK UNBOUND:                -0.194
REMARK SMILES O=C(NS(=O)(=O)c1ccc(Oc2ccccc2)cc1)c1cccc(-c2cc(Cl)cc(Cl)c2)c1
REMARK SMILES IDX 1 1 2 2 3 3 20 5 21 6 33 7 22 8 24 9 23 10 25 11 26 12 32 13
REMARK SMILES IDX 27 14 30 15 29 16 28 17 31 18 4 19 5 20 6 21 7 22 8 23 19 24
REMARK SMILES IDX 9 25 18 26 10 27 11 28 12 29 13 30 17 31 14 32 16 33 15 34
REMARK H PARENT 3 4
ROOT
ATOM      1  O   UNL     1     -16.251   3.485  23.683  1.00  0.00    -0.268 OA
ATOM      2  C   UNL     1     -15.160   3.814  23.245  1.00  0.00     0.265 C 
ATOM      3  N   UNL     1     -14.882   5.090  22.747  1.00  0.00    -0.245 N 
ATOM      4  H   UNL     1     -14.001   5.335  22.313  1.00  0.00     0.183 HD
ENDROOT
BRANCH   2   5
ATOM      5  C   UNL     1     -14.027   2.844  23.232  1.00  0.00     0.041 A 
ATOM      6  C   UNL     1     -12.769   3.131  23.774  1.00  0.00     0.014 A 
ATOM      7  C   UNL     1     -14.252   1.588  22.641  1.00  0.00     0.022 A 
ATOM      8  C   UNL     1     -11.752   2.178  23.713  1.00  0.00     0.001 A 
ATOM      9  C   UNL     1     -13.238   0.617  22.572  1.00  0.00    -0.018 A 
ATOM     10  C   UNL     1     -11.984   0.937  23.116  1.00  0.00     0.009 A 
BRANCH   9  11
ATOM     11  C   UNL     1     -13.485  -0.696  21.951  1.00  0.00    -0.015 A 
ATOM     12  C   UNL     1     -13.815  -1.815  22.734  1.00  0.00     0.029 A 
ATOM     13  C   UNL     1     -13.400  -0.866  20.559  1.00  0.00     0.029 A 
ATOM     14  C   UNL     1     -14.050  -3.058  22.139  1.00  0.00     0.043 A 
ATOM     15  C   UNL     1     -13.636  -2.114  19.977  1.00  0.00     0.043 A 
ATOM     16  C   UNL     1     -13.961  -3.215  20.761  1.00  0.00     0.041 A 
ATOM     17  Cl  UNL     1     -14.452  -4.409  23.127  1.00  0.00    -0.084 Cl
ATOM     18  Cl  UNL     1     -13.516  -2.292  18.269  1.00  0.00    -0.084 Cl
ENDBRANCH   9  11
ENDBRANCH   2   5
BRANCH   3  19
ATOM     19  S   UNL     1     -15.991   6.324  22.621  1.00  0.00     0.264 S 
ATOM     20  O   UNL     1     -15.251   7.432  22.049  1.00  0.00    -0.201 OA
ATOM     21  O   UNL     1     -17.194   5.836  21.987  1.00  0.00    -0.201 OA
BRANCH  19  22
ATOM     22  C   UNL     1     -16.336   6.735  24.312  1.00  0.00     0.088 A 
ATOM     23  C   UNL     1     -17.662   6.823  24.746  1.00  0.00     0.026 A 
ATOM     24  C   UNL     1     -15.280   7.012  25.187  1.00  0.00     0.026 A 
ATOM     25  C   UNL     1     -17.933   7.166  26.072  1.00  0.00     0.048 A 
ATOM     26  C   UNL     1     -15.556   7.357  26.510  1.00  0.00     0.048 A 
ATOM     27  C   UNL     1     -16.881   7.449  26.947  1.00  0.00     0.127 A 
BRANCH  27  28
ATOM     28  O   UNL     1     -17.074   7.757  28.275  1.00  0.00    -0.457 OA
BRANCH  28  29
ATOM     29  C   UNL     1     -16.150   8.585  28.870  1.00  0.00     0.127 A 
ATOM     30  C   UNL     1     -16.162   9.929  28.496  1.00  0.00     0.047 A 
ATOM     31  C   UNL     1     -15.276   8.137  29.863  1.00  0.00     0.047 A 
ATOM     32  C   UNL     1     -15.269  10.822  29.088  1.00  0.00     0.004 A 
ATOM     33  C   UNL     1     -14.385   9.033  30.456  1.00  0.00     0.004 A 
ATOM     34  C   UNL     1     -14.380  10.373  30.065  1.00  0.00     0.000 A 
ENDBRANCH  28  29
ENDBRANCH  27  28
ENDBRANCH  19  22
ENDBRANCH   3  19
TORSDOF 6
ENDMDL
