MODEL 1
REMARK VINA RESULT:   -10.692      0.000      0.000
REMARK INTER + INTRA:         -18.795
REMARK INTER:                 -17.256
REMARK INTRA:                  -1.539
REMARK UNBOUND:                -1.539
REMARK SMILES CC(C)(O)CC(=O)NCCn1ccc2ncnc(Nc3ccc(Oc4cccc(C(F)(F)F)c4)c(Cl)c3)c21
REMARK SMILES IDX 11 1 12 2 13 3 14 4 15 5 16 6 17 7 18 8 38 9 10 10 9 11 8 12
REMARK SMILES IDX 6 13 7 14 5 16 2 17 1 18 3 19 4 20 19 22 20 24 37 25 21 26
REMARK SMILES IDX 35 27 22 28 23 29 36 30 24 31 25 32 34 33 26 34 29 35 27 36
REMARK SMILES IDX 28 37 30 38 31 39 32 40 33 41
REMARK H PARENT 8 15 4 21 19 23
ROOT
ATOM      1  N   UNL     1      11.443  40.485   8.951  1.00  0.00    -0.341 N 
ATOM      2  C   UNL     1      10.749  41.107   7.934  1.00  0.00     0.088 A 
ATOM      3  C   UNL     1       9.416  40.756   7.972  1.00  0.00     0.048 A 
ATOM      4  C   UNL     1       9.266  39.880   9.088  1.00  0.00     0.094 A 
ATOM      5  N   UNL     1       8.175  39.268   9.561  1.00  0.00    -0.235 NA
ATOM      6  C   UNL     1       8.377  38.498  10.660  1.00  0.00     0.225 A 
ATOM      7  N   UNL     1       9.546  38.296  11.313  1.00  0.00    -0.217 NA
ATOM      8  C   UNL     1      10.663  38.916  10.848  1.00  0.00     0.158 A 
ATOM      9  C   UNL     1      10.549  39.728   9.702  1.00  0.00     0.110 A 
ENDROOT
BRANCH   1  10
ATOM     10  C   UNL     1      12.870  40.665   9.211  1.00  0.00     0.143 C 
BRANCH  10  11
ATOM     11  C   UNL     1      13.404  42.015   8.667  1.00  0.00     0.137 C 
BRANCH  11  12
ATOM     12  N   UNL     1      14.794  41.987   8.221  1.00  0.00    -0.354 N 
ATOM     13  C   UNL     1      15.196  41.555   7.014  1.00  0.00     0.222 C 
ATOM     14  O   UNL     1      14.414  41.130   6.160  1.00  0.00    -0.275 OA
ATOM     15  H   UNL     1      15.488  42.305   8.882  1.00  0.00     0.163 HD
BRANCH  13  16
ATOM     16  C   UNL     1      16.715  41.600   6.750  1.00  0.00     0.134 C 
BRANCH  16  17
ATOM     17  C   UNL     1      17.492  40.247   6.766  1.00  0.00     0.068 C 
ATOM     18  C   UNL     1      17.576  39.710   8.210  1.00  0.00     0.042 C 
ATOM     19  C   UNL     1      18.911  40.358   6.164  1.00  0.00     0.042 C 
BRANCH  17  20
ATOM     20  O   UNL     1      16.779  39.269   6.028  1.00  0.00    -0.390 OA
ATOM     21  H   UNL     1      15.875  39.575   5.918  1.00  0.00     0.211 HD
ENDBRANCH  17  20
ENDBRANCH  16  17
ENDBRANCH  13  16
ENDBRANCH  11  12
ENDBRANCH  10  11
ENDBRANCH   1  10
BRANCH   8  22
ATOM     22  N   UNL     1      11.894  38.717  11.497  1.00  0.00    -0.338 N 
ATOM     23  H   UNL     1      12.300  39.574  11.841  1.00  0.00     0.168 HD
BRANCH  22  24
ATOM     24  C   UNL     1      12.676  37.583  11.780  1.00  0.00     0.041 A 
ATOM     25  C   UNL     1      13.724  37.293  10.903  1.00  0.00     0.050 A 
ATOM     26  C   UNL     1      12.480  36.758  12.897  1.00  0.00     0.030 A 
ATOM     27  C   UNL     1      14.552  36.189  11.115  1.00  0.00     0.085 A 
ATOM     28  C   UNL     1      13.304  35.654  13.113  1.00  0.00     0.051 A 
ATOM     29  C   UNL     1      14.338  35.361  12.222  1.00  0.00     0.146 A 
ATOM     30  Cl  UNL     1      15.829  35.859   9.999  1.00  0.00    -0.080 Cl
BRANCH  29  31
ATOM     31  O   UNL     1      15.144  34.269  12.445  1.00  0.00    -0.456 OA
BRANCH  31  32
ATOM     32  C   UNL     1      16.099  34.284  13.444  1.00  0.00     0.128 A 
ATOM     33  C   UNL     1      15.643  34.397  14.759  1.00  0.00     0.060 A 
ATOM     34  C   UNL     1      17.483  34.208  13.211  1.00  0.00     0.047 A 
ATOM     35  C   UNL     1      16.536  34.431  15.839  1.00  0.00     0.059 A 
ATOM     36  C   UNL     1      18.380  34.239  14.276  1.00  0.00     0.004 A 
ATOM     37  C   UNL     1      17.911  34.348  15.585  1.00  0.00     0.013 A 
BRANCH  35  38
ATOM     38  C   UNL     1      15.999  34.559  17.263  1.00  0.00     0.416 C 
ATOM     39  F   UNL     1      15.075  33.625  17.492  1.00  0.00    -0.166 F 
ATOM     40  F   UNL     1      17.001  34.391  18.127  1.00  0.00    -0.166 F 
ATOM     41  F   UNL     1      15.447  35.751  17.492  1.00  0.00    -0.166 F 
ENDBRANCH  35  38
ENDBRANCH  31  32
ENDBRANCH  29  31
ENDBRANCH  22  24
ENDBRANCH   8  22
TORSDOF 11
ENDMDL
MODEL 2
REMARK VINA RESULT:   -10.208      5.127      7.718
REMARK INTER + INTRA:         -18.013
REMARK INTER:                 -15.836
REMARK INTRA:                  -2.177
REMARK UNBOUND:                -1.539
REMARK SMILES CC(C)(O)CC(=O)NCCn1ccc2ncnc(Nc3ccc(Oc4cccc(C(F)(F)F)c4)c(Cl)c3)c21
REMARK SMILES IDX 11 1 12 2 13 3 14 4 15 5 16 6 17 7 18 8 38 9 10 10 9 11 8 12
REMARK SMILES IDX 6 13 7 14 5 16 2 17 1 18 3 19 4 20 19 22 20 24 37 25 21 26
REMARK SMILES IDX 35 27 22 28 23 29 36 30 24 31 25 32 34 33 26 34 29 35 27 36
REMARK SMILES IDX 28 37 30 38 31 39 32 40 33 41
REMARK H PARENT 8 15 4 21 19 23
ROOT
ATOM      1  N   UNL     1      13.333  39.055   9.101  1.00  0.00    -0.341 N 
ATOM      2  C   UNL     1      12.770  40.263   8.746  1.00  0.00     0.088 A 
ATOM      3  C   UNL     1      13.748  41.163   8.377  1.00  0.00     0.048 A 
ATOM      4  C   UNL     1      14.990  40.470   8.491  1.00  0.00     0.094 A 
ATOM      5  N   UNL     1      16.236  40.890   8.246  1.00  0.00    -0.235 NA
ATOM      6  C   UNL     1      17.207  39.965   8.449  1.00  0.00     0.225 A 
ATOM      7  N   UNL     1      17.044  38.686   8.864  1.00  0.00    -0.217 NA
ATOM      8  C   UNL     1      15.783  38.242   9.113  1.00  0.00     0.158 A 
ATOM      9  C   UNL     1      14.712  39.140   8.937  1.00  0.00     0.110 A 
ENDROOT
BRANCH   1  10
ATOM     10  C   UNL     1      12.571  37.877   9.515  1.00  0.00     0.143 C 
BRANCH  10  11
ATOM     11  C   UNL     1      12.201  37.912  11.020  1.00  0.00     0.137 C 
BRANCH  11  12
ATOM     12  N   UNL     1      13.264  37.475  11.920  1.00  0.00    -0.354 N 
ATOM     13  C   UNL     1      13.229  36.343  12.644  1.00  0.00     0.222 C 
ATOM     14  O   UNL     1      12.278  35.560  12.618  1.00  0.00    -0.275 OA
ATOM     15  H   UNL     1      14.066  38.083  12.002  1.00  0.00     0.163 HD
BRANCH  13  16
ATOM     16  C   UNL     1      14.454  36.076  13.542  1.00  0.00     0.134 C 
BRANCH  16  17
ATOM     17  C   UNL     1      14.623  34.640  14.128  1.00  0.00     0.068 C 
ATOM     18  C   UNL     1      13.682  34.456  15.338  1.00  0.00     0.042 C 
ATOM     19  C   UNL     1      16.078  34.322  14.542  1.00  0.00     0.042 C 
BRANCH  17  20
ATOM     20  O   UNL     1      14.218  33.675  13.172  1.00  0.00    -0.390 OA
ATOM     21  H   UNL     1      13.541  33.122  13.570  1.00  0.00     0.211 HD
ENDBRANCH  17  20
ENDBRANCH  16  17
ENDBRANCH  13  16
ENDBRANCH  11  12
ENDBRANCH  10  11
ENDBRANCH   1  10
BRANCH   8  22
ATOM     22  N   UNL     1      15.581  36.923   9.555  1.00  0.00    -0.338 N 
ATOM     23  H   UNL     1      14.765  36.825  10.140  1.00  0.00     0.168 HD
BRANCH  22  24
ATOM     24  C   UNL     1      16.262  35.710   9.350  1.00  0.00     0.041 A 
ATOM     25  C   UNL     1      16.324  34.821  10.427  1.00  0.00     0.050 A 
ATOM     26  C   UNL     1      16.848  35.339   8.131  1.00  0.00     0.030 A 
ATOM     27  C   UNL     1      16.975  33.593  10.305  1.00  0.00     0.085 A 
ATOM     28  C   UNL     1      17.501  34.112   8.006  1.00  0.00     0.051 A 
ATOM     29  C   UNL     1      17.574  33.238   9.091  1.00  0.00     0.146 A 
ATOM     30  Cl  UNL     1      17.039  32.528  11.665  1.00  0.00    -0.080 Cl
BRANCH  29  31
ATOM     31  O   UNL     1      18.220  32.032   8.955  1.00  0.00    -0.456 OA
BRANCH  31  32
ATOM     32  C   UNL     1      17.841  31.129   7.980  1.00  0.00     0.128 A 
ATOM     33  C   UNL     1      16.514  30.694   7.997  1.00  0.00     0.060 A 
ATOM     34  C   UNL     1      18.708  30.622   6.997  1.00  0.00     0.047 A 
ATOM     35  C   UNL     1      16.038  29.772   7.054  1.00  0.00     0.059 A 
ATOM     36  C   UNL     1      18.246  29.706   6.054  1.00  0.00     0.004 A 
ATOM     37  C   UNL     1      16.918  29.283   6.080  1.00  0.00     0.013 A 
BRANCH  35  38
ATOM     38  C   UNL     1      14.580  29.318   7.107  1.00  0.00     0.416 C 
ATOM     39  F   UNL     1      14.282  28.602   6.023  1.00  0.00    -0.166 F 
ATOM     40  F   UNL     1      14.397  28.558   8.188  1.00  0.00    -0.166 F 
ATOM     41  F   UNL     1      13.732  30.345   7.171  1.00  0.00    -0.166 F 
ENDBRANCH  35  38
ENDBRANCH  31  32
ENDBRANCH  29  31
ENDBRANCH  22  24
ENDBRANCH   8  22
TORSDOF 11
ENDMDL
MODEL 3
REMARK VINA RESULT:   -10.187      5.311      6.523
REMARK INTER + INTRA:         -17.978
REMARK INTER:                 -15.713
REMARK INTRA:                  -2.266
REMARK UNBOUND:                -1.539
REMARK SMILES CC(C)(O)CC(=O)NCCn1ccc2ncnc(Nc3ccc(Oc4cccc(C(F)(F)F)c4)c(Cl)c3)c21
REMARK SMILES IDX 11 1 12 2 13 3 14 4 15 5 16 6 17 7 18 8 38 9 10 10 9 11 8 12
REMARK SMILES IDX 6 13 7 14 5 16 2 17 1 18 3 19 4 20 19 22 20 24 37 25 21 26
REMARK SMILES IDX 35 27 22 28 23 29 36 30 24 31 25 32 34 33 26 34 29 35 27 36
REMARK SMILES IDX 28 37 30 38 31 39 32 40 33 41
REMARK H PARENT 8 15 4 21 19 23
ROOT
ATOM      1  N   UNL     1      15.172  40.274   8.444  1.00  0.00    -0.341 N 
ATOM      2  C   UNL     1      14.333  41.347   8.220  1.00  0.00     0.088 A 
ATOM      3  C   UNL     1      13.033  41.021   8.544  1.00  0.00     0.048 A 
ATOM      4  C   UNL     1      13.065  39.675   9.017  1.00  0.00     0.094 A 
ATOM      5  N   UNL     1      12.075  38.894   9.459  1.00  0.00    -0.235 NA
ATOM      6  C   UNL     1      12.450  37.649   9.847  1.00  0.00     0.225 A 
ATOM      7  N   UNL     1      13.702  37.132   9.834  1.00  0.00    -0.217 NA
ATOM      8  C   UNL     1      14.722  37.915   9.391  1.00  0.00     0.158 A 
ATOM      9  C   UNL     1      14.421  39.222   8.958  1.00  0.00     0.110 A 
ENDROOT
BRANCH   1  10
ATOM     10  C   UNL     1      16.618  40.295   8.229  1.00  0.00     0.143 C 
BRANCH  10  11
ATOM     11  C   UNL     1      16.995  40.127   6.735  1.00  0.00     0.137 C 
BRANCH  11  12
ATOM     12  N   UNL     1      17.706  38.891   6.420  1.00  0.00    -0.354 N 
ATOM     13  C   UNL     1      18.953  38.838   5.922  1.00  0.00     0.222 C 
ATOM     14  O   UNL     1      19.620  39.844   5.677  1.00  0.00    -0.275 OA
ATOM     15  H   UNL     1      17.206  38.028   6.581  1.00  0.00     0.163 HD
BRANCH  13  16
ATOM     16  C   UNL     1      19.513  37.426   5.651  1.00  0.00     0.134 C 
BRANCH  16  17
ATOM     17  C   UNL     1      20.832  37.019   6.377  1.00  0.00     0.068 C 
ATOM     18  C   UNL     1      21.092  35.511   6.184  1.00  0.00     0.042 C 
ATOM     19  C   UNL     1      20.822  37.361   7.885  1.00  0.00     0.042 C 
BRANCH  17  20
ATOM     20  O   UNL     1      21.937  37.682   5.786  1.00  0.00    -0.390 OA
ATOM     21  H   UNL     1      21.772  38.629   5.817  1.00  0.00     0.211 HD
ENDBRANCH  17  20
ENDBRANCH  16  17
ENDBRANCH  13  16
ENDBRANCH  11  12
ENDBRANCH  10  11
ENDBRANCH   1  10
BRANCH   8  22
ATOM     22  N   UNL     1      16.030  37.404   9.355  1.00  0.00    -0.338 N 
ATOM     23  H   UNL     1      16.736  38.121   9.438  1.00  0.00     0.168 HD
BRANCH  22  24
ATOM     24  C   UNL     1      16.570  36.111   9.240  1.00  0.00     0.041 A 
ATOM     25  C   UNL     1      16.309  35.214  10.279  1.00  0.00     0.050 A 
ATOM     26  C   UNL     1      17.321  35.672   8.140  1.00  0.00     0.030 A 
ATOM     27  C   UNL     1      16.802  33.909  10.240  1.00  0.00     0.085 A 
ATOM     28  C   UNL     1      17.817  34.369   8.098  1.00  0.00     0.051 A 
ATOM     29  C   UNL     1      17.566  33.485   9.148  1.00  0.00     0.146 A 
ATOM     30  Cl  UNL     1      16.465  32.835  11.552  1.00  0.00    -0.080 Cl
BRANCH  29  31
ATOM     31  O   UNL     1      18.061  32.202   9.095  1.00  0.00    -0.456 OA
BRANCH  31  32
ATOM     32  C   UNL     1      17.724  31.354   8.057  1.00  0.00     0.128 A 
ATOM     33  C   UNL     1      16.431  30.825   8.061  1.00  0.00     0.060 A 
ATOM     34  C   UNL     1      18.601  30.989   7.022  1.00  0.00     0.047 A 
ATOM     35  C   UNL     1      16.000  29.949   7.056  1.00  0.00     0.059 A 
ATOM     36  C   UNL     1      18.184  30.120   6.017  1.00  0.00     0.004 A 
ATOM     37  C   UNL     1      16.890  29.602   6.031  1.00  0.00     0.013 A 
BRANCH  35  38
ATOM     38  C   UNL     1      14.579  29.389   7.097  1.00  0.00     0.416 C 
ATOM     39  F   UNL     1      14.342  28.656   6.009  1.00  0.00    -0.166 F 
ATOM     40  F   UNL     1      14.444  28.614   8.175  1.00  0.00    -0.166 F 
ATOM     41  F   UNL     1      13.657  30.351   7.156  1.00  0.00    -0.166 F 
ENDBRANCH  35  38
ENDBRANCH  31  32
ENDBRANCH  29  31
ENDBRANCH  22  24
ENDBRANCH   8  22
TORSDOF 11
ENDMDL
MODEL 4
REMARK VINA RESULT:   -10.120      2.792      6.134
REMARK INTER + INTRA:         -17.871
REMARK INTER:                 -16.207
REMARK INTRA:                  -1.664
REMARK UNBOUND:                -1.539
REMARK SMILES CC(C)(O)CC(=O)NCCn1ccc2ncnc(Nc3ccc(Oc4cccc(C(F)(F)F)c4)c(Cl)c3)c21
REMARK SMILES IDX 11 1 12 2 13 3 14 4 15 5 16 6 17 7 18 8 38 9 10 10 9 11 8 12
REMARK SMILES IDX 6 13 7 14 5 16 2 17 1 18 3 19 4 20 19 22 20 24 37 25 21 26
REMARK SMILES IDX 35 27 22 28 23 29 36 30 24 31 25 32 34 33 26 34 29 35 27 36
REMARK SMILES IDX 28 37 30 38 31 39 32 40 33 41
REMARK H PARENT 8 15 4 21 19 23
ROOT
ATOM      1  N   UNL     1      17.974  40.031   6.824  1.00  0.00    -0.341 N 
ATOM      2  C   UNL     1      18.699  41.074   6.287  1.00  0.00     0.088 A 
ATOM      3  C   UNL     1      19.890  40.617   5.764  1.00  0.00     0.048 A 
ATOM      4  C   UNL     1      19.900  39.205   5.968  1.00  0.00     0.094 A 
ATOM      5  N   UNL     1      20.821  38.294   5.639  1.00  0.00    -0.235 NA
ATOM      6  C   UNL     1      20.513  37.015   5.975  1.00  0.00     0.225 A 
ATOM      7  N   UNL     1      19.389  36.580   6.593  1.00  0.00    -0.217 NA
ATOM      8  C   UNL     1      18.440  37.494   6.929  1.00  0.00     0.158 A 
ATOM      9  C   UNL     1      18.681  38.849   6.627  1.00  0.00     0.110 A 
ENDROOT
BRANCH   1  10
ATOM     10  C   UNL     1      16.652  40.170   7.434  1.00  0.00     0.143 C 
BRANCH  10  11
ATOM     11  C   UNL     1      15.589  40.682   6.429  1.00  0.00     0.137 C 
BRANCH  11  12
ATOM     12  N   UNL     1      14.211  40.336   6.768  1.00  0.00    -0.354 N 
ATOM     13  C   UNL     1      13.425  41.059   7.584  1.00  0.00     0.222 C 
ATOM     14  O   UNL     1      13.804  42.095   8.134  1.00  0.00    -0.275 OA
ATOM     15  H   UNL     1      13.845  39.485   6.364  1.00  0.00     0.163 HD
BRANCH  13  16
ATOM     16  C   UNL     1      12.004  40.507   7.817  1.00  0.00     0.134 C 
BRANCH  16  17
ATOM     17  C   UNL     1      11.716  39.804   9.180  1.00  0.00     0.068 C 
ATOM     18  C   UNL     1      12.296  38.374   9.163  1.00  0.00     0.042 C 
ATOM     19  C   UNL     1      10.211  39.755   9.529  1.00  0.00     0.042 C 
BRANCH  17  20
ATOM     20  O   UNL     1      12.386  40.483  10.228  1.00  0.00    -0.390 OA
ATOM     21  H   UNL     1      13.139  39.949  10.499  1.00  0.00     0.211 HD
ENDBRANCH  17  20
ENDBRANCH  16  17
ENDBRANCH  13  16
ENDBRANCH  11  12
ENDBRANCH  10  11
ENDBRANCH   1  10
BRANCH   8  22
ATOM     22  N   UNL     1      17.267  37.076   7.580  1.00  0.00    -0.338 N 
ATOM     23  H   UNL     1      16.431  37.470   7.177  1.00  0.00     0.168 HD
BRANCH  22  24
ATOM     24  C   UNL     1      17.005  36.219   8.664  1.00  0.00     0.041 A 
ATOM     25  C   UNL     1      15.940  36.556   9.504  1.00  0.00     0.050 A 
ATOM     26  C   UNL     1      17.728  35.046   8.925  1.00  0.00     0.030 A 
ATOM     27  C   UNL     1      15.610  35.756  10.598  1.00  0.00     0.085 A 
ATOM     28  C   UNL     1      17.401  34.243  10.018  1.00  0.00     0.051 A 
ATOM     29  C   UNL     1      16.347  34.597  10.863  1.00  0.00     0.146 A 
ATOM     30  Cl  UNL     1      14.293  36.215  11.619  1.00  0.00    -0.080 Cl
BRANCH  29  31
ATOM     31  O   UNL     1      16.035  33.798  11.938  1.00  0.00    -0.456 OA
BRANCH  31  32
ATOM     32  C   UNL     1      16.476  34.113  13.209  1.00  0.00     0.128 A 
ATOM     33  C   UNL     1      15.512  34.196  14.215  1.00  0.00     0.060 A 
ATOM     34  C   UNL     1      17.820  34.365  13.536  1.00  0.00     0.047 A 
ATOM     35  C   UNL     1      15.861  34.520  15.533  1.00  0.00     0.059 A 
ATOM     36  C   UNL     1      18.179  34.686  14.843  1.00  0.00     0.004 A 
ATOM     37  C   UNL     1      17.207  34.762  15.838  1.00  0.00     0.013 A 
BRANCH  35  38
ATOM     38  C   UNL     1      14.776  34.604  16.606  1.00  0.00     0.416 C 
ATOM     39  F   UNL     1      13.584  34.795  16.041  1.00  0.00    -0.166 F 
ATOM     40  F   UNL     1      14.748  33.461  17.292  1.00  0.00    -0.166 F 
ATOM     41  F   UNL     1      14.990  35.601  17.466  1.00  0.00    -0.166 F 
ENDBRANCH  35  38
ENDBRANCH  31  32
ENDBRANCH  29  31
ENDBRANCH  22  24
ENDBRANCH   8  22
TORSDOF 11
ENDMDL
MODEL 5
REMARK VINA RESULT:   -10.049      6.846      9.682
REMARK INTER + INTRA:         -17.757
REMARK INTER:                 -15.986
REMARK INTRA:                  -1.771
REMARK UNBOUND:                -1.539
REMARK SMILES CC(C)(O)CC(=O)NCCn1ccc2ncnc(Nc3ccc(Oc4cccc(C(F)(F)F)c4)c(Cl)c3)c21
REMARK SMILES IDX 11 1 12 2 13 3 14 4 15 5 16 6 17 7 18 8 38 9 10 10 9 11 8 12
REMARK SMILES IDX 6 13 7 14 5 16 2 17 1 18 3 19 4 20 19 22 20 24 37 25 21 26
REMARK SMILES IDX 35 27 22 28 23 29 36 30 24 31 25 32 34 33 26 34 29 35 27 36
REMARK SMILES IDX 28 37 30 38 31 39 32 40 33 41
REMARK H PARENT 8 15 4 21 19 23
ROOT
ATOM      1  N   UNL     1      16.939  34.906  16.108  1.00  0.00    -0.341 N 
ATOM      2  C   UNL     1      16.390  35.208  17.337  1.00  0.00     0.088 A 
ATOM      3  C   UNL     1      15.017  35.085  17.298  1.00  0.00     0.048 A 
ATOM      4  C   UNL     1      14.692  34.663  15.975  1.00  0.00     0.094 A 
ATOM      5  N   UNL     1      13.503  34.396  15.424  1.00  0.00    -0.235 NA
ATOM      6  C   UNL     1      13.544  34.004  14.125  1.00  0.00     0.225 A 
ATOM      7  N   UNL     1      14.646  33.857  13.350  1.00  0.00    -0.217 NA
ATOM      8  C   UNL     1      15.862  34.119  13.897  1.00  0.00     0.158 A 
ATOM      9  C   UNL     1      15.913  34.543  15.240  1.00  0.00     0.110 A 
ENDROOT
BRANCH   1  10
ATOM     10  C   UNL     1      18.371  34.910  15.818  1.00  0.00     0.143 C 
BRANCH  10  11
ATOM     11  C   UNL     1      19.095  33.667  16.394  1.00  0.00     0.137 C 
BRANCH  11  12
ATOM     12  N   UNL     1      20.470  33.492  15.933  1.00  0.00    -0.354 N 
ATOM     13  C   UNL     1      20.811  33.001  14.730  1.00  0.00     0.222 C 
ATOM     14  O   UNL     1      19.980  32.641  13.894  1.00  0.00    -0.275 OA
ATOM     15  H   UNL     1      21.201  33.751  16.581  1.00  0.00     0.163 HD
BRANCH  13  16
ATOM     16  C   UNL     1      22.323  32.889  14.449  1.00  0.00     0.134 C 
BRANCH  16  17
ATOM     17  C   UNL     1      22.796  33.032  12.969  1.00  0.00     0.068 C 
ATOM     18  C   UNL     1      24.280  32.626  12.853  1.00  0.00     0.042 C 
ATOM     19  C   UNL     1      22.597  34.457  12.405  1.00  0.00     0.042 C 
BRANCH  17  20
ATOM     20  O   UNL     1      22.081  32.129  12.142  1.00  0.00    -0.390 OA
ATOM     21  H   UNL     1      21.141  32.284  12.269  1.00  0.00     0.211 HD
ENDBRANCH  17  20
ENDBRANCH  16  17
ENDBRANCH  13  16
ENDBRANCH  11  12
ENDBRANCH  10  11
ENDBRANCH   1  10
BRANCH   8  22
ATOM     22  N   UNL     1      17.023  33.986  13.116  1.00  0.00    -0.338 N 
ATOM     23  H   UNL     1      17.869  34.173  13.633  1.00  0.00     0.168 HD
BRANCH  22  24
ATOM     24  C   UNL     1      17.262  33.639  11.775  1.00  0.00     0.041 A 
ATOM     25  C   UNL     1      16.626  34.403  10.792  1.00  0.00     0.050 A 
ATOM     26  C   UNL     1      18.115  32.599  11.377  1.00  0.00     0.030 A 
ATOM     27  C   UNL     1      16.815  34.129   9.437  1.00  0.00     0.085 A 
ATOM     28  C   UNL     1      18.305  32.321  10.023  1.00  0.00     0.051 A 
ATOM     29  C   UNL     1      17.653  33.078   9.049  1.00  0.00     0.146 A 
ATOM     30  Cl  UNL     1      16.001  35.091   8.255  1.00  0.00    -0.080 Cl
BRANCH  29  31
ATOM     31  O   UNL     1      17.849  32.793   7.717  1.00  0.00    -0.456 OA
BRANCH  31  32
ATOM     32  C   UNL     1      17.652  31.516   7.228  1.00  0.00     0.128 A 
ATOM     33  C   UNL     1      16.371  30.974   7.359  1.00  0.00     0.060 A 
ATOM     34  C   UNL     1      18.657  30.739   6.628  1.00  0.00     0.047 A 
ATOM     35  C   UNL     1      16.077  29.683   6.902  1.00  0.00     0.059 A 
ATOM     36  C   UNL     1      18.377  29.454   6.168  1.00  0.00     0.004 A 
ATOM     37  C   UNL     1      17.093  28.927   6.302  1.00  0.00     0.013 A 
BRANCH  35  38
ATOM     38  C   UNL     1      14.665  29.124   7.067  1.00  0.00     0.416 C 
ATOM     39  F   UNL     1      14.347  28.359   6.022  1.00  0.00    -0.166 F 
ATOM     40  F   UNL     1      14.613  28.380   8.173  1.00  0.00    -0.166 F 
ATOM     41  F   UNL     1      13.747  30.086   7.169  1.00  0.00    -0.166 F 
ENDBRANCH  35  38
ENDBRANCH  31  32
ENDBRANCH  29  31
ENDBRANCH  22  24
ENDBRANCH   8  22
TORSDOF 11
ENDMDL
MODEL 6
REMARK VINA RESULT:    -9.868      2.032      2.979
REMARK INTER + INTRA:         -17.465
REMARK INTER:                 -15.772
REMARK INTRA:                  -1.692
REMARK UNBOUND:                -1.539
REMARK SMILES CC(C)(O)CC(=O)NCCn1ccc2ncnc(Nc3ccc(Oc4cccc(C(F)(F)F)c4)c(Cl)c3)c21
REMARK SMILES IDX 11 1 12 2 13 3 14 4 15 5 16 6 17 7 18 8 38 9 10 10 9 11 8 12
REMARK SMILES IDX 6 13 7 14 5 16 2 17 1 18 3 19 4 20 19 22 20 24 37 25 21 26
REMARK SMILES IDX 35 27 22 28 23 29 36 30 24 31 25 32 34 33 26 34 29 35 27 36
REMARK SMILES IDX 28 37 30 38 31 39 32 40 33 41
REMARK H PARENT 8 15 4 21 19 23
ROOT
ATOM      1  N   UNL     1      14.284  40.896   8.665  1.00  0.00    -0.341 N 
ATOM      2  C   UNL     1      13.836  42.196   8.559  1.00  0.00     0.088 A 
ATOM      3  C   UNL     1      12.464  42.248   8.681  1.00  0.00     0.048 A 
ATOM      4  C   UNL     1      12.032  40.905   8.896  1.00  0.00     0.094 A 
ATOM      5  N   UNL     1      10.802  40.415   9.081  1.00  0.00    -0.235 NA
ATOM      6  C   UNL     1      10.737  39.073   9.267  1.00  0.00     0.225 A 
ATOM      7  N   UNL     1      11.772  38.199   9.288  1.00  0.00    -0.217 NA
ATOM      8  C   UNL     1      13.030  38.682   9.106  1.00  0.00     0.158 A 
ATOM      9  C   UNL     1      13.191  40.066   8.895  1.00  0.00     0.110 A 
ENDROOT
BRANCH   1  10
ATOM     10  C   UNL     1      15.689  40.497   8.608  1.00  0.00     0.143 C 
BRANCH  10  11
ATOM     11  C   UNL     1      16.280  40.614   7.180  1.00  0.00     0.137 C 
BRANCH  11  12
ATOM     12  N   UNL     1      17.004  39.433   6.719  1.00  0.00    -0.354 N 
ATOM     13  C   UNL     1      18.297  39.430   6.355  1.00  0.00     0.222 C 
ATOM     14  O   UNL     1      19.001  40.442   6.371  1.00  0.00    -0.275 OA
ATOM     15  H   UNL     1      16.478  38.572   6.665  1.00  0.00     0.163 HD
BRANCH  13  16
ATOM     16  C   UNL     1      18.865  38.074   5.888  1.00  0.00     0.134 C 
BRANCH  16  17
ATOM     17  C   UNL     1      19.645  37.218   6.934  1.00  0.00     0.068 C 
ATOM     18  C   UNL     1      20.828  36.503   6.248  1.00  0.00     0.042 C 
ATOM     19  C   UNL     1      18.752  36.181   7.654  1.00  0.00     0.042 C 
BRANCH  17  20
ATOM     20  O   UNL     1      20.219  38.060   7.919  1.00  0.00    -0.390 OA
ATOM     21  H   UNL     1      20.951  38.537   7.518  1.00  0.00     0.211 HD
ENDBRANCH  17  20
ENDBRANCH  16  17
ENDBRANCH  13  16
ENDBRANCH  11  12
ENDBRANCH  10  11
ENDBRANCH   1  10
BRANCH   8  22
ATOM     22  N   UNL     1      14.124  37.800   9.111  1.00  0.00    -0.338 N 
ATOM     23  H   UNL     1      14.723  37.911   8.306  1.00  0.00     0.168 HD
BRANCH  22  24
ATOM     24  C   UNL     1      14.573  36.806   9.998  1.00  0.00     0.041 A 
ATOM     25  C   UNL     1      13.879  36.664  11.203  1.00  0.00     0.050 A 
ATOM     26  C   UNL     1      15.646  35.944   9.728  1.00  0.00     0.030 A 
ATOM     27  C   UNL     1      14.256  35.697  12.137  1.00  0.00     0.085 A 
ATOM     28  C   UNL     1      16.025  34.977  10.659  1.00  0.00     0.051 A 
ATOM     29  C   UNL     1      15.339  34.853  11.868  1.00  0.00     0.146 A 
ATOM     30  Cl  UNL     1      13.379  35.562  13.619  1.00  0.00    -0.080 Cl
BRANCH  29  31
ATOM     31  O   UNL     1      15.723  33.896  12.778  1.00  0.00    -0.456 OA
BRANCH  31  32
ATOM     32  C   UNL     1      16.720  34.152  13.700  1.00  0.00     0.128 A 
ATOM     33  C   UNL     1      16.319  34.476  14.998  1.00  0.00     0.060 A 
ATOM     34  C   UNL     1      18.094  34.119  13.404  1.00  0.00     0.047 A 
ATOM     35  C   UNL     1      17.257  34.762  15.999  1.00  0.00     0.059 A 
ATOM     36  C   UNL     1      19.035  34.400  14.391  1.00  0.00     0.004 A 
ATOM     37  C   UNL     1      18.621  34.719  15.684  1.00  0.00     0.013 A 
BRANCH  35  38
ATOM     38  C   UNL     1      16.779  35.116  17.406  1.00  0.00     0.416 C 
ATOM     39  F   UNL     1      17.368  34.326  18.305  1.00  0.00    -0.166 F 
ATOM     40  F   UNL     1      17.099  36.383  17.673  1.00  0.00    -0.166 F 
ATOM     41  F   UNL     1      15.458  34.982  17.541  1.00  0.00    -0.166 F 
ENDBRANCH  35  38
ENDBRANCH  31  32
ENDBRANCH  29  31
ENDBRANCH  22  24
ENDBRANCH   8  22
TORSDOF 11
ENDMDL
MODEL 7
REMARK VINA RESULT:    -9.845      2.600      3.827
REMARK INTER + INTRA:         -17.426
REMARK INTER:                 -15.870
REMARK INTRA:                  -1.557
REMARK UNBOUND:                -1.539
REMARK SMILES CC(C)(O)CC(=O)NCCn1ccc2ncnc(Nc3ccc(Oc4cccc(C(F)(F)F)c4)c(Cl)c3)c21
REMARK SMILES IDX 11 1 12 2 13 3 14 4 15 5 16 6 17 7 18 8 38 9 10 10 9 11 8 12
REMARK SMILES IDX 6 13 7 14 5 16 2 17 1 18 3 19 4 20 19 22 20 24 37 25 21 26
REMARK SMILES IDX 35 27 22 28 23 29 36 30 24 31 25 32 34 33 26 34 29 35 27 36
REMARK SMILES IDX 28 37 30 38 31 39 32 40 33 41
REMARK H PARENT 8 15 4 21 19 23
ROOT
ATOM      1  N   UNL     1      15.123  40.413   8.524  1.00  0.00    -0.341 N 
ATOM      2  C   UNL     1      14.935  41.729   8.155  1.00  0.00     0.088 A 
ATOM      3  C   UNL     1      13.590  42.013   8.042  1.00  0.00     0.048 A 
ATOM      4  C   UNL     1      12.899  40.811   8.378  1.00  0.00     0.094 A 
ATOM      5  N   UNL     1      11.588  40.557   8.429  1.00  0.00    -0.235 NA
ATOM      6  C   UNL     1      11.258  39.293   8.798  1.00  0.00     0.225 A 
ATOM      7  N   UNL     1      12.107  38.286   9.116  1.00  0.00    -0.217 NA
ATOM      8  C   UNL     1      13.444  38.530   9.074  1.00  0.00     0.158 A 
ATOM      9  C   UNL     1      13.878  39.815   8.690  1.00  0.00     0.110 A 
ENDROOT
BRANCH   1  10
ATOM     10  C   UNL     1      16.428  39.798   8.757  1.00  0.00     0.143 C 
BRANCH  10  11
ATOM     11  C   UNL     1      17.262  39.669   7.457  1.00  0.00     0.137 C 
BRANCH  11  12
ATOM     12  N   UNL     1      18.587  39.080   7.637  1.00  0.00    -0.354 N 
ATOM     13  C   UNL     1      19.208  38.314   6.724  1.00  0.00     0.222 C 
ATOM     14  O   UNL     1      18.705  38.029   5.635  1.00  0.00    -0.275 OA
ATOM     15  H   UNL     1      19.047  39.261   8.518  1.00  0.00     0.163 HD
BRANCH  13  16
ATOM     16  C   UNL     1      20.601  37.784   7.121  1.00  0.00     0.134 C 
BRANCH  16  17
ATOM     17  C   UNL     1      20.766  36.242   7.291  1.00  0.00     0.068 C 
ATOM     18  C   UNL     1      21.205  35.613   5.953  1.00  0.00     0.042 C 
ATOM     19  C   UNL     1      19.482  35.549   7.801  1.00  0.00     0.042 C 
BRANCH  17  20
ATOM     20  O   UNL     1      21.809  35.964   8.211  1.00  0.00    -0.390 OA
ATOM     21  H   UNL     1      21.892  35.010   8.292  1.00  0.00     0.211 HD
ENDBRANCH  17  20
ENDBRANCH  16  17
ENDBRANCH  13  16
ENDBRANCH  11  12
ENDBRANCH  10  11
ENDBRANCH   1  10
BRANCH   8  22
ATOM     22  N   UNL     1      14.352  37.504   9.388  1.00  0.00    -0.338 N 
ATOM     23  H   UNL     1      15.032  37.344   8.660  1.00  0.00     0.168 HD
BRANCH  22  24
ATOM     24  C   UNL     1      14.524  36.660  10.499  1.00  0.00     0.041 A 
ATOM     25  C   UNL     1      15.507  35.671  10.405  1.00  0.00     0.050 A 
ATOM     26  C   UNL     1      13.793  36.776  11.690  1.00  0.00     0.030 A 
ATOM     27  C   UNL     1      15.747  34.795  11.465  1.00  0.00     0.085 A 
ATOM     28  C   UNL     1      14.029  35.903  12.752  1.00  0.00     0.051 A 
ATOM     29  C   UNL     1      15.000  34.906  12.643  1.00  0.00     0.146 A 
ATOM     30  Cl  UNL     1      16.964  33.579  11.303  1.00  0.00    -0.080 Cl
BRANCH  29  31
ATOM     31  O   UNL     1      15.223  34.050  13.697  1.00  0.00    -0.456 OA
BRANCH  31  32
ATOM     32  C   UNL     1      15.583  34.535  14.940  1.00  0.00     0.128 A 
ATOM     33  C   UNL     1      16.874  35.053  15.072  1.00  0.00     0.060 A 
ATOM     34  C   UNL     1      14.740  34.522  16.064  1.00  0.00     0.047 A 
ATOM     35  C   UNL     1      17.333  35.558  16.296  1.00  0.00     0.059 A 
ATOM     36  C   UNL     1      15.186  35.023  17.286  1.00  0.00     0.004 A 
ATOM     37  C   UNL     1      16.475  35.540  17.402  1.00  0.00     0.013 A 
BRANCH  35  38
ATOM     38  C   UNL     1      18.753  36.113  16.401  1.00  0.00     0.416 C 
ATOM     39  F   UNL     1      19.633  35.114  16.480  1.00  0.00    -0.166 F 
ATOM     40  F   UNL     1      19.023  36.837  15.314  1.00  0.00    -0.166 F 
ATOM     41  F   UNL     1      18.914  36.892  17.471  1.00  0.00    -0.166 F 
ENDBRANCH  35  38
ENDBRANCH  31  32
ENDBRANCH  29  31
ENDBRANCH  22  24
ENDBRANCH   8  22
TORSDOF 11
ENDMDL
MODEL 8
REMARK VINA RESULT:    -9.587      4.998      7.494
REMARK INTER + INTRA:         -17.010
REMARK INTER:                 -15.377
REMARK INTRA:                  -1.633
REMARK UNBOUND:                -1.539
REMARK SMILES CC(C)(O)CC(=O)NCCn1ccc2ncnc(Nc3ccc(Oc4cccc(C(F)(F)F)c4)c(Cl)c3)c21
REMARK SMILES IDX 11 1 12 2 13 3 14 4 15 5 16 6 17 7 18 8 38 9 10 10 9 11 8 12
REMARK SMILES IDX 6 13 7 14 5 16 2 17 1 18 3 19 4 20 19 22 20 24 37 25 21 26
REMARK SMILES IDX 35 27 22 28 23 29 36 30 24 31 25 32 34 33 26 34 29 35 27 36
REMARK SMILES IDX 28 37 30 38 31 39 32 40 33 41
REMARK H PARENT 8 15 4 21 19 23
ROOT
ATOM      1  N   UNL     1      12.267  39.195   9.058  1.00  0.00    -0.341 N 
ATOM      2  C   UNL     1      11.158  39.762   8.466  1.00  0.00     0.088 A 
ATOM      3  C   UNL     1      11.511  40.894   7.761  1.00  0.00     0.048 A 
ATOM      4  C   UNL     1      12.923  41.030   7.906  1.00  0.00     0.094 A 
ATOM      5  N   UNL     1      13.754  41.955   7.415  1.00  0.00    -0.235 NA
ATOM      6  C   UNL     1      15.061  41.788   7.739  1.00  0.00     0.225 A 
ATOM      7  N   UNL     1      15.596  40.797   8.492  1.00  0.00    -0.217 NA
ATOM      8  C   UNL     1      14.765  39.845   8.995  1.00  0.00     0.158 A 
ATOM      9  C   UNL     1      13.388  39.946   8.716  1.00  0.00     0.110 A 
ENDROOT
BRANCH   1  10
ATOM     10  C   UNL     1      12.245  37.969   9.854  1.00  0.00     0.143 C 
BRANCH  10  11
ATOM     11  C   UNL     1      11.864  38.230  11.333  1.00  0.00     0.137 C 
BRANCH  11  12
ATOM     12  N   UNL     1      12.821  37.719  12.310  1.00  0.00    -0.354 N 
ATOM     13  C   UNL     1      12.980  36.419  12.610  1.00  0.00     0.222 C 
ATOM     14  O   UNL     1      12.316  35.524  12.082  1.00  0.00    -0.275 OA
ATOM     15  H   UNL     1      13.384  38.404  12.793  1.00  0.00     0.163 HD
BRANCH  13  16
ATOM     16  C   UNL     1      14.041  36.096  13.681  1.00  0.00     0.134 C 
BRANCH  16  17
ATOM     17  C   UNL     1      14.238  34.599  14.076  1.00  0.00     0.068 C 
ATOM     18  C   UNL     1      14.822  34.508  15.501  1.00  0.00     0.042 C 
ATOM     19  C   UNL     1      15.141  33.827  13.088  1.00  0.00     0.042 C 
BRANCH  17  20
ATOM     20  O   UNL     1      12.983  33.942  14.128  1.00  0.00    -0.390 OA
ATOM     21  H   UNL     1      12.817  33.542  13.270  1.00  0.00     0.211 HD
ENDBRANCH  17  20
ENDBRANCH  16  17
ENDBRANCH  13  16
ENDBRANCH  11  12
ENDBRANCH  10  11
ENDBRANCH   1  10
BRANCH   8  22
ATOM     22  N   UNL     1      15.288  38.810   9.790  1.00  0.00    -0.338 N 
ATOM     23  H   UNL     1      15.139  38.958  10.776  1.00  0.00     0.168 HD
BRANCH  22  24
ATOM     24  C   UNL     1      15.963  37.609   9.508  1.00  0.00     0.041 A 
ATOM     25  C   UNL     1      16.982  37.657   8.552  1.00  0.00     0.050 A 
ATOM     26  C   UNL     1      15.690  36.391  10.146  1.00  0.00     0.030 A 
ATOM     27  C   UNL     1      17.705  36.511   8.219  1.00  0.00     0.085 A 
ATOM     28  C   UNL     1      16.410  35.243   9.815  1.00  0.00     0.051 A 
ATOM     29  C   UNL     1      17.414  35.296   8.847  1.00  0.00     0.146 A 
ATOM     30  Cl  UNL     1      18.950  36.611   7.024  1.00  0.00    -0.080 Cl
BRANCH  29  31
ATOM     31  O   UNL     1      18.117  34.157   8.528  1.00  0.00    -0.456 OA
BRANCH  31  32
ATOM     32  C   UNL     1      17.482  33.063   7.972  1.00  0.00     0.128 A 
ATOM     33  C   UNL     1      18.288  32.106   7.352  1.00  0.00     0.060 A 
ATOM     34  C   UNL     1      16.089  32.871   7.984  1.00  0.00     0.047 A 
ATOM     35  C   UNL     1      17.735  30.967   6.751  1.00  0.00     0.059 A 
ATOM     36  C   UNL     1      15.528  31.742   7.391  1.00  0.00     0.004 A 
ATOM     37  C   UNL     1      16.345  30.793   6.779  1.00  0.00     0.013 A 
BRANCH  35  38
ATOM     38  C   UNL     1      18.650  29.944   6.080  1.00  0.00     0.416 C 
ATOM     39  F   UNL     1      18.861  30.281   4.807  1.00  0.00    -0.166 F 
ATOM     40  F   UNL     1      19.821  29.918   6.717  1.00  0.00    -0.166 F 
ATOM     41  F   UNL     1      18.136  28.713   6.102  1.00  0.00    -0.166 F 
ENDBRANCH  35  38
ENDBRANCH  31  32
ENDBRANCH  29  31
ENDBRANCH  22  24
ENDBRANCH   8  22
TORSDOF 11
ENDMDL
MODEL 9
REMARK VINA RESULT:    -9.444      7.425      9.588
REMARK INTER + INTRA:         -16.781
REMARK INTER:                 -14.484
REMARK INTRA:                  -2.297
REMARK UNBOUND:                -1.539
REMARK SMILES CC(C)(O)CC(=O)NCCn1ccc2ncnc(Nc3ccc(Oc4cccc(C(F)(F)F)c4)c(Cl)c3)c21
REMARK SMILES IDX 11 1 12 2 13 3 14 4 15 5 16 6 17 7 18 8 38 9 10 10 9 11 8 12
REMARK SMILES IDX 6 13 7 14 5 16 2 17 1 18 3 19 4 20 19 22 20 24 37 25 21 26
REMARK SMILES IDX 35 27 22 28 23 29 36 30 24 31 25 32 34 33 26 34 29 35 27 36
REMARK SMILES IDX 28 37 30 38 31 39 32 40 33 41
REMARK H PARENT 8 15 4 21 19 23
ROOT
ATOM      1  N   UNL     1      20.581  34.891  14.328  1.00  0.00    -0.341 N 
ATOM      2  C   UNL     1      21.214  35.931  14.976  1.00  0.00     0.088 A 
ATOM      3  C   UNL     1      20.323  36.619  15.773  1.00  0.00     0.048 A 
ATOM      4  C   UNL     1      19.067  35.958  15.630  1.00  0.00     0.094 A 
ATOM      5  N   UNL     1      17.885  36.225  16.194  1.00  0.00    -0.235 NA
ATOM      6  C   UNL     1      16.877  35.386  15.847  1.00  0.00     0.225 A 
ATOM      7  N   UNL     1      16.949  34.325  15.007  1.00  0.00    -0.217 NA
ATOM      8  C   UNL     1      18.146  34.037  14.430  1.00  0.00     0.158 A 
ATOM      9  C   UNL     1      19.247  34.865  14.726  1.00  0.00     0.110 A 
ENDROOT
BRANCH   1  10
ATOM     10  C   UNL     1      21.245  33.948  13.430  1.00  0.00     0.143 C 
BRANCH  10  11
ATOM     11  C   UNL     1      22.201  34.654  12.435  1.00  0.00     0.137 C 
BRANCH  11  12
ATOM     12  N   UNL     1      21.931  34.375  11.027  1.00  0.00    -0.354 N 
ATOM     13  C   UNL     1      22.427  35.089  10.002  1.00  0.00     0.222 C 
ATOM     14  O   UNL     1      23.163  36.064  10.160  1.00  0.00    -0.275 OA
ATOM     15  H   UNL     1      21.318  33.597  10.829  1.00  0.00     0.163 HD
BRANCH  13  16
ATOM     16  C   UNL     1      22.007  34.629   8.591  1.00  0.00     0.134 C 
BRANCH  16  17
ATOM     17  C   UNL     1      21.288  35.668   7.676  1.00  0.00     0.068 C 
ATOM     18  C   UNL     1      19.762  35.581   7.885  1.00  0.00     0.042 C 
ATOM     19  C   UNL     1      21.624  35.489   6.178  1.00  0.00     0.042 C 
BRANCH  17  20
ATOM     20  O   UNL     1      21.657  36.984   8.053  1.00  0.00    -0.390 OA
ATOM     21  H   UNL     1      22.613  37.013   8.148  1.00  0.00     0.211 HD
ENDBRANCH  17  20
ENDBRANCH  16  17
ENDBRANCH  13  16
ENDBRANCH  11  12
ENDBRANCH  10  11
ENDBRANCH   1  10
BRANCH   8  22
ATOM     22  N   UNL     1      18.251  32.950  13.545  1.00  0.00    -0.338 N 
ATOM     23  H   UNL     1      18.396  32.070  14.018  1.00  0.00     0.168 HD
BRANCH  22  24
ATOM     24  C   UNL     1      18.187  32.820  12.147  1.00  0.00     0.041 A 
ATOM     25  C   UNL     1      17.370  33.720  11.457  1.00  0.00     0.050 A 
ATOM     26  C   UNL     1      18.911  31.867  11.416  1.00  0.00     0.030 A 
ATOM     27  C   UNL     1      17.255  33.664  10.068  1.00  0.00     0.085 A 
ATOM     28  C   UNL     1      18.798  31.807  10.027  1.00  0.00     0.051 A 
ATOM     29  C   UNL     1      17.966  32.698   9.348  1.00  0.00     0.146 A 
ATOM     30  Cl  UNL     1      16.225  34.788   9.255  1.00  0.00    -0.080 Cl
BRANCH  29  31
ATOM     31  O   UNL     1      17.863  32.628   7.978  1.00  0.00    -0.456 OA
BRANCH  31  32
ATOM     32  C   UNL     1      17.648  31.420   7.343  1.00  0.00     0.128 A 
ATOM     33  C   UNL     1      16.369  30.866   7.444  1.00  0.00     0.060 A 
ATOM     34  C   UNL     1      18.633  30.722   6.624  1.00  0.00     0.047 A 
ATOM     35  C   UNL     1      16.058  29.640   6.843  1.00  0.00     0.059 A 
ATOM     36  C   UNL     1      18.334  29.502   6.020  1.00  0.00     0.004 A 
ATOM     37  C   UNL     1      17.053  28.963   6.126  1.00  0.00     0.013 A 
BRANCH  35  38
ATOM     38  C   UNL     1      14.648  29.065   6.979  1.00  0.00     0.416 C 
ATOM     39  F   UNL     1      14.581  28.261   8.040  1.00  0.00    -0.166 F 
ATOM     40  F   UNL     1      13.781  30.065   7.143  1.00  0.00    -0.166 F 
ATOM     41  F   UNL     1      14.280  28.365   5.905  1.00  0.00    -0.166 F 
ENDBRANCH  35  38
ENDBRANCH  31  32
ENDBRANCH  29  31
ENDBRANCH  22  24
ENDBRANCH   8  22
TORSDOF 11
ENDMDL
