REMARK VINA RESULT:    -9.367      2.958      9.466
REMARK INTER + INTRA:         -14.321
REMARK INTER:                 -14.444
REMARK INTRA:                   0.123
REMARK UNBOUND:                -1.669
REMARK SMILES Cn1ccc(NC(=O)Cc2cccc(Nc3nn([C@@H]4CCCC[C@H]4C#N)c4cc[nH]c(=O)c34)c2)n1
REMARK SMILES IDX 10 1 11 2 12 3 13 4 14 5 34 6 9 7 7 8 6 9 8 10 5 12 2 13
REMARK SMILES IDX 3 14 35 15 4 16 1 17 15 18 16 20 17 21 33 22 18 23 31 24
REMARK SMILES IDX 27 25 30 26 32 27 28 28 29 29 19 31 20 32 24 33 21 34 23 35
REMARK SMILES IDX 25 36 22 37 26 38
REMARK H PARENT 6 11 15 19 30 30
ROOT
ATOM      1  C   UNL     1       4.366 -19.889  20.424  1.00  0.00    -0.037 A 
ATOM      2  C   UNL     1       5.181 -18.822  20.036  1.00  0.00     0.004 A 
ATOM      3  C   UNL     1       6.499 -19.053  19.651  1.00  0.00     0.002 A 
ATOM      4  C   UNL     1       7.014 -20.352  19.652  1.00  0.00     0.026 A 
ATOM      5  C   UNL     1       6.234 -21.440  20.051  1.00  0.00     0.040 A 
ATOM      6  C   UNL     1       4.905 -21.187  20.437  1.00  0.00     0.030 A 
ENDROOT
BRANCH   1   7
ATOM      7  C   UNL     1       2.933 -19.648  20.828  1.00  0.00     0.136 C 
BRANCH   7   8
ATOM      8  C   UNL     1       2.352 -18.324  20.348  1.00  0.00     0.229 C 
ATOM      9  N   UNL     1       1.850 -18.424  19.066  1.00  0.00    -0.309 N 
ATOM     10  O   UNL     1       2.373 -17.299  21.020  1.00  0.00    -0.274 OA
ATOM     11  H   UNL     1       1.875 -19.297  18.558  1.00  0.00     0.171 HD
BRANCH   9  12
ATOM     12  C   UNL     1       1.294 -17.399  18.342  1.00  0.00     0.154 A 
ATOM     13  N   UNL     1      -0.219 -16.054  17.732  1.00  0.00    -0.274 N 
ATOM     14  C   UNL     1       0.843 -15.745  16.940  1.00  0.00     0.110 A 
ATOM     15  N   UNL     1       0.029 -17.052  18.599  1.00  0.00    -0.155 NA
ATOM     16  C   UNL     1       1.849 -16.608  17.314  1.00  0.00     0.068 A 
ATOM     17  C   UNL     1      -1.522 -15.433  17.718  1.00  0.00     0.173 C 
ENDBRANCH   9  12
ENDBRANCH   7   8
ENDBRANCH   1   7
BRANCH   5  18
ATOM     18  N   UNL     1       6.693 -22.775  20.045  1.00  0.00    -0.338 N 
ATOM     19  H   UNL     1       7.147 -23.020  19.168  1.00  0.00     0.168 HD
BRANCH  18  20
ATOM     20  C   UNL     1       6.616 -23.762  20.972  1.00  0.00     0.166 A 
ATOM     21  N   UNL     1       5.631 -24.653  21.154  1.00  0.00    -0.153 NA
ATOM     22  C   UNL     1       7.626 -23.952  21.935  1.00  0.00     0.109 A 
ATOM     23  N   UNL     1       6.019 -25.409  22.207  1.00  0.00    -0.258 N 
ATOM     24  C   UNL     1       8.877 -23.291  22.225  1.00  0.00     0.261 A 
ATOM     25  C   UNL     1       7.216 -25.012  22.713  1.00  0.00     0.078 A 
ATOM     26  N   UNL     1       9.551 -23.834  23.318  1.00  0.00    -0.328 N 
ATOM     27  O   UNL     1       9.313 -22.344  21.580  1.00  0.00    -0.269 OA
ATOM     28  C   UNL     1       7.928 -25.529  23.816  1.00  0.00     0.046 A 
ATOM     29  C   UNL     1       9.092 -24.903  24.080  1.00  0.00     0.088 A 
ATOM     30  H   UNL     1      10.430 -23.390  23.551  1.00  0.00     0.169 HD
BRANCH  23  31
ATOM     31  C   UNL     1       5.132 -26.486  22.647  1.00  0.00     0.125 C 
ATOM     32  C   UNL     1       5.960 -27.707  23.090  1.00  0.00     0.029 C 
ATOM     33  C   UNL     1       4.099 -26.845  21.556  1.00  0.00     0.117 C 
ATOM     34  C   UNL     1       5.077 -28.882  23.492  1.00  0.00     0.002 C 
ATOM     35  C   UNL     1       3.255 -28.063  21.967  1.00  0.00     0.021 C 
ATOM     36  C   UNL     1       3.202 -25.699  21.315  1.00  0.00     0.068 C 
ATOM     37  C   UNL     1       4.116 -29.253  22.369  1.00  0.00     0.002 C 
ATOM     38  N   UNL     1       2.477 -24.802  21.178  1.00  0.00    -0.198 NA
ENDBRANCH  23  31
ENDBRANCH  18  20
ENDBRANCH   5  18
TORSDOF 6
