REMARK SMILES N=C(N)c1ccc(CN(NS(=O)(=O)c2ccc3ccccc3c2)C(=O)N2CCCCC2)cc1
REMARK SMILES IDX 8 1 7 2 4 3 5 4 33 5 6 6 32 7 2 8 1 9 3 10 9 14 10 15 11 17
REMARK SMILES IDX 12 18 13 19 14 20 15 21 23 22 16 23 22 24 17 25 21 26 18 27
REMARK SMILES IDX 20 28 19 29 24 30 25 31 26 32 27 33 31 34 28 35 30 36 29 37
REMARK H PARENT 1 11 3 12 3 13 10 16
REMARK INDEX MAP 8 1 7 2 4 3 5 4 33 5 6 6 32 7 2 8 1 9 3 10 34 11 35 12 36 13
REMARK INDEX MAP 9 14 10 15 41 16 11 17 12 18 13 19 14 20 15 21 23 22 16 23
REMARK INDEX MAP 22 24 17 25 21 26 18 27 20 28 19 29 24 30 25 31 26 32 27 33
REMARK INDEX MAP 31 34 28 35 30 36 29 37
ROOT
ATOM      1  C   UNL     1      -3.186  12.708  22.443  1.00  0.00     0.178 C 
ENDROOT
BRANCH   1   2
ATOM      2  C   UNL     1      -2.863  11.847  23.646  1.00  0.00    -0.027 A 
ATOM      3  C   UNL     1      -2.249  10.300  25.905  1.00  0.00     0.016 A 
ATOM      4  C   UNL     1      -1.462  10.198  24.753  1.00  0.00     0.012 A 
ATOM      5  C   UNL     1      -3.344  11.170  25.933  1.00  0.00     0.012 A 
ATOM      6  C   UNL     1      -1.768  10.968  23.627  1.00  0.00     0.006 A 
ATOM      7  C   UNL     1      -3.645  11.943  24.808  1.00  0.00     0.006 A 
BRANCH   3   8
ATOM      8  C   UNL     1      -1.915   9.491  27.105  1.00  0.00     0.122 C 
ATOM      9  N   UNL     1      -0.745   8.961  27.268  1.00  0.00    -0.284 NA
ATOM     10  N   UNL     1      -2.842   9.288  28.074  1.00  0.00    -0.384 N 
ATOM     11  H   UNL     1      -0.015   9.094  26.553  1.00  0.00     0.189 HD
ATOM     12  H   UNL     1      -3.784   9.694  27.979  1.00  0.00     0.158 HD
ATOM     13  H   UNL     1      -2.604   8.728  28.905  1.00  0.00     0.158 HD
ENDBRANCH   3   8
ENDBRANCH   1   2
BRANCH   1  14
ATOM     14  N   UNL     1      -3.872  11.928  21.417  1.00  0.00    -0.241 N 
BRANCH  14  15
ATOM     15  N   UNL     1      -3.133  11.852  20.088  1.00  0.00    -0.119 NA
ATOM     16  H   UNL     1      -2.349  12.519  20.132  1.00  0.00     0.167 HD
BRANCH  15  17
ATOM     17  S   UNL     1      -4.019  12.198  18.675  1.00  0.00     0.257 S 
ATOM     18  O   UNL     1      -4.891  13.303  19.021  1.00  0.00    -0.205 OA
ATOM     19  O   UNL     1      -3.117  12.282  17.546  1.00  0.00    -0.205 OA
BRANCH  17  20
ATOM     20  C   UNL     1      -5.012  10.742  18.497  1.00  0.00     0.084 A 
ATOM     21  C   UNL     1      -6.384  10.868  18.273  1.00  0.00     0.022 A 
ATOM     22  C   UNL     1      -4.420   9.482  18.623  1.00  0.00     0.030 A 
ATOM     23  C   UNL     1      -7.167   9.720  18.143  1.00  0.00     0.010 A 
ATOM     24  C   UNL     1      -5.198   8.322  18.487  1.00  0.00    -0.017 A 
ATOM     25  C   UNL     1      -6.588   8.442  18.239  1.00  0.00    -0.018 A 
ATOM     26  C   UNL     1      -4.628   7.043  18.591  1.00  0.00     0.009 A 
ATOM     27  C   UNL     1      -7.362   7.279  18.094  1.00  0.00     0.009 A 
ATOM     28  C   UNL     1      -5.413   5.899  18.446  1.00  0.00     0.001 A 
ATOM     29  C   UNL     1      -6.777   6.016  18.195  1.00  0.00     0.001 A 
ENDBRANCH  17  20
ENDBRANCH  15  17
ENDBRANCH  14  15
BRANCH  14  30
ATOM     30  C   UNL     1      -4.947  11.107  21.710  1.00  0.00     0.335 C 
ATOM     31  O   UNL     1      -4.801   9.894  21.875  1.00  0.00    -0.247 OA
ATOM     32  N   UNL     1      -6.202  11.694  21.832  1.00  0.00    -0.324 N 
ATOM     33  C   UNL     1      -6.429  13.093  22.210  1.00  0.00     0.121 C 
ATOM     34  C   UNL     1      -7.364  10.804  21.869  1.00  0.00     0.121 C 
ATOM     35  C   UNL     1      -7.579  13.229  23.207  1.00  0.00     0.022 C 
ATOM     36  C   UNL     1      -8.669  11.550  21.629  1.00  0.00     0.022 C 
ATOM     37  C   UNL     1      -8.889  12.661  22.658  1.00  0.00     0.004 C 
ENDBRANCH  14  30
ENDBRANCH   1  14
TORSDOF 7
