REMARK SMILES NCCCn1c(CCN)nc2cc(C(N)=O)ccc21
REMARK SMILES IDX 5 1 6 2 10 3 11 4 12 5 13 6 17 7 18 8 19 9 4 10 3 11 2 12
REMARK SMILES IDX 1 13 7 16 8 17 9 18 14 21 15 22 16 23
REMARK H PARENT 1 14 1 15 9 19 9 20 15 24 15 25
REMARK INDEX MAP 5 1 6 2 10 3 11 4 12 5 13 6 17 7 18 8 19 9 4 10 3 11 2 12
REMARK INDEX MAP 1 13 20 14 21 15 7 16 8 17 9 18 32 19 33 20 14 21 15 22 16 23
REMARK INDEX MAP 35 24 36 25
ROOT
ATOM      1  N   UNL     1      -4.271  24.041 -30.940  1.00  0.00    -0.328 N 
ATOM      2  C   UNL     1      -4.472  22.677 -31.026  1.00  0.00     0.111 A 
ATOM      3  N   UNL     1      -4.074  22.077 -29.922  1.00  0.00    -0.233 NA
ATOM      4  C   UNL     1      -3.602  23.067 -29.102  1.00  0.00     0.090 A 
ATOM      5  C   UNL     1      -3.066  22.959 -27.810  1.00  0.00     0.044 A 
ATOM      6  C   UNL     1      -2.635  24.124 -27.161  1.00  0.00     0.041 A 
ATOM      7  C   UNL     1      -2.759  25.371 -27.792  1.00  0.00     0.016 A 
ATOM      8  C   UNL     1      -3.294  25.492 -29.080  1.00  0.00     0.029 A 
ATOM      9  C   UNL     1      -3.706  24.311 -29.711  1.00  0.00     0.068 A 
ENDROOT
BRANCH   1  10
ATOM     10  C   UNL     1      -4.560  25.028 -31.964  1.00  0.00     0.125 C 
BRANCH  10  11
ATOM     11  C   UNL     1      -5.959  25.639 -31.880  1.00  0.00     0.037 C 
BRANCH  11  12
ATOM     12  C   UNL     1      -5.963  27.041 -31.271  1.00  0.00     0.079 C 
BRANCH  12  13
ATOM     13  N   UNL     1      -5.982  28.042 -32.331  1.00  0.00    -0.330 NA
ATOM     14  H   UNL     1      -6.000  28.984 -31.914  1.00  0.00     0.118 HD
ATOM     15  H   UNL     1      -5.139  27.941 -32.914  1.00  0.00     0.118 HD
ENDBRANCH  12  13
ENDBRANCH  11  12
ENDBRANCH  10  11
ENDBRANCH   1  10
BRANCH   2  16
ATOM     16  C   UNL     1      -5.064  21.967 -32.203  1.00  0.00     0.090 C 
BRANCH  16  17
ATOM     17  C   UNL     1      -5.714  20.647 -31.776  1.00  0.00     0.085 C 
BRANCH  17  18
ATOM     18  N   UNL     1      -4.744  19.550 -31.787  1.00  0.00    -0.330 NA
ATOM     19  H   UNL     1      -4.512  19.287 -30.819  1.00  0.00     0.118 HD
ATOM     20  H   UNL     1      -5.149  18.738 -32.275  1.00  0.00     0.118 HD
ENDBRANCH  17  18
ENDBRANCH  16  17
ENDBRANCH   2  16
BRANCH   6  21
ATOM     21  C   UNL     1      -2.056  24.095 -25.790  1.00  0.00     0.248 C 
ATOM     22  N   UNL     1      -2.609  24.910 -24.843  1.00  0.00    -0.366 N 
ATOM     23  O   UNL     1      -1.129  23.347 -25.503  1.00  0.00    -0.270 OA
ATOM     24  H   UNL     1      -2.233  24.915 -23.884  1.00  0.00     0.159 HD
ATOM     25  H   UNL     1      -3.402  25.520 -25.088  1.00  0.00     0.159 HD
ENDBRANCH   6  21
TORSDOF 8
