REMARK VINA RESULT:    -9.873      0.000      0.000
REMARK INTER + INTRA:         -16.004
REMARK INTER:                 -15.067
REMARK INTRA:                  -0.936
REMARK UNBOUND:                -0.936
REMARK SMILES c1cc[n+](CCCCCCCC[n+]2ccc3ccccc3c2)cc1
REMARK SMILES IDX 8 1 7 2 6 3 5 4 4 5 1 6 2 7 24 8 3 9 23 10 9 11 10 12 11 13
REMARK SMILES IDX 12 14 13 15 14 16 22 17 15 18 21 19 16 20 20 21 17 22 19 23
REMARK SMILES IDX 18 24
REMARK H PARENT
ROOT
ATOM      1  C   UNL     1     -10.649 -46.405  29.024  1.00  0.00     0.000 C 
ENDROOT
BRANCH   1   2
ATOM      2  C   UNL     1     -11.350 -45.908  30.295  1.00  0.00     0.007 C 
BRANCH   2   3
ATOM      3  C   UNL     1     -10.331 -45.468  31.352  1.00  0.00     0.073 C 
BRANCH   3   4
ATOM      4  C   UNL     1     -10.230 -43.952  31.513  1.00  0.00     0.356 C 
BRANCH   4   5
ATOM      5  N   UNL     1      -9.945 -43.295  30.214  1.00  0.00    -0.205 N 
ATOM      6  C   UNL     1      -9.432 -42.126  27.764  1.00  0.00     0.012 A 
ATOM      7  C   UNL     1      -8.397 -42.678  28.508  1.00  0.00     0.071 A 
ATOM      8  C   UNL     1     -10.727 -42.175  28.259  1.00  0.00     0.071 A 
ATOM      9  C   UNL     1      -8.678 -43.266  29.736  1.00  0.00     0.308 A 
ATOM     10  C   UNL     1     -10.965 -42.773  29.491  1.00  0.00     0.308 A 
ENDBRANCH   4   5
ENDBRANCH   3   4
ENDBRANCH   2   3
ENDBRANCH   1   2
BRANCH   1  11
ATOM     11  C   UNL     1     -11.606 -46.485  27.830  1.00  0.00     0.000 C 
BRANCH  11  12
ATOM     12  C   UNL     1     -12.925 -45.760  28.123  1.00  0.00     0.007 C 
BRANCH  12  13
ATOM     13  C   UNL     1     -13.543 -45.164  26.855  1.00  0.00     0.073 C 
BRANCH  13  14
ATOM     14  C   UNL     1     -13.767 -43.660  26.999  1.00  0.00     0.356 C 
BRANCH  14  15
ATOM     15  N   UNL     1     -15.073 -43.293  26.398  1.00  0.00    -0.205 N 
ATOM     16  C   UNL     1     -15.241 -43.376  25.059  1.00  0.00     0.308 A 
ATOM     17  C   UNL     1     -16.079 -42.862  27.195  1.00  0.00     0.316 A 
ATOM     18  C   UNL     1     -16.452 -43.030  24.472  1.00  0.00     0.079 A 
ATOM     19  C   UNL     1     -17.321 -42.500  26.664  1.00  0.00     0.046 A 
ATOM     20  C   UNL     1     -17.508 -42.589  25.271  1.00  0.00    -0.006 A 
ATOM     21  C   UNL     1     -18.376 -42.054  27.477  1.00  0.00     0.015 A 
ATOM     22  C   UNL     1     -18.747 -42.229  24.717  1.00  0.00     0.009 A 
ATOM     23  C   UNL     1     -19.602 -41.700  26.913  1.00  0.00     0.001 A 
ATOM     24  C   UNL     1     -19.787 -41.788  25.536  1.00  0.00     0.001 A 
ENDBRANCH  14  15
ENDBRANCH  13  14
ENDBRANCH  12  13
ENDBRANCH  11  12
ENDBRANCH   1  11
TORSDOF 9
