REMARK VINA RESULT:    -7.900      5.727     10.255
REMARK INTER + INTRA:         -13.864
REMARK INTER:                 -12.280
REMARK INTRA:                  -1.584
REMARK UNBOUND:                -1.115
REMARK SMILES CCC[C@H](Cc1ccc(OC)c(CNC(=O)c2ccc([C@]34C[C@H]5C[C@H](C[C@H](C5)C3)C4)cc2)c1)C(=O)O
REMARK SMILES IDX 6 1 7 2 8 3 9 4 12 5 33 6 5 7 4 8 3 9 2 10 1 11 34 12 35 13
REMARK SMILES IDX 36 14 13 16 14 17 15 18 16 19 17 21 18 22 32 23 19 24 31 25
REMARK SMILES IDX 20 26 21 27 29 28 30 29 22 30 27 31 25 32 23 33 28 34 26 35
REMARK SMILES IDX 24 36 10 37 11 38
REMARK H PARENT 36 15 14 20
ROOT
ATOM      1  C   UNL     1     -13.942  -2.256 -29.714  1.00  0.00    -0.047 A 
ATOM      2  C   UNL     1     -13.435  -1.137 -30.380  1.00  0.00     0.007 A 
ATOM      3  C   UNL     1     -12.275  -1.237 -31.158  1.00  0.00     0.047 A 
ATOM      4  C   UNL     1     -11.613  -2.460 -31.304  1.00  0.00     0.123 A 
ATOM      5  C   UNL     1     -12.114  -3.592 -30.641  1.00  0.00     0.014 A 
ATOM      6  C   UNL     1     -13.248  -3.466 -29.823  1.00  0.00     0.013 A 
ENDROOT
BRANCH   1   7
ATOM      7  C   UNL     1     -15.239  -2.190 -28.940  1.00  0.00     0.050 C 
BRANCH   7   8
ATOM      8  C   UNL     1     -15.087  -1.977 -27.415  1.00  0.00     0.103 C 
BRANCH   8   9
ATOM      9  C   UNL     1     -13.975  -2.853 -26.810  1.00  0.00     0.015 C 
BRANCH   9  10
ATOM     10  C   UNL     1     -14.421  -3.546 -25.516  1.00  0.00    -0.003 C 
ATOM     11  C   UNL     1     -13.954  -4.993 -25.472  1.00  0.00     0.004 C 
ENDBRANCH   9  10
ENDBRANCH   8   9
BRANCH   8  12
ATOM     12  C   UNL     1     -14.949  -0.491 -27.135  1.00  0.00     0.306 C 
ATOM     13  O   UNL     1     -15.277   0.390 -27.916  1.00  0.00    -0.252 OA
BRANCH  12  14
ATOM     14  O   UNL     1     -14.310  -0.202 -25.988  1.00  0.00    -0.481 OA
ATOM     15  H   UNL     1     -13.573   0.416 -26.228  1.00  0.00     0.296 HD
ENDBRANCH  12  14
ENDBRANCH   8  12
ENDBRANCH   7   8
ENDBRANCH   1   7
BRANCH   5  16
ATOM     16  C   UNL     1     -11.532  -4.968 -30.850  1.00  0.00     0.156 C 
BRANCH  16  17
ATOM     17  N   UNL     1     -11.084  -5.533 -29.592  1.00  0.00    -0.348 N 
ATOM     18  C   UNL     1     -10.970  -6.888 -29.379  1.00  0.00     0.251 C 
ATOM     19  O   UNL     1     -11.227  -7.742 -30.226  1.00  0.00    -0.269 OA
ATOM     20  H   UNL     1     -10.683  -4.881 -28.936  1.00  0.00     0.164 HD
BRANCH  18  21
ATOM     21  C   UNL     1     -10.453  -7.306 -28.043  1.00  0.00     0.039 A 
ATOM     22  C   UNL     1      -9.251  -7.999 -27.888  1.00  0.00     0.014 A 
ATOM     23  C   UNL     1     -11.192  -6.970 -26.906  1.00  0.00     0.014 A 
ATOM     24  C   UNL     1      -8.811  -8.365 -26.608  1.00  0.00     0.005 A 
ATOM     25  C   UNL     1     -10.744  -7.332 -25.630  1.00  0.00     0.005 A 
ATOM     26  C   UNL     1      -9.544  -8.037 -25.450  1.00  0.00    -0.042 A 
BRANCH  26  27
ATOM     27  C   UNL     1      -9.026  -8.453 -24.061  1.00  0.00    -0.004 C 
ATOM     28  C   UNL     1     -10.194  -9.041 -23.216  1.00  0.00     0.015 C 
ATOM     29  C   UNL     1      -8.412  -7.277 -23.241  1.00  0.00     0.015 C 
ATOM     30  C   UNL     1      -7.920  -9.542 -24.197  1.00  0.00     0.015 C 
ATOM     31  C   UNL     1      -9.699  -9.515 -21.838  1.00  0.00    -0.010 C 
ATOM     32  C   UNL     1      -7.916  -7.744 -21.862  1.00  0.00    -0.010 C 
ATOM     33  C   UNL     1      -7.431 -10.015 -22.817  1.00  0.00    -0.010 C 
ATOM     34  C   UNL     1      -8.619 -10.592 -22.029  1.00  0.00     0.007 C 
ATOM     35  C   UNL     1      -9.099  -8.326 -21.074  1.00  0.00     0.007 C 
ATOM     36  C   UNL     1      -6.842  -8.824 -22.050  1.00  0.00     0.007 C 
ENDBRANCH  26  27
ENDBRANCH  18  21
ENDBRANCH  16  17
ENDBRANCH   5  16
BRANCH   4  37
ATOM     37  O   UNL     1     -10.501  -2.662 -32.079  1.00  0.00    -0.496 OA
ATOM     38  C   UNL     1      -9.288  -2.066 -31.632  1.00  0.00     0.278 C 
ENDBRANCH   4  37
TORSDOF 11
