MODEL 1
REMARK VINA RESULT:    -8.030      0.000      0.000
REMARK INTER + INTRA:         -13.505
REMARK INTER:                 -12.255
REMARK INTRA:                  -1.250
REMARK UNBOUND:                -1.250
REMARK SMILES CCC(CC)n1cc(-c2nc(-c3cnn(C[C@@H](O)CN)c3)cn3nccc23)cn1
REMARK SMILES IDX 12 1 13 2 14 3 15 4 21 5 11 6 9 7 10 8 27 9 26 10 23 11
REMARK SMILES IDX 22 12 25 13 24 14 8 15 6 16 7 17 29 18 28 19 3 20 2 21 1 22
REMARK SMILES IDX 4 23 5 24 16 25 17 26 18 27 19 29 20 30
REMARK H PARENT 18 28 20 31 20 32
ROOT
ATOM      1  C   UNL     1       3.601 -18.996  20.457  1.00  0.00     0.040 A 
ATOM      2  C   UNL     1       2.578 -18.728  21.395  1.00  0.00     0.145 A 
ATOM      3  N   UNL     1       1.589 -17.988  20.883  1.00  0.00    -0.181 NA
ATOM      4  N   UNL     1       1.973 -17.790  19.607  1.00  0.00    -0.269 N 
ATOM      5  C   UNL     1       3.170 -18.369  19.307  1.00  0.00     0.119 A 
ENDROOT
BRANCH   1   6
ATOM      6  C   UNL     1       4.815 -19.743  20.616  1.00  0.00     0.092 A 
ATOM      7  C   UNL     1       5.685 -21.782  21.297  1.00  0.00     0.100 A 
ATOM      8  N   UNL     1       4.641 -21.023  21.120  1.00  0.00    -0.244 NA
ATOM      9  C   UNL     1       7.020 -21.321  21.019  1.00  0.00     0.093 A 
ATOM     10  C   UNL     1       8.298 -21.810  21.180  1.00  0.00     0.052 A 
ATOM     11  N   UNL     1       7.147 -20.048  20.500  1.00  0.00    -0.237 N 
ATOM     12  C   UNL     1       6.030 -19.261  20.301  1.00  0.00     0.142 A 
ATOM     13  C   UNL     1       9.129 -20.792  20.685  1.00  0.00     0.136 A 
ATOM     14  N   UNL     1       8.442 -19.732  20.260  1.00  0.00    -0.176 NA
BRANCH   7  15
ATOM     15  C   UNL     1       5.445 -23.121  21.794  1.00  0.00     0.040 A 
ATOM     16  N   UNL     1       4.794 -25.210  22.115  1.00  0.00    -0.269 N 
ATOM     17  C   UNL     1       4.743 -24.169  21.227  1.00  0.00     0.119 A 
ATOM     18  N   UNL     1       5.473 -24.910  23.236  1.00  0.00    -0.181 NA
ATOM     19  C   UNL     1       5.851 -23.644  23.048  1.00  0.00     0.145 A 
BRANCH  16  20
ATOM     20  C   UNL     1       4.181 -26.525  21.941  1.00  0.00     0.107 C 
BRANCH  20  21
ATOM     21  C   UNL     1       2.706 -26.460  21.498  1.00  0.00     0.024 C 
ATOM     22  C   UNL     1       2.131 -27.833  21.163  1.00  0.00     0.006 C 
ENDBRANCH  20  21
BRANCH  20  23
ATOM     23  C   UNL     1       4.398 -27.422  23.178  1.00  0.00     0.024 C 
ATOM     24  C   UNL     1       5.368 -28.582  22.994  1.00  0.00     0.006 C 
ENDBRANCH  20  23
ENDBRANCH  16  20
ENDBRANCH   7  15
ENDBRANCH   1   6
BRANCH   4  25
ATOM     25  C   UNL     1       1.133 -17.024  18.711  1.00  0.00     0.177 C 
BRANCH  25  26
ATOM     26  C   UNL     1       0.784 -15.644  19.261  1.00  0.00     0.149 C 
BRANCH  26  27
ATOM     27  O   UNL     1      -0.115 -15.802  20.374  1.00  0.00    -0.390 OA
ATOM     28  H   UNL     1      -0.407 -14.886  20.576  1.00  0.00     0.211 HD
ENDBRANCH  26  27
BRANCH  26  29
ATOM     29  C   UNL     1       2.017 -14.859  19.748  1.00  0.00     0.111 C 
BRANCH  29  30
ATOM     30  N   UNL     1       1.944 -14.690  21.212  1.00  0.00    -0.328 NA
ATOM     31  H   UNL     1       1.012 -14.976  21.520  1.00  0.00     0.118 HD
ATOM     32  H   UNL     1       2.586 -15.352  21.652  1.00  0.00     0.118 HD
ENDBRANCH  29  30
ENDBRANCH  26  29
ENDBRANCH  25  26
ENDBRANCH   4  25
TORSDOF 10
ENDMDL
MODEL 2
REMARK VINA RESULT:    -7.978      1.078      1.239
REMARK INTER + INTRA:         -13.425
REMARK INTER:                 -12.093
REMARK INTRA:                  -1.332
REMARK UNBOUND:                -1.250
REMARK SMILES CCC(CC)n1cc(-c2nc(-c3cnn(C[C@@H](O)CN)c3)cn3nccc23)cn1
REMARK SMILES IDX 12 1 13 2 14 3 15 4 21 5 11 6 9 7 10 8 27 9 26 10 23 11
REMARK SMILES IDX 22 12 25 13 24 14 8 15 6 16 7 17 29 18 28 19 3 20 2 21 1 22
REMARK SMILES IDX 4 23 5 24 16 25 17 26 18 27 19 29 20 30
REMARK H PARENT 18 28 20 31 20 32
ROOT
ATOM      1  C   UNL     1       3.986 -19.206  20.535  1.00  0.00     0.040 A 
ATOM      2  C   UNL     1       2.675 -19.419  21.018  1.00  0.00     0.145 A 
ATOM      3  N   UNL     1       1.832 -18.440  20.674  1.00  0.00    -0.181 NA
ATOM      4  N   UNL     1       2.603 -17.600  19.957  1.00  0.00    -0.269 N 
ATOM      5  C   UNL     1       3.898 -18.013  19.850  1.00  0.00     0.119 A 
ENDROOT
BRANCH   1   6
ATOM      6  C   UNL     1       5.161 -20.014  20.690  1.00  0.00     0.092 A 
ATOM      7  C   UNL     1       5.926 -22.100  21.353  1.00  0.00     0.100 A 
ATOM      8  N   UNL     1       4.921 -21.288  21.181  1.00  0.00    -0.244 NA
ATOM      9  C   UNL     1       7.283 -21.705  21.083  1.00  0.00     0.093 A 
ATOM     10  C   UNL     1       8.534 -22.258  21.243  1.00  0.00     0.052 A 
ATOM     11  N   UNL     1       7.475 -20.435  20.577  1.00  0.00    -0.237 N 
ATOM     12  C   UNL     1       6.399 -19.591  20.382  1.00  0.00     0.142 A 
ATOM     13  C   UNL     1       9.417 -21.278  20.760  1.00  0.00     0.136 A 
ATOM     14  N   UNL     1       8.785 -20.181  20.343  1.00  0.00    -0.176 NA
BRANCH   7  15
ATOM     15  C   UNL     1       5.618 -23.430  21.837  1.00  0.00     0.040 A 
ATOM     16  N   UNL     1       4.878 -25.494  22.128  1.00  0.00    -0.269 N 
ATOM     17  C   UNL     1       4.899 -24.450  21.242  1.00  0.00     0.119 A 
ATOM     18  N   UNL     1       5.525 -25.221  23.274  1.00  0.00    -0.181 NA
ATOM     19  C   UNL     1       5.956 -23.970  23.104  1.00  0.00     0.145 A 
BRANCH  16  20
ATOM     20  C   UNL     1       4.223 -26.785  21.927  1.00  0.00     0.107 C 
BRANCH  20  21
ATOM     21  C   UNL     1       2.733 -26.665  21.550  1.00  0.00     0.024 C 
ATOM     22  C   UNL     1       2.129 -27.994  21.108  1.00  0.00     0.006 C 
ENDBRANCH  20  21
BRANCH  20  23
ATOM     23  C   UNL     1       4.468 -27.738  23.116  1.00  0.00     0.024 C 
ATOM     24  C   UNL     1       5.605 -28.737  22.943  1.00  0.00     0.006 C 
ENDBRANCH  20  23
ENDBRANCH  16  20
ENDBRANCH   7  15
ENDBRANCH   1   6
BRANCH   4  25
ATOM     25  C   UNL     1       2.028 -16.397  19.391  1.00  0.00     0.177 C 
BRANCH  25  26
ATOM     26  C   UNL     1       1.097 -16.684  18.216  1.00  0.00     0.149 C 
BRANCH  26  27
ATOM     27  O   UNL     1       1.088 -18.101  17.966  1.00  0.00    -0.390 OA
ATOM     28  H   UNL     1       1.487 -18.188  17.073  1.00  0.00     0.211 HD
ENDBRANCH  26  27
BRANCH  26  29
ATOM     29  C   UNL     1      -0.354 -16.233  18.472  1.00  0.00     0.111 C 
BRANCH  29  30
ATOM     30  N   UNL     1      -0.774 -16.670  19.817  1.00  0.00    -0.328 NA
ATOM     31  H   UNL     1       0.067 -16.831  20.376  1.00  0.00     0.118 HD
ATOM     32  H   UNL     1      -1.259 -15.898  20.277  1.00  0.00     0.118 HD
ENDBRANCH  29  30
ENDBRANCH  26  29
ENDBRANCH  25  26
ENDBRANCH   4  25
TORSDOF 10
ENDMDL
MODEL 3
REMARK VINA RESULT:    -7.954      1.523      1.671
REMARK INTER + INTRA:         -13.389
REMARK INTER:                 -12.503
REMARK INTRA:                  -0.886
REMARK UNBOUND:                -1.250
REMARK SMILES CCC(CC)n1cc(-c2nc(-c3cnn(C[C@@H](O)CN)c3)cn3nccc23)cn1
REMARK SMILES IDX 12 1 13 2 14 3 15 4 21 5 11 6 9 7 10 8 27 9 26 10 23 11
REMARK SMILES IDX 22 12 25 13 24 14 8 15 6 16 7 17 29 18 28 19 3 20 2 21 1 22
REMARK SMILES IDX 4 23 5 24 16 25 17 26 18 27 19 29 20 30
REMARK H PARENT 18 28 20 31 20 32
ROOT
ATOM      1  C   UNL     1       3.818 -19.394  20.136  1.00  0.00     0.040 A 
ATOM      2  C   UNL     1       2.668 -19.220  20.939  1.00  0.00     0.145 A 
ATOM      3  N   UNL     1       1.741 -18.453  20.356  1.00  0.00    -0.181 NA
ATOM      4  N   UNL     1       2.293 -18.142  19.168  1.00  0.00    -0.269 N 
ATOM      5  C   UNL     1       3.535 -18.678  18.992  1.00  0.00     0.119 A 
ENDROOT
BRANCH   1   6
ATOM      6  C   UNL     1       5.017 -20.135  20.402  1.00  0.00     0.092 A 
ATOM      7  C   UNL     1       5.834 -22.151  21.206  1.00  0.00     0.100 A 
ATOM      8  N   UNL     1       4.806 -21.398  20.933  1.00  0.00    -0.244 NA
ATOM      9  C   UNL     1       7.186 -21.699  21.006  1.00  0.00     0.093 A 
ATOM     10  C   UNL     1       8.449 -22.181  21.270  1.00  0.00     0.052 A 
ATOM     11  N   UNL     1       7.351 -20.443  20.457  1.00  0.00    -0.237 N 
ATOM     12  C   UNL     1       6.251 -19.663  20.156  1.00  0.00     0.142 A 
ATOM     13  C   UNL     1       9.314 -21.180  20.802  1.00  0.00     0.136 A 
ATOM     14  N   UNL     1       8.660 -20.134  20.297  1.00  0.00    -0.176 NA
BRANCH   7  15
ATOM     15  C   UNL     1       5.558 -23.473  21.728  1.00  0.00     0.040 A 
ATOM     16  N   UNL     1       4.844 -25.534  22.092  1.00  0.00    -0.269 N 
ATOM     17  C   UNL     1       4.813 -24.506  21.188  1.00  0.00     0.119 A 
ATOM     18  N   UNL     1       5.549 -25.239  23.198  1.00  0.00    -0.181 NA
ATOM     19  C   UNL     1       5.965 -23.989  22.984  1.00  0.00     0.145 A 
BRANCH  16  20
ATOM     20  C   UNL     1       4.186 -26.831  21.948  1.00  0.00     0.107 C 
BRANCH  20  21
ATOM     21  C   UNL     1       2.683 -26.723  21.620  1.00  0.00     0.024 C 
ATOM     22  C   UNL     1       2.092 -28.041  21.130  1.00  0.00     0.006 C 
ENDBRANCH  20  21
BRANCH  20  23
ATOM     23  C   UNL     1       4.474 -27.752  23.152  1.00  0.00     0.024 C 
ATOM     24  C   UNL     1       5.272 -29.013  22.847  1.00  0.00     0.006 C 
ENDBRANCH  20  23
ENDBRANCH  16  20
ENDBRANCH   7  15
ENDBRANCH   1   6
BRANCH   4  25
ATOM     25  C   UNL     1       1.567 -17.315  18.228  1.00  0.00     0.177 C 
BRANCH  25  26
ATOM     26  C   UNL     1       2.369 -17.008  16.966  1.00  0.00     0.149 C 
BRANCH  26  27
ATOM     27  O   UNL     1       1.726 -17.637  15.843  1.00  0.00    -0.390 OA
ATOM     28  H   UNL     1       0.801 -17.776  16.145  1.00  0.00     0.211 HD
ENDBRANCH  26  27
BRANCH  26  29
ATOM     29  C   UNL     1       2.480 -15.500  16.673  1.00  0.00     0.111 C 
BRANCH  29  30
ATOM     30  N   UNL     1       3.858 -15.182  16.252  1.00  0.00    -0.328 NA
ATOM     31  H   UNL     1       4.110 -15.810  15.485  1.00  0.00     0.118 HD
ATOM     32  H   UNL     1       3.870 -14.245  15.846  1.00  0.00     0.118 HD
ENDBRANCH  29  30
ENDBRANCH  26  29
ENDBRANCH  25  26
ENDBRANCH   4  25
TORSDOF 10
ENDMDL
MODEL 4
REMARK VINA RESULT:    -7.892      1.167      1.942
REMARK INTER + INTRA:         -13.294
REMARK INTER:                 -12.397
REMARK INTRA:                  -0.897
REMARK UNBOUND:                -1.250
REMARK SMILES CCC(CC)n1cc(-c2nc(-c3cnn(C[C@@H](O)CN)c3)cn3nccc23)cn1
REMARK SMILES IDX 12 1 13 2 14 3 15 4 21 5 11 6 9 7 10 8 27 9 26 10 23 11
REMARK SMILES IDX 22 12 25 13 24 14 8 15 6 16 7 17 29 18 28 19 3 20 2 21 1 22
REMARK SMILES IDX 4 23 5 24 16 25 17 26 18 27 19 29 20 30
REMARK H PARENT 18 28 20 31 20 32
ROOT
ATOM      1  C   UNL     1       3.892 -19.562  20.254  1.00  0.00     0.040 A 
ATOM      2  C   UNL     1       2.682 -19.553  20.984  1.00  0.00     0.145 A 
ATOM      3  N   UNL     1       1.775 -18.716  20.470  1.00  0.00    -0.181 NA
ATOM      4  N   UNL     1       2.401 -18.193  19.399  1.00  0.00    -0.269 N 
ATOM      5  C   UNL     1       3.670 -18.664  19.231  1.00  0.00     0.119 A 
ENDROOT
BRANCH   1   6
ATOM      6  C   UNL     1       5.092 -20.313  20.481  1.00  0.00     0.092 A 
ATOM      7  C   UNL     1       5.914 -22.360  21.196  1.00  0.00     0.100 A 
ATOM      8  N   UNL     1       4.885 -21.597  20.962  1.00  0.00    -0.244 NA
ATOM      9  C   UNL     1       7.265 -21.901  21.006  1.00  0.00     0.093 A 
ATOM     10  C   UNL     1       8.529 -22.394  21.242  1.00  0.00     0.052 A 
ATOM     11  N   UNL     1       7.427 -20.624  20.507  1.00  0.00    -0.237 N 
ATOM     12  C   UNL     1       6.326 -19.832  20.246  1.00  0.00     0.142 A 
ATOM     13  C   UNL     1       9.392 -21.374  20.808  1.00  0.00     0.136 A 
ATOM     14  N   UNL     1       8.735 -20.309  20.351  1.00  0.00    -0.176 NA
BRANCH   7  15
ATOM     15  C   UNL     1       5.641 -23.703  21.666  1.00  0.00     0.040 A 
ATOM     16  N   UNL     1       5.692 -25.700  22.616  1.00  0.00    -0.269 N 
ATOM     17  C   UNL     1       6.372 -24.516  22.513  1.00  0.00     0.119 A 
ATOM     18  N   UNL     1       4.567 -25.723  21.880  1.00  0.00    -0.181 NA
ATOM     19  C   UNL     1       4.547 -24.524  21.294  1.00  0.00     0.145 A 
BRANCH  16  20
ATOM     20  C   UNL     1       6.096 -26.863  23.402  1.00  0.00     0.107 C 
BRANCH  20  21
ATOM     21  C   UNL     1       7.570 -26.819  23.850  1.00  0.00     0.024 C 
ATOM     22  C   UNL     1       7.880 -27.825  24.953  1.00  0.00     0.006 C 
ENDBRANCH  20  21
BRANCH  20  23
ATOM     23  C   UNL     1       5.721 -28.184  22.697  1.00  0.00     0.024 C 
ATOM     24  C   UNL     1       4.702 -29.056  23.420  1.00  0.00     0.006 C 
ENDBRANCH  20  23
ENDBRANCH  16  20
ENDBRANCH   7  15
ENDBRANCH   1   6
BRANCH   4  25
ATOM     25  C   UNL     1       1.718 -17.230  18.561  1.00  0.00     0.177 C 
BRANCH  25  26
ATOM     26  C   UNL     1       1.310 -15.970  19.320  1.00  0.00     0.149 C 
BRANCH  26  27
ATOM     27  O   UNL     1       0.324 -16.321  20.307  1.00  0.00    -0.390 OA
ATOM     28  H   UNL     1       0.137 -15.474  20.768  1.00  0.00     0.211 HD
ENDBRANCH  26  27
BRANCH  26  29
ATOM     29  C   UNL     1       2.491 -15.291  20.041  1.00  0.00     0.111 C 
BRANCH  29  30
ATOM     30  N   UNL     1       1.972 -14.378  21.078  1.00  0.00    -0.328 NA
ATOM     31  H   UNL     1       2.265 -13.428  20.842  1.00  0.00     0.118 HD
ATOM     32  H   UNL     1       0.952 -14.365  21.024  1.00  0.00     0.118 HD
ENDBRANCH  29  30
ENDBRANCH  26  29
ENDBRANCH  25  26
ENDBRANCH   4  25
TORSDOF 10
ENDMDL
MODEL 5
REMARK VINA RESULT:    -7.857      4.772     10.168
REMARK INTER + INTRA:         -13.240
REMARK INTER:                 -11.780
REMARK INTRA:                  -1.460
REMARK UNBOUND:                -1.250
REMARK SMILES CCC(CC)n1cc(-c2nc(-c3cnn(C[C@@H](O)CN)c3)cn3nccc23)cn1
REMARK SMILES IDX 12 1 13 2 14 3 15 4 21 5 11 6 9 7 10 8 27 9 26 10 23 11
REMARK SMILES IDX 22 12 25 13 24 14 8 15 6 16 7 17 29 18 28 19 3 20 2 21 1 22
REMARK SMILES IDX 4 23 5 24 16 25 17 26 18 27 19 29 20 30
REMARK H PARENT 18 28 20 31 20 32
ROOT
ATOM      1  C   UNL     1       8.055 -26.750  24.504  1.00  0.00     0.040 A 
ATOM      2  C   UNL     1       8.393 -27.923  25.217  1.00  0.00     0.145 A 
ATOM      3  N   UNL     1       9.549 -27.809  25.881  1.00  0.00    -0.181 NA
ATOM      4  N   UNL     1       9.949 -26.553  25.601  1.00  0.00    -0.269 N 
ATOM      5  C   UNL     1       9.091 -25.883  24.780  1.00  0.00     0.119 A 
ENDROOT
BRANCH   1   6
ATOM      6  C   UNL     1       6.913 -26.478  23.680  1.00  0.00     0.092 A 
ATOM      7  C   UNL     1       5.890 -24.859  22.372  1.00  0.00     0.100 A 
ATOM      8  N   UNL     1       6.886 -25.202  23.139  1.00  0.00    -0.244 NA
ATOM      9  C   UNL     1       4.796 -25.753  22.097  1.00  0.00     0.093 A 
ATOM     10  C   UNL     1       3.589 -25.679  21.437  1.00  0.00     0.052 A 
ATOM     11  N   UNL     1       4.872 -27.020  22.639  1.00  0.00    -0.237 N 
ATOM     12  C   UNL     1       5.943 -27.376  23.435  1.00  0.00     0.142 A 
ATOM     13  C   UNL     1       3.028 -26.958  21.585  1.00  0.00     0.136 A 
ATOM     14  N   UNL     1       3.802 -27.777  22.296  1.00  0.00    -0.176 NA
BRANCH   7  15
ATOM     15  C   UNL     1       5.927 -23.527  21.806  1.00  0.00     0.040 A 
ATOM     16  N   UNL     1       5.583 -21.408  21.271  1.00  0.00    -0.269 N 
ATOM     17  C   UNL     1       5.178 -22.406  22.117  1.00  0.00     0.119 A 
ATOM     18  N   UNL     1       6.540 -21.805  20.414  1.00  0.00    -0.181 NA
ATOM     19  C   UNL     1       6.734 -23.087  20.727  1.00  0.00     0.145 A 
BRANCH  16  20
ATOM     20  C   UNL     1       5.060 -20.044  21.231  1.00  0.00     0.107 C 
BRANCH  20  21
ATOM     21  C   UNL     1       4.918 -19.402  22.625  1.00  0.00     0.024 C 
ATOM     22  C   UNL     1       3.462 -19.223  23.044  1.00  0.00     0.006 C 
ENDBRANCH  20  21
BRANCH  20  23
ATOM     23  C   UNL     1       3.768 -19.954  20.393  1.00  0.00     0.024 C 
ATOM     24  C   UNL     1       3.852 -19.102  19.133  1.00  0.00     0.006 C 
ENDBRANCH  20  23
ENDBRANCH  16  20
ENDBRANCH   7  15
ENDBRANCH   1   6
BRANCH   4  25
ATOM     25  C   UNL     1      11.183 -26.046  26.164  1.00  0.00     0.177 C 
BRANCH  25  26
ATOM     26  C   UNL     1      11.147 -25.959  27.687  1.00  0.00     0.149 C 
BRANCH  26  27
ATOM     27  O   UNL     1       9.781 -26.076  28.126  1.00  0.00    -0.390 OA
ATOM     28  H   UNL     1       9.516 -26.978  27.843  1.00  0.00     0.211 HD
ENDBRANCH  26  27
BRANCH  26  29
ATOM     29  C   UNL     1      11.968 -27.068  28.374  1.00  0.00     0.111 C 
BRANCH  29  30
ATOM     30  N   UNL     1      11.159 -28.299  28.453  1.00  0.00    -0.328 NA
ATOM     31  H   UNL     1      11.697 -29.002  28.965  1.00  0.00     0.118 HD
ATOM     32  H   UNL     1      10.337 -28.117  29.032  1.00  0.00     0.118 HD
ENDBRANCH  29  30
ENDBRANCH  26  29
ENDBRANCH  25  26
ENDBRANCH   4  25
TORSDOF 10
ENDMDL
MODEL 6
REMARK VINA RESULT:    -7.681      3.789      6.647
REMARK INTER + INTRA:         -12.972
REMARK INTER:                 -12.299
REMARK INTRA:                  -0.674
REMARK UNBOUND:                -1.250
REMARK SMILES CCC(CC)n1cc(-c2nc(-c3cnn(C[C@@H](O)CN)c3)cn3nccc23)cn1
REMARK SMILES IDX 12 1 13 2 14 3 15 4 21 5 11 6 9 7 10 8 27 9 26 10 23 11
REMARK SMILES IDX 22 12 25 13 24 14 8 15 6 16 7 17 29 18 28 19 3 20 2 21 1 22
REMARK SMILES IDX 4 23 5 24 16 25 17 26 18 27 19 29 20 30
REMARK H PARENT 18 28 20 31 20 32
ROOT
ATOM      1  C   UNL     1       5.230 -23.362  21.901  1.00  0.00     0.040 A 
ATOM      2  C   UNL     1       5.788 -22.251  22.572  1.00  0.00     0.145 A 
ATOM      3  N   UNL     1       5.553 -21.095  21.940  1.00  0.00    -0.181 NA
ATOM      4  N   UNL     1       4.832 -21.466  20.865  1.00  0.00    -0.269 N 
ATOM      5  C   UNL     1       4.617 -22.811  20.796  1.00  0.00     0.119 A 
ENDROOT
BRANCH   1   6
ATOM      6  C   UNL     1       5.263 -24.753  22.250  1.00  0.00     0.092 A 
ATOM      7  C   UNL     1       6.462 -26.365  23.410  1.00  0.00     0.100 A 
ATOM      8  N   UNL     1       6.344 -25.122  23.036  1.00  0.00    -0.244 NA
ATOM      9  C   UNL     1       5.522 -27.376  23.003  1.00  0.00     0.093 A 
ATOM     10  C   UNL     1       5.409 -28.743  23.132  1.00  0.00     0.052 A 
ATOM     11  N   UNL     1       4.450 -26.963  22.238  1.00  0.00    -0.237 N 
ATOM     12  C   UNL     1       4.329 -25.638  21.864  1.00  0.00     0.142 A 
ATOM     13  C   UNL     1       4.216 -29.063  22.463  1.00  0.00     0.136 A 
ATOM     14  N   UNL     1       3.624 -27.993  21.933  1.00  0.00    -0.176 NA
BRANCH   7  15
ATOM     15  C   UNL     1       7.590 -26.692  24.256  1.00  0.00     0.040 A 
ATOM     16  N   UNL     1       9.474 -26.710  25.414  1.00  0.00    -0.269 N 
ATOM     17  C   UNL     1       8.682 -25.925  24.620  1.00  0.00     0.119 A 
ATOM     18  N   UNL     1       8.981 -27.949  25.585  1.00  0.00    -0.181 NA
ATOM     19  C   UNL     1       7.853 -27.941  24.872  1.00  0.00     0.145 A 
BRANCH  16  20
ATOM     20  C   UNL     1      10.743 -26.318  26.026  1.00  0.00     0.107 C 
BRANCH  20  21
ATOM     21  C   UNL     1      11.971 -26.966  25.356  1.00  0.00     0.024 C 
ATOM     22  C   UNL     1      13.261 -26.722  26.133  1.00  0.00     0.006 C 
ENDBRANCH  20  21
BRANCH  20  23
ATOM     23  C   UNL     1      10.720 -26.513  27.557  1.00  0.00     0.024 C 
ATOM     24  C   UNL     1      10.470 -25.256  28.381  1.00  0.00     0.006 C 
ENDBRANCH  20  23
ENDBRANCH  16  20
ENDBRANCH   7  15
ENDBRANCH   1   6
BRANCH   4  25
ATOM     25  C   UNL     1       4.370 -20.466  19.925  1.00  0.00     0.177 C 
BRANCH  25  26
ATOM     26  C   UNL     1       3.134 -19.718  20.417  1.00  0.00     0.149 C 
BRANCH  26  27
ATOM     27  O   UNL     1       3.279 -19.459  21.825  1.00  0.00    -0.390 OA
ATOM     28  H   UNL     1       3.882 -18.684  21.864  1.00  0.00     0.211 HD
ENDBRANCH  26  27
BRANCH  26  29
ATOM     29  C   UNL     1       2.919 -18.371  19.701  1.00  0.00     0.111 C 
BRANCH  29  30
ATOM     30  N   UNL     1       1.687 -18.437  18.892  1.00  0.00    -0.328 NA
ATOM     31  H   UNL     1       1.639 -19.362  18.460  1.00  0.00     0.118 HD
ATOM     32  H   UNL     1       0.880 -18.392  19.517  1.00  0.00     0.118 HD
ENDBRANCH  29  30
ENDBRANCH  26  29
ENDBRANCH  25  26
ENDBRANCH   4  25
TORSDOF 10
ENDMDL
MODEL 7
REMARK VINA RESULT:    -7.639      3.705      6.334
REMARK INTER + INTRA:         -12.908
REMARK INTER:                 -12.083
REMARK INTRA:                  -0.825
REMARK UNBOUND:                -1.250
REMARK SMILES CCC(CC)n1cc(-c2nc(-c3cnn(C[C@@H](O)CN)c3)cn3nccc23)cn1
REMARK SMILES IDX 12 1 13 2 14 3 15 4 21 5 11 6 9 7 10 8 27 9 26 10 23 11
REMARK SMILES IDX 22 12 25 13 24 14 8 15 6 16 7 17 29 18 28 19 3 20 2 21 1 22
REMARK SMILES IDX 4 23 5 24 16 25 17 26 18 27 19 29 20 30
REMARK H PARENT 18 28 20 31 20 32
ROOT
ATOM      1  C   UNL     1       4.906 -23.156  21.169  1.00  0.00     0.040 A 
ATOM      2  C   UNL     1       4.645 -22.815  19.823  1.00  0.00     0.145 A 
ATOM      3  N   UNL     1       4.449 -21.503  19.651  1.00  0.00    -0.181 NA
ATOM      4  N   UNL     1       4.596 -20.999  20.891  1.00  0.00    -0.269 N 
ATOM      5  C   UNL     1       4.866 -21.948  21.833  1.00  0.00     0.119 A 
ENDROOT
BRANCH   1   6
ATOM      6  C   UNL     1       5.163 -24.441  21.754  1.00  0.00     0.092 A 
ATOM      7  C   UNL     1       6.694 -25.660  22.998  1.00  0.00     0.100 A 
ATOM      8  N   UNL     1       6.371 -24.534  22.428  1.00  0.00    -0.244 NA
ATOM      9  C   UNL     1       5.851 -26.825  22.919  1.00  0.00     0.093 A 
ATOM     10  C   UNL     1       5.934 -28.144  23.306  1.00  0.00     0.052 A 
ATOM     11  N   UNL     1       4.649 -26.683  22.255  1.00  0.00    -0.237 N 
ATOM     12  C   UNL     1       4.312 -25.478  21.671  1.00  0.00     0.142 A 
ATOM     13  C   UNL     1       4.721 -28.712  22.884  1.00  0.00     0.136 A 
ATOM     14  N   UNL     1       3.934 -27.834  22.263  1.00  0.00    -0.176 NA
BRANCH   7  15
ATOM     15  C   UNL     1       7.950 -25.695  23.717  1.00  0.00     0.040 A 
ATOM     16  N   UNL     1       9.630 -26.127  25.089  1.00  0.00    -0.269 N 
ATOM     17  C   UNL     1       8.368 -26.526  24.740  1.00  0.00     0.119 A 
ATOM     18  N   UNL     1      10.065 -25.077  24.370  1.00  0.00    -0.181 NA
ATOM     19  C   UNL     1       9.043 -24.807  23.555  1.00  0.00     0.145 A 
BRANCH  16  20
ATOM     20  C   UNL     1      10.465 -26.715  26.134  1.00  0.00     0.107 C 
BRANCH  20  21
ATOM     21  C   UNL     1      10.198 -26.130  27.534  1.00  0.00     0.024 C 
ATOM     22  C   UNL     1      11.102 -24.945  27.859  1.00  0.00     0.006 C 
ENDBRANCH  20  21
BRANCH  20  23
ATOM     23  C   UNL     1      11.960 -26.693  25.748  1.00  0.00     0.024 C 
ATOM     24  C   UNL     1      12.803 -27.837  26.295  1.00  0.00     0.006 C 
ENDBRANCH  20  23
ENDBRANCH  16  20
ENDBRANCH   7  15
ENDBRANCH   1   6
BRANCH   4  25
ATOM     25  C   UNL     1       4.465 -19.574  21.113  1.00  0.00     0.177 C 
BRANCH  25  26
ATOM     26  C   UNL     1       3.156 -19.201  21.802  1.00  0.00     0.149 C 
BRANCH  26  27
ATOM     27  O   UNL     1       3.453 -18.404  22.963  1.00  0.00    -0.390 OA
ATOM     28  H   UNL     1       3.058 -18.909  23.706  1.00  0.00     0.211 HD
ENDBRANCH  26  27
BRANCH  26  29
ATOM     29  C   UNL     1       2.205 -18.393  20.897  1.00  0.00     0.111 C 
BRANCH  29  30
ATOM     30  N   UNL     1       2.205 -18.977  19.542  1.00  0.00    -0.328 NA
ATOM     31  H   UNL     1       3.176 -19.084  19.241  1.00  0.00     0.118 HD
ATOM     32  H   UNL     1       1.834 -19.927  19.593  1.00  0.00     0.118 HD
ENDBRANCH  29  30
ENDBRANCH  26  29
ENDBRANCH  25  26
ENDBRANCH   4  25
TORSDOF 10
ENDMDL
MODEL 8
REMARK VINA RESULT:    -7.401      3.039      8.850
REMARK INTER + INTRA:         -12.544
REMARK INTER:                 -11.621
REMARK INTRA:                  -0.923
REMARK UNBOUND:                -1.250
REMARK SMILES CCC(CC)n1cc(-c2nc(-c3cnn(C[C@@H](O)CN)c3)cn3nccc23)cn1
REMARK SMILES IDX 12 1 13 2 14 3 15 4 21 5 11 6 9 7 10 8 27 9 26 10 23 11
REMARK SMILES IDX 22 12 25 13 24 14 8 15 6 16 7 17 29 18 28 19 3 20 2 21 1 22
REMARK SMILES IDX 4 23 5 24 16 25 17 26 18 27 19 29 20 30
REMARK H PARENT 18 28 20 31 20 32
ROOT
ATOM      1  C   UNL     1       5.015 -23.846  21.360  1.00  0.00     0.040 A 
ATOM      2  C   UNL     1       4.020 -24.675  20.794  1.00  0.00     0.145 A 
ATOM      3  N   UNL     1       3.936 -25.866  21.397  1.00  0.00    -0.181 NA
ATOM      4  N   UNL     1       4.873 -25.796  22.362  1.00  0.00    -0.269 N 
ATOM      5  C   UNL     1       5.547 -24.611  22.376  1.00  0.00     0.119 A 
ENDROOT
BRANCH   1   6
ATOM      6  C   UNL     1       5.411 -22.515  20.999  1.00  0.00     0.092 A 
ATOM      7  C   UNL     1       4.622 -20.374  20.586  1.00  0.00     0.100 A 
ATOM      8  N   UNL     1       4.364 -21.611  20.905  1.00  0.00    -0.244 NA
ATOM      9  C   UNL     1       5.958 -19.923  20.294  1.00  0.00     0.093 A 
ATOM     10  C   UNL     1       6.543 -18.758  19.849  1.00  0.00     0.052 A 
ATOM     11  N   UNL     1       6.972 -20.851  20.419  1.00  0.00    -0.237 N 
ATOM     12  C   UNL     1       6.686 -22.155  20.775  1.00  0.00     0.142 A 
ATOM     13  C   UNL     1       7.914 -19.055  19.785  1.00  0.00     0.136 A 
ATOM     14  N   UNL     1       8.183 -20.310  20.141  1.00  0.00    -0.176 NA
BRANCH   7  15
ATOM     15  C   UNL     1       3.498 -19.462  20.533  1.00  0.00     0.040 A 
ATOM     16  N   UNL     1       1.946 -17.994  19.960  1.00  0.00    -0.269 N 
ATOM     17  C   UNL     1       3.009 -18.711  19.480  1.00  0.00     0.119 A 
ATOM     18  N   UNL     1       1.712 -18.215  21.266  1.00  0.00    -0.181 NA
ATOM     19  C   UNL     1       2.660 -19.088  21.614  1.00  0.00     0.145 A 
BRANCH  16  20
ATOM     20  C   UNL     1       1.123 -17.056  19.201  1.00  0.00     0.107 C 
BRANCH  20  21
ATOM     21  C   UNL     1       1.534 -16.940  17.720  1.00  0.00     0.024 C 
ATOM     22  C   UNL     1       0.635 -15.991  16.933  1.00  0.00     0.006 C 
ENDBRANCH  20  21
BRANCH  20  23
ATOM     23  C   UNL     1       1.023 -15.686  19.906  1.00  0.00     0.024 C 
ATOM     24  C   UNL     1       2.341 -14.951  20.116  1.00  0.00     0.006 C 
ENDBRANCH  20  23
ENDBRANCH  16  20
ENDBRANCH   7  15
ENDBRANCH   1   6
BRANCH   4  25
ATOM     25  C   UNL     1       5.077 -26.919  23.253  1.00  0.00     0.177 C 
BRANCH  25  26
ATOM     26  C   UNL     1       5.306 -28.231  22.509  1.00  0.00     0.149 C 
BRANCH  26  27
ATOM     27  O   UNL     1       6.671 -28.643  22.705  1.00  0.00    -0.390 OA
ATOM     28  H   UNL     1       6.743 -28.776  23.676  1.00  0.00     0.211 HD
ENDBRANCH  26  27
BRANCH  26  29
ATOM     29  C   UNL     1       4.388 -29.369  22.995  1.00  0.00     0.111 C 
BRANCH  29  30
ATOM     30  N   UNL     1       3.864 -30.108  21.830  1.00  0.00    -0.328 NA
ATOM     31  H   UNL     1       4.446 -29.880  21.021  1.00  0.00     0.118 HD
ATOM     32  H   UNL     1       4.002 -31.108  21.986  1.00  0.00     0.118 HD
ENDBRANCH  29  30
ENDBRANCH  26  29
ENDBRANCH  25  26
ENDBRANCH   4  25
TORSDOF 10
ENDMDL
MODEL 9
REMARK VINA RESULT:    -7.334      1.755      2.091
REMARK INTER + INTRA:         -12.443
REMARK INTER:                 -11.520
REMARK INTRA:                  -0.923
REMARK UNBOUND:                -1.250
REMARK SMILES CCC(CC)n1cc(-c2nc(-c3cnn(C[C@@H](O)CN)c3)cn3nccc23)cn1
REMARK SMILES IDX 12 1 13 2 14 3 15 4 21 5 11 6 9 7 10 8 27 9 26 10 23 11
REMARK SMILES IDX 22 12 25 13 24 14 8 15 6 16 7 17 29 18 28 19 3 20 2 21 1 22
REMARK SMILES IDX 4 23 5 24 16 25 17 26 18 27 19 29 20 30
REMARK H PARENT 18 28 20 31 20 32
ROOT
ATOM      1  C   UNL     1       4.426 -17.946  19.085  1.00  0.00     0.040 A 
ATOM      2  C   UNL     1       3.427 -18.154  18.108  1.00  0.00     0.145 A 
ATOM      3  N   UNL     1       2.610 -17.104  17.973  1.00  0.00    -0.181 NA
ATOM      4  N   UNL     1       3.093 -16.214  18.860  1.00  0.00    -0.269 N 
ATOM      5  C   UNL     1       4.175 -16.673  19.551  1.00  0.00     0.119 A 
ENDROOT
BRANCH   1   6
ATOM      6  C   UNL     1       5.477 -18.820  19.520  1.00  0.00     0.092 A 
ATOM      7  C   UNL     1       6.003 -21.030  19.985  1.00  0.00     0.100 A 
ATOM      8  N   UNL     1       5.115 -20.156  19.603  1.00  0.00    -0.244 NA
ATOM      9  C   UNL     1       7.339 -20.648  20.359  1.00  0.00     0.093 A 
ATOM     10  C   UNL     1       8.448 -21.278  20.881  1.00  0.00     0.052 A 
ATOM     11  N   UNL     1       7.663 -19.311  20.243  1.00  0.00    -0.237 N 
ATOM     12  C   UNL     1       6.718 -18.398  19.819  1.00  0.00     0.142 A 
ATOM     13  C   UNL     1       9.408 -20.261  20.998  1.00  0.00     0.136 A 
ATOM     14  N   UNL     1       8.948 -19.074  20.602  1.00  0.00    -0.176 NA
BRANCH   7  15
ATOM     15  C   UNL     1       5.584 -22.416  20.023  1.00  0.00     0.040 A 
ATOM     16  N   UNL     1       4.938 -24.451  20.599  1.00  0.00    -0.269 N 
ATOM     17  C   UNL     1       5.225 -23.209  21.098  1.00  0.00     0.119 A 
ATOM     18  N   UNL     1       5.099 -24.531  19.267  1.00  0.00    -0.181 NA
ATOM     19  C   UNL     1       5.504 -23.307  18.923  1.00  0.00     0.145 A 
BRANCH  16  20
ATOM     20  C   UNL     1       4.520 -25.618  21.374  1.00  0.00     0.107 C 
BRANCH  20  21
ATOM     21  C   UNL     1       2.990 -25.753  21.501  1.00  0.00     0.024 C 
ATOM     22  C   UNL     1       2.514 -27.196  21.368  1.00  0.00     0.006 C 
ENDBRANCH  20  21
BRANCH  20  23
ATOM     23  C   UNL     1       5.245 -25.687  22.735  1.00  0.00     0.024 C 
ATOM     24  C   UNL     1       5.965 -26.994  23.037  1.00  0.00     0.006 C 
ENDBRANCH  20  23
ENDBRANCH  16  20
ENDBRANCH   7  15
ENDBRANCH   1   6
BRANCH   4  25
ATOM     25  C   UNL     1       2.462 -14.918  19.000  1.00  0.00     0.177 C 
BRANCH  25  26
ATOM     26  C   UNL     1       1.377 -14.901  20.072  1.00  0.00     0.149 C 
BRANCH  26  27
ATOM     27  O   UNL     1       1.779 -14.005  21.125  1.00  0.00    -0.390 OA
ATOM     28  H   UNL     1       2.682 -14.308  21.363  1.00  0.00     0.211 HD
ENDBRANCH  26  27
BRANCH  26  29
ATOM     29  C   UNL     1       0.009 -14.431  19.540  1.00  0.00     0.111 C 
BRANCH  29  30
ATOM     30  N   UNL     1      -1.065 -15.007  20.372  1.00  0.00    -0.328 NA
ATOM     31  H   UNL     1      -1.345 -14.305  21.060  1.00  0.00     0.118 HD
ATOM     32  H   UNL     1      -1.890 -15.153  19.788  1.00  0.00     0.118 HD
ENDBRANCH  29  30
ENDBRANCH  26  29
ENDBRANCH  25  26
ENDBRANCH   4  25
TORSDOF 10
ENDMDL
