REMARK SMILES NCc1ccc(Cl)cc1CNC(=O)CNC(=O)[C@@H](CCc1cccc[n+]1[O-])NC(=O)C(=O)O
REMARK SMILES IDX 14 1 12 2 11 3 13 4 10 6 9 7 3 8 4 9 5 10 8 11 6 12 7 13
REMARK SMILES IDX 2 14 1 15 15 18 16 19 17 20 18 22 19 23 20 24 21 25 22 26
REMARK SMILES IDX 26 27 23 28 25 29 24 30 27 31 28 32 29 33 30 34 31 36 32 37
REMARK SMILES IDX 33 38
REMARK H PARENT 11 5 1 16 1 17 15 21 28 35 33 39
REMARK INDEX MAP 14 1 12 2 11 3 13 4 43 5 10 6 9 7 3 8 4 9 5 10 8 11 6 12 7 13
REMARK INDEX MAP 2 14 1 15 34 16 35 17 15 18 16 19 17 20 46 21 18 22 19 23
REMARK INDEX MAP 20 24 21 25 22 26 26 27 23 28 25 29 24 30 27 31 28 32 29 33
REMARK INDEX MAP 30 34 56 35 31 36 32 37 33 38 57 39
ROOT
ATOM      1  C   UNL     1     130.414 -14.398 162.830  1.00  0.00     0.216 C 
ENDROOT
BRANCH   1   2
ATOM      2  C   UNL     1     129.142 -13.768 162.256  1.00  0.00     0.239 C 
ATOM      3  N   UNL     1     128.273 -13.314 163.220  1.00  0.00    -0.350 N 
ATOM      4  O   UNL     1     128.915 -13.710 161.051  1.00  0.00    -0.273 OA
ATOM      5  H   UNL     1     128.538 -13.411 164.211  1.00  0.00     0.163 HD
BRANCH   3   6
ATOM      6  C   UNL     1     127.008 -12.709 162.898  1.00  0.00     0.152 C 
BRANCH   6   7
ATOM      7  C   UNL     1     126.101 -12.699 164.108  1.00  0.00    -0.023 A 
ATOM      8  C   UNL     1     125.266 -13.791 164.447  1.00  0.00    -0.029 A 
ATOM      9  C   UNL     1     124.396 -13.669 165.549  1.00  0.00     0.007 A 
ATOM     10  C   UNL     1     124.349 -12.494 166.302  1.00  0.00     0.021 A 
ATOM     11  C   UNL     1     126.036 -11.519 164.875  1.00  0.00     0.026 A 
ATOM     12  C   UNL     1     125.167 -11.423 165.961  1.00  0.00     0.041 A 
ATOM     13  Cl  UNL     1     125.094  -9.964 166.873  1.00  0.00    -0.084 Cl
BRANCH   8  14
ATOM     14  C   UNL     1     125.247 -15.079 163.655  1.00  0.00     0.113 C 
BRANCH  14  15
ATOM     15  N   UNL     1     125.864 -16.168 164.398  1.00  0.00    -0.326 NA
ATOM     16  H   UNL     1     125.765 -15.994 165.408  1.00  0.00     0.119 HD
ATOM     17  H   UNL     1     125.400 -17.055 164.156  1.00  0.00     0.119 HD
ENDBRANCH  14  15
ENDBRANCH   8  14
ENDBRANCH   6   7
ENDBRANCH   3   6
ENDBRANCH   1   2
BRANCH   1  18
ATOM     18  N   UNL     1     130.219 -15.823 163.024  1.00  0.00    -0.345 N 
ATOM     19  C   UNL     1     129.492 -16.333 164.074  1.00  0.00     0.243 C 
ATOM     20  O   UNL     1     129.059 -15.612 164.973  1.00  0.00    -0.273 OA
ATOM     21  H   UNL     1     130.641 -16.477 162.350  1.00  0.00     0.164 HD
BRANCH  19  22
ATOM     22  C   UNL     1     129.337 -17.874 164.078  1.00  0.00     0.172 C 
BRANCH  22  23
ATOM     23  C   UNL     1     129.843 -18.504 165.388  1.00  0.00     0.046 C 
BRANCH  23  24
ATOM     24  C   UNL     1     130.155 -20.009 165.288  1.00  0.00     0.112 C 
BRANCH  24  25
ATOM     25  C   UNL     1     129.360 -20.835 166.263  1.00  0.00     0.192 A 
ATOM     26  C   UNL     1     128.003 -21.127 166.055  1.00  0.00     0.076 A 
ATOM     27  N   UNL     1     130.008 -21.313 167.403  1.00  0.00    -0.176 N 
ATOM     28  C   UNL     1     127.302 -21.894 166.980  1.00  0.00     0.013 A 
ATOM     29  C   UNL     1     129.290 -22.077 168.310  1.00  0.00     0.321 A 
ATOM     30  C   UNL     1     127.943 -22.372 168.114  1.00  0.00     0.072 A 
ATOM     31  O   UNL     1     131.237 -21.051 167.633  1.00  0.00    -0.619 OA
ENDBRANCH  24  25
ENDBRANCH  23  24
ENDBRANCH  22  23
BRANCH  22  32
ATOM     32  N   UNL     1     127.967 -18.284 163.794  1.00  0.00    -0.335 N 
ATOM     33  C   UNL     1     127.569 -18.869 162.618  1.00  0.00     0.330 C 
ATOM     34  O   UNL     1     128.297 -19.045 161.650  1.00  0.00    -0.262 OA
ATOM     35  H   UNL     1     127.254 -18.125 164.520  1.00  0.00     0.164 HD
BRANCH  33  36
ATOM     36  C   UNL     1     126.076 -19.260 162.582  1.00  0.00     0.394 C 
ATOM     37  O   UNL     1     125.233 -18.872 163.368  1.00  0.00    -0.241 OA
BRANCH  36  38
ATOM     38  O   UNL     1     125.808 -20.074 161.552  1.00  0.00    -0.474 OA
ATOM     39  H   UNL     1     124.886 -20.404 161.409  1.00  0.00     0.297 HD
ENDBRANCH  36  38
ENDBRANCH  33  36
ENDBRANCH  22  32
ENDBRANCH  19  22
ENDBRANCH   1  18
TORSDOF 13
