REMARK SMILES CC(C)c1oc(-c2ccc(Cl)cc2Cl)nc1CCc1noc2cc(OC(C)(C)C(=O)O)ccc12
REMARK SMILES IDX 19 1 20 2 21 3 22 4 23 5 24 6 32 7 33 8 34 9 18 10 17 11
REMARK SMILES IDX 16 12 4 13 5 14 6 15 15 16 2 17 1 18 3 19 7 20 8 21 13 22
REMARK SMILES IDX 9 23 12 24 10 25 14 26 11 27 25 28 26 29 27 30 28 31 29 32
REMARK SMILES IDX 30 33 31 34
REMARK H PARENT 31 35
REMARK INDEX MAP 19 1 20 2 21 3 22 4 23 5 24 6 32 7 33 8 34 9 18 10 17 11
REMARK INDEX MAP 16 12 4 13 5 14 6 15 15 16 2 17 1 18 3 19 7 20 8 21 13 22
REMARK INDEX MAP 9 23 12 24 10 25 14 26 11 27 25 28 26 29 27 30 28 31 29 32
REMARK INDEX MAP 30 33 31 34 56 35
ROOT
ATOM      1  C   UNL     1      39.222 -37.946 101.490  1.00  0.00     0.092 A 
ATOM      2  N   UNL     1      38.501 -37.018 100.841  1.00  0.00    -0.084 NA
ATOM      3  O   UNL     1      37.414 -36.750 101.660  1.00  0.00    -0.356 OA
ATOM      4  C   UNL     1      37.485 -37.518 102.781  1.00  0.00     0.170 A 
ATOM      5  C   UNL     1      36.570 -37.518 103.835  1.00  0.00     0.097 A 
ATOM      6  C   UNL     1      36.845 -38.394 104.889  1.00  0.00     0.124 A 
ATOM      7  C   UNL     1      37.964 -39.239 104.842  1.00  0.00     0.047 A 
ATOM      8  C   UNL     1      38.870 -39.208 103.770  1.00  0.00     0.018 A 
ATOM      9  C   UNL     1      38.617 -38.310 102.721  1.00  0.00     0.045 A 
ENDROOT
BRANCH   1  10
ATOM     10  C   UNL     1      40.478 -38.468 100.882  1.00  0.00     0.067 C 
BRANCH  10  11
ATOM     11  C   UNL     1      41.729 -38.050 101.658  1.00  0.00     0.066 C 
BRANCH  11  12
ATOM     12  C   UNL     1      42.565 -39.204 102.097  1.00  0.00     0.083 A 
ATOM     13  C   UNL     1      43.331 -40.095 101.371  1.00  0.00     0.130 A 
ATOM     14  O   UNL     1      43.893 -40.966 102.267  1.00  0.00    -0.441 OA
ATOM     15  C   UNL     1      43.434 -40.576 103.488  1.00  0.00     0.228 A 
ATOM     16  N   UNL     1      42.651 -39.512 103.440  1.00  0.00    -0.214 NA
BRANCH  13  17
ATOM     17  C   UNL     1      43.652 -40.368  99.939  1.00  0.00     0.051 C 
ATOM     18  C   UNL     1      42.417 -40.602  99.075  1.00  0.00     0.016 C 
ATOM     19  C   UNL     1      44.630 -41.535  99.827  1.00  0.00     0.016 C 
ENDBRANCH  13  17
BRANCH  15  20
ATOM     20  C   UNL     1      43.852 -41.334 104.669  1.00  0.00     0.056 A 
ATOM     21  C   UNL     1      44.601 -42.508 104.433  1.00  0.00     0.017 A 
ATOM     22  C   UNL     1      43.593 -40.982 106.010  1.00  0.00     0.055 A 
ATOM     23  C   UNL     1      45.068 -43.302 105.487  1.00  0.00     0.021 A 
ATOM     24  C   UNL     1      44.059 -41.783 107.065  1.00  0.00     0.041 A 
ATOM     25  C   UNL     1      44.790 -42.936 106.799  1.00  0.00     0.042 A 
ATOM     26  Cl  UNL     1      42.740 -39.551 106.488  1.00  0.00    -0.083 Cl
ATOM     27  Cl  UNL     1      45.354 -43.910 108.096  1.00  0.00    -0.084 Cl
ENDBRANCH  15  20
ENDBRANCH  11  12
ENDBRANCH  10  11
ENDBRANCH   1  10
BRANCH   6  28
ATOM     28  O   UNL     1      36.070 -38.556 106.005  1.00  0.00    -0.476 OA
BRANCH  28  29
ATOM     29  C   UNL     1      36.411 -37.919 107.248  1.00  0.00     0.199 C 
ATOM     30  C   UNL     1      37.895 -38.110 107.611  1.00  0.00     0.069 C 
ATOM     31  C   UNL     1      35.564 -38.685 108.286  1.00  0.00     0.069 C 
BRANCH  29  32
ATOM     32  C   UNL     1      35.975 -36.443 107.354  1.00  0.00     0.347 C 
ATOM     33  O   UNL     1      35.291 -35.815 106.557  1.00  0.00    -0.248 OA
BRANCH  32  34
ATOM     34  O   UNL     1      36.400 -35.832 108.484  1.00  0.00    -0.478 OA
ATOM     35  H   UNL     1      36.173 -34.883 108.649  1.00  0.00     0.296 HD
ENDBRANCH  32  34
ENDBRANCH  29  32
ENDBRANCH  28  29
ENDBRANCH   6  28
TORSDOF 9
