REMARK SMILES CCS(=O)(=O)C[C@@]1(C(=O)Nc2ncc(-c3ccccc3S(N)(=O)=O)cn2)CC(c2cccc(C(=N)N)c2)=NO1
REMARK SMILES IDX 8 1 9 2 10 3 7 5 27 6 39 7 28 8 38 9 6 10 3 11 4 12 5 13
REMARK SMILES IDX 2 14 1 15 29 16 30 17 37 18 31 19 33 20 32 21 34 22 35 23
REMARK SMILES IDX 36 24 11 28 12 29 26 30 13 31 25 32 14 33 15 34 16 35 20 36
REMARK SMILES IDX 17 37 19 38 18 39 21 40 23 41 24 42 22 43
REMARK H PARENT 10 4 35 25 36 26 36 27 22 44 22 45
REMARK INDEX MAP 8 1 9 2 10 3 47 4 7 5 27 6 39 7 28 8 38 9 6 10 3 11 4 12 5 13
REMARK INDEX MAP 2 14 1 15 29 16 30 17 37 18 31 19 33 20 32 21 34 22 35 23
REMARK INDEX MAP 36 24 61 25 62 26 63 27 11 28 12 29 26 30 13 31 25 32 14 33
REMARK INDEX MAP 15 34 16 35 20 36 17 37 19 38 18 39 21 40 23 41 24 42 22 43
REMARK INDEX MAP 53 44 54 45
ROOT
ATOM      1  C   UNL     1     129.347 -14.973 162.060  1.00  0.00     0.275 C 
ATOM      2  O   UNL     1     130.277 -14.170 162.082  1.00  0.00    -0.270 OA
ATOM      3  N   UNL     1     129.208 -16.086 162.855  1.00  0.00    -0.291 N 
ATOM      4  H   UNL     1     128.365 -16.658 162.703  1.00  0.00     0.173 HD
ENDROOT
BRANCH   1   5
ATOM      5  C   UNL     1     128.138 -14.745 161.132  1.00  0.00     0.234 C 
ATOM      6  C   UNL     1     128.139 -15.821 160.060  1.00  0.00     0.123 C 
ATOM      7  O   UNL     1     128.379 -13.497 160.470  1.00  0.00    -0.377 OA
ATOM      8  C   UNL     1     128.155 -14.959 158.847  1.00  0.00     0.092 C 
ATOM      9  N   UNL     1     128.339 -13.697 159.075  1.00  0.00    -0.089 NA
BRANCH   5  10
ATOM     10  C   UNL     1     126.885 -14.669 161.997  1.00  0.00     0.199 C 
BRANCH  10  11
ATOM     11  S   UNL     1     126.576 -13.069 162.708  1.00  0.00     0.154 S 
ATOM     12  O   UNL     1     126.190 -12.153 161.651  1.00  0.00    -0.229 OA
ATOM     13  O   UNL     1     127.665 -12.745 163.607  1.00  0.00    -0.229 OA
BRANCH  11  14
ATOM     14  C   UNL     1     125.144 -13.333 163.741  1.00  0.00     0.134 C 
ATOM     15  C   UNL     1     124.915 -14.783 164.115  1.00  0.00     0.021 C 
ENDBRANCH  11  14
ENDBRANCH  10  11
ENDBRANCH   5  10
BRANCH   8  16
ATOM     16  C   UNL     1     128.011 -15.519 157.484  1.00  0.00     0.000 A 
ATOM     17  C   UNL     1     127.362 -14.758 156.504  1.00  0.00     0.010 A 
ATOM     18  C   UNL     1     128.512 -16.783 157.159  1.00  0.00     0.022 A 
ATOM     19  C   UNL     1     127.220 -15.253 155.207  1.00  0.00     0.001 A 
ATOM     20  C   UNL     1     128.362 -17.285 155.859  1.00  0.00     0.017 A 
ATOM     21  C   UNL     1     127.721 -16.514 154.881  1.00  0.00     0.012 A 
BRANCH  20  22
ATOM     22  C   UNL     1     128.910 -18.637 155.537  1.00  0.00     0.122 C 
ATOM     23  N   UNL     1     128.132 -19.516 154.993  1.00  0.00    -0.284 NA
ATOM     24  N   UNL     1     130.206 -18.946 155.796  1.00  0.00    -0.384 N 
ATOM     25  H   UNL     1     128.494 -20.453 154.765  1.00  0.00     0.189 HD
ATOM     26  H   UNL     1     130.568 -19.883 155.568  1.00  0.00     0.158 HD
ATOM     27  H   UNL     1     130.828 -18.244 156.221  1.00  0.00     0.158 HD
ENDBRANCH  20  22
ENDBRANCH   8  16
ENDBRANCH   1   5
BRANCH   3  28
ATOM     28  C   UNL     1     130.081 -16.518 163.837  1.00  0.00     0.229 A 
ATOM     29  N   UNL     1     129.954 -16.133 165.109  1.00  0.00    -0.221 NA
ATOM     30  N   UNL     1     131.035 -17.352 163.395  1.00  0.00    -0.221 NA
ATOM     31  C   UNL     1     130.859 -16.610 165.988  1.00  0.00     0.125 A 
ATOM     32  C   UNL     1     131.905 -17.818 164.316  1.00  0.00     0.125 A 
ATOM     33  C   UNL     1     131.882 -17.476 165.654  1.00  0.00     0.020 A 
BRANCH  33  34
ATOM     34  C   UNL     1     132.826 -18.024 166.628  1.00  0.00     0.005 A 
ATOM     35  C   UNL     1     132.561 -19.306 167.152  1.00  0.00     0.010 A 
ATOM     36  C   UNL     1     133.991 -17.366 167.071  1.00  0.00     0.090 A 
ATOM     37  C   UNL     1     133.417 -19.908 168.076  1.00  0.00     0.001 A 
ATOM     38  C   UNL     1     134.850 -17.973 168.002  1.00  0.00     0.022 A 
ATOM     39  C   UNL     1     134.563 -19.243 168.501  1.00  0.00     0.001 A 
BRANCH  36  40
ATOM     40  S   UNL     1     134.421 -15.737 166.506  1.00  0.00     0.238 S 
ATOM     41  O   UNL     1     133.700 -14.759 167.288  1.00  0.00    -0.207 OA
ATOM     42  O   UNL     1     134.407 -15.726 165.064  1.00  0.00    -0.207 OA
BRANCH  40  43
ATOM     43  N   UNL     1     136.022 -15.572 166.986  1.00  0.00    -0.225 NA
ATOM     44  H   UNL     1     136.073 -15.567 168.015  1.00  0.00     0.137 HD
ATOM     45  H   UNL     1     136.573 -16.361 166.619  1.00  0.00     0.137 HD
ENDBRANCH  40  43
ENDBRANCH  36  40
ENDBRANCH  33  34
ENDBRANCH   3  28
TORSDOF 10
