MODEL 1
REMARK VINA RESULT:    -9.556      0.000      0.000
REMARK INTER + INTRA:         -17.165
REMARK INTER:                 -15.980
REMARK INTRA:                  -1.185
REMARK UNBOUND:                -1.185
REMARK SMILES CCCc1c(OCCCNc2ccc(CC(=O)O)cc2)ccc2c(C(F)(F)F)noc12
REMARK SMILES IDX 8 1 7 2 6 3 5 4 4 5 31 6 21 7 30 8 23 9 22 10 29 11 24 12
REMARK SMILES IDX 3 13 2 14 1 15 25 16 26 17 27 18 28 19 9 20 10 21 11 23
REMARK SMILES IDX 12 24 20 25 13 26 19 27 14 28 15 29 16 30 17 31 18 32
REMARK H PARENT 10 22 18 33
ROOT
ATOM      1  C   UNL     1       9.664   4.460  -6.574  1.00  0.00     0.063 C 
ENDROOT
BRANCH   1   2
ATOM      2  C   UNL     1       9.262   5.651  -7.440  1.00  0.00     0.231 C 
BRANCH   2   3
ATOM      3  O   UNL     1      10.463   6.279  -7.893  1.00  0.00    -0.493 OA
BRANCH   3   4
ATOM      4  C   UNL     1      10.378   7.130  -8.968  1.00  0.00     0.126 A 
ATOM      5  C   UNL     1      10.874   6.604 -10.184  1.00  0.00     0.040 A 
ATOM      6  C   UNL     1      10.790   7.466 -11.286  1.00  0.00     0.174 A 
ATOM      7  C   UNL     1       9.840   8.423  -8.907  1.00  0.00     0.048 A 
ATOM      8  O   UNL     1      11.211   7.189 -12.550  1.00  0.00    -0.355 OA
ATOM      9  C   UNL     1      10.269   8.746 -11.257  1.00  0.00     0.055 A 
ATOM     10  C   UNL     1       9.778   9.246 -10.042  1.00  0.00     0.018 A 
ATOM     11  N   UNL     1      10.975   8.274 -13.373  1.00  0.00    -0.074 NA
ATOM     12  C   UNL     1      10.404   9.210 -12.594  1.00  0.00     0.195 A 
BRANCH   5  13
ATOM     13  C   UNL     1      11.469   5.222 -10.282  1.00  0.00     0.043 C 
BRANCH  13  14
ATOM     14  C   UNL     1      10.627   4.245 -11.109  1.00  0.00     0.002 C 
ATOM     15  C   UNL     1       9.755   3.331 -10.259  1.00  0.00     0.004 C 
ENDBRANCH  13  14
ENDBRANCH   5  13
BRANCH  12  16
ATOM     16  C   UNL     1      10.010  10.540 -13.128  1.00  0.00     0.437 C 
ATOM     17  F   UNL     1      10.489  10.792 -14.374  1.00  0.00    -0.164 F 
ATOM     18  F   UNL     1      10.443  11.553 -12.329  1.00  0.00    -0.164 F 
ATOM     19  F   UNL     1       8.656  10.674 -13.207  1.00  0.00    -0.164 F 
ENDBRANCH  12  16
ENDBRANCH   3   4
ENDBRANCH   2   3
ENDBRANCH   1   2
BRANCH   1  20
ATOM     20  C   UNL     1       8.478   3.878  -5.811  1.00  0.00     0.116 C 
BRANCH  20  21
ATOM     21  N   UNL     1       8.717   2.487  -5.480  1.00  0.00    -0.385 N 
ATOM     22  H   UNL     1       8.029   1.802  -5.776  1.00  0.00     0.160 HD
BRANCH  21  23
ATOM     23  C   UNL     1       9.658   2.063  -4.558  1.00  0.00     0.034 A 
ATOM     24  C   UNL     1       9.533   2.256  -3.179  1.00  0.00     0.026 A 
ATOM     25  C   UNL     1      10.836   1.464  -5.021  1.00  0.00     0.026 A 
ATOM     26  C   UNL     1      10.533   1.841  -2.291  1.00  0.00     0.006 A 
ATOM     27  C   UNL     1      11.842   1.047  -4.143  1.00  0.00     0.006 A 
ATOM     28  C   UNL     1      11.696   1.224  -2.765  1.00  0.00    -0.037 A 
BRANCH  28  29
ATOM     29  C   UNL     1      12.780   0.788  -1.811  1.00  0.00     0.158 C 
BRANCH  29  30
ATOM     30  C   UNL     1      13.997   1.681  -1.813  1.00  0.00     0.307 C 
ATOM     31  O   UNL     1      14.180   2.716  -2.431  1.00  0.00    -0.252 OA
BRANCH  30  32
ATOM     32  O   UNL     1      14.965   1.207  -0.998  1.00  0.00    -0.481 OA
ATOM     33  H   UNL     1      15.089   1.928  -0.345  1.00  0.00     0.296 HD
ENDBRANCH  30  32
ENDBRANCH  29  30
ENDBRANCH  28  29
ENDBRANCH  21  23
ENDBRANCH  20  21
ENDBRANCH   1  20
TORSDOF 12
ENDMDL
MODEL 2
REMARK VINA RESULT:    -9.138      4.315      6.013
REMARK INTER + INTRA:         -16.467
REMARK INTER:                 -15.783
REMARK INTRA:                  -0.683
REMARK UNBOUND:                -1.185
REMARK SMILES CCCc1c(OCCCNc2ccc(CC(=O)O)cc2)ccc2c(C(F)(F)F)noc12
REMARK SMILES IDX 8 1 7 2 6 3 5 4 4 5 31 6 21 7 30 8 23 9 22 10 29 11 24 12
REMARK SMILES IDX 3 13 2 14 1 15 25 16 26 17 27 18 28 19 9 20 10 21 11 23
REMARK SMILES IDX 12 24 20 25 13 26 19 27 14 28 15 29 16 30 17 31 18 32
REMARK H PARENT 10 22 18 33
ROOT
ATOM      1  C   UNL     1       8.019   6.239  -7.014  1.00  0.00     0.063 C 
ENDROOT
BRANCH   1   2
ATOM      2  C   UNL     1       9.169   5.379  -7.531  1.00  0.00     0.231 C 
BRANCH   2   3
ATOM      3  O   UNL     1      10.292   6.238  -7.737  1.00  0.00    -0.493 OA
BRANCH   3   4
ATOM      4  C   UNL     1      10.253   7.103  -8.803  1.00  0.00     0.126 A 
ATOM      5  C   UNL     1      10.698   6.555 -10.029  1.00  0.00     0.040 A 
ATOM      6  C   UNL     1      10.661   7.431 -11.123  1.00  0.00     0.174 A 
ATOM      7  C   UNL     1       9.806   8.429  -8.725  1.00  0.00     0.048 A 
ATOM      8  O   UNL     1      11.047   7.136 -12.395  1.00  0.00    -0.355 OA
ATOM      9  C   UNL     1      10.229   8.742 -11.077  1.00  0.00     0.055 A 
ATOM     10  C   UNL     1       9.788   9.264  -9.853  1.00  0.00     0.018 A 
ATOM     11  N   UNL     1      10.878   8.242 -13.206  1.00  0.00    -0.074 NA
ATOM     12  C   UNL     1      10.381   9.208 -12.413  1.00  0.00     0.195 A 
BRANCH   5  13
ATOM     13  C   UNL     1      11.196   5.137 -10.146  1.00  0.00     0.043 C 
BRANCH  13  14
ATOM     14  C   UNL     1      10.329   4.250 -11.046  1.00  0.00     0.002 C 
ATOM     15  C   UNL     1       9.667   3.098 -10.302  1.00  0.00     0.004 C 
ENDBRANCH  13  14
ENDBRANCH   5  13
BRANCH  12  16
ATOM     16  C   UNL     1      10.073  10.567 -12.930  1.00  0.00     0.437 C 
ATOM     17  F   UNL     1      10.456  11.568 -12.095  1.00  0.00    -0.164 F 
ATOM     18  F   UNL     1       8.740  10.732 -13.155  1.00  0.00    -0.164 F 
ATOM     19  F   UNL     1      10.690  10.808 -14.121  1.00  0.00    -0.164 F 
ENDBRANCH  12  16
ENDBRANCH   3   4
ENDBRANCH   2   3
ENDBRANCH   1   2
BRANCH   1  20
ATOM     20  C   UNL     1       6.893   5.398  -6.422  1.00  0.00     0.116 C 
BRANCH  20  21
ATOM     21  N   UNL     1       5.648   6.142  -6.419  1.00  0.00    -0.385 N 
ATOM     22  H   UNL     1       5.405   6.667  -7.253  1.00  0.00     0.160 HD
BRANCH  21  23
ATOM     23  C   UNL     1       4.914   6.414  -5.278  1.00  0.00     0.034 A 
ATOM     24  C   UNL     1       4.398   7.677  -4.971  1.00  0.00     0.026 A 
ATOM     25  C   UNL     1       4.724   5.394  -4.337  1.00  0.00     0.026 A 
ATOM     26  C   UNL     1       3.694   7.908  -3.783  1.00  0.00     0.006 A 
ATOM     27  C   UNL     1       4.023   5.614  -3.147  1.00  0.00     0.006 A 
ATOM     28  C   UNL     1       3.493   6.876  -2.861  1.00  0.00    -0.037 A 
BRANCH  28  29
ATOM     29  C   UNL     1       2.745   7.125  -1.575  1.00  0.00     0.158 C 
BRANCH  29  30
ATOM     30  C   UNL     1       3.340   8.218  -0.721  1.00  0.00     0.307 C 
ATOM     31  O   UNL     1       4.515   8.472  -0.520  1.00  0.00    -0.252 OA
BRANCH  30  32
ATOM     32  O   UNL     1       2.382   8.972  -0.138  1.00  0.00    -0.481 OA
ATOM     33  H   UNL     1       2.657   9.891  -0.340  1.00  0.00     0.296 HD
ENDBRANCH  30  32
ENDBRANCH  29  30
ENDBRANCH  28  29
ENDBRANCH  21  23
ENDBRANCH  20  21
ENDBRANCH   1  20
TORSDOF 12
ENDMDL
MODEL 3
REMARK VINA RESULT:    -8.876      5.054      6.705
REMARK INTER + INTRA:         -16.028
REMARK INTER:                 -14.760
REMARK INTRA:                  -1.268
REMARK UNBOUND:                -1.185
REMARK SMILES CCCc1c(OCCCNc2ccc(CC(=O)O)cc2)ccc2c(C(F)(F)F)noc12
REMARK SMILES IDX 8 1 7 2 6 3 5 4 4 5 31 6 21 7 30 8 23 9 22 10 29 11 24 12
REMARK SMILES IDX 3 13 2 14 1 15 25 16 26 17 27 18 28 19 9 20 10 21 11 23
REMARK SMILES IDX 12 24 20 25 13 26 19 27 14 28 15 29 16 30 17 31 18 32
REMARK H PARENT 10 22 18 33
ROOT
ATOM      1  C   UNL     1      10.325  11.735  -5.938  1.00  0.00     0.063 C 
ENDROOT
BRANCH   1   2
ATOM      2  C   UNL     1      11.176  10.763  -6.752  1.00  0.00     0.231 C 
BRANCH   2   3
ATOM      3  O   UNL     1      10.286   9.954  -7.523  1.00  0.00    -0.493 OA
BRANCH   3   4
ATOM      4  C   UNL     1      10.392  10.006  -8.892  1.00  0.00     0.126 A 
ATOM      5  C   UNL     1      10.175   8.774  -9.552  1.00  0.00     0.040 A 
ATOM      6  C   UNL     1      10.281   8.819 -10.949  1.00  0.00     0.174 A 
ATOM      7  C   UNL     1      10.682  11.172  -9.615  1.00  0.00     0.048 A 
ATOM      8  O   UNL     1      10.125   7.764 -11.796  1.00  0.00    -0.355 OA
ATOM      9  C   UNL     1      10.568   9.950 -11.689  1.00  0.00     0.055 A 
ATOM     10  C   UNL     1      10.774  11.162 -11.015  1.00  0.00     0.018 A 
ATOM     11  N   UNL     1      10.306   8.178 -13.102  1.00  0.00    -0.074 NA
ATOM     12  C   UNL     1      10.568   9.496 -13.037  1.00  0.00     0.195 A 
BRANCH   5  13
ATOM     13  C   UNL     1       9.872   7.500  -8.805  1.00  0.00     0.043 C 
BRANCH  13  14
ATOM     14  C   UNL     1      10.896   6.385  -9.044  1.00  0.00     0.002 C 
ATOM     15  C   UNL     1      10.266   5.005  -9.174  1.00  0.00     0.004 C 
ENDBRANCH  13  14
ENDBRANCH   5  13
BRANCH  12  16
ATOM     16  C   UNL     1      10.833  10.303 -14.257  1.00  0.00     0.437 C 
ATOM     17  F   UNL     1      11.823  11.220 -14.099  1.00  0.00    -0.164 F 
ATOM     18  F   UNL     1       9.727  10.986 -14.661  1.00  0.00    -0.164 F 
ATOM     19  F   UNL     1      11.202   9.523 -15.311  1.00  0.00    -0.164 F 
ENDBRANCH  12  16
ENDBRANCH   3   4
ENDBRANCH   2   3
ENDBRANCH   1   2
BRANCH   1  20
ATOM     20  C   UNL     1       9.391  11.013  -4.974  1.00  0.00     0.116 C 
BRANCH  20  21
ATOM     21  N   UNL     1       8.199  10.556  -5.663  1.00  0.00    -0.385 N 
ATOM     22  H   UNL     1       8.070  10.840  -6.629  1.00  0.00     0.160 HD
BRANCH  21  23
ATOM     23  C   UNL     1       7.102  10.005  -5.026  1.00  0.00     0.034 A 
ATOM     24  C   UNL     1       6.792  10.231  -3.681  1.00  0.00     0.026 A 
ATOM     25  C   UNL     1       6.283   9.117  -5.735  1.00  0.00     0.026 A 
ATOM     26  C   UNL     1       5.690   9.617  -3.073  1.00  0.00     0.006 A 
ATOM     27  C   UNL     1       5.181   8.497  -5.137  1.00  0.00     0.006 A 
ATOM     28  C   UNL     1       4.868   8.749  -3.799  1.00  0.00    -0.037 A 
BRANCH  28  29
ATOM     29  C   UNL     1       3.688   8.077  -3.143  1.00  0.00     0.158 C 
BRANCH  29  30
ATOM     30  C   UNL     1       3.866   7.828  -1.664  1.00  0.00     0.307 C 
ATOM     31  O   UNL     1       4.571   7.001  -1.112  1.00  0.00    -0.252 OA
BRANCH  30  32
ATOM     32  O   UNL     1       3.115   8.672  -0.923  1.00  0.00    -0.481 OA
ATOM     33  H   UNL     1       3.136   9.508  -1.434  1.00  0.00     0.296 HD
ENDBRANCH  30  32
ENDBRANCH  29  30
ENDBRANCH  28  29
ENDBRANCH  21  23
ENDBRANCH  20  21
ENDBRANCH   1  20
TORSDOF 12
ENDMDL
MODEL 4
REMARK VINA RESULT:    -8.808      5.984      7.407
REMARK INTER + INTRA:         -15.914
REMARK INTER:                 -14.745
REMARK INTRA:                  -1.169
REMARK UNBOUND:                -1.185
REMARK SMILES CCCc1c(OCCCNc2ccc(CC(=O)O)cc2)ccc2c(C(F)(F)F)noc12
REMARK SMILES IDX 8 1 7 2 6 3 5 4 4 5 31 6 21 7 30 8 23 9 22 10 29 11 24 12
REMARK SMILES IDX 3 13 2 14 1 15 25 16 26 17 27 18 28 19 9 20 10 21 11 23
REMARK SMILES IDX 12 24 20 25 13 26 19 27 14 28 15 29 16 30 17 31 18 32
REMARK H PARENT 10 22 18 33
ROOT
ATOM      1  C   UNL     1       9.915  12.048  -6.621  1.00  0.00     0.063 C 
ENDROOT
BRANCH   1   2
ATOM      2  C   UNL     1      10.879  11.406  -7.616  1.00  0.00     0.231 C 
BRANCH   2   3
ATOM      3  O   UNL     1      10.128  11.062  -8.782  1.00  0.00    -0.493 OA
BRANCH   3   4
ATOM      4  C   UNL     1      10.223   9.774  -9.251  1.00  0.00     0.126 A 
ATOM      5  C   UNL     1      10.538   9.664 -10.626  1.00  0.00     0.040 A 
ATOM      6  C   UNL     1      10.637   8.353 -11.113  1.00  0.00     0.174 A 
ATOM      7  C   UNL     1      10.037   8.632  -8.460  1.00  0.00     0.048 A 
ATOM      8  O   UNL     1      10.918   7.998 -12.396  1.00  0.00    -0.355 OA
ATOM      9  C   UNL     1      10.457   7.209 -10.359  1.00  0.00     0.055 A 
ATOM     10  C   UNL     1      10.150   7.341  -8.997  1.00  0.00     0.018 A 
ATOM     11  N   UNL     1      10.928   6.621 -12.511  1.00  0.00    -0.074 NA
ATOM     12  C   UNL     1      10.655   6.146 -11.283  1.00  0.00     0.195 A 
BRANCH   5  13
ATOM     13  C   UNL     1      10.733  10.871 -11.508  1.00  0.00     0.043 C 
BRANCH  13  14
ATOM     14  C   UNL     1       9.791  10.912 -12.716  1.00  0.00     0.002 C 
ATOM     15  C   UNL     1      10.482  11.333 -14.006  1.00  0.00     0.004 C 
ENDBRANCH  13  14
ENDBRANCH   5  13
BRANCH  12  16
ATOM     16  C   UNL     1      10.568   4.688 -11.007  1.00  0.00     0.437 C 
ATOM     17  F   UNL     1      11.430   3.941 -11.745  1.00  0.00    -0.164 F 
ATOM     18  F   UNL     1       9.320   4.202 -11.250  1.00  0.00    -0.164 F 
ATOM     19  F   UNL     1      10.837   4.402  -9.702  1.00  0.00    -0.164 F 
ENDBRANCH  12  16
ENDBRANCH   3   4
ENDBRANCH   2   3
ENDBRANCH   1   2
BRANCH   1  20
ATOM     20  C   UNL     1       9.399  11.046  -5.594  1.00  0.00     0.116 C 
BRANCH  20  21
ATOM     21  N   UNL     1       8.214  10.372  -6.088  1.00  0.00    -0.385 N 
ATOM     22  H   UNL     1       8.042  10.384  -7.089  1.00  0.00     0.160 HD
BRANCH  21  23
ATOM     23  C   UNL     1       7.166   9.963  -5.283  1.00  0.00     0.034 A 
ATOM     24  C   UNL     1       7.027  10.334  -3.942  1.00  0.00     0.026 A 
ATOM     25  C   UNL     1       6.218   9.074  -5.807  1.00  0.00     0.026 A 
ATOM     26  C   UNL     1       5.967   9.860  -3.160  1.00  0.00     0.006 A 
ATOM     27  C   UNL     1       5.156   8.593  -5.034  1.00  0.00     0.006 A 
ATOM     28  C   UNL     1       5.015   8.990  -3.701  1.00  0.00    -0.037 A 
BRANCH  28  29
ATOM     29  C   UNL     1       3.880   8.468  -2.857  1.00  0.00     0.158 C 
BRANCH  29  30
ATOM     30  C   UNL     1       4.323   7.754  -1.603  1.00  0.00     0.307 C 
ATOM     31  O   UNL     1       4.803   6.639  -1.492  1.00  0.00    -0.252 OA
BRANCH  30  32
ATOM     32  O   UNL     1       4.134   8.515  -0.502  1.00  0.00    -0.481 OA
ATOM     33  H   UNL     1       3.666   9.304  -0.846  1.00  0.00     0.296 HD
ENDBRANCH  30  32
ENDBRANCH  29  30
ENDBRANCH  28  29
ENDBRANCH  21  23
ENDBRANCH  20  21
ENDBRANCH   1  20
TORSDOF 12
ENDMDL
MODEL 5
REMARK VINA RESULT:    -8.584      4.362      6.493
REMARK INTER + INTRA:         -15.540
REMARK INTER:                 -14.510
REMARK INTRA:                  -1.030
REMARK UNBOUND:                -1.185
REMARK SMILES CCCc1c(OCCCNc2ccc(CC(=O)O)cc2)ccc2c(C(F)(F)F)noc12
REMARK SMILES IDX 8 1 7 2 6 3 5 4 4 5 31 6 21 7 30 8 23 9 22 10 29 11 24 12
REMARK SMILES IDX 3 13 2 14 1 15 25 16 26 17 27 18 28 19 9 20 10 21 11 23
REMARK SMILES IDX 12 24 20 25 13 26 19 27 14 28 15 29 16 30 17 31 18 32
REMARK H PARENT 10 22 18 33
ROOT
ATOM      1  C   UNL     1       8.436   5.174  -6.975  1.00  0.00     0.063 C 
ENDROOT
BRANCH   1   2
ATOM      2  C   UNL     1       9.736   5.607  -7.648  1.00  0.00     0.231 C 
BRANCH   2   3
ATOM      3  O   UNL     1       9.678   7.024  -7.826  1.00  0.00    -0.493 OA
BRANCH   3   4
ATOM      4  C   UNL     1      10.065   7.536  -9.040  1.00  0.00     0.126 A 
ATOM      5  C   UNL     1      10.081   8.949  -9.112  1.00  0.00     0.040 A 
ATOM      6  C   UNL     1      10.476   9.479 -10.347  1.00  0.00     0.174 A 
ATOM      7  C   UNL     1      10.433   6.753 -10.144  1.00  0.00     0.048 A 
ATOM      8  O   UNL     1      10.558  10.802 -10.658  1.00  0.00    -0.355 OA
ATOM      9  C   UNL     1      10.840   8.735 -11.453  1.00  0.00     0.055 A 
ATOM     10  C   UNL     1      10.823   7.336 -11.359  1.00  0.00     0.018 A 
ATOM     11  N   UNL     1      10.976  10.953 -11.967  1.00  0.00    -0.074 NA
ATOM     12  C   UNL     1      11.150   9.707 -12.444  1.00  0.00     0.195 A 
BRANCH   5  13
ATOM     13  C   UNL     1       9.681   9.820  -7.948  1.00  0.00     0.043 C 
BRANCH  13  14
ATOM     14  C   UNL     1      10.840  10.627  -7.355  1.00  0.00     0.002 C 
ATOM     15  C   UNL     1      10.398  11.630  -6.298  1.00  0.00     0.004 C 
ENDBRANCH  13  14
ENDBRANCH   5  13
BRANCH  12  16
ATOM     16  C   UNL     1      11.592   9.457 -13.841  1.00  0.00     0.437 C 
ATOM     17  F   UNL     1      11.246  10.446 -14.707  1.00  0.00    -0.164 F 
ATOM     18  F   UNL     1      11.069   8.302 -14.336  1.00  0.00    -0.164 F 
ATOM     19  F   UNL     1      12.945   9.329 -13.930  1.00  0.00    -0.164 F 
ENDBRANCH  12  16
ENDBRANCH   3   4
ENDBRANCH   2   3
ENDBRANCH   1   2
BRANCH   1  20
ATOM     20  C   UNL     1       7.486   6.345  -6.752  1.00  0.00     0.116 C 
BRANCH  20  21
ATOM     21  N   UNL     1       6.122   5.876  -6.603  1.00  0.00    -0.385 N 
ATOM     22  H   UNL     1       5.660   5.489  -7.420  1.00  0.00     0.160 HD
BRANCH  21  23
ATOM     23  C   UNL     1       5.318   6.170  -5.517  1.00  0.00     0.034 A 
ATOM     24  C   UNL     1       4.359   7.188  -5.515  1.00  0.00     0.026 A 
ATOM     25  C   UNL     1       5.508   5.463  -4.323  1.00  0.00     0.026 A 
ATOM     26  C   UNL     1       3.597   7.471  -4.375  1.00  0.00     0.006 A 
ATOM     27  C   UNL     1       4.753   5.738  -3.178  1.00  0.00     0.006 A 
ATOM     28  C   UNL     1       3.782   6.742  -3.195  1.00  0.00    -0.037 A 
BRANCH  28  29
ATOM     29  C   UNL     1       2.971   7.053  -1.962  1.00  0.00     0.158 C 
BRANCH  29  30
ATOM     30  C   UNL     1       3.530   8.179  -1.127  1.00  0.00     0.307 C 
ATOM     31  O   UNL     1       4.682   8.570  -1.050  1.00  0.00    -0.252 OA
BRANCH  30  32
ATOM     32  O   UNL     1       2.566   8.786  -0.400  1.00  0.00    -0.481 OA
ATOM     33  H   UNL     1       1.991   8.045  -0.116  1.00  0.00     0.296 HD
ENDBRANCH  30  32
ENDBRANCH  29  30
ENDBRANCH  28  29
ENDBRANCH  21  23
ENDBRANCH  20  21
ENDBRANCH   1  20
TORSDOF 12
ENDMDL
MODEL 6
REMARK VINA RESULT:    -8.444      1.540      3.061
REMARK INTER + INTRA:         -15.306
REMARK INTER:                 -14.623
REMARK INTRA:                  -0.683
REMARK UNBOUND:                -1.185
REMARK SMILES CCCc1c(OCCCNc2ccc(CC(=O)O)cc2)ccc2c(C(F)(F)F)noc12
REMARK SMILES IDX 8 1 7 2 6 3 5 4 4 5 31 6 21 7 30 8 23 9 22 10 29 11 24 12
REMARK SMILES IDX 3 13 2 14 1 15 25 16 26 17 27 18 28 19 9 20 10 21 11 23
REMARK SMILES IDX 12 24 20 25 13 26 19 27 14 28 15 29 16 30 17 31 18 32
REMARK H PARENT 10 22 18 33
ROOT
ATOM      1  C   UNL     1       9.702   4.837  -6.553  1.00  0.00     0.063 C 
ENDROOT
BRANCH   1   2
ATOM      2  C   UNL     1       9.469   5.366  -7.966  1.00  0.00     0.231 C 
BRANCH   2   3
ATOM      3  O   UNL     1       9.759   6.765  -7.956  1.00  0.00    -0.493 OA
BRANCH   3   4
ATOM      4  C   UNL     1      10.130   7.354  -9.139  1.00  0.00     0.126 A 
ATOM      5  C   UNL     1      10.077   8.768  -9.143  1.00  0.00     0.040 A 
ATOM      6  C   UNL     1      10.455   9.377 -10.347  1.00  0.00     0.174 A 
ATOM      7  C   UNL     1      10.544   6.645 -10.276  1.00  0.00     0.048 A 
ATOM      8  O   UNL     1      10.474  10.716 -10.593  1.00  0.00    -0.355 OA
ATOM      9  C   UNL     1      10.864   8.706 -11.484  1.00  0.00     0.055 A 
ATOM     10  C   UNL     1      10.914   7.305 -11.458  1.00  0.00     0.018 A 
ATOM     11  N   UNL     1      10.894  10.950 -11.889  1.00  0.00    -0.074 NA
ATOM     12  C   UNL     1      11.133   9.739 -12.424  1.00  0.00     0.195 A 
BRANCH   5  13
ATOM     13  C   UNL     1       9.627   9.561  -7.943  1.00  0.00     0.043 C 
BRANCH  13  14
ATOM     14  C   UNL     1      10.668  10.566  -7.440  1.00  0.00     0.002 C 
ATOM     15  C   UNL     1      10.119  11.978  -7.285  1.00  0.00     0.004 C 
ENDBRANCH  13  14
ENDBRANCH   5  13
BRANCH  12  16
ATOM     16  C   UNL     1      11.597   9.579 -13.827  1.00  0.00     0.437 C 
ATOM     17  F   UNL     1      11.379  10.674 -14.601  1.00  0.00    -0.164 F 
ATOM     18  F   UNL     1      10.983   8.533 -14.445  1.00  0.00    -0.164 F 
ATOM     19  F   UNL     1      12.934   9.327 -13.893  1.00  0.00    -0.164 F 
ENDBRANCH  12  16
ENDBRANCH   3   4
ENDBRANCH   2   3
ENDBRANCH   1   2
BRANCH   1  20
ATOM     20  C   UNL     1       8.464   4.152  -5.985  1.00  0.00     0.116 C 
BRANCH  20  21
ATOM     21  N   UNL     1       8.730   2.750  -5.725  1.00  0.00    -0.385 N 
ATOM     22  H   UNL     1       8.058   2.068  -6.063  1.00  0.00     0.160 HD
BRANCH  21  23
ATOM     23  C   UNL     1       9.673   2.297  -4.819  1.00  0.00     0.034 A 
ATOM     24  C   UNL     1      10.833   1.609  -5.188  1.00  0.00     0.026 A 
ATOM     25  C   UNL     1       9.434   2.472  -3.451  1.00  0.00     0.026 A 
ATOM     26  C   UNL     1      11.737   1.138  -4.227  1.00  0.00     0.006 A 
ATOM     27  C   UNL     1      10.330   2.005  -2.483  1.00  0.00     0.006 A 
ATOM     28  C   UNL     1      11.498   1.338  -2.864  1.00  0.00    -0.037 A 
BRANCH  28  29
ATOM     29  C   UNL     1      12.464   0.821  -1.828  1.00  0.00     0.158 C 
BRANCH  29  30
ATOM     30  C   UNL     1      13.763   1.588  -1.762  1.00  0.00     0.307 C 
ATOM     31  O   UNL     1      14.778   1.312  -1.147  1.00  0.00    -0.252 OA
BRANCH  30  32
ATOM     32  O   UNL     1      13.717   2.712  -2.511  1.00  0.00    -0.481 OA
ATOM     33  H   UNL     1      14.536   2.665  -3.048  1.00  0.00     0.296 HD
ENDBRANCH  30  32
ENDBRANCH  29  30
ENDBRANCH  28  29
ENDBRANCH  21  23
ENDBRANCH  20  21
ENDBRANCH   1  20
TORSDOF 12
ENDMDL
MODEL 7
REMARK VINA RESULT:    -7.917      6.271      7.829
REMARK INTER + INTRA:         -14.424
REMARK INTER:                 -13.464
REMARK INTRA:                  -0.960
REMARK UNBOUND:                -1.185
REMARK SMILES CCCc1c(OCCCNc2ccc(CC(=O)O)cc2)ccc2c(C(F)(F)F)noc12
REMARK SMILES IDX 8 1 7 2 6 3 5 4 4 5 31 6 21 7 30 8 23 9 22 10 29 11 24 12
REMARK SMILES IDX 3 13 2 14 1 15 25 16 26 17 27 18 28 19 9 20 10 21 11 23
REMARK SMILES IDX 12 24 20 25 13 26 19 27 14 28 15 29 16 30 17 31 18 32
REMARK H PARENT 10 22 18 33
ROOT
ATOM      1  C   UNL     1      10.817  12.031  -6.748  1.00  0.00     0.063 C 
ENDROOT
BRANCH   1   2
ATOM      2  C   UNL     1       9.741  11.936  -7.827  1.00  0.00     0.231 C 
BRANCH   2   3
ATOM      3  O   UNL     1      10.389  11.584  -9.051  1.00  0.00    -0.493 OA
BRANCH   3   4
ATOM      4  C   UNL     1      10.400  10.260  -9.415  1.00  0.00     0.126 A 
ATOM      5  C   UNL     1      10.739  10.017 -10.767  1.00  0.00     0.040 A 
ATOM      6  C   UNL     1      10.754   8.668 -11.146  1.00  0.00     0.174 A 
ATOM      7  C   UNL     1      10.113   9.201  -8.542  1.00  0.00     0.048 A 
ATOM      8  O   UNL     1      11.039   8.191 -12.389  1.00  0.00    -0.355 OA
ATOM      9  C   UNL     1      10.473   7.604 -10.311  1.00  0.00     0.055 A 
ATOM     10  C   UNL     1      10.144   7.866  -8.973  1.00  0.00     0.018 A 
ATOM     11  N   UNL     1      10.951   6.812 -12.395  1.00  0.00    -0.074 NA
ATOM     12  C   UNL     1      10.615   6.458 -11.142  1.00  0.00     0.195 A 
BRANCH   5  13
ATOM     13  C   UNL     1      11.043  11.132 -11.735  1.00  0.00     0.043 C 
BRANCH  13  14
ATOM     14  C   UNL     1       9.957  11.342 -12.796  1.00  0.00     0.002 C 
ATOM     15  C   UNL     1      10.473  11.207 -14.222  1.00  0.00     0.004 C 
ENDBRANCH  13  14
ENDBRANCH   5  13
BRANCH  12  16
ATOM     16  C   UNL     1      10.414   5.037 -10.755  1.00  0.00     0.437 C 
ATOM     17  F   UNL     1      11.350   4.195 -11.268  1.00  0.00    -0.164 F 
ATOM     18  F   UNL     1       9.202   4.569 -11.160  1.00  0.00    -0.164 F 
ATOM     19  F   UNL     1      10.453   4.869  -9.403  1.00  0.00    -0.164 F 
ENDBRANCH  12  16
ENDBRANCH   3   4
ENDBRANCH   2   3
ENDBRANCH   1   2
BRANCH   1  20
ATOM     20  C   UNL     1      10.224  12.279  -5.366  1.00  0.00     0.116 C 
BRANCH  20  21
ATOM     21  N   UNL     1       9.818  11.030  -4.752  1.00  0.00    -0.385 N 
ATOM     22  H   UNL     1      10.514  10.296  -4.662  1.00  0.00     0.160 HD
BRANCH  21  23
ATOM     23  C   UNL     1       8.501  10.666  -4.538  1.00  0.00     0.034 A 
ATOM     24  C   UNL     1       7.927  10.544  -3.268  1.00  0.00     0.026 A 
ATOM     25  C   UNL     1       7.703  10.336  -5.640  1.00  0.00     0.026 A 
ATOM     26  C   UNL     1       6.597  10.135  -3.106  1.00  0.00     0.006 A 
ATOM     27  C   UNL     1       6.374   9.925  -5.489  1.00  0.00     0.006 A 
ATOM     28  C   UNL     1       5.805   9.829  -4.216  1.00  0.00    -0.037 A 
BRANCH  28  29
ATOM     29  C   UNL     1       4.376   9.376  -4.043  1.00  0.00     0.158 C 
BRANCH  29  30
ATOM     30  C   UNL     1       3.763   8.784  -5.289  1.00  0.00     0.307 C 
ATOM     31  O   UNL     1       3.222   9.359  -6.217  1.00  0.00    -0.252 OA
BRANCH  30  32
ATOM     32  O   UNL     1       3.871   7.437  -5.305  1.00  0.00    -0.481 OA
ATOM     33  H   UNL     1       4.673   7.276  -5.845  1.00  0.00     0.296 HD
ENDBRANCH  30  32
ENDBRANCH  29  30
ENDBRANCH  28  29
ENDBRANCH  21  23
ENDBRANCH  20  21
ENDBRANCH   1  20
TORSDOF 12
ENDMDL
MODEL 8
REMARK VINA RESULT:    -7.775      7.159     11.006
REMARK INTER + INTRA:         -14.186
REMARK INTER:                 -13.034
REMARK INTRA:                  -1.152
REMARK UNBOUND:                -1.185
REMARK SMILES CCCc1c(OCCCNc2ccc(CC(=O)O)cc2)ccc2c(C(F)(F)F)noc12
REMARK SMILES IDX 8 1 7 2 6 3 5 4 4 5 31 6 21 7 30 8 23 9 22 10 29 11 24 12
REMARK SMILES IDX 3 13 2 14 1 15 25 16 26 17 27 18 28 19 9 20 10 21 11 23
REMARK SMILES IDX 12 24 20 25 13 26 19 27 14 28 15 29 16 30 17 31 18 32
REMARK H PARENT 10 22 18 33
ROOT
ATOM      1  C   UNL     1       8.404  10.483  -6.396  1.00  0.00     0.063 C 
ENDROOT
BRANCH   1   2
ATOM      2  C   UNL     1       7.531  10.301  -5.157  1.00  0.00     0.231 C 
BRANCH   2   3
ATOM      3  O   UNL     1       6.313   9.683  -5.574  1.00  0.00    -0.493 OA
BRANCH   3   4
ATOM      4  C   UNL     1       5.588   8.991  -4.635  1.00  0.00     0.126 A 
ATOM      5  C   UNL     1       5.136   7.717  -5.054  1.00  0.00     0.040 A 
ATOM      6  C   UNL     1       4.396   7.004  -4.101  1.00  0.00     0.174 A 
ATOM      7  C   UNL     1       5.304   9.471  -3.349  1.00  0.00     0.048 A 
ATOM      8  O   UNL     1       3.850   5.769  -4.275  1.00  0.00    -0.355 OA
ATOM      9  C   UNL     1       4.097   7.451  -2.828  1.00  0.00     0.055 A 
ATOM     10  C   UNL     1       4.559   8.714  -2.431  1.00  0.00     0.018 A 
ATOM     11  N   UNL     1       3.186   5.382  -3.127  1.00  0.00    -0.074 NA
ATOM     12  C   UNL     1       3.339   6.393  -2.254  1.00  0.00     0.195 A 
BRANCH   5  13
ATOM     13  C   UNL     1       5.413   7.175  -6.433  1.00  0.00     0.043 C 
BRANCH  13  14
ATOM     14  C   UNL     1       6.775   6.484  -6.562  1.00  0.00     0.002 C 
ATOM     15  C   UNL     1       6.727   4.994  -6.254  1.00  0.00     0.004 C 
ENDBRANCH  13  14
ENDBRANCH   5  13
BRANCH  12  16
ATOM     16  C   UNL     1       2.748   6.349  -0.890  1.00  0.00     0.437 C 
ATOM     17  F   UNL     1       3.671   6.257   0.102  1.00  0.00    -0.164 F 
ATOM     18  F   UNL     1       1.904   5.291  -0.741  1.00  0.00    -0.164 F 
ATOM     19  F   UNL     1       2.010   7.462  -0.622  1.00  0.00    -0.164 F 
ENDBRANCH  12  16
ENDBRANCH   3   4
ENDBRANCH   2   3
ENDBRANCH   1   2
BRANCH   1  20
ATOM     20  C   UNL     1       9.798  10.993  -6.047  1.00  0.00     0.116 C 
BRANCH  20  21
ATOM     21  N   UNL     1      10.802  10.331  -6.858  1.00  0.00    -0.385 N 
ATOM     22  H   UNL     1      11.738  10.241  -6.476  1.00  0.00     0.160 HD
BRANCH  21  23
ATOM     23  C   UNL     1      10.654  10.067  -8.208  1.00  0.00     0.034 A 
ATOM     24  C   UNL     1      10.734  11.046  -9.203  1.00  0.00     0.026 A 
ATOM     25  C   UNL     1      10.341   8.763  -8.611  1.00  0.00     0.026 A 
ATOM     26  C   UNL     1      10.537  10.732 -10.553  1.00  0.00     0.006 A 
ATOM     27  C   UNL     1      10.142   8.438  -9.957  1.00  0.00     0.006 A 
ATOM     28  C   UNL     1      10.247   9.421 -10.945  1.00  0.00    -0.037 A 
BRANCH  28  29
ATOM     29  C   UNL     1      10.023   9.083 -12.397  1.00  0.00     0.158 C 
BRANCH  29  30
ATOM     30  C   UNL     1       9.701  10.276 -13.264  1.00  0.00     0.307 C 
ATOM     31  O   UNL     1      10.464  11.101 -13.737  1.00  0.00    -0.252 OA
BRANCH  30  32
ATOM     32  O   UNL     1       8.375  10.373 -13.505  1.00  0.00    -0.481 OA
ATOM     33  H   UNL     1       8.073  11.053 -12.867  1.00  0.00     0.296 HD
ENDBRANCH  30  32
ENDBRANCH  29  30
ENDBRANCH  28  29
ENDBRANCH  21  23
ENDBRANCH  20  21
ENDBRANCH   1  20
TORSDOF 12
ENDMDL
MODEL 9
REMARK VINA RESULT:    -7.639      3.357      4.902
REMARK INTER + INTRA:         -13.959
REMARK INTER:                 -13.262
REMARK INTRA:                  -0.697
REMARK UNBOUND:                -1.185
REMARK SMILES CCCc1c(OCCCNc2ccc(CC(=O)O)cc2)ccc2c(C(F)(F)F)noc12
REMARK SMILES IDX 8 1 7 2 6 3 5 4 4 5 31 6 21 7 30 8 23 9 22 10 29 11 24 12
REMARK SMILES IDX 3 13 2 14 1 15 25 16 26 17 27 18 28 19 9 20 10 21 11 23
REMARK SMILES IDX 12 24 20 25 13 26 19 27 14 28 15 29 16 30 17 31 18 32
REMARK H PARENT 10 22 18 33
ROOT
ATOM      1  C   UNL     1      10.768   4.278 -10.895  1.00  0.00     0.063 C 
ENDROOT
BRANCH   1   2
ATOM      2  C   UNL     1       9.853   5.379 -11.424  1.00  0.00     0.231 C 
BRANCH   2   3
ATOM      3  O   UNL     1      10.636   6.569 -11.545  1.00  0.00    -0.493 OA
BRANCH   3   4
ATOM      4  C   UNL     1      10.474   7.545 -10.592  1.00  0.00     0.126 A 
ATOM      5  C   UNL     1      10.647   8.868 -11.062  1.00  0.00     0.040 A 
ATOM      6  C   UNL     1      10.483   9.870 -10.096  1.00  0.00     0.174 A 
ATOM      7  C   UNL     1      10.154   7.291  -9.251  1.00  0.00     0.048 A 
ATOM      8  O   UNL     1      10.609  11.209 -10.306  1.00  0.00    -0.355 OA
ATOM      9  C   UNL     1      10.171   9.652  -8.768  1.00  0.00     0.055 A 
ATOM     10  C   UNL     1       9.999   8.333  -8.324  1.00  0.00     0.018 A 
ATOM     11  N   UNL     1      10.384  11.894  -9.127  1.00  0.00    -0.074 NA
ATOM     12  C   UNL     1      10.115  10.956  -8.201  1.00  0.00     0.195 A 
BRANCH   5  13
ATOM     13  C   UNL     1      11.002   9.176 -12.494  1.00  0.00     0.043 C 
BRANCH  13  14
ATOM     14  C   UNL     1      10.123  10.259 -13.129  1.00  0.00     0.002 C 
ATOM     15  C   UNL     1      10.836  11.054 -14.215  1.00  0.00     0.004 C 
ENDBRANCH  13  14
ENDBRANCH   5  13
BRANCH  12  16
ATOM     16  C   UNL     1       9.827  11.309  -6.786  1.00  0.00     0.437 C 
ATOM     17  F   UNL     1      10.780  10.886  -5.914  1.00  0.00    -0.164 F 
ATOM     18  F   UNL     1       8.646  10.780  -6.364  1.00  0.00    -0.164 F 
ATOM     19  F   UNL     1       9.723  12.656  -6.611  1.00  0.00    -0.164 F 
ENDBRANCH  12  16
ENDBRANCH   3   4
ENDBRANCH   2   3
ENDBRANCH   1   2
BRANCH   1  20
ATOM     20  C   UNL     1      10.096   3.443  -9.810  1.00  0.00     0.116 C 
BRANCH  20  21
ATOM     21  N   UNL     1       9.402   4.297  -8.865  1.00  0.00    -0.385 N 
ATOM     22  H   UNL     1       9.199   5.251  -9.146  1.00  0.00     0.160 HD
BRANCH  21  23
ATOM     23  C   UNL     1       9.248   3.999  -7.523  1.00  0.00     0.034 A 
ATOM     24  C   UNL     1      10.052   3.084  -6.835  1.00  0.00     0.026 A 
ATOM     25  C   UNL     1       8.193   4.589  -6.816  1.00  0.00     0.026 A 
ATOM     26  C   UNL     1       9.829   2.789  -5.485  1.00  0.00     0.006 A 
ATOM     27  C   UNL     1       7.961   4.300  -5.467  1.00  0.00     0.006 A 
ATOM     28  C   UNL     1       8.785   3.401  -4.784  1.00  0.00    -0.037 A 
BRANCH  28  29
ATOM     29  C   UNL     1       8.536   3.076  -3.332  1.00  0.00     0.158 C 
BRANCH  29  30
ATOM     30  C   UNL     1       9.325   3.928  -2.368  1.00  0.00     0.307 C 
ATOM     31  O   UNL     1       8.999   4.326  -1.263  1.00  0.00    -0.252 OA
BRANCH  30  32
ATOM     32  O   UNL     1      10.540   4.248  -2.865  1.00  0.00    -0.481 OA
ATOM     33  H   UNL     1      10.445   4.088  -3.827  1.00  0.00     0.296 HD
ENDBRANCH  30  32
ENDBRANCH  29  30
ENDBRANCH  28  29
ENDBRANCH  21  23
ENDBRANCH  20  21
ENDBRANCH   1  20
TORSDOF 12
ENDMDL
