MODEL 1
REMARK VINA RESULT:    -7.217      0.000      0.000
REMARK INTER + INTRA:         -10.188
REMARK INTER:                  -9.538
REMARK INTRA:                  -0.650
REMARK UNBOUND:                -0.650
REMARK SMILES Cc1cccc(Nc2ccnc(SCC(=O)O)n2)c1C
REMARK SMILES IDX 13 1 12 2 8 3 9 4 18 5 10 6 11 7 7 8 6 10 2 11 3 12 19 13
REMARK SMILES IDX 4 14 5 15 1 16 20 17 14 18 15 19 16 20 17 21
REMARK H PARENT 7 9 17 22
ROOT
ATOM      1  S   UNL     1      -3.990  -5.391 -20.285  1.00  0.00    -0.074 SA
ENDROOT
BRANCH   1   2
ATOM      2  C   UNL     1      -5.732  -5.717 -20.356  1.00  0.00     0.190 A 
ATOM      3  C   UNL     1      -7.411  -7.098 -21.077  1.00  0.00     0.134 A 
ATOM      4  C   UNL     1      -8.358  -6.283 -20.492  1.00  0.00     0.067 A 
ATOM      5  N   UNL     1      -6.099  -6.821 -21.023  1.00  0.00    -0.205 NA
ATOM      6  C   UNL     1      -7.884  -5.177 -19.833  1.00  0.00     0.118 A 
ATOM      7  N   UNL     1      -6.578  -4.872 -19.747  1.00  0.00    -0.231 NA
BRANCH   3   8
ATOM      8  N   UNL     1      -7.779  -8.256 -21.793  1.00  0.00    -0.340 N 
ATOM      9  H   UNL     1      -7.428  -9.028 -21.229  1.00  0.00     0.168 HD
BRANCH   8  10
ATOM     10  C   UNL     1      -9.096  -8.509 -22.249  1.00  0.00     0.043 A 
ATOM     11  C   UNL     1     -10.831  -8.572 -23.961  1.00  0.00    -0.046 A 
ATOM     12  C   UNL     1     -11.703  -9.158 -23.030  1.00  0.00     0.004 A 
ATOM     13  C   UNL     1      -9.519  -8.214 -23.566  1.00  0.00    -0.025 A 
ATOM     14  C   UNL     1     -11.286  -9.421 -21.729  1.00  0.00     0.002 A 
ATOM     15  C   UNL     1      -9.988  -9.104 -21.345  1.00  0.00     0.026 A 
ATOM     16  C   UNL     1     -11.337  -8.322 -25.358  1.00  0.00     0.044 C 
ATOM     17  C   UNL     1      -8.568  -7.586 -24.556  1.00  0.00     0.047 C 
ENDBRANCH   8  10
ENDBRANCH   3   8
ENDBRANCH   1   2
BRANCH   1  18
ATOM     18  C   UNL     1      -3.959  -3.725 -20.997  1.00  0.00     0.200 C 
BRANCH  18  19
ATOM     19  C   UNL     1      -3.726  -2.720 -19.903  1.00  0.00     0.313 C 
ATOM     20  O   UNL     1      -2.798  -1.931 -19.826  1.00  0.00    -0.251 OA
BRANCH  19  21
ATOM     21  O   UNL     1      -4.684  -2.735 -18.953  1.00  0.00    -0.481 OA
ATOM     22  H   UNL     1      -4.225  -2.412 -18.149  1.00  0.00     0.296 HD
ENDBRANCH  19  21
ENDBRANCH  18  19
ENDBRANCH   1  18
TORSDOF 6
ENDMDL
