MODEL 6
REMARK minimizedAffinity -8.07756424
REMARK CNNscore 0.157272905
REMARK CNNaffinity 7.3665061
REMARK SMILES C=CC(=O)N1CCC(Oc2cc3c(Nc4ccc(Cl)c(Cl)c4F)ncnc3cc2O[C@H]2CCOC2)CC1
REMARK SMILES IDX 10 1 11 2 12 3 13 4 24 5 25 6 26 7 27 8 28 9 29 10 9 11 8 12
REMARK SMILES IDX 3 13 4 14 5 15 6 16 37 17 7 18 36 19 2 20 1 21 30 22 31 23
REMARK SMILES IDX 32 24 35 25 33 26 34 27 14 28 15 30 16 31 22 32 17 33 20 34
REMARK SMILES IDX 18 35 23 36 21 37 19 38
REMARK H PARENT 14 29
ROOT
ATOM      1  C   UNL     1      14.908   5.209  24.842  1.00  0.00     0.162 A 
ATOM      2  C   UNL     1      14.268   4.181  25.539  1.00  0.00     0.064 A 
ATOM      3  C   UNL     1      14.991   3.072  26.035  1.00  0.00     0.047 A 
ATOM      4  C   UNL     1      14.436   1.984  26.737  1.00  0.00     0.141 A 
ATOM      5  N   UNL     1      15.190   0.965  27.185  1.00  0.00    -0.219 NA
ATOM      6  C   UNL     1      16.504   1.044  26.956  1.00  0.00     0.224 A 
ATOM      7  N   UNL     1      17.133   2.019  26.290  1.00  0.00    -0.236 NA
ATOM      8  C   UNL     1      16.374   3.018  25.833  1.00  0.00     0.080 A 
ATOM      9  C   UNL     1      16.992   4.036  25.112  1.00  0.00     0.079 A 
ATOM     10  C   UNL     1      16.282   5.124  24.587  1.00  0.00     0.163 A 
ENDROOT
BRANCH   1  11
ATOM     11  O   UNL     1      14.065   6.192  24.398  1.00  0.00    -0.486 OA
BRANCH  11  12
ATOM     12  C   UNL     1      13.527   7.080  25.390  1.00  0.00     0.177 C 
ATOM     13  C   UNL     1      13.987  10.803  23.269  1.00  0.00     0.245 C 
ATOM     14  O   UNL     1      15.104  11.279  23.082  1.00  0.00    -0.270 OA
ATOM     15  N   UNL     1      13.758   9.636  23.995  1.00  0.00    -0.339 N 
ATOM     16  C   UNL     1      12.677   8.711  23.640  1.00  0.00     0.123 C 
ATOM     17  C   UNL     1      14.945   9.001  24.566  1.00  0.00     0.123 C 
ATOM     18  C   UNL     1      12.305   7.790  24.797  1.00  0.00     0.067 C 
ATOM     19  C   UNL     1      14.595   8.112  25.755  1.00  0.00     0.067 C 
BRANCH  13  20
ATOM     20  C   UNL     1      12.780  11.508  22.756  1.00  0.00     0.063 C 
ATOM     21  C   UNL     1      12.814  12.823  22.510  1.00  0.00     0.014 C 
ENDBRANCH  13  20
ENDBRANCH  11  12
ENDBRANCH   1  11
BRANCH  10  22
ATOM     22  O   UNL     1      16.836   6.100  23.803  1.00  0.00    -0.484 OA
BRANCH  22  23
ATOM     23  C   UNL     1      16.484   6.180  22.415  1.00  0.00     0.201 C 
ATOM     24  C   UNL     1      17.090   7.454  21.861  1.00  0.00     0.076 C 
ATOM     25  C   UNL     1      17.210   5.117  21.592  1.00  0.00     0.205 C 
ATOM     26  C   UNL     1      18.522   7.040  21.596  1.00  0.00     0.164 C 
ATOM     27  O   UNL     1      18.483   5.663  21.202  1.00  0.00    -0.377 OA
ENDBRANCH  22  23
ENDBRANCH  10  22
BRANCH   4  28
ATOM     28  N   UNL     1      13.028   1.937  26.944  1.00  0.00    -0.337 N 
ATOM     29  H   UNL     1      12.650   1.203  26.354  1.00  0.00     0.168 HD
BRANCH  28  30
ATOM     30  C   UNL     1      12.392   1.989  28.209  1.00  0.00     0.078 A 
ATOM     31  C   UNL     1      11.001   2.173  28.269  1.00  0.00     0.031 A 
ATOM     32  C   UNL     1      13.103   1.917  29.422  1.00  0.00     0.166 A 
ATOM     33  C   UNL     1      10.341   2.213  29.499  1.00  0.00     0.024 A 
ATOM     34  C   UNL     1      12.449   1.961  30.658  1.00  0.00     0.097 A 
ATOM     35  C   UNL     1      11.060   2.096  30.693  1.00  0.00     0.062 A 
ATOM     36  F   UNL     1      14.445   1.846  29.396  1.00  0.00    -0.203 F 
ATOM     37  Cl  UNL     1      13.393   1.857  32.104  1.00  0.00    -0.079 Cl
ATOM     38  Cl  UNL     1      10.163   2.133  32.166  1.00  0.00    -0.083 Cl
ENDBRANCH  28  30
ENDBRANCH   4  28
TORSDOF 7
ENDMDL
