MODEL 2
REMARK minimizedAffinity -8.80226231
REMARK CNNscore 0.47696954
REMARK CNNaffinity 7.79115105
REMARK SMILES C=CC(=O)N1CCC(Oc2cc3c(Nc4ccc(Cl)c(Cl)c4F)ncnc3cc2O[C@H]2CCOC2)CC1
REMARK SMILES IDX 10 1 11 2 12 3 13 4 24 5 25 6 26 7 27 8 28 9 29 10 9 11 8 12
REMARK SMILES IDX 3 13 4 14 5 15 6 16 37 17 7 18 36 19 2 20 1 21 30 22 31 23
REMARK SMILES IDX 32 24 35 25 33 26 34 27 14 28 15 30 16 31 22 32 17 33 20 34
REMARK SMILES IDX 18 35 23 36 21 37 19 38
REMARK H PARENT 14 29
ROOT
ATOM      1  C   UNL     1      16.809   4.639  25.030  1.00  0.00     0.162 A 
ATOM      2  C   UNL     1      15.908   4.078  25.939  1.00  0.00     0.064 A 
ATOM      3  C   UNL     1      16.003   2.719  26.318  1.00  0.00     0.047 A 
ATOM      4  C   UNL     1      15.139   2.060  27.215  1.00  0.00     0.141 A 
ATOM      5  N   UNL     1      15.295   0.764  27.534  1.00  0.00    -0.219 NA
ATOM      6  C   UNL     1      16.331   0.130  26.979  1.00  0.00     0.224 A 
ATOM      7  N   UNL     1      17.202   0.651  26.106  1.00  0.00    -0.236 NA
ATOM      8  C   UNL     1      17.028   1.934  25.781  1.00  0.00     0.080 A 
ATOM      9  C   UNL     1      17.899   2.501  24.856  1.00  0.00     0.079 A 
ATOM     10  C   UNL     1      17.797   3.838  24.446  1.00  0.00     0.163 A 
ENDROOT
BRANCH   1  11
ATOM     11  O   UNL     1      16.562   5.954  24.739  1.00  0.00    -0.486 OA
BRANCH  11  12
ATOM     12  C   UNL     1      15.231   6.433  24.989  1.00  0.00     0.177 C 
ATOM     13  C   UNL     1      15.054   9.505  21.971  1.00  0.00     0.245 C 
ATOM     14  O   UNL     1      15.718  10.531  22.089  1.00  0.00    -0.270 OA
ATOM     15  N   UNL     1      15.017   8.497  22.933  1.00  0.00    -0.339 N 
ATOM     16  C   UNL     1      14.884   7.085  22.560  1.00  0.00     0.123 C 
ATOM     17  C   UNL     1      15.807   8.741  24.138  1.00  0.00     0.123 C 
ATOM     18  C   UNL     1      14.395   6.226  23.722  1.00  0.00     0.067 C 
ATOM     19  C   UNL     1      15.301   7.924  25.322  1.00  0.00     0.067 C 
BRANCH  13  20
ATOM     20  C   UNL     1      14.185   9.310  20.778  1.00  0.00     0.063 C 
ATOM     21  C   UNL     1      12.900   9.684  20.804  1.00  0.00     0.014 C 
ENDBRANCH  13  20
ENDBRANCH  11  12
ENDBRANCH   1  11
BRANCH  10  22
ATOM     22  O   UNL     1      18.579   4.409  23.479  1.00  0.00    -0.484 OA
BRANCH  22  23
ATOM     23  C   UNL     1      18.092   4.495  22.132  1.00  0.00     0.201 C 
ATOM     24  C   UNL     1      18.279   5.925  21.668  1.00  0.00     0.076 C 
ATOM     25  C   UNL     1      18.999   3.741  21.161  1.00  0.00     0.205 C 
ATOM     26  C   UNL     1      19.738   5.946  21.268  1.00  0.00     0.164 C 
ATOM     27  O   UNL     1      20.036   4.647  20.742  1.00  0.00    -0.377 OA
ENDBRANCH  22  23
ENDBRANCH  10  22
BRANCH   4  28
ATOM     28  N   UNL     1      14.039   2.775  27.770  1.00  0.00    -0.337 N 
ATOM     29  H   UNL     1      13.403   3.005  27.014  1.00  0.00     0.168 HD
BRANCH  28  30
ATOM     30  C   UNL     1      13.353   2.414  28.957  1.00  0.00     0.078 A 
ATOM     31  C   UNL     1      14.082   2.250  30.145  1.00  0.00     0.031 A 
ATOM     32  C   UNL     1      11.969   2.158  28.987  1.00  0.00     0.166 A 
ATOM     33  C   UNL     1      13.434   1.909  31.336  1.00  0.00     0.024 A 
ATOM     34  C   UNL     1      11.314   1.812  30.175  1.00  0.00     0.097 A 
ATOM     35  C   UNL     1      12.052   1.702  31.355  1.00  0.00     0.062 A 
ATOM     36  F   UNL     1      11.264   2.205  27.844  1.00  0.00    -0.203 F 
ATOM     37  Cl  UNL     1       9.609   1.523  30.132  1.00  0.00    -0.079 Cl
ATOM     38  Cl  UNL     1      11.330   1.307  32.871  1.00  0.00    -0.083 Cl
ENDBRANCH  28  30
ENDBRANCH   4  28
TORSDOF 7
ENDMDL
