MODEL 1
REMARK VINA RESULT:    -7.851      0.000      0.000
REMARK INTER + INTRA:         -11.229
REMARK INTER:                 -10.605
REMARK INTRA:                  -0.624
REMARK UNBOUND:                -0.624
REMARK SMILES CC(C)COC(=O)N1CC[C@@H](N(C)c2ncnc3[nH]ccc23)C1
REMARK SMILES IDX 6 1 7 2 5 3 4 4 2 5 1 6 3 7 8 8 9 9 23 10 10 11 11 12 12 13
REMARK SMILES IDX 13 14 14 15 15 16 22 17 16 18 21 19 18 20 17 21 20 22 19 23
REMARK H PARENT 19 24
ROOT
ATOM      1  C   UNL     1     -21.434  18.776  22.559  1.00  0.00     0.409 C 
ATOM      2  O   UNL     1     -21.796  19.467  23.505  1.00  0.00    -0.224 OA
ENDROOT
BRANCH   1   3
ATOM      3  O   UNL     1     -22.248  18.373  21.549  1.00  0.00    -0.449 OA
BRANCH   3   4
ATOM      4  C   UNL     1     -23.648  18.455  21.845  1.00  0.00     0.238 C 
BRANCH   4   5
ATOM      5  C   UNL     1     -24.331  19.432  20.877  1.00  0.00     0.021 C 
ATOM      6  C   UNL     1     -24.388  20.844  21.461  1.00  0.00     0.011 C 
ATOM      7  C   UNL     1     -23.625  19.456  19.521  1.00  0.00     0.011 C 
ENDBRANCH   4   5
ENDBRANCH   3   4
ENDBRANCH   1   3
BRANCH   1   8
ATOM      8  N   UNL     1     -20.156  18.315  22.395  1.00  0.00    -0.306 N 
ATOM      9  C   UNL     1     -19.442  17.449  23.312  1.00  0.00     0.125 C 
ATOM     10  C   UNL     1     -19.335  18.694  21.259  1.00  0.00     0.148 C 
ATOM     11  C   UNL     1     -18.235  16.966  22.520  1.00  0.00     0.048 C 
ATOM     12  C   UNL     1     -17.936  18.152  21.597  1.00  0.00     0.104 C 
BRANCH  12  13
ATOM     13  N   UNL     1     -17.121  17.765  20.440  1.00  0.00    -0.354 N 
ATOM     14  C   UNL     1     -17.611  17.945  19.087  1.00  0.00     0.145 C 
BRANCH  13  15
ATOM     15  C   UNL     1     -15.960  17.037  20.677  1.00  0.00     0.141 A 
ATOM     16  N   UNL     1     -14.963  17.639  21.390  1.00  0.00    -0.219 NA
ATOM     17  C   UNL     1     -15.707  15.708  20.247  1.00  0.00     0.061 A 
ATOM     18  C   UNL     1     -13.829  16.968  21.667  1.00  0.00     0.226 A 
ATOM     19  C   UNL     1     -16.372  14.707  19.471  1.00  0.00     0.033 A 
ATOM     20  C   UNL     1     -14.488  15.148  20.609  1.00  0.00     0.142 A 
ATOM     21  N   UNL     1     -13.508  15.716  21.323  1.00  0.00    -0.218 NA
ATOM     22  C   UNL     1     -15.563  13.591  19.411  1.00  0.00     0.085 A 
ATOM     23  N   UNL     1     -14.422  13.875  20.112  1.00  0.00    -0.346 N 
ATOM     24  H   UNL     1     -13.630  13.263  20.245  1.00  0.00     0.167 HD
ENDBRANCH  13  15
ENDBRANCH  12  13
ENDBRANCH   1   8
TORSDOF 6
ENDMDL
MODEL 2
REMARK VINA RESULT:    -7.727      3.401      8.242
REMARK INTER + INTRA:         -11.061
REMARK INTER:                 -10.506
REMARK INTRA:                  -0.555
REMARK UNBOUND:                -0.624
REMARK SMILES CC(C)COC(=O)N1CC[C@@H](N(C)c2ncnc3[nH]ccc23)C1
REMARK SMILES IDX 6 1 7 2 5 3 4 4 2 5 1 6 3 7 8 8 9 9 23 10 10 11 11 12 12 13
REMARK SMILES IDX 13 14 14 15 15 16 22 17 16 18 21 19 18 20 17 21 20 22 19 23
REMARK H PARENT 19 24
ROOT
ATOM      1  C   UNL     1     -14.633  14.422  19.907  1.00  0.00     0.409 C 
ATOM      2  O   UNL     1     -15.352  13.994  19.012  1.00  0.00    -0.224 OA
ENDROOT
BRANCH   1   3
ATOM      3  O   UNL     1     -13.513  13.797  20.355  1.00  0.00    -0.449 OA
BRANCH   3   4
ATOM      4  C   UNL     1     -13.463  12.392  20.075  1.00  0.00     0.238 C 
BRANCH   4   5
ATOM      5  C   UNL     1     -12.023  11.977  19.739  1.00  0.00     0.021 C 
ATOM      6  C   UNL     1     -11.988  10.988  18.573  1.00  0.00     0.011 C 
ATOM      7  C   UNL     1     -11.154  13.193  19.418  1.00  0.00     0.011 C 
ENDBRANCH   4   5
ENDBRANCH   3   4
ENDBRANCH   1   3
BRANCH   1   8
ATOM      8  N   UNL     1     -14.865  15.591  20.580  1.00  0.00    -0.306 N 
ATOM      9  C   UNL     1     -13.894  16.323  21.369  1.00  0.00     0.125 C 
ATOM     10  C   UNL     1     -16.171  16.224  20.606  1.00  0.00     0.148 C 
ATOM     11  C   UNL     1     -14.537  17.683  21.601  1.00  0.00     0.048 C 
ATOM     12  C   UNL     1     -16.032  17.350  21.645  1.00  0.00     0.104 C 
BRANCH  12  13
ATOM     13  N   UNL     1     -16.873  18.528  21.403  1.00  0.00    -0.354 N 
ATOM     14  C   UNL     1     -16.286  19.810  21.064  1.00  0.00     0.145 C 
BRANCH  13  15
ATOM     15  C   UNL     1     -18.228  18.433  21.707  1.00  0.00     0.141 A 
ATOM     16  N   UNL     1     -18.575  17.894  22.913  1.00  0.00    -0.219 NA
ATOM     17  C   UNL     1     -19.300  18.851  20.876  1.00  0.00     0.061 A 
ATOM     18  C   UNL     1     -19.871  17.803  23.265  1.00  0.00     0.226 A 
ATOM     19  C   UNL     1     -19.465  19.406  19.567  1.00  0.00     0.033 A 
ATOM     20  C   UNL     1     -20.586  18.691  21.376  1.00  0.00     0.142 A 
ATOM     21  N   UNL     1     -20.944  18.183  22.562  1.00  0.00    -0.218 NA
ATOM     22  C   UNL     1     -20.813  19.582  19.335  1.00  0.00     0.085 A 
ATOM     23  N   UNL     1     -21.481  19.145  20.446  1.00  0.00    -0.346 N 
ATOM     24  H   UNL     1     -22.482  19.134  20.582  1.00  0.00     0.167 HD
ENDBRANCH  13  15
ENDBRANCH  12  13
ENDBRANCH   1   8
TORSDOF 6
ENDMDL
MODEL 3
REMARK VINA RESULT:    -7.554      2.550      4.761
REMARK INTER + INTRA:         -10.827
REMARK INTER:                 -10.277
REMARK INTRA:                  -0.550
REMARK UNBOUND:                -0.624
REMARK SMILES CC(C)COC(=O)N1CC[C@@H](N(C)c2ncnc3[nH]ccc23)C1
REMARK SMILES IDX 6 1 7 2 5 3 4 4 2 5 1 6 3 7 8 8 9 9 23 10 10 11 11 12 12 13
REMARK SMILES IDX 13 14 14 15 15 16 22 17 16 18 21 19 18 20 17 21 20 22 19 23
REMARK H PARENT 19 24
ROOT
ATOM      1  C   UNL     1     -17.501  18.775  19.835  1.00  0.00     0.409 C 
ATOM      2  O   UNL     1     -17.174  19.953  19.904  1.00  0.00    -0.224 OA
ENDROOT
BRANCH   1   3
ATOM      3  O   UNL     1     -18.770  18.320  20.004  1.00  0.00    -0.449 OA
BRANCH   3   4
ATOM      4  C   UNL     1     -19.536  19.043  20.976  1.00  0.00     0.238 C 
BRANCH   4   5
ATOM      5  C   UNL     1     -20.087  18.074  22.033  1.00  0.00     0.021 C 
ATOM      6  C   UNL     1     -18.987  17.613  22.991  1.00  0.00     0.011 C 
ATOM      7  C   UNL     1     -21.234  18.707  22.822  1.00  0.00     0.011 C 
ENDBRANCH   4   5
ENDBRANCH   3   4
ENDBRANCH   1   3
BRANCH   1   8
ATOM      8  N   UNL     1     -16.627  17.753  19.578  1.00  0.00    -0.306 N 
ATOM      9  C   UNL     1     -16.157  17.346  18.269  1.00  0.00     0.125 C 
ATOM     10  C   UNL     1     -16.088  16.911  20.631  1.00  0.00     0.148 C 
ATOM     11  C   UNL     1     -14.974  16.432  18.554  1.00  0.00     0.048 C 
ATOM     12  C   UNL     1     -15.360  15.780  19.886  1.00  0.00     0.104 C 
BRANCH  12  13
ATOM     13  N   UNL     1     -14.201  15.216  20.587  1.00  0.00    -0.354 N 
ATOM     14  C   UNL     1     -13.421  16.020  21.508  1.00  0.00     0.145 C 
BRANCH  13  15
ATOM     15  C   UNL     1     -13.750  13.961  20.191  1.00  0.00     0.141 A 
ATOM     16  N   UNL     1     -14.656  12.940  20.149  1.00  0.00    -0.219 NA
ATOM     17  C   UNL     1     -12.420  13.634  19.818  1.00  0.00     0.061 A 
ATOM     18  C   UNL     1     -14.274  11.713  19.749  1.00  0.00     0.226 A 
ATOM     19  C   UNL     1     -11.153  14.295  19.742  1.00  0.00     0.033 A 
ATOM     20  C   UNL     1     -12.178  12.322  19.429  1.00  0.00     0.142 A 
ATOM     21  N   UNL     1     -13.057  11.314  19.364  1.00  0.00    -0.218 NA
ATOM     22  C   UNL     1     -10.214  13.388  19.297  1.00  0.00     0.085 A 
ATOM     23  N   UNL     1     -10.854  12.193  19.108  1.00  0.00    -0.346 N 
ATOM     24  H   UNL     1     -10.437  11.329  18.795  1.00  0.00     0.167 HD
ENDBRANCH  13  15
ENDBRANCH  12  13
ENDBRANCH   1   8
TORSDOF 6
ENDMDL
MODEL 4
REMARK VINA RESULT:    -7.522      1.123      2.235
REMARK INTER + INTRA:         -10.784
REMARK INTER:                 -10.439
REMARK INTRA:                  -0.345
REMARK UNBOUND:                -0.624
REMARK SMILES CC(C)COC(=O)N1CC[C@@H](N(C)c2ncnc3[nH]ccc23)C1
REMARK SMILES IDX 6 1 7 2 5 3 4 4 2 5 1 6 3 7 8 8 9 9 23 10 10 11 11 12 12 13
REMARK SMILES IDX 13 14 14 15 15 16 22 17 16 18 21 19 18 20 17 21 20 22 19 23
REMARK H PARENT 19 24
ROOT
ATOM      1  C   UNL     1     -21.611  18.920  22.408  1.00  0.00     0.409 C 
ATOM      2  O   UNL     1     -21.649  19.440  23.516  1.00  0.00    -0.224 OA
ENDROOT
BRANCH   1   3
ATOM      3  O   UNL     1     -22.643  18.242  21.843  1.00  0.00    -0.449 OA
BRANCH   3   4
ATOM      4  C   UNL     1     -23.941  18.657  22.287  1.00  0.00     0.238 C 
BRANCH   4   5
ATOM      5  C   UNL     1     -24.600  19.544  21.220  1.00  0.00     0.021 C 
ATOM      6  C   UNL     1     -24.600  21.014  21.644  1.00  0.00     0.011 C 
ATOM      7  C   UNL     1     -23.907  19.392  19.865  1.00  0.00     0.011 C 
ENDBRANCH   4   5
ENDBRANCH   3   4
ENDBRANCH   1   3
BRANCH   1   8
ATOM      8  N   UNL     1     -20.515  18.951  21.588  1.00  0.00    -0.306 N 
ATOM      9  C   UNL     1     -20.383  19.736  20.376  1.00  0.00     0.125 C 
ATOM     10  C   UNL     1     -19.339  18.136  21.834  1.00  0.00     0.148 C 
ATOM     11  C   UNL     1     -18.898  19.685  20.048  1.00  0.00     0.048 C 
ATOM     12  C   UNL     1     -18.480  18.307  20.569  1.00  0.00     0.104 C 
BRANCH  12  13
ATOM     13  N   UNL     1     -17.032  18.206  20.782  1.00  0.00    -0.354 N 
ATOM     14  C   UNL     1     -16.273  19.327  21.301  1.00  0.00     0.145 C 
BRANCH  13  15
ATOM     15  C   UNL     1     -16.378  17.085  20.281  1.00  0.00     0.141 A 
ATOM     16  N   UNL     1     -16.971  16.404  19.256  1.00  0.00    -0.219 NA
ATOM     17  C   UNL     1     -15.134  16.574  20.736  1.00  0.00     0.061 A 
ATOM     18  C   UNL     1     -16.367  15.327  18.720  1.00  0.00     0.226 A 
ATOM     19  C   UNL     1     -14.181  16.876  21.758  1.00  0.00     0.033 A 
ATOM     20  C   UNL     1     -14.636  15.452  20.084  1.00  0.00     0.142 A 
ATOM     21  N   UNL     1     -15.195  14.783  19.066  1.00  0.00    -0.218 NA
ATOM     22  C   UNL     1     -13.150  15.963  21.677  1.00  0.00     0.085 A 
ATOM     23  N   UNL     1     -13.441  15.105  20.651  1.00  0.00    -0.346 N 
ATOM     24  H   UNL     1     -12.885  14.320  20.347  1.00  0.00     0.167 HD
ENDBRANCH  13  15
ENDBRANCH  12  13
ENDBRANCH   1   8
TORSDOF 6
ENDMDL
MODEL 5
REMARK VINA RESULT:    -7.463      1.842      2.900
REMARK INTER + INTRA:         -10.705
REMARK INTER:                 -10.059
REMARK INTRA:                  -0.646
REMARK UNBOUND:                -0.624
REMARK SMILES CC(C)COC(=O)N1CC[C@@H](N(C)c2ncnc3[nH]ccc23)C1
REMARK SMILES IDX 6 1 7 2 5 3 4 4 2 5 1 6 3 7 8 8 9 9 23 10 10 11 11 12 12 13
REMARK SMILES IDX 13 14 14 15 15 16 22 17 16 18 21 19 18 20 17 21 20 22 19 23
REMARK H PARENT 19 24
ROOT
ATOM      1  C   UNL     1     -21.629  18.850  22.453  1.00  0.00     0.409 C 
ATOM      2  O   UNL     1     -21.770  19.451  23.511  1.00  0.00    -0.224 OA
ENDROOT
BRANCH   1   3
ATOM      3  O   UNL     1     -22.626  18.190  21.809  1.00  0.00    -0.449 OA
BRANCH   3   4
ATOM      4  C   UNL     1     -23.948  18.594  22.185  1.00  0.00     0.238 C 
BRANCH   4   5
ATOM      5  C   UNL     1     -24.535  19.527  21.115  1.00  0.00     0.021 C 
ATOM      6  C   UNL     1     -24.566  20.978  21.599  1.00  0.00     0.011 C 
ATOM      7  C   UNL     1     -23.752  19.431  19.805  1.00  0.00     0.011 C 
ENDBRANCH   4   5
ENDBRANCH   3   4
ENDBRANCH   1   3
BRANCH   1   8
ATOM      8  N   UNL     1     -20.442  18.762  21.778  1.00  0.00    -0.306 N 
ATOM      9  C   UNL     1     -20.098  19.482  20.568  1.00  0.00     0.125 C 
ATOM     10  C   UNL     1     -19.376  17.869  22.197  1.00  0.00     0.148 C 
ATOM     11  C   UNL     1     -18.593  19.303  20.432  1.00  0.00     0.048 C 
ATOM     12  C   UNL     1     -18.357  17.919  21.046  1.00  0.00     0.104 C 
BRANCH  12  13
ATOM     13  N   UNL     1     -16.960  17.716  21.443  1.00  0.00    -0.354 N 
ATOM     14  C   UNL     1     -16.526  17.956  22.806  1.00  0.00     0.145 C 
BRANCH  13  15
ATOM     15  C   UNL     1     -16.025  17.488  20.437  1.00  0.00     0.141 A 
ATOM     16  N   UNL     1     -15.892  16.213  19.966  1.00  0.00    -0.219 NA
ATOM     17  C   UNL     1     -15.186  18.467  19.842  1.00  0.00     0.061 A 
ATOM     18  C   UNL     1     -15.020  15.946  18.976  1.00  0.00     0.226 A 
ATOM     19  C   UNL     1     -14.917  19.863  20.002  1.00  0.00     0.033 A 
ATOM     20  C   UNL     1     -14.334  18.038  18.832  1.00  0.00     0.142 A 
ATOM     21  N   UNL     1     -14.204  16.797  18.344  1.00  0.00    -0.218 NA
ATOM     22  C   UNL     1     -13.951  20.229  19.088  1.00  0.00     0.085 A 
ATOM     23  N   UNL     1     -13.610  19.108  18.381  1.00  0.00    -0.346 N 
ATOM     24  H   UNL     1     -12.922  19.046  17.645  1.00  0.00     0.167 HD
ENDBRANCH  13  15
ENDBRANCH  12  13
ENDBRANCH   1   8
TORSDOF 6
ENDMDL
MODEL 6
REMARK VINA RESULT:    -7.432      4.677      7.731
REMARK INTER + INTRA:         -10.663
REMARK INTER:                  -9.846
REMARK INTRA:                  -0.817
REMARK UNBOUND:                -0.624
REMARK SMILES CC(C)COC(=O)N1CC[C@@H](N(C)c2ncnc3[nH]ccc23)C1
REMARK SMILES IDX 6 1 7 2 5 3 4 4 2 5 1 6 3 7 8 8 9 9 23 10 10 11 11 12 12 13
REMARK SMILES IDX 13 14 14 15 15 16 22 17 16 18 21 19 18 20 17 21 20 22 19 23
REMARK H PARENT 19 24
ROOT
ATOM      1  C   UNL     1     -16.185  13.260  19.943  1.00  0.00     0.409 C 
ATOM      2  O   UNL     1     -17.120  12.993  20.689  1.00  0.00    -0.224 OA
ENDROOT
BRANCH   1   3
ATOM      3  O   UNL     1     -15.294  12.348  19.475  1.00  0.00    -0.449 OA
BRANCH   3   4
ATOM      4  C   UNL     1     -14.107  12.215  20.267  1.00  0.00     0.238 C 
BRANCH   4   5
ATOM      5  C   UNL     1     -12.875  12.592  19.431  1.00  0.00     0.021 C 
ATOM      6  C   UNL     1     -12.178  13.831  19.997  1.00  0.00     0.011 C 
ATOM      7  C   UNL     1     -11.885  11.430  19.344  1.00  0.00     0.011 C 
ENDBRANCH   4   5
ENDBRANCH   3   4
ENDBRANCH   1   3
BRANCH   1   8
ATOM      8  N   UNL     1     -15.912  14.519  19.481  1.00  0.00    -0.306 N 
ATOM      9  C   UNL     1     -15.948  14.942  18.095  1.00  0.00     0.125 C 
ATOM     10  C   UNL     1     -15.502  15.597  20.364  1.00  0.00     0.148 C 
ATOM     11  C   UNL     1     -15.914  16.462  18.158  1.00  0.00     0.048 C 
ATOM     12  C   UNL     1     -15.083  16.733  19.416  1.00  0.00     0.104 C 
BRANCH  12  13
ATOM     13  N   UNL     1     -15.288  18.088  19.939  1.00  0.00    -0.354 N 
ATOM     14  C   UNL     1     -16.393  18.387  20.830  1.00  0.00     0.145 C 
BRANCH  13  15
ATOM     15  C   UNL     1     -14.522  19.116  19.399  1.00  0.00     0.141 A 
ATOM     16  N   UNL     1     -15.165  20.259  19.017  1.00  0.00    -0.219 NA
ATOM     17  C   UNL     1     -13.116  19.095  19.207  1.00  0.00     0.061 A 
ATOM     18  C   UNL     1     -14.466  21.292  18.511  1.00  0.00     0.226 A 
ATOM     19  C   UNL     1     -12.041  18.169  19.388  1.00  0.00     0.033 A 
ATOM     20  C   UNL     1     -12.534  20.238  18.672  1.00  0.00     0.142 A 
ATOM     21  N   UNL     1     -13.146  21.373  18.309  1.00  0.00    -0.218 NA
ATOM     22  C   UNL     1     -10.869  18.777  18.989  1.00  0.00     0.085 A 
ATOM     23  N   UNL     1     -11.186  20.037  18.560  1.00  0.00    -0.346 N 
ATOM     24  H   UNL     1     -10.546  20.728  18.197  1.00  0.00     0.167 HD
ENDBRANCH  13  15
ENDBRANCH  12  13
ENDBRANCH   1   8
TORSDOF 6
ENDMDL
MODEL 7
REMARK VINA RESULT:    -7.237      3.694      5.740
REMARK INTER + INTRA:         -10.399
REMARK INTER:                  -9.705
REMARK INTRA:                  -0.695
REMARK UNBOUND:                -0.624
REMARK SMILES CC(C)COC(=O)N1CC[C@@H](N(C)c2ncnc3[nH]ccc23)C1
REMARK SMILES IDX 6 1 7 2 5 3 4 4 2 5 1 6 3 7 8 8 9 9 23 10 10 11 11 12 12 13
REMARK SMILES IDX 13 14 14 15 15 16 22 17 16 18 21 19 18 20 17 21 20 22 19 23
REMARK H PARENT 19 24
ROOT
ATOM      1  C   UNL     1     -17.560  18.633  19.798  1.00  0.00     0.409 C 
ATOM      2  O   UNL     1     -18.668  18.479  20.299  1.00  0.00    -0.224 OA
ENDROOT
BRANCH   1   3
ATOM      3  O   UNL     1     -17.051  19.834  19.419  1.00  0.00    -0.449 OA
BRANCH   3   4
ATOM      4  C   UNL     1     -16.732  20.714  20.504  1.00  0.00     0.238 C 
BRANCH   4   5
ATOM      5  C   UNL     1     -15.236  21.059  20.476  1.00  0.00     0.021 C 
ATOM      6  C   UNL     1     -14.426  20.088  21.336  1.00  0.00     0.011 C 
ATOM      7  C   UNL     1     -14.694  21.066  19.046  1.00  0.00     0.011 C 
ENDBRANCH   4   5
ENDBRANCH   3   4
ENDBRANCH   1   3
BRANCH   1   8
ATOM      8  N   UNL     1     -16.686  17.610  19.550  1.00  0.00    -0.306 N 
ATOM      9  C   UNL     1     -16.272  17.144  18.242  1.00  0.00     0.125 C 
ATOM     10  C   UNL     1     -16.088  16.826  20.617  1.00  0.00     0.148 C 
ATOM     11  C   UNL     1     -15.065  16.258  18.515  1.00  0.00     0.048 C 
ATOM     12  C   UNL     1     -15.381  15.667  19.893  1.00  0.00     0.104 C 
BRANCH  12  13
ATOM     13  N   UNL     1     -14.184  15.151  20.566  1.00  0.00    -0.354 N 
ATOM     14  C   UNL     1     -13.409  15.988  21.461  1.00  0.00     0.145 C 
BRANCH  13  15
ATOM     15  C   UNL     1     -13.698  13.910  20.165  1.00  0.00     0.141 A 
ATOM     16  N   UNL     1     -14.585  12.876  20.073  1.00  0.00    -0.219 NA
ATOM     17  C   UNL     1     -12.350  13.611  19.835  1.00  0.00     0.061 A 
ATOM     18  C   UNL     1     -14.169  11.662  19.667  1.00  0.00     0.226 A 
ATOM     19  C   UNL     1     -11.093  14.293  19.815  1.00  0.00     0.033 A 
ATOM     20  C   UNL     1     -12.073  12.310  19.433  1.00  0.00     0.142 A 
ATOM     21  N   UNL     1     -12.933  11.289  19.319  1.00  0.00    -0.218 NA
ATOM     22  C   UNL     1     -10.123  13.409  19.389  1.00  0.00     0.085 A 
ATOM     23  N   UNL     1     -10.737  12.208  19.157  1.00  0.00    -0.346 N 
ATOM     24  H   UNL     1     -10.294  11.356  18.845  1.00  0.00     0.167 HD
ENDBRANCH  13  15
ENDBRANCH  12  13
ENDBRANCH   1   8
TORSDOF 6
ENDMDL
MODEL 8
REMARK VINA RESULT:    -7.209      5.449      8.736
REMARK INTER + INTRA:         -10.361
REMARK INTER:                  -9.491
REMARK INTRA:                  -0.870
REMARK UNBOUND:                -0.624
REMARK SMILES CC(C)COC(=O)N1CC[C@@H](N(C)c2ncnc3[nH]ccc23)C1
REMARK SMILES IDX 6 1 7 2 5 3 4 4 2 5 1 6 3 7 8 8 9 9 23 10 10 11 11 12 12 13
REMARK SMILES IDX 13 14 14 15 15 16 22 17 16 18 21 19 18 20 17 21 20 22 19 23
REMARK H PARENT 19 24
ROOT
ATOM      1  C   UNL     1     -10.086  15.184  20.068  1.00  0.00     0.409 C 
ATOM      2  O   UNL     1      -8.880  14.980  20.128  1.00  0.00    -0.224 OA
ENDROOT
BRANCH   1   3
ATOM      3  O   UNL     1     -11.033  14.218  20.183  1.00  0.00    -0.449 OA
BRANCH   3   4
ATOM      4  C   UNL     1     -10.811  13.066  19.360  1.00  0.00     0.238 C 
BRANCH   4   5
ATOM      5  C   UNL     1     -12.142  12.347  19.094  1.00  0.00     0.021 C 
ATOM      6  C   UNL     1     -12.032  10.849  19.386  1.00  0.00     0.011 C 
ATOM      7  C   UNL     1     -13.277  12.957  19.916  1.00  0.00     0.011 C 
ENDBRANCH   4   5
ENDBRANCH   3   4
ENDBRANCH   1   3
BRANCH   1   8
ATOM      8  N   UNL     1     -10.643  16.419  19.873  1.00  0.00    -0.306 N 
ATOM      9  C   UNL     1      -9.950  17.597  19.389  1.00  0.00     0.125 C 
ATOM     10  C   UNL     1     -12.034  16.701  20.183  1.00  0.00     0.148 C 
ATOM     11  C   UNL     1     -11.060  18.573  19.029  1.00  0.00     0.048 C 
ATOM     12  C   UNL     1     -12.159  18.227  20.039  1.00  0.00     0.104 C 
BRANCH  12  13
ATOM     13  N   UNL     1     -13.479  18.705  19.612  1.00  0.00    -0.354 N 
ATOM     14  C   UNL     1     -13.610  19.808  18.679  1.00  0.00     0.145 C 
BRANCH  13  15
ATOM     15  C   UNL     1     -14.596  18.213  20.281  1.00  0.00     0.141 A 
ATOM     16  N   UNL     1     -14.943  18.802  21.463  1.00  0.00    -0.219 NA
ATOM     17  C   UNL     1     -15.424  17.145  19.845  1.00  0.00     0.061 A 
ATOM     18  C   UNL     1     -16.030  18.378  22.136  1.00  0.00     0.226 A 
ATOM     19  C   UNL     1     -15.462  16.217  18.758  1.00  0.00     0.033 A 
ATOM     20  C   UNL     1     -16.511  16.821  20.649  1.00  0.00     0.142 A 
ATOM     21  N   UNL     1     -16.876  17.399  21.801  1.00  0.00    -0.218 NA
ATOM     22  C   UNL     1     -16.559  15.397  18.923  1.00  0.00     0.085 A 
ATOM     23  N   UNL     1     -17.188  15.779  20.076  1.00  0.00    -0.346 N 
ATOM     24  H   UNL     1     -18.017  15.366  20.476  1.00  0.00     0.167 HD
ENDBRANCH  13  15
ENDBRANCH  12  13
ENDBRANCH   1   8
TORSDOF 6
ENDMDL
MODEL 9
REMARK VINA RESULT:    -7.104      2.191      3.313
REMARK INTER + INTRA:         -10.220
REMARK INTER:                  -9.728
REMARK INTRA:                  -0.491
REMARK UNBOUND:                -0.624
REMARK SMILES CC(C)COC(=O)N1CC[C@@H](N(C)c2ncnc3[nH]ccc23)C1
REMARK SMILES IDX 6 1 7 2 5 3 4 4 2 5 1 6 3 7 8 8 9 9 23 10 10 11 11 12 12 13
REMARK SMILES IDX 13 14 14 15 15 16 22 17 16 18 21 19 18 20 17 21 20 22 19 23
REMARK H PARENT 19 24
ROOT
ATOM      1  C   UNL     1     -21.263  18.714  22.608  1.00  0.00     0.409 C 
ATOM      2  O   UNL     1     -21.538  19.460  23.541  1.00  0.00    -0.224 OA
ENDROOT
BRANCH   1   3
ATOM      3  O   UNL     1     -22.185  18.113  21.811  1.00  0.00    -0.449 OA
BRANCH   3   4
ATOM      4  C   UNL     1     -22.845  18.996  20.895  1.00  0.00     0.238 C 
BRANCH   4   5
ATOM      5  C   UNL     1     -24.280  19.266  21.371  1.00  0.00     0.021 C 
ATOM      6  C   UNL     1     -24.693  18.289  22.473  1.00  0.00     0.011 C 
ATOM      7  C   UNL     1     -24.441  20.705  21.862  1.00  0.00     0.011 C 
ENDBRANCH   4   5
ENDBRANCH   3   4
ENDBRANCH   1   3
BRANCH   1   8
ATOM      8  N   UNL     1     -19.986  18.383  22.246  1.00  0.00    -0.306 N 
ATOM      9  C   UNL     1     -19.094  17.507  22.980  1.00  0.00     0.125 C 
ATOM     10  C   UNL     1     -19.350  18.930  21.060  1.00  0.00     0.148 C 
ATOM     11  C   UNL     1     -17.968  17.203  22.003  1.00  0.00     0.048 C 
ATOM     12  C   UNL     1     -17.882  18.486  21.171  1.00  0.00     0.104 C 
BRANCH  12  13
ATOM     13  N   UNL     1     -17.197  18.276  19.891  1.00  0.00    -0.354 N 
ATOM     14  C   UNL     1     -17.278  17.004  19.199  1.00  0.00     0.145 C 
BRANCH  13  15
ATOM     15  C   UNL     1     -16.305  19.254  19.462  1.00  0.00     0.141 A 
ATOM     16  N   UNL     1     -16.818  20.454  19.059  1.00  0.00    -0.219 NA
ATOM     17  C   UNL     1     -14.892  19.126  19.406  1.00  0.00     0.061 A 
ATOM     18  C   UNL     1     -15.995  21.441  18.659  1.00  0.00     0.226 A 
ATOM     19  C   UNL     1     -13.914  18.113  19.659  1.00  0.00     0.033 A 
ATOM     20  C   UNL     1     -14.175  20.234  18.970  1.00  0.00     0.142 A 
ATOM     21  N   UNL     1     -14.660  21.423  18.588  1.00  0.00    -0.218 NA
ATOM     22  C   UNL     1     -12.665  18.637  19.397  1.00  0.00     0.085 A 
ATOM     23  N   UNL     1     -12.841  19.929  18.982  1.00  0.00    -0.346 N 
ATOM     24  H   UNL     1     -12.118  20.577  18.706  1.00  0.00     0.167 HD
ENDBRANCH  13  15
ENDBRANCH  12  13
ENDBRANCH   1   8
TORSDOF 6
ENDMDL
