MODEL 1
REMARK VINA RESULT:   -10.871      0.000      0.000
REMARK INTER + INTRA:         -19.764
REMARK INTER:                 -18.179
REMARK INTRA:                  -1.585
REMARK UNBOUND:                -1.585
REMARK SMILES CCCc1c(OCCCSc2ccc(CC(=O)O)cc2Cl)ccc2c(-c3ccccc3)noc12
REMARK SMILES IDX 8 1 7 2 6 3 5 4 4 5 34 6 22 7 33 8 24 9 23 10 32 11 25 12
REMARK SMILES IDX 3 13 2 14 1 15 26 16 27 17 31 18 28 19 30 20 29 21 9 22
REMARK SMILES IDX 10 23 11 24 12 25 20 26 13 27 19 28 14 29 21 30 15 31 16 32
REMARK SMILES IDX 17 33 18 34
REMARK H PARENT 18 35
ROOT
ATOM      1  C   UNL     1      46.518   1.851 130.870  1.00  0.00     0.053 C 
ENDROOT
BRANCH   1   2
ATOM      2  C   UNL     1      46.066   2.648 132.094  1.00  0.00     0.230 C 
BRANCH   2   3
ATOM      3  O   UNL     1      44.652   2.510 132.231  1.00  0.00    -0.493 OA
BRANCH   3   4
ATOM      4  C   UNL     1      44.147   2.292 133.490  1.00  0.00     0.126 A 
ATOM      5  C   UNL     1      43.164   1.279 133.570  1.00  0.00     0.040 A 
ATOM      6  C   UNL     1      42.640   1.055 134.851  1.00  0.00     0.174 A 
ATOM      7  C   UNL     1      44.537   3.009 134.629  1.00  0.00     0.048 A 
ATOM      8  O   UNL     1      41.684   0.140 135.170  1.00  0.00    -0.355 OA
ATOM      9  C   UNL     1      43.013   1.730 135.997  1.00  0.00     0.050 A 
ATOM     10  C   UNL     1      43.980   2.743 135.889  1.00  0.00     0.018 A 
ATOM     11  N   UNL     1      41.407   0.200 136.520  1.00  0.00    -0.079 NA
ATOM     12  C   UNL     1      42.217   1.144 137.030  1.00  0.00     0.121 A 
BRANCH   5  13
ATOM     13  C   UNL     1      42.728   0.481 132.369  1.00  0.00     0.043 C 
BRANCH  13  14
ATOM     14  C   UNL     1      43.490  -0.837 132.196  1.00  0.00     0.002 C 
ATOM     15  C   UNL     1      44.104  -1.003 130.813  1.00  0.00     0.004 C 
ENDBRANCH  13  14
ENDBRANCH   5  13
BRANCH  12  16
ATOM     16  C   UNL     1      42.199   1.458 138.456  1.00  0.00     0.004 A 
ATOM     17  C   UNL     1      43.137   2.352 138.993  1.00  0.00     0.010 A 
ATOM     18  C   UNL     1      41.243   0.887 139.308  1.00  0.00     0.010 A 
ATOM     19  C   UNL     1      43.130   2.654 140.356  1.00  0.00     0.001 A 
ATOM     20  C   UNL     1      41.238   1.192 140.672  1.00  0.00     0.001 A 
ATOM     21  C   UNL     1      42.182   2.073 141.194  1.00  0.00     0.000 A 
ENDBRANCH  12  16
ENDBRANCH   3   4
ENDBRANCH   2   3
ENDBRANCH   1   2
BRANCH   1  22
ATOM     22  C   UNL     1      47.906   1.222 131.007  1.00  0.00     0.078 C 
BRANCH  22  23
ATOM     23  S   UNL     1      48.407   0.895 132.736  1.00  0.00    -0.124 SA
BRANCH  23  24
ATOM     24  C   UNL     1      48.510  -0.893 132.697  1.00  0.00     0.026 A 
ATOM     25  C   UNL     1      47.754  -1.573 131.732  1.00  0.00     0.017 A 
ATOM     26  C   UNL     1      49.284  -1.642 133.597  1.00  0.00     0.054 A 
ATOM     27  C   UNL     1      47.782  -2.969 131.650  1.00  0.00     0.005 A 
ATOM     28  C   UNL     1      49.311  -3.040 133.514  1.00  0.00     0.026 A 
ATOM     29  C   UNL     1      48.558  -3.715 132.543  1.00  0.00    -0.035 A 
ATOM     30  Cl  UNL     1      50.250  -0.906 134.831  1.00  0.00    -0.083 Cl
BRANCH  29  31
ATOM     31  C   UNL     1      48.610  -5.222 132.442  1.00  0.00     0.158 C 
BRANCH  31  32
ATOM     32  C   UNL     1      49.169  -5.723 131.134  1.00  0.00     0.307 C 
ATOM     33  O   UNL     1      48.724  -6.597 130.408  1.00  0.00    -0.252 OA
BRANCH  32  34
ATOM     34  O   UNL     1      50.301  -5.072 130.790  1.00  0.00    -0.481 OA
ATOM     35  H   UNL     1      50.908  -5.236 131.542  1.00  0.00     0.296 HD
ENDBRANCH  32  34
ENDBRANCH  31  32
ENDBRANCH  29  31
ENDBRANCH  23  24
ENDBRANCH  22  23
ENDBRANCH   1  22
TORSDOF 12
ENDMDL
MODEL 2
REMARK VINA RESULT:    -9.709      2.704      3.397
REMARK INTER + INTRA:         -17.821
REMARK INTER:                 -16.519
REMARK INTRA:                  -1.302
REMARK UNBOUND:                -1.585
REMARK SMILES CCCc1c(OCCCSc2ccc(CC(=O)O)cc2Cl)ccc2c(-c3ccccc3)noc12
REMARK SMILES IDX 8 1 7 2 6 3 5 4 4 5 34 6 22 7 33 8 24 9 23 10 32 11 25 12
REMARK SMILES IDX 3 13 2 14 1 15 26 16 27 17 31 18 28 19 30 20 29 21 9 22
REMARK SMILES IDX 10 23 11 24 12 25 20 26 13 27 19 28 14 29 21 30 15 31 16 32
REMARK SMILES IDX 17 33 18 34
REMARK H PARENT 18 35
ROOT
ATOM      1  C   UNL     1      46.361   1.359 130.848  1.00  0.00     0.053 C 
ENDROOT
BRANCH   1   2
ATOM      2  C   UNL     1      45.969   2.415 131.883  1.00  0.00     0.230 C 
BRANCH   2   3
ATOM      3  O   UNL     1      44.554   2.376 132.061  1.00  0.00    -0.493 OA
BRANCH   3   4
ATOM      4  C   UNL     1      44.071   2.189 133.333  1.00  0.00     0.126 A 
ATOM      5  C   UNL     1      43.054   1.213 133.447  1.00  0.00     0.040 A 
ATOM      6  C   UNL     1      42.552   1.021 134.742  1.00  0.00     0.174 A 
ATOM      7  C   UNL     1      44.514   2.903 134.455  1.00  0.00     0.048 A 
ATOM      8  O   UNL     1      41.572   0.145 135.093  1.00  0.00    -0.355 OA
ATOM      9  C   UNL     1      42.976   1.694 135.872  1.00  0.00     0.050 A 
ATOM     10  C   UNL     1      43.977   2.669 135.731  1.00  0.00     0.018 A 
ATOM     11  N   UNL     1      41.329   0.228 136.448  1.00  0.00    -0.079 NA
ATOM     12  C   UNL     1      42.184   1.147 136.929  1.00  0.00     0.121 A 
BRANCH   5  13
ATOM     13  C   UNL     1      42.561   0.420 132.265  1.00  0.00     0.043 C 
BRANCH  13  14
ATOM     14  C   UNL     1      43.195  -0.970 132.149  1.00  0.00     0.002 C 
ATOM     15  C   UNL     1      42.834  -1.693 130.858  1.00  0.00     0.004 C 
ENDBRANCH  13  14
ENDBRANCH   5  13
BRANCH  12  16
ATOM     16  C   UNL     1      42.211   1.475 138.352  1.00  0.00     0.004 A 
ATOM     17  C   UNL     1      43.150   2.394 138.846  1.00  0.00     0.010 A 
ATOM     18  C   UNL     1      41.299   0.895 139.243  1.00  0.00     0.010 A 
ATOM     19  C   UNL     1      43.186   2.711 140.205  1.00  0.00     0.001 A 
ATOM     20  C   UNL     1      41.336   1.214 140.604  1.00  0.00     0.001 A 
ATOM     21  C   UNL     1      42.281   2.119 141.083  1.00  0.00     0.000 A 
ENDBRANCH  12  16
ENDBRANCH   3   4
ENDBRANCH   2   3
ENDBRANCH   1   2
BRANCH   1  22
ATOM     22  C   UNL     1      46.253  -0.082 131.349  1.00  0.00     0.078 C 
BRANCH  22  23
ATOM     23  S   UNL     1      47.725  -1.107 130.990  1.00  0.00    -0.124 SA
BRANCH  23  24
ATOM     24  C   UNL     1      48.602  -0.947 132.544  1.00  0.00     0.026 A 
ATOM     25  C   UNL     1      48.727   0.335 133.098  1.00  0.00     0.017 A 
ATOM     26  C   UNL     1      49.190  -2.031 133.215  1.00  0.00     0.054 A 
ATOM     27  C   UNL     1      49.405   0.532 134.305  1.00  0.00     0.005 A 
ATOM     28  C   UNL     1      49.869  -1.831 134.424  1.00  0.00     0.026 A 
ATOM     29  C   UNL     1      49.985  -0.549 134.977  1.00  0.00    -0.035 A 
ATOM     30  Cl  UNL     1      49.102  -3.654 132.618  1.00  0.00    -0.083 Cl
BRANCH  29  31
ATOM     31  C   UNL     1      50.698  -0.342 136.293  1.00  0.00     0.158 C 
BRANCH  31  32
ATOM     32  C   UNL     1      49.950   0.549 137.254  1.00  0.00     0.307 C 
ATOM     33  O   UNL     1      48.828   0.397 137.706  1.00  0.00    -0.252 OA
BRANCH  32  34
ATOM     34  O   UNL     1      50.683   1.625 137.615  1.00  0.00    -0.481 OA
ATOM     35  H   UNL     1      50.555   1.685 138.585  1.00  0.00     0.296 HD
ENDBRANCH  32  34
ENDBRANCH  31  32
ENDBRANCH  29  31
ENDBRANCH  23  24
ENDBRANCH  22  23
ENDBRANCH   1  22
TORSDOF 12
ENDMDL
MODEL 3
REMARK VINA RESULT:    -9.542      1.693      2.732
REMARK INTER + INTRA:         -17.542
REMARK INTER:                 -16.357
REMARK INTRA:                  -1.185
REMARK UNBOUND:                -1.585
REMARK SMILES CCCc1c(OCCCSc2ccc(CC(=O)O)cc2Cl)ccc2c(-c3ccccc3)noc12
REMARK SMILES IDX 8 1 7 2 6 3 5 4 4 5 34 6 22 7 33 8 24 9 23 10 32 11 25 12
REMARK SMILES IDX 3 13 2 14 1 15 26 16 27 17 31 18 28 19 30 20 29 21 9 22
REMARK SMILES IDX 10 23 11 24 12 25 20 26 13 27 19 28 14 29 21 30 15 31 16 32
REMARK SMILES IDX 17 33 18 34
REMARK H PARENT 18 35
ROOT
ATOM      1  C   UNL     1      43.931  -0.703 131.095  1.00  0.00     0.053 C 
ENDROOT
BRANCH   1   2
ATOM      2  C   UNL     1      42.520  -0.284 131.509  1.00  0.00     0.230 C 
BRANCH   2   3
ATOM      3  O   UNL     1      42.562   1.063 131.976  1.00  0.00    -0.493 OA
BRANCH   3   4
ATOM      4  C   UNL     1      42.615   1.272 133.334  1.00  0.00     0.126 A 
ATOM      5  C   UNL     1      43.646   2.138 133.764  1.00  0.00     0.040 A 
ATOM      6  C   UNL     1      43.709   2.351 135.148  1.00  0.00     0.174 A 
ATOM      7  C   UNL     1      41.743   0.676 134.255  1.00  0.00     0.048 A 
ATOM      8  O   UNL     1      44.616   3.137 135.791  1.00  0.00    -0.355 OA
ATOM      9  C   UNL     1      42.857   1.795 136.082  1.00  0.00     0.050 A 
ATOM     10  C   UNL     1      41.850   0.926 135.632  1.00  0.00     0.018 A 
ATOM     11  N   UNL     1      44.383   3.107 137.150  1.00  0.00    -0.079 NA
ATOM     12  C   UNL     1      43.313   2.315 137.333  1.00  0.00     0.121 A 
BRANCH   5  13
ATOM     13  C   UNL     1      44.595   2.804 132.801  1.00  0.00     0.043 C 
BRANCH  13  14
ATOM     14  C   UNL     1      44.139   4.194 132.350  1.00  0.00     0.002 C 
ATOM     15  C   UNL     1      45.212   4.967 131.595  1.00  0.00     0.004 C 
ENDBRANCH  13  14
ENDBRANCH   5  13
BRANCH  12  16
ATOM     16  C   UNL     1      42.776   2.075 138.671  1.00  0.00     0.004 A 
ATOM     17  C   UNL     1      43.281   2.785 139.770  1.00  0.00     0.010 A 
ATOM     18  C   UNL     1      41.745   1.149 138.878  1.00  0.00     0.010 A 
ATOM     19  C   UNL     1      42.777   2.559 141.053  1.00  0.00     0.001 A 
ATOM     20  C   UNL     1      41.241   0.926 140.162  1.00  0.00     0.001 A 
ATOM     21  C   UNL     1      41.759   1.629 141.248  1.00  0.00     0.000 A 
ENDBRANCH  12  16
ENDBRANCH   3   4
ENDBRANCH   2   3
ENDBRANCH   1   2
BRANCH   1  22
ATOM     22  C   UNL     1      44.519   0.120 129.947  1.00  0.00     0.078 C 
BRANCH  22  23
ATOM     23  S   UNL     1      46.081   0.975 130.368  1.00  0.00    -0.124 SA
BRANCH  23  24
ATOM     24  C   UNL     1      47.017  -0.399 131.036  1.00  0.00     0.026 A 
ATOM     25  C   UNL     1      47.008  -1.607 130.324  1.00  0.00     0.017 A 
ATOM     26  C   UNL     1      47.731  -0.334 132.243  1.00  0.00     0.054 A 
ATOM     27  C   UNL     1      47.712  -2.721 130.792  1.00  0.00     0.005 A 
ATOM     28  C   UNL     1      48.434  -1.451 132.711  1.00  0.00     0.026 A 
ATOM     29  C   UNL     1      48.428  -2.654 131.992  1.00  0.00    -0.035 A 
ATOM     30  Cl  UNL     1      47.804   1.105 133.204  1.00  0.00    -0.083 Cl
BRANCH  29  31
ATOM     31  C   UNL     1      49.209  -3.849 132.488  1.00  0.00     0.158 C 
BRANCH  31  32
ATOM     32  C   UNL     1      49.244  -4.998 131.511  1.00  0.00     0.307 C 
ATOM     33  O   UNL     1      49.938  -5.121 130.517  1.00  0.00    -0.252 OA
BRANCH  32  34
ATOM     34  O   UNL     1      48.372  -5.973 131.851  1.00  0.00    -0.481 OA
ATOM     35  H   UNL     1      48.599  -6.180 132.782  1.00  0.00     0.296 HD
ENDBRANCH  32  34
ENDBRANCH  31  32
ENDBRANCH  29  31
ENDBRANCH  23  24
ENDBRANCH  22  23
ENDBRANCH   1  22
TORSDOF 12
ENDMDL
MODEL 4
REMARK VINA RESULT:    -9.447      2.861      4.004
REMARK INTER + INTRA:         -17.383
REMARK INTER:                 -15.474
REMARK INTRA:                  -1.909
REMARK UNBOUND:                -1.585
REMARK SMILES CCCc1c(OCCCSc2ccc(CC(=O)O)cc2Cl)ccc2c(-c3ccccc3)noc12
REMARK SMILES IDX 8 1 7 2 6 3 5 4 4 5 34 6 22 7 33 8 24 9 23 10 32 11 25 12
REMARK SMILES IDX 3 13 2 14 1 15 26 16 27 17 31 18 28 19 30 20 29 21 9 22
REMARK SMILES IDX 10 23 11 24 12 25 20 26 13 27 19 28 14 29 21 30 15 31 16 32
REMARK SMILES IDX 17 33 18 34
REMARK H PARENT 18 35
ROOT
ATOM      1  C   UNL     1      44.921  -0.643 130.697  1.00  0.00     0.053 C 
ENDROOT
BRANCH   1   2
ATOM      2  C   UNL     1      43.476  -0.534 131.186  1.00  0.00     0.230 C 
BRANCH   2   3
ATOM      3  O   UNL     1      43.240   0.806 131.615  1.00  0.00    -0.493 OA
BRANCH   3   4
ATOM      4  C   UNL     1      43.138   1.041 132.965  1.00  0.00     0.126 A 
ATOM      5  C   UNL     1      43.934   2.105 133.447  1.00  0.00     0.040 A 
ATOM      6  C   UNL     1      43.839   2.346 134.825  1.00  0.00     0.174 A 
ATOM      7  C   UNL     1      42.331   0.293 133.834  1.00  0.00     0.048 A 
ATOM      8  O   UNL     1      44.513   3.309 135.511  1.00  0.00    -0.355 OA
ATOM      9  C   UNL     1      43.043   1.641 135.707  1.00  0.00     0.050 A 
ATOM     10  C   UNL     1      42.273   0.579 135.207  1.00  0.00     0.018 A 
ATOM     11  N   UNL     1      44.181   3.252 136.849  1.00  0.00    -0.079 NA
ATOM     12  C   UNL     1      43.281   2.261 136.973  1.00  0.00     0.121 A 
BRANCH   5  13
ATOM     13  C   UNL     1      44.805   2.936 132.540  1.00  0.00     0.043 C 
BRANCH  13  14
ATOM     14  C   UNL     1      46.260   2.461 132.480  1.00  0.00     0.002 C 
ATOM     15  C   UNL     1      46.823   2.418 131.066  1.00  0.00     0.004 C 
ENDBRANCH  13  14
ENDBRANCH   5  13
BRANCH  12  16
ATOM     16  C   UNL     1      42.696   1.936 138.271  1.00  0.00     0.004 A 
ATOM     17  C   UNL     1      43.237   2.483 139.445  1.00  0.00     0.010 A 
ATOM     18  C   UNL     1      41.583   1.090 138.369  1.00  0.00     0.010 A 
ATOM     19  C   UNL     1      42.687   2.174 140.690  1.00  0.00     0.001 A 
ATOM     20  C   UNL     1      41.033   0.784 139.617  1.00  0.00     0.001 A 
ATOM     21  C   UNL     1      41.587   1.324 140.775  1.00  0.00     0.000 A 
ENDBRANCH  12  16
ENDBRANCH   3   4
ENDBRANCH   2   3
ENDBRANCH   1   2
BRANCH   1  22
ATOM     22  C   UNL     1      45.908  -1.133 131.758  1.00  0.00     0.078 C 
BRANCH  22  23
ATOM     23  S   UNL     1      47.608  -1.387 131.131  1.00  0.00    -0.124 SA
BRANCH  23  24
ATOM     24  C   UNL     1      48.538  -1.131 132.641  1.00  0.00     0.026 A 
ATOM     25  C   UNL     1      48.769   0.189 133.053  1.00  0.00     0.017 A 
ATOM     26  C   UNL     1      49.065  -2.179 133.411  1.00  0.00     0.054 A 
ATOM     27  C   UNL     1      49.493   0.461 134.218  1.00  0.00     0.005 A 
ATOM     28  C   UNL     1      49.790  -1.905 134.577  1.00  0.00     0.026 A 
ATOM     29  C   UNL     1      50.013  -0.584 134.989  1.00  0.00    -0.035 A 
ATOM     30  Cl  UNL     1      48.845  -3.845 132.991  1.00  0.00    -0.083 Cl
BRANCH  29  31
ATOM     31  C   UNL     1      50.775  -0.295 136.261  1.00  0.00     0.158 C 
BRANCH  31  32
ATOM     32  C   UNL     1      49.996   0.521 137.263  1.00  0.00     0.307 C 
ATOM     33  O   UNL     1      48.878   0.310 137.701  1.00  0.00    -0.252 OA
BRANCH  32  34
ATOM     34  O   UNL     1      50.691   1.601 137.680  1.00  0.00    -0.481 OA
ATOM     35  H   UNL     1      50.645   2.221 136.921  1.00  0.00     0.296 HD
ENDBRANCH  32  34
ENDBRANCH  31  32
ENDBRANCH  29  31
ENDBRANCH  23  24
ENDBRANCH  22  23
ENDBRANCH   1  22
TORSDOF 12
ENDMDL
MODEL 5
REMARK VINA RESULT:    -9.117      4.973      7.953
REMARK INTER + INTRA:         -16.831
REMARK INTER:                 -15.552
REMARK INTRA:                  -1.279
REMARK UNBOUND:                -1.585
REMARK SMILES CCCc1c(OCCCSc2ccc(CC(=O)O)cc2Cl)ccc2c(-c3ccccc3)noc12
REMARK SMILES IDX 8 1 7 2 6 3 5 4 4 5 34 6 22 7 33 8 24 9 23 10 32 11 25 12
REMARK SMILES IDX 3 13 2 14 1 15 26 16 27 17 31 18 28 19 30 20 29 21 9 22
REMARK SMILES IDX 10 23 11 24 12 25 20 26 13 27 19 28 14 29 21 30 15 31 16 32
REMARK SMILES IDX 17 33 18 34
REMARK H PARENT 18 35
ROOT
ATOM      1  C   UNL     1      42.698  -0.503 130.138  1.00  0.00     0.053 C 
ENDROOT
BRANCH   1   2
ATOM      2  C   UNL     1      42.864  -0.448 131.658  1.00  0.00     0.230 C 
BRANCH   2   3
ATOM      3  O   UNL     1      42.510   0.858 132.108  1.00  0.00    -0.493 OA
BRANCH   3   4
ATOM      4  C   UNL     1      42.561   1.108 133.459  1.00  0.00     0.126 A 
ATOM      5  C   UNL     1      43.560   2.025 133.858  1.00  0.00     0.040 A 
ATOM      6  C   UNL     1      43.621   2.281 135.235  1.00  0.00     0.174 A 
ATOM      7  C   UNL     1      41.716   0.507 134.402  1.00  0.00     0.048 A 
ATOM      8  O   UNL     1      44.500   3.118 135.849  1.00  0.00    -0.355 OA
ATOM      9  C   UNL     1      42.795   1.720 136.190  1.00  0.00     0.050 A 
ATOM     10  C   UNL     1      41.820   0.800 135.771  1.00  0.00     0.018 A 
ATOM     11  N   UNL     1      44.275   3.120 137.210  1.00  0.00    -0.079 NA
ATOM     12  C   UNL     1      43.237   2.293 137.422  1.00  0.00     0.121 A 
BRANCH   5  13
ATOM     13  C   UNL     1      44.478   2.698 132.870  1.00  0.00     0.043 C 
BRANCH  13  14
ATOM     14  C   UNL     1      45.805   1.961 132.663  1.00  0.00     0.002 C 
ATOM     15  C   UNL     1      46.513   2.343 131.370  1.00  0.00     0.004 C 
ENDBRANCH  13  14
ENDBRANCH   5  13
BRANCH  12  16
ATOM     16  C   UNL     1      42.716   2.072 138.769  1.00  0.00     0.004 A 
ATOM     17  C   UNL     1      43.205   2.826 139.846  1.00  0.00     0.010 A 
ATOM     18  C   UNL     1      41.716   1.121 139.008  1.00  0.00     0.010 A 
ATOM     19  C   UNL     1      42.716   2.619 141.138  1.00  0.00     0.001 A 
ATOM     20  C   UNL     1      41.227   0.916 140.301  1.00  0.00     0.001 A 
ATOM     21  C   UNL     1      41.729   1.663 141.364  1.00  0.00     0.000 A 
ENDBRANCH  12  16
ENDBRANCH   3   4
ENDBRANCH   2   3
ENDBRANCH   1   2
BRANCH   1  22
ATOM     22  C   UNL     1      41.466  -1.279 129.668  1.00  0.00     0.078 C 
BRANCH  22  23
ATOM     23  S   UNL     1      40.313  -0.295 128.644  1.00  0.00    -0.124 SA
BRANCH  23  24
ATOM     24  C   UNL     1      38.813  -0.472 129.609  1.00  0.00     0.026 A 
ATOM     25  C   UNL     1      38.866  -0.142 130.970  1.00  0.00     0.017 A 
ATOM     26  C   UNL     1      37.604  -0.947 129.077  1.00  0.00     0.054 A 
ATOM     27  C   UNL     1      37.734  -0.263 131.782  1.00  0.00     0.005 A 
ATOM     28  C   UNL     1      36.472  -1.069 129.892  1.00  0.00     0.026 A 
ATOM     29  C   UNL     1      36.527  -0.731 131.251  1.00  0.00    -0.035 A 
ATOM     30  Cl  UNL     1      37.429  -1.389 127.412  1.00  0.00    -0.083 Cl
BRANCH  29  31
ATOM     31  C   UNL     1      35.297  -0.841 132.120  1.00  0.00     0.158 C 
BRANCH  31  32
ATOM     32  C   UNL     1      35.582  -1.344 133.514  1.00  0.00     0.307 C 
ATOM     33  O   UNL     1      35.567  -0.718 134.560  1.00  0.00    -0.252 OA
BRANCH  32  34
ATOM     34  O   UNL     1      35.879  -2.662 133.520  1.00  0.00    -0.481 OA
ATOM     35  H   UNL     1      35.121  -3.078 133.058  1.00  0.00     0.296 HD
ENDBRANCH  32  34
ENDBRANCH  31  32
ENDBRANCH  29  31
ENDBRANCH  23  24
ENDBRANCH  22  23
ENDBRANCH   1  22
TORSDOF 12
ENDMDL
MODEL 6
REMARK VINA RESULT:    -8.774      5.823      9.567
REMARK INTER + INTRA:         -16.258
REMARK INTER:                 -14.998
REMARK INTRA:                  -1.260
REMARK UNBOUND:                -1.585
REMARK SMILES CCCc1c(OCCCSc2ccc(CC(=O)O)cc2Cl)ccc2c(-c3ccccc3)noc12
REMARK SMILES IDX 8 1 7 2 6 3 5 4 4 5 34 6 22 7 33 8 24 9 23 10 32 11 25 12
REMARK SMILES IDX 3 13 2 14 1 15 26 16 27 17 31 18 28 19 30 20 29 21 9 22
REMARK SMILES IDX 10 23 11 24 12 25 20 26 13 27 19 28 14 29 21 30 15 31 16 32
REMARK SMILES IDX 17 33 18 34
REMARK H PARENT 18 35
ROOT
ATOM      1  C   UNL     1      37.824   0.125 134.066  1.00  0.00     0.053 C 
ENDROOT
BRANCH   1   2
ATOM      2  C   UNL     1      39.117   0.915 133.859  1.00  0.00     0.230 C 
BRANCH   2   3
ATOM      3  O   UNL     1      39.584   0.684 132.530  1.00  0.00    -0.493 OA
BRANCH   3   4
ATOM      4  C   UNL     1      40.942   0.675 132.319  1.00  0.00     0.126 A 
ATOM      5  C   UNL     1      41.351   0.082 131.102  1.00  0.00     0.040 A 
ATOM      6  C   UNL     1      42.735   0.064 130.882  1.00  0.00     0.174 A 
ATOM      7  C   UNL     1      41.882   1.187 133.223  1.00  0.00     0.048 A 
ATOM      8  O   UNL     1      43.360  -0.456 129.790  1.00  0.00    -0.355 OA
ATOM      9  C   UNL     1      43.688   0.574 131.742  1.00  0.00     0.050 A 
ATOM     10  C   UNL     1      43.258   1.144 132.951  1.00  0.00     0.018 A 
ATOM     11  N   UNL     1      44.725  -0.305 129.913  1.00  0.00    -0.079 NA
ATOM     12  C   UNL     1      44.931   0.331 131.079  1.00  0.00     0.121 A 
BRANCH   5  13
ATOM     13  C   UNL     1      40.367  -0.469 130.102  1.00  0.00     0.043 C 
BRANCH  13  14
ATOM     14  C   UNL     1      40.130   0.452 128.901  1.00  0.00     0.002 C 
ATOM     15  C   UNL     1      40.136  -0.281 127.567  1.00  0.00     0.004 C 
ENDBRANCH  13  14
ENDBRANCH   5  13
BRANCH  12  16
ATOM     16  C   UNL     1      46.282   0.672 131.520  1.00  0.00     0.004 A 
ATOM     17  C   UNL     1      46.844   1.910 131.176  1.00  0.00     0.010 A 
ATOM     18  C   UNL     1      47.030  -0.218 132.302  1.00  0.00     0.010 A 
ATOM     19  C   UNL     1      48.136   2.242 131.589  1.00  0.00     0.001 A 
ATOM     20  C   UNL     1      48.323   0.117 132.716  1.00  0.00     0.001 A 
ATOM     21  C   UNL     1      48.874   1.345 132.357  1.00  0.00     0.000 A 
ENDBRANCH  12  16
ENDBRANCH   3   4
ENDBRANCH   2   3
ENDBRANCH   1   2
BRANCH   1  22
ATOM     22  C   UNL     1      36.892   0.115 132.853  1.00  0.00     0.078 C 
BRANCH  22  23
ATOM     23  S   UNL     1      35.372  -0.876 133.091  1.00  0.00    -0.124 SA
BRANCH  23  24
ATOM     24  C   UNL     1      36.052  -2.280 133.973  1.00  0.00     0.026 A 
ATOM     25  C   UNL     1      35.985  -2.271 135.373  1.00  0.00     0.017 A 
ATOM     26  C   UNL     1      36.669  -3.368 133.335  1.00  0.00     0.054 A 
ATOM     27  C   UNL     1      36.502  -3.331 136.124  1.00  0.00     0.005 A 
ATOM     28  C   UNL     1      37.187  -4.429 134.089  1.00  0.00     0.026 A 
ATOM     29  C   UNL     1      37.111  -4.418 135.489  1.00  0.00    -0.035 A 
ATOM     30  Cl  UNL     1      36.813  -3.479 131.613  1.00  0.00    -0.083 Cl
BRANCH  29  31
ATOM     31  C   UNL     1      37.650  -5.576 136.295  1.00  0.00     0.158 C 
BRANCH  31  32
ATOM     32  C   UNL     1      37.860  -5.253 137.754  1.00  0.00     0.307 C 
ATOM     33  O   UNL     1      37.158  -5.559 138.703  1.00  0.00    -0.252 OA
BRANCH  32  34
ATOM     34  O   UNL     1      38.988  -4.536 137.952  1.00  0.00    -0.481 OA
ATOM     35  H   UNL     1      39.444  -5.007 138.681  1.00  0.00     0.296 HD
ENDBRANCH  32  34
ENDBRANCH  31  32
ENDBRANCH  29  31
ENDBRANCH  23  24
ENDBRANCH  22  23
ENDBRANCH   1  22
TORSDOF 12
ENDMDL
MODEL 7
REMARK VINA RESULT:    -8.649      5.285      7.971
REMARK INTER + INTRA:         -16.048
REMARK INTER:                 -14.848
REMARK INTRA:                  -1.200
REMARK UNBOUND:                -1.585
REMARK SMILES CCCc1c(OCCCSc2ccc(CC(=O)O)cc2Cl)ccc2c(-c3ccccc3)noc12
REMARK SMILES IDX 8 1 7 2 6 3 5 4 4 5 34 6 22 7 33 8 24 9 23 10 32 11 25 12
REMARK SMILES IDX 3 13 2 14 1 15 26 16 27 17 31 18 28 19 30 20 29 21 9 22
REMARK SMILES IDX 10 23 11 24 12 25 20 26 13 27 19 28 14 29 21 30 15 31 16 32
REMARK SMILES IDX 17 33 18 34
REMARK H PARENT 18 35
ROOT
ATOM      1  C   UNL     1      39.535  -0.255 131.117  1.00  0.00     0.053 C 
ENDROOT
BRANCH   1   2
ATOM      2  C   UNL     1      40.414   0.973 131.353  1.00  0.00     0.230 C 
BRANCH   2   3
ATOM      3  O   UNL     1      41.643   0.549 131.939  1.00  0.00    -0.493 OA
BRANCH   3   4
ATOM      4  C   UNL     1      41.868   0.861 133.259  1.00  0.00     0.126 A 
ATOM      5  C   UNL     1      43.048   1.600 133.504  1.00  0.00     0.040 A 
ATOM      6  C   UNL     1      43.286   1.917 134.848  1.00  0.00     0.174 A 
ATOM      7  C   UNL     1      41.025   0.479 134.311  1.00  0.00     0.048 A 
ATOM      8  O   UNL     1      44.355   2.613 135.324  1.00  0.00    -0.355 OA
ATOM      9  C   UNL     1      42.470   1.572 135.908  1.00  0.00     0.050 A 
ATOM     10  C   UNL     1      41.311   0.825 135.641  1.00  0.00     0.018 A 
ATOM     11  N   UNL     1      44.266   2.732 136.695  1.00  0.00    -0.079 NA
ATOM     12  C   UNL     1      43.123   2.123 137.054  1.00  0.00     0.121 A 
BRANCH   5  13
ATOM     13  C   UNL     1      43.972   2.036 132.396  1.00  0.00     0.043 C 
BRANCH  13  14
ATOM     14  C   UNL     1      45.083   1.028 132.088  1.00  0.00     0.002 C 
ATOM     15  C   UNL     1      44.978   0.419 130.696  1.00  0.00     0.004 C 
ENDBRANCH  13  14
ENDBRANCH   5  13
BRANCH  12  16
ATOM     16  C   UNL     1      42.704   2.078 138.452  1.00  0.00     0.004 A 
ATOM     17  C   UNL     1      43.385   2.834 139.417  1.00  0.00     0.010 A 
ATOM     18  C   UNL     1      41.612   1.295 138.852  1.00  0.00     0.010 A 
ATOM     19  C   UNL     1      42.994   2.794 140.757  1.00  0.00     0.001 A 
ATOM     20  C   UNL     1      41.222   1.257 140.194  1.00  0.00     0.001 A 
ATOM     21  C   UNL     1      41.914   2.004 141.144  1.00  0.00     0.000 A 
ENDBRANCH  12  16
ENDBRANCH   3   4
ENDBRANCH   2   3
ENDBRANCH   1   2
BRANCH   1  22
ATOM     22  C   UNL     1      38.952  -0.350 129.706  1.00  0.00     0.078 C 
BRANCH  22  23
ATOM     23  S   UNL     1      37.123  -0.369 129.656  1.00  0.00    -0.124 SA
BRANCH  23  24
ATOM     24  C   UNL     1      36.786  -1.465 131.033  1.00  0.00     0.026 A 
ATOM     25  C   UNL     1      36.987  -2.839 130.843  1.00  0.00     0.017 A 
ATOM     26  C   UNL     1      36.308  -1.020 132.276  1.00  0.00     0.054 A 
ATOM     27  C   UNL     1      36.737  -3.751 131.873  1.00  0.00     0.005 A 
ATOM     28  C   UNL     1      36.058  -1.935 133.307  1.00  0.00     0.026 A 
ATOM     29  C   UNL     1      36.267  -3.307 133.113  1.00  0.00    -0.035 A 
ATOM     30  Cl  UNL     1      36.019   0.653 132.617  1.00  0.00    -0.083 Cl
BRANCH  29  31
ATOM     31  C   UNL     1      36.018  -4.287 134.236  1.00  0.00     0.158 C 
BRANCH  31  32
ATOM     32  C   UNL     1      37.208  -4.484 135.143  1.00  0.00     0.307 C 
ATOM     33  O   UNL     1      37.883  -3.634 135.698  1.00  0.00    -0.252 OA
BRANCH  32  34
ATOM     34  O   UNL     1      37.498  -5.793 135.314  1.00  0.00    -0.481 OA
ATOM     35  H   UNL     1      37.008  -6.040 136.126  1.00  0.00     0.296 HD
ENDBRANCH  32  34
ENDBRANCH  31  32
ENDBRANCH  29  31
ENDBRANCH  23  24
ENDBRANCH  22  23
ENDBRANCH   1  22
TORSDOF 12
ENDMDL
MODEL 8
REMARK VINA RESULT:    -8.509      6.103      9.841
REMARK INTER + INTRA:         -15.814
REMARK INTER:                 -14.851
REMARK INTRA:                  -0.963
REMARK UNBOUND:                -1.585
REMARK SMILES CCCc1c(OCCCSc2ccc(CC(=O)O)cc2Cl)ccc2c(-c3ccccc3)noc12
REMARK SMILES IDX 8 1 7 2 6 3 5 4 4 5 34 6 22 7 33 8 24 9 23 10 32 11 25 12
REMARK SMILES IDX 3 13 2 14 1 15 26 16 27 17 31 18 28 19 30 20 29 21 9 22
REMARK SMILES IDX 10 23 11 24 12 25 20 26 13 27 19 28 14 29 21 30 15 31 16 32
REMARK SMILES IDX 17 33 18 34
REMARK H PARENT 18 35
ROOT
ATOM      1  C   UNL     1      38.920  -0.685 137.247  1.00  0.00     0.053 C 
ENDROOT
BRANCH   1   2
ATOM      2  C   UNL     1      38.228  -1.996 136.873  1.00  0.00     0.230 C 
BRANCH   2   3
ATOM      3  O   UNL     1      36.931  -1.695 136.358  1.00  0.00    -0.493 OA
BRANCH   3   4
ATOM      4  C   UNL     1      36.783  -1.619 134.993  1.00  0.00     0.126 A 
ATOM      5  C   UNL     1      36.385  -2.823 134.369  1.00  0.00     0.040 A 
ATOM      6  C   UNL     1      36.238  -2.755 132.976  1.00  0.00     0.174 A 
ATOM      7  C   UNL     1      37.017  -0.460 134.241  1.00  0.00     0.048 A 
ATOM      8  O   UNL     1      35.870  -3.783 132.164  1.00  0.00    -0.355 OA
ATOM      9  C   UNL     1      36.443  -1.627 132.206  1.00  0.00     0.050 A 
ATOM     10  C   UNL     1      36.853  -0.447 132.847  1.00  0.00     0.018 A 
ATOM     11  N   UNL     1      35.833  -3.356 130.853  1.00  0.00    -0.079 NA
ATOM     12  C   UNL     1      36.159  -2.052 130.871  1.00  0.00     0.121 A 
BRANCH   5  13
ATOM     13  C   UNL     1      36.115  -4.085 135.147  1.00  0.00     0.043 C 
BRANCH  13  14
ATOM     14  C   UNL     1      37.216  -5.141 135.008  1.00  0.00     0.002 C 
ATOM     15  C   UNL     1      37.849  -5.533 136.337  1.00  0.00     0.004 C 
ENDBRANCH  13  14
ENDBRANCH   5  13
BRANCH  12  16
ATOM     16  C   UNL     1      36.200  -1.272 129.637  1.00  0.00     0.004 A 
ATOM     17  C   UNL     1      36.796  -1.806 128.484  1.00  0.00     0.010 A 
ATOM     18  C   UNL     1      35.638   0.010 129.576  1.00  0.00     0.010 A 
ATOM     19  C   UNL     1      36.843  -1.065 127.302  1.00  0.00     0.001 A 
ATOM     20  C   UNL     1      35.685   0.750 128.391  1.00  0.00     0.001 A 
ATOM     21  C   UNL     1      36.289   0.212 127.257  1.00  0.00     0.000 A 
ENDBRANCH  12  16
ENDBRANCH   3   4
ENDBRANCH   2   3
ENDBRANCH   1   2
BRANCH   1  22
ATOM     22  C   UNL     1      40.349  -0.855 137.766  1.00  0.00     0.078 C 
BRANCH  22  23
ATOM     23  S   UNL     1      40.913   0.505 138.853  1.00  0.00    -0.124 SA
BRANCH  23  24
ATOM     24  C   UNL     1      42.087   1.307 137.763  1.00  0.00     0.026 A 
ATOM     25  C   UNL     1      42.067   0.958 136.405  1.00  0.00     0.017 A 
ATOM     26  C   UNL     1      43.039   2.240 138.204  1.00  0.00     0.054 A 
ATOM     27  C   UNL     1      42.960   1.540 135.500  1.00  0.00     0.005 A 
ATOM     28  C   UNL     1      43.933   2.822 137.297  1.00  0.00     0.026 A 
ATOM     29  C   UNL     1      43.904   2.475 135.939  1.00  0.00    -0.035 A 
ATOM     30  Cl  UNL     1      43.157   2.738 139.858  1.00  0.00    -0.083 Cl
BRANCH  29  31
ATOM     31  C   UNL     1      44.855   3.124 134.960  1.00  0.00     0.158 C 
BRANCH  31  32
ATOM     32  C   UNL     1      44.697   2.629 133.543  1.00  0.00     0.307 C 
ATOM     33  O   UNL     1      43.897   2.999 132.700  1.00  0.00    -0.252 OA
BRANCH  32  34
ATOM     34  O   UNL     1      45.590   1.660 133.248  1.00  0.00    -0.481 OA
ATOM     35  H   UNL     1      45.396   1.436 132.313  1.00  0.00     0.296 HD
ENDBRANCH  32  34
ENDBRANCH  31  32
ENDBRANCH  29  31
ENDBRANCH  23  24
ENDBRANCH  22  23
ENDBRANCH   1  22
TORSDOF 12
ENDMDL
MODEL 9
REMARK VINA RESULT:    -8.476      5.275      8.219
REMARK INTER + INTRA:         -15.759
REMARK INTER:                 -14.604
REMARK INTRA:                  -1.155
REMARK UNBOUND:                -1.585
REMARK SMILES CCCc1c(OCCCSc2ccc(CC(=O)O)cc2Cl)ccc2c(-c3ccccc3)noc12
REMARK SMILES IDX 8 1 7 2 6 3 5 4 4 5 34 6 22 7 33 8 24 9 23 10 32 11 25 12
REMARK SMILES IDX 3 13 2 14 1 15 26 16 27 17 31 18 28 19 30 20 29 21 9 22
REMARK SMILES IDX 10 23 11 24 12 25 20 26 13 27 19 28 14 29 21 30 15 31 16 32
REMARK SMILES IDX 17 33 18 34
REMARK H PARENT 18 35
ROOT
ATOM      1  C   UNL     1      39.469   0.278 131.464  1.00  0.00     0.053 C 
ENDROOT
BRANCH   1   2
ATOM      2  C   UNL     1      40.694   1.179 131.626  1.00  0.00     0.230 C 
BRANCH   2   3
ATOM      3  O   UNL     1      41.698   0.460 132.340  1.00  0.00    -0.493 OA
BRANCH   3   4
ATOM      4  C   UNL     1      41.947   0.824 133.641  1.00  0.00     0.126 A 
ATOM      5  C   UNL     1      43.130   1.575 133.834  1.00  0.00     0.040 A 
ATOM      6  C   UNL     1      43.394   1.945 135.160  1.00  0.00     0.174 A 
ATOM      7  C   UNL     1      41.126   0.482 134.724  1.00  0.00     0.048 A 
ATOM      8  O   UNL     1      44.469   2.661 135.586  1.00  0.00    -0.355 OA
ATOM      9  C   UNL     1      42.599   1.641 136.248  1.00  0.00     0.050 A 
ATOM     10  C   UNL     1      41.437   0.881 136.034  1.00  0.00     0.018 A 
ATOM     11  N   UNL     1      44.407   2.834 136.953  1.00  0.00    -0.079 NA
ATOM     12  C   UNL     1      43.273   2.238 137.358  1.00  0.00     0.121 A 
BRANCH   5  13
ATOM     13  C   UNL     1      44.030   1.969 132.691  1.00  0.00     0.043 C 
BRANCH  13  14
ATOM     14  C   UNL     1      45.045   0.888 132.306  1.00  0.00     0.002 C 
ATOM     15  C   UNL     1      45.336   0.838 130.812  1.00  0.00     0.004 C 
ENDBRANCH  13  14
ENDBRANCH   5  13
BRANCH  12  16
ATOM     16  C   UNL     1      42.881   2.247 138.766  1.00  0.00     0.004 A 
ATOM     17  C   UNL     1      41.869   1.388 139.221  1.00  0.00     0.010 A 
ATOM     18  C   UNL     1      43.512   3.096 139.684  1.00  0.00     0.010 A 
ATOM     19  C   UNL     1      41.485   1.393 140.563  1.00  0.00     0.001 A 
ATOM     20  C   UNL     1      43.126   3.098 141.027  1.00  0.00     0.001 A 
ATOM     21  C   UNL     1      42.112   2.249 141.465  1.00  0.00     0.000 A 
ENDBRANCH  12  16
ENDBRANCH   3   4
ENDBRANCH   2   3
ENDBRANCH   1   2
BRANCH   1  22
ATOM     22  C   UNL     1      38.380   0.502 132.515  1.00  0.00     0.078 C 
BRANCH  22  23
ATOM     23  S   UNL     1      36.787  -0.306 132.119  1.00  0.00    -0.124 SA
BRANCH  23  24
ATOM     24  C   UNL     1      36.634  -1.400 133.530  1.00  0.00     0.026 A 
ATOM     25  C   UNL     1      37.192  -0.984 134.747  1.00  0.00     0.017 A 
ATOM     26  C   UNL     1      36.012  -2.657 133.469  1.00  0.00     0.054 A 
ATOM     27  C   UNL     1      37.115  -1.792 135.885  1.00  0.00     0.005 A 
ATOM     28  C   UNL     1      35.936  -3.465 134.610  1.00  0.00     0.026 A 
ATOM     29  C   UNL     1      36.490  -3.041 135.827  1.00  0.00    -0.035 A 
ATOM     30  Cl  UNL     1      35.297  -3.273 132.017  1.00  0.00    -0.083 Cl
BRANCH  29  31
ATOM     31  C   UNL     1      36.384  -3.907 137.061  1.00  0.00     0.158 C 
BRANCH  31  32
ATOM     32  C   UNL     1      37.592  -4.781 137.293  1.00  0.00     0.307 C 
ATOM     33  O   UNL     1      38.598  -4.874 136.611  1.00  0.00    -0.252 OA
BRANCH  32  34
ATOM     34  O   UNL     1      37.469  -5.518 138.418  1.00  0.00    -0.481 OA
ATOM     35  H   UNL     1      36.523  -5.774 138.432  1.00  0.00     0.296 HD
ENDBRANCH  32  34
ENDBRANCH  31  32
ENDBRANCH  29  31
ENDBRANCH  23  24
ENDBRANCH  22  23
ENDBRANCH   1  22
TORSDOF 12
ENDMDL
