REMARK VINA RESULT:   -10.381      1.794      2.513
REMARK INTER + INTRA:         -13.025
REMARK INTER:                 -12.618
REMARK INTRA:                  -0.407
REMARK UNBOUND:                -0.216
REMARK SMILES N#C[C@H]1CCCC[C@H]1n1nc(Nc2ccc(-c3ccno3)cc2)c2c(=O)[nH]ccc21
REMARK SMILES IDX 12 1 11 3 9 4 10 5 30 6 29 7 24 8 28 9 25 10 27 11 26 12
REMARK SMILES IDX 8 14 1 15 2 16 3 17 4 18 5 19 7 20 6 21 13 22 14 23 23 24
REMARK SMILES IDX 15 25 22 26 16 27 17 28 18 29 21 30 19 31 20 32
REMARK H PARENT 12 2 27 13
ROOT
ATOM      1  N   UNL     1       6.288 -26.278  23.196  1.00  0.00    -0.338 N 
ATOM      2  H   UNL     1       5.551 -26.981  23.229  1.00  0.00     0.168 HD
ENDROOT
BRANCH   1   3
ATOM      3  C   UNL     1       6.075 -25.226  22.367  1.00  0.00     0.166 A 
ATOM      4  N   UNL     1       6.242 -23.439  21.196  1.00  0.00    -0.258 N 
ATOM      5  N   UNL     1       6.912 -24.227  22.057  1.00  0.00    -0.153 NA
ATOM      6  C   UNL     1       4.980 -23.900  20.959  1.00  0.00     0.078 A 
ATOM      7  C   UNL     1       3.982 -23.356  20.123  1.00  0.00     0.046 A 
ATOM      8  C   UNL     1       4.847 -25.049  21.703  1.00  0.00     0.109 A 
ATOM      9  C   UNL     1       2.829 -24.052  20.094  1.00  0.00     0.088 A 
ATOM     10  C   UNL     1       3.604 -25.784  21.670  1.00  0.00     0.261 A 
ATOM     11  N   UNL     1       2.643 -25.212  20.836  1.00  0.00    -0.328 N 
ATOM     12  O   UNL     1       3.399 -26.808  22.312  1.00  0.00    -0.269 OA
ATOM     13  H   UNL     1       1.761 -25.706  20.787  1.00  0.00     0.169 HD
BRANCH   4  14
ATOM     14  C   UNL     1       6.870 -22.232  20.671  1.00  0.00     0.125 C 
ATOM     15  N   UNL     1       5.257 -19.966  22.925  1.00  0.00    -0.198 NA
ATOM     16  C   UNL     1       5.548 -20.458  21.915  1.00  0.00     0.068 C 
ATOM     17  C   UNL     1       5.962 -20.983  20.595  1.00  0.00     0.117 C 
ATOM     18  C   UNL     1       6.715 -19.872  19.833  1.00  0.00     0.021 C 
ATOM     19  C   UNL     1       8.078 -19.550  20.458  1.00  0.00     0.002 C 
ATOM     20  C   UNL     1       8.207 -21.924  21.366  1.00  0.00     0.029 C 
ATOM     21  C   UNL     1       8.944 -20.795  20.645  1.00  0.00     0.002 C 
ENDBRANCH   4  14
ENDBRANCH   1   3
BRANCH   1  22
ATOM     22  C   UNL     1       7.377 -26.614  24.027  1.00  0.00     0.040 A 
ATOM     23  C   UNL     1       7.462 -27.921  24.531  1.00  0.00     0.027 A 
ATOM     24  C   UNL     1       8.373 -25.713  24.406  1.00  0.00     0.027 A 
ATOM     25  C   UNL     1       8.510 -28.310  25.378  1.00  0.00     0.014 A 
ATOM     26  C   UNL     1       9.422 -26.098  25.252  1.00  0.00     0.014 A 
ATOM     27  C   UNL     1       9.507 -27.403  25.752  1.00  0.00     0.020 A 
BRANCH  27  28
ATOM     28  C   UNL     1      10.597 -27.787  26.642  1.00  0.00     0.166 A 
ATOM     29  C   UNL     1      11.967 -27.862  26.525  1.00  0.00     0.074 A 
ATOM     30  O   UNL     1      10.250 -28.176  27.906  1.00  0.00    -0.356 OA
ATOM     31  C   UNL     1      12.404 -28.302  27.785  1.00  0.00     0.158 A 
ATOM     32  N   UNL     1      11.388 -28.497  28.628  1.00  0.00    -0.088 NA
ENDBRANCH  27  28
ENDBRANCH   1  22
TORSDOF 4
