REMARK SMILES COC(=O)[C@H](Cc1cccc(C(=N)N)c1)[C@@H](C)NC(=O)c1ccc(-c2cccnc2)cc1
REMARK SMILES IDX 5 1 3 2 4 3 2 4 1 5 6 6 7 7 8 8 15 9 9 10 11 11 10 12 12 13
REMARK SMILES IDX 13 14 14 15 16 19 17 20 18 21 19 22 20 23 21 25 22 26 32 27
REMARK SMILES IDX 23 28 31 29 24 30 25 31 26 32 30 33 27 34 29 35 28 36
REMARK H PARENT 13 16 14 17 14 18 18 24
REMARK INDEX MAP 5 1 3 2 4 3 2 4 1 5 6 6 7 7 8 8 15 9 9 10 11 11 10 12 12 13
REMARK INDEX MAP 13 14 14 15 42 16 43 17 44 18 16 19 17 20 18 21 19 22 20 23
REMARK INDEX MAP 50 24 21 25 22 26 32 27 23 28 31 29 24 30 25 31 26 32 30 33
REMARK INDEX MAP 27 34 29 35 28 36
ROOT
ATOM      1  C   UNL     1     126.017 -20.881 163.219  1.00  0.00     0.125 C 
ENDROOT
BRANCH   1   2
ATOM      2  C   UNL     1     124.865 -21.869 163.237  1.00  0.00     0.311 C 
ATOM      3  O   UNL     1     124.672 -22.702 164.115  1.00  0.00    -0.252 OA
BRANCH   2   4
ATOM      4  O   UNL     1     124.095 -21.715 162.126  1.00  0.00    -0.469 OA
ATOM      5  C   UNL     1     123.646 -22.944 161.550  1.00  0.00     0.282 C 
ENDBRANCH   2   4
ENDBRANCH   1   2
BRANCH   1   6
ATOM      6  C   UNL     1     125.873 -20.025 161.950  1.00  0.00     0.053 C 
BRANCH   6   7
ATOM      7  C   UNL     1     126.595 -18.701 162.045  1.00  0.00    -0.046 A 
ATOM      8  C   UNL     1     127.700 -18.427 161.228  1.00  0.00     0.004 A 
ATOM      9  C   UNL     1     126.170 -17.726 162.960  1.00  0.00     0.015 A 
ATOM     10  C   UNL     1     128.370 -17.205 161.318  1.00  0.00     0.001 A 
ATOM     11  C   UNL     1     126.840 -16.499 163.046  1.00  0.00     0.016 A 
ATOM     12  C   UNL     1     127.939 -16.237 162.225  1.00  0.00     0.012 A 
BRANCH  11  13
ATOM     13  C   UNL     1     126.372 -15.465 164.005  1.00  0.00     0.122 C 
ATOM     14  N   UNL     1     127.063 -14.399 164.259  1.00  0.00    -0.284 NA
ATOM     15  N   UNL     1     125.192 -15.621 164.653  1.00  0.00    -0.384 N 
ATOM     16  H   UNL     1     126.708 -13.703 164.930  1.00  0.00     0.189 HD
ATOM     17  H   UNL     1     124.870 -14.902 165.317  1.00  0.00     0.158 HD
ATOM     18  H   UNL     1     124.617 -16.458 164.481  1.00  0.00     0.158 HD
ENDBRANCH  11  13
ENDBRANCH   6   7
ENDBRANCH   1   6
BRANCH   1  19
ATOM     19  C   UNL     1     127.378 -21.609 163.327  1.00  0.00     0.093 C 
ATOM     20  C   UNL     1     127.800 -22.232 161.995  1.00  0.00     0.032 C 
BRANCH  19  21
ATOM     21  N   UNL     1     128.439 -20.726 163.805  1.00  0.00    -0.349 N 
ATOM     22  C   UNL     1     128.441 -20.140 165.052  1.00  0.00     0.251 C 
ATOM     23  O   UNL     1     127.566 -20.333 165.890  1.00  0.00    -0.269 OA
ATOM     24  H   UNL     1     129.230 -20.530 163.175  1.00  0.00     0.164 HD
BRANCH  22  25
ATOM     25  C   UNL     1     129.588 -19.240 165.365  1.00  0.00     0.039 A 
ATOM     26  C   UNL     1     130.092 -19.245 166.671  1.00  0.00     0.014 A 
ATOM     27  C   UNL     1     130.152 -18.379 164.418  1.00  0.00     0.014 A 
ATOM     28  C   UNL     1     131.164 -18.418 167.020  1.00  0.00     0.009 A 
ATOM     29  C   UNL     1     131.227 -17.554 164.772  1.00  0.00     0.009 A 
ATOM     30  C   UNL     1     131.752 -17.561 166.076  1.00  0.00    -0.017 A 
BRANCH  30  31
ATOM     31  C   UNL     1     132.880 -16.693 166.442  1.00  0.00    -0.000 A 
ATOM     32  C   UNL     1     132.829 -15.851 167.562  1.00  0.00     0.012 A 
ATOM     33  C   UNL     1     134.062 -16.662 165.693  1.00  0.00     0.119 A 
ATOM     34  C   UNL     1     133.917 -15.039 167.882  1.00  0.00     0.021 A 
ATOM     35  N   UNL     1     135.137 -15.884 165.976  1.00  0.00    -0.264 NA
ATOM     36  C   UNL     1     135.037 -15.090 167.066  1.00  0.00     0.111 A 
ENDBRANCH  30  31
ENDBRANCH  22  25
ENDBRANCH  19  21
ENDBRANCH   1  19
TORSDOF 9
