MODEL 6
REMARK VINA RESULT:    -8.284      5.560      8.293
REMARK INTER + INTRA:         -12.338
REMARK INTER:                 -11.134
REMARK INTRA:                  -1.203
REMARK UNBOUND:                -1.390
REMARK SMILES Nc1noc2ccc(-n3nc(C(F)(F)F)cc3C(=O)Nc3ccc(N4CCOCC4)cc3F)cc12
REMARK SMILES IDX 9 1 10 2 11 3 16 4 17 5 8 6 2 7 3 8 35 9 4 10 34 11 5 12
REMARK SMILES IDX 6 13 7 14 1 15 18 18 19 19 20 20 21 22 22 23 32 24 23 25
REMARK SMILES IDX 31 26 24 27 33 28 25 29 26 30 30 31 27 32 29 33 28 34 12 35
REMARK SMILES IDX 13 36 14 37 15 38
REMARK H PARENT 1 16 1 17 20 21
ROOT
ATOM      1  N   UNL     1      -3.709  10.006  20.017  1.00  0.00    -0.227 N 
ATOM      2  N   UNL     1      -4.039   8.691  19.852  1.00  0.00    -0.163 NA
ATOM      3  C   UNL     1      -4.690   8.605  18.681  1.00  0.00     0.167 A 
ATOM      4  C   UNL     1      -4.809   9.878  18.091  1.00  0.00     0.069 A 
ATOM      5  C   UNL     1      -4.168  10.759  18.945  1.00  0.00     0.133 A 
ENDROOT
BRANCH   1   6
ATOM      6  C   UNL     1      -3.049  10.395  21.234  1.00  0.00     0.066 A 
ATOM      7  C   UNL     1      -3.321  11.436  24.911  1.00  0.00     0.174 A 
ATOM      8  N   UNL     1      -2.207  11.626  25.622  1.00  0.00    -0.061 NA
ATOM      9  C   UNL     1      -3.029  11.066  23.572  1.00  0.00     0.068 A 
ATOM     10  O   UNL     1      -1.155  11.395  24.750  1.00  0.00    -0.354 OA
ATOM     11  C   UNL     1      -3.753  10.728  22.406  1.00  0.00     0.044 A 
ATOM     12  C   UNL     1      -1.647  11.059  23.530  1.00  0.00     0.169 A 
ATOM     13  C   UNL     1      -0.903  10.746  22.402  1.00  0.00     0.053 A 
ATOM     14  C   UNL     1      -1.635  10.412  21.253  1.00  0.00     0.032 A 
BRANCH   7  15
ATOM     15  N   UNL     1      -4.566  11.553  25.404  1.00  0.00    -0.380 N 
ATOM     16  H   UNL     1      -5.151  12.281  25.008  1.00  0.00     0.158 HD
ATOM     17  H   UNL     1      -4.766  11.351  26.376  1.00  0.00     0.158 HD
ENDBRANCH   7  15
ENDBRANCH   1   6
BRANCH   5  18
ATOM     18  C   UNL     1      -3.993  12.168  18.729  1.00  0.00     0.274 C 
ATOM     19  O   UNL     1      -4.818  12.990  19.107  1.00  0.00    -0.267 OA
ATOM     20  N   UNL     1      -2.822  12.449  18.055  1.00  0.00    -0.318 N 
ATOM     21  H   UNL     1      -2.247  11.663  17.769  1.00  0.00     0.170 HD
BRANCH  20  22
ATOM     22  C   UNL     1      -2.355  13.709  17.621  1.00  0.00     0.077 A 
ATOM     23  C   UNL     1      -2.145  14.806  18.447  1.00  0.00     0.031 A 
ATOM     24  C   UNL     1      -2.093  13.854  16.258  1.00  0.00     0.148 A 
ATOM     25  C   UNL     1      -1.698  16.023  17.906  1.00  0.00     0.028 A 
ATOM     26  C   UNL     1      -1.651  15.060  15.719  1.00  0.00     0.067 A 
ATOM     27  C   UNL     1      -1.457  16.184  16.533  1.00  0.00     0.040 A 
ATOM     28  F   UNL     1      -2.283  12.807  15.438  1.00  0.00    -0.205 F 
BRANCH  27  29
ATOM     29  N   UNL     1      -1.011  17.383  15.957  1.00  0.00    -0.367 N 
ATOM     30  C   UNL     1      -0.234  17.313  14.699  1.00  0.00     0.145 C 
ATOM     31  C   UNL     1      -0.390  18.319  16.929  1.00  0.00     0.145 C 
ATOM     32  C   UNL     1      -0.031  18.724  14.128  1.00  0.00     0.181 C 
ATOM     33  C   UNL     1      -0.155  19.688  16.268  1.00  0.00     0.181 C 
ATOM     34  O   UNL     1       0.633  19.576  15.074  1.00  0.00    -0.378 OA
ENDBRANCH  27  29
ENDBRANCH  20  22
ENDBRANCH   5  18
BRANCH   3  35
ATOM     35  C   UNL     1      -5.204   7.299  18.127  1.00  0.00     0.435 C 
ATOM     36  F   UNL     1      -4.543   6.235  18.662  1.00  0.00    -0.164 F 
ATOM     37  F   UNL     1      -6.523   7.104  18.390  1.00  0.00    -0.164 F 
ATOM     38  F   UNL     1      -5.043   7.212  16.781  1.00  0.00    -0.164 F 
ENDBRANCH   3  35
TORSDOF 6
ENDMDL
