MODEL 1
REMARK VINA RESULT:   -11.170      0.000      0.000
REMARK INTER + INTRA:         -15.406
REMARK INTER:                 -14.761
REMARK INTRA:                  -0.645
REMARK UNBOUND:                -0.645
REMARK SMILES COc1cc(-c2ccc3c(c2)Nc2ccc(C(=O)NCc4cccc(F)c4)cc2NC3=O)ccc1O
REMARK SMILES IDX 6 1 7 2 8 3 9 4 10 5 11 6 12 7 13 8 14 9 15 10 16 11 28 12
REMARK SMILES IDX 29 13 30 14 31 15 32 16 5 19 3 20 35 21 4 22 34 23 33 24
REMARK SMILES IDX 2 25 1 26 36 27 17 29 18 30 19 31 20 33 21 34 27 35 22 36
REMARK SMILES IDX 25 37 23 38 24 39 26 40
REMARK H PARENT 12 17 30 18 36 28 19 32
ROOT
ATOM      1  C   UNL     1      17.061  35.857  18.078  1.00  0.00    -0.016 A 
ATOM      2  C   UNL     1      15.681  35.667  18.093  1.00  0.00     0.010 A 
ATOM      3  C   UNL     1      15.026  35.152  16.981  1.00  0.00     0.016 A 
ATOM      4  C   UNL     1      15.723  34.808  15.805  1.00  0.00     0.063 A 
ATOM      5  C   UNL     1      17.126  34.979  15.781  1.00  0.00     0.052 A 
ATOM      6  C   UNL     1      17.754  35.508  16.916  1.00  0.00     0.035 A 
ATOM      7  N   UNL     1      17.943  34.626  14.705  1.00  0.00    -0.353 N 
ATOM      8  C   UNL     1      17.804  34.061  13.438  1.00  0.00     0.062 A 
ATOM      9  C   UNL     1      18.956  33.711  12.727  1.00  0.00     0.029 A 
ATOM     10  C   UNL     1      18.896  33.137  11.463  1.00  0.00     0.016 A 
ATOM     11  C   UNL     1      17.659  32.891  10.856  1.00  0.00     0.042 A 
ATOM     12  C   UNL     1      16.505  33.249  11.565  1.00  0.00     0.042 A 
ATOM     13  C   UNL     1      16.550  33.841  12.835  1.00  0.00     0.066 A 
ATOM     14  N   UNL     1      15.321  34.143  13.425  1.00  0.00    -0.320 N 
ATOM     15  C   UNL     1      14.839  34.295  14.672  1.00  0.00     0.257 C 
ATOM     16  O   UNL     1      13.645  34.063  14.872  1.00  0.00    -0.269 OA
ATOM     17  H   UNL     1      18.916  34.783  14.925  1.00  0.00     0.167 HD
ATOM     18  H   UNL     1      14.560  33.920  12.800  1.00  0.00     0.170 HD
ENDROOT
BRANCH   1  19
ATOM     19  C   UNL     1      17.773  36.414  19.264  1.00  0.00    -0.014 A 
ATOM     20  C   UNL     1      18.327  38.312  20.714  1.00  0.00     0.161 A 
ATOM     21  C   UNL     1      19.111  37.461  21.504  1.00  0.00     0.157 A 
ATOM     22  C   UNL     1      17.666  37.772  19.596  1.00  0.00     0.059 A 
ATOM     23  C   UNL     1      19.227  36.110  21.185  1.00  0.00     0.051 A 
ATOM     24  C   UNL     1      18.563  35.592  20.076  1.00  0.00     0.013 A 
BRANCH  20  25
ATOM     25  O   UNL     1      18.253  39.644  21.085  1.00  0.00    -0.493 OA
ATOM     26  C   UNL     1      16.980  40.275  21.179  1.00  0.00     0.278 C 
ENDBRANCH  20  25
BRANCH  21  27
ATOM     27  O   UNL     1      19.776  37.942  22.603  1.00  0.00    -0.504 OA
ATOM     28  H   UNL     1      20.641  38.301  22.391  1.00  0.00     0.293 HD
ENDBRANCH  21  27
ENDBRANCH   1  19
BRANCH  11  29
ATOM     29  C   UNL     1      17.545  32.263   9.482  1.00  0.00     0.251 C 
ATOM     30  O   UNL     1      18.213  31.269   9.186  1.00  0.00    -0.269 OA
ATOM     31  N   UNL     1      16.679  32.837   8.622  1.00  0.00    -0.348 N 
ATOM     32  H   UNL     1      16.190  33.668   8.919  1.00  0.00     0.164 HD
BRANCH  31  33
ATOM     33  C   UNL     1      16.456  32.419   7.237  1.00  0.00     0.152 C 
BRANCH  33  34
ATOM     34  C   UNL     1      15.887  31.011   7.099  1.00  0.00    -0.026 A 
ATOM     35  C   UNL     1      16.616  30.020   6.433  1.00  0.00     0.044 A 
ATOM     36  C   UNL     1      14.607  30.716   7.582  1.00  0.00     0.006 A 
ATOM     37  C   UNL     1      16.084  28.739   6.278  1.00  0.00     0.123 A 
ATOM     38  C   UNL     1      14.076  29.434   7.429  1.00  0.00     0.003 A 
ATOM     39  C   UNL     1      14.815  28.446   6.779  1.00  0.00     0.039 A 
ATOM     40  F   UNL     1      16.796  27.784   5.641  1.00  0.00    -0.207 F 
ENDBRANCH  33  34
ENDBRANCH  31  33
ENDBRANCH  11  29
TORSDOF 6
ENDMDL
MODEL 2
REMARK VINA RESULT:   -10.719      1.345      1.917
REMARK INTER + INTRA:         -14.811
REMARK INTER:                 -14.235
REMARK INTRA:                  -0.576
REMARK UNBOUND:                -0.645
REMARK SMILES COc1cc(-c2ccc3c(c2)Nc2ccc(C(=O)NCc4cccc(F)c4)cc2NC3=O)ccc1O
REMARK SMILES IDX 6 1 7 2 8 3 9 4 10 5 11 6 12 7 13 8 14 9 15 10 16 11 28 12
REMARK SMILES IDX 29 13 30 14 31 15 32 16 5 19 3 20 35 21 4 22 34 23 33 24
REMARK SMILES IDX 2 25 1 26 36 27 17 29 18 30 19 31 20 33 21 34 27 35 22 36
REMARK SMILES IDX 25 37 23 38 24 39 26 40
REMARK H PARENT 12 17 30 18 36 28 19 32
ROOT
ATOM      1  C   UNL     1      18.209  36.065  17.921  1.00  0.00    -0.016 A 
ATOM      2  C   UNL     1      16.841  35.871  18.096  1.00  0.00     0.010 A 
ATOM      3  C   UNL     1      16.070  35.320  17.080  1.00  0.00     0.016 A 
ATOM      4  C   UNL     1      16.634  34.941  15.845  1.00  0.00     0.063 A 
ATOM      5  C   UNL     1      18.025  35.117  15.659  1.00  0.00     0.052 A 
ATOM      6  C   UNL     1      18.771  35.682  16.701  1.00  0.00     0.035 A 
ATOM      7  N   UNL     1      18.719  34.733  14.510  1.00  0.00    -0.353 N 
ATOM      8  C   UNL     1      18.443  34.128  13.285  1.00  0.00     0.062 A 
ATOM      9  C   UNL     1      19.511  33.760  12.460  1.00  0.00     0.029 A 
ATOM     10  C   UNL     1      19.315  33.147  11.229  1.00  0.00     0.016 A 
ATOM     11  C   UNL     1      18.020  32.879  10.771  1.00  0.00     0.042 A 
ATOM     12  C   UNL     1      16.949  33.255  11.593  1.00  0.00     0.042 A 
ATOM     13  C   UNL     1      17.131  33.886  12.831  1.00  0.00     0.066 A 
ATOM     14  N   UNL     1      15.974  34.203  13.545  1.00  0.00    -0.320 N 
ATOM     15  C   UNL     1      15.633  34.392  14.833  1.00  0.00     0.257 C 
ATOM     16  O   UNL     1      14.470  34.163  15.172  1.00  0.00    -0.269 OA
ATOM     17  H   UNL     1      19.709  34.900  14.616  1.00  0.00     0.167 HD
ATOM     18  H   UNL     1      15.150  33.958  13.015  1.00  0.00     0.170 HD
ENDROOT
BRANCH   1  19
ATOM     19  C   UNL     1      19.045  36.660  19.004  1.00  0.00    -0.014 A 
ATOM     20  C   UNL     1      21.248  37.169  19.952  1.00  0.00     0.161 A 
ATOM     21  C   UNL     1      20.621  37.786  21.042  1.00  0.00     0.157 A 
ATOM     22  C   UNL     1      20.445  36.609  18.941  1.00  0.00     0.059 A 
ATOM     23  C   UNL     1      19.231  37.841  21.117  1.00  0.00     0.051 A 
ATOM     24  C   UNL     1      18.451  37.284  20.106  1.00  0.00     0.013 A 
BRANCH  20  25
ATOM     25  O   UNL     1      22.633  37.148  19.937  1.00  0.00    -0.493 OA
ATOM     26  C   UNL     1      23.315  35.898  19.916  1.00  0.00     0.278 C 
ENDBRANCH  20  25
BRANCH  21  27
ATOM     27  O   UNL     1      21.362  38.344  22.052  1.00  0.00    -0.504 OA
ATOM     28  H   UNL     1      20.943  38.265  22.912  1.00  0.00     0.293 HD
ENDBRANCH  21  27
ENDBRANCH   1  19
BRANCH  11  29
ATOM     29  C   UNL     1      17.757  32.208   9.438  1.00  0.00     0.251 C 
ATOM     30  O   UNL     1      18.238  31.101   9.185  1.00  0.00    -0.269 OA
ATOM     31  N   UNL     1      16.975  32.876   8.565  1.00  0.00    -0.348 N 
ATOM     32  H   UNL     1      16.644  33.793   8.825  1.00  0.00     0.164 HD
BRANCH  31  33
ATOM     33  C   UNL     1      16.641  32.431   7.212  1.00  0.00     0.152 C 
BRANCH  33  34
ATOM     34  C   UNL     1      15.997  31.050   7.156  1.00  0.00    -0.026 A 
ATOM     35  C   UNL     1      16.600  30.021   6.425  1.00  0.00     0.044 A 
ATOM     36  C   UNL     1      14.767  30.818   7.783  1.00  0.00     0.006 A 
ATOM     37  C   UNL     1      15.996  28.765   6.347  1.00  0.00     0.123 A 
ATOM     38  C   UNL     1      14.165  29.561   7.706  1.00  0.00     0.003 A 
ATOM     39  C   UNL     1      14.780  28.535   6.990  1.00  0.00     0.039 A 
ATOM     40  F   UNL     1      16.589  27.773   5.646  1.00  0.00    -0.207 F 
ENDBRANCH  33  34
ENDBRANCH  31  33
ENDBRANCH  11  29
TORSDOF 6
ENDMDL
MODEL 3
REMARK VINA RESULT:   -10.444      4.745      6.347
REMARK INTER + INTRA:         -14.448
REMARK INTER:                 -13.723
REMARK INTRA:                  -0.724
REMARK UNBOUND:                -0.645
REMARK SMILES COc1cc(-c2ccc3c(c2)Nc2ccc(C(=O)NCc4cccc(F)c4)cc2NC3=O)ccc1O
REMARK SMILES IDX 6 1 7 2 8 3 9 4 10 5 11 6 12 7 13 8 14 9 15 10 16 11 28 12
REMARK SMILES IDX 29 13 30 14 31 15 32 16 5 19 3 20 35 21 4 22 34 23 33 24
REMARK SMILES IDX 2 25 1 26 36 27 17 29 18 30 19 31 20 33 21 34 27 35 22 36
REMARK SMILES IDX 25 37 23 38 24 39 26 40
REMARK H PARENT 12 17 30 18 36 28 19 32
ROOT
ATOM      1  C   UNL     1      23.943  33.327  16.233  1.00  0.00    -0.016 A 
ATOM      2  C   UNL     1      24.888  33.343  15.209  1.00  0.00     0.010 A 
ATOM      3  C   UNL     1      24.489  33.314  13.879  1.00  0.00     0.016 A 
ATOM      4  C   UNL     1      23.128  33.264  13.515  1.00  0.00     0.063 A 
ATOM      5  C   UNL     1      22.157  33.264  14.543  1.00  0.00     0.052 A 
ATOM      6  C   UNL     1      22.594  33.287  15.874  1.00  0.00     0.035 A 
ATOM      7  N   UNL     1      20.779  33.275  14.322  1.00  0.00    -0.353 N 
ATOM      8  C   UNL     1      19.901  33.294  13.239  1.00  0.00     0.062 A 
ATOM      9  C   UNL     1      18.537  33.481  13.482  1.00  0.00     0.029 A 
ATOM     10  C   UNL     1      17.604  33.518  12.452  1.00  0.00     0.016 A 
ATOM     11  C   UNL     1      18.012  33.365  11.123  1.00  0.00     0.042 A 
ATOM     12  C   UNL     1      19.377  33.170  10.880  1.00  0.00     0.042 A 
ATOM     13  C   UNL     1      20.329  33.116  11.908  1.00  0.00     0.066 A 
ATOM     14  N   UNL     1      21.655  32.918  11.520  1.00  0.00    -0.320 N 
ATOM     15  C   UNL     1      22.876  33.196  12.012  1.00  0.00     0.257 C 
ATOM     16  O   UNL     1      23.809  33.343  11.219  1.00  0.00    -0.269 OA
ATOM     17  H   UNL     1      20.275  33.331  15.196  1.00  0.00     0.167 HD
ATOM     18  H   UNL     1      21.719  32.794  10.521  1.00  0.00     0.170 HD
ENDROOT
BRANCH   1  19
ATOM     19  C   UNL     1      24.361  33.354  17.664  1.00  0.00    -0.014 A 
ATOM     20  C   UNL     1      26.039  32.917  19.398  1.00  0.00     0.161 A 
ATOM     21  C   UNL     1      25.151  33.410  20.362  1.00  0.00     0.157 A 
ATOM     22  C   UNL     1      25.628  32.895  18.053  1.00  0.00     0.059 A 
ATOM     23  C   UNL     1      23.888  33.868  19.990  1.00  0.00     0.051 A 
ATOM     24  C   UNL     1      23.499  33.841  18.653  1.00  0.00     0.013 A 
BRANCH  20  25
ATOM     25  O   UNL     1      27.278  32.478  19.833  1.00  0.00    -0.493 OA
ATOM     26  C   UNL     1      27.924  31.410  19.147  1.00  0.00     0.278 C 
ENDBRANCH  20  25
BRANCH  21  27
ATOM     27  O   UNL     1      25.506  33.450  21.686  1.00  0.00    -0.504 OA
ATOM     28  H   UNL     1      25.515  32.583  22.099  1.00  0.00     0.293 HD
ENDBRANCH  21  27
ENDBRANCH   1  19
BRANCH  11  29
ATOM     29  C   UNL     1      17.031  33.404   9.968  1.00  0.00     0.251 C 
ATOM     30  O   UNL     1      16.436  34.445   9.682  1.00  0.00    -0.269 OA
ATOM     31  N   UNL     1      16.858  32.257   9.279  1.00  0.00    -0.348 N 
ATOM     32  H   UNL     1      17.352  31.434   9.589  1.00  0.00     0.164 HD
BRANCH  31  33
ATOM     33  C   UNL     1      15.926  32.067   8.167  1.00  0.00     0.152 C 
BRANCH  33  34
ATOM     34  C   UNL     1      16.143  30.773   7.391  1.00  0.00    -0.026 A 
ATOM     35  C   UNL     1      15.050  29.979   7.025  1.00  0.00     0.044 A 
ATOM     36  C   UNL     1      17.440  30.336   7.094  1.00  0.00     0.006 A 
ATOM     37  C   UNL     1      15.249  28.779   6.341  1.00  0.00     0.123 A 
ATOM     38  C   UNL     1      17.638  29.136   6.409  1.00  0.00     0.003 A 
ATOM     39  C   UNL     1      16.543  28.360   6.031  1.00  0.00     0.039 A 
ATOM     40  F   UNL     1      14.189  28.022   5.983  1.00  0.00    -0.207 F 
ENDBRANCH  33  34
ENDBRANCH  31  33
ENDBRANCH  11  29
TORSDOF 6
ENDMDL
MODEL 4
REMARK VINA RESULT:    -9.905      4.322      5.712
REMARK INTER + INTRA:         -13.736
REMARK INTER:                 -12.894
REMARK INTRA:                  -0.841
REMARK UNBOUND:                -0.645
REMARK SMILES COc1cc(-c2ccc3c(c2)Nc2ccc(C(=O)NCc4cccc(F)c4)cc2NC3=O)ccc1O
REMARK SMILES IDX 6 1 7 2 8 3 9 4 10 5 11 6 12 7 13 8 14 9 15 10 16 11 28 12
REMARK SMILES IDX 29 13 30 14 31 15 32 16 5 19 3 20 35 21 4 22 34 23 33 24
REMARK SMILES IDX 2 25 1 26 36 27 17 29 18 30 19 31 20 33 21 34 27 35 22 36
REMARK SMILES IDX 25 37 23 38 24 39 26 40
REMARK H PARENT 12 17 30 18 36 28 19 32
ROOT
ATOM      1  C   UNL     1      24.112  33.484  16.746  1.00  0.00    -0.016 A 
ATOM      2  C   UNL     1      25.059  33.431  15.726  1.00  0.00     0.010 A 
ATOM      3  C   UNL     1      24.668  33.222  14.409  1.00  0.00     0.016 A 
ATOM      4  C   UNL     1      23.313  33.054  14.057  1.00  0.00     0.063 A 
ATOM      5  C   UNL     1      22.339  33.122  15.080  1.00  0.00     0.052 A 
ATOM      6  C   UNL     1      22.768  33.327  16.398  1.00  0.00     0.035 A 
ATOM      7  N   UNL     1      20.964  33.030  14.863  1.00  0.00    -0.353 N 
ATOM      8  C   UNL     1      20.091  32.872  13.787  1.00  0.00     0.062 A 
ATOM      9  C   UNL     1      18.717  33.010  14.009  1.00  0.00     0.029 A 
ATOM     10  C   UNL     1      17.788  32.873  12.985  1.00  0.00     0.016 A 
ATOM     11  C   UNL     1      18.209  32.586  11.682  1.00  0.00     0.042 A 
ATOM     12  C   UNL     1      19.584  32.440  11.461  1.00  0.00     0.042 A 
ATOM     13  C   UNL     1      20.533  32.561  12.486  1.00  0.00     0.066 A 
ATOM     14  N   UNL     1      21.870  32.392  12.121  1.00  0.00    -0.320 N 
ATOM     15  C   UNL     1      23.072  32.794  12.573  1.00  0.00     0.257 C 
ATOM     16  O   UNL     1      23.998  32.897  11.766  1.00  0.00    -0.269 OA
ATOM     17  H   UNL     1      20.454  33.161  15.725  1.00  0.00     0.167 HD
ATOM     18  H   UNL     1      21.945  32.154  11.143  1.00  0.00     0.170 HD
ENDROOT
BRANCH   1  19
ATOM     19  C   UNL     1      24.522  33.703  18.163  1.00  0.00    -0.014 A 
ATOM     20  C   UNL     1      24.466  35.056  20.207  1.00  0.00     0.161 A 
ATOM     21  C   UNL     1      25.290  34.115  20.837  1.00  0.00     0.157 A 
ATOM     22  C   UNL     1      24.092  34.836  18.869  1.00  0.00     0.059 A 
ATOM     23  C   UNL     1      25.726  32.985  20.146  1.00  0.00     0.051 A 
ATOM     24  C   UNL     1      25.343  32.782  18.822  1.00  0.00     0.013 A 
BRANCH  20  25
ATOM     25  O   UNL     1      24.067  36.156  20.949  1.00  0.00    -0.493 OA
ATOM     26  C   UNL     1      22.942  36.918  20.523  1.00  0.00     0.278 C 
ENDBRANCH  20  25
BRANCH  21  27
ATOM     27  O   UNL     1      25.682  34.287  22.139  1.00  0.00    -0.504 OA
ATOM     28  H   UNL     1      25.226  33.703  22.749  1.00  0.00     0.293 HD
ENDBRANCH  21  27
ENDBRANCH   1  19
BRANCH  11  29
ATOM     29  C   UNL     1      17.232  32.433  10.533  1.00  0.00     0.251 C 
ATOM     30  O   UNL     1      16.042  32.189  10.746  1.00  0.00    -0.269 OA
ATOM     31  N   UNL     1      17.730  32.585   9.289  1.00  0.00    -0.348 N 
ATOM     32  H   UNL     1      18.720  32.750   9.187  1.00  0.00     0.164 HD
BRANCH  31  33
ATOM     33  C   UNL     1      16.973  32.429   8.046  1.00  0.00     0.152 C 
BRANCH  33  34
ATOM     34  C   UNL     1      17.085  31.042   7.422  1.00  0.00    -0.026 A 
ATOM     35  C   UNL     1      18.228  30.685   6.700  1.00  0.00     0.044 A 
ATOM     36  C   UNL     1      16.019  30.138   7.514  1.00  0.00     0.006 A 
ATOM     37  C   UNL     1      18.319  29.427   6.102  1.00  0.00     0.123 A 
ATOM     38  C   UNL     1      16.112  28.879   6.917  1.00  0.00     0.003 A 
ATOM     39  C   UNL     1      17.262  28.524   6.214  1.00  0.00     0.039 A 
ATOM     40  F   UNL     1      19.430  29.085   5.413  1.00  0.00    -0.207 F 
ENDBRANCH  33  34
ENDBRANCH  31  33
ENDBRANCH  11  29
TORSDOF 6
ENDMDL
MODEL 5
REMARK VINA RESULT:    -9.860      7.591     12.164
REMARK INTER + INTRA:         -13.675
REMARK INTER:                 -12.829
REMARK INTRA:                  -0.847
REMARK UNBOUND:                -0.645
REMARK SMILES COc1cc(-c2ccc3c(c2)Nc2ccc(C(=O)NCc4cccc(F)c4)cc2NC3=O)ccc1O
REMARK SMILES IDX 6 1 7 2 8 3 9 4 10 5 11 6 12 7 13 8 14 9 15 10 16 11 28 12
REMARK SMILES IDX 29 13 30 14 31 15 32 16 5 19 3 20 35 21 4 22 34 23 33 24
REMARK SMILES IDX 2 25 1 26 36 27 17 29 18 30 19 31 20 33 21 34 27 35 22 36
REMARK SMILES IDX 25 37 23 38 24 39 26 40
REMARK H PARENT 12 17 30 18 36 28 19 32
ROOT
ATOM      1  C   UNL     1      20.377  37.741   5.858  1.00  0.00    -0.016 A 
ATOM      2  C   UNL     1      20.110  39.099   5.694  1.00  0.00     0.010 A 
ATOM      3  C   UNL     1      19.015  39.684   6.317  1.00  0.00     0.016 A 
ATOM      4  C   UNL     1      18.139  38.936   7.129  1.00  0.00     0.063 A 
ATOM      5  C   UNL     1      18.407  37.561   7.319  1.00  0.00     0.052 A 
ATOM      6  C   UNL     1      19.515  37.001   6.670  1.00  0.00     0.035 A 
ATOM      7  N   UNL     1      17.656  36.720   8.141  1.00  0.00    -0.353 N 
ATOM      8  C   UNL     1      16.545  36.809   8.980  1.00  0.00     0.062 A 
ATOM      9  C   UNL     1      16.217  35.711   9.782  1.00  0.00     0.029 A 
ATOM     10  C   UNL     1      15.130  35.729  10.647  1.00  0.00     0.016 A 
ATOM     11  C   UNL     1      14.319  36.865  10.739  1.00  0.00     0.042 A 
ATOM     12  C   UNL     1      14.642  37.963   9.931  1.00  0.00     0.042 A 
ATOM     13  C   UNL     1      15.727  37.955   9.043  1.00  0.00     0.066 A 
ATOM     14  N   UNL     1      15.933  39.119   8.300  1.00  0.00    -0.320 N 
ATOM     15  C   UNL     1      16.969  39.733   7.700  1.00  0.00     0.257 C 
ATOM     16  O   UNL     1      16.930  40.958   7.569  1.00  0.00    -0.269 OA
ATOM     17  H   UNL     1      18.058  35.794   8.173  1.00  0.00     0.167 HD
ATOM     18  H   UNL     1      15.211  39.797   8.493  1.00  0.00     0.170 HD
ENDROOT
BRANCH   1  19
ATOM     19  C   UNL     1      21.548  37.103   5.190  1.00  0.00    -0.014 A 
ATOM     20  C   UNL     1      23.577  37.284   3.827  1.00  0.00     0.161 A 
ATOM     21  C   UNL     1      23.757  35.899   3.935  1.00  0.00     0.157 A 
ATOM     22  C   UNL     1      22.466  37.870   4.460  1.00  0.00     0.059 A 
ATOM     23  C   UNL     1      22.851  35.124   4.656  1.00  0.00     0.051 A 
ATOM     24  C   UNL     1      21.757  35.721   5.279  1.00  0.00     0.013 A 
BRANCH  20  25
ATOM     25  O   UNL     1      24.514  37.996   3.096  1.00  0.00    -0.493 OA
ATOM     26  C   UNL     1      25.492  38.773   3.779  1.00  0.00     0.278 C 
ENDBRANCH  20  25
BRANCH  21  27
ATOM     27  O   UNL     1      24.824  35.282   3.333  1.00  0.00    -0.504 OA
ATOM     28  H   UNL     1      24.626  34.389   3.042  1.00  0.00     0.293 HD
ENDBRANCH  21  27
ENDBRANCH   1  19
BRANCH  11  29
ATOM     29  C   UNL     1      13.126  36.932  11.672  1.00  0.00     0.251 C 
ATOM     30  O   UNL     1      12.854  35.987  12.415  1.00  0.00    -0.269 OA
ATOM     31  N   UNL     1      12.400  38.069  11.648  1.00  0.00    -0.348 N 
ATOM     32  H   UNL     1      12.660  38.789  10.991  1.00  0.00     0.164 HD
BRANCH  31  33
ATOM     33  C   UNL     1      11.187  38.317  12.429  1.00  0.00     0.152 C 
BRANCH  33  34
ATOM     34  C   UNL     1       9.931  38.495  11.582  1.00  0.00    -0.026 A 
ATOM     35  C   UNL     1      10.009  39.107  10.326  1.00  0.00     0.044 A 
ATOM     36  C   UNL     1       8.682  38.105  12.081  1.00  0.00     0.006 A 
ATOM     37  C   UNL     1       8.856  39.298   9.564  1.00  0.00     0.123 A 
ATOM     38  C   UNL     1       7.530  38.295  11.317  1.00  0.00     0.003 A 
ATOM     39  C   UNL     1       7.617  38.889  10.058  1.00  0.00     0.039 A 
ATOM     40  F   UNL     1       8.939  39.882   8.348  1.00  0.00    -0.207 F 
ENDBRANCH  33  34
ENDBRANCH  31  33
ENDBRANCH  11  29
TORSDOF 6
ENDMDL
MODEL 6
REMARK VINA RESULT:    -9.831      6.364     12.446
REMARK INTER + INTRA:         -13.637
REMARK INTER:                 -12.794
REMARK INTRA:                  -0.844
REMARK UNBOUND:                -0.645
REMARK SMILES COc1cc(-c2ccc3c(c2)Nc2ccc(C(=O)NCc4cccc(F)c4)cc2NC3=O)ccc1O
REMARK SMILES IDX 6 1 7 2 8 3 9 4 10 5 11 6 12 7 13 8 14 9 15 10 16 11 28 12
REMARK SMILES IDX 29 13 30 14 31 15 32 16 5 19 3 20 35 21 4 22 34 23 33 24
REMARK SMILES IDX 2 25 1 26 36 27 17 29 18 30 19 31 20 33 21 34 27 35 22 36
REMARK SMILES IDX 25 37 23 38 24 39 26 40
REMARK H PARENT 12 17 30 18 36 28 19 32
ROOT
ATOM      1  C   UNL     1      21.188  37.154   4.888  1.00  0.00    -0.016 A 
ATOM      2  C   UNL     1      20.553  38.380   5.074  1.00  0.00     0.010 A 
ATOM      3  C   UNL     1      19.528  38.512   6.003  1.00  0.00     0.016 A 
ATOM      4  C   UNL     1      19.092  37.422   6.783  1.00  0.00     0.063 A 
ATOM      5  C   UNL     1      19.738  36.175   6.617  1.00  0.00     0.052 A 
ATOM      6  C   UNL     1      20.763  36.075   5.667  1.00  0.00     0.035 A 
ATOM      7  N   UNL     1      19.445  35.033   7.364  1.00  0.00    -0.353 N 
ATOM      8  C   UNL     1      18.583  34.659   8.394  1.00  0.00     0.062 A 
ATOM      9  C   UNL     1      18.747  33.403   8.986  1.00  0.00     0.029 A 
ATOM     10  C   UNL     1      17.931  32.964  10.023  1.00  0.00     0.016 A 
ATOM     11  C   UNL     1      16.905  33.781  10.508  1.00  0.00     0.042 A 
ATOM     12  C   UNL     1      16.736  35.037   9.911  1.00  0.00     0.042 A 
ATOM     13  C   UNL     1      17.541  35.488   8.856  1.00  0.00     0.066 A 
ATOM     14  N   UNL     1      17.260  36.761   8.357  1.00  0.00    -0.320 N 
ATOM     15  C   UNL     1      17.931  37.739   7.721  1.00  0.00     0.257 C 
ATOM     16  O   UNL     1      17.552  38.903   7.868  1.00  0.00    -0.269 OA
ATOM     17  H   UNL     1      20.064  34.274   7.118  1.00  0.00     0.167 HD
ATOM     18  H   UNL     1      16.458  37.158   8.824  1.00  0.00     0.170 HD
ENDROOT
BRANCH   1  19
ATOM     19  C   UNL     1      22.286  37.001   3.890  1.00  0.00    -0.014 A 
ATOM     20  C   UNL     1      23.405  35.693   2.145  1.00  0.00     0.161 A 
ATOM     21  C   UNL     1      24.353  36.715   2.006  1.00  0.00     0.157 A 
ATOM     22  C   UNL     1      22.378  35.851   3.093  1.00  0.00     0.059 A 
ATOM     23  C   UNL     1      24.274  37.862   2.794  1.00  0.00     0.051 A 
ATOM     24  C   UNL     1      23.249  38.003   3.726  1.00  0.00     0.013 A 
BRANCH  20  25
ATOM     25  O   UNL     1      23.540  34.579   1.333  1.00  0.00    -0.493 OA
ATOM     26  C   UNL     1      22.472  34.210   0.467  1.00  0.00     0.278 C 
ENDBRANCH  20  25
BRANCH  21  27
ATOM     27  O   UNL     1      25.374  36.605   1.097  1.00  0.00    -0.504 OA
ATOM     28  H   UNL     1      26.198  36.310   1.491  1.00  0.00     0.293 HD
ENDBRANCH  21  27
ENDBRANCH   1  19
BRANCH  11  29
ATOM     29  C   UNL     1      15.994  33.348  11.640  1.00  0.00     0.251 C 
ATOM     30  O   UNL     1      15.765  32.153  11.841  1.00  0.00    -0.269 OA
ATOM     31  N   UNL     1      15.468  34.326  12.404  1.00  0.00    -0.348 N 
ATOM     32  H   UNL     1      15.671  35.284  12.162  1.00  0.00     0.164 HD
BRANCH  31  33
ATOM     33  C   UNL     1      14.530  34.128  13.510  1.00  0.00     0.152 C 
BRANCH  33  34
ATOM     34  C   UNL     1      15.118  34.431  14.883  1.00  0.00    -0.026 A 
ATOM     35  C   UNL     1      16.367  35.054  14.992  1.00  0.00     0.044 A 
ATOM     36  C   UNL     1      14.444  34.033  16.044  1.00  0.00     0.006 A 
ATOM     37  C   UNL     1      16.921  35.304  16.248  1.00  0.00     0.123 A 
ATOM     38  C   UNL     1      14.999  34.286  17.300  1.00  0.00     0.003 A 
ATOM     39  C   UNL     1      16.235  34.923  17.402  1.00  0.00     0.039 A 
ATOM     40  F   UNL     1      18.123  35.914  16.347  1.00  0.00    -0.207 F 
ENDBRANCH  33  34
ENDBRANCH  31  33
ENDBRANCH  11  29
TORSDOF 6
ENDMDL
MODEL 7
REMARK VINA RESULT:    -9.830      7.312      9.921
REMARK INTER + INTRA:         -13.636
REMARK INTER:                 -12.832
REMARK INTRA:                  -0.804
REMARK UNBOUND:                -0.645
REMARK SMILES COc1cc(-c2ccc3c(c2)Nc2ccc(C(=O)NCc4cccc(F)c4)cc2NC3=O)ccc1O
REMARK SMILES IDX 6 1 7 2 8 3 9 4 10 5 11 6 12 7 13 8 14 9 15 10 16 11 28 12
REMARK SMILES IDX 29 13 30 14 31 15 32 16 5 19 3 20 35 21 4 22 34 23 33 24
REMARK SMILES IDX 2 25 1 26 36 27 17 29 18 30 19 31 20 33 21 34 27 35 22 36
REMARK SMILES IDX 25 37 23 38 24 39 26 40
REMARK H PARENT 12 17 30 18 36 28 19 32
ROOT
ATOM      1  C   UNL     1      14.472  37.149  10.252  1.00  0.00    -0.016 A 
ATOM      2  C   UNL     1      14.931  35.854  10.482  1.00  0.00     0.010 A 
ATOM      3  C   UNL     1      16.104  35.404   9.890  1.00  0.00     0.016 A 
ATOM      4  C   UNL     1      16.867  36.229   9.039  1.00  0.00     0.063 A 
ATOM      5  C   UNL     1      16.423  37.552   8.810  1.00  0.00     0.052 A 
ATOM      6  C   UNL     1      15.232  37.971   9.417  1.00  0.00     0.035 A 
ATOM      7  N   UNL     1      17.111  38.489   8.038  1.00  0.00    -0.353 N 
ATOM      8  C   UNL     1      18.293  38.560   7.301  1.00  0.00     0.062 A 
ATOM      9  C   UNL     1      18.702  39.802   6.804  1.00  0.00     0.029 A 
ATOM     10  C   UNL     1      19.871  39.951   6.068  1.00  0.00     0.016 A 
ATOM     11  C   UNL     1      20.683  38.845   5.797  1.00  0.00     0.042 A 
ATOM     12  C   UNL     1      20.269  37.600   6.288  1.00  0.00     0.042 A 
ATOM     13  C   UNL     1      19.086  37.430   7.021  1.00  0.00     0.066 A 
ATOM     14  N   UNL     1      18.799  36.133   7.449  1.00  0.00    -0.320 N 
ATOM     15  C   UNL     1      18.102  35.557   8.446  1.00  0.00     0.257 C 
ATOM     16  O   UNL     1      18.451  34.442   8.838  1.00  0.00    -0.269 OA
ATOM     17  H   UNL     1      16.643  39.384   8.056  1.00  0.00     0.167 HD
ATOM     18  H   UNL     1      19.495  35.484   7.112  1.00  0.00     0.170 HD
ENDROOT
BRANCH   1  19
ATOM     19  C   UNL     1      13.211  37.640  10.880  1.00  0.00    -0.014 A 
ATOM     20  C   UNL     1      11.120  38.911  10.736  1.00  0.00     0.161 A 
ATOM     21  C   UNL     1      10.832  38.562  12.062  1.00  0.00     0.157 A 
ATOM     22  C   UNL     1      12.315  38.443  10.160  1.00  0.00     0.059 A 
ATOM     23  C   UNL     1      11.716  37.766  12.789  1.00  0.00     0.051 A 
ATOM     24  C   UNL     1      12.893  37.309  12.202  1.00  0.00     0.013 A 
BRANCH  20  25
ATOM     25  O   UNL     1      10.201  39.704  10.069  1.00  0.00    -0.493 OA
ATOM     26  C   UNL     1      10.539  40.253   8.799  1.00  0.00     0.278 C 
ENDBRANCH  20  25
BRANCH  21  27
ATOM     27  O   UNL     1       9.681  38.996  12.666  1.00  0.00    -0.504 OA
ATOM     28  H   UNL     1       9.836  39.681  13.321  1.00  0.00     0.293 HD
ENDBRANCH  21  27
ENDBRANCH   1  19
BRANCH  11  29
ATOM     29  C   UNL     1      21.969  38.961   5.003  1.00  0.00     0.251 C 
ATOM     30  O   UNL     1      22.655  39.984   5.062  1.00  0.00    -0.269 OA
ATOM     31  N   UNL     1      22.315  37.897   4.249  1.00  0.00    -0.348 N 
ATOM     32  H   UNL     1      21.690  37.106   4.222  1.00  0.00     0.164 HD
BRANCH  31  33
ATOM     33  C   UNL     1      23.485  37.823   3.373  1.00  0.00     0.152 C 
BRANCH  33  34
ATOM     34  C   UNL     1      23.409  36.711   2.332  1.00  0.00    -0.026 A 
ATOM     35  C   UNL     1      22.370  35.775   2.376  1.00  0.00     0.044 A 
ATOM     36  C   UNL     1      24.412  36.581   1.363  1.00  0.00     0.006 A 
ATOM     37  C   UNL     1      22.317  34.739   1.443  1.00  0.00     0.123 A 
ATOM     38  C   UNL     1      24.356  35.545   0.429  1.00  0.00     0.003 A 
ATOM     39  C   UNL     1      23.308  34.626   0.468  1.00  0.00     0.039 A 
ATOM     40  F   UNL     1      21.306  33.843   1.485  1.00  0.00    -0.207 F 
ENDBRANCH  33  34
ENDBRANCH  31  33
ENDBRANCH  11  29
TORSDOF 6
ENDMDL
MODEL 8
REMARK VINA RESULT:    -9.759      6.121      9.231
REMARK INTER + INTRA:         -13.542
REMARK INTER:                 -12.789
REMARK INTRA:                  -0.753
REMARK UNBOUND:                -0.645
REMARK SMILES COc1cc(-c2ccc3c(c2)Nc2ccc(C(=O)NCc4cccc(F)c4)cc2NC3=O)ccc1O
REMARK SMILES IDX 6 1 7 2 8 3 9 4 10 5 11 6 12 7 13 8 14 9 15 10 16 11 28 12
REMARK SMILES IDX 29 13 30 14 31 15 32 16 5 19 3 20 35 21 4 22 34 23 33 24
REMARK SMILES IDX 2 25 1 26 36 27 17 29 18 30 19 31 20 33 21 34 27 35 22 36
REMARK SMILES IDX 25 37 23 38 24 39 26 40
REMARK H PARENT 12 17 30 18 36 28 19 32
ROOT
ATOM      1  C   UNL     1      23.789  32.850  13.782  1.00  0.00    -0.016 A 
ATOM      2  C   UNL     1      23.724  32.877  15.174  1.00  0.00     0.010 A 
ATOM      3  C   UNL     1      22.532  33.178  15.820  1.00  0.00     0.016 A 
ATOM      4  C   UNL     1      21.354  33.468  15.102  1.00  0.00     0.063 A 
ATOM      5  C   UNL     1      21.400  33.427  13.689  1.00  0.00     0.052 A 
ATOM      6  C   UNL     1      22.620  33.127  13.070  1.00  0.00     0.035 A 
ATOM      7  N   UNL     1      20.297  33.636  12.861  1.00  0.00    -0.353 N 
ATOM      8  C   UNL     1      18.937  33.913  12.993  1.00  0.00     0.062 A 
ATOM      9  C   UNL     1      18.127  33.872  11.853  1.00  0.00     0.029 A 
ATOM     10  C   UNL     1      16.763  34.129  11.909  1.00  0.00     0.016 A 
ATOM     11  C   UNL     1      16.152  34.444  13.128  1.00  0.00     0.042 A 
ATOM     12  C   UNL     1      16.964  34.493  14.268  1.00  0.00     0.042 A 
ATOM     13  C   UNL     1      18.343  34.249  14.226  1.00  0.00     0.066 A 
ATOM     14  N   UNL     1      19.028  34.331  15.441  1.00  0.00    -0.320 N 
ATOM     15  C   UNL     1      20.151  33.815  15.974  1.00  0.00     0.257 C 
ATOM     16  O   UNL     1      20.210  33.678  17.197  1.00  0.00    -0.269 OA
ATOM     17  H   UNL     1      20.545  33.505  11.891  1.00  0.00     0.167 HD
ATOM     18  H   UNL     1      18.404  34.608  16.184  1.00  0.00     0.170 HD
ENDROOT
BRANCH   1  19
ATOM     19  C   UNL     1      25.065  32.532  13.079  1.00  0.00    -0.014 A 
ATOM     20  C   UNL     1      27.516  32.458  13.050  1.00  0.00     0.161 A 
ATOM     21  C   UNL     1      27.471  31.928  11.755  1.00  0.00     0.157 A 
ATOM     22  C   UNL     1      26.303  32.756  13.698  1.00  0.00     0.059 A 
ATOM     23  C   UNL     1      26.247  31.702  11.127  1.00  0.00     0.051 A 
ATOM     24  C   UNL     1      25.056  32.000  11.784  1.00  0.00     0.013 A 
BRANCH  20  25
ATOM     25  O   UNL     1      28.763  32.658  13.618  1.00  0.00    -0.493 OA
ATOM     26  C   UNL     1      29.247  31.737  14.590  1.00  0.00     0.278 C 
ENDBRANCH  20  25
BRANCH  21  27
ATOM     27  O   UNL     1      28.627  31.623  11.082  1.00  0.00    -0.504 OA
ATOM     28  H   UNL     1      29.376  31.486  11.666  1.00  0.00     0.293 HD
ENDBRANCH  21  27
ENDBRANCH   1  19
BRANCH  11  29
ATOM     29  C   UNL     1      14.667  34.727  13.237  1.00  0.00     0.251 C 
ATOM     30  O   UNL     1      13.887  33.856  13.631  1.00  0.00    -0.269 OA
ATOM     31  N   UNL     1      14.257  35.966  12.894  1.00  0.00    -0.348 N 
ATOM     32  H   UNL     1      14.945  36.618  12.549  1.00  0.00     0.164 HD
BRANCH  31  33
ATOM     33  C   UNL     1      12.869  36.427  12.880  1.00  0.00     0.152 C 
BRANCH  33  34
ATOM     34  C   UNL     1      12.508  37.268  11.660  1.00  0.00    -0.026 A 
ATOM     35  C   UNL     1      11.373  38.086  11.681  1.00  0.00     0.044 A 
ATOM     36  C   UNL     1      13.272  37.180  10.491  1.00  0.00     0.006 A 
ATOM     37  C   UNL     1      11.024  38.833  10.554  1.00  0.00     0.123 A 
ATOM     38  C   UNL     1      12.923  37.929   9.365  1.00  0.00     0.003 A 
ATOM     39  C   UNL     1      11.800  38.756   9.398  1.00  0.00     0.039 A 
ATOM     40  F   UNL     1       9.931  39.628  10.583  1.00  0.00    -0.207 F 
ENDBRANCH  33  34
ENDBRANCH  31  33
ENDBRANCH  11  29
TORSDOF 6
ENDMDL
MODEL 9
REMARK VINA RESULT:    -9.497      4.271      5.160
REMARK INTER + INTRA:         -13.196
REMARK INTER:                 -12.458
REMARK INTRA:                  -0.739
REMARK UNBOUND:                -0.645
REMARK SMILES COc1cc(-c2ccc3c(c2)Nc2ccc(C(=O)NCc4cccc(F)c4)cc2NC3=O)ccc1O
REMARK SMILES IDX 6 1 7 2 8 3 9 4 10 5 11 6 12 7 13 8 14 9 15 10 16 11 28 12
REMARK SMILES IDX 29 13 30 14 31 15 32 16 5 19 3 20 35 21 4 22 34 23 33 24
REMARK SMILES IDX 2 25 1 26 36 27 17 29 18 30 19 31 20 33 21 34 27 35 22 36
REMARK SMILES IDX 25 37 23 38 24 39 26 40
REMARK H PARENT 12 17 30 18 36 28 19 32
ROOT
ATOM      1  C   UNL     1      22.536  33.868  17.435  1.00  0.00    -0.016 A 
ATOM      2  C   UNL     1      21.485  34.357  18.208  1.00  0.00     0.010 A 
ATOM      3  C   UNL     1      20.240  34.594  17.639  1.00  0.00     0.016 A 
ATOM      4  C   UNL     1      19.994  34.355  16.271  1.00  0.00     0.063 A 
ATOM      5  C   UNL     1      21.047  33.843  15.478  1.00  0.00     0.052 A 
ATOM      6  C   UNL     1      22.291  33.622  16.082  1.00  0.00     0.035 A 
ATOM      7  N   UNL     1      20.923  33.509  14.129  1.00  0.00    -0.353 N 
ATOM      8  C   UNL     1      19.934  33.511  13.145  1.00  0.00     0.062 A 
ATOM      9  C   UNL     1      20.208  32.906  11.915  1.00  0.00     0.029 A 
ATOM     10  C   UNL     1      19.270  32.863  10.890  1.00  0.00     0.016 A 
ATOM     11  C   UNL     1      18.006  33.436  11.064  1.00  0.00     0.042 A 
ATOM     12  C   UNL     1      17.734  34.049  12.294  1.00  0.00     0.042 A 
ATOM     13  C   UNL     1      18.674  34.113  13.332  1.00  0.00     0.066 A 
ATOM     14  N   UNL     1      18.266  34.753  14.504  1.00  0.00    -0.320 N 
ATOM     15  C   UNL     1      18.583  34.710  15.811  1.00  0.00     0.257 C 
ATOM     16  O   UNL     1      17.720  35.018  16.635  1.00  0.00    -0.269 OA
ATOM     17  H   UNL     1      21.781  33.111  13.776  1.00  0.00     0.167 HD
ATOM     18  H   UNL     1      17.334  35.126  14.400  1.00  0.00     0.170 HD
ENDROOT
BRANCH   1  19
ATOM     19  C   UNL     1      23.877  33.614  18.036  1.00  0.00    -0.014 A 
ATOM     20  C   UNL     1      25.337  33.485  20.002  1.00  0.00     0.161 A 
ATOM     21  C   UNL     1      26.405  33.130  19.168  1.00  0.00     0.157 A 
ATOM     22  C   UNL     1      24.079  33.725  19.419  1.00  0.00     0.059 A 
ATOM     23  C   UNL     1      26.219  33.018  17.792  1.00  0.00     0.051 A 
ATOM     24  C   UNL     1      24.966  33.256  17.232  1.00  0.00     0.013 A 
BRANCH  20  25
ATOM     25  O   UNL     1      25.588  33.580  21.360  1.00  0.00    -0.493 OA
ATOM     26  C   UNL     1      25.805  34.859  21.946  1.00  0.00     0.278 C 
ENDBRANCH  20  25
BRANCH  21  27
ATOM     27  O   UNL     1      27.650  32.888  19.690  1.00  0.00    -0.504 OA
ATOM     28  H   UNL     1      28.359  33.251  19.154  1.00  0.00     0.293 HD
ENDBRANCH  21  27
ENDBRANCH   1  19
BRANCH  11  29
ATOM     29  C   UNL     1      16.950  33.409   9.977  1.00  0.00     0.251 C 
ATOM     30  O   UNL     1      16.319  34.428   9.687  1.00  0.00    -0.269 OA
ATOM     31  N   UNL     1      16.752  32.230   9.352  1.00  0.00    -0.348 N 
ATOM     32  H   UNL     1      17.281  31.429   9.664  1.00  0.00     0.164 HD
BRANCH  31  33
ATOM     33  C   UNL     1      15.752  31.977   8.315  1.00  0.00     0.152 C 
BRANCH  33  34
ATOM     34  C   UNL     1      16.026  30.730   7.481  1.00  0.00    -0.026 A 
ATOM     35  C   UNL     1      14.965  29.942   7.023  1.00  0.00     0.044 A 
ATOM     36  C   UNL     1      17.342  30.330   7.220  1.00  0.00     0.006 A 
ATOM     37  C   UNL     1      15.215  28.783   6.286  1.00  0.00     0.123 A 
ATOM     38  C   UNL     1      17.592  29.172   6.481  1.00  0.00     0.003 A 
ATOM     39  C   UNL     1      16.529  28.401   6.013  1.00  0.00     0.039 A 
ATOM     40  F   UNL     1      14.186  28.031   5.839  1.00  0.00    -0.207 F 
ENDBRANCH  33  34
ENDBRANCH  31  33
ENDBRANCH  11  29
TORSDOF 6
ENDMDL
