REMARK VINA RESULT:    -9.265      1.722      2.787
REMARK INTER + INTRA:         -15.155
REMARK INTER:                 -14.399
REMARK INTRA:                  -0.756
REMARK UNBOUND:                -1.015
REMARK SMILES CCN(CC)CCOc1ccc(C(=O)/C=C/c2ccccc2)cc1
REMARK SMILES IDX 7 1 6 2 3 3 2 4 1 5 4 6 5 7 8 8 9 9 10 10 24 11 11 12 23 13
REMARK SMILES IDX 12 14 13 15 14 16 15 17 16 18 17 19 18 20 22 21 19 22 21 23
REMARK SMILES IDX 20 24
REMARK H PARENT
ROOT
ATOM      1  C   UNL     1     -11.088 -45.863  30.998  1.00  0.00     0.245 C 
ENDROOT
BRANCH   1   2
ATOM      2  C   UNL     1      -9.660 -45.519  31.456  1.00  0.00     0.126 C 
BRANCH   2   3
ATOM      3  N   UNL     1      -9.380 -44.077  31.613  1.00  0.00    -0.301 NA
BRANCH   3   4
ATOM      4  C   UNL     1     -10.346 -43.375  32.473  1.00  0.00     0.081 C 
ATOM      5  C   UNL     1      -9.794 -42.763  33.757  1.00  0.00     0.021 C 
ENDBRANCH   3   4
BRANCH   3   6
ATOM      6  C   UNL     1      -7.974 -43.887  32.013  1.00  0.00     0.081 C 
ATOM      7  C   UNL     1      -7.106 -45.128  31.838  1.00  0.00     0.021 C 
ENDBRANCH   3   6
ENDBRANCH   2   3
ENDBRANCH   1   2
BRANCH   1   8
ATOM      8  O   UNL     1     -11.017 -46.345  29.651  1.00  0.00    -0.492 OA
BRANCH   8   9
ATOM      9  C   UNL     1     -11.805 -45.721  28.725  1.00  0.00     0.119 A 
ATOM     10  C   UNL     1     -12.665 -46.346  27.823  1.00  0.00     0.047 A 
ATOM     11  C   UNL     1     -11.703 -44.327  28.718  1.00  0.00     0.047 A 
ATOM     12  C   UNL     1     -13.417 -45.580  26.924  1.00  0.00     0.016 A 
ATOM     13  C   UNL     1     -12.452 -43.557  27.822  1.00  0.00     0.016 A 
ATOM     14  C   UNL     1     -13.325 -44.182  26.927  1.00  0.00     0.022 A 
BRANCH  14  15
ATOM     15  C   UNL     1     -14.145 -43.424  25.944  1.00  0.00     0.185 C 
ATOM     16  O   UNL     1     -13.714 -43.221  24.813  1.00  0.00    -0.289 OA
BRANCH  15  17
ATOM     17  C   UNL     1     -15.498 -42.967  26.364  1.00  0.00     0.053 C 
ATOM     18  C   UNL     1     -16.451 -42.781  25.438  1.00  0.00     0.012 C 
BRANCH  18  19
ATOM     19  C   UNL     1     -17.824 -42.363  25.748  1.00  0.00    -0.026 A 
ATOM     20  C   UNL     1     -18.674 -42.004  24.694  1.00  0.00     0.008 A 
ATOM     21  C   UNL     1     -18.298 -42.260  27.062  1.00  0.00     0.008 A 
ATOM     22  C   UNL     1     -19.980 -41.578  24.946  1.00  0.00     0.001 A 
ATOM     23  C   UNL     1     -19.604 -41.833  27.314  1.00  0.00     0.001 A 
ATOM     24  C   UNL     1     -20.446 -41.495  26.257  1.00  0.00     0.000 A 
ENDBRANCH  18  19
ENDBRANCH  15  17
ENDBRANCH  14  15
ENDBRANCH   8   9
ENDBRANCH   1   8
TORSDOF 9
