MODEL 3
REMARK VINA RESULT:    -6.800      1.487      2.035
REMARK INTER + INTRA:         -11.394
REMARK INTER:                 -13.002
REMARK INTRA:                   1.608
REMARK UNBOUND:                 0.177
REMARK SMILES CN(C(C)(C)C)S(=O)(=O)c1ccc(Nc2nn([C@H]3CCCCC[C@@H]3C#N)c3cc[nH]c(=O)c23)cc1
REMARK SMILES IDX 15 1 16 2 17 3 27 4 28 5 29 6 30 7 31 8 32 9 33 10 14 12
REMARK SMILES IDX 13 14 10 15 11 16 35 17 12 18 34 19 7 20 8 21 9 22 2 23 1 24
REMARK SMILES IDX 3 25 4 26 5 27 6 28 18 29 19 30 20 31 24 33 25 34 26 35
REMARK SMILES IDX 23 36 22 37 21 38
REMARK H PARENT 30 11 14 13
REMARK Flexibility Score:   37.900
ROOT
ATOM      1  C   UNL     1     -12.013  14.395  20.054  1.00  0.00     0.166 A 
ATOM      2  N   UNL     1     -12.223  15.717  20.130  1.00  0.00    -0.153 NA
ATOM      3  N   UNL     1     -13.565  15.861  20.027  1.00  0.00    -0.258 N 
ATOM      4  C   UNL     1     -14.203  14.666  19.889  1.00  0.00     0.078 A 
ATOM      5  C   UNL     1     -15.587  14.429  19.744  1.00  0.00     0.046 A 
ATOM      6  C   UNL     1     -15.938  13.131  19.688  1.00  0.00     0.088 A 
ATOM      7  N   UNL     1     -15.002  12.111  19.772  1.00  0.00    -0.328 N 
ATOM      8  C   UNL     1     -13.625  12.294  19.911  1.00  0.00     0.261 A 
ATOM      9  O   UNL     1     -12.868  11.335  20.003  1.00  0.00    -0.269 OA
ATOM     10  C   UNL     1     -13.227  13.689  19.946  1.00  0.00     0.109 A 
ATOM     11  H   UNL     1     -15.301  11.144  19.738  1.00  0.00     0.169 HD
ENDROOT
BRANCH   1  12
ATOM     12  N   UNL     1     -10.770  13.871  20.137  1.00  0.00    -0.338 N 
ATOM     13  H   UNL     1     -10.697  13.134  20.833  1.00  0.00     0.168 HD
BRANCH  12  14
ATOM     14  C   UNL     1      -9.523  14.537  20.040  1.00  0.00     0.040 A 
ATOM     15  C   UNL     1      -7.008  15.757  19.808  1.00  0.00     0.082 A 
ATOM     16  C   UNL     1      -8.110  16.512  20.214  1.00  0.00     0.024 A 
ATOM     17  C   UNL     1      -7.149  14.403  19.502  1.00  0.00     0.024 A 
ATOM     18  C   UNL     1      -9.362  15.900  20.328  1.00  0.00     0.027 A 
ATOM     19  C   UNL     1      -8.403  13.798  19.630  1.00  0.00     0.027 A 
BRANCH  15  20
ATOM     20  S   UNL     1      -5.427  16.558  19.635  1.00  0.00     0.243 S 
ATOM     21  O   UNL     1      -5.505  17.846  20.295  1.00  0.00    -0.207 OA
ATOM     22  O   UNL     1      -4.435  15.578  20.024  1.00  0.00    -0.207 OA
BRANCH  20  23
ATOM     23  N   UNL     1      -5.331  16.846  17.927  1.00  0.00    -0.196 NA
ATOM     24  C   UNL     1      -6.233  17.956  17.496  1.00  0.00     0.125 C 
BRANCH  23  25
ATOM     25  C   UNL     1      -3.942  16.892  17.290  1.00  0.00     0.027 C 
ATOM     26  C   UNL     1      -3.398  15.482  16.997  1.00  0.00     0.029 C 
ATOM     27  C   UNL     1      -2.938  17.637  18.183  1.00  0.00     0.029 C 
ATOM     28  C   UNL     1      -4.044  17.595  15.916  1.00  0.00     0.029 C 
ENDBRANCH  23  25
ENDBRANCH  20  23
ENDBRANCH  15  20
ENDBRANCH  12  14
ENDBRANCH   1  12
BRANCH   3  29
ATOM     29  C   UNL     1     -14.133  17.219  20.072  1.00  0.00     0.125 C 
BRANCH  29  30
ATOM     30  C   UNL     1     -13.751  18.004  18.802  1.00  0.00     0.029 C 
BRANCH  30  31
ATOM     31  C   UNL     1     -13.944  19.524  18.896  1.00  0.00     0.002 CG0
ATOM     32  G   UNL     1     -15.179  20.018  19.647  1.00  0.00     0.000 G0
ENDBRANCH  30  31
ENDBRANCH  29  30
BRANCH  29  33
ATOM     33  C   UNL     1     -15.659  17.127  20.327  1.00  0.00     0.117 C 
ATOM     34  C   UNL     1     -15.961  17.631  21.680  1.00  0.00     0.068 C 
ATOM     35  N   UNL     1     -16.176  18.040  22.744  1.00  0.00    -0.198 NA
BRANCH  33  36
ATOM     36  C   UNL     1     -16.556  17.814  19.282  1.00  0.00     0.021 C 
BRANCH  36  37
ATOM     37  C   UNL     1     -16.493  19.339  19.203  1.00  0.00     0.001 C 
BRANCH  37  38
ATOM     38  C   UNL     1     -15.189  20.000  19.629  1.00  0.00     0.000 CG0
ATOM     39  G   UNL     1     -13.942  19.536  18.882  1.00  0.00     0.000 G0
ENDBRANCH  37  38
ENDBRANCH  36  37
ENDBRANCH  33  36
ENDBRANCH  29  33
ENDBRANCH   3  29
TORSDOF 6
ENDMDL
