MODEL 4
REMARK VINA RESULT:    -8.183      2.349      5.312
REMARK INTER + INTRA:         -11.297
REMARK INTER:                 -10.989
REMARK INTRA:                  -0.307
REMARK UNBOUND:                -0.483
REMARK SMILES COc1ccccc1-c1cc2c(N[C@@H]3CC[C@](C)(N)C3(C)C)c(C(N)=O)cnn2c1
REMARK SMILES IDX 9 1 10 2 11 3 12 4 23 5 27 6 28 7 29 8 30 9 8 10 3 11 4 12
REMARK SMILES IDX 5 13 7 14 6 15 2 16 1 17 13 18 14 20 15 21 20 22 16 23 17 24
REMARK SMILES IDX 21 25 22 26 18 27 19 28 24 31 25 32 26 33
REMARK H PARENT 13 19 19 29 19 30 25 34 25 35
ROOT
ATOM      1  C   UNL     1      -3.558  27.045 -28.850  1.00  0.00     0.006 A 
ATOM      2  C   UNL     1      -3.713  25.674 -28.522  1.00  0.00     0.041 A 
ATOM      3  C   UNL     1      -2.846  25.378 -27.484  1.00  0.00     0.089 A 
ATOM      4  C   UNL     1      -2.577  24.196 -26.720  1.00  0.00     0.075 A 
ATOM      5  C   UNL     1      -1.533  24.248 -25.855  1.00  0.00     0.085 A 
ATOM      6  C   UNL     1      -0.798  25.535 -25.764  1.00  0.00     0.150 A 
ATOM      7  N   UNL     1      -1.059  26.638 -26.385  1.00  0.00    -0.176 NA
ATOM      8  N   UNL     1      -2.104  26.517 -27.239  1.00  0.00    -0.238 N 
ATOM      9  C   UNL     1      -2.551  27.532 -28.042  1.00  0.00     0.122 A 
ENDROOT
BRANCH   1  10
ATOM     10  C   UNL     1      -4.233  27.831 -29.871  1.00  0.00     0.025 A 
ATOM     11  C   UNL     1      -4.965  27.236 -30.920  1.00  0.00     0.126 A 
ATOM     12  C   UNL     1      -5.580  28.059 -31.873  1.00  0.00     0.047 A 
ATOM     13  C   UNL     1      -5.466  29.451 -31.792  1.00  0.00     0.004 A 
ATOM     14  C   UNL     1      -4.122  29.232 -29.805  1.00  0.00     0.012 A 
ATOM     15  C   UNL     1      -4.738  30.038 -30.760  1.00  0.00     0.001 A 
BRANCH  11  16
ATOM     16  O   UNL     1      -5.011  25.864 -30.946  1.00  0.00    -0.496 OA
ATOM     17  C   UNL     1      -5.736  25.244 -31.997  1.00  0.00     0.278 C 
ENDBRANCH  11  16
ENDBRANCH   1  10
BRANCH   4  18
ATOM     18  N   UNL     1      -3.369  23.054 -26.918  1.00  0.00    -0.379 N 
ATOM     19  H   UNL     1      -4.088  22.999 -26.182  1.00  0.00     0.160 HD
BRANCH  18  20
ATOM     20  C   UNL     1      -3.946  22.715 -28.222  1.00  0.00     0.086 C 
ATOM     21  C   UNL     1      -5.259  21.926 -28.074  1.00  0.00     0.027 C 
ATOM     22  C   UNL     1      -3.021  21.809 -29.085  1.00  0.00     0.003 C 
ATOM     23  C   UNL     1      -5.257  20.861 -29.177  1.00  0.00     0.024 C 
ATOM     24  C   UNL     1      -4.064  21.203 -30.091  1.00  0.00     0.020 C 
ATOM     25  C   UNL     1      -1.911  22.632 -29.760  1.00  0.00     0.015 C 
ATOM     26  C   UNL     1      -2.330  20.711 -28.237  1.00  0.00     0.015 C 
ATOM     27  C   UNL     1      -4.525  22.188 -31.189  1.00  0.00     0.028 C 
BRANCH  24  28
ATOM     28  N   UNL     1      -3.608  20.012 -30.811  1.00  0.00    -0.325 NA
ATOM     29  H   UNL     1      -3.964  20.013 -31.766  1.00  0.00     0.119 HD
ATOM     30  H   UNL     1      -3.983  19.173 -30.368  1.00  0.00     0.119 HD
ENDBRANCH  24  28
ENDBRANCH  18  20
ENDBRANCH   4  18
BRANCH   5  31
ATOM     31  C   UNL     1      -1.172  23.073 -25.015  1.00  0.00     0.252 C 
ATOM     32  N   UNL     1      -0.427  23.316 -23.899  1.00  0.00    -0.365 N 
ATOM     33  O   UNL     1      -1.543  21.928 -25.262  1.00  0.00    -0.269 OA
ATOM     34  H   UNL     1      -0.276  24.233 -23.504  1.00  0.00     0.159 HD
ATOM     35  H   UNL     1      -0.262  22.521 -23.293  1.00  0.00     0.159 HD
ENDBRANCH   5  31
TORSDOF 6
ENDMDL
