MODEL 7
REMARK VINA RESULT:    -9.382      2.873      3.869
REMARK INTER + INTRA:         -14.039
REMARK INTER:                 -12.800
REMARK INTRA:                  -1.240
REMARK UNBOUND:                -1.366
REMARK SMILES C=CC(=O)N1[C@@H]2CC[C@H]1C[C@@H](n1nc(-c3ccc(Oc4ccc5c(c4)ncn5C)c(Cl)c3)c3c(C)ncnc31)C2
REMARK SMILES IDX 12 1 13 2 14 3 33 4 34 5 35 6 36 7 37 8 38 9 39 10 11 11
REMARK SMILES IDX 5 12 9 13 6 14 8 15 10 16 40 17 7 18 3 19 4 20 2 21 1 22
REMARK SMILES IDX 15 23 32 24 16 25 30 26 17 27 18 28 31 29 19 30 20 31 25 32
REMARK SMILES IDX 21 33 24 34 22 35 23 36 26 37 28 38 27 39 29 40
REMARK H PARENT
ROOT
ATOM      1  N   UNL     1      13.337   4.856  24.634  1.00  0.00    -0.243 N 
ATOM      2  N   UNL     1      12.595   4.385  25.660  1.00  0.00    -0.170 NA
ATOM      3  C   UNL     1      13.318   3.536  26.354  1.00  0.00     0.104 A 
ATOM      4  C   UNL     1      14.601   3.364  25.735  1.00  0.00     0.068 A 
ATOM      5  C   UNL     1      15.781   2.608  25.903  1.00  0.00     0.052 A 
ATOM      6  C   UNL     1      16.010   1.580  26.996  1.00  0.00     0.067 C 
ATOM      7  N   UNL     1      16.823   2.760  25.040  1.00  0.00    -0.241 NA
ATOM      8  C   UNL     1      16.668   3.647  24.024  1.00  0.00     0.224 A 
ATOM      9  N   UNL     1      15.581   4.415  23.750  1.00  0.00    -0.217 NA
ATOM     10  C   UNL     1      14.580   4.244  24.624  1.00  0.00     0.162 A 
ENDROOT
BRANCH   1  11
ATOM     11  C   UNL     1      12.803   5.848  23.677  1.00  0.00     0.114 C 
ATOM     12  N   UNL     1      11.896   8.571  24.030  1.00  0.00    -0.333 N 
ATOM     13  C   UNL     1      13.305   8.318  24.403  1.00  0.00     0.088 C 
ATOM     14  C   UNL     1      11.051   7.548  24.681  1.00  0.00     0.088 C 
ATOM     15  C   UNL     1      13.147   7.969  25.892  1.00  0.00     0.027 C 
ATOM     16  C   UNL     1      13.735   7.092  23.534  1.00  0.00     0.052 C 
ATOM     17  C   UNL     1      11.297   6.238  23.859  1.00  0.00     0.052 C 
ATOM     18  C   UNL     1      11.688   7.549  26.079  1.00  0.00     0.027 C 
BRANCH  12  19
ATOM     19  C   UNL     1      11.584   9.259  22.890  1.00  0.00     0.246 C 
ATOM     20  O   UNL     1      10.627   8.935  22.181  1.00  0.00    -0.270 OA
BRANCH  19  21
ATOM     21  C   UNL     1      12.456  10.358  22.511  1.00  0.00     0.063 C 
ATOM     22  C   UNL     1      12.025  11.631  22.431  1.00  0.00     0.014 C 
ENDBRANCH  19  21
ENDBRANCH  12  19
ENDBRANCH   1  11
BRANCH   3  23
ATOM     23  C   UNL     1      12.769   2.909  27.589  1.00  0.00     0.005 A 
ATOM     24  C   UNL     1      13.518   2.904  28.773  1.00  0.00     0.035 A 
ATOM     25  C   UNL     1      11.499   2.328  27.584  1.00  0.00     0.014 A 
ATOM     26  C   UNL     1      13.004   2.327  29.935  1.00  0.00     0.084 A 
ATOM     27  C   UNL     1      10.982   1.749  28.743  1.00  0.00     0.049 A 
ATOM     28  C   UNL     1      11.732   1.743  29.921  1.00  0.00     0.146 A 
ATOM     29  Cl  UNL     1      13.956   2.333  31.377  1.00  0.00    -0.080 Cl
BRANCH  28  30
ATOM     30  O   UNL     1      11.213   1.170  31.060  1.00  0.00    -0.456 OA
BRANCH  30  31
ATOM     31  C   UNL     1       9.886   1.344  31.399  1.00  0.00     0.129 A 
ATOM     32  C   UNL     1       9.465   2.659  31.617  1.00  0.00     0.077 A 
ATOM     33  C   UNL     1       8.982   0.280  31.560  1.00  0.00     0.049 A 
ATOM     34  C   UNL     1       8.132   2.891  31.982  1.00  0.00     0.092 A 
ATOM     35  C   UNL     1       7.647   0.476  31.921  1.00  0.00     0.032 A 
ATOM     36  C   UNL     1       7.240   1.797  32.127  1.00  0.00     0.068 A 
ATOM     37  N   UNL     1       7.504   4.081  32.240  1.00  0.00    -0.237 NA
ATOM     38  N   UNL     1       6.042   2.381  32.486  1.00  0.00    -0.334 N 
ATOM     39  C   UNL     1       6.276   3.738  32.534  1.00  0.00     0.200 A 
ATOM     40  C   UNL     1       4.786   1.709  32.768  1.00  0.00     0.151 C 
ENDBRANCH  30  31
ENDBRANCH  28  30
ENDBRANCH   3  23
TORSDOF 6
ENDMDL
