MODEL 1
REMARK VINA RESULT:   -10.541      0.000      0.000
REMARK INTER + INTRA:         -17.175
REMARK INTER:                 -15.779
REMARK INTRA:                  -1.396
REMARK UNBOUND:                -1.396
REMARK SMILES CC[C@@H](Cc1ccc(CCc2ccc(N3C(=O)c4ccccc4C3=O)cc2)cc1)C(=O)O
REMARK SMILES IDX 5 1 6 2 7 3 8 4 28 5 29 6 4 7 3 8 2 9 1 10 30 11 31 12 32 13
REMARK SMILES IDX 9 15 10 16 11 17 12 18 27 19 13 20 26 21 14 22 15 23 16 24
REMARK SMILES IDX 24 25 17 26 18 27 23 28 25 29 19 30 22 31 20 32 21 33
REMARK H PARENT 32 14
ROOT
ATOM      1  C   UNL     1      47.435  -0.596 131.378  1.00  0.00    -0.047 A 
ATOM      2  C   UNL     1      46.871   0.655 131.658  1.00  0.00     0.004 A 
ATOM      3  C   UNL     1      45.596   0.979 131.190  1.00  0.00     0.004 A 
ATOM      4  C   UNL     1      44.863   0.059 130.430  1.00  0.00    -0.048 A 
ATOM      5  C   UNL     1      45.424  -1.195 130.157  1.00  0.00     0.004 A 
ATOM      6  C   UNL     1      46.700  -1.518 130.625  1.00  0.00     0.004 A 
ENDROOT
BRANCH   1   7
ATOM      7  C   UNL     1      48.808  -0.952 131.903  1.00  0.00     0.050 C 
BRANCH   7   8
ATOM      8  C   UNL     1      48.753  -1.901 133.111  1.00  0.00     0.103 C 
BRANCH   8   9
ATOM      9  C   UNL     1      49.920  -1.689 134.091  1.00  0.00     0.012 C 
ATOM     10  C   UNL     1      49.914  -0.351 134.819  1.00  0.00     0.005 C 
ENDBRANCH   8   9
BRANCH   8  11
ATOM     11  C   UNL     1      48.713  -3.347 132.667  1.00  0.00     0.306 C 
ATOM     12  O   UNL     1      49.537  -3.933 131.984  1.00  0.00    -0.252 OA
BRANCH  11  13
ATOM     13  O   UNL     1      47.639  -4.003 133.149  1.00  0.00    -0.481 OA
ATOM     14  H   UNL     1      47.691  -3.863 134.117  1.00  0.00     0.296 HD
ENDBRANCH  11  13
ENDBRANCH   8  11
ENDBRANCH   7   8
ENDBRANCH   1   7
BRANCH   4  15
ATOM     15  C   UNL     1      43.478   0.400 129.942  1.00  0.00     0.040 C 
BRANCH  15  16
ATOM     16  C   UNL     1      42.404  -0.387 130.701  1.00  0.00     0.040 C 
BRANCH  16  17
ATOM     17  C   UNL     1      42.381  -0.025 132.165  1.00  0.00    -0.048 A 
ATOM     18  C   UNL     1      43.276  -0.611 133.060  1.00  0.00     0.006 A 
ATOM     19  C   UNL     1      41.447   0.884 132.660  1.00  0.00     0.006 A 
ATOM     20  C   UNL     1      43.240  -0.286 134.424  1.00  0.00     0.027 A 
ATOM     21  C   UNL     1      41.415   1.204 134.026  1.00  0.00     0.027 A 
ATOM     22  C   UNL     1      42.310   0.630 134.942  1.00  0.00     0.052 A 
BRANCH  22  23
ATOM     23  N   UNL     1      42.276   0.961 136.335  1.00  0.00    -0.242 N 
ATOM     24  C   UNL     1      43.047   1.939 136.937  1.00  0.00     0.266 C 
ATOM     25  C   UNL     1      41.469   0.352 137.278  1.00  0.00     0.266 C 
ATOM     26  O   UNL     1      43.882   2.712 136.502  1.00  0.00    -0.268 OA
ATOM     27  C   UNL     1      42.705   1.949 138.356  1.00  0.00     0.053 A 
ATOM     28  C   UNL     1      41.746   0.985 138.562  1.00  0.00     0.053 A 
ATOM     29  O   UNL     1      40.647  -0.545 137.200  1.00  0.00    -0.268 OA
ATOM     30  C   UNL     1      43.186   2.735 139.387  1.00  0.00     0.015 A 
ATOM     31  C   UNL     1      41.208   0.744 139.814  1.00  0.00     0.015 A 
ATOM     32  C   UNL     1      42.660   2.513 140.664  1.00  0.00     0.001 A 
ATOM     33  C   UNL     1      41.679   1.524 140.875  1.00  0.00     0.001 A 
ENDBRANCH  22  23
ENDBRANCH  16  17
ENDBRANCH  15  16
ENDBRANCH   4  15
TORSDOF 9
ENDMDL
MODEL 2
REMARK VINA RESULT:   -10.520      4.426      7.765
REMARK INTER + INTRA:         -17.144
REMARK INTER:                 -15.711
REMARK INTRA:                  -1.432
REMARK UNBOUND:                -1.396
REMARK SMILES CC[C@@H](Cc1ccc(CCc2ccc(N3C(=O)c4ccccc4C3=O)cc2)cc1)C(=O)O
REMARK SMILES IDX 5 1 6 2 7 3 8 4 28 5 29 6 4 7 3 8 2 9 1 10 30 11 31 12 32 13
REMARK SMILES IDX 9 15 10 16 11 17 12 18 27 19 13 20 26 21 14 22 15 23 16 24
REMARK SMILES IDX 24 25 17 26 18 27 23 28 25 29 19 30 22 31 20 32 21 33
REMARK H PARENT 32 14
ROOT
ATOM      1  C   UNL     1      38.451  -0.182 128.093  1.00  0.00    -0.047 A 
ATOM      2  C   UNL     1      38.479  -0.227 129.493  1.00  0.00     0.004 A 
ATOM      3  C   UNL     1      39.626  -0.651 130.166  1.00  0.00     0.004 A 
ATOM      4  C   UNL     1      40.766  -1.039 129.452  1.00  0.00    -0.048 A 
ATOM      5  C   UNL     1      40.742  -0.987 128.054  1.00  0.00     0.004 A 
ATOM      6  C   UNL     1      39.593  -0.563 127.380  1.00  0.00     0.004 A 
ENDROOT
BRANCH   1   7
ATOM      7  C   UNL     1      37.214   0.296 127.366  1.00  0.00     0.050 C 
BRANCH   7   8
ATOM      8  C   UNL     1      36.623  -0.775 126.436  1.00  0.00     0.103 C 
BRANCH   8   9
ATOM      9  C   UNL     1      35.512  -0.227 125.523  1.00  0.00     0.012 C 
ATOM     10  C   UNL     1      35.580   1.271 125.256  1.00  0.00     0.005 C 
ENDBRANCH   8   9
BRANCH   8  11
ATOM     11  C   UNL     1      36.099  -1.955 127.228  1.00  0.00     0.306 C 
ATOM     12  O   UNL     1      35.427  -1.921 128.245  1.00  0.00    -0.252 OA
BRANCH  11  13
ATOM     13  O   UNL     1      36.421  -3.136 126.663  1.00  0.00    -0.481 OA
ATOM     14  H   UNL     1      35.570  -3.619 126.626  1.00  0.00     0.296 HD
ENDBRANCH  11  13
ENDBRANCH   8  11
ENDBRANCH   7   8
ENDBRANCH   1   7
BRANCH   4  15
ATOM     15  C   UNL     1      42.013  -1.476 130.179  1.00  0.00     0.040 C 
BRANCH  15  16
ATOM     16  C   UNL     1      42.876  -0.278 130.586  1.00  0.00     0.040 C 
BRANCH  16  17
ATOM     17  C   UNL     1      42.742   0.029 132.057  1.00  0.00    -0.048 A 
ATOM     18  C   UNL     1      41.714   0.848 132.524  1.00  0.00     0.006 A 
ATOM     19  C   UNL     1      43.659  -0.476 132.978  1.00  0.00     0.006 A 
ATOM     20  C   UNL     1      41.603   1.147 133.890  1.00  0.00     0.027 A 
ATOM     21  C   UNL     1      43.542  -0.173 134.342  1.00  0.00     0.027 A 
ATOM     22  C   UNL     1      42.512   0.645 134.834  1.00  0.00     0.052 A 
BRANCH  22  23
ATOM     23  N   UNL     1      42.395   0.951 136.228  1.00  0.00    -0.242 N 
ATOM     24  C   UNL     1      41.509   0.346 137.102  1.00  0.00     0.266 C 
ATOM     25  C   UNL     1      43.150   1.893 136.902  1.00  0.00     0.266 C 
ATOM     26  O   UNL     1      40.669  -0.523 136.950  1.00  0.00    -0.268 OA
ATOM     27  C   UNL     1      41.718   0.946 138.416  1.00  0.00     0.053 A 
ATOM     28  C   UNL     1      42.715   1.885 138.294  1.00  0.00     0.053 A 
ATOM     29  O   UNL     1      44.033   2.650 136.538  1.00  0.00    -0.268 OA
ATOM     30  C   UNL     1      41.093   0.696 139.624  1.00  0.00     0.015 A 
ATOM     31  C   UNL     1      43.149   2.635 139.371  1.00  0.00     0.015 A 
ATOM     32  C   UNL     1      41.512   1.440 140.731  1.00  0.00     0.001 A 
ATOM     33  C   UNL     1      42.533   2.403 140.605  1.00  0.00     0.001 A 
ENDBRANCH  22  23
ENDBRANCH  16  17
ENDBRANCH  15  16
ENDBRANCH   4  15
TORSDOF 9
ENDMDL
MODEL 3
REMARK VINA RESULT:   -10.455      0.099      1.772
REMARK INTER + INTRA:         -17.046
REMARK INTER:                 -15.656
REMARK INTRA:                  -1.390
REMARK UNBOUND:                -1.396
REMARK SMILES CC[C@@H](Cc1ccc(CCc2ccc(N3C(=O)c4ccccc4C3=O)cc2)cc1)C(=O)O
REMARK SMILES IDX 5 1 6 2 7 3 8 4 28 5 29 6 4 7 3 8 2 9 1 10 30 11 31 12 32 13
REMARK SMILES IDX 9 15 10 16 11 17 12 18 27 19 13 20 26 21 14 22 15 23 16 24
REMARK SMILES IDX 24 25 17 26 18 27 23 28 25 29 19 30 22 31 20 32 21 33
REMARK H PARENT 32 14
ROOT
ATOM      1  C   UNL     1      47.484  -0.510 131.450  1.00  0.00    -0.047 A 
ATOM      2  C   UNL     1      46.914   0.745 131.697  1.00  0.00     0.004 A 
ATOM      3  C   UNL     1      45.631   1.045 131.233  1.00  0.00     0.004 A 
ATOM      4  C   UNL     1      44.897   0.095 130.511  1.00  0.00    -0.048 A 
ATOM      5  C   UNL     1      45.464  -1.162 130.271  1.00  0.00     0.004 A 
ATOM      6  C   UNL     1      46.747  -1.461 130.736  1.00  0.00     0.004 A 
ENDROOT
BRANCH   1   7
ATOM      7  C   UNL     1      48.865  -0.840 131.970  1.00  0.00     0.050 C 
BRANCH   7   8
ATOM      8  C   UNL     1      48.835  -1.832 133.143  1.00  0.00     0.103 C 
BRANCH   8   9
ATOM      9  C   UNL     1      50.021  -1.654 134.107  1.00  0.00     0.012 C 
ATOM     10  C   UNL     1      49.992  -0.373 134.932  1.00  0.00     0.005 C 
ENDBRANCH   8   9
BRANCH   8  11
ATOM     11  C   UNL     1      48.789  -3.261 132.647  1.00  0.00     0.306 C 
ATOM     12  O   UNL     1      49.542  -3.789 131.845  1.00  0.00    -0.252 OA
BRANCH  11  13
ATOM     13  O   UNL     1      47.805  -3.976 133.229  1.00  0.00    -0.481 OA
ATOM     14  H   UNL     1      48.212  -4.852 133.389  1.00  0.00     0.296 HD
ENDBRANCH  11  13
ENDBRANCH   8  11
ENDBRANCH   7   8
ENDBRANCH   1   7
BRANCH   4  15
ATOM     15  C   UNL     1      43.503   0.411 130.028  1.00  0.00     0.040 C 
BRANCH  15  16
ATOM     16  C   UNL     1      42.450  -0.421 130.767  1.00  0.00     0.040 C 
BRANCH  16  17
ATOM     17  C   UNL     1      42.396  -0.073 132.234  1.00  0.00    -0.048 A 
ATOM     18  C   UNL     1      41.456   0.834 132.719  1.00  0.00     0.006 A 
ATOM     19  C   UNL     1      43.305  -0.632 133.132  1.00  0.00     0.006 A 
ATOM     20  C   UNL     1      41.420   1.169 134.081  1.00  0.00     0.027 A 
ATOM     21  C   UNL     1      43.264  -0.293 134.493  1.00  0.00     0.027 A 
ATOM     22  C   UNL     1      42.322   0.614 135.003  1.00  0.00     0.052 A 
BRANCH  22  23
ATOM     23  N   UNL     1      42.283   0.956 136.393  1.00  0.00    -0.242 N 
ATOM     24  C   UNL     1      41.480   0.344 137.339  1.00  0.00     0.266 C 
ATOM     25  C   UNL     1      43.041   1.947 136.990  1.00  0.00     0.266 C 
ATOM     26  O   UNL     1      40.668  -0.561 137.266  1.00  0.00    -0.268 OA
ATOM     27  C   UNL     1      41.748   0.990 138.619  1.00  0.00     0.053 A 
ATOM     28  C   UNL     1      42.696   1.963 138.407  1.00  0.00     0.053 A 
ATOM     29  O   UNL     1      43.867   2.727 136.549  1.00  0.00    -0.268 OA
ATOM     30  C   UNL     1      41.213   0.752 139.872  1.00  0.00     0.015 A 
ATOM     31  C   UNL     1      43.168   2.761 139.433  1.00  0.00     0.015 A 
ATOM     32  C   UNL     1      41.672   1.544 140.929  1.00  0.00     0.001 A 
ATOM     33  C   UNL     1      42.642   2.542 140.710  1.00  0.00     0.001 A 
ENDBRANCH  22  23
ENDBRANCH  16  17
ENDBRANCH  15  16
ENDBRANCH   4  15
TORSDOF 9
ENDMDL
MODEL 4
REMARK VINA RESULT:   -10.308      1.346      1.817
REMARK INTER + INTRA:         -16.826
REMARK INTER:                 -15.527
REMARK INTRA:                  -1.299
REMARK UNBOUND:                -1.396
REMARK SMILES CC[C@@H](Cc1ccc(CCc2ccc(N3C(=O)c4ccccc4C3=O)cc2)cc1)C(=O)O
REMARK SMILES IDX 5 1 6 2 7 3 8 4 28 5 29 6 4 7 3 8 2 9 1 10 30 11 31 12 32 13
REMARK SMILES IDX 9 15 10 16 11 17 12 18 27 19 13 20 26 21 14 22 15 23 16 24
REMARK SMILES IDX 24 25 17 26 18 27 23 28 25 29 19 30 22 31 20 32 21 33
REMARK H PARENT 32 14
ROOT
ATOM      1  C   UNL     1      48.123  -1.964 131.684  1.00  0.00    -0.047 A 
ATOM      2  C   UNL     1      48.007  -0.759 132.388  1.00  0.00     0.004 A 
ATOM      3  C   UNL     1      47.068   0.201 132.003  1.00  0.00     0.004 A 
ATOM      4  C   UNL     1      46.230  -0.028 130.904  1.00  0.00    -0.048 A 
ATOM      5  C   UNL     1      46.339  -1.235 130.206  1.00  0.00     0.004 A 
ATOM      6  C   UNL     1      47.279  -2.194 130.592  1.00  0.00     0.004 A 
ENDROOT
BRANCH   1   7
ATOM      7  C   UNL     1      49.127  -3.010 132.115  1.00  0.00     0.050 C 
BRANCH   7   8
ATOM      8  C   UNL     1      48.500  -4.405 132.266  1.00  0.00     0.103 C 
BRANCH   8   9
ATOM      9  C   UNL     1      48.878  -5.089 133.591  1.00  0.00     0.012 C 
ATOM     10  C   UNL     1      49.101  -4.142 134.763  1.00  0.00     0.005 C 
ENDBRANCH   8   9
BRANCH   8  11
ATOM     11  C   UNL     1      48.875  -5.299 131.104  1.00  0.00     0.306 C 
ATOM     12  O   UNL     1      48.346  -6.349 130.779  1.00  0.00    -0.252 OA
BRANCH  11  13
ATOM     13  O   UNL     1      49.890  -4.794 130.373  1.00  0.00    -0.481 OA
ATOM     14  H   UNL     1      50.155  -5.537 129.792  1.00  0.00     0.296 HD
ENDBRANCH  11  13
ENDBRANCH   8  11
ENDBRANCH   7   8
ENDBRANCH   1   7
BRANCH   4  15
ATOM     15  C   UNL     1      45.201   0.998 130.501  1.00  0.00     0.040 C 
BRANCH  15  16
ATOM     16  C   UNL     1      43.787   0.568 130.906  1.00  0.00     0.040 C 
BRANCH  16  17
ATOM     17  C   UNL     1      43.549   0.764 132.383  1.00  0.00    -0.048 A 
ATOM     18  C   UNL     1      43.176  -0.308 133.194  1.00  0.00     0.006 A 
ATOM     19  C   UNL     1      43.670   2.026 132.963  1.00  0.00     0.006 A 
ATOM     20  C   UNL     1      42.938  -0.119 134.563  1.00  0.00     0.027 A 
ATOM     21  C   UNL     1      43.429   2.208 134.333  1.00  0.00     0.027 A 
ATOM     22  C   UNL     1      43.058   1.142 135.169  1.00  0.00     0.052 A 
BRANCH  22  23
ATOM     23  N   UNL     1      42.815   1.332 136.567  1.00  0.00    -0.242 N 
ATOM     24  C   UNL     1      43.545   2.168 137.393  1.00  0.00     0.266 C 
ATOM     25  C   UNL     1      41.818   0.708 137.293  1.00  0.00     0.266 C 
ATOM     26  O   UNL     1      44.497   2.900 137.187  1.00  0.00    -0.268 OA
ATOM     27  C   UNL     1      42.971   2.066 138.731  1.00  0.00     0.053 A 
ATOM     28  C   UNL     1      41.921   1.180 138.669  1.00  0.00     0.053 A 
ATOM     29  O   UNL     1      40.956  -0.095 136.982  1.00  0.00    -0.268 OA
ATOM     30  C   UNL     1      43.330   2.695 139.909  1.00  0.00     0.015 A 
ATOM     31  C   UNL     1      41.165   0.864 139.783  1.00  0.00     0.015 A 
ATOM     32  C   UNL     1      42.581   2.394 141.051  1.00  0.00     0.001 A 
ATOM     33  C   UNL     1      41.507   1.485 140.988  1.00  0.00     0.001 A 
ENDBRANCH  22  23
ENDBRANCH  16  17
ENDBRANCH  15  16
ENDBRANCH   4  15
TORSDOF 9
ENDMDL
MODEL 5
REMARK VINA RESULT:   -10.101      3.957      6.993
REMARK INTER + INTRA:         -16.516
REMARK INTER:                 -15.479
REMARK INTRA:                  -1.037
REMARK UNBOUND:                -1.396
REMARK SMILES CC[C@@H](Cc1ccc(CCc2ccc(N3C(=O)c4ccccc4C3=O)cc2)cc1)C(=O)O
REMARK SMILES IDX 5 1 6 2 7 3 8 4 28 5 29 6 4 7 3 8 2 9 1 10 30 11 31 12 32 13
REMARK SMILES IDX 9 15 10 16 11 17 12 18 27 19 13 20 26 21 14 22 15 23 16 24
REMARK SMILES IDX 24 25 17 26 18 27 23 28 25 29 19 30 22 31 20 32 21 33
REMARK H PARENT 32 14
ROOT
ATOM      1  C   UNL     1      39.011   0.095 128.543  1.00  0.00    -0.047 A 
ATOM      2  C   UNL     1      39.960  -0.665 127.846  1.00  0.00     0.004 A 
ATOM      3  C   UNL     1      41.159  -1.036 128.458  1.00  0.00     0.004 A 
ATOM      4  C   UNL     1      41.433  -0.652 129.777  1.00  0.00    -0.048 A 
ATOM      5  C   UNL     1      40.481   0.100 130.476  1.00  0.00     0.004 A 
ATOM      6  C   UNL     1      39.282   0.471 129.863  1.00  0.00     0.004 A 
ENDROOT
BRANCH   1   7
ATOM      7  C   UNL     1      37.705   0.479 127.886  1.00  0.00     0.050 C 
BRANCH   7   8
ATOM      8  C   UNL     1      36.575  -0.519 128.185  1.00  0.00     0.103 C 
BRANCH   8   9
ATOM      9  C   UNL     1      36.481  -0.884 129.676  1.00  0.00     0.012 C 
ATOM     10  C   UNL     1      35.559   0.006 130.500  1.00  0.00     0.005 C 
ENDBRANCH   8   9
BRANCH   8  11
ATOM     11  C   UNL     1      36.727  -1.778 127.358  1.00  0.00     0.306 C 
ATOM     12  O   UNL     1      37.004  -1.854 126.173  1.00  0.00    -0.252 OA
BRANCH  11  13
ATOM     13  O   UNL     1      36.560  -2.897 128.091  1.00  0.00    -0.481 OA
ATOM     14  H   UNL     1      36.300  -2.564 128.975  1.00  0.00     0.296 HD
ENDBRANCH  11  13
ENDBRANCH   8  11
ENDBRANCH   7   8
ENDBRANCH   1   7
BRANCH   4  15
ATOM     15  C   UNL     1      42.718  -1.071 130.445  1.00  0.00     0.040 C 
BRANCH  15  16
ATOM     16  C   UNL     1      43.524   0.140 130.923  1.00  0.00     0.040 C 
BRANCH  16  17
ATOM     17  C   UNL     1      43.298   0.415 132.389  1.00  0.00    -0.048 A 
ATOM     18  C   UNL     1      43.103   1.716 132.850  1.00  0.00     0.006 A 
ATOM     19  C   UNL     1      43.306  -0.624 133.319  1.00  0.00     0.006 A 
ATOM     20  C   UNL     1      42.910   1.970 134.216  1.00  0.00     0.027 A 
ATOM     21  C   UNL     1      43.114  -0.364 134.684  1.00  0.00     0.027 A 
ATOM     22  C   UNL     1      42.910   0.939 135.168  1.00  0.00     0.052 A 
BRANCH  22  23
ATOM     23  N   UNL     1      42.713   1.200 136.562  1.00  0.00    -0.242 N 
ATOM     24  C   UNL     1      43.453   2.094 137.314  1.00  0.00     0.266 C 
ATOM     25  C   UNL     1      41.755   0.597 137.356  1.00  0.00     0.266 C 
ATOM     26  O   UNL     1      44.381   2.833 137.035  1.00  0.00    -0.268 OA
ATOM     27  C   UNL     1      42.929   2.055 138.675  1.00  0.00     0.053 A 
ATOM     28  C   UNL     1      41.897   1.145 138.701  1.00  0.00     0.053 A 
ATOM     29  O   UNL     1      40.901  -0.239 137.121  1.00  0.00    -0.268 OA
ATOM     30  C   UNL     1      43.315   2.753 139.804  1.00  0.00     0.015 A 
ATOM     31  C   UNL     1      41.188   0.876 139.856  1.00  0.00     0.015 A 
ATOM     32  C   UNL     1      42.614   2.501 140.988  1.00  0.00     0.001 A 
ATOM     33  C   UNL     1      41.559   1.568 141.013  1.00  0.00     0.001 A 
ENDBRANCH  22  23
ENDBRANCH  16  17
ENDBRANCH  15  16
ENDBRANCH   4  15
TORSDOF 9
ENDMDL
MODEL 6
REMARK VINA RESULT:    -9.895      4.462      9.364
REMARK INTER + INTRA:         -16.208
REMARK INTER:                 -15.287
REMARK INTRA:                  -0.921
REMARK UNBOUND:                -1.396
REMARK SMILES CC[C@@H](Cc1ccc(CCc2ccc(N3C(=O)c4ccccc4C3=O)cc2)cc1)C(=O)O
REMARK SMILES IDX 5 1 6 2 7 3 8 4 28 5 29 6 4 7 3 8 2 9 1 10 30 11 31 12 32 13
REMARK SMILES IDX 9 15 10 16 11 17 12 18 27 19 13 20 26 21 14 22 15 23 16 24
REMARK SMILES IDX 24 25 17 26 18 27 23 28 25 29 19 30 22 31 20 32 21 33
REMARK H PARENT 32 14
ROOT
ATOM      1  C   UNL     1      43.137   2.513 137.197  1.00  0.00    -0.047 A 
ATOM      2  C   UNL     1      44.361   2.902 136.636  1.00  0.00     0.004 A 
ATOM      3  C   UNL     1      44.634   2.656 135.290  1.00  0.00     0.004 A 
ATOM      4  C   UNL     1      43.689   2.015 134.479  1.00  0.00    -0.048 A 
ATOM      5  C   UNL     1      42.463   1.634 135.036  1.00  0.00     0.004 A 
ATOM      6  C   UNL     1      42.191   1.880 136.384  1.00  0.00     0.004 A 
ENDROOT
BRANCH   1   7
ATOM      7  C   UNL     1      42.835   2.798 138.651  1.00  0.00     0.050 C 
BRANCH   7   8
ATOM      8  C   UNL     1      42.485   1.529 139.443  1.00  0.00     0.103 C 
BRANCH   8   9
ATOM      9  C   UNL     1      41.017   1.101 139.267  1.00  0.00     0.012 C 
ATOM     10  C   UNL     1      40.818  -0.262 138.618  1.00  0.00     0.005 C 
ENDBRANCH   8   9
BRANCH   8  11
ATOM     11  C   UNL     1      42.795   1.701 140.914  1.00  0.00     0.306 C 
ATOM     12  O   UNL     1      43.181   0.845 141.693  1.00  0.00    -0.252 OA
BRANCH  11  13
ATOM     13  O   UNL     1      42.640   2.975 141.326  1.00  0.00    -0.481 OA
ATOM     14  H   UNL     1      41.817   2.954 141.857  1.00  0.00     0.296 HD
ENDBRANCH  11  13
ENDBRANCH   8  11
ENDBRANCH   7   8
ENDBRANCH   1   7
BRANCH   4  15
ATOM     15  C   UNL     1      43.975   1.768 133.018  1.00  0.00     0.040 C 
BRANCH  15  16
ATOM     16  C   UNL     1      43.840   0.284 132.661  1.00  0.00     0.040 C 
BRANCH  16  17
ATOM     17  C   UNL     1      42.656   0.035 131.762  1.00  0.00    -0.048 A 
ATOM     18  C   UNL     1      41.518   0.837 131.840  1.00  0.00     0.006 A 
ATOM     19  C   UNL     1      42.663  -1.021 130.850  1.00  0.00     0.006 A 
ATOM     20  C   UNL     1      40.411   0.591 131.014  1.00  0.00     0.027 A 
ATOM     21  C   UNL     1      41.552  -1.262 130.028  1.00  0.00     0.027 A 
ATOM     22  C   UNL     1      40.399  -0.463 130.087  1.00  0.00     0.052 A 
BRANCH  22  23
ATOM     23  N   UNL     1      39.268  -0.712 129.244  1.00  0.00    -0.242 N 
ATOM     24  C   UNL     1      38.048  -1.201 129.677  1.00  0.00     0.266 C 
ATOM     25  C   UNL     1      39.231  -0.499 127.879  1.00  0.00     0.266 C 
ATOM     26  O   UNL     1      37.635  -1.523 130.777  1.00  0.00    -0.268 OA
ATOM     27  C   UNL     1      37.183  -1.305 128.507  1.00  0.00     0.053 A 
ATOM     28  C   UNL     1      37.902  -0.878 127.415  1.00  0.00     0.053 A 
ATOM     29  O   UNL     1      40.063  -0.086 127.090  1.00  0.00    -0.268 OA
ATOM     30  C   UNL     1      35.873  -1.735 128.397  1.00  0.00     0.015 A 
ATOM     31  C   UNL     1      37.357  -0.856 126.144  1.00  0.00     0.015 A 
ATOM     32  C   UNL     1      35.297  -1.722 127.123  1.00  0.00     0.001 A 
ATOM     33  C   UNL     1      36.034  -1.287 126.004  1.00  0.00     0.001 A 
ENDBRANCH  22  23
ENDBRANCH  16  17
ENDBRANCH  15  16
ENDBRANCH   4  15
TORSDOF 9
ENDMDL
MODEL 7
REMARK VINA RESULT:    -9.794      4.494      9.287
REMARK INTER + INTRA:         -16.057
REMARK INTER:                 -15.235
REMARK INTRA:                  -0.822
REMARK UNBOUND:                -1.396
REMARK SMILES CC[C@@H](Cc1ccc(CCc2ccc(N3C(=O)c4ccccc4C3=O)cc2)cc1)C(=O)O
REMARK SMILES IDX 5 1 6 2 7 3 8 4 28 5 29 6 4 7 3 8 2 9 1 10 30 11 31 12 32 13
REMARK SMILES IDX 9 15 10 16 11 17 12 18 27 19 13 20 26 21 14 22 15 23 16 24
REMARK SMILES IDX 24 25 17 26 18 27 23 28 25 29 19 30 22 31 20 32 21 33
REMARK H PARENT 32 14
ROOT
ATOM      1  C   UNL     1      43.313   2.743 137.381  1.00  0.00    -0.047 A 
ATOM      2  C   UNL     1      44.513   3.032 136.717  1.00  0.00     0.004 A 
ATOM      3  C   UNL     1      44.649   2.771 135.353  1.00  0.00     0.004 A 
ATOM      4  C   UNL     1      43.589   2.213 134.627  1.00  0.00    -0.048 A 
ATOM      5  C   UNL     1      42.387   1.932 135.288  1.00  0.00     0.004 A 
ATOM      6  C   UNL     1      42.252   2.194 136.654  1.00  0.00     0.004 A 
ENDROOT
BRANCH   1   7
ATOM      7  C   UNL     1      43.161   3.045 138.855  1.00  0.00     0.050 C 
BRANCH   7   8
ATOM      8  C   UNL     1      42.698   1.824 139.665  1.00  0.00     0.103 C 
BRANCH   8   9
ATOM      9  C   UNL     1      41.201   1.520 139.484  1.00  0.00     0.012 C 
ATOM     10  C   UNL     1      40.891   0.182 138.824  1.00  0.00     0.005 C 
ENDBRANCH   8   9
BRANCH   8  11
ATOM     11  C   UNL     1      43.011   1.995 141.136  1.00  0.00     0.306 C 
ATOM     12  O   UNL     1      43.142   3.043 141.746  1.00  0.00    -0.252 OA
BRANCH  11  13
ATOM     13  O   UNL     1      43.104   0.815 141.782  1.00  0.00    -0.481 OA
ATOM     14  H   UNL     1      43.821   0.959 142.434  1.00  0.00     0.296 HD
ENDBRANCH  11  13
ENDBRANCH   8  11
ENDBRANCH   7   8
ENDBRANCH   1   7
BRANCH   4  15
ATOM     15  C   UNL     1      43.727   1.951 133.148  1.00  0.00     0.040 C 
BRANCH  15  16
ATOM     16  C   UNL     1      43.610   0.458 132.828  1.00  0.00     0.040 C 
BRANCH  16  17
ATOM     17  C   UNL     1      42.438   0.174 131.922  1.00  0.00    -0.048 A 
ATOM     18  C   UNL     1      42.568  -0.691 130.836  1.00  0.00     0.006 A 
ATOM     19  C   UNL     1      41.206   0.793 132.134  1.00  0.00     0.006 A 
ATOM     20  C   UNL     1      41.481  -0.939 129.984  1.00  0.00     0.027 A 
ATOM     21  C   UNL     1      40.123   0.542 131.278  1.00  0.00     0.027 A 
ATOM     22  C   UNL     1      40.232  -0.330 130.183  1.00  0.00     0.052 A 
BRANCH  22  23
ATOM     23  N   UNL     1      39.123  -0.585 129.313  1.00  0.00    -0.242 N 
ATOM     24  C   UNL     1      38.972  -0.054 128.044  1.00  0.00     0.266 C 
ATOM     25  C   UNL     1      38.046  -1.397 129.614  1.00  0.00     0.266 C 
ATOM     26  O   UNL     1      39.662   0.698 127.380  1.00  0.00    -0.268 OA
ATOM     27  C   UNL     1      37.714  -0.565 127.507  1.00  0.00     0.053 A 
ATOM     28  C   UNL     1      37.152  -1.381 128.461  1.00  0.00     0.053 A 
ATOM     29  O   UNL     1      37.763  -2.055 130.601  1.00  0.00    -0.268 OA
ATOM     30  C   UNL     1      37.105  -0.340 126.286  1.00  0.00     0.015 A 
ATOM     31  C   UNL     1      35.945  -2.023 128.255  1.00  0.00     0.015 A 
ATOM     32  C   UNL     1      35.883  -0.978 126.051  1.00  0.00     0.001 A 
ATOM     33  C   UNL     1      35.307  -1.812 127.029  1.00  0.00     0.001 A 
ENDBRANCH  22  23
ENDBRANCH  16  17
ENDBRANCH  15  16
ENDBRANCH   4  15
TORSDOF 9
ENDMDL
MODEL 8
REMARK VINA RESULT:    -9.552      1.417      2.098
REMARK INTER + INTRA:         -15.694
REMARK INTER:                 -14.618
REMARK INTRA:                  -1.076
REMARK UNBOUND:                -1.396
REMARK SMILES CC[C@@H](Cc1ccc(CCc2ccc(N3C(=O)c4ccccc4C3=O)cc2)cc1)C(=O)O
REMARK SMILES IDX 5 1 6 2 7 3 8 4 28 5 29 6 4 7 3 8 2 9 1 10 30 11 31 12 32 13
REMARK SMILES IDX 9 15 10 16 11 17 12 18 27 19 13 20 26 21 14 22 15 23 16 24
REMARK SMILES IDX 24 25 17 26 18 27 23 28 25 29 19 30 22 31 20 32 21 33
REMARK H PARENT 32 14
ROOT
ATOM      1  C   UNL     1      46.229  -0.753 131.193  1.00  0.00    -0.047 A 
ATOM      2  C   UNL     1      45.413  -1.505 132.049  1.00  0.00     0.004 A 
ATOM      3  C   UNL     1      44.023  -1.445 131.937  1.00  0.00     0.004 A 
ATOM      4  C   UNL     1      43.422  -0.631 130.969  1.00  0.00    -0.048 A 
ATOM      5  C   UNL     1      44.237   0.114 130.108  1.00  0.00     0.004 A 
ATOM      6  C   UNL     1      45.628   0.054 130.221  1.00  0.00     0.004 A 
ENDROOT
BRANCH   1   7
ATOM      7  C   UNL     1      47.735  -0.835 131.302  1.00  0.00     0.050 C 
BRANCH   7   8
ATOM      8  C   UNL     1      48.285  -0.047 132.502  1.00  0.00     0.103 C 
BRANCH   8   9
ATOM      9  C   UNL     1      49.015   1.242 132.086  1.00  0.00     0.012 C 
ATOM     10  C   UNL     1      48.108   2.368 131.605  1.00  0.00     0.005 C 
ENDBRANCH   8   9
BRANCH   8  11
ATOM     11  C   UNL     1      49.203  -0.906 133.344  1.00  0.00     0.306 C 
ATOM     12  O   UNL     1      49.550  -2.054 133.120  1.00  0.00    -0.252 OA
BRANCH  11  13
ATOM     13  O   UNL     1      49.677  -0.249 134.421  1.00  0.00    -0.481 OA
ATOM     14  H   UNL     1      50.092  -0.952 134.963  1.00  0.00     0.296 HD
ENDBRANCH  11  13
ENDBRANCH   8  11
ENDBRANCH   7   8
ENDBRANCH   1   7
BRANCH   4  15
ATOM     15  C   UNL     1      41.921  -0.582 130.833  1.00  0.00     0.040 C 
BRANCH  15  16
ATOM     16  C   UNL     1      41.354   0.753 131.325  1.00  0.00     0.040 C 
BRANCH  16  17
ATOM     17  C   UNL     1      41.561   0.933 132.808  1.00  0.00    -0.048 A 
ATOM     18  C   UNL     1      40.517   0.717 133.706  1.00  0.00     0.006 A 
ATOM     19  C   UNL     1      42.795   1.345 133.311  1.00  0.00     0.006 A 
ATOM     20  C   UNL     1      40.708   0.902 135.084  1.00  0.00     0.027 A 
ATOM     21  C   UNL     1      42.980   1.529 134.689  1.00  0.00     0.027 A 
ATOM     22  C   UNL     1      41.943   1.312 135.611  1.00  0.00     0.052 A 
BRANCH  22  23
ATOM     23  N   UNL     1      42.136   1.499 137.018  1.00  0.00    -0.242 N 
ATOM     24  C   UNL     1      42.833   2.549 137.590  1.00  0.00     0.266 C 
ATOM     25  C   UNL     1      41.656   0.660 138.006  1.00  0.00     0.266 C 
ATOM     26  O   UNL     1      43.415   3.506 137.112  1.00  0.00    -0.268 OA
ATOM     27  C   UNL     1      42.790   2.361 139.036  1.00  0.00     0.053 A 
ATOM     28  C   UNL     1      42.074   1.213 139.288  1.00  0.00     0.053 A 
ATOM     29  O   UNL     1      41.003  -0.368 137.964  1.00  0.00    -0.268 OA
ATOM     30  C   UNL     1      43.328   3.125 140.055  1.00  0.00     0.015 A 
ATOM     31  C   UNL     1      41.853   0.757 140.575  1.00  0.00     0.015 A 
ATOM     32  C   UNL     1      43.119   2.688 141.367  1.00  0.00     0.001 A 
ATOM     33  C   UNL     1      42.388   1.511 141.624  1.00  0.00     0.001 A 
ENDBRANCH  22  23
ENDBRANCH  16  17
ENDBRANCH  15  16
ENDBRANCH   4  15
TORSDOF 9
ENDMDL
MODEL 9
REMARK VINA RESULT:    -9.374      1.936      2.896
REMARK INTER + INTRA:         -15.428
REMARK INTER:                 -14.723
REMARK INTRA:                  -0.705
REMARK UNBOUND:                -1.396
REMARK SMILES CC[C@@H](Cc1ccc(CCc2ccc(N3C(=O)c4ccccc4C3=O)cc2)cc1)C(=O)O
REMARK SMILES IDX 5 1 6 2 7 3 8 4 28 5 29 6 4 7 3 8 2 9 1 10 30 11 31 12 32 13
REMARK SMILES IDX 9 15 10 16 11 17 12 18 27 19 13 20 26 21 14 22 15 23 16 24
REMARK SMILES IDX 24 25 17 26 18 27 23 28 25 29 19 30 22 31 20 32 21 33
REMARK H PARENT 32 14
ROOT
ATOM      1  C   UNL     1      46.538  -0.415 131.114  1.00  0.00    -0.047 A 
ATOM      2  C   UNL     1      45.860  -1.196 132.059  1.00  0.00     0.004 A 
ATOM      3  C   UNL     1      44.465  -1.268 132.051  1.00  0.00     0.004 A 
ATOM      4  C   UNL     1      43.723  -0.557 131.099  1.00  0.00    -0.048 A 
ATOM      5  C   UNL     1      44.401   0.217 130.150  1.00  0.00     0.004 A 
ATOM      6  C   UNL     1      45.796   0.289 130.159  1.00  0.00     0.004 A 
ENDROOT
BRANCH   1   7
ATOM      7  C   UNL     1      48.049  -0.354 131.113  1.00  0.00     0.050 C 
BRANCH   7   8
ATOM      8  C   UNL     1      48.601   0.675 132.112  1.00  0.00     0.103 C 
BRANCH   8   9
ATOM      9  C   UNL     1      48.965   0.052 133.470  1.00  0.00     0.012 C 
ATOM     10  C   UNL     1      49.607  -1.328 133.394  1.00  0.00     0.005 C 
ENDBRANCH   8   9
BRANCH   8  11
ATOM     11  C   UNL     1      47.626   1.814 132.316  1.00  0.00     0.306 C 
ATOM     12  O   UNL     1      46.806   1.933 133.212  1.00  0.00    -0.252 OA
BRANCH  11  13
ATOM     13  O   UNL     1      47.764   2.781 131.388  1.00  0.00    -0.481 OA
ATOM     14  H   UNL     1      48.217   2.332 130.644  1.00  0.00     0.296 HD
ENDBRANCH  11  13
ENDBRANCH   8  11
ENDBRANCH   7   8
ENDBRANCH   1   7
BRANCH   4  15
ATOM     15  C   UNL     1      42.218  -0.651 131.075  1.00  0.00     0.040 C 
BRANCH  15  16
ATOM     16  C   UNL     1      41.565   0.666 131.504  1.00  0.00     0.040 C 
BRANCH  16  17
ATOM     17  C   UNL     1      41.717   0.906 132.986  1.00  0.00    -0.048 A 
ATOM     18  C   UNL     1      42.926   1.351 133.517  1.00  0.00     0.006 A 
ATOM     19  C   UNL     1      40.658   0.659 133.860  1.00  0.00     0.006 A 
ATOM     20  C   UNL     1      43.069   1.556 134.898  1.00  0.00     0.027 A 
ATOM     21  C   UNL     1      40.808   0.865 135.239  1.00  0.00     0.027 A 
ATOM     22  C   UNL     1      42.016   1.319 135.794  1.00  0.00     0.052 A 
BRANCH  22  23
ATOM     23  N   UNL     1      42.164   1.529 137.203  1.00  0.00    -0.242 N 
ATOM     24  C   UNL     1      41.636   0.712 138.187  1.00  0.00     0.266 C 
ATOM     25  C   UNL     1      42.854   2.577 137.783  1.00  0.00     0.266 C 
ATOM     26  O   UNL     1      40.969  -0.307 138.139  1.00  0.00    -0.268 OA
ATOM     27  C   UNL     1      42.018   1.281 139.475  1.00  0.00     0.053 A 
ATOM     28  C   UNL     1      42.759   2.414 139.229  1.00  0.00     0.053 A 
ATOM     29  O   UNL     1      43.466   3.519 137.310  1.00  0.00    -0.268 OA
ATOM     30  C   UNL     1      41.746   0.850 140.760  1.00  0.00     0.015 A 
ATOM     31  C   UNL     1      43.273   3.188 140.253  1.00  0.00     0.015 A 
ATOM     32  C   UNL     1      42.255   1.614 141.815  1.00  0.00     0.001 A 
ATOM     33  C   UNL     1      43.012   2.775 141.563  1.00  0.00     0.001 A 
ENDBRANCH  22  23
ENDBRANCH  16  17
ENDBRANCH  15  16
ENDBRANCH   4  15
TORSDOF 9
ENDMDL
