MODEL 1
REMARK VINA RESULT:   -10.381      0.000      0.000
REMARK INTER + INTRA:         -20.097
REMARK INTER:                 -18.573
REMARK INTRA:                  -1.524
REMARK UNBOUND:                -1.524
REMARK SMILES CC(C)N(Cc1ccccc1OCCCCCC(=O)O)C(=O)c1ccc(-c2ccccc2)cc1
REMARK SMILES IDX 13 1 12 2 11 3 6 4 7 5 8 6 10 7 9 8 5 9 4 10 2 11 1 12 3 13
REMARK SMILES IDX 21 14 22 15 23 16 24 17 34 18 25 19 33 20 26 21 27 22 28 23
REMARK SMILES IDX 32 24 29 25 31 26 30 27 14 28 15 29 16 30 17 31 18 32 19 33
REMARK SMILES IDX 20 34
REMARK H PARENT 20 35
ROOT
ATOM      1  C   UNL     1      48.891 -39.001 107.160  1.00  0.00     0.229 C 
ENDROOT
BRANCH   1   2
ATOM      2  O   UNL     1      47.496 -38.723 107.349  1.00  0.00    -0.493 OA
BRANCH   2   3
ATOM      3  C   UNL     1      46.811 -39.879 107.620  1.00  0.00     0.124 A 
ATOM      4  C   UNL     1      45.460 -40.008 107.266  1.00  0.00     0.014 A 
ATOM      5  C   UNL     1      44.812 -41.215 107.581  1.00  0.00     0.009 A 
ATOM      6  C   UNL     1      45.507 -42.272 108.173  1.00  0.00     0.001 A 
ATOM      7  C   UNL     1      47.515 -40.944 108.189  1.00  0.00     0.047 A 
ATOM      8  C   UNL     1      46.862 -42.142 108.468  1.00  0.00     0.004 A 
BRANCH   4   9
ATOM      9  C   UNL     1      44.701 -38.872 106.614  1.00  0.00     0.159 C 
BRANCH   9  10
ATOM     10  N   UNL     1      43.289 -38.787 107.024  1.00  0.00    -0.332 N 
BRANCH  10  11
ATOM     11  C   UNL     1      42.960 -38.144 108.319  1.00  0.00     0.079 C 
ATOM     12  C   UNL     1      42.617 -39.133 109.433  1.00  0.00     0.031 C 
ATOM     13  C   UNL     1      41.842 -37.111 108.142  1.00  0.00     0.031 C 
ENDBRANCH  10  11
BRANCH  10  14
ATOM     14  C   UNL     1      42.363 -39.493 106.247  1.00  0.00     0.254 C 
ATOM     15  O   UNL     1      41.298 -39.930 106.678  1.00  0.00    -0.269 OA
BRANCH  14  16
ATOM     16  C   UNL     1      42.662 -39.767 104.829  1.00  0.00     0.040 A 
ATOM     17  C   UNL     1      42.394 -38.785 103.875  1.00  0.00     0.014 A 
ATOM     18  C   UNL     1      43.126 -41.026 104.438  1.00  0.00     0.014 A 
ATOM     19  C   UNL     1      42.636 -39.050 102.523  1.00  0.00     0.009 A 
ATOM     20  C   UNL     1      43.365 -41.282 103.084  1.00  0.00     0.009 A 
ATOM     21  C   UNL     1      43.129 -40.299 102.105  1.00  0.00    -0.018 A 
BRANCH  21  22
ATOM     22  C   UNL     1      43.379 -40.574 100.681  1.00  0.00    -0.018 A 
ATOM     23  C   UNL     1      44.369 -41.489 100.283  1.00  0.00     0.009 A 
ATOM     24  C   UNL     1      42.636 -39.930  99.677  1.00  0.00     0.009 A 
ATOM     25  C   UNL     1      44.610 -41.747  98.931  1.00  0.00     0.001 A 
ATOM     26  C   UNL     1      42.876 -40.185  98.325  1.00  0.00     0.001 A 
ATOM     27  C   UNL     1      43.863 -41.094  97.953  1.00  0.00     0.000 A 
ENDBRANCH  21  22
ENDBRANCH  14  16
ENDBRANCH  10  14
ENDBRANCH   9  10
ENDBRANCH   4   9
ENDBRANCH   2   3
ENDBRANCH   1   2
BRANCH   1  28
ATOM     28  C   UNL     1      49.632 -37.679 106.958  1.00  0.00     0.042 C 
BRANCH  28  29
ATOM     29  C   UNL     1      49.006 -36.544 107.778  1.00  0.00     0.004 C 
BRANCH  29  30
ATOM     30  C   UNL     1      48.786 -35.253 106.980  1.00  0.00     0.012 C 
BRANCH  30  31
ATOM     31  C   UNL     1      48.099 -34.125 107.745  1.00  0.00     0.122 C 
BRANCH  31  32
ATOM     32  C   UNL     1      48.679 -33.926 109.116  1.00  0.00     0.303 C 
ATOM     33  O   UNL     1      48.148 -34.230 110.171  1.00  0.00    -0.252 OA
BRANCH  32  34
ATOM     34  O   UNL     1      49.906 -33.372 109.093  1.00  0.00    -0.481 OA
ATOM     35  H   UNL     1      50.384 -33.878 108.403  1.00  0.00     0.296 HD
ENDBRANCH  32  34
ENDBRANCH  31  32
ENDBRANCH  30  31
ENDBRANCH  29  30
ENDBRANCH  28  29
ENDBRANCH   1  28
TORSDOF 14
ENDMDL
MODEL 2
REMARK VINA RESULT:    -9.808      5.223      9.690
REMARK INTER + INTRA:         -19.073
REMARK INTER:                 -17.558
REMARK INTRA:                  -1.515
REMARK UNBOUND:                -1.524
REMARK SMILES CC(C)N(Cc1ccccc1OCCCCCC(=O)O)C(=O)c1ccc(-c2ccccc2)cc1
REMARK SMILES IDX 13 1 12 2 11 3 6 4 7 5 8 6 10 7 9 8 5 9 4 10 2 11 1 12 3 13
REMARK SMILES IDX 21 14 22 15 23 16 24 17 34 18 25 19 33 20 26 21 27 22 28 23
REMARK SMILES IDX 32 24 29 25 31 26 30 27 14 28 15 29 16 30 17 31 18 32 19 33
REMARK SMILES IDX 20 34
REMARK H PARENT 20 35
ROOT
ATOM      1  C   UNL     1      36.757 -37.960 103.486  1.00  0.00     0.229 C 
ENDROOT
BRANCH   1   2
ATOM      2  O   UNL     1      36.801 -38.466 104.827  1.00  0.00    -0.493 OA
BRANCH   2   3
ATOM      3  C   UNL     1      36.402 -37.503 105.717  1.00  0.00     0.124 A 
ATOM      4  C   UNL     1      36.580 -37.685 107.096  1.00  0.00     0.014 A 
ATOM      5  C   UNL     1      36.140 -36.664 107.954  1.00  0.00     0.009 A 
ATOM      6  C   UNL     1      35.599 -35.479 107.447  1.00  0.00     0.001 A 
ATOM      7  C   UNL     1      35.886 -36.308 105.205  1.00  0.00     0.047 A 
ATOM      8  C   UNL     1      35.481 -35.296 106.072  1.00  0.00     0.004 A 
BRANCH   4   9
ATOM      9  C   UNL     1      37.175 -38.961 107.655  1.00  0.00     0.159 C 
BRANCH   9  10
ATOM     10  N   UNL     1      38.157 -38.738 108.729  1.00  0.00    -0.332 N 
BRANCH  10  11
ATOM     11  C   UNL     1      37.807 -39.144 110.111  1.00  0.00     0.079 C 
ATOM     12  C   UNL     1      36.345 -39.554 110.286  1.00  0.00     0.031 C 
ATOM     13  C   UNL     1      38.190 -38.048 111.111  1.00  0.00     0.031 C 
ENDBRANCH  10  11
BRANCH  10  14
ATOM     14  C   UNL     1      39.287 -37.980 108.402  1.00  0.00     0.254 C 
ATOM     15  O   UNL     1      39.252 -36.784 108.117  1.00  0.00    -0.269 OA
BRANCH  14  16
ATOM     16  C   UNL     1      40.613 -38.626 108.365  1.00  0.00     0.040 A 
ATOM     17  C   UNL     1      40.966 -39.391 107.254  1.00  0.00     0.014 A 
ATOM     18  C   UNL     1      41.467 -38.543 109.468  1.00  0.00     0.014 A 
ATOM     19  C   UNL     1      42.203 -40.042 107.228  1.00  0.00     0.009 A 
ATOM     20  C   UNL     1      42.703 -39.195 109.433  1.00  0.00     0.009 A 
ATOM     21  C   UNL     1      43.094 -39.952 108.312  1.00  0.00    -0.018 A 
BRANCH  21  22
ATOM     22  C   UNL     1      44.395 -40.640 108.281  1.00  0.00    -0.018 A 
ATOM     23  C   UNL     1      44.574 -41.817 107.533  1.00  0.00     0.009 A 
ATOM     24  C   UNL     1      45.496 -40.142 108.997  1.00  0.00     0.009 A 
ATOM     25  C   UNL     1      45.807 -42.474 107.506  1.00  0.00     0.001 A 
ATOM     26  C   UNL     1      46.729 -40.797 108.973  1.00  0.00     0.001 A 
ATOM     27  C   UNL     1      46.884 -41.962 108.228  1.00  0.00     0.000 A 
ENDBRANCH  21  22
ENDBRANCH  14  16
ENDBRANCH  10  14
ENDBRANCH   9  10
ENDBRANCH   4   9
ENDBRANCH   2   3
ENDBRANCH   1   2
BRANCH   1  28
ATOM     28  C   UNL     1      38.145 -38.104 102.861  1.00  0.00     0.042 C 
BRANCH  28  29
ATOM     29  C   UNL     1      38.271 -37.296 101.563  1.00  0.00     0.004 C 
BRANCH  29  30
ATOM     30  C   UNL     1      37.486 -35.979 101.577  1.00  0.00     0.012 C 
BRANCH  30  31
ATOM     31  C   UNL     1      37.426 -35.244 100.241  1.00  0.00     0.122 C 
BRANCH  31  32
ATOM     32  C   UNL     1      38.459 -34.159 100.135  1.00  0.00     0.303 C 
ATOM     33  O   UNL     1      38.736 -33.527  99.129  1.00  0.00    -0.252 OA
BRANCH  32  34
ATOM     34  O   UNL     1      39.080 -33.908 101.303  1.00  0.00    -0.481 OA
ATOM     35  H   UNL     1      39.630 -34.704 101.458  1.00  0.00     0.296 HD
ENDBRANCH  32  34
ENDBRANCH  31  32
ENDBRANCH  30  31
ENDBRANCH  29  30
ENDBRANCH  28  29
ENDBRANCH   1  28
TORSDOF 14
ENDMDL
MODEL 3
REMARK VINA RESULT:    -9.751      3.295      6.693
REMARK INTER + INTRA:         -18.970
REMARK INTER:                 -17.145
REMARK INTRA:                  -1.825
REMARK UNBOUND:                -1.524
REMARK SMILES CC(C)N(Cc1ccccc1OCCCCCC(=O)O)C(=O)c1ccc(-c2ccccc2)cc1
REMARK SMILES IDX 13 1 12 2 11 3 6 4 7 5 8 6 10 7 9 8 5 9 4 10 2 11 1 12 3 13
REMARK SMILES IDX 21 14 22 15 23 16 24 17 34 18 25 19 33 20 26 21 27 22 28 23
REMARK SMILES IDX 32 24 29 25 31 26 30 27 14 28 15 29 16 30 17 31 18 32 19 33
REMARK SMILES IDX 20 34
REMARK H PARENT 20 35
ROOT
ATOM      1  C   UNL     1      40.480 -39.963 105.440  1.00  0.00     0.229 C 
ENDROOT
BRANCH   1   2
ATOM      2  O   UNL     1      41.283 -38.847 105.849  1.00  0.00    -0.493 OA
BRANCH   2   3
ATOM      3  C   UNL     1      41.589 -38.940 107.182  1.00  0.00     0.124 A 
ATOM      4  C   UNL     1      42.920 -39.073 107.603  1.00  0.00     0.014 A 
ATOM      5  C   UNL     1      43.165 -39.174 108.983  1.00  0.00     0.009 A 
ATOM      6  C   UNL     1      42.122 -39.084 109.908  1.00  0.00     0.001 A 
ATOM      7  C   UNL     1      40.546 -38.823 108.107  1.00  0.00     0.047 A 
ATOM      8  C   UNL     1      40.813 -38.897 109.472  1.00  0.00     0.004 A 
BRANCH   4   9
ATOM      9  C   UNL     1      44.059 -39.161 106.608  1.00  0.00     0.159 C 
BRANCH   9  10
ATOM     10  N   UNL     1      44.838 -40.408 106.705  1.00  0.00    -0.332 N 
BRANCH  10  11
ATOM     11  C   UNL     1      46.197 -40.355 107.297  1.00  0.00     0.079 C 
ATOM     12  C   UNL     1      46.333 -41.133 108.606  1.00  0.00     0.031 C 
ATOM     13  C   UNL     1      46.655 -38.904 107.473  1.00  0.00     0.031 C 
ENDBRANCH  10  11
BRANCH  10  14
ATOM     14  C   UNL     1      44.314 -41.530 106.054  1.00  0.00     0.254 C 
ATOM     15  O   UNL     1      43.973 -42.561 106.631  1.00  0.00    -0.269 OA
BRANCH  14  16
ATOM     16  C   UNL     1      44.169 -41.519 104.586  1.00  0.00     0.040 A 
ATOM     17  C   UNL     1      45.049 -42.275 103.810  1.00  0.00     0.014 A 
ATOM     18  C   UNL     1      43.218 -40.695 103.978  1.00  0.00     0.014 A 
ATOM     19  C   UNL     1      44.946 -42.239 102.416  1.00  0.00     0.009 A 
ATOM     20  C   UNL     1      43.122 -40.666 102.584  1.00  0.00     0.009 A 
ATOM     21  C   UNL     1      43.980 -41.439 101.779  1.00  0.00    -0.018 A 
BRANCH  21  22
ATOM     22  C   UNL     1      43.877 -41.403 100.311  1.00  0.00    -0.018 A 
ATOM     23  C   UNL     1      44.766 -42.136  99.505  1.00  0.00     0.009 A 
ATOM     24  C   UNL     1      42.889 -40.635  99.673  1.00  0.00     0.009 A 
ATOM     25  C   UNL     1      44.671 -42.099  98.111  1.00  0.00     0.001 A 
ATOM     26  C   UNL     1      42.794 -40.595  98.280  1.00  0.00     0.001 A 
ATOM     27  C   UNL     1      43.685 -41.327  97.500  1.00  0.00     0.000 A 
ENDBRANCH  21  22
ENDBRANCH  14  16
ENDBRANCH  10  14
ENDBRANCH   9  10
ENDBRANCH   4   9
ENDBRANCH   2   3
ENDBRANCH   1   2
BRANCH   1  28
ATOM     28  C   UNL     1      39.413 -39.467 104.464  1.00  0.00     0.042 C 
BRANCH  28  29
ATOM     29  C   UNL     1      40.036 -38.818 103.222  1.00  0.00     0.004 C 
BRANCH  29  30
ATOM     30  C   UNL     1      39.004 -38.257 102.236  1.00  0.00     0.012 C 
BRANCH  30  31
ATOM     31  C   UNL     1      37.711 -37.748 102.868  1.00  0.00     0.122 C 
BRANCH  31  32
ATOM     32  C   UNL     1      37.156 -36.550 102.153  1.00  0.00     0.303 C 
ATOM     33  O   UNL     1      36.230 -36.554 101.358  1.00  0.00    -0.252 OA
BRANCH  32  34
ATOM     34  O   UNL     1      37.776 -35.403 102.487  1.00  0.00    -0.481 OA
ATOM     35  H   UNL     1      37.254 -35.059 103.242  1.00  0.00     0.296 HD
ENDBRANCH  32  34
ENDBRANCH  31  32
ENDBRANCH  30  31
ENDBRANCH  29  30
ENDBRANCH  28  29
ENDBRANCH   1  28
TORSDOF 14
ENDMDL
MODEL 4
REMARK VINA RESULT:    -9.737      1.443      2.778
REMARK INTER + INTRA:         -18.946
REMARK INTER:                 -17.494
REMARK INTRA:                  -1.451
REMARK UNBOUND:                -1.524
REMARK SMILES CC(C)N(Cc1ccccc1OCCCCCC(=O)O)C(=O)c1ccc(-c2ccccc2)cc1
REMARK SMILES IDX 13 1 12 2 11 3 6 4 7 5 8 6 10 7 9 8 5 9 4 10 2 11 1 12 3 13
REMARK SMILES IDX 21 14 22 15 23 16 24 17 34 18 25 19 33 20 26 21 27 22 28 23
REMARK SMILES IDX 32 24 29 25 31 26 30 27 14 28 15 29 16 30 17 31 18 32 19 33
REMARK SMILES IDX 20 34
REMARK H PARENT 20 35
ROOT
ATOM      1  C   UNL     1      48.731 -37.947 107.922  1.00  0.00     0.229 C 
ENDROOT
BRANCH   1   2
ATOM      2  O   UNL     1      47.699 -38.644 107.209  1.00  0.00    -0.493 OA
BRANCH   2   3
ATOM      3  C   UNL     1      46.564 -38.730 107.973  1.00  0.00     0.124 A 
ATOM      4  C   UNL     1      45.724 -39.850 107.880  1.00  0.00     0.014 A 
ATOM      5  C   UNL     1      44.571 -39.872 108.683  1.00  0.00     0.009 A 
ATOM      6  C   UNL     1      44.302 -38.841 109.587  1.00  0.00     0.001 A 
ATOM      7  C   UNL     1      46.311 -37.710 108.895  1.00  0.00     0.047 A 
ATOM      8  C   UNL     1      45.177 -37.764 109.701  1.00  0.00     0.004 A 
BRANCH   4   9
ATOM      9  C   UNL     1      46.013 -40.978 106.911  1.00  0.00     0.159 C 
BRANCH   9  10
ATOM     10  N   UNL     1      44.858 -41.858 106.663  1.00  0.00    -0.332 N 
BRANCH  10  11
ATOM     11  C   UNL     1      44.975 -43.298 106.997  1.00  0.00     0.079 C 
ATOM     12  C   UNL     1      43.643 -43.963 107.346  1.00  0.00     0.031 C 
ATOM     13  C   UNL     1      46.002 -43.513 108.114  1.00  0.00     0.031 C 
ENDBRANCH  10  11
BRANCH  10  14
ATOM     14  C   UNL     1      43.789 -41.308 105.948  1.00  0.00     0.254 C 
ATOM     15  O   UNL     1      42.784 -40.831 106.473  1.00  0.00    -0.269 OA
BRANCH  14  16
ATOM     16  C   UNL     1      43.825 -41.304 104.473  1.00  0.00     0.040 A 
ATOM     17  C   UNL     1      43.086 -40.346 103.777  1.00  0.00     0.014 A 
ATOM     18  C   UNL     1      44.522 -42.299 103.783  1.00  0.00     0.014 A 
ATOM     19  C   UNL     1      43.081 -40.359 102.379  1.00  0.00     0.009 A 
ATOM     20  C   UNL     1      44.512 -42.304 102.384  1.00  0.00     0.009 A 
ATOM     21  C   UNL     1      43.796 -41.333 101.659  1.00  0.00    -0.018 A 
BRANCH  21  22
ATOM     22  C   UNL     1      43.786 -41.344 100.187  1.00  0.00    -0.018 A 
ATOM     23  C   UNL     1      42.827 -40.614  99.464  1.00  0.00     0.009 A 
ATOM     24  C   UNL     1      44.734 -42.085  99.461  1.00  0.00     0.009 A 
ATOM     25  C   UNL     1      42.814 -40.627  98.067  1.00  0.00     0.001 A 
ATOM     26  C   UNL     1      44.722 -42.100  98.065  1.00  0.00     0.001 A 
ATOM     27  C   UNL     1      43.762 -41.371  97.369  1.00  0.00     0.000 A 
ENDBRANCH  21  22
ENDBRANCH  14  16
ENDBRANCH  10  14
ENDBRANCH   9  10
ENDBRANCH   4   9
ENDBRANCH   2   3
ENDBRANCH   1   2
BRANCH   1  28
ATOM     28  C   UNL     1      49.409 -36.965 106.968  1.00  0.00     0.042 C 
BRANCH  28  29
ATOM     29  C   UNL     1      48.427 -35.911 106.442  1.00  0.00     0.004 C 
BRANCH  29  30
ATOM     30  C   UNL     1      48.860 -34.467 106.726  1.00  0.00     0.012 C 
BRANCH  30  31
ATOM     31  C   UNL     1      48.105 -33.773 107.856  1.00  0.00     0.122 C 
BRANCH  31  32
ATOM     32  C   UNL     1      48.669 -34.103 109.209  1.00  0.00     0.303 C 
ATOM     33  O   UNL     1      49.821 -33.928 109.569  1.00  0.00    -0.252 OA
BRANCH  32  34
ATOM     34  O   UNL     1      47.752 -34.617 110.050  1.00  0.00    -0.481 OA
ATOM     35  H   UNL     1      48.065 -34.348 110.939  1.00  0.00     0.296 HD
ENDBRANCH  32  34
ENDBRANCH  31  32
ENDBRANCH  30  31
ENDBRANCH  29  30
ENDBRANCH  28  29
ENDBRANCH   1  28
TORSDOF 14
ENDMDL
MODEL 5
REMARK VINA RESULT:    -9.672      3.652      7.357
REMARK INTER + INTRA:         -18.829
REMARK INTER:                 -16.662
REMARK INTRA:                  -2.167
REMARK UNBOUND:                -1.524
REMARK SMILES CC(C)N(Cc1ccccc1OCCCCCC(=O)O)C(=O)c1ccc(-c2ccccc2)cc1
REMARK SMILES IDX 13 1 12 2 11 3 6 4 7 5 8 6 10 7 9 8 5 9 4 10 2 11 1 12 3 13
REMARK SMILES IDX 21 14 22 15 23 16 24 17 34 18 25 19 33 20 26 21 27 22 28 23
REMARK SMILES IDX 32 24 29 25 31 26 30 27 14 28 15 29 16 30 17 31 18 32 19 33
REMARK SMILES IDX 20 34
REMARK H PARENT 20 35
ROOT
ATOM      1  C   UNL     1      37.958 -38.896 104.285  1.00  0.00     0.229 C 
ENDROOT
BRANCH   1   2
ATOM      2  O   UNL     1      39.157 -39.397 104.893  1.00  0.00    -0.493 OA
BRANCH   2   3
ATOM      3  C   UNL     1      39.180 -39.090 106.229  1.00  0.00     0.124 A 
ATOM      4  C   UNL     1      40.209 -39.569 107.054  1.00  0.00     0.014 A 
ATOM      5  C   UNL     1      40.169 -39.226 108.416  1.00  0.00     0.009 A 
ATOM      6  C   UNL     1      39.172 -38.388 108.920  1.00  0.00     0.001 A 
ATOM      7  C   UNL     1      38.196 -38.230 106.725  1.00  0.00     0.047 A 
ATOM      8  C   UNL     1      38.190 -37.880 108.073  1.00  0.00     0.004 A 
BRANCH   4   9
ATOM      9  C   UNL     1      41.301 -40.470 106.515  1.00  0.00     0.159 C 
BRANCH   9  10
ATOM     10  N   UNL     1      42.584 -39.782 106.295  1.00  0.00    -0.332 N 
BRANCH  10  11
ATOM     11  C   UNL     1      43.646 -39.906 107.323  1.00  0.00     0.079 C 
ATOM     12  C   UNL     1      44.922 -39.133 106.993  1.00  0.00     0.031 C 
ATOM     13  C   UNL     1      43.957 -41.380 107.604  1.00  0.00     0.031 C 
ENDBRANCH  10  11
BRANCH  10  14
ATOM     14  C   UNL     1      42.647 -38.898 105.212  1.00  0.00     0.254 C 
ATOM     15  O   UNL     1      42.538 -37.677 105.316  1.00  0.00    -0.269 OA
BRANCH  14  16
ATOM     16  C   UNL     1      42.833 -39.428 103.848  1.00  0.00     0.040 A 
ATOM     17  C   UNL     1      43.367 -40.706 103.682  1.00  0.00     0.014 A 
ATOM     18  C   UNL     1      42.556 -38.627 102.737  1.00  0.00     0.014 A 
ATOM     19  C   UNL     1      43.585 -41.202 102.393  1.00  0.00     0.009 A 
ATOM     20  C   UNL     1      42.776 -39.130 101.452  1.00  0.00     0.009 A 
ATOM     21  C   UNL     1      43.290 -40.426 101.257  1.00  0.00    -0.018 A 
BRANCH  21  22
ATOM     22  C   UNL     1      43.523 -40.952  99.902  1.00  0.00    -0.018 A 
ATOM     23  C   UNL     1      44.600 -41.814  99.635  1.00  0.00     0.009 A 
ATOM     24  C   UNL     1      42.676 -40.606  98.835  1.00  0.00     0.009 A 
ATOM     25  C   UNL     1      44.824 -42.310  98.348  1.00  0.00     0.001 A 
ATOM     26  C   UNL     1      42.899 -41.100  97.548  1.00  0.00     0.001 A 
ATOM     27  C   UNL     1      43.973 -41.951  97.305  1.00  0.00     0.000 A 
ENDBRANCH  21  22
ENDBRANCH  14  16
ENDBRANCH  10  14
ENDBRANCH   9  10
ENDBRANCH   4   9
ENDBRANCH   2   3
ENDBRANCH   1   2
BRANCH   1  28
ATOM     28  C   UNL     1      38.299 -38.365 102.892  1.00  0.00     0.042 C 
BRANCH  28  29
ATOM     29  C   UNL     1      37.563 -37.056 102.586  1.00  0.00     0.004 C 
BRANCH  29  30
ATOM     30  C   UNL     1      37.899 -36.466 101.211  1.00  0.00     0.012 C 
BRANCH  30  31
ATOM     31  C   UNL     1      37.427 -35.032 100.986  1.00  0.00     0.122 C 
BRANCH  31  32
ATOM     32  C   UNL     1      38.509 -34.154 100.425  1.00  0.00     0.303 C 
ATOM     33  O   UNL     1      38.584 -33.753  99.275  1.00  0.00    -0.252 OA
BRANCH  32  34
ATOM     34  O   UNL     1      39.432 -33.805 101.341  1.00  0.00    -0.481 OA
ATOM     35  H   UNL     1      40.172 -33.444 100.809  1.00  0.00     0.296 HD
ENDBRANCH  32  34
ENDBRANCH  31  32
ENDBRANCH  30  31
ENDBRANCH  29  30
ENDBRANCH  28  29
ENDBRANCH   1  28
TORSDOF 14
ENDMDL
MODEL 6
REMARK VINA RESULT:    -9.569      2.731      7.924
REMARK INTER + INTRA:         -18.645
REMARK INTER:                 -16.812
REMARK INTRA:                  -1.833
REMARK UNBOUND:                -1.524
REMARK SMILES CC(C)N(Cc1ccccc1OCCCCCC(=O)O)C(=O)c1ccc(-c2ccccc2)cc1
REMARK SMILES IDX 13 1 12 2 11 3 6 4 7 5 8 6 10 7 9 8 5 9 4 10 2 11 1 12 3 13
REMARK SMILES IDX 21 14 22 15 23 16 24 17 34 18 25 19 33 20 26 21 27 22 28 23
REMARK SMILES IDX 32 24 29 25 31 26 30 27 14 28 15 29 16 30 17 31 18 32 19 33
REMARK SMILES IDX 20 34
REMARK H PARENT 20 35
ROOT
ATOM      1  C   UNL     1      43.976 -41.857 103.523  1.00  0.00     0.229 C 
ENDROOT
BRANCH   1   2
ATOM      2  O   UNL     1      45.201 -42.135 104.217  1.00  0.00    -0.493 OA
BRANCH   2   3
ATOM      3  C   UNL     1      44.943 -42.521 105.507  1.00  0.00     0.124 A 
ATOM      4  C   UNL     1      44.859 -41.570 106.534  1.00  0.00     0.014 A 
ATOM      5  C   UNL     1      44.603 -42.033 107.836  1.00  0.00     0.009 A 
ATOM      6  C   UNL     1      44.379 -43.389 108.088  1.00  0.00     0.001 A 
ATOM      7  C   UNL     1      44.694 -43.875 105.752  1.00  0.00     0.047 A 
ATOM      8  C   UNL     1      44.413 -44.310 107.045  1.00  0.00     0.004 A 
BRANCH   4   9
ATOM      9  C   UNL     1      45.090 -40.097 106.270  1.00  0.00     0.159 C 
BRANCH   9  10
ATOM     10  N   UNL     1      45.947 -39.440 107.271  1.00  0.00    -0.332 N 
BRANCH  10  11
ATOM     11  C   UNL     1      47.264 -40.044 107.588  1.00  0.00     0.079 C 
ATOM     12  C   UNL     1      47.503 -40.262 109.082  1.00  0.00     0.031 C 
ATOM     13  C   UNL     1      48.399 -39.223 106.966  1.00  0.00     0.031 C 
ENDBRANCH  10  11
BRANCH  10  14
ATOM     14  C   UNL     1      45.377 -38.390 107.998  1.00  0.00     0.254 C 
ATOM     15  O   UNL     1      46.004 -37.410 108.397  1.00  0.00    -0.269 OA
BRANCH  14  16
ATOM     16  C   UNL     1      43.943 -38.438 108.344  1.00  0.00     0.040 A 
ATOM     17  C   UNL     1      43.036 -37.693 107.590  1.00  0.00     0.014 A 
ATOM     18  C   UNL     1      43.513 -39.153 109.465  1.00  0.00     0.014 A 
ATOM     19  C   UNL     1      41.681 -37.699 107.936  1.00  0.00     0.009 A 
ATOM     20  C   UNL     1      42.156 -39.155 109.802  1.00  0.00     0.009 A 
ATOM     21  C   UNL     1      41.217 -38.433 109.042  1.00  0.00    -0.018 A 
BRANCH  21  22
ATOM     22  C   UNL     1      39.790 -38.435 109.403  1.00  0.00    -0.018 A 
ATOM     23  C   UNL     1      38.806 -38.788 108.463  1.00  0.00     0.009 A 
ATOM     24  C   UNL     1      39.369 -38.082 110.696  1.00  0.00     0.009 A 
ATOM     25  C   UNL     1      37.451 -38.786 108.803  1.00  0.00     0.001 A 
ATOM     26  C   UNL     1      38.014 -38.078 111.038  1.00  0.00     0.001 A 
ATOM     27  C   UNL     1      37.057 -38.430 110.092  1.00  0.00     0.000 A 
ENDBRANCH  21  22
ENDBRANCH  14  16
ENDBRANCH  10  14
ENDBRANCH   9  10
ENDBRANCH   4   9
ENDBRANCH   2   3
ENDBRANCH   1   2
BRANCH   1  28
ATOM     28  C   UNL     1      44.017 -42.548 102.161  1.00  0.00     0.042 C 
BRANCH  28  29
ATOM     29  C   UNL     1      43.553 -41.616 101.035  1.00  0.00     0.004 C 
BRANCH  29  30
ATOM     30  C   UNL     1      43.401 -40.153 101.470  1.00  0.00     0.012 C 
BRANCH  30  31
ATOM     31  C   UNL     1      42.387 -39.340 100.669  1.00  0.00     0.122 C 
BRANCH  31  32
ATOM     32  C   UNL     1      41.672 -38.324 101.512  1.00  0.00     0.303 C 
ATOM     33  O   UNL     1      41.410 -38.433 102.699  1.00  0.00    -0.252 OA
BRANCH  32  34
ATOM     34  O   UNL     1      41.337 -37.213 100.829  1.00  0.00    -0.481 OA
ATOM     35  H   UNL     1      40.562 -37.486 100.294  1.00  0.00     0.296 HD
ENDBRANCH  32  34
ENDBRANCH  31  32
ENDBRANCH  30  31
ENDBRANCH  29  30
ENDBRANCH  28  29
ENDBRANCH   1  28
TORSDOF 14
ENDMDL
MODEL 7
REMARK VINA RESULT:    -9.468      3.309      8.903
REMARK INTER + INTRA:         -18.464
REMARK INTER:                 -16.224
REMARK INTRA:                  -2.240
REMARK UNBOUND:                -1.524
REMARK SMILES CC(C)N(Cc1ccccc1OCCCCCC(=O)O)C(=O)c1ccc(-c2ccccc2)cc1
REMARK SMILES IDX 13 1 12 2 11 3 6 4 7 5 8 6 10 7 9 8 5 9 4 10 2 11 1 12 3 13
REMARK SMILES IDX 21 14 22 15 23 16 24 17 34 18 25 19 33 20 26 21 27 22 28 23
REMARK SMILES IDX 32 24 29 25 31 26 30 27 14 28 15 29 16 30 17 31 18 32 19 33
REMARK SMILES IDX 20 34
REMARK H PARENT 20 35
ROOT
ATOM      1  C   UNL     1      41.533 -39.827 104.379  1.00  0.00     0.229 C 
ENDROOT
BRANCH   1   2
ATOM      2  O   UNL     1      42.648 -39.871 105.282  1.00  0.00    -0.493 OA
BRANCH   2   3
ATOM      3  C   UNL     1      43.551 -40.822 104.882  1.00  0.00     0.124 A 
ATOM      4  C   UNL     1      44.405 -41.432 105.812  1.00  0.00     0.014 A 
ATOM      5  C   UNL     1      45.315 -42.391 105.336  1.00  0.00     0.009 A 
ATOM      6  C   UNL     1      45.326 -42.768 103.990  1.00  0.00     0.001 A 
ATOM      7  C   UNL     1      43.542 -41.216 103.540  1.00  0.00     0.047 A 
ATOM      8  C   UNL     1      44.432 -42.189 103.094  1.00  0.00     0.004 A 
BRANCH   4   9
ATOM      9  C   UNL     1      44.393 -41.038 107.275  1.00  0.00     0.159 C 
BRANCH   9  10
ATOM     10  N   UNL     1      45.346 -39.966 107.609  1.00  0.00    -0.332 N 
BRANCH  10  11
ATOM     11  C   UNL     1      46.720 -40.338 108.027  1.00  0.00     0.079 C 
ATOM     12  C   UNL     1      47.782 -40.089 106.956  1.00  0.00     0.031 C 
ATOM     13  C   UNL     1      46.763 -41.791 108.512  1.00  0.00     0.031 C 
ENDBRANCH  10  11
BRANCH  10  14
ATOM     14  C   UNL     1      44.830 -38.668 107.694  1.00  0.00     0.254 C 
ATOM     15  O   UNL     1      45.478 -37.654 107.441  1.00  0.00    -0.269 OA
BRANCH  14  16
ATOM     16  C   UNL     1      43.436 -38.466 108.132  1.00  0.00     0.040 A 
ATOM     17  C   UNL     1      42.933 -39.240 109.178  1.00  0.00     0.014 A 
ATOM     18  C   UNL     1      42.607 -37.570 107.451  1.00  0.00     0.014 A 
ATOM     19  C   UNL     1      41.600 -39.084 109.573  1.00  0.00     0.009 A 
ATOM     20  C   UNL     1      41.277 -37.421 107.854  1.00  0.00     0.009 A 
ATOM     21  C   UNL     1      40.752 -38.171 108.922  1.00  0.00    -0.018 A 
BRANCH  21  22
ATOM     22  C   UNL     1      39.349 -38.012 109.341  1.00  0.00    -0.018 A 
ATOM     23  C   UNL     1      38.969 -38.194 110.682  1.00  0.00     0.009 A 
ATOM     24  C   UNL     1      38.350 -37.676 108.413  1.00  0.00     0.009 A 
ATOM     25  C   UNL     1      37.637 -38.048 111.079  1.00  0.00     0.001 A 
ATOM     26  C   UNL     1      37.018 -37.531 108.807  1.00  0.00     0.001 A 
ATOM     27  C   UNL     1      36.662 -37.717 110.140  1.00  0.00     0.000 A 
ENDBRANCH  21  22
ENDBRANCH  14  16
ENDBRANCH  10  14
ENDBRANCH   9  10
ENDBRANCH   4   9
ENDBRANCH   2   3
ENDBRANCH   1   2
BRANCH   1  28
ATOM     28  C   UNL     1      40.240 -39.872 105.194  1.00  0.00     0.042 C 
BRANCH  28  29
ATOM     29  C   UNL     1      39.056 -39.286 104.414  1.00  0.00     0.004 C 
BRANCH  29  30
ATOM     30  C   UNL     1      37.772 -39.164 105.243  1.00  0.00     0.012 C 
BRANCH  30  31
ATOM     31  C   UNL     1      36.767 -38.133 104.736  1.00  0.00     0.122 C 
BRANCH  31  32
ATOM     32  C   UNL     1      36.044 -38.595 103.504  1.00  0.00     0.303 C 
ATOM     33  O   UNL     1      35.311 -39.568 103.424  1.00  0.00    -0.252 OA
BRANCH  32  34
ATOM     34  O   UNL     1      36.259 -37.802 102.437  1.00  0.00    -0.481 OA
ATOM     35  H   UNL     1      35.583 -37.098 102.522  1.00  0.00     0.296 HD
ENDBRANCH  32  34
ENDBRANCH  31  32
ENDBRANCH  30  31
ENDBRANCH  29  30
ENDBRANCH  28  29
ENDBRANCH   1  28
TORSDOF 14
ENDMDL
MODEL 8
REMARK VINA RESULT:    -9.327      3.288      6.630
REMARK INTER + INTRA:         -18.211
REMARK INTER:                 -16.070
REMARK INTRA:                  -2.141
REMARK UNBOUND:                -1.524
REMARK SMILES CC(C)N(Cc1ccccc1OCCCCCC(=O)O)C(=O)c1ccc(-c2ccccc2)cc1
REMARK SMILES IDX 13 1 12 2 11 3 6 4 7 5 8 6 10 7 9 8 5 9 4 10 2 11 1 12 3 13
REMARK SMILES IDX 21 14 22 15 23 16 24 17 34 18 25 19 33 20 26 21 27 22 28 23
REMARK SMILES IDX 32 24 29 25 31 26 30 27 14 28 15 29 16 30 17 31 18 32 19 33
REMARK SMILES IDX 20 34
REMARK H PARENT 20 35
ROOT
ATOM      1  C   UNL     1      40.073 -39.593 105.527  1.00  0.00     0.229 C 
ENDROOT
BRANCH   1   2
ATOM      2  O   UNL     1      41.209 -38.791 105.879  1.00  0.00    -0.493 OA
BRANCH   2   3
ATOM      3  C   UNL     1      41.482 -38.910 107.217  1.00  0.00     0.124 A 
ATOM      4  C   UNL     1      42.807 -39.001 107.670  1.00  0.00     0.014 A 
ATOM      5  C   UNL     1      43.019 -39.131 109.053  1.00  0.00     0.009 A 
ATOM      6  C   UNL     1      41.949 -39.109 109.952  1.00  0.00     0.001 A 
ATOM      7  C   UNL     1      40.412 -38.861 108.115  1.00  0.00     0.047 A 
ATOM      8  C   UNL     1      40.646 -38.963 109.485  1.00  0.00     0.004 A 
BRANCH   4   9
ATOM      9  C   UNL     1      43.974 -39.015 106.705  1.00  0.00     0.159 C 
BRANCH   9  10
ATOM     10  N   UNL     1      44.733 -40.277 106.708  1.00  0.00    -0.332 N 
BRANCH  10  11
ATOM     11  C   UNL     1      46.138 -40.262 107.182  1.00  0.00     0.079 C 
ATOM     12  C   UNL     1      46.417 -41.238 108.326  1.00  0.00     0.031 C 
ATOM     13  C   UNL     1      46.567 -38.841 107.561  1.00  0.00     0.031 C 
ENDBRANCH  10  11
BRANCH  10  14
ATOM     14  C   UNL     1      44.134 -41.375 106.082  1.00  0.00     0.254 C 
ATOM     15  O   UNL     1      43.706 -42.359 106.682  1.00  0.00    -0.269 OA
BRANCH  14  16
ATOM     16  C   UNL     1      44.011 -41.397 104.611  1.00  0.00     0.040 A 
ATOM     17  C   UNL     1      44.780 -42.300 103.878  1.00  0.00     0.014 A 
ATOM     18  C   UNL     1      43.198 -40.466 103.959  1.00  0.00     0.014 A 
ATOM     19  C   UNL     1      44.701 -42.301 102.482  1.00  0.00     0.009 A 
ATOM     20  C   UNL     1      43.125 -40.474 102.563  1.00  0.00     0.009 A 
ATOM     21  C   UNL     1      43.871 -41.393 101.801  1.00  0.00    -0.018 A 
BRANCH  21  22
ATOM     22  C   UNL     1      43.793 -41.396 100.331  1.00  0.00    -0.018 A 
ATOM     23  C   UNL     1      42.788 -40.681  99.657  1.00  0.00     0.009 A 
ATOM     24  C   UNL     1      44.720 -42.115  99.558  1.00  0.00     0.009 A 
ATOM     25  C   UNL     1      42.710 -40.687  98.262  1.00  0.00     0.001 A 
ATOM     26  C   UNL     1      44.644 -42.124  98.163  1.00  0.00     0.001 A 
ATOM     27  C   UNL     1      43.640 -41.410  97.516  1.00  0.00     0.000 A 
ENDBRANCH  21  22
ENDBRANCH  14  16
ENDBRANCH  10  14
ENDBRANCH   9  10
ENDBRANCH   4   9
ENDBRANCH   2   3
ENDBRANCH   1   2
BRANCH   1  28
ATOM     28  C   UNL     1      39.670 -39.269 104.088  1.00  0.00     0.042 C 
BRANCH  28  29
ATOM     29  C   UNL     1      38.153 -39.102 103.946  1.00  0.00     0.004 C 
BRANCH  29  30
ATOM     30  C   UNL     1      37.394 -39.188 105.276  1.00  0.00     0.012 C 
BRANCH  30  31
ATOM     31  C   UNL     1      36.798 -37.873 105.770  1.00  0.00     0.122 C 
BRANCH  31  32
ATOM     32  C   UNL     1      36.743 -37.795 107.269  1.00  0.00     0.303 C 
ATOM     33  O   UNL     1      36.512 -38.722 108.028  1.00  0.00    -0.252 OA
BRANCH  32  34
ATOM     34  O   UNL     1      37.002 -36.562 107.743  1.00  0.00    -0.481 OA
ATOM     35  H   UNL     1      37.956 -36.588 107.969  1.00  0.00     0.296 HD
ENDBRANCH  32  34
ENDBRANCH  31  32
ENDBRANCH  30  31
ENDBRANCH  29  30
ENDBRANCH  28  29
ENDBRANCH   1  28
TORSDOF 14
ENDMDL
MODEL 9
REMARK VINA RESULT:    -9.158      3.406      8.483
REMARK INTER + INTRA:         -17.909
REMARK INTER:                 -16.359
REMARK INTRA:                  -1.550
REMARK UNBOUND:                -1.524
REMARK SMILES CC(C)N(Cc1ccccc1OCCCCCC(=O)O)C(=O)c1ccc(-c2ccccc2)cc1
REMARK SMILES IDX 13 1 12 2 11 3 6 4 7 5 8 6 10 7 9 8 5 9 4 10 2 11 1 12 3 13
REMARK SMILES IDX 21 14 22 15 23 16 24 17 34 18 25 19 33 20 26 21 27 22 28 23
REMARK SMILES IDX 32 24 29 25 31 26 30 27 14 28 15 29 16 30 17 31 18 32 19 33
REMARK SMILES IDX 20 34
REMARK H PARENT 20 35
ROOT
ATOM      1  C   UNL     1      43.669 -41.832 103.747  1.00  0.00     0.229 C 
ENDROOT
BRANCH   1   2
ATOM      2  O   UNL     1      44.989 -42.004 104.283  1.00  0.00    -0.493 OA
BRANCH   2   3
ATOM      3  C   UNL     1      44.925 -42.411 105.591  1.00  0.00     0.124 A 
ATOM      4  C   UNL     1      44.991 -41.475 106.634  1.00  0.00     0.014 A 
ATOM      5  C   UNL     1      44.931 -41.958 107.952  1.00  0.00     0.009 A 
ATOM      6  C   UNL     1      44.749 -43.318 108.214  1.00  0.00     0.001 A 
ATOM      7  C   UNL     1      44.717 -43.769 105.849  1.00  0.00     0.047 A 
ATOM      8  C   UNL     1      44.632 -44.224 107.163  1.00  0.00     0.004 A 
BRANCH   4   9
ATOM      9  C   UNL     1      45.177 -39.997 106.360  1.00  0.00     0.159 C 
BRANCH   9  10
ATOM     10  N   UNL     1      46.024 -39.311 107.351  1.00  0.00    -0.332 N 
BRANCH  10  11
ATOM     11  C   UNL     1      47.367 -39.865 107.647  1.00  0.00     0.079 C 
ATOM     12  C   UNL     1      47.692 -39.941 109.139  1.00  0.00     0.031 C 
ATOM     13  C   UNL     1      48.451 -39.089 106.890  1.00  0.00     0.031 C 
ENDBRANCH  10  11
BRANCH  10  14
ATOM     14  C   UNL     1      45.424 -38.285 108.090  1.00  0.00     0.254 C 
ATOM     15  O   UNL     1      46.013 -37.273 108.464  1.00  0.00    -0.269 OA
BRANCH  14  16
ATOM     16  C   UNL     1      44.006 -38.403 108.481  1.00  0.00     0.040 A 
ATOM     17  C   UNL     1      43.036 -37.737 107.731  1.00  0.00     0.014 A 
ATOM     18  C   UNL     1      43.650 -39.101 109.638  1.00  0.00     0.014 A 
ATOM     19  C   UNL     1      41.694 -37.809 108.117  1.00  0.00     0.009 A 
ATOM     20  C   UNL     1      42.306 -39.168 110.016  1.00  0.00     0.009 A 
ATOM     21  C   UNL     1      41.306 -38.528 109.262  1.00  0.00    -0.018 A 
BRANCH  21  22
ATOM     22  C   UNL     1      39.891 -38.598 109.666  1.00  0.00    -0.018 A 
ATOM     23  C   UNL     1      39.449 -38.006 110.862  1.00  0.00     0.009 A 
ATOM     24  C   UNL     1      38.943 -39.260 108.869  1.00  0.00     0.009 A 
ATOM     25  C   UNL     1      38.108 -38.077 111.248  1.00  0.00     0.001 A 
ATOM     26  C   UNL     1      37.602 -39.333 109.253  1.00  0.00     0.001 A 
ATOM     27  C   UNL     1      37.186 -38.741 110.442  1.00  0.00     0.000 A 
ENDBRANCH  21  22
ENDBRANCH  14  16
ENDBRANCH  10  14
ENDBRANCH   9  10
ENDBRANCH   4   9
ENDBRANCH   2   3
ENDBRANCH   1   2
BRANCH   1  28
ATOM     28  C   UNL     1      43.749 -41.878 102.221  1.00  0.00     0.042 C 
BRANCH  28  29
ATOM     29  C   UNL     1      43.678 -40.475 101.605  1.00  0.00     0.004 C 
BRANCH  29  30
ATOM     30  C   UNL     1      44.245 -40.397 100.182  1.00  0.00     0.012 C 
BRANCH  30  31
ATOM     31  C   UNL     1      44.546 -41.743  99.528  1.00  0.00     0.122 C 
BRANCH  31  32
ATOM     32  C   UNL     1      44.691 -41.636  98.037  1.00  0.00     0.303 C 
ATOM     33  O   UNL     1      44.594 -40.614  97.378  1.00  0.00    -0.252 OA
BRANCH  32  34
ATOM     34  O   UNL     1      44.971 -42.814  97.449  1.00  0.00    -0.481 OA
ATOM     35  H   UNL     1      44.676 -42.695  96.522  1.00  0.00     0.296 HD
ENDBRANCH  32  34
ENDBRANCH  31  32
ENDBRANCH  30  31
ENDBRANCH  29  30
ENDBRANCH  28  29
ENDBRANCH   1  28
TORSDOF 14
ENDMDL
