MODEL 2
REMARK minimizedAffinity -6.6264863
REMARK CNNscore 0.817603171
REMARK CNNaffinity 6.09674311
REMARK SMILES CCOC(=O)c1cn2ncnc(NCc3ccccc3)c2c1CC
REMARK SMILES IDX 6 1 7 2 8 3 9 4 10 5 11 6 12 7 21 8 22 9 4 10 5 11 3 12 2 13
REMARK SMILES IDX 1 14 23 15 24 16 13 17 14 19 15 20 20 21 16 22 19 23 17 24
REMARK SMILES IDX 18 25
REMARK H PARENT 13 18
ROOT
ATOM      1  C   UNL     1      17.189  34.491  16.261  1.00  0.00     0.083 A 
ATOM      2  C   UNL     1      15.851  34.681  16.619  1.00  0.00     0.129 A 
ATOM      3  N   UNL     1      15.060  34.535  15.513  1.00  0.00    -0.235 N 
ATOM      4  N   UNL     1      13.718  34.638  15.505  1.00  0.00    -0.156 NA
ATOM      5  C   UNL     1      13.178  34.438  14.280  1.00  0.00     0.247 A 
ATOM      6  N   UNL     1      13.837  34.160  13.133  1.00  0.00    -0.215 NA
ATOM      7  C   UNL     1      15.195  34.068  13.192  1.00  0.00     0.154 A 
ATOM      8  C   UNL     1      15.892  34.256  14.409  1.00  0.00     0.111 A 
ATOM      9  C   UNL     1      17.247  34.247  14.872  1.00  0.00    -0.003 A 
ENDROOT
BRANCH   1  10
ATOM     10  C   UNL     1      18.325  34.533  17.197  1.00  0.00     0.340 C 
ATOM     11  O   UNL     1      18.257  34.199  18.381  1.00  0.00    -0.246 OA
BRANCH  10  12
ATOM     12  O   UNL     1      19.445  35.001  16.592  1.00  0.00    -0.462 OA
BRANCH  12  13
ATOM     13  C   UNL     1      19.740  36.392  16.578  1.00  0.00     0.230 C 
ATOM     14  C   UNL     1      20.382  36.762  15.238  1.00  0.00     0.049 C 
ENDBRANCH  12  13
ENDBRANCH  10  12
ENDBRANCH   1  10
BRANCH   9  15
ATOM     15  C   UNL     1      18.466  33.997  13.993  1.00  0.00     0.035 C 
ATOM     16  C   UNL     1      18.777  32.502  13.849  1.00  0.00     0.009 C 
ENDBRANCH   9  15
BRANCH   7  17
ATOM     17  N   UNL     1      15.917  33.765  12.025  1.00  0.00    -0.364 N 
ATOM     18  H   UNL     1      16.395  32.877  11.974  1.00  0.00     0.162 HD
BRANCH  17  19
ATOM     19  C   UNL     1      16.195  34.752  10.982  1.00  0.00     0.150 C 
BRANCH  19  20
ATOM     20  C   UNL     1      17.111  34.185   9.905  1.00  0.00    -0.029 A 
ATOM     21  C   UNL     1      17.416  32.820   9.897  1.00  0.00     0.005 A 
ATOM     22  C   UNL     1      17.644  35.026   8.923  1.00  0.00     0.005 A 
ATOM     23  C   UNL     1      18.256  32.300   8.916  1.00  0.00     0.000 A 
ATOM     24  C   UNL     1      18.483  34.505   7.941  1.00  0.00     0.000 A 
ATOM     25  C   UNL     1      18.785  33.145   7.942  1.00  0.00     0.000 A 
ENDBRANCH  19  20
ENDBRANCH  17  19
ENDBRANCH   7  17
TORSDOF 7
ENDMDL
