REMARK VINA RESULT:    -7.489      0.000      0.000
REMARK INTER + INTRA:         -18.199
REMARK INTER:                 -16.464
REMARK INTRA:                  -1.736
REMARK UNBOUND:                -1.736
REMARK SMILES COC(=O)c1ccccc1CS(=O)(=O)N[C@H]1CCCCN(CC(=O)N[C@@H](CCCNC(=N)N)C(=O)O)C1=O
REMARK SMILES IDX 37 1 38 2 16 3 15 5 12 7 13 8 14 9 11 10 10 11 5 12 6 13
REMARK SMILES IDX 7 14 9 15 8 16 3 17 4 18 2 19 1 20 21 21 20 22 19 23 18 24
REMARK SMILES IDX 17 25 22 27 23 28 24 29 25 30 26 32 27 33 28 34 29 35 30 36
REMARK SMILES IDX 31 37 32 38 33 39 34 44 35 45 36 46
REMARK H PARENT 15 6 25 31 30 40 32 41 33 42 33 43 36 47
REMARK Flexibility Score:  209.900
ROOT
ATOM      1  C   UNL     1      -5.340  12.637  22.503  1.00  0.00     0.241 C 
ATOM      2  O   UNL     1      -6.348  11.939  22.637  1.00  0.00    -0.273 OA
ENDROOT
BRANCH   1   3
ATOM      3  C   UNL     1      -4.826  13.029  21.107  1.00  0.00     0.158 CG0
ATOM      4  G   UNL     1      -5.398  14.388  20.697  1.00  0.00     0.000 G0
BRANCH   3   5
ATOM      5  N   UNL     1      -5.288  12.003  20.132  1.00  0.00    -0.202 NA
ATOM      6  H   UNL     1      -6.075  11.448  20.492  1.00  0.00     0.141 HD
BRANCH   5   7
ATOM      7  S   UNL     1      -4.107  10.929  19.569  1.00  0.00     0.216 S 
ATOM      8  O   UNL     1      -2.841  11.507  19.960  1.00  0.00    -0.212 OA
ATOM      9  O   UNL     1      -4.409  10.634  18.183  1.00  0.00    -0.212 OA
BRANCH   7  10
ATOM     10  C   UNL     1      -4.448   9.475  20.574  1.00  0.00     0.190 C 
BRANCH  10  11
ATOM     11  C   UNL     1      -5.172   8.459  19.720  1.00  0.00    -0.017 A 
ATOM     12  C   UNL     1      -6.572   8.268  19.747  1.00  0.00     0.064 A 
ATOM     13  C   UNL     1      -7.155   7.263  18.953  1.00  0.00     0.016 A 
ATOM     14  C   UNL     1      -6.367   6.445  18.146  1.00  0.00     0.001 A 
ATOM     15  C   UNL     1      -4.396   7.619  18.897  1.00  0.00     0.006 A 
ATOM     16  C   UNL     1      -4.989   6.624  18.119  1.00  0.00     0.000 A 
BRANCH  12  17
ATOM     17  C   UNL     1      -7.469   9.123  20.576  1.00  0.00     0.338 C 
ATOM     18  O   UNL     1      -7.760   8.885  21.737  1.00  0.00    -0.246 OA
BRANCH  17  19
ATOM     19  O   UNL     1      -7.905  10.178  19.842  1.00  0.00    -0.465 OA
ATOM     20  C   UNL     1      -8.829  11.019  20.533  1.00  0.00     0.282 C 
ENDBRANCH  17  19
ENDBRANCH  12  17
ENDBRANCH  10  11
ENDBRANCH   7  10
ENDBRANCH   5   7
ENDBRANCH   3   5
ENDBRANCH   1   3
BRANCH   1  21
ATOM     21  N   UNL     1      -4.635  13.115  23.594  1.00  0.00    -0.332 N 
BRANCH  21  22
ATOM     22  C   UNL     1      -4.288  14.524  23.770  1.00  0.00     0.120 C 
BRANCH  22  23
ATOM     23  C   UNL     1      -5.243  15.442  23.008  1.00  0.00     0.022 C 
BRANCH  23  24
ATOM     24  C   UNL     1      -4.928  15.567  21.516  1.00  0.00     0.004 C 
BRANCH  24  25
ATOM     25  C   UNL     1      -5.405  14.399  20.649  1.00  0.00     0.030 CG0
ATOM     26  G   UNL     1      -4.836  13.053  21.102  1.00  0.00     0.000 G0
ENDBRANCH  24  25
ENDBRANCH  23  24
ENDBRANCH  22  23
ENDBRANCH  21  22
BRANCH  21  27
ATOM     27  C   UNL     1      -4.153  12.173  24.615  1.00  0.00     0.219 C 
BRANCH  27  28
ATOM     28  C   UNL     1      -3.013  11.292  24.091  1.00  0.00     0.240 C 
ATOM     29  O   UNL     1      -3.227  10.209  23.550  1.00  0.00    -0.273 OA
ATOM     30  N   UNL     1      -1.760  11.854  24.171  1.00  0.00    -0.341 N 
ATOM     31  H   UNL     1      -1.672  12.750  24.640  1.00  0.00     0.164 HD
BRANCH  30  32
ATOM     32  C   UNL     1      -0.546  11.084  23.925  1.00  0.00     0.192 C 
BRANCH  32  33
ATOM     33  C   UNL     1      -0.622   9.670  24.513  1.00  0.00     0.039 C 
BRANCH  33  34
ATOM     34  C   UNL     1      -0.109   9.572  25.955  1.00  0.00     0.024 C 
BRANCH  34  35
ATOM     35  C   UNL     1      -0.763   8.446  26.755  1.00  0.00     0.116 C 
BRANCH  35  36
ATOM     36  N   UNL     1      -1.867   8.936  27.554  1.00  0.00    -0.357 N 
ATOM     37  C   UNL     1      -2.792   8.201  28.203  1.00  0.00     0.185 C 
ATOM     38  N   UNL     1      -2.925   6.924  28.193  1.00  0.00    -0.270 NA
ATOM     39  N   UNL     1      -3.638   8.936  28.933  1.00  0.00    -0.370 N 
ATOM     40  H   UNL     1      -1.933   9.940  27.630  1.00  0.00     0.163 HD
ATOM     41  H   UNL     1      -2.215   6.525  27.576  1.00  0.00     0.191 HD
ATOM     42  H   UNL     1      -3.598   9.937  29.005  1.00  0.00     0.159 HD
ATOM     43  H   UNL     1      -4.358   8.436  29.437  1.00  0.00     0.159 HD
ENDBRANCH  35  36
ENDBRANCH  34  35
ENDBRANCH  33  34
ENDBRANCH  32  33
BRANCH  32  44
ATOM     44  C   UNL     1      -0.273  11.071  22.414  1.00  0.00     0.326 C 
ATOM     45  O   UNL     1       0.468  11.823  21.796  1.00  0.00    -0.250 OA
BRANCH  44  46
ATOM     46  O   UNL     1      -0.955  10.103  21.766  1.00  0.00    -0.480 OA
ATOM     47  H   UNL     1      -1.277   9.514  22.480  1.00  0.00     0.296 HD
ENDBRANCH  44  46
ENDBRANCH  32  44
ENDBRANCH  30  32
ENDBRANCH  27  28
ENDBRANCH  21  27
ENDBRANCH   1  21
TORSDOF 15
