REMARK VINA RESULT:    -6.482      2.787      5.470
REMARK INTER + INTRA:         -15.986
REMARK INTER:                 -13.271
REMARK INTRA:                  -2.715
REMARK UNBOUND:                -1.736
REMARK SMILES COC(=O)c1ccccc1CS(=O)(=O)N[C@H]1CCCCN(CC(=O)N[C@@H](CCCNC(=N)N)C(=O)O)C1=O
REMARK SMILES IDX 37 1 38 2 16 3 15 5 12 7 13 8 14 9 11 10 10 11 5 12 6 13
REMARK SMILES IDX 7 14 9 15 8 16 3 17 4 18 2 19 1 20 21 21 20 22 19 23 18 24
REMARK SMILES IDX 17 25 22 27 23 28 24 29 25 30 26 32 27 33 28 34 29 35 30 36
REMARK SMILES IDX 31 37 32 38 33 39 34 44 35 45 36 46
REMARK H PARENT 15 6 25 31 30 40 32 41 33 42 33 43 36 47
REMARK Flexibility Score:  209.900
ROOT
ATOM      1  C   UNL     1      -3.128  11.894  22.656  1.00  0.00     0.241 C 
ATOM      2  O   UNL     1      -3.626  12.869  22.088  1.00  0.00    -0.273 OA
ENDROOT
BRANCH   1   3
ATOM      3  C   UNL     1      -2.766  10.619  21.873  1.00  0.00     0.158 CG0
ATOM      4  G   UNL     1      -1.253  10.394  21.904  1.00  0.00     0.000 G0
BRANCH   3   5
ATOM      5  N   UNL     1      -3.193  10.801  20.458  1.00  0.00    -0.202 NA
ATOM      6  H   UNL     1      -3.040  11.761  20.123  1.00  0.00     0.141 HD
BRANCH   5   7
ATOM      7  S   UNL     1      -4.792  10.373  20.106  1.00  0.00     0.216 S 
ATOM      8  O   UNL     1      -5.527  11.618  20.068  1.00  0.00    -0.212 OA
ATOM      9  O   UNL     1      -5.166   9.300  21.004  1.00  0.00    -0.212 OA
BRANCH   7  10
ATOM     10  C   UNL     1      -4.620   9.719  18.437  1.00  0.00     0.190 C 
BRANCH  10  11
ATOM     11  C   UNL     1      -5.371   8.410  18.354  1.00  0.00    -0.017 A 
ATOM     12  C   UNL     1      -6.774   8.319  18.218  1.00  0.00     0.064 A 
ATOM     13  C   UNL     1      -7.394   7.055  18.199  1.00  0.00     0.016 A 
ATOM     14  C   UNL     1      -6.640   5.889  18.322  1.00  0.00     0.001 A 
ATOM     15  C   UNL     1      -4.630   7.217  18.478  1.00  0.00     0.006 A 
ATOM     16  C   UNL     1      -5.260   5.972  18.462  1.00  0.00     0.000 A 
BRANCH  12  17
ATOM     17  C   UNL     1      -7.632   9.528  18.064  1.00  0.00     0.338 C 
ATOM     18  O   UNL     1      -8.250  10.050  18.977  1.00  0.00    -0.246 OA
BRANCH  17  19
ATOM     19  O   UNL     1      -7.621   9.937  16.769  1.00  0.00    -0.465 OA
ATOM     20  C   UNL     1      -7.988  11.305  16.594  1.00  0.00     0.282 C 
ENDBRANCH  17  19
ENDBRANCH  12  17
ENDBRANCH  10  11
ENDBRANCH   7  10
ENDBRANCH   5   7
ENDBRANCH   3   5
ENDBRANCH   1   3
BRANCH   1  21
ATOM     21  N   UNL     1      -2.854  11.903  24.012  1.00  0.00    -0.332 N 
BRANCH  21  22
ATOM     22  C   UNL     1      -1.619  11.369  24.585  1.00  0.00     0.120 C 
BRANCH  22  23
ATOM     23  C   UNL     1      -0.385  11.858  23.826  1.00  0.00     0.022 C 
BRANCH  23  24
ATOM     24  C   UNL     1      -0.451  11.626  22.316  1.00  0.00     0.004 C 
BRANCH  24  25
ATOM     25  C   UNL     1      -1.238  10.387  21.881  1.00  0.00     0.030 CG0
ATOM     26  G   UNL     1      -2.750  10.615  21.878  1.00  0.00     0.000 G0
ENDBRANCH  24  25
ENDBRANCH  23  24
ENDBRANCH  22  23
ENDBRANCH  21  22
BRANCH  21  27
ATOM     27  C   UNL     1      -3.860  12.420  24.951  1.00  0.00     0.219 C 
BRANCH  27  28
ATOM     28  C   UNL     1      -4.215  13.884  24.663  1.00  0.00     0.240 C 
ATOM     29  O   UNL     1      -3.353  14.755  24.578  1.00  0.00    -0.273 OA
ATOM     30  N   UNL     1      -5.545  14.118  24.399  1.00  0.00    -0.341 N 
ATOM     31  H   UNL     1      -6.192  13.341  24.498  1.00  0.00     0.164 HD
BRANCH  30  32
ATOM     32  C   UNL     1      -6.096  15.466  24.319  1.00  0.00     0.192 C 
BRANCH  32  33
ATOM     33  C   UNL     1      -6.359  15.904  22.873  1.00  0.00     0.039 C 
BRANCH  33  34
ATOM     34  C   UNL     1      -6.534  14.735  21.896  1.00  0.00     0.024 C 
BRANCH  34  35
ATOM     35  C   UNL     1      -7.952  14.164  21.883  1.00  0.00     0.116 C 
BRANCH  35  36
ATOM     36  N   UNL     1      -7.946  12.740  21.622  1.00  0.00    -0.357 N 
ATOM     37  C   UNL     1      -7.674  11.752  22.498  1.00  0.00     0.185 C 
ATOM     38  N   UNL     1      -7.300  11.871  23.720  1.00  0.00    -0.270 NA
ATOM     39  N   UNL     1      -7.837  10.527  21.985  1.00  0.00    -0.370 N 
ATOM     40  H   UNL     1      -8.183  12.472  20.677  1.00  0.00     0.163 HD
ATOM     41  H   UNL     1      -7.209  12.864  23.940  1.00  0.00     0.191 HD
ATOM     42  H   UNL     1      -8.137  10.345  21.044  1.00  0.00     0.159 HD
ATOM     43  H   UNL     1      -7.640   9.747  22.597  1.00  0.00     0.159 HD
ENDBRANCH  35  36
ENDBRANCH  34  35
ENDBRANCH  33  34
ENDBRANCH  32  33
BRANCH  32  44
ATOM     44  C   UNL     1      -7.362  15.530  25.184  1.00  0.00     0.326 C 
ATOM     45  O   UNL     1      -7.928  16.538  25.584  1.00  0.00    -0.250 OA
BRANCH  44  46
ATOM     46  O   UNL     1      -7.845  14.309  25.499  1.00  0.00    -0.480 OA
ATOM     47  H   UNL     1      -7.065  13.821  25.840  1.00  0.00     0.296 HD
ENDBRANCH  44  46
ENDBRANCH  32  44
ENDBRANCH  30  32
ENDBRANCH  27  28
ENDBRANCH  21  27
ENDBRANCH   1  21
TORSDOF 15
