REMARK VINA RESULT:    -8.626      2.157      4.217
REMARK INTER + INTRA:         -11.134
REMARK INTER:                 -10.686
REMARK INTRA:                  -0.448
REMARK UNBOUND:                -0.491
REMARK SMILES CO[C@@]1(c2cccc(-c3cn(C)c4cnc(NC(N)=O)cc34)n2)CCOC1
REMARK SMILES IDX 4 1 5 2 6 3 7 4 8 5 23 6 3 7 24 8 27 9 25 10 26 11 2 12 1 13
REMARK SMILES IDX 9 14 10 15 22 16 11 17 21 18 13 19 16 20 14 21 15 22 12 23
REMARK SMILES IDX 17 24 18 25 19 26 20 27
REMARK H PARENT 17 28 19 29 19 30
ROOT
ATOM      1  C   UNL     1       6.871 -21.069  22.212  1.00  0.00     0.075 A 
ATOM      2  C   UNL     1       8.176 -20.613  22.400  1.00  0.00     0.027 A 
ATOM      3  C   UNL     1       9.161 -21.514  22.795  1.00  0.00     0.004 A 
ATOM      4  C   UNL     1       8.822 -22.845  23.017  1.00  0.00     0.029 A 
ATOM      5  C   UNL     1       7.500 -23.228  22.838  1.00  0.00     0.073 A 
ATOM      6  N   UNL     1       6.538 -22.363  22.440  1.00  0.00    -0.250 NA
ENDROOT
BRANCH   1   7
ATOM      7  C   UNL     1       5.753 -20.097  21.817  1.00  0.00     0.135 C 
ATOM      8  C   UNL     1       4.668 -20.702  20.926  1.00  0.00     0.073 C 
ATOM      9  C   UNL     1       6.281 -19.020  20.849  1.00  0.00     0.202 C 
ATOM     10  C   UNL     1       5.303 -20.679  19.553  1.00  0.00     0.164 C 
ATOM     11  O   UNL     1       6.124 -19.503  19.501  1.00  0.00    -0.378 OA
BRANCH   7  12
ATOM     12  O   UNL     1       5.218 -19.451  22.986  1.00  0.00    -0.369 OA
ATOM     13  C   UNL     1       3.793 -19.434  23.045  1.00  0.00     0.196 C 
ENDBRANCH   7  12
ENDBRANCH   1   7
BRANCH   5  14
ATOM     14  C   UNL     1       7.043 -24.587  23.103  1.00  0.00     0.026 A 
ATOM     15  C   UNL     1       7.732 -25.508  23.871  1.00  0.00     0.096 A 
ATOM     16  C   UNL     1       5.857 -25.242  22.634  1.00  0.00     0.014 A 
ATOM     17  N   UNL     1       7.018 -26.678  23.880  1.00  0.00    -0.349 N 
ATOM     18  C   UNL     1       4.768 -24.844  21.836  1.00  0.00     0.058 A 
ATOM     19  C   UNL     1       5.868 -26.544  23.136  1.00  0.00     0.067 A 
ATOM     20  C   UNL     1       3.776 -25.779  21.589  1.00  0.00     0.134 A 
ATOM     21  C   UNL     1       4.842 -27.437  22.853  1.00  0.00     0.140 A 
ATOM     22  N   UNL     1       3.805 -27.039  22.079  1.00  0.00    -0.237 NA
ATOM     23  C   UNL     1       7.425 -27.884  24.568  1.00  0.00     0.149 C 
BRANCH  20  24
ATOM     24  N   UNL     1       2.645 -25.522  20.814  1.00  0.00    -0.293 N 
ATOM     25  C   UNL     1       2.153 -24.323  20.398  1.00  0.00     0.317 C 
ATOM     26  N   UNL     1       1.030 -24.453  19.640  1.00  0.00    -0.351 N 
ATOM     27  O   UNL     1       2.593 -23.204  20.628  1.00  0.00    -0.249 OA
ATOM     28  H   UNL     1       2.160 -26.365  20.553  1.00  0.00     0.173 HD
ATOM     29  H   UNL     1       0.620 -25.340  19.398  1.00  0.00     0.161 HD
ATOM     30  H   UNL     1       0.608 -23.604  19.293  1.00  0.00     0.161 HD
ENDBRANCH  20  24
ENDBRANCH   5  14
TORSDOF 4
