MODEL 1
REMARK VINA RESULT:    -9.517      0.000      0.000
REMARK INTER + INTRA:         -14.323
REMARK INTER:                 -13.134
REMARK INTRA:                  -1.190
REMARK UNBOUND:                -1.190
REMARK SMILES N#CC[C@H]1CC[C@H](n2c(CC(=O)N[C@H]3CC[C@H](CO)CC3)nc3cnc4[nH]ccc4c32)CC1
REMARK SMILES IDX 11 1 12 2 13 3 10 5 9 6 8 7 31 8 22 9 30 10 23 11 29 12
REMARK SMILES IDX 26 13 24 14 28 15 25 16 27 17 7 19 4 20 33 21 5 22 32 23
REMARK SMILES IDX 6 24 3 25 1 26 2 27 14 28 21 29 15 30 20 31 16 32 17 33
REMARK SMILES IDX 18 34 19 35
REMARK H PARENT 13 4 27 18 19 36
ROOT
ATOM      1  C   UNL     1       4.634 -23.036  20.003  1.00  0.00     0.227 C 
ATOM      2  O   UNL     1       4.745 -23.674  18.958  1.00  0.00    -0.275 OA
ATOM      3  N   UNL     1       4.641 -23.620  21.253  1.00  0.00    -0.353 N 
ATOM      4  H   UNL     1       4.429 -23.039  22.057  1.00  0.00     0.163 HD
ENDROOT
BRANCH   1   5
ATOM      5  C   UNL     1       4.478 -21.528  20.016  1.00  0.00     0.175 C 
BRANCH   5   6
ATOM      6  C   UNL     1       5.809 -20.892  20.253  1.00  0.00     0.119 A 
ATOM      7  N   UNL     1       6.059 -19.513  20.315  1.00  0.00    -0.324 N 
ATOM      8  C   UNL     1       7.400 -19.388  20.467  1.00  0.00     0.081 A 
ATOM      9  N   UNL     1       6.920 -21.593  20.406  1.00  0.00    -0.231 NA
ATOM     10  C   UNL     1       8.262 -18.330  20.557  1.00  0.00     0.045 A 
ATOM     11  C   UNL     1       7.920 -20.672  20.541  1.00  0.00     0.108 A 
ATOM     12  C   UNL     1       8.073 -16.928  20.501  1.00  0.00     0.032 A 
ATOM     13  C   UNL     1       9.606 -18.588  20.729  1.00  0.00     0.139 A 
ATOM     14  C   UNL     1       9.305 -20.846  20.724  1.00  0.00     0.144 A 
ATOM     15  C   UNL     1       9.332 -16.368  20.649  1.00  0.00     0.085 A 
ATOM     16  N   UNL     1      10.176 -19.801  20.824  1.00  0.00    -0.236 NA
ATOM     17  N   UNL     1      10.248 -17.384  20.787  1.00  0.00    -0.346 N 
ATOM     18  H   UNL     1      11.246 -17.283  20.912  1.00  0.00     0.167 HD
BRANCH   7  19
ATOM     19  C   UNL     1       5.004 -18.502  20.255  1.00  0.00     0.089 C 
ATOM     20  C   UNL     1       2.256 -17.449  20.014  1.00  0.00     0.003 C 
ATOM     21  C   UNL     1       3.255 -17.316  18.851  1.00  0.00     0.007 C 
ATOM     22  C   UNL     1       2.990 -17.437  21.367  1.00  0.00     0.007 C 
ATOM     23  C   UNL     1       4.318 -18.412  18.884  1.00  0.00     0.026 C 
ATOM     24  C   UNL     1       4.045 -18.541  21.455  1.00  0.00     0.026 C 
BRANCH  20  25
ATOM     25  C   UNL     1       1.136 -16.393  19.941  1.00  0.00     0.123 C 
ATOM     26  N   UNL     1       1.885 -14.036  20.830  1.00  0.00    -0.198 NA
ATOM     27  C   UNL     1       1.544 -15.068  20.421  1.00  0.00     0.062 C 
ENDBRANCH  20  25
ENDBRANCH   7  19
ENDBRANCH   5   6
ENDBRANCH   1   5
BRANCH   3  28
ATOM     28  C   UNL     1       4.861 -25.045  21.451  1.00  0.00     0.082 C 
ATOM     29  C   UNL     1       5.720 -25.293  22.700  1.00  0.00     0.025 C 
ATOM     30  C   UNL     1       3.516 -25.777  21.565  1.00  0.00     0.025 C 
ATOM     31  C   UNL     1       5.900 -26.782  22.983  1.00  0.00     0.008 C 
ATOM     32  C   UNL     1       3.695 -27.265  21.858  1.00  0.00     0.008 C 
ATOM     33  C   UNL     1       4.544 -27.499  23.115  1.00  0.00     0.015 C 
BRANCH  33  34
ATOM     34  C   UNL     1       4.725 -29.001  23.363  1.00  0.00     0.159 C 
BRANCH  34  35
ATOM     35  O   UNL     1       3.955 -29.768  22.444  1.00  0.00    -0.396 OA
ATOM     36  H   UNL     1       4.399 -29.732  21.579  1.00  0.00     0.210 HD
ENDBRANCH  34  35
ENDBRANCH  33  34
ENDBRANCH   3  28
TORSDOF 7
ENDMDL
MODEL 2
REMARK VINA RESULT:    -9.276      3.255      6.627
REMARK INTER + INTRA:         -13.991
REMARK INTER:                 -12.593
REMARK INTRA:                  -1.398
REMARK UNBOUND:                -1.190
REMARK SMILES N#CC[C@H]1CC[C@H](n2c(CC(=O)N[C@H]3CC[C@H](CO)CC3)nc3cnc4[nH]ccc4c32)CC1
REMARK SMILES IDX 11 1 12 2 13 3 10 5 9 6 8 7 31 8 22 9 30 10 23 11 29 12
REMARK SMILES IDX 26 13 24 14 28 15 25 16 27 17 7 19 4 20 33 21 5 22 32 23
REMARK SMILES IDX 6 24 3 25 1 26 2 27 14 28 21 29 15 30 20 31 16 32 17 33
REMARK SMILES IDX 18 34 19 35
REMARK H PARENT 13 4 27 18 19 36
ROOT
ATOM      1  C   UNL     1       9.352 -22.798  22.759  1.00  0.00     0.227 C 
ATOM      2  O   UNL     1       9.501 -22.067  23.737  1.00  0.00    -0.275 OA
ATOM      3  N   UNL     1       9.280 -24.173  22.843  1.00  0.00    -0.353 N 
ATOM      4  H   UNL     1       9.273 -24.708  21.981  1.00  0.00     0.163 HD
ENDROOT
BRANCH   1   5
ATOM      5  C   UNL     1       9.230 -22.248  21.352  1.00  0.00     0.175 C 
BRANCH   5   6
ATOM      6  C   UNL     1       8.120 -21.248  21.302  1.00  0.00     0.119 A 
ATOM      7  N   UNL     1       6.751 -21.547  21.226  1.00  0.00    -0.324 N 
ATOM      8  C   UNL     1       6.119 -20.352  21.126  1.00  0.00     0.081 A 
ATOM      9  N   UNL     1       8.333 -19.943  21.300  1.00  0.00    -0.231 NA
ATOM     10  C   UNL     1       4.815 -19.963  20.987  1.00  0.00     0.045 A 
ATOM     11  C   UNL     1       7.097 -19.370  21.190  1.00  0.00     0.108 A 
ATOM     12  C   UNL     1       3.604 -20.687  20.873  1.00  0.00     0.032 A 
ATOM     13  C   UNL     1       4.532 -18.614  20.932  1.00  0.00     0.139 A 
ATOM     14  C   UNL     1       6.720 -18.015  21.133  1.00  0.00     0.144 A 
ATOM     15  C   UNL     1       2.602 -19.736  20.754  1.00  0.00     0.085 A 
ATOM     16  N   UNL     1       5.423 -17.612  21.005  1.00  0.00    -0.236 NA
ATOM     17  N   UNL     1       3.179 -18.488  20.793  1.00  0.00    -0.346 N 
ATOM     18  H   UNL     1       2.700 -17.600  20.730  1.00  0.00     0.167 HD
BRANCH   7  19
ATOM     19  C   UNL     1       6.221 -22.907  21.289  1.00  0.00     0.089 C 
ATOM     20  C   UNL     1       4.177 -25.021  21.565  1.00  0.00     0.003 C 
ATOM     21  C   UNL     1       5.167 -24.729  22.706  1.00  0.00     0.007 C 
ATOM     22  C   UNL     1       4.815 -24.713  20.199  1.00  0.00     0.007 C 
ATOM     23  C   UNL     1       5.670 -23.288  22.672  1.00  0.00     0.026 C 
ATOM     24  C   UNL     1       5.305 -23.267  20.109  1.00  0.00     0.026 C 
BRANCH  20  25
ATOM     25  C   UNL     1       3.607 -26.451  21.642  1.00  0.00     0.123 C 
ATOM     26  N   UNL     1       5.110 -28.082  23.053  1.00  0.00    -0.198 NA
ATOM     27  C   UNL     1       4.428 -27.369  22.438  1.00  0.00     0.062 C 
ENDBRANCH  20  25
ENDBRANCH   7  19
ENDBRANCH   5   6
ENDBRANCH   1   5
BRANCH   3  28
ATOM     28  C   UNL     1       9.297 -24.883  24.114  1.00  0.00     0.082 C 
ATOM     29  C   UNL     1       8.448 -26.160  24.032  1.00  0.00     0.025 C 
ATOM     30  C   UNL     1      10.741 -25.217  24.514  1.00  0.00     0.025 C 
ATOM     31  C   UNL     1       8.512 -26.972  25.324  1.00  0.00     0.008 C 
ATOM     32  C   UNL     1      10.804 -26.036  25.801  1.00  0.00     0.008 C 
ATOM     33  C   UNL     1       9.963 -27.316  25.702  1.00  0.00     0.015 C 
BRANCH  33  34
ATOM     34  C   UNL     1      10.029 -28.099  27.019  1.00  0.00     0.159 C 
BRANCH  34  35
ATOM     35  O   UNL     1       9.303 -29.320  26.924  1.00  0.00    -0.396 OA
ATOM     36  H   UNL     1       9.138 -29.641  27.828  1.00  0.00     0.210 HD
ENDBRANCH  34  35
ENDBRANCH  33  34
ENDBRANCH   3  28
TORSDOF 7
ENDMDL
MODEL 3
REMARK VINA RESULT:    -9.181      4.862      8.445
REMARK INTER + INTRA:         -13.859
REMARK INTER:                 -13.336
REMARK INTRA:                  -0.523
REMARK UNBOUND:                -1.190
REMARK SMILES N#CC[C@H]1CC[C@H](n2c(CC(=O)N[C@H]3CC[C@H](CO)CC3)nc3cnc4[nH]ccc4c32)CC1
REMARK SMILES IDX 11 1 12 2 13 3 10 5 9 6 8 7 31 8 22 9 30 10 23 11 29 12
REMARK SMILES IDX 26 13 24 14 28 15 25 16 27 17 7 19 4 20 33 21 5 22 32 23
REMARK SMILES IDX 6 24 3 25 1 26 2 27 14 28 21 29 15 30 20 31 16 32 17 33
REMARK SMILES IDX 18 34 19 35
REMARK H PARENT 13 4 27 18 19 36
ROOT
ATOM      1  C   UNL     1       9.080 -24.824  23.675  1.00  0.00     0.227 C 
ATOM      2  O   UNL     1       9.698 -24.993  22.625  1.00  0.00    -0.275 OA
ATOM      3  N   UNL     1       9.633 -25.027  24.922  1.00  0.00    -0.353 N 
ATOM      4  H   UNL     1       9.024 -24.977  25.732  1.00  0.00     0.163 HD
ENDROOT
BRANCH   1   5
ATOM      5  C   UNL     1       7.634 -24.369  23.696  1.00  0.00     0.175 C 
BRANCH   5   6
ATOM      6  C   UNL     1       6.747 -25.510  23.318  1.00  0.00     0.119 A 
ATOM      7  N   UNL     1       5.597 -25.424  22.518  1.00  0.00    -0.324 N 
ATOM      8  C   UNL     1       5.067 -26.672  22.500  1.00  0.00     0.081 A 
ATOM      9  N   UNL     1       6.954 -26.747  23.737  1.00  0.00    -0.231 NA
ATOM     10  C   UNL     1       3.953 -27.234  21.941  1.00  0.00     0.045 A 
ATOM     11  C   UNL     1       5.917 -27.483  23.237  1.00  0.00     0.108 A 
ATOM     12  C   UNL     1       2.894 -26.703  21.166  1.00  0.00     0.032 A 
ATOM     13  C   UNL     1       3.733 -28.583  22.124  1.00  0.00     0.139 A 
ATOM     14  C   UNL     1       5.622 -28.853  23.368  1.00  0.00     0.144 A 
ATOM     15  C   UNL     1       2.050 -27.768  20.894  1.00  0.00     0.085 A 
ATOM     16  N   UNL     1       4.519 -29.430  22.809  1.00  0.00    -0.236 NA
ATOM     17  N   UNL     1       2.571 -28.898  21.478  1.00  0.00    -0.346 N 
ATOM     18  H   UNL     1       2.177 -29.829  21.451  1.00  0.00     0.167 HD
BRANCH   7  19
ATOM     19  C   UNL     1       5.170 -24.193  21.855  1.00  0.00     0.089 C 
ATOM     20  C   UNL     1       5.472 -21.638  20.406  1.00  0.00     0.003 C 
ATOM     21  C   UNL     1       5.091 -21.657  21.897  1.00  0.00     0.007 C 
ATOM     22  C   UNL     1       4.940 -22.892  19.691  1.00  0.00     0.007 C 
ATOM     23  C   UNL     1       5.594 -22.917  22.598  1.00  0.00     0.026 C 
ATOM     24  C   UNL     1       5.446 -24.180  20.344  1.00  0.00     0.026 C 
BRANCH  20  25
ATOM     25  C   UNL     1       5.035 -20.333  19.712  1.00  0.00     0.123 C 
ATOM     26  N   UNL     1       7.052 -18.749  19.138  1.00  0.00    -0.198 NA
ATOM     27  C   UNL     1       6.152 -19.444  19.373  1.00  0.00     0.062 C 
ENDBRANCH  20  25
ENDBRANCH   7  19
ENDBRANCH   5   6
ENDBRANCH   1   5
BRANCH   3  28
ATOM     28  C   UNL     1      11.030 -25.387  25.111  1.00  0.00     0.082 C 
ATOM     29  C   UNL     1      11.634 -24.615  26.294  1.00  0.00     0.025 C 
ATOM     30  C   UNL     1      11.162 -26.901  25.328  1.00  0.00     0.025 C 
ATOM     31  C   UNL     1      13.077 -25.032  26.571  1.00  0.00     0.008 C 
ATOM     32  C   UNL     1      12.603 -27.316  25.614  1.00  0.00     0.008 C 
ATOM     33  C   UNL     1      13.190 -26.548  26.806  1.00  0.00     0.015 C 
BRANCH  33  34
ATOM     34  C   UNL     1      14.645 -26.971  27.048  1.00  0.00     0.159 C 
BRANCH  34  35
ATOM     35  O   UNL     1      15.547 -26.124  26.345  1.00  0.00    -0.396 OA
ATOM     36  H   UNL     1      15.574 -25.267  26.807  1.00  0.00     0.210 HD
ENDBRANCH  34  35
ENDBRANCH  33  34
ENDBRANCH   3  28
TORSDOF 7
ENDMDL
MODEL 4
REMARK VINA RESULT:    -9.180      2.823      8.069
REMARK INTER + INTRA:         -13.859
REMARK INTER:                 -12.601
REMARK INTRA:                  -1.257
REMARK UNBOUND:                -1.190
REMARK SMILES N#CC[C@H]1CC[C@H](n2c(CC(=O)N[C@H]3CC[C@H](CO)CC3)nc3cnc4[nH]ccc4c32)CC1
REMARK SMILES IDX 11 1 12 2 13 3 10 5 9 6 8 7 31 8 22 9 30 10 23 11 29 12
REMARK SMILES IDX 26 13 24 14 28 15 25 16 27 17 7 19 4 20 33 21 5 22 32 23
REMARK SMILES IDX 6 24 3 25 1 26 2 27 14 28 21 29 15 30 20 31 16 32 17 33
REMARK SMILES IDX 18 34 19 35
REMARK H PARENT 13 4 27 18 19 36
ROOT
ATOM      1  C   UNL     1       2.568 -19.281  22.276  1.00  0.00     0.227 C 
ATOM      2  O   UNL     1       1.376 -19.499  22.492  1.00  0.00    -0.275 OA
ATOM      3  N   UNL     1       3.036 -18.714  21.109  1.00  0.00    -0.353 N 
ATOM      4  H   UNL     1       4.038 -18.674  20.962  1.00  0.00     0.163 HD
ENDROOT
BRANCH   1   5
ATOM      5  C   UNL     1       3.646 -19.619  23.286  1.00  0.00     0.175 C 
BRANCH   5   6
ATOM      6  C   UNL     1       4.988 -19.508  22.638  1.00  0.00     0.119 A 
ATOM      7  N   UNL     1       5.847 -20.578  22.345  1.00  0.00    -0.324 N 
ATOM      8  C   UNL     1       6.973 -20.018  21.839  1.00  0.00     0.081 A 
ATOM      9  N   UNL     1       5.522 -18.349  22.293  1.00  0.00    -0.231 NA
ATOM     10  C   UNL     1       8.174 -20.503  21.401  1.00  0.00     0.045 A 
ATOM     11  C   UNL     1       6.758 -18.648  21.793  1.00  0.00     0.108 A 
ATOM     12  C   UNL     1       8.715 -21.809  21.331  1.00  0.00     0.032 A 
ATOM     13  C   UNL     1       9.111 -19.610  20.923  1.00  0.00     0.139 A 
ATOM     14  C   UNL     1       7.765 -17.807  21.283  1.00  0.00     0.144 A 
ATOM     15  C   UNL     1       9.986 -21.667  20.796  1.00  0.00     0.085 A 
ATOM     16  N   UNL     1       8.965 -18.277  20.835  1.00  0.00    -0.236 NA
ATOM     17  N   UNL     1      10.211 -20.332  20.554  1.00  0.00    -0.346 N 
ATOM     18  H   UNL     1      11.049 -19.922  20.165  1.00  0.00     0.167 HD
BRANCH   7  19
ATOM     19  C   UNL     1       5.484 -21.979  22.548  1.00  0.00     0.089 C 
ATOM     20  C   UNL     1       5.752 -24.914  22.364  1.00  0.00     0.003 C 
ATOM     21  C   UNL     1       4.717 -24.163  21.509  1.00  0.00     0.007 C 
ATOM     22  C   UNL     1       5.993 -24.181  23.696  1.00  0.00     0.007 C 
ATOM     23  C   UNL     1       5.132 -22.717  21.247  1.00  0.00     0.026 C 
ATOM     24  C   UNL     1       6.443 -22.735  23.479  1.00  0.00     0.026 C 
BRANCH  20  25
ATOM     25  C   UNL     1       5.375 -26.395  22.565  1.00  0.00     0.123 C 
ATOM     26  N   UNL     1       7.032 -27.670  24.157  1.00  0.00    -0.198 NA
ATOM     27  C   UNL     1       6.283 -27.116  23.463  1.00  0.00     0.062 C 
ENDBRANCH  20  25
ENDBRANCH   7  19
ENDBRANCH   5   6
ENDBRANCH   1   5
BRANCH   3  28
ATOM     28  C   UNL     1       2.149 -18.247  20.053  1.00  0.00     0.082 C 
ATOM     29  C   UNL     1       1.410 -16.973  20.490  1.00  0.00     0.025 C 
ATOM     30  C   UNL     1       2.945 -17.996  18.765  1.00  0.00     0.025 C 
ATOM     31  C   UNL     1       0.533 -16.410  19.374  1.00  0.00     0.008 C 
ATOM     32  C   UNL     1       2.071 -17.425  17.652  1.00  0.00     0.008 C 
ATOM     33  C   UNL     1       1.348 -16.146  18.096  1.00  0.00     0.015 C 
BRANCH  33  34
ATOM     34  C   UNL     1       0.460 -15.615  16.964  1.00  0.00     0.159 C 
BRANCH  34  35
ATOM     35  O   UNL     1      -0.918 -15.716  17.306  1.00  0.00    -0.396 OA
ATOM     36  H   UNL     1      -1.428 -15.772  16.478  1.00  0.00     0.210 HD
ENDBRANCH  34  35
ENDBRANCH  33  34
ENDBRANCH   3  28
TORSDOF 7
ENDMDL
MODEL 5
REMARK VINA RESULT:    -9.169      4.675      8.269
REMARK INTER + INTRA:         -13.843
REMARK INTER:                 -13.106
REMARK INTRA:                  -0.736
REMARK UNBOUND:                -1.190
REMARK SMILES N#CC[C@H]1CC[C@H](n2c(CC(=O)N[C@H]3CC[C@H](CO)CC3)nc3cnc4[nH]ccc4c32)CC1
REMARK SMILES IDX 11 1 12 2 13 3 10 5 9 6 8 7 31 8 22 9 30 10 23 11 29 12
REMARK SMILES IDX 26 13 24 14 28 15 25 16 27 17 7 19 4 20 33 21 5 22 32 23
REMARK SMILES IDX 6 24 3 25 1 26 2 27 14 28 21 29 15 30 20 31 16 32 17 33
REMARK SMILES IDX 18 34 19 35
REMARK H PARENT 13 4 27 18 19 36
ROOT
ATOM      1  C   UNL     1       9.021 -25.175  24.063  1.00  0.00     0.227 C 
ATOM      2  O   UNL     1      10.010 -25.248  23.334  1.00  0.00    -0.275 OA
ATOM      3  N   UNL     1       9.006 -25.621  25.368  1.00  0.00    -0.353 N 
ATOM      4  H   UNL     1       8.121 -25.631  25.863  1.00  0.00     0.163 HD
ENDROOT
BRANCH   1   5
ATOM      5  C   UNL     1       7.711 -24.578  23.589  1.00  0.00     0.175 C 
BRANCH   5   6
ATOM      6  C   UNL     1       6.768 -25.677  23.219  1.00  0.00     0.119 A 
ATOM      7  N   UNL     1       5.591 -25.529  22.470  1.00  0.00    -0.324 N 
ATOM      8  C   UNL     1       5.015 -26.756  22.442  1.00  0.00     0.081 A 
ATOM      9  N   UNL     1       6.947 -26.931  23.598  1.00  0.00    -0.231 NA
ATOM     10  C   UNL     1       3.860 -27.264  21.916  1.00  0.00     0.045 A 
ATOM     11  C   UNL     1       5.865 -27.617  23.123  1.00  0.00     0.108 A 
ATOM     12  C   UNL     1       2.790 -26.675  21.200  1.00  0.00     0.032 A 
ATOM     13  C   UNL     1       3.599 -28.609  22.074  1.00  0.00     0.139 A 
ATOM     14  C   UNL     1       5.525 -28.978  23.232  1.00  0.00     0.144 A 
ATOM     15  C   UNL     1       1.897 -27.701  20.936  1.00  0.00     0.085 A 
ATOM     16  N   UNL     1       4.380 -29.501  22.705  1.00  0.00    -0.236 NA
ATOM     17  N   UNL     1       2.400 -28.865  21.470  1.00  0.00    -0.346 N 
ATOM     18  H   UNL     1       1.972 -29.780  21.435  1.00  0.00     0.167 HD
BRANCH   7  19
ATOM     19  C   UNL     1       5.183 -24.267  21.856  1.00  0.00     0.089 C 
ATOM     20  C   UNL     1       5.524 -21.652  20.526  1.00  0.00     0.003 C 
ATOM     21  C   UNL     1       5.122 -21.735  22.009  1.00  0.00     0.007 C 
ATOM     22  C   UNL     1       4.992 -22.870  19.749  1.00  0.00     0.007 C 
ATOM     23  C   UNL     1       5.606 -23.028  22.661  1.00  0.00     0.026 C 
ATOM     24  C   UNL     1       5.480 -24.189  20.351  1.00  0.00     0.026 C 
BRANCH  20  25
ATOM     25  C   UNL     1       5.107 -20.314  19.885  1.00  0.00     0.123 C 
ATOM     26  N   UNL     1       2.683 -19.560  20.565  1.00  0.00    -0.198 NA
ATOM     27  C   UNL     1       3.761 -19.873  20.267  1.00  0.00     0.062 C 
ENDBRANCH  20  25
ENDBRANCH   7  19
ENDBRANCH   5   6
ENDBRANCH   1   5
BRANCH   3  28
ATOM     28  C   UNL     1      10.190 -26.151  26.029  1.00  0.00     0.082 C 
ATOM     29  C   UNL     1      10.361 -25.522  27.420  1.00  0.00     0.025 C 
ATOM     30  C   UNL     1      10.097 -27.680  26.135  1.00  0.00     0.025 C 
ATOM     31  C   UNL     1      11.548 -26.118  28.174  1.00  0.00     0.008 C 
ATOM     32  C   UNL     1      11.279 -28.275  26.897  1.00  0.00     0.008 C 
ATOM     33  C   UNL     1      11.432 -27.648  28.289  1.00  0.00     0.015 C 
BRANCH  33  34
ATOM     34  C   UNL     1      12.642 -28.250  29.014  1.00  0.00     0.159 C 
BRANCH  34  35
ATOM     35  O   UNL     1      12.239 -28.946  30.189  1.00  0.00    -0.396 OA
ATOM     36  H   UNL     1      11.395 -29.392  29.997  1.00  0.00     0.210 HD
ENDBRANCH  34  35
ENDBRANCH  33  34
ENDBRANCH   3  28
TORSDOF 7
ENDMDL
MODEL 6
REMARK VINA RESULT:    -8.975      2.931      8.307
REMARK INTER + INTRA:         -13.575
REMARK INTER:                 -12.238
REMARK INTRA:                  -1.337
REMARK UNBOUND:                -1.190
REMARK SMILES N#CC[C@H]1CC[C@H](n2c(CC(=O)N[C@H]3CC[C@H](CO)CC3)nc3cnc4[nH]ccc4c32)CC1
REMARK SMILES IDX 11 1 12 2 13 3 10 5 9 6 8 7 31 8 22 9 30 10 23 11 29 12
REMARK SMILES IDX 26 13 24 14 28 15 25 16 27 17 7 19 4 20 33 21 5 22 32 23
REMARK SMILES IDX 6 24 3 25 1 26 2 27 14 28 21 29 15 30 20 31 16 32 17 33
REMARK SMILES IDX 18 34 19 35
REMARK H PARENT 13 4 27 18 19 36
ROOT
ATOM      1  C   UNL     1       4.474 -21.060  19.885  1.00  0.00     0.227 C 
ATOM      2  O   UNL     1       3.612 -21.405  20.691  1.00  0.00    -0.275 OA
ATOM      3  N   UNL     1       4.435 -19.865  19.196  1.00  0.00    -0.353 N 
ATOM      4  H   UNL     1       5.122 -19.708  18.466  1.00  0.00     0.163 HD
ENDROOT
BRANCH   1   5
ATOM      5  C   UNL     1       5.678 -21.926  19.571  1.00  0.00     0.175 C 
BRANCH   5   6
ATOM      6  C   UNL     1       6.873 -21.401  20.298  1.00  0.00     0.119 A 
ATOM      7  N   UNL     1       7.532 -22.039  21.360  1.00  0.00    -0.324 N 
ATOM      8  C   UNL     1       8.501 -21.181  21.762  1.00  0.00     0.081 A 
ATOM      9  N   UNL     1       7.426 -20.234  20.017  1.00  0.00    -0.231 NA
ATOM     10  C   UNL     1       9.445 -21.192  22.751  1.00  0.00     0.045 A 
ATOM     11  C   UNL     1       8.441 -20.081  20.918  1.00  0.00     0.108 A 
ATOM     12  C   UNL     1       9.758 -22.123  23.770  1.00  0.00     0.032 A 
ATOM     13  C   UNL     1      10.302 -20.117  22.856  1.00  0.00     0.139 A 
ATOM     14  C   UNL     1       9.359 -19.028  21.091  1.00  0.00     0.144 A 
ATOM     15  C   UNL     1      10.820 -21.576  24.473  1.00  0.00     0.085 A 
ATOM     16  N   UNL     1      10.312 -19.029  22.067  1.00  0.00    -0.236 NA
ATOM     17  N   UNL     1      11.138 -20.363  23.908  1.00  0.00    -0.346 N 
ATOM     18  H   UNL     1      11.871 -19.733  24.205  1.00  0.00     0.167 HD
BRANCH   7  19
ATOM     19  C   UNL     1       7.183 -23.378  21.833  1.00  0.00     0.089 C 
ATOM     20  C   UNL     1       7.223 -25.728  23.621  1.00  0.00     0.003 C 
ATOM     21  C   UNL     1       7.943 -25.761  22.262  1.00  0.00     0.007 C 
ATOM     22  C   UNL     1       5.997 -24.799  23.566  1.00  0.00     0.007 C 
ATOM     23  C   UNL     1       8.360 -24.365  21.803  1.00  0.00     0.026 C 
ATOM     24  C   UNL     1       6.375 -23.379  23.140  1.00  0.00     0.026 C 
BRANCH  20  25
ATOM     25  C   UNL     1       6.871 -27.141  24.126  1.00  0.00     0.123 C 
ATOM     26  N   UNL     1       8.834 -28.279  25.451  1.00  0.00    -0.198 NA
ATOM     27  C   UNL     1       7.953 -27.783  24.879  1.00  0.00     0.062 C 
ENDBRANCH  20  25
ENDBRANCH   7  19
ENDBRANCH   5   6
ENDBRANCH   1   5
BRANCH   3  28
ATOM     28  C   UNL     1       3.402 -18.865  19.421  1.00  0.00     0.082 C 
ATOM     29  C   UNL     1       3.629 -18.144  20.759  1.00  0.00     0.025 C 
ATOM     30  C   UNL     1       3.379 -17.859  18.262  1.00  0.00     0.025 C 
ATOM     31  C   UNL     1       2.610 -17.030  20.987  1.00  0.00     0.008 C 
ATOM     32  C   UNL     1       2.367 -16.739  18.493  1.00  0.00     0.008 C 
ATOM     33  C   UNL     1       2.611 -16.019  19.826  1.00  0.00     0.015 C 
BRANCH  33  34
ATOM     34  C   UNL     1       1.562 -14.920  20.038  1.00  0.00     0.159 C 
BRANCH  34  35
ATOM     35  O   UNL     1       1.917 -14.079  21.130  1.00  0.00    -0.396 OA
ATOM     36  H   UNL     1       1.252 -14.201  21.830  1.00  0.00     0.210 HD
ENDBRANCH  34  35
ENDBRANCH  33  34
ENDBRANCH   3  28
TORSDOF 7
ENDMDL
MODEL 7
REMARK VINA RESULT:    -8.906      2.575      8.372
REMARK INTER + INTRA:         -13.480
REMARK INTER:                 -12.191
REMARK INTRA:                  -1.290
REMARK UNBOUND:                -1.190
REMARK SMILES N#CC[C@H]1CC[C@H](n2c(CC(=O)N[C@H]3CC[C@H](CO)CC3)nc3cnc4[nH]ccc4c32)CC1
REMARK SMILES IDX 11 1 12 2 13 3 10 5 9 6 8 7 31 8 22 9 30 10 23 11 29 12
REMARK SMILES IDX 26 13 24 14 28 15 25 16 27 17 7 19 4 20 33 21 5 22 32 23
REMARK SMILES IDX 6 24 3 25 1 26 2 27 14 28 21 29 15 30 20 31 16 32 17 33
REMARK SMILES IDX 18 34 19 35
REMARK H PARENT 13 4 27 18 19 36
ROOT
ATOM      1  C   UNL     1       4.256 -21.222  20.055  1.00  0.00     0.227 C 
ATOM      2  O   UNL     1       3.750 -21.261  21.175  1.00  0.00    -0.275 OA
ATOM      3  N   UNL     1       4.403 -20.060  19.328  1.00  0.00    -0.353 N 
ATOM      4  H   UNL     1       4.723 -20.129  18.368  1.00  0.00     0.163 HD
ENDROOT
BRANCH   1   5
ATOM      5  C   UNL     1       4.775 -22.466  19.361  1.00  0.00     0.175 C 
BRANCH   5   6
ATOM      6  C   UNL     1       5.023 -23.536  20.375  1.00  0.00     0.119 A 
ATOM      7  N   UNL     1       6.123 -23.604  21.243  1.00  0.00    -0.324 N 
ATOM      8  C   UNL     1       5.982 -24.767  21.926  1.00  0.00     0.081 A 
ATOM      9  N   UNL     1       4.213 -24.569  20.537  1.00  0.00    -0.231 NA
ATOM     10  C   UNL     1       6.720 -25.420  22.873  1.00  0.00     0.045 A 
ATOM     11  C   UNL     1       4.795 -25.345  21.499  1.00  0.00     0.108 A 
ATOM     12  C   UNL     1       7.956 -25.127  23.499  1.00  0.00     0.032 A 
ATOM     13  C   UNL     1       6.244 -26.615  23.371  1.00  0.00     0.139 A 
ATOM     14  C   UNL     1       4.379 -26.565  22.064  1.00  0.00     0.144 A 
ATOM     15  C   UNL     1       8.194 -26.172  24.378  1.00  0.00     0.085 A 
ATOM     16  N   UNL     1       5.100 -27.224  23.017  1.00  0.00    -0.236 NA
ATOM     17  N   UNL     1       7.150 -27.063  24.290  1.00  0.00    -0.346 N 
ATOM     18  H   UNL     1       7.045 -27.923  24.811  1.00  0.00     0.167 HD
BRANCH   7  19
ATOM     19  C   UNL     1       7.138 -22.557  21.336  1.00  0.00     0.089 C 
ATOM     20  C   UNL     1       9.488 -21.135  22.419  1.00  0.00     0.003 C 
ATOM     21  C   UNL     1       8.067 -20.587  22.638  1.00  0.00     0.007 C 
ATOM     22  C   UNL     1       9.576 -21.907  21.091  1.00  0.00     0.007 C 
ATOM     23  C   UNL     1       7.017 -21.695  22.602  1.00  0.00     0.026 C 
ATOM     24  C   UNL     1       8.560 -23.049  21.025  1.00  0.00     0.026 C 
BRANCH  20  25
ATOM     25  C   UNL     1      10.559 -20.032  22.534  1.00  0.00     0.123 C 
ATOM     26  N   UNL     1      10.427 -18.266  20.592  1.00  0.00    -0.198 NA
ATOM     27  C   UNL     1      10.489 -19.030  21.464  1.00  0.00     0.062 C 
ENDBRANCH  20  25
ENDBRANCH   7  19
ENDBRANCH   5   6
ENDBRANCH   1   5
BRANCH   3  28
ATOM     28  C   UNL     1       4.039 -18.753  19.857  1.00  0.00     0.082 C 
ATOM     29  C   UNL     1       4.916 -17.655  19.238  1.00  0.00     0.025 C 
ATOM     30  C   UNL     1       2.553 -18.471  19.596  1.00  0.00     0.025 C 
ATOM     31  C   UNL     1       4.504 -16.262  19.710  1.00  0.00     0.008 C 
ATOM     32  C   UNL     1       2.143 -17.076  20.059  1.00  0.00     0.008 C 
ATOM     33  C   UNL     1       3.018 -15.986  19.424  1.00  0.00     0.015 C 
BRANCH  33  34
ATOM     34  C   UNL     1       2.596 -14.601  19.931  1.00  0.00     0.159 C 
BRANCH  34  35
ATOM     35  O   UNL     1       1.817 -14.707  21.118  1.00  0.00    -0.396 OA
ATOM     36  H   UNL     1       2.193 -14.097  21.777  1.00  0.00     0.210 HD
ENDBRANCH  34  35
ENDBRANCH  33  34
ENDBRANCH   3  28
TORSDOF 7
ENDMDL
MODEL 8
REMARK VINA RESULT:    -8.865      3.007      8.908
REMARK INTER + INTRA:         -13.423
REMARK INTER:                 -12.560
REMARK INTRA:                  -0.863
REMARK UNBOUND:                -1.190
REMARK SMILES N#CC[C@H]1CC[C@H](n2c(CC(=O)N[C@H]3CC[C@H](CO)CC3)nc3cnc4[nH]ccc4c32)CC1
REMARK SMILES IDX 11 1 12 2 13 3 10 5 9 6 8 7 31 8 22 9 30 10 23 11 29 12
REMARK SMILES IDX 26 13 24 14 28 15 25 16 27 17 7 19 4 20 33 21 5 22 32 23
REMARK SMILES IDX 6 24 3 25 1 26 2 27 14 28 21 29 15 30 20 31 16 32 17 33
REMARK SMILES IDX 18 34 19 35
REMARK H PARENT 13 4 27 18 19 36
ROOT
ATOM      1  C   UNL     1       3.706 -20.368  20.355  1.00  0.00     0.227 C 
ATOM      2  O   UNL     1       3.242 -20.441  21.492  1.00  0.00    -0.275 OA
ATOM      3  N   UNL     1       3.362 -19.381  19.456  1.00  0.00    -0.353 N 
ATOM      4  H   UNL     1       3.700 -19.458  18.503  1.00  0.00     0.163 HD
ENDROOT
BRANCH   1   5
ATOM      5  C   UNL     1       4.715 -21.371  19.829  1.00  0.00     0.175 C 
BRANCH   5   6
ATOM      6  C   UNL     1       4.459 -22.707  20.449  1.00  0.00     0.119 A 
ATOM      7  N   UNL     1       5.337 -23.398  21.297  1.00  0.00    -0.324 N 
ATOM      8  C   UNL     1       4.738 -24.587  21.556  1.00  0.00     0.081 A 
ATOM      9  N   UNL     1       3.354 -23.398  20.227  1.00  0.00    -0.231 NA
ATOM     10  C   UNL     1       5.082 -25.700  22.272  1.00  0.00     0.045 A 
ATOM     11  C   UNL     1       3.511 -24.572  20.909  1.00  0.00     0.108 A 
ATOM     12  C   UNL     1       6.236 -26.045  23.016  1.00  0.00     0.032 A 
ATOM     13  C   UNL     1       4.189 -26.749  22.329  1.00  0.00     0.139 A 
ATOM     14  C   UNL     1       2.656 -25.683  21.024  1.00  0.00     0.144 A 
ATOM     15  C   UNL     1       6.001 -27.316  23.515  1.00  0.00     0.085 A 
ATOM     16  N   UNL     1       2.981 -26.797  21.742  1.00  0.00    -0.236 NA
ATOM     17  N   UNL     1       4.759 -27.728  23.092  1.00  0.00    -0.346 N 
ATOM     18  H   UNL     1       4.313 -28.612  23.299  1.00  0.00     0.167 HD
BRANCH   7  19
ATOM     19  C   UNL     1       6.600 -22.839  21.774  1.00  0.00     0.089 C 
ATOM     20  C   UNL     1       8.891 -20.978  21.862  1.00  0.00     0.003 C 
ATOM     21  C   UNL     1       9.057 -22.406  21.314  1.00  0.00     0.007 C 
ATOM     22  C   UNL     1       7.796 -20.933  22.942  1.00  0.00     0.007 C 
ATOM     23  C   UNL     1       7.748 -22.961  20.760  1.00  0.00     0.026 C 
ATOM     24  C   UNL     1       6.455 -21.452  22.419  1.00  0.00     0.026 C 
BRANCH  20  25
ATOM     25  C   UNL     1      10.227 -20.384  22.350  1.00  0.00     0.123 C 
ATOM     26  N   UNL     1      10.813 -21.065  24.819  1.00  0.00    -0.198 NA
ATOM     27  C   UNL     1      10.574 -20.767  23.723  1.00  0.00     0.062 C 
ENDBRANCH  20  25
ENDBRANCH   7  19
ENDBRANCH   5   6
ENDBRANCH   1   5
BRANCH   3  28
ATOM     28  C   UNL     1       2.470 -18.283  19.802  1.00  0.00     0.082 C 
ATOM     29  C   UNL     1       3.235 -17.180  20.548  1.00  0.00     0.025 C 
ATOM     30  C   UNL     1       1.807 -17.721  18.536  1.00  0.00     0.025 C 
ATOM     31  C   UNL     1       2.346 -15.975  20.853  1.00  0.00     0.008 C 
ATOM     32  C   UNL     1       0.926 -16.511  18.839  1.00  0.00     0.008 C 
ATOM     33  C   UNL     1       1.704 -15.411  19.573  1.00  0.00     0.015 C 
BRANCH  33  34
ATOM     34  C   UNL     1       0.783 -14.224  19.884  1.00  0.00     0.159 C 
BRANCH  34  35
ATOM     35  O   UNL     1      -0.449 -14.666  20.443  1.00  0.00    -0.396 OA
ATOM     36  H   UNL     1      -1.105 -13.958  20.317  1.00  0.00     0.210 HD
ENDBRANCH  34  35
ENDBRANCH  33  34
ENDBRANCH   3  28
TORSDOF 7
ENDMDL
MODEL 9
REMARK VINA RESULT:    -8.659      1.829      2.631
REMARK INTER + INTRA:         -13.139
REMARK INTER:                 -12.028
REMARK INTRA:                  -1.111
REMARK UNBOUND:                -1.190
REMARK SMILES N#CC[C@H]1CC[C@H](n2c(CC(=O)N[C@H]3CC[C@H](CO)CC3)nc3cnc4[nH]ccc4c32)CC1
REMARK SMILES IDX 11 1 12 2 13 3 10 5 9 6 8 7 31 8 22 9 30 10 23 11 29 12
REMARK SMILES IDX 26 13 24 14 28 15 25 16 27 17 7 19 4 20 33 21 5 22 32 23
REMARK SMILES IDX 6 24 3 25 1 26 2 27 14 28 21 29 15 30 20 31 16 32 17 33
REMARK SMILES IDX 18 34 19 35
REMARK H PARENT 13 4 27 18 19 36
ROOT
ATOM      1  C   UNL     1       4.705 -22.039  20.854  1.00  0.00     0.227 C 
ATOM      2  O   UNL     1       4.698 -21.559  21.987  1.00  0.00    -0.275 OA
ATOM      3  N   UNL     1       4.816 -23.390  20.603  1.00  0.00    -0.353 N 
ATOM      4  H   UNL     1       4.930 -23.693  19.642  1.00  0.00     0.163 HD
ENDROOT
BRANCH   1   5
ATOM      5  C   UNL     1       4.589 -21.177  19.612  1.00  0.00     0.175 C 
BRANCH   5   6
ATOM      6  C   UNL     1       5.374 -19.920  19.803  1.00  0.00     0.119 A 
ATOM      7  N   UNL     1       4.880 -18.615  19.659  1.00  0.00    -0.324 N 
ATOM      8  C   UNL     1       5.943 -17.795  19.846  1.00  0.00     0.081 A 
ATOM      9  N   UNL     1       6.660 -19.920  20.111  1.00  0.00    -0.231 NA
ATOM     10  C   UNL     1       6.132 -16.442  19.805  1.00  0.00     0.045 A 
ATOM     11  C   UNL     1       7.031 -18.605  20.142  1.00  0.00     0.108 A 
ATOM     12  C   UNL     1       5.265 -15.358  19.523  1.00  0.00     0.032 A 
ATOM     13  C   UNL     1       7.390 -15.943  20.073  1.00  0.00     0.139 A 
ATOM     14  C   UNL     1       8.279 -18.013  20.409  1.00  0.00     0.144 A 
ATOM     15  C   UNL     1       6.038 -14.213  19.634  1.00  0.00     0.085 A 
ATOM     16  N   UNL     1       8.481 -16.664  20.381  1.00  0.00    -0.236 NA
ATOM     17  N   UNL     1       7.320 -14.583  19.968  1.00  0.00    -0.346 N 
ATOM     18  H   UNL     1       8.106 -13.965  20.119  1.00  0.00     0.167 HD
BRANCH   7  19
ATOM     19  C   UNL     1       3.474 -18.313  19.397  1.00  0.00     0.089 C 
ATOM     20  C   UNL     1       1.097 -16.629  18.910  1.00  0.00     0.003 C 
ATOM     21  C   UNL     1       1.298 -17.335  20.263  1.00  0.00     0.007 C 
ATOM     22  C   UNL     1       1.735 -17.444  17.771  1.00  0.00     0.007 C 
ATOM     23  C   UNL     1       2.774 -17.592  20.559  1.00  0.00     0.026 C 
ATOM     24  C   UNL     1       3.224 -17.697  18.012  1.00  0.00     0.026 C 
BRANCH  20  25
ATOM     25  C   UNL     1      -0.384 -16.298  18.643  1.00  0.00     0.123 C 
ATOM     26  N   UNL     1      -1.643 -15.424  20.778  1.00  0.00    -0.198 NA
ATOM     27  C   UNL     1      -1.097 -15.795  19.823  1.00  0.00     0.062 C 
ENDBRANCH  20  25
ENDBRANCH   7  19
ENDBRANCH   5   6
ENDBRANCH   1   5
BRANCH   3  28
ATOM     28  C   UNL     1       4.857 -24.384  21.666  1.00  0.00     0.082 C 
ATOM     29  C   UNL     1       4.100 -25.654  21.249  1.00  0.00     0.025 C 
ATOM     30  C   UNL     1       6.312 -24.715  22.026  1.00  0.00     0.025 C 
ATOM     31  C   UNL     1       4.194 -26.749  22.309  1.00  0.00     0.008 C 
ATOM     32  C   UNL     1       6.407 -25.816  23.079  1.00  0.00     0.008 C 
ATOM     33  C   UNL     1       5.658 -27.083  22.646  1.00  0.00     0.015 C 
BRANCH  33  34
ATOM     34  C   UNL     1       5.752 -28.157  23.737  1.00  0.00     0.159 C 
BRANCH  34  35
ATOM     35  O   UNL     1       5.354 -29.429  23.237  1.00  0.00    -0.396 OA
ATOM     36  H   UNL     1       5.137 -29.325  22.294  1.00  0.00     0.210 HD
ENDBRANCH  34  35
ENDBRANCH  33  34
ENDBRANCH   3  28
TORSDOF 7
ENDMDL
