MODEL 1
REMARK VINA RESULT:    -8.409      0.000      0.000
REMARK INTER + INTRA:         -12.177
REMARK INTER:                 -10.867
REMARK INTRA:                  -1.310
REMARK UNBOUND:                -1.310
REMARK SMILES Cc1cc([C@@H](C)Nc2ccccc2C(=O)[O-])c2nc(N3CCOCC3)cc(=O)n2c1
REMARK SMILES IDX 7 1 5 3 6 4 4 5 2 6 30 7 3 8 29 9 17 10 27 11 18 12 26 13
REMARK SMILES IDX 28 14 19 15 1 16 20 17 25 18 21 19 24 20 22 21 23 22 8 23
REMARK SMILES IDX 13 24 9 25 12 26 10 27 11 28 14 29 15 30 16 31
REMARK H PARENT 7 2
ROOT
ATOM      1  N   UNL     1      30.695  45.654  40.836  1.00  0.00    -0.378 N 
ATOM      2  H   UNL     1      31.079  46.573  40.666  1.00  0.00     0.161 HD
ENDROOT
BRANCH   1   3
ATOM      3  C   UNL     1      31.003  45.094  42.155  1.00  0.00     0.110 C 
ATOM      4  C   UNL     1      29.793  44.315  42.695  1.00  0.00     0.036 C 
BRANCH   3   5
ATOM      5  C   UNL     1      31.549  46.080  43.203  1.00  0.00     0.018 A 
ATOM      6  C   UNL     1      31.317  47.196  45.395  1.00  0.00    -0.034 A 
ATOM      7  C   UNL     1      32.452  47.872  45.114  1.00  0.00     0.100 A 
ATOM      8  C   UNL     1      30.874  46.263  44.369  1.00  0.00     0.014 A 
ATOM      9  N   UNL     1      33.212  47.747  43.957  1.00  0.00    -0.267 N 
ATOM     10  C   UNL     1      32.781  46.845  42.960  1.00  0.00     0.147 A 
ATOM     11  C   UNL     1      34.356  48.517  43.844  1.00  0.00     0.259 A 
ATOM     12  N   UNL     1      33.469  46.710  41.872  1.00  0.00    -0.213 NA
ATOM     13  C   UNL     1      35.064  48.308  42.595  1.00  0.00     0.119 A 
ATOM     14  O   UNL     1      34.792  49.318  44.673  1.00  0.00    -0.269 OA
ATOM     15  C   UNL     1      34.612  47.431  41.661  1.00  0.00     0.136 A 
ATOM     16  C   UNL     1      30.531  47.408  46.675  1.00  0.00     0.046 C 
BRANCH  15  17
ATOM     17  N   UNL     1      35.248  47.193  40.446  1.00  0.00    -0.352 N 
ATOM     18  C   UNL     1      36.641  47.609  40.203  1.00  0.00     0.146 C 
ATOM     19  C   UNL     1      34.897  46.027  39.612  1.00  0.00     0.146 C 
ATOM     20  C   UNL     1      36.928  47.792  38.698  1.00  0.00     0.181 C 
ATOM     21  C   UNL     1      35.251  46.259  38.127  1.00  0.00     0.181 C 
ATOM     22  O   UNL     1      36.625  46.593  37.999  1.00  0.00    -0.378 OA
ENDBRANCH  15  17
ENDBRANCH   3   5
ENDBRANCH   1   3
BRANCH   1  23
ATOM     23  C   UNL     1      30.577  44.853  39.677  1.00  0.00     0.044 A 
ATOM     24  C   UNL     1      30.941  45.333  38.379  1.00  0.00     0.020 A 
ATOM     25  C   UNL     1      30.036  43.561  39.811  1.00  0.00     0.026 A 
ATOM     26  C   UNL     1      30.724  44.460  37.288  1.00  0.00     0.012 A 
ATOM     27  C   UNL     1      29.847  42.735  38.711  1.00  0.00     0.002 A 
ATOM     28  C   UNL     1      30.188  43.186  37.447  1.00  0.00     0.001 A 
BRANCH  24  29
ATOM     29  C   UNL     1      31.585  46.693  38.106  1.00  0.00     0.074 C 
ATOM     30  O   UNL     1      32.059  46.917  36.967  1.00  0.00    -0.545 OA
ATOM     31  O   UNL     1      31.653  47.552  39.015  1.00  0.00    -0.545 OA
ENDBRANCH  24  29
ENDBRANCH   1  23
TORSDOF 5
ENDMDL
