MODEL 1
REMARK VINA RESULT:    -9.093      0.000      0.000
REMARK INTER + INTRA:         -15.118
REMARK INTER:                 -14.142
REMARK INTRA:                  -0.976
REMARK UNBOUND:                -0.976
REMARK SMILES CC(C)O[C@@H](Cc1ccc(OCc2noc(-c3cccc(F)c3)n2)cc1)C(=O)O
REMARK SMILES IDX 7 1 8 2 9 3 10 4 25 5 26 6 6 7 5 8 4 9 2 10 1 11 3 12 27 13
REMARK SMILES IDX 28 14 29 15 11 17 12 18 13 19 14 20 24 21 15 22 16 23 17 24
REMARK SMILES IDX 18 25 23 26 19 27 21 28 20 29 22 30
REMARK H PARENT 29 16
ROOT
ATOM      1  C   UNL     1       4.536   8.398  -3.416  1.00  0.00    -0.045 A 
ATOM      2  C   UNL     1       5.369   9.364  -2.835  1.00  0.00     0.007 A 
ATOM      3  C   UNL     1       6.253  10.115  -3.617  1.00  0.00     0.047 A 
ATOM      4  C   UNL     1       6.316   9.910  -4.996  1.00  0.00     0.120 A 
ATOM      5  C   UNL     1       5.486   8.951  -5.578  1.00  0.00     0.047 A 
ATOM      6  C   UNL     1       4.603   8.200  -4.799  1.00  0.00     0.007 A 
ENDROOT
BRANCH   1   7
ATOM      7  C   UNL     1       3.578   7.595  -2.563  1.00  0.00     0.079 C 
BRANCH   7   8
ATOM      8  C   UNL     1       3.893   7.593  -1.055  1.00  0.00     0.232 C 
BRANCH   8   9
ATOM      9  O   UNL     1       4.639   6.413  -0.752  1.00  0.00    -0.364 OA
BRANCH   9  10
ATOM     10  C   UNL     1       4.603   5.411  -1.771  1.00  0.00     0.113 C 
ATOM     11  C   UNL     1       6.037   4.949  -1.998  1.00  0.00     0.038 C 
ATOM     12  C   UNL     1       3.735   4.244  -1.310  1.00  0.00     0.038 C 
ENDBRANCH   9  10
ENDBRANCH   8   9
BRANCH   8  13
ATOM     13  C   UNL     1       2.595   7.823  -0.268  1.00  0.00     0.333 C 
ATOM     14  O   UNL     1       1.882   6.946   0.200  1.00  0.00    -0.249 OA
BRANCH  13  15
ATOM     15  O   UNL     1       2.249   9.117  -0.122  1.00  0.00    -0.479 OA
ATOM     16  H   UNL     1       1.539   9.256  -0.781  1.00  0.00     0.296 HD
ENDBRANCH  13  15
ENDBRANCH   8  13
ENDBRANCH   7   8
ENDBRANCH   1   7
BRANCH   4  17
ATOM     17  O   UNL     1       7.128  10.570  -5.875  1.00  0.00    -0.485 OA
BRANCH  17  18
ATOM     18  C   UNL     1       8.529  10.584  -5.585  1.00  0.00     0.310 C 
BRANCH  18  19
ATOM     19  C   UNL     1       9.336  10.335  -6.815  1.00  0.00     0.209 A 
ATOM     20  N   UNL     1      10.433  11.045  -7.117  1.00  0.00    -0.058 NA
ATOM     21  N   UNL     1       8.997   9.377  -7.742  1.00  0.00    -0.188 NA
ATOM     22  O   UNL     1      10.853  10.482  -8.323  1.00  0.00    -0.334 OA
ATOM     23  C   UNL     1       9.958   9.497  -8.633  1.00  0.00     0.258 A 
BRANCH  23  24
ATOM     24  C   UNL     1      10.186   8.750  -9.864  1.00  0.00     0.043 A 
ATOM     25  C   UNL     1      10.454   7.371  -9.797  1.00  0.00     0.014 A 
ATOM     26  C   UNL     1      10.146   9.362 -11.123  1.00  0.00     0.053 A 
ATOM     27  C   UNL     1      10.676   6.622 -10.958  1.00  0.00     0.004 A 
ATOM     28  C   UNL     1      10.369   8.608 -12.272  1.00  0.00     0.124 A 
ATOM     29  C   UNL     1      10.633   7.246 -12.201  1.00  0.00     0.039 A 
ATOM     30  F   UNL     1      10.326   9.208 -13.469  1.00  0.00    -0.207 F 
ENDBRANCH  23  24
ENDBRANCH  18  19
ENDBRANCH  17  18
ENDBRANCH   4  17
TORSDOF 10
ENDMDL
MODEL 2
REMARK VINA RESULT:    -9.013      3.566     10.241
REMARK INTER + INTRA:         -14.994
REMARK INTER:                 -13.922
REMARK INTRA:                  -1.072
REMARK UNBOUND:                -0.976
REMARK SMILES CC(C)O[C@@H](Cc1ccc(OCc2noc(-c3cccc(F)c3)n2)cc1)C(=O)O
REMARK SMILES IDX 7 1 8 2 9 3 10 4 25 5 26 6 6 7 5 8 4 9 2 10 1 11 3 12 27 13
REMARK SMILES IDX 28 14 29 15 11 17 12 18 13 19 14 20 24 21 15 22 16 23 17 24
REMARK SMILES IDX 18 25 23 26 19 27 21 28 20 29 22 30
REMARK H PARENT 29 16
ROOT
ATOM      1  C   UNL     1      10.020   9.747 -10.994  1.00  0.00    -0.045 A 
ATOM      2  C   UNL     1       9.801   8.709 -10.078  1.00  0.00     0.007 A 
ATOM      3  C   UNL     1      10.132   8.862  -8.727  1.00  0.00     0.047 A 
ATOM      4  C   UNL     1      10.688  10.058  -8.273  1.00  0.00     0.120 A 
ATOM      5  C   UNL     1      10.905  11.094  -9.182  1.00  0.00     0.047 A 
ATOM      6  C   UNL     1      10.575  10.944 -10.531  1.00  0.00     0.007 A 
ENDROOT
BRANCH   1   7
ATOM      7  C   UNL     1       9.653   9.575 -12.452  1.00  0.00     0.079 C 
BRANCH   7   8
ATOM      8  C   UNL     1      10.832   9.244 -13.386  1.00  0.00     0.232 C 
BRANCH   8   9
ATOM      9  O   UNL     1      11.952   8.866 -12.583  1.00  0.00    -0.364 OA
BRANCH   9  10
ATOM     10  C   UNL     1      12.614   7.675 -13.016  1.00  0.00     0.113 C 
ATOM     11  C   UNL     1      14.082   8.028 -13.225  1.00  0.00     0.038 C 
ATOM     12  C   UNL     1      12.474   6.595 -11.947  1.00  0.00     0.038 C 
ENDBRANCH   9  10
ENDBRANCH   8   9
BRANCH   8  13
ATOM     13  C   UNL     1      11.037  10.404 -14.372  1.00  0.00     0.333 C 
ATOM     14  O   UNL     1      10.788  11.581 -14.147  1.00  0.00    -0.249 OA
BRANCH  13  15
ATOM     15  O   UNL     1      11.516  10.038 -15.577  1.00  0.00    -0.479 OA
ATOM     16  H   UNL     1      10.821   9.461 -15.952  1.00  0.00     0.296 HD
ENDBRANCH  13  15
ENDBRANCH   8  13
ENDBRANCH   7   8
ENDBRANCH   1   7
BRANCH   4  17
ATOM     17  O   UNL     1      11.056  10.341  -6.987  1.00  0.00    -0.485 OA
BRANCH  17  18
ATOM     18  C   UNL     1      10.411  11.450  -6.353  1.00  0.00     0.310 C 
BRANCH  18  19
ATOM     19  C   UNL     1       9.286  10.994  -5.486  1.00  0.00     0.209 A 
ATOM     20  N   UNL     1       9.319  11.093  -4.148  1.00  0.00    -0.058 NA
ATOM     21  N   UNL     1       8.146  10.415  -5.993  1.00  0.00    -0.188 NA
ATOM     22  O   UNL     1       8.088  10.559  -3.761  1.00  0.00    -0.334 OA
ATOM     23  C   UNL     1       7.443  10.182  -4.906  1.00  0.00     0.258 A 
BRANCH  23  24
ATOM     24  C   UNL     1       6.119   9.590  -4.762  1.00  0.00     0.043 A 
ATOM     25  C   UNL     1       5.584   9.396  -3.476  1.00  0.00     0.014 A 
ATOM     26  C   UNL     1       5.352   9.205  -5.870  1.00  0.00     0.053 A 
ATOM     27  C   UNL     1       4.315   8.832  -3.300  1.00  0.00     0.004 A 
ATOM     28  C   UNL     1       4.091   8.645  -5.683  1.00  0.00     0.124 A 
ATOM     29  C   UNL     1       3.566   8.455  -4.411  1.00  0.00     0.039 A 
ATOM     30  F   UNL     1       3.369   8.284  -6.753  1.00  0.00    -0.207 F 
ENDBRANCH  23  24
ENDBRANCH  18  19
ENDBRANCH  17  18
ENDBRANCH   4  17
TORSDOF 10
ENDMDL
MODEL 3
REMARK VINA RESULT:    -8.834      1.280      1.781
REMARK INTER + INTRA:         -14.716
REMARK INTER:                 -13.826
REMARK INTRA:                  -0.889
REMARK UNBOUND:                -0.976
REMARK SMILES CC(C)O[C@@H](Cc1ccc(OCc2noc(-c3cccc(F)c3)n2)cc1)C(=O)O
REMARK SMILES IDX 7 1 8 2 9 3 10 4 25 5 26 6 6 7 5 8 4 9 2 10 1 11 3 12 27 13
REMARK SMILES IDX 28 14 29 15 11 17 12 18 13 19 14 20 24 21 15 22 16 23 17 24
REMARK SMILES IDX 18 25 23 26 19 27 21 28 20 29 22 30
REMARK H PARENT 29 16
ROOT
ATOM      1  C   UNL     1       5.195   9.447  -3.940  1.00  0.00    -0.045 A 
ATOM      2  C   UNL     1       5.505   9.299  -5.299  1.00  0.00     0.007 A 
ATOM      3  C   UNL     1       6.758   9.676  -5.795  1.00  0.00     0.047 A 
ATOM      4  C   UNL     1       7.721  10.207  -4.936  1.00  0.00     0.120 A 
ATOM      5  C   UNL     1       7.416  10.353  -3.582  1.00  0.00     0.047 A 
ATOM      6  C   UNL     1       6.166   9.977  -3.085  1.00  0.00     0.007 A 
ENDROOT
BRANCH   1   7
ATOM      7  C   UNL     1       3.840   9.031  -3.411  1.00  0.00     0.079 C 
BRANCH   7   8
ATOM      8  C   UNL     1       3.854   7.814  -2.466  1.00  0.00     0.232 C 
BRANCH   8   9
ATOM      9  O   UNL     1       3.015   6.801  -3.022  1.00  0.00    -0.364 OA
BRANCH   9  10
ATOM     10  C   UNL     1       3.631   5.515  -3.128  1.00  0.00     0.113 C 
ATOM     11  C   UNL     1       5.130   5.719  -2.942  1.00  0.00     0.038 C 
ATOM     12  C   UNL     1       3.082   4.594  -2.042  1.00  0.00     0.038 C 
ENDBRANCH   9  10
ENDBRANCH   8   9
BRANCH   8  13
ATOM     13  C   UNL     1       3.537   8.280  -1.037  1.00  0.00     0.333 C 
ATOM     14  O   UNL     1       2.420   8.519  -0.598  1.00  0.00    -0.249 OA
BRANCH  13  15
ATOM     15  O   UNL     1       4.617   8.440  -0.247  1.00  0.00    -0.479 OA
ATOM     16  H   UNL     1       5.318   7.914  -0.681  1.00  0.00     0.296 HD
ENDBRANCH  13  15
ENDBRANCH   8  13
ENDBRANCH   7   8
ENDBRANCH   1   7
BRANCH   4  17
ATOM     17  O   UNL     1       8.978  10.613  -5.284  1.00  0.00    -0.485 OA
BRANCH  17  18
ATOM     18  C   UNL     1       9.096  11.464  -6.429  1.00  0.00     0.310 C 
BRANCH  18  19
ATOM     19  C   UNL     1       9.697  10.734  -7.583  1.00  0.00     0.209 A 
ATOM     20  N   UNL     1      10.566  11.307  -8.428  1.00  0.00    -0.058 NA
ATOM     21  N   UNL     1       9.382   9.428  -7.879  1.00  0.00    -0.188 NA
ATOM     22  O   UNL     1      10.858  10.280  -9.328  1.00  0.00    -0.334 OA
ATOM     23  C   UNL     1      10.124   9.194  -8.940  1.00  0.00     0.258 A 
BRANCH  23  24
ATOM     24  C   UNL     1      10.260   7.978  -9.732  1.00  0.00     0.043 A 
ATOM     25  C   UNL     1      10.389   6.738  -9.080  1.00  0.00     0.014 A 
ATOM     26  C   UNL     1      10.267   8.000 -11.133  1.00  0.00     0.053 A 
ATOM     27  C   UNL     1      10.520   5.551  -9.808  1.00  0.00     0.004 A 
ATOM     28  C   UNL     1      10.399   6.813 -11.848  1.00  0.00     0.124 A 
ATOM     29  C   UNL     1      10.525   5.590 -11.199  1.00  0.00     0.039 A 
ATOM     30  F   UNL     1      10.402   6.850 -13.187  1.00  0.00    -0.207 F 
ENDBRANCH  23  24
ENDBRANCH  18  19
ENDBRANCH  17  18
ENDBRANCH   4  17
TORSDOF 10
ENDMDL
MODEL 4
REMARK VINA RESULT:    -8.788      1.840      2.875
REMARK INTER + INTRA:         -14.644
REMARK INTER:                 -13.627
REMARK INTRA:                  -1.018
REMARK UNBOUND:                -0.976
REMARK SMILES CC(C)O[C@@H](Cc1ccc(OCc2noc(-c3cccc(F)c3)n2)cc1)C(=O)O
REMARK SMILES IDX 7 1 8 2 9 3 10 4 25 5 26 6 6 7 5 8 4 9 2 10 1 11 3 12 27 13
REMARK SMILES IDX 28 14 29 15 11 17 12 18 13 19 14 20 24 21 15 22 16 23 17 24
REMARK SMILES IDX 18 25 23 26 19 27 21 28 20 29 22 30
REMARK H PARENT 29 16
ROOT
ATOM      1  C   UNL     1       6.041   9.883  -3.791  1.00  0.00    -0.045 A 
ATOM      2  C   UNL     1       6.203   9.865  -5.183  1.00  0.00     0.007 A 
ATOM      3  C   UNL     1       7.425  10.217  -5.768  1.00  0.00     0.047 A 
ATOM      4  C   UNL     1       8.503  10.592  -4.966  1.00  0.00     0.120 A 
ATOM      5  C   UNL     1       8.345  10.609  -3.579  1.00  0.00     0.047 A 
ATOM      6  C   UNL     1       7.126  10.258  -2.994  1.00  0.00     0.007 A 
ENDROOT
BRANCH   1   7
ATOM      7  C   UNL     1       4.717   9.495  -3.167  1.00  0.00     0.079 C 
BRANCH   7   8
ATOM      8  C   UNL     1       4.453   7.979  -3.090  1.00  0.00     0.232 C 
BRANCH   8   9
ATOM      9  O   UNL     1       3.223   7.701  -3.762  1.00  0.00    -0.364 OA
BRANCH   9  10
ATOM     10  C   UNL     1       3.368   6.979  -4.987  1.00  0.00     0.113 C 
ATOM     11  C   UNL     1       3.129   7.967  -6.122  1.00  0.00     0.038 C 
ATOM     12  C   UNL     1       4.777   6.400  -5.075  1.00  0.00     0.038 C 
ENDBRANCH   9  10
ENDBRANCH   8   9
BRANCH   8  13
ATOM     13  C   UNL     1       4.574   7.519  -1.630  1.00  0.00     0.333 C 
ATOM     14  O   UNL     1       4.773   6.369  -1.262  1.00  0.00    -0.249 OA
BRANCH  13  15
ATOM     15  O   UNL     1       4.422   8.499  -0.718  1.00  0.00    -0.479 OA
ATOM     16  H   UNL     1       3.811   8.121  -0.053  1.00  0.00     0.296 HD
ENDBRANCH  13  15
ENDBRANCH   8  13
ENDBRANCH   7   8
ENDBRANCH   1   7
BRANCH   4  17
ATOM     17  O   UNL     1       9.746  10.957  -5.402  1.00  0.00    -0.485 OA
BRANCH  17  18
ATOM     18  C   UNL     1       9.817  11.715  -6.614  1.00  0.00     0.310 C 
BRANCH  18  19
ATOM     19  C   UNL     1      10.098  10.834  -7.784  1.00  0.00     0.209 A 
ATOM     20  N   UNL     1      10.249   9.507  -7.670  1.00  0.00    -0.058 NA
ATOM     21  N   UNL     1      10.249  11.324  -9.061  1.00  0.00    -0.188 NA
ATOM     22  O   UNL     1      10.491   9.101  -8.984  1.00  0.00    -0.334 OA
ATOM     23  C   UNL     1      10.472  10.229  -9.756  1.00  0.00     0.258 A 
BRANCH  23  24
ATOM     24  C   UNL     1      10.699  10.064 -11.186  1.00  0.00     0.043 A 
ATOM     25  C   UNL     1      10.887   8.773 -11.712  1.00  0.00     0.014 A 
ATOM     26  C   UNL     1      10.738  11.155 -12.064  1.00  0.00     0.053 A 
ATOM     27  C   UNL     1      11.107   8.577 -13.080  1.00  0.00     0.004 A 
ATOM     28  C   UNL     1      10.957  10.949 -13.423  1.00  0.00     0.124 A 
ATOM     29  C   UNL     1      11.141   9.671 -13.939  1.00  0.00     0.039 A 
ATOM     30  F   UNL     1      10.990  12.002 -14.250  1.00  0.00    -0.207 F 
ENDBRANCH  23  24
ENDBRANCH  18  19
ENDBRANCH  17  18
ENDBRANCH   4  17
TORSDOF 10
ENDMDL
MODEL 5
REMARK VINA RESULT:    -8.545      2.863      3.857
REMARK INTER + INTRA:         -14.266
REMARK INTER:                 -13.380
REMARK INTRA:                  -0.886
REMARK UNBOUND:                -0.976
REMARK SMILES CC(C)O[C@@H](Cc1ccc(OCc2noc(-c3cccc(F)c3)n2)cc1)C(=O)O
REMARK SMILES IDX 7 1 8 2 9 3 10 4 25 5 26 6 6 7 5 8 4 9 2 10 1 11 3 12 27 13
REMARK SMILES IDX 28 14 29 15 11 17 12 18 13 19 14 20 24 21 15 22 16 23 17 24
REMARK SMILES IDX 18 25 23 26 19 27 21 28 20 29 22 30
REMARK H PARENT 29 16
ROOT
ATOM      1  C   UNL     1       4.881   6.516  -5.404  1.00  0.00    -0.045 A 
ATOM      2  C   UNL     1       5.527   5.283  -5.560  1.00  0.00     0.007 A 
ATOM      3  C   UNL     1       6.783   5.203  -6.173  1.00  0.00     0.047 A 
ATOM      4  C   UNL     1       7.411   6.359  -6.638  1.00  0.00     0.120 A 
ATOM      5  C   UNL     1       6.770   7.589  -6.480  1.00  0.00     0.047 A 
ATOM      6  C   UNL     1       5.517   7.671  -5.869  1.00  0.00     0.007 A 
ENDROOT
BRANCH   1   7
ATOM      7  C   UNL     1       3.525   6.594  -4.734  1.00  0.00     0.079 C 
BRANCH   7   8
ATOM      8  C   UNL     1       3.552   6.508  -3.196  1.00  0.00     0.232 C 
BRANCH   8   9
ATOM      9  O   UNL     1       2.254   6.121  -2.743  1.00  0.00    -0.364 OA
BRANCH   9  10
ATOM     10  C   UNL     1       2.260   5.185  -1.663  1.00  0.00     0.113 C 
ATOM     11  C   UNL     1       3.604   4.467  -1.697  1.00  0.00     0.038 C 
ATOM     12  C   UNL     1       2.088   5.928  -0.342  1.00  0.00     0.038 C 
ENDBRANCH   9  10
ENDBRANCH   8   9
BRANCH   8  13
ATOM     13  C   UNL     1       4.132   7.812  -2.628  1.00  0.00     0.333 C 
ATOM     14  O   UNL     1       5.015   7.888  -1.784  1.00  0.00    -0.249 OA
BRANCH  13  15
ATOM     15  O   UNL     1       3.576   8.936  -3.121  1.00  0.00    -0.479 OA
ATOM     16  H   UNL     1       4.223   9.259  -3.781  1.00  0.00     0.296 HD
ENDBRANCH  13  15
ENDBRANCH   8  13
ENDBRANCH   7   8
ENDBRANCH   1   7
BRANCH   4  17
ATOM     17  O   UNL     1       8.630   6.426  -7.251  1.00  0.00    -0.485 OA
BRANCH  17  18
ATOM     18  C   UNL     1       9.198   5.196  -7.712  1.00  0.00     0.310 C 
BRANCH  18  19
ATOM     19  C   UNL     1       9.896   5.381  -9.017  1.00  0.00     0.209 A 
ATOM     20  N   UNL     1      10.325   4.351  -9.760  1.00  0.00    -0.058 NA
ATOM     21  N   UNL     1      10.174   6.623  -9.539  1.00  0.00    -0.188 NA
ATOM     22  O   UNL     1      10.903   4.976 -10.866  1.00  0.00    -0.334 OA
ATOM     23  C   UNL     1      10.774   6.323 -10.671  1.00  0.00     0.258 A 
BRANCH  23  24
ATOM     24  C   UNL     1      11.306   7.202 -11.705  1.00  0.00     0.043 A 
ATOM     25  C   UNL     1      10.485   8.205 -12.250  1.00  0.00     0.014 A 
ATOM     26  C   UNL     1      12.619   7.083 -12.179  1.00  0.00     0.053 A 
ATOM     27  C   UNL     1      10.962   9.067 -13.243  1.00  0.00     0.004 A 
ATOM     28  C   UNL     1      13.084   7.946 -13.167  1.00  0.00     0.124 A 
ATOM     29  C   UNL     1      12.269   8.936 -13.703  1.00  0.00     0.039 A 
ATOM     30  F   UNL     1      14.343   7.820 -13.609  1.00  0.00    -0.207 F 
ENDBRANCH  23  24
ENDBRANCH  18  19
ENDBRANCH  17  18
ENDBRANCH   4  17
TORSDOF 10
ENDMDL
MODEL 6
REMARK VINA RESULT:    -8.484      6.396     11.318
REMARK INTER + INTRA:         -14.172
REMARK INTER:                 -13.098
REMARK INTRA:                  -1.074
REMARK UNBOUND:                -0.976
REMARK SMILES CC(C)O[C@@H](Cc1ccc(OCc2noc(-c3cccc(F)c3)n2)cc1)C(=O)O
REMARK SMILES IDX 7 1 8 2 9 3 10 4 25 5 26 6 6 7 5 8 4 9 2 10 1 11 3 12 27 13
REMARK SMILES IDX 28 14 29 15 11 17 12 18 13 19 14 20 24 21 15 22 16 23 17 24
REMARK SMILES IDX 18 25 23 26 19 27 21 28 20 29 22 30
REMARK H PARENT 29 16
ROOT
ATOM      1  C   UNL     1      10.601   7.206 -11.415  1.00  0.00    -0.045 A 
ATOM      2  C   UNL     1      10.326   8.193 -10.459  1.00  0.00     0.007 A 
ATOM      3  C   UNL     1      10.148   7.858  -9.112  1.00  0.00     0.047 A 
ATOM      4  C   UNL     1      10.242   6.528  -8.703  1.00  0.00     0.120 A 
ATOM      5  C   UNL     1      10.518   5.543  -9.652  1.00  0.00     0.047 A 
ATOM      6  C   UNL     1      10.697   5.875 -10.997  1.00  0.00     0.007 A 
ENDROOT
BRANCH   1   7
ATOM      7  C   UNL     1      10.799   7.578 -12.869  1.00  0.00     0.079 C 
BRANCH   7   8
ATOM      8  C   UNL     1      11.549   8.902 -13.107  1.00  0.00     0.232 C 
BRANCH   8   9
ATOM      9  O   UNL     1      10.926   9.585 -14.196  1.00  0.00    -0.364 OA
BRANCH   9  10
ATOM     10  C   UNL     1      10.170  10.737 -13.817  1.00  0.00     0.113 C 
ATOM     11  C   UNL     1       8.740  10.274 -13.568  1.00  0.00     0.038 C 
ATOM     12  C   UNL     1      10.762  11.342 -12.548  1.00  0.00     0.038 C 
ENDBRANCH   9  10
ENDBRANCH   8   9
BRANCH   8  13
ATOM     13  C   UNL     1      13.054   8.617 -13.226  1.00  0.00     0.333 C 
ATOM     14  O   UNL     1      13.580   7.518 -13.110  1.00  0.00    -0.249 OA
BRANCH  13  15
ATOM     15  O   UNL     1      13.814   9.703 -13.463  1.00  0.00    -0.479 OA
ATOM     16  H   UNL     1      13.393  10.133 -14.234  1.00  0.00     0.296 HD
ENDBRANCH  13  15
ENDBRANCH   8  13
ENDBRANCH   7   8
ENDBRANCH   1   7
BRANCH   4  17
ATOM     17  O   UNL     1      10.091   6.062  -7.426  1.00  0.00    -0.485 OA
BRANCH  17  18
ATOM     18  C   UNL     1       8.863   5.398  -7.114  1.00  0.00     0.310 C 
BRANCH  18  19
ATOM     19  C   UNL     1       9.100   4.211  -6.243  1.00  0.00     0.209 A 
ATOM     20  N   UNL     1       8.263   3.164  -6.204  1.00  0.00    -0.058 NA
ATOM     21  N   UNL     1      10.180   4.117  -5.395  1.00  0.00    -0.188 NA
ATOM     22  O   UNL     1       8.864   2.311  -5.277  1.00  0.00    -0.334 OA
ATOM     23  C   UNL     1       9.999   2.937  -4.841  1.00  0.00     0.258 A 
BRANCH  23  24
ATOM     24  C   UNL     1      10.813   2.236  -3.856  1.00  0.00     0.043 A 
ATOM     25  C   UNL     1      10.270   1.945  -2.591  1.00  0.00     0.014 A 
ATOM     26  C   UNL     1      12.128   1.837  -4.126  1.00  0.00     0.053 A 
ATOM     27  C   UNL     1      11.022   1.273  -1.622  1.00  0.00     0.004 A 
ATOM     28  C   UNL     1      12.867   1.169  -3.154  1.00  0.00     0.124 A 
ATOM     29  C   UNL     1      12.327   0.883  -1.906  1.00  0.00     0.039 A 
ATOM     30  F   UNL     1      14.124   0.792  -3.429  1.00  0.00    -0.207 F 
ENDBRANCH  23  24
ENDBRANCH  18  19
ENDBRANCH  17  18
ENDBRANCH   4  17
TORSDOF 10
ENDMDL
MODEL 7
REMARK VINA RESULT:    -8.455      4.230     10.716
REMARK INTER + INTRA:         -14.127
REMARK INTER:                 -13.057
REMARK INTRA:                  -1.070
REMARK UNBOUND:                -0.976
REMARK SMILES CC(C)O[C@@H](Cc1ccc(OCc2noc(-c3cccc(F)c3)n2)cc1)C(=O)O
REMARK SMILES IDX 7 1 8 2 9 3 10 4 25 5 26 6 6 7 5 8 4 9 2 10 1 11 3 12 27 13
REMARK SMILES IDX 28 14 29 15 11 17 12 18 13 19 14 20 24 21 15 22 16 23 17 24
REMARK SMILES IDX 18 25 23 26 19 27 21 28 20 29 22 30
REMARK H PARENT 29 16
ROOT
ATOM      1  C   UNL     1      10.480   7.377 -11.456  1.00  0.00    -0.045 A 
ATOM      2  C   UNL     1      10.229   8.349 -10.478  1.00  0.00     0.007 A 
ATOM      3  C   UNL     1      10.097   7.995  -9.130  1.00  0.00     0.047 A 
ATOM      4  C   UNL     1      10.215   6.660  -8.742  1.00  0.00     0.120 A 
ATOM      5  C   UNL     1      10.468   5.690  -9.714  1.00  0.00     0.047 A 
ATOM      6  C   UNL     1      10.599   6.042 -11.059  1.00  0.00     0.007 A 
ENDROOT
BRANCH   1   7
ATOM      7  C   UNL     1      10.626   7.771 -12.910  1.00  0.00     0.079 C 
BRANCH   7   8
ATOM      8  C   UNL     1      11.508   9.008 -13.165  1.00  0.00     0.232 C 
BRANCH   8   9
ATOM      9  O   UNL     1      10.987   9.709 -14.296  1.00  0.00    -0.364 OA
BRANCH   9  10
ATOM     10  C   UNL     1      10.264  10.898 -13.973  1.00  0.00     0.113 C 
ATOM     11  C   UNL     1       8.791  10.517 -13.878  1.00  0.00     0.038 C 
ATOM     12  C   UNL     1      10.756  11.449 -12.638  1.00  0.00     0.038 C 
ENDBRANCH   9  10
ENDBRANCH   8   9
BRANCH   8  13
ATOM     13  C   UNL     1      12.980   8.576 -13.226  1.00  0.00     0.333 C 
ATOM     14  O   UNL     1      13.405   7.460 -12.958  1.00  0.00    -0.249 OA
BRANCH  13  15
ATOM     15  O   UNL     1      13.836   9.549 -13.594  1.00  0.00    -0.479 OA
ATOM     16  H   UNL     1      13.358  10.380 -13.403  1.00  0.00     0.296 HD
ENDBRANCH  13  15
ENDBRANCH   8  13
ENDBRANCH   7   8
ENDBRANCH   1   7
BRANCH   4  17
ATOM     17  O   UNL     1      10.111   6.176  -7.468  1.00  0.00    -0.485 OA
BRANCH  17  18
ATOM     18  C   UNL     1       9.350   4.978  -7.285  1.00  0.00     0.310 C 
BRANCH  18  19
ATOM     19  C   UNL     1       8.002   5.278  -6.721  1.00  0.00     0.209 A 
ATOM     20  N   UNL     1       7.171   4.319  -6.285  1.00  0.00    -0.058 NA
ATOM     21  N   UNL     1       7.503   6.557  -6.632  1.00  0.00    -0.188 NA
ATOM     22  O   UNL     1       6.055   5.039  -5.855  1.00  0.00    -0.334 OA
ATOM     23  C   UNL     1       6.322   6.359  -6.086  1.00  0.00     0.258 A 
BRANCH  23  24
ATOM     24  C   UNL     1       5.295   7.324  -5.713  1.00  0.00     0.043 A 
ATOM     25  C   UNL     1       3.941   6.949  -5.771  1.00  0.00     0.014 A 
ATOM     26  C   UNL     1       5.612   8.623  -5.295  1.00  0.00     0.053 A 
ATOM     27  C   UNL     1       2.928   7.849  -5.420  1.00  0.00     0.004 A 
ATOM     28  C   UNL     1       4.596   9.510  -4.948  1.00  0.00     0.124 A 
ATOM     29  C   UNL     1       3.259   9.135  -5.006  1.00  0.00     0.039 A 
ATOM     30  F   UNL     1       4.916  10.748  -4.548  1.00  0.00    -0.207 F 
ENDBRANCH  23  24
ENDBRANCH  18  19
ENDBRANCH  17  18
ENDBRANCH   4  17
TORSDOF 10
ENDMDL
MODEL 8
REMARK VINA RESULT:    -8.401      3.360     10.462
REMARK INTER + INTRA:         -14.042
REMARK INTER:                 -13.074
REMARK INTRA:                  -0.968
REMARK UNBOUND:                -0.976
REMARK SMILES CC(C)O[C@@H](Cc1ccc(OCc2noc(-c3cccc(F)c3)n2)cc1)C(=O)O
REMARK SMILES IDX 7 1 8 2 9 3 10 4 25 5 26 6 6 7 5 8 4 9 2 10 1 11 3 12 27 13
REMARK SMILES IDX 28 14 29 15 11 17 12 18 13 19 14 20 24 21 15 22 16 23 17 24
REMARK SMILES IDX 18 25 23 26 19 27 21 28 20 29 22 30
REMARK H PARENT 29 16
ROOT
ATOM      1  C   UNL     1      10.477   8.913 -10.744  1.00  0.00    -0.045 A 
ATOM      2  C   UNL     1      10.772  10.261 -10.498  1.00  0.00     0.007 A 
ATOM      3  C   UNL     1      10.697  10.787  -9.203  1.00  0.00     0.047 A 
ATOM      4  C   UNL     1      10.325   9.970  -8.135  1.00  0.00     0.120 A 
ATOM      5  C   UNL     1      10.034   8.626  -8.377  1.00  0.00     0.047 A 
ATOM      6  C   UNL     1      10.108   8.099  -9.669  1.00  0.00     0.007 A 
ENDROOT
BRANCH   1   7
ATOM      7  C   UNL     1      10.567   8.351 -12.147  1.00  0.00     0.079 C 
BRANCH   7   8
ATOM      8  C   UNL     1      11.568   9.067 -13.073  1.00  0.00     0.232 C 
BRANCH   8   9
ATOM      9  O   UNL     1      10.909   9.370 -14.303  1.00  0.00    -0.364 OA
BRANCH   9  10
ATOM     10  C   UNL     1      10.386  10.698 -14.382  1.00  0.00     0.113 C 
ATOM     11  C   UNL     1       9.017  10.682 -13.711  1.00  0.00     0.038 C 
ATOM     12  C   UNL     1      11.322  11.660 -13.658  1.00  0.00     0.038 C 
ENDBRANCH   9  10
ENDBRANCH   8   9
BRANCH   8  13
ATOM     13  C   UNL     1      12.860   8.240 -13.155  1.00  0.00     0.333 C 
ATOM     14  O   UNL     1      12.968   7.058 -12.858  1.00  0.00    -0.249 OA
BRANCH  13  15
ATOM     15  O   UNL     1      13.939   8.926 -13.581  1.00  0.00    -0.479 OA
ATOM     16  H   UNL     1      14.697   8.478 -13.153  1.00  0.00     0.296 HD
ENDBRANCH  13  15
ENDBRANCH   8  13
ENDBRANCH   7   8
ENDBRANCH   1   7
BRANCH   4  17
ATOM     17  O   UNL     1      10.213  10.350  -6.827  1.00  0.00    -0.485 OA
BRANCH  17  18
ATOM     18  C   UNL     1       9.165  11.269  -6.502  1.00  0.00     0.310 C 
BRANCH  18  19
ATOM     19  C   UNL     1       8.146  10.632  -5.619  1.00  0.00     0.209 A 
ATOM     20  N   UNL     1       8.227  10.662  -4.280  1.00  0.00    -0.058 NA
ATOM     21  N   UNL     1       7.062   9.944  -6.114  1.00  0.00    -0.188 NA
ATOM     22  O   UNL     1       7.090   9.961  -3.877  1.00  0.00    -0.334 OA
ATOM     23  C   UNL     1       6.444   9.568  -5.015  1.00  0.00     0.258 A 
BRANCH  23  24
ATOM     24  C   UNL     1       5.209   8.810  -4.855  1.00  0.00     0.043 A 
ATOM     25  C   UNL     1       4.868   8.303  -3.588  1.00  0.00     0.014 A 
ATOM     26  C   UNL     1       4.340   8.567  -5.927  1.00  0.00     0.053 A 
ATOM     27  C   UNL     1       3.690   7.573  -3.396  1.00  0.00     0.004 A 
ATOM     28  C   UNL     1       3.171   7.838  -5.725  1.00  0.00     0.124 A 
ATOM     29  C   UNL     1       2.838   7.340  -4.471  1.00  0.00     0.039 A 
ATOM     30  F   UNL     1       2.350   7.615  -6.761  1.00  0.00    -0.207 F 
ENDBRANCH  23  24
ENDBRANCH  18  19
ENDBRANCH  17  18
ENDBRANCH   4  17
TORSDOF 10
ENDMDL
MODEL 9
REMARK VINA RESULT:    -8.397      2.763      3.725
REMARK INTER + INTRA:         -14.036
REMARK INTER:                 -12.873
REMARK INTRA:                  -1.163
REMARK UNBOUND:                -0.976
REMARK SMILES CC(C)O[C@@H](Cc1ccc(OCc2noc(-c3cccc(F)c3)n2)cc1)C(=O)O
REMARK SMILES IDX 7 1 8 2 9 3 10 4 25 5 26 6 6 7 5 8 4 9 2 10 1 11 3 12 27 13
REMARK SMILES IDX 28 14 29 15 11 17 12 18 13 19 14 20 24 21 15 22 16 23 17 24
REMARK SMILES IDX 18 25 23 26 19 27 21 28 20 29 22 30
REMARK H PARENT 29 16
ROOT
ATOM      1  C   UNL     1       5.372   6.754  -5.434  1.00  0.00    -0.045 A 
ATOM      2  C   UNL     1       6.222   7.601  -6.159  1.00  0.00     0.007 A 
ATOM      3  C   UNL     1       7.318   7.089  -6.861  1.00  0.00     0.047 A 
ATOM      4  C   UNL     1       7.581   5.719  -6.848  1.00  0.00     0.120 A 
ATOM      5  C   UNL     1       6.736   4.872  -6.129  1.00  0.00     0.047 A 
ATOM      6  C   UNL     1       5.640   5.381  -5.428  1.00  0.00     0.007 A 
ENDROOT
BRANCH   1   7
ATOM      7  C   UNL     1       4.185   7.315  -4.682  1.00  0.00     0.079 C 
BRANCH   7   8
ATOM      8  C   UNL     1       4.342   7.354  -3.150  1.00  0.00     0.232 C 
BRANCH   8   9
ATOM      9  O   UNL     1       3.111   6.936  -2.559  1.00  0.00    -0.364 OA
BRANCH   9  10
ATOM     10  C   UNL     1       3.181   5.687  -1.867  1.00  0.00     0.113 C 
ATOM     11  C   UNL     1       2.572   4.631  -2.782  1.00  0.00     0.038 C 
ATOM     12  C   UNL     1       4.639   5.351  -1.566  1.00  0.00     0.038 C 
ENDBRANCH   9  10
ENDBRANCH   8   9
BRANCH   8  13
ATOM     13  C   UNL     1       4.889   8.728  -2.734  1.00  0.00     0.333 C 
ATOM     14  O   UNL     1       5.593   8.946  -1.757  1.00  0.00    -0.249 OA
BRANCH  13  15
ATOM     15  O   UNL     1       4.519   9.746  -3.535  1.00  0.00    -0.479 OA
ATOM     16  H   UNL     1       4.844  10.547  -3.078  1.00  0.00     0.296 HD
ENDBRANCH  13  15
ENDBRANCH   8  13
ENDBRANCH   7   8
ENDBRANCH   1   7
BRANCH   4  17
ATOM     17  O   UNL     1       8.611   5.087  -7.486  1.00  0.00    -0.485 OA
BRANCH  17  18
ATOM     18  C   UNL     1       9.865   5.773  -7.541  1.00  0.00     0.310 C 
BRANCH  18  19
ATOM     19  C   UNL     1      10.185   6.201  -8.933  1.00  0.00     0.209 A 
ATOM     20  N   UNL     1      10.449   5.327  -9.916  1.00  0.00    -0.058 NA
ATOM     21  N   UNL     1      10.260   7.524  -9.304  1.00  0.00    -0.188 NA
ATOM     22  O   UNL     1      10.686   6.150 -11.018  1.00  0.00    -0.334 OA
ATOM     23  C   UNL     1      10.553   7.439 -10.584  1.00  0.00     0.258 A 
BRANCH  23  24
ATOM     24  C   UNL     1      10.755   8.498 -11.565  1.00  0.00     0.043 A 
ATOM     25  C   UNL     1      11.349   8.191 -12.802  1.00  0.00     0.014 A 
ATOM     26  C   UNL     1      10.373   9.824 -11.318  1.00  0.00     0.053 A 
ATOM     27  C   UNL     1      11.556   9.182 -13.768  1.00  0.00     0.004 A 
ATOM     28  C   UNL     1      10.584  10.802 -12.286  1.00  0.00     0.124 A 
ATOM     29  C   UNL     1      11.171  10.494 -13.507  1.00  0.00     0.039 A 
ATOM     30  F   UNL     1      10.212  12.064 -12.035  1.00  0.00    -0.207 F 
ENDBRANCH  23  24
ENDBRANCH  18  19
ENDBRANCH  17  18
ENDBRANCH   4  17
TORSDOF 10
ENDMDL
