MODEL 1
REMARK VINA RESULT:    -7.579      0.000      0.000
REMARK INTER + INTRA:          -9.835
REMARK INTER:                  -9.130
REMARK INTRA:                  -0.705
REMARK UNBOUND:                -0.705
REMARK SMILES CNC(=O)c1nc(-c2nc(-c3cnc4ccccn34)c(C)nc2N)n(C)n1
REMARK SMILES IDX 8 1 9 2 10 3 20 4 21 5 22 6 23 7 7 8 5 9 27 10 6 11 25 12
REMARK SMILES IDX 26 13 3 14 2 15 4 16 1 17 24 19 11 22 19 23 12 24 14 25
REMARK SMILES IDX 18 26 13 27 15 28 17 29 16 30
REMARK H PARENT 2 18 24 20 24 21
ROOT
ATOM      1  C   UNL     1      34.109  46.940  40.452  1.00  0.00     0.150 A 
ATOM      2  N   UNL     1      33.277  46.476  41.424  1.00  0.00    -0.237 NA
ATOM      3  C   UNL     1      31.942  46.378  41.183  1.00  0.00     0.111 A 
ATOM      4  C   UNL     1      31.432  46.763  39.930  1.00  0.00     0.068 A 
ATOM      5  C   UNL     1      29.954  46.734  39.573  1.00  0.00     0.069 C 
ATOM      6  N   UNL     1      32.250  47.221  38.945  1.00  0.00    -0.232 NA
ATOM      7  C   UNL     1      33.579  47.309  39.201  1.00  0.00     0.153 A 
ENDROOT
BRANCH   1   8
ATOM      8  C   UNL     1      35.563  47.011  40.840  1.00  0.00     0.181 A 
ATOM      9  C   UNL     1      37.363  47.577  41.772  1.00  0.00     0.239 A 
ATOM     10  N   UNL     1      37.711  46.522  41.058  1.00  0.00    -0.145 NA
ATOM     11  N   UNL     1      36.073  47.898  41.662  1.00  0.00    -0.201 NA
ATOM     12  N   UNL     1      36.577  46.167  40.452  1.00  0.00    -0.247 N 
ATOM     13  C   UNL     1      36.564  45.008  39.569  1.00  0.00     0.176 C 
BRANCH   9  14
ATOM     14  C   UNL     1      38.318  48.297  42.598  1.00  0.00     0.290 C 
ATOM     15  N   UNL     1      39.585  47.843  42.538  1.00  0.00    -0.352 N 
ATOM     16  O   UNL     1      37.969  49.252  43.295  1.00  0.00    -0.266 OA
ATOM     17  C   UNL     1      40.713  48.397  43.279  1.00  0.00     0.143 C 
ATOM     18  H   UNL     1      39.788  47.065  41.927  1.00  0.00     0.163 HD
ENDBRANCH   9  14
ENDBRANCH   1   8
BRANCH   7  19
ATOM     19  N   UNL     1      34.375  47.771  38.151  1.00  0.00    -0.382 N 
ATOM     20  H   UNL     1      34.389  48.759  37.939  1.00  0.00     0.158 HD
ATOM     21  H   UNL     1      34.905  47.111  37.602  1.00  0.00     0.158 HD
ENDBRANCH   7  19
BRANCH   3  22
ATOM     22  C   UNL     1      31.121  45.822  42.315  1.00  0.00     0.093 A 
ATOM     23  N   UNL     1      31.076  46.296  43.621  1.00  0.00    -0.298 N 
ATOM     24  C   UNL     1      30.275  44.708  42.341  1.00  0.00     0.142 A 
ATOM     25  C   UNL     1      30.211  45.426  44.317  1.00  0.00     0.137 A 
ATOM     26  C   UNL     1      31.663  47.369  44.250  1.00  0.00     0.093 A 
ATOM     27  N   UNL     1      29.728  44.455  43.507  1.00  0.00    -0.236 NA
ATOM     28  C   UNL     1      29.966  45.655  45.685  1.00  0.00     0.048 A 
ATOM     29  C   UNL     1      31.419  47.595  45.602  1.00  0.00     0.018 A 
ATOM     30  C   UNL     1      30.580  46.741  46.311  1.00  0.00     0.005 A 
ENDBRANCH   3  22
TORSDOF 4
ENDMDL
