REMARK VINA RESULT:    -8.492      2.475      3.723
REMARK INTER + INTRA:         -12.246
REMARK INTER:                 -11.251
REMARK INTRA:                  -0.995
REMARK UNBOUND:                -1.023
REMARK SMILES CN(C)c1cccc(Nc2nc(N)n(C(=O)c3c(F)cccc3F)n2)c1
REMARK SMILES IDX 10 1 11 2 12 3 14 4 25 5 9 6 8 8 4 9 5 10 26 11 6 12 7 13
REMARK SMILES IDX 2 14 1 15 3 16 13 17 15 20 16 21 17 22 18 23 23 24 20 25
REMARK SMILES IDX 22 26 21 27 19 28 24 29
REMARK H PARENT 9 7 13 18 13 19
ROOT
ATOM      1  C   UNL     1       4.231 -22.800  20.162  1.00  0.00     0.248 A 
ATOM      2  N   UNL     1       5.453 -22.698  19.554  1.00  0.00    -0.175 NA
ATOM      3  C   UNL     1       5.747 -21.425  19.643  1.00  0.00     0.228 A 
ATOM      4  N   UNL     1       4.723 -20.767  20.303  1.00  0.00    -0.159 N 
ATOM      5  N   UNL     1       3.742 -21.648  20.625  1.00  0.00    -0.123 NA
ENDROOT
BRANCH   1   6
ATOM      6  N   UNL     1       3.698 -24.034  20.201  1.00  0.00    -0.323 N 
ATOM      7  H   UNL     1       3.015 -24.205  19.475  1.00  0.00     0.170 HD
BRANCH   6   8
ATOM      8  C   UNL     1       3.908 -25.138  21.050  1.00  0.00     0.043 A 
ATOM      9  C   UNL     1       5.416 -26.243  22.692  1.00  0.00     0.038 A 
ATOM     10  C   UNL     1       4.470 -27.275  22.777  1.00  0.00     0.026 A 
ATOM     11  C   UNL     1       5.096 -25.188  21.813  1.00  0.00     0.052 A 
ATOM     12  C   UNL     1       3.285 -27.257  22.035  1.00  0.00     0.004 A 
ATOM     13  C   UNL     1       3.009 -26.195  21.178  1.00  0.00     0.026 A 
BRANCH   9  14
ATOM     14  N   UNL     1       6.596 -26.262  23.431  1.00  0.00    -0.378 N 
ATOM     15  C   UNL     1       7.090 -27.493  24.033  1.00  0.00     0.143 C 
ATOM     16  C   UNL     1       7.378 -25.048  23.630  1.00  0.00     0.143 C 
ENDBRANCH   9  14
ENDBRANCH   6   8
ENDBRANCH   1   6
BRANCH   3  17
ATOM     17  N   UNL     1       6.854 -20.824  19.179  1.00  0.00    -0.368 N 
ATOM     18  H   UNL     1       6.828 -20.265  18.333  1.00  0.00     0.159 HD
ATOM     19  H   UNL     1       7.750 -20.891  19.663  1.00  0.00     0.159 HD
ENDBRANCH   3  17
BRANCH   4  20
ATOM     20  C   UNL     1       4.592 -19.409  20.618  1.00  0.00     0.287 C 
ATOM     21  O   UNL     1       5.447 -18.877  21.325  1.00  0.00    -0.266 OA
BRANCH  20  22
ATOM     22  C   UNL     1       3.474 -18.598  20.136  1.00  0.00     0.113 A 
ATOM     23  C   UNL     1       2.496 -18.168  21.021  1.00  0.00     0.139 A 
ATOM     24  C   UNL     1       3.390 -18.256  18.792  1.00  0.00     0.139 A 
ATOM     25  C   UNL     1       1.431 -17.390  20.570  1.00  0.00     0.040 A 
ATOM     26  C   UNL     1       2.330 -17.479  18.327  1.00  0.00     0.040 A 
ATOM     27  C   UNL     1       1.347 -17.044  19.219  1.00  0.00     0.006 A 
ATOM     28  F   UNL     1       2.570 -18.473  22.325  1.00  0.00    -0.206 F 
ATOM     29  F   UNL     1       4.313 -18.685  17.920  1.00  0.00    -0.206 F 
ENDBRANCH  20  22
ENDBRANCH   4  20
TORSDOF 6
