REMARK SMILES CNC(=O)C(=N)c1c(N)cc(-c2cc(F)c(O)cc2CC(F)(F)F)nc1NCc1cc(C)ccc1N(C)S(C)(=O)=O
REMARK SMILES IDX 27 1 26 3 7 4 8 5 10 6 25 7 11 8 5 9 6 10 3 12 2 13 4 14
REMARK SMILES IDX 1 15 9 17 12 20 13 21 19 22 14 23 18 24 16 25 15 26 20 27
REMARK SMILES IDX 21 28 22 29 23 30 24 31 17 32 28 34 29 35 30 36 35 37 31 38
REMARK SMILES IDX 34 39 33 40 32 41 36 42 37 43 38 44 40 45 41 46 39 47
REMARK H PARENT 27 2 6 11 2 16 9 18 9 19 17 33
REMARK INDEX MAP 27 1 55 2 26 3 7 4 8 5 10 6 25 7 11 8 5 9 6 10 46 11 3 12
REMARK INDEX MAP 2 13 4 14 1 15 45 16 9 17 47 18 48 19 12 20 13 21 19 22 14 23
REMARK INDEX MAP 18 24 16 25 15 26 20 27 21 28 22 29 23 30 24 31 17 32 51 33
REMARK INDEX MAP 28 34 29 35 30 36 35 37 31 38 34 39 33 40 32 41 36 42 37 43
REMARK INDEX MAP 38 44 40 45 41 46 39 47
ROOT
ATOM      1  N   UNL     1       8.797 -21.407  20.720  1.00  0.00    -0.365 N 
ATOM      2  H   UNL     1       9.288 -21.282  19.823  1.00  0.00     0.162 HD
ENDROOT
BRANCH   1   3
ATOM      3  C   UNL     1       7.441 -21.687  20.737  1.00  0.00     0.138 A 
ATOM      4  C   UNL     1       6.490 -20.759  20.282  1.00  0.00     0.071 A 
ATOM      5  C   UNL     1       5.122 -21.088  20.328  1.00  0.00     0.047 A 
ATOM      6  C   UNL     1       4.761 -22.315  20.882  1.00  0.00     0.055 A 
ATOM      7  N   UNL     1       7.061 -22.870  21.274  1.00  0.00    -0.230 NA
ATOM      8  C   UNL     1       5.748 -23.179  21.340  1.00  0.00     0.075 A 
BRANCH   4   9
ATOM      9  C   UNL     1       6.889 -19.399  19.845  1.00  0.00     0.132 C 
ATOM     10  N   UNL     1       6.843 -19.017  18.593  1.00  0.00    -0.295 NA
ATOM     11  H   UNL     1       6.504 -19.666  17.869  1.00  0.00     0.188 HD
BRANCH   9  12
ATOM     12  C   UNL     1       7.404 -18.382  20.870  1.00  0.00     0.269 C 
ATOM     13  N   UNL     1       8.319 -17.515  20.329  1.00  0.00    -0.354 N 
ATOM     14  O   UNL     1       7.009 -18.385  22.024  1.00  0.00    -0.268 OA
ATOM     15  C   UNL     1       8.953 -16.467  21.078  1.00  0.00     0.143 C 
ATOM     16  H   UNL     1       8.564 -17.621  19.334  1.00  0.00     0.163 HD
ENDBRANCH   9  12
ENDBRANCH   4   9
BRANCH   5  17
ATOM     17  N   UNL     1       4.114 -20.206  19.943  1.00  0.00    -0.398 N 
ATOM     18  H   UNL     1       3.127 -20.497  19.996  1.00  0.00     0.156 HD
ATOM     19  H   UNL     1       4.356 -19.263  19.605  1.00  0.00     0.156 HD
ENDBRANCH   5  17
BRANCH   8  20
ATOM     20  C   UNL     1       5.428 -24.501  21.913  1.00  0.00     0.007 A 
ATOM     21  C   UNL     1       4.395 -25.256  21.320  1.00  0.00     0.054 A 
ATOM     22  C   UNL     1       6.112 -25.056  23.030  1.00  0.00    -0.026 A 
ATOM     23  C   UNL     1       4.050 -26.507  21.814  1.00  0.00     0.165 A 
ATOM     24  C   UNL     1       5.738 -26.328  23.515  1.00  0.00     0.054 A 
ATOM     25  C   UNL     1       4.716 -27.041  22.906  1.00  0.00     0.151 A 
ATOM     26  F   UNL     1       3.064 -27.205  21.234  1.00  0.00    -0.203 F 
BRANCH  22  27
ATOM     27  C   UNL     1       7.229 -24.329  23.762  1.00  0.00     0.151 C 
BRANCH  27  28
ATOM     28  C   UNL     1       8.594 -24.975  23.606  1.00  0.00     0.393 C 
ATOM     29  F   UNL     1       9.592 -24.072  23.737  1.00  0.00    -0.171 F 
ATOM     30  F   UNL     1       8.781 -25.916  24.564  1.00  0.00    -0.171 F 
ATOM     31  F   UNL     1       8.749 -25.589  22.415  1.00  0.00    -0.171 F 
ENDBRANCH  27  28
ENDBRANCH  22  27
BRANCH  25  32
ATOM     32  O   UNL     1       4.385 -28.267  23.405  1.00  0.00    -0.505 OA
ATOM     33  H   UNL     1       4.872 -28.632  24.186  1.00  0.00     0.293 HD
ENDBRANCH  25  32
ENDBRANCH   8  20
ENDBRANCH   1   3
BRANCH   1  34
ATOM     34  C   UNL     1       9.523 -21.291  21.968  1.00  0.00     0.152 C 
BRANCH  34  35
ATOM     35  C   UNL     1      10.490 -20.134  21.887  1.00  0.00    -0.004 A 
ATOM     36  C   UNL     1      11.026 -19.765  20.641  1.00  0.00     0.011 A 
ATOM     37  C   UNL     1      10.871 -19.407  23.027  1.00  0.00     0.056 A 
ATOM     38  C   UNL     1      11.948 -18.715  20.529  1.00  0.00    -0.051 A 
ATOM     39  C   UNL     1      11.785 -18.353  22.918  1.00  0.00     0.027 A 
ATOM     40  C   UNL     1      12.318 -18.008  21.677  1.00  0.00     0.005 A 
ATOM     41  C   UNL     1      12.489 -18.319  19.186  1.00  0.00     0.044 C 
BRANCH  37  42
ATOM     42  N   UNL     1      10.277 -19.716  24.303  1.00  0.00    -0.273 N 
ATOM     43  C   UNL     1       9.460 -18.631  24.888  1.00  0.00     0.163 C 
BRANCH  42  44
ATOM     44  S   UNL     1      11.275 -20.583  25.373  1.00  0.00     0.232 S 
ATOM     45  O   UNL     1      12.569 -19.935  25.420  1.00  0.00    -0.207 OA
ATOM     46  O   UNL     1      11.155 -21.999  25.088  1.00  0.00    -0.207 OA
ATOM     47  C   UNL     1      10.445 -20.301  26.920  1.00  0.00     0.183 C 
ENDBRANCH  42  44
ENDBRANCH  37  42
ENDBRANCH  34  35
ENDBRANCH   1  34
TORSDOF 12
