MODEL 8
REMARK VINA RESULT:    -9.980      5.973      8.607
REMARK INTER + INTRA:         -15.482
REMARK INTER:                 -14.439
REMARK INTRA:                  -1.043
REMARK UNBOUND:                -1.417
REMARK SMILES N#CC(C#N)=CNc1ccc2ncnc(Nc3ccc(OCc4cccc(F)c4)c(Cl)c3)c2c1
REMARK SMILES IDX 17 1 18 2 19 3 20 4 30 5 31 6 32 7 16 8 15 10 8 11 34 12
REMARK SMILES IDX 9 13 33 14 10 15 11 16 12 17 14 18 13 19 7 20 6 22 1 23 2 24
REMARK SMILES IDX 3 25 4 26 5 27 21 28 22 29 23 30 29 31 24 32 27 33 25 34
REMARK SMILES IDX 26 35 28 36
REMARK H PARENT 16 9 7 21
ROOT
ATOM      1  C   UNL     1      17.259  33.615  11.865  1.00  0.00     0.041 A 
ATOM      2  C   UNL     1      18.100  32.535  11.567  1.00  0.00     0.030 A 
ATOM      3  C   UNL     1      18.353  32.180  10.242  1.00  0.00     0.050 A 
ATOM      4  C   UNL     1      17.779  32.903   9.182  1.00  0.00     0.138 A 
ATOM      5  C   UNL     1      16.947  33.988   9.486  1.00  0.00     0.085 A 
ATOM      6  Cl  UNL     1      16.216  34.916   8.224  1.00  0.00    -0.080 Cl
ATOM      7  C   UNL     1      16.697  34.339  10.813  1.00  0.00     0.050 A 
ENDROOT
BRANCH   1   8
ATOM      8  N   UNL     1      16.974  34.043  13.174  1.00  0.00    -0.340 N 
ATOM      9  H   UNL     1      17.798  34.289  13.700  1.00  0.00     0.168 HD
BRANCH   8  10
ATOM     10  C   UNL     1      15.780  34.192  13.907  1.00  0.00     0.141 A 
ATOM     11  C   UNL     1      16.974  35.329  17.323  1.00  0.00     0.039 A 
ATOM     12  C   UNL     1      17.023  34.914  15.991  1.00  0.00     0.040 A 
ATOM     13  C   UNL     1      15.733  35.466  17.956  1.00  0.00     0.028 A 
ATOM     14  C   UNL     1      15.832  34.625  15.269  1.00  0.00     0.045 A 
ATOM     15  C   UNL     1      14.546  35.191  17.281  1.00  0.00     0.031 A 
ATOM     16  C   UNL     1      14.574  34.769  15.933  1.00  0.00     0.076 A 
ATOM     17  N   UNL     1      13.395  34.511  15.300  1.00  0.00    -0.236 NA
ATOM     18  N   UNL     1      14.602  33.944  13.280  1.00  0.00    -0.219 NA
ATOM     19  C   UNL     1      13.474  34.114  14.008  1.00  0.00     0.224 A 
BRANCH  11  20
ATOM     20  N   UNL     1      18.198  35.598  17.959  1.00  0.00    -0.360 N 
ATOM     21  H   UNL     1      18.194  36.467  18.474  1.00  0.00     0.166 HD
BRANCH  20  22
ATOM     22  C   UNL     1      19.354  34.847  17.966  1.00  0.00     0.114 C 
ATOM     23  N   UNL     1      20.549  36.859  15.386  1.00  0.00    -0.192 NA
ATOM     24  C   UNL     1      20.507  36.021  16.183  1.00  0.00     0.112 C 
ATOM     25  C   UNL     1      20.432  34.999  17.177  1.00  0.00     0.145 C 
ATOM     26  C   UNL     1      21.557  34.135  17.299  1.00  0.00     0.112 C 
ATOM     27  N   UNL     1      22.461  33.422  17.411  1.00  0.00    -0.192 NA
ENDBRANCH  20  22
ENDBRANCH  11  20
ENDBRANCH   8  10
ENDBRANCH   1   8
BRANCH   4  28
ATOM     28  O   UNL     1      17.988  32.613   7.847  1.00  0.00    -0.487 OA
BRANCH  28  29
ATOM     29  C   UNL     1      18.509  31.339   7.471  1.00  0.00     0.265 C 
BRANCH  29  30
ATOM     30  C   UNL     1      17.384  30.399   7.052  1.00  0.00    -0.008 A 
ATOM     31  C   UNL     1      16.057  30.761   7.303  1.00  0.00     0.046 A 
ATOM     32  C   UNL     1      17.650  29.185   6.404  1.00  0.00     0.007 A 
ATOM     33  C   UNL     1      15.009  29.919   6.925  1.00  0.00     0.123 A 
ATOM     34  C   UNL     1      16.603  28.343   6.026  1.00  0.00     0.003 A 
ATOM     35  C   UNL     1      15.283  28.709   6.287  1.00  0.00     0.039 A 
ATOM     36  F   UNL     1      13.729  30.277   7.175  1.00  0.00    -0.207 F 
ENDBRANCH  29  30
ENDBRANCH  28  29
ENDBRANCH   4  28
TORSDOF 7
ENDMDL
