MODEL 1
REMARK minimizedAffinity -8.77737427
REMARK CNNscore 0.990140259
REMARK CNNaffinity 7.34060669
REMARK SMILES CN(C)c1cccc(Nc2nc(N)n(C(=O)c3c(F)cccc3F)n2)c1
REMARK SMILES IDX 10 1 11 2 12 3 14 4 25 5 9 6 8 8 4 9 5 10 26 11 6 12 7 13
REMARK SMILES IDX 2 14 1 15 3 16 13 17 15 20 16 21 17 22 18 23 23 24 20 25
REMARK SMILES IDX 22 26 21 27 19 28 24 29
REMARK H PARENT 9 7 13 18 13 19
ROOT
ATOM      1  C   UNL     1     -11.129  12.259  19.403  1.00  0.00     0.248 A 
ATOM      2  N   UNL     1     -11.472  11.096  18.769  1.00  0.00    -0.175 NA
ATOM      3  C   UNL     1     -12.760  10.989  18.974  1.00  0.00     0.228 A 
ATOM      4  N   UNL     1     -13.194  12.076  19.715  1.00  0.00    -0.159 N 
ATOM      5  N   UNL     1     -12.144  12.885  20.003  1.00  0.00    -0.123 NA
ENDROOT
BRANCH   1   6
ATOM      6  N   UNL     1      -9.830  12.601  19.340  1.00  0.00    -0.323 N 
ATOM      7  H   UNL     1      -9.235  11.868  18.976  1.00  0.00     0.170 HD
BRANCH   6   8
ATOM      8  C   UNL     1      -9.136  13.780  19.674  1.00  0.00     0.043 A 
ATOM      9  C   UNL     1      -6.932  14.927  19.815  1.00  0.00     0.038 A 
ATOM     10  C   UNL     1      -7.615  16.050  20.304  1.00  0.00     0.026 A 
ATOM     11  C   UNL     1      -7.732  13.806  19.510  1.00  0.00     0.052 A 
ATOM     12  C   UNL     1      -9.002  16.056  20.478  1.00  0.00     0.004 A 
ATOM     13  C   UNL     1      -9.755  14.927  20.165  1.00  0.00     0.026 A 
BRANCH   9  14
ATOM     14  N   UNL     1      -5.550  14.921  19.641  1.00  0.00    -0.378 N 
ATOM     15  C   UNL     1      -4.669  14.294  20.617  1.00  0.00     0.143 C 
ATOM     16  C   UNL     1      -4.937  15.544  18.476  1.00  0.00     0.143 C 
ENDBRANCH   9  14
ENDBRANCH   6   8
ENDBRANCH   1   6
BRANCH   3  17
ATOM     17  N   UNL     1     -13.560   9.998  18.549  1.00  0.00    -0.368 N 
ATOM     18  H   UNL     1     -13.189   9.224  18.011  1.00  0.00     0.159 HD
ATOM     19  H   UNL     1     -14.558   9.978  18.763  1.00  0.00     0.159 HD
ENDBRANCH   3  17
BRANCH   4  20
ATOM     20  C   UNL     1     -14.478  12.382  20.181  1.00  0.00     0.287 C 
ATOM     21  O   UNL     1     -15.071  11.557  20.876  1.00  0.00    -0.266 OA
BRANCH  20  22
ATOM     22  C   UNL     1     -15.142  13.648  19.872  1.00  0.00     0.113 A 
ATOM     23  C   UNL     1     -16.519  13.761  20.008  1.00  0.00     0.139 A 
ATOM     24  C   UNL     1     -14.397  14.739  19.443  1.00  0.00     0.139 A 
ATOM     25  C   UNL     1     -17.158  14.966  19.721  1.00  0.00     0.040 A 
ATOM     26  C   UNL     1     -15.023  15.950  19.153  1.00  0.00     0.040 A 
ATOM     27  C   UNL     1     -16.409  16.064  19.292  1.00  0.00     0.006 A 
ATOM     28  F   UNL     1     -17.252  12.724  20.437  1.00  0.00    -0.206 F 
ATOM     29  F   UNL     1     -13.070  14.639  19.284  1.00  0.00    -0.206 F 
ENDBRANCH  20  22
ENDBRANCH   4  20
TORSDOF 6
ENDMDL
MODEL 2
REMARK minimizedAffinity -8.09524727
REMARK CNNscore 0.987056792
REMARK CNNaffinity 7.27765656
REMARK SMILES CN(C)c1cccc(Nc2nc(N)n(C(=O)c3c(F)cccc3F)n2)c1
REMARK SMILES IDX 10 1 11 2 12 3 14 4 25 5 9 6 8 8 4 9 5 10 26 11 6 12 7 13
REMARK SMILES IDX 2 14 1 15 3 16 13 17 15 20 16 21 17 22 18 23 23 24 20 25
REMARK SMILES IDX 22 26 21 27 19 28 24 29
REMARK H PARENT 9 7 13 18 13 19
ROOT
ATOM      1  C   UNL     1     -11.294  12.116  19.491  1.00  0.00     0.248 A 
ATOM      2  N   UNL     1     -11.614  10.988  18.786  1.00  0.00    -0.175 NA
ATOM      3  C   UNL     1     -12.904  10.855  18.969  1.00  0.00     0.228 A 
ATOM      4  N   UNL     1     -13.360  11.892  19.765  1.00  0.00    -0.159 N 
ATOM      5  N   UNL     1     -12.323  12.695  20.112  1.00  0.00    -0.123 NA
ENDROOT
BRANCH   1   6
ATOM      6  N   UNL     1      -9.998  12.475  19.465  1.00  0.00    -0.323 N 
ATOM      7  H   UNL     1      -9.368  11.710  19.262  1.00  0.00     0.170 HD
BRANCH   6   8
ATOM      8  C   UNL     1      -9.345  13.708  19.657  1.00  0.00     0.043 A 
ATOM      9  C   UNL     1      -9.578  16.178  19.849  1.00  0.00     0.038 A 
ATOM     10  C   UNL     1      -8.186  16.236  20.020  1.00  0.00     0.026 A 
ATOM     11  C   UNL     1     -10.121  14.889  19.669  1.00  0.00     0.052 A 
ATOM     12  C   UNL     1      -7.391  15.087  20.011  1.00  0.00     0.004 A 
ATOM     13  C   UNL     1      -7.968  13.833  19.830  1.00  0.00     0.026 A 
BRANCH   9  14
ATOM     14  N   UNL     1     -10.370  17.323  19.857  1.00  0.00    -0.378 N 
ATOM     15  C   UNL     1     -11.824  17.235  19.818  1.00  0.00     0.143 C 
ATOM     16  C   UNL     1      -9.773  18.651  19.904  1.00  0.00     0.143 C 
ENDBRANCH   9  14
ENDBRANCH   6   8
ENDBRANCH   1   6
BRANCH   3  17
ATOM     17  N   UNL     1     -13.687   9.881  18.477  1.00  0.00    -0.368 N 
ATOM     18  H   UNL     1     -13.299   9.143  17.900  1.00  0.00     0.159 HD
ATOM     19  H   UNL     1     -14.687   9.838  18.676  1.00  0.00     0.159 HD
ENDBRANCH   3  17
BRANCH   4  20
ATOM     20  C   UNL     1     -14.653  12.157  20.230  1.00  0.00     0.287 C 
ATOM     21  O   UNL     1     -15.232  11.299  20.898  1.00  0.00    -0.266 OA
BRANCH  20  22
ATOM     22  C   UNL     1     -15.344  13.416  19.953  1.00  0.00     0.113 A 
ATOM     23  C   UNL     1     -16.652  13.600  20.379  1.00  0.00     0.139 A 
ATOM     24  C   UNL     1     -14.691  14.431  19.263  1.00  0.00     0.139 A 
ATOM     25  C   UNL     1     -17.313  14.799  20.123  1.00  0.00     0.040 A 
ATOM     26  C   UNL     1     -15.342  15.635  19.001  1.00  0.00     0.040 A 
ATOM     27  C   UNL     1     -16.658  15.821  19.432  1.00  0.00     0.006 A 
ATOM     28  F   UNL     1     -17.291  12.638  21.061  1.00  0.00    -0.206 F 
ATOM     29  F   UNL     1     -13.437  14.260  18.824  1.00  0.00    -0.206 F 
ENDBRANCH  20  22
ENDBRANCH   4  20
TORSDOF 6
ENDMDL
MODEL 3
REMARK minimizedAffinity -8.17539883
REMARK CNNscore 0.314875573
REMARK CNNaffinity 5.9128747
REMARK SMILES CN(C)c1cccc(Nc2nc(N)n(C(=O)c3c(F)cccc3F)n2)c1
REMARK SMILES IDX 10 1 11 2 12 3 14 4 25 5 9 6 8 8 4 9 5 10 26 11 6 12 7 13
REMARK SMILES IDX 2 14 1 15 3 16 13 17 15 20 16 21 17 22 18 23 23 24 20 25
REMARK SMILES IDX 22 26 21 27 19 28 24 29
REMARK H PARENT 9 7 13 18 13 19
ROOT
ATOM      1  C   UNL     1      -9.668  13.677  19.683  1.00  0.00     0.248 A 
ATOM      2  N   UNL     1     -10.521  14.720  19.924  1.00  0.00    -0.175 NA
ATOM      3  C   UNL     1      -9.725  15.739  20.134  1.00  0.00     0.228 A 
ATOM      4  N   UNL     1      -8.410  15.321  20.014  1.00  0.00    -0.159 N 
ATOM      5  N   UNL     1      -8.373  13.993  19.738  1.00  0.00    -0.123 NA
ENDROOT
BRANCH   1   6
ATOM      6  N   UNL     1     -10.250  12.490  19.435  1.00  0.00    -0.323 N 
ATOM      7  H   UNL     1      -9.591  11.746  19.247  1.00  0.00     0.170 HD
BRANCH   6   8
ATOM      8  C   UNL     1     -11.596  12.078  19.392  1.00  0.00     0.043 A 
ATOM      9  C   UNL     1     -13.974  12.692  19.790  1.00  0.00     0.038 A 
ATOM     10  C   UNL     1     -14.317  11.399  19.369  1.00  0.00     0.026 A 
ATOM     11  C   UNL     1     -12.597  12.994  19.787  1.00  0.00     0.052 A 
ATOM     12  C   UNL     1     -13.351  10.469  18.973  1.00  0.00     0.004 A 
ATOM     13  C   UNL     1     -12.001  10.808  18.986  1.00  0.00     0.026 A 
BRANCH   9  14
ATOM     14  N   UNL     1     -14.936  13.619  20.184  1.00  0.00    -0.378 N 
ATOM     15  C   UNL     1     -14.576  14.997  20.492  1.00  0.00     0.143 C 
ATOM     16  C   UNL     1     -16.339  13.242  20.303  1.00  0.00     0.143 C 
ENDBRANCH   9  14
ENDBRANCH   6   8
ENDBRANCH   1   6
BRANCH   3  17
ATOM     17  N   UNL     1     -10.093  16.997  20.422  1.00  0.00    -0.368 N 
ATOM     18  H   UNL     1     -11.072  17.248  20.501  1.00  0.00     0.159 HD
ATOM     19  H   UNL     1      -9.410  17.737  20.588  1.00  0.00     0.159 HD
ENDBRANCH   3  17
BRANCH   4  20
ATOM     20  C   UNL     1      -7.225  16.051  20.163  1.00  0.00     0.287 C 
ATOM     21  O   UNL     1      -7.006  16.992  19.401  1.00  0.00    -0.266 OA
BRANCH  20  22
ATOM     22  C   UNL     1      -6.236  15.737  21.194  1.00  0.00     0.113 A 
ATOM     23  C   UNL     1      -5.188  14.872  20.911  1.00  0.00     0.139 A 
ATOM     24  C   UNL     1      -6.344  16.303  22.459  1.00  0.00     0.139 A 
ATOM     25  C   UNL     1      -4.240  14.572  21.886  1.00  0.00     0.040 A 
ATOM     26  C   UNL     1      -5.402  16.012  23.443  1.00  0.00     0.040 A 
ATOM     27  C   UNL     1      -4.345  15.143  23.157  1.00  0.00     0.006 A 
ATOM     28  F   UNL     1      -5.059  14.330  19.691  1.00  0.00    -0.206 F 
ATOM     29  F   UNL     1      -7.363  17.120  22.755  1.00  0.00    -0.206 F 
ENDBRANCH  20  22
ENDBRANCH   4  20
TORSDOF 6
ENDMDL
MODEL 4
REMARK minimizedAffinity -8.16405582
REMARK CNNscore 0.272762865
REMARK CNNaffinity 5.34020376
REMARK SMILES CN(C)c1cccc(Nc2nc(N)n(C(=O)c3c(F)cccc3F)n2)c1
REMARK SMILES IDX 10 1 11 2 12 3 14 4 25 5 9 6 8 8 4 9 5 10 26 11 6 12 7 13
REMARK SMILES IDX 2 14 1 15 3 16 13 17 15 20 16 21 17 22 18 23 23 24 20 25
REMARK SMILES IDX 22 26 21 27 19 28 24 29
REMARK H PARENT 9 7 13 18 13 19
ROOT
ATOM      1  C   UNL     1      -8.551  13.931  19.721  1.00  0.00     0.248 A 
ATOM      2  N   UNL     1      -9.125  15.038  20.287  1.00  0.00    -0.175 NA
ATOM      3  C   UNL     1      -8.105  15.758  20.682  1.00  0.00     0.228 A 
ATOM      4  N   UNL     1      -6.931  15.102  20.353  1.00  0.00    -0.159 N 
ATOM      5  N   UNL     1      -7.217  13.922  19.748  1.00  0.00    -0.123 NA
ENDROOT
BRANCH   1   6
ATOM      6  N   UNL     1      -9.404  13.016  19.230  1.00  0.00    -0.323 N 
ATOM      7  H   UNL     1      -8.972  12.357  18.595  1.00  0.00     0.170 HD
BRANCH   6   8
ATOM      8  C   UNL     1     -10.780  12.789  19.428  1.00  0.00     0.043 A 
ATOM      9  C   UNL     1     -12.970  13.752  20.111  1.00  0.00     0.038 A 
ATOM     10  C   UNL     1     -13.532  12.488  19.878  1.00  0.00     0.026 A 
ATOM     11  C   UNL     1     -11.584  13.862  19.874  1.00  0.00     0.052 A 
ATOM     12  C   UNL     1     -12.763  11.406  19.438  1.00  0.00     0.004 A 
ATOM     13  C   UNL     1     -11.397  11.558  19.216  1.00  0.00     0.026 A 
BRANCH   9  14
ATOM     14  N   UNL     1     -13.735  14.830  20.549  1.00  0.00    -0.378 N 
ATOM     15  C   UNL     1     -15.153  14.930  20.226  1.00  0.00     0.143 C 
ATOM     16  C   UNL     1     -13.145  15.897  21.346  1.00  0.00     0.143 C 
ENDBRANCH   9  14
ENDBRANCH   6   8
ENDBRANCH   1   6
BRANCH   3  17
ATOM     17  N   UNL     1      -8.157  16.944  21.308  1.00  0.00    -0.368 N 
ATOM     18  H   UNL     1      -9.046  17.379  21.527  1.00  0.00     0.159 HD
ATOM     19  H   UNL     1      -7.313  17.441  21.599  1.00  0.00     0.159 HD
ENDBRANCH   3  17
BRANCH   4  20
ATOM     20  C   UNL     1      -5.603  15.480  20.585  1.00  0.00     0.287 C 
ATOM     21  O   UNL     1      -5.226  16.590  20.208  1.00  0.00    -0.266 OA
BRANCH  20  22
ATOM     22  C   UNL     1      -4.646  14.604  21.260  1.00  0.00     0.113 A 
ATOM     23  C   UNL     1      -3.688  13.922  20.522  1.00  0.00     0.139 A 
ATOM     24  C   UNL     1      -4.692  14.453  22.640  1.00  0.00     0.139 A 
ATOM     25  C   UNL     1      -2.770  13.090  21.159  1.00  0.00     0.040 A 
ATOM     26  C   UNL     1      -3.779  13.625  23.290  1.00  0.00     0.040 A 
ATOM     27  C   UNL     1      -2.814  12.940  22.547  1.00  0.00     0.006 A 
ATOM     28  F   UNL     1      -3.618  14.069  19.191  1.00  0.00    -0.206 F 
ATOM     29  F   UNL     1      -5.626  15.086  23.365  1.00  0.00    -0.206 F 
ENDBRANCH  20  22
ENDBRANCH   4  20
TORSDOF 6
ENDMDL
MODEL 5
REMARK minimizedAffinity -8.19442558
REMARK CNNscore 0.265016824
REMARK CNNaffinity 5.60250902
REMARK SMILES CN(C)c1cccc(Nc2nc(N)n(C(=O)c3c(F)cccc3F)n2)c1
REMARK SMILES IDX 10 1 11 2 12 3 14 4 25 5 9 6 8 8 4 9 5 10 26 11 6 12 7 13
REMARK SMILES IDX 2 14 1 15 3 16 13 17 15 20 16 21 17 22 18 23 23 24 20 25
REMARK SMILES IDX 22 26 21 27 19 28 24 29
REMARK H PARENT 9 7 13 18 13 19
ROOT
ATOM      1  C   UNL     1      -9.027  13.623  19.548  1.00  0.00     0.248 A 
ATOM      2  N   UNL     1      -9.574  14.735  20.128  1.00  0.00    -0.175 NA
ATOM      3  C   UNL     1      -8.555  15.539  20.298  1.00  0.00     0.228 A 
ATOM      4  N   UNL     1      -7.409  14.928  19.819  1.00  0.00    -0.159 N 
ATOM      5  N   UNL     1      -7.709  13.691  19.350  1.00  0.00    -0.123 NA
ENDROOT
BRANCH   1   6
ATOM      6  N   UNL     1      -9.884  12.625  19.268  1.00  0.00    -0.323 N 
ATOM      7  H   UNL     1      -9.442  11.810  18.864  1.00  0.00     0.170 HD
BRANCH   6   8
ATOM      8  C   UNL     1     -11.276  12.489  19.433  1.00  0.00     0.043 A 
ATOM      9  C   UNL     1     -13.415  13.594  20.064  1.00  0.00     0.038 A 
ATOM     10  C   UNL     1     -14.052  12.370  19.814  1.00  0.00     0.026 A 
ATOM     11  C   UNL     1     -12.019  13.612  19.861  1.00  0.00     0.052 A 
ATOM     12  C   UNL     1     -13.346  11.240  19.391  1.00  0.00     0.004 A 
ATOM     13  C   UNL     1     -11.968  11.302  19.203  1.00  0.00     0.026 A 
BRANCH   9  14
ATOM     14  N   UNL     1     -14.118  14.720  20.485  1.00  0.00    -0.378 N 
ATOM     15  C   UNL     1     -13.480  15.751  21.293  1.00  0.00     0.143 C 
ATOM     16  C   UNL     1     -15.520  14.906  20.133  1.00  0.00     0.143 C 
ENDBRANCH   9  14
ENDBRANCH   6   8
ENDBRANCH   1   6
BRANCH   3  17
ATOM     17  N   UNL     1      -8.584  16.765  20.844  1.00  0.00    -0.368 N 
ATOM     18  H   UNL     1      -9.453  17.165  21.181  1.00  0.00     0.159 HD
ATOM     19  H   UNL     1      -7.741  17.329  20.955  1.00  0.00     0.159 HD
ENDBRANCH   3  17
BRANCH   4  20
ATOM     20  C   UNL     1      -6.090  15.397  19.799  1.00  0.00     0.287 C 
ATOM     21  O   UNL     1      -5.470  15.382  18.735  1.00  0.00    -0.266 OA
BRANCH  20  22
ATOM     22  C   UNL     1      -5.420  15.904  20.996  1.00  0.00     0.113 A 
ATOM     23  C   UNL     1      -5.125  17.256  21.106  1.00  0.00     0.139 A 
ATOM     24  C   UNL     1      -5.079  15.035  22.025  1.00  0.00     0.139 A 
ATOM     25  C   UNL     1      -4.492  17.747  22.246  1.00  0.00     0.040 A 
ATOM     26  C   UNL     1      -4.446  15.513  23.170  1.00  0.00     0.040 A 
ATOM     27  C   UNL     1      -4.151  16.874  23.282  1.00  0.00     0.006 A 
ATOM     28  F   UNL     1      -5.462  18.112  20.131  1.00  0.00    -0.206 F 
ATOM     29  F   UNL     1      -5.335  13.724  21.923  1.00  0.00    -0.206 F 
ENDBRANCH  20  22
ENDBRANCH   4  20
TORSDOF 6
ENDMDL
MODEL 6
REMARK minimizedAffinity -8.27049732
REMARK CNNscore 0.258398533
REMARK CNNaffinity 5.5383544
REMARK SMILES CN(C)c1cccc(Nc2nc(N)n(C(=O)c3c(F)cccc3F)n2)c1
REMARK SMILES IDX 10 1 11 2 12 3 14 4 25 5 9 6 8 8 4 9 5 10 26 11 6 12 7 13
REMARK SMILES IDX 2 14 1 15 3 16 13 17 15 20 16 21 17 22 18 23 23 24 20 25
REMARK SMILES IDX 22 26 21 27 19 28 24 29
REMARK H PARENT 9 7 13 18 13 19
ROOT
ATOM      1  C   UNL     1      -9.252  13.695  19.666  1.00  0.00     0.248 A 
ATOM      2  N   UNL     1      -9.995  14.824  19.885  1.00  0.00    -0.175 NA
ATOM      3  C   UNL     1      -9.107  15.730  20.211  1.00  0.00     0.228 A 
ATOM      4  N   UNL     1      -7.845  15.161  20.181  1.00  0.00    -0.159 N 
ATOM      5  N   UNL     1      -7.939  13.850  19.844  1.00  0.00    -0.123 NA
ENDROOT
BRANCH   1   6
ATOM      6  N   UNL     1      -9.945  12.598  19.312  1.00  0.00    -0.323 N 
ATOM      7  H   UNL     1      -9.366  11.850  18.952  1.00  0.00     0.170 HD
BRANCH   6   8
ATOM      8  C   UNL     1     -11.317  12.281  19.349  1.00  0.00     0.043 A 
ATOM      9  C   UNL     1     -13.622  13.076  19.844  1.00  0.00     0.038 A 
ATOM     10  C   UNL     1     -14.076  11.799  19.483  1.00  0.00     0.026 A 
ATOM     11  C   UNL     1     -12.229  13.278  19.763  1.00  0.00     0.052 A 
ATOM     12  C   UNL     1     -13.200  10.791  19.071  1.00  0.00     0.004 A 
ATOM     13  C   UNL     1     -11.830  11.033  19.005  1.00  0.00     0.026 A 
BRANCH   9  14
ATOM     14  N   UNL     1     -14.495  14.080  20.255  1.00  0.00    -0.378 N 
ATOM     15  C   UNL     1     -15.933  13.961  20.049  1.00  0.00     0.143 C 
ATOM     16  C   UNL     1     -14.001  15.287  20.904  1.00  0.00     0.143 C 
ENDBRANCH   9  14
ENDBRANCH   6   8
ENDBRANCH   1   6
BRANCH   3  17
ATOM     17  N   UNL     1      -9.350  17.011  20.528  1.00  0.00    -0.368 N 
ATOM     18  H   UNL     1     -10.296  17.375  20.536  1.00  0.00     0.159 HD
ATOM     19  H   UNL     1      -8.602  17.656  20.786  1.00  0.00     0.159 HD
ENDBRANCH   3  17
BRANCH   4  20
ATOM     20  C   UNL     1      -6.601  15.736  20.465  1.00  0.00     0.287 C 
ATOM     21  O   UNL     1      -6.503  16.495  21.429  1.00  0.00    -0.266 OA
BRANCH  20  22
ATOM     22  C   UNL     1      -5.411  15.468  19.657  1.00  0.00     0.113 A 
ATOM     23  C   UNL     1      -5.275  16.051  18.405  1.00  0.00     0.139 A 
ATOM     24  C   UNL     1      -4.415  14.629  20.142  1.00  0.00     0.139 A 
ATOM     25  C   UNL     1      -4.142  15.804  17.633  1.00  0.00     0.040 A 
ATOM     26  C   UNL     1      -3.276  14.374  19.380  1.00  0.00     0.040 A 
ATOM     27  C   UNL     1      -3.139  14.964  18.121  1.00  0.00     0.006 A 
ATOM     28  F   UNL     1      -6.219  16.877  17.929  1.00  0.00    -0.206 F 
ATOM     29  F   UNL     1      -4.542  14.039  21.338  1.00  0.00    -0.206 F 
ENDBRANCH  20  22
ENDBRANCH   4  20
TORSDOF 6
ENDMDL
MODEL 7
REMARK minimizedAffinity -8.06916237
REMARK CNNscore 0.258157849
REMARK CNNaffinity 5.27293873
REMARK SMILES CN(C)c1cccc(Nc2nc(N)n(C(=O)c3c(F)cccc3F)n2)c1
REMARK SMILES IDX 10 1 11 2 12 3 14 4 25 5 9 6 8 8 4 9 5 10 26 11 6 12 7 13
REMARK SMILES IDX 2 14 1 15 3 16 13 17 15 20 16 21 17 22 18 23 23 24 20 25
REMARK SMILES IDX 22 26 21 27 19 28 24 29
REMARK H PARENT 9 7 13 18 13 19
ROOT
ATOM      1  C   UNL     1      -8.718  13.805  19.597  1.00  0.00     0.248 A 
ATOM      2  N   UNL     1      -9.248  14.952  20.124  1.00  0.00    -0.175 NA
ATOM      3  C   UNL     1      -8.205  15.616  20.554  1.00  0.00     0.228 A 
ATOM      4  N   UNL     1      -7.059  14.887  20.284  1.00  0.00    -0.159 N 
ATOM      5  N   UNL     1      -7.389  13.717  19.682  1.00  0.00    -0.123 NA
ENDROOT
BRANCH   1   6
ATOM      6  N   UNL     1      -9.602  12.935  19.079  1.00  0.00    -0.323 N 
ATOM      7  H   UNL     1      -9.208  12.326  18.374  1.00  0.00     0.170 HD
BRANCH   6   8
ATOM      8  C   UNL     1     -10.968  12.698  19.331  1.00  0.00     0.043 A 
ATOM      9  C   UNL     1     -13.142  13.653  20.073  1.00  0.00     0.038 A 
ATOM     10  C   UNL     1     -13.699  12.380  19.882  1.00  0.00     0.026 A 
ATOM     11  C   UNL     1     -11.767  13.771  19.785  1.00  0.00     0.052 A 
ATOM     12  C   UNL     1     -12.936  11.297  19.436  1.00  0.00     0.004 A 
ATOM     13  C   UNL     1     -11.579  11.458  19.163  1.00  0.00     0.026 A 
BRANCH   9  14
ATOM     14  N   UNL     1     -13.903  14.731  20.518  1.00  0.00    -0.378 N 
ATOM     15  C   UNL     1     -15.312  14.857  20.167  1.00  0.00     0.143 C 
ATOM     16  C   UNL     1     -13.316  15.773  21.351  1.00  0.00     0.143 C 
ENDBRANCH   9  14
ENDBRANCH   6   8
ENDBRANCH   1   6
BRANCH   3  17
ATOM     17  N   UNL     1      -8.212  16.812  21.163  1.00  0.00    -0.368 N 
ATOM     18  H   UNL     1      -9.082  17.302  21.338  1.00  0.00     0.159 HD
ATOM     19  H   UNL     1      -7.353  17.262  21.484  1.00  0.00     0.159 HD
ENDBRANCH   3  17
BRANCH   4  20
ATOM     20  C   UNL     1      -5.722  15.189  20.569  1.00  0.00     0.287 C 
ATOM     21  O   UNL     1      -4.836  14.501  20.062  1.00  0.00    -0.266 OA
BRANCH  20  22
ATOM     22  C   UNL     1      -5.338  16.293  21.448  1.00  0.00     0.113 A 
ATOM     23  C   UNL     1      -5.221  16.084  22.815  1.00  0.00     0.139 A 
ATOM     24  C   UNL     1      -5.090  17.553  20.916  1.00  0.00     0.139 A 
ATOM     25  C   UNL     1      -4.851  17.131  23.657  1.00  0.00     0.040 A 
ATOM     26  C   UNL     1      -4.719  18.608  21.748  1.00  0.00     0.040 A 
ATOM     27  C   UNL     1      -4.599  18.397  23.123  1.00  0.00     0.006 A 
ATOM     28  F   UNL     1      -5.440  14.871  23.343  1.00  0.00    -0.206 F 
ATOM     29  F   UNL     1      -5.223  17.776  19.602  1.00  0.00    -0.206 F 
ENDBRANCH  20  22
ENDBRANCH   4  20
TORSDOF 6
ENDMDL
MODEL 8
REMARK minimizedAffinity -8.69088459
REMARK CNNscore 0.250433743
REMARK CNNaffinity 5.21444035
REMARK SMILES CN(C)c1cccc(Nc2nc(N)n(C(=O)c3c(F)cccc3F)n2)c1
REMARK SMILES IDX 10 1 11 2 12 3 14 4 25 5 9 6 8 8 4 9 5 10 26 11 6 12 7 13
REMARK SMILES IDX 2 14 1 15 3 16 13 17 15 20 16 21 17 22 18 23 23 24 20 25
REMARK SMILES IDX 22 26 21 27 19 28 24 29
REMARK H PARENT 9 7 13 18 13 19
ROOT
ATOM      1  C   UNL     1      -8.652  13.887  19.564  1.00  0.00     0.248 A 
ATOM      2  N   UNL     1      -9.245  14.913  20.250  1.00  0.00    -0.175 NA
ATOM      3  C   UNL     1      -8.269  15.758  20.467  1.00  0.00     0.228 A 
ATOM      4  N   UNL     1      -7.103  15.257  19.912  1.00  0.00    -0.159 N 
ATOM      5  N   UNL     1      -7.346  14.049  19.345  1.00  0.00    -0.123 NA
ENDROOT
BRANCH   1   6
ATOM      6  N   UNL     1      -9.459  12.870  19.218  1.00  0.00    -0.323 N 
ATOM      7  H   UNL     1      -8.981  12.116  18.742  1.00  0.00     0.170 HD
BRANCH   6   8
ATOM      8  C   UNL     1     -10.838  12.643  19.393  1.00  0.00     0.043 A 
ATOM      9  C   UNL     1     -13.038  13.603  20.050  1.00  0.00     0.038 A 
ATOM     10  C   UNL     1     -13.597  12.342  19.796  1.00  0.00     0.026 A 
ATOM     11  C   UNL     1     -11.648  13.713  19.836  1.00  0.00     0.052 A 
ATOM     12  C   UNL     1     -12.824  11.263  19.358  1.00  0.00     0.004 A 
ATOM     13  C   UNL     1     -11.454  11.415  19.160  1.00  0.00     0.026 A 
BRANCH   9  14
ATOM     14  N   UNL     1     -13.809  14.678  20.486  1.00  0.00    -0.378 N 
ATOM     15  C   UNL     1     -15.231  14.759  20.180  1.00  0.00     0.143 C 
ATOM     16  C   UNL     1     -13.219  15.760  21.262  1.00  0.00     0.143 C 
ENDBRANCH   9  14
ENDBRANCH   6   8
ENDBRANCH   1   6
BRANCH   3  17
ATOM     17  N   UNL     1      -8.352  16.929  21.118  1.00  0.00    -0.368 N 
ATOM     18  H   UNL     1      -9.233  17.247  21.506  1.00  0.00     0.159 HD
ATOM     19  H   UNL     1      -7.539  17.529  21.259  1.00  0.00     0.159 HD
ENDBRANCH   3  17
BRANCH   4  20
ATOM     20  C   UNL     1      -5.814  15.801  19.904  1.00  0.00     0.287 C 
ATOM     21  O   UNL     1      -5.190  15.868  20.964  1.00  0.00    -0.266 OA
BRANCH  20  22
ATOM     22  C   UNL     1      -5.179  16.294  18.682  1.00  0.00     0.113 A 
ATOM     23  C   UNL     1      -4.086  15.625  18.149  1.00  0.00     0.139 A 
ATOM     24  C   UNL     1      -5.668  17.432  18.053  1.00  0.00     0.139 A 
ATOM     25  C   UNL     1      -3.479  16.086  16.982  1.00  0.00     0.040 A 
ATOM     26  C   UNL     1      -5.071  17.903  16.885  1.00  0.00     0.040 A 
ATOM     27  C   UNL     1      -3.973  17.228  16.347  1.00  0.00     0.006 A 
ATOM     28  F   UNL     1      -3.610  14.516  18.734  1.00  0.00    -0.206 F 
ATOM     29  F   UNL     1      -6.707  18.103  18.568  1.00  0.00    -0.206 F 
ENDBRANCH  20  22
ENDBRANCH   4  20
TORSDOF 6
ENDMDL
MODEL 9
REMARK minimizedAffinity -8.57619953
REMARK CNNscore 0.235753804
REMARK CNNaffinity 5.54048491
REMARK SMILES CN(C)c1cccc(Nc2nc(N)n(C(=O)c3c(F)cccc3F)n2)c1
REMARK SMILES IDX 10 1 11 2 12 3 14 4 25 5 9 6 8 8 4 9 5 10 26 11 6 12 7 13
REMARK SMILES IDX 2 14 1 15 3 16 13 17 15 20 16 21 17 22 18 23 23 24 20 25
REMARK SMILES IDX 22 26 21 27 19 28 24 29
REMARK H PARENT 9 7 13 18 13 19
ROOT
ATOM      1  C   UNL     1     -10.242  14.990  20.161  1.00  0.00     0.248 A 
ATOM      2  N   UNL     1      -9.744  13.823  19.649  1.00  0.00    -0.175 NA
ATOM      3  C   UNL     1      -8.450  14.016  19.617  1.00  0.00     0.228 A 
ATOM      4  N   UNL     1      -8.166  15.278  20.111  1.00  0.00    -0.159 N 
ATOM      5  N   UNL     1      -9.318  15.910  20.447  1.00  0.00    -0.123 NA
ENDROOT
BRANCH   1   6
ATOM      6  N   UNL     1     -11.578  15.049  20.296  1.00  0.00    -0.323 N 
ATOM      7  H   UNL     1     -11.920  15.960  20.572  1.00  0.00     0.170 HD
BRANCH   6   8
ATOM      8  C   UNL     1     -12.598  14.093  20.122  1.00  0.00     0.043 A 
ATOM      9  C   UNL     1     -15.046  13.659  20.008  1.00  0.00     0.038 A 
ATOM     10  C   UNL     1     -14.736  12.306  19.801  1.00  0.00     0.026 A 
ATOM     11  C   UNL     1     -13.943  14.524  20.165  1.00  0.00     0.052 A 
ATOM     12  C   UNL     1     -13.417  11.848  19.755  1.00  0.00     0.004 A 
ATOM     13  C   UNL     1     -12.357  12.736  19.915  1.00  0.00     0.026 A 
BRANCH   9  14
ATOM     14  N   UNL     1     -16.360  14.116  20.055  1.00  0.00    -0.378 N 
ATOM     15  C   UNL     1     -17.451  13.237  20.456  1.00  0.00     0.143 C 
ATOM     16  C   UNL     1     -16.691  15.490  19.702  1.00  0.00     0.143 C 
ENDBRANCH   9  14
ENDBRANCH   6   8
ENDBRANCH   1   6
BRANCH   3  17
ATOM     17  N   UNL     1      -7.521  13.149  19.182  1.00  0.00    -0.368 N 
ATOM     18  H   UNL     1      -7.785  12.237  18.828  1.00  0.00     0.159 HD
ATOM     19  H   UNL     1      -6.527  13.379  19.175  1.00  0.00     0.159 HD
ENDBRANCH   3  17
BRANCH   4  20
ATOM     20  C   UNL     1      -6.931  15.922  20.257  1.00  0.00     0.287 C 
ATOM     21  O   UNL     1      -6.472  16.078  21.388  1.00  0.00    -0.266 OA
BRANCH  20  22
ATOM     22  C   UNL     1      -6.166  16.416  19.113  1.00  0.00     0.113 A 
ATOM     23  C   UNL     1      -6.590  17.548  18.430  1.00  0.00     0.139 A 
ATOM     24  C   UNL     1      -5.014  15.755  18.707  1.00  0.00     0.139 A 
ATOM     25  C   UNL     1      -5.862  18.028  17.343  1.00  0.00     0.040 A 
ATOM     26  C   UNL     1      -4.277  16.224  17.621  1.00  0.00     0.040 A 
ATOM     27  C   UNL     1      -4.702  17.365  16.936  1.00  0.00     0.006 A 
ATOM     28  F   UNL     1      -7.690  18.209  18.818  1.00  0.00    -0.206 F 
ATOM     29  F   UNL     1      -4.605  14.646  19.340  1.00  0.00    -0.206 F 
ENDBRANCH  20  22
ENDBRANCH   4  20
TORSDOF 6
ENDMDL
