MODEL 7
REMARK VINA RESULT:    -7.165      4.812      8.369
REMARK INTER + INTRA:          -9.940
REMARK INTER:                  -9.036
REMARK INTRA:                  -0.904
REMARK UNBOUND:                -0.261
REMARK SMILES CNS(=O)(=O)C[C@H]1CC[C@H](Oc2c([N+](=O)[O-])cnc3[nH]ccc23)CC1
REMARK SMILES IDX 7 1 25 2 24 3 10 4 9 5 8 6 6 7 3 8 4 9 5 10 2 11 1 12 11 14
REMARK SMILES IDX 12 15 13 16 23 17 17 18 22 19 19 20 18 21 21 22 20 23 14 25
REMARK SMILES IDX 15 26 16 27
REMARK H PARENT 2 13 20 24
ROOT
ATOM      1  C   UNL     1      -7.157  15.702  19.795  1.00  0.00     0.006 C 
ATOM      2  C   UNL     1      -7.467  14.226  20.107  1.00  0.00     0.008 C 
ATOM      3  C   UNL     1      -8.799  13.797  19.504  1.00  0.00     0.045 C 
ATOM      4  C   UNL     1      -9.978  14.564  20.120  1.00  0.00     0.173 C 
ATOM      5  C   UNL     1      -9.576  15.985  20.557  1.00  0.00     0.045 C 
ATOM      6  C   UNL     1      -8.447  16.547  19.696  1.00  0.00     0.008 C 
ENDROOT
BRANCH   1   7
ATOM      7  C   UNL     1      -6.185  16.321  20.810  1.00  0.00     0.157 C 
BRANCH   7   8
ATOM      8  S   UNL     1      -4.970  17.437  20.105  1.00  0.00     0.211 S 
ATOM      9  O   UNL     1      -5.274  18.793  20.497  1.00  0.00    -0.212 OA
ATOM     10  O   UNL     1      -3.657  16.865  20.306  1.00  0.00    -0.212 OA
BRANCH   8  11
ATOM     11  N   UNL     1      -5.264  17.271  18.446  1.00  0.00    -0.218 NA
ATOM     12  C   UNL     1      -4.135  16.721  17.674  1.00  0.00     0.120 C 
ATOM     13  H   UNL     1      -6.099  16.690  18.331  1.00  0.00     0.140 HD
ENDBRANCH   8  11
ENDBRANCH   7   8
ENDBRANCH   1   7
BRANCH   4  14
ATOM     14  O   UNL     1     -11.025  14.689  19.136  1.00  0.00    -0.483 OA
BRANCH  14  15
ATOM     15  C   UNL     1     -12.194  14.090  19.538  1.00  0.00     0.210 A 
ATOM     16  C   UNL     1     -13.271  14.815  20.048  1.00  0.00     0.329 A 
ATOM     17  C   UNL     1     -12.416  12.715  19.326  1.00  0.00     0.068 A 
ATOM     18  C   UNL     1     -14.463  14.189  20.380  1.00  0.00     0.203 A 
ATOM     19  C   UNL     1     -11.681  11.628  18.776  1.00  0.00     0.034 A 
ATOM     20  C   UNL     1     -13.654  12.198  19.705  1.00  0.00     0.141 A 
ATOM     21  N   UNL     1     -14.697  12.862  20.242  1.00  0.00    -0.231 NA
ATOM     22  C   UNL     1     -12.467  10.498  18.856  1.00  0.00     0.085 A 
ATOM     23  N   UNL     1     -13.661  10.858  19.427  1.00  0.00    -0.346 N 
ATOM     24  H   UNL     1     -14.448  10.252  19.606  1.00  0.00     0.167 HD
BRANCH  16  25
ATOM     25  N   UNL     1     -13.190  16.232  20.246  1.00  0.00     0.068 N 
ATOM     26  O   UNL     1     -13.389  16.950  19.258  1.00  0.00    -0.258 OA
ATOM     27  O   UNL     1     -12.983  16.631  21.401  1.00  0.00    -0.258 OA
ENDBRANCH  16  25
ENDBRANCH  14  15
ENDBRANCH   4  14
TORSDOF 6
ENDMDL
