MODEL 3
REMARK minimizedAffinity -6.37552452
REMARK CNNscore 0.577339411
REMARK CNNaffinity 6.34035921
REMARK SMILES CNc1cc2c(Nc3cccc(Br)c3)ncnc2cn1
REMARK SMILES IDX 3 1 4 2 5 3 6 4 15 5 16 6 17 7 18 8 19 9 20 10 2 11 1 12
REMARK SMILES IDX 7 14 8 16 9 17 14 18 10 19 12 20 11 21 13 22
REMARK H PARENT 2 13 7 15
ROOT
ATOM      1  C   UNL     1      17.363   4.452  24.913  1.00  0.00     0.126 A 
ATOM      2  C   UNL     1      16.745   3.707  25.911  1.00  0.00     0.061 A 
ATOM      3  C   UNL     1      16.930   2.303  25.975  1.00  0.00     0.048 A 
ATOM      4  C   UNL     1      16.354   1.449  26.935  1.00  0.00     0.141 A 
ATOM      5  N   UNL     1      16.608   0.128  26.952  1.00  0.00    -0.219 NA
ATOM      6  C   UNL     1      17.416  -0.349  26.002  1.00  0.00     0.224 A 
ATOM      7  N   UNL     1      17.997   0.364  25.034  1.00  0.00    -0.235 NA
ATOM      8  C   UNL     1      17.749   1.682  25.034  1.00  0.00     0.094 A 
ATOM      9  C   UNL     1      18.303   2.514  24.076  1.00  0.00     0.142 A 
ATOM     10  N   UNL     1      18.129   3.859  23.986  1.00  0.00    -0.237 NA
ENDROOT
BRANCH   1  11
ATOM     11  N   UNL     1      17.120   5.834  24.873  1.00  0.00    -0.373 N 
ATOM     12  C   UNL     1      15.913   6.252  25.570  1.00  0.00     0.141 C 
ATOM     13  H   UNL     1      17.119   6.146  23.905  1.00  0.00     0.161 HD
ENDBRANCH   1  11
BRANCH   4  14
ATOM     14  N   UNL     1      15.467   2.004  27.898  1.00  0.00    -0.340 N 
ATOM     15  H   UNL     1      15.978   2.680  28.458  1.00  0.00     0.168 HD
BRANCH  14  16
ATOM     16  C   UNL     1      14.117   2.389  27.731  1.00  0.00     0.041 A 
ATOM     17  C   UNL     1      13.314   2.814  28.797  1.00  0.00     0.026 A 
ATOM     18  C   UNL     1      13.590   2.479  26.433  1.00  0.00     0.041 A 
ATOM     19  C   UNL     1      12.003   3.255  28.586  1.00  0.00     0.003 A 
ATOM     20  C   UNL     1      12.281   2.920  26.224  1.00  0.00     0.020 A 
ATOM     21  C   UNL     1      11.482   3.303  27.297  1.00  0.00     0.016 A 
ATOM     22  Br  UNL     1      11.592   3.006  24.466  1.00  0.00    -0.051 Br
ENDBRANCH  14  16
ENDBRANCH   4  14
TORSDOF 3
ENDMDL
