REMARK VINA RESULT:    -8.429      1.953      2.503
REMARK INTER + INTRA:         -13.004
REMARK INTER:                 -12.722
REMARK INTRA:                  -0.283
REMARK UNBOUND:                -1.373
REMARK SMILES CO/N=C/c1c(N)ncnc1Nc1ccc2c(ccn2Cc2cccc(F)c2)c1
REMARK SMILES IDX 12 1 11 3 5 4 6 5 8 6 10 7 9 8 4 9 3 10 2 11 1 12 7 13 13 16
REMARK SMILES IDX 14 17 29 18 15 19 17 20 16 21 18 22 20 23 19 24 21 25 22 26
REMARK SMILES IDX 23 27 28 28 24 29 26 30 25 31 27 32
REMARK H PARENT 12 2 7 14 7 15
ROOT
ATOM      1  N   UNL     1      16.410  34.670  13.569  1.00  0.00    -0.339 N 
ATOM      2  H   UNL     1      15.915  35.559  13.476  1.00  0.00     0.168 HD
ENDROOT
BRANCH   1   3
ATOM      3  C   UNL     1      16.719  34.379  14.916  1.00  0.00     0.144 A 
ATOM      4  C   UNL     1      18.047  34.410  15.355  1.00  0.00     0.081 A 
ATOM      5  C   UNL     1      18.282  34.130  16.697  1.00  0.00     0.137 A 
ATOM      6  N   UNL     1      17.289  33.877  17.561  1.00  0.00    -0.219 NA
ATOM      7  N   UNL     1      15.721  34.101  15.780  1.00  0.00    -0.218 NA
ATOM      8  C   UNL     1      16.052  33.871  17.054  1.00  0.00     0.226 A 
BRANCH   4   9
ATOM      9  C   UNL     1      19.180  34.735  14.469  1.00  0.00     0.169 C 
ATOM     10  N   UNL     1      20.416  34.586  14.835  1.00  0.00    -0.094 NA
BRANCH  10  11
ATOM     11  O   UNL     1      21.249  34.983  13.779  1.00  0.00    -0.399 OA
ATOM     12  C   UNL     1      22.372  35.670  14.322  1.00  0.00     0.315 C 
ENDBRANCH  10  11
ENDBRANCH   4   9
BRANCH   5  13
ATOM     13  N   UNL     1      19.541  34.120  17.274  1.00  0.00    -0.383 N 
ATOM     14  H   UNL     1      19.643  34.443  18.227  1.00  0.00     0.158 HD
ATOM     15  H   UNL     1      20.259  34.427  16.626  1.00  0.00     0.158 HD
ENDBRANCH   5  13
ENDBRANCH   1   3
BRANCH   1  16
ATOM     16  C   UNL     1      16.711  34.050  12.345  1.00  0.00     0.040 A 
ATOM     17  C   UNL     1      17.411  32.849  12.229  1.00  0.00     0.028 A 
ATOM     18  C   UNL     1      16.274  34.677  11.162  1.00  0.00     0.036 A 
ATOM     19  C   UNL     1      17.693  32.262  10.985  1.00  0.00     0.029 A 
ATOM     20  C   UNL     1      16.541  34.114   9.895  1.00  0.00     0.002 A 
ATOM     21  C   UNL     1      17.250  32.914   9.827  1.00  0.00     0.048 A 
ATOM     22  C   UNL     1      16.234  34.505   8.565  1.00  0.00     0.028 A 
ATOM     23  N   UNL     1      17.378  32.599   8.487  1.00  0.00    -0.343 N 
ATOM     24  C   UNL     1      16.752  33.553   7.720  1.00  0.00     0.087 A 
BRANCH  23  25
ATOM     25  C   UNL     1      18.031  31.414   7.942  1.00  0.00     0.157 C 
BRANCH  25  26
ATOM     26  C   UNL     1      17.033  30.396   7.448  1.00  0.00    -0.025 A 
ATOM     27  C   UNL     1      17.434  29.332   6.622  1.00  0.00     0.006 A 
ATOM     28  C   UNL     1      15.682  30.493   7.811  1.00  0.00     0.044 A 
ATOM     29  C   UNL     1      16.507  28.390   6.169  1.00  0.00     0.003 A 
ATOM     30  C   UNL     1      14.768  29.549   7.355  1.00  0.00     0.123 A 
ATOM     31  C   UNL     1      15.167  28.498   6.538  1.00  0.00     0.039 A 
ATOM     32  F   UNL     1      13.481  29.654   7.709  1.00  0.00    -0.207 F 
ENDBRANCH  25  26
ENDBRANCH  23  25
ENDBRANCH   1  16
TORSDOF 7
