REMARK VINA RESULT:    -9.372      2.177      7.839
REMARK INTER + INTRA:         -14.149
REMARK INTER:                 -12.891
REMARK INTRA:                  -1.259
REMARK UNBOUND:                -1.216
REMARK SMILES N=C(N)c1ccc(O)c(CN2CC[C@H](NS(=O)(=O)c3cc4ncccc4s3)C2=O)c1
REMARK SMILES IDX 11 1 12 2 13 3 14 4 28 5 29 6 10 7 9 8 4 9 5 10 30 11 6 12
REMARK SMILES IDX 7 13 2 14 1 15 3 16 8 20 15 22 16 24 17 25 18 26 19 27 20 28
REMARK SMILES IDX 27 29 21 30 26 31 22 32 25 33 23 34 24 35
REMARK H PARENT 1 17 3 18 3 19 8 21 15 23
ROOT
ATOM      1  N   UNL     1      -1.187  10.778  23.621  1.00  0.00    -0.337 N 
ATOM      2  C   UNL     1      -0.651   9.930  22.588  1.00  0.00     0.122 C 
ATOM      3  C   UNL     1      -1.347  10.416  21.328  1.00  0.00     0.051 C 
ATOM      4  C   UNL     1      -2.695  10.927  21.830  1.00  0.00     0.161 C 
ATOM      5  C   UNL     1      -2.352  11.406  23.228  1.00  0.00     0.241 C 
ATOM      6  O   UNL     1      -2.988  12.218  23.885  1.00  0.00    -0.273 OA
ENDROOT
BRANCH   1   7
ATOM      7  C   UNL     1      -0.567  10.946  24.921  1.00  0.00     0.159 C 
BRANCH   7   8
ATOM      8  C   UNL     1      -1.170  10.027  25.950  1.00  0.00     0.014 A 
ATOM      9  C   UNL     1      -1.150   7.867  27.085  1.00  0.00     0.017 A 
ATOM     10  C   UNL     1      -2.291   8.219  27.807  1.00  0.00     0.016 A 
ATOM     11  C   UNL     1      -0.590   8.763  26.165  1.00  0.00     0.021 A 
ATOM     12  C   UNL     1      -2.865   9.476  27.612  1.00  0.00     0.047 A 
ATOM     13  C   UNL     1      -2.301  10.372  26.704  1.00  0.00     0.120 A 
BRANCH   9  14
ATOM     14  C   UNL     1      -0.525   6.535  27.287  1.00  0.00     0.122 C 
ATOM     15  N   UNL     1       0.010   5.871  26.313  1.00  0.00    -0.284 NA
ATOM     16  N   UNL     1      -0.502   5.971  28.518  1.00  0.00    -0.384 N 
ATOM     17  H   UNL     1      -0.036   6.401  25.438  1.00  0.00     0.189 HD
ATOM     18  H   UNL     1      -0.089   5.049  28.589  1.00  0.00     0.158 HD
ATOM     19  H   UNL     1      -1.018   6.333  29.306  1.00  0.00     0.158 HD
ENDBRANCH   9  14
BRANCH  13  20
ATOM     20  O   UNL     1      -2.932  11.579  26.596  1.00  0.00    -0.508 OA
ATOM     21  H   UNL     1      -3.314  11.687  25.700  1.00  0.00     0.293 HD
ENDBRANCH  13  20
ENDBRANCH   7   8
ENDBRANCH   1   7
BRANCH   4  22
ATOM     22  N   UNL     1      -3.178  12.046  21.009  1.00  0.00    -0.198 NA
ATOM     23  H   UNL     1      -2.892  12.975  21.330  1.00  0.00     0.142 HD
BRANCH  22  24
ATOM     24  S   UNL     1      -4.792  12.003  20.547  1.00  0.00     0.250 S 
ATOM     25  O   UNL     1      -5.575  12.090  21.756  1.00  0.00    -0.206 OA
ATOM     26  O   UNL     1      -4.949  12.912  19.433  1.00  0.00    -0.206 OA
BRANCH  24  27
ATOM     27  C   UNL     1      -5.122  10.381  19.909  1.00  0.00     0.137 A 
ATOM     28  C   UNL     1      -4.487   9.602  18.964  1.00  0.00     0.062 A 
ATOM     29  S   UNL     1      -6.468   9.577  20.590  1.00  0.00    -0.121 S 
ATOM     30  C   UNL     1      -5.124   8.344  18.778  1.00  0.00     0.082 A 
ATOM     31  C   UNL     1      -6.232   8.188  19.610  1.00  0.00     0.054 A 
ATOM     32  N   UNL     1      -4.719   7.388  17.900  1.00  0.00    -0.255 NA
ATOM     33  C   UNL     1      -6.981   7.004  19.568  1.00  0.00     0.023 A 
ATOM     34  C   UNL     1      -5.458   6.261  17.883  1.00  0.00     0.112 A 
ATOM     35  C   UNL     1      -6.569   6.022  18.673  1.00  0.00     0.022 A 
ENDBRANCH  24  27
ENDBRANCH  22  24
ENDBRANCH   4  22
TORSDOF 7
