REMARK SMILES Cc1cc(CN2CCN(c3ccc(OC(F)(F)F)cc3)C2=O)cc(C)c1OC(C)(C)C(=O)O
REMARK SMILES IDX 1 1 2 2 3 3 4 4 23 5 24 6 25 7 26 8 27 9 28 10 29 11 30 12
REMARK SMILES IDX 31 13 32 14 33 15 5 17 6 18 7 19 21 20 8 21 9 22 22 23 10 24
REMARK SMILES IDX 11 25 20 26 12 27 19 28 13 29 14 30 15 31 16 32 17 33 18 34
REMARK H PARENT 33 16
REMARK INDEX MAP 1 1 2 2 3 3 4 4 23 5 24 6 25 7 26 8 27 9 28 10 29 11 30 12
REMARK INDEX MAP 31 13 32 14 33 15 58 16 5 17 6 18 7 19 21 20 8 21 9 22 22 23
REMARK INDEX MAP 10 24 11 25 20 26 12 27 19 28 13 29 14 30 15 31 16 32 17 33
REMARK INDEX MAP 18 34
ROOT
ATOM      1  C   UNL     1      40.699 -39.345 103.764  1.00  0.00     0.048 C 
ATOM      2  C   UNL     1      41.916 -40.191 104.000  1.00  0.00    -0.008 A 
ATOM      3  C   UNL     1      42.425 -40.277 105.305  1.00  0.00     0.012 A 
ATOM      4  C   UNL     1      43.536 -41.077 105.601  1.00  0.00    -0.028 A 
ATOM      5  C   UNL     1      44.131 -41.812 104.570  1.00  0.00     0.012 A 
ATOM      6  C   UNL     1      43.642 -41.745 103.255  1.00  0.00    -0.008 A 
ATOM      7  C   UNL     1      44.296 -42.594 102.202  1.00  0.00     0.048 C 
ATOM      8  C   UNL     1      42.575 -40.878 102.966  1.00  0.00     0.126 A 
ENDROOT
BRANCH   8   9
ATOM      9  O   UNL     1      42.106 -40.778 101.682  1.00  0.00    -0.476 OA
BRANCH   9  10
ATOM     10  C   UNL     1      42.783 -39.818 100.850  1.00  0.00     0.200 C 
ATOM     11  C   UNL     1      41.757 -38.711 100.542  1.00  0.00     0.069 C 
ATOM     12  C   UNL     1      43.874 -39.158 101.712  1.00  0.00     0.069 C 
BRANCH  10  13
ATOM     13  C   UNL     1      43.395 -40.272  99.496  1.00  0.00     0.347 C 
ATOM     14  O   UNL     1      44.583 -40.301  99.208  1.00  0.00    -0.248 OA
BRANCH  13  15
ATOM     15  O   UNL     1      42.482 -40.645  98.574  1.00  0.00    -0.478 OA
ATOM     16  H   UNL     1      42.778 -40.950  97.680  1.00  0.00     0.296 HD
ENDBRANCH  13  15
ENDBRANCH  10  13
ENDBRANCH   9  10
ENDBRANCH   8   9
BRANCH   4  17
ATOM     17  C   UNL     1      44.039 -41.185 107.020  1.00  0.00     0.157 C 
BRANCH  17  18
ATOM     18  N   UNL     1      45.388 -40.674 107.155  1.00  0.00    -0.318 N 
ATOM     19  C   UNL     1      46.544 -41.523 107.242  1.00  0.00     0.144 C 
ATOM     20  C   UNL     1      45.706 -39.327 107.323  1.00  0.00     0.324 C 
ATOM     21  C   UNL     1      47.703 -40.556 107.429  1.00  0.00     0.149 C 
ATOM     22  N   UNL     1      47.105 -39.238 107.485  1.00  0.00    -0.293 N 
ATOM     23  O   UNL     1      44.876 -38.431 107.331  1.00  0.00    -0.248 OA
BRANCH  22  24
ATOM     24  C   UNL     1      47.870 -38.057 107.682  1.00  0.00     0.046 A 
ATOM     25  C   UNL     1      49.165 -37.913 107.174  1.00  0.00     0.030 A 
ATOM     26  C   UNL     1      47.341 -36.979 108.406  1.00  0.00     0.030 A 
ATOM     27  C   UNL     1      49.908 -36.737 107.370  1.00  0.00     0.049 A 
ATOM     28  C   UNL     1      48.077 -35.802 108.598  1.00  0.00     0.049 A 
ATOM     29  C   UNL     1      49.365 -35.671 108.081  1.00  0.00     0.129 A 
BRANCH  29  30
ATOM     30  O   UNL     1      49.960 -34.471 108.336  1.00  0.00    -0.406 OA
BRANCH  30  31
ATOM     31  C   UNL     1      49.478 -33.334 107.641  1.00  0.00     0.573 C 
ATOM     32  F   UNL     1      49.230 -33.618 106.346  1.00  0.00    -0.132 F 
ATOM     33  F   UNL     1      50.352 -32.308 107.721  1.00  0.00    -0.132 F 
ATOM     34  F   UNL     1      48.317 -32.942 108.212  1.00  0.00    -0.132 F 
ENDBRANCH  30  31
ENDBRANCH  29  30
ENDBRANCH  22  24
ENDBRANCH  17  18
ENDBRANCH   4  17
TORSDOF 9
