MODEL 1
REMARK VINA RESULT:    -9.229      0.000      0.000
REMARK INTER + INTRA:         -18.458
REMARK INTER:                 -16.512
REMARK INTRA:                  -1.947
REMARK UNBOUND:                -1.947
REMARK SMILES CCc1c(N2CC[C@@H](O)C2=O)cccc1S(=O)(=O)N[C@@H](CNC(=O)c1ccc(Cl)s1)C(=O)OCCc1nccn1C
REMARK SMILES IDX 20 1 19 2 16 4 17 5 18 6 15 7 3 8 4 9 12 10 14 11 13 12 2 13
REMARK SMILES IDX 1 14 5 15 6 16 10 17 7 18 8 19 11 20 9 21 21 23 22 24 23 25
REMARK SMILES IDX 24 26 25 28 26 29 30 30 27 31 28 32 29 33 31 34 32 35 33 36
REMARK SMILES IDX 34 37 35 38 36 39 37 40 40 41 38 42 39 43 41 44
REMARK H PARENT 19 3 9 22 22 27
ROOT
ATOM      1  C   UNL     1     128.065 -14.872 160.934  1.00  0.00     0.198 C 
ENDROOT
BRANCH   1   2
ATOM      2  N   UNL     1     128.857 -14.432 162.131  1.00  0.00    -0.195 NA
ATOM      3  H   UNL     1     129.759 -14.003 161.898  1.00  0.00     0.142 HD
BRANCH   2   4
ATOM      4  S   UNL     1     129.110 -15.613 163.319  1.00  0.00     0.241 S 
ATOM      5  O   UNL     1     128.732 -16.878 162.736  1.00  0.00    -0.207 OA
ATOM      6  O   UNL     1     128.490 -15.138 164.536  1.00  0.00    -0.207 OA
BRANCH   4   7
ATOM      7  C   UNL     1     130.894 -15.580 163.524  1.00  0.00     0.087 A 
ATOM      8  C   UNL     1     131.562 -15.998 164.715  1.00  0.00    -0.004 A 
ATOM      9  C   UNL     1     132.976 -15.809 164.781  1.00  0.00     0.048 A 
ATOM     10  C   UNL     1     133.641 -15.242 163.674  1.00  0.00     0.027 A 
ATOM     11  C   UNL     1     131.600 -15.035 162.440  1.00  0.00     0.022 A 
ATOM     12  C   UNL     1     132.972 -14.868 162.515  1.00  0.00     0.004 A 
BRANCH   8  13
ATOM     13  C   UNL     1     130.765 -16.500 165.904  1.00  0.00     0.036 C 
ATOM     14  C   UNL     1     130.616 -18.017 165.910  1.00  0.00     0.009 C 
ENDBRANCH   8  13
BRANCH   9  15
ATOM     15  N   UNL     1     133.796 -16.160 165.896  1.00  0.00    -0.310 N 
ATOM     16  C   UNL     1     134.080 -15.301 167.017  1.00  0.00     0.129 C 
ATOM     17  C   UNL     1     134.339 -17.440 166.123  1.00  0.00     0.255 C 
ATOM     18  C   UNL     1     134.329 -16.256 168.168  1.00  0.00     0.064 C 
ATOM     19  C   UNL     1     135.036 -17.411 167.485  1.00  0.00     0.205 C 
ATOM     20  O   UNL     1     134.324 -18.429 165.403  1.00  0.00    -0.271 OA
BRANCH  19  21
ATOM     21  O   UNL     1     134.919 -18.595 168.242  1.00  0.00    -0.383 OA
ATOM     22  H   UNL     1     134.006 -18.914 168.104  1.00  0.00     0.211 HD
ENDBRANCH  19  21
ENDBRANCH   9  15
ENDBRANCH   4   7
ENDBRANCH   2   4
ENDBRANCH   1   2
BRANCH   1  23
ATOM     23  C   UNL     1     126.580 -14.931 161.304  1.00  0.00     0.148 C 
BRANCH  23  24
ATOM     24  N   UNL     1     126.268 -14.098 162.453  1.00  0.00    -0.349 N 
ATOM     25  C   UNL     1     125.503 -14.549 163.506  1.00  0.00     0.261 C 
ATOM     26  O   UNL     1     125.103 -15.710 163.552  1.00  0.00    -0.268 OA
ATOM     27  H   UNL     1     126.532 -13.119 162.422  1.00  0.00     0.163 HD
BRANCH  25  28
ATOM     28  C   UNL     1     125.201 -13.568 164.539  1.00  0.00     0.093 A 
ATOM     29  C   UNL     1     124.321 -13.721 165.600  1.00  0.00     0.027 A 
ATOM     30  S   UNL     1     125.935 -12.016 164.571  1.00  0.00    -0.118 S 
ATOM     31  C   UNL     1     124.262 -12.564 166.435  1.00  0.00     0.033 A 
ATOM     32  C   UNL     1     125.097 -11.584 165.973  1.00  0.00     0.094 A 
ATOM     33  Cl  UNL     1     125.348 -10.034 166.666  1.00  0.00    -0.072 Cl
ENDBRANCH  25  28
ENDBRANCH  23  24
ENDBRANCH   1  23
BRANCH   1  34
ATOM     34  C   UNL     1     128.212 -13.876 159.795  1.00  0.00     0.326 C 
ATOM     35  O   UNL     1     127.272 -13.261 159.304  1.00  0.00    -0.250 OA
BRANCH  34  36
ATOM     36  O   UNL     1     129.510 -13.785 159.399  1.00  0.00    -0.464 OA
BRANCH  36  37
ATOM     37  C   UNL     1     129.733 -13.023 158.198  1.00  0.00     0.241 C 
BRANCH  37  38
ATOM     38  C   UNL     1     130.064 -13.952 157.031  1.00  0.00     0.117 C 
BRANCH  38  39
ATOM     39  C   UNL     1     128.859 -14.211 156.197  1.00  0.00     0.111 A 
ATOM     40  N   UNL     1     127.895 -13.344 155.957  1.00  0.00    -0.242 NA
ATOM     41  N   UNL     1     128.611 -15.399 155.547  1.00  0.00    -0.338 N 
ATOM     42  C   UNL     1     127.001 -13.991 155.146  1.00  0.00     0.131 A 
ATOM     43  C   UNL     1     127.427 -15.269 154.877  1.00  0.00     0.107 A 
ATOM     44  C   UNL     1     129.450 -16.573 155.553  1.00  0.00     0.151 C 
ENDBRANCH  38  39
ENDBRANCH  37  38
ENDBRANCH  36  37
ENDBRANCH  34  36
ENDBRANCH   1  34
TORSDOF 14
ENDMDL
MODEL 2
REMARK VINA RESULT:    -9.224      1.791      2.549
REMARK INTER + INTRA:         -18.450
REMARK INTER:                 -16.332
REMARK INTRA:                  -2.118
REMARK UNBOUND:                -1.947
REMARK SMILES CCc1c(N2CC[C@@H](O)C2=O)cccc1S(=O)(=O)N[C@@H](CNC(=O)c1ccc(Cl)s1)C(=O)OCCc1nccn1C
REMARK SMILES IDX 20 1 19 2 16 4 17 5 18 6 15 7 3 8 4 9 12 10 14 11 13 12 2 13
REMARK SMILES IDX 1 14 5 15 6 16 10 17 7 18 8 19 11 20 9 21 21 23 22 24 23 25
REMARK SMILES IDX 24 26 25 28 26 29 30 30 27 31 28 32 29 33 31 34 32 35 33 36
REMARK SMILES IDX 34 37 35 38 36 39 37 40 40 41 38 42 39 43 41 44
REMARK H PARENT 19 3 9 22 22 27
ROOT
ATOM      1  C   UNL     1     127.923 -16.901 163.273  1.00  0.00     0.198 C 
ENDROOT
BRANCH   1   2
ATOM      2  N   UNL     1     128.474 -17.858 164.289  1.00  0.00    -0.195 NA
ATOM      3  H   UNL     1     128.729 -17.418 165.180  1.00  0.00     0.142 HD
BRANCH   2   4
ATOM      4  S   UNL     1     129.771 -18.816 163.769  1.00  0.00     0.241 S 
ATOM      5  O   UNL     1     129.591 -19.027 162.352  1.00  0.00    -0.207 OA
ATOM      6  O   UNL     1     129.872 -19.934 164.681  1.00  0.00    -0.207 OA
BRANCH   4   7
ATOM      7  C   UNL     1     131.180 -17.732 164.019  1.00  0.00     0.087 A 
ATOM      8  C   UNL     1     131.824 -17.547 165.280  1.00  0.00    -0.004 A 
ATOM      9  C   UNL     1     132.859 -16.566 165.357  1.00  0.00     0.048 A 
ATOM     10  C   UNL     1     133.206 -15.848 164.193  1.00  0.00     0.027 A 
ATOM     11  C   UNL     1     131.570 -17.004 162.883  1.00  0.00     0.022 A 
ATOM     12  C   UNL     1     132.582 -16.066 162.970  1.00  0.00     0.004 A 
BRANCH   8  13
ATOM     13  C   UNL     1     131.323 -18.280 166.510  1.00  0.00     0.036 C 
ATOM     14  C   UNL     1     130.451 -17.401 167.399  1.00  0.00     0.009 C 
ENDBRANCH   8  13
BRANCH   9  15
ATOM     15  N   UNL     1     133.597 -16.248 166.536  1.00  0.00    -0.310 N 
ATOM     16  C   UNL     1     133.361 -15.100 167.375  1.00  0.00     0.129 C 
ATOM     17  C   UNL     1     134.575 -17.077 167.122  1.00  0.00     0.255 C 
ATOM     18  C   UNL     1     133.820 -15.540 168.751  1.00  0.00     0.064 C 
ATOM     19  C   UNL     1     135.016 -16.417 168.430  1.00  0.00     0.205 C 
ATOM     20  O   UNL     1     135.054 -18.124 166.708  1.00  0.00    -0.271 OA
BRANCH  19  21
ATOM     21  O   UNL     1     135.288 -17.310 169.487  1.00  0.00    -0.383 OA
ATOM     22  H   UNL     1     136.026 -17.873 169.181  1.00  0.00     0.211 HD
ENDBRANCH  19  21
ENDBRANCH   9  15
ENDBRANCH   4   7
ENDBRANCH   2   4
ENDBRANCH   1   2
BRANCH   1  23
ATOM     23  C   UNL     1     126.397 -16.859 163.394  1.00  0.00     0.148 C 
BRANCH  23  24
ATOM     24  N   UNL     1     125.946 -15.802 164.282  1.00  0.00    -0.349 N 
ATOM     25  C   UNL     1     125.359 -14.645 163.817  1.00  0.00     0.261 C 
ATOM     26  O   UNL     1     125.128 -14.486 162.621  1.00  0.00    -0.268 OA
ATOM     27  H   UNL     1     126.173 -15.874 165.268  1.00  0.00     0.163 HD
BRANCH  25  28
ATOM     28  C   UNL     1     125.047 -13.641 164.823  1.00  0.00     0.093 A 
ATOM     29  C   UNL     1     124.213 -13.793 165.920  1.00  0.00     0.027 A 
ATOM     30  S   UNL     1     125.707 -12.056 164.772  1.00  0.00    -0.118 S 
ATOM     31  C   UNL     1     124.128 -12.610 166.715  1.00  0.00     0.033 A 
ATOM     32  C   UNL     1     124.899 -11.610 166.187  1.00  0.00     0.094 A 
ATOM     33  Cl  UNL     1     125.100 -10.025 166.813  1.00  0.00    -0.072 Cl
ENDBRANCH  25  28
ENDBRANCH  23  24
ENDBRANCH   1  23
BRANCH   1  34
ATOM     34  C   UNL     1     128.439 -15.494 163.522  1.00  0.00     0.326 C 
ATOM     35  O   UNL     1     128.886 -15.114 164.599  1.00  0.00    -0.250 OA
BRANCH  34  36
ATOM     36  O   UNL     1     128.320 -14.730 162.403  1.00  0.00    -0.464 OA
BRANCH  36  37
ATOM     37  C   UNL     1     128.820 -15.330 161.193  1.00  0.00     0.241 C 
BRANCH  37  38
ATOM     38  C   UNL     1     127.935 -14.953 160.007  1.00  0.00     0.117 C 
BRANCH  38  39
ATOM     39  C   UNL     1     128.739 -14.340 158.914  1.00  0.00     0.111 A 
ATOM     40  N   UNL     1     129.548 -13.308 159.049  1.00  0.00    -0.242 NA
ATOM     41  N   UNL     1     128.750 -14.795 157.615  1.00  0.00    -0.338 N 
ATOM     42  C   UNL     1     130.083 -13.087 157.807  1.00  0.00     0.131 A 
ATOM     43  C   UNL     1     129.603 -14.000 156.902  1.00  0.00     0.107 A 
ATOM     44  C   UNL     1     128.011 -15.919 157.092  1.00  0.00     0.151 C 
ENDBRANCH  38  39
ENDBRANCH  37  38
ENDBRANCH  36  37
ENDBRANCH  34  36
ENDBRANCH   1  34
TORSDOF 14
ENDMDL
MODEL 3
REMARK VINA RESULT:    -8.979      2.162      3.164
REMARK INTER + INTRA:         -18.011
REMARK INTER:                 -16.292
REMARK INTRA:                  -1.719
REMARK UNBOUND:                -1.947
REMARK SMILES CCc1c(N2CC[C@@H](O)C2=O)cccc1S(=O)(=O)N[C@@H](CNC(=O)c1ccc(Cl)s1)C(=O)OCCc1nccn1C
REMARK SMILES IDX 20 1 19 2 16 4 17 5 18 6 15 7 3 8 4 9 12 10 14 11 13 12 2 13
REMARK SMILES IDX 1 14 5 15 6 16 10 17 7 18 8 19 11 20 9 21 21 23 22 24 23 25
REMARK SMILES IDX 24 26 25 28 26 29 30 30 27 31 28 32 29 33 31 34 32 35 33 36
REMARK SMILES IDX 34 37 35 38 36 39 37 40 40 41 38 42 39 43 41 44
REMARK H PARENT 19 3 9 22 22 27
ROOT
ATOM      1  C   UNL     1     128.754 -16.723 163.272  1.00  0.00     0.198 C 
ENDROOT
BRANCH   1   2
ATOM      2  N   UNL     1     129.182 -17.109 164.658  1.00  0.00    -0.195 NA
ATOM      3  H   UNL     1     129.563 -16.331 165.208  1.00  0.00     0.142 HD
BRANCH   2   4
ATOM      4  S   UNL     1     130.253 -18.417 164.759  1.00  0.00     0.241 S 
ATOM      5  O   UNL     1     130.723 -18.675 163.419  1.00  0.00    -0.207 OA
ATOM      6  O   UNL     1     129.598 -19.450 165.531  1.00  0.00    -0.207 OA
BRANCH   4   7
ATOM      7  C   UNL     1     131.605 -17.738 165.726  1.00  0.00     0.087 A 
ATOM      8  C   UNL     1     132.963 -18.165 165.600  1.00  0.00    -0.004 A 
ATOM      9  C   UNL     1     133.915 -17.621 166.514  1.00  0.00     0.048 A 
ATOM     10  C   UNL     1     133.480 -16.685 167.476  1.00  0.00     0.027 A 
ATOM     11  C   UNL     1     131.221 -16.792 166.690  1.00  0.00     0.022 A 
ATOM     12  C   UNL     1     132.158 -16.265 167.561  1.00  0.00     0.004 A 
BRANCH   8  13
ATOM     13  C   UNL     1     133.333 -19.254 164.611  1.00  0.00     0.036 C 
ATOM     14  C   UNL     1     133.106 -20.653 165.171  1.00  0.00     0.009 C 
ENDBRANCH   8  13
BRANCH   9  15
ATOM     15  N   UNL     1     135.305 -17.944 166.534  1.00  0.00    -0.310 N 
ATOM     16  C   UNL     1     135.853 -19.217 166.927  1.00  0.00     0.129 C 
ATOM     17  C   UNL     1     136.332 -17.109 166.049  1.00  0.00     0.255 C 
ATOM     18  C   UNL     1     137.150 -19.324 166.149  1.00  0.00     0.064 C 
ATOM     19  C   UNL     1     137.644 -17.890 166.143  1.00  0.00     0.205 C 
ATOM     20  O   UNL     1     136.269 -15.957 165.643  1.00  0.00    -0.271 OA
BRANCH  19  21
ATOM     21  O   UNL     1     138.548 -17.670 165.083  1.00  0.00    -0.383 OA
ATOM     22  H   UNL     1     138.624 -18.524 164.613  1.00  0.00     0.211 HD
ENDBRANCH  19  21
ENDBRANCH   9  15
ENDBRANCH   4   7
ENDBRANCH   2   4
ENDBRANCH   1   2
BRANCH   1  23
ATOM     23  C   UNL     1     127.225 -16.729 163.195  1.00  0.00     0.148 C 
BRANCH  23  24
ATOM     24  N   UNL     1     126.628 -15.722 164.056  1.00  0.00    -0.349 N 
ATOM     25  C   UNL     1     125.812 -14.725 163.570  1.00  0.00     0.261 C 
ATOM     26  O   UNL     1     125.496 -14.681 162.384  1.00  0.00    -0.268 OA
ATOM     27  H   UNL     1     126.913 -15.693 165.029  1.00  0.00     0.163 HD
BRANCH  25  28
ATOM     28  C   UNL     1     125.366 -13.737 164.543  1.00  0.00     0.093 A 
ATOM     29  C   UNL     1     124.403 -13.912 165.524  1.00  0.00     0.027 A 
ATOM     30  S   UNL     1     126.014 -12.148 164.597  1.00  0.00    -0.118 S 
ATOM     31  C   UNL     1     124.207 -12.742 166.318  1.00  0.00     0.033 A 
ATOM     32  C   UNL     1     125.030 -11.728 165.905  1.00  0.00     0.094 A 
ATOM     33  Cl  UNL     1     125.135 -10.151 166.573  1.00  0.00    -0.072 Cl
ENDBRANCH  25  28
ENDBRANCH  23  24
ENDBRANCH   1  23
BRANCH   1  34
ATOM     34  C   UNL     1     129.223 -15.317 162.936  1.00  0.00     0.326 C 
ATOM     35  O   UNL     1     129.352 -14.425 163.768  1.00  0.00    -0.250 OA
BRANCH  34  36
ATOM     36  O   UNL     1     129.455 -15.191 161.601  1.00  0.00    -0.464 OA
BRANCH  36  37
ATOM     37  C   UNL     1     128.635 -14.220 160.924  1.00  0.00     0.241 C 
BRANCH  37  38
ATOM     38  C   UNL     1     128.199 -14.750 159.560  1.00  0.00     0.117 C 
BRANCH  38  39
ATOM     39  C   UNL     1     128.834 -13.977 158.458  1.00  0.00     0.111 A 
ATOM     40  N   UNL     1     129.794 -13.085 158.606  1.00  0.00    -0.242 NA
ATOM     41  N   UNL     1     128.505 -14.116 157.129  1.00  0.00    -0.338 N 
ATOM     42  C   UNL     1     130.081 -12.632 157.345  1.00  0.00     0.131 A 
ATOM     43  C   UNL     1     129.293 -13.260 156.412  1.00  0.00     0.107 A 
ATOM     44  C   UNL     1     127.518 -15.013 156.577  1.00  0.00     0.151 C 
ENDBRANCH  38  39
ENDBRANCH  37  38
ENDBRANCH  36  37
ENDBRANCH  34  36
ENDBRANCH   1  34
TORSDOF 14
ENDMDL
MODEL 4
REMARK VINA RESULT:    -8.976      3.455      6.071
REMARK INTER + INTRA:         -18.006
REMARK INTER:                 -15.849
REMARK INTRA:                  -2.158
REMARK UNBOUND:                -1.947
REMARK SMILES CCc1c(N2CC[C@@H](O)C2=O)cccc1S(=O)(=O)N[C@@H](CNC(=O)c1ccc(Cl)s1)C(=O)OCCc1nccn1C
REMARK SMILES IDX 20 1 19 2 16 4 17 5 18 6 15 7 3 8 4 9 12 10 14 11 13 12 2 13
REMARK SMILES IDX 1 14 5 15 6 16 10 17 7 18 8 19 11 20 9 21 21 23 22 24 23 25
REMARK SMILES IDX 24 26 25 28 26 29 30 30 27 31 28 32 29 33 31 34 32 35 33 36
REMARK SMILES IDX 34 37 35 38 36 39 37 40 40 41 38 42 39 43 41 44
REMARK H PARENT 19 3 9 22 22 27
ROOT
ATOM      1  C   UNL     1     127.624 -17.524 163.657  1.00  0.00     0.198 C 
ENDROOT
BRANCH   1   2
ATOM      2  N   UNL     1     128.559 -16.794 162.738  1.00  0.00    -0.195 NA
ATOM      3  H   UNL     1     129.409 -17.319 162.505  1.00  0.00     0.142 HD
BRANCH   2   4
ATOM      4  S   UNL     1     129.005 -15.236 163.230  1.00  0.00     0.241 S 
ATOM      5  O   UNL     1     128.450 -15.041 164.548  1.00  0.00    -0.207 OA
ATOM      6  O   UNL     1     128.685 -14.335 162.145  1.00  0.00    -0.207 OA
BRANCH   4   7
ATOM      7  C   UNL     1     130.791 -15.368 163.367  1.00  0.00     0.087 A 
ATOM      8  C   UNL     1     131.461 -15.894 164.514  1.00  0.00    -0.004 A 
ATOM      9  C   UNL     1     132.887 -15.832 164.532  1.00  0.00     0.048 A 
ATOM     10  C   UNL     1     133.561 -15.277 163.424  1.00  0.00     0.027 A 
ATOM     11  C   UNL     1     131.504 -14.839 162.280  1.00  0.00     0.022 A 
ATOM     12  C   UNL     1     132.887 -14.796 162.307  1.00  0.00     0.004 A 
BRANCH   8  13
ATOM     13  C   UNL     1     130.665 -16.376 165.711  1.00  0.00     0.036 C 
ATOM     14  C   UNL     1     130.532 -17.894 165.753  1.00  0.00     0.009 C 
ENDBRANCH   8  13
BRANCH   9  15
ATOM     15  N   UNL     1     133.712 -16.301 165.599  1.00  0.00    -0.310 N 
ATOM     16  C   UNL     1     134.092 -15.527 166.753  1.00  0.00     0.129 C 
ATOM     17  C   UNL     1     134.164 -17.628 165.742  1.00  0.00     0.255 C 
ATOM     18  C   UNL     1     134.303 -16.558 167.844  1.00  0.00     0.064 C 
ATOM     19  C   UNL     1     134.902 -17.723 167.078  1.00  0.00     0.205 C 
ATOM     20  O   UNL     1     134.055 -18.573 164.972  1.00  0.00    -0.271 OA
BRANCH  19  21
ATOM     21  O   UNL     1     134.720 -18.935 167.777  1.00  0.00    -0.383 OA
ATOM     22  H   UNL     1     134.062 -19.445 167.265  1.00  0.00     0.211 HD
ENDBRANCH  19  21
ENDBRANCH   9  15
ENDBRANCH   4   7
ENDBRANCH   2   4
ENDBRANCH   1   2
BRANCH   1  23
ATOM     23  C   UNL     1     126.184 -17.098 163.356  1.00  0.00     0.148 C 
BRANCH  23  24
ATOM     24  N   UNL     1     125.744 -16.009 164.211  1.00  0.00    -0.349 N 
ATOM     25  C   UNL     1     125.405 -14.770 163.714  1.00  0.00     0.261 C 
ATOM     26  O   UNL     1     125.395 -14.550 162.505  1.00  0.00    -0.268 OA
ATOM     27  H   UNL     1     125.796 -16.138 165.216  1.00  0.00     0.163 HD
BRANCH  25  28
ATOM     28  C   UNL     1     125.073 -13.756 164.705  1.00  0.00     0.093 A 
ATOM     29  C   UNL     1     124.177 -13.881 165.755  1.00  0.00     0.027 A 
ATOM     30  S   UNL     1     125.790 -12.196 164.694  1.00  0.00    -0.118 S 
ATOM     31  C   UNL     1     124.090 -12.696 166.547  1.00  0.00     0.033 A 
ATOM     32  C   UNL     1     124.923 -11.723 166.064  1.00  0.00     0.094 A 
ATOM     33  Cl  UNL     1     125.144 -10.146 166.705  1.00  0.00    -0.072 Cl
ENDBRANCH  25  28
ENDBRANCH  23  24
ENDBRANCH   1  23
BRANCH   1  34
ATOM     34  C   UNL     1     127.712 -19.025 163.434  1.00  0.00     0.326 C 
ATOM     35  O   UNL     1     128.348 -19.541 162.521  1.00  0.00    -0.250 OA
BRANCH  34  36
ATOM     36  O   UNL     1     126.982 -19.695 164.366  1.00  0.00    -0.464 OA
BRANCH  36  37
ATOM     37  C   UNL     1     126.248 -20.831 163.871  1.00  0.00     0.241 C 
BRANCH  37  38
ATOM     38  C   UNL     1     126.949 -22.130 164.264  1.00  0.00     0.117 C 
BRANCH  38  39
ATOM     39  C   UNL     1     127.339 -22.112 165.701  1.00  0.00     0.111 A 
ATOM     40  N   UNL     1     126.518 -22.288 166.717  1.00  0.00    -0.242 NA
ATOM     41  N   UNL     1     128.628 -21.926 166.149  1.00  0.00    -0.338 N 
ATOM     42  C   UNL     1     127.293 -22.202 167.844  1.00  0.00     0.131 A 
ATOM     43  C   UNL     1     128.607 -21.979 167.514  1.00  0.00     0.107 A 
ATOM     44  C   UNL     1     129.801 -21.725 165.332  1.00  0.00     0.151 C 
ENDBRANCH  38  39
ENDBRANCH  37  38
ENDBRANCH  36  37
ENDBRANCH  34  36
ENDBRANCH   1  34
TORSDOF 14
ENDMDL
MODEL 5
REMARK VINA RESULT:    -8.774      2.003      3.189
REMARK INTER + INTRA:         -17.645
REMARK INTER:                 -16.402
REMARK INTRA:                  -1.243
REMARK UNBOUND:                -1.947
REMARK SMILES CCc1c(N2CC[C@@H](O)C2=O)cccc1S(=O)(=O)N[C@@H](CNC(=O)c1ccc(Cl)s1)C(=O)OCCc1nccn1C
REMARK SMILES IDX 20 1 19 2 16 4 17 5 18 6 15 7 3 8 4 9 12 10 14 11 13 12 2 13
REMARK SMILES IDX 1 14 5 15 6 16 10 17 7 18 8 19 11 20 9 21 21 23 22 24 23 25
REMARK SMILES IDX 24 26 25 28 26 29 30 30 27 31 28 32 29 33 31 34 32 35 33 36
REMARK SMILES IDX 34 37 35 38 36 39 37 40 40 41 38 42 39 43 41 44
REMARK H PARENT 19 3 9 22 22 27
ROOT
ATOM      1  C   UNL     1     127.541 -17.480 163.059  1.00  0.00     0.198 C 
ENDROOT
BRANCH   1   2
ATOM      2  N   UNL     1     128.196 -17.778 164.376  1.00  0.00    -0.195 NA
ATOM      3  H   UNL     1     128.896 -17.084 164.660  1.00  0.00     0.142 HD
BRANCH   2   4
ATOM      4  S   UNL     1     128.877 -19.322 164.525  1.00  0.00     0.241 S 
ATOM      5  O   UNL     1     129.475 -19.638 163.250  1.00  0.00    -0.207 OA
ATOM      6  O   UNL     1     127.871 -20.180 165.110  1.00  0.00    -0.207 OA
BRANCH   4   7
ATOM      7  C   UNL     1     130.184 -19.056 165.727  1.00  0.00     0.087 A 
ATOM      8  C   UNL     1     131.001 -17.885 165.764  1.00  0.00    -0.004 A 
ATOM      9  C   UNL     1     132.078 -17.859 166.701  1.00  0.00     0.048 A 
ATOM     10  C   UNL     1     132.272 -18.970 167.548  1.00  0.00     0.027 A 
ATOM     11  C   UNL     1     130.406 -20.132 166.602  1.00  0.00     0.022 A 
ATOM     12  C   UNL     1     131.447 -20.088 167.512  1.00  0.00     0.004 A 
BRANCH   8  13
ATOM     13  C   UNL     1     130.796 -16.777 164.749  1.00  0.00     0.036 C 
ATOM     14  C   UNL     1     131.691 -16.934 163.525  1.00  0.00     0.009 C 
ENDBRANCH   8  13
BRANCH   9  15
ATOM     15  N   UNL     1     132.994 -16.776 166.864  1.00  0.00    -0.310 N 
ATOM     16  C   UNL     1     132.848 -15.706 167.818  1.00  0.00     0.129 C 
ATOM     17  C   UNL     1     134.236 -16.667 166.208  1.00  0.00     0.255 C 
ATOM     18  C   UNL     1     134.269 -15.270 168.113  1.00  0.00     0.064 C 
ATOM     19  C   UNL     1     134.946 -15.432 166.765  1.00  0.00     0.205 C 
ATOM     20  O   UNL     1     134.713 -17.370 165.327  1.00  0.00    -0.271 OA
BRANCH  19  21
ATOM     21  O   UNL     1     136.343 -15.560 166.912  1.00  0.00    -0.383 OA
ATOM     22  H   UNL     1     136.511 -15.591 167.874  1.00  0.00     0.211 HD
ENDBRANCH  19  21
ENDBRANCH   9  15
ENDBRANCH   4   7
ENDBRANCH   2   4
ENDBRANCH   1   2
BRANCH   1  23
ATOM     23  C   UNL     1     126.028 -17.356 163.264  1.00  0.00     0.148 C 
BRANCH  23  24
ATOM     24  N   UNL     1     125.682 -16.244 164.131  1.00  0.00    -0.349 N 
ATOM     25  C   UNL     1     125.225 -15.040 163.642  1.00  0.00     0.261 C 
ATOM     26  O   UNL     1     125.025 -14.875 162.441  1.00  0.00    -0.268 OA
ATOM     27  H   UNL     1     125.888 -16.324 165.121  1.00  0.00     0.163 HD
BRANCH  25  28
ATOM     28  C   UNL     1     125.008 -13.992 164.630  1.00  0.00     0.093 A 
ATOM     29  C   UNL     1     124.191 -14.059 165.747  1.00  0.00     0.027 A 
ATOM     30  S   UNL     1     125.780 -12.462 164.526  1.00  0.00    -0.118 S 
ATOM     31  C   UNL     1     124.208 -12.855 166.514  1.00  0.00     0.033 A 
ATOM     32  C   UNL     1     125.038 -11.925 165.946  1.00  0.00     0.094 A 
ATOM     33  Cl  UNL     1     125.366 -10.345 166.529  1.00  0.00    -0.072 Cl
ENDBRANCH  25  28
ENDBRANCH  23  24
ENDBRANCH   1  23
BRANCH   1  34
ATOM     34  C   UNL     1     128.035 -16.156 162.499  1.00  0.00     0.326 C 
ATOM     35  O   UNL     1     128.465 -15.242 163.194  1.00  0.00    -0.250 OA
BRANCH  34  36
ATOM     36  O   UNL     1     127.916 -16.131 161.144  1.00  0.00    -0.464 OA
BRANCH  36  37
ATOM     37  C   UNL     1     128.530 -15.002 160.495  1.00  0.00     0.241 C 
BRANCH  37  38
ATOM     38  C   UNL     1     127.839 -14.714 159.163  1.00  0.00     0.117 C 
BRANCH  38  39
ATOM     39  C   UNL     1     128.714 -13.903 158.273  1.00  0.00     0.111 A 
ATOM     40  N   UNL     1     129.738 -13.172 158.667  1.00  0.00    -0.242 NA
ATOM     41  N   UNL     1     128.569 -13.831 156.906  1.00  0.00    -0.338 N 
ATOM     42  C   UNL     1     130.256 -12.609 157.531  1.00  0.00     0.131 A 
ATOM     43  C   UNL     1     129.546 -13.006 156.425  1.00  0.00     0.107 A 
ATOM     44  C   UNL     1     127.576 -14.512 156.110  1.00  0.00     0.151 C 
ENDBRANCH  38  39
ENDBRANCH  37  38
ENDBRANCH  36  37
ENDBRANCH  34  36
ENDBRANCH   1  34
TORSDOF 14
ENDMDL
MODEL 6
REMARK VINA RESULT:    -8.514      4.287      6.639
REMARK INTER + INTRA:         -17.180
REMARK INTER:                 -14.865
REMARK INTRA:                  -2.316
REMARK UNBOUND:                -1.947
REMARK SMILES CCc1c(N2CC[C@@H](O)C2=O)cccc1S(=O)(=O)N[C@@H](CNC(=O)c1ccc(Cl)s1)C(=O)OCCc1nccn1C
REMARK SMILES IDX 20 1 19 2 16 4 17 5 18 6 15 7 3 8 4 9 12 10 14 11 13 12 2 13
REMARK SMILES IDX 1 14 5 15 6 16 10 17 7 18 8 19 11 20 9 21 21 23 22 24 23 25
REMARK SMILES IDX 24 26 25 28 26 29 30 30 27 31 28 32 29 33 31 34 32 35 33 36
REMARK SMILES IDX 34 37 35 38 36 39 37 40 40 41 38 42 39 43 41 44
REMARK H PARENT 19 3 9 22 22 27
ROOT
ATOM      1  C   UNL     1     127.861 -18.219 162.990  1.00  0.00     0.198 C 
ENDROOT
BRANCH   1   2
ATOM      2  N   UNL     1     128.738 -17.461 163.944  1.00  0.00    -0.195 NA
ATOM      3  H   UNL     1     128.410 -17.482 164.916  1.00  0.00     0.142 HD
BRANCH   2   4
ATOM      4  S   UNL     1     129.070 -15.855 163.521  1.00  0.00     0.241 S 
ATOM      5  O   UNL     1     128.435 -15.023 164.515  1.00  0.00    -0.207 OA
ATOM      6  O   UNL     1     128.758 -15.709 162.116  1.00  0.00    -0.207 OA
BRANCH   4   7
ATOM      7  C   UNL     1     130.850 -15.757 163.735  1.00  0.00     0.087 A 
ATOM      8  C   UNL     1     131.513 -15.993 164.978  1.00  0.00    -0.004 A 
ATOM      9  C   UNL     1     132.921 -15.766 165.029  1.00  0.00     0.048 A 
ATOM     10  C   UNL     1     133.588 -15.343 163.860  1.00  0.00     0.027 A 
ATOM     11  C   UNL     1     131.557 -15.351 162.592  1.00  0.00     0.022 A 
ATOM     12  C   UNL     1     132.924 -15.146 162.655  1.00  0.00     0.004 A 
BRANCH   8  13
ATOM     13  C   UNL     1     130.712 -16.343 166.218  1.00  0.00     0.036 C 
ATOM     14  C   UNL     1     130.847 -17.811 166.605  1.00  0.00     0.009 C 
ENDBRANCH   8  13
BRANCH   9  15
ATOM     15  N   UNL     1     133.736 -15.943 166.188  1.00  0.00    -0.310 N 
ATOM     16  C   UNL     1     133.823 -15.015 167.288  1.00  0.00     0.129 C 
ATOM     17  C   UNL     1     134.470 -17.108 166.485  1.00  0.00     0.255 C 
ATOM     18  C   UNL     1     134.172 -15.881 168.482  1.00  0.00     0.064 C 
ATOM     19  C   UNL     1     135.090 -16.923 167.871  1.00  0.00     0.205 C 
ATOM     20  O   UNL     1     134.651 -18.107 165.802  1.00  0.00    -0.271 OA
BRANCH  19  21
ATOM     21  O   UNL     1     135.134 -18.087 168.667  1.00  0.00    -0.383 OA
ATOM     22  H   UNL     1     135.796 -17.911 169.364  1.00  0.00     0.211 HD
ENDBRANCH  19  21
ENDBRANCH   9  15
ENDBRANCH   4   7
ENDBRANCH   2   4
ENDBRANCH   1   2
BRANCH   1  23
ATOM     23  C   UNL     1     128.205 -19.709 163.060  1.00  0.00     0.148 C 
BRANCH  23  24
ATOM     24  N   UNL     1     128.451 -20.151 164.422  1.00  0.00    -0.349 N 
ATOM     25  C   UNL     1     128.418 -21.479 164.786  1.00  0.00     0.261 C 
ATOM     26  O   UNL     1     128.243 -22.364 163.951  1.00  0.00    -0.268 OA
ATOM     27  H   UNL     1     128.541 -19.446 165.147  1.00  0.00     0.163 HD
BRANCH  25  28
ATOM     28  C   UNL     1     128.592 -21.756 166.205  1.00  0.00     0.093 A 
ATOM     29  C   UNL     1     129.744 -21.570 166.953  1.00  0.00     0.027 A 
ATOM     30  S   UNL     1     127.323 -22.380 167.179  1.00  0.00    -0.118 S 
ATOM     31  C   UNL     1     129.576 -21.937 168.322  1.00  0.00     0.033 A 
ATOM     32  C   UNL     1     128.303 -22.385 168.555  1.00  0.00     0.094 A 
ATOM     33  Cl  UNL     1     127.659 -22.922 170.052  1.00  0.00    -0.072 Cl
ENDBRANCH  25  28
ENDBRANCH  23  24
ENDBRANCH   1  23
BRANCH   1  34
ATOM     34  C   UNL     1     126.397 -18.070 163.369  1.00  0.00     0.326 C 
ATOM     35  O   UNL     1     125.831 -18.784 164.190  1.00  0.00    -0.250 OA
BRANCH  34  36
ATOM     36  O   UNL     1     125.816 -17.061 162.666  1.00  0.00    -0.464 OA
BRANCH  36  37
ATOM     37  C   UNL     1     125.087 -16.102 163.456  1.00  0.00     0.241 C 
BRANCH  37  38
ATOM     38  C   UNL     1     125.470 -14.679 163.053  1.00  0.00     0.117 C 
BRANCH  38  39
ATOM     39  C   UNL     1     125.204 -13.721 164.160  1.00  0.00     0.111 A 
ATOM     40  N   UNL     1     124.361 -13.917 165.154  1.00  0.00    -0.242 NA
ATOM     41  N   UNL     1     125.831 -12.502 164.293  1.00  0.00    -0.338 N 
ATOM     42  C   UNL     1     124.438 -12.796 165.938  1.00  0.00     0.131 A 
ATOM     43  C   UNL     1     125.346 -11.905 165.422  1.00  0.00     0.107 A 
ATOM     44  C   UNL     1     126.833 -11.951 163.412  1.00  0.00     0.151 C 
ENDBRANCH  38  39
ENDBRANCH  37  38
ENDBRANCH  36  37
ENDBRANCH  34  36
ENDBRANCH   1  34
TORSDOF 14
ENDMDL
MODEL 7
REMARK VINA RESULT:    -8.505      2.365      3.636
REMARK INTER + INTRA:         -17.164
REMARK INTER:                 -15.374
REMARK INTRA:                  -1.790
REMARK UNBOUND:                -1.947
REMARK SMILES CCc1c(N2CC[C@@H](O)C2=O)cccc1S(=O)(=O)N[C@@H](CNC(=O)c1ccc(Cl)s1)C(=O)OCCc1nccn1C
REMARK SMILES IDX 20 1 19 2 16 4 17 5 18 6 15 7 3 8 4 9 12 10 14 11 13 12 2 13
REMARK SMILES IDX 1 14 5 15 6 16 10 17 7 18 8 19 11 20 9 21 21 23 22 24 23 25
REMARK SMILES IDX 24 26 25 28 26 29 30 30 27 31 28 32 29 33 31 34 32 35 33 36
REMARK SMILES IDX 34 37 35 38 36 39 37 40 40 41 38 42 39 43 41 44
REMARK H PARENT 19 3 9 22 22 27
ROOT
ATOM      1  C   UNL     1     127.318 -18.515 163.121  1.00  0.00     0.198 C 
ENDROOT
BRANCH   1   2
ATOM      2  N   UNL     1     128.187 -18.410 164.341  1.00  0.00    -0.195 NA
ATOM      3  H   UNL     1     129.005 -17.804 164.218  1.00  0.00     0.142 HD
BRANCH   2   4
ATOM      4  S   UNL     1     128.699 -19.880 165.008  1.00  0.00     0.241 S 
ATOM      5  O   UNL     1     129.269 -20.651 163.928  1.00  0.00    -0.207 OA
ATOM      6  O   UNL     1     127.603 -20.399 165.796  1.00  0.00    -0.207 OA
BRANCH   4   7
ATOM      7  C   UNL     1     130.018 -19.368 166.113  1.00  0.00     0.087 A 
ATOM      8  C   UNL     1     130.866 -18.245 165.868  1.00  0.00    -0.004 A 
ATOM      9  C   UNL     1     131.947 -18.023 166.773  1.00  0.00     0.048 A 
ATOM     10  C   UNL     1     132.114 -18.901 167.865  1.00  0.00     0.027 A 
ATOM     11  C   UNL     1     130.214 -20.206 167.222  1.00  0.00     0.022 A 
ATOM     12  C   UNL     1     131.259 -19.971 168.098  1.00  0.00     0.004 A 
BRANCH   8  13
ATOM     13  C   UNL     1     130.687 -17.410 164.614  1.00  0.00     0.036 C 
ATOM     14  C   UNL     1     131.607 -17.852 163.482  1.00  0.00     0.009 C 
ENDBRANCH   8  13
BRANCH   9  15
ATOM     15  N   UNL     1     132.893 -16.958 166.672  1.00  0.00    -0.310 N 
ATOM     16  C   UNL     1     132.747 -15.662 167.284  1.00  0.00     0.129 C 
ATOM     17  C   UNL     1     134.163 -17.065 166.070  1.00  0.00     0.255 C 
ATOM     18  C   UNL     1     134.170 -15.193 167.512  1.00  0.00     0.064 C 
ATOM     19  C   UNL     1     134.892 -15.739 166.295  1.00  0.00     0.205 C 
ATOM     20  O   UNL     1     134.649 -17.995 165.442  1.00  0.00    -0.271 OA
BRANCH  19  21
ATOM     21  O   UNL     1     136.277 -15.853 166.537  1.00  0.00    -0.383 OA
ATOM     22  H   UNL     1     136.401 -15.664 167.488  1.00  0.00     0.211 HD
ENDBRANCH  19  21
ENDBRANCH   9  15
ENDBRANCH   4   7
ENDBRANCH   2   4
ENDBRANCH   1   2
BRANCH   1  23
ATOM     23  C   UNL     1     125.921 -17.981 163.448  1.00  0.00     0.148 C 
BRANCH  23  24
ATOM     24  N   UNL     1     125.960 -16.624 163.966  1.00  0.00    -0.349 N 
ATOM     25  C   UNL     1     125.347 -15.570 163.324  1.00  0.00     0.261 C 
ATOM     26  O   UNL     1     124.676 -15.746 162.310  1.00  0.00    -0.268 OA
ATOM     27  H   UNL     1     126.551 -16.433 164.768  1.00  0.00     0.163 HD
BRANCH  25  28
ATOM     28  C   UNL     1     125.553 -14.257 163.917  1.00  0.00     0.093 A 
ATOM     29  C   UNL     1     126.499 -13.315 163.544  1.00  0.00     0.027 A 
ATOM     30  S   UNL     1     124.599 -13.682 165.224  1.00  0.00    -0.118 S 
ATOM     31  C   UNL     1     126.430 -12.125 164.330  1.00  0.00     0.033 A 
ATOM     32  C   UNL     1     125.435 -12.215 165.266  1.00  0.00     0.094 A 
ATOM     33  Cl  UNL     1     124.994 -11.020 166.416  1.00  0.00    -0.072 Cl
ENDBRANCH  25  28
ENDBRANCH  23  24
ENDBRANCH   1  23
BRANCH   1  34
ATOM     34  C   UNL     1     127.876 -17.670 161.988  1.00  0.00     0.326 C 
ATOM     35  O   UNL     1     127.982 -18.067 160.832  1.00  0.00    -0.250 OA
BRANCH  34  36
ATOM     36  O   UNL     1     128.250 -16.443 162.440  1.00  0.00    -0.464 OA
BRANCH  36  37
ATOM     37  C   UNL     1     128.991 -15.642 161.501  1.00  0.00     0.241 C 
BRANCH  37  38
ATOM     38  C   UNL     1     128.038 -14.869 160.592  1.00  0.00     0.117 C 
BRANCH  38  39
ATOM     39  C   UNL     1     128.746 -14.358 159.386  1.00  0.00     0.111 A 
ATOM     40  N   UNL     1     129.531 -13.299 159.352  1.00  0.00    -0.242 NA
ATOM     41  N   UNL     1     128.683 -14.951 158.145  1.00  0.00    -0.338 N 
ATOM     42  C   UNL     1     129.972 -13.201 158.059  1.00  0.00     0.131 A 
ATOM     43  C   UNL     1     129.459 -14.218 157.292  1.00  0.00     0.107 A 
ATOM     44  C   UNL     1     127.944 -16.142 157.798  1.00  0.00     0.151 C 
ENDBRANCH  38  39
ENDBRANCH  37  38
ENDBRANCH  36  37
ENDBRANCH  34  36
ENDBRANCH   1  34
TORSDOF 14
ENDMDL
MODEL 8
REMARK VINA RESULT:    -8.462      3.340      4.865
REMARK INTER + INTRA:         -17.088
REMARK INTER:                 -15.336
REMARK INTRA:                  -1.751
REMARK UNBOUND:                -1.947
REMARK SMILES CCc1c(N2CC[C@@H](O)C2=O)cccc1S(=O)(=O)N[C@@H](CNC(=O)c1ccc(Cl)s1)C(=O)OCCc1nccn1C
REMARK SMILES IDX 20 1 19 2 16 4 17 5 18 6 15 7 3 8 4 9 12 10 14 11 13 12 2 13
REMARK SMILES IDX 1 14 5 15 6 16 10 17 7 18 8 19 11 20 9 21 21 23 22 24 23 25
REMARK SMILES IDX 24 26 25 28 26 29 30 30 27 31 28 32 29 33 31 34 32 35 33 36
REMARK SMILES IDX 34 37 35 38 36 39 37 40 40 41 38 42 39 43 41 44
REMARK H PARENT 19 3 9 22 22 27
ROOT
ATOM      1  C   UNL     1     127.763 -17.340 163.433  1.00  0.00     0.198 C 
ENDROOT
BRANCH   1   2
ATOM      2  N   UNL     1     128.510 -16.398 162.535  1.00  0.00    -0.195 NA
ATOM      3  H   UNL     1     129.311 -16.825 162.058  1.00  0.00     0.142 HD
BRANCH   2   4
ATOM      4  S   UNL     1     129.018 -14.949 163.250  1.00  0.00     0.241 S 
ATOM      5  O   UNL     1     128.453 -14.919 164.578  1.00  0.00    -0.207 OA
ATOM      6  O   UNL     1     128.753 -13.888 162.304  1.00  0.00    -0.207 OA
BRANCH   4   7
ATOM      7  C   UNL     1     130.793 -15.181 163.381  1.00  0.00     0.087 A 
ATOM      8  C   UNL     1     131.439 -15.731 164.531  1.00  0.00    -0.004 A 
ATOM      9  C   UNL     1     132.866 -15.749 164.542  1.00  0.00     0.048 A 
ATOM     10  C   UNL     1     133.564 -15.248 163.424  1.00  0.00     0.027 A 
ATOM     11  C   UNL     1     131.530 -14.707 162.284  1.00  0.00     0.022 A 
ATOM     12  C   UNL     1     132.913 -14.743 162.305  1.00  0.00     0.004 A 
BRANCH   8  13
ATOM     13  C   UNL     1     130.622 -16.151 165.738  1.00  0.00     0.036 C 
ATOM     14  C   UNL     1     130.559 -17.665 165.902  1.00  0.00     0.009 C 
ENDBRANCH   8  13
BRANCH   9  15
ATOM     15  N   UNL     1     133.668 -16.252 165.611  1.00  0.00    -0.310 N 
ATOM     16  C   UNL     1     134.034 -15.510 166.791  1.00  0.00     0.129 C 
ATOM     17  C   UNL     1     134.106 -17.586 165.729  1.00  0.00     0.255 C 
ATOM     18  C   UNL     1     134.218 -16.569 167.859  1.00  0.00     0.064 C 
ATOM     19  C   UNL     1     134.820 -17.720 167.075  1.00  0.00     0.205 C 
ATOM     20  O   UNL     1     134.002 -18.511 164.935  1.00  0.00    -0.271 OA
BRANCH  19  21
ATOM     21  O   UNL     1     134.616 -18.947 167.741  1.00  0.00    -0.383 OA
ATOM     22  H   UNL     1     133.648 -19.078 167.773  1.00  0.00     0.211 HD
ENDBRANCH  19  21
ENDBRANCH   9  15
ENDBRANCH   4   7
ENDBRANCH   2   4
ENDBRANCH   1   2
BRANCH   1  23
ATOM     23  C   UNL     1     126.260 -17.076 163.305  1.00  0.00     0.148 C 
BRANCH  23  24
ATOM     24  N   UNL     1     125.820 -15.985 164.157  1.00  0.00    -0.349 N 
ATOM     25  C   UNL     1     125.457 -14.755 163.654  1.00  0.00     0.261 C 
ATOM     26  O   UNL     1     125.424 -14.547 162.443  1.00  0.00    -0.268 OA
ATOM     27  H   UNL     1     125.890 -16.103 165.162  1.00  0.00     0.163 HD
BRANCH  25  28
ATOM     28  C   UNL     1     125.128 -13.736 164.640  1.00  0.00     0.093 A 
ATOM     29  C   UNL     1     124.225 -13.850 165.686  1.00  0.00     0.027 A 
ATOM     30  S   UNL     1     125.858 -12.182 164.629  1.00  0.00    -0.118 S 
ATOM     31  C   UNL     1     124.143 -12.663 166.474  1.00  0.00     0.033 A 
ATOM     32  C   UNL     1     124.987 -11.698 165.993  1.00  0.00     0.094 A 
ATOM     33  Cl  UNL     1     125.218 -10.122 166.632  1.00  0.00    -0.072 Cl
ENDBRANCH  25  28
ENDBRANCH  23  24
ENDBRANCH   1  23
BRANCH   1  34
ATOM     34  C   UNL     1     128.010 -18.783 163.025  1.00  0.00     0.326 C 
ATOM     35  O   UNL     1     128.616 -19.592 163.719  1.00  0.00    -0.250 OA
BRANCH  34  36
ATOM     36  O   UNL     1     127.485 -19.033 161.795  1.00  0.00    -0.464 OA
BRANCH  36  37
ATOM     37  C   UNL     1     128.204 -19.998 161.005  1.00  0.00     0.241 C 
BRANCH  37  38
ATOM     38  C   UNL     1     127.295 -21.169 160.637  1.00  0.00     0.117 C 
BRANCH  38  39
ATOM     39  C   UNL     1     126.376 -21.505 161.759  1.00  0.00     0.111 A 
ATOM     40  N   UNL     1     125.139 -21.067 161.890  1.00  0.00    -0.242 NA
ATOM     41  N   UNL     1     126.704 -22.341 162.801  1.00  0.00    -0.338 N 
ATOM     42  C   UNL     1     124.665 -21.624 163.048  1.00  0.00     0.131 A 
ATOM     43  C   UNL     1     125.620 -22.421 163.630  1.00  0.00     0.107 A 
ATOM     44  C   UNL     1     127.959 -23.029 162.989  1.00  0.00     0.151 C 
ENDBRANCH  38  39
ENDBRANCH  37  38
ENDBRANCH  36  37
ENDBRANCH  34  36
ENDBRANCH   1  34
TORSDOF 14
ENDMDL
MODEL 9
REMARK VINA RESULT:    -8.346      3.345      4.568
REMARK INTER + INTRA:         -16.879
REMARK INTER:                 -14.680
REMARK INTRA:                  -2.199
REMARK UNBOUND:                -1.947
REMARK SMILES CCc1c(N2CC[C@@H](O)C2=O)cccc1S(=O)(=O)N[C@@H](CNC(=O)c1ccc(Cl)s1)C(=O)OCCc1nccn1C
REMARK SMILES IDX 20 1 19 2 16 4 17 5 18 6 15 7 3 8 4 9 12 10 14 11 13 12 2 13
REMARK SMILES IDX 1 14 5 15 6 16 10 17 7 18 8 19 11 20 9 21 21 23 22 24 23 25
REMARK SMILES IDX 24 26 25 28 26 29 30 30 27 31 28 32 29 33 31 34 32 35 33 36
REMARK SMILES IDX 34 37 35 38 36 39 37 40 40 41 38 42 39 43 41 44
REMARK H PARENT 19 3 9 22 22 27
ROOT
ATOM      1  C   UNL     1     127.535 -17.456 163.527  1.00  0.00     0.198 C 
ENDROOT
BRANCH   1   2
ATOM      2  N   UNL     1     128.566 -16.758 162.688  1.00  0.00    -0.195 NA
ATOM      3  H   UNL     1     129.417 -17.309 162.530  1.00  0.00     0.142 HD
BRANCH   2   4
ATOM      4  S   UNL     1     129.013 -15.210 163.210  1.00  0.00     0.241 S 
ATOM      5  O   UNL     1     128.461 -15.042 164.534  1.00  0.00    -0.207 OA
ATOM      6  O   UNL     1     128.690 -14.287 162.145  1.00  0.00    -0.207 OA
BRANCH   4   7
ATOM      7  C   UNL     1     130.799 -15.345 163.340  1.00  0.00     0.087 A 
ATOM      8  C   UNL     1     131.474 -15.853 164.493  1.00  0.00    -0.004 A 
ATOM      9  C   UNL     1     132.900 -15.794 164.503  1.00  0.00     0.048 A 
ATOM     10  C   UNL     1     133.569 -15.262 163.381  1.00  0.00     0.027 A 
ATOM     11  C   UNL     1     131.508 -14.838 162.240  1.00  0.00     0.022 A 
ATOM     12  C   UNL     1     132.891 -14.799 162.259  1.00  0.00     0.004 A 
BRANCH   8  13
ATOM     13  C   UNL     1     130.682 -16.311 165.703  1.00  0.00     0.036 C 
ATOM     14  C   UNL     1     130.483 -17.821 165.734  1.00  0.00     0.009 C 
ENDBRANCH   8  13
BRANCH   9  15
ATOM     15  N   UNL     1     133.729 -16.247 165.573  1.00  0.00    -0.310 N 
ATOM     16  C   UNL     1     134.116 -15.454 166.712  1.00  0.00     0.129 C 
ATOM     17  C   UNL     1     134.180 -17.572 165.736  1.00  0.00     0.255 C 
ATOM     18  C   UNL     1     134.331 -16.467 167.819  1.00  0.00     0.064 C 
ATOM     19  C   UNL     1     134.924 -17.646 167.071  1.00  0.00     0.205 C 
ATOM     20  O   UNL     1     134.065 -18.530 164.983  1.00  0.00    -0.271 OA
BRANCH  19  21
ATOM     21  O   UNL     1     134.744 -18.845 167.790  1.00  0.00    -0.383 OA
ATOM     22  H   UNL     1     134.229 -18.607 168.587  1.00  0.00     0.211 HD
ENDBRANCH  19  21
ENDBRANCH   9  15
ENDBRANCH   4   7
ENDBRANCH   2   4
ENDBRANCH   1   2
BRANCH   1  23
ATOM     23  C   UNL     1     126.145 -16.925 163.166  1.00  0.00     0.148 C 
BRANCH  23  24
ATOM     24  N   UNL     1     125.706 -15.877 164.071  1.00  0.00    -0.349 N 
ATOM     25  C   UNL     1     125.414 -14.602 163.640  1.00  0.00     0.261 C 
ATOM     26  O   UNL     1     125.448 -14.310 162.447  1.00  0.00    -0.268 OA
ATOM     27  H   UNL     1     125.723 -16.066 165.068  1.00  0.00     0.163 HD
BRANCH  25  28
ATOM     28  C   UNL     1     125.077 -13.640 164.679  1.00  0.00     0.093 A 
ATOM     29  C   UNL     1     124.204 -13.831 165.739  1.00  0.00     0.027 A 
ATOM     30  S   UNL     1     125.756 -12.063 164.722  1.00  0.00    -0.118 S 
ATOM     31  C   UNL     1     124.104 -12.684 166.583  1.00  0.00     0.033 A 
ATOM     32  C   UNL     1     124.903 -11.670 166.127  1.00  0.00     0.094 A 
ATOM     33  Cl  UNL     1     125.098 -10.118 166.831  1.00  0.00    -0.072 Cl
ENDBRANCH  25  28
ENDBRANCH  23  24
ENDBRANCH   1  23
BRANCH   1  34
ATOM     34  C   UNL     1     127.538 -18.950 163.251  1.00  0.00     0.326 C 
ATOM     35  O   UNL     1     127.817 -19.797 164.094  1.00  0.00    -0.250 OA
BRANCH  34  36
ATOM     36  O   UNL     1     127.212 -19.203 161.955  1.00  0.00    -0.464 OA
BRANCH  36  37
ATOM     37  C   UNL     1     127.614 -20.494 161.461  1.00  0.00     0.241 C 
BRANCH  37  38
ATOM     38  C   UNL     1     128.803 -20.353 160.511  1.00  0.00     0.117 C 
BRANCH  38  39
ATOM     39  C   UNL     1     129.971 -21.137 160.998  1.00  0.00     0.111 A 
ATOM     40  N   UNL     1     130.326 -21.273 162.260  1.00  0.00    -0.242 NA
ATOM     41  N   UNL     1     130.823 -21.842 160.178  1.00  0.00    -0.338 N 
ATOM     42  C   UNL     1     131.439 -22.074 162.252  1.00  0.00     0.131 A 
ATOM     43  C   UNL     1     131.763 -22.440 160.969  1.00  0.00     0.107 A 
ATOM     44  C   UNL     1     130.739 -21.950 158.741  1.00  0.00     0.151 C 
ENDBRANCH  38  39
ENDBRANCH  37  38
ENDBRANCH  36  37
ENDBRANCH  34  36
ENDBRANCH   1  34
TORSDOF 14
ENDMDL
