MODEL 8
REMARK VINA RESULT:    -6.673      7.361      8.621
REMARK INTER + INTRA:          -8.151
REMARK INTER:                  -7.638
REMARK INTRA:                  -0.513
REMARK UNBOUND:                -0.503
REMARK SMILES Cc1ccc(O)c(-c2cc3cc(C(=N)N)ccc3[nH]2)c1
REMARK SMILES IDX 8 1 9 2 10 3 11 4 12 5 16 6 17 7 18 8 19 9 7 11 2 12 3 13
REMARK SMILES IDX 20 14 4 15 5 16 1 17 6 18 13 20 14 21 15 22
REMARK H PARENT 19 10 6 19 14 23 15 24 15 25
ROOT
ATOM      1  C   UNL     1     131.153 -17.319 165.262  1.00  0.00     0.050 A 
ATOM      2  C   UNL     1     132.209 -17.747 166.048  1.00  0.00     0.037 A 
ATOM      3  C   UNL     1     131.786 -18.875 166.802  1.00  0.00     0.001 A 
ATOM      4  C   UNL     1     132.414 -19.714 167.743  1.00  0.00     0.022 A 
ATOM      5  C   UNL     1     131.681 -20.767 168.309  1.00  0.00     0.017 A 
ATOM      6  C   UNL     1     130.350 -20.991 167.945  1.00  0.00     0.014 A 
ATOM      7  C   UNL     1     129.710 -20.163 167.015  1.00  0.00     0.027 A 
ATOM      8  C   UNL     1     130.458 -19.117 166.462  1.00  0.00     0.046 A 
ATOM      9  N   UNL     1     130.097 -18.158 165.544  1.00  0.00    -0.354 N 
ATOM     10  H   UNL     1     129.176 -18.068 165.143  1.00  0.00     0.167 HD
ENDROOT
BRANCH   1  11
ATOM     11  C   UNL     1     131.054 -16.207 164.309  1.00  0.00     0.040 A 
ATOM     12  C   UNL     1     132.105 -14.838 162.572  1.00  0.00    -0.050 A 
ATOM     13  C   UNL     1     130.935 -14.081 162.467  1.00  0.00     0.007 A 
ATOM     14  C   UNL     1     132.159 -15.888 163.502  1.00  0.00     0.017 A 
ATOM     15  C   UNL     1     129.828 -14.380 163.262  1.00  0.00     0.047 A 
ATOM     16  C   UNL     1     129.889 -15.436 164.175  1.00  0.00     0.124 A 
ATOM     17  C   UNL     1     133.312 -14.490 161.751  1.00  0.00     0.044 C 
BRANCH  16  18
ATOM     18  O   UNL     1     128.785 -15.721 164.935  1.00  0.00    -0.507 OA
ATOM     19  H   UNL     1     127.990 -15.632 164.388  1.00  0.00     0.293 HD
ENDBRANCH  16  18
ENDBRANCH   1  11
BRANCH   5  20
ATOM     20  C   UNL     1     132.325 -21.672 169.296  1.00  0.00     0.122 C 
ATOM     21  N   UNL     1     133.075 -22.670 168.948  1.00  0.00    -0.284 NA
ATOM     22  N   UNL     1     132.132 -21.479 170.631  1.00  0.00    -0.384 N 
ATOM     23  H   UNL     1     133.194 -22.700 167.930  1.00  0.00     0.189 HD
ATOM     24  H   UNL     1     132.440 -22.292 171.157  1.00  0.00     0.158 HD
ATOM     25  H   UNL     1     131.202 -21.177 170.897  1.00  0.00     0.158 HD
ENDBRANCH   5  20
TORSDOF 3
ENDMDL
