REMARK SMILES O=C(CCCCCCOc1ccc2ncnc(Nc3ccc(F)c(Cl)c3)c2c1)NO
REMARK SMILES IDX 6 1 5 2 4 3 3 4 2 5 1 6 29 7 30 9 7 11 8 12 9 13 10 14 11 15
REMARK SMILES IDX 28 16 12 17 27 18 13 19 17 20 14 21 16 22 15 23 18 24 19 26
REMARK SMILES IDX 20 27 26 28 21 29 24 30 22 31 25 32 23 33
REMARK H PARENT 29 8 30 10 18 25
REMARK INDEX MAP 6 1 5 2 4 3 3 4 2 5 1 6 29 7 51 8 30 9 52 10 7 11 8 12 9 13
REMARK INDEX MAP 10 14 11 15 28 16 12 17 27 18 13 19 17 20 14 21 16 22 15 23
REMARK INDEX MAP 18 24 46 25 19 26 20 27 26 28 21 29 24 30 22 31 25 32 23 33
ROOT
ATOM      1  C   UNL     1      17.458   6.329  24.567  1.00  0.00     0.004 C 
ENDROOT
BRANCH   1   2
ATOM      2  C   UNL     1      18.750   6.671  23.823  1.00  0.00     0.001 C 
BRANCH   2   3
ATOM      3  C   UNL     1      19.583   5.416  23.549  1.00  0.00     0.010 C 
BRANCH   3   4
ATOM      4  C   UNL     1      19.813   5.184  22.056  1.00  0.00     0.102 C 
BRANCH   4   5
ATOM      5  C   UNL     1      19.146   3.930  21.530  1.00  0.00     0.243 C 
ATOM      6  O   UNL     1      18.460   3.166  22.206  1.00  0.00    -0.273 OA
ATOM      7  N   UNL     1      19.393   3.696  20.202  1.00  0.00    -0.238 N 
ATOM      8  H   UNL     1      19.974   4.335  19.640  1.00  0.00     0.198 HD
BRANCH   7   9
ATOM      9  O   UNL     1      18.813   2.537  19.642  1.00  0.00    -0.289 OA
ATOM     10  H   UNL     1      18.512   1.935  20.368  1.00  0.00     0.246 HD
ENDBRANCH   7   9
ENDBRANCH   4   5
ENDBRANCH   3   4
ENDBRANCH   2   3
ENDBRANCH   1   2
BRANCH   1  11
ATOM     11  C   UNL     1      16.406   5.759  23.619  1.00  0.00     0.042 C 
BRANCH  11  12
ATOM     12  C   UNL     1      15.547   4.698  24.302  1.00  0.00     0.229 C 
BRANCH  12  13
ATOM     13  O   UNL     1      16.116   4.436  25.586  1.00  0.00    -0.494 OA
BRANCH  13  14
ATOM     14  C   UNL     1      16.398   3.135  25.889  1.00  0.00     0.120 A 
ATOM     15  C   UNL     1      17.494   2.406  25.450  1.00  0.00     0.048 A 
ATOM     16  C   UNL     1      15.468   2.513  26.724  1.00  0.00     0.060 A 
ATOM     17  C   UNL     1      17.653   1.076  25.854  1.00  0.00     0.033 A 
ATOM     18  C   UNL     1      15.618   1.159  27.124  1.00  0.00     0.047 A 
ATOM     19  C   UNL     1      16.739   0.441  26.686  1.00  0.00     0.076 A 
ATOM     20  C   UNL     1      14.728   0.448  27.956  1.00  0.00     0.141 A 
ATOM     21  N   UNL     1      16.969  -0.827  27.033  1.00  0.00    -0.236 NA
ATOM     22  N   UNL     1      14.968  -0.824  28.327  1.00  0.00    -0.219 NA
ATOM     23  C   UNL     1      16.073  -1.398  27.843  1.00  0.00     0.224 A 
BRANCH  20  24
ATOM     24  N   UNL     1      13.553   1.082  28.419  1.00  0.00    -0.340 N 
ATOM     25  H   UNL     1      13.043   1.618  27.702  1.00  0.00     0.168 HD
BRANCH  24  26
ATOM     26  C   UNL     1      12.964   1.103  29.696  1.00  0.00     0.041 A 
ATOM     27  C   UNL     1      13.555   1.736  30.799  1.00  0.00     0.029 A 
ATOM     28  C   UNL     1      11.704   0.507  29.873  1.00  0.00     0.049 A 
ATOM     29  C   UNL     1      12.925   1.753  32.048  1.00  0.00     0.043 A 
ATOM     30  C   UNL     1      11.073   0.523  31.120  1.00  0.00     0.078 A 
ATOM     31  C   UNL     1      11.687   1.145  32.201  1.00  0.00     0.141 A 
ATOM     32  Cl  UNL     1       9.532  -0.227  31.296  1.00  0.00    -0.081 Cl
ATOM     33  F   UNL     1      11.097   1.173  33.406  1.00  0.00    -0.205 F 
ENDBRANCH  24  26
ENDBRANCH  20  24
ENDBRANCH  13  14
ENDBRANCH  12  13
ENDBRANCH  11  12
ENDBRANCH   1  11
TORSDOF 11
