MODEL 8
REMARK VINA RESULT:   -10.051      2.733      3.766
REMARK INTER + INTRA:         -14.835
REMARK INTER:                 -13.030
REMARK INTRA:                  -1.805
REMARK UNBOUND:                -0.671
REMARK SMILES CN1CCN(C(=O)Cn2cc(Nc3nc4c(N5C[C@H]6CC[C@@H](C5)N6C(=O)[C@@H]5CCC(F)(F)C5)cccn4n3)cn2)CC1
REMARK SMILES IDX 13 1 14 2 15 3 16 4 34 5 35 6 36 7 37 8 38 9 12 10 11 12
REMARK SMILES IDX 9 13 10 14 40 15 39 16 8 17 6 18 2 19 3 20 42 21 4 22 41 23
REMARK SMILES IDX 5 24 7 25 1 26 17 27 23 28 18 29 22 30 19 31 21 32 24 33
REMARK SMILES IDX 20 34 25 35 26 36 27 37 28 38 33 39 29 40 30 41 31 42 32 43
REMARK H PARENT 12 11
ROOT
ATOM      1  C   UNL     1       8.802 -25.988  24.637  1.00  0.00     0.247 A 
ATOM      2  N   UNL     1       8.178 -25.112  23.797  1.00  0.00    -0.190 NA
ATOM      3  C   UNL     1       7.100 -25.762  23.402  1.00  0.00     0.180 A 
ATOM      4  C   UNL     1       6.017 -25.411  22.498  1.00  0.00     0.082 A 
ATOM      5  C   UNL     1       5.068 -26.364  22.306  1.00  0.00     0.031 A 
ATOM      6  C   UNL     1       5.092 -27.674  22.933  1.00  0.00     0.022 A 
ATOM      7  C   UNL     1       6.097 -27.968  23.766  1.00  0.00     0.115 A 
ATOM      8  N   UNL     1       7.091 -27.023  24.000  1.00  0.00    -0.217 N 
ATOM      9  N   UNL     1       8.168 -27.147  24.803  1.00  0.00    -0.127 NA
ENDROOT
BRANCH   1  10
ATOM     10  N   UNL     1       9.962 -25.561  25.175  1.00  0.00    -0.320 N 
ATOM     11  H   UNL     1      10.430 -24.880  24.589  1.00  0.00     0.170 HD
BRANCH  10  12
ATOM     12  C   UNL     1      10.563 -25.927  26.329  1.00  0.00     0.079 A 
ATOM     13  N   UNL     1      11.927 -26.673  27.877  1.00  0.00    -0.261 N 
ATOM     14  C   UNL     1      11.789 -26.509  26.526  1.00  0.00     0.135 A 
ATOM     15  N   UNL     1      10.836 -26.280  28.574  1.00  0.00    -0.179 NA
ATOM     16  C   UNL     1      10.024 -25.798  27.628  1.00  0.00     0.161 A 
BRANCH  13  17
ATOM     17  C   UNL     1      12.986 -27.402  28.557  1.00  0.00     0.244 C 
BRANCH  17  18
ATOM     18  C   UNL     1      12.875 -28.909  28.433  1.00  0.00     0.244 C 
ATOM     19  N   UNL     1      15.869 -31.024  26.075  1.00  0.00    -0.303 NA
ATOM     20  C   UNL     1      16.036 -29.598  26.411  1.00  0.00     0.105 C 
ATOM     21  C   UNL     1      15.062 -31.681  27.124  1.00  0.00     0.105 C 
ATOM     22  C   UNL     1      14.729 -28.841  26.722  1.00  0.00     0.135 C 
ATOM     23  C   UNL     1      13.729 -30.986  27.456  1.00  0.00     0.135 C 
ATOM     24  N   UNL     1      13.879 -29.545  27.689  1.00  0.00    -0.339 N 
ATOM     25  O   UNL     1      11.975 -29.557  28.967  1.00  0.00    -0.273 OA
ATOM     26  C   UNL     1      15.288 -31.210  24.747  1.00  0.00     0.105 C 
ENDBRANCH  17  18
ENDBRANCH  13  17
ENDBRANCH  10  12
ENDBRANCH   1  10
BRANCH   4  27
ATOM     27  N   UNL     1       5.931 -24.140  21.876  1.00  0.00    -0.364 N 
ATOM     28  C   UNL     1       5.562 -22.932  22.681  1.00  0.00     0.141 C 
ATOM     29  C   UNL     1       6.771 -23.823  20.675  1.00  0.00     0.141 C 
ATOM     30  C   UNL     1       5.176 -21.715  21.786  1.00  0.00     0.105 C 
ATOM     31  C   UNL     1       6.267 -22.551  19.942  1.00  0.00     0.105 C 
ATOM     32  C   UNL     1       4.047 -22.101  20.820  1.00  0.00     0.029 C 
ATOM     33  N   UNL     1       6.270 -21.425  20.869  1.00  0.00    -0.333 N 
ATOM     34  C   UNL     1       4.776 -22.675  19.592  1.00  0.00     0.029 C 
BRANCH  33  35
ATOM     35  C   UNL     1       7.417 -20.709  21.090  1.00  0.00     0.226 C 
ATOM     36  O   UNL     1       8.067 -20.255  20.143  1.00  0.00    -0.275 OA
BRANCH  35  37
ATOM     37  C   UNL     1       7.873 -20.390  22.509  1.00  0.00     0.085 C 
ATOM     38  C   UNL     1       8.418 -18.986  22.763  1.00  0.00     0.020 C 
ATOM     39  C   UNL     1       8.899 -21.370  23.104  1.00  0.00     0.090 C 
ATOM     40  C   UNL     1       9.251 -19.157  24.025  1.00  0.00     0.078 C 
ATOM     41  C   UNL     1       9.932 -20.485  23.780  1.00  0.00     0.248 C 
ATOM     42  F   UNL     1      10.991 -20.304  22.955  1.00  0.00    -0.207 F 
ATOM     43  F   UNL     1      10.399 -21.033  24.917  1.00  0.00    -0.207 F 
ENDBRANCH  35  37
ENDBRANCH  33  35
ENDBRANCH   4  27
TORSDOF 7
ENDMDL
