MODEL 1
REMARK VINA RESULT:   -10.507      0.000      0.000
REMARK INTER + INTRA:         -15.770
REMARK INTER:                 -14.500
REMARK INTRA:                  -1.270
REMARK UNBOUND:                -1.270
REMARK SMILES COc1ccc2c(ccn2S(=O)(=O)c2cccc(C(=O)Nc3ccc(Cl)cc3C(=O)O)c2)c1
REMARK SMILES IDX 14 1 15 2 16 3 17 4 18 5 32 6 11 7 12 8 13 9 10 10 3 11 4 12
REMARK SMILES IDX 33 13 5 14 7 15 6 16 8 17 9 18 2 19 1 20 19 21 20 22 21 23
REMARK SMILES IDX 22 25 23 26 28 27 24 28 27 29 25 30 26 31 29 32 30 33 31 34
REMARK H PARENT 21 24 31 35
ROOT
ATOM      1  C   UNL     1      44.390 -39.349 107.291  1.00  0.00     0.089 A 
ATOM      2  C   UNL     1      43.637 -38.238 107.682  1.00  0.00     0.022 A 
ATOM      3  C   UNL     1      42.639 -37.755 106.838  1.00  0.00     0.002 A 
ATOM      4  C   UNL     1      42.402 -38.367 105.603  1.00  0.00     0.014 A 
ATOM      5  C   UNL     1      43.180 -39.464 105.199  1.00  0.00     0.041 A 
ATOM      6  C   UNL     1      44.173 -39.960 106.053  1.00  0.00     0.036 A 
ENDROOT
BRANCH   1   7
ATOM      7  S   UNL     1      45.650 -39.981 108.365  1.00  0.00     0.268 S 
ATOM      8  O   UNL     1      45.529 -39.299 109.639  1.00  0.00    -0.201 OA
ATOM      9  O   UNL     1      45.673 -41.428 108.267  1.00  0.00    -0.201 OA
BRANCH   7  10
ATOM     10  N   UNL     1      47.104 -39.440 107.660  1.00  0.00    -0.241 N 
ATOM     11  C   UNL     1      49.193 -35.859 107.764  1.00  0.00     0.119 A 
ATOM     12  C   UNL     1      47.923 -35.846 108.336  1.00  0.00     0.048 A 
ATOM     13  C   UNL     1      49.688 -37.038 107.198  1.00  0.00     0.056 A 
ATOM     14  C   UNL     1      47.116 -36.988 108.364  1.00  0.00     0.032 A 
ATOM     15  C   UNL     1      48.896 -38.207 107.213  1.00  0.00     0.004 A 
ATOM     16  C   UNL     1      47.622 -38.167 107.795  1.00  0.00     0.064 A 
ATOM     17  C   UNL     1      49.115 -39.535 106.740  1.00  0.00     0.029 A 
ATOM     18  C   UNL     1      47.999 -40.279 107.046  1.00  0.00     0.105 A 
BRANCH  11  19
ATOM     19  O   UNL     1      49.853 -34.660 107.819  1.00  0.00    -0.497 OA
ATOM     20  C   UNL     1      49.136 -33.509 107.395  1.00  0.00     0.278 C 
ENDBRANCH  11  19
ENDBRANCH   7  10
ENDBRANCH   1   7
BRANCH   5  21
ATOM     21  C   UNL     1      42.968 -40.156 103.893  1.00  0.00     0.255 C 
ATOM     22  O   UNL     1      42.516 -41.294 103.915  1.00  0.00    -0.269 OA
ATOM     23  N   UNL     1      43.339 -39.437 102.774  1.00  0.00    -0.321 N 
ATOM     24  H   UNL     1      43.790 -38.536 102.930  1.00  0.00     0.170 HD
BRANCH  23  25
ATOM     25  C   UNL     1      43.220 -39.808 101.409  1.00  0.00     0.056 A 
ATOM     26  C   UNL     1      44.075 -40.744 100.814  1.00  0.00     0.028 A 
ATOM     27  C   UNL     1      42.203 -39.223 100.613  1.00  0.00     0.084 A 
ATOM     28  C   UNL     1      43.937 -41.092  99.466  1.00  0.00     0.023 A 
ATOM     29  C   UNL     1      42.072 -39.577  99.258  1.00  0.00     0.038 A 
ATOM     30  C   UNL     1      42.940 -40.507  98.696  1.00  0.00     0.042 A 
ATOM     31  Cl  UNL     1      42.775 -40.938  97.039  1.00  0.00    -0.084 Cl
BRANCH  27  32
ATOM     32  C   UNL     1      41.259 -38.234 101.204  1.00  0.00     0.337 C 
ATOM     33  O   UNL     1      40.512 -38.446 102.145  1.00  0.00    -0.246 OA
BRANCH  32  34
ATOM     34  O   UNL     1      41.294 -37.034 100.601  1.00  0.00    -0.478 OA
ATOM     35  H   UNL     1      41.058 -36.390 101.301  1.00  0.00     0.297 HD
ENDBRANCH  32  34
ENDBRANCH  27  32
ENDBRANCH  23  25
ENDBRANCH   5  21
TORSDOF 7
ENDMDL
MODEL 2
REMARK VINA RESULT:   -10.370      1.797      2.310
REMARK INTER + INTRA:         -15.580
REMARK INTER:                 -15.001
REMARK INTRA:                  -0.579
REMARK UNBOUND:                -1.270
REMARK SMILES COc1ccc2c(ccn2S(=O)(=O)c2cccc(C(=O)Nc3ccc(Cl)cc3C(=O)O)c2)c1
REMARK SMILES IDX 14 1 15 2 16 3 17 4 18 5 32 6 11 7 12 8 13 9 10 10 3 11 4 12
REMARK SMILES IDX 33 13 5 14 7 15 6 16 8 17 9 18 2 19 1 20 19 21 20 22 21 23
REMARK SMILES IDX 22 25 23 26 28 27 24 28 27 29 25 30 26 31 29 32 30 33 31 34
REMARK H PARENT 21 24 31 35
ROOT
ATOM      1  C   UNL     1      45.297 -41.438 107.539  1.00  0.00     0.089 A 
ATOM      2  C   UNL     1      44.934 -42.658 108.116  1.00  0.00     0.022 A 
ATOM      3  C   UNL     1      44.634 -43.743 107.295  1.00  0.00     0.002 A 
ATOM      4  C   UNL     1      44.682 -43.608 105.903  1.00  0.00     0.014 A 
ATOM      5  C   UNL     1      45.017 -42.374 105.326  1.00  0.00     0.041 A 
ATOM      6  C   UNL     1      45.333 -41.287 106.150  1.00  0.00     0.036 A 
ENDROOT
BRANCH   1   7
ATOM      7  S   UNL     1      45.696 -40.057 108.575  1.00  0.00     0.268 S 
ATOM      8  O   UNL     1      44.789 -38.976 108.241  1.00  0.00    -0.201 OA
ATOM      9  O   UNL     1      45.869 -40.521 109.938  1.00  0.00    -0.201 OA
BRANCH   7  10
ATOM     10  N   UNL     1      47.242 -39.575 108.044  1.00  0.00    -0.241 N 
ATOM     11  C   UNL     1      49.233 -35.940 107.907  1.00  0.00     0.119 A 
ATOM     12  C   UNL     1      47.884 -35.889 108.249  1.00  0.00     0.048 A 
ATOM     13  C   UNL     1      49.834 -37.173 107.632  1.00  0.00     0.056 A 
ATOM     14  C   UNL     1      47.099 -37.044 108.329  1.00  0.00     0.032 A 
ATOM     15  C   UNL     1      49.067 -38.357 107.706  1.00  0.00     0.004 A 
ATOM     16  C   UNL     1      47.712 -38.277 108.053  1.00  0.00     0.064 A 
ATOM     17  C   UNL     1      49.382 -39.732 107.500  1.00  0.00     0.029 A 
ATOM     18  C   UNL     1      48.240 -40.463 107.734  1.00  0.00     0.105 A 
BRANCH  11  19
ATOM     19  O   UNL     1      49.858 -34.722 107.874  1.00  0.00    -0.497 OA
ATOM     20  C   UNL     1      49.133 -33.640 107.305  1.00  0.00     0.278 C 
ENDBRANCH  11  19
ENDBRANCH   7  10
ENDBRANCH   1   7
BRANCH   5  21
ATOM     21  C   UNL     1      45.085 -42.177 103.847  1.00  0.00     0.255 C 
ATOM     22  O   UNL     1      46.097 -42.550 103.266  1.00  0.00    -0.269 OA
ATOM     23  N   UNL     1      43.991 -41.554 103.281  1.00  0.00    -0.321 N 
ATOM     24  H   UNL     1      43.268 -41.217 103.917  1.00  0.00     0.170 HD
BRANCH  23  25
ATOM     25  C   UNL     1      43.750 -41.270 101.912  1.00  0.00     0.056 A 
ATOM     26  C   UNL     1      44.295 -42.047 100.882  1.00  0.00     0.028 A 
ATOM     27  C   UNL     1      42.927 -40.170 101.561  1.00  0.00     0.084 A 
ATOM     28  C   UNL     1      44.044 -41.745  99.539  1.00  0.00     0.023 A 
ATOM     29  C   UNL     1      42.680 -39.872 100.209  1.00  0.00     0.038 A 
ATOM     30  C   UNL     1      43.241 -40.660  99.210  1.00  0.00     0.042 A 
ATOM     31  Cl  UNL     1      42.934 -40.294  97.558  1.00  0.00    -0.084 Cl
BRANCH  27  32
ATOM     32  C   UNL     1      42.311 -39.323 102.620  1.00  0.00     0.337 C 
ATOM     33  O   UNL     1      41.914 -39.723 103.702  1.00  0.00    -0.246 OA
BRANCH  32  34
ATOM     34  O   UNL     1      42.224 -38.025 102.284  1.00  0.00    -0.478 OA
ATOM     35  H   UNL     1      41.325 -37.920 101.907  1.00  0.00     0.297 HD
ENDBRANCH  32  34
ENDBRANCH  27  32
ENDBRANCH  23  25
ENDBRANCH   5  21
TORSDOF 7
ENDMDL
MODEL 3
REMARK VINA RESULT:   -10.127      3.875      6.011
REMARK INTER + INTRA:         -15.245
REMARK INTER:                 -14.955
REMARK INTRA:                  -0.291
REMARK UNBOUND:                -1.270
REMARK SMILES COc1ccc2c(ccn2S(=O)(=O)c2cccc(C(=O)Nc3ccc(Cl)cc3C(=O)O)c2)c1
REMARK SMILES IDX 14 1 15 2 16 3 17 4 18 5 32 6 11 7 12 8 13 9 10 10 3 11 4 12
REMARK SMILES IDX 33 13 5 14 7 15 6 16 8 17 9 18 2 19 1 20 19 21 20 22 21 23
REMARK SMILES IDX 22 25 23 26 28 27 24 28 27 29 25 30 26 31 29 32 30 33 31 34
REMARK H PARENT 21 24 31 35
ROOT
ATOM      1  C   UNL     1      44.018 -41.047 107.127  1.00  0.00     0.089 A 
ATOM      2  C   UNL     1      44.267 -42.234 107.821  1.00  0.00     0.022 A 
ATOM      3  C   UNL     1      44.698 -43.360 107.123  1.00  0.00     0.002 A 
ATOM      4  C   UNL     1      44.867 -43.307 105.735  1.00  0.00     0.014 A 
ATOM      5  C   UNL     1      44.587 -42.122 105.035  1.00  0.00     0.041 A 
ATOM      6  C   UNL     1      44.168 -40.986 105.738  1.00  0.00     0.036 A 
ENDROOT
BRANCH   1   7
ATOM      7  S   UNL     1      43.485 -39.605 108.008  1.00  0.00     0.268 S 
ATOM      8  O   UNL     1      43.530 -39.911 109.425  1.00  0.00    -0.201 OA
ATOM      9  O   UNL     1      44.145 -38.439 107.452  1.00  0.00    -0.201 OA
BRANCH   7  10
ATOM     10  N   UNL     1      41.839 -39.452 107.596  1.00  0.00    -0.241 N 
ATOM     11  C   UNL     1      38.462 -38.202 109.652  1.00  0.00     0.119 A 
ATOM     12  C   UNL     1      39.620 -38.359 110.411  1.00  0.00     0.048 A 
ATOM     13  C   UNL     1      38.490 -38.466 108.280  1.00  0.00     0.056 A 
ATOM     14  C   UNL     1      40.825 -38.778 109.838  1.00  0.00     0.032 A 
ATOM     15  C   UNL     1      39.693 -38.888 107.672  1.00  0.00     0.004 A 
ATOM     16  C   UNL     1      40.843 -39.039 108.458  1.00  0.00     0.064 A 
ATOM     17  C   UNL     1      40.040 -39.217 106.329  1.00  0.00     0.029 A 
ATOM     18  C   UNL     1      41.376 -39.544 106.308  1.00  0.00     0.105 A 
BRANCH  11  19
ATOM     19  O   UNL     1      37.368 -37.786 110.364  1.00  0.00    -0.497 OA
ATOM     20  C   UNL     1      36.357 -38.752 110.617  1.00  0.00     0.278 C 
ENDBRANCH  11  19
ENDBRANCH   7  10
ENDBRANCH   1   7
BRANCH   5  21
ATOM     21  C   UNL     1      44.752 -42.011 103.556  1.00  0.00     0.255 C 
ATOM     22  O   UNL     1      45.734 -42.539 103.048  1.00  0.00    -0.269 OA
ATOM     23  N   UNL     1      43.776 -41.285 102.903  1.00  0.00    -0.321 N 
ATOM     24  H   UNL     1      43.073 -40.827 103.483  1.00  0.00     0.170 HD
BRANCH  23  25
ATOM     25  C   UNL     1      43.640 -41.043 101.511  1.00  0.00     0.056 A 
ATOM     26  C   UNL     1      44.303 -41.820 100.552  1.00  0.00     0.028 A 
ATOM     27  C   UNL     1      42.806 -39.988 101.063  1.00  0.00     0.084 A 
ATOM     28  C   UNL     1      44.154 -41.560  99.185  1.00  0.00     0.023 A 
ATOM     29  C   UNL     1      42.663 -39.732  99.688  1.00  0.00     0.038 A 
ATOM     30  C   UNL     1      43.338 -40.518  98.761  1.00  0.00     0.042 A 
ATOM     31  Cl  UNL     1      43.158 -40.204  97.080  1.00  0.00    -0.084 Cl
BRANCH  27  32
ATOM     32  C   UNL     1      42.069 -39.144 102.044  1.00  0.00     0.337 C 
ATOM     33  O   UNL     1      41.574 -39.540 103.086  1.00  0.00    -0.246 OA
BRANCH  32  34
ATOM     34  O   UNL     1      41.987 -37.852 101.683  1.00  0.00    -0.478 OA
ATOM     35  H   UNL     1      41.044 -37.710 101.458  1.00  0.00     0.297 HD
ENDBRANCH  32  34
ENDBRANCH  27  32
ENDBRANCH  23  25
ENDBRANCH   5  21
TORSDOF 7
ENDMDL
MODEL 4
REMARK VINA RESULT:   -10.104      1.603      2.075
REMARK INTER + INTRA:         -15.214
REMARK INTER:                 -14.771
REMARK INTRA:                  -0.443
REMARK UNBOUND:                -1.270
REMARK SMILES COc1ccc2c(ccn2S(=O)(=O)c2cccc(C(=O)Nc3ccc(Cl)cc3C(=O)O)c2)c1
REMARK SMILES IDX 14 1 15 2 16 3 17 4 18 5 32 6 11 7 12 8 13 9 10 10 3 11 4 12
REMARK SMILES IDX 33 13 5 14 7 15 6 16 8 17 9 18 2 19 1 20 19 21 20 22 21 23
REMARK SMILES IDX 22 25 23 26 28 27 24 28 27 29 25 30 26 31 29 32 30 33 31 34
REMARK H PARENT 21 24 31 35
ROOT
ATOM      1  C   UNL     1      42.521 -39.157 107.866  1.00  0.00     0.089 A 
ATOM      2  C   UNL     1      41.152 -38.929 108.036  1.00  0.00     0.022 A 
ATOM      3  C   UNL     1      40.281 -39.167 106.975  1.00  0.00     0.002 A 
ATOM      4  C   UNL     1      40.773 -39.617 105.746  1.00  0.00     0.014 A 
ATOM      5  C   UNL     1      42.151 -39.816 105.568  1.00  0.00     0.041 A 
ATOM      6  C   UNL     1      43.026 -39.591 106.638  1.00  0.00     0.036 A 
ENDROOT
BRANCH   1   7
ATOM      7  S   UNL     1      43.636 -38.873 109.214  1.00  0.00     0.268 S 
ATOM      8  O   UNL     1      43.951 -37.457 109.236  1.00  0.00    -0.201 OA
ATOM      9  O   UNL     1      43.147 -39.570 110.388  1.00  0.00    -0.201 OA
BRANCH   7  10
ATOM     10  N   UNL     1      45.062 -39.681 108.749  1.00  0.00    -0.241 N 
ATOM     11  C   UNL     1      48.809 -38.417 107.500  1.00  0.00     0.119 A 
ATOM     12  C   UNL     1      47.834 -37.429 107.615  1.00  0.00     0.048 A 
ATOM     13  C   UNL     1      48.490 -39.745 107.799  1.00  0.00     0.056 A 
ATOM     14  C   UNL     1      46.530 -37.724 108.025  1.00  0.00     0.032 A 
ATOM     15  C   UNL     1      47.181 -40.074 108.216  1.00  0.00     0.004 A 
ATOM     16  C   UNL     1      46.220 -39.061 108.324  1.00  0.00     0.064 A 
ATOM     17  C   UNL     1      46.561 -41.302 108.595  1.00  0.00     0.029 A 
ATOM     18  C   UNL     1      45.257 -41.026 108.936  1.00  0.00     0.105 A 
BRANCH  11  19
ATOM     19  O   UNL     1      50.033 -37.963 107.088  1.00  0.00    -0.497 OA
ATOM     20  C   UNL     1      50.440 -36.686 107.563  1.00  0.00     0.278 C 
ENDBRANCH  11  19
ENDBRANCH   7  10
ENDBRANCH   1   7
BRANCH   5  21
ATOM     21  C   UNL     1      42.728 -40.297 104.278  1.00  0.00     0.255 C 
ATOM     22  O   UNL     1      43.549 -41.205 104.322  1.00  0.00    -0.269 OA
ATOM     23  N   UNL     1      42.291 -39.634 103.148  1.00  0.00    -0.321 N 
ATOM     24  H   UNL     1      41.675 -38.833 103.290  1.00  0.00     0.170 HD
BRANCH  23  25
ATOM     25  C   UNL     1      42.624 -39.889 101.793  1.00  0.00     0.056 A 
ATOM     26  C   UNL     1      43.568 -40.857 101.427  1.00  0.00     0.028 A 
ATOM     27  C   UNL     1      41.984 -39.150 100.765  1.00  0.00     0.084 A 
ATOM     28  C   UNL     1      43.880 -41.088 100.083  1.00  0.00     0.023 A 
ATOM     29  C   UNL     1      42.305 -39.388  99.417  1.00  0.00     0.038 A 
ATOM     30  C   UNL     1      43.250 -40.353  99.086  1.00  0.00     0.042 A 
ATOM     31  Cl  UNL     1      43.636 -40.641  97.436  1.00  0.00    -0.084 Cl
BRANCH  27  32
ATOM     32  C   UNL     1      40.962 -38.121 101.103  1.00  0.00     0.337 C 
ATOM     33  O   UNL     1      39.947 -38.320 101.750  1.00  0.00    -0.246 OA
BRANCH  32  34
ATOM     34  O   UNL     1      41.254 -36.900 100.625  1.00  0.00    -0.478 OA
ATOM     35  H   UNL     1      40.388 -36.505 100.392  1.00  0.00     0.297 HD
ENDBRANCH  32  34
ENDBRANCH  27  32
ENDBRANCH  23  25
ENDBRANCH   5  21
TORSDOF 7
ENDMDL
MODEL 5
REMARK VINA RESULT:   -10.008      5.340      8.974
REMARK INTER + INTRA:         -15.081
REMARK INTER:                 -13.586
REMARK INTRA:                  -1.495
REMARK UNBOUND:                -1.270
REMARK SMILES COc1ccc2c(ccn2S(=O)(=O)c2cccc(C(=O)Nc3ccc(Cl)cc3C(=O)O)c2)c1
REMARK SMILES IDX 14 1 15 2 16 3 17 4 18 5 32 6 11 7 12 8 13 9 10 10 3 11 4 12
REMARK SMILES IDX 33 13 5 14 7 15 6 16 8 17 9 18 2 19 1 20 19 21 20 22 21 23
REMARK SMILES IDX 22 25 23 26 28 27 24 28 27 29 25 30 26 31 29 32 30 33 31 34
REMARK H PARENT 21 24 31 35
ROOT
ATOM      1  C   UNL     1      37.813 -37.686 109.027  1.00  0.00     0.089 A 
ATOM      2  C   UNL     1      38.067 -38.079 110.344  1.00  0.00     0.022 A 
ATOM      3  C   UNL     1      39.312 -38.611 110.674  1.00  0.00     0.002 A 
ATOM      4  C   UNL     1      40.296 -38.764 109.691  1.00  0.00     0.014 A 
ATOM      5  C   UNL     1      40.029 -38.397 108.363  1.00  0.00     0.041 A 
ATOM      6  C   UNL     1      38.783 -37.849 108.034  1.00  0.00     0.036 A 
ENDROOT
BRANCH   1   7
ATOM      7  S   UNL     1      36.239 -36.993 108.601  1.00  0.00     0.268 S 
ATOM      8  O   UNL     1      35.292 -37.382 109.629  1.00  0.00    -0.201 OA
ATOM      9  O   UNL     1      36.422 -35.609 108.210  1.00  0.00    -0.201 OA
BRANCH   7  10
ATOM     10  N   UNL     1      35.790 -37.826 107.185  1.00  0.00    -0.241 N 
ATOM     11  C   UNL     1      36.000 -36.944 103.138  1.00  0.00     0.119 A 
ATOM     12  C   UNL     1      36.310 -35.903 104.011  1.00  0.00     0.048 A 
ATOM     13  C   UNL     1      35.643 -38.195 103.649  1.00  0.00     0.056 A 
ATOM     14  C   UNL     1      36.275 -36.070 105.399  1.00  0.00     0.032 A 
ATOM     15  C   UNL     1      35.600 -38.394 105.047  1.00  0.00     0.004 A 
ATOM     16  C   UNL     1      35.916 -37.331 105.902  1.00  0.00     0.064 A 
ATOM     17  C   UNL     1      35.292 -39.526 105.858  1.00  0.00     0.029 A 
ATOM     18  C   UNL     1      35.435 -39.151 107.174  1.00  0.00     0.105 A 
BRANCH  11  19
ATOM     19  O   UNL     1      36.083 -36.617 101.811  1.00  0.00    -0.497 OA
ATOM     20  C   UNL     1      37.198 -35.833 101.408  1.00  0.00     0.278 C 
ENDBRANCH  11  19
ENDBRANCH   7  10
ENDBRANCH   1   7
BRANCH   5  21
ATOM     21  C   UNL     1      41.043 -38.538 107.277  1.00  0.00     0.255 C 
ATOM     22  O   UNL     1      41.995 -37.767 107.280  1.00  0.00    -0.269 OA
ATOM     23  N   UNL     1      40.782 -39.522 106.345  1.00  0.00    -0.321 N 
ATOM     24  H   UNL     1      39.893 -40.017 106.429  1.00  0.00     0.170 HD
BRANCH  23  25
ATOM     25  C   UNL     1      41.573 -39.917 105.235  1.00  0.00     0.056 A 
ATOM     26  C   UNL     1      42.857 -40.454 105.388  1.00  0.00     0.028 A 
ATOM     27  C   UNL     1      41.056 -39.773 103.922  1.00  0.00     0.084 A 
ATOM     28  C   UNL     1      43.618 -40.833 104.277  1.00  0.00     0.023 A 
ATOM     29  C   UNL     1      41.828 -40.156 102.811  1.00  0.00     0.038 A 
ATOM     30  C   UNL     1      43.101 -40.681 102.996  1.00  0.00     0.042 A 
ATOM     31  Cl  UNL     1      44.040 -41.150 101.634  1.00  0.00    -0.084 Cl
BRANCH  27  32
ATOM     32  C   UNL     1      39.689 -39.221 103.708  1.00  0.00     0.337 C 
ATOM     33  O   UNL     1      39.409 -38.299 102.960  1.00  0.00    -0.246 OA
BRANCH  32  34
ATOM     34  O   UNL     1      38.742 -39.844 104.430  1.00  0.00    -0.478 OA
ATOM     35  H   UNL     1      38.917 -39.583 105.358  1.00  0.00     0.297 HD
ENDBRANCH  32  34
ENDBRANCH  27  32
ENDBRANCH  23  25
ENDBRANCH   5  21
TORSDOF 7
ENDMDL
MODEL 6
REMARK VINA RESULT:    -9.999      1.527      2.318
REMARK INTER + INTRA:         -15.068
REMARK INTER:                 -13.634
REMARK INTRA:                  -1.435
REMARK UNBOUND:                -1.270
REMARK SMILES COc1ccc2c(ccn2S(=O)(=O)c2cccc(C(=O)Nc3ccc(Cl)cc3C(=O)O)c2)c1
REMARK SMILES IDX 14 1 15 2 16 3 17 4 18 5 32 6 11 7 12 8 13 9 10 10 3 11 4 12
REMARK SMILES IDX 33 13 5 14 7 15 6 16 8 17 9 18 2 19 1 20 19 21 20 22 21 23
REMARK SMILES IDX 22 25 23 26 28 27 24 28 27 29 25 30 26 31 29 32 30 33 31 34
REMARK H PARENT 21 24 31 35
ROOT
ATOM      1  C   UNL     1      43.953 -40.131 108.030  1.00  0.00     0.089 A 
ATOM      2  C   UNL     1      43.190 -39.417 108.957  1.00  0.00     0.022 A 
ATOM      3  C   UNL     1      41.992 -38.830 108.553  1.00  0.00     0.002 A 
ATOM      4  C   UNL     1      41.564 -38.943 107.226  1.00  0.00     0.014 A 
ATOM      5  C   UNL     1      42.347 -39.635 106.289  1.00  0.00     0.041 A 
ATOM      6  C   UNL     1      43.544 -40.237 106.697  1.00  0.00     0.036 A 
ENDROOT
BRANCH   1   7
ATOM      7  S   UNL     1      45.469 -40.894 108.537  1.00  0.00     0.268 S 
ATOM      8  O   UNL     1      45.596 -40.714 109.971  1.00  0.00    -0.201 OA
ATOM      9  O   UNL     1      45.574 -42.200 107.915  1.00  0.00    -0.201 OA
BRANCH   7  10
ATOM     10  N   UNL     1      46.678 -39.933 107.818  1.00  0.00    -0.241 N 
ATOM     11  C   UNL     1      48.176 -36.143 108.586  1.00  0.00     0.119 A 
ATOM     12  C   UNL     1      47.037 -36.509 109.300  1.00  0.00     0.048 A 
ATOM     13  C   UNL     1      48.741 -37.038 107.672  1.00  0.00     0.056 A 
ATOM     14  C   UNL     1      46.433 -37.760 109.132  1.00  0.00     0.032 A 
ATOM     15  C   UNL     1      48.153 -38.308 107.482  1.00  0.00     0.004 A 
ATOM     16  C   UNL     1      47.009 -38.652 108.214  1.00  0.00     0.064 A 
ATOM     17  C   UNL     1      48.490 -39.420 106.655  1.00  0.00     0.029 A 
ATOM     18  C   UNL     1      47.572 -40.416 106.896  1.00  0.00     0.105 A 
BRANCH  11  19
ATOM     19  O   UNL     1      48.643 -34.886 108.867  1.00  0.00    -0.497 OA
ATOM     20  C   UNL     1      48.368 -33.868 107.914  1.00  0.00     0.278 C 
ENDBRANCH  11  19
ENDBRANCH   7  10
ENDBRANCH   1   7
BRANCH   5  21
ATOM     21  C   UNL     1      41.936 -39.787 104.862  1.00  0.00     0.255 C 
ATOM     22  O   UNL     1      40.746 -39.951 104.623  1.00  0.00    -0.269 OA
ATOM     23  N   UNL     1      42.966 -39.757 103.942  1.00  0.00    -0.321 N 
ATOM     24  H   UNL     1      43.916 -39.709 104.310  1.00  0.00     0.170 HD
BRANCH  23  25
ATOM     25  C   UNL     1      42.885 -39.833 102.527  1.00  0.00     0.056 A 
ATOM     26  C   UNL     1      42.296 -38.820 101.758  1.00  0.00     0.028 A 
ATOM     27  C   UNL     1      43.418 -40.963 101.857  1.00  0.00     0.084 A 
ATOM     28  C   UNL     1      42.227 -38.920 100.365  1.00  0.00     0.023 A 
ATOM     29  C   UNL     1      43.343 -41.056 100.455  1.00  0.00     0.038 A 
ATOM     30  C   UNL     1      42.749 -40.036  99.721  1.00  0.00     0.042 A 
ATOM     31  Cl  UNL     1      42.662 -40.154  98.008  1.00  0.00    -0.084 Cl
BRANCH  27  32
ATOM     32  C   UNL     1      44.067 -42.059 102.628  1.00  0.00     0.337 C 
ATOM     33  O   UNL     1      44.710 -41.914 103.655  1.00  0.00    -0.246 OA
BRANCH  32  34
ATOM     34  O   UNL     1      43.882 -43.276 102.090  1.00  0.00    -0.478 OA
ATOM     35  H   UNL     1      44.016 -43.904 102.829  1.00  0.00     0.297 HD
ENDBRANCH  32  34
ENDBRANCH  27  32
ENDBRANCH  23  25
ENDBRANCH   5  21
TORSDOF 7
ENDMDL
MODEL 7
REMARK VINA RESULT:    -9.926      3.482      8.862
REMARK INTER + INTRA:         -14.968
REMARK INTER:                 -14.482
REMARK INTRA:                  -0.485
REMARK UNBOUND:                -1.270
REMARK SMILES COc1ccc2c(ccn2S(=O)(=O)c2cccc(C(=O)Nc3ccc(Cl)cc3C(=O)O)c2)c1
REMARK SMILES IDX 14 1 15 2 16 3 17 4 18 5 32 6 11 7 12 8 13 9 10 10 3 11 4 12
REMARK SMILES IDX 33 13 5 14 7 15 6 16 8 17 9 18 2 19 1 20 19 21 20 22 21 23
REMARK SMILES IDX 22 25 23 26 28 27 24 28 27 29 25 30 26 31 29 32 30 33 31 34
REMARK H PARENT 21 24 31 35
ROOT
ATOM      1  C   UNL     1      44.003 -40.211 106.444  1.00  0.00     0.089 A 
ATOM      2  C   UNL     1      43.960 -41.450 107.089  1.00  0.00     0.022 A 
ATOM      3  C   UNL     1      44.945 -41.772 108.021  1.00  0.00     0.002 A 
ATOM      4  C   UNL     1      45.976 -40.869 108.297  1.00  0.00     0.014 A 
ATOM      5  C   UNL     1      46.035 -39.638 107.626  1.00  0.00     0.041 A 
ATOM      6  C   UNL     1      45.037 -39.307 106.700  1.00  0.00     0.036 A 
ENDROOT
BRANCH   1   7
ATOM      7  S   UNL     1      42.746 -39.785 105.270  1.00  0.00     0.268 S 
ATOM      8  O   UNL     1      41.487 -40.316 105.757  1.00  0.00    -0.201 OA
ATOM      9  O   UNL     1      42.899 -38.392 104.896  1.00  0.00    -0.201 OA
BRANCH   7  10
ATOM     10  N   UNL     1      43.151 -40.690 103.883  1.00  0.00    -0.241 N 
ATOM     11  C   UNL     1      42.813 -40.012  99.806  1.00  0.00     0.119 A 
ATOM     12  C   UNL     1      42.186 -39.086 100.637  1.00  0.00     0.048 A 
ATOM     13  C   UNL     1      43.502 -41.092 100.366  1.00  0.00     0.056 A 
ATOM     14  C   UNL     1      42.224 -39.201 102.030  1.00  0.00     0.032 A 
ATOM     15  C   UNL     1      43.558 -41.234 101.770  1.00  0.00     0.004 A 
ATOM     16  C   UNL     1      42.919 -40.289 102.583  1.00  0.00     0.064 A 
ATOM     17  C   UNL     1      44.175 -42.195 102.625  1.00  0.00     0.029 A 
ATOM     18  C   UNL     1      43.922 -41.823 103.925  1.00  0.00     0.105 A 
BRANCH  11  19
ATOM     19  O   UNL     1      42.682 -39.755  98.467  1.00  0.00    -0.497 OA
ATOM     20  C   UNL     1      43.053 -40.795  97.571  1.00  0.00     0.278 C 
ENDBRANCH  11  19
ENDBRANCH   7  10
ENDBRANCH   1   7
BRANCH   5  21
ATOM     21  C   UNL     1      47.112 -38.637 107.885  1.00  0.00     0.255 C 
ATOM     22  O   UNL     1      48.168 -39.043 108.356  1.00  0.00    -0.269 OA
ATOM     23  N   UNL     1      46.789 -37.328 107.588  1.00  0.00    -0.321 N 
ATOM     24  H   UNL     1      45.831 -37.142 107.292  1.00  0.00     0.170 HD
BRANCH  23  25
ATOM     25  C   UNL     1      47.610 -36.175 107.687  1.00  0.00     0.056 A 
ATOM     26  C   UNL     1      48.376 -35.710 106.610  1.00  0.00     0.028 A 
ATOM     27  C   UNL     1      47.661 -35.457 108.909  1.00  0.00     0.084 A 
ATOM     28  C   UNL     1      49.179 -34.572 106.734  1.00  0.00     0.023 A 
ATOM     29  C   UNL     1      48.472 -34.313 109.025  1.00  0.00     0.038 A 
ATOM     30  C   UNL     1      49.225 -33.881 107.939  1.00  0.00     0.042 A 
ATOM     31  Cl  UNL     1      50.212 -32.481 108.086  1.00  0.00    -0.084 Cl
BRANCH  27  32
ATOM     32  C   UNL     1      46.853 -35.902 110.077  1.00  0.00     0.337 C 
ATOM     33  O   UNL     1      45.842 -36.583 110.019  1.00  0.00    -0.246 OA
BRANCH  32  34
ATOM     34  O   UNL     1      47.341 -35.482 111.257  1.00  0.00    -0.478 OA
ATOM     35  H   UNL     1      46.761 -34.738 111.522  1.00  0.00     0.297 HD
ENDBRANCH  32  34
ENDBRANCH  27  32
ENDBRANCH  23  25
ENDBRANCH   5  21
TORSDOF 7
ENDMDL
MODEL 8
REMARK VINA RESULT:    -9.875      4.720      8.076
REMARK INTER + INTRA:         -14.897
REMARK INTER:                 -13.808
REMARK INTRA:                  -1.089
REMARK UNBOUND:                -1.270
REMARK SMILES COc1ccc2c(ccn2S(=O)(=O)c2cccc(C(=O)Nc3ccc(Cl)cc3C(=O)O)c2)c1
REMARK SMILES IDX 14 1 15 2 16 3 17 4 18 5 32 6 11 7 12 8 13 9 10 10 3 11 4 12
REMARK SMILES IDX 33 13 5 14 7 15 6 16 8 17 9 18 2 19 1 20 19 21 20 22 21 23
REMARK SMILES IDX 22 25 23 26 28 27 24 28 27 29 25 30 26 31 29 32 30 33 31 34
REMARK H PARENT 21 24 31 35
ROOT
ATOM      1  C   UNL     1      40.075 -38.229 109.126  1.00  0.00     0.089 A 
ATOM      2  C   UNL     1      40.604 -36.956 109.352  1.00  0.00     0.022 A 
ATOM      3  C   UNL     1      41.773 -36.572 108.698  1.00  0.00     0.002 A 
ATOM      4  C   UNL     1      42.420 -37.461 107.833  1.00  0.00     0.014 A 
ATOM      5  C   UNL     1      41.904 -38.750 107.630  1.00  0.00     0.041 A 
ATOM      6  C   UNL     1      40.721 -39.131 108.275  1.00  0.00     0.036 A 
ENDROOT
BRANCH   1   7
ATOM      7  S   UNL     1      38.579 -38.720 109.940  1.00  0.00     0.268 S 
ATOM      8  O   UNL     1      38.262 -40.068 109.507  1.00  0.00    -0.201 OA
ATOM      9  O   UNL     1      38.665 -38.364 111.343  1.00  0.00    -0.201 OA
BRANCH   7  10
ATOM     10  N   UNL     1      37.389 -37.702 109.268  1.00  0.00    -0.241 N 
ATOM     11  C   UNL     1      35.801 -37.251 105.465  1.00  0.00     0.119 A 
ATOM     12  C   UNL     1      36.912 -38.085 105.571  1.00  0.00     0.048 A 
ATOM     13  C   UNL     1      35.291 -36.624 106.605  1.00  0.00     0.056 A 
ATOM     14  C   UNL     1      37.542 -38.320 106.798  1.00  0.00     0.032 A 
ATOM     15  C   UNL     1      35.906 -36.842 107.858  1.00  0.00     0.004 A 
ATOM     16  C   UNL     1      37.022 -37.686 107.938  1.00  0.00     0.064 A 
ATOM     17  C   UNL     1      35.624 -36.370 109.174  1.00  0.00     0.029 A 
ATOM     18  C   UNL     1      36.546 -36.932 110.027  1.00  0.00     0.105 A 
BRANCH  11  19
ATOM     19  O   UNL     1      35.302 -37.128 104.195  1.00  0.00    -0.497 OA
ATOM     20  C   UNL     1      36.246 -36.953 103.146  1.00  0.00     0.278 C 
ENDBRANCH  11  19
ENDBRANCH   7  10
ENDBRANCH   1   7
BRANCH   5  21
ATOM     21  C   UNL     1      42.554 -39.736 106.716  1.00  0.00     0.255 C 
ATOM     22  O   UNL     1      43.127 -40.693 107.222  1.00  0.00    -0.269 OA
ATOM     23  N   UNL     1      42.466 -39.444 105.370  1.00  0.00    -0.321 N 
ATOM     24  H   UNL     1      42.036 -38.555 105.115  1.00  0.00     0.170 HD
BRANCH  23  25
ATOM     25  C   UNL     1      42.944 -40.204 104.271  1.00  0.00     0.056 A 
ATOM     26  C   UNL     1      43.837 -41.271 104.435  1.00  0.00     0.028 A 
ATOM     27  C   UNL     1      42.506 -39.888 102.960  1.00  0.00     0.084 A 
ATOM     28  C   UNL     1      44.294 -42.004 103.334  1.00  0.00     0.023 A 
ATOM     29  C   UNL     1      42.972 -40.629 101.859  1.00  0.00     0.038 A 
ATOM     30  C   UNL     1      43.862 -41.679 102.054  1.00  0.00     0.042 A 
ATOM     31  Cl  UNL     1      44.427 -42.584 100.705  1.00  0.00    -0.084 Cl
BRANCH  27  32
ATOM     32  C   UNL     1      41.546 -38.772 102.736  1.00  0.00     0.337 C 
ATOM     33  O   UNL     1      40.442 -38.678 103.247  1.00  0.00    -0.246 OA
BRANCH  32  34
ATOM     34  O   UNL     1      42.004 -37.831 101.894  1.00  0.00    -0.478 OA
ATOM     35  H   UNL     1      41.724 -38.128 101.003  1.00  0.00     0.297 HD
ENDBRANCH  32  34
ENDBRANCH  27  32
ENDBRANCH  23  25
ENDBRANCH   5  21
TORSDOF 7
ENDMDL
MODEL 9
REMARK VINA RESULT:    -9.853      5.590      9.781
REMARK INTER + INTRA:         -14.867
REMARK INTER:                 -13.616
REMARK INTRA:                  -1.250
REMARK UNBOUND:                -1.270
REMARK SMILES COc1ccc2c(ccn2S(=O)(=O)c2cccc(C(=O)Nc3ccc(Cl)cc3C(=O)O)c2)c1
REMARK SMILES IDX 14 1 15 2 16 3 17 4 18 5 32 6 11 7 12 8 13 9 10 10 3 11 4 12
REMARK SMILES IDX 33 13 5 14 7 15 6 16 8 17 9 18 2 19 1 20 19 21 20 22 21 23
REMARK SMILES IDX 22 25 23 26 28 27 24 28 27 29 25 30 26 31 29 32 30 33 31 34
REMARK H PARENT 21 24 31 35
ROOT
ATOM      1  C   UNL     1      38.013 -38.290 103.086  1.00  0.00     0.089 A 
ATOM      2  C   UNL     1      38.685 -38.027 101.889  1.00  0.00     0.022 A 
ATOM      3  C   UNL     1      40.049 -38.298 101.794  1.00  0.00     0.002 A 
ATOM      4  C   UNL     1      40.742 -38.816 102.894  1.00  0.00     0.014 A 
ATOM      5  C   UNL     1      40.072 -39.050 104.104  1.00  0.00     0.041 A 
ATOM      6  C   UNL     1      38.699 -38.792 104.195  1.00  0.00     0.036 A 
ENDROOT
BRANCH   1   7
ATOM      7  S   UNL     1      36.275 -37.965 103.211  1.00  0.00     0.268 S 
ATOM      8  O   UNL     1      35.906 -37.102 102.104  1.00  0.00    -0.201 OA
ATOM      9  O   UNL     1      35.579 -39.207 103.481  1.00  0.00    -0.201 OA
BRANCH   7  10
ATOM     10  N   UNL     1      36.131 -37.027 104.626  1.00  0.00    -0.241 N 
ATOM     11  C   UNL     1      35.773 -37.939 108.656  1.00  0.00     0.119 A 
ATOM     12  C   UNL     1      35.680 -39.013 107.773  1.00  0.00     0.048 A 
ATOM     13  C   UNL     1      35.973 -36.647 108.160  1.00  0.00     0.056 A 
ATOM     14  C   UNL     1      35.783 -38.839 106.389  1.00  0.00     0.032 A 
ATOM     15  C   UNL     1      36.082 -36.441 106.767  1.00  0.00     0.004 A 
ATOM     16  C   UNL     1      35.985 -37.538 105.901  1.00  0.00     0.064 A 
ATOM     17  C   UNL     1      36.294 -35.277 105.971  1.00  0.00     0.029 A 
ATOM     18  C   UNL     1      36.338 -35.672 104.654  1.00  0.00     0.105 A 
BRANCH  11  19
ATOM     19  O   UNL     1      35.652 -38.278 109.978  1.00  0.00    -0.497 OA
ATOM     20  C   UNL     1      36.848 -38.617 110.668  1.00  0.00     0.278 C 
ENDBRANCH  11  19
ENDBRANCH   7  10
ENDBRANCH   1   7
BRANCH   5  21
ATOM     21  C   UNL     1      40.764 -39.603 105.306  1.00  0.00     0.255 C 
ATOM     22  O   UNL     1      40.096 -40.251 106.103  1.00  0.00    -0.269 OA
ATOM     23  N   UNL     1      42.105 -39.294 105.413  1.00  0.00    -0.321 N 
ATOM     24  H   UNL     1      42.492 -38.661 104.713  1.00  0.00     0.170 HD
BRANCH  23  25
ATOM     25  C   UNL     1      43.027 -39.706 106.410  1.00  0.00     0.056 A 
ATOM     26  C   UNL     1      43.812 -40.857 106.269  1.00  0.00     0.028 A 
ATOM     27  C   UNL     1      43.172 -38.932 107.589  1.00  0.00     0.084 A 
ATOM     28  C   UNL     1      44.712 -41.243 107.268  1.00  0.00     0.023 A 
ATOM     29  C   UNL     1      44.079 -39.327 108.589  1.00  0.00     0.038 A 
ATOM     30  C   UNL     1      44.840 -40.478 108.422  1.00  0.00     0.042 A 
ATOM     31  Cl  UNL     1      45.949 -40.956 109.646  1.00  0.00    -0.084 Cl
BRANCH  27  32
ATOM     32  C   UNL     1      42.371 -37.691 107.778  1.00  0.00     0.337 C 
ATOM     33  O   UNL     1      41.412 -37.576 108.523  1.00  0.00    -0.246 OA
BRANCH  32  34
ATOM     34  O   UNL     1      42.802 -36.657 107.036  1.00  0.00    -0.478 OA
ATOM     35  H   UNL     1      43.779 -36.674 107.119  1.00  0.00     0.297 HD
ENDBRANCH  32  34
ENDBRANCH  27  32
ENDBRANCH  23  25
ENDBRANCH   5  21
TORSDOF 7
ENDMDL
