REMARK SMILES CCc1oc(-c2ccccc2)nc1CCc1noc2cc(OC(C)(C)C(=O)O)ccc12
REMARK SMILES IDX 16 1 17 2 18 3 19 4 20 5 21 6 29 7 30 8 31 9 15 10 14 11
REMARK SMILES IDX 13 12 3 13 4 14 5 15 12 16 2 17 1 18 6 19 7 20 11 21 8 22
REMARK SMILES IDX 10 23 9 24 22 25 23 26 24 27 25 28 26 29 27 30 28 31
REMARK H PARENT 28 32
REMARK INDEX MAP 16 1 17 2 18 3 19 4 20 5 21 6 29 7 30 8 31 9 15 10 14 11
REMARK INDEX MAP 13 12 3 13 4 14 5 15 12 16 2 17 1 18 6 19 7 20 11 21 8 22
REMARK INDEX MAP 10 23 9 24 22 25 23 26 24 27 25 28 26 29 27 30 28 31 53 32
ROOT
ATOM      1  C   UNL     1       7.861  10.537  -4.995  1.00  0.00     0.092 A 
ATOM      2  N   UNL     1       8.433  10.765  -3.804  1.00  0.00    -0.084 NA
ATOM      3  O   UNL     1       7.574  10.216  -2.864  1.00  0.00    -0.356 OA
ATOM      4  C   UNL     1       6.502   9.664  -3.493  1.00  0.00     0.170 A 
ATOM      5  C   UNL     1       5.435   9.015  -2.879  1.00  0.00     0.097 A 
ATOM      6  C   UNL     1       4.442   8.537  -3.737  1.00  0.00     0.124 A 
ATOM      7  C   UNL     1       4.555   8.652  -5.126  1.00  0.00     0.047 A 
ATOM      8  C   UNL     1       5.645   9.313  -5.708  1.00  0.00     0.018 A 
ATOM      9  C   UNL     1       6.635   9.836  -4.860  1.00  0.00     0.045 A 
ENDROOT
BRANCH   1  10
ATOM     10  C   UNL     1       8.533  10.990  -6.247  1.00  0.00     0.067 C 
BRANCH  10  11
ATOM     11  C   UNL     1       9.303   9.872  -6.950  1.00  0.00     0.066 C 
BRANCH  11  12
ATOM     12  C   UNL     1      10.061  10.350  -8.136  1.00  0.00     0.083 A 
ATOM     13  C   UNL     1      11.117  11.234  -8.209  1.00  0.00     0.127 A 
ATOM     14  O   UNL     1      11.483  11.341  -9.520  1.00  0.00    -0.441 OA
ATOM     15  C   UNL     1      10.627  10.502 -10.185  1.00  0.00     0.226 A 
ATOM     16  N   UNL     1       9.764   9.886  -9.399  1.00  0.00    -0.214 NA
BRANCH  13  17
ATOM     17  C   UNL     1      11.891  12.022  -7.224  1.00  0.00     0.074 C 
ATOM     18  C   UNL     1      13.360  12.110  -7.610  1.00  0.00     0.012 C 
ENDBRANCH  13  17
BRANCH  15  19
ATOM     19  C   UNL     1      10.800  10.391 -11.631  1.00  0.00     0.037 A 
ATOM     20  C   UNL     1      10.590  11.480 -12.492  1.00  0.00     0.014 A 
ATOM     21  C   UNL     1      11.199   9.166 -12.189  1.00  0.00     0.014 A 
ATOM     22  C   UNL     1      10.777  11.347 -13.870  1.00  0.00     0.001 A 
ATOM     23  C   UNL     1      11.385   9.033 -13.568  1.00  0.00     0.001 A 
ATOM     24  C   UNL     1      11.175  10.125 -14.407  1.00  0.00     0.000 A 
ENDBRANCH  15  19
ENDBRANCH  11  12
ENDBRANCH  10  11
ENDBRANCH   1  10
BRANCH   6  25
ATOM     25  O   UNL     1       3.372   7.845  -3.239  1.00  0.00    -0.476 OA
BRANCH  25  26
ATOM     26  C   UNL     1       3.671   6.524  -2.756  1.00  0.00     0.199 C 
ATOM     27  C   UNL     1       2.312   5.804  -2.700  1.00  0.00     0.069 C 
ATOM     28  C   UNL     1       4.531   5.802  -3.806  1.00  0.00     0.069 C 
BRANCH  26  29
ATOM     29  C   UNL     1       4.334   6.371  -1.365  1.00  0.00     0.347 C 
ATOM     30  O   UNL     1       4.065   7.001  -0.353  1.00  0.00    -0.248 OA
BRANCH  29  31
ATOM     31  O   UNL     1       5.301   5.429  -1.321  1.00  0.00    -0.478 OA
ATOM     32  H   UNL     1       5.785   5.256  -0.475  1.00  0.00     0.296 HD
ENDBRANCH  29  31
ENDBRANCH  26  29
ENDBRANCH  25  26
ENDBRANCH   6  25
TORSDOF 9
