MODEL 3
REMARK VINA RESULT:    -8.874      3.521      7.007
REMARK INTER + INTRA:         -12.829
REMARK INTER:                 -11.569
REMARK INTRA:                  -1.260
REMARK UNBOUND:                -1.103
REMARK SMILES COc1ccc(-c2ccc3c(N4CCOCC4)nc(N4C[C@@H](C)O[C@@H](C)C4)nc3n2)cc1CO
REMARK SMILES IDX 3 1 4 2 5 3 6 4 31 5 32 6 2 7 1 8 33 9 34 10 7 12 8 13 30 14
REMARK SMILES IDX 9 15 29 16 10 17 28 18 11 19 19 20 18 21 12 22 13 23 17 24
REMARK SMILES IDX 14 25 16 26 15 27 20 28 21 29 27 30 22 31 25 32 24 33 23 34
REMARK SMILES IDX 26 35
REMARK H PARENT 34 11
ROOT
ATOM      1  C   UNL     1     -18.229  17.027  32.458  1.00  0.00     0.124 A 
ATOM      2  C   UNL     1     -17.106  16.490  31.825  1.00  0.00     0.047 A 
ATOM      3  C   UNL     1     -17.233  15.404  30.949  1.00  0.00     0.014 A 
ATOM      4  C   UNL     1     -18.480  14.818  30.686  1.00  0.00     0.001 A 
ATOM      5  C   UNL     1     -19.597  15.362  31.342  1.00  0.00     0.020 A 
ATOM      6  C   UNL     1     -19.495  16.468  32.209  1.00  0.00     0.020 A 
ENDROOT
BRANCH   1   7
ATOM      7  O   UNL     1     -18.194  18.069  33.347  1.00  0.00    -0.496 OA
ATOM      8  C   UNL     1     -17.368  17.923  34.495  1.00  0.00     0.278 C 
ENDBRANCH   1   7
BRANCH   6   9
ATOM      9  C   UNL     1     -20.719  16.994  32.919  1.00  0.00     0.195 C 
BRANCH   9  10
ATOM     10  O   UNL     1     -21.124  18.257  32.395  1.00  0.00    -0.392 OA
ATOM     11  H   UNL     1     -20.311  18.781  32.289  1.00  0.00     0.211 HD
ENDBRANCH   9  10
ENDBRANCH   6   9
BRANCH   4  12
ATOM     12  C   UNL     1     -18.627  13.668  29.772  1.00  0.00     0.073 A 
ATOM     13  C   UNL     1     -17.558  12.865  29.404  1.00  0.00     0.030 A 
ATOM     14  N   UNL     1     -19.882  13.440  29.309  1.00  0.00    -0.228 NA
ATOM     15  C   UNL     1     -17.799  11.811  28.538  1.00  0.00     0.018 A 
ATOM     16  C   UNL     1     -20.127  12.419  28.482  1.00  0.00     0.167 A 
ATOM     17  C   UNL     1     -19.105  11.582  28.055  1.00  0.00     0.062 A 
ATOM     18  N   UNL     1     -21.380  12.245  28.097  1.00  0.00    -0.193 NA
ATOM     19  C   UNL     1     -19.481  10.555  27.182  1.00  0.00     0.143 A 
ATOM     20  C   UNL     1     -21.679  11.232  27.284  1.00  0.00     0.229 A 
ATOM     21  N   UNL     1     -20.758  10.383  26.817  1.00  0.00    -0.195 NA
BRANCH  19  22
ATOM     22  N   UNL     1     -18.503   9.679  26.654  1.00  0.00    -0.351 N 
ATOM     23  C   UNL     1     -18.823   9.260  25.266  1.00  0.00     0.146 C 
ATOM     24  C   UNL     1     -18.178   8.546  27.548  1.00  0.00     0.146 C 
ATOM     25  C   UNL     1     -19.103   7.751  25.181  1.00  0.00     0.181 C 
ATOM     26  C   UNL     1     -17.326   7.526  26.776  1.00  0.00     0.181 C 
ATOM     27  O   UNL     1     -18.007   6.948  25.649  1.00  0.00    -0.378 OA
ENDBRANCH  19  22
BRANCH  20  28
ATOM     28  N   UNL     1     -22.987  11.048  26.918  1.00  0.00    -0.336 N 
ATOM     29  C   UNL     1     -23.793  10.035  27.593  1.00  0.00     0.151 C 
ATOM     30  C   UNL     1     -23.664  11.974  26.018  1.00  0.00     0.151 C 
ATOM     31  C   UNL     1     -25.136   9.863  26.858  1.00  0.00     0.135 C 
ATOM     32  C   UNL     1     -25.106  12.256  26.501  1.00  0.00     0.135 C 
ATOM     33  O   UNL     1     -25.891  11.085  26.797  1.00  0.00    -0.372 OA
ATOM     34  C   UNL     1     -26.010   8.822  27.545  1.00  0.00     0.040 C 
ATOM     35  C   UNL     1     -25.132  13.159  27.733  1.00  0.00     0.040 C 
ENDBRANCH  20  28
ENDBRANCH   4  12
TORSDOF 6
ENDMDL
