MODEL 8
REMARK VINA RESULT:    -6.626      3.393      7.638
REMARK INTER + INTRA:         -13.367
REMARK INTER:                 -12.498
REMARK INTRA:                  -0.869
REMARK UNBOUND:                -1.318
REMARK SMILES CN(C)CCN(C)c1ccc2cc1COCC=CCOCc1cccc(c1)-c1ccnc(n1)N2
REMARK SMILES IDX 34 1 11 3 8 4 9 5 13 6 10 7 12 8 6 9 7 10 5 11 4 12 2 13
REMARK SMILES IDX 1 14 3 15 14 16 15 17 16 18 32 20 31 21 33 22 30 23 28 24
REMARK SMILES IDX 29 25 26 26 25 27 27 28 24 29 22 30 23 31 21 32 20 33 19 34
REMARK SMILES IDX 18 35 17 36
REMARK H PARENT 34 2
REMARK Flexibility Score:   96.900
ROOT
ATOM      1  N   UNL     1     -10.298  12.282  19.318  1.00  0.00    -0.324 N 
ATOM      2  H   UNL     1      -9.728  11.521  18.981  1.00  0.00     0.170 HD
ENDROOT
BRANCH   1   3
ATOM      3  C   UNL     1      -9.646  13.492  19.575  1.00  0.00     0.041 A 
ATOM      4  C   UNL     1      -8.195  15.901  20.102  1.00  0.00     0.042 A 
ATOM      5  C   UNL     1      -7.552  14.656  20.013  1.00  0.00     0.028 A 
ATOM      6  C   UNL     1      -9.591  15.938  19.929  1.00  0.00     0.003 A 
ATOM      7  C   UNL     1      -8.260  13.477  19.757  1.00  0.00     0.028 A 
ATOM      8  C   UNL     1     -10.291  14.728  19.687  1.00  0.00     0.034 A 
BRANCH   4   9
ATOM      9  N   UNL     1      -7.360  17.001  20.352  1.00  0.00    -0.373 N 
ATOM     10  C   UNL     1      -5.989  16.829  19.871  1.00  0.00     0.143 C 
BRANCH   9  11
ATOM     11  C   UNL     1      -7.520  17.607  21.686  1.00  0.00     0.131 C 
BRANCH  11  12
ATOM     12  C   UNL     1      -6.870  19.011  21.716  1.00  0.00     0.105 C 
BRANCH  12  13
ATOM     13  N   UNL     1      -6.069  19.288  22.931  1.00  0.00    -0.308 NA
ATOM     14  C   UNL     1      -6.687  20.380  23.690  1.00  0.00     0.105 C 
ATOM     15  C   UNL     1      -5.954  18.102  23.782  1.00  0.00     0.105 C 
ENDBRANCH  12  13
ENDBRANCH  11  12
ENDBRANCH   9  11
ENDBRANCH   4   9
BRANCH   6  16
ATOM     16  C   UNL     1     -10.415  17.199  19.990  1.00  0.00     0.198 C 
BRANCH  16  17
ATOM     17  O   UNL     1     -11.139  17.362  18.771  1.00  0.00    -0.373 OA
BRANCH  17  18
ATOM     18  C   UNL     1     -11.706  18.664  18.646  1.00  0.00     0.188 CG0
ATOM     19  G   UNL     1     -13.190  18.554  18.477  1.00  0.00     0.000 G0
ENDBRANCH  17  18
ENDBRANCH  16  17
ENDBRANCH   6  16
ENDBRANCH   1   3
BRANCH   1  20
ATOM     20  C   UNL     1     -11.635  11.902  19.243  1.00  0.00     0.227 A 
ATOM     21  N   UNL     1     -11.839  10.636  18.842  1.00  0.00    -0.221 NA
ATOM     22  N   UNL     1     -12.631  12.742  19.547  1.00  0.00    -0.213 NA
ATOM     23  C   UNL     1     -13.115  10.222  18.742  1.00  0.00     0.117 A 
ATOM     24  C   UNL     1     -13.904  12.304  19.432  1.00  0.00     0.076 A 
ATOM     25  C   UNL     1     -14.195  11.019  19.023  1.00  0.00     0.049 A 
BRANCH  24  26
ATOM     26  C   UNL     1     -14.947  13.278  19.801  1.00  0.00     0.001 A 
ATOM     27  C   UNL     1     -16.296  12.907  19.948  1.00  0.00     0.010 A 
ATOM     28  C   UNL     1     -14.613  14.629  20.016  1.00  0.00     0.016 A 
ATOM     29  C   UNL     1     -17.268  13.846  20.305  1.00  0.00     0.001 A 
ATOM     30  C   UNL     1     -15.578  15.580  20.385  1.00  0.00    -0.022 A 
ATOM     31  C   UNL     1     -16.909  15.174  20.526  1.00  0.00     0.006 A 
BRANCH  30  32
ATOM     32  C   UNL     1     -15.177  17.008  20.652  1.00  0.00     0.196 C 
BRANCH  32  33
ATOM     33  O   UNL     1     -16.159  17.886  20.104  1.00  0.00    -0.373 OA
BRANCH  33  34
ATOM     34  C   UNL     1     -15.585  18.851  19.230  1.00  0.00     0.188 C 
BRANCH  34  35
ATOM     35  C   UNL     1     -14.090  18.938  19.374  1.00  0.00    -0.001 C 
ATOM     36  C   UNL     1     -13.179  18.551  18.464  1.00  0.00    -0.001 CG0
ATOM     37  G   UNL     1     -11.698  18.662  18.654  1.00  0.00     0.000 G0
ENDBRANCH  34  35
ENDBRANCH  33  34
ENDBRANCH  32  33
ENDBRANCH  30  32
ENDBRANCH  24  26
ENDBRANCH   1  20
TORSDOF 4
ENDMDL
