MODEL 1
REMARK minimizedAffinity -7.49374247
REMARK CNNscore 0.802964747
REMARK CNNaffinity 7.93167496
REMARK SMILES CC[C@@H](Cc1ccc(OC)c(CNC(=O)c2ccc([C@]34C[C@H]5C[C@H](C[C@H](C5)C3)C4)cc2F)c1)C(=O)O
REMARK SMILES IDX 5 1 6 2 7 3 8 4 11 5 33 6 4 7 3 8 2 9 1 10 34 11 35 12 36 13
REMARK SMILES IDX 12 15 13 16 14 17 15 18 16 20 17 21 31 22 18 23 30 24 19 25
REMARK SMILES IDX 32 26 20 27 28 28 29 29 21 30 26 31 24 32 22 33 27 34 25 35
REMARK SMILES IDX 23 36 9 37 10 38
REMARK H PARENT 36 14 13 19
ROOT
ATOM      1  C   UNL     1      11.478   1.675  -2.842  1.00  0.00    -0.047 A 
ATOM      2  C   UNL     1      11.089   2.549  -1.825  1.00  0.00     0.007 A 
ATOM      3  C   UNL     1       9.876   3.242  -1.905  1.00  0.00     0.047 A 
ATOM      4  C   UNL     1       9.033   3.079  -3.008  1.00  0.00     0.123 A 
ATOM      5  C   UNL     1       9.422   2.219  -4.050  1.00  0.00     0.014 A 
ATOM      6  C   UNL     1      10.638   1.518  -3.951  1.00  0.00     0.013 A 
ENDROOT
BRANCH   1   7
ATOM      7  C   UNL     1      12.778   0.912  -2.751  1.00  0.00     0.050 C 
BRANCH   7   8
ATOM      8  C   UNL     1      14.029   1.784  -2.967  1.00  0.00     0.103 C 
BRANCH   8   9
ATOM      9  C   UNL     1      14.998   1.179  -3.996  1.00  0.00     0.012 C 
ATOM     10  C   UNL     1      14.278   0.476  -5.140  1.00  0.00     0.005 C 
ENDBRANCH   8   9
BRANCH   8  11
ATOM     11  C   UNL     1      14.720   1.918  -1.630  1.00  0.00     0.306 C 
ATOM     12  O   UNL     1      15.090   1.007  -0.907  1.00  0.00    -0.252 OA
BRANCH  11  13
ATOM     13  O   UNL     1      14.924   3.199  -1.274  1.00  0.00    -0.481 OA
ATOM     14  H   UNL     1      15.374   3.141  -0.404  1.00  0.00     0.296 HD
ENDBRANCH  11  13
ENDBRANCH   8  11
ENDBRANCH   7   8
ENDBRANCH   1   7
BRANCH   5  15
ATOM     15  C   UNL     1       8.551   1.992  -5.260  1.00  0.00     0.156 C 
BRANCH  15  16
ATOM     16  N   UNL     1       9.030   2.753  -6.390  1.00  0.00    -0.348 N 
ATOM     17  C   UNL     1       8.625   4.042  -6.643  1.00  0.00     0.254 C 
ATOM     18  O   UNL     1       7.806   4.632  -5.944  1.00  0.00    -0.269 OA
ATOM     19  H   UNL     1       9.741   2.319  -6.966  1.00  0.00     0.164 HD
BRANCH  17  20
ATOM     20  C   UNL     1       9.221   4.729  -7.822  1.00  0.00     0.075 A 
ATOM     21  C   UNL     1       9.540   6.088  -7.712  1.00  0.00     0.017 A 
ATOM     22  C   UNL     1       9.465   4.094  -9.036  1.00  0.00     0.136 A 
ATOM     23  C   UNL     1      10.083   6.791  -8.797  1.00  0.00     0.005 A 
ATOM     24  C   UNL     1      10.007   4.792 -10.119  1.00  0.00     0.044 A 
ATOM     25  C   UNL     1      10.326   6.160 -10.028  1.00  0.00    -0.039 A 
ATOM     26  F   UNL     1       9.179   2.793  -9.214  1.00  0.00    -0.206 F 
BRANCH  25  27
ATOM     27  C   UNL     1      10.902   6.902 -11.246  1.00  0.00    -0.004 C 
ATOM     28  C   UNL     1      12.354   6.418 -11.533  1.00  0.00     0.015 C 
ATOM     29  C   UNL     1      10.960   8.451 -11.070  1.00  0.00     0.015 C 
ATOM     30  C   UNL     1      10.029   6.617 -12.504  1.00  0.00     0.015 C 
ATOM     31  C   UNL     1      12.931   7.103 -12.786  1.00  0.00    -0.010 C 
ATOM     32  C   UNL     1      11.539   9.142 -12.317  1.00  0.00    -0.010 C 
ATOM     33  C   UNL     1      10.613   7.301 -13.754  1.00  0.00    -0.010 C 
ATOM     34  C   UNL     1      12.039   6.782 -13.996  1.00  0.00     0.007 C 
ATOM     35  C   UNL     1      12.961   8.622 -12.568  1.00  0.00     0.007 C 
ATOM     36  C   UNL     1      10.655   8.818 -13.530  1.00  0.00     0.007 C 
ENDBRANCH  25  27
ENDBRANCH  17  20
ENDBRANCH  15  16
ENDBRANCH   5  15
BRANCH   4  37
ATOM     37  O   UNL     1       7.820   3.697  -3.160  1.00  0.00    -0.496 OA
ATOM     38  C   UNL     1       7.215   4.246  -1.996  1.00  0.00     0.278 C 
ENDBRANCH   4  37
TORSDOF 10
ENDMDL
MODEL 2
REMARK minimizedAffinity -8.21172714
REMARK CNNscore 0.793787003
REMARK CNNaffinity 8.00703239
REMARK SMILES CC[C@@H](Cc1ccc(OC)c(CNC(=O)c2ccc([C@]34C[C@H]5C[C@H](C[C@H](C5)C3)C4)cc2F)c1)C(=O)O
REMARK SMILES IDX 5 1 6 2 7 3 8 4 11 5 33 6 4 7 3 8 2 9 1 10 34 11 35 12 36 13
REMARK SMILES IDX 12 15 13 16 14 17 15 18 16 20 17 21 31 22 18 23 30 24 19 25
REMARK SMILES IDX 32 26 20 27 28 28 29 29 21 30 26 31 24 32 22 33 27 34 25 35
REMARK SMILES IDX 23 36 9 37 10 38
REMARK H PARENT 36 14 13 19
ROOT
ATOM      1  C   UNL     1      12.893   0.948  -3.967  1.00  0.00    -0.047 A 
ATOM      2  C   UNL     1      12.157  -0.202  -3.672  1.00  0.00     0.007 A 
ATOM      3  C   UNL     1      10.773  -0.133  -3.475  1.00  0.00     0.047 A 
ATOM      4  C   UNL     1      10.101   1.089  -3.561  1.00  0.00     0.123 A 
ATOM      5  C   UNL     1      10.831   2.259  -3.835  1.00  0.00     0.014 A 
ATOM      6  C   UNL     1      12.220   2.173  -4.045  1.00  0.00     0.013 A 
ENDROOT
BRANCH   1   7
ATOM      7  C   UNL     1      14.382   0.874  -4.199  1.00  0.00     0.050 C 
BRANCH   7   8
ATOM      8  C   UNL     1      15.215   1.630  -3.147  1.00  0.00     0.103 C 
BRANCH   8   9
ATOM      9  C   UNL     1      16.286   0.740  -2.493  1.00  0.00     0.012 C 
ATOM     10  C   UNL     1      17.055   1.459  -1.391  1.00  0.00     0.005 C 
ENDBRANCH   8   9
BRANCH   8  11
ATOM     11  C   UNL     1      14.256   2.134  -2.093  1.00  0.00     0.306 C 
ATOM     12  O   UNL     1      13.602   1.455  -1.318  1.00  0.00    -0.252 OA
BRANCH  11  13
ATOM     13  O   UNL     1      14.179   3.477  -2.058  1.00  0.00    -0.481 OA
ATOM     14  H   UNL     1      13.535   3.665  -1.342  1.00  0.00     0.296 HD
ENDBRANCH  11  13
ENDBRANCH   8  11
ENDBRANCH   7   8
ENDBRANCH   1   7
BRANCH   5  15
ATOM     15  C   UNL     1      10.162   3.605  -3.953  1.00  0.00     0.156 C 
BRANCH  15  16
ATOM     16  N   UNL     1      10.396   4.183  -5.256  1.00  0.00    -0.348 N 
ATOM     17  C   UNL     1       9.404   4.317  -6.197  1.00  0.00     0.254 C 
ATOM     18  O   UNL     1       8.253   3.931  -6.012  1.00  0.00    -0.269 OA
ATOM     19  H   UNL     1      11.321   4.555  -5.432  1.00  0.00     0.164 HD
BRANCH  17  20
ATOM     20  C   UNL     1       9.767   4.961  -7.490  1.00  0.00     0.075 A 
ATOM     21  C   UNL     1      10.048   6.333  -7.497  1.00  0.00     0.017 A 
ATOM     22  C   UNL     1       9.830   4.272  -8.698  1.00  0.00     0.136 A 
ATOM     23  C   UNL     1      10.375   6.995  -8.689  1.00  0.00     0.005 A 
ATOM     24  C   UNL     1      10.156   4.930  -9.888  1.00  0.00     0.044 A 
ATOM     25  C   UNL     1      10.433   6.310  -9.913  1.00  0.00    -0.039 A 
ATOM     26  F   UNL     1       9.567   2.956  -8.765  1.00  0.00    -0.206 F 
BRANCH  25  27
ATOM     27  C   UNL     1      10.769   7.006 -11.243  1.00  0.00    -0.004 C 
ATOM     28  C   UNL     1      10.693   8.552 -11.076  1.00  0.00     0.015 C 
ATOM     29  C   UNL     1       9.811   6.622 -12.414  1.00  0.00     0.015 C 
ATOM     30  C   UNL     1      12.212   6.628 -11.691  1.00  0.00     0.015 C 
ATOM     31  C   UNL     1      11.086   9.272 -12.380  1.00  0.00    -0.010 C 
ATOM     32  C   UNL     1      10.196   7.341 -13.719  1.00  0.00    -0.010 C 
ATOM     33  C   UNL     1      12.601   7.354 -12.992  1.00  0.00    -0.010 C 
ATOM     34  C   UNL     1      12.518   8.872 -12.769  1.00  0.00     0.007 C 
ATOM     35  C   UNL     1      10.122   8.859 -13.500  1.00  0.00     0.007 C 
ATOM     36  C   UNL     1      11.629   6.949 -14.108  1.00  0.00     0.007 C 
ENDBRANCH  25  27
ENDBRANCH  17  20
ENDBRANCH  15  16
ENDBRANCH   5  15
BRANCH   4  37
ATOM     37  O   UNL     1       8.749   1.248  -3.405  1.00  0.00    -0.496 OA
ATOM     38  C   UNL     1       8.301   2.411  -2.722  1.00  0.00     0.278 C 
ENDBRANCH   4  37
TORSDOF 10
ENDMDL
MODEL 3
REMARK minimizedAffinity -7.1896224
REMARK CNNscore 0.752377987
REMARK CNNaffinity 7.88942957
REMARK SMILES CC[C@@H](Cc1ccc(OC)c(CNC(=O)c2ccc([C@]34C[C@H]5C[C@H](C[C@H](C5)C3)C4)cc2F)c1)C(=O)O
REMARK SMILES IDX 5 1 6 2 7 3 8 4 11 5 33 6 4 7 3 8 2 9 1 10 34 11 35 12 36 13
REMARK SMILES IDX 12 15 13 16 14 17 15 18 16 20 17 21 31 22 18 23 30 24 19 25
REMARK SMILES IDX 32 26 20 27 28 28 29 29 21 30 26 31 24 32 22 33 27 34 25 35
REMARK SMILES IDX 23 36 9 37 10 38
REMARK H PARENT 36 14 13 19
ROOT
ATOM      1  C   UNL     1      12.172   1.187  -2.777  1.00  0.00    -0.047 A 
ATOM      2  C   UNL     1      11.766  -0.057  -3.264  1.00  0.00     0.007 A 
ATOM      3  C   UNL     1      10.609  -0.176  -4.042  1.00  0.00     0.047 A 
ATOM      4  C   UNL     1       9.833   0.947  -4.341  1.00  0.00     0.123 A 
ATOM      5  C   UNL     1      10.217   2.203  -3.840  1.00  0.00     0.014 A 
ATOM      6  C   UNL     1      11.390   2.310  -3.070  1.00  0.00     0.013 A 
ENDROOT
BRANCH   1   7
ATOM      7  C   UNL     1      13.430   1.321  -1.953  1.00  0.00     0.050 C 
BRANCH   7   8
ATOM      8  C   UNL     1      14.490   2.246  -2.579  1.00  0.00     0.103 C 
BRANCH   8   9
ATOM      9  C   UNL     1      14.722   1.950  -4.071  1.00  0.00     0.012 C 
ATOM     10  C   UNL     1      14.888   0.463  -4.357  1.00  0.00     0.005 C 
ENDBRANCH   8   9
BRANCH   8  11
ATOM     11  C   UNL     1      15.775   2.040  -1.812  1.00  0.00     0.306 C 
ATOM     12  O   UNL     1      16.322   0.974  -1.578  1.00  0.00    -0.252 OA
BRANCH  11  13
ATOM     13  O   UNL     1      16.319   3.195  -1.385  1.00  0.00    -0.481 OA
ATOM     14  H   UNL     1      17.133   2.920  -0.913  1.00  0.00     0.296 HD
ENDBRANCH  11  13
ENDBRANCH   8  11
ENDBRANCH   7   8
ENDBRANCH   1   7
BRANCH   5  15
ATOM     15  C   UNL     1       9.428   3.454  -4.138  1.00  0.00     0.156 C 
BRANCH  15  16
ATOM     16  N   UNL     1       9.816   4.014  -5.411  1.00  0.00    -0.348 N 
ATOM     17  C   UNL     1       8.937   4.691  -6.223  1.00  0.00     0.254 C 
ATOM     18  O   UNL     1       7.752   4.845  -5.940  1.00  0.00    -0.269 OA
ATOM     19  H   UNL     1      10.795   3.948  -5.662  1.00  0.00     0.164 HD
BRANCH  17  20
ATOM     20  C   UNL     1       9.471   5.250  -7.496  1.00  0.00     0.075 A 
ATOM     21  C   UNL     1       9.722   6.626  -7.566  1.00  0.00     0.017 A 
ATOM     22  C   UNL     1       9.719   4.478  -8.627  1.00  0.00     0.136 A 
ATOM     23  C   UNL     1      10.205   7.209  -8.747  1.00  0.00     0.005 A 
ATOM     24  C   UNL     1      10.201   5.058  -9.804  1.00  0.00     0.044 A 
ATOM     25  C   UNL     1      10.452   6.440  -9.895  1.00  0.00    -0.039 A 
ATOM     26  F   UNL     1       9.495   3.154  -8.631  1.00  0.00    -0.206 F 
BRANCH  25  27
ATOM     27  C   UNL     1      10.963   7.048 -11.212  1.00  0.00    -0.004 C 
ATOM     28  C   UNL     1      10.073   6.579 -12.402  1.00  0.00     0.015 C 
ATOM     29  C   UNL     1      12.433   6.657 -11.557  1.00  0.00     0.015 C 
ATOM     30  C   UNL     1      10.908   8.603 -11.137  1.00  0.00     0.015 C 
ATOM     31  C   UNL     1      10.528   7.224 -13.724  1.00  0.00    -0.010 C 
ATOM     32  C   UNL     1      12.894   7.295 -12.879  1.00  0.00    -0.010 C 
ATOM     33  C   UNL     1      11.360   9.241 -12.463  1.00  0.00    -0.010 C 
ATOM     34  C   UNL     1      10.445   8.754 -13.598  1.00  0.00     0.007 C 
ATOM     35  C   UNL     1      11.979   6.817 -14.016  1.00  0.00     0.007 C 
ATOM     36  C   UNL     1      12.806   8.824 -12.760  1.00  0.00     0.007 C 
ENDBRANCH  25  27
ENDBRANCH  17  20
ENDBRANCH  15  16
ENDBRANCH   5  15
BRANCH   4  37
ATOM     37  O   UNL     1       8.700   0.929  -5.113  1.00  0.00    -0.496 OA
ATOM     38  C   UNL     1       8.506   2.009  -6.015  1.00  0.00     0.278 C 
ENDBRANCH   4  37
TORSDOF 10
ENDMDL
MODEL 4
REMARK minimizedAffinity -6.99406385
REMARK CNNscore 0.726011217
REMARK CNNaffinity 7.64967871
REMARK SMILES CC[C@@H](Cc1ccc(OC)c(CNC(=O)c2ccc([C@]34C[C@H]5C[C@H](C[C@H](C5)C3)C4)cc2F)c1)C(=O)O
REMARK SMILES IDX 5 1 6 2 7 3 8 4 11 5 33 6 4 7 3 8 2 9 1 10 34 11 35 12 36 13
REMARK SMILES IDX 12 15 13 16 14 17 15 18 16 20 17 21 31 22 18 23 30 24 19 25
REMARK SMILES IDX 32 26 20 27 28 28 29 29 21 30 26 31 24 32 22 33 27 34 25 35
REMARK SMILES IDX 23 36 9 37 10 38
REMARK H PARENT 36 14 13 19
ROOT
ATOM      1  C   UNL     1      12.997   0.959  -3.852  1.00  0.00    -0.047 A 
ATOM      2  C   UNL     1      12.233  -0.210  -3.843  1.00  0.00     0.007 A 
ATOM      3  C   UNL     1      10.835  -0.149  -3.854  1.00  0.00     0.047 A 
ATOM      4  C   UNL     1      10.175   1.082  -3.867  1.00  0.00     0.123 A 
ATOM      5  C   UNL     1      10.930   2.268  -3.854  1.00  0.00     0.014 A 
ATOM      6  C   UNL     1      12.335   2.193  -3.856  1.00  0.00     0.013 A 
ENDROOT
BRANCH   1   7
ATOM      7  C   UNL     1      14.505   0.897  -3.859  1.00  0.00     0.050 C 
BRANCH   7   8
ATOM      8  C   UNL     1      15.171   1.811  -2.813  1.00  0.00     0.103 C 
BRANCH   8   9
ATOM      9  C   UNL     1      16.592   1.350  -2.449  1.00  0.00     0.012 C 
ATOM     10  C   UNL     1      17.101   1.977  -1.156  1.00  0.00     0.005 C 
ENDBRANCH   8   9
BRANCH   8  11
ATOM     11  C   UNL     1      14.296   1.795  -1.581  1.00  0.00     0.306 C 
ATOM     12  O   UNL     1      13.584   0.879  -1.205  1.00  0.00    -0.252 OA
BRANCH  11  13
ATOM     13  O   UNL     1      14.373   2.936  -0.872  1.00  0.00    -0.481 OA
ATOM     14  H   UNL     1      13.770   2.792  -0.113  1.00  0.00     0.296 HD
ENDBRANCH  11  13
ENDBRANCH   8  11
ENDBRANCH   7   8
ENDBRANCH   1   7
BRANCH   5  15
ATOM     15  C   UNL     1      10.277   3.628  -3.879  1.00  0.00     0.156 C 
BRANCH  15  16
ATOM     16  N   UNL     1      10.450   4.257  -5.168  1.00  0.00    -0.348 N 
ATOM     17  C   UNL     1       9.435   4.356  -6.088  1.00  0.00     0.254 C 
ATOM     18  O   UNL     1       8.315   3.893  -5.897  1.00  0.00    -0.269 OA
ATOM     19  H   UNL     1      11.348   4.691  -5.347  1.00  0.00     0.164 HD
BRANCH  17  20
ATOM     20  C   UNL     1       9.735   5.060  -7.367  1.00  0.00     0.075 A 
ATOM     21  C   UNL     1      10.581   4.433  -8.291  1.00  0.00     0.017 A 
ATOM     22  C   UNL     1       9.229   6.316  -7.687  1.00  0.00     0.136 A 
ATOM     23  C   UNL     1      10.914   5.059  -9.501  1.00  0.00     0.005 A 
ATOM     24  C   UNL     1       9.559   6.941  -8.893  1.00  0.00     0.044 A 
ATOM     25  C   UNL     1      10.414   6.329  -9.829  1.00  0.00    -0.039 A 
ATOM     26  F   UNL     1       8.417   6.976  -6.844  1.00  0.00    -0.206 F 
BRANCH  25  27
ATOM     27  C   UNL     1      10.773   7.055 -11.137  1.00  0.00    -0.004 C 
ATOM     28  C   UNL     1       9.808   6.615 -12.278  1.00  0.00     0.015 C 
ATOM     29  C   UNL     1      12.226   6.777 -11.632  1.00  0.00     0.015 C 
ATOM     30  C   UNL     1      10.641   8.595 -10.945  1.00  0.00     0.015 C 
ATOM     31  C   UNL     1      10.108   7.374 -13.583  1.00  0.00    -0.010 C 
ATOM     32  C   UNL     1      12.532   7.530 -12.939  1.00  0.00    -0.010 C 
ATOM     33  C   UNL     1      10.938   9.348 -12.254  1.00  0.00    -0.010 C 
ATOM     34  C   UNL     1       9.954   8.884 -13.340  1.00  0.00     0.007 C 
ATOM     35  C   UNL     1      11.547   7.076 -14.026  1.00  0.00     0.007 C 
ATOM     36  C   UNL     1      12.373   9.039 -12.702  1.00  0.00     0.007 C 
ENDBRANCH  25  27
ENDBRANCH  17  20
ENDBRANCH  15  16
ENDBRANCH   5  15
BRANCH   4  37
ATOM     37  O   UNL     1       8.813   1.237  -3.901  1.00  0.00    -0.496 OA
ATOM     38  C   UNL     1       8.179   1.712  -2.721  1.00  0.00     0.278 C 
ENDBRANCH   4  37
TORSDOF 10
ENDMDL
MODEL 5
REMARK minimizedAffinity -4.25934601
REMARK CNNscore 0.65680939
REMARK CNNaffinity 7.45643091
REMARK SMILES CC[C@@H](Cc1ccc(OC)c(CNC(=O)c2ccc([C@]34C[C@H]5C[C@H](C[C@H](C5)C3)C4)cc2F)c1)C(=O)O
REMARK SMILES IDX 5 1 6 2 7 3 8 4 11 5 33 6 4 7 3 8 2 9 1 10 34 11 35 12 36 13
REMARK SMILES IDX 12 15 13 16 14 17 15 18 16 20 17 21 31 22 18 23 30 24 19 25
REMARK SMILES IDX 32 26 20 27 28 28 29 29 21 30 26 31 24 32 22 33 27 34 25 35
REMARK SMILES IDX 23 36 9 37 10 38
REMARK H PARENT 36 14 13 19
ROOT
ATOM      1  C   UNL     1       9.768   2.404  -4.404  1.00  0.00    -0.047 A 
ATOM      2  C   UNL     1      10.106   1.649  -5.529  1.00  0.00     0.007 A 
ATOM      3  C   UNL     1       9.707   2.055  -6.808  1.00  0.00     0.047 A 
ATOM      4  C   UNL     1       8.957   3.221  -6.983  1.00  0.00     0.123 A 
ATOM      5  C   UNL     1       8.590   3.980  -5.858  1.00  0.00     0.014 A 
ATOM      6  C   UNL     1       9.009   3.567  -4.580  1.00  0.00     0.013 A 
ENDROOT
BRANCH   1   7
ATOM      7  C   UNL     1      10.212   1.978  -3.026  1.00  0.00     0.050 C 
BRANCH   7   8
ATOM      8  C   UNL     1      11.712   1.643  -2.930  1.00  0.00     0.103 C 
BRANCH   8   9
ATOM      9  C   UNL     1      12.131   0.533  -3.909  1.00  0.00     0.012 C 
ATOM     10  C   UNL     1      13.544   0.724  -4.446  1.00  0.00     0.005 C 
ENDBRANCH   8   9
BRANCH   8  11
ATOM     11  C   UNL     1      11.984   1.202  -1.510  1.00  0.00     0.306 C 
ATOM     12  O   UNL     1      12.949   0.567  -1.117  1.00  0.00    -0.252 OA
BRANCH  11  13
ATOM     13  O   UNL     1      11.029   1.598  -0.649  1.00  0.00    -0.481 OA
ATOM     14  H   UNL     1      11.328   1.254   0.219  1.00  0.00     0.296 HD
ENDBRANCH  11  13
ENDBRANCH   8  11
ENDBRANCH   7   8
ENDBRANCH   1   7
BRANCH   5  15
ATOM     15  C   UNL     1       7.792   5.254  -5.983  1.00  0.00     0.156 C 
BRANCH  15  16
ATOM     16  N   UNL     1       8.233   6.027  -7.121  1.00  0.00    -0.348 N 
ATOM     17  C   UNL     1       9.560   6.240  -7.404  1.00  0.00     0.254 C 
ATOM     18  O   UNL     1      10.469   5.814  -6.698  1.00  0.00    -0.269 OA
ATOM     19  H   UNL     1       7.515   6.359  -7.754  1.00  0.00     0.164 HD
BRANCH  17  20
ATOM     20  C   UNL     1       9.882   7.027  -8.628  1.00  0.00     0.075 A 
ATOM     21  C   UNL     1       9.472   8.365  -8.687  1.00  0.00     0.017 A 
ATOM     22  C   UNL     1      10.559   6.499  -9.722  1.00  0.00     0.136 A 
ATOM     23  C   UNL     1       9.730   9.147  -9.823  1.00  0.00     0.005 A 
ATOM     24  C   UNL     1      10.818   7.276 -10.855  1.00  0.00     0.044 A 
ATOM     25  C   UNL     1      10.405   8.620 -10.935  1.00  0.00    -0.039 A 
ATOM     26  F   UNL     1      10.977   5.221  -9.735  1.00  0.00    -0.206 F 
BRANCH  25  27
ATOM     27  C   UNL     1      10.689   9.440 -12.205  1.00  0.00    -0.004 C 
ATOM     28  C   UNL     1      11.202   8.510 -13.344  1.00  0.00     0.015 C 
ATOM     29  C   UNL     1      11.760  10.557 -12.006  1.00  0.00     0.015 C 
ATOM     30  C   UNL     1       9.384  10.139 -12.689  1.00  0.00     0.015 C 
ATOM     31  C   UNL     1      11.435   9.300 -14.645  1.00  0.00    -0.010 C 
ATOM     32  C   UNL     1      12.000  11.349 -13.303  1.00  0.00    -0.010 C 
ATOM     33  C   UNL     1       9.621  10.924 -13.992  1.00  0.00    -0.010 C 
ATOM     34  C   UNL     1      10.116   9.960 -15.081  1.00  0.00     0.007 C 
ATOM     35  C   UNL     1      12.488  10.389 -14.397  1.00  0.00     0.007 C 
ATOM     36  C   UNL     1      10.684  12.004 -13.747  1.00  0.00     0.007 C 
ENDBRANCH  25  27
ENDBRANCH  17  20
ENDBRANCH  15  16
ENDBRANCH   5  15
BRANCH   4  37
ATOM     37  O   UNL     1       8.543   3.707  -8.197  1.00  0.00    -0.496 OA
ATOM     38  C   UNL     1       9.159   3.170  -9.360  1.00  0.00     0.278 C 
ENDBRANCH   4  37
TORSDOF 10
ENDMDL
MODEL 6
REMARK minimizedAffinity -7.87021732
REMARK CNNscore 0.624248505
REMARK CNNaffinity 7.64836264
REMARK SMILES CC[C@@H](Cc1ccc(OC)c(CNC(=O)c2ccc([C@]34C[C@H]5C[C@H](C[C@H](C5)C3)C4)cc2F)c1)C(=O)O
REMARK SMILES IDX 5 1 6 2 7 3 8 4 11 5 33 6 4 7 3 8 2 9 1 10 34 11 35 12 36 13
REMARK SMILES IDX 12 15 13 16 14 17 15 18 16 20 17 21 31 22 18 23 30 24 19 25
REMARK SMILES IDX 32 26 20 27 28 28 29 29 21 30 26 31 24 32 22 33 27 34 25 35
REMARK SMILES IDX 23 36 9 37 10 38
REMARK H PARENT 36 14 13 19
ROOT
ATOM      1  C   UNL     1      10.216   2.633  -3.559  1.00  0.00    -0.047 A 
ATOM      2  C   UNL     1       9.327   3.520  -2.947  1.00  0.00     0.007 A 
ATOM      3  C   UNL     1       8.310   4.134  -3.687  1.00  0.00     0.047 A 
ATOM      4  C   UNL     1       8.168   3.878  -5.053  1.00  0.00     0.123 A 
ATOM      5  C   UNL     1       9.069   3.004  -5.687  1.00  0.00     0.014 A 
ATOM      6  C   UNL     1      10.079   2.383  -4.929  1.00  0.00     0.013 A 
ENDROOT
BRANCH   1   7
ATOM      7  C   UNL     1      11.303   1.955  -2.760  1.00  0.00     0.050 C 
BRANCH   7   8
ATOM      8  C   UNL     1      12.628   1.790  -3.526  1.00  0.00     0.103 C 
BRANCH   8   9
ATOM      9  C   UNL     1      12.733   0.428  -4.233  1.00  0.00     0.012 C 
ATOM     10  C   UNL     1      11.646  -0.547  -3.798  1.00  0.00     0.005 C 
ENDBRANCH   8   9
BRANCH   8  11
ATOM     11  C   UNL     1      13.749   1.932  -2.522  1.00  0.00     0.306 C 
ATOM     12  O   UNL     1      14.112   1.095  -1.712  1.00  0.00    -0.252 OA
BRANCH  11  13
ATOM     13  O   UNL     1      14.369   3.124  -2.599  1.00  0.00    -0.481 OA
ATOM     14  H   UNL     1      15.062   3.082  -1.907  1.00  0.00     0.296 HD
ENDBRANCH  11  13
ENDBRANCH   8  11
ENDBRANCH   7   8
ENDBRANCH   1   7
BRANCH   5  15
ATOM     15  C   UNL     1       8.960   2.677  -7.156  1.00  0.00     0.156 C 
BRANCH  15  16
ATOM     16  N   UNL     1       9.265   3.834  -7.964  1.00  0.00    -0.348 N 
ATOM     17  C   UNL     1       9.890   3.743  -9.184  1.00  0.00     0.254 C 
ATOM     18  O   UNL     1      10.260   2.676  -9.666  1.00  0.00    -0.269 OA
ATOM     19  H   UNL     1       8.937   4.730  -7.624  1.00  0.00     0.164 HD
BRANCH  17  20
ATOM     20  C   UNL     1      10.118   5.010  -9.935  1.00  0.00     0.075 A 
ATOM     21  C   UNL     1      10.136   6.214  -9.221  1.00  0.00     0.017 A 
ATOM     22  C   UNL     1      10.301   5.061 -11.313  1.00  0.00     0.136 A 
ATOM     23  C   UNL     1      10.325   7.438  -9.879  1.00  0.00     0.005 A 
ATOM     24  C   UNL     1      10.490   6.279 -11.972  1.00  0.00     0.044 A 
ATOM     25  C   UNL     1      10.502   7.500 -11.270  1.00  0.00    -0.039 A 
ATOM     26  F   UNL     1      10.289   3.944 -12.061  1.00  0.00    -0.206 F 
BRANCH  25  27
ATOM     27  C   UNL     1      10.693   8.825 -12.029  1.00  0.00    -0.004 C 
ATOM     28  C   UNL     1      11.900   8.716 -13.007  1.00  0.00     0.015 C 
ATOM     29  C   UNL     1      10.964  10.048 -11.100  1.00  0.00     0.015 C 
ATOM     30  C   UNL     1       9.415   9.153 -12.856  1.00  0.00     0.015 C 
ATOM     31  C   UNL     1      12.073  10.010 -13.823  1.00  0.00    -0.010 C 
ATOM     32  C   UNL     1      11.142  11.345 -11.908  1.00  0.00    -0.010 C 
ATOM     33  C   UNL     1       9.595  10.445 -13.672  1.00  0.00    -0.010 C 
ATOM     34  C   UNL     1      10.790  10.280 -14.625  1.00  0.00     0.007 C 
ATOM     35  C   UNL     1      12.330  11.183 -12.868  1.00  0.00     0.007 C 
ATOM     36  C   UNL     1       9.865  11.615 -12.717  1.00  0.00     0.007 C 
ENDBRANCH  25  27
ENDBRANCH  17  20
ENDBRANCH  15  16
ENDBRANCH   5  15
BRANCH   4  37
ATOM     37  O   UNL     1       7.190   4.415  -5.850  1.00  0.00    -0.496 OA
ATOM     38  C   UNL     1       7.396   5.733  -6.339  1.00  0.00     0.278 C 
ENDBRANCH   4  37
TORSDOF 10
ENDMDL
MODEL 7
REMARK minimizedAffinity -8.61497307
REMARK CNNscore 0.460837781
REMARK CNNaffinity 7.32826996
REMARK SMILES CC[C@@H](Cc1ccc(OC)c(CNC(=O)c2ccc([C@]34C[C@H]5C[C@H](C[C@H](C5)C3)C4)cc2F)c1)C(=O)O
REMARK SMILES IDX 5 1 6 2 7 3 8 4 11 5 33 6 4 7 3 8 2 9 1 10 34 11 35 12 36 13
REMARK SMILES IDX 12 15 13 16 14 17 15 18 16 20 17 21 31 22 18 23 30 24 19 25
REMARK SMILES IDX 32 26 20 27 28 28 29 29 21 30 26 31 24 32 22 33 27 34 25 35
REMARK SMILES IDX 23 36 9 37 10 38
REMARK H PARENT 36 14 13 19
ROOT
ATOM      1  C   UNL     1      10.417   2.511  -3.504  1.00  0.00    -0.047 A 
ATOM      2  C   UNL     1       9.508   3.354  -2.861  1.00  0.00     0.007 A 
ATOM      3  C   UNL     1       8.467   3.958  -3.575  1.00  0.00     0.047 A 
ATOM      4  C   UNL     1       8.321   3.735  -4.947  1.00  0.00     0.123 A 
ATOM      5  C   UNL     1       9.242   2.907  -5.612  1.00  0.00     0.014 A 
ATOM      6  C   UNL     1      10.276   2.295  -4.879  1.00  0.00     0.013 A 
ENDROOT
BRANCH   1   7
ATOM      7  C   UNL     1      11.530   1.844  -2.732  1.00  0.00     0.050 C 
BRANCH   7   8
ATOM      8  C   UNL     1      12.895   1.889  -3.444  1.00  0.00     0.103 C 
BRANCH   8   9
ATOM      9  C   UNL     1      13.178   0.615  -4.258  1.00  0.00     0.012 C 
ATOM     10  C   UNL     1      14.619   0.536  -4.746  1.00  0.00     0.005 C 
ENDBRANCH   8   9
BRANCH   8  11
ATOM     11  C   UNL     1      13.952   2.059  -2.377  1.00  0.00     0.306 C 
ATOM     12  O   UNL     1      14.280   1.235  -1.539  1.00  0.00    -0.252 OA
BRANCH  11  13
ATOM     13  O   UNL     1      14.557   3.260  -2.428  1.00  0.00    -0.481 OA
ATOM     14  H   UNL     1      15.209   3.235  -1.696  1.00  0.00     0.296 HD
ENDBRANCH  11  13
ENDBRANCH   8  11
ENDBRANCH   7   8
ENDBRANCH   1   7
BRANCH   5  15
ATOM     15  C   UNL     1       9.130   2.618  -7.088  1.00  0.00     0.156 C 
BRANCH  15  16
ATOM     16  N   UNL     1       9.378   3.809  -7.866  1.00  0.00    -0.348 N 
ATOM     17  C   UNL     1       9.873   3.770  -9.147  1.00  0.00     0.254 C 
ATOM     18  O   UNL     1      10.168   2.723  -9.716  1.00  0.00    -0.269 OA
ATOM     19  H   UNL     1       9.106   4.692  -7.449  1.00  0.00     0.164 HD
BRANCH  17  20
ATOM     20  C   UNL     1      10.051   5.070  -9.854  1.00  0.00     0.075 A 
ATOM     21  C   UNL     1       9.953   5.088 -11.250  1.00  0.00     0.017 A 
ATOM     22  C   UNL     1      10.325   6.266  -9.198  1.00  0.00     0.136 A 
ATOM     23  C   UNL     1      10.133   6.280 -11.968  1.00  0.00     0.005 A 
ATOM     24  C   UNL     1      10.504   7.455  -9.912  1.00  0.00     0.044 A 
ATOM     25  C   UNL     1      10.417   7.490 -11.316  1.00  0.00    -0.039 A 
ATOM     26  F   UNL     1      10.439   6.320  -7.860  1.00  0.00    -0.206 F 
BRANCH  25  27
ATOM     27  C   UNL     1      10.640   8.812 -12.071  1.00  0.00    -0.004 C 
ATOM     28  C   UNL     1      11.809   8.661 -13.088  1.00  0.00     0.015 C 
ATOM     29  C   UNL     1      10.991  10.015 -11.142  1.00  0.00     0.015 C 
ATOM     30  C   UNL     1       9.351   9.200 -12.855  1.00  0.00     0.015 C 
ATOM     31  C   UNL     1      12.011   9.954 -13.900  1.00  0.00    -0.010 C 
ATOM     32  C   UNL     1      11.198  11.311 -11.947  1.00  0.00    -0.010 C 
ATOM     33  C   UNL     1       9.560  10.491 -13.668  1.00  0.00    -0.010 C 
ATOM     34  C   UNL     1      10.716  10.284 -14.659  1.00  0.00     0.007 C 
ATOM     35  C   UNL     1      12.347  11.107 -12.945  1.00  0.00     0.007 C 
ATOM     36  C   UNL     1       9.908  11.641 -12.713  1.00  0.00     0.007 C 
ENDBRANCH  25  27
ENDBRANCH  17  20
ENDBRANCH  15  16
ENDBRANCH   5  15
BRANCH   4  37
ATOM     37  O   UNL     1       7.321   4.265  -5.721  1.00  0.00    -0.496 OA
ATOM     38  C   UNL     1       7.603   5.471  -6.418  1.00  0.00     0.278 C 
ENDBRANCH   4  37
TORSDOF 10
ENDMDL
MODEL 8
REMARK minimizedAffinity -8.21720695
REMARK CNNscore 0.408495277
REMARK CNNaffinity 7.44597435
REMARK SMILES CC[C@@H](Cc1ccc(OC)c(CNC(=O)c2ccc([C@]34C[C@H]5C[C@H](C[C@H](C5)C3)C4)cc2F)c1)C(=O)O
REMARK SMILES IDX 5 1 6 2 7 3 8 4 11 5 33 6 4 7 3 8 2 9 1 10 34 11 35 12 36 13
REMARK SMILES IDX 12 15 13 16 14 17 15 18 16 20 17 21 31 22 18 23 30 24 19 25
REMARK SMILES IDX 32 26 20 27 28 28 29 29 21 30 26 31 24 32 22 33 27 34 25 35
REMARK SMILES IDX 23 36 9 37 10 38
REMARK H PARENT 36 14 13 19
ROOT
ATOM      1  C   UNL     1       6.358   4.963  -4.753  1.00  0.00    -0.047 A 
ATOM      2  C   UNL     1       6.426   4.722  -3.379  1.00  0.00     0.007 A 
ATOM      3  C   UNL     1       7.526   4.059  -2.824  1.00  0.00     0.047 A 
ATOM      4  C   UNL     1       8.576   3.618  -3.634  1.00  0.00     0.123 A 
ATOM      5  C   UNL     1       8.511   3.833  -5.022  1.00  0.00     0.014 A 
ATOM      6  C   UNL     1       7.406   4.513  -5.566  1.00  0.00     0.013 A 
ENDROOT
BRANCH   1   7
ATOM      7  C   UNL     1       5.181   5.693  -5.353  1.00  0.00     0.050 C 
BRANCH   7   8
ATOM      8  C   UNL     1       4.942   7.090  -4.750  1.00  0.00     0.103 C 
BRANCH   8   9
ATOM      9  C   UNL     1       3.518   7.256  -4.195  1.00  0.00     0.012 C 
ATOM     10  C   UNL     1       3.032   6.024  -3.441  1.00  0.00     0.005 C 
ENDBRANCH   8   9
BRANCH   8  11
ATOM     11  C   UNL     1       5.184   8.100  -5.848  1.00  0.00     0.306 C 
ATOM     12  O   UNL     1       6.265   8.532  -6.215  1.00  0.00    -0.252 OA
BRANCH  11  13
ATOM     13  O   UNL     1       4.047   8.510  -6.440  1.00  0.00    -0.481 OA
ATOM     14  H   UNL     1       4.345   9.149  -7.121  1.00  0.00     0.296 HD
ENDBRANCH  11  13
ENDBRANCH   8  11
ENDBRANCH   7   8
ENDBRANCH   1   7
BRANCH   5  15
ATOM     15  C   UNL     1       9.618   3.392  -5.947  1.00  0.00     0.156 C 
BRANCH  15  16
ATOM     16  N   UNL     1       9.879   4.397  -6.952  1.00  0.00    -0.348 N 
ATOM     17  C   UNL     1       9.729   4.158  -8.297  1.00  0.00     0.254 C 
ATOM     18  O   UNL     1       9.389   3.068  -8.746  1.00  0.00    -0.269 OA
ATOM     19  H   UNL     1      10.119   5.323  -6.621  1.00  0.00     0.164 HD
BRANCH  17  20
ATOM     20  C   UNL     1       9.998   5.289  -9.228  1.00  0.00     0.075 A 
ATOM     21  C   UNL     1      10.077   6.584  -8.700  1.00  0.00     0.017 A 
ATOM     22  C   UNL     1      10.163   5.129 -10.600  1.00  0.00     0.136 A 
ATOM     23  C   UNL     1      10.308   7.688  -9.534  1.00  0.00     0.005 A 
ATOM     24  C   UNL     1      10.393   6.228 -11.433  1.00  0.00     0.044 A 
ATOM     25  C   UNL     1      10.467   7.537 -10.920  1.00  0.00    -0.039 A 
ATOM     26  F   UNL     1      10.094   3.916 -11.175  1.00  0.00    -0.206 F 
BRANCH  25  27
ATOM     27  C   UNL     1      10.701   8.725 -11.868  1.00  0.00    -0.004 C 
ATOM     28  C   UNL     1      12.006   8.509 -12.691  1.00  0.00     0.015 C 
ATOM     29  C   UNL     1      10.843  10.096 -11.135  1.00  0.00     0.015 C 
ATOM     30  C   UNL     1       9.508   8.858 -12.860  1.00  0.00     0.015 C 
ATOM     31  C   UNL     1      12.230   9.658 -13.691  1.00  0.00    -0.010 C 
ATOM     32  C   UNL     1      11.070  11.249 -12.129  1.00  0.00    -0.010 C 
ATOM     33  C   UNL     1       9.739  10.005 -13.860  1.00  0.00    -0.010 C 
ATOM     34  C   UNL     1      11.031   9.737 -14.650  1.00  0.00     0.007 C 
ATOM     35  C   UNL     1      12.355  10.982 -12.925  1.00  0.00     0.007 C 
ATOM     36  C   UNL     1       9.878  11.327 -13.093  1.00  0.00     0.007 C 
ENDBRANCH  25  27
ENDBRANCH  17  20
ENDBRANCH  15  16
ENDBRANCH   5  15
BRANCH   4  37
ATOM     37  O   UNL     1       9.700   2.983  -3.176  1.00  0.00    -0.496 OA
ATOM     38  C   UNL     1       9.644   1.569  -3.044  1.00  0.00     0.278 C 
ENDBRANCH   4  37
TORSDOF 10
ENDMDL
MODEL 9
REMARK minimizedAffinity -8.54210854
REMARK CNNscore 0.378018796
REMARK CNNaffinity 7.29872894
REMARK SMILES CC[C@@H](Cc1ccc(OC)c(CNC(=O)c2ccc([C@]34C[C@H]5C[C@H](C[C@H](C5)C3)C4)cc2F)c1)C(=O)O
REMARK SMILES IDX 5 1 6 2 7 3 8 4 11 5 33 6 4 7 3 8 2 9 1 10 34 11 35 12 36 13
REMARK SMILES IDX 12 15 13 16 14 17 15 18 16 20 17 21 31 22 18 23 30 24 19 25
REMARK SMILES IDX 32 26 20 27 28 28 29 29 21 30 26 31 24 32 22 33 27 34 25 35
REMARK SMILES IDX 23 36 9 37 10 38
REMARK H PARENT 36 14 13 19
ROOT
ATOM      1  C   UNL     1       9.940   2.517  -3.610  1.00  0.00    -0.047 A 
ATOM      2  C   UNL     1       9.039   3.462  -3.114  1.00  0.00     0.007 A 
ATOM      3  C   UNL     1       8.183   4.154  -3.978  1.00  0.00     0.047 A 
ATOM      4  C   UNL     1       8.219   3.920  -5.355  1.00  0.00     0.123 A 
ATOM      5  C   UNL     1       9.135   2.988  -5.871  1.00  0.00     0.014 A 
ATOM      6  C   UNL     1       9.981   2.289  -4.990  1.00  0.00     0.013 A 
ENDROOT
BRANCH   1   7
ATOM      7  C   UNL     1      10.851   1.755  -2.679  1.00  0.00     0.050 C 
BRANCH   7   8
ATOM      8  C   UNL     1      12.133   1.229  -3.352  1.00  0.00     0.103 C 
BRANCH   8   9
ATOM      9  C   UNL     1      12.139  -0.302  -3.491  1.00  0.00     0.012 C 
ATOM     10  C   UNL     1      10.932  -0.829  -4.258  1.00  0.00     0.005 C 
ENDBRANCH   8   9
BRANCH   8  11
ATOM     11  C   UNL     1      13.301   1.671  -2.502  1.00  0.00     0.306 C 
ATOM     12  O   UNL     1      13.863   1.015  -1.639  1.00  0.00    -0.252 OA
BRANCH  11  13
ATOM     13  O   UNL     1      13.714   2.919  -2.790  1.00  0.00    -0.481 OA
ATOM     14  H   UNL     1      14.465   3.073  -2.177  1.00  0.00     0.296 HD
ENDBRANCH  11  13
ENDBRANCH   8  11
ENDBRANCH   7   8
ENDBRANCH   1   7
BRANCH   5  15
ATOM     15  C   UNL     1       9.213   2.682  -7.346  1.00  0.00     0.156 C 
BRANCH  15  16
ATOM     16  N   UNL     1       9.402   3.891  -8.114  1.00  0.00    -0.348 N 
ATOM     17  C   UNL     1      10.012   3.901  -9.345  1.00  0.00     0.254 C 
ATOM     18  O   UNL     1      10.464   2.889  -9.873  1.00  0.00    -0.269 OA
ATOM     19  H   UNL     1       9.004   4.741  -7.734  1.00  0.00     0.164 HD
BRANCH  17  20
ATOM     20  C   UNL     1      10.115   5.210 -10.049  1.00  0.00     0.075 A 
ATOM     21  C   UNL     1       9.997   5.229 -11.444  1.00  0.00     0.017 A 
ATOM     22  C   UNL     1      10.337   6.417  -9.392  1.00  0.00     0.136 A 
ATOM     23  C   UNL     1      10.107   6.430 -12.159  1.00  0.00     0.005 A 
ATOM     24  C   UNL     1      10.447   7.615 -10.104  1.00  0.00     0.044 A 
ATOM     25  C   UNL     1      10.339   7.651 -11.507  1.00  0.00    -0.039 A 
ATOM     26  F   UNL     1      10.466   6.471  -8.056  1.00  0.00    -0.206 F 
BRANCH  25  27
ATOM     27  C   UNL     1      10.485   8.985 -12.259  1.00  0.00    -0.004 C 
ATOM     28  C   UNL     1      11.179  10.042 -11.350  1.00  0.00     0.015 C 
ATOM     29  C   UNL     1       9.127   9.597 -12.723  1.00  0.00     0.015 C 
ATOM     30  C   UNL     1      11.355   8.783 -13.535  1.00  0.00     0.015 C 
ATOM     31  C   UNL     1      11.391  11.368 -12.103  1.00  0.00    -0.010 C 
ATOM     32  C   UNL     1       9.331  10.925 -13.473  1.00  0.00    -0.010 C 
ATOM     33  C   UNL     1      11.567  10.113 -14.281  1.00  0.00    -0.010 C 
ATOM     34  C   UNL     1      12.262  11.114 -13.344  1.00  0.00     0.007 C 
ATOM     35  C   UNL     1      10.031  11.927 -12.544  1.00  0.00     0.007 C 
ATOM     36  C   UNL     1      10.206  10.677 -14.710  1.00  0.00     0.007 C 
ENDBRANCH  25  27
ENDBRANCH  17  20
ENDBRANCH  15  16
ENDBRANCH   5  15
BRANCH   4  37
ATOM     37  O   UNL     1       7.404   4.533  -6.271  1.00  0.00    -0.496 OA
ATOM     38  C   UNL     1       6.265   5.223  -5.775  1.00  0.00     0.278 C 
ENDBRANCH   4  37
TORSDOF 10
ENDMDL
