MODEL 6
REMARK VINA RESULT:    -8.365      3.295      4.197
REMARK INTER + INTRA:         -13.466
REMARK INTER:                 -12.250
REMARK INTRA:                  -1.217
REMARK UNBOUND:                -0.701
REMARK SMILES COc1ccc(Nc2ncc([C@H](O)c3ccc(S(=O)(=O)N(C)C)cc3)cc2-c2nc(C)nc(N)n2)cn1
REMARK SMILES IDX 8 1 9 2 10 3 11 4 26 5 27 6 7 7 6 9 3 10 37 11 4 12 36 13
REMARK SMILES IDX 5 14 2 15 1 16 28 17 35 18 29 19 33 20 30 21 32 22 31 23
REMARK SMILES IDX 34 24 12 27 13 28 14 30 25 31 15 32 24 33 16 34 17 35 18 36
REMARK SMILES IDX 19 37 20 38 21 39 22 40 23 41
REMARK H PARENT 7 8 34 25 34 26 13 29
ROOT
ATOM      1  C   UNL     1      50.174  -0.996 -45.002  1.00  0.00     0.141 A 
ATOM      2  N   UNL     1      50.130  -1.111 -43.648  1.00  0.00    -0.238 NA
ATOM      3  C   UNL     1      49.062  -1.702 -43.065  1.00  0.00     0.120 A 
ATOM      4  C   UNL     1      47.991  -2.215 -43.794  1.00  0.00     0.004 A 
ATOM      5  C   UNL     1      48.043  -2.100 -45.186  1.00  0.00     0.024 A 
ATOM      6  C   UNL     1      49.125  -1.472 -45.826  1.00  0.00     0.063 A 
ENDROOT
BRANCH   1   7
ATOM      7  N   UNL     1      51.313  -0.405 -45.586  1.00  0.00    -0.338 N 
ATOM      8  H   UNL     1      51.236  -0.345 -46.592  1.00  0.00     0.168 HD
BRANCH   7   9
ATOM      9  C   UNL     1      52.521   0.129 -45.101  1.00  0.00     0.058 A 
ATOM     10  C   UNL     1      54.955   1.161 -44.257  1.00  0.00     0.213 A 
ATOM     11  N   UNL     1      53.971   0.953 -43.334  1.00  0.00    -0.220 NA
ATOM     12  C   UNL     1      54.772   0.869 -45.609  1.00  0.00     0.070 A 
ATOM     13  C   UNL     1      52.785   0.447 -43.760  1.00  0.00     0.141 A 
ATOM     14  C   UNL     1      53.546   0.350 -46.027  1.00  0.00     0.033 A 
BRANCH  10  15
ATOM     15  O   UNL     1      56.175   1.671 -43.853  1.00  0.00    -0.481 OA
ATOM     16  C   UNL     1      56.559   1.572 -42.483  1.00  0.00     0.280 C 
ENDBRANCH  10  15
ENDBRANCH   7   9
ENDBRANCH   1   7
BRANCH   6  17
ATOM     17  C   UNL     1      49.105  -1.346 -47.319  1.00  0.00     0.168 A 
ATOM     18  N   UNL     1      49.778  -0.303 -47.887  1.00  0.00    -0.193 NA
ATOM     19  N   UNL     1      48.373  -2.264 -48.014  1.00  0.00    -0.213 NA
ATOM     20  C   UNL     1      49.690  -0.227 -49.240  1.00  0.00     0.223 A 
ATOM     21  C   UNL     1      48.364  -2.080 -49.361  1.00  0.00     0.131 A 
ATOM     22  N   UNL     1      49.000  -1.085 -50.033  1.00  0.00    -0.198 NA
ATOM     23  C   UNL     1      47.561  -3.070 -50.182  1.00  0.00     0.090 C 
BRANCH  20  24
ATOM     24  N   UNL     1      50.361   0.819 -49.864  1.00  0.00    -0.368 N 
ATOM     25  H   UNL     1      50.090   1.770 -49.664  1.00  0.00     0.159 HD
ATOM     26  H   UNL     1      51.095   0.610 -50.524  1.00  0.00     0.159 HD
ENDBRANCH  20  24
ENDBRANCH   6  17
BRANCH   4  27
ATOM     27  C   UNL     1      46.807  -2.878 -43.096  1.00  0.00     0.176 C 
BRANCH  27  28
ATOM     28  O   UNL     1      47.100  -3.189 -41.746  1.00  0.00    -0.384 OA
ATOM     29  H   UNL     1      46.386  -3.726 -41.394  1.00  0.00     0.211 HD
ENDBRANCH  27  28
BRANCH  27  30
ATOM     30  C   UNL     1      46.275  -4.078 -43.885  1.00  0.00    -0.015 A 
ATOM     31  C   UNL     1      44.967  -4.051 -44.377  1.00  0.00     0.008 A 
ATOM     32  C   UNL     1      47.074  -5.208 -44.101  1.00  0.00     0.008 A 
ATOM     33  C   UNL     1      44.467  -5.133 -45.098  1.00  0.00     0.022 A 
ATOM     34  C   UNL     1      46.576  -6.290 -44.822  1.00  0.00     0.022 A 
ATOM     35  C   UNL     1      45.276  -6.247 -45.328  1.00  0.00     0.082 A 
BRANCH  35  36
ATOM     36  S   UNL     1      44.622  -7.639 -46.247  1.00  0.00     0.242 S 
ATOM     37  O   UNL     1      45.737  -8.567 -46.464  1.00  0.00    -0.207 OA
ATOM     38  O   UNL     1      43.398  -8.092 -45.576  1.00  0.00    -0.207 OA
BRANCH  36  39
ATOM     39  N   UNL     1      44.155  -6.969 -47.821  1.00  0.00    -0.204 NA
ATOM     40  C   UNL     1      42.811  -6.362 -47.894  1.00  0.00     0.124 C 
ATOM     41  C   UNL     1      45.212  -6.245 -48.558  1.00  0.00     0.124 C 
ENDBRANCH  36  39
ENDBRANCH  35  36
ENDBRANCH  27  30
ENDBRANCH   4  27
TORSDOF 10
ENDMDL
