REMARK SMILES CCOP(=O)(CCn1cc(-c2ccc(-c3nc(-c4ccc(F)cc4)c(-c4cc[nH]c(=O)c4)[nH]3)cc2)nn1)OCC
REMARK SMILES IDX 7 1 6 2 4 3 5 4 3 5 2 6 1 7 38 8 39 9 40 10 8 11 9 12 37 13
REMARK SMILES IDX 10 14 36 15 11 16 12 17 35 18 13 19 34 20 14 21 15 22 16 23
REMARK SMILES IDX 33 24 17 25 25 26 18 28 19 29 24 30 20 31 23 32 21 33 22 34
REMARK SMILES IDX 26 35 27 36 32 37 28 38 30 39 29 40 31 41
REMARK H PARENT 33 27 29 42
REMARK INDEX MAP 7 1 6 2 4 3 5 4 3 5 2 6 1 7 38 8 39 9 40 10 8 11 9 12 37 13
REMARK INDEX MAP 10 14 36 15 11 16 12 17 35 18 13 19 34 20 14 21 15 22 16 23
REMARK INDEX MAP 33 24 17 25 25 26 61 27 18 28 19 29 24 30 20 31 23 32 21 33
REMARK INDEX MAP 22 34 26 35 27 36 32 37 28 38 30 39 29 40 31 41 59 42
ROOT
ATOM      1  C   UNL     1      -1.714  15.927  20.193  1.00  0.00     0.159 C 
ENDROOT
BRANCH   1   2
ATOM      2  C   UNL     1      -1.482  17.075  19.229  1.00  0.00     0.153 C 
BRANCH   2   3
ATOM      3  P   UNL     1      -1.278  16.588  17.525  1.00  0.00     0.332 P 
ATOM      4  O   UNL     1      -0.433  17.514  16.704  1.00  0.00    -0.260 OA
BRANCH   3   5
ATOM      5  O   UNL     1      -2.768  16.376  16.962  1.00  0.00    -0.309 OA
BRANCH   5   6
ATOM      6  C   UNL     1      -3.613  17.514  16.910  1.00  0.00     0.167 C 
ATOM      7  C   UNL     1      -4.054  17.723  15.475  1.00  0.00     0.035 C 
ENDBRANCH   5   6
ENDBRANCH   3   5
BRANCH   3   8
ATOM      8  O   UNL     1      -0.709  15.079  17.593  1.00  0.00    -0.309 OA
BRANCH   8   9
ATOM      9  C   UNL     1      -0.858  14.277  16.432  1.00  0.00     0.167 C 
ATOM     10  C   UNL     1      -1.320  12.898  16.855  1.00  0.00     0.035 C 
ENDBRANCH   8   9
ENDBRANCH   3   8
ENDBRANCH   2   3
ENDBRANCH   1   2
BRANCH   1  11
ATOM     11  N   UNL     1      -3.053  15.388  20.143  1.00  0.00    -0.251 N 
ATOM     12  C   UNL     1      -4.235  16.064  20.187  1.00  0.00     0.139 A 
ATOM     13  N   UNL     1      -3.241  14.069  19.984  1.00  0.00    -0.067 NA
ATOM     14  C   UNL     1      -5.186  15.072  20.088  1.00  0.00     0.113 A 
ATOM     15  N   UNL     1      -4.550  13.860  19.956  1.00  0.00    -0.130 NA
BRANCH  14  16
ATOM     16  C   UNL     1      -6.629  15.227  20.113  1.00  0.00     0.004 A 
ATOM     17  C   UNL     1      -7.187  16.473  20.425  1.00  0.00     0.011 A 
ATOM     18  C   UNL     1      -7.497  14.167  19.827  1.00  0.00     0.011 A 
ATOM     19  C   UNL     1      -8.576  16.660  20.453  1.00  0.00     0.012 A 
ATOM     20  C   UNL     1      -8.885  14.354  19.854  1.00  0.00     0.012 A 
ATOM     21  C   UNL     1      -9.446  15.602  20.166  1.00  0.00     0.017 A 
BRANCH  21  22
ATOM     22  C   UNL     1     -10.906  15.745  20.178  1.00  0.00     0.138 A 
ATOM     23  N   UNL     1     -11.570  16.878  20.314  1.00  0.00    -0.228 NA
ATOM     24  N   UNL     1     -11.797  14.705  20.052  1.00  0.00    -0.337 N 
ATOM     25  C   UNL     1     -12.911  16.561  20.280  1.00  0.00     0.097 A 
ATOM     26  C   UNL     1     -13.079  15.201  20.095  1.00  0.00     0.074 A 
ATOM     27  H   UNL     1     -11.544  13.713  19.943  1.00  0.00     0.168 HD
BRANCH  25  28
ATOM     28  C   UNL     1     -13.945  17.578  20.403  1.00  0.00     0.003 A 
ATOM     29  C   UNL     1     -14.362  18.351  19.309  1.00  0.00     0.013 A 
ATOM     30  C   UNL     1     -14.563  17.775  21.648  1.00  0.00     0.013 A 
ATOM     31  C   UNL     1     -15.359  19.319  19.465  1.00  0.00     0.040 A 
ATOM     32  C   UNL     1     -15.559  18.740  21.803  1.00  0.00     0.040 A 
ATOM     33  C   UNL     1     -15.945  19.506  20.711  1.00  0.00     0.123 A 
ATOM     34  F   UNL     1     -16.902  20.432  20.858  1.00  0.00    -0.207 F 
ENDBRANCH  25  28
BRANCH  26  35
ATOM     35  C   UNL     1     -14.159  14.294  19.920  1.00  0.00     0.007 A 
ATOM     36  C   UNL     1     -15.560  14.696  19.942  1.00  0.00     0.028 A 
ATOM     37  C   UNL     1     -13.855  12.995  19.729  1.00  0.00     0.082 A 
ATOM     38  C   UNL     1     -16.532  13.790  19.779  1.00  0.00     0.086 A 
ATOM     39  C   UNL     1     -14.932  11.990  19.549  1.00  0.00     0.248 A 
ATOM     40  N   UNL     1     -16.217  12.471  19.591  1.00  0.00    -0.329 N 
ATOM     41  O   UNL     1     -14.676  10.803  19.379  1.00  0.00    -0.270 OA
ATOM     42  H   UNL     1     -16.990  11.800  19.474  1.00  0.00     0.169 HD
ENDBRANCH  26  35
ENDBRANCH  21  22
ENDBRANCH  14  16
ENDBRANCH   1  11
TORSDOF 11
