REMARK VINA RESULT:    -6.126      4.255      6.740
REMARK INTER + INTRA:         -12.654
REMARK INTER:                 -11.755
REMARK INTRA:                  -0.898
REMARK UNBOUND:                -1.156
REMARK SMILES CN(CCC1CCCCCC1)Cc1c[nH]c2c(OC(=O)N(C)N(C)C)cccc12
REMARK SMILES IDX 1 1 2 2 3 3 4 4 5 5 6 6 7 7 8 8 11 10 10 11 9 12 12 14 13 15
REMARK SMILES IDX 14 16 29 17 15 18 28 19 16 20 27 21 17 22 26 23 18 25 19 26
REMARK SMILES IDX 20 27 21 28 22 29 23 30 24 31 25 32
REMARK H PARENT 15 24
REMARK Flexibility Score:   47.900
ROOT
ATOM      1  C   UNL     1     140.342 111.033  37.329  1.00  0.00     0.105 C 
ATOM      2  N   UNL     1     139.539 111.662  38.387  1.00  0.00    -0.302 NA
ENDROOT
BRANCH   2   3
ATOM      3  C   UNL     1     140.176 112.930  38.783  1.00  0.00     0.085 C 
BRANCH   3   4
ATOM      4  C   UNL     1     140.951 112.911  40.114  1.00  0.00     0.019 C 
BRANCH   4   5
ATOM      5  C   UNL     1     140.742 114.120  41.062  1.00  0.00    -0.010 C 
BRANCH   5   6
ATOM      6  C   UNL     1     139.491 114.882  40.585  1.00  0.00     0.003 C 
BRANCH   6   7
ATOM      7  C   UNL     1     139.405 116.354  40.989  1.00  0.00     0.000 C 
BRANCH   7   8
ATOM      8  C   UNL     1     139.711 116.575  42.466  1.00  0.00     0.000 CG0
ATOM      9  G   UNL     1     141.181 116.812  42.788  1.00  0.00     0.000 G0
ENDBRANCH   7   8
ENDBRANCH   6   7
ENDBRANCH   5   6
BRANCH   5  10
ATOM     10  C   UNL     1     142.002 115.002  41.156  1.00  0.00     0.003 C 
BRANCH  10  11
ATOM     11  C   UNL     1     142.158 115.685  42.515  1.00  0.00     0.000 C 
BRANCH  11  12
ATOM     12  C   UNL     1     141.185 116.826  42.786  1.00  0.00     0.000 CG0
ATOM     13  G   UNL     1     139.720 116.572  42.455  1.00  0.00     0.000 G0
ENDBRANCH  11  12
ENDBRANCH  10  11
ENDBRANCH   5  10
ENDBRANCH   4   5
ENDBRANCH   3   4
ENDBRANCH   2   3
BRANCH   2  14
ATOM     14  C   UNL     1     138.147 111.866  37.947  1.00  0.00     0.122 C 
BRANCH  14  15
ATOM     15  C   UNL     1     137.244 112.300  39.069  1.00  0.00    -0.008 A 
ATOM     16  C   UNL     1     136.516 113.474  39.101  1.00  0.00     0.088 A 
ATOM     17  C   UNL     1     136.992 111.635  40.319  1.00  0.00     0.008 A 
ATOM     18  N   UNL     1     135.855 113.542  40.296  1.00  0.00    -0.358 N 
ATOM     19  C   UNL     1     137.434 110.417  40.884  1.00  0.00     0.011 A 
ATOM     20  C   UNL     1     136.112 112.431  41.061  1.00  0.00     0.089 A 
ATOM     21  C   UNL     1     136.983 110.023  42.147  1.00  0.00     0.005 A 
ATOM     22  C   UNL     1     135.660 112.048  42.332  1.00  0.00     0.156 A 
ATOM     23  C   UNL     1     136.102 110.828  42.861  1.00  0.00     0.049 A 
ATOM     24  H   UNL     1     135.264 114.307  40.604  1.00  0.00     0.166 HD
BRANCH  22  25
ATOM     25  O   UNL     1     134.747 112.756  43.191  1.00  0.00    -0.407 OA
BRANCH  25  26
ATOM     26  C   UNL     1     133.472 113.264  42.901  1.00  0.00     0.429 C 
ATOM     27  O   UNL     1     132.475 112.561  42.757  1.00  0.00    -0.222 OA
BRANCH  26  28
ATOM     28  N   UNL     1     133.487 114.663  42.791  1.00  0.00    -0.244 N 
ATOM     29  C   UNL     1     134.333 115.489  43.637  1.00  0.00     0.172 C 
BRANCH  28  30
ATOM     30  N   UNL     1     132.722 115.361  41.807  1.00  0.00    -0.222 NA
ATOM     31  C   UNL     1     133.065 114.970  40.439  1.00  0.00     0.131 C 
ATOM     32  C   UNL     1     132.777 116.814  41.981  1.00  0.00     0.131 C 
ENDBRANCH  28  30
ENDBRANCH  26  28
ENDBRANCH  25  26
ENDBRANCH  22  25
ENDBRANCH  14  15
ENDBRANCH   2  14
TORSDOF 9
