MODEL 9
REMARK VINA RESULT:    -9.256      3.203      6.624
REMARK INTER + INTRA:         -17.545
REMARK INTER:                 -16.739
REMARK INTRA:                  -0.806
REMARK UNBOUND:                -2.067
REMARK SMILES CCCc1cc(-c2nc3c(s2)CCCC3)ccc1OCCCOc1ccc2c(c1)CC[C@H]2CC(=O)O
REMARK SMILES IDX 21 1 20 2 19 3 18 4 4 5 5 6 6 7 17 8 16 9 3 10 2 11 1 12
REMARK SMILES IDX 7 13 8 14 11 15 9 16 10 17 15 18 12 19 14 20 13 21 22 22
REMARK SMILES IDX 23 23 24 24 25 25 29 26 26 27 28 28 27 29 30 30 32 31 31 32
REMARK SMILES IDX 33 33 34 34 35 35 36 36
REMARK H PARENT 36 37
ROOT
ATOM      1  C   UNL     1      38.798   0.445 130.906  1.00  0.00     0.083 C 
ENDROOT
BRANCH   1   2
ATOM      2  C   UNL     1      38.995   1.899 130.482  1.00  0.00     0.233 C 
BRANCH   2   3
ATOM      3  O   UNL     1      37.897   2.708 130.903  1.00  0.00    -0.493 OA
BRANCH   3   4
ATOM      4  C   UNL     1      37.662   2.853 132.243  1.00  0.00     0.122 A 
ATOM      5  C   UNL     1      38.496   3.755 132.924  1.00  0.00    -0.005 A 
ATOM      6  C   UNL     1      38.322   3.949 134.311  1.00  0.00     0.018 A 
ATOM      7  C   UNL     1      37.345   3.252 135.038  1.00  0.00     0.011 A 
ATOM      8  C   UNL     1      36.692   2.148 132.954  1.00  0.00     0.047 A 
ATOM      9  C   UNL     1      36.535   2.350 134.331  1.00  0.00     0.015 A 
BRANCH   5  10
ATOM     10  C   UNL     1      39.568   4.550 132.208  1.00  0.00     0.039 C 
BRANCH  10  11
ATOM     11  C   UNL     1      40.933   4.500 132.902  1.00  0.00     0.001 C 
ATOM     12  C   UNL     1      42.107   4.604 131.938  1.00  0.00     0.004 C 
ENDBRANCH  10  11
ENDBRANCH   5  10
BRANCH   7  13
ATOM     13  C   UNL     1      37.131   3.413 136.492  1.00  0.00     0.123 A 
ATOM     14  N   UNL     1      36.291   2.671 137.197  1.00  0.00    -0.241 NA
ATOM     15  S   UNL     1      37.985   4.597 137.425  1.00  0.00    -0.119 S 
ATOM     16  C   UNL     1      36.320   3.044 138.522  1.00  0.00     0.055 A 
ATOM     17  C   UNL     1      37.191   4.065 138.827  1.00  0.00     0.028 A 
ATOM     18  C   UNL     1      35.488   2.352 139.548  1.00  0.00     0.057 C 
ATOM     19  C   UNL     1      37.395   4.650 140.182  1.00  0.00     0.049 C 
ATOM     20  C   UNL     1      35.425   3.166 140.852  1.00  0.00     0.007 C 
ATOM     21  C   UNL     1      36.807   3.714 141.254  1.00  0.00     0.006 C 
ENDBRANCH   7  13
ENDBRANCH   3   4
ENDBRANCH   2   3
ENDBRANCH   1   2
BRANCH   1  22
ATOM     22  C   UNL     1      37.631  -0.227 130.181  1.00  0.00     0.233 C 
BRANCH  22  23
ATOM     23  O   UNL     1      37.082   0.608 129.162  1.00  0.00    -0.493 OA
BRANCH  23  24
ATOM     24  C   UNL     1      35.769   0.457 128.815  1.00  0.00     0.119 A 
ATOM     25  C   UNL     1      34.865   0.790 129.839  1.00  0.00     0.047 A 
ATOM     26  C   UNL     1      35.285   0.011 127.585  1.00  0.00     0.050 A 
ATOM     27  C   UNL     1      33.483   0.690 129.652  1.00  0.00     0.008 A 
ATOM     28  C   UNL     1      33.913  -0.108 127.414  1.00  0.00    -0.041 A 
ATOM     29  C   UNL     1      33.016   0.227 128.436  1.00  0.00    -0.041 A 
ATOM     30  C   UNL     1      33.182  -0.539 126.178  1.00  0.00     0.036 C 
ATOM     31  C   UNL     1      31.598   0.060 127.964  1.00  0.00     0.031 C 
ATOM     32  C   UNL     1      31.799  -0.878 126.754  1.00  0.00     0.014 C 
BRANCH  31  33
ATOM     33  C   UNL     1      30.571  -0.420 128.983  1.00  0.00     0.131 C 
BRANCH  33  34
ATOM     34  C   UNL     1      30.892  -1.743 129.623  1.00  0.00     0.303 C 
ATOM     35  O   UNL     1      31.478  -1.915 130.678  1.00  0.00    -0.252 OA
BRANCH  34  36
ATOM     36  O   UNL     1      30.474  -2.795 128.893  1.00  0.00    -0.481 OA
ATOM     37  H   UNL     1      30.578  -3.560 129.496  1.00  0.00     0.296 HD
ENDBRANCH  34  36
ENDBRANCH  33  34
ENDBRANCH  31  33
ENDBRANCH  23  24
ENDBRANCH  22  23
ENDBRANCH   1  22
TORSDOF 12
ENDMDL
