MODEL 4
REMARK VINA RESULT:    -6.775      2.293      3.511
REMARK INTER + INTRA:          -8.995
REMARK INTER:                  -9.447
REMARK INTRA:                   0.452
REMARK UNBOUND:                 0.156
REMARK SMILES CCCS(=O)(=O)C[C@H]1C[C@H](N(C)c2ncnc3[nH]ccc23)C1
REMARK SMILES IDX 7 1 4 2 5 3 6 4 3 5 2 6 1 7 8 8 9 9 22 10 10 11 11 12 12 13
REMARK SMILES IDX 13 14 14 15 21 16 15 17 20 18 17 19 16 20 19 21 18 22
REMARK H PARENT 18 23
ROOT
ATOM      1  C   UNL     1       4.615 -20.328  19.607  1.00  0.00     0.140 C 
ENDROOT
BRANCH   1   2
ATOM      2  S   UNL     1       4.836 -18.553  19.591  1.00  0.00     0.150 S 
ATOM      3  O   UNL     1       5.961 -18.215  20.439  1.00  0.00    -0.229 OA
ATOM      4  O   UNL     1       4.817 -18.151  18.196  1.00  0.00    -0.229 OA
BRANCH   2   5
ATOM      5  C   UNL     1       3.346 -17.925  20.357  1.00  0.00     0.136 C 
BRANCH   5   6
ATOM      6  C   UNL     1       3.243 -18.256  21.843  1.00  0.00     0.013 C 
ATOM      7  C   UNL     1       2.149 -19.258  22.175  1.00  0.00     0.005 C 
ENDBRANCH   5   6
ENDBRANCH   2   5
ENDBRANCH   1   2
BRANCH   1   8
ATOM      8  C   UNL     1       5.778 -21.066  20.256  1.00  0.00     0.008 C 
ATOM      9  C   UNL     1       5.545 -21.449  21.742  1.00  0.00     0.029 C 
ATOM     10  C   UNL     1       5.908 -22.587  19.976  1.00  0.00     0.029 C 
ATOM     11  C   UNL     1       5.083 -22.847  21.262  1.00  0.00     0.084 C 
BRANCH  11  12
ATOM     12  N   UNL     1       5.610 -23.925  22.076  1.00  0.00    -0.356 N 
ATOM     13  C   UNL     1       5.907 -23.543  23.464  1.00  0.00     0.145 C 
BRANCH  12  14
ATOM     14  C   UNL     1       4.907 -25.163  22.101  1.00  0.00     0.141 A 
ATOM     15  N   UNL     1       3.697 -25.255  21.487  1.00  0.00    -0.219 NA
ATOM     16  C   UNL     1       5.422 -26.330  22.701  1.00  0.00     0.061 A 
ATOM     17  C   UNL     1       3.043 -26.431  21.503  1.00  0.00     0.226 A 
ATOM     18  C   UNL     1       6.618 -26.706  23.379  1.00  0.00     0.033 A 
ATOM     19  C   UNL     1       4.632 -27.468  22.641  1.00  0.00     0.142 A 
ATOM     20  N   UNL     1       3.428 -27.589  22.067  1.00  0.00    -0.218 NA
ATOM     21  C   UNL     1       6.509 -28.036  23.726  1.00  0.00     0.085 A 
ATOM     22  N   UNL     1       5.295 -28.486  23.271  1.00  0.00    -0.346 N 
ATOM     23  H   UNL     1       4.929 -29.422  23.359  1.00  0.00     0.167 HD
ENDBRANCH  12  14
ENDBRANCH  11  12
ENDBRANCH   1   8
TORSDOF 6
ENDMDL
