MODEL 9
REMARK VINA RESULT:    -7.751      5.105      9.394
REMARK INTER + INTRA:         -10.594
REMARK INTER:                  -9.901
REMARK INTRA:                  -0.694
REMARK UNBOUND:                -0.577
REMARK SMILES CN(c1ncnc2[nH]ccc12)[C@H]1C[C@@H](CS(=O)(=O)N2CC3(COC3)C2)C1
REMARK SMILES IDX 12 1 26 2 14 3 13 4 2 5 1 6 3 7 4 8 11 9 5 10 10 11 7 12
REMARK SMILES IDX 6 13 9 14 8 15 15 17 16 18 17 19 18 20 19 21 20 22 25 23
REMARK SMILES IDX 21 24 22 25 24 26 23 27
REMARK H PARENT 8 16
ROOT
ATOM      1  C   UNL     1       6.584 -26.374  23.956  1.00  0.00     0.084 C 
ATOM      2  C   UNL     1       7.824 -27.165  24.465  1.00  0.00     0.029 C 
ATOM      3  C   UNL     1       8.535 -25.803  24.666  1.00  0.00     0.009 C 
ATOM      4  C   UNL     1       7.593 -25.254  23.566  1.00  0.00     0.029 C 
ENDROOT
BRANCH   1   5
ATOM      5  N   UNL     1       5.950 -26.976  22.815  1.00  0.00    -0.356 N 
ATOM      6  C   UNL     1       6.087 -28.423  22.630  1.00  0.00     0.145 C 
BRANCH   5   7
ATOM      7  C   UNL     1       4.745 -26.524  22.216  1.00  0.00     0.141 A 
ATOM      8  N   UNL     1       3.621 -27.280  22.406  1.00  0.00    -0.219 NA
ATOM      9  C   UNL     1       4.600 -25.361  21.420  1.00  0.00     0.061 A 
ATOM     10  C   UNL     1       2.468 -26.927  21.811  1.00  0.00     0.226 A 
ATOM     11  C   UNL     1       5.408 -24.258  21.009  1.00  0.00     0.033 A 
ATOM     12  C   UNL     1       3.342 -25.126  20.878  1.00  0.00     0.142 A 
ATOM     13  N   UNL     1       2.237 -25.869  21.023  1.00  0.00    -0.218 NA
ATOM     14  C   UNL     1       4.643 -23.430  20.215  1.00  0.00     0.085 A 
ATOM     15  N   UNL     1       3.390 -23.976  20.140  1.00  0.00    -0.346 N 
ATOM     16  H   UNL     1       2.599 -23.598  19.641  1.00  0.00     0.167 HD
ENDBRANCH   5   7
ENDBRANCH   1   5
BRANCH   3  17
ATOM     17  C   UNL     1      10.015 -25.728  24.332  1.00  0.00     0.158 C 
BRANCH  17  18
ATOM     18  S   UNL     1      10.966 -25.382  25.810  1.00  0.00     0.214 S 
ATOM     19  O   UNL     1      11.452 -24.022  25.722  1.00  0.00    -0.212 OA
ATOM     20  O   UNL     1      10.219 -25.849  26.957  1.00  0.00    -0.212 OA
BRANCH  18  21
ATOM     21  N   UNL     1      12.282 -26.395  25.628  1.00  0.00    -0.200 NA
ATOM     22  C   UNL     1      12.310 -27.882  25.486  1.00  0.00     0.115 C 
ATOM     23  C   UNL     1      13.554 -26.428  26.413  1.00  0.00     0.115 C 
ATOM     24  C   UNL     1      13.721 -27.857  25.992  1.00  0.00     0.045 C 
ATOM     25  C   UNL     1      14.840 -28.235  25.082  1.00  0.00     0.172 C 
ATOM     26  C   UNL     1      14.203 -28.883  26.951  1.00  0.00     0.172 C 
ATOM     27  O   UNL     1      15.284 -29.239  26.043  1.00  0.00    -0.380 OA
ENDBRANCH  18  21
ENDBRANCH  17  18
ENDBRANCH   3  17
TORSDOF 5
ENDMDL
