REMARK VINA RESULT:    -5.426      6.908     10.888
REMARK INTER + INTRA:          -9.977
REMARK INTER:                  -8.941
REMARK INTRA:                  -1.036
REMARK UNBOUND:                -1.220
REMARK SMILES CCCCN(c1ccc(C)c(-c2ccc(Cl)cc2)c1)S(=O)(=O)c1ccc(O[C@H](C)C(=O)O)c(C)c1C
REMARK SMILES IDX 23 1 24 2 25 3 26 4 33 5 34 6 35 7 36 8 20 9 21 10 22 11
REMARK SMILES IDX 5 12 4 13 3 14 2 15 1 16 6 17 7 18 19 19 8 20 11 21 9 22
REMARK SMILES IDX 10 23 12 24 13 25 18 26 14 27 17 28 15 29 16 30 27 31 28 32
REMARK SMILES IDX 29 33 30 34 31 35 32 36
REMARK H PARENT 32 37
ROOT
ATOM      1  C   UNL     1       5.017   7.718  -4.376  1.00  0.00     0.091 A 
ATOM      2  C   UNL     1       5.487   7.935  -5.678  1.00  0.00     0.026 A 
ATOM      3  C   UNL     1       6.334   9.006  -5.946  1.00  0.00     0.048 A 
ATOM      4  C   UNL     1       6.686   9.888  -4.926  1.00  0.00     0.123 A 
ATOM      5  C   UNL     1       6.246   9.677  -3.603  1.00  0.00    -0.005 A 
ATOM      6  C   UNL     1       6.682  10.619  -2.507  1.00  0.00     0.049 C 
ATOM      7  C   UNL     1       5.404   8.566  -3.311  1.00  0.00    -0.024 A 
ATOM      8  C   UNL     1       4.905   8.346  -1.904  1.00  0.00     0.046 C 
ENDROOT
BRANCH   1   9
ATOM      9  S   UNL     1       3.903   6.328  -4.141  1.00  0.00     0.264 S 
ATOM     10  O   UNL     1       3.984   5.483  -5.316  1.00  0.00    -0.201 OA
ATOM     11  O   UNL     1       2.620   6.860  -3.726  1.00  0.00    -0.201 OA
BRANCH   9  12
ATOM     12  N   UNL     1       4.603   5.501  -2.824  1.00  0.00    -0.266 N 
BRANCH  12  13
ATOM     13  C   UNL     1       3.679   4.778  -1.914  1.00  0.00     0.135 C 
BRANCH  13  14
ATOM     14  C   UNL     1       3.517   5.452  -0.551  1.00  0.00     0.022 C 
BRANCH  14  15
ATOM     15  C   UNL     1       2.169   6.160  -0.390  1.00  0.00    -0.002 C 
ATOM     16  C   UNL     1       2.196   7.285   0.635  1.00  0.00     0.004 C 
ENDBRANCH  14  15
ENDBRANCH  13  14
ENDBRANCH  12  13
BRANCH  12  17
ATOM     17  C   UNL     1       5.916   4.950  -3.003  1.00  0.00     0.052 A 
ATOM     18  C   UNL     1       6.564   4.448  -1.875  1.00  0.00     0.027 A 
ATOM     19  C   UNL     1       6.524   4.841  -4.253  1.00  0.00     0.036 A 
ATOM     20  C   UNL     1       7.833   3.883  -1.990  1.00  0.00     0.006 A 
ATOM     21  C   UNL     1       7.803   4.268  -4.392  1.00  0.00    -0.013 A 
ATOM     22  C   UNL     1       8.468   3.795  -3.240  1.00  0.00    -0.043 A 
ATOM     23  C   UNL     1       9.841   3.181  -3.318  1.00  0.00     0.045 C 
BRANCH  21  24
ATOM     24  C   UNL     1       8.395   4.178  -5.733  1.00  0.00    -0.018 A 
ATOM     25  C   UNL     1       8.434   5.300  -6.576  1.00  0.00     0.010 A 
ATOM     26  C   UNL     1       8.943   2.970  -6.195  1.00  0.00     0.010 A 
ATOM     27  C   UNL     1       9.001   5.217  -7.850  1.00  0.00     0.021 A 
ATOM     28  C   UNL     1       9.510   2.884  -7.469  1.00  0.00     0.021 A 
ATOM     29  C   UNL     1       9.536   4.009  -8.292  1.00  0.00     0.041 A 
ATOM     30  Cl  UNL     1      10.234   3.907  -9.861  1.00  0.00    -0.084 Cl
ENDBRANCH  21  24
ENDBRANCH  12  17
ENDBRANCH   9  12
ENDBRANCH   1   9
BRANCH   4  31
ATOM     31  O   UNL     1       7.537  10.936  -5.171  1.00  0.00    -0.479 OA
BRANCH  31  32
ATOM     32  C   UNL     1       8.898  10.554  -5.416  1.00  0.00     0.279 C 
ATOM     33  C   UNL     1       9.775  11.322  -4.433  1.00  0.00     0.066 C 
BRANCH  32  34
ATOM     34  C   UNL     1       9.285  10.913  -6.850  1.00  0.00     0.344 C 
ATOM     35  O   UNL     1       9.470  12.023  -7.323  1.00  0.00    -0.248 OA
BRANCH  34  36
ATOM     36  O   UNL     1       9.387   9.826  -7.649  1.00  0.00    -0.479 OA
ATOM     37  H   UNL     1       8.803  10.045  -8.405  1.00  0.00     0.296 HD
ENDBRANCH  34  36
ENDBRANCH  32  34
ENDBRANCH  31  32
ENDBRANCH   4  31
TORSDOF 11
