MODEL 1
REMARK VINA RESULT:    -9.392      0.000      0.000
REMARK INTER + INTRA:         -15.233
REMARK INTER:                 -14.059
REMARK INTRA:                  -1.174
REMARK UNBOUND:                -1.174
REMARK SMILES C/C(=N\OCc1nc(-c2ccc(C)cc2)oc1C)c1ccc(OCC(=O)O)c(C)c1
REMARK SMILES IDX 19 1 20 2 21 3 22 4 28 5 29 6 30 7 2 8 3 9 1 10 4 11 5 12
REMARK SMILES IDX 6 13 7 14 17 15 8 16 16 17 18 18 9 19 10 20 15 21 11 22
REMARK SMILES IDX 14 23 12 24 13 25 23 26 24 27 25 28 26 29 27 30
REMARK H PARENT 27 31
ROOT
ATOM      1  C   UNL     1      31.132  -1.593 133.067  1.00  0.00    -0.000 A 
ATOM      2  C   UNL     1      30.615  -1.003 134.222  1.00  0.00     0.014 A 
ATOM      3  C   UNL     1      30.766  -1.630 135.464  1.00  0.00     0.047 A 
ATOM      4  C   UNL     1      31.443  -2.850 135.565  1.00  0.00     0.123 A 
ATOM      5  C   UNL     1      31.973  -3.446 134.408  1.00  0.00    -0.008 A 
ATOM      6  C   UNL     1      32.717  -4.752 134.486  1.00  0.00     0.048 C 
ATOM      7  C   UNL     1      31.820  -2.808 133.166  1.00  0.00     0.017 A 
ENDROOT
BRANCH   1   8
ATOM      8  C   UNL     1      30.992  -0.942 131.731  1.00  0.00     0.084 C 
ATOM      9  N   UNL     1      30.948  -1.697 130.671  1.00  0.00    -0.091 NA
ATOM     10  C   UNL     1      30.917   0.570 131.672  1.00  0.00     0.071 C 
BRANCH   9  11
ATOM     11  O   UNL     1      30.847  -0.930 129.499  1.00  0.00    -0.389 OA
BRANCH  11  12
ATOM     12  C   UNL     1      31.948  -1.248 128.637  1.00  0.00     0.323 C 
BRANCH  12  13
ATOM     13  C   UNL     1      32.937  -0.138 128.591  1.00  0.00     0.123 A 
ATOM     14  N   UNL     1      34.091  -0.162 129.350  1.00  0.00    -0.210 NA
ATOM     15  C   UNL     1      32.912   1.018 127.839  1.00  0.00     0.128 A 
ATOM     16  C   UNL     1      34.706   0.966 129.047  1.00  0.00     0.226 A 
ATOM     17  O   UNL     1      34.039   1.733 128.127  1.00  0.00    -0.441 OA
ATOM     18  C   UNL     1      31.973   1.598 126.864  1.00  0.00     0.090 C 
BRANCH  16  19
ATOM     19  C   UNL     1      35.972   1.491 129.553  1.00  0.00     0.037 A 
ATOM     20  C   UNL     1      36.105   1.980 130.859  1.00  0.00     0.014 A 
ATOM     21  C   UNL     1      37.096   1.515 128.715  1.00  0.00     0.014 A 
ATOM     22  C   UNL     1      37.331   2.476 131.318  1.00  0.00     0.004 A 
ATOM     23  C   UNL     1      38.322   2.009 129.171  1.00  0.00     0.004 A 
ATOM     24  C   UNL     1      38.452   2.483 130.481  1.00  0.00    -0.051 A 
ATOM     25  C   UNL     1      39.761   3.039 130.957  1.00  0.00     0.044 C 
ENDBRANCH  16  19
ENDBRANCH  12  13
ENDBRANCH  11  12
ENDBRANCH   9  11
ENDBRANCH   1   8
BRANCH   4  26
ATOM     26  O   UNL     1      31.642  -3.541 136.730  1.00  0.00    -0.482 OA
BRANCH  26  27
ATOM     27  C   UNL     1      32.197  -2.834 137.831  1.00  0.00     0.351 C 
BRANCH  27  28
ATOM     28  C   UNL     1      33.578  -2.298 137.508  1.00  0.00     0.341 C 
ATOM     29  O   UNL     1      33.876  -1.115 137.420  1.00  0.00    -0.248 OA
BRANCH  28  30
ATOM     30  O   UNL     1      34.497  -3.248 137.240  1.00  0.00    -0.479 OA
ATOM     31  H   UNL     1      35.305  -2.947 137.705  1.00  0.00     0.296 HD
ENDBRANCH  28  30
ENDBRANCH  27  28
ENDBRANCH  26  27
ENDBRANCH   4  26
TORSDOF 9
ENDMDL
