REMARK VINA RESULT:    -8.939      2.053      2.648
REMARK INTER + INTRA:         -14.791
REMARK INTER:                 -14.216
REMARK INTRA:                  -0.574
REMARK UNBOUND:                -1.671
REMARK SMILES CCN1CCN([C@H](C)C(=O)Nc2cccc3c(-c4nc(Nc5cn(C)nc5OC)ncc4C)c[nH]c23)CC1
REMARK SMILES IDX 12 1 13 2 14 3 15 4 16 5 17 6 34 7 35 8 36 9 11 11 9 12
REMARK SMILES IDX 10 13 7 15 8 16 6 17 3 18 4 19 38 20 5 21 37 22 2 23 1 24
REMARK SMILES IDX 18 25 19 26 32 27 20 28 31 29 30 30 33 31 21 32 22 34 23 35
REMARK SMILES IDX 27 36 24 37 26 38 25 39 28 40 29 41
REMARK H PARENT 35 10 11 14 21 33
ROOT
ATOM      1  C   UNL     1     -16.346  17.515  19.460  1.00  0.00     0.065 A 
ATOM      2  C   UNL     1     -16.841  17.054  18.226  1.00  0.00     0.028 A 
ATOM      3  C   UNL     1     -16.315  15.930  17.594  1.00  0.00     0.003 A 
ATOM      4  C   UNL     1     -15.267  15.220  18.181  1.00  0.00     0.011 A 
ATOM      5  C   UNL     1     -14.745  15.647  19.420  1.00  0.00     0.011 A 
ATOM      6  C   UNL     1     -13.692  15.168  20.262  1.00  0.00     0.026 A 
ATOM      7  C   UNL     1     -13.607  16.025  21.337  1.00  0.00     0.094 A 
ATOM      8  N   UNL     1     -14.575  16.979  21.190  1.00  0.00    -0.359 N 
ATOM      9  C   UNL     1     -15.294  16.782  20.031  1.00  0.00     0.070 A 
ATOM     10  H   UNL     1     -14.771  17.736  21.840  1.00  0.00     0.166 HD
ENDROOT
BRANCH   1  11
ATOM     11  N   UNL     1     -16.940  18.677  19.979  1.00  0.00    -0.323 N 
ATOM     12  C   UNL     1     -16.891  19.981  19.525  1.00  0.00     0.241 C 
ATOM     13  O   UNL     1     -16.267  20.400  18.553  1.00  0.00    -0.273 OA
ATOM     14  H   UNL     1     -17.470  18.583  20.844  1.00  0.00     0.170 HD
BRANCH  12  15
ATOM     15  C   UNL     1     -17.809  20.918  20.356  1.00  0.00     0.143 C 
ATOM     16  C   UNL     1     -17.060  22.253  20.470  1.00  0.00     0.035 C 
BRANCH  15  17
ATOM     17  N   UNL     1     -19.148  21.025  19.699  1.00  0.00    -0.290 NA
ATOM     18  N   UNL     1     -22.161  20.992  19.712  1.00  0.00    -0.301 NA
ATOM     19  C   UNL     1     -21.364  22.224  19.564  1.00  0.00     0.100 C 
ATOM     20  C   UNL     1     -21.336  19.847  19.269  1.00  0.00     0.100 C 
ATOM     21  C   UNL     1     -19.945  22.174  20.186  1.00  0.00     0.101 C 
ATOM     22  C   UNL     1     -19.932  19.778  19.916  1.00  0.00     0.101 C 
BRANCH  18  23
ATOM     23  C   UNL     1     -22.669  20.783  21.076  1.00  0.00     0.081 C 
ATOM     24  C   UNL     1     -24.172  21.012  21.189  1.00  0.00     0.021 C 
ENDBRANCH  18  23
ENDBRANCH  15  17
ENDBRANCH  12  15
ENDBRANCH   1  11
BRANCH   6  25
ATOM     25  C   UNL     1     -12.802  14.035  20.075  1.00  0.00     0.081 A 
ATOM     26  N   UNL     1     -11.502  14.371  19.924  1.00  0.00    -0.212 NA
ATOM     27  C   UNL     1     -13.264  12.734  20.031  1.00  0.00    -0.006 A 
ATOM     28  C   UNL     1     -10.632  13.388  19.667  1.00  0.00     0.227 A 
ATOM     29  C   UNL     1     -12.289  11.802  19.756  1.00  0.00     0.120 A 
ATOM     30  N   UNL     1     -10.989  12.098  19.569  1.00  0.00    -0.221 NA
ATOM     31  C   UNL     1     -14.690  12.330  20.208  1.00  0.00     0.048 C 
BRANCH  28  32
ATOM     32  N   UNL     1      -9.310  13.798  19.502  1.00  0.00    -0.318 N 
ATOM     33  H   UNL     1      -8.819  13.067  18.998  1.00  0.00     0.170 HD
BRANCH  32  34
ATOM     34  C   UNL     1      -8.649  14.905  19.896  1.00  0.00     0.124 A 
ATOM     35  C   UNL     1      -9.119  16.178  20.097  1.00  0.00     0.138 A 
ATOM     36  C   UNL     1      -7.272  14.985  20.208  1.00  0.00     0.256 A 
ATOM     37  N   UNL     1      -8.046  16.914  20.506  1.00  0.00    -0.270 N 
ATOM     38  N   UNL     1      -6.895  16.212  20.578  1.00  0.00    -0.133 NA
ATOM     39  C   UNL     1      -8.043  18.316  20.857  1.00  0.00     0.173 C 
BRANCH  36  40
ATOM     40  O   UNL     1      -6.390  13.961  20.144  1.00  0.00    -0.478 OA
ATOM     41  C   UNL     1      -5.028  14.360  20.222  1.00  0.00     0.280 C 
ENDBRANCH  36  40
ENDBRANCH  32  34
ENDBRANCH  28  32
ENDBRANCH   6  25
TORSDOF 8
