MODEL 1
REMARK VINA RESULT:    -9.676      0.000      0.000
REMARK INTER + INTRA:         -13.016
REMARK INTER:                 -13.069
REMARK INTRA:                   0.053
REMARK UNBOUND:                 0.053
REMARK SMILES COc1cc2c(cc1OC)C(=O)[C@H](CC1CCN(Cc3ccccn3)CC1)C2
REMARK SMILES IDX 14 1 13 2 3 3 4 4 8 5 5 6 7 7 6 8 28 9 11 10 12 11 2 12 1 13
REMARK SMILES IDX 9 14 10 15 15 16 16 17 27 18 17 19 26 20 18 21 19 22 20 23
REMARK SMILES IDX 21 24 25 25 22 26 24 27 23 28
REMARK H PARENT
ROOT
ATOM      1  C   UNL     1     134.938 111.478  38.942  1.00  0.00     0.016 C 
ENDROOT
BRANCH   1   2
ATOM      2  C   UNL     1     133.511 112.039  38.868  1.00  0.00     0.066 C 
ATOM      3  C   UNL     1     132.172 115.833  41.422  1.00  0.00     0.161 A 
ATOM      4  C   UNL     1     132.785 115.495  40.205  1.00  0.00     0.055 A 
ATOM      5  C   UNL     1     131.707 114.816  42.300  1.00  0.00     0.161 A 
ATOM      6  C   UNL     1     132.933 114.155  39.881  1.00  0.00    -0.033 A 
ATOM      7  C   UNL     1     131.861 113.470  41.957  1.00  0.00     0.062 A 
ATOM      8  C   UNL     1     132.473 113.180  40.752  1.00  0.00     0.025 A 
ATOM      9  C   UNL     1     133.527 113.575  38.637  1.00  0.00     0.048 C 
ATOM     10  C   UNL     1     132.754 111.874  40.175  1.00  0.00     0.166 C 
ATOM     11  O   UNL     1     132.411 110.827  40.695  1.00  0.00    -0.294 OA
BRANCH   3  12
ATOM     12  O   UNL     1     131.972 117.124  41.850  1.00  0.00    -0.493 OA
ATOM     13  C   UNL     1     132.574 118.171  41.102  1.00  0.00     0.278 C 
ENDBRANCH   3  12
BRANCH   5  14
ATOM     14  O   UNL     1     131.121 115.252  43.464  1.00  0.00    -0.493 OA
ATOM     15  C   UNL     1     130.194 114.382  44.100  1.00  0.00     0.278 C 
ENDBRANCH   5  14
ENDBRANCH   1   2
BRANCH   1  16
ATOM     16  C   UNL     1     135.441 111.086  40.352  1.00  0.00    -0.008 C 
ATOM     17  C   UNL     1     135.787 112.341  41.175  1.00  0.00     0.019 C 
ATOM     18  C   UNL     1     136.662 110.156  40.350  1.00  0.00     0.019 C 
ATOM     19  C   UNL     1     137.095 113.002  40.724  1.00  0.00     0.085 C 
ATOM     20  C   UNL     1     137.939 110.871  39.901  1.00  0.00     0.085 C 
ATOM     21  N   UNL     1     138.202 112.039  40.744  1.00  0.00    -0.297 NA
BRANCH  21  22
ATOM     22  C   UNL     1     139.503 112.679  40.465  1.00  0.00     0.140 C 
BRANCH  22  23
ATOM     23  C   UNL     1     139.795 113.997  41.164  1.00  0.00     0.054 A 
ATOM     24  C   UNL     1     140.868 114.098  42.050  1.00  0.00     0.025 A 
ATOM     25  N   UNL     1     138.982 115.051  40.893  1.00  0.00    -0.260 NA
ATOM     26  C   UNL     1     141.116 115.317  42.676  1.00  0.00     0.004 A 
ATOM     27  C   UNL     1     139.245 116.220  41.516  1.00  0.00     0.111 A 
ATOM     28  C   UNL     1     140.290 116.401  42.405  1.00  0.00     0.020 A 
ENDBRANCH  22  23
ENDBRANCH  21  22
ENDBRANCH   1  16
TORSDOF 6
ENDMDL
MODEL 2
REMARK VINA RESULT:    -9.644      4.161      6.702
REMARK INTER + INTRA:         -12.973
REMARK INTER:                 -12.335
REMARK INTRA:                  -0.638
REMARK UNBOUND:                 0.053
REMARK SMILES COc1cc2c(cc1OC)C(=O)[C@H](CC1CCN(Cc3ccccn3)CC1)C2
REMARK SMILES IDX 14 1 13 2 3 3 4 4 8 5 5 6 7 7 6 8 28 9 11 10 12 11 2 12 1 13
REMARK SMILES IDX 9 14 10 15 15 16 16 17 27 18 17 19 26 20 18 21 19 22 20 23
REMARK SMILES IDX 21 24 25 25 22 26 24 27 23 28
REMARK H PARENT
ROOT
ATOM      1  C   UNL     1     132.881 111.550  41.739  1.00  0.00     0.016 C 
ENDROOT
BRANCH   1   2
ATOM      2  C   UNL     1     133.832 112.131  40.684  1.00  0.00     0.066 C 
ATOM      3  C   UNL     1     133.561 110.870  36.096  1.00  0.00     0.161 A 
ATOM      4  C   UNL     1     133.007 111.773  37.017  1.00  0.00     0.055 A 
ATOM      5  C   UNL     1     134.586 109.970  36.500  1.00  0.00     0.161 A 
ATOM      6  C   UNL     1     133.472 111.766  38.323  1.00  0.00    -0.033 A 
ATOM      7  C   UNL     1     135.047 109.979  37.819  1.00  0.00     0.062 A 
ATOM      8  C   UNL     1     134.472 110.882  38.694  1.00  0.00     0.025 A 
ATOM      9  C   UNL     1     133.045 112.652  39.450  1.00  0.00     0.048 C 
ATOM     10  C   UNL     1     134.768 111.083  40.105  1.00  0.00     0.166 C 
ATOM     11  O   UNL     1     135.647 110.480  40.695  1.00  0.00    -0.294 OA
BRANCH   3  12
ATOM     12  O   UNL     1     133.180 110.783  34.778  1.00  0.00    -0.493 OA
ATOM     13  C   UNL     1     132.803 111.983  34.118  1.00  0.00     0.278 C 
ENDBRANCH   3  12
BRANCH   5  14
ATOM     14  O   UNL     1     135.063 109.129  35.523  1.00  0.00    -0.493 OA
ATOM     15  C   UNL     1     135.817 107.999  35.939  1.00  0.00     0.278 C 
ENDBRANCH   5  14
ENDBRANCH   1   2
BRANCH   1  16
ATOM     16  C   UNL     1     132.960 112.185  43.148  1.00  0.00    -0.008 C 
ATOM     17  C   UNL     1     131.608 112.810  43.539  1.00  0.00     0.019 C 
ATOM     18  C   UNL     1     134.051 113.255  43.297  1.00  0.00     0.019 C 
ATOM     19  C   UNL     1     131.326 114.121  42.797  1.00  0.00     0.085 C 
ATOM     20  C   UNL     1     133.711 114.543  42.543  1.00  0.00     0.085 C 
ATOM     21  N   UNL     1     132.422 115.077  42.987  1.00  0.00    -0.297 NA
BRANCH  21  22
ATOM     22  C   UNL     1     132.111 116.402  42.414  1.00  0.00     0.140 C 
BRANCH  22  23
ATOM     23  C   UNL     1     132.860 116.810  41.154  1.00  0.00     0.054 A 
ATOM     24  C   UNL     1     132.615 116.152  39.949  1.00  0.00     0.025 A 
ATOM     25  N   UNL     1     133.757 117.825  41.252  1.00  0.00    -0.260 NA
ATOM     26  C   UNL     1     133.312 116.546  38.809  1.00  0.00     0.004 A 
ATOM     27  C   UNL     1     134.420 118.185  40.131  1.00  0.00     0.111 A 
ATOM     28  C   UNL     1     134.232 117.583  38.900  1.00  0.00     0.020 A 
ENDBRANCH  22  23
ENDBRANCH  21  22
ENDBRANCH   1  16
TORSDOF 6
ENDMDL
MODEL 3
REMARK VINA RESULT:    -9.427      1.715      2.637
REMARK INTER + INTRA:         -12.681
REMARK INTER:                 -12.508
REMARK INTRA:                  -0.173
REMARK UNBOUND:                 0.053
REMARK SMILES COc1cc2c(cc1OC)C(=O)[C@H](CC1CCN(Cc3ccccn3)CC1)C2
REMARK SMILES IDX 14 1 13 2 3 3 4 4 8 5 5 6 7 7 6 8 28 9 11 10 12 11 2 12 1 13
REMARK SMILES IDX 9 14 10 15 15 16 16 17 27 18 17 19 26 20 18 21 19 22 20 23
REMARK SMILES IDX 21 24 25 25 22 26 24 27 23 28
REMARK H PARENT
ROOT
ATOM      1  C   UNL     1     134.737 111.067  39.215  1.00  0.00     0.016 C 
ENDROOT
BRANCH   1   2
ATOM      2  C   UNL     1     133.382 111.764  39.028  1.00  0.00     0.066 C 
ATOM      3  C   UNL     1     133.069 116.403  37.987  1.00  0.00     0.161 A 
ATOM      4  C   UNL     1     133.229 115.152  37.370  1.00  0.00     0.055 A 
ATOM      5  C   UNL     1     132.902 116.494  39.397  1.00  0.00     0.161 A 
ATOM      6  C   UNL     1     133.228 114.013  38.160  1.00  0.00    -0.033 A 
ATOM      7  C   UNL     1     132.900 115.336  40.178  1.00  0.00     0.062 A 
ATOM      8  C   UNL     1     133.064 114.125  39.531  1.00  0.00     0.025 A 
ATOM      9  C   UNL     1     133.356 112.591  37.714  1.00  0.00     0.048 C 
ATOM     10  C   UNL     1     133.103 112.791  40.113  1.00  0.00     0.166 C 
ATOM     11  O   UNL     1     132.930 112.575  41.300  1.00  0.00    -0.294 OA
BRANCH   3  12
ATOM     12  O   UNL     1     133.055 117.599  37.309  1.00  0.00    -0.493 OA
ATOM     13  C   UNL     1     132.747 117.571  35.923  1.00  0.00     0.278 C 
ENDBRANCH   3  12
BRANCH   5  14
ATOM     14  O   UNL     1     132.750 117.764  39.900  1.00  0.00    -0.493 OA
ATOM     15  C   UNL     1     132.413 117.890  41.275  1.00  0.00     0.278 C 
ENDBRANCH   5  14
ENDBRANCH   1   2
BRANCH   1  16
ATOM     16  C   UNL     1     135.900 111.600  38.344  1.00  0.00    -0.008 C 
ATOM     17  C   UNL     1     137.124 110.673  38.445  1.00  0.00     0.019 C 
ATOM     18  C   UNL     1     136.343 113.029  38.690  1.00  0.00     0.019 C 
ATOM     19  C   UNL     1     137.861 110.809  39.782  1.00  0.00     0.085 C 
ATOM     20  C   UNL     1     137.080 113.102  40.030  1.00  0.00     0.085 C 
ATOM     21  N   UNL     1     138.237 112.204  40.034  1.00  0.00    -0.297 NA
BRANCH  21  22
ATOM     22  C   UNL     1     139.081 112.346  41.236  1.00  0.00     0.140 C 
BRANCH  22  23
ATOM     23  C   UNL     1     139.552 113.747  41.597  1.00  0.00     0.054 A 
ATOM     24  C   UNL     1     140.913 114.054  41.585  1.00  0.00     0.025 A 
ATOM     25  N   UNL     1     138.607 114.667  41.923  1.00  0.00    -0.260 NA
ATOM     26  C   UNL     1     141.317 115.345  41.917  1.00  0.00     0.004 A 
ATOM     27  C   UNL     1     139.029 115.910  42.243  1.00  0.00     0.111 A 
ATOM     28  C   UNL     1     140.359 116.293  42.253  1.00  0.00     0.020 A 
ENDBRANCH  22  23
ENDBRANCH  21  22
ENDBRANCH   1  16
TORSDOF 6
ENDMDL
MODEL 4
REMARK VINA RESULT:    -9.383      3.397      7.106
REMARK INTER + INTRA:         -12.621
REMARK INTER:                 -12.325
REMARK INTRA:                  -0.295
REMARK UNBOUND:                 0.053
REMARK SMILES COc1cc2c(cc1OC)C(=O)[C@H](CC1CCN(Cc3ccccn3)CC1)C2
REMARK SMILES IDX 14 1 13 2 3 3 4 4 8 5 5 6 7 7 6 8 28 9 11 10 12 11 2 12 1 13
REMARK SMILES IDX 9 14 10 15 15 16 16 17 27 18 17 19 26 20 18 21 19 22 20 23
REMARK SMILES IDX 21 24 25 25 22 26 24 27 23 28
REMARK H PARENT
ROOT
ATOM      1  C   UNL     1     133.511 111.396  41.943  1.00  0.00     0.016 C 
ENDROOT
BRANCH   1   2
ATOM      2  C   UNL     1     134.718 110.450  41.876  1.00  0.00     0.066 C 
ATOM      3  C   UNL     1     138.729 111.660  39.605  1.00  0.00     0.161 A 
ATOM      4  C   UNL     1     138.095 111.792  40.850  1.00  0.00     0.055 A 
ATOM      5  C   UNL     1     138.113 110.918  38.559  1.00  0.00     0.161 A 
ATOM      6  C   UNL     1     136.858 111.194  41.038  1.00  0.00    -0.033 A 
ATOM      7  C   UNL     1     136.868 110.318  38.766  1.00  0.00     0.062 A 
ATOM      8  C   UNL     1     136.276 110.476  40.005  1.00  0.00     0.025 A 
ATOM      9  C   UNL     1     136.025 111.185  42.280  1.00  0.00     0.048 C 
ATOM     10  C   UNL     1     134.995 109.960  40.465  1.00  0.00     0.166 C 
ATOM     11  O   UNL     1     134.282 109.243  39.785  1.00  0.00    -0.294 OA
BRANCH   3  12
ATOM     12  O   UNL     1     139.953 112.209  39.302  1.00  0.00    -0.493 OA
ATOM     13  C   UNL     1     140.648 112.888  40.338  1.00  0.00     0.278 C 
ENDBRANCH   3  12
BRANCH   5  14
ATOM     14  O   UNL     1     138.817 110.847  37.381  1.00  0.00    -0.493 OA
ATOM     15  C   UNL     1     138.673 109.669  36.600  1.00  0.00     0.278 C 
ENDBRANCH   5  14
ENDBRANCH   1   2
BRANCH   1  16
ATOM     16  C   UNL     1     133.171 111.966  43.341  1.00  0.00    -0.008 C 
ATOM     17  C   UNL     1     131.674 112.312  43.437  1.00  0.00     0.019 C 
ATOM     18  C   UNL     1     133.983 113.211  43.728  1.00  0.00     0.019 C 
ATOM     19  C   UNL     1     131.309 113.583  42.662  1.00  0.00     0.085 C 
ATOM     20  C   UNL     1     133.570 114.449  42.928  1.00  0.00     0.085 C 
ATOM     21  N   UNL     1     132.139 114.715  43.089  1.00  0.00    -0.297 NA
BRANCH  21  22
ATOM     22  C   UNL     1     131.709 115.986  42.473  1.00  0.00     0.140 C 
BRANCH  22  23
ATOM     23  C   UNL     1     132.388 116.396  41.174  1.00  0.00     0.054 A 
ATOM     24  C   UNL     1     132.841 117.704  41.003  1.00  0.00     0.025 A 
ATOM     25  N   UNL     1     132.531 115.451  40.209  1.00  0.00    -0.260 NA
ATOM     26  C   UNL     1     133.461 118.054  39.806  1.00  0.00     0.004 A 
ATOM     27  C   UNL     1     133.134 115.819  39.058  1.00  0.00     0.111 A 
ATOM     28  C   UNL     1     133.612 117.095  38.813  1.00  0.00     0.020 A 
ENDBRANCH  22  23
ENDBRANCH  21  22
ENDBRANCH   1  16
TORSDOF 6
ENDMDL
MODEL 5
REMARK VINA RESULT:    -9.145      2.806      5.667
REMARK INTER + INTRA:         -12.299
REMARK INTER:                 -12.059
REMARK INTRA:                  -0.240
REMARK UNBOUND:                 0.053
REMARK SMILES COc1cc2c(cc1OC)C(=O)[C@H](CC1CCN(Cc3ccccn3)CC1)C2
REMARK SMILES IDX 14 1 13 2 3 3 4 4 8 5 5 6 7 7 6 8 28 9 11 10 12 11 2 12 1 13
REMARK SMILES IDX 9 14 10 15 15 16 16 17 27 18 17 19 26 20 18 21 19 22 20 23
REMARK SMILES IDX 21 24 25 25 22 26 24 27 23 28
REMARK H PARENT
ROOT
ATOM      1  C   UNL     1     133.229 114.178  39.353  1.00  0.00     0.016 C 
ENDROOT
BRANCH   1   2
ATOM      2  C   UNL     1     132.666 112.829  38.886  1.00  0.00     0.066 C 
ATOM      3  C   UNL     1     135.149 108.786  39.328  1.00  0.00     0.161 A 
ATOM      4  C   UNL     1     134.281 109.621  40.049  1.00  0.00     0.055 A 
ATOM      5  C   UNL     1     135.487 109.092  37.980  1.00  0.00     0.161 A 
ATOM      6  C   UNL     1     133.766 110.747  39.426  1.00  0.00    -0.033 A 
ATOM      7  C   UNL     1     134.956 110.230  37.366  1.00  0.00     0.062 A 
ATOM      8  C   UNL     1     134.108 111.026  38.113  1.00  0.00     0.025 A 
ATOM      9  C   UNL     1     132.812 111.750  39.993  1.00  0.00     0.048 C 
ATOM     10  C   UNL     1     133.438 112.254  37.710  1.00  0.00     0.166 C 
ATOM     11  O   UNL     1     133.509 112.715  36.585  1.00  0.00    -0.294 OA
BRANCH   3  12
ATOM     12  O   UNL     1     135.721 107.645  39.839  1.00  0.00    -0.493 OA
ATOM     13  C   UNL     1     136.630 107.788  40.920  1.00  0.00     0.278 C 
ENDBRANCH   3  12
BRANCH   5  14
ATOM     14  O   UNL     1     136.342 108.211  37.363  1.00  0.00    -0.493 OA
ATOM     15  C   UNL     1     135.848 107.494  36.239  1.00  0.00     0.278 C 
ENDBRANCH   5  14
ENDBRANCH   1   2
BRANCH   1  16
ATOM     16  C   UNL     1     133.602 114.276  40.852  1.00  0.00    -0.008 C 
ATOM     17  C   UNL     1     133.739 115.748  41.283  1.00  0.00     0.019 C 
ATOM     18  C   UNL     1     134.895 113.538  41.229  1.00  0.00     0.019 C 
ATOM     19  C   UNL     1     135.026 116.400  40.763  1.00  0.00     0.085 C 
ATOM     20  C   UNL     1     136.145 114.238  40.691  1.00  0.00     0.085 C 
ATOM     21  N   UNL     1     136.205 115.623  41.162  1.00  0.00    -0.297 NA
BRANCH  21  22
ATOM     22  C   UNL     1     137.466 116.305  40.810  1.00  0.00     0.140 C 
BRANCH  22  23
ATOM     23  C   UNL     1     138.758 115.698  41.338  1.00  0.00     0.054 A 
ATOM     24  C   UNL     1     139.505 116.372  42.304  1.00  0.00     0.025 A 
ATOM     25  N   UNL     1     139.142 114.496  40.837  1.00  0.00    -0.260 NA
ATOM     26  C   UNL     1     140.682 115.793  42.772  1.00  0.00     0.004 A 
ATOM     27  C   UNL     1     140.289 113.960  41.308  1.00  0.00     0.111 A 
ATOM     28  C   UNL     1     141.084 114.564  42.266  1.00  0.00     0.020 A 
ENDBRANCH  22  23
ENDBRANCH  21  22
ENDBRANCH   1  16
TORSDOF 6
ENDMDL
MODEL 6
REMARK VINA RESULT:    -9.135      3.585      6.205
REMARK INTER + INTRA:         -12.286
REMARK INTER:                 -11.949
REMARK INTRA:                  -0.337
REMARK UNBOUND:                 0.053
REMARK SMILES COc1cc2c(cc1OC)C(=O)[C@H](CC1CCN(Cc3ccccn3)CC1)C2
REMARK SMILES IDX 14 1 13 2 3 3 4 4 8 5 5 6 7 7 6 8 28 9 11 10 12 11 2 12 1 13
REMARK SMILES IDX 9 14 10 15 15 16 16 17 27 18 17 19 26 20 18 21 19 22 20 23
REMARK SMILES IDX 21 24 25 25 22 26 24 27 23 28
REMARK H PARENT
ROOT
ATOM      1  C   UNL     1     139.110 111.156  37.814  1.00  0.00     0.016 C 
ENDROOT
BRANCH   1   2
ATOM      2  C   UNL     1     138.434 111.351  39.178  1.00  0.00     0.066 C 
ATOM      3  C   UNL     1     137.161 115.666  40.751  1.00  0.00     0.161 A 
ATOM      4  C   UNL     1     136.691 114.609  39.955  1.00  0.00     0.055 A 
ATOM      5  C   UNL     1     138.419 115.567  41.408  1.00  0.00     0.161 A 
ATOM      6  C   UNL     1     137.476 113.475  39.819  1.00  0.00    -0.033 A 
ATOM      7  C   UNL     1     139.197 114.415  41.262  1.00  0.00     0.062 A 
ATOM      8  C   UNL     1     138.698 113.400  40.468  1.00  0.00     0.025 A 
ATOM      9  C   UNL     1     137.161 112.232  39.049  1.00  0.00     0.048 C 
ATOM     10  C   UNL     1     139.311 112.116  40.156  1.00  0.00     0.166 C 
ATOM     11  O   UNL     1     140.370 111.749  40.633  1.00  0.00    -0.294 OA
BRANCH   3  12
ATOM     12  O   UNL     1     136.473 116.838  40.959  1.00  0.00    -0.493 OA
ATOM     13  C   UNL     1     135.244 117.015  40.269  1.00  0.00     0.278 C 
ENDBRANCH   3  12
BRANCH   5  14
ATOM     14  O   UNL     1     138.786 116.655  42.163  1.00  0.00    -0.493 OA
ATOM     15  C   UNL     1     140.175 116.869  42.375  1.00  0.00     0.278 C 
ENDBRANCH   5  14
ENDBRANCH   1   2
BRANCH   1  16
ATOM     16  C   UNL     1     139.168 109.702  37.287  1.00  0.00    -0.008 C 
ATOM     17  C   UNL     1     137.847 109.322  36.593  1.00  0.00     0.019 C 
ATOM     18  C   UNL     1     139.468 108.651  38.366  1.00  0.00     0.019 C 
ATOM     19  C   UNL     1     136.705 109.078  37.586  1.00  0.00     0.085 C 
ATOM     20  C   UNL     1     138.291 108.445  39.322  1.00  0.00     0.085 C 
ATOM     21  N   UNL     1     137.084 108.071  38.583  1.00  0.00    -0.297 NA
BRANCH  21  22
ATOM     22  C   UNL     1     135.954 107.702  39.459  1.00  0.00     0.140 C 
BRANCH  22  23
ATOM     23  C   UNL     1     135.385 108.788  40.359  1.00  0.00     0.054 A 
ATOM     24  C   UNL     1     135.965 109.046  41.601  1.00  0.00     0.025 A 
ATOM     25  N   UNL     1     134.308 109.483  39.907  1.00  0.00    -0.260 NA
ATOM     26  C   UNL     1     135.426 110.048  42.404  1.00  0.00     0.004 A 
ATOM     27  C   UNL     1     133.806 110.447  40.709  1.00  0.00     0.111 A 
ATOM     28  C   UNL     1     134.325 110.764  41.951  1.00  0.00     0.020 A 
ENDBRANCH  22  23
ENDBRANCH  21  22
ENDBRANCH   1  16
TORSDOF 6
ENDMDL
MODEL 7
REMARK VINA RESULT:    -9.113      1.422      1.987
REMARK INTER + INTRA:         -12.256
REMARK INTER:                 -13.247
REMARK INTRA:                   0.991
REMARK UNBOUND:                 0.053
REMARK SMILES COc1cc2c(cc1OC)C(=O)[C@H](CC1CCN(Cc3ccccn3)CC1)C2
REMARK SMILES IDX 14 1 13 2 3 3 4 4 8 5 5 6 7 7 6 8 28 9 11 10 12 11 2 12 1 13
REMARK SMILES IDX 9 14 10 15 15 16 16 17 27 18 17 19 26 20 18 21 19 22 20 23
REMARK SMILES IDX 21 24 25 25 22 26 24 27 23 28
REMARK H PARENT
ROOT
ATOM      1  C   UNL     1     134.186 110.471  40.303  1.00  0.00     0.016 C 
ENDROOT
BRANCH   1   2
ATOM      2  C   UNL     1     132.936 111.235  39.845  1.00  0.00     0.066 C 
ATOM      3  C   UNL     1     133.068 115.898  38.870  1.00  0.00     0.161 A 
ATOM      4  C   UNL     1     133.302 114.649  38.273  1.00  0.00     0.055 A 
ATOM      5  C   UNL     1     132.603 115.979  40.212  1.00  0.00     0.161 A 
ATOM      6  C   UNL     1     133.077 113.501  39.017  1.00  0.00    -0.033 A 
ATOM      7  C   UNL     1     132.379 114.811  40.946  1.00  0.00     0.062 A 
ATOM      8  C   UNL     1     132.624 113.603  40.322  1.00  0.00     0.025 A 
ATOM      9  C   UNL     1     133.234 112.080  38.576  1.00  0.00     0.048 C 
ATOM     10  C   UNL     1     132.476 112.261  40.867  1.00  0.00     0.166 C 
ATOM     11  O   UNL     1     132.039 112.038  41.983  1.00  0.00    -0.294 OA
BRANCH   3  12
ATOM     12  O   UNL     1     133.256 117.102  38.233  1.00  0.00    -0.493 OA
ATOM     13  C   UNL     1     133.026 117.154  36.833  1.00  0.00     0.278 C 
ENDBRANCH   3  12
BRANCH   5  14
ATOM     14  O   UNL     1     132.404 117.248  40.700  1.00  0.00    -0.493 OA
ATOM     15  C   UNL     1     132.023 117.374  42.064  1.00  0.00     0.278 C 
ENDBRANCH   5  14
ENDBRANCH   1   2
BRANCH   1  16
ATOM     16  C   UNL     1     134.787 110.905  41.662  1.00  0.00    -0.008 C 
ATOM     17  C   UNL     1     135.048 112.422  41.680  1.00  0.00     0.019 C 
ATOM     18  C   UNL     1     136.091 110.183  42.033  1.00  0.00     0.019 C 
ATOM     19  C   UNL     1     136.266 112.824  40.840  1.00  0.00     0.085 C 
ATOM     20  C   UNL     1     137.272 110.630  41.167  1.00  0.00     0.085 C 
ATOM     21  N   UNL     1     137.459 112.079  41.257  1.00  0.00    -0.297 NA
BRANCH  21  22
ATOM     22  C   UNL     1     138.679 112.553  40.572  1.00  0.00     0.140 C 
BRANCH  22  23
ATOM     23  C   UNL     1     139.335 113.815  41.111  1.00  0.00     0.054 A 
ATOM     24  C   UNL     1     140.584 113.748  41.728  1.00  0.00     0.025 A 
ATOM     25  N   UNL     1     138.664 114.988  40.967  1.00  0.00    -0.260 NA
ATOM     26  C   UNL     1     141.164 114.918  42.211  1.00  0.00     0.004 A 
ATOM     27  C   UNL     1     139.250 116.106  41.447  1.00  0.00     0.111 A 
ATOM     28  C   UNL     1     140.486 116.122  42.068  1.00  0.00     0.020 A 
ENDBRANCH  22  23
ENDBRANCH  21  22
ENDBRANCH   1  16
TORSDOF 6
ENDMDL
MODEL 8
REMARK VINA RESULT:    -8.979      4.210      7.689
REMARK INTER + INTRA:         -12.076
REMARK INTER:                 -11.711
REMARK INTRA:                  -0.365
REMARK UNBOUND:                 0.053
REMARK SMILES COc1cc2c(cc1OC)C(=O)[C@H](CC1CCN(Cc3ccccn3)CC1)C2
REMARK SMILES IDX 14 1 13 2 3 3 4 4 8 5 5 6 7 7 6 8 28 9 11 10 12 11 2 12 1 13
REMARK SMILES IDX 9 14 10 15 15 16 16 17 27 18 17 19 26 20 18 21 19 22 20 23
REMARK SMILES IDX 21 24 25 25 22 26 24 27 23 28
REMARK H PARENT
ROOT
ATOM      1  C   UNL     1     134.405 111.804  41.980  1.00  0.00     0.016 C 
ENDROOT
BRANCH   1   2
ATOM      2  C   UNL     1     134.374 110.405  41.349  1.00  0.00     0.066 C 
ATOM      3  C   UNL     1     138.065 108.690  38.870  1.00  0.00     0.161 A 
ATOM      4  C   UNL     1     137.588 108.803  40.186  1.00  0.00     0.055 A 
ATOM      5  C   UNL     1     137.291 109.179  37.781  1.00  0.00     0.161 A 
ATOM      6  C   UNL     1     136.358 109.404  40.402  1.00  0.00    -0.033 A 
ATOM      7  C   UNL     1     136.051 109.779  38.016  1.00  0.00     0.062 A 
ATOM      8  C   UNL     1     135.621 109.873  39.327  1.00  0.00     0.025 A 
ATOM      9  C   UNL     1     135.655 109.603  41.707  1.00  0.00     0.048 C 
ATOM     10  C   UNL     1     134.385 110.453  39.830  1.00  0.00     0.166 C 
ATOM     11  O   UNL     1     133.512 110.897  39.105  1.00  0.00    -0.294 OA
BRANCH   3  12
ATOM     12  O   UNL     1     139.268 108.116  38.533  1.00  0.00    -0.493 OA
ATOM     13  C   UNL     1     140.302 108.128  39.505  1.00  0.00     0.278 C 
ENDBRANCH   3  12
BRANCH   5  14
ATOM     14  O   UNL     1     137.845 109.018  36.533  1.00  0.00    -0.493 OA
ATOM     15  C   UNL     1     137.295 108.010  35.695  1.00  0.00     0.278 C 
ENDBRANCH   5  14
ENDBRANCH   1   2
BRANCH   1  16
ATOM     16  C   UNL     1     133.671 111.954  43.334  1.00  0.00    -0.008 C 
ATOM     17  C   UNL     1     132.145 111.921  43.132  1.00  0.00     0.019 C 
ATOM     18  C   UNL     1     134.031 113.231  44.107  1.00  0.00     0.019 C 
ATOM     19  C   UNL     1     131.601 113.217  42.519  1.00  0.00     0.085 C 
ATOM     20  C   UNL     1     133.454 114.490  43.454  1.00  0.00     0.085 C 
ATOM     21  N   UNL     1     132.001 114.382  43.316  1.00  0.00    -0.297 NA
BRANCH  21  22
ATOM     22  C   UNL     1     131.366 115.627  42.840  1.00  0.00     0.140 C 
BRANCH  22  23
ATOM     23  C   UNL     1     132.035 116.354  41.683  1.00  0.00     0.054 A 
ATOM     24  C   UNL     1     132.469 115.642  40.565  1.00  0.00     0.025 A 
ATOM     25  N   UNL     1     132.186 117.700  41.785  1.00  0.00    -0.260 NA
ATOM     26  C   UNL     1     133.077 116.331  39.519  1.00  0.00     0.004 A 
ATOM     27  C   UNL     1     132.781 118.341  40.756  1.00  0.00     0.111 A 
ATOM     28  C   UNL     1     133.236 117.708  39.613  1.00  0.00     0.020 A 
ENDBRANCH  22  23
ENDBRANCH  21  22
ENDBRANCH   1  16
TORSDOF 6
ENDMDL
MODEL 9
REMARK VINA RESULT:    -8.889      3.130      4.706
REMARK INTER + INTRA:         -11.954
REMARK INTER:                 -11.089
REMARK INTRA:                  -0.865
REMARK UNBOUND:                 0.053
REMARK SMILES COc1cc2c(cc1OC)C(=O)[C@H](CC1CCN(Cc3ccccn3)CC1)C2
REMARK SMILES IDX 14 1 13 2 3 3 4 4 8 5 5 6 7 7 6 8 28 9 11 10 12 11 2 12 1 13
REMARK SMILES IDX 9 14 10 15 15 16 16 17 27 18 17 19 26 20 18 21 19 22 20 23
REMARK SMILES IDX 21 24 25 25 22 26 24 27 23 28
REMARK H PARENT
ROOT
ATOM      1  C   UNL     1     133.625 110.603  40.429  1.00  0.00     0.016 C 
ENDROOT
BRANCH   1   2
ATOM      2  C   UNL     1     132.468 111.529  40.030  1.00  0.00     0.066 C 
ATOM      3  C   UNL     1     133.233 115.971  38.482  1.00  0.00     0.161 A 
ATOM      4  C   UNL     1     133.173 114.646  38.020  1.00  0.00     0.055 A 
ATOM      5  C   UNL     1     132.975 116.268  39.850  1.00  0.00     0.161 A 
ATOM      6  C   UNL     1     132.866 113.638  38.920  1.00  0.00    -0.033 A 
ATOM      7  C   UNL     1     132.664 115.239  40.743  1.00  0.00     0.062 A 
ATOM      8  C   UNL     1     132.619 113.949  40.248  1.00  0.00     0.025 A 
ATOM      9  C   UNL     1     132.725 112.175  38.641  1.00  0.00     0.048 C 
ATOM     10  C   UNL     1     132.327 112.718  40.966  1.00  0.00     0.166 C 
ATOM     11  O   UNL     1     132.017 112.690  42.144  1.00  0.00    -0.294 OA
BRANCH   3  12
ATOM     12  O   UNL     1     133.528 117.052  37.685  1.00  0.00    -0.493 OA
ATOM     13  C   UNL     1     132.865 117.151  36.433  1.00  0.00     0.278 C 
ENDBRANCH   3  12
BRANCH   5  14
ATOM     14  O   UNL     1     133.057 117.594  40.199  1.00  0.00    -0.493 OA
ATOM     15  C   UNL     1     132.495 117.981  41.447  1.00  0.00     0.278 C 
ENDBRANCH   5  14
ENDBRANCH   1   2
BRANCH   1  16
ATOM     16  C   UNL     1     134.739 111.241  41.294  1.00  0.00    -0.008 C 
ATOM     17  C   UNL     1     135.793 111.925  40.405  1.00  0.00     0.019 C 
ATOM     18  C   UNL     1     135.457 110.253  42.225  1.00  0.00     0.019 C 
ATOM     19  C   UNL     1     136.708 110.922  39.693  1.00  0.00     0.085 C 
ATOM     20  C   UNL     1     136.362 109.284  41.461  1.00  0.00     0.085 C 
ATOM     21  N   UNL     1     137.342 110.016  40.657  1.00  0.00    -0.297 NA
BRANCH  21  22
ATOM     22  C   UNL     1     138.346 109.140  40.021  1.00  0.00     0.140 C 
BRANCH  22  23
ATOM     23  C   UNL     1     138.174 108.843  38.539  1.00  0.00     0.054 A 
ATOM     24  C   UNL     1     137.219 107.918  38.116  1.00  0.00     0.025 A 
ATOM     25  N   UNL     1     138.975 109.504  37.664  1.00  0.00    -0.260 NA
ATOM     26  C   UNL     1     137.079 107.666  36.753  1.00  0.00     0.004 A 
ATOM     27  C   UNL     1     138.819 109.237  36.349  1.00  0.00     0.111 A 
ATOM     28  C   UNL     1     137.894 108.337  35.850  1.00  0.00     0.020 A 
ENDBRANCH  22  23
ENDBRANCH  21  22
ENDBRANCH   1  16
TORSDOF 6
ENDMDL
