MODEL 1
REMARK minimizedAffinity -9.39655018
REMARK CNNscore 0.26872009
REMARK CNNaffinity 7.19331121
REMARK SMILES O=C(Nc1cc2c(Nc3ccc(F)c(Cl)c3)ncnc2cc1O[C@H]1CCOC1)/C(F)=C/CN1CCOCC1
REMARK SMILES IDX 4 1 5 2 6 3 7 4 17 5 18 6 19 7 20 8 21 9 22 10 3 11 1 12
REMARK SMILES IDX 2 13 29 15 31 16 30 17 32 18 33 19 38 20 34 21 37 22 35 23
REMARK SMILES IDX 36 24 23 25 24 26 28 27 25 28 27 29 26 30 8 31 9 33 16 34
REMARK SMILES IDX 10 35 14 36 11 37 12 38 15 39 13 40
REMARK H PARENT 3 14 8 32
ROOT
ATOM      1  C   UNL     1      11.894   2.694  28.212  1.00  0.00     0.085 A 
ATOM      2  C   UNL     1      10.775   2.378  28.994  1.00  0.00     0.044 A 
ATOM      3  C   UNL     1      10.929   1.926  30.330  1.00  0.00     0.045 A 
ATOM      4  C   UNL     1       9.856   1.594  31.213  1.00  0.00     0.141 A 
ATOM      5  N   UNL     1      10.078   1.171  32.484  1.00  0.00    -0.219 NA
ATOM      6  C   UNL     1      11.368   1.070  32.876  1.00  0.00     0.224 A 
ATOM      7  N   UNL     1      12.466   1.351  32.133  1.00  0.00    -0.236 NA
ATOM      8  C   UNL     1      12.248   1.781  30.858  1.00  0.00     0.080 A 
ATOM      9  C   UNL     1      13.360   2.087  30.042  1.00  0.00     0.077 A 
ATOM     10  C   UNL     1      13.190   2.533  28.723  1.00  0.00     0.145 A 
ENDROOT
BRANCH   1  11
ATOM     11  N   UNL     1      11.762   3.131  26.878  1.00  0.00    -0.317 N 
ATOM     12  O   UNL     1      11.637   5.390  27.166  1.00  0.00    -0.266 OA
ATOM     13  C   UNL     1      11.643   4.401  26.427  1.00  0.00     0.284 C 
ATOM     14  H   UNL     1      11.872   2.409  26.179  1.00  0.00     0.170 HD
BRANCH  13  15
ATOM     15  C   UNL     1      11.521   4.518  24.983  1.00  0.00     0.185 C 
ATOM     16  C   UNL     1      11.787   5.657  24.313  1.00  0.00     0.033 C 
ATOM     17  F   UNL     1      11.119   3.392  24.342  1.00  0.00    -0.201 F 
BRANCH  16  18
ATOM     18  C   UNL     1      11.689   5.820  22.806  1.00  0.00     0.115 C 
BRANCH  18  19
ATOM     19  N   UNL     1      11.321   7.166  22.369  1.00  0.00    -0.295 NA
ATOM     20  C   UNL     1      12.490   8.054  22.325  1.00  0.00     0.113 C 
ATOM     21  C   UNL     1      10.230   7.727  23.181  1.00  0.00     0.113 C 
ATOM     22  C   UNL     1      12.093   9.492  21.930  1.00  0.00     0.175 C 
ATOM     23  C   UNL     1       9.901   9.175  22.761  1.00  0.00     0.175 C 
ATOM     24  O   UNL     1      11.077   9.977  22.801  1.00  0.00    -0.379 OA
ENDBRANCH  18  19
ENDBRANCH  16  18
ENDBRANCH  13  15
ENDBRANCH   1  11
BRANCH  10  25
ATOM     25  O   UNL     1      14.254   2.845  27.889  1.00  0.00    -0.486 OA
BRANCH  25  26
ATOM     26  C   UNL     1      14.612   1.986  26.803  1.00  0.00     0.201 C 
ATOM     27  C   UNL     1      15.689   1.037  27.326  1.00  0.00     0.205 C 
ATOM     28  C   UNL     1      15.317   2.722  25.667  1.00  0.00     0.076 C 
ATOM     29  O   UNL     1      16.905   1.735  27.104  1.00  0.00    -0.377 OA
ATOM     30  C   UNL     1      16.805   2.414  25.856  1.00  0.00     0.164 C 
ENDBRANCH  25  26
ENDBRANCH  10  25
BRANCH   4  31
ATOM     31  N   UNL     1       8.523   1.737  30.781  1.00  0.00    -0.340 N 
ATOM     32  H   UNL     1       8.284   1.139  30.004  1.00  0.00     0.168 HD
BRANCH  31  33
ATOM     33  C   UNL     1       7.465   2.564  31.200  1.00  0.00     0.041 A 
ATOM     34  C   UNL     1       7.295   3.881  30.749  1.00  0.00     0.049 A 
ATOM     35  C   UNL     1       6.569   2.049  32.143  1.00  0.00     0.029 A 
ATOM     36  C   UNL     1       6.233   4.658  31.214  1.00  0.00     0.078 A 
ATOM     37  C   UNL     1       5.506   2.823  32.608  1.00  0.00     0.043 A 
ATOM     38  C   UNL     1       5.335   4.127  32.143  1.00  0.00     0.141 A 
ATOM     39  Cl  UNL     1       6.045   6.276  30.639  1.00  0.00    -0.081 Cl
ATOM     40  F   UNL     1       4.301   4.870  32.602  1.00  0.00    -0.205 F 
ENDBRANCH  31  33
ENDBRANCH   4  31
TORSDOF 8
ENDMDL
