REMARK SMILES Cc1ccc(Cn2nc(CCCc3ccc(OC(C)(C)C(=O)O)cc3)nc2O)cc1
REMARK SMILES IDX 12 1 11 2 10 3 9 4 7 5 8 6 27 7 26 8 6 9 5 10 2 11 3 12
REMARK SMILES IDX 30 13 4 14 29 15 1 16 28 17 13 19 14 20 25 21 15 22 24 23
REMARK SMILES IDX 16 24 17 25 18 26 19 27 20 28 21 29 22 30 23 31
REMARK H PARENT 28 18 23 32
REMARK INDEX MAP 12 1 11 2 10 3 9 4 7 5 8 6 27 7 26 8 6 9 5 10 2 11 3 12 30 13
REMARK INDEX MAP 4 14 29 15 1 16 28 17 55 18 13 19 14 20 25 21 15 22 24 23
REMARK INDEX MAP 16 24 17 25 18 26 19 27 20 28 21 29 22 30 23 31 52 32
ROOT
ATOM      1  C   UNL     1       9.800   5.207  -8.434  1.00  0.00     0.036 C 
ENDROOT
BRANCH   1   2
ATOM      2  C   UNL     1       9.261   5.511  -7.031  1.00  0.00     0.013 C 
BRANCH   2   3
ATOM      3  C   UNL     1       7.905   4.868  -6.714  1.00  0.00     0.080 C 
BRANCH   3   4
ATOM      4  C   UNL     1       6.841   5.854  -6.389  1.00  0.00     0.154 A 
ATOM      5  N   UNL     1       5.032   6.695  -5.785  1.00  0.00    -0.211 N 
ATOM      6  N   UNL     1       5.624   5.490  -5.952  1.00  0.00    -0.153 NA
ATOM      7  C   UNL     1       5.879   7.694  -6.152  1.00  0.00     0.312 A 
ATOM      8  N   UNL     1       7.027   7.209  -6.537  1.00  0.00    -0.179 NA
BRANCH   5   9
ATOM      9  C   UNL     1       3.651   6.811  -5.362  1.00  0.00     0.185 C 
BRANCH   9  10
ATOM     10  C   UNL     1       3.508   6.642  -3.871  1.00  0.00    -0.026 A 
ATOM     11  C   UNL     1       3.233   6.333  -1.083  1.00  0.00    -0.051 A 
ATOM     12  C   UNL     1       3.688   7.542  -1.621  1.00  0.00     0.004 A 
ATOM     13  C   UNL     1       2.890   5.289  -1.950  1.00  0.00     0.004 A 
ATOM     14  C   UNL     1       3.827   7.695  -3.002  1.00  0.00     0.006 A 
ATOM     15  C   UNL     1       3.028   5.441  -3.331  1.00  0.00     0.006 A 
ATOM     16  C   UNL     1       3.051   6.182   0.399  1.00  0.00     0.044 C 
ENDBRANCH   9  10
ENDBRANCH   5   9
BRANCH   7  17
ATOM     17  O   UNL     1       5.606   8.981  -6.145  1.00  0.00    -0.479 OA
ATOM     18  H   UNL     1       4.718   9.297  -5.843  1.00  0.00     0.297 HD
ENDBRANCH   7  17
ENDBRANCH   3   4
ENDBRANCH   2   3
ENDBRANCH   1   2
BRANCH   1  19
ATOM     19  C   UNL     1      10.108   6.442  -9.242  1.00  0.00    -0.048 A 
ATOM     20  C   UNL     1      10.654   6.335 -10.526  1.00  0.00     0.007 A 
ATOM     21  C   UNL     1       9.870   7.716  -8.720  1.00  0.00     0.007 A 
ATOM     22  C   UNL     1      10.945   7.478 -11.281  1.00  0.00     0.047 A 
ATOM     23  C   UNL     1      10.169   8.855  -9.473  1.00  0.00     0.047 A 
ATOM     24  C   UNL     1      10.699   8.747 -10.762  1.00  0.00     0.121 A 
BRANCH  24  25
ATOM     25  O   UNL     1      10.935   9.945 -11.369  1.00  0.00    -0.476 OA
BRANCH  25  26
ATOM     26  C   UNL     1      10.526  10.220 -12.712  1.00  0.00     0.199 C 
ATOM     27  C   UNL     1      10.453  11.759 -12.769  1.00  0.00     0.069 C 
ATOM     28  C   UNL     1       9.111   9.676 -12.975  1.00  0.00     0.069 C 
BRANCH  26  29
ATOM     29  C   UNL     1      11.538   9.830 -13.807  1.00  0.00     0.347 C 
ATOM     30  O   UNL     1      12.574   9.195 -13.667  1.00  0.00    -0.248 OA
BRANCH  29  31
ATOM     31  O   UNL     1      11.220  10.302 -15.033  1.00  0.00    -0.478 OA
ATOM     32  H   UNL     1      11.807  10.107 -15.806  1.00  0.00     0.296 HD
ENDBRANCH  29  31
ENDBRANCH  26  29
ENDBRANCH  25  26
ENDBRANCH  24  25
ENDBRANCH   1  19
TORSDOF 11
