REMARK VINA RESULT:    -8.870      1.848      9.630
REMARK INTER + INTRA:         -12.953
REMARK INTER:                 -12.405
REMARK INTRA:                  -0.549
REMARK UNBOUND:                -1.232
REMARK SMILES Cn1nc(-c2cc3ncccc3c(-c3ccn([C@]4(CC#N)C[C@@H](C#N)C4)n3)n2)cc1CN
REMARK SMILES IDX 5 1 6 2 7 3 8 4 9 5 10 6 11 7 12 8 13 9 28 10 4 11 2 12 3 13
REMARK SMILES IDX 30 14 29 15 1 16 31 17 32 18 14 21 15 22 27 23 16 24 17 25
REMARK SMILES IDX 18 26 26 27 22 28 23 29 24 30 25 31 19 32 20 33 21 34
REMARK H PARENT 32 19 32 20
ROOT
ATOM      1  C   UNL     1       5.371 -19.423  19.682  1.00  0.00     0.093 A 
ATOM      2  C   UNL     1       6.618 -18.851  19.858  1.00  0.00     0.059 A 
ATOM      3  C   UNL     1       7.680 -19.627  20.270  1.00  0.00     0.075 A 
ATOM      4  N   UNL     1       8.872 -19.020  20.410  1.00  0.00    -0.256 NA
ATOM      5  C   UNL     1       9.933 -19.756  20.797  1.00  0.00     0.112 A 
ATOM      6  C   UNL     1       9.868 -21.107  21.055  1.00  0.00     0.021 A 
ATOM      7  C   UNL     1       8.635 -21.732  20.913  1.00  0.00     0.014 A 
ATOM      8  C   UNL     1       7.486 -21.000  20.519  1.00  0.00     0.028 A 
ATOM      9  C   UNL     1       6.176 -21.502  20.332  1.00  0.00     0.101 A 
ATOM     10  N   UNL     1       5.138 -20.734  19.907  1.00  0.00    -0.244 NA
ENDROOT
BRANCH   1  11
ATOM     11  C   UNL     1       4.221 -18.626  19.237  1.00  0.00     0.111 A 
ATOM     12  N   UNL     1       2.362 -17.583  19.280  1.00  0.00    -0.271 N 
ATOM     13  N   UNL     1       3.199 -18.302  20.048  1.00  0.00    -0.171 NA
ATOM     14  C   UNL     1       2.799 -17.422  17.991  1.00  0.00     0.052 A 
ATOM     15  C   UNL     1       4.006 -18.089  17.939  1.00  0.00     0.057 A 
ATOM     16  C   UNL     1       1.138 -17.079  19.860  1.00  0.00     0.174 C 
BRANCH  14  17
ATOM     17  C   UNL     1       2.069 -16.664  16.948  1.00  0.00     0.134 C 
BRANCH  17  18
ATOM     18  N   UNL     1       1.797 -17.527  15.811  1.00  0.00    -0.325 NA
ATOM     19  H   UNL     1       0.885 -17.282  15.426  1.00  0.00     0.119 HD
ATOM     20  H   UNL     1       2.466 -17.330  15.067  1.00  0.00     0.119 HD
ENDBRANCH  17  18
ENDBRANCH  14  17
ENDBRANCH   1  11
BRANCH   9  21
ATOM     21  C   UNL     1       5.784 -22.905  20.570  1.00  0.00     0.111 A 
ATOM     22  C   UNL     1       4.953 -23.695  19.724  1.00  0.00     0.052 A 
ATOM     23  N   UNL     1       6.123 -23.609  21.665  1.00  0.00    -0.171 NA
ATOM     24  C   UNL     1       4.816 -24.908  20.354  1.00  0.00     0.110 A 
ATOM     25  N   UNL     1       5.541 -24.807  21.501  1.00  0.00    -0.265 N 
BRANCH  25  26
ATOM     26  C   UNL     1       5.645 -25.870  22.552  1.00  0.00     0.078 C 
ATOM     27  C   UNL     1       6.033 -25.270  23.948  1.00  0.00     0.050 C 
ATOM     28  C   UNL     1       7.041 -26.574  22.593  1.00  0.00     0.050 C 
ATOM     29  C   UNL     1       7.522 -25.474  23.574  1.00  0.00     0.097 C 
ATOM     30  C   UNL     1       8.382 -25.921  24.646  1.00  0.00     0.066 C 
ATOM     31  N   UNL     1       9.063 -26.288  25.511  1.00  0.00    -0.198 NA
BRANCH  26  32
ATOM     32  C   UNL     1       4.387 -26.737  22.573  1.00  0.00     0.150 C 
ATOM     33  C   UNL     1       4.687 -28.123  22.954  1.00  0.00     0.065 C 
ATOM     34  N   UNL     1       4.955 -29.205  23.276  1.00  0.00    -0.198 NA
ENDBRANCH  26  32
ENDBRANCH  25  26
ENDBRANCH   9  21
TORSDOF 6
