REMARK VINA RESULT:   -10.475      2.981      3.931
REMARK INTER + INTRA:         -15.277
REMARK INTER:                 -13.998
REMARK INTRA:                  -1.279
REMARK UNBOUND:                -1.128
REMARK SMILES C=CC(=O)N1CC[C@@H](n2nc(-c3ccc(Oc4ccc5c(c4)ncn5C)c(C)c3)c3c(C)ncnc32)C1
REMARK SMILES IDX 9 1 10 2 11 3 30 4 31 5 32 6 33 7 34 8 35 9 36 10 8 11 5 12
REMARK SMILES IDX 6 13 37 14 7 15 3 16 4 17 2 18 1 19 12 20 13 21 29 22 14 23
REMARK SMILES IDX 27 24 15 25 28 26 16 27 17 28 18 29 22 30 19 31 21 32 20 33
REMARK SMILES IDX 23 34 25 35 24 36 26 37
REMARK H PARENT
ROOT
ATOM      1  N   UNL     1      13.714   5.316  25.482  1.00  0.00    -0.242 N 
ATOM      2  N   UNL     1      12.894   4.908  26.475  1.00  0.00    -0.170 NA
ATOM      3  C   UNL     1      13.466   3.781  26.933  1.00  0.00     0.104 A 
ATOM      4  C   UNL     1      14.698   3.509  26.268  1.00  0.00     0.068 A 
ATOM      5  C   UNL     1      15.733   2.564  26.317  1.00  0.00     0.052 A 
ATOM      6  C   UNL     1      15.801   1.406  27.262  1.00  0.00     0.067 C 
ATOM      7  N   UNL     1      16.760   2.698  25.428  1.00  0.00    -0.241 NA
ATOM      8  C   UNL     1      16.747   3.732  24.563  1.00  0.00     0.224 A 
ATOM      9  N   UNL     1      15.820   4.697  24.450  1.00  0.00    -0.217 NA
ATOM     10  C   UNL     1      14.822   4.523  25.335  1.00  0.00     0.162 A 
ENDROOT
BRANCH   1  11
ATOM     11  C   UNL     1      13.427   6.504  24.696  1.00  0.00     0.131 C 
ATOM     12  N   UNL     1      11.291   7.379  25.265  1.00  0.00    -0.337 N 
ATOM     13  C   UNL     1      12.257   8.032  26.137  1.00  0.00     0.122 C 
ATOM     14  C   UNL     1      11.959   6.553  24.267  1.00  0.00     0.147 C 
ATOM     15  C   UNL     1      13.597   7.835  25.440  1.00  0.00     0.051 C 
BRANCH  12  16
ATOM     16  C   UNL     1       9.918   7.448  25.307  1.00  0.00     0.246 C 
ATOM     17  O   UNL     1       9.319   8.114  26.148  1.00  0.00    -0.270 OA
BRANCH  16  18
ATOM     18  C   UNL     1       9.180   6.676  24.271  1.00  0.00     0.063 C 
ATOM     19  C   UNL     1       7.940   7.033  23.913  1.00  0.00     0.014 C 
ENDBRANCH  16  18
ENDBRANCH  12  16
ENDBRANCH   1  11
BRANCH   3  20
ATOM     20  C   UNL     1      12.824   3.008  27.986  1.00  0.00     0.003 A 
ATOM     21  C   UNL     1      11.600   2.376  27.743  1.00  0.00     0.014 A 
ATOM     22  C   UNL     1      13.435   2.887  29.242  1.00  0.00     0.017 A 
ATOM     23  C   UNL     1      10.972   1.658  28.760  1.00  0.00     0.048 A 
ATOM     24  C   UNL     1      12.820   2.157  30.270  1.00  0.00    -0.008 A 
ATOM     25  C   UNL     1      11.570   1.574  30.021  1.00  0.00     0.130 A 
ATOM     26  C   UNL     1      13.475   2.041  31.615  1.00  0.00     0.048 C 
BRANCH  25  27
ATOM     27  O   UNL     1      10.950   0.848  31.010  1.00  0.00    -0.457 OA
BRANCH  27  28
ATOM     28  C   UNL     1       9.696   1.258  31.423  1.00  0.00     0.129 A 
ATOM     29  C   UNL     1       8.745   0.235  31.510  1.00  0.00     0.049 A 
ATOM     30  C   UNL     1       9.359   2.572  31.775  1.00  0.00     0.077 A 
ATOM     31  C   UNL     1       7.433   0.483  31.935  1.00  0.00     0.032 A 
ATOM     32  C   UNL     1       8.049   2.840  32.200  1.00  0.00     0.092 A 
ATOM     33  C   UNL     1       7.122   1.804  32.272  1.00  0.00     0.068 A 
ATOM     34  N   UNL     1       7.487   4.032  32.588  1.00  0.00    -0.237 NA
ATOM     35  N   UNL     1       5.976   2.415  32.721  1.00  0.00    -0.334 N 
ATOM     36  C   UNL     1       6.242   3.743  32.893  1.00  0.00     0.200 A 
ATOM     37  C   UNL     1       4.713   1.770  32.971  1.00  0.00     0.151 C 
ENDBRANCH  27  28
ENDBRANCH  25  27
ENDBRANCH   3  20
TORSDOF 6
