MODEL 6
REMARK VINA RESULT:    -7.654      2.240      5.006
REMARK INTER + INTRA:         -13.985
REMARK INTER:                 -11.993
REMARK INTRA:                  -1.992
REMARK UNBOUND:                -1.857
REMARK SMILES N#Cc1cnc(NCC(F)(F)c2ccccc2)c(=O)n1CC(=O)NCCONC(=N)N
REMARK SMILES IDX 22 1 23 2 24 3 21 5 20 6 1 7 2 8 3 9 4 10 5 11 18 12 6 13
REMARK SMILES IDX 19 14 7 15 8 17 9 18 10 19 11 20 12 21 13 22 17 23 14 24
REMARK SMILES IDX 16 25 15 26 25 27 26 28 27 29 28 30 29 31 30 32 31 33
REMARK H PARENT 24 4 7 16 28 34 30 35 31 36 31 37
ROOT
ATOM      1  C   UNL     1     125.374 -16.596 163.115  1.00  0.00     0.240 C 
ATOM      2  O   UNL     1     125.142 -16.262 161.956  1.00  0.00    -0.273 OA
ATOM      3  N   UNL     1     125.130 -17.869 163.588  1.00  0.00    -0.352 N 
ATOM      4  H   UNL     1     125.508 -18.116 164.502  1.00  0.00     0.163 HD
ENDROOT
BRANCH   1   5
ATOM      5  C   UNL     1     125.994 -15.640 164.136  1.00  0.00     0.226 C 
BRANCH   5   6
ATOM      6  N   UNL     1     127.140 -14.921 163.574  1.00  0.00    -0.286 N 
ATOM      7  N   UNL     1     124.904 -12.186 163.474  1.00  0.00    -0.191 NA
ATOM      8  C   UNL     1     125.876 -12.813 163.379  1.00  0.00     0.119 C 
ATOM      9  C   UNL     1     127.077 -13.576 163.230  1.00  0.00     0.142 A 
ATOM     10  C   UNL     1     128.170 -12.969 162.734  1.00  0.00     0.151 A 
ATOM     11  N   UNL     1     129.387 -13.559 162.503  1.00  0.00    -0.231 NA
ATOM     12  C   UNL     1     128.342 -15.604 163.458  1.00  0.00     0.294 A 
ATOM     13  C   UNL     1     129.513 -14.817 162.820  1.00  0.00     0.193 A 
ATOM     14  O   UNL     1     128.554 -16.749 163.848  1.00  0.00    -0.265 OA
BRANCH  13  15
ATOM     15  N   UNL     1     130.688 -15.516 162.609  1.00  0.00    -0.359 N 
ATOM     16  H   UNL     1     130.529 -16.510 162.428  1.00  0.00     0.162 HD
BRANCH  15  17
ATOM     17  C   UNL     1     131.884 -15.248 163.417  1.00  0.00     0.196 C 
BRANCH  17  18
ATOM     18  C   UNL     1     132.399 -16.501 164.166  1.00  0.00     0.290 C 
ATOM     19  F   UNL     1     133.301 -17.127 163.345  1.00  0.00    -0.199 F 
ATOM     20  F   UNL     1     131.376 -17.396 164.309  1.00  0.00    -0.199 F 
BRANCH  18  21
ATOM     21  C   UNL     1     133.011 -16.121 165.498  1.00  0.00     0.023 A 
ATOM     22  C   UNL     1     132.243 -16.141 166.672  1.00  0.00     0.010 A 
ATOM     23  C   UNL     1     134.367 -15.763 165.579  1.00  0.00     0.010 A 
ATOM     24  C   UNL     1     132.819 -15.814 167.899  1.00  0.00     0.001 A 
ATOM     25  C   UNL     1     134.939 -15.435 166.810  1.00  0.00     0.001 A 
ATOM     26  C   UNL     1     134.166 -15.463 167.968  1.00  0.00     0.000 A 
ENDBRANCH  18  21
ENDBRANCH  17  18
ENDBRANCH  15  17
ENDBRANCH  13  15
ENDBRANCH   5   6
ENDBRANCH   1   5
BRANCH   3  27
ATOM     27  C   UNL     1     124.742 -18.946 162.694  1.00  0.00     0.147 C 
BRANCH  27  28
ATOM     28  C   UNL     1     125.899 -19.909 162.411  1.00  0.00     0.215 C 
BRANCH  28  29
ATOM     29  O   UNL     1     126.048 -20.042 160.986  1.00  0.00    -0.272 OA
BRANCH  29  30
ATOM     30  N   UNL     1     126.153 -18.758 160.426  1.00  0.00    -0.235 N 
ATOM     31  C   UNL     1     127.439 -18.335 160.275  1.00  0.00     0.210 C 
ATOM     32  N   UNL     1     128.483 -19.089 160.260  1.00  0.00    -0.268 NA
ATOM     33  N   UNL     1     127.571 -16.999 160.135  1.00  0.00    -0.368 N 
ATOM     34  H   UNL     1     125.524 -18.064 160.822  1.00  0.00     0.199 HD
ATOM     35  H   UNL     1     128.116 -20.045 160.353  1.00  0.00     0.191 HD
ATOM     36  H   UNL     1     126.970 -16.614 159.417  1.00  0.00     0.159 HD
ATOM     37  H   UNL     1     128.542 -16.786 159.919  1.00  0.00     0.159 HD
ENDBRANCH  29  30
ENDBRANCH  28  29
ENDBRANCH  27  28
ENDBRANCH   3  27
TORSDOF 10
ENDMDL
