REMARK SMILES Cc1ccc(Oc2ccc(Nc3ncnc4cccc(O[C@H](C)C(=O)N(C)C)c34)cc2C)cn1
REMARK SMILES IDX 12 1 13 2 14 3 15 4 16 5 17 6 18 7 19 8 20 9 29 10 11 11
REMARK SMILES IDX 10 13 7 14 8 15 31 16 9 17 30 18 32 19 6 20 5 21 2 22 3 23
REMARK SMILES IDX 34 24 4 25 33 26 1 27 21 28 22 29 23 30 24 31 25 32 26 33
REMARK SMILES IDX 27 34 28 35
REMARK H PARENT 11 12
REMARK INDEX MAP 12 1 13 2 14 3 15 4 16 5 17 6 18 7 19 8 20 9 29 10 11 11
REMARK INDEX MAP 42 12 10 13 7 14 8 15 31 16 9 17 30 18 32 19 6 20 5 21 2 22
REMARK INDEX MAP 3 23 34 24 4 25 33 26 1 27 21 28 22 29 23 30 24 31 25 32
REMARK INDEX MAP 26 33 27 34 28 35
ROOT
ATOM      1  C   UNL     1      19.523  32.771  13.134  1.00  0.00     0.145 A 
ATOM      2  N   UNL     1      19.816  32.163  11.963  1.00  0.00    -0.218 NA
ATOM      3  C   UNL     1      18.819  31.998  11.098  1.00  0.00     0.224 A 
ATOM      4  N   UNL     1      17.558  32.396  11.272  1.00  0.00    -0.236 NA
ATOM      5  C   UNL     1      17.280  33.025  12.415  1.00  0.00     0.080 A 
ATOM      6  C   UNL     1      15.976  33.469  12.571  1.00  0.00     0.029 A 
ATOM      7  C   UNL     1      15.565  34.175  13.701  1.00  0.00     0.006 A 
ATOM      8  C   UNL     1      16.476  34.433  14.712  1.00  0.00     0.047 A 
ATOM      9  C   UNL     1      17.785  33.953  14.607  1.00  0.00     0.133 A 
ATOM     10  C   UNL     1      18.223  33.259  13.431  1.00  0.00     0.085 A 
ENDROOT
BRANCH   1  11
ATOM     11  N   UNL     1      20.570  32.913  14.070  1.00  0.00    -0.339 N 
ATOM     12  H   UNL     1      20.280  32.829  15.055  1.00  0.00     0.168 HD
BRANCH  11  13
ATOM     13  C   UNL     1      21.942  33.150  13.882  1.00  0.00     0.040 A 
ATOM     14  C   UNL     1      24.669  33.705  13.452  1.00  0.00     0.130 A 
ATOM     15  C   UNL     1      24.287  32.662  14.299  1.00  0.00     0.049 A 
ATOM     16  C   UNL     1      23.701  34.461  12.782  1.00  0.00    -0.006 A 
ATOM     17  C   UNL     1      22.934  32.399  14.518  1.00  0.00     0.030 A 
ATOM     18  C   UNL     1      22.345  34.169  13.004  1.00  0.00     0.033 A 
ATOM     19  C   UNL     1      24.095  35.562  11.842  1.00  0.00     0.048 C 
BRANCH  14  20
ATOM     20  O   UNL     1      25.995  33.966  13.186  1.00  0.00    -0.455 OA
BRANCH  20  21
ATOM     21  C   UNL     1      26.759  32.947  12.684  1.00  0.00     0.145 A 
ATOM     22  C   UNL     1      28.355  30.844  11.912  1.00  0.00     0.038 A 
ATOM     23  C   UNL     1      27.401  31.334  11.020  1.00  0.00     0.027 A 
ATOM     24  N   UNL     1      28.518  31.352  13.159  1.00  0.00    -0.258 NA
ATOM     25  C   UNL     1      26.588  32.394  11.416  1.00  0.00     0.050 A 
ATOM     26  C   UNL     1      27.714  32.382  13.516  1.00  0.00     0.158 A 
ATOM     27  C   UNL     1      29.241  29.701  11.513  1.00  0.00     0.066 C 
ENDBRANCH  20  21
ENDBRANCH  14  20
ENDBRANCH  11  13
ENDBRANCH   1  11
BRANCH   9  28
ATOM     28  O   UNL     1      18.701  34.255  15.585  1.00  0.00    -0.480 OA
BRANCH  28  29
ATOM     29  C   UNL     1      18.678  35.605  16.076  1.00  0.00     0.259 C 
ATOM     30  C   UNL     1      19.747  36.362  15.294  1.00  0.00     0.064 C 
BRANCH  29  31
ATOM     31  C   UNL     1      19.035  35.637  17.575  1.00  0.00     0.262 C 
ATOM     32  O   UNL     1      20.218  35.560  17.923  1.00  0.00    -0.271 OA
ATOM     33  N   UNL     1      18.008  35.748  18.508  1.00  0.00    -0.346 N 
ATOM     34  C   UNL     1      16.584  35.767  18.209  1.00  0.00     0.146 C 
ATOM     35  C   UNL     1      18.347  35.739  19.925  1.00  0.00     0.146 C 
ENDBRANCH  29  31
ENDBRANCH  28  29
ENDBRANCH   9  28
TORSDOF 7
