REMARK VINA RESULT:    -9.273      4.073      6.972
REMARK INTER + INTRA:         -16.278
REMARK INTER:                 -15.108
REMARK INTRA:                  -1.171
REMARK UNBOUND:                -1.313
REMARK SMILES CC(C)O[C@@H](Cc1ccc(OCc2noc(-c3ccc(C(C)C)cc3)n2)cc1)C(=O)O
REMARK SMILES IDX 7 1 8 2 9 3 10 4 27 5 28 6 6 7 5 8 4 9 2 10 1 11 3 12 29 13
REMARK SMILES IDX 30 14 31 15 11 17 12 18 13 19 14 20 26 21 15 22 16 23 17 24
REMARK SMILES IDX 18 25 25 26 19 27 24 28 20 29 21 30 22 31 23 32
REMARK H PARENT 31 16
ROOT
ATOM      1  C   UNL     1      35.807 -37.349 105.367  1.00  0.00    -0.045 A 
ATOM      2  C   UNL     1      36.083 -38.505 106.106  1.00  0.00     0.007 A 
ATOM      3  C   UNL     1      36.559 -38.418 107.418  1.00  0.00     0.047 A 
ATOM      4  C   UNL     1      36.769 -37.171 108.008  1.00  0.00     0.120 A 
ATOM      5  C   UNL     1      36.502 -36.016 107.270  1.00  0.00     0.047 A 
ATOM      6  C   UNL     1      36.026 -36.100 105.960  1.00  0.00     0.007 A 
ENDROOT
BRANCH   1   7
ATOM      7  C   UNL     1      35.313 -37.445 103.940  1.00  0.00     0.079 C 
BRANCH   7   8
ATOM      8  C   UNL     1      36.472 -37.557 102.938  1.00  0.00     0.232 C 
BRANCH   8   9
ATOM      9  O   UNL     1      37.681 -37.762 103.679  1.00  0.00    -0.364 OA
BRANCH   9  10
ATOM     10  C   UNL     1      38.492 -38.842 103.209  1.00  0.00     0.113 C 
ATOM     11  C   UNL     1      39.510 -38.371 102.177  1.00  0.00     0.038 C 
ATOM     12  C   UNL     1      39.203 -39.423 104.426  1.00  0.00     0.038 C 
ENDBRANCH   9  10
ENDBRANCH   8   9
BRANCH   8  13
ATOM     13  C   UNL     1      36.537 -36.266 102.120  1.00  0.00     0.333 C 
ATOM     14  O   UNL     1      35.909 -35.986 101.111  1.00  0.00    -0.249 OA
BRANCH  13  15
ATOM     15  O   UNL     1      37.383 -35.355 102.649  1.00  0.00    -0.479 OA
ATOM     16  H   UNL     1      38.073 -35.907 103.076  1.00  0.00     0.296 HD
ENDBRANCH  13  15
ENDBRANCH   8  13
ENDBRANCH   7   8
ENDBRANCH   1   7
BRANCH   4  17
ATOM     17  O   UNL     1      37.226 -36.943 109.275  1.00  0.00    -0.485 OA
BRANCH  17  18
ATOM     18  C   UNL     1      37.962 -37.997 109.905  1.00  0.00     0.310 C 
BRANCH  18  19
ATOM     19  C   UNL     1      39.397 -37.966 109.504  1.00  0.00     0.209 A 
ATOM     20  N   UNL     1      40.033 -36.832 109.173  1.00  0.00    -0.058 NA
ATOM     21  N   UNL     1      40.166 -39.103 109.415  1.00  0.00    -0.188 NA
ATOM     22  O   UNL     1      41.326 -37.268 108.874  1.00  0.00    -0.334 OA
ATOM     23  C   UNL     1      41.334 -38.625 109.042  1.00  0.00     0.258 A 
BRANCH  23  24
ATOM     24  C   UNL     1      42.589 -39.323 108.785  1.00  0.00     0.040 A 
ATOM     25  C   UNL     1      43.696 -39.207 109.636  1.00  0.00     0.014 A 
ATOM     26  C   UNL     1      42.703 -40.143 107.654  1.00  0.00     0.014 A 
ATOM     27  C   UNL     1      44.886 -39.892 109.360  1.00  0.00     0.005 A 
ATOM     28  C   UNL     1      43.890 -40.827 107.378  1.00  0.00     0.005 A 
ATOM     29  C   UNL     1      44.998 -40.709 108.228  1.00  0.00    -0.045 A 
BRANCH  29  30
ATOM     30  C   UNL     1      46.276 -41.467 107.911  1.00  0.00     0.013 C 
ATOM     31  C   UNL     1      47.459 -40.951 108.735  1.00  0.00     0.012 C 
ATOM     32  C   UNL     1      46.094 -42.975 108.103  1.00  0.00     0.012 C 
ENDBRANCH  29  30
ENDBRANCH  23  24
ENDBRANCH  18  19
ENDBRANCH  17  18
ENDBRANCH   4  17
TORSDOF 11
