REMARK VINA RESULT:    -8.462      2.936      3.836
REMARK INTER + INTRA:         -14.227
REMARK INTER:                 -13.064
REMARK INTRA:                  -1.163
REMARK UNBOUND:                -1.313
REMARK SMILES COC(=O)[C@H](Cc1cccc(C(=N)N)c1)[C@@H](C)NC(=O)c1ccc(-c2cccnc2)cc1
REMARK SMILES IDX 5 1 3 2 4 3 2 4 1 5 6 6 7 7 8 8 15 9 9 10 11 11 10 12 12 13
REMARK SMILES IDX 13 14 14 15 16 19 17 20 18 21 19 22 20 23 21 25 22 26 32 27
REMARK SMILES IDX 23 28 31 29 24 30 25 31 26 32 30 33 27 34 29 35 28 36
REMARK H PARENT 13 16 14 17 14 18 18 24
ROOT
ATOM      1  C   UNL     1     127.477 -14.394 161.113  1.00  0.00     0.125 C 
ENDROOT
BRANCH   1   2
ATOM      2  C   UNL     1     128.349 -13.846 159.997  1.00  0.00     0.311 C 
ATOM      3  O   UNL     1     129.568 -13.732 160.055  1.00  0.00    -0.252 OA
BRANCH   2   4
ATOM      4  O   UNL     1     127.581 -13.473 158.938  1.00  0.00    -0.469 OA
ATOM      5  C   UNL     1     128.276 -13.451 157.690  1.00  0.00     0.282 C 
ENDBRANCH   2   4
ENDBRANCH   1   2
BRANCH   1   6
ATOM      6  C   UNL     1     127.775 -13.573 162.378  1.00  0.00     0.053 C 
BRANCH   6   7
ATOM      7  C   UNL     1     126.618 -13.543 163.350  1.00  0.00    -0.046 A 
ATOM      8  C   UNL     1     125.685 -14.587 163.387  1.00  0.00     0.004 A 
ATOM      9  C   UNL     1     126.460 -12.460 164.229  1.00  0.00     0.015 A 
ATOM     10  C   UNL     1     124.614 -14.557 164.282  1.00  0.00     0.001 A 
ATOM     11  C   UNL     1     125.387 -12.434 165.128  1.00  0.00     0.016 A 
ATOM     12  C   UNL     1     124.465 -13.483 165.157  1.00  0.00     0.012 A 
BRANCH  11  13
ATOM     13  C   UNL     1     125.237 -11.293 166.068  1.00  0.00     0.122 C 
ATOM     14  N   UNL     1     126.158 -10.392 166.211  1.00  0.00    -0.284 NA
ATOM     15  N   UNL     1     124.113 -11.169 166.815  1.00  0.00    -0.384 N 
ATOM     16  H   UNL     1     126.939 -10.563 165.572  1.00  0.00     0.189 HD
ATOM     17  H   UNL     1     123.388 -11.870 166.850  1.00  0.00     0.158 HD
ATOM     18  H   UNL     1     124.068 -10.383 167.453  1.00  0.00     0.158 HD
ENDBRANCH  11  13
ENDBRANCH   6   7
ENDBRANCH   1   6
BRANCH   1  19
ATOM     19  C   UNL     1     127.693 -15.915 161.293  1.00  0.00     0.093 C 
ATOM     20  C   UNL     1     128.045 -16.603 159.973  1.00  0.00     0.032 C 
BRANCH  19  21
ATOM     21  N   UNL     1     128.724 -16.213 162.284  1.00  0.00    -0.349 N 
ATOM     22  C   UNL     1     128.530 -17.052 163.359  1.00  0.00     0.251 C 
ATOM     23  O   UNL     1     127.482 -17.654 163.565  1.00  0.00    -0.269 OA
ATOM     24  H   UNL     1     129.635 -15.795 162.123  1.00  0.00     0.164 HD
BRANCH  22  25
ATOM     25  C   UNL     1     129.682 -17.219 164.292  1.00  0.00     0.039 A 
ATOM     26  C   UNL     1     129.969 -18.507 164.760  1.00  0.00     0.014 A 
ATOM     27  C   UNL     1     130.458 -16.142 164.733  1.00  0.00     0.014 A 
ATOM     28  C   UNL     1     131.035 -18.719 165.640  1.00  0.00     0.009 A 
ATOM     29  C   UNL     1     131.526 -16.360 165.612  1.00  0.00     0.009 A 
ATOM     30  C   UNL     1     131.834 -17.650 166.078  1.00  0.00    -0.017 A 
BRANCH  30  31
ATOM     31  C   UNL     1     132.956 -17.873 167.000  1.00  0.00    -0.000 A 
ATOM     32  C   UNL     1     133.624 -16.806 167.620  1.00  0.00     0.012 A 
ATOM     33  C   UNL     1     133.415 -19.158 167.309  1.00  0.00     0.119 A 
ATOM     34  C   UNL     1     134.685 -17.052 168.490  1.00  0.00     0.021 A 
ATOM     35  N   UNL     1     134.445 -19.432 168.150  1.00  0.00    -0.264 NA
ATOM     36  C   UNL     1     135.056 -18.369 168.721  1.00  0.00     0.111 A 
ENDBRANCH  30  31
ENDBRANCH  22  25
ENDBRANCH  19  21
ENDBRANCH   1  19
TORSDOF 9
