MODEL 1
REMARK VINA RESULT:   -11.605      0.000      0.000
REMARK INTER + INTRA:         -17.044
REMARK INTER:                 -15.676
REMARK INTRA:                  -1.368
REMARK UNBOUND:                -1.368
REMARK SMILES C=CC(=O)N1CCN(c2ncc3ncnc(Nc4ccc(Oc5ccn6ncnc6c5)c(C)c4)c3n2)CC1
REMARK SMILES IDX 17 1 16 3 9 4 10 5 36 6 11 7 35 8 12 9 13 10 15 11 14 12
REMARK SMILES IDX 8 13 3 14 4 15 5 16 6 17 38 18 7 19 37 20 2 21 1 22 18 23
REMARK SMILES IDX 19 24 34 25 20 26 32 27 21 28 33 29 22 30 23 31 24 32 31 33
REMARK SMILES IDX 25 34 30 35 26 36 29 37 27 38 28 39
REMARK H PARENT 17 2
ROOT
ATOM      1  N   UNL     1      17.792  33.325  13.992  1.00  0.00    -0.338 N 
ATOM      2  H   UNL     1      17.843  32.401  14.415  1.00  0.00     0.168 HD
ENDROOT
BRANCH   1   3
ATOM      3  C   UNL     1      17.809  34.335  14.990  1.00  0.00     0.160 A 
ATOM      4  C   UNL     1      21.278  35.369  14.751  1.00  0.00     0.226 A 
ATOM      5  N   UNL     1      21.330  36.302  15.707  1.00  0.00    -0.219 NA
ATOM      6  N   UNL     1      20.150  34.698  14.483  1.00  0.00    -0.207 NA
ATOM      7  C   UNL     1      20.192  36.563  16.393  1.00  0.00     0.146 A 
ATOM      8  C   UNL     1      19.029  34.990  15.198  1.00  0.00     0.137 A 
ATOM      9  C   UNL     1      18.983  35.946  16.197  1.00  0.00     0.113 A 
ATOM     10  N   UNL     1      17.889  36.256  16.921  1.00  0.00    -0.233 NA
ATOM     11  N   UNL     1      16.688  34.616  15.696  1.00  0.00    -0.217 NA
ATOM     12  C   UNL     1      16.785  35.564  16.627  1.00  0.00     0.225 A 
BRANCH   4  13
ATOM     13  N   UNL     1      22.413  35.104  14.013  1.00  0.00    -0.337 N 
ATOM     14  C   UNL     1      25.127  33.097  11.811  1.00  0.00     0.246 C 
ATOM     15  O   UNL     1      24.731  32.764  10.693  1.00  0.00    -0.270 OA
ATOM     16  N   UNL     1      24.638  34.195  12.489  1.00  0.00    -0.336 N 
ATOM     17  C   UNL     1      24.835  34.519  13.908  1.00  0.00     0.141 C 
ATOM     18  C   UNL     1      23.626  35.034  11.849  1.00  0.00     0.141 C 
ATOM     19  C   UNL     1      23.512  34.409  14.694  1.00  0.00     0.141 C 
ATOM     20  C   UNL     1      22.268  34.906  12.564  1.00  0.00     0.141 C 
BRANCH  14  21
ATOM     21  C   UNL     1      26.182  32.300  12.489  1.00  0.00     0.063 C 
ATOM     22  C   UNL     1      27.132  31.690  11.769  1.00  0.00     0.014 C 
ENDBRANCH  14  21
ENDBRANCH   4  13
ENDBRANCH   1   3
BRANCH   1  23
ATOM     23  C   UNL     1      17.694  33.357  12.594  1.00  0.00     0.040 A 
ATOM     24  C   UNL     1      18.394  32.391  11.853  1.00  0.00     0.030 A 
ATOM     25  C   UNL     1      16.903  34.274  11.890  1.00  0.00     0.033 A 
ATOM     26  C   UNL     1      18.317  32.349  10.458  1.00  0.00     0.049 A 
ATOM     27  C   UNL     1      16.818  34.256  10.486  1.00  0.00    -0.006 A 
ATOM     28  C   UNL     1      17.543  33.290   9.779  1.00  0.00     0.130 A 
ATOM     29  C   UNL     1      15.947  35.249   9.771  1.00  0.00     0.048 C 
BRANCH  28  30
ATOM     30  O   UNL     1      17.409  33.234   8.411  1.00  0.00    -0.457 OA
BRANCH  30  31
ATOM     31  C   UNL     1      16.915  32.078   7.831  1.00  0.00     0.132 A 
ATOM     32  C   UNL     1      17.946  31.288   7.171  1.00  0.00     0.067 A 
ATOM     33  C   UNL     1      15.639  31.634   7.901  1.00  0.00     0.096 A 
ATOM     34  C   UNL     1      17.614  30.117   6.605  1.00  0.00     0.119 A 
ATOM     35  C   UNL     1      15.287  30.398   7.295  1.00  0.00     0.158 A 
ATOM     36  N   UNL     1      16.297  29.669   6.663  1.00  0.00    -0.221 N 
ATOM     37  N   UNL     1      14.143  29.757   7.204  1.00  0.00    -0.215 NA
ATOM     38  N   UNL     1      15.767  28.523   6.167  1.00  0.00    -0.155 NA
ATOM     39  C   UNL     1      14.486  28.628   6.520  1.00  0.00     0.247 A 
ENDBRANCH  30  31
ENDBRANCH  28  30
ENDBRANCH   1  23
TORSDOF 6
ENDMDL
MODEL 2
REMARK VINA RESULT:   -11.346      1.270      1.443
REMARK INTER + INTRA:         -16.694
REMARK INTER:                 -15.373
REMARK INTRA:                  -1.322
REMARK UNBOUND:                -1.368
REMARK SMILES C=CC(=O)N1CCN(c2ncc3ncnc(Nc4ccc(Oc5ccn6ncnc6c5)c(C)c4)c3n2)CC1
REMARK SMILES IDX 17 1 16 3 9 4 10 5 36 6 11 7 35 8 12 9 13 10 15 11 14 12
REMARK SMILES IDX 8 13 3 14 4 15 5 16 6 17 38 18 7 19 37 20 2 21 1 22 18 23
REMARK SMILES IDX 19 24 34 25 20 26 32 27 21 28 33 29 22 30 23 31 24 32 31 33
REMARK SMILES IDX 25 34 30 35 26 36 29 37 27 38 28 39
REMARK H PARENT 17 2
ROOT
ATOM      1  N   UNL     1      17.700  33.157  13.980  1.00  0.00    -0.338 N 
ATOM      2  H   UNL     1      17.996  32.271  14.381  1.00  0.00     0.168 HD
ENDROOT
BRANCH   1   3
ATOM      3  C   UNL     1      17.412  34.099  15.004  1.00  0.00     0.160 A 
ATOM      4  C   UNL     1      20.542  35.932  15.039  1.00  0.00     0.226 A 
ATOM      5  N   UNL     1      20.310  36.810  16.021  1.00  0.00    -0.219 NA
ATOM      6  N   UNL     1      19.626  35.026  14.674  1.00  0.00    -0.207 NA
ATOM      7  C   UNL     1      19.102  36.765  16.631  1.00  0.00     0.146 A 
ATOM      8  C   UNL     1      18.425  35.014  15.315  1.00  0.00     0.137 A 
ATOM      9  C   UNL     1      18.090  35.889  16.333  1.00  0.00     0.113 A 
ATOM     10  N   UNL     1      16.910  35.900  16.986  1.00  0.00    -0.233 NA
ATOM     11  N   UNL     1      16.215  34.077  15.635  1.00  0.00    -0.217 NA
ATOM     12  C   UNL     1      16.023  34.980  16.595  1.00  0.00     0.225 A 
BRANCH   4  13
ATOM     13  N   UNL     1      21.752  35.975  14.377  1.00  0.00    -0.337 N 
ATOM     14  C   UNL     1      25.584  35.178  13.416  1.00  0.00     0.246 C 
ATOM     15  O   UNL     1      25.776  34.037  12.994  1.00  0.00    -0.270 OA
ATOM     16  N   UNL     1      24.377  35.836  13.288  1.00  0.00    -0.336 N 
ATOM     17  C   UNL     1      23.961  37.062  13.980  1.00  0.00     0.141 C 
ATOM     18  C   UNL     1      23.276  35.174  12.590  1.00  0.00     0.141 C 
ATOM     19  C   UNL     1      22.822  36.779  14.981  1.00  0.00     0.141 C 
ATOM     20  C   UNL     1      22.140  34.813  13.565  1.00  0.00     0.141 C 
BRANCH  14  21
ATOM     21  C   UNL     1      26.682  35.909  14.099  1.00  0.00     0.063 C 
ATOM     22  C   UNL     1      27.946  35.484  13.985  1.00  0.00     0.014 C 
ENDBRANCH  14  21
ENDBRANCH   4  13
ENDBRANCH   1   3
BRANCH   1  23
ATOM     23  C   UNL     1      17.627  33.206  12.581  1.00  0.00     0.040 A 
ATOM     24  C   UNL     1      18.329  32.240  11.841  1.00  0.00     0.030 A 
ATOM     25  C   UNL     1      16.862  34.142  11.873  1.00  0.00     0.033 A 
ATOM     26  C   UNL     1      18.277  32.215  10.446  1.00  0.00     0.049 A 
ATOM     27  C   UNL     1      16.803  34.140  10.467  1.00  0.00    -0.006 A 
ATOM     28  C   UNL     1      17.528  33.173   9.763  1.00  0.00     0.130 A 
ATOM     29  C   UNL     1      15.957  35.152   9.748  1.00  0.00     0.048 C 
BRANCH  28  30
ATOM     30  O   UNL     1      17.419  33.135   8.392  1.00  0.00    -0.457 OA
BRANCH  30  31
ATOM     31  C   UNL     1      16.945  31.983   7.789  1.00  0.00     0.132 A 
ATOM     32  C   UNL     1      17.998  31.195   7.161  1.00  0.00     0.067 A 
ATOM     33  C   UNL     1      15.667  31.540   7.810  1.00  0.00     0.096 A 
ATOM     34  C   UNL     1      17.685  30.027   6.577  1.00  0.00     0.119 A 
ATOM     35  C   UNL     1      15.336  30.307   7.185  1.00  0.00     0.158 A 
ATOM     36  N   UNL     1      16.367  29.581   6.584  1.00  0.00    -0.221 N 
ATOM     37  N   UNL     1      14.195  29.668   7.049  1.00  0.00    -0.215 NA
ATOM     38  N   UNL     1      15.854  28.438   6.063  1.00  0.00    -0.155 NA
ATOM     39  C   UNL     1      14.562  28.542   6.371  1.00  0.00     0.247 A 
ENDBRANCH  30  31
ENDBRANCH  28  30
ENDBRANCH   1  23
TORSDOF 6
ENDMDL
MODEL 3
REMARK VINA RESULT:   -11.047      2.647      3.383
REMARK INTER + INTRA:         -16.290
REMARK INTER:                 -15.134
REMARK INTRA:                  -1.156
REMARK UNBOUND:                -1.368
REMARK SMILES C=CC(=O)N1CCN(c2ncc3ncnc(Nc4ccc(Oc5ccn6ncnc6c5)c(C)c4)c3n2)CC1
REMARK SMILES IDX 17 1 16 3 9 4 10 5 36 6 11 7 35 8 12 9 13 10 15 11 14 12
REMARK SMILES IDX 8 13 3 14 4 15 5 16 6 17 38 18 7 19 37 20 2 21 1 22 18 23
REMARK SMILES IDX 19 24 34 25 20 26 32 27 21 28 33 29 22 30 23 31 24 32 31 33
REMARK SMILES IDX 25 34 30 35 26 36 29 37 27 38 28 39
REMARK H PARENT 17 2
ROOT
ATOM      1  N   UNL     1      17.161  33.587  13.974  1.00  0.00    -0.338 N 
ATOM      2  H   UNL     1      17.913  33.108  14.461  1.00  0.00     0.168 HD
ENDROOT
BRANCH   1   3
ATOM      3  C   UNL     1      16.239  34.145  14.899  1.00  0.00     0.160 A 
ATOM      4  C   UNL     1      18.561  35.418  17.378  1.00  0.00     0.226 A 
ATOM      5  N   UNL     1      17.715  35.923  18.282  1.00  0.00    -0.219 NA
ATOM      6  N   UNL     1      18.125  34.825  16.259  1.00  0.00    -0.207 NA
ATOM      7  C   UNL     1      16.389  35.831  18.021  1.00  0.00     0.146 A 
ATOM      8  C   UNL     1      16.784  34.752  16.037  1.00  0.00     0.137 A 
ATOM      9  C   UNL     1      15.833  35.255  16.907  1.00  0.00     0.113 A 
ATOM     10  N   UNL     1      14.500  35.196  16.714  1.00  0.00    -0.233 NA
ATOM     11  N   UNL     1      14.908  34.065  14.668  1.00  0.00    -0.217 NA
ATOM     12  C   UNL     1      14.104  34.595  15.589  1.00  0.00     0.225 A 
BRANCH   4  13
ATOM     13  N   UNL     1      19.918  35.527  17.601  1.00  0.00    -0.337 N 
ATOM     14  C   UNL     1      23.814  36.343  16.971  1.00  0.00     0.246 C 
ATOM     15  O   UNL     1      24.075  37.543  16.876  1.00  0.00    -0.270 OA
ATOM     16  N   UNL     1      22.743  35.858  17.693  1.00  0.00    -0.336 N 
ATOM     17  C   UNL     1      22.190  34.499  17.650  1.00  0.00     0.141 C 
ATOM     18  C   UNL     1      21.888  36.799  18.415  1.00  0.00     0.141 C 
ATOM     19  C   UNL     1      20.781  34.490  17.022  1.00  0.00     0.141 C 
ATOM     20  C   UNL     1      20.486  36.870  17.781  1.00  0.00     0.141 C 
BRANCH  14  21
ATOM     21  C   UNL     1      24.676  35.343  16.288  1.00  0.00     0.063 C 
ATOM     22  C   UNL     1      25.657  35.746  15.472  1.00  0.00     0.014 C 
ENDBRANCH  14  21
ENDBRANCH   4  13
ENDBRANCH   1   3
BRANCH   1  23
ATOM     23  C   UNL     1      17.212  33.549  12.573  1.00  0.00     0.040 A 
ATOM     24  C   UNL     1      17.975  32.542  11.959  1.00  0.00     0.030 A 
ATOM     25  C   UNL     1      16.512  34.435  11.743  1.00  0.00     0.033 A 
ATOM     26  C   UNL     1      18.047  32.430  10.569  1.00  0.00     0.049 A 
ATOM     27  C   UNL     1      16.577  34.346  10.341  1.00  0.00    -0.006 A 
ATOM     28  C   UNL     1      17.361  33.341   9.764  1.00  0.00     0.130 A 
ATOM     29  C   UNL     1      15.799  35.307   9.488  1.00  0.00     0.048 C 
BRANCH  28  30
ATOM     30  O   UNL     1      17.373  33.217   8.395  1.00  0.00    -0.457 OA
BRANCH  30  31
ATOM     31  C   UNL     1      16.906  32.046   7.822  1.00  0.00     0.132 A 
ATOM     32  C   UNL     1      17.965  31.242   7.226  1.00  0.00     0.067 A 
ATOM     33  C   UNL     1      15.629  31.600   7.849  1.00  0.00     0.096 A 
ATOM     34  C   UNL     1      17.659  30.057   6.675  1.00  0.00     0.119 A 
ATOM     35  C   UNL     1      15.305  30.349   7.258  1.00  0.00     0.158 A 
ATOM     36  N   UNL     1      16.342  29.608   6.687  1.00  0.00    -0.221 N 
ATOM     37  N   UNL     1      14.167  29.703   7.134  1.00  0.00    -0.215 NA
ATOM     38  N   UNL     1      15.836  28.448   6.197  1.00  0.00    -0.155 NA
ATOM     39  C   UNL     1      14.541  28.558   6.493  1.00  0.00     0.247 A 
ENDBRANCH  30  31
ENDBRANCH  28  30
ENDBRANCH   1  23
TORSDOF 6
ENDMDL
MODEL 4
REMARK VINA RESULT:   -10.559      1.364      1.995
REMARK INTER + INTRA:         -15.630
REMARK INTER:                 -14.444
REMARK INTRA:                  -1.186
REMARK UNBOUND:                -1.368
REMARK SMILES C=CC(=O)N1CCN(c2ncc3ncnc(Nc4ccc(Oc5ccn6ncnc6c5)c(C)c4)c3n2)CC1
REMARK SMILES IDX 17 1 16 3 9 4 10 5 36 6 11 7 35 8 12 9 13 10 15 11 14 12
REMARK SMILES IDX 8 13 3 14 4 15 5 16 6 17 38 18 7 19 37 20 2 21 1 22 18 23
REMARK SMILES IDX 19 24 34 25 20 26 32 27 21 28 33 29 22 30 23 31 24 32 31 33
REMARK SMILES IDX 25 34 30 35 26 36 29 37 27 38 28 39
REMARK H PARENT 17 2
ROOT
ATOM      1  N   UNL     1      16.966  33.652  15.461  1.00  0.00    -0.338 N 
ATOM      2  H   UNL     1      16.740  32.763  15.899  1.00  0.00     0.168 HD
ENDROOT
BRANCH   1   3
ATOM      3  C   UNL     1      17.009  34.691  16.428  1.00  0.00     0.160 A 
ATOM      4  C   UNL     1      20.488  35.672  16.112  1.00  0.00     0.226 A 
ATOM      5  N   UNL     1      20.565  36.633  17.039  1.00  0.00    -0.219 NA
ATOM      6  N   UNL     1      19.348  35.008  15.879  1.00  0.00    -0.207 NA
ATOM      7  C   UNL     1      19.439  36.929  17.731  1.00  0.00     0.146 A 
ATOM      8  C   UNL     1      18.240  35.336  16.600  1.00  0.00     0.137 A 
ATOM      9  C   UNL     1      18.220  36.322  17.569  1.00  0.00     0.113 A 
ATOM     10  N   UNL     1      17.139  36.668  18.299  1.00  0.00    -0.233 NA
ATOM     11  N   UNL     1      15.902  35.008  17.139  1.00  0.00    -0.217 NA
ATOM     12  C   UNL     1      16.023  35.982  18.039  1.00  0.00     0.225 A 
BRANCH   4  13
ATOM     13  N   UNL     1      21.610  35.371  15.368  1.00  0.00    -0.337 N 
ATOM     14  C   UNL     1      23.912  34.268  12.249  1.00  0.00     0.246 C 
ATOM     15  O   UNL     1      23.917  35.067  11.312  1.00  0.00    -0.270 OA
ATOM     16  N   UNL     1      23.681  34.641  13.558  1.00  0.00    -0.336 N 
ATOM     17  C   UNL     1      23.385  33.756  14.691  1.00  0.00     0.141 C 
ATOM     18  C   UNL     1      23.464  36.053  13.867  1.00  0.00     0.141 C 
ATOM     19  C   UNL     1      21.938  33.951  15.190  1.00  0.00     0.141 C 
ATOM     20  C   UNL     1      22.011  36.307  14.308  1.00  0.00     0.141 C 
BRANCH  14  21
ATOM     21  C   UNL     1      24.165  32.826  11.993  1.00  0.00     0.063 C 
ATOM     22  C   UNL     1      25.254  32.444  11.315  1.00  0.00     0.014 C 
ENDBRANCH  14  21
ENDBRANCH   4  13
ENDBRANCH   1   3
BRANCH   1  23
ATOM     23  C   UNL     1      17.141  33.626  14.070  1.00  0.00     0.040 A 
ATOM     24  C   UNL     1      16.231  34.337  13.269  1.00  0.00     0.030 A 
ATOM     25  C   UNL     1      18.196  32.964  13.429  1.00  0.00     0.033 A 
ATOM     26  C   UNL     1      16.364  34.375  11.879  1.00  0.00     0.049 A 
ATOM     27  C   UNL     1      18.343  32.982  12.030  1.00  0.00    -0.006 A 
ATOM     28  C   UNL     1      17.409  33.686  11.263  1.00  0.00     0.130 A 
ATOM     29  C   UNL     1      19.498  32.271  11.385  1.00  0.00     0.048 C 
BRANCH  28  30
ATOM     30  O   UNL     1      17.591  33.755   9.901  1.00  0.00    -0.457 OA
BRANCH  30  31
ATOM     31  C   UNL     1      17.004  32.793   9.096  1.00  0.00     0.132 A 
ATOM     32  C   UNL     1      17.811  32.460   7.930  1.00  0.00     0.067 A 
ATOM     33  C   UNL     1      15.848  32.139   9.350  1.00  0.00     0.096 A 
ATOM     34  C   UNL     1      17.383  31.507   7.085  1.00  0.00     0.119 A 
ATOM     35  C   UNL     1      15.392  31.136   8.452  1.00  0.00     0.158 A 
ATOM     36  N   UNL     1      16.184  30.847   7.338  1.00  0.00    -0.221 N 
ATOM     37  N   UNL     1      14.320  30.376   8.453  1.00  0.00    -0.215 NA
ATOM     38  N   UNL     1      15.591  29.860   6.621  1.00  0.00    -0.155 NA
ATOM     39  C   UNL     1      14.489  29.618   7.331  1.00  0.00     0.247 A 
ENDBRANCH  30  31
ENDBRANCH  28  30
ENDBRANCH   1  23
TORSDOF 6
ENDMDL
MODEL 5
REMARK VINA RESULT:   -10.503      2.463      3.678
REMARK INTER + INTRA:         -15.555
REMARK INTER:                 -14.077
REMARK INTRA:                  -1.478
REMARK UNBOUND:                -1.368
REMARK SMILES C=CC(=O)N1CCN(c2ncc3ncnc(Nc4ccc(Oc5ccn6ncnc6c5)c(C)c4)c3n2)CC1
REMARK SMILES IDX 17 1 16 3 9 4 10 5 36 6 11 7 35 8 12 9 13 10 15 11 14 12
REMARK SMILES IDX 8 13 3 14 4 15 5 16 6 17 38 18 7 19 37 20 2 21 1 22 18 23
REMARK SMILES IDX 19 24 34 25 20 26 32 27 21 28 33 29 22 30 23 31 24 32 31 33
REMARK SMILES IDX 25 34 30 35 26 36 29 37 27 38 28 39
REMARK H PARENT 17 2
ROOT
ATOM      1  N   UNL     1      16.341  33.711  15.907  1.00  0.00    -0.338 N 
ATOM      2  H   UNL     1      16.170  32.764  16.236  1.00  0.00     0.168 HD
ENDROOT
BRANCH   1   3
ATOM      3  C   UNL     1      16.078  34.654  16.936  1.00  0.00     0.160 A 
ATOM      4  C   UNL     1      19.429  35.051  18.270  1.00  0.00     0.226 A 
ATOM      5  N   UNL     1      19.204  35.914  19.266  1.00  0.00    -0.219 NA
ATOM      6  N   UNL     1      18.438  34.609  17.484  1.00  0.00    -0.207 NA
ATOM      7  C   UNL     1      17.934  36.346  19.448  1.00  0.00     0.146 A 
ATOM      8  C   UNL     1      17.175  35.067  17.703  1.00  0.00     0.137 A 
ATOM      9  C   UNL     1      16.848  35.968  18.700  1.00  0.00     0.113 A 
ATOM     10  N   UNL     1      15.607  36.438  18.941  1.00  0.00    -0.233 NA
ATOM     11  N   UNL     1      14.818  35.102  17.145  1.00  0.00    -0.217 NA
ATOM     12  C   UNL     1      14.645  35.973  18.139  1.00  0.00     0.225 A 
BRANCH   4  13
ATOM     13  N   UNL     1      20.719  34.619  18.039  1.00  0.00    -0.337 N 
ATOM     14  C   UNL     1      24.313  34.173  16.272  1.00  0.00     0.246 C 
ATOM     15  O   UNL     1      25.013  35.187  16.278  1.00  0.00    -0.270 OA
ATOM     16  N   UNL     1      23.354  33.913  17.229  1.00  0.00    -0.336 N 
ATOM     17  C   UNL     1      22.297  32.895  17.169  1.00  0.00     0.141 C 
ATOM     18  C   UNL     1      23.171  34.859  18.329  1.00  0.00     0.141 C 
ATOM     19  C   UNL     1      20.903  33.545  17.055  1.00  0.00     0.141 C 
ATOM     20  C   UNL     1      21.815  35.580  18.219  1.00  0.00     0.141 C 
BRANCH  14  21
ATOM     21  C   UNL     1      24.486  33.162  15.197  1.00  0.00     0.063 C 
ATOM     22  C   UNL     1      23.922  33.351  13.998  1.00  0.00     0.014 C 
ENDBRANCH  14  21
ENDBRANCH   4  13
ENDBRANCH   1   3
BRANCH   1  23
ATOM     23  C   UNL     1      16.748  33.834  14.572  1.00  0.00     0.040 A 
ATOM     24  C   UNL     1      15.776  34.130  13.601  1.00  0.00     0.030 A 
ATOM     25  C   UNL     1      18.079  33.720  14.148  1.00  0.00     0.033 A 
ATOM     26  C   UNL     1      16.118  34.294  12.257  1.00  0.00     0.049 A 
ATOM     27  C   UNL     1      18.444  33.872  12.799  1.00  0.00    -0.006 A 
ATOM     28  C   UNL     1      17.447  34.149  11.857  1.00  0.00     0.130 A 
ATOM     29  C   UNL     1      19.885  33.757  12.390  1.00  0.00     0.048 C 
BRANCH  28  30
ATOM     30  O   UNL     1      17.814  34.360  10.549  1.00  0.00    -0.457 OA
BRANCH  30  31
ATOM     31  C   UNL     1      17.390  33.467   9.580  1.00  0.00     0.132 A 
ATOM     32  C   UNL     1      16.370  34.023   8.701  1.00  0.00     0.067 A 
ATOM     33  C   UNL     1      17.884  32.225   9.370  1.00  0.00     0.096 A 
ATOM     34  C   UNL     1      15.900  33.280   7.686  1.00  0.00     0.119 A 
ATOM     35  C   UNL     1      17.380  31.436   8.300  1.00  0.00     0.158 A 
ATOM     36  N   UNL     1      16.397  31.996   7.482  1.00  0.00    -0.221 N 
ATOM     37  N   UNL     1      17.668  30.220   7.894  1.00  0.00    -0.215 NA
ATOM     38  N   UNL     1      16.064  31.100   6.519  1.00  0.00    -0.155 NA
ATOM     39  C   UNL     1      16.851  30.065   6.811  1.00  0.00     0.247 A 
ENDBRANCH  30  31
ENDBRANCH  28  30
ENDBRANCH   1  23
TORSDOF 6
ENDMDL
MODEL 6
REMARK VINA RESULT:   -10.253      2.242      8.433
REMARK INTER + INTRA:         -15.217
REMARK INTER:                 -13.909
REMARK INTRA:                  -1.308
REMARK UNBOUND:                -1.368
REMARK SMILES C=CC(=O)N1CCN(c2ncc3ncnc(Nc4ccc(Oc5ccn6ncnc6c5)c(C)c4)c3n2)CC1
REMARK SMILES IDX 17 1 16 3 9 4 10 5 36 6 11 7 35 8 12 9 13 10 15 11 14 12
REMARK SMILES IDX 8 13 3 14 4 15 5 16 6 17 38 18 7 19 37 20 2 21 1 22 18 23
REMARK SMILES IDX 19 24 34 25 20 26 32 27 21 28 33 29 22 30 23 31 24 32 31 33
REMARK SMILES IDX 25 34 30 35 26 36 29 37 27 38 28 39
REMARK H PARENT 17 2
ROOT
ATOM      1  N   UNL     1      20.198  32.783  15.565  1.00  0.00    -0.338 N 
ATOM      2  H   UNL     1      20.035  31.779  15.570  1.00  0.00     0.168 HD
ENDROOT
BRANCH   1   3
ATOM      3  C   UNL     1      19.073  33.476  16.085  1.00  0.00     0.160 A 
ATOM      4  C   UNL     1      17.205  33.994  13.019  1.00  0.00     0.226 A 
ATOM      5  N   UNL     1      16.151  34.676  13.477  1.00  0.00    -0.219 NA
ATOM      6  N   UNL     1      18.186  33.583  13.833  1.00  0.00    -0.207 NA
ATOM      7  C   UNL     1      16.095  34.928  14.806  1.00  0.00     0.146 A 
ATOM      8  C   UNL     1      18.092  33.860  15.162  1.00  0.00     0.137 A 
ATOM      9  C   UNL     1      17.035  34.549  15.730  1.00  0.00     0.113 A 
ATOM     10  N   UNL     1      16.916  34.839  17.042  1.00  0.00    -0.233 NA
ATOM     11  N   UNL     1      18.991  33.747  17.409  1.00  0.00    -0.217 NA
ATOM     12  C   UNL     1      17.915  34.415  17.821  1.00  0.00     0.225 A 
BRANCH   4  13
ATOM     13  N   UNL     1      17.273  33.692  11.674  1.00  0.00    -0.337 N 
ATOM     14  C   UNL     1      16.508  31.913   8.139  1.00  0.00     0.246 C 
ATOM     15  O   UNL     1      15.384  32.139   7.688  1.00  0.00    -0.270 OA
ATOM     16  N   UNL     1      17.173  32.784   8.979  1.00  0.00    -0.336 N 
ATOM     17  C   UNL     1      18.371  32.501   9.779  1.00  0.00     0.141 C 
ATOM     18  C   UNL     1      16.541  34.055   9.330  1.00  0.00     0.141 C 
ATOM     19  C   UNL     1      18.050  32.509  11.287  1.00  0.00     0.141 C 
ATOM     20  C   UNL     1      16.143  34.082  10.818  1.00  0.00     0.141 C 
BRANCH  14  21
ATOM     21  C   UNL     1      17.209  30.653   7.782  1.00  0.00     0.063 C 
ATOM     22  C   UNL     1      17.869  30.556   6.621  1.00  0.00     0.014 C 
ENDBRANCH  14  21
ENDBRANCH   4  13
ENDBRANCH   1   3
BRANCH   1  23
ATOM     23  C   UNL     1      21.428  33.204  15.040  1.00  0.00     0.040 A 
ATOM     24  C   UNL     1      22.602  32.604  15.525  1.00  0.00     0.030 A 
ATOM     25  C   UNL     1      21.555  34.164  14.027  1.00  0.00     0.033 A 
ATOM     26  C   UNL     1      23.858  32.958  15.025  1.00  0.00     0.049 A 
ATOM     27  C   UNL     1      22.810  34.541  13.516  1.00  0.00    -0.006 A 
ATOM     28  C   UNL     1      23.960  33.934  14.035  1.00  0.00     0.130 A 
ATOM     29  C   UNL     1      22.901  35.563  12.419  1.00  0.00     0.048 C 
BRANCH  28  30
ATOM     30  O   UNL     1      25.180  34.259  13.490  1.00  0.00    -0.457 OA
BRANCH  30  31
ATOM     31  C   UNL     1      25.984  33.247  12.994  1.00  0.00     0.132 A 
ATOM     32  C   UNL     1      25.566  32.781  11.678  1.00  0.00     0.067 A 
ATOM     33  C   UNL     1      27.098  32.753  13.582  1.00  0.00     0.096 A 
ATOM     34  C   UNL     1      26.285  31.832  11.058  1.00  0.00     0.119 A 
ATOM     35  C   UNL     1      27.854  31.743  12.928  1.00  0.00     0.158 A 
ATOM     36  N   UNL     1      27.421  31.312  11.672  1.00  0.00    -0.221 N 
ATOM     37  N   UNL     1      28.943  31.094  13.277  1.00  0.00    -0.215 NA
ATOM     38  N   UNL     1      28.277  30.366  11.212  1.00  0.00    -0.155 NA
ATOM     39  C   UNL     1      29.162  30.279  12.205  1.00  0.00     0.247 A 
ENDBRANCH  30  31
ENDBRANCH  28  30
ENDBRANCH   1  23
TORSDOF 6
ENDMDL
MODEL 7
REMARK VINA RESULT:   -10.209      2.237      3.797
REMARK INTER + INTRA:         -15.158
REMARK INTER:                 -13.850
REMARK INTRA:                  -1.309
REMARK UNBOUND:                -1.368
REMARK SMILES C=CC(=O)N1CCN(c2ncc3ncnc(Nc4ccc(Oc5ccn6ncnc6c5)c(C)c4)c3n2)CC1
REMARK SMILES IDX 17 1 16 3 9 4 10 5 36 6 11 7 35 8 12 9 13 10 15 11 14 12
REMARK SMILES IDX 8 13 3 14 4 15 5 16 6 17 38 18 7 19 37 20 2 21 1 22 18 23
REMARK SMILES IDX 19 24 34 25 20 26 32 27 21 28 33 29 22 30 23 31 24 32 31 33
REMARK SMILES IDX 25 34 30 35 26 36 29 37 27 38 28 39
REMARK H PARENT 17 2
ROOT
ATOM      1  N   UNL     1      19.497  36.871  16.281  1.00  0.00    -0.338 N 
ATOM      2  H   UNL     1      19.617  37.812  15.915  1.00  0.00     0.168 HD
ENDROOT
BRANCH   1   3
ATOM      3  C   UNL     1      20.232  36.704  17.484  1.00  0.00     0.160 A 
ATOM      4  C   UNL     1      23.368  35.494  16.119  1.00  0.00     0.226 A 
ATOM      5  N   UNL     1      24.072  35.297  17.238  1.00  0.00    -0.219 NA
ATOM      6  N   UNL     1      22.109  35.950  16.150  1.00  0.00    -0.207 NA
ATOM      7  C   UNL     1      23.474  35.591  18.417  1.00  0.00     0.146 A 
ATOM      8  C   UNL     1      21.544  36.231  17.357  1.00  0.00     0.137 A 
ATOM      9  C   UNL     1      22.197  36.070  18.565  1.00  0.00     0.113 A 
ATOM     10  N   UNL     1      21.663  36.339  19.774  1.00  0.00    -0.233 NA
ATOM     11  N   UNL     1      19.660  36.986  18.678  1.00  0.00    -0.217 NA
ATOM     12  C   UNL     1      20.405  36.789  19.765  1.00  0.00     0.225 A 
BRANCH   4  13
ATOM     13  N   UNL     1      23.963  35.235  14.901  1.00  0.00    -0.337 N 
ATOM     14  C   UNL     1      25.348  33.201  11.709  1.00  0.00     0.246 C 
ATOM     15  O   UNL     1      24.472  32.694  11.009  1.00  0.00    -0.270 OA
ATOM     16  N   UNL     1      25.143  34.332  12.474  1.00  0.00    -0.336 N 
ATOM     17  C   UNL     1      26.014  34.852  13.536  1.00  0.00     0.141 C 
ATOM     18  C   UNL     1      23.838  34.990  12.435  1.00  0.00     0.141 C 
ATOM     19  C   UNL     1      25.341  34.731  14.919  1.00  0.00     0.141 C 
ATOM     20  C   UNL     1      23.101  34.839  13.778  1.00  0.00     0.141 C 
BRANCH  14  21
ATOM     21  C   UNL     1      26.703  32.593  11.755  1.00  0.00     0.063 C 
ATOM     22  C   UNL     1      26.984  31.519  11.006  1.00  0.00     0.014 C 
ENDBRANCH  14  21
ENDBRANCH   4  13
ENDBRANCH   1   3
BRANCH   1  23
ATOM     23  C   UNL     1      18.694  36.011  15.519  1.00  0.00     0.040 A 
ATOM     24  C   UNL     1      19.310  35.215  14.539  1.00  0.00     0.030 A 
ATOM     25  C   UNL     1      17.312  35.867  15.703  1.00  0.00     0.033 A 
ATOM     26  C   UNL     1      18.572  34.317  13.764  1.00  0.00     0.049 A 
ATOM     27  C   UNL     1      16.549  34.975  14.928  1.00  0.00    -0.006 A 
ATOM     28  C   UNL     1      17.194  34.211  13.949  1.00  0.00     0.130 A 
ATOM     29  C   UNL     1      15.073  34.841  15.168  1.00  0.00     0.048 C 
BRANCH  28  30
ATOM     30  O   UNL     1      16.457  33.295  13.236  1.00  0.00    -0.457 OA
BRANCH  30  31
ATOM     31  C   UNL     1      16.577  33.263  11.857  1.00  0.00     0.132 A 
ATOM     32  C   UNL     1      16.166  34.508  11.222  1.00  0.00     0.067 A 
ATOM     33  C   UNL     1      17.088  32.247  11.124  1.00  0.00     0.096 A 
ATOM     34  C   UNL     1      16.273  34.633   9.889  1.00  0.00     0.119 A 
ATOM     35  C   UNL     1      17.195  32.377   9.713  1.00  0.00     0.158 A 
ATOM     36  N   UNL     1      16.783  33.580   9.135  1.00  0.00    -0.221 N 
ATOM     37  N   UNL     1      17.630  31.555   8.785  1.00  0.00    -0.215 NA
ATOM     38  N   UNL     1      16.978  33.513   7.794  1.00  0.00    -0.155 NA
ATOM     39  C   UNL     1      17.485  32.290   7.643  1.00  0.00     0.247 A 
ENDBRANCH  30  31
ENDBRANCH  28  30
ENDBRANCH   1  23
TORSDOF 6
ENDMDL
MODEL 8
REMARK VINA RESULT:   -10.080      2.505      5.533
REMARK INTER + INTRA:         -14.984
REMARK INTER:                 -14.448
REMARK INTRA:                  -0.535
REMARK UNBOUND:                -1.368
REMARK SMILES C=CC(=O)N1CCN(c2ncc3ncnc(Nc4ccc(Oc5ccn6ncnc6c5)c(C)c4)c3n2)CC1
REMARK SMILES IDX 17 1 16 3 9 4 10 5 36 6 11 7 35 8 12 9 13 10 15 11 14 12
REMARK SMILES IDX 8 13 3 14 4 15 5 16 6 17 38 18 7 19 37 20 2 21 1 22 18 23
REMARK SMILES IDX 19 24 34 25 20 26 32 27 21 28 33 29 22 30 23 31 24 32 31 33
REMARK SMILES IDX 25 34 30 35 26 36 29 37 27 38 28 39
REMARK H PARENT 17 2
ROOT
ATOM      1  N   UNL     1      20.301  32.782  12.943  1.00  0.00    -0.338 N 
ATOM      2  H   UNL     1      19.950  32.514  13.860  1.00  0.00     0.168 HD
ENDROOT
BRANCH   1   3
ATOM      3  C   UNL     1      21.705  32.986  12.983  1.00  0.00     0.160 A 
ATOM      4  C   UNL     1      21.939  35.022  15.977  1.00  0.00     0.226 A 
ATOM      5  N   UNL     1      23.254  35.257  16.022  1.00  0.00    -0.219 NA
ATOM      6  N   UNL     1      21.387  34.288  15.003  1.00  0.00    -0.207 NA
ATOM      7  C   UNL     1      24.023  34.711  15.050  1.00  0.00     0.146 A 
ATOM      8  C   UNL     1      22.196  33.760  14.043  1.00  0.00     0.137 A 
ATOM      9  C   UNL     1      23.567  33.938  14.012  1.00  0.00     0.113 A 
ATOM     10  N   UNL     1      24.393  33.428  13.075  1.00  0.00    -0.233 NA
ATOM     11  N   UNL     1      22.500  32.457  12.024  1.00  0.00    -0.217 NA
ATOM     12  C   UNL     1      23.805  32.704  12.118  1.00  0.00     0.225 A 
BRANCH   4  13
ATOM     13  N   UNL     1      21.134  35.537  16.973  1.00  0.00    -0.337 N 
ATOM     14  C   UNL     1      18.075  35.908  19.569  1.00  0.00     0.246 C 
ATOM     15  O   UNL     1      18.056  35.057  20.460  1.00  0.00    -0.270 OA
ATOM     16  N   UNL     1      19.233  36.318  18.941  1.00  0.00    -0.336 N 
ATOM     17  C   UNL     1      19.339  37.104  17.706  1.00  0.00     0.141 C 
ATOM     18  C   UNL     1      20.512  35.749  19.366  1.00  0.00     0.141 C 
ATOM     19  C   UNL     1      19.928  36.262  16.556  1.00  0.00     0.141 C 
ATOM     20  C   UNL     1      21.107  34.846  18.270  1.00  0.00     0.141 C 
BRANCH  14  21
ATOM     21  C   UNL     1      16.806  36.543  19.128  1.00  0.00     0.063 C 
ATOM     22  C   UNL     1      16.018  35.927  18.239  1.00  0.00     0.014 C 
ENDBRANCH  14  21
ENDBRANCH   4  13
ENDBRANCH   1   3
BRANCH   1  23
ATOM     23  C   UNL     1      19.341  32.902  11.928  1.00  0.00     0.040 A 
ATOM     24  C   UNL     1      19.162  31.823  11.046  1.00  0.00     0.030 A 
ATOM     25  C   UNL     1      18.517  34.023  11.764  1.00  0.00     0.033 A 
ATOM     26  C   UNL     1      18.205  31.866  10.031  1.00  0.00     0.049 A 
ATOM     27  C   UNL     1      17.552  34.090  10.743  1.00  0.00    -0.006 A 
ATOM     28  C   UNL     1      17.414  33.004   9.872  1.00  0.00     0.130 A 
ATOM     29  C   UNL     1      16.678  35.305  10.611  1.00  0.00     0.048 C 
BRANCH  28  30
ATOM     30  O   UNL     1      16.428  33.047   8.914  1.00  0.00    -0.457 OA
BRANCH  30  31
ATOM     31  C   UNL     1      16.176  31.915   8.158  1.00  0.00     0.132 A 
ATOM     32  C   UNL     1      17.308  31.523   7.327  1.00  0.00     0.067 A 
ATOM     33  C   UNL     1      15.052  31.163   8.198  1.00  0.00     0.096 A 
ATOM     34  C   UNL     1      17.218  30.415   6.575  1.00  0.00     0.119 A 
ATOM     35  C   UNL     1      14.956  29.994   7.396  1.00  0.00     0.158 A 
ATOM     36  N   UNL     1      16.054  29.651   6.604  1.00  0.00    -0.221 N 
ATOM     37  N   UNL     1      13.993  29.113   7.237  1.00  0.00    -0.215 NA
ATOM     38  N   UNL     1      15.773  28.506   5.933  1.00  0.00    -0.155 NA
ATOM     39  C   UNL     1      14.538  28.231   6.350  1.00  0.00     0.247 A 
ENDBRANCH  30  31
ENDBRANCH  28  30
ENDBRANCH   1  23
TORSDOF 6
ENDMDL
MODEL 9
REMARK VINA RESULT:    -9.445      2.388      8.322
REMARK INTER + INTRA:         -14.126
REMARK INTER:                 -12.711
REMARK INTRA:                  -1.415
REMARK UNBOUND:                -1.368
REMARK SMILES C=CC(=O)N1CCN(c2ncc3ncnc(Nc4ccc(Oc5ccn6ncnc6c5)c(C)c4)c3n2)CC1
REMARK SMILES IDX 17 1 16 3 9 4 10 5 36 6 11 7 35 8 12 9 13 10 15 11 14 12
REMARK SMILES IDX 8 13 3 14 4 15 5 16 6 17 38 18 7 19 37 20 2 21 1 22 18 23
REMARK SMILES IDX 19 24 34 25 20 26 32 27 21 28 33 29 22 30 23 31 24 32 31 33
REMARK SMILES IDX 25 34 30 35 26 36 29 37 27 38 28 39
REMARK H PARENT 17 2
ROOT
ATOM      1  N   UNL     1      19.285  36.287  15.715  1.00  0.00    -0.338 N 
ATOM      2  H   UNL     1      19.200  37.184  15.245  1.00  0.00     0.168 HD
ENDROOT
BRANCH   1   3
ATOM      3  C   UNL     1      18.026  35.865  16.220  1.00  0.00     0.160 A 
ATOM      4  C   UNL     1      16.664  34.312  13.237  1.00  0.00     0.226 A 
ATOM      5  N   UNL     1      15.460  33.932  13.677  1.00  0.00    -0.219 NA
ATOM      6  N   UNL     1      17.535  34.949  14.031  1.00  0.00    -0.207 NA
ATOM      7  C   UNL     1      15.150  34.198  14.968  1.00  0.00     0.146 A 
ATOM      8  C   UNL     1      17.182  35.199  15.322  1.00  0.00     0.137 A 
ATOM      9  C   UNL     1      15.965  34.834  15.869  1.00  0.00     0.113 A 
ATOM     10  N   UNL     1      15.588  35.069  17.142  1.00  0.00    -0.233 NA
ATOM     11  N   UNL     1      17.685  36.120  17.505  1.00  0.00    -0.217 NA
ATOM     12  C   UNL     1      16.482  35.708  17.902  1.00  0.00     0.225 A 
BRANCH   4  13
ATOM     13  N   UNL     1      17.021  34.025  11.935  1.00  0.00    -0.337 N 
ATOM     14  C   UNL     1      16.971  32.363   8.264  1.00  0.00     0.246 C 
ATOM     15  O   UNL     1      16.005  32.686   7.572  1.00  0.00    -0.270 OA
ATOM     16  N   UNL     1      17.485  33.165   9.263  1.00  0.00    -0.336 N 
ATOM     17  C   UNL     1      18.438  32.773  10.309  1.00  0.00     0.141 C 
ATOM     18  C   UNL     1      16.888  34.478   9.499  1.00  0.00     0.141 C 
ATOM     19  C   UNL     1      17.774  32.787  11.702  1.00  0.00     0.141 C 
ATOM     20  C   UNL     1      16.157  34.518  10.854  1.00  0.00     0.141 C 
BRANCH  14  21
ATOM     21  C   UNL     1      17.638  31.055   8.038  1.00  0.00     0.063 C 
ATOM     22  C   UNL     1      18.043  30.709   6.810  1.00  0.00     0.014 C 
ENDBRANCH  14  21
ENDBRANCH   4  13
ENDBRANCH   1   3
BRANCH   1  23
ATOM     23  C   UNL     1      20.573  35.737  15.766  1.00  0.00     0.040 A 
ATOM     24  C   UNL     1      21.586  36.336  14.998  1.00  0.00     0.030 A 
ATOM     25  C   UNL     1      20.924  34.645  16.570  1.00  0.00     0.033 A 
ATOM     26  C   UNL     1      22.897  35.856  15.024  1.00  0.00     0.049 A 
ATOM     27  C   UNL     1      22.236  34.140  16.605  1.00  0.00    -0.006 A 
ATOM     28  C   UNL     1      23.215  34.751  15.814  1.00  0.00     0.130 A 
ATOM     29  C   UNL     1      22.572  32.976  17.493  1.00  0.00     0.048 C 
BRANCH  28  30
ATOM     30  O   UNL     1      24.510  34.295  15.897  1.00  0.00    -0.457 OA
BRANCH  30  31
ATOM     31  C   UNL     1      25.125  33.809  14.756  1.00  0.00     0.132 A 
ATOM     32  C   UNL     1      26.426  34.417  14.508  1.00  0.00     0.067 A 
ATOM     33  C   UNL     1      24.658  32.821  13.958  1.00  0.00     0.096 A 
ATOM     34  C   UNL     1      27.154  34.005  13.458  1.00  0.00     0.119 A 
ATOM     35  C   UNL     1      25.426  32.391  12.842  1.00  0.00     0.158 A 
ATOM     36  N   UNL     1      26.664  33.000  12.627  1.00  0.00    -0.221 N 
ATOM     37  N   UNL     1      25.203  31.482  11.919  1.00  0.00    -0.215 NA
ATOM     38  N   UNL     1      27.244  32.444  11.534  1.00  0.00    -0.155 NA
ATOM     39  C   UNL     1      26.333  31.548  11.157  1.00  0.00     0.247 A 
ENDBRANCH  30  31
ENDBRANCH  28  30
ENDBRANCH   1  23
TORSDOF 6
ENDMDL
