MODEL 1
REMARK VINA RESULT:    -9.622      0.000      0.000
REMARK INTER + INTRA:         -14.770
REMARK INTER:                 -12.715
REMARK INTRA:                  -2.055
REMARK UNBOUND:                -2.055
REMARK SMILES Cc1ccc(S(=O)(=O)c2ccc([C@H]3C(C(=O)c4ccccc4)=C(N)NC4=C3C(=O)CC(C)(C)C4)cc2)cc1
REMARK SMILES IDX 9 1 10 2 11 3 12 4 35 5 36 6 6 7 7 8 8 9 5 10 2 11 3 12
REMARK SMILES IDX 38 13 4 14 37 15 1 16 13 17 14 18 27 19 23 20 26 21 28 22
REMARK SMILES IDX 25 23 34 24 29 25 30 26 31 27 32 29 33 30 15 31 16 32 17 33
REMARK SMILES IDX 18 34 22 35 19 36 21 37 20 38 24 39
REMARK H PARENT 25 28 24 40 24 41
ROOT
ATOM      1  C   UNL     1      12.597   2.399  28.290  1.00  0.00     0.072 A 
ATOM      2  C   UNL     1      11.582   2.706  27.381  1.00  0.00     0.021 A 
ATOM      3  C   UNL     1      11.844   3.594  26.337  1.00  0.00     0.006 A 
ATOM      4  C   UNL     1      13.116   4.178  26.194  1.00  0.00    -0.036 A 
ATOM      5  C   UNL     1      14.111   3.882  27.142  1.00  0.00     0.006 A 
ATOM      6  C   UNL     1      13.855   2.996  28.189  1.00  0.00     0.021 A 
ENDROOT
BRANCH   1   7
ATOM      7  S   UNL     1      12.299   1.228  29.593  1.00  0.00     0.206 S 
ATOM      8  O   UNL     1      13.394   1.323  30.542  1.00  0.00    -0.219 OA
ATOM      9  O   UNL     1      11.984  -0.039  28.959  1.00  0.00    -0.219 OA
BRANCH   7  10
ATOM     10  C   UNL     1      10.839   1.800  30.432  1.00  0.00     0.072 A 
ATOM     11  C   UNL     1       8.563   2.708  31.772  1.00  0.00    -0.051 A 
ATOM     12  C   UNL     1       8.566   2.599  30.373  1.00  0.00     0.005 A 
ATOM     13  C   UNL     1       9.704   2.333  32.493  1.00  0.00     0.005 A 
ATOM     14  C   UNL     1       9.701   2.146  29.700  1.00  0.00     0.021 A 
ATOM     15  C   UNL     1      10.845   1.882  31.827  1.00  0.00     0.021 A 
ATOM     16  C   UNL     1       7.323   3.160  32.487  1.00  0.00     0.044 C 
ENDBRANCH   7  10
ENDBRANCH   1   7
BRANCH   4  17
ATOM     17  C   UNL     1      13.435   5.115  25.023  1.00  0.00     0.092 C 
ATOM     18  C   UNL     1      13.326   6.581  25.461  1.00  0.00     0.052 C 
ATOM     19  C   UNL     1      14.784   4.784  24.404  1.00  0.00     0.027 C 
ATOM     20  C   UNL     1      14.401   7.409  25.434  1.00  0.00     0.108 C 
ATOM     21  C   UNL     1      15.794   5.674  24.412  1.00  0.00     0.025 C 
ATOM     22  C   UNL     1      14.947   3.484  23.700  1.00  0.00     0.162 C 
ATOM     23  N   UNL     1      15.594   6.931  24.942  1.00  0.00    -0.345 N 
ATOM     24  C   UNL     1      17.161   5.364  23.857  1.00  0.00     0.061 C 
ATOM     25  O   UNL     1      13.970   2.764  23.491  1.00  0.00    -0.294 OA
ATOM     26  C   UNL     1      16.309   3.108  23.150  1.00  0.00     0.087 C 
ATOM     27  C   UNL     1      17.474   3.853  23.823  1.00  0.00    -0.023 C 
ATOM     28  H   UNL     1      16.362   7.590  24.920  1.00  0.00     0.168 HD
ATOM     29  C   UNL     1      18.761   3.624  23.010  1.00  0.00     0.012 C 
ATOM     30  C   UNL     1      17.707   3.308  25.248  1.00  0.00     0.012 C 
BRANCH  18  31
ATOM     31  C   UNL     1      12.028   7.070  26.030  1.00  0.00     0.193 C 
ATOM     32  O   UNL     1      11.858   7.228  27.238  1.00  0.00    -0.289 OA
BRANCH  31  33
ATOM     33  C   UNL     1      10.898   7.340  25.115  1.00  0.00     0.022 A 
ATOM     34  C   UNL     1       9.775   6.508  25.081  1.00  0.00     0.012 A 
ATOM     35  C   UNL     1      10.990   8.437  24.251  1.00  0.00     0.012 A 
ATOM     36  C   UNL     1       8.726   6.801  24.209  1.00  0.00     0.001 A 
ATOM     37  C   UNL     1       9.939   8.724  23.380  1.00  0.00     0.001 A 
ATOM     38  C   UNL     1       8.807   7.909  23.363  1.00  0.00     0.000 A 
ENDBRANCH  31  33
ENDBRANCH  18  31
BRANCH  20  39
ATOM     39  N   UNL     1      14.368   8.693  25.884  1.00  0.00    -0.385 N 
ATOM     40  H   UNL     1      13.462   9.167  25.877  1.00  0.00     0.158 HD
ATOM     41  H   UNL     1      15.083   9.040  26.503  1.00  0.00     0.158 HD
ENDBRANCH  20  39
ENDBRANCH   4  17
TORSDOF 6
ENDMDL
MODEL 2
REMARK VINA RESULT:    -9.425      3.415      6.329
REMARK INTER + INTRA:         -14.510
REMARK INTER:                 -11.515
REMARK INTRA:                  -2.995
REMARK UNBOUND:                -2.055
REMARK SMILES Cc1ccc(S(=O)(=O)c2ccc([C@H]3C(C(=O)c4ccccc4)=C(N)NC4=C3C(=O)CC(C)(C)C4)cc2)cc1
REMARK SMILES IDX 9 1 10 2 11 3 12 4 35 5 36 6 6 7 7 8 8 9 5 10 2 11 3 12
REMARK SMILES IDX 38 13 4 14 37 15 1 16 13 17 14 18 27 19 23 20 26 21 28 22
REMARK SMILES IDX 25 23 34 24 29 25 30 26 31 27 32 29 33 30 15 31 16 32 17 33
REMARK SMILES IDX 18 34 22 35 19 36 21 37 20 38 24 39
REMARK H PARENT 25 28 24 40 24 41
ROOT
ATOM      1  C   UNL     1      13.242   4.274  24.566  1.00  0.00     0.072 A 
ATOM      2  C   UNL     1      13.649   5.404  25.278  1.00  0.00     0.021 A 
ATOM      3  C   UNL     1      14.526   6.311  24.681  1.00  0.00     0.006 A 
ATOM      4  C   UNL     1      15.000   6.096  23.375  1.00  0.00    -0.036 A 
ATOM      5  C   UNL     1      14.606   4.932  22.691  1.00  0.00     0.006 A 
ATOM      6  C   UNL     1      13.731   4.022  23.282  1.00  0.00     0.021 A 
ENDROOT
BRANCH   1   7
ATOM      7  S   UNL     1      12.083   3.137  25.287  1.00  0.00     0.206 S 
ATOM      8  O   UNL     1      12.238   1.855  24.624  1.00  0.00    -0.219 OA
ATOM      9  O   UNL     1      10.793   3.804  25.306  1.00  0.00    -0.219 OA
BRANCH   7  10
ATOM     10  C   UNL     1      12.610   2.914  26.971  1.00  0.00     0.072 A 
ATOM     11  C   UNL     1      13.408   2.570  29.625  1.00  0.00    -0.051 A 
ATOM     12  C   UNL     1      14.094   1.918  28.588  1.00  0.00     0.005 A 
ATOM     13  C   UNL     1      12.334   3.414  29.315  1.00  0.00     0.005 A 
ATOM     14  C   UNL     1      13.698   2.088  27.261  1.00  0.00     0.021 A 
ATOM     15  C   UNL     1      11.930   3.587  27.990  1.00  0.00     0.021 A 
ATOM     16  C   UNL     1      13.868   2.409  31.046  1.00  0.00     0.044 C 
ENDBRANCH   7  10
ENDBRANCH   1   7
BRANCH   4  17
ATOM     17  C   UNL     1      15.923   7.108  22.685  1.00  0.00     0.092 C 
ATOM     18  C   UNL     1      17.289   6.476  22.389  1.00  0.00     0.052 C 
ATOM     19  C   UNL     1      15.266   7.700  21.449  1.00  0.00     0.027 C 
ATOM     20  C   UNL     1      17.742   6.335  21.117  1.00  0.00     0.108 C 
ATOM     21  C   UNL     1      15.793   7.519  20.223  1.00  0.00     0.025 C 
ATOM     22  C   UNL     1      14.072   8.569  21.621  1.00  0.00     0.162 C 
ATOM     23  N   UNL     1      16.979   6.829  20.083  1.00  0.00    -0.345 N 
ATOM     24  C   UNL     1      15.143   8.044  18.968  1.00  0.00     0.061 C 
ATOM     25  O   UNL     1      13.719   8.924  22.746  1.00  0.00    -0.294 OA
ATOM     26  C   UNL     1      13.360   9.098  20.391  1.00  0.00     0.087 C 
ATOM     27  C   UNL     1      13.624   8.272  19.122  1.00  0.00    -0.023 C 
ATOM     28  H   UNL     1      17.366   6.722  19.154  1.00  0.00     0.168 HD
ATOM     29  C   UNL     1      13.105   9.045  17.895  1.00  0.00     0.012 C 
ATOM     30  C   UNL     1      12.870   6.927  19.191  1.00  0.00     0.012 C 
BRANCH  18  31
ATOM     31  C   UNL     1      18.085   5.909  23.526  1.00  0.00     0.193 C 
ATOM     32  O   UNL     1      19.081   6.473  23.976  1.00  0.00    -0.289 OA
BRANCH  31  33
ATOM     33  C   UNL     1      17.682   4.611  24.108  1.00  0.00     0.022 A 
ATOM     34  C   UNL     1      17.780   3.424  23.376  1.00  0.00     0.012 A 
ATOM     35  C   UNL     1      17.163   4.597  25.407  1.00  0.00     0.012 A 
ATOM     36  C   UNL     1      17.397   2.218  23.962  1.00  0.00     0.001 A 
ATOM     37  C   UNL     1      16.779   3.389  25.989  1.00  0.00     0.001 A 
ATOM     38  C   UNL     1      16.900   2.200  25.267  1.00  0.00     0.000 A 
ENDBRANCH  31  33
ENDBRANCH  18  31
BRANCH  20  39
ATOM     39  N   UNL     1      18.911   5.713  20.803  1.00  0.00    -0.385 N 
ATOM     40  H   UNL     1      19.744   6.300  20.724  1.00  0.00     0.158 HD
ATOM     41  H   UNL     1      19.034   4.729  20.982  1.00  0.00     0.158 HD
ENDBRANCH  20  39
ENDBRANCH   4  17
TORSDOF 6
ENDMDL
MODEL 3
REMARK VINA RESULT:    -9.318      3.122      7.424
REMARK INTER + INTRA:         -14.368
REMARK INTER:                 -11.388
REMARK INTRA:                  -2.980
REMARK UNBOUND:                -2.055
REMARK SMILES Cc1ccc(S(=O)(=O)c2ccc([C@H]3C(C(=O)c4ccccc4)=C(N)NC4=C3C(=O)CC(C)(C)C4)cc2)cc1
REMARK SMILES IDX 9 1 10 2 11 3 12 4 35 5 36 6 6 7 7 8 8 9 5 10 2 11 3 12
REMARK SMILES IDX 38 13 4 14 37 15 1 16 13 17 14 18 27 19 23 20 26 21 28 22
REMARK SMILES IDX 25 23 34 24 29 25 30 26 31 27 32 29 33 30 15 31 16 32 17 33
REMARK SMILES IDX 18 34 22 35 19 36 21 37 20 38 24 39
REMARK H PARENT 25 28 24 40 24 41
ROOT
ATOM      1  C   UNL     1      13.527   7.047  24.288  1.00  0.00     0.072 A 
ATOM      2  C   UNL     1      14.193   6.742  25.476  1.00  0.00     0.021 A 
ATOM      3  C   UNL     1      14.494   5.412  25.772  1.00  0.00     0.006 A 
ATOM      4  C   UNL     1      14.132   4.381  24.885  1.00  0.00    -0.036 A 
ATOM      5  C   UNL     1      13.430   4.708  23.712  1.00  0.00     0.006 A 
ATOM      6  C   UNL     1      13.125   6.036  23.412  1.00  0.00     0.021 A 
ENDROOT
BRANCH   1   7
ATOM      7  S   UNL     1      13.185   8.739  23.867  1.00  0.00     0.206 S 
ATOM      8  O   UNL     1      13.442   8.911  22.449  1.00  0.00    -0.219 OA
ATOM      9  O   UNL     1      13.872   9.564  24.845  1.00  0.00    -0.219 OA
BRANCH   7  10
ATOM     10  C   UNL     1      11.435   8.951  24.103  1.00  0.00     0.072 A 
ATOM     11  C   UNL     1       8.690   9.277  24.502  1.00  0.00    -0.051 A 
ATOM     12  C   UNL     1       9.335   9.930  23.441  1.00  0.00     0.005 A 
ATOM     13  C   UNL     1       9.432   8.440  25.347  1.00  0.00     0.005 A 
ATOM     14  C   UNL     1      10.706   9.769  23.238  1.00  0.00     0.021 A 
ATOM     15  C   UNL     1      10.804   8.276  25.152  1.00  0.00     0.021 A 
ATOM     16  C   UNL     1       7.208   9.428  24.688  1.00  0.00     0.044 C 
ENDBRANCH   7  10
ENDBRANCH   1   7
BRANCH   4  17
ATOM     17  C   UNL     1      14.501   2.920  25.170  1.00  0.00     0.092 C 
ATOM     18  C   UNL     1      16.023   2.732  25.136  1.00  0.00     0.052 C 
ATOM     19  C   UNL     1      13.876   2.437  26.469  1.00  0.00     0.027 C 
ATOM     20  C   UNL     1      16.710   2.332  26.236  1.00  0.00     0.108 C 
ATOM     21  C   UNL     1      14.637   2.046  27.508  1.00  0.00     0.025 C 
ATOM     22  C   UNL     1      12.396   2.313  26.546  1.00  0.00     0.162 C 
ATOM     23  N   UNL     1      16.010   2.030  27.382  1.00  0.00    -0.345 N 
ATOM     24  C   UNL     1      14.056   1.612  28.829  1.00  0.00     0.061 C 
ATOM     25  O   UNL     1      11.707   2.450  25.534  1.00  0.00    -0.294 OA
ATOM     26  C   UNL     1      11.756   1.910  27.861  1.00  0.00     0.087 C 
ATOM     27  C   UNL     1      12.644   2.180  29.087  1.00  0.00    -0.023 C 
ATOM     28  H   UNL     1      16.562   1.714  28.170  1.00  0.00     0.168 HD
ATOM     29  C   UNL     1      12.037   1.480  30.317  1.00  0.00     0.012 C 
ATOM     30  C   UNL     1      12.706   3.693  29.382  1.00  0.00     0.012 C 
BRANCH  18  31
ATOM     31  C   UNL     1      16.769   3.104  23.890  1.00  0.00     0.193 C 
ATOM     32  O   UNL     1      17.237   2.260  23.128  1.00  0.00    -0.289 OA
BRANCH  31  33
ATOM     33  C   UNL     1      16.983   4.534  23.581  1.00  0.00     0.022 A 
ATOM     34  C   UNL     1      16.568   5.084  22.364  1.00  0.00     0.012 A 
ATOM     35  C   UNL     1      17.645   5.328  24.524  1.00  0.00     0.012 A 
ATOM     36  C   UNL     1      16.781   6.440  22.112  1.00  0.00     0.001 A 
ATOM     37  C   UNL     1      17.857   6.682  24.267  1.00  0.00     0.001 A 
ATOM     38  C   UNL     1      17.421   7.237  23.063  1.00  0.00     0.000 A 
ENDBRANCH  31  33
ENDBRANCH  18  31
BRANCH  20  39
ATOM     39  N   UNL     1      18.066   2.225  26.273  1.00  0.00    -0.385 N 
ATOM     40  H   UNL     1      18.523   2.396  27.171  1.00  0.00     0.158 HD
ATOM     41  H   UNL     1      18.558   1.680  25.583  1.00  0.00     0.158 HD
ENDBRANCH  20  39
ENDBRANCH   4  17
TORSDOF 6
ENDMDL
MODEL 4
REMARK VINA RESULT:    -9.240      4.135      7.955
REMARK INTER + INTRA:         -14.266
REMARK INTER:                 -10.558
REMARK INTRA:                  -3.708
REMARK UNBOUND:                -2.055
REMARK SMILES Cc1ccc(S(=O)(=O)c2ccc([C@H]3C(C(=O)c4ccccc4)=C(N)NC4=C3C(=O)CC(C)(C)C4)cc2)cc1
REMARK SMILES IDX 9 1 10 2 11 3 12 4 35 5 36 6 6 7 7 8 8 9 5 10 2 11 3 12
REMARK SMILES IDX 38 13 4 14 37 15 1 16 13 17 14 18 27 19 23 20 26 21 28 22
REMARK SMILES IDX 25 23 34 24 29 25 30 26 31 27 32 29 33 30 15 31 16 32 17 33
REMARK SMILES IDX 18 34 22 35 19 36 21 37 20 38 24 39
REMARK H PARENT 25 28 24 40 24 41
ROOT
ATOM      1  C   UNL     1      11.810   5.564  25.200  1.00  0.00     0.072 A 
ATOM      2  C   UNL     1      10.939   5.611  24.109  1.00  0.00     0.021 A 
ATOM      3  C   UNL     1      10.533   6.849  23.609  1.00  0.00     0.006 A 
ATOM      4  C   UNL     1      10.993   8.043  24.193  1.00  0.00    -0.036 A 
ATOM      5  C   UNL     1      11.840   7.971  25.313  1.00  0.00     0.006 A 
ATOM      6  C   UNL     1      12.248   6.737  25.818  1.00  0.00     0.021 A 
ENDROOT
BRANCH   1   7
ATOM      7  S   UNL     1      12.382   3.999  25.815  1.00  0.00     0.206 S 
ATOM      8  O   UNL     1      11.698   2.949  25.082  1.00  0.00    -0.219 OA
ATOM      9  O   UNL     1      12.301   4.058  27.263  1.00  0.00    -0.219 OA
BRANCH   7  10
ATOM     10  C   UNL     1      14.101   3.904  25.366  1.00  0.00     0.072 A 
ATOM     11  C   UNL     1      16.791   3.746  24.633  1.00  0.00    -0.051 A 
ATOM     12  C   UNL     1      16.394   4.569  25.698  1.00  0.00     0.005 A 
ATOM     13  C   UNL     1      15.829   2.985  23.955  1.00  0.00     0.005 A 
ATOM     14  C   UNL     1      15.051   4.650  26.067  1.00  0.00     0.021 A 
ATOM     15  C   UNL     1      14.483   3.063  24.317  1.00  0.00     0.021 A 
ATOM     16  C   UNL     1      18.244   3.638  24.269  1.00  0.00     0.044 C 
ENDBRANCH   7  10
ENDBRANCH   1   7
BRANCH   4  17
ATOM     17  C   UNL     1      10.598   9.412  23.624  1.00  0.00     0.092 C 
ATOM     18  C   UNL     1      11.251   9.634  22.254  1.00  0.00     0.052 C 
ATOM     19  C   UNL     1       9.087   9.579  23.591  1.00  0.00     0.027 C 
ATOM     20  C   UNL     1      10.504   9.793  21.131  1.00  0.00     0.108 C 
ATOM     21  C   UNL     1       8.427   9.744  22.429  1.00  0.00     0.025 C 
ATOM     22  C   UNL     1       8.348   9.652  24.879  1.00  0.00     0.162 C 
ATOM     23  N   UNL     1       9.133   9.817  21.246  1.00  0.00    -0.345 N 
ATOM     24  C   UNL     1       6.926   9.860  22.350  1.00  0.00     0.061 C 
ATOM     25  O   UNL     1       8.963   9.730  25.944  1.00  0.00    -0.294 OA
ATOM     26  C   UNL     1       6.835   9.738  24.858  1.00  0.00     0.087 C 
ATOM     27  C   UNL     1       6.205   9.219  23.555  1.00  0.00    -0.023 C 
ATOM     28  H   UNL     1       8.617   9.960  20.386  1.00  0.00     0.168 HD
ATOM     29  C   UNL     1       4.717   9.614  23.518  1.00  0.00     0.012 C 
ATOM     30  C   UNL     1       6.291   7.680  23.492  1.00  0.00     0.012 C 
BRANCH  18  31
ATOM     31  C   UNL     1      12.745   9.565  22.146  1.00  0.00     0.193 C 
ATOM     32  O   UNL     1      13.445  10.573  22.072  1.00  0.00    -0.289 OA
BRANCH  31  33
ATOM     33  C   UNL     1      13.401   8.241  22.093  1.00  0.00     0.022 A 
ATOM     34  C   UNL     1      14.461   7.920  22.946  1.00  0.00     0.012 A 
ATOM     35  C   UNL     1      12.959   7.317  21.139  1.00  0.00     0.012 A 
ATOM     36  C   UNL     1      15.050   6.658  22.870  1.00  0.00     0.001 A 
ATOM     37  C   UNL     1      13.551   6.057  21.066  1.00  0.00     0.001 A 
ATOM     38  C   UNL     1      14.593   5.727  21.935  1.00  0.00     0.000 A 
ENDBRANCH  31  33
ENDBRANCH  18  31
BRANCH  20  39
ATOM     39  N   UNL     1      11.040   9.917  19.887  1.00  0.00    -0.385 N 
ATOM     40  H   UNL     1      11.164  10.865  19.524  1.00  0.00     0.158 HD
ATOM     41  H   UNL     1      11.600   9.178  19.492  1.00  0.00     0.158 HD
ENDBRANCH  20  39
ENDBRANCH   4  17
TORSDOF 6
ENDMDL
MODEL 5
REMARK VINA RESULT:    -9.182      3.214      6.754
REMARK INTER + INTRA:         -14.189
REMARK INTER:                 -11.285
REMARK INTRA:                  -2.904
REMARK UNBOUND:                -2.055
REMARK SMILES Cc1ccc(S(=O)(=O)c2ccc([C@H]3C(C(=O)c4ccccc4)=C(N)NC4=C3C(=O)CC(C)(C)C4)cc2)cc1
REMARK SMILES IDX 9 1 10 2 11 3 12 4 35 5 36 6 6 7 7 8 8 9 5 10 2 11 3 12
REMARK SMILES IDX 38 13 4 14 37 15 1 16 13 17 14 18 27 19 23 20 26 21 28 22
REMARK SMILES IDX 25 23 34 24 29 25 30 26 31 27 32 29 33 30 15 31 16 32 17 33
REMARK SMILES IDX 18 34 22 35 19 36 21 37 20 38 24 39
REMARK H PARENT 25 28 24 40 24 41
ROOT
ATOM      1  C   UNL     1      12.546   4.766  24.610  1.00  0.00     0.072 A 
ATOM      2  C   UNL     1      11.630   5.128  23.620  1.00  0.00     0.021 A 
ATOM      3  C   UNL     1      11.305   6.474  23.447  1.00  0.00     0.006 A 
ATOM      4  C   UNL     1      11.890   7.463  24.258  1.00  0.00    -0.036 A 
ATOM      5  C   UNL     1      12.781   7.071  25.273  1.00  0.00     0.006 A 
ATOM      6  C   UNL     1      13.109   5.728  25.452  1.00  0.00     0.021 A 
ENDROOT
BRANCH   1   7
ATOM      7  S   UNL     1      13.015   3.064  24.809  1.00  0.00     0.206 S 
ATOM      8  O   UNL     1      14.348   2.897  24.256  1.00  0.00    -0.219 OA
ATOM      9  O   UNL     1      11.910   2.260  24.318  1.00  0.00    -0.219 OA
BRANCH   7  10
ATOM     10  C   UNL     1      13.148   2.802  26.563  1.00  0.00     0.072 A 
ATOM     11  C   UNL     1      13.327   2.388  29.319  1.00  0.00    -0.051 A 
ATOM     12  C   UNL     1      14.391   2.030  28.478  1.00  0.00     0.005 A 
ATOM     13  C   UNL     1      12.181   2.977  28.766  1.00  0.00     0.005 A 
ATOM     14  C   UNL     1      14.306   2.236  27.101  1.00  0.00     0.021 A 
ATOM     15  C   UNL     1      12.087   3.183  27.389  1.00  0.00     0.021 A 
ATOM     16  C   UNL     1      13.446   2.197  30.804  1.00  0.00     0.044 C 
ENDBRANCH   7  10
ENDBRANCH   1   7
BRANCH   4  17
ATOM     17  C   UNL     1      11.583   8.951  24.047  1.00  0.00     0.092 C 
ATOM     18  C   UNL     1      12.262   9.465  22.771  1.00  0.00     0.052 C 
ATOM     19  C   UNL     1      10.086   9.212  24.064  1.00  0.00     0.027 C 
ATOM     20  C   UNL     1      11.537   9.941  21.727  1.00  0.00     0.108 C 
ATOM     21  C   UNL     1       9.448   9.698  22.983  1.00  0.00     0.025 C 
ATOM     22  C   UNL     1       9.339   9.009  25.335  1.00  0.00     0.162 C 
ATOM     23  N   UNL     1      10.169  10.018  21.851  1.00  0.00    -0.345 N 
ATOM     24  C   UNL     1       7.958   9.920  22.943  1.00  0.00     0.061 C 
ATOM     25  O   UNL     1       9.947   8.784  26.383  1.00  0.00    -0.294 OA
ATOM     26  C   UNL     1       7.834   9.188  25.343  1.00  0.00     0.087 C 
ATOM     27  C   UNL     1       7.187   9.046  23.956  1.00  0.00    -0.023 C 
ATOM     28  H   UNL     1       9.671  10.401  21.056  1.00  0.00     0.168 HD
ATOM     29  C   UNL     1       5.726   9.527  24.025  1.00  0.00     0.012 C 
ATOM     30  C   UNL     1       7.182   7.568  23.514  1.00  0.00     0.012 C 
BRANCH  18  31
ATOM     31  C   UNL     1      13.750   9.335  22.643  1.00  0.00     0.193 C 
ATOM     32  O   UNL     1      14.508  10.292  22.788  1.00  0.00    -0.289 OA
BRANCH  31  33
ATOM     33  C   UNL     1      14.329   8.019  22.295  1.00  0.00     0.022 A 
ATOM     34  C   UNL     1      13.836   7.268  21.224  1.00  0.00     0.012 A 
ATOM     35  C   UNL     1      15.368   7.519  23.088  1.00  0.00     0.012 A 
ATOM     36  C   UNL     1      14.413   6.034  20.923  1.00  0.00     0.001 A 
ATOM     37  C   UNL     1      15.941   6.284  22.784  1.00  0.00     0.001 A 
ATOM     38  C   UNL     1      15.466   5.546  21.700  1.00  0.00     0.000 A 
ENDBRANCH  31  33
ENDBRANCH  18  31
BRANCH  20  39
ATOM     39  N   UNL     1      12.092  10.336  20.550  1.00  0.00    -0.385 N 
ATOM     40  H   UNL     1      12.710  11.151  20.575  1.00  0.00     0.158 HD
ATOM     41  H   UNL     1      12.185   9.690  19.782  1.00  0.00     0.158 HD
ENDBRANCH  20  39
ENDBRANCH   4  17
TORSDOF 6
ENDMDL
MODEL 6
REMARK VINA RESULT:    -9.167      2.878      4.421
REMARK INTER + INTRA:         -14.169
REMARK INTER:                 -10.529
REMARK INTRA:                  -3.639
REMARK UNBOUND:                -2.055
REMARK SMILES Cc1ccc(S(=O)(=O)c2ccc([C@H]3C(C(=O)c4ccccc4)=C(N)NC4=C3C(=O)CC(C)(C)C4)cc2)cc1
REMARK SMILES IDX 9 1 10 2 11 3 12 4 35 5 36 6 6 7 7 8 8 9 5 10 2 11 3 12
REMARK SMILES IDX 38 13 4 14 37 15 1 16 13 17 14 18 27 19 23 20 26 21 28 22
REMARK SMILES IDX 25 23 34 24 29 25 30 26 31 27 32 29 33 30 15 31 16 32 17 33
REMARK SMILES IDX 18 34 22 35 19 36 21 37 20 38 24 39
REMARK H PARENT 25 28 24 40 24 41
ROOT
ATOM      1  C   UNL     1      16.191   2.647  25.988  1.00  0.00     0.072 A 
ATOM      2  C   UNL     1      15.931   1.997  24.780  1.00  0.00     0.021 A 
ATOM      3  C   UNL     1      15.920   2.734  23.595  1.00  0.00     0.006 A 
ATOM      4  C   UNL     1      16.168   4.118  23.609  1.00  0.00    -0.036 A 
ATOM      5  C   UNL     1      16.391   4.757  24.841  1.00  0.00     0.006 A 
ATOM      6  C   UNL     1      16.402   4.027  26.029  1.00  0.00     0.021 A 
ENDROOT
BRANCH   1   7
ATOM      7  S   UNL     1      16.265   1.718  27.500  1.00  0.00     0.206 S 
ATOM      8  O   UNL     1      17.171   2.402  28.406  1.00  0.00    -0.219 OA
ATOM      9  O   UNL     1      16.498   0.332  27.135  1.00  0.00    -0.219 OA
BRANCH   7  10
ATOM     10  C   UNL     1      14.640   1.830  28.216  1.00  0.00     0.072 A 
ATOM     11  C   UNL     1      12.083   1.977  29.329  1.00  0.00    -0.051 A 
ATOM     12  C   UNL     1      13.121   2.778  29.829  1.00  0.00     0.005 A 
ATOM     13  C   UNL     1      12.335   1.119  28.250  1.00  0.00     0.005 A 
ATOM     14  C   UNL     1      14.400   2.707  29.275  1.00  0.00     0.021 A 
ATOM     15  C   UNL     1      13.612   1.041  27.692  1.00  0.00     0.021 A 
ATOM     16  C   UNL     1      10.702   2.089  29.908  1.00  0.00     0.044 C 
ENDBRANCH   7  10
ENDBRANCH   1   7
BRANCH   4  17
ATOM     17  C   UNL     1      16.211   4.933  22.310  1.00  0.00     0.092 C 
ATOM     18  C   UNL     1      15.093   5.984  22.296  1.00  0.00     0.052 C 
ATOM     19  C   UNL     1      17.588   5.535  22.082  1.00  0.00     0.027 C 
ATOM     20  C   UNL     1      15.371   7.311  22.252  1.00  0.00     0.108 C 
ATOM     21  C   UNL     1      17.771   6.868  22.041  1.00  0.00     0.025 C 
ATOM     22  C   UNL     1      18.730   4.622  21.810  1.00  0.00     0.162 C 
ATOM     23  N   UNL     1      16.685   7.710  22.154  1.00  0.00    -0.345 N 
ATOM     24  C   UNL     1      19.127   7.503  21.871  1.00  0.00     0.061 C 
ATOM     25  O   UNL     1      18.534   3.421  21.621  1.00  0.00    -0.294 OA
ATOM     26  C   UNL     1      20.122   5.205  21.661  1.00  0.00     0.087 C 
ATOM     27  C   UNL     1      20.286   6.586  22.317  1.00  0.00    -0.023 C 
ATOM     28  H   UNL     1      16.843   8.709  22.101  1.00  0.00     0.168 HD
ATOM     29  C   UNL     1      21.621   7.207  21.865  1.00  0.00     0.012 C 
ATOM     30  C   UNL     1      20.320   6.451  23.853  1.00  0.00     0.012 C 
BRANCH  18  31
ATOM     31  C   UNL     1      13.672   5.528  22.444  1.00  0.00     0.193 C 
ATOM     32  O   UNL     1      12.891   5.496  21.495  1.00  0.00    -0.289 OA
BRANCH  31  33
ATOM     33  C   UNL     1      13.179   5.135  23.782  1.00  0.00     0.022 A 
ATOM     34  C   UNL     1      13.245   6.013  24.868  1.00  0.00     0.012 A 
ATOM     35  C   UNL     1      12.670   3.842  23.950  1.00  0.00     0.012 A 
ATOM     36  C   UNL     1      12.763   5.608  26.113  1.00  0.00     0.001 A 
ATOM     37  C   UNL     1      12.191   3.441  25.196  1.00  0.00     0.001 A 
ATOM     38  C   UNL     1      12.234   4.326  26.275  1.00  0.00     0.000 A 
ENDBRANCH  31  33
ENDBRANCH  18  31
BRANCH  20  39
ATOM     39  N   UNL     1      14.416   8.278  22.315  1.00  0.00    -0.385 N 
ATOM     40  H   UNL     1      13.449   7.972  22.439  1.00  0.00     0.158 HD
ATOM     41  H   UNL     1      14.655   9.222  22.577  1.00  0.00     0.158 HD
ENDBRANCH  20  39
ENDBRANCH   4  17
TORSDOF 6
ENDMDL
MODEL 7
REMARK VINA RESULT:    -9.139      2.661      6.342
REMARK INTER + INTRA:         -14.132
REMARK INTER:                 -11.561
REMARK INTRA:                  -2.571
REMARK UNBOUND:                -2.055
REMARK SMILES Cc1ccc(S(=O)(=O)c2ccc([C@H]3C(C(=O)c4ccccc4)=C(N)NC4=C3C(=O)CC(C)(C)C4)cc2)cc1
REMARK SMILES IDX 9 1 10 2 11 3 12 4 35 5 36 6 6 7 7 8 8 9 5 10 2 11 3 12
REMARK SMILES IDX 38 13 4 14 37 15 1 16 13 17 14 18 27 19 23 20 26 21 28 22
REMARK SMILES IDX 25 23 34 24 29 25 30 26 31 27 32 29 33 30 15 31 16 32 17 33
REMARK SMILES IDX 18 34 22 35 19 36 21 37 20 38 24 39
REMARK H PARENT 25 28 24 40 24 41
ROOT
ATOM      1  C   UNL     1      15.717   3.282  25.904  1.00  0.00     0.072 A 
ATOM      2  C   UNL     1      16.497   4.418  26.129  1.00  0.00     0.021 A 
ATOM      3  C   UNL     1      16.387   5.507  25.264  1.00  0.00     0.006 A 
ATOM      4  C   UNL     1      15.500   5.469  24.173  1.00  0.00    -0.036 A 
ATOM      5  C   UNL     1      14.751   4.301  23.945  1.00  0.00     0.006 A 
ATOM      6  C   UNL     1      14.858   3.209  24.805  1.00  0.00     0.021 A 
ENDROOT
BRANCH   1   7
ATOM      7  S   UNL     1      15.802   1.907  27.025  1.00  0.00     0.206 S 
ATOM      8  O   UNL     1      16.820   2.198  28.019  1.00  0.00    -0.219 OA
ATOM      9  O   UNL     1      15.887   0.705  26.216  1.00  0.00    -0.219 OA
BRANCH   7  10
ATOM     10  C   UNL     1      14.241   1.884  27.879  1.00  0.00     0.072 A 
ATOM     11  C   UNL     1      11.782   1.872  29.203  1.00  0.00    -0.051 A 
ATOM     12  C   UNL     1      12.541   0.696  29.107  1.00  0.00     0.005 A 
ATOM     13  C   UNL     1      12.280   3.059  28.650  1.00  0.00     0.005 A 
ATOM     14  C   UNL     1      13.771   0.698  28.447  1.00  0.00     0.021 A 
ATOM     15  C   UNL     1      13.507   3.069  27.985  1.00  0.00     0.021 A 
ATOM     16  C   UNL     1      10.479   1.865  29.949  1.00  0.00     0.044 C 
ENDBRANCH   7  10
ENDBRANCH   1   7
BRANCH   4  17
ATOM     17  C   UNL     1      15.329   6.677  23.243  1.00  0.00     0.092 C 
ATOM     18  C   UNL     1      15.687   6.300  21.800  1.00  0.00     0.052 C 
ATOM     19  C   UNL     1      13.937   7.276  23.369  1.00  0.00     0.027 C 
ATOM     20  C   UNL     1      14.765   6.357  20.805  1.00  0.00     0.108 C 
ATOM     21  C   UNL     1      13.090   7.301  22.323  1.00  0.00     0.025 C 
ATOM     22  C   UNL     1      13.551   7.925  24.650  1.00  0.00     0.162 C 
ATOM     23  N   UNL     1      13.503   6.824  21.096  1.00  0.00    -0.345 N 
ATOM     24  C   UNL     1      11.684   7.837  22.421  1.00  0.00     0.061 C 
ATOM     25  O   UNL     1      14.392   8.108  25.531  1.00  0.00    -0.294 OA
ATOM     26  C   UNL     1      12.140   8.453  24.814  1.00  0.00     0.087 C 
ATOM     27  C   UNL     1      11.123   7.807  23.859  1.00  0.00    -0.023 C 
ATOM     28  H   UNL     1      12.856   6.870  20.319  1.00  0.00     0.168 HD
ATOM     29  C   UNL     1       9.807   8.605  23.901  1.00  0.00     0.012 C 
ATOM     30  C   UNL     1      10.817   6.360  24.299  1.00  0.00     0.012 C 
BRANCH  18  31
ATOM     31  C   UNL     1      17.054   5.757  21.513  1.00  0.00     0.193 C 
ATOM     32  O   UNL     1      17.241   4.831  20.725  1.00  0.00    -0.289 OA
BRANCH  31  33
ATOM     33  C   UNL     1      18.218   6.328  22.224  1.00  0.00     0.022 A 
ATOM     34  C   UNL     1      18.517   7.692  22.151  1.00  0.00     0.012 A 
ATOM     35  C   UNL     1      19.043   5.463  22.953  1.00  0.00     0.012 A 
ATOM     36  C   UNL     1      19.620   8.195  22.842  1.00  0.00     0.001 A 
ATOM     37  C   UNL     1      20.145   5.970  23.641  1.00  0.00     0.001 A 
ATOM     38  C   UNL     1      20.429   7.335  23.588  1.00  0.00     0.000 A 
ENDBRANCH  31  33
ENDBRANCH  18  31
BRANCH  20  39
ATOM     39  N   UNL     1      15.017   5.961  19.528  1.00  0.00    -0.385 N 
ATOM     40  H   UNL     1      15.779   6.431  19.035  1.00  0.00     0.158 HD
ATOM     41  H   UNL     1      14.730   5.050  19.206  1.00  0.00     0.158 HD
ENDBRANCH  20  39
ENDBRANCH   4  17
TORSDOF 6
ENDMDL
MODEL 8
REMARK VINA RESULT:    -9.103      3.347      7.128
REMARK INTER + INTRA:         -14.085
REMARK INTER:                 -10.809
REMARK INTRA:                  -3.276
REMARK UNBOUND:                -2.055
REMARK SMILES Cc1ccc(S(=O)(=O)c2ccc([C@H]3C(C(=O)c4ccccc4)=C(N)NC4=C3C(=O)CC(C)(C)C4)cc2)cc1
REMARK SMILES IDX 9 1 10 2 11 3 12 4 35 5 36 6 6 7 7 8 8 9 5 10 2 11 3 12
REMARK SMILES IDX 38 13 4 14 37 15 1 16 13 17 14 18 27 19 23 20 26 21 28 22
REMARK SMILES IDX 25 23 34 24 29 25 30 26 31 27 32 29 33 30 15 31 16 32 17 33
REMARK SMILES IDX 18 34 22 35 19 36 21 37 20 38 24 39
REMARK H PARENT 25 28 24 40 24 41
ROOT
ATOM      1  C   UNL     1      10.359   7.332  24.798  1.00  0.00     0.072 A 
ATOM      2  C   UNL     1      10.430   6.632  23.591  1.00  0.00     0.021 A 
ATOM      3  C   UNL     1      11.518   5.793  23.349  1.00  0.00     0.006 A 
ATOM      4  C   UNL     1      12.539   5.647  24.306  1.00  0.00    -0.036 A 
ATOM      5  C   UNL     1      12.465   6.390  25.498  1.00  0.00     0.006 A 
ATOM      6  C   UNL     1      11.380   7.231  25.746  1.00  0.00     0.021 A 
ENDROOT
BRANCH   1   7
ATOM      7  S   UNL     1       8.955   8.361  25.149  1.00  0.00     0.206 S 
ATOM      8  O   UNL     1       9.295   9.222  26.267  1.00  0.00    -0.219 OA
ATOM      9  O   UNL     1       7.797   7.487  25.220  1.00  0.00    -0.219 OA
BRANCH   7  10
ATOM     10  C   UNL     1       8.761   9.413  23.728  1.00  0.00     0.072 A 
ATOM     11  C   UNL     1       8.425  11.063  21.499  1.00  0.00    -0.051 A 
ATOM     12  C   UNL     1       9.594  11.144  22.272  1.00  0.00     0.005 A 
ATOM     13  C   UNL     1       7.437  10.130  21.842  1.00  0.00     0.005 A 
ATOM     14  C   UNL     1       9.765  10.321  23.386  1.00  0.00     0.021 A 
ATOM     15  C   UNL     1       7.600   9.306  22.956  1.00  0.00     0.021 A 
ATOM     16  C   UNL     1       8.270  11.928  20.281  1.00  0.00     0.044 C 
ENDBRANCH   7  10
ENDBRANCH   1   7
BRANCH   4  17
ATOM     17  C   UNL     1      13.715   4.690  24.077  1.00  0.00     0.092 C 
ATOM     18  C   UNL     1      15.014   5.477  23.856  1.00  0.00     0.052 C 
ATOM     19  C   UNL     1      13.825   3.674  25.202  1.00  0.00     0.027 C 
ATOM     20  C   UNL     1      16.064   5.361  24.708  1.00  0.00     0.108 C 
ATOM     21  C   UNL     1      14.913   3.623  25.994  1.00  0.00     0.025 C 
ATOM     22  C   UNL     1      12.745   2.665  25.362  1.00  0.00     0.162 C 
ATOM     23  N   UNL     1      15.975   4.470  25.753  1.00  0.00    -0.345 N 
ATOM     24  C   UNL     1      15.037   2.666  27.152  1.00  0.00     0.061 C 
ATOM     25  O   UNL     1      11.863   2.559  24.509  1.00  0.00    -0.294 OA
ATOM     26  C   UNL     1      12.804   1.699  26.529  1.00  0.00     0.087 C 
ATOM     27  C   UNL     1      13.673   2.193  27.697  1.00  0.00    -0.023 C 
ATOM     28  H   UNL     1      16.790   4.401  26.349  1.00  0.00     0.168 HD
ATOM     29  C   UNL     1      13.900   1.035  28.686  1.00  0.00     0.012 C 
ATOM     30  C   UNL     1      12.958   3.332  28.453  1.00  0.00     0.012 C 
BRANCH  18  31
ATOM     31  C   UNL     1      15.074   6.470  22.735  1.00  0.00     0.193 C 
ATOM     32  O   UNL     1      15.572   6.200  21.643  1.00  0.00    -0.289 OA
BRANCH  31  33
ATOM     33  C   UNL     1      14.550   7.835  22.955  1.00  0.00     0.022 A 
ATOM     34  C   UNL     1      14.910   8.579  24.083  1.00  0.00     0.012 A 
ATOM     35  C   UNL     1      13.650   8.361  22.022  1.00  0.00     0.012 A 
ATOM     36  C   UNL     1      14.400   9.866  24.253  1.00  0.00     0.001 A 
ATOM     37  C   UNL     1      13.141   9.648  22.196  1.00  0.00     0.001 A 
ATOM     38  C   UNL     1      13.520  10.401  23.309  1.00  0.00     0.000 A 
ENDBRANCH  31  33
ENDBRANCH  18  31
BRANCH  20  39
ATOM     39  N   UNL     1      17.204   6.094  24.593  1.00  0.00    -0.385 N 
ATOM     40  H   UNL     1      17.687   6.345  25.459  1.00  0.00     0.158 HD
ATOM     41  H   UNL     1      17.733   6.093  23.735  1.00  0.00     0.158 HD
ENDBRANCH  20  39
ENDBRANCH   4  17
TORSDOF 6
ENDMDL
MODEL 9
REMARK VINA RESULT:    -8.735      3.760      7.151
REMARK INTER + INTRA:         -13.598
REMARK INTER:                 -11.023
REMARK INTRA:                  -2.576
REMARK UNBOUND:                -2.055
REMARK SMILES Cc1ccc(S(=O)(=O)c2ccc([C@H]3C(C(=O)c4ccccc4)=C(N)NC4=C3C(=O)CC(C)(C)C4)cc2)cc1
REMARK SMILES IDX 9 1 10 2 11 3 12 4 35 5 36 6 6 7 7 8 8 9 5 10 2 11 3 12
REMARK SMILES IDX 38 13 4 14 37 15 1 16 13 17 14 18 27 19 23 20 26 21 28 22
REMARK SMILES IDX 25 23 34 24 29 25 30 26 31 27 32 29 33 30 15 31 16 32 17 33
REMARK SMILES IDX 18 34 22 35 19 36 21 37 20 38 24 39
REMARK H PARENT 25 28 24 40 24 41
ROOT
ATOM      1  C   UNL     1      13.051   5.564  24.846  1.00  0.00     0.072 A 
ATOM      2  C   UNL     1      12.955   5.452  23.457  1.00  0.00     0.021 A 
ATOM      3  C   UNL     1      13.594   6.392  22.648  1.00  0.00     0.006 A 
ATOM      4  C   UNL     1      14.331   7.446  23.217  1.00  0.00    -0.036 A 
ATOM      5  C   UNL     1      14.384   7.560  24.618  1.00  0.00     0.006 A 
ATOM      6  C   UNL     1      13.746   6.624  25.432  1.00  0.00     0.021 A 
ENDROOT
BRANCH   1   7
ATOM      7  S   UNL     1      12.292   4.346  25.892  1.00  0.00     0.206 S 
ATOM      8  O   UNL     1      11.322   3.612  25.099  1.00  0.00    -0.219 OA
ATOM      9  O   UNL     1      11.884   5.026  27.107  1.00  0.00    -0.219 OA
BRANCH   7  10
ATOM     10  C   UNL     1      13.585   3.198  26.313  1.00  0.00     0.072 A 
ATOM     11  C   UNL     1      15.636   1.419  26.967  1.00  0.00    -0.051 A 
ATOM     12  C   UNL     1      14.369   1.288  27.556  1.00  0.00     0.005 A 
ATOM     13  C   UNL     1      15.856   2.436  26.029  1.00  0.00     0.005 A 
ATOM     14  C   UNL     1      13.341   2.175  27.232  1.00  0.00     0.021 A 
ATOM     15  C   UNL     1      14.835   3.329  25.702  1.00  0.00     0.021 A 
ATOM     16  C   UNL     1      16.721   0.435  27.296  1.00  0.00     0.044 C 
ENDBRANCH   7  10
ENDBRANCH   1   7
BRANCH   4  17
ATOM     17  C   UNL     1      15.082   8.457  22.342  1.00  0.00     0.092 C 
ATOM     18  C   UNL     1      16.432   7.883  21.894  1.00  0.00     0.052 C 
ATOM     19  C   UNL     1      14.223   8.923  21.178  1.00  0.00     0.027 C 
ATOM     20  C   UNL     1      16.712   7.678  20.582  1.00  0.00     0.108 C 
ATOM     21  C   UNL     1      14.585   8.686  19.903  1.00  0.00     0.025 C 
ATOM     22  C   UNL     1      13.010   9.734  21.465  1.00  0.00     0.162 C 
ATOM     23  N   UNL     1      15.783   8.056  19.639  1.00  0.00    -0.345 N 
ATOM     24  C   UNL     1      13.735   9.084  18.724  1.00  0.00     0.061 C 
ATOM     25  O   UNL     1      12.794  10.147  22.605  1.00  0.00    -0.294 OA
ATOM     26  C   UNL     1      12.102  10.135  20.319  1.00  0.00     0.087 C 
ATOM     27  C   UNL     1      12.240   9.238  19.078  1.00  0.00    -0.023 C 
ATOM     28  H   UNL     1      16.044   7.905  18.672  1.00  0.00     0.168 HD
ATOM     29  C   UNL     1      11.507   9.893  17.893  1.00  0.00     0.012 C 
ATOM     30  C   UNL     1      11.593   7.861  19.336  1.00  0.00     0.012 C 
BRANCH  18  31
ATOM     31  C   UNL     1      17.413   7.442  22.939  1.00  0.00     0.193 C 
ATOM     32  O   UNL     1      18.032   8.243  23.638  1.00  0.00    -0.289 OA
BRANCH  31  33
ATOM     33  C   UNL     1      17.673   5.998  23.116  1.00  0.00     0.022 A 
ATOM     34  C   UNL     1      16.794   5.033  22.613  1.00  0.00     0.012 A 
ATOM     35  C   UNL     1      18.810   5.610  23.833  1.00  0.00     0.012 A 
ATOM     36  C   UNL     1      17.078   3.680  22.794  1.00  0.00     0.001 A 
ATOM     37  C   UNL     1      19.089   4.255  24.013  1.00  0.00     0.001 A 
ATOM     38  C   UNL     1      18.225   3.292  23.490  1.00  0.00     0.000 A 
ENDBRANCH  31  33
ENDBRANCH  18  31
BRANCH  20  39
ATOM     39  N   UNL     1      17.864   7.102  20.143  1.00  0.00    -0.385 N 
ATOM     40  H   UNL     1      18.740   7.454  20.536  1.00  0.00     0.158 HD
ATOM     41  H   UNL     1      17.857   6.178  19.743  1.00  0.00     0.158 HD
ENDBRANCH  20  39
ENDBRANCH   4  17
TORSDOF 6
ENDMDL
