MODEL 8
REMARK VINA RESULT:    -7.191      2.803      4.812
REMARK INTER + INTRA:         -11.833
REMARK INTER:                  -9.702
REMARK INTRA:                  -2.131
REMARK UNBOUND:                -1.700
REMARK SMILES c1ccc(-n2cnnn2)c(Cc2nc3c(NCC[C@@H]4CCCCN4)nccc3o2)c1
REMARK SMILES IDX 16 1 15 3 12 4 13 5 29 6 14 7 28 8 27 9 25 10 26 11 11 12
REMARK SMILES IDX 10 13 1 14 2 15 30 16 3 17 4 18 5 19 6 20 9 21 7 22 8 23
REMARK SMILES IDX 17 24 18 25 19 26 20 27 24 28 21 29 23 30 22 31
REMARK H PARENT 16 2 24 32
ROOT
ATOM      1  N   UNL     1     133.323 -18.226 163.705  1.00  0.00    -0.368 N 
ATOM      2  H   UNL     1     134.116 -17.605 163.553  1.00  0.00     0.162 HD
ENDROOT
BRANCH   1   3
ATOM      3  C   UNL     1     132.512 -17.700 164.717  1.00  0.00     0.155 A 
ATOM      4  C   UNL     1     129.833 -15.724 163.571  1.00  0.00     0.200 A 
ATOM      5  N   UNL     1     130.885 -16.438 163.212  1.00  0.00    -0.209 NA
ATOM      6  O   UNL     1     129.613 -15.667 164.922  1.00  0.00    -0.440 OA
ATOM      7  C   UNL     1     131.394 -16.892 164.415  1.00  0.00     0.152 A 
ATOM      8  C   UNL     1     130.619 -16.416 165.457  1.00  0.00     0.160 A 
ATOM      9  C   UNL     1     130.847 -16.668 166.794  1.00  0.00     0.070 A 
ATOM     10  N   UNL     1     132.770 -17.960 166.032  1.00  0.00    -0.237 NA
ATOM     11  C   UNL     1     131.962 -17.462 167.004  1.00  0.00     0.117 A 
BRANCH   4  12
ATOM     12  C   UNL     1     128.878 -14.981 162.700  1.00  0.00     0.135 C 
BRANCH  12  13
ATOM     13  C   UNL     1     127.629 -15.787 162.378  1.00  0.00    -0.013 A 
ATOM     14  C   UNL     1     126.786 -17.739 161.151  1.00  0.00     0.000 A 
ATOM     15  C   UNL     1     125.487 -17.411 161.506  1.00  0.00     0.002 A 
ATOM     16  C   UNL     1     127.839 -16.935 161.578  1.00  0.00     0.006 A 
ATOM     17  C   UNL     1     125.243 -16.279 162.285  1.00  0.00     0.029 A 
ATOM     18  C   UNL     1     126.297 -15.452 162.734  1.00  0.00     0.072 A 
BRANCH  18  19
ATOM     19  N   UNL     1     125.957 -14.321 163.534  1.00  0.00    -0.200 N 
ATOM     20  C   UNL     1     125.881 -12.993 163.171  1.00  0.00     0.252 A 
ATOM     21  N   UNL     1     125.605 -14.393 164.834  1.00  0.00    -0.040 NA
ATOM     22  N   UNL     1     125.501 -12.272 164.200  1.00  0.00    -0.117 NA
ATOM     23  N   UNL     1     125.335 -13.158 165.226  1.00  0.00    -0.024 NA
ENDBRANCH  18  19
ENDBRANCH  12  13
ENDBRANCH   4  12
ENDBRANCH   1   3
BRANCH   1  24
ATOM     24  C   UNL     1     133.655 -19.635 163.855  1.00  0.00     0.116 C 
BRANCH  24  25
ATOM     25  C   UNL     1     132.855 -20.479 162.859  1.00  0.00     0.040 C 
BRANCH  25  26
ATOM     26  C   UNL     1     131.635 -21.213 163.453  1.00  0.00     0.055 C 
ATOM     27  C   UNL     1     130.366 -21.126 162.579  1.00  0.00     0.019 C 
ATOM     28  N   UNL     1     131.435 -20.661 164.811  1.00  0.00    -0.314 NA
ATOM     29  C   UNL     1     129.585 -19.842 162.836  1.00  0.00     0.003 C 
ATOM     30  C   UNL     1     130.037 -20.632 165.219  1.00  0.00     0.081 C 
ATOM     31  C   UNL     1     129.235 -19.692 164.318  1.00  0.00     0.015 C 
ATOM     32  H   UNL     1     131.982 -21.207 165.476  1.00  0.00     0.122 HD
ENDBRANCH  25  26
ENDBRANCH  24  25
ENDBRANCH   1  24
TORSDOF 7
ENDMDL
