MODEL 3
REMARK VINA RESULT:    -8.529      2.953      6.628
REMARK INTER + INTRA:         -13.354
REMARK INTER:                 -12.444
REMARK INTRA:                  -0.909
REMARK UNBOUND:                -1.334
REMARK SMILES COc1ccccc1C(=O)n1nc(-c2ccccn2)nc1NCc1cccs1
REMARK SMILES IDX 11 1 12 2 13 3 20 4 21 5 9 6 10 7 8 8 3 9 4 10 5 11 7 12
REMARK SMILES IDX 6 13 2 14 1 15 22 16 23 18 24 19 25 20 28 21 26 22 27 23
REMARK SMILES IDX 14 24 15 25 19 26 16 27 18 28 17 29
REMARK H PARENT 22 17
ROOT
ATOM      1  N   UNL     1     128.226 -14.307 161.997  1.00  0.00    -0.160 N 
ATOM      2  N   UNL     1     127.938 -13.437 163.009  1.00  0.00    -0.139 NA
ATOM      3  C   UNL     1     126.677 -13.754 163.332  1.00  0.00     0.202 A 
ATOM      4  N   UNL     1     126.144 -14.756 162.556  1.00  0.00    -0.189 NA
ATOM      5  C   UNL     1     127.096 -15.072 161.712  1.00  0.00     0.229 A 
ENDROOT
BRANCH   1   6
ATOM      6  C   UNL     1     129.536 -14.367 161.482  1.00  0.00     0.285 C 
ATOM      7  O   UNL     1     129.744 -13.963 160.335  1.00  0.00    -0.266 OA
BRANCH   6   8
ATOM      8  C   UNL     1     130.715 -14.848 162.218  1.00  0.00     0.084 A 
ATOM      9  C   UNL     1     130.602 -15.845 163.188  1.00  0.00     0.131 A 
ATOM     10  C   UNL     1     131.736 -16.297 163.862  1.00  0.00     0.047 A 
ATOM     11  C   UNL     1     132.991 -15.787 163.526  1.00  0.00     0.004 A 
ATOM     12  C   UNL     1     131.975 -14.353 161.863  1.00  0.00     0.018 A 
ATOM     13  C   UNL     1     133.111 -14.821 162.523  1.00  0.00     0.001 A 
BRANCH   9  14
ATOM     14  O   UNL     1     129.365 -16.310 163.554  1.00  0.00    -0.496 OA
ATOM     15  C   UNL     1     129.471 -17.640 164.075  1.00  0.00     0.278 C 
ENDBRANCH   9  14
ENDBRANCH   6   8
ENDBRANCH   1   6
BRANCH   5  16
ATOM     16  N   UNL     1     127.022 -15.999 160.719  1.00  0.00    -0.349 N 
ATOM     17  H   UNL     1     126.171 -15.957 160.159  1.00  0.00     0.164 HD
BRANCH  16  18
ATOM     18  C   UNL     1     127.336 -17.387 161.070  1.00  0.00     0.163 C 
BRANCH  18  19
ATOM     19  C   UNL     1     126.152 -18.208 161.506  1.00  0.00     0.024 A 
ATOM     20  C   UNL     1     125.179 -18.806 160.727  1.00  0.00     0.017 A 
ATOM     21  S   UNL     1     125.865 -18.474 163.175  1.00  0.00    -0.147 S 
ATOM     22  C   UNL     1     124.206 -19.496 161.503  1.00  0.00     0.012 A 
ATOM     23  C   UNL     1     124.461 -19.396 162.853  1.00  0.00     0.065 A 
ENDBRANCH  18  19
ENDBRANCH  16  18
ENDBRANCH   5  16
BRANCH   3  24
ATOM     24  C   UNL     1     125.918 -13.094 164.406  1.00  0.00     0.109 A 
ATOM     25  C   UNL     1     124.876 -13.759 165.053  1.00  0.00     0.032 A 
ATOM     26  N   UNL     1     126.280 -11.824 164.733  1.00  0.00    -0.253 NA
ATOM     27  C   UNL     1     124.180 -13.102 166.066  1.00  0.00     0.004 A 
ATOM     28  C   UNL     1     125.586 -11.214 165.718  1.00  0.00     0.112 A 
ATOM     29  C   UNL     1     124.540 -11.804 166.406  1.00  0.00     0.020 A 
ENDBRANCH   3  24
TORSDOF 7
ENDMDL
