MODEL 1
REMARK VINA RESULT:   -10.270      0.000      0.000
REMARK INTER + INTRA:         -15.167
REMARK INTER:                 -13.872
REMARK INTRA:                  -1.295
REMARK UNBOUND:                -1.295
REMARK SMILES COc1ncc(-c2ccc3nccc(-c4ccnnc4)c3c2)cc1NS(=O)(=O)c1ccc(F)cc1F
REMARK SMILES IDX 25 1 24 3 3 4 4 5 5 6 23 7 6 8 2 9 1 10 7 11 8 12 22 13 9 14
REMARK SMILES IDX 21 15 10 16 14 17 11 18 13 19 12 20 15 21 16 22 20 23 17 24
REMARK SMILES IDX 19 25 18 26 26 27 27 28 28 29 29 30 30 31 35 32 31 33 34 34
REMARK SMILES IDX 32 35 36 36 33 37
REMARK H PARENT 25 2
ROOT
ATOM      1  N   UNL     1     -18.880  10.798  26.561  1.00  0.00    -0.274 N 
ATOM      2  H   UNL     1     -19.212  10.638  25.605  1.00  0.00     0.180 HD
ENDROOT
BRANCH   1   3
ATOM      3  C   UNL     1     -19.886  11.308  27.449  1.00  0.00     0.112 A 
ATOM      4  C   UNL     1     -21.176  10.771  27.462  1.00  0.00     0.238 A 
ATOM      5  N   UNL     1     -22.145  11.170  28.312  1.00  0.00    -0.220 NA
ATOM      6  C   UNL     1     -21.815  12.155  29.182  1.00  0.00     0.124 A 
ATOM      7  C   UNL     1     -19.586  12.320  28.360  1.00  0.00     0.042 A 
ATOM      8  C   UNL     1     -20.562  12.771  29.260  1.00  0.00     0.002 A 
BRANCH   4   9
ATOM      9  O   UNL     1     -21.440   9.769  26.544  1.00  0.00    -0.480 OA
ATOM     10  C   UNL     1     -22.615  10.010  25.775  1.00  0.00     0.280 C 
ENDBRANCH   4   9
BRANCH   8  11
ATOM     11  C   UNL     1     -20.281  13.836  30.234  1.00  0.00    -0.016 A 
ATOM     12  C   UNL     1     -21.286  14.343  31.061  1.00  0.00     0.011 A 
ATOM     13  C   UNL     1     -18.995  14.382  30.366  1.00  0.00     0.019 A 
ATOM     14  C   UNL     1     -21.007  15.354  31.987  1.00  0.00     0.029 A 
ATOM     15  C   UNL     1     -18.699  15.410  31.302  1.00  0.00     0.009 A 
ATOM     16  C   UNL     1     -19.738  15.895  32.124  1.00  0.00     0.071 A 
ATOM     17  C   UNL     1     -17.412  15.993  31.464  1.00  0.00    -0.006 A 
ATOM     18  N   UNL     1     -19.557  16.863  33.036  1.00  0.00    -0.256 NA
ATOM     19  C   UNL     1     -17.241  17.002  32.417  1.00  0.00     0.029 A 
ATOM     20  C   UNL     1     -18.329  17.396  33.168  1.00  0.00     0.112 A 
BRANCH  17  21
ATOM     21  C   UNL     1     -16.253  15.574  30.668  1.00  0.00     0.004 A 
ATOM     22  C   UNL     1     -15.708  14.298  30.793  1.00  0.00     0.032 A 
ATOM     23  C   UNL     1     -15.649  16.431  29.757  1.00  0.00     0.144 A 
ATOM     24  C   UNL     1     -14.612  13.971  30.019  1.00  0.00     0.136 A 
ATOM     25  N   UNL     1     -14.575  16.082  29.017  1.00  0.00    -0.159 NA
ATOM     26  N   UNL     1     -14.050  14.836  29.152  1.00  0.00    -0.159 NA
ENDBRANCH  17  21
ENDBRANCH   8  11
ENDBRANCH   1   3
BRANCH   1  27
ATOM     27  S   UNL     1     -17.982   9.460  27.088  1.00  0.00     0.264 S 
ATOM     28  O   UNL     1     -17.796   9.599  28.515  1.00  0.00    -0.201 OA
ATOM     29  O   UNL     1     -18.577   8.260  26.536  1.00  0.00    -0.201 OA
BRANCH  27  30
ATOM     30  C   UNL     1     -16.408   9.674  26.319  1.00  0.00     0.123 A 
ATOM     31  C   UNL     1     -15.890   8.689  25.469  1.00  0.00     0.028 A 
ATOM     32  C   UNL     1     -15.680  10.828  26.586  1.00  0.00     0.146 A 
ATOM     33  C   UNL     1     -14.637   8.883  24.884  1.00  0.00     0.041 A 
ATOM     34  C   UNL     1     -14.433  11.024  26.005  1.00  0.00     0.080 A 
ATOM     35  C   UNL     1     -13.923  10.047  25.158  1.00  0.00     0.126 A 
ATOM     36  F   UNL     1     -16.179  11.791  27.374  1.00  0.00    -0.205 F 
ATOM     37  F   UNL     1     -12.722  10.228  24.594  1.00  0.00    -0.207 F 
ENDBRANCH  27  30
ENDBRANCH   1  27
TORSDOF 6
ENDMDL
MODEL 2
REMARK VINA RESULT:    -9.976      3.575      7.334
REMARK INTER + INTRA:         -14.770
REMARK INTER:                 -13.468
REMARK INTRA:                  -1.302
REMARK UNBOUND:                -1.295
REMARK SMILES COc1ncc(-c2ccc3nccc(-c4ccnnc4)c3c2)cc1NS(=O)(=O)c1ccc(F)cc1F
REMARK SMILES IDX 25 1 24 3 3 4 4 5 5 6 23 7 6 8 2 9 1 10 7 11 8 12 22 13 9 14
REMARK SMILES IDX 21 15 10 16 14 17 11 18 13 19 12 20 15 21 16 22 20 23 17 24
REMARK SMILES IDX 19 25 18 26 26 27 27 28 28 29 29 30 30 31 35 32 31 33 34 34
REMARK SMILES IDX 32 35 36 36 33 37
REMARK H PARENT 25 2
ROOT
ATOM      1  N   UNL     1     -21.058  14.179  32.065  1.00  0.00    -0.274 N 
ATOM      2  H   UNL     1     -21.611  13.892  32.879  1.00  0.00     0.180 HD
ENDROOT
BRANCH   1   3
ATOM      3  C   UNL     1     -21.170  13.291  30.942  1.00  0.00     0.112 A 
ATOM      4  C   UNL     1     -22.418  12.838  30.503  1.00  0.00     0.238 A 
ATOM      5  N   UNL     1     -22.590  12.050  29.422  1.00  0.00    -0.220 NA
ATOM      6  C   UNL     1     -21.467  11.689  28.754  1.00  0.00     0.124 A 
ATOM      7  C   UNL     1     -20.040  12.897  30.228  1.00  0.00     0.042 A 
ATOM      8  C   UNL     1     -20.169  12.074  29.100  1.00  0.00     0.002 A 
BRANCH   4   9
ATOM      9  O   UNL     1     -23.519  13.247  31.236  1.00  0.00    -0.480 OA
ATOM     10  C   UNL     1     -24.195  12.170  31.878  1.00  0.00     0.280 C 
ENDBRANCH   4   9
BRANCH   8  11
ATOM     11  C   UNL     1     -18.998  11.639  28.324  1.00  0.00    -0.016 A 
ATOM     12  C   UNL     1     -19.039  10.485  27.538  1.00  0.00     0.011 A 
ATOM     13  C   UNL     1     -17.798  12.367  28.347  1.00  0.00     0.019 A 
ATOM     14  C   UNL     1     -17.921  10.083  26.801  1.00  0.00     0.029 A 
ATOM     15  C   UNL     1     -16.654  11.967  27.603  1.00  0.00     0.009 A 
ATOM     16  C   UNL     1     -16.734  10.798  26.817  1.00  0.00     0.071 A 
ATOM     17  C   UNL     1     -15.420  12.672  27.600  1.00  0.00    -0.006 A 
ATOM     18  N   UNL     1     -15.709  10.341  26.081  1.00  0.00    -0.256 NA
ATOM     19  C   UNL     1     -14.360  12.181  26.830  1.00  0.00     0.029 A 
ATOM     20  C   UNL     1     -14.552  11.029  26.098  1.00  0.00     0.112 A 
BRANCH  17  21
ATOM     21  C   UNL     1     -15.214  13.899  28.378  1.00  0.00     0.004 A 
ATOM     22  C   UNL     1     -14.681  15.048  27.795  1.00  0.00     0.032 A 
ATOM     23  C   UNL     1     -15.538  13.970  29.726  1.00  0.00     0.144 A 
ATOM     24  C   UNL     1     -14.506  16.167  28.585  1.00  0.00     0.136 A 
ATOM     25  N   UNL     1     -15.351  15.079  30.473  1.00  0.00    -0.159 NA
ATOM     26  N   UNL     1     -14.826  16.191  29.894  1.00  0.00    -0.159 NA
ENDBRANCH  17  21
ENDBRANCH   8  11
ENDBRANCH   1   3
BRANCH   1  27
ATOM     27  S   UNL     1     -21.283  15.834  31.772  1.00  0.00     0.264 S 
ATOM     28  O   UNL     1     -21.131  16.047  30.351  1.00  0.00    -0.201 OA
ATOM     29  O   UNL     1     -22.484  16.263  32.458  1.00  0.00    -0.201 OA
BRANCH  27  30
ATOM     30  C   UNL     1     -19.911  16.598  32.578  1.00  0.00     0.123 A 
ATOM     31  C   UNL     1     -20.095  17.339  33.752  1.00  0.00     0.028 A 
ATOM     32  C   UNL     1     -18.644  16.469  32.018  1.00  0.00     0.146 A 
ATOM     33  C   UNL     1     -18.991  17.940  34.359  1.00  0.00     0.041 A 
ATOM     34  C   UNL     1     -17.543  17.067  32.620  1.00  0.00     0.080 A 
ATOM     35  C   UNL     1     -17.728  17.797  33.788  1.00  0.00     0.126 A 
ATOM     36  F   UNL     1     -18.452  15.738  30.911  1.00  0.00    -0.205 F 
ATOM     37  F   UNL     1     -16.673  18.376  34.375  1.00  0.00    -0.207 F 
ENDBRANCH  27  30
ENDBRANCH   1  27
TORSDOF 6
ENDMDL
MODEL 3
REMARK VINA RESULT:    -9.800      3.000      5.821
REMARK INTER + INTRA:         -14.532
REMARK INTER:                 -13.571
REMARK INTRA:                  -0.961
REMARK UNBOUND:                -1.295
REMARK SMILES COc1ncc(-c2ccc3nccc(-c4ccnnc4)c3c2)cc1NS(=O)(=O)c1ccc(F)cc1F
REMARK SMILES IDX 25 1 24 3 3 4 4 5 5 6 23 7 6 8 2 9 1 10 7 11 8 12 22 13 9 14
REMARK SMILES IDX 21 15 10 16 14 17 11 18 13 19 12 20 15 21 16 22 20 23 17 24
REMARK SMILES IDX 19 25 18 26 26 27 27 28 28 29 29 30 30 31 35 32 31 33 34 34
REMARK SMILES IDX 32 35 36 36 33 37
REMARK H PARENT 25 2
ROOT
ATOM      1  N   UNL     1     -22.136  11.897  29.910  1.00  0.00    -0.274 N 
ATOM      2  H   UNL     1     -21.577  11.072  29.671  1.00  0.00     0.180 HD
ENDROOT
BRANCH   1   3
ATOM      3  C   UNL     1     -21.383  12.952  30.528  1.00  0.00     0.112 A 
ATOM      4  C   UNL     1     -21.907  13.679  31.600  1.00  0.00     0.238 A 
ATOM      5  N   UNL     1     -21.226  14.641  32.257  1.00  0.00    -0.220 NA
ATOM      6  C   UNL     1     -19.969  14.895  31.818  1.00  0.00     0.124 A 
ATOM      7  C   UNL     1     -20.086  13.243  30.108  1.00  0.00     0.042 A 
ATOM      8  C   UNL     1     -19.341  14.238  30.757  1.00  0.00     0.002 A 
BRANCH   4   9
ATOM      9  O   UNL     1     -23.197  13.365  31.990  1.00  0.00    -0.480 OA
ATOM     10  C   UNL     1     -23.614  14.064  33.159  1.00  0.00     0.280 C 
ENDBRANCH   4   9
BRANCH   8  11
ATOM     11  C   UNL     1     -17.971  14.572  30.340  1.00  0.00    -0.016 A 
ATOM     12  C   UNL     1     -17.308  15.686  30.859  1.00  0.00     0.011 A 
ATOM     13  C   UNL     1     -17.282  13.785  29.404  1.00  0.00     0.019 A 
ATOM     14  C   UNL     1     -16.004  15.992  30.459  1.00  0.00     0.029 A 
ATOM     15  C   UNL     1     -15.957  14.086  28.988  1.00  0.00     0.009 A 
ATOM     16  C   UNL     1     -15.316  15.217  29.537  1.00  0.00     0.071 A 
ATOM     17  C   UNL     1     -15.225  13.319  28.041  1.00  0.00    -0.006 A 
ATOM     18  N   UNL     1     -14.068  15.583  29.208  1.00  0.00    -0.256 NA
ATOM     19  C   UNL     1     -13.926  13.715  27.705  1.00  0.00     0.029 A 
ATOM     20  C   UNL     1     -13.399  14.838  28.308  1.00  0.00     0.112 A 
BRANCH  17  21
ATOM     21  C   UNL     1     -15.783  12.123  27.399  1.00  0.00     0.004 A 
ATOM     22  C   UNL     1     -16.986  11.563  27.825  1.00  0.00     0.032 A 
ATOM     23  C   UNL     1     -15.136  11.496  26.341  1.00  0.00     0.144 A 
ATOM     24  C   UNL     1     -17.451  10.433  27.183  1.00  0.00     0.136 A 
ATOM     25  N   UNL     1     -15.616  10.389  25.736  1.00  0.00    -0.159 NA
ATOM     26  N   UNL     1     -16.787   9.850  26.165  1.00  0.00    -0.159 NA
ENDBRANCH  17  21
ENDBRANCH   8  11
ENDBRANCH   1   3
BRANCH   1  27
ATOM     27  S   UNL     1     -23.132  12.314  28.604  1.00  0.00     0.264 S 
ATOM     28  O   UNL     1     -24.469  11.860  28.915  1.00  0.00    -0.201 OA
ATOM     29  O   UNL     1     -22.886  13.701  28.263  1.00  0.00    -0.201 OA
BRANCH  27  30
ATOM     30  C   UNL     1     -22.526  11.325  27.274  1.00  0.00     0.123 A 
ATOM     31  C   UNL     1     -23.266  10.235  26.800  1.00  0.00     0.028 A 
ATOM     32  C   UNL     1     -21.289  11.633  26.716  1.00  0.00     0.146 A 
ATOM     33  C   UNL     1     -22.754   9.467  25.753  1.00  0.00     0.041 A 
ATOM     34  C   UNL     1     -20.777  10.869  25.674  1.00  0.00     0.080 A 
ATOM     35  C   UNL     1     -21.516   9.791  25.202  1.00  0.00     0.126 A 
ATOM     36  F   UNL     1     -20.586  12.692  27.142  1.00  0.00    -0.205 F 
ATOM     37  F   UNL     1     -21.030   9.050  24.199  1.00  0.00    -0.207 F 
ENDBRANCH  27  30
ENDBRANCH   1  27
TORSDOF 6
ENDMDL
MODEL 4
REMARK VINA RESULT:    -9.521      2.523      4.719
REMARK INTER + INTRA:         -14.156
REMARK INTER:                 -13.172
REMARK INTRA:                  -0.984
REMARK UNBOUND:                -1.295
REMARK SMILES COc1ncc(-c2ccc3nccc(-c4ccnnc4)c3c2)cc1NS(=O)(=O)c1ccc(F)cc1F
REMARK SMILES IDX 25 1 24 3 3 4 4 5 5 6 23 7 6 8 2 9 1 10 7 11 8 12 22 13 9 14
REMARK SMILES IDX 21 15 10 16 14 17 11 18 13 19 12 20 15 21 16 22 20 23 17 24
REMARK SMILES IDX 19 25 18 26 26 27 27 28 28 29 29 30 30 31 35 32 31 33 34 34
REMARK SMILES IDX 32 35 36 36 33 37
REMARK H PARENT 25 2
ROOT
ATOM      1  N   UNL     1     -16.265  12.439  27.495  1.00  0.00    -0.274 N 
ATOM      2  H   UNL     1     -16.502  12.922  26.623  1.00  0.00     0.180 HD
ENDROOT
BRANCH   1   3
ATOM      3  C   UNL     1     -16.345  13.273  28.661  1.00  0.00     0.112 A 
ATOM      4  C   UNL     1     -15.199  13.859  29.208  1.00  0.00     0.238 A 
ATOM      5  N   UNL     1     -15.218  14.696  30.265  1.00  0.00    -0.220 NA
ATOM      6  C   UNL     1     -16.433  14.953  30.809  1.00  0.00     0.124 A 
ATOM      7  C   UNL     1     -17.575  13.563  29.249  1.00  0.00     0.042 A 
ATOM      8  C   UNL     1     -17.644  14.424  30.354  1.00  0.00     0.002 A 
BRANCH   4   9
ATOM      9  O   UNL     1     -13.995  13.549  28.600  1.00  0.00    -0.480 OA
ATOM     10  C   UNL     1     -13.420  14.650  27.902  1.00  0.00     0.280 C 
ENDBRANCH   4   9
BRANCH   8  11
ATOM     11  C   UNL     1     -18.924  14.751  30.999  1.00  0.00    -0.016 A 
ATOM     12  C   UNL     1     -20.113  14.133  30.602  1.00  0.00     0.011 A 
ATOM     13  C   UNL     1     -18.998  15.696  32.034  1.00  0.00     0.019 A 
ATOM     14  C   UNL     1     -21.324  14.449  31.224  1.00  0.00     0.029 A 
ATOM     15  C   UNL     1     -20.224  16.026  32.673  1.00  0.00     0.009 A 
ATOM     16  C   UNL     1     -21.404  15.379  32.249  1.00  0.00     0.071 A 
ATOM     17  C   UNL     1     -20.343  16.979  33.722  1.00  0.00    -0.006 A 
ATOM     18  N   UNL     1     -22.607  15.624  32.791  1.00  0.00    -0.256 NA
ATOM     19  C   UNL     1     -21.605  17.225  34.274  1.00  0.00     0.029 A 
ATOM     20  C   UNL     1     -22.691  16.531  33.781  1.00  0.00     0.112 A 
BRANCH  17  21
ATOM     21  C   UNL     1     -19.191  17.717  34.249  1.00  0.00     0.004 A 
ATOM     22  C   UNL     1     -18.700  17.479  35.532  1.00  0.00     0.032 A 
ATOM     23  C   UNL     1     -18.539  18.684  33.494  1.00  0.00     0.144 A 
ATOM     24  C   UNL     1     -17.615  18.215  35.969  1.00  0.00     0.136 A 
ATOM     25  N   UNL     1     -17.482  19.389  33.953  1.00  0.00    -0.159 NA
ATOM     26  N   UNL     1     -17.017  19.151  35.207  1.00  0.00    -0.159 NA
ENDBRANCH  17  21
ENDBRANCH   8  11
ENDBRANCH   1   3
BRANCH   1  27
ATOM     27  S   UNL     1     -17.055  10.940  27.556  1.00  0.00     0.264 S 
ATOM     28  O   UNL     1     -16.868  10.405  28.886  1.00  0.00    -0.201 OA
ATOM     29  O   UNL     1     -18.385  11.099  27.005  1.00  0.00    -0.201 OA
BRANCH  27  30
ATOM     30  C   UNL     1     -16.135   9.930  26.438  1.00  0.00     0.123 A 
ATOM     31  C   UNL     1     -14.980  10.422  25.817  1.00  0.00     0.028 A 
ATOM     32  C   UNL     1     -16.587   8.643  26.167  1.00  0.00     0.146 A 
ATOM     33  C   UNL     1     -14.281   9.602  24.929  1.00  0.00     0.041 A 
ATOM     34  C   UNL     1     -15.893   7.825  25.283  1.00  0.00     0.080 A 
ATOM     35  C   UNL     1     -14.744   8.313  24.672  1.00  0.00     0.126 A 
ATOM     36  F   UNL     1     -17.674   8.152  26.777  1.00  0.00    -0.205 F 
ATOM     37  F   UNL     1     -14.069   7.531  23.820  1.00  0.00    -0.207 F 
ENDBRANCH  27  30
ENDBRANCH   1  27
TORSDOF 6
ENDMDL
MODEL 5
REMARK VINA RESULT:    -9.421      3.305      5.374
REMARK INTER + INTRA:         -14.020
REMARK INTER:                 -13.229
REMARK INTRA:                  -0.791
REMARK UNBOUND:                -1.295
REMARK SMILES COc1ncc(-c2ccc3nccc(-c4ccnnc4)c3c2)cc1NS(=O)(=O)c1ccc(F)cc1F
REMARK SMILES IDX 25 1 24 3 3 4 4 5 5 6 23 7 6 8 2 9 1 10 7 11 8 12 22 13 9 14
REMARK SMILES IDX 21 15 10 16 14 17 11 18 13 19 12 20 15 21 16 22 20 23 17 24
REMARK SMILES IDX 19 25 18 26 26 27 27 28 28 29 29 30 30 31 35 32 31 33 34 34
REMARK SMILES IDX 32 35 36 36 33 37
REMARK H PARENT 25 2
ROOT
ATOM      1  N   UNL     1     -22.132  11.435  25.547  1.00  0.00    -0.274 N 
ATOM      2  H   UNL     1     -22.972  11.645  24.998  1.00  0.00     0.180 HD
ENDROOT
BRANCH   1   3
ATOM      3  C   UNL     1     -21.998  12.233  26.734  1.00  0.00     0.112 A 
ATOM      4  C   UNL     1     -23.123  12.672  27.437  1.00  0.00     0.238 A 
ATOM      5  N   UNL     1     -23.060  13.374  28.588  1.00  0.00    -0.220 NA
ATOM      6  C   UNL     1     -21.819  13.660  29.052  1.00  0.00     0.124 A 
ATOM      7  C   UNL     1     -20.740  12.547  27.245  1.00  0.00     0.042 A 
ATOM      8  C   UNL     1     -20.624  13.279  28.435  1.00  0.00     0.002 A 
BRANCH   4   9
ATOM      9  O   UNL     1     -24.357  12.344  26.901  1.00  0.00    -0.480 OA
ATOM     10  C   UNL     1     -25.036  13.461  26.336  1.00  0.00     0.280 C 
ENDBRANCH   4   9
BRANCH   8  11
ATOM     11  C   UNL     1     -19.314  13.628  29.002  1.00  0.00    -0.016 A 
ATOM     12  C   UNL     1     -19.204  14.502  30.086  1.00  0.00     0.011 A 
ATOM     13  C   UNL     1     -18.126  13.098  28.474  1.00  0.00     0.019 A 
ATOM     14  C   UNL     1     -17.953  14.825  30.620  1.00  0.00     0.029 A 
ATOM     15  C   UNL     1     -16.848  13.419  29.007  1.00  0.00     0.009 A 
ATOM     16  C   UNL     1     -16.776  14.302  30.105  1.00  0.00     0.071 A 
ATOM     17  C   UNL     1     -15.623  12.907  28.500  1.00  0.00    -0.006 A 
ATOM     18  N   UNL     1     -15.618  14.664  30.677  1.00  0.00    -0.256 NA
ATOM     19  C   UNL     1     -14.423  13.297  29.105  1.00  0.00     0.029 A 
ATOM     20  C   UNL     1     -14.473  14.165  30.176  1.00  0.00     0.112 A 
BRANCH  17  21
ATOM     21  C   UNL     1     -15.567  11.982  27.362  1.00  0.00     0.004 A 
ATOM     22  C   UNL     1     -16.576  11.048  27.135  1.00  0.00     0.032 A 
ATOM     23  C   UNL     1     -14.508  11.997  26.464  1.00  0.00     0.144 A 
ATOM     24  C   UNL     1     -16.458  10.202  26.049  1.00  0.00     0.136 A 
ATOM     25  N   UNL     1     -14.420  11.153  25.414  1.00  0.00    -0.159 NA
ATOM     26  N   UNL     1     -15.408  10.243  25.206  1.00  0.00    -0.159 NA
ENDBRANCH  17  21
ENDBRANCH   8  11
ENDBRANCH   1   3
BRANCH   1  27
ATOM     27  S   UNL     1     -21.958   9.758  25.714  1.00  0.00     0.264 S 
ATOM     28  O   UNL     1     -20.622   9.507  26.208  1.00  0.00    -0.201 OA
ATOM     29  O   UNL     1     -23.114   9.244  26.421  1.00  0.00    -0.201 OA
BRANCH  27  30
ATOM     30  C   UNL     1     -22.039   9.155  24.057  1.00  0.00     0.123 A 
ATOM     31  C   UNL     1     -22.121  10.043  22.978  1.00  0.00     0.028 A 
ATOM     32  C   UNL     1     -22.040   7.781  23.841  1.00  0.00     0.146 A 
ATOM     33  C   UNL     1     -22.194   9.534  21.680  1.00  0.00     0.041 A 
ATOM     34  C   UNL     1     -22.114   7.271  22.550  1.00  0.00     0.080 A 
ATOM     35  C   UNL     1     -22.190   8.155  21.480  1.00  0.00     0.126 A 
ATOM     36  F   UNL     1     -21.932   6.922  24.864  1.00  0.00    -0.205 F 
ATOM     37  F   UNL     1     -22.260   7.673  20.233  1.00  0.00    -0.207 F 
ENDBRANCH  27  30
ENDBRANCH   1  27
TORSDOF 6
ENDMDL
MODEL 6
REMARK VINA RESULT:    -9.362      2.390      5.696
REMARK INTER + INTRA:         -13.941
REMARK INTER:                 -13.344
REMARK INTRA:                  -0.597
REMARK UNBOUND:                -1.295
REMARK SMILES COc1ncc(-c2ccc3nccc(-c4ccnnc4)c3c2)cc1NS(=O)(=O)c1ccc(F)cc1F
REMARK SMILES IDX 25 1 24 3 3 4 4 5 5 6 23 7 6 8 2 9 1 10 7 11 8 12 22 13 9 14
REMARK SMILES IDX 21 15 10 16 14 17 11 18 13 19 12 20 15 21 16 22 20 23 17 24
REMARK SMILES IDX 19 25 18 26 26 27 27 28 28 29 29 30 30 31 35 32 31 33 34 34
REMARK SMILES IDX 32 35 36 36 33 37
REMARK H PARENT 25 2
ROOT
ATOM      1  N   UNL     1     -17.018   9.723  26.191  1.00  0.00    -0.274 N 
ATOM      2  H   UNL     1     -17.381   9.822  25.238  1.00  0.00     0.180 HD
ENDROOT
BRANCH   1   3
ATOM      3  C   UNL     1     -16.152  10.793  26.598  1.00  0.00     0.112 A 
ATOM      4  C   UNL     1     -14.901  10.975  26.001  1.00  0.00     0.238 A 
ATOM      5  N   UNL     1     -14.069  11.994  26.299  1.00  0.00    -0.220 NA
ATOM      6  C   UNL     1     -14.499  12.866  27.244  1.00  0.00     0.124 A 
ATOM      7  C   UNL     1     -16.557  11.712  27.564  1.00  0.00     0.042 A 
ATOM      8  C   UNL     1     -15.724  12.785  27.912  1.00  0.00     0.002 A 
BRANCH   4   9
ATOM      9  O   UNL     1     -14.529  10.043  25.046  1.00  0.00    -0.480 OA
ATOM     10  C   UNL     1     -13.119   9.859  24.964  1.00  0.00     0.280 C 
ENDBRANCH   4   9
BRANCH   8  11
ATOM     11  C   UNL     1     -16.120  13.772  28.926  1.00  0.00    -0.016 A 
ATOM     12  C   UNL     1     -15.179  14.621  29.516  1.00  0.00     0.011 A 
ATOM     13  C   UNL     1     -17.455  13.897  29.341  1.00  0.00     0.019 A 
ATOM     14  C   UNL     1     -15.567  15.559  30.477  1.00  0.00     0.029 A 
ATOM     15  C   UNL     1     -17.861  14.846  30.318  1.00  0.00     0.009 A 
ATOM     16  C   UNL     1     -16.885  15.689  30.889  1.00  0.00     0.071 A 
ATOM     17  C   UNL     1     -19.201  15.001  30.768  1.00  0.00    -0.006 A 
ATOM     18  N   UNL     1     -17.170  16.614  31.817  1.00  0.00    -0.256 NA
ATOM     19  C   UNL     1     -19.482  15.968  31.740  1.00  0.00     0.029 A 
ATOM     20  C   UNL     1     -18.447  16.740  32.225  1.00  0.00     0.112 A 
BRANCH  17  21
ATOM     21  C   UNL     1     -20.304  14.183  30.252  1.00  0.00     0.004 A 
ATOM     22  C   UNL     1     -20.952  14.505  29.061  1.00  0.00     0.032 A 
ATOM     23  C   UNL     1     -20.751  13.054  30.927  1.00  0.00     0.144 A 
ATOM     24  C   UNL     1     -21.988  13.697  28.635  1.00  0.00     0.136 A 
ATOM     25  N   UNL     1     -21.770  12.287  30.486  1.00  0.00    -0.159 NA
ATOM     26  N   UNL     1     -22.397  12.615  29.326  1.00  0.00    -0.159 NA
ENDBRANCH  17  21
ENDBRANCH   8  11
ENDBRANCH   1   3
BRANCH   1  27
ATOM     27  S   UNL     1     -18.276   9.298  27.245  1.00  0.00     0.264 S 
ATOM     28  O   UNL     1     -18.244   7.862  27.403  1.00  0.00    -0.201 OA
ATOM     29  O   UNL     1     -18.221  10.169  28.401  1.00  0.00    -0.201 OA
BRANCH  27  30
ATOM     30  C   UNL     1     -19.740   9.705  26.345  1.00  0.00     0.123 A 
ATOM     31  C   UNL     1     -20.535  10.791  26.730  1.00  0.00     0.028 A 
ATOM     32  C   UNL     1     -20.102   8.916  25.258  1.00  0.00     0.146 A 
ATOM     33  C   UNL     1     -21.692  11.080  26.004  1.00  0.00     0.041 A 
ATOM     34  C   UNL     1     -21.253   9.202  24.534  1.00  0.00     0.080 A 
ATOM     35  C   UNL     1     -22.039  10.283  24.915  1.00  0.00     0.126 A 
ATOM     36  F   UNL     1     -19.332   7.893  24.863  1.00  0.00    -0.205 F 
ATOM     37  F   UNL     1     -23.149  10.566  24.222  1.00  0.00    -0.207 F 
ENDBRANCH  27  30
ENDBRANCH   1  27
TORSDOF 6
ENDMDL
MODEL 7
REMARK VINA RESULT:    -9.330      2.981      6.055
REMARK INTER + INTRA:         -13.897
REMARK INTER:                 -12.919
REMARK INTRA:                  -0.978
REMARK UNBOUND:                -1.295
REMARK SMILES COc1ncc(-c2ccc3nccc(-c4ccnnc4)c3c2)cc1NS(=O)(=O)c1ccc(F)cc1F
REMARK SMILES IDX 25 1 24 3 3 4 4 5 5 6 23 7 6 8 2 9 1 10 7 11 8 12 22 13 9 14
REMARK SMILES IDX 21 15 10 16 14 17 11 18 13 19 12 20 15 21 16 22 20 23 17 24
REMARK SMILES IDX 19 25 18 26 26 27 27 28 28 29 29 30 30 31 35 32 31 33 34 34
REMARK SMILES IDX 32 35 36 36 33 37
REMARK H PARENT 25 2
ROOT
ATOM      1  N   UNL     1     -18.361   8.689  25.929  1.00  0.00    -0.274 N 
ATOM      2  H   UNL     1     -18.337   7.957  25.212  1.00  0.00     0.180 HD
ENDROOT
BRANCH   1   3
ATOM      3  C   UNL     1     -17.113   9.380  26.097  1.00  0.00     0.112 A 
ATOM      4  C   UNL     1     -15.969   8.983  25.399  1.00  0.00     0.238 A 
ATOM      5  N   UNL     1     -14.786   9.626  25.471  1.00  0.00    -0.220 NA
ATOM      6  C   UNL     1     -14.738  10.710  26.284  1.00  0.00     0.124 A 
ATOM      7  C   UNL     1     -17.023  10.500  26.921  1.00  0.00     0.042 A 
ATOM      8  C   UNL     1     -15.812  11.199  27.033  1.00  0.00     0.002 A 
BRANCH   4   9
ATOM      9  O   UNL     1     -16.094   7.866  24.590  1.00  0.00    -0.480 OA
ATOM     10  C   UNL     1     -14.840   7.288  24.237  1.00  0.00     0.280 C 
ENDBRANCH   4   9
BRANCH   8  11
ATOM     11  C   UNL     1     -15.681  12.383  27.893  1.00  0.00    -0.016 A 
ATOM     12  C   UNL     1     -14.451  13.025  28.060  1.00  0.00     0.011 A 
ATOM     13  C   UNL     1     -16.786  12.911  28.580  1.00  0.00     0.019 A 
ATOM     14  C   UNL     1     -14.339  14.153  28.878  1.00  0.00     0.029 A 
ATOM     15  C   UNL     1     -16.684  14.057  29.416  1.00  0.00     0.009 A 
ATOM     16  C   UNL     1     -15.426  14.681  29.557  1.00  0.00     0.071 A 
ATOM     17  C   UNL     1     -17.775  14.621  30.131  1.00  0.00    -0.006 A 
ATOM     18  N   UNL     1     -15.230  15.766  30.322  1.00  0.00    -0.256 NA
ATOM     19  C   UNL     1     -17.554  15.750  30.927  1.00  0.00     0.029 A 
ATOM     20  C   UNL     1     -16.281  16.278  30.988  1.00  0.00     0.112 A 
BRANCH  17  21
ATOM     21  C   UNL     1     -19.130  14.062  30.067  1.00  0.00     0.004 A 
ATOM     22  C   UNL     1     -19.826  13.980  28.862  1.00  0.00     0.032 A 
ATOM     23  C   UNL     1     -19.778  13.591  31.202  1.00  0.00     0.144 A 
ATOM     24  C   UNL     1     -21.101  13.450  28.873  1.00  0.00     0.136 A 
ATOM     25  N   UNL     1     -21.028  13.082  31.179  1.00  0.00    -0.159 NA
ATOM     26  N   UNL     1     -21.698  13.012  29.999  1.00  0.00    -0.159 NA
ENDBRANCH  17  21
ENDBRANCH   8  11
ENDBRANCH   1   3
BRANCH   1  27
ATOM     27  S   UNL     1     -19.754   9.635  25.739  1.00  0.00     0.264 S 
ATOM     28  O   UNL     1     -20.243   9.958  27.060  1.00  0.00    -0.201 OA
ATOM     29  O   UNL     1     -19.470  10.684  24.781  1.00  0.00    -0.201 OA
BRANCH  27  30
ATOM     30  C   UNL     1     -20.915   8.536  24.991  1.00  0.00     0.123 A 
ATOM     31  C   UNL     1     -20.492   7.321  24.436  1.00  0.00     0.028 A 
ATOM     32  C   UNL     1     -22.255   8.904  24.943  1.00  0.00     0.146 A 
ATOM     33  C   UNL     1     -21.434   6.479  23.842  1.00  0.00     0.041 A 
ATOM     34  C   UNL     1     -23.195   8.067  24.352  1.00  0.00     0.080 A 
ATOM     35  C   UNL     1     -22.774   6.860  23.807  1.00  0.00     0.126 A 
ATOM     36  F   UNL     1     -22.675  10.050  25.497  1.00  0.00    -0.205 F 
ATOM     37  F   UNL     1     -23.672   6.047  23.236  1.00  0.00    -0.207 F 
ENDBRANCH  27  30
ENDBRANCH   1  27
TORSDOF 6
ENDMDL
MODEL 8
REMARK VINA RESULT:    -9.233      3.744      6.349
REMARK INTER + INTRA:         -13.766
REMARK INTER:                 -12.716
REMARK INTRA:                  -1.050
REMARK UNBOUND:                -1.295
REMARK SMILES COc1ncc(-c2ccc3nccc(-c4ccnnc4)c3c2)cc1NS(=O)(=O)c1ccc(F)cc1F
REMARK SMILES IDX 25 1 24 3 3 4 4 5 5 6 23 7 6 8 2 9 1 10 7 11 8 12 22 13 9 14
REMARK SMILES IDX 21 15 10 16 14 17 11 18 13 19 12 20 15 21 16 22 20 23 17 24
REMARK SMILES IDX 19 25 18 26 26 27 27 28 28 29 29 30 30 31 35 32 31 33 34 34
REMARK SMILES IDX 32 35 36 36 33 37
REMARK H PARENT 25 2
ROOT
ATOM      1  N   UNL     1     -19.274  14.475  29.445  1.00  0.00    -0.274 N 
ATOM      2  H   UNL     1     -19.901  14.429  28.635  1.00  0.00     0.180 HD
ENDROOT
BRANCH   1   3
ATOM      3  C   UNL     1     -19.881  15.035  30.620  1.00  0.00     0.112 A 
ATOM      4  C   UNL     1     -21.209  14.752  30.949  1.00  0.00     0.238 A 
ATOM      5  N   UNL     1     -21.816  15.201  32.068  1.00  0.00    -0.220 NA
ATOM      6  C   UNL     1     -21.066  15.976  32.890  1.00  0.00     0.124 A 
ATOM      7  C   UNL     1     -19.144  15.835  31.491  1.00  0.00     0.042 A 
ATOM      8  C   UNL     1     -19.733  16.330  32.664  1.00  0.00     0.002 A 
BRANCH   4   9
ATOM      9  O   UNL     1     -21.913  13.956  30.061  1.00  0.00    -0.480 OA
ATOM     10  C   UNL     1     -22.202  12.661  30.579  1.00  0.00     0.280 C 
ENDBRANCH   4   9
BRANCH   8  11
ATOM     11  C   UNL     1     -18.985  17.176  33.605  1.00  0.00    -0.016 A 
ATOM     12  C   UNL     1     -18.005  18.065  33.158  1.00  0.00     0.011 A 
ATOM     13  C   UNL     1     -19.228  17.120  34.987  1.00  0.00     0.019 A 
ATOM     14  C   UNL     1     -17.302  18.867  34.061  1.00  0.00     0.029 A 
ATOM     15  C   UNL     1     -18.519  17.930  35.915  1.00  0.00     0.009 A 
ATOM     16  C   UNL     1     -17.539  18.819  35.427  1.00  0.00     0.071 A 
ATOM     17  C   UNL     1     -18.731  17.902  37.321  1.00  0.00    -0.006 A 
ATOM     18  N   UNL     1     -16.819  19.623  36.223  1.00  0.00    -0.256 NA
ATOM     19  C   UNL     1     -17.970  18.744  38.139  1.00  0.00     0.029 A 
ATOM     20  C   UNL     1     -17.040  19.575  37.550  1.00  0.00     0.112 A 
BRANCH  17  21
ATOM     21  C   UNL     1     -19.721  17.020  37.949  1.00  0.00     0.004 A 
ATOM     22  C   UNL     1     -21.088  17.193  37.737  1.00  0.00     0.032 A 
ATOM     23  C   UNL     1     -19.340  15.975  38.782  1.00  0.00     0.144 A 
ATOM     24  C   UNL     1     -21.966  16.332  38.365  1.00  0.00     0.136 A 
ATOM     25  N   UNL     1     -20.225  15.152  39.384  1.00  0.00    -0.159 NA
ATOM     26  N   UNL     1     -21.555  15.335  39.174  1.00  0.00    -0.159 NA
ENDBRANCH  17  21
ENDBRANCH   8  11
ENDBRANCH   1   3
BRANCH   1  27
ATOM     27  S   UNL     1     -18.452  13.004  29.620  1.00  0.00     0.264 S 
ATOM     28  O   UNL     1     -18.391  12.707  31.034  1.00  0.00    -0.201 OA
ATOM     29  O   UNL     1     -19.015  12.048  28.689  1.00  0.00    -0.201 OA
BRANCH  27  30
ATOM     30  C   UNL     1     -16.811  13.367  29.079  1.00  0.00     0.123 A 
ATOM     31  C   UNL     1     -16.302  12.791  27.909  1.00  0.00     0.028 A 
ATOM     32  C   UNL     1     -16.023  14.219  29.846  1.00  0.00     0.146 A 
ATOM     33  C   UNL     1     -14.997  13.091  27.514  1.00  0.00     0.041 A 
ATOM     34  C   UNL     1     -14.723  14.519  29.454  1.00  0.00     0.080 A 
ATOM     35  C   UNL     1     -14.222  13.950  28.289  1.00  0.00     0.126 A 
ATOM     36  F   UNL     1     -16.510  14.799  30.952  1.00  0.00    -0.205 F 
ATOM     37  F   UNL     1     -12.971  14.233  27.905  1.00  0.00    -0.207 F 
ENDBRANCH  27  30
ENDBRANCH   1  27
TORSDOF 6
ENDMDL
MODEL 9
REMARK VINA RESULT:    -9.153      3.717      7.520
REMARK INTER + INTRA:         -13.658
REMARK INTER:                 -12.057
REMARK INTRA:                  -1.601
REMARK UNBOUND:                -1.295
REMARK SMILES COc1ncc(-c2ccc3nccc(-c4ccnnc4)c3c2)cc1NS(=O)(=O)c1ccc(F)cc1F
REMARK SMILES IDX 25 1 24 3 3 4 4 5 5 6 23 7 6 8 2 9 1 10 7 11 8 12 22 13 9 14
REMARK SMILES IDX 21 15 10 16 14 17 11 18 13 19 12 20 15 21 16 22 20 23 17 24
REMARK SMILES IDX 19 25 18 26 26 27 27 28 28 29 29 30 30 31 35 32 31 33 34 34
REMARK SMILES IDX 32 35 36 36 33 37
REMARK H PARENT 25 2
ROOT
ATOM      1  N   UNL     1     -22.806  12.820  28.560  1.00  0.00    -0.274 N 
ATOM      2  H   UNL     1     -23.493  13.546  28.788  1.00  0.00     0.180 HD
ENDROOT
BRANCH   1   3
ATOM      3  C   UNL     1     -21.521  13.023  29.168  1.00  0.00     0.112 A 
ATOM      4  C   UNL     1     -21.410  13.470  30.487  1.00  0.00     0.238 A 
ATOM      5  N   UNL     1     -20.234  13.623  31.130  1.00  0.00    -0.220 NA
ATOM      6  C   UNL     1     -19.117  13.328  30.422  1.00  0.00     0.124 A 
ATOM      7  C   UNL     1     -20.349  12.728  28.474  1.00  0.00     0.042 A 
ATOM      8  C   UNL     1     -19.102  12.878  29.098  1.00  0.00     0.002 A 
BRANCH   4   9
ATOM      9  O   UNL     1     -22.594  13.754  31.147  1.00  0.00    -0.480 OA
ATOM     10  C   UNL     1     -22.422  13.949  32.547  1.00  0.00     0.280 C 
ENDBRANCH   4   9
BRANCH   8  11
ATOM     11  C   UNL     1     -17.846  12.577  28.396  1.00  0.00    -0.016 A 
ATOM     12  C   UNL     1     -16.726  13.400  28.533  1.00  0.00     0.011 A 
ATOM     13  C   UNL     1     -17.728  11.454  27.562  1.00  0.00     0.019 A 
ATOM     14  C   UNL     1     -15.535  13.103  27.863  1.00  0.00     0.029 A 
ATOM     15  C   UNL     1     -16.523  11.142  26.875  1.00  0.00     0.009 A 
ATOM     16  C   UNL     1     -15.411  11.993  27.041  1.00  0.00     0.071 A 
ATOM     17  C   UNL     1     -16.363  10.019  26.019  1.00  0.00    -0.006 A 
ATOM     18  N   UNL     1     -14.232  11.783  26.435  1.00  0.00    -0.256 NA
ATOM     19  C   UNL     1     -15.129   9.814  25.392  1.00  0.00     0.029 A 
ATOM     20  C   UNL     1     -14.109  10.711  25.630  1.00  0.00     0.112 A 
BRANCH  17  21
ATOM     21  C   UNL     1     -17.446   9.062  25.766  1.00  0.00     0.004 A 
ATOM     22  C   UNL     1     -18.682   9.476  25.273  1.00  0.00     0.032 A 
ATOM     23  C   UNL     1     -17.287   7.703  26.007  1.00  0.00     0.144 A 
ATOM     24  C   UNL     1     -19.660   8.525  25.064  1.00  0.00     0.136 A 
ATOM     25  N   UNL     1     -18.267   6.798  25.796  1.00  0.00    -0.159 NA
ATOM     26  N   UNL     1     -19.469   7.216  25.320  1.00  0.00    -0.159 NA
ENDBRANCH  17  21
ENDBRANCH   8  11
ENDBRANCH   1   3
BRANCH   1  27
ATOM     27  S   UNL     1     -23.512  11.288  28.725  1.00  0.00     0.264 S 
ATOM     28  O   UNL     1     -22.662  10.511  29.600  1.00  0.00    -0.201 OA
ATOM     29  O   UNL     1     -24.918  11.460  29.026  1.00  0.00    -0.201 OA
BRANCH  27  30
ATOM     30  C   UNL     1     -23.397  10.590  27.108  1.00  0.00     0.123 A 
ATOM     31  C   UNL     1     -22.697  11.254  26.093  1.00  0.00     0.028 A 
ATOM     32  C   UNL     1     -24.031   9.379  26.851  1.00  0.00     0.146 A 
ATOM     33  C   UNL     1     -22.634  10.680  24.821  1.00  0.00     0.041 A 
ATOM     34  C   UNL     1     -23.970   8.807  25.586  1.00  0.00     0.080 A 
ATOM     35  C   UNL     1     -23.270   9.465  24.582  1.00  0.00     0.126 A 
ATOM     36  F   UNL     1     -24.679   8.722  27.823  1.00  0.00    -0.205 F 
ATOM     37  F   UNL     1     -23.206   8.920  23.360  1.00  0.00    -0.207 F 
ENDBRANCH  27  30
ENDBRANCH   1  27
TORSDOF 6
ENDMDL
