MODEL 3
REMARK VINA RESULT:    -7.073      1.584      2.153
REMARK INTER + INTRA:         -10.824
REMARK INTER:                 -10.875
REMARK INTRA:                   0.050
REMARK UNBOUND:                -0.029
REMARK SMILES CC(C)n1ncnc1-c1cn2c(n1)-c1ccc(O[C@@H](C)C(N)=O)cc1OCC2
REMARK SMILES IDX 17 1 14 2 16 3 24 4 25 5 15 6 18 7 19 8 20 9 21 10 23 11
REMARK SMILES IDX 22 12 26 15 27 16 12 18 11 19 13 20 10 21 9 22 28 23 8 25
REMARK SMILES IDX 4 26 7 27 5 28 6 29 2 30 1 31 3 32
REMARK H PARENT 22 13 22 14
REMARK Flexibility Score:   19.900
ROOT
ATOM      1  C   UNL     1     -18.619  15.955  31.754  1.00  0.00     0.124 A 
ATOM      2  C   UNL     1     -17.740  14.030  29.879  1.00  0.00     0.060 A 
ATOM      3  C   UNL     1     -19.479  14.952  31.290  1.00  0.00     0.047 A 
ATOM      4  C   UNL     1     -17.310  15.985  31.268  1.00  0.00     0.093 A 
ATOM      5  C   UNL     1     -16.854  15.050  30.346  1.00  0.00     0.134 A 
ATOM      6  C   UNL     1     -19.046  14.017  30.376  1.00  0.00     0.020 A 
ENDROOT
BRANCH   1   7
ATOM      7  O   UNL     1     -18.981  16.920  32.665  1.00  0.00    -0.481 OA
BRANCH   7   8
ATOM      8  C   UNL     1     -20.083  16.773  33.584  1.00  0.00     0.258 C 
ATOM      9  C   UNL     1     -19.607  17.046  35.014  1.00  0.00     0.064 C 
BRANCH   8  10
ATOM     10  C   UNL     1     -21.209  17.719  33.229  1.00  0.00     0.258 C 
ATOM     11  O   UNL     1     -21.799  18.313  34.108  1.00  0.00    -0.271 OA
ATOM     12  N   UNL     1     -21.589  17.876  31.945  1.00  0.00    -0.366 N 
ATOM     13  H   UNL     1     -22.322  18.493  31.721  1.00  0.00     0.159 HD
ATOM     14  H   UNL     1     -21.132  17.373  31.232  1.00  0.00     0.159 HD
ENDBRANCH   8  10
ENDBRANCH   7   8
ENDBRANCH   1   7
BRANCH   5  15
ATOM     15  O   UNL     1     -15.578  15.141  29.918  1.00  0.00    -0.491 OA
BRANCH  15  16
ATOM     16  C   UNL     1     -14.726  14.002  29.893  1.00  0.00     0.251 CG0
ATOM     17  G   UNL     1     -14.870  13.348  28.532  1.00  0.00     0.000 G0
ENDBRANCH  15  16
ENDBRANCH   5  15
BRANCH   2  18
ATOM     18  C   UNL     1     -17.380  12.966  28.890  1.00  0.00     0.144 A 
ATOM     19  N   UNL     1     -16.148  12.687  28.302  1.00  0.00    -0.327 N 
ATOM     20  N   UNL     1     -18.228  12.107  28.401  1.00  0.00    -0.225 NA
ATOM     21  C   UNL     1     -16.335  11.631  27.470  1.00  0.00     0.120 A 
ATOM     22  C   UNL     1     -17.645  11.272  27.532  1.00  0.00     0.126 A 
BRANCH  19  23
ATOM     23  C   UNL     1     -14.868  13.356  28.517  1.00  0.00     0.165 CG0
ATOM     24  G   UNL     1     -14.762  13.992  29.890  1.00  0.00     0.000 G0
ENDBRANCH  19  23
BRANCH  22  25
ATOM     25  C   UNL     1     -18.278  10.165  26.783  1.00  0.00     0.178 A 
ATOM     26  N   UNL     1     -17.783   8.933  26.481  1.00  0.00    -0.242 N 
ATOM     27  N   UNL     1     -19.481  10.244  26.258  1.00  0.00    -0.213 NA
ATOM     28  N   UNL     1     -18.790   8.286  25.747  1.00  0.00    -0.159 NA
ATOM     29  C   UNL     1     -19.790   9.115  25.637  1.00  0.00     0.246 A 
BRANCH  26  30
ATOM     30  C   UNL     1     -16.489   8.319  26.823  1.00  0.00     0.103 C 
ATOM     31  C   UNL     1     -15.907   7.613  25.597  1.00  0.00     0.033 C 
ATOM     32  C   UNL     1     -16.719   7.284  27.924  1.00  0.00     0.033 C 
ENDBRANCH  26  30
ENDBRANCH  22  25
ENDBRANCH   2  18
TORSDOF 5
ENDMDL
