MODEL 1
REMARK VINA RESULT:    -9.249      0.000      0.000
REMARK INTER + INTRA:         -17.148
REMARK INTER:                 -15.738
REMARK INTRA:                  -1.411
REMARK UNBOUND:                -1.411
REMARK SMILES CCn1c(CCCc2ccc(-c3ccc(NS(=O)(=O)c4ccccc4)cn3)cc2)nn(Cc2ccc(C(C)(C)C)cc2)c1=O
REMARK SMILES IDX 6 1 5 2 4 3 3 4 43 5 30 6 31 7 44 8 2 9 1 10 32 11 33 12
REMARK SMILES IDX 34 13 42 14 35 15 41 16 36 17 37 18 38 19 39 20 40 21 7 22
REMARK SMILES IDX 8 23 9 24 29 25 10 26 28 27 11 28 12 29 13 30 27 31 14 32
REMARK SMILES IDX 26 33 15 34 16 35 17 37 18 38 19 39 20 40 21 41 25 42 22 43
REMARK SMILES IDX 24 44 23 45
REMARK H PARENT 16 36
ROOT
ATOM      1  C   UNL     1      10.859  11.108 -10.357  1.00  0.00     0.013 C 
ENDROOT
BRANCH   1   2
ATOM      2  C   UNL     1       9.951  10.113 -11.082  1.00  0.00     0.078 C 
BRANCH   2   3
ATOM      3  C   UNL     1      10.626   8.841 -11.518  1.00  0.00     0.133 A 
ATOM      4  N   UNL     1      11.587   8.848 -12.465  1.00  0.00    -0.279 N 
ATOM      5  C   UNL     1      11.997   7.544 -12.598  1.00  0.00     0.346 A 
ATOM      6  N   UNL     1      10.373   7.668 -11.013  1.00  0.00    -0.155 NA
ATOM      7  N   UNL     1      11.226   6.826 -11.688  1.00  0.00    -0.209 N 
ATOM      8  O   UNL     1      12.852   7.112 -13.355  1.00  0.00    -0.246 OA
BRANCH   4   9
ATOM      9  C   UNL     1      12.131   9.953 -13.231  1.00  0.00     0.125 C 
ATOM     10  C   UNL     1      11.220  10.332 -14.386  1.00  0.00     0.028 C 
ENDBRANCH   4   9
BRANCH   7  11
ATOM     11  C   UNL     1      11.327   5.414 -11.415  1.00  0.00     0.185 C 
BRANCH  11  12
ATOM     12  C   UNL     1      10.673   5.042 -10.107  1.00  0.00    -0.026 A 
ATOM     13  C   UNL     1      10.854   5.833  -8.970  1.00  0.00     0.006 A 
ATOM     14  C   UNL     1       9.909   3.877  -9.996  1.00  0.00     0.006 A 
ATOM     15  C   UNL     1      10.263   5.477  -7.754  1.00  0.00     0.004 A 
ATOM     16  C   UNL     1       9.318   3.522  -8.776  1.00  0.00     0.004 A 
ATOM     17  C   UNL     1       9.480   4.314  -7.628  1.00  0.00    -0.043 A 
BRANCH  17  18
ATOM     18  C   UNL     1       8.844   3.955  -6.274  1.00  0.00    -0.013 C 
ATOM     19  C   UNL     1       7.566   4.797  -6.067  1.00  0.00     0.016 C 
ATOM     20  C   UNL     1       8.439   2.470  -6.147  1.00  0.00     0.016 C 
ATOM     21  C   UNL     1       9.840   4.256  -5.132  1.00  0.00     0.016 C 
ENDBRANCH  17  18
ENDBRANCH  11  12
ENDBRANCH   7  11
ENDBRANCH   2   3
ENDBRANCH   1   2
BRANCH   1  22
ATOM     22  C   UNL     1      11.249  10.713  -8.928  1.00  0.00     0.036 C 
BRANCH  22  23
ATOM     23  C   UNL     1      10.081  10.352  -8.044  1.00  0.00    -0.048 A 
ATOM     24  C   UNL     1       9.569  11.270  -7.125  1.00  0.00     0.004 A 
ATOM     25  C   UNL     1       9.492   9.088  -8.129  1.00  0.00     0.004 A 
ATOM     26  C   UNL     1       8.484  10.926  -6.311  1.00  0.00     0.010 A 
ATOM     27  C   UNL     1       8.408   8.749  -7.309  1.00  0.00     0.010 A 
ATOM     28  C   UNL     1       7.873   9.660  -6.383  1.00  0.00     0.000 A 
BRANCH  28  29
ATOM     29  C   UNL     1       6.733   9.324  -5.501  1.00  0.00     0.070 A 
ATOM     30  C   UNL     1       5.858   8.262  -5.746  1.00  0.00     0.031 A 
ATOM     31  N   UNL     1       6.568  10.131  -4.419  1.00  0.00    -0.254 NA
ATOM     32  C   UNL     1       4.802   8.015  -4.864  1.00  0.00     0.030 A 
ATOM     33  C   UNL     1       5.538   9.872  -3.579  1.00  0.00     0.138 A 
ATOM     34  C   UNL     1       4.637   8.831  -3.754  1.00  0.00     0.067 A 
BRANCH  34  35
ATOM     35  N   UNL     1       3.536   8.655  -2.867  1.00  0.00    -0.278 N 
ATOM     36  H   UNL     1       2.745   8.098  -3.192  1.00  0.00     0.180 HD
BRANCH  35  37
ATOM     37  S   UNL     1       3.855   8.389  -1.227  1.00  0.00     0.261 S 
ATOM     38  O   UNL     1       5.084   9.061  -0.863  1.00  0.00    -0.201 OA
ATOM     39  O   UNL     1       2.614   8.659  -0.531  1.00  0.00    -0.201 OA
BRANCH  37  40
ATOM     40  C   UNL     1       4.138   6.634  -1.152  1.00  0.00     0.087 A 
ATOM     41  C   UNL     1       3.243   5.823  -0.446  1.00  0.00     0.022 A 
ATOM     42  C   UNL     1       5.266   6.086  -1.769  1.00  0.00     0.022 A 
ATOM     43  C   UNL     1       3.469   4.447  -0.385  1.00  0.00     0.001 A 
ATOM     44  C   UNL     1       5.482   4.710  -1.705  1.00  0.00     0.001 A 
ATOM     45  C   UNL     1       4.584   3.893  -1.016  1.00  0.00     0.000 A 
ENDBRANCH  37  40
ENDBRANCH  35  37
ENDBRANCH  34  35
ENDBRANCH  28  29
ENDBRANCH  22  23
ENDBRANCH   1  22
TORSDOF 12
ENDMDL
MODEL 2
REMARK VINA RESULT:    -9.028      2.861      9.685
REMARK INTER + INTRA:         -16.773
REMARK INTER:                 -14.457
REMARK INTRA:                  -2.315
REMARK UNBOUND:                -1.411
REMARK SMILES CCn1c(CCCc2ccc(-c3ccc(NS(=O)(=O)c4ccccc4)cn3)cc2)nn(Cc2ccc(C(C)(C)C)cc2)c1=O
REMARK SMILES IDX 6 1 5 2 4 3 3 4 43 5 30 6 31 7 44 8 2 9 1 10 32 11 33 12
REMARK SMILES IDX 34 13 42 14 35 15 41 16 36 17 37 18 38 19 39 20 40 21 7 22
REMARK SMILES IDX 8 23 9 24 29 25 10 26 28 27 11 28 12 29 13 30 27 31 14 32
REMARK SMILES IDX 26 33 15 34 16 35 17 37 18 38 19 39 20 40 21 41 25 42 22 43
REMARK SMILES IDX 24 44 23 45
REMARK H PARENT 16 36
ROOT
ATOM      1  C   UNL     1       5.992  10.406  -2.218  1.00  0.00     0.013 C 
ENDROOT
BRANCH   1   2
ATOM      2  C   UNL     1       5.395   9.211  -1.474  1.00  0.00     0.078 C 
BRANCH   2   3
ATOM      3  C   UNL     1       4.677   8.217  -2.345  1.00  0.00     0.133 A 
ATOM      4  N   UNL     1       3.625   7.511  -1.882  1.00  0.00    -0.279 N 
ATOM      5  C   UNL     1       3.200   6.731  -2.929  1.00  0.00     0.346 A 
ATOM      6  N   UNL     1       4.977   7.983  -3.591  1.00  0.00    -0.155 NA
ATOM      7  N   UNL     1       4.059   7.037  -3.982  1.00  0.00    -0.209 N 
ATOM      8  O   UNL     1       2.272   5.937  -2.931  1.00  0.00    -0.246 OA
BRANCH   4   9
ATOM      9  C   UNL     1       3.008   7.514  -0.569  1.00  0.00     0.125 C 
ATOM     10  C   UNL     1       3.165   6.171   0.124  1.00  0.00     0.028 C 
ENDBRANCH   4   9
BRANCH   7  11
ATOM     11  C   UNL     1       3.983   6.512  -5.322  1.00  0.00     0.185 C 
BRANCH  11  12
ATOM     12  C   UNL     1       5.339   6.119  -5.855  1.00  0.00    -0.026 A 
ATOM     13  C   UNL     1       5.810   4.813  -5.708  1.00  0.00     0.006 A 
ATOM     14  C   UNL     1       6.167   7.064  -6.468  1.00  0.00     0.006 A 
ATOM     15  C   UNL     1       7.075   4.455  -6.184  1.00  0.00     0.004 A 
ATOM     16  C   UNL     1       7.433   6.703  -6.944  1.00  0.00     0.004 A 
ATOM     17  C   UNL     1       7.916   5.390  -6.815  1.00  0.00    -0.043 A 
BRANCH  17  18
ATOM     18  C   UNL     1       9.300   4.959  -7.329  1.00  0.00    -0.013 C 
ATOM     19  C   UNL     1      10.131   4.396  -6.156  1.00  0.00     0.016 C 
ATOM     20  C   UNL     1       9.250   3.867  -8.421  1.00  0.00     0.016 C 
ATOM     21  C   UNL     1      10.036   6.176  -7.934  1.00  0.00     0.016 C 
ENDBRANCH  17  18
ENDBRANCH  11  12
ENDBRANCH   7  11
ENDBRANCH   2   3
ENDBRANCH   1   2
BRANCH   1  22
ATOM     22  C   UNL     1       7.524  10.440  -2.275  1.00  0.00     0.036 C 
BRANCH  22  23
ATOM     23  C   UNL     1       8.091  10.564  -3.667  1.00  0.00    -0.048 A 
ATOM     24  C   UNL     1       7.343  10.177  -4.781  1.00  0.00     0.004 A 
ATOM     25  C   UNL     1       9.379  11.068  -3.866  1.00  0.00     0.004 A 
ATOM     26  C   UNL     1       7.876  10.298  -6.068  1.00  0.00     0.010 A 
ATOM     27  C   UNL     1       9.908  11.184  -5.158  1.00  0.00     0.010 A 
ATOM     28  C   UNL     1       9.169  10.806  -6.292  1.00  0.00     0.000 A 
BRANCH  28  29
ATOM     29  C   UNL     1       9.709  10.913  -7.667  1.00  0.00     0.070 A 
ATOM     30  C   UNL     1      10.105  12.121  -8.246  1.00  0.00     0.031 A 
ATOM     31  N   UNL     1       9.789   9.745  -8.359  1.00  0.00    -0.254 NA
ATOM     32  C   UNL     1      10.601  12.134  -9.553  1.00  0.00     0.030 A 
ATOM     33  C   UNL     1      10.273   9.784  -9.623  1.00  0.00     0.138 A 
ATOM     34  C   UNL     1      10.693  10.943 -10.259  1.00  0.00     0.067 A 
BRANCH  34  35
ATOM     35  N   UNL     1      11.130  10.923 -11.615  1.00  0.00    -0.278 N 
ATOM     36  H   UNL     1      12.133  10.871 -11.793  1.00  0.00     0.180 HD
BRANCH  35  37
ATOM     37  S   UNL     1      10.249  10.007 -12.733  1.00  0.00     0.261 S 
ATOM     38  O   UNL     1       8.854   9.996 -12.349  1.00  0.00    -0.201 OA
ATOM     39  O   UNL     1      10.667  10.468 -14.040  1.00  0.00    -0.201 OA
BRANCH  37  40
ATOM     40  C   UNL     1      10.901   8.367 -12.511  1.00  0.00     0.087 A 
ATOM     41  C   UNL     1      10.087   7.372 -11.960  1.00  0.00     0.022 A 
ATOM     42  C   UNL     1      12.229   8.095 -12.856  1.00  0.00     0.022 A 
ATOM     43  C   UNL     1      10.600   6.087 -11.783  1.00  0.00     0.001 A 
ATOM     44  C   UNL     1      12.732   6.807 -12.677  1.00  0.00     0.001 A 
ATOM     45  C   UNL     1      11.919   5.806 -12.144  1.00  0.00     0.000 A 
ENDBRANCH  37  40
ENDBRANCH  35  37
ENDBRANCH  34  35
ENDBRANCH  28  29
ENDBRANCH  22  23
ENDBRANCH   1  22
TORSDOF 12
ENDMDL
MODEL 3
REMARK VINA RESULT:    -8.713      2.578     10.606
REMARK INTER + INTRA:         -16.236
REMARK INTER:                 -13.311
REMARK INTRA:                  -2.926
REMARK UNBOUND:                -1.411
REMARK SMILES CCn1c(CCCc2ccc(-c3ccc(NS(=O)(=O)c4ccccc4)cn3)cc2)nn(Cc2ccc(C(C)(C)C)cc2)c1=O
REMARK SMILES IDX 6 1 5 2 4 3 3 4 43 5 30 6 31 7 44 8 2 9 1 10 32 11 33 12
REMARK SMILES IDX 34 13 42 14 35 15 41 16 36 17 37 18 38 19 39 20 40 21 7 22
REMARK SMILES IDX 8 23 9 24 29 25 10 26 28 27 11 28 12 29 13 30 27 31 14 32
REMARK SMILES IDX 26 33 15 34 16 35 17 37 18 38 19 39 20 40 21 41 25 42 22 43
REMARK SMILES IDX 24 44 23 45
REMARK H PARENT 16 36
ROOT
ATOM      1  C   UNL     1       7.222   4.400  -2.093  1.00  0.00     0.013 C 
ENDROOT
BRANCH   1   2
ATOM      2  C   UNL     1       5.728   4.603  -1.837  1.00  0.00     0.078 C 
BRANCH   2   3
ATOM      3  C   UNL     1       5.124   5.799  -2.521  1.00  0.00     0.133 A 
ATOM      4  N   UNL     1       4.387   6.699  -1.838  1.00  0.00    -0.279 N 
ATOM      5  C   UNL     1       4.020   7.659  -2.749  1.00  0.00     0.346 A 
ATOM      6  N   UNL     1       5.283   6.078  -3.783  1.00  0.00    -0.155 NA
ATOM      7  N   UNL     1       4.585   7.250  -3.954  1.00  0.00    -0.209 N 
ATOM      8  O   UNL     1       3.341   8.652  -2.543  1.00  0.00    -0.246 OA
BRANCH   4   9
ATOM      9  C   UNL     1       4.013   6.723  -0.437  1.00  0.00     0.125 C 
ATOM     10  C   UNL     1       2.715   5.971  -0.194  1.00  0.00     0.028 C 
ENDBRANCH   4   9
BRANCH   7  11
ATOM     11  C   UNL     1       4.527   7.963  -5.206  1.00  0.00     0.185 C 
BRANCH  11  12
ATOM     12  C   UNL     1       5.805   8.715  -5.489  1.00  0.00    -0.026 A 
ATOM     13  C   UNL     1       6.107   9.890  -4.799  1.00  0.00     0.006 A 
ATOM     14  C   UNL     1       6.690   8.272  -6.476  1.00  0.00     0.006 A 
ATOM     15  C   UNL     1       7.282  10.595  -5.076  1.00  0.00     0.004 A 
ATOM     16  C   UNL     1       7.866   8.981  -6.753  1.00  0.00     0.004 A 
ATOM     17  C   UNL     1       8.190  10.157  -6.058  1.00  0.00    -0.043 A 
BRANCH  17  18
ATOM     18  C   UNL     1       9.475  10.958  -6.334  1.00  0.00    -0.013 C 
ATOM     19  C   UNL     1      10.127  11.361  -4.994  1.00  0.00     0.016 C 
ATOM     20  C   UNL     1      10.535  10.180  -7.144  1.00  0.00     0.016 C 
ATOM     21  C   UNL     1       9.133  12.234  -7.136  1.00  0.00     0.016 C 
ENDBRANCH  17  18
ENDBRANCH  11  12
ENDBRANCH   7  11
ENDBRANCH   2   3
ENDBRANCH   1   2
BRANCH   1  22
ATOM     22  C   UNL     1       7.565   3.322  -3.129  1.00  0.00     0.036 C 
BRANCH  22  23
ATOM     23  C   UNL     1       8.186   3.855  -4.396  1.00  0.00    -0.048 A 
ATOM     24  C   UNL     1       9.567   3.799  -4.595  1.00  0.00     0.004 A 
ATOM     25  C   UNL     1       7.386   4.417  -5.394  1.00  0.00     0.004 A 
ATOM     26  C   UNL     1      10.132   4.294  -5.774  1.00  0.00     0.010 A 
ATOM     27  C   UNL     1       7.959   4.914  -6.572  1.00  0.00     0.010 A 
ATOM     28  C   UNL     1       9.346   4.861  -6.794  1.00  0.00     0.000 A 
BRANCH  28  29
ATOM     29  C   UNL     1       9.976   5.385  -8.028  1.00  0.00     0.070 A 
ATOM     30  C   UNL     1      10.138   6.748  -8.290  1.00  0.00     0.031 A 
ATOM     31  N   UNL     1      10.388   4.447  -8.922  1.00  0.00    -0.254 NA
ATOM     32  C   UNL     1      10.740   7.158  -9.482  1.00  0.00     0.030 A 
ATOM     33  C   UNL     1      10.969   4.869 -10.070  1.00  0.00     0.138 A 
ATOM     34  C   UNL     1      11.170   6.204 -10.393  1.00  0.00     0.067 A 
BRANCH  34  35
ATOM     35  N   UNL     1      11.728   6.581 -11.648  1.00  0.00    -0.278 N 
ATOM     36  H   UNL     1      12.543   6.067 -11.983  1.00  0.00     0.180 HD
BRANCH  35  37
ATOM     37  S   UNL     1      10.676   6.976 -12.913  1.00  0.00     0.261 S 
ATOM     38  O   UNL     1      11.242   6.522 -14.166  1.00  0.00    -0.201 OA
ATOM     39  O   UNL     1       9.360   6.550 -12.484  1.00  0.00    -0.201 OA
BRANCH  37  40
ATOM     40  C   UNL     1      10.690   8.755 -12.907  1.00  0.00     0.087 A 
ATOM     41  C   UNL     1      10.103   9.443 -11.841  1.00  0.00     0.022 A 
ATOM     42  C   UNL     1      11.257   9.447 -13.981  1.00  0.00     0.022 A 
ATOM     43  C   UNL     1      10.112  10.838 -11.840  1.00  0.00     0.001 A 
ATOM     44  C   UNL     1      11.263  10.842 -13.970  1.00  0.00     0.001 A 
ATOM     45  C   UNL     1      10.693  11.535 -12.900  1.00  0.00     0.000 A 
ENDBRANCH  37  40
ENDBRANCH  35  37
ENDBRANCH  34  35
ENDBRANCH  28  29
ENDBRANCH  22  23
ENDBRANCH   1  22
TORSDOF 12
ENDMDL
MODEL 4
REMARK VINA RESULT:    -8.478      1.665      4.940
REMARK INTER + INTRA:         -15.836
REMARK INTER:                 -14.151
REMARK INTRA:                  -1.685
REMARK UNBOUND:                -1.411
REMARK SMILES CCn1c(CCCc2ccc(-c3ccc(NS(=O)(=O)c4ccccc4)cn3)cc2)nn(Cc2ccc(C(C)(C)C)cc2)c1=O
REMARK SMILES IDX 6 1 5 2 4 3 3 4 43 5 30 6 31 7 44 8 2 9 1 10 32 11 33 12
REMARK SMILES IDX 34 13 42 14 35 15 41 16 36 17 37 18 38 19 39 20 40 21 7 22
REMARK SMILES IDX 8 23 9 24 29 25 10 26 28 27 11 28 12 29 13 30 27 31 14 32
REMARK SMILES IDX 26 33 15 34 16 35 17 37 18 38 19 39 20 40 21 41 25 42 22 43
REMARK SMILES IDX 24 44 23 45
REMARK H PARENT 16 36
ROOT
ATOM      1  C   UNL     1      11.285   4.943 -11.392  1.00  0.00     0.013 C 
ENDROOT
BRANCH   1   2
ATOM      2  C   UNL     1      12.154   5.809 -12.306  1.00  0.00     0.078 C 
BRANCH   2   3
ATOM      3  C   UNL     1      11.780   7.265 -12.342  1.00  0.00     0.133 A 
ATOM      4  N   UNL     1      12.540   8.167 -12.999  1.00  0.00    -0.279 N 
ATOM      5  C   UNL     1      11.904   9.376 -12.854  1.00  0.00     0.346 A 
ATOM      6  N   UNL     1      10.710   7.761 -11.791  1.00  0.00    -0.155 NA
ATOM      7  N   UNL     1      10.770   9.101 -12.095  1.00  0.00    -0.209 N 
ATOM      8  O   UNL     1      12.262  10.457 -13.294  1.00  0.00    -0.246 OA
BRANCH   4   9
ATOM      9  C   UNL     1      13.779   7.983 -13.730  1.00  0.00     0.125 C 
ATOM     10  C   UNL     1      14.943   8.669 -13.034  1.00  0.00     0.028 C 
ENDBRANCH   4   9
BRANCH   7  11
ATOM     11  C   UNL     1       9.746  10.045 -11.722  1.00  0.00     0.185 C 
BRANCH  11  12
ATOM     12  C   UNL     1      10.103  10.800 -10.464  1.00  0.00    -0.026 A 
ATOM     13  C   UNL     1      10.496  10.116  -9.311  1.00  0.00     0.006 A 
ATOM     14  C   UNL     1      10.006  12.193 -10.415  1.00  0.00     0.006 A 
ATOM     15  C   UNL     1      10.807  10.815  -8.141  1.00  0.00     0.004 A 
ATOM     16  C   UNL     1      10.318  12.891  -9.242  1.00  0.00     0.004 A 
ATOM     17  C   UNL     1      10.727  12.219  -8.079  1.00  0.00    -0.043 A 
BRANCH  17  18
ATOM     18  C   UNL     1      11.080  12.954  -6.774  1.00  0.00    -0.013 C 
ATOM     19  C   UNL     1      10.356  14.318  -6.741  1.00  0.00     0.016 C 
ATOM     20  C   UNL     1      10.673  12.189  -5.495  1.00  0.00     0.016 C 
ATOM     21  C   UNL     1      12.605  13.187  -6.701  1.00  0.00     0.016 C 
ENDBRANCH  17  18
ENDBRANCH  11  12
ENDBRANCH   7  11
ENDBRANCH   2   3
ENDBRANCH   1   2
BRANCH   1  22
ATOM     22  C   UNL     1      11.621   5.028  -9.899  1.00  0.00     0.036 C 
BRANCH  22  23
ATOM     23  C   UNL     1      10.446   5.368  -9.017  1.00  0.00    -0.048 A 
ATOM     24  C   UNL     1       9.675   4.362  -8.432  1.00  0.00     0.004 A 
ATOM     25  C   UNL     1      10.108   6.702  -8.770  1.00  0.00     0.004 A 
ATOM     26  C   UNL     1       8.589   4.688  -7.614  1.00  0.00     0.010 A 
ATOM     27  C   UNL     1       9.016   7.021  -7.952  1.00  0.00     0.010 A 
ATOM     28  C   UNL     1       8.232   6.023  -7.349  1.00  0.00     0.000 A 
BRANCH  28  29
ATOM     29  C   UNL     1       7.070   6.335  -6.486  1.00  0.00     0.070 A 
ATOM     30  C   UNL     1       6.284   5.358  -5.871  1.00  0.00     0.031 A 
ATOM     31  N   UNL     1       6.793   7.657  -6.329  1.00  0.00    -0.254 NA
ATOM     32  C   UNL     1       5.201   5.739  -5.074  1.00  0.00     0.030 A 
ATOM     33  C   UNL     1       5.739   8.002  -5.552  1.00  0.00     0.138 A 
ATOM     34  C   UNL     1       4.920   7.087  -4.904  1.00  0.00     0.067 A 
BRANCH  34  35
ATOM     35  N   UNL     1       3.787   7.515  -4.155  1.00  0.00    -0.278 N 
ATOM     36  H   UNL     1       2.920   6.988  -4.257  1.00  0.00     0.180 HD
BRANCH  35  37
ATOM     37  S   UNL     1       4.021   8.028  -2.559  1.00  0.00     0.261 S 
ATOM     38  O   UNL     1       5.259   8.775  -2.474  1.00  0.00    -0.201 OA
ATOM     39  O   UNL     1       2.762   8.606  -2.138  1.00  0.00    -0.201 OA
BRANCH  37  40
ATOM     40  C   UNL     1       4.231   6.500  -1.673  1.00  0.00     0.087 A 
ATOM     41  C   UNL     1       5.374   5.726  -1.900  1.00  0.00     0.022 A 
ATOM     42  C   UNL     1       3.240   6.071  -0.785  1.00  0.00     0.022 A 
ATOM     43  C   UNL     1       5.536   4.526  -1.207  1.00  0.00     0.001 A 
ATOM     44  C   UNL     1       3.412   4.871  -0.096  1.00  0.00     0.001 A 
ATOM     45  C   UNL     1       4.558   4.102  -0.305  1.00  0.00     0.000 A 
ENDBRANCH  37  40
ENDBRANCH  35  37
ENDBRANCH  34  35
ENDBRANCH  28  29
ENDBRANCH  22  23
ENDBRANCH   1  22
TORSDOF 12
ENDMDL
MODEL 5
REMARK VINA RESULT:    -8.327      2.902      6.382
REMARK INTER + INTRA:         -15.580
REMARK INTER:                 -14.776
REMARK INTRA:                  -0.804
REMARK UNBOUND:                -1.411
REMARK SMILES CCn1c(CCCc2ccc(-c3ccc(NS(=O)(=O)c4ccccc4)cn3)cc2)nn(Cc2ccc(C(C)(C)C)cc2)c1=O
REMARK SMILES IDX 6 1 5 2 4 3 3 4 43 5 30 6 31 7 44 8 2 9 1 10 32 11 33 12
REMARK SMILES IDX 34 13 42 14 35 15 41 16 36 17 37 18 38 19 39 20 40 21 7 22
REMARK SMILES IDX 8 23 9 24 29 25 10 26 28 27 11 28 12 29 13 30 27 31 14 32
REMARK SMILES IDX 26 33 15 34 16 35 17 37 18 38 19 39 20 40 21 41 25 42 22 43
REMARK SMILES IDX 24 44 23 45
REMARK H PARENT 16 36
ROOT
ATOM      1  C   UNL     1      10.374   6.239 -12.161  1.00  0.00     0.013 C 
ENDROOT
BRANCH   1   2
ATOM      2  C   UNL     1      11.120   7.535 -12.481  1.00  0.00     0.078 C 
BRANCH   2   3
ATOM      3  C   UNL     1      10.849   8.672 -11.533  1.00  0.00     0.133 A 
ATOM      4  N   UNL     1      10.908   9.956 -11.945  1.00  0.00    -0.279 N 
ATOM      5  C   UNL     1      10.585  10.720 -10.850  1.00  0.00     0.346 A 
ATOM      6  N   UNL     1      10.512   8.520 -10.285  1.00  0.00    -0.155 NA
ATOM      7  N   UNL     1      10.348   9.806  -9.826  1.00  0.00    -0.209 N 
ATOM      8  O   UNL     1      10.525  11.938 -10.790  1.00  0.00    -0.246 OA
BRANCH   4   9
ATOM      9  C   UNL     1      11.234  10.501 -13.248  1.00  0.00     0.125 C 
ATOM     10  C   UNL     1       9.983  10.894 -14.017  1.00  0.00     0.028 C 
ENDBRANCH   4   9
BRANCH   7  11
ATOM     11  C   UNL     1       9.919  10.122  -8.487  1.00  0.00     0.185 C 
BRANCH  11  12
ATOM     12  C   UNL     1      10.610  11.349  -7.945  1.00  0.00    -0.026 A 
ATOM     13  C   UNL     1       9.888  12.516  -7.684  1.00  0.00     0.006 A 
ATOM     14  C   UNL     1      11.992  11.356  -7.734  1.00  0.00     0.006 A 
ATOM     15  C   UNL     1      10.533  13.658  -7.201  1.00  0.00     0.004 A 
ATOM     16  C   UNL     1      12.636  12.502  -7.250  1.00  0.00     0.004 A 
ATOM     17  C   UNL     1      11.921  13.678  -6.970  1.00  0.00    -0.043 A 
BRANCH  17  18
ATOM     18  C   UNL     1      12.596  14.954  -6.436  1.00  0.00    -0.013 C 
ATOM     19  C   UNL     1      12.982  15.866  -7.620  1.00  0.00     0.016 C 
ATOM     20  C   UNL     1      11.701  15.785  -5.490  1.00  0.00     0.016 C 
ATOM     21  C   UNL     1      13.870  14.579  -5.646  1.00  0.00     0.016 C 
ENDBRANCH  17  18
ENDBRANCH  11  12
ENDBRANCH   7  11
ENDBRANCH   2   3
ENDBRANCH   1   2
BRANCH   1  22
ATOM     22  C   UNL     1      11.164   5.221 -11.330  1.00  0.00     0.036 C 
BRANCH  22  23
ATOM     23  C   UNL     1      10.580   4.948  -9.966  1.00  0.00    -0.048 A 
ATOM     24  C   UNL     1       9.899   3.758  -9.704  1.00  0.00     0.004 A 
ATOM     25  C   UNL     1      10.711   5.887  -8.939  1.00  0.00     0.004 A 
ATOM     26  C   UNL     1       9.363   3.514  -8.435  1.00  0.00     0.010 A 
ATOM     27  C   UNL     1      10.169   5.637  -7.671  1.00  0.00     0.010 A 
ATOM     28  C   UNL     1       9.486   4.443  -7.386  1.00  0.00     0.000 A 
BRANCH  28  29
ATOM     29  C   UNL     1       8.899   4.159  -6.056  1.00  0.00     0.070 A 
ATOM     30  C   UNL     1       9.608   3.555  -5.015  1.00  0.00     0.031 A 
ATOM     31  N   UNL     1       7.595   4.514  -5.901  1.00  0.00    -0.254 NA
ATOM     32  C   UNL     1       8.977   3.319  -3.791  1.00  0.00     0.030 A 
ATOM     33  C   UNL     1       7.006   4.275  -4.706  1.00  0.00     0.138 A 
ATOM     34  C   UNL     1       7.650   3.688  -3.626  1.00  0.00     0.067 A 
BRANCH  34  35
ATOM     35  N   UNL     1       6.951   3.404  -2.417  1.00  0.00    -0.278 N 
ATOM     36  H   UNL     1       7.256   2.602  -1.866  1.00  0.00     0.180 HD
BRANCH  35  37
ATOM     37  S   UNL     1       6.485   4.698  -1.431  1.00  0.00     0.261 S 
ATOM     38  O   UNL     1       6.155   4.201  -0.112  1.00  0.00    -0.201 OA
ATOM     39  O   UNL     1       7.489   5.724  -1.621  1.00  0.00    -0.201 OA
BRANCH  37  40
ATOM     40  C   UNL     1       4.986   5.269  -2.201  1.00  0.00     0.087 A 
ATOM     41  C   UNL     1       4.982   6.496  -2.872  1.00  0.00     0.022 A 
ATOM     42  C   UNL     1       3.819   4.505  -2.100  1.00  0.00     0.022 A 
ATOM     43  C   UNL     1       3.805   6.945  -3.472  1.00  0.00     0.001 A 
ATOM     44  C   UNL     1       2.648   4.961  -2.704  1.00  0.00     0.001 A 
ATOM     45  C   UNL     1       2.643   6.177  -3.390  1.00  0.00     0.000 A 
ENDBRANCH  37  40
ENDBRANCH  35  37
ENDBRANCH  34  35
ENDBRANCH  28  29
ENDBRANCH  22  23
ENDBRANCH   1  22
TORSDOF 12
ENDMDL
MODEL 6
REMARK VINA RESULT:    -7.896      4.815     10.273
REMARK INTER + INTRA:         -14.847
REMARK INTER:                 -13.022
REMARK INTRA:                  -1.824
REMARK UNBOUND:                -1.411
REMARK SMILES CCn1c(CCCc2ccc(-c3ccc(NS(=O)(=O)c4ccccc4)cn3)cc2)nn(Cc2ccc(C(C)(C)C)cc2)c1=O
REMARK SMILES IDX 6 1 5 2 4 3 3 4 43 5 30 6 31 7 44 8 2 9 1 10 32 11 33 12
REMARK SMILES IDX 34 13 42 14 35 15 41 16 36 17 37 18 38 19 39 20 40 21 7 22
REMARK SMILES IDX 8 23 9 24 29 25 10 26 28 27 11 28 12 29 13 30 27 31 14 32
REMARK SMILES IDX 26 33 15 34 16 35 17 37 18 38 19 39 20 40 21 41 25 42 22 43
REMARK SMILES IDX 24 44 23 45
REMARK H PARENT 16 36
ROOT
ATOM      1  C   UNL     1       3.355   7.222  -4.599  1.00  0.00     0.013 C 
ENDROOT
BRANCH   1   2
ATOM      2  C   UNL     1       3.981   5.826  -4.618  1.00  0.00     0.078 C 
BRANCH   2   3
ATOM      3  C   UNL     1       4.650   5.415  -3.335  1.00  0.00     0.133 A 
ATOM      4  N   UNL     1       3.939   4.911  -2.304  1.00  0.00    -0.279 N 
ATOM      5  C   UNL     1       4.852   4.621  -1.320  1.00  0.00     0.346 A 
ATOM      6  N   UNL     1       5.934   5.474  -3.127  1.00  0.00    -0.155 NA
ATOM      7  N   UNL     1       6.087   4.984  -1.851  1.00  0.00    -0.209 N 
ATOM      8  O   UNL     1       4.624   4.151  -0.216  1.00  0.00    -0.246 OA
BRANCH   4   9
ATOM      9  C   UNL     1       2.512   4.690  -2.180  1.00  0.00     0.125 C 
ATOM     10  C   UNL     1       1.912   5.537  -1.069  1.00  0.00     0.028 C 
ENDBRANCH   4   9
BRANCH   7  11
ATOM     11  C   UNL     1       7.369   4.818  -1.213  1.00  0.00     0.185 C 
BRANCH  11  12
ATOM     12  C   UNL     1       8.246   3.836  -1.952  1.00  0.00    -0.026 A 
ATOM     13  C   UNL     1       7.837   2.513  -2.132  1.00  0.00     0.006 A 
ATOM     14  C   UNL     1       9.501   4.220  -2.431  1.00  0.00     0.006 A 
ATOM     15  C   UNL     1       8.660   1.600  -2.800  1.00  0.00     0.004 A 
ATOM     16  C   UNL     1      10.323   3.303  -3.099  1.00  0.00     0.004 A 
ATOM     17  C   UNL     1       9.921   1.973  -3.300  1.00  0.00    -0.043 A 
BRANCH  17  18
ATOM     18  C   UNL     1      10.797   0.941  -4.032  1.00  0.00    -0.013 C 
ATOM     19  C   UNL     1      12.086   0.693  -3.218  1.00  0.00     0.016 C 
ATOM     20  C   UNL     1      10.112  -0.429  -4.234  1.00  0.00     0.016 C 
ATOM     21  C   UNL     1      11.174   1.474  -5.432  1.00  0.00     0.016 C 
ENDBRANCH  17  18
ENDBRANCH  11  12
ENDBRANCH   7  11
ENDBRANCH   2   3
ENDBRANCH   1   2
BRANCH   1  22
ATOM     22  C   UNL     1       3.933   8.181  -3.552  1.00  0.00     0.036 C 
BRANCH  22  23
ATOM     23  C   UNL     1       5.181   8.905  -3.995  1.00  0.00    -0.048 A 
ATOM     24  C   UNL     1       5.993   9.564  -3.070  1.00  0.00     0.004 A 
ATOM     25  C   UNL     1       5.544   8.928  -5.345  1.00  0.00     0.004 A 
ATOM     26  C   UNL     1       7.148  10.230  -3.492  1.00  0.00     0.010 A 
ATOM     27  C   UNL     1       6.701   9.599  -5.760  1.00  0.00     0.010 A 
ATOM     28  C   UNL     1       7.535  10.263  -4.844  1.00  0.00     0.000 A 
BRANCH  28  29
ATOM     29  C   UNL     1       8.760  10.985  -5.259  1.00  0.00     0.070 A 
ATOM     30  C   UNL     1       9.077  11.259  -6.592  1.00  0.00     0.031 A 
ATOM     31  N   UNL     1       9.588  11.365  -4.251  1.00  0.00    -0.254 NA
ATOM     32  C   UNL     1      10.256  11.943  -6.898  1.00  0.00     0.030 A 
ATOM     33  C   UNL     1      10.725  12.027  -4.572  1.00  0.00     0.138 A 
ATOM     34  C   UNL     1      11.100  12.341  -5.871  1.00  0.00     0.067 A 
BRANCH  34  35
ATOM     35  N   UNL     1      12.343  12.981  -6.144  1.00  0.00    -0.278 N 
ATOM     36  H   UNL     1      12.889  12.645  -6.937  1.00  0.00     0.180 HD
BRANCH  35  37
ATOM     37  S   UNL     1      12.435  14.664  -5.990  1.00  0.00     0.261 S 
ATOM     38  O   UNL     1      11.447  15.278  -6.851  1.00  0.00    -0.201 OA
ATOM     39  O   UNL     1      12.467  14.932  -4.568  1.00  0.00    -0.201 OA
BRANCH  37  40
ATOM     40  C   UNL     1      14.049  15.038  -6.641  1.00  0.00     0.087 A 
ATOM     41  C   UNL     1      14.200  15.269  -8.012  1.00  0.00     0.022 A 
ATOM     42  C   UNL     1      15.153  15.065  -5.784  1.00  0.00     0.022 A 
ATOM     43  C   UNL     1      15.466  15.559  -8.521  1.00  0.00     0.001 A 
ATOM     44  C   UNL     1      16.414  15.357  -6.302  1.00  0.00     0.001 A 
ATOM     45  C   UNL     1      16.569  15.605  -7.667  1.00  0.00     0.000 A 
ENDBRANCH  37  40
ENDBRANCH  35  37
ENDBRANCH  34  35
ENDBRANCH  28  29
ENDBRANCH  22  23
ENDBRANCH   1  22
TORSDOF 12
ENDMDL
MODEL 7
REMARK VINA RESULT:    -7.873      2.327      5.980
REMARK INTER + INTRA:         -14.807
REMARK INTER:                 -13.744
REMARK INTRA:                  -1.062
REMARK UNBOUND:                -1.411
REMARK SMILES CCn1c(CCCc2ccc(-c3ccc(NS(=O)(=O)c4ccccc4)cn3)cc2)nn(Cc2ccc(C(C)(C)C)cc2)c1=O
REMARK SMILES IDX 6 1 5 2 4 3 3 4 43 5 30 6 31 7 44 8 2 9 1 10 32 11 33 12
REMARK SMILES IDX 34 13 42 14 35 15 41 16 36 17 37 18 38 19 39 20 40 21 7 22
REMARK SMILES IDX 8 23 9 24 29 25 10 26 28 27 11 28 12 29 13 30 27 31 14 32
REMARK SMILES IDX 26 33 15 34 16 35 17 37 18 38 19 39 20 40 21 41 25 42 22 43
REMARK SMILES IDX 24 44 23 45
REMARK H PARENT 16 36
ROOT
ATOM      1  C   UNL     1      11.417   5.639 -11.989  1.00  0.00     0.013 C 
ENDROOT
BRANCH   1   2
ATOM      2  C   UNL     1      12.175   6.931 -12.298  1.00  0.00     0.078 C 
BRANCH   2   3
ATOM      3  C   UNL     1      11.549   8.181 -11.741  1.00  0.00     0.133 A 
ATOM      4  N   UNL     1      11.606   9.351 -12.411  1.00  0.00    -0.279 N 
ATOM      5  C   UNL     1      10.924  10.262 -11.642  1.00  0.00     0.346 A 
ATOM      6  N   UNL     1      10.892   8.233 -10.618  1.00  0.00    -0.155 NA
ATOM      7  N   UNL     1      10.492   9.546 -10.529  1.00  0.00    -0.209 N 
ATOM      8  O   UNL     1      10.741  11.444 -11.885  1.00  0.00    -0.246 OA
BRANCH   4   9
ATOM      9  C   UNL     1      12.235   9.667 -13.679  1.00  0.00     0.125 C 
ATOM     10  C   UNL     1      11.203   9.887 -14.773  1.00  0.00     0.028 C 
ENDBRANCH   4   9
BRANCH   7  11
ATOM     11  C   UNL     1       9.679  10.055  -9.453  1.00  0.00     0.185 C 
BRANCH  11  12
ATOM     12  C   UNL     1      10.393  11.121  -8.659  1.00  0.00    -0.026 A 
ATOM     13  C   UNL     1       9.913  12.432  -8.633  1.00  0.00     0.006 A 
ATOM     14  C   UNL     1      11.572  10.828  -7.968  1.00  0.00     0.006 A 
ATOM     15  C   UNL     1      10.587  13.423  -7.913  1.00  0.00     0.004 A 
ATOM     16  C   UNL     1      12.246  11.822  -7.247  1.00  0.00     0.004 A 
ATOM     17  C   UNL     1      11.768  13.141  -7.201  1.00  0.00    -0.043 A 
BRANCH  17  18
ATOM     18  C   UNL     1      12.481  14.257  -6.418  1.00  0.00    -0.013 C 
ATOM     19  C   UNL     1      11.820  15.615  -6.740  1.00  0.00     0.016 C 
ATOM     20  C   UNL     1      12.432  14.075  -4.885  1.00  0.00     0.016 C 
ATOM     21  C   UNL     1      13.971  14.310  -6.823  1.00  0.00     0.016 C 
ENDBRANCH  17  18
ENDBRANCH  11  12
ENDBRANCH   7  11
ENDBRANCH   2   3
ENDBRANCH   1   2
BRANCH   1  22
ATOM     22  C   UNL     1      11.824   4.941 -10.686  1.00  0.00     0.036 C 
BRANCH  22  23
ATOM     23  C   UNL     1      10.771   4.979  -9.606  1.00  0.00    -0.048 A 
ATOM     24  C   UNL     1       9.918   3.894  -9.400  1.00  0.00     0.004 A 
ATOM     25  C   UNL     1      10.631   6.108  -8.794  1.00  0.00     0.004 A 
ATOM     26  C   UNL     1       8.946   3.939  -8.395  1.00  0.00     0.010 A 
ATOM     27  C   UNL     1       9.653   6.148  -7.791  1.00  0.00     0.010 A 
ATOM     28  C   UNL     1       8.790   5.063  -7.563  1.00  0.00     0.000 A 
BRANCH  28  29
ATOM     29  C   UNL     1       7.745   5.083  -6.514  1.00  0.00     0.070 A 
ATOM     30  C   UNL     1       7.807   4.312  -5.351  1.00  0.00     0.031 A 
ATOM     31  N   UNL     1       6.687   5.904  -6.754  1.00  0.00    -0.254 NA
ATOM     32  C   UNL     1       6.774   4.388  -4.412  1.00  0.00     0.030 A 
ATOM     33  C   UNL     1       5.700   5.961  -5.829  1.00  0.00     0.138 A 
ATOM     34  C   UNL     1       5.698   5.231  -4.649  1.00  0.00     0.067 A 
BRANCH  34  35
ATOM     35  N   UNL     1       4.595   5.287  -3.749  1.00  0.00    -0.278 N 
ATOM     36  H   UNL     1       4.115   4.415  -3.527  1.00  0.00     0.180 HD
BRANCH  35  37
ATOM     37  S   UNL     1       4.704   6.302  -2.400  1.00  0.00     0.261 S 
ATOM     38  O   UNL     1       3.451   6.272  -1.675  1.00  0.00    -0.201 OA
ATOM     39  O   UNL     1       5.957   5.971  -1.754  1.00  0.00    -0.201 OA
BRANCH  37  40
ATOM     40  C   UNL     1       4.888   7.916  -3.125  1.00  0.00     0.087 A 
ATOM     41  C   UNL     1       4.019   8.313  -4.147  1.00  0.00     0.022 A 
ATOM     42  C   UNL     1       5.916   8.758  -2.693  1.00  0.00     0.022 A 
ATOM     43  C   UNL     1       4.166   9.578  -4.718  1.00  0.00     0.001 A 
ATOM     44  C   UNL     1       6.054  10.021  -3.268  1.00  0.00     0.001 A 
ATOM     45  C   UNL     1       5.180  10.430  -4.277  1.00  0.00     0.000 A 
ENDBRANCH  37  40
ENDBRANCH  35  37
ENDBRANCH  34  35
ENDBRANCH  28  29
ENDBRANCH  22  23
ENDBRANCH   1  22
TORSDOF 12
ENDMDL
MODEL 8
REMARK VINA RESULT:    -7.796      4.013      7.412
REMARK INTER + INTRA:         -14.676
REMARK INTER:                 -13.950
REMARK INTRA:                  -0.726
REMARK UNBOUND:                -1.411
REMARK SMILES CCn1c(CCCc2ccc(-c3ccc(NS(=O)(=O)c4ccccc4)cn3)cc2)nn(Cc2ccc(C(C)(C)C)cc2)c1=O
REMARK SMILES IDX 6 1 5 2 4 3 3 4 43 5 30 6 31 7 44 8 2 9 1 10 32 11 33 12
REMARK SMILES IDX 34 13 42 14 35 15 41 16 36 17 37 18 38 19 39 20 40 21 7 22
REMARK SMILES IDX 8 23 9 24 29 25 10 26 28 27 11 28 12 29 13 30 27 31 14 32
REMARK SMILES IDX 26 33 15 34 16 35 17 37 18 38 19 39 20 40 21 41 25 42 22 43
REMARK SMILES IDX 24 44 23 45
REMARK H PARENT 16 36
ROOT
ATOM      1  C   UNL     1      11.021  11.123 -10.301  1.00  0.00     0.013 C 
ENDROOT
BRANCH   1   2
ATOM      2  C   UNL     1      10.121  12.228  -9.744  1.00  0.00     0.078 C 
BRANCH   2   3
ATOM      3  C   UNL     1      10.193  12.411  -8.252  1.00  0.00     0.133 A 
ATOM      4  N   UNL     1      10.370  13.632  -7.705  1.00  0.00    -0.279 N 
ATOM      5  C   UNL     1      10.362  13.442  -6.344  1.00  0.00     0.346 A 
ATOM      6  N   UNL     1      10.062  11.445  -7.389  1.00  0.00    -0.155 NA
ATOM      7  N   UNL     1      10.174  12.073  -6.170  1.00  0.00    -0.209 N 
ATOM      8  O   UNL     1      10.495  14.292  -5.478  1.00  0.00    -0.246 OA
BRANCH   4   9
ATOM      9  C   UNL     1      10.540  14.922  -8.344  1.00  0.00     0.125 C 
ATOM     10  C   UNL     1       9.229  15.687  -8.413  1.00  0.00     0.028 C 
ENDBRANCH   4   9
BRANCH   7  11
ATOM     11  C   UNL     1      10.038  11.387  -4.909  1.00  0.00     0.185 C 
BRANCH  11  12
ATOM     12  C   UNL     1       8.690  10.726  -4.766  1.00  0.00    -0.026 A 
ATOM     13  C   UNL     1       8.009  10.247  -5.887  1.00  0.00     0.006 A 
ATOM     14  C   UNL     1       8.077  10.617  -3.514  1.00  0.00     0.006 A 
ATOM     15  C   UNL     1       6.751   9.652  -5.755  1.00  0.00     0.004 A 
ATOM     16  C   UNL     1       6.816  10.021  -3.384  1.00  0.00     0.004 A 
ATOM     17  C   UNL     1       6.125   9.523  -4.501  1.00  0.00    -0.043 A 
BRANCH  17  18
ATOM     18  C   UNL     1       4.740   8.860  -4.394  1.00  0.00    -0.013 C 
ATOM     19  C   UNL     1       4.745   7.531  -5.180  1.00  0.00     0.016 C 
ATOM     20  C   UNL     1       4.313   8.535  -2.946  1.00  0.00     0.016 C 
ATOM     21  C   UNL     1       3.665   9.798  -4.987  1.00  0.00     0.016 C 
ENDBRANCH  17  18
ENDBRANCH  11  12
ENDBRANCH   7  11
ENDBRANCH   2   3
ENDBRANCH   1   2
BRANCH   1  22
ATOM     22  C   UNL     1      10.282   9.957 -10.970  1.00  0.00     0.036 C 
BRANCH  22  23
ATOM     23  C   UNL     1      10.165   8.723 -10.111  1.00  0.00    -0.048 A 
ATOM     24  C   UNL     1       9.707   8.808  -8.795  1.00  0.00     0.004 A 
ATOM     25  C   UNL     1      10.514   7.469 -10.620  1.00  0.00     0.004 A 
ATOM     26  C   UNL     1       9.600   7.658  -8.007  1.00  0.00     0.010 A 
ATOM     27  C   UNL     1      10.407   6.321  -9.825  1.00  0.00     0.010 A 
ATOM     28  C   UNL     1       9.942   6.385  -8.501  1.00  0.00     0.000 A 
BRANCH  28  29
ATOM     29  C   UNL     1       9.826   5.187  -7.638  1.00  0.00     0.070 A 
ATOM     30  C   UNL     1       9.374   3.948  -8.099  1.00  0.00     0.031 A 
ATOM     31  N   UNL     1      10.180   5.363  -6.337  1.00  0.00    -0.254 NA
ATOM     32  C   UNL     1       9.290   2.868  -7.217  1.00  0.00     0.030 A 
ATOM     33  C   UNL     1      10.090   4.301  -5.501  1.00  0.00     0.138 A 
ATOM     34  C   UNL     1       9.659   3.041  -5.890  1.00  0.00     0.067 A 
BRANCH  34  35
ATOM     35  N   UNL     1       9.525   1.984  -4.944  1.00  0.00    -0.278 N 
ATOM     36  H   UNL     1       9.661   1.028  -5.274  1.00  0.00     0.180 HD
BRANCH  35  37
ATOM     37  S   UNL     1      10.161   2.205  -3.392  1.00  0.00     0.261 S 
ATOM     38  O   UNL     1      10.123   3.613  -3.055  1.00  0.00    -0.201 OA
ATOM     39  O   UNL     1       9.519   1.213  -2.554  1.00  0.00    -0.201 OA
BRANCH  37  40
ATOM     40  C   UNL     1      11.863   1.724  -3.582  1.00  0.00     0.087 A 
ATOM     41  C   UNL     1      12.825   2.240  -2.708  1.00  0.00     0.022 A 
ATOM     42  C   UNL     1      12.228   0.863  -4.621  1.00  0.00     0.022 A 
ATOM     43  C   UNL     1      14.160   1.865  -2.861  1.00  0.00     0.001 A 
ATOM     44  C   UNL     1      13.565   0.492  -4.765  1.00  0.00     0.001 A 
ATOM     45  C   UNL     1      14.527   0.991  -3.885  1.00  0.00     0.000 A 
ENDBRANCH  37  40
ENDBRANCH  35  37
ENDBRANCH  34  35
ENDBRANCH  28  29
ENDBRANCH  22  23
ENDBRANCH   1  22
TORSDOF 12
ENDMDL
MODEL 9
REMARK VINA RESULT:    -7.775      4.118      7.326
REMARK INTER + INTRA:         -14.640
REMARK INTER:                 -14.403
REMARK INTRA:                  -0.238
REMARK UNBOUND:                -1.411
REMARK SMILES CCn1c(CCCc2ccc(-c3ccc(NS(=O)(=O)c4ccccc4)cn3)cc2)nn(Cc2ccc(C(C)(C)C)cc2)c1=O
REMARK SMILES IDX 6 1 5 2 4 3 3 4 43 5 30 6 31 7 44 8 2 9 1 10 32 11 33 12
REMARK SMILES IDX 34 13 42 14 35 15 41 16 36 17 37 18 38 19 39 20 40 21 7 22
REMARK SMILES IDX 8 23 9 24 29 25 10 26 28 27 11 28 12 29 13 30 27 31 14 32
REMARK SMILES IDX 26 33 15 34 16 35 17 37 18 38 19 39 20 40 21 41 25 42 22 43
REMARK SMILES IDX 24 44 23 45
REMARK H PARENT 16 36
ROOT
ATOM      1  C   UNL     1      12.265   7.339 -13.114  1.00  0.00     0.013 C 
ENDROOT
BRANCH   1   2
ATOM      2  C   UNL     1      11.020   8.215 -13.258  1.00  0.00     0.078 C 
BRANCH   2   3
ATOM      3  C   UNL     1      10.783   9.172 -12.122  1.00  0.00     0.133 A 
ATOM      4  N   UNL     1      10.758  10.506 -12.324  1.00  0.00    -0.279 N 
ATOM      5  C   UNL     1      10.496  11.070 -11.099  1.00  0.00     0.346 A 
ATOM      6  N   UNL     1      10.555   8.807 -10.893  1.00  0.00    -0.155 NA
ATOM      7  N   UNL     1      10.378   9.995 -10.222  1.00  0.00    -0.209 N 
ATOM      8  O   UNL     1      10.394  12.258 -10.839  1.00  0.00    -0.246 OA
BRANCH   4   9
ATOM      9  C   UNL     1      10.956  11.266 -13.542  1.00  0.00     0.125 C 
ATOM     10  C   UNL     1       9.705  11.271 -14.405  1.00  0.00     0.028 C 
ENDBRANCH   4   9
BRANCH   7  11
ATOM     11  C   UNL     1      10.048  10.072  -8.820  1.00  0.00     0.185 C 
BRANCH  11  12
ATOM     12  C   UNL     1      10.626  11.304  -8.169  1.00  0.00    -0.026 A 
ATOM     13  C   UNL     1      11.992  11.387  -7.891  1.00  0.00     0.006 A 
ATOM     14  C   UNL     1       9.802  12.368  -7.794  1.00  0.00     0.006 A 
ATOM     15  C   UNL     1      12.524  12.521  -7.270  1.00  0.00     0.004 A 
ATOM     16  C   UNL     1      10.336  13.504  -7.172  1.00  0.00     0.004 A 
ATOM     17  C   UNL     1      11.710  13.607  -6.897  1.00  0.00    -0.043 A 
BRANCH  17  18
ATOM     18  C   UNL     1      12.331  14.840  -6.218  1.00  0.00    -0.013 C 
ATOM     19  C   UNL     1      11.219  15.858  -5.885  1.00  0.00     0.016 C 
ATOM     20  C   UNL     1      13.069  14.521  -4.899  1.00  0.00     0.016 C 
ATOM     21  C   UNL     1      13.356  15.499  -7.167  1.00  0.00     0.016 C 
ENDBRANCH  17  18
ENDBRANCH  11  12
ENDBRANCH   7  11
ENDBRANCH   2   3
ENDBRANCH   1   2
BRANCH   1  22
ATOM     22  C   UNL     1      11.991   5.841 -12.929  1.00  0.00     0.036 C 
BRANCH  22  23
ATOM     23  C   UNL     1      11.384   5.482 -11.595  1.00  0.00    -0.048 A 
ATOM     24  C   UNL     1      10.354   4.543 -11.508  1.00  0.00     0.004 A 
ATOM     25  C   UNL     1      11.843   6.087 -10.422  1.00  0.00     0.004 A 
ATOM     26  C   UNL     1       9.800   4.216 -10.266  1.00  0.00     0.010 A 
ATOM     27  C   UNL     1      11.282   5.756  -9.182  1.00  0.00     0.010 A 
ATOM     28  C   UNL     1      10.249   4.809  -9.072  1.00  0.00     0.000 A 
BRANCH  28  29
ATOM     29  C   UNL     1       9.635   4.447  -7.774  1.00  0.00     0.070 A 
ATOM     30  C   UNL     1       8.551   5.131  -7.218  1.00  0.00     0.031 A 
ATOM     31  N   UNL     1      10.204   3.395  -7.127  1.00  0.00    -0.254 NA
ATOM     32  C   UNL     1       8.033   4.727  -5.985  1.00  0.00     0.030 A 
ATOM     33  C   UNL     1       9.685   3.021  -5.934  1.00  0.00     0.138 A 
ATOM     34  C   UNL     1       8.606   3.648  -5.326  1.00  0.00     0.067 A 
BRANCH  34  35
ATOM     35  N   UNL     1       8.151   3.246  -4.037  1.00  0.00    -0.278 N 
ATOM     36  H   UNL     1       7.463   2.495  -3.987  1.00  0.00     0.180 HD
BRANCH  35  37
ATOM     37  S   UNL     1       9.277   3.147  -2.778  1.00  0.00     0.261 S 
ATOM     38  O   UNL     1      10.061   4.364  -2.741  1.00  0.00    -0.201 OA
ATOM     39  O   UNL     1       8.539   2.691  -1.619  1.00  0.00    -0.201 OA
BRANCH  37  40
ATOM     40  C   UNL     1      10.339   1.816  -3.294  1.00  0.00     0.087 A 
ATOM     41  C   UNL     1      11.726   1.994  -3.268  1.00  0.00     0.022 A 
ATOM     42  C   UNL     1       9.780   0.619  -3.750  1.00  0.00     0.022 A 
ATOM     43  C   UNL     1      12.558   0.951  -3.675  1.00  0.00     0.001 A 
ATOM     44  C   UNL     1      10.619  -0.419  -4.154  1.00  0.00     0.001 A 
ATOM     45  C   UNL     1      12.005  -0.253  -4.115  1.00  0.00     0.000 A 
ENDBRANCH  37  40
ENDBRANCH  35  37
ENDBRANCH  34  35
ENDBRANCH  28  29
ENDBRANCH  22  23
ENDBRANCH   1  22
TORSDOF 12
ENDMDL
