MODEL 1
REMARK VINA RESULT:    -8.356      0.000      0.000
REMARK INTER + INTRA:         -13.209
REMARK INTER:                 -12.509
REMARK INTRA:                  -0.701
REMARK UNBOUND:                -0.701
REMARK SMILES CC[C@H](NC(=O)c1ccc2c(c1)cc(C)n2Cc1ccc(-c2ccccc2C(=O)O)cc1)c1ccccc1
REMARK SMILES IDX 17 1 16 2 7 3 8 4 12 5 9 6 11 7 10 8 13 9 14 10 15 11 5 12
REMARK SMILES IDX 4 13 6 14 3 16 2 17 1 18 33 19 34 20 38 21 35 22 37 23 36 24
REMARK SMILES IDX 18 25 19 26 32 27 20 28 31 29 21 30 22 31 23 32 27 33 24 34
REMARK SMILES IDX 26 35 25 36 28 37 29 38 30 39
REMARK H PARENT 4 15 30 40
ROOT
ATOM      1  C   UNL     1       9.948  11.251  -8.326  1.00  0.00     0.157 C 
ENDROOT
BRANCH   1   2
ATOM      2  N   UNL     1       9.872  11.331  -6.868  1.00  0.00    -0.340 N 
ATOM      3  C   UNL     1       7.074   9.990  -4.105  1.00  0.00     0.040 A 
ATOM      4  C   UNL     1       6.807   9.699  -5.445  1.00  0.00     0.016 A 
ATOM      5  C   UNL     1       8.256  10.657  -3.753  1.00  0.00     0.024 A 
ATOM      6  C   UNL     1       7.685  10.095  -6.461  1.00  0.00     0.028 A 
ATOM      7  C   UNL     1       9.149  11.070  -4.764  1.00  0.00     0.001 A 
ATOM      8  C   UNL     1       8.848  10.794  -6.100  1.00  0.00     0.049 A 
ATOM      9  C   UNL     1      10.391  11.751  -4.743  1.00  0.00     0.031 A 
ATOM     10  C   UNL     1      10.827  11.902  -6.045  1.00  0.00     0.016 A 
ATOM     11  C   UNL     1      12.068  12.557  -6.538  1.00  0.00     0.064 C 
BRANCH   3  12
ATOM     12  C   UNL     1       6.076   9.563  -3.084  1.00  0.00     0.251 C 
ATOM     13  N   UNL     1       5.298   8.474  -3.404  1.00  0.00    -0.345 N 
ATOM     14  O   UNL     1       6.009  10.147  -2.006  1.00  0.00    -0.269 OA
ATOM     15  H   UNL     1       5.481   7.952  -4.250  1.00  0.00     0.164 HD
BRANCH  13  16
ATOM     16  C   UNL     1       4.303   7.939  -2.484  1.00  0.00     0.112 C 
BRANCH  16  17
ATOM     17  C   UNL     1       2.904   7.920  -3.134  1.00  0.00     0.026 C 
ATOM     18  C   UNL     1       2.951   7.679  -4.637  1.00  0.00     0.006 C 
ENDBRANCH  16  17
BRANCH  16  19
ATOM     19  C   UNL     1       4.769   6.576  -1.996  1.00  0.00    -0.026 A 
ATOM     20  C   UNL     1       4.051   5.917  -0.986  1.00  0.00     0.006 A 
ATOM     21  C   UNL     1       5.927   5.962  -2.504  1.00  0.00     0.006 A 
ATOM     22  C   UNL     1       4.467   4.671  -0.511  1.00  0.00     0.000 A 
ATOM     23  C   UNL     1       6.341   4.715  -2.028  1.00  0.00     0.000 A 
ATOM     24  C   UNL     1       5.608   4.069  -1.034  1.00  0.00     0.000 A 
ENDBRANCH  16  19
ENDBRANCH  13  16
ENDBRANCH   3  12
ENDBRANCH   1   2
BRANCH   1  25
ATOM     25  C   UNL     1      10.080   9.830  -8.822  1.00  0.00    -0.028 A 
ATOM     26  C   UNL     1      10.315   8.773  -7.932  1.00  0.00     0.006 A 
ATOM     27  C   UNL     1       9.990   9.543 -10.191  1.00  0.00     0.006 A 
ATOM     28  C   UNL     1      10.439   7.461  -8.399  1.00  0.00     0.009 A 
ATOM     29  C   UNL     1      10.111   8.229 -10.655  1.00  0.00     0.009 A 
ATOM     30  C   UNL     1      10.332   7.167  -9.766  1.00  0.00    -0.018 A 
BRANCH  30  31
ATOM     31  C   UNL     1      10.449   5.782 -10.252  1.00  0.00    -0.004 A 
ATOM     32  C   UNL     1       9.811   4.745  -9.544  1.00  0.00     0.009 A 
ATOM     33  C   UNL     1      11.143   5.437 -11.430  1.00  0.00     0.067 A 
ATOM     34  C   UNL     1       9.844   3.425 -10.004  1.00  0.00     0.001 A 
ATOM     35  C   UNL     1      11.158   4.117 -11.904  1.00  0.00     0.016 A 
ATOM     36  C   UNL     1      10.511   3.111 -11.186  1.00  0.00     0.001 A 
BRANCH  33  37
ATOM     37  C   UNL     1      11.877   6.434 -12.230  1.00  0.00     0.336 C 
ATOM     38  O   UNL     1      12.970   6.898 -11.963  1.00  0.00    -0.246 OA
BRANCH  37  39
ATOM     39  O   UNL     1      11.152   6.849 -13.281  1.00  0.00    -0.478 OA
ATOM     40  H   UNL     1      10.222   6.694 -13.020  1.00  0.00     0.297 HD
ENDBRANCH  37  39
ENDBRANCH  33  37
ENDBRANCH  30  31
ENDBRANCH   1  25
TORSDOF 9
ENDMDL
MODEL 2
REMARK VINA RESULT:    -8.082      2.973      5.378
REMARK INTER + INTRA:         -12.800
REMARK INTER:                 -13.912
REMARK INTRA:                   1.112
REMARK UNBOUND:                -0.701
REMARK SMILES CC[C@H](NC(=O)c1ccc2c(c1)cc(C)n2Cc1ccc(-c2ccccc2C(=O)O)cc1)c1ccccc1
REMARK SMILES IDX 17 1 16 2 7 3 8 4 12 5 9 6 11 7 10 8 13 9 14 10 15 11 5 12
REMARK SMILES IDX 4 13 6 14 3 16 2 17 1 18 33 19 34 20 38 21 35 22 37 23 36 24
REMARK SMILES IDX 18 25 19 26 32 27 20 28 31 29 21 30 22 31 23 32 27 33 24 34
REMARK SMILES IDX 26 35 25 36 28 37 29 38 30 39
REMARK H PARENT 4 15 30 40
ROOT
ATOM      1  C   UNL     1       9.715   2.999  -7.572  1.00  0.00     0.157 C 
ENDROOT
BRANCH   1   2
ATOM      2  N   UNL     1       9.193   3.241  -6.227  1.00  0.00    -0.340 N 
ATOM      3  C   UNL     1       5.988   5.465  -4.797  1.00  0.00     0.040 A 
ATOM      4  C   UNL     1       6.163   5.454  -6.183  1.00  0.00     0.016 A 
ATOM      5  C   UNL     1       6.841   4.713  -3.976  1.00  0.00     0.024 A 
ATOM      6  C   UNL     1       7.204   4.732  -6.776  1.00  0.00     0.028 A 
ATOM      7  C   UNL     1       7.900   3.985  -4.556  1.00  0.00     0.001 A 
ATOM      8  C   UNL     1       8.074   4.012  -5.942  1.00  0.00     0.049 A 
ATOM      9  C   UNL     1       8.914   3.153  -4.020  1.00  0.00     0.031 A 
ATOM     10  C   UNL     1       9.700   2.699  -5.060  1.00  0.00     0.016 A 
ATOM     11  C   UNL     1      10.891   1.808  -5.004  1.00  0.00     0.064 C 
BRANCH   3  12
ATOM     12  C   UNL     1       4.876   6.283  -4.237  1.00  0.00     0.251 C 
ATOM     13  N   UNL     1       5.233   7.303  -3.384  1.00  0.00    -0.345 N 
ATOM     14  O   UNL     1       3.717   6.061  -4.574  1.00  0.00    -0.269 OA
ATOM     15  H   UNL     1       6.209   7.524  -3.241  1.00  0.00     0.164 HD
BRANCH  13  16
ATOM     16  C   UNL     1       4.245   8.193  -2.789  1.00  0.00     0.112 C 
BRANCH  16  17
ATOM     17  C   UNL     1       3.210   8.649  -3.839  1.00  0.00     0.026 C 
ATOM     18  C   UNL     1       3.819   9.510  -4.938  1.00  0.00     0.006 C 
ENDBRANCH  16  17
BRANCH  16  19
ATOM     19  C   UNL     1       3.627   7.503  -1.583  1.00  0.00    -0.026 A 
ATOM     20  C   UNL     1       2.681   8.185  -0.802  1.00  0.00     0.006 A 
ATOM     21  C   UNL     1       4.002   6.204  -1.198  1.00  0.00     0.006 A 
ATOM     22  C   UNL     1       2.111   7.578   0.320  1.00  0.00     0.000 A 
ATOM     23  C   UNL     1       3.429   5.599  -0.076  1.00  0.00     0.000 A 
ATOM     24  C   UNL     1       2.481   6.286   0.680  1.00  0.00     0.000 A 
ENDBRANCH  16  19
ENDBRANCH  13  16
ENDBRANCH   3  12
ENDBRANCH   1   2
BRANCH   1  25
ATOM     25  C   UNL     1       9.920   4.277  -8.351  1.00  0.00    -0.028 A 
ATOM     26  C   UNL     1       9.898   4.281  -9.753  1.00  0.00     0.006 A 
ATOM     27  C   UNL     1      10.158   5.486  -7.684  1.00  0.00     0.006 A 
ATOM     28  C   UNL     1      10.092   5.468 -10.466  1.00  0.00     0.009 A 
ATOM     29  C   UNL     1      10.348   6.673  -8.399  1.00  0.00     0.009 A 
ATOM     30  C   UNL     1      10.313   6.683  -9.801  1.00  0.00    -0.018 A 
BRANCH  30  31
ATOM     31  C   UNL     1      10.503   7.933 -10.557  1.00  0.00    -0.004 A 
ATOM     32  C   UNL     1      10.822   7.870 -11.928  1.00  0.00     0.009 A 
ATOM     33  C   UNL     1      10.340   9.210  -9.983  1.00  0.00     0.067 A 
ATOM     34  C   UNL     1      10.949   9.031 -12.697  1.00  0.00     0.001 A 
ATOM     35  C   UNL     1      10.446  10.374 -10.759  1.00  0.00     0.016 A 
ATOM     36  C   UNL     1      10.755  10.282 -12.115  1.00  0.00     0.001 A 
BRANCH  33  37
ATOM     37  C   UNL     1      10.042   9.397  -8.551  1.00  0.00     0.336 C 
ATOM     38  O   UNL     1       8.963   9.216  -8.017  1.00  0.00    -0.246 OA
BRANCH  37  39
ATOM     39  O   UNL     1      11.105   9.880  -7.889  1.00  0.00    -0.478 OA
ATOM     40  H   UNL     1      11.216   9.283  -7.122  1.00  0.00     0.297 HD
ENDBRANCH  37  39
ENDBRANCH  33  37
ENDBRANCH  30  31
ENDBRANCH   1  25
TORSDOF 9
ENDMDL
MODEL 3
REMARK VINA RESULT:    -7.971      4.930      8.939
REMARK INTER + INTRA:         -12.632
REMARK INTER:                 -11.179
REMARK INTRA:                  -1.453
REMARK UNBOUND:                -0.701
REMARK SMILES CC[C@H](NC(=O)c1ccc2c(c1)cc(C)n2Cc1ccc(-c2ccccc2C(=O)O)cc1)c1ccccc1
REMARK SMILES IDX 17 1 16 2 7 3 8 4 12 5 9 6 11 7 10 8 13 9 14 10 15 11 5 12
REMARK SMILES IDX 4 13 6 14 3 16 2 17 1 18 33 19 34 20 38 21 35 22 37 23 36 24
REMARK SMILES IDX 18 25 19 26 32 27 20 28 31 29 21 30 22 31 23 32 27 33 24 34
REMARK SMILES IDX 26 35 25 36 28 37 29 38 30 39
REMARK H PARENT 4 15 30 40
ROOT
ATOM      1  C   UNL     1      11.872  14.825  -6.817  1.00  0.00     0.157 C 
ENDROOT
BRANCH   1   2
ATOM      2  N   UNL     1      11.337  13.557  -6.322  1.00  0.00    -0.340 N 
ATOM      3  C   UNL     1      10.326   9.992  -8.200  1.00  0.00     0.040 A 
ATOM      4  C   UNL     1      10.842  10.998  -9.022  1.00  0.00     0.016 A 
ATOM      5  C   UNL     1      10.219  10.200  -6.817  1.00  0.00     0.024 A 
ATOM      6  C   UNL     1      11.224  12.237  -8.496  1.00  0.00     0.028 A 
ATOM      7  C   UNL     1      10.593  11.445  -6.271  1.00  0.00     0.001 A 
ATOM      8  C   UNL     1      11.078  12.447  -7.114  1.00  0.00     0.049 A 
ATOM      9  C   UNL     1      10.599  11.963  -4.952  1.00  0.00     0.031 A 
ATOM     10  C   UNL     1      11.064  13.263  -4.998  1.00  0.00     0.016 A 
ATOM     11  C   UNL     1      11.244  14.224  -3.877  1.00  0.00     0.064 C 
BRANCH   3  12
ATOM     12  C   UNL     1       9.912   8.710  -8.838  1.00  0.00     0.251 C 
ATOM     13  N   UNL     1      10.209   7.557  -8.147  1.00  0.00    -0.345 N 
ATOM     14  O   UNL     1       9.300   8.721  -9.902  1.00  0.00    -0.269 OA
ATOM     15  H   UNL     1      10.598   7.611  -7.216  1.00  0.00     0.164 HD
BRANCH  13  16
ATOM     16  C   UNL     1       9.835   6.241  -8.648  1.00  0.00     0.112 C 
BRANCH  16  17
ATOM     17  C   UNL     1      11.014   5.579  -9.393  1.00  0.00     0.026 C 
ATOM     18  C   UNL     1      10.561   4.625 -10.491  1.00  0.00     0.006 C 
ENDBRANCH  16  17
BRANCH  16  19
ATOM     19  C   UNL     1       9.301   5.410  -7.491  1.00  0.00    -0.026 A 
ATOM     20  C   UNL     1      10.143   4.488  -6.851  1.00  0.00     0.006 A 
ATOM     21  C   UNL     1       7.967   5.510  -7.060  1.00  0.00     0.006 A 
ATOM     22  C   UNL     1       9.672   3.703  -5.796  1.00  0.00     0.000 A 
ATOM     23  C   UNL     1       7.498   4.725  -6.003  1.00  0.00     0.000 A 
ATOM     24  C   UNL     1       8.352   3.824  -5.370  1.00  0.00     0.000 A 
ENDBRANCH  16  19
ENDBRANCH  13  16
ENDBRANCH   3  12
ENDBRANCH   1   2
BRANCH   1  25
ATOM     25  C   UNL     1      13.382  14.849  -6.833  1.00  0.00    -0.028 A 
ATOM     26  C   UNL     1      14.114  13.875  -7.527  1.00  0.00     0.006 A 
ATOM     27  C   UNL     1      14.086  15.839  -6.132  1.00  0.00     0.006 A 
ATOM     28  C   UNL     1      15.512  13.903  -7.534  1.00  0.00     0.009 A 
ATOM     29  C   UNL     1      15.484  15.866  -6.143  1.00  0.00     0.009 A 
ATOM     30  C   UNL     1      16.219  14.902  -6.849  1.00  0.00    -0.018 A 
BRANCH  30  31
ATOM     31  C   UNL     1      17.691  14.935  -6.871  1.00  0.00    -0.004 A 
ATOM     32  C   UNL     1      18.363  14.979  -8.108  1.00  0.00     0.009 A 
ATOM     33  C   UNL     1      18.476  14.967  -5.700  1.00  0.00     0.067 A 
ATOM     34  C   UNL     1      19.757  15.075  -8.174  1.00  0.00     0.001 A 
ATOM     35  C   UNL     1      19.873  15.084  -5.765  1.00  0.00     0.016 A 
ATOM     36  C   UNL     1      20.511  15.134  -7.004  1.00  0.00     0.001 A 
BRANCH  33  37
ATOM     37  C   UNL     1      17.883  14.888  -4.353  1.00  0.00     0.336 C 
ATOM     38  O   UNL     1      17.719  15.821  -3.590  1.00  0.00    -0.246 OA
BRANCH  37  39
ATOM     39  O   UNL     1      17.604  13.619  -4.014  1.00  0.00    -0.478 OA
ATOM     40  H   UNL     1      18.315  13.088  -4.426  1.00  0.00     0.297 HD
ENDBRANCH  37  39
ENDBRANCH  33  37
ENDBRANCH  30  31
ENDBRANCH   1  25
TORSDOF 9
ENDMDL
MODEL 4
REMARK VINA RESULT:    -7.931      2.985      5.041
REMARK INTER + INTRA:         -12.573
REMARK INTER:                 -13.038
REMARK INTRA:                   0.466
REMARK UNBOUND:                -0.701
REMARK SMILES CC[C@H](NC(=O)c1ccc2c(c1)cc(C)n2Cc1ccc(-c2ccccc2C(=O)O)cc1)c1ccccc1
REMARK SMILES IDX 17 1 16 2 7 3 8 4 12 5 9 6 11 7 10 8 13 9 14 10 15 11 5 12
REMARK SMILES IDX 4 13 6 14 3 16 2 17 1 18 33 19 34 20 38 21 35 22 37 23 36 24
REMARK SMILES IDX 18 25 19 26 32 27 20 28 31 29 21 30 22 31 23 32 27 33 24 34
REMARK SMILES IDX 26 35 25 36 28 37 29 38 30 39
REMARK H PARENT 4 15 30 40
ROOT
ATOM      1  C   UNL     1       9.738   3.261  -7.820  1.00  0.00     0.157 C 
ENDROOT
BRANCH   1   2
ATOM      2  N   UNL     1       9.201   3.472  -6.475  1.00  0.00    -0.340 N 
ATOM      3  C   UNL     1       5.932   5.596  -5.040  1.00  0.00     0.040 A 
ATOM      4  C   UNL     1       6.116   5.608  -6.425  1.00  0.00     0.016 A 
ATOM      5  C   UNL     1       6.797   4.855  -4.222  1.00  0.00     0.024 A 
ATOM      6  C   UNL     1       7.179   4.920  -7.019  1.00  0.00     0.028 A 
ATOM      7  C   UNL     1       7.879   4.162  -4.804  1.00  0.00     0.001 A 
ATOM      8  C   UNL     1       8.062   4.211  -6.188  1.00  0.00     0.049 A 
ATOM      9  C   UNL     1       8.910   3.349  -4.271  1.00  0.00     0.031 A 
ATOM     10  C   UNL     1       9.714   2.928  -5.311  1.00  0.00     0.016 A 
ATOM     11  C   UNL     1      10.927   2.067  -5.258  1.00  0.00     0.064 C 
BRANCH   3  12
ATOM     12  C   UNL     1       4.795   6.379  -4.477  1.00  0.00     0.251 C 
ATOM     13  N   UNL     1       5.114   7.343  -3.548  1.00  0.00    -0.345 N 
ATOM     14  O   UNL     1       3.652   6.179  -4.876  1.00  0.00    -0.269 OA
ATOM     15  H   UNL     1       6.083   7.555  -3.350  1.00  0.00     0.164 HD
BRANCH  13  16
ATOM     16  C   UNL     1       4.100   8.195  -2.941  1.00  0.00     0.112 C 
BRANCH  16  17
ATOM     17  C   UNL     1       3.002   8.560  -3.962  1.00  0.00     0.026 C 
ATOM     18  C   UNL     1       3.445   9.629  -4.953  1.00  0.00     0.006 C 
ENDBRANCH  16  17
BRANCH  16  19
ATOM     19  C   UNL     1       3.568   7.510  -1.692  1.00  0.00    -0.026 A 
ATOM     20  C   UNL     1       2.720   8.213  -0.822  1.00  0.00     0.006 A 
ATOM     21  C   UNL     1       3.931   6.194  -1.356  1.00  0.00     0.006 A 
ATOM     22  C   UNL     1       2.230   7.611   0.339  1.00  0.00     0.000 A 
ATOM     23  C   UNL     1       3.439   5.593  -0.194  1.00  0.00     0.000 A 
ATOM     24  C   UNL     1       2.586   6.302   0.651  1.00  0.00     0.000 A 
ENDBRANCH  16  19
ENDBRANCH  13  16
ENDBRANCH   3  12
ENDBRANCH   1   2
BRANCH   1  25
ATOM     25  C   UNL     1       9.950   4.556  -8.567  1.00  0.00    -0.028 A 
ATOM     26  C   UNL     1       9.863   4.607  -9.966  1.00  0.00     0.006 A 
ATOM     27  C   UNL     1      10.261   5.735  -7.875  1.00  0.00     0.006 A 
ATOM     28  C   UNL     1      10.064   5.809 -10.650  1.00  0.00     0.009 A 
ATOM     29  C   UNL     1      10.458   6.937  -8.562  1.00  0.00     0.009 A 
ATOM     30  C   UNL     1      10.357   6.994  -9.959  1.00  0.00    -0.018 A 
BRANCH  30  31
ATOM     31  C   UNL     1      10.555   8.261 -10.684  1.00  0.00    -0.004 A 
ATOM     32  C   UNL     1      10.081   9.462 -10.119  1.00  0.00     0.009 A 
ATOM     33  C   UNL     1      11.240   8.345 -11.914  1.00  0.00     0.067 A 
ATOM     34  C   UNL     1      10.303  10.694 -10.742  1.00  0.00     0.001 A 
ATOM     35  C   UNL     1      11.481   9.582 -12.528  1.00  0.00     0.016 A 
ATOM     36  C   UNL     1      11.007  10.756 -11.942  1.00  0.00     0.001 A 
BRANCH  33  37
ATOM     37  C   UNL     1      11.745   7.150 -12.614  1.00  0.00     0.336 C 
ATOM     38  O   UNL     1      12.763   6.541 -12.342  1.00  0.00    -0.246 OA
BRANCH  37  39
ATOM     39  O   UNL     1      10.979   6.842 -13.673  1.00  0.00    -0.478 OA
ATOM     40  H   UNL     1      10.060   6.975 -13.364  1.00  0.00     0.297 HD
ENDBRANCH  37  39
ENDBRANCH  33  37
ENDBRANCH  30  31
ENDBRANCH   1  25
TORSDOF 9
ENDMDL
MODEL 5
REMARK VINA RESULT:    -7.683      4.133      7.547
REMARK INTER + INTRA:         -12.202
REMARK INTER:                 -12.171
REMARK INTRA:                  -0.030
REMARK UNBOUND:                -0.701
REMARK SMILES CC[C@H](NC(=O)c1ccc2c(c1)cc(C)n2Cc1ccc(-c2ccccc2C(=O)O)cc1)c1ccccc1
REMARK SMILES IDX 17 1 16 2 7 3 8 4 12 5 9 6 11 7 10 8 13 9 14 10 15 11 5 12
REMARK SMILES IDX 4 13 6 14 3 16 2 17 1 18 33 19 34 20 38 21 35 22 37 23 36 24
REMARK SMILES IDX 18 25 19 26 32 27 20 28 31 29 21 30 22 31 23 32 27 33 24 34
REMARK SMILES IDX 26 35 25 36 28 37 29 38 30 39
REMARK H PARENT 4 15 30 40
ROOT
ATOM      1  C   UNL     1       9.969   8.509 -10.924  1.00  0.00     0.157 C 
ENDROOT
BRANCH   1   2
ATOM      2  N   UNL     1      10.498   7.245 -10.410  1.00  0.00    -0.340 N 
ATOM      3  C   UNL     1       9.587   4.949  -7.071  1.00  0.00     0.040 A 
ATOM      4  C   UNL     1       8.831   6.111  -7.245  1.00  0.00     0.016 A 
ATOM      5  C   UNL     1      10.554   4.590  -8.020  1.00  0.00     0.024 A 
ATOM      6  C   UNL     1       9.046   6.957  -8.339  1.00  0.00     0.028 A 
ATOM      7  C   UNL     1      10.789   5.434  -9.126  1.00  0.00     0.001 A 
ATOM      8  C   UNL     1      10.043   6.607  -9.265  1.00  0.00     0.049 A 
ATOM      9  C   UNL     1      11.675   5.364 -10.229  1.00  0.00     0.031 A 
ATOM     10  C   UNL     1      11.483   6.484 -11.014  1.00  0.00     0.016 A 
ATOM     11  C   UNL     1      12.179   6.867 -12.271  1.00  0.00     0.064 C 
BRANCH   3  12
ATOM     12  C   UNL     1       9.321   4.116  -5.864  1.00  0.00     0.251 C 
ATOM     13  N   UNL     1      10.230   4.220  -4.835  1.00  0.00    -0.345 N 
ATOM     14  O   UNL     1       8.313   3.419  -5.805  1.00  0.00    -0.269 OA
ATOM     15  H   UNL     1      10.972   4.904  -4.882  1.00  0.00     0.164 HD
BRANCH  13  16
ATOM     16  C   UNL     1      10.074   3.480  -3.590  1.00  0.00     0.112 C 
BRANCH  16  17
ATOM     17  C   UNL     1       8.602   3.483  -3.127  1.00  0.00     0.026 C 
ATOM     18  C   UNL     1       8.393   4.229  -1.816  1.00  0.00     0.006 C 
ENDBRANCH  16  17
BRANCH  16  19
ATOM     19  C   UNL     1      10.653   2.085  -3.772  1.00  0.00    -0.026 A 
ATOM     20  C   UNL     1       9.790   0.989  -3.919  1.00  0.00     0.006 A 
ATOM     21  C   UNL     1      12.039   1.850  -3.762  1.00  0.00     0.006 A 
ATOM     22  C   UNL     1      10.297  -0.304  -4.073  1.00  0.00     0.000 A 
ATOM     23  C   UNL     1      12.544   0.557  -3.917  1.00  0.00     0.000 A 
ATOM     24  C   UNL     1      11.672  -0.519  -4.076  1.00  0.00     0.000 A 
ENDBRANCH  16  19
ENDBRANCH  13  16
ENDBRANCH   3  12
ENDBRANCH   1   2
BRANCH   1  25
ATOM     25  C   UNL     1      10.296   9.680 -10.028  1.00  0.00    -0.028 A 
ATOM     26  C   UNL     1      10.028   9.635  -8.652  1.00  0.00     0.006 A 
ATOM     27  C   UNL     1      10.858  10.848 -10.561  1.00  0.00     0.006 A 
ATOM     28  C   UNL     1      10.332  10.724  -7.830  1.00  0.00     0.009 A 
ATOM     29  C   UNL     1      11.164  11.936  -9.736  1.00  0.00     0.009 A 
ATOM     30  C   UNL     1      10.911  11.888  -8.357  1.00  0.00    -0.018 A 
BRANCH  30  31
ATOM     31  C   UNL     1      11.241  13.028  -7.485  1.00  0.00    -0.004 A 
ATOM     32  C   UNL     1      12.331  12.927  -6.598  1.00  0.00     0.009 A 
ATOM     33  C   UNL     1      10.540  14.251  -7.519  1.00  0.00     0.067 A 
ATOM     34  C   UNL     1      12.719  14.007  -5.798  1.00  0.00     0.001 A 
ATOM     35  C   UNL     1      10.941  15.341  -6.733  1.00  0.00     0.016 A 
ATOM     36  C   UNL     1      12.029  15.215  -5.870  1.00  0.00     0.001 A 
BRANCH  33  37
ATOM     37  C   UNL     1       9.361  14.457  -8.381  1.00  0.00     0.336 C 
ATOM     38  O   UNL     1       8.240  14.033  -8.170  1.00  0.00    -0.246 OA
BRANCH  37  39
ATOM     39  O   UNL     1       9.685  15.119  -9.504  1.00  0.00    -0.478 OA
ATOM     40  H   UNL     1       9.097  15.900  -9.513  1.00  0.00     0.297 HD
ENDBRANCH  37  39
ENDBRANCH  33  37
ENDBRANCH  30  31
ENDBRANCH   1  25
TORSDOF 9
ENDMDL
MODEL 6
REMARK VINA RESULT:    -7.363      1.467      2.135
REMARK INTER + INTRA:         -11.722
REMARK INTER:                 -11.977
REMARK INTRA:                   0.255
REMARK UNBOUND:                -0.701
REMARK SMILES CC[C@H](NC(=O)c1ccc2c(c1)cc(C)n2Cc1ccc(-c2ccccc2C(=O)O)cc1)c1ccccc1
REMARK SMILES IDX 17 1 16 2 7 3 8 4 12 5 9 6 11 7 10 8 13 9 14 10 15 11 5 12
REMARK SMILES IDX 4 13 6 14 3 16 2 17 1 18 33 19 34 20 38 21 35 22 37 23 36 24
REMARK SMILES IDX 18 25 19 26 32 27 20 28 31 29 21 30 22 31 23 32 27 33 24 34
REMARK SMILES IDX 26 35 25 36 28 37 29 38 30 39
REMARK H PARENT 4 15 30 40
ROOT
ATOM      1  C   UNL     1       9.972  11.319  -8.195  1.00  0.00     0.157 C 
ENDROOT
BRANCH   1   2
ATOM      2  N   UNL     1       9.871  11.382  -6.737  1.00  0.00    -0.340 N 
ATOM      3  C   UNL     1       7.028  10.008  -4.038  1.00  0.00     0.040 A 
ATOM      4  C   UNL     1       6.784   9.731  -5.386  1.00  0.00     0.016 A 
ATOM      5  C   UNL     1       8.203  10.671  -3.659  1.00  0.00     0.024 A 
ATOM      6  C   UNL     1       7.678  10.139  -6.382  1.00  0.00     0.028 A 
ATOM      7  C   UNL     1       9.112  11.096  -4.649  1.00  0.00     0.001 A 
ATOM      8  C   UNL     1       8.835  10.835  -5.993  1.00  0.00     0.049 A 
ATOM      9  C   UNL     1      10.353  11.778  -4.600  1.00  0.00     0.031 A 
ATOM     10  C   UNL     1      10.811  11.944  -5.892  1.00  0.00     0.016 A 
ATOM     11  C   UNL     1      12.060  12.606  -6.356  1.00  0.00     0.064 C 
BRANCH   3  12
ATOM     12  C   UNL     1       6.013   9.569  -3.039  1.00  0.00     0.251 C 
ATOM     13  N   UNL     1       5.267   8.460  -3.369  1.00  0.00    -0.345 N 
ATOM     14  O   UNL     1       5.905  10.160  -1.969  1.00  0.00    -0.269 OA
ATOM     15  H   UNL     1       5.483   7.934  -4.205  1.00  0.00     0.164 HD
BRANCH  13  16
ATOM     16  C   UNL     1       4.260   7.912  -2.469  1.00  0.00     0.112 C 
BRANCH  16  17
ATOM     17  C   UNL     1       2.881   7.847  -3.158  1.00  0.00     0.026 C 
ATOM     18  C   UNL     1       2.978   7.793  -4.677  1.00  0.00     0.006 C 
ENDBRANCH  16  17
BRANCH  16  19
ATOM     19  C   UNL     1       4.746   6.568  -1.950  1.00  0.00    -0.026 A 
ATOM     20  C   UNL     1       5.863   5.958  -2.541  1.00  0.00     0.006 A 
ATOM     21  C   UNL     1       4.086   5.891  -0.910  1.00  0.00     0.006 A 
ATOM     22  C   UNL     1       6.320   4.717  -2.092  1.00  0.00     0.000 A 
ATOM     23  C   UNL     1       4.546   4.650  -0.461  1.00  0.00     0.000 A 
ATOM     24  C   UNL     1       5.665   4.065  -1.051  1.00  0.00     0.000 A 
ENDBRANCH  16  19
ENDBRANCH  13  16
ENDBRANCH   3  12
ENDBRANCH   1   2
BRANCH   1  25
ATOM     25  C   UNL     1      10.068   9.901  -8.707  1.00  0.00    -0.028 A 
ATOM     26  C   UNL     1      10.157   9.632 -10.080  1.00  0.00     0.006 A 
ATOM     27  C   UNL     1      10.049   8.820  -7.815  1.00  0.00     0.006 A 
ATOM     28  C   UNL     1      10.242   8.317 -10.546  1.00  0.00     0.009 A 
ATOM     29  C   UNL     1      10.138   7.505  -8.283  1.00  0.00     0.009 A 
ATOM     30  C   UNL     1      10.242   7.233  -9.655  1.00  0.00    -0.018 A 
BRANCH  30  31
ATOM     31  C   UNL     1      10.346   5.850 -10.150  1.00  0.00    -0.004 A 
ATOM     32  C   UNL     1      10.742   5.620 -11.482  1.00  0.00     0.009 A 
ATOM     33  C   UNL     1      10.107   4.723  -9.336  1.00  0.00     0.067 A 
ATOM     34  C   UNL     1      10.914   4.322 -11.974  1.00  0.00     0.001 A 
ATOM     35  C   UNL     1      10.301   3.421  -9.823  1.00  0.00     0.016 A 
ATOM     36  C   UNL     1      10.701   3.224 -11.144  1.00  0.00     0.001 A 
BRANCH  33  37
ATOM     37  C   UNL     1       9.654   4.844  -7.939  1.00  0.00     0.336 C 
ATOM     38  O   UNL     1      10.356   5.106  -6.981  1.00  0.00    -0.246 OA
BRANCH  37  39
ATOM     39  O   UNL     1       8.350   4.545  -7.820  1.00  0.00    -0.478 OA
ATOM     40  H   UNL     1       8.029   5.110  -7.089  1.00  0.00     0.297 HD
ENDBRANCH  37  39
ENDBRANCH  33  37
ENDBRANCH  30  31
ENDBRANCH   1  25
TORSDOF 9
ENDMDL
MODEL 7
REMARK VINA RESULT:    -7.024      2.193      8.687
REMARK INTER + INTRA:         -11.216
REMARK INTER:                 -11.946
REMARK INTRA:                   0.730
REMARK UNBOUND:                -0.701
REMARK SMILES CC[C@H](NC(=O)c1ccc2c(c1)cc(C)n2Cc1ccc(-c2ccccc2C(=O)O)cc1)c1ccccc1
REMARK SMILES IDX 17 1 16 2 7 3 8 4 12 5 9 6 11 7 10 8 13 9 14 10 15 11 5 12
REMARK SMILES IDX 4 13 6 14 3 16 2 17 1 18 33 19 34 20 38 21 35 22 37 23 36 24
REMARK SMILES IDX 18 25 19 26 32 27 20 28 31 29 21 30 22 31 23 32 27 33 24 34
REMARK SMILES IDX 26 35 25 36 28 37 29 38 30 39
REMARK H PARENT 4 15 30 40
ROOT
ATOM      1  C   UNL     1      10.003  11.837  -4.847  1.00  0.00     0.157 C 
ENDROOT
BRANCH   1   2
ATOM      2  N   UNL     1      10.128  12.135  -6.274  1.00  0.00    -0.340 N 
ATOM      3  C   UNL     1      10.273   9.733  -9.660  1.00  0.00     0.040 A 
ATOM      4  C   UNL     1      10.121   9.070  -8.440  1.00  0.00     0.016 A 
ATOM      5  C   UNL     1      10.320  11.134  -9.698  1.00  0.00     0.024 A 
ATOM      6  C   UNL     1      10.052   9.779  -7.235  1.00  0.00     0.028 A 
ATOM      7  C   UNL     1      10.259  11.864  -8.494  1.00  0.00     0.001 A 
ATOM      8  C   UNL     1      10.137  11.180  -7.282  1.00  0.00     0.049 A 
ATOM      9  C   UNL     1      10.287  13.249  -8.196  1.00  0.00     0.031 A 
ATOM     10  C   UNL     1      10.201  13.402  -6.826  1.00  0.00     0.016 A 
ATOM     11  C   UNL     1      10.201  14.659  -6.030  1.00  0.00     0.064 C 
BRANCH   3  12
ATOM     12  C   UNL     1      10.371   8.908 -10.897  1.00  0.00     0.251 C 
ATOM     13  N   UNL     1      11.107   7.748 -10.805  1.00  0.00    -0.345 N 
ATOM     14  O   UNL     1       9.777   9.250 -11.916  1.00  0.00    -0.269 OA
ATOM     15  H   UNL     1      11.468   7.448  -9.910  1.00  0.00     0.164 HD
BRANCH  13  16
ATOM     16  C   UNL     1      11.260   6.839 -11.933  1.00  0.00     0.112 C 
BRANCH  16  17
ATOM     17  C   UNL     1      12.670   6.956 -12.549  1.00  0.00     0.026 C 
ATOM     18  C   UNL     1      12.902   8.287 -13.252  1.00  0.00     0.006 C 
ENDBRANCH  16  17
BRANCH  16  19
ATOM     19  C   UNL     1      10.907   5.431 -11.479  1.00  0.00    -0.026 A 
ATOM     20  C   UNL     1      10.034   5.249 -10.396  1.00  0.00     0.006 A 
ATOM     21  C   UNL     1      11.460   4.293 -12.092  1.00  0.00     0.006 A 
ATOM     22  C   UNL     1       9.706   3.966  -9.950  1.00  0.00     0.000 A 
ATOM     23  C   UNL     1      11.130   3.011 -11.646  1.00  0.00     0.000 A 
ATOM     24  C   UNL     1      10.250   2.849 -10.577  1.00  0.00     0.000 A 
ENDBRANCH  16  19
ENDBRANCH  13  16
ENDBRANCH   3  12
ENDBRANCH   1   2
BRANCH   1  25
ATOM     25  C   UNL     1       8.769  11.025  -4.532  1.00  0.00    -0.028 A 
ATOM     26  C   UNL     1       7.875  10.645  -5.543  1.00  0.00     0.006 A 
ATOM     27  C   UNL     1       8.482  10.652  -3.212  1.00  0.00     0.006 A 
ATOM     28  C   UNL     1       6.734   9.897  -5.242  1.00  0.00     0.009 A 
ATOM     29  C   UNL     1       7.341   9.900  -2.913  1.00  0.00     0.009 A 
ATOM     30  C   UNL     1       6.452   9.506  -3.924  1.00  0.00    -0.018 A 
BRANCH  30  31
ATOM     31  C   UNL     1       5.255   8.705  -3.614  1.00  0.00    -0.004 A 
ATOM     32  C   UNL     1       4.921   8.456  -2.268  1.00  0.00     0.009 A 
ATOM     33  C   UNL     1       4.389   8.202  -4.606  1.00  0.00     0.067 A 
ATOM     34  C   UNL     1       3.760   7.755  -1.927  1.00  0.00     0.001 A 
ATOM     35  C   UNL     1       3.213   7.518  -4.264  1.00  0.00     0.016 A 
ATOM     36  C   UNL     1       2.903   7.292  -2.924  1.00  0.00     0.001 A 
BRANCH  33  37
ATOM     37  C   UNL     1       4.659   8.372  -6.045  1.00  0.00     0.336 C 
ATOM     38  O   UNL     1       4.170   9.219  -6.768  1.00  0.00    -0.246 OA
BRANCH  37  39
ATOM     39  O   UNL     1       5.472   7.407  -6.507  1.00  0.00    -0.478 OA
ATOM     40  H   UNL     1       6.360   7.649  -6.179  1.00  0.00     0.297 HD
ENDBRANCH  37  39
ENDBRANCH  33  37
ENDBRANCH  30  31
ENDBRANCH   1  25
TORSDOF 9
ENDMDL
MODEL 8
REMARK VINA RESULT:    -6.795      5.277      9.821
REMARK INTER + INTRA:         -10.873
REMARK INTER:                 -10.337
REMARK INTRA:                  -0.535
REMARK UNBOUND:                -0.701
REMARK SMILES CC[C@H](NC(=O)c1ccc2c(c1)cc(C)n2Cc1ccc(-c2ccccc2C(=O)O)cc1)c1ccccc1
REMARK SMILES IDX 17 1 16 2 7 3 8 4 12 5 9 6 11 7 10 8 13 9 14 10 15 11 5 12
REMARK SMILES IDX 4 13 6 14 3 16 2 17 1 18 33 19 34 20 38 21 35 22 37 23 36 24
REMARK SMILES IDX 18 25 19 26 32 27 20 28 31 29 21 30 22 31 23 32 27 33 24 34
REMARK SMILES IDX 26 35 25 36 28 37 29 38 30 39
REMARK H PARENT 4 15 30 40
ROOT
ATOM      1  C   UNL     1       6.459   6.844  -6.938  1.00  0.00     0.157 C 
ENDROOT
BRANCH   1   2
ATOM      2  N   UNL     1       7.793   6.248  -6.870  1.00  0.00    -0.340 N 
ATOM      3  C   UNL     1       9.348   3.038  -4.740  1.00  0.00     0.040 A 
ATOM      4  C   UNL     1       7.987   3.298  -4.558  1.00  0.00     0.016 A 
ATOM      5  C   UNL     1      10.098   3.811  -5.637  1.00  0.00     0.024 A 
ATOM      6  C   UNL     1       7.355   4.349  -5.232  1.00  0.00     0.028 A 
ATOM      7  C   UNL     1       9.479   4.880  -6.319  1.00  0.00     0.001 A 
ATOM      8  C   UNL     1       8.124   5.141  -6.101  1.00  0.00     0.049 A 
ATOM      9  C   UNL     1       9.945   5.830  -7.261  1.00  0.00     0.031 A 
ATOM     10  C   UNL     1       8.896   6.663  -7.595  1.00  0.00     0.016 A 
ATOM     11  C   UNL     1       8.889   7.817  -8.534  1.00  0.00     0.064 C 
BRANCH   3  12
ATOM     12  C   UNL     1       9.957   1.921  -3.963  1.00  0.00     0.251 C 
ATOM     13  N   UNL     1      11.311   1.732  -4.121  1.00  0.00    -0.345 N 
ATOM     14  O   UNL     1       9.267   1.252  -3.200  1.00  0.00    -0.269 OA
ATOM     15  H   UNL     1      11.855   2.390  -4.661  1.00  0.00     0.164 HD
BRANCH  13  16
ATOM     16  C   UNL     1      12.034   0.692  -3.400  1.00  0.00     0.112 C 
BRANCH  16  17
ATOM     17  C   UNL     1      12.171  -0.582  -4.259  1.00  0.00     0.026 C 
ATOM     18  C   UNL     1      10.892  -1.408  -4.303  1.00  0.00     0.006 C 
ENDBRANCH  16  17
BRANCH  16  19
ATOM     19  C   UNL     1      13.366   1.257  -2.929  1.00  0.00    -0.026 A 
ATOM     20  C   UNL     1      14.258   1.803  -3.865  1.00  0.00     0.006 A 
ATOM     21  C   UNL     1      13.752   1.218  -1.579  1.00  0.00     0.006 A 
ATOM     22  C   UNL     1      15.493   2.314  -3.460  1.00  0.00     0.000 A 
ATOM     23  C   UNL     1      14.988   1.730  -1.175  1.00  0.00     0.000 A 
ATOM     24  C   UNL     1      15.856   2.281  -2.116  1.00  0.00     0.000 A 
ENDBRANCH  16  19
ENDBRANCH  13  16
ENDBRANCH   3  12
ENDBRANCH   1   2
BRANCH   1  25
ATOM     25  C   UNL     1       5.765   6.863  -5.597  1.00  0.00    -0.028 A 
ATOM     26  C   UNL     1       4.881   5.840  -5.224  1.00  0.00     0.006 A 
ATOM     27  C   UNL     1       5.976   7.921  -4.702  1.00  0.00     0.006 A 
ATOM     28  C   UNL     1       4.240   5.867  -3.983  1.00  0.00     0.009 A 
ATOM     29  C   UNL     1       5.336   7.944  -3.458  1.00  0.00     0.009 A 
ATOM     30  C   UNL     1       4.463   6.915  -3.077  1.00  0.00    -0.018 A 
BRANCH  30  31
ATOM     31  C   UNL     1       3.796   6.932  -1.764  1.00  0.00    -0.004 A 
ATOM     32  C   UNL     1       2.918   7.987  -1.448  1.00  0.00     0.009 A 
ATOM     33  C   UNL     1       3.960   5.911  -0.805  1.00  0.00     0.067 A 
ATOM     34  C   UNL     1       2.215   8.010  -0.239  1.00  0.00     0.001 A 
ATOM     35  C   UNL     1       3.239   5.922   0.399  1.00  0.00     0.016 A 
ATOM     36  C   UNL     1       2.370   6.976   0.681  1.00  0.00     0.001 A 
BRANCH  33  37
ATOM     37  C   UNL     1       4.880   4.778  -1.012  1.00  0.00     0.336 C 
ATOM     38  O   UNL     1       6.093   4.850  -1.092  1.00  0.00    -0.246 OA
BRANCH  37  39
ATOM     39  O   UNL     1       4.210   3.629  -1.190  1.00  0.00    -0.478 OA
ATOM     40  H   UNL     1       4.799   3.078  -1.744  1.00  0.00     0.297 HD
ENDBRANCH  37  39
ENDBRANCH  33  37
ENDBRANCH  30  31
ENDBRANCH   1  25
TORSDOF 9
ENDMDL
MODEL 9
REMARK VINA RESULT:    -6.794      2.318      9.167
REMARK INTER + INTRA:         -10.871
REMARK INTER:                 -13.194
REMARK INTRA:                   2.323
REMARK UNBOUND:                -0.701
REMARK SMILES CC[C@H](NC(=O)c1ccc2c(c1)cc(C)n2Cc1ccc(-c2ccccc2C(=O)O)cc1)c1ccccc1
REMARK SMILES IDX 17 1 16 2 7 3 8 4 12 5 9 6 11 7 10 8 13 9 14 10 15 11 5 12
REMARK SMILES IDX 4 13 6 14 3 16 2 17 1 18 33 19 34 20 38 21 35 22 37 23 36 24
REMARK SMILES IDX 18 25 19 26 32 27 20 28 31 29 21 30 22 31 23 32 27 33 24 34
REMARK SMILES IDX 26 35 25 36 28 37 29 38 30 39
REMARK H PARENT 4 15 30 40
ROOT
ATOM      1  C   UNL     1      10.059  11.633  -4.226  1.00  0.00     0.157 C 
ENDROOT
BRANCH   1   2
ATOM      2  N   UNL     1      10.421  12.312  -5.471  1.00  0.00    -0.340 N 
ATOM      3  C   UNL     1      10.519  11.079  -9.437  1.00  0.00     0.040 A 
ATOM      4  C   UNL     1      10.086  10.131  -8.506  1.00  0.00     0.016 A 
ATOM      5  C   UNL     1      10.846  12.377  -9.018  1.00  0.00     0.024 A 
ATOM      6  C   UNL     1      10.005  10.439  -7.144  1.00  0.00     0.028 A 
ATOM      7  C   UNL     1      10.777  12.702  -7.647  1.00  0.00     0.001 A 
ATOM      8  C   UNL     1      10.369  11.731  -6.730  1.00  0.00     0.049 A 
ATOM      9  C   UNL     1      11.039  13.888  -6.917  1.00  0.00     0.031 A 
ATOM     10  C   UNL     1      10.812  13.635  -5.579  1.00  0.00     0.016 A 
ATOM     11  C   UNL     1      10.958  14.558  -4.422  1.00  0.00     0.064 C 
BRANCH   3  12
ATOM     12  C   UNL     1      10.609  10.667 -10.866  1.00  0.00     0.251 C 
ATOM     13  N   UNL     1      10.791   9.323 -11.107  1.00  0.00    -0.345 N 
ATOM     14  O   UNL     1      10.479  11.500 -11.758  1.00  0.00    -0.269 OA
ATOM     15  H   UNL     1      10.762   8.663 -10.342  1.00  0.00     0.164 HD
BRANCH  13  16
ATOM     16  C   UNL     1      10.869   8.786 -12.459  1.00  0.00     0.112 C 
BRANCH  16  17
ATOM     17  C   UNL     1      12.004   9.460 -13.257  1.00  0.00     0.026 C 
ATOM     18  C   UNL     1      11.551   9.969 -14.619  1.00  0.00     0.006 C 
ENDBRANCH  16  17
BRANCH  16  19
ATOM     19  C   UNL     1      10.996   7.272 -12.378  1.00  0.00    -0.026 A 
ATOM     20  C   UNL     1      10.186   6.554 -11.485  1.00  0.00     0.006 A 
ATOM     21  C   UNL     1      11.932   6.564 -13.150  1.00  0.00     0.006 A 
ATOM     22  C   UNL     1      10.294   5.165 -11.381  1.00  0.00     0.000 A 
ATOM     23  C   UNL     1      12.039   5.174 -13.045  1.00  0.00     0.000 A 
ATOM     24  C   UNL     1      11.216   4.476 -12.163  1.00  0.00     0.000 A 
ENDBRANCH  16  19
ENDBRANCH  13  16
ENDBRANCH   3  12
ENDBRANCH   1   2
BRANCH   1  25
ATOM     25  C   UNL     1       8.727  10.927  -4.319  1.00  0.00    -0.028 A 
ATOM     26  C   UNL     1       8.170  10.593  -5.561  1.00  0.00     0.006 A 
ATOM     27  C   UNL     1       8.009  10.609  -3.158  1.00  0.00     0.006 A 
ATOM     28  C   UNL     1       6.935   9.942  -5.638  1.00  0.00     0.009 A 
ATOM     29  C   UNL     1       6.775   9.955  -3.237  1.00  0.00     0.009 A 
ATOM     30  C   UNL     1       6.222   9.606  -4.478  1.00  0.00    -0.018 A 
BRANCH  30  31
ATOM     31  C   UNL     1       4.928   8.908  -4.563  1.00  0.00    -0.004 A 
ATOM     32  C   UNL     1       4.140   9.053  -5.722  1.00  0.00     0.009 A 
ATOM     33  C   UNL     1       4.446   8.056  -3.549  1.00  0.00     0.067 A 
ATOM     34  C   UNL     1       2.935   8.359  -5.871  1.00  0.00     0.001 A 
ATOM     35  C   UNL     1       3.248   7.343  -3.707  1.00  0.00     0.016 A 
ATOM     36  C   UNL     1       2.492   7.500  -4.868  1.00  0.00     0.001 A 
BRANCH  33  37
ATOM     37  C   UNL     1       5.169   7.858  -2.279  1.00  0.00     0.336 C 
ATOM     38  O   UNL     1       5.957   6.962  -2.039  1.00  0.00    -0.246 OA
BRANCH  37  39
ATOM     39  O   UNL     1       4.791   8.757  -1.356  1.00  0.00    -0.478 OA
ATOM     40  H   UNL     1       5.610   9.239  -1.126  1.00  0.00     0.297 HD
ENDBRANCH  37  39
ENDBRANCH  33  37
ENDBRANCH  30  31
ENDBRANCH   1  25
TORSDOF 9
ENDMDL
