REMARK SMILES O=C(O)c1c(Oc2cccc(C(F)(F)F)c2)c2ccccc2n1-c1ccc(C(F)(F)F)cc1
REMARK SMILES IDX 4 1 5 2 17 3 18 4 19 5 20 6 21 7 22 8 23 9 2 10 1 11 3 12
REMARK SMILES IDX 6 14 7 15 8 16 16 17 9 18 11 19 10 20 12 21 13 22 14 23
REMARK SMILES IDX 15 24 24 25 25 26 33 27 26 28 32 29 27 30 28 31 29 32 30 33
REMARK SMILES IDX 31 34
REMARK H PARENT 3 13
REMARK INDEX MAP 4 1 5 2 17 3 18 4 19 5 20 6 21 7 22 8 23 9 2 10 1 11 3 12
REMARK INDEX MAP 34 13 6 14 7 15 8 16 16 17 9 18 11 19 10 20 12 21 13 22 14 23
REMARK INDEX MAP 15 24 24 25 25 26 33 27 26 28 32 29 27 30 28 31 29 32 30 33
REMARK INDEX MAP 31 34
ROOT
ATOM      1  C   UNL     1     -11.087  -6.850 -28.081  1.00  0.00     0.176 A 
ATOM      2  C   UNL     1     -10.773  -6.743 -29.424  1.00  0.00     0.168 A 
ATOM      3  C   UNL     1      -9.620  -7.522 -29.703  1.00  0.00     0.044 A 
ATOM      4  C   UNL     1      -8.895  -7.829 -30.876  1.00  0.00     0.014 A 
ATOM      5  C   UNL     1      -7.739  -8.609 -30.802  1.00  0.00     0.001 A 
ATOM      6  C   UNL     1      -7.295  -9.083 -29.576  1.00  0.00     0.002 A 
ATOM      7  C   UNL     1      -8.005  -8.812 -28.403  1.00  0.00     0.027 A 
ATOM      8  C   UNL     1      -9.196  -8.057 -28.483  1.00  0.00     0.058 A 
ATOM      9  N   UNL     1     -10.100  -7.642 -27.497  1.00  0.00    -0.300 N 
ENDROOT
BRANCH   1  10
ATOM     10  C   UNL     1     -12.249  -6.341 -27.407  1.00  0.00     0.356 C 
ATOM     11  O   UNL     1     -13.369  -6.825 -27.355  1.00  0.00    -0.244 OA
BRANCH  10  12
ATOM     12  O   UNL     1     -11.987  -5.190 -26.753  1.00  0.00    -0.476 OA
ATOM     13  H   UNL     1     -11.081  -4.794 -26.792  1.00  0.00     0.297 HD
ENDBRANCH  10  12
ENDBRANCH   1  10
BRANCH   2  14
ATOM     14  O   UNL     1     -11.563  -6.074 -30.300  1.00  0.00    -0.454 OA
BRANCH  14  15
ATOM     15  C   UNL     1     -11.485  -4.708 -30.428  1.00  0.00     0.128 A 
ATOM     16  C   UNL     1     -10.260  -4.179 -30.832  1.00  0.00     0.047 A 
ATOM     17  C   UNL     1     -12.584  -3.869 -30.230  1.00  0.00     0.060 A 
ATOM     18  C   UNL     1     -10.117  -2.803 -31.000  1.00  0.00     0.004 A 
ATOM     19  C   UNL     1     -12.455  -2.482 -30.405  1.00  0.00     0.059 A 
ATOM     20  C   UNL     1     -11.207  -1.958 -30.781  1.00  0.00     0.013 A 
BRANCH  19  21
ATOM     21  C   UNL     1     -13.629  -1.570 -30.158  1.00  0.00     0.416 C 
ATOM     22  F   UNL     1     -13.469  -0.329 -30.697  1.00  0.00    -0.166 F 
ATOM     23  F   UNL     1     -13.880  -1.368 -28.833  1.00  0.00    -0.166 F 
ATOM     24  F   UNL     1     -14.785  -2.060 -30.685  1.00  0.00    -0.166 F 
ENDBRANCH  19  21
ENDBRANCH  14  15
ENDBRANCH   2  14
BRANCH   9  25
ATOM     25  C   UNL     1      -9.984  -7.955 -26.109  1.00  0.00     0.047 A 
ATOM     26  C   UNL     1     -11.116  -8.337 -25.381  1.00  0.00     0.027 A 
ATOM     27  C   UNL     1      -8.739  -7.884 -25.472  1.00  0.00     0.027 A 
ATOM     28  C   UNL     1     -11.002  -8.649 -24.023  1.00  0.00     0.015 A 
ATOM     29  C   UNL     1      -8.631  -8.199 -24.114  1.00  0.00     0.015 A 
ATOM     30  C   UNL     1      -9.759  -8.592 -23.378  1.00  0.00     0.056 A 
BRANCH  30  31
ATOM     31  C   UNL     1      -9.643  -8.906 -21.906  1.00  0.00     0.416 C 
ATOM     32  F   UNL     1      -8.940  -7.965 -21.215  1.00  0.00    -0.166 F 
ATOM     33  F   UNL     1     -10.851  -8.997 -21.281  1.00  0.00    -0.166 F 
ATOM     34  F   UNL     1      -9.012 -10.089 -21.675  1.00  0.00    -0.166 F 
ENDBRANCH  30  31
ENDBRANCH   9  25
TORSDOF 7
