MODEL 1
REMARK VINA RESULT:    -7.765      0.000      0.000
REMARK INTER + INTRA:         -17.995
REMARK INTER:                 -15.482
REMARK INTRA:                  -2.513
REMARK UNBOUND:                -2.513
REMARK SMILES CN(C)[C@H]1CC[C@@H](CCN(CCCc2c[nH]c3ccccc23)CCC2CCCCCC2)CC1
REMARK SMILES IDX 10 1 9 2 8 3 7 4 4 5 33 6 5 7 32 8 6 9 2 10 1 11 3 12 11 13
REMARK SMILES IDX 12 14 13 15 14 16 15 17 22 18 16 19 21 20 17 21 20 22 18 23
REMARK SMILES IDX 19 24 23 26 24 27 25 28 26 29 27 30 28 31 31 33 30 34 29 35
REMARK H PARENT 16 25
REMARK Flexibility Score:  127.900
ROOT
ATOM      1  N   UNL     1     134.770 112.372  37.769  1.00  0.00    -0.303 NA
ENDROOT
BRANCH   1   2
ATOM      2  C   UNL     1     136.106 112.519  38.372  1.00  0.00     0.085 C 
BRANCH   2   3
ATOM      3  C   UNL     1     136.276 113.738  39.297  1.00  0.00     0.019 C 
BRANCH   3   4
ATOM      4  C   UNL     1     136.527 113.410  40.787  1.00  0.00    -0.010 C 
ATOM      5  C   UNL     1     139.107 114.679  41.655  1.00  0.00     0.056 C 
ATOM      6  C   UNL     1     137.838 115.522  41.418  1.00  0.00     0.019 C 
ATOM      7  C   UNL     1     139.081 113.395  40.799  1.00  0.00     0.019 C 
ATOM      8  C   UNL     1     136.565 114.697  41.630  1.00  0.00     0.005 C 
ATOM      9  C   UNL     1     137.803 112.591  41.039  1.00  0.00     0.005 C 
BRANCH   5  10
ATOM     10  N   UNL     1     140.390 115.393  41.486  1.00  0.00    -0.306 NA
ATOM     11  C   UNL     1     141.464 114.782  42.271  1.00  0.00     0.105 C 
ATOM     12  C   UNL     1     140.334 116.829  41.748  1.00  0.00     0.105 C 
ENDBRANCH   5  10
ENDBRANCH   3   4
ENDBRANCH   2   3
ENDBRANCH   1   2
BRANCH   1  13
ATOM     13  C   UNL     1     134.349 110.966  37.606  1.00  0.00     0.085 C 
BRANCH  13  14
ATOM     14  C   UNL     1     135.378 109.896  38.003  1.00  0.00     0.020 C 
BRANCH  14  15
ATOM     15  C   UNL     1     134.841 108.935  39.069  1.00  0.00     0.039 C 
BRANCH  15  16
ATOM     16  C   UNL     1     135.267 109.288  40.460  1.00  0.00    -0.023 A 
ATOM     17  C   UNL     1     136.337 108.743  41.144  1.00  0.00     0.087 A 
ATOM     18  C   UNL     1     134.662 110.248  41.336  1.00  0.00     0.003 A 
ATOM     19  N   UNL     1     136.400 109.325  42.381  1.00  0.00    -0.361 N 
ATOM     20  C   UNL     1     133.558 111.118  41.228  1.00  0.00     0.010 A 
ATOM     21  C   UNL     1     135.391 110.246  42.526  1.00  0.00     0.046 A 
ATOM     22  C   UNL     1     133.224 111.949  42.305  1.00  0.00     0.001 A 
ATOM     23  C   UNL     1     135.071 111.070  43.613  1.00  0.00     0.026 A 
ATOM     24  C   UNL     1     133.971 111.923  43.478  1.00  0.00     0.002 A 
ATOM     25  H   UNL     1     137.088 109.113  43.091  1.00  0.00     0.166 HD
ENDBRANCH  15  16
ENDBRANCH  14  15
ENDBRANCH  13  14
ENDBRANCH   1  13
BRANCH   1  26
ATOM     26  C   UNL     1     133.757 113.167  38.487  1.00  0.00     0.085 C 
BRANCH  26  27
ATOM     27  C   UNL     1     133.459 114.492  37.765  1.00  0.00     0.019 C 
BRANCH  27  28
ATOM     28  C   UNL     1     132.958 115.645  38.670  1.00  0.00    -0.010 C 
BRANCH  28  29
ATOM     29  C   UNL     1     133.496 117.001  38.181  1.00  0.00     0.003 C 
BRANCH  29  30
ATOM     30  C   UNL     1     134.021 117.910  39.290  1.00  0.00     0.000 C 
BRANCH  30  31
ATOM     31  C   UNL     1     132.920 118.398  40.227  1.00  0.00     0.000 CG0
ATOM     32  G   UNL     1     132.664 117.506  41.437  1.00  0.00     0.000 G0
ENDBRANCH  30  31
ENDBRANCH  29  30
ENDBRANCH  28  29
BRANCH  28  33
ATOM     33  C   UNL     1     133.140 115.347  40.169  1.00  0.00     0.003 C 
BRANCH  33  34
ATOM     34  C   UNL     1     132.200 116.073  41.132  1.00  0.00     0.000 C 
BRANCH  34  35
ATOM     35  C   UNL     1     132.660 117.492  41.462  1.00  0.00     0.000 CG0
ATOM     36  G   UNL     1     132.923 118.380  40.250  1.00  0.00     0.000 G0
ENDBRANCH  34  35
ENDBRANCH  33  34
ENDBRANCH  28  33
ENDBRANCH  27  28
ENDBRANCH  26  27
ENDBRANCH   1  26
TORSDOF 11
ENDMDL
MODEL 2
REMARK VINA RESULT:    -7.653      1.992      5.319
REMARK INTER + INTRA:         -17.772
REMARK INTER:                 -16.088
REMARK INTRA:                  -1.684
REMARK UNBOUND:                -2.513
REMARK SMILES CN(C)[C@H]1CC[C@@H](CCN(CCCc2c[nH]c3ccccc23)CCC2CCCCCC2)CC1
REMARK SMILES IDX 10 1 9 2 8 3 7 4 4 5 33 6 5 7 32 8 6 9 2 10 1 11 3 12 11 13
REMARK SMILES IDX 12 14 13 15 14 16 15 17 22 18 16 19 21 20 17 21 20 22 18 23
REMARK SMILES IDX 19 24 23 26 24 27 25 28 26 29 27 30 28 31 31 33 30 34 29 35
REMARK H PARENT 16 25
REMARK Flexibility Score:  127.900
ROOT
ATOM      1  N   UNL     1     134.903 111.461  39.210  1.00  0.00    -0.303 NA
ENDROOT
BRANCH   1   2
ATOM      2  C   UNL     1     134.817 110.449  40.277  1.00  0.00     0.085 C 
BRANCH   2   3
ATOM      3  C   UNL     1     133.974 110.856  41.499  1.00  0.00     0.019 C 
BRANCH   3   4
ATOM      4  C   UNL     1     134.733 111.640  42.596  1.00  0.00    -0.010 C 
ATOM      5  C   UNL     1     132.956 113.814  43.661  1.00  0.00     0.056 C 
ATOM      6  C   UNL     1     132.716 112.334  44.020  1.00  0.00     0.019 C 
ATOM      7  C   UNL     1     133.665 113.940  42.296  1.00  0.00     0.019 C 
ATOM      8  C   UNL     1     134.011 111.519  43.950  1.00  0.00     0.005 C 
ATOM      9  C   UNL     1     134.956 113.123  42.260  1.00  0.00     0.005 C 
BRANCH   5  10
ATOM     10  N   UNL     1     131.764 114.686  43.713  1.00  0.00    -0.306 NA
ATOM     11  C   UNL     1     130.524 113.913  43.808  1.00  0.00     0.105 C 
ATOM     12  C   UNL     1     131.665 115.658  42.626  1.00  0.00     0.105 C 
ENDBRANCH   5  10
ENDBRANCH   3   4
ENDBRANCH   2   3
ENDBRANCH   1   2
BRANCH   1  13
ATOM     13  C   UNL     1     136.111 111.332  38.371  1.00  0.00     0.085 C 
BRANCH  13  14
ATOM     14  C   UNL     1     137.046 112.551  38.330  1.00  0.00     0.020 C 
BRANCH  14  15
ATOM     15  C   UNL     1     137.140 113.261  39.685  1.00  0.00     0.039 C 
BRANCH  15  16
ATOM     16  C   UNL     1     138.528 113.297  40.246  1.00  0.00    -0.023 A 
ATOM     17  C   UNL     1     139.532 112.383  39.988  1.00  0.00     0.087 A 
ATOM     18  C   UNL     1     139.078 114.274  41.138  1.00  0.00     0.003 A 
ATOM     19  N   UNL     1     140.649 112.761  40.681  1.00  0.00    -0.361 N 
ATOM     20  C   UNL     1     138.571 115.435  41.758  1.00  0.00     0.010 A 
ATOM     21  C   UNL     1     140.402 113.912  41.392  1.00  0.00     0.046 A 
ATOM     22  C   UNL     1     139.399 116.185  42.602  1.00  0.00     0.001 A 
ATOM     23  C   UNL     1     141.243 114.650  42.234  1.00  0.00     0.026 A 
ATOM     24  C   UNL     1     140.714 115.796  42.835  1.00  0.00     0.002 A 
ATOM     25  H   UNL     1     141.534 112.272  40.675  1.00  0.00     0.166 HD
ENDBRANCH  15  16
ENDBRANCH  14  15
ENDBRANCH  13  14
ENDBRANCH   1  13
BRANCH   1  26
ATOM     26  C   UNL     1     133.674 111.503  38.396  1.00  0.00     0.085 C 
BRANCH  26  27
ATOM     27  C   UNL     1     132.840 112.761  38.693  1.00  0.00     0.019 C 
BRANCH  27  28
ATOM     28  C   UNL     1     133.473 114.101  38.238  1.00  0.00    -0.010 C 
BRANCH  28  29
ATOM     29  C   UNL     1     133.181 115.218  39.253  1.00  0.00     0.003 C 
BRANCH  29  30
ATOM     30  C   UNL     1     134.044 116.467  39.086  1.00  0.00     0.000 C 
BRANCH  30  31
ATOM     31  C   UNL     1     133.404 117.511  38.177  1.00  0.00     0.000 CG0
ATOM     32  G   UNL     1     132.861 116.969  36.859  1.00  0.00     0.000 G0
ENDBRANCH  30  31
ENDBRANCH  29  30
ENDBRANCH  28  29
BRANCH  28  33
ATOM     33  C   UNL     1     133.172 114.431  36.765  1.00  0.00     0.003 C 
BRANCH  33  34
ATOM     34  C   UNL     1     133.635 115.798  36.261  1.00  0.00     0.000 C 
BRANCH  34  35
ATOM     35  C   UNL     1     132.841 116.958  36.860  1.00  0.00     0.000 CG0
ATOM     36  G   UNL     1     133.411 117.523  38.157  1.00  0.00     0.000 G0
ENDBRANCH  34  35
ENDBRANCH  33  34
ENDBRANCH  28  33
ENDBRANCH  27  28
ENDBRANCH  26  27
ENDBRANCH   1  26
TORSDOF 11
ENDMDL
MODEL 3
REMARK VINA RESULT:    -7.417      2.111      5.807
REMARK INTER + INTRA:         -17.300
REMARK INTER:                 -15.546
REMARK INTRA:                  -1.755
REMARK UNBOUND:                -2.513
REMARK SMILES CN(C)[C@H]1CC[C@@H](CCN(CCCc2c[nH]c3ccccc23)CCC2CCCCCC2)CC1
REMARK SMILES IDX 10 1 9 2 8 3 7 4 4 5 33 6 5 7 32 8 6 9 2 10 1 11 3 12 11 13
REMARK SMILES IDX 12 14 13 15 14 16 15 17 22 18 16 19 21 20 17 21 20 22 18 23
REMARK SMILES IDX 19 24 23 26 24 27 25 28 26 29 27 30 28 31 31 33 30 34 29 35
REMARK H PARENT 16 25
REMARK Flexibility Score:  127.900
ROOT
ATOM      1  N   UNL     1     135.290 110.797  41.383  1.00  0.00    -0.303 NA
ENDROOT
BRANCH   1   2
ATOM      2  C   UNL     1     134.016 110.449  40.730  1.00  0.00     0.085 C 
BRANCH   2   3
ATOM      3  C   UNL     1     133.885 110.906  39.266  1.00  0.00     0.019 C 
BRANCH   3   4
ATOM      4  C   UNL     1     132.588 111.678  38.926  1.00  0.00    -0.010 C 
ATOM      5  C   UNL     1     133.195 114.617  38.808  1.00  0.00     0.056 C 
ATOM      6  C   UNL     1     133.648 113.658  37.689  1.00  0.00     0.019 C 
ATOM      7  C   UNL     1     133.061 113.869  40.151  1.00  0.00     0.019 C 
ATOM      8  C   UNL     1     132.737 112.431  37.592  1.00  0.00     0.005 C 
ATOM      9  C   UNL     1     132.139 112.656  40.024  1.00  0.00     0.005 C 
BRANCH   5  10
ATOM     10  N   UNL     1     134.008 115.840  38.970  1.00  0.00    -0.306 NA
ATOM     11  C   UNL     1     134.139 116.227  40.376  1.00  0.00     0.105 C 
ATOM     12  C   UNL     1     133.565 116.984  38.177  1.00  0.00     0.105 C 
ENDBRANCH   5  10
ENDBRANCH   3   4
ENDBRANCH   2   3
ENDBRANCH   1   2
BRANCH   1  13
ATOM     13  C   UNL     1     136.379 111.090  40.430  1.00  0.00     0.085 C 
BRANCH  13  14
ATOM     14  C   UNL     1     136.499 112.549  39.961  1.00  0.00     0.020 C 
BRANCH  14  15
ATOM     15  C   UNL     1     137.728 112.779  39.075  1.00  0.00     0.039 C 
BRANCH  15  16
ATOM     16  C   UNL     1     138.986 113.022  39.850  1.00  0.00    -0.023 A 
ATOM     17  C   UNL     1     140.138 112.260  39.789  1.00  0.00     0.087 A 
ATOM     18  C   UNL     1     139.238 114.079  40.784  1.00  0.00     0.003 A 
ATOM     19  N   UNL     1     141.061 112.805  40.639  1.00  0.00    -0.361 N 
ATOM     20  C   UNL     1     138.478 115.161  41.273  1.00  0.00     0.010 A 
ATOM     21  C   UNL     1     140.541 113.915  41.260  1.00  0.00     0.046 A 
ATOM     22  C   UNL     1     139.041 116.033  42.213  1.00  0.00     0.001 A 
ATOM     23  C   UNL     1     141.120 114.778  42.200  1.00  0.00     0.026 A 
ATOM     24  C   UNL     1     140.343 115.842  42.667  1.00  0.00     0.002 A 
ATOM     25  H   UNL     1     141.994 112.449  40.793  1.00  0.00     0.166 HD
ENDBRANCH  15  16
ENDBRANCH  14  15
ENDBRANCH  13  14
ENDBRANCH   1  13
BRANCH   1  26
ATOM     26  C   UNL     1     135.120 111.880  42.370  1.00  0.00     0.085 C 
BRANCH  26  27
ATOM     27  C   UNL     1     134.284 111.421  43.576  1.00  0.00     0.019 C 
BRANCH  27  28
ATOM     28  C   UNL     1     133.217 112.431  44.070  1.00  0.00    -0.010 C 
BRANCH  28  29
ATOM     29  C   UNL     1     131.798 111.928  43.759  1.00  0.00     0.003 C 
BRANCH  29  30
ATOM     30  C   UNL     1     130.679 112.775  44.362  1.00  0.00     0.000 C 
BRANCH  30  31
ATOM     31  C   UNL     1     130.224 113.898  43.437  1.00  0.00     0.000 CG0
ATOM     32  G   UNL     1     131.279 114.959  43.145  1.00  0.00     0.000 G0
ENDBRANCH  30  31
ENDBRANCH  29  30
ENDBRANCH  28  29
BRANCH  28  33
ATOM     33  C   UNL     1     133.528 113.878  43.646  1.00  0.00     0.003 C 
BRANCH  33  34
ATOM     34  C   UNL     1     132.514 114.946  44.056  1.00  0.00     0.000 C 
BRANCH  34  35
ATOM     35  C   UNL     1     131.288 114.987  43.144  1.00  0.00     0.000 CG0
ATOM     36  G   UNL     1     130.240 113.916  43.428  1.00  0.00     0.000 G0
ENDBRANCH  34  35
ENDBRANCH  33  34
ENDBRANCH  28  33
ENDBRANCH  27  28
ENDBRANCH  26  27
ENDBRANCH   1  26
TORSDOF 11
ENDMDL
MODEL 4
REMARK VINA RESULT:    -7.356      1.835      5.036
REMARK INTER + INTRA:         -17.180
REMARK INTER:                 -14.851
REMARK INTRA:                  -2.330
REMARK UNBOUND:                -2.513
REMARK SMILES CN(C)[C@H]1CC[C@@H](CCN(CCCc2c[nH]c3ccccc23)CCC2CCCCCC2)CC1
REMARK SMILES IDX 10 1 9 2 8 3 7 4 4 5 33 6 5 7 32 8 6 9 2 10 1 11 3 12 11 13
REMARK SMILES IDX 12 14 13 15 14 16 15 17 22 18 16 19 21 20 17 21 20 22 18 23
REMARK SMILES IDX 19 24 23 26 24 27 25 28 26 29 27 30 28 31 31 33 30 34 29 35
REMARK H PARENT 16 25
REMARK Flexibility Score:  127.900
ROOT
ATOM      1  N   UNL     1     134.937 111.352  38.710  1.00  0.00    -0.303 NA
ENDROOT
BRANCH   1   2
ATOM      2  C   UNL     1     136.354 111.633  38.421  1.00  0.00     0.085 C 
BRANCH   2   3
ATOM      3  C   UNL     1     136.900 112.936  39.033  1.00  0.00     0.019 C 
BRANCH   3   4
ATOM      4  C   UNL     1     136.806 113.036  40.574  1.00  0.00    -0.010 C 
ATOM      5  C   UNL     1     139.049 114.754  41.589  1.00  0.00     0.056 C 
ATOM      6  C   UNL     1     137.836 115.366  40.860  1.00  0.00     0.019 C 
ATOM      7  C   UNL     1     139.283 113.297  41.139  1.00  0.00     0.019 C 
ATOM      8  C   UNL     1     136.587 114.494  41.013  1.00  0.00     0.005 C 
ATOM      9  C   UNL     1     138.021 112.451  41.312  1.00  0.00     0.005 C 
BRANCH   5  10
ATOM     10  N   UNL     1     140.303 115.532  41.509  1.00  0.00    -0.306 NA
ATOM     11  C   UNL     1     141.467 114.737  41.903  1.00  0.00     0.105 C 
ATOM     12  C   UNL     1     140.291 116.797  42.241  1.00  0.00     0.105 C 
ENDBRANCH   5  10
ENDBRANCH   3   4
ENDBRANCH   2   3
ENDBRANCH   1   2
BRANCH   1  13
ATOM     13  C   UNL     1     134.061 111.460  37.526  1.00  0.00     0.085 C 
BRANCH  13  14
ATOM     14  C   UNL     1     133.444 112.842  37.259  1.00  0.00     0.020 C 
BRANCH  14  15
ATOM     15  C   UNL     1     133.280 113.666  38.541  1.00  0.00     0.039 C 
BRANCH  15  16
ATOM     16  C   UNL     1     133.340 115.145  38.312  1.00  0.00    -0.023 A 
ATOM     17  C   UNL     1     133.615 115.770  37.111  1.00  0.00     0.087 A 
ATOM     18  C   UNL     1     133.121 116.181  39.278  1.00  0.00     0.003 A 
ATOM     19  N   UNL     1     133.575 117.123  37.310  1.00  0.00    -0.361 N 
ATOM     20  C   UNL     1     132.808 116.194  40.653  1.00  0.00     0.010 A 
ATOM     21  C   UNL     1     133.276 117.404  38.622  1.00  0.00     0.046 A 
ATOM     22  C   UNL     1     132.662 117.417  41.317  1.00  0.00     0.001 A 
ATOM     23  C   UNL     1     133.134 118.637  39.272  1.00  0.00     0.026 A 
ATOM     24  C   UNL     1     132.823 118.619  40.634  1.00  0.00     0.002 A 
ATOM     25  H   UNL     1     133.738 117.823  36.599  1.00  0.00     0.166 HD
ENDBRANCH  15  16
ENDBRANCH  14  15
ENDBRANCH  13  14
ENDBRANCH   1  13
BRANCH   1  26
ATOM     26  C   UNL     1     134.767 110.059  39.401  1.00  0.00     0.085 C 
BRANCH  26  27
ATOM     27  C   UNL     1     134.445 110.252  40.892  1.00  0.00     0.019 C 
BRANCH  27  28
ATOM     28  C   UNL     1     133.710 111.568  41.250  1.00  0.00    -0.010 C 
BRANCH  28  29
ATOM     29  C   UNL     1     134.178 112.106  42.613  1.00  0.00     0.003 C 
BRANCH  29  30
ATOM     30  C   UNL     1     133.160 111.944  43.740  1.00  0.00     0.000 C 
BRANCH  30  31
ATOM     31  C   UNL     1     132.124 113.062  43.767  1.00  0.00     0.000 CG0
ATOM     32  G   UNL     1     130.940 112.864  42.826  1.00  0.00     0.000 G0
ENDBRANCH  30  31
ENDBRANCH  29  30
ENDBRANCH  28  29
BRANCH  28  33
ATOM     33  C   UNL     1     132.187 111.473  41.048  1.00  0.00     0.003 C 
BRANCH  33  34
ATOM     34  C   UNL     1     131.376 112.735  41.340  1.00  0.00     0.000 C 
BRANCH  34  35
ATOM     35  C   UNL     1     130.960 112.854  42.806  1.00  0.00     0.000 CG0
ATOM     36  G   UNL     1     132.112 113.047  43.786  1.00  0.00     0.000 G0
ENDBRANCH  34  35
ENDBRANCH  33  34
ENDBRANCH  28  33
ENDBRANCH  27  28
ENDBRANCH  26  27
ENDBRANCH   1  26
TORSDOF 11
ENDMDL
MODEL 5
REMARK VINA RESULT:    -7.350      2.609      6.696
REMARK INTER + INTRA:         -17.168
REMARK INTER:                 -15.311
REMARK INTRA:                  -1.857
REMARK UNBOUND:                -2.513
REMARK SMILES CN(C)[C@H]1CC[C@@H](CCN(CCCc2c[nH]c3ccccc23)CCC2CCCCCC2)CC1
REMARK SMILES IDX 10 1 9 2 8 3 7 4 4 5 33 6 5 7 32 8 6 9 2 10 1 11 3 12 11 13
REMARK SMILES IDX 12 14 13 15 14 16 15 17 22 18 16 19 21 20 17 21 20 22 18 23
REMARK SMILES IDX 19 24 23 26 24 27 25 28 26 29 27 30 28 31 31 33 30 34 29 35
REMARK H PARENT 16 25
REMARK Flexibility Score:  127.900
ROOT
ATOM      1  N   UNL     1     137.044 111.361  39.093  1.00  0.00    -0.303 NA
ENDROOT
BRANCH   1   2
ATOM      2  C   UNL     1     136.976 110.933  40.501  1.00  0.00     0.085 C 
BRANCH   2   3
ATOM      3  C   UNL     1     135.948 111.685  41.364  1.00  0.00     0.019 C 
BRANCH   3   4
ATOM      4  C   UNL     1     134.874 110.800  42.039  1.00  0.00    -0.010 C 
ATOM      5  C   UNL     1     132.512 112.502  42.774  1.00  0.00     0.056 C 
ATOM      6  C   UNL     1     132.796 112.112  41.309  1.00  0.00     0.019 C 
ATOM      7  C   UNL     1     133.816 112.523  43.599  1.00  0.00     0.019 C 
ATOM      8  C   UNL     1     133.574 110.796  41.216  1.00  0.00     0.005 C 
ATOM      9  C   UNL     1     134.565 111.194  43.492  1.00  0.00     0.005 C 
BRANCH   5  10
ATOM     10  N   UNL     1     131.752 113.756  42.966  1.00  0.00    -0.306 NA
ATOM     11  C   UNL     1     132.472 114.707  43.815  1.00  0.00     0.105 C 
ATOM     12  C   UNL     1     130.388 113.579  43.458  1.00  0.00     0.105 C 
ENDBRANCH   5  10
ENDBRANCH   3   4
ENDBRANCH   2   3
ENDBRANCH   1   2
BRANCH   1  13
ATOM     13  C   UNL     1     135.730 111.717  38.521  1.00  0.00     0.085 C 
BRANCH  13  14
ATOM     14  C   UNL     1     135.488 113.210  38.246  1.00  0.00     0.020 C 
BRANCH  14  15
ATOM     15  C   UNL     1     133.998 113.552  38.149  1.00  0.00     0.039 C 
BRANCH  15  16
ATOM     16  C   UNL     1     133.732 115.016  37.977  1.00  0.00    -0.023 A 
ATOM     17  C   UNL     1     133.718 115.704  36.778  1.00  0.00     0.087 A 
ATOM     18  C   UNL     1     133.437 115.970  39.005  1.00  0.00     0.003 A 
ATOM     19  N   UNL     1     133.434 117.017  37.038  1.00  0.00    -0.361 N 
ATOM     20  C   UNL     1     133.308 115.896  40.407  1.00  0.00     0.010 A 
ATOM     21  C   UNL     1     133.258 117.209  38.387  1.00  0.00     0.046 A 
ATOM     22  C   UNL     1     133.007 117.054  41.136  1.00  0.00     0.001 A 
ATOM     23  C   UNL     1     132.957 118.377  39.101  1.00  0.00     0.026 A 
ATOM     24  C   UNL     1     132.835 118.274  40.489  1.00  0.00     0.002 A 
ATOM     25  H   UNL     1     133.361 117.747  36.342  1.00  0.00     0.166 HD
ENDBRANCH  15  16
ENDBRANCH  14  15
ENDBRANCH  13  14
ENDBRANCH   1  13
BRANCH   1  26
ATOM     26  C   UNL     1     138.036 112.435  38.895  1.00  0.00     0.085 C 
BRANCH  26  27
ATOM     27  C   UNL     1     139.113 112.420  39.992  1.00  0.00     0.019 C 
BRANCH  27  28
ATOM     28  C   UNL     1     139.384 113.784  40.676  1.00  0.00    -0.010 C 
BRANCH  28  29
ATOM     29  C   UNL     1     140.307 113.614  41.895  1.00  0.00     0.003 C 
BRANCH  29  30
ATOM     30  C   UNL     1     141.334 114.730  42.073  1.00  0.00     0.000 C 
BRANCH  30  31
ATOM     31  C   UNL     1     140.705 116.045  42.524  1.00  0.00     0.000 CG0
ATOM     32  G   UNL     1     139.567 116.549  41.643  1.00  0.00     0.000 G0
ENDBRANCH  30  31
ENDBRANCH  29  30
ENDBRANCH  28  29
BRANCH  28  33
ATOM     33  C   UNL     1     138.099 114.598  40.911  1.00  0.00     0.003 C 
BRANCH  33  34
ATOM     34  C   UNL     1     138.223 115.834  41.801  1.00  0.00     0.000 C 
BRANCH  34  35
ATOM     35  C   UNL     1     139.553 116.566  41.627  1.00  0.00     0.000 CG0
ATOM     36  G   UNL     1     140.688 116.051  42.506  1.00  0.00     0.000 G0
ENDBRANCH  34  35
ENDBRANCH  33  34
ENDBRANCH  28  33
ENDBRANCH  27  28
ENDBRANCH  26  27
ENDBRANCH   1  26
TORSDOF 11
ENDMDL
MODEL 6
REMARK VINA RESULT:    -7.330      2.541      6.681
REMARK INTER + INTRA:         -17.127
REMARK INTER:                 -15.118
REMARK INTRA:                  -2.010
REMARK UNBOUND:                -2.513
REMARK SMILES CN(C)[C@H]1CC[C@@H](CCN(CCCc2c[nH]c3ccccc23)CCC2CCCCCC2)CC1
REMARK SMILES IDX 10 1 9 2 8 3 7 4 4 5 33 6 5 7 32 8 6 9 2 10 1 11 3 12 11 13
REMARK SMILES IDX 12 14 13 15 14 16 15 17 22 18 16 19 21 20 17 21 20 22 18 23
REMARK SMILES IDX 19 24 23 26 24 27 25 28 26 29 27 30 28 31 31 33 30 34 29 35
REMARK H PARENT 16 25
REMARK Flexibility Score:  127.900
ROOT
ATOM      1  N   UNL     1     135.651 110.612  39.506  1.00  0.00    -0.303 NA
ENDROOT
BRANCH   1   2
ATOM      2  C   UNL     1     135.597 110.129  40.896  1.00  0.00     0.085 C 
BRANCH   2   3
ATOM      3  C   UNL     1     134.412 110.654  41.726  1.00  0.00     0.019 C 
BRANCH   3   4
ATOM      4  C   UNL     1     134.723 111.873  42.627  1.00  0.00    -0.010 C 
ATOM      5  C   UNL     1     132.185 113.398  43.131  1.00  0.00     0.056 C 
ATOM      6  C   UNL     1     132.458 112.044  43.816  1.00  0.00     0.019 C 
ATOM      7  C   UNL     1     132.936 113.493  41.786  1.00  0.00     0.019 C 
ATOM      8  C   UNL     1     133.959 111.775  43.959  1.00  0.00     0.005 C 
ATOM      9  C   UNL     1     134.432 113.229  41.963  1.00  0.00     0.005 C 
BRANCH   5  10
ATOM     10  N   UNL     1     130.761 113.752  42.959  1.00  0.00    -0.306 NA
ATOM     11  C   UNL     1     130.212 114.405  44.149  1.00  0.00     0.105 C 
ATOM     12  C   UNL     1     129.896 112.647  42.551  1.00  0.00     0.105 C 
ENDBRANCH   5  10
ENDBRANCH   3   4
ENDBRANCH   2   3
ENDBRANCH   1   2
BRANCH   1  13
ATOM     13  C   UNL     1     134.363 111.142  39.016  1.00  0.00     0.085 C 
BRANCH  13  14
ATOM     14  C   UNL     1     134.435 112.391  38.123  1.00  0.00     0.020 C 
BRANCH  14  15
ATOM     15  C   UNL     1     133.127 113.188  38.126  1.00  0.00     0.039 C 
BRANCH  15  16
ATOM     16  C   UNL     1     133.301 114.624  37.738  1.00  0.00    -0.023 A 
ATOM     17  C   UNL     1     133.579 115.095  36.469  1.00  0.00     0.087 A 
ATOM     18  C   UNL     1     133.208 115.771  38.593  1.00  0.00     0.003 A 
ATOM     19  N   UNL     1     133.660 116.459  36.522  1.00  0.00    -0.361 N 
ATOM     20  C   UNL     1     132.952 115.955  39.968  1.00  0.00     0.010 A 
ATOM     21  C   UNL     1     133.437 116.900  37.805  1.00  0.00     0.046 A 
ATOM     22  C   UNL     1     132.934 117.249  40.501  1.00  0.00     0.001 A 
ATOM     23  C   UNL     1     133.424 118.202  38.322  1.00  0.00     0.026 A 
ATOM     24  C   UNL     1     133.167 118.354  39.688  1.00  0.00     0.002 A 
ATOM     25  H   UNL     1     133.852 117.064  35.735  1.00  0.00     0.166 HD
ENDBRANCH  15  16
ENDBRANCH  14  15
ENDBRANCH  13  14
ENDBRANCH   1  13
BRANCH   1  26
ATOM     26  C   UNL     1     136.751 111.574  39.304  1.00  0.00     0.085 C 
BRANCH  26  27
ATOM     27  C   UNL     1     137.816 111.456  40.407  1.00  0.00     0.019 C 
BRANCH  27  28
ATOM     28  C   UNL     1     138.226 112.790  41.081  1.00  0.00    -0.010 C 
BRANCH  28  29
ATOM     29  C   UNL     1     137.747 113.994  40.254  1.00  0.00     0.003 C 
BRANCH  29  30
ATOM     30  C   UNL     1     137.356 115.217  41.081  1.00  0.00     0.000 C 
BRANCH  30  31
ATOM     31  C   UNL     1     138.563 116.011  41.569  1.00  0.00     0.000 CG0
ATOM     32  G   UNL     1     139.580 115.208  42.372  1.00  0.00     0.000 G0
ENDBRANCH  30  31
ENDBRANCH  29  30
ENDBRANCH  28  29
BRANCH  28  33
ATOM     33  C   UNL     1     139.705 112.810  41.510  1.00  0.00     0.003 C 
BRANCH  33  34
ATOM     34  C   UNL     1     140.383 114.178  41.569  1.00  0.00     0.000 C 
BRANCH  34  35
ATOM     35  C   UNL     1     139.591 115.205  42.379  1.00  0.00     0.000 CG0
ATOM     36  G   UNL     1     138.569 116.004  41.577  1.00  0.00     0.000 G0
ENDBRANCH  34  35
ENDBRANCH  33  34
ENDBRANCH  28  33
ENDBRANCH  27  28
ENDBRANCH  26  27
ENDBRANCH   1  26
TORSDOF 11
ENDMDL
MODEL 7
REMARK VINA RESULT:    -7.248      3.165      7.363
REMARK INTER + INTRA:         -16.964
REMARK INTER:                 -15.271
REMARK INTRA:                  -1.693
REMARK UNBOUND:                -2.513
REMARK SMILES CN(C)[C@H]1CC[C@@H](CCN(CCCc2c[nH]c3ccccc23)CCC2CCCCCC2)CC1
REMARK SMILES IDX 10 1 9 2 8 3 7 4 4 5 33 6 5 7 32 8 6 9 2 10 1 11 3 12 11 13
REMARK SMILES IDX 12 14 13 15 14 16 15 17 22 18 16 19 21 20 17 21 20 22 18 23
REMARK SMILES IDX 19 24 23 26 24 27 25 28 26 29 27 30 28 31 31 33 30 34 29 35
REMARK H PARENT 16 25
REMARK Flexibility Score:  127.900
ROOT
ATOM      1  N   UNL     1     135.190 111.815  41.516  1.00  0.00    -0.303 NA
ENDROOT
BRANCH   1   2
ATOM      2  C   UNL     1     134.343 112.545  42.475  1.00  0.00     0.085 C 
BRANCH   2   3
ATOM      3  C   UNL     1     134.041 114.007  42.101  1.00  0.00     0.019 C 
BRANCH   3   4
ATOM      4  C   UNL     1     132.628 114.266  41.525  1.00  0.00    -0.010 C 
ATOM      5  C   UNL     1     132.859 116.018  39.097  1.00  0.00     0.056 C 
ATOM      6  C   UNL     1     133.274 114.533  39.058  1.00  0.00     0.019 C 
ATOM      7  C   UNL     1     132.991 116.588  40.525  1.00  0.00     0.019 C 
ATOM      8  C   UNL     1     132.511 113.706  40.097  1.00  0.00     0.005 C 
ATOM      9  C   UNL     1     132.213 115.746  41.536  1.00  0.00     0.005 C 
BRANCH   5  10
ATOM     10  N   UNL     1     133.534 116.897  38.120  1.00  0.00    -0.306 NA
ATOM     11  C   UNL     1     133.596 118.285  38.583  1.00  0.00     0.105 C 
ATOM     12  C   UNL     1     132.988 116.846  36.766  1.00  0.00     0.105 C 
ENDBRANCH   5  10
ENDBRANCH   3   4
ENDBRANCH   2   3
ENDBRANCH   1   2
BRANCH   1  13
ATOM     13  C   UNL     1     136.615 111.776  41.898  1.00  0.00     0.085 C 
BRANCH  13  14
ATOM     14  C   UNL     1     137.627 111.656  40.746  1.00  0.00     0.020 C 
BRANCH  14  15
ATOM     15  C   UNL     1     137.530 112.825  39.761  1.00  0.00     0.039 C 
BRANCH  15  16
ATOM     16  C   UNL     1     137.747 114.163  40.397  1.00  0.00    -0.023 A 
ATOM     17  C   UNL     1     136.855 115.220  40.392  1.00  0.00     0.087 A 
ATOM     18  C   UNL     1     138.899 114.598  41.130  1.00  0.00     0.003 A 
ATOM     19  N   UNL     1     137.416 116.261  41.079  1.00  0.00    -0.361 N 
ATOM     20  C   UNL     1     140.126 113.998  41.482  1.00  0.00     0.010 A 
ATOM     21  C   UNL     1     138.663 115.912  41.541  1.00  0.00     0.046 A 
ATOM     22  C   UNL     1     141.064 114.725  42.224  1.00  0.00     0.001 A 
ATOM     23  C   UNL     1     139.590 116.653  42.284  1.00  0.00     0.026 A 
ATOM     24  C   UNL     1     140.797 116.032  42.618  1.00  0.00     0.002 A 
ATOM     25  H   UNL     1     136.982 117.161  41.231  1.00  0.00     0.166 HD
ENDBRANCH  15  16
ENDBRANCH  14  15
ENDBRANCH  13  14
ENDBRANCH   1  13
BRANCH   1  26
ATOM     26  C   UNL     1     134.661 110.466  41.237  1.00  0.00     0.085 C 
BRANCH  26  27
ATOM     27  C   UNL     1     133.996 110.394  39.852  1.00  0.00     0.019 C 
BRANCH  27  28
ATOM     28  C   UNL     1     134.711 109.488  38.817  1.00  0.00    -0.010 C 
BRANCH  28  29
ATOM     29  C   UNL     1     135.139 108.157  39.456  1.00  0.00     0.003 C 
BRANCH  29  30
ATOM     30  C   UNL     1     135.953 107.247  38.537  1.00  0.00     0.000 C 
BRANCH  30  31
ATOM     31  C   UNL     1     135.377 107.162  37.128  1.00  0.00     0.000 CG0
ATOM     32  G   UNL     1     135.641 108.381  36.250  1.00  0.00     0.000 G0
ENDBRANCH  30  31
ENDBRANCH  29  30
ENDBRANCH  28  29
BRANCH  28  33
ATOM     33  C   UNL     1     135.796 110.236  38.022  1.00  0.00     0.003 C 
BRANCH  33  34
ATOM     34  C   UNL     1     136.524 109.440  36.940  1.00  0.00     0.000 C 
BRANCH  34  35
ATOM     35  C   UNL     1     135.638 108.391  36.269  1.00  0.00     0.000 CG0
ATOM     36  G   UNL     1     135.364 107.150  37.112  1.00  0.00     0.000 G0
ENDBRANCH  34  35
ENDBRANCH  33  34
ENDBRANCH  28  33
ENDBRANCH  27  28
ENDBRANCH  26  27
ENDBRANCH   1  26
TORSDOF 11
ENDMDL
MODEL 8
REMARK VINA RESULT:    -7.115      3.527      6.505
REMARK INTER + INTRA:         -16.700
REMARK INTER:                 -14.574
REMARK INTRA:                  -2.126
REMARK UNBOUND:                -2.513
REMARK SMILES CN(C)[C@H]1CC[C@@H](CCN(CCCc2c[nH]c3ccccc23)CCC2CCCCCC2)CC1
REMARK SMILES IDX 10 1 9 2 8 3 7 4 4 5 33 6 5 7 32 8 6 9 2 10 1 11 3 12 11 13
REMARK SMILES IDX 12 14 13 15 14 16 15 17 22 18 16 19 21 20 17 21 20 22 18 23
REMARK SMILES IDX 19 24 23 26 24 27 25 28 26 29 27 30 28 31 31 33 30 34 29 35
REMARK H PARENT 16 25
REMARK Flexibility Score:  127.900
ROOT
ATOM      1  N   UNL     1     134.392 111.673  39.165  1.00  0.00    -0.303 NA
ENDROOT
BRANCH   1   2
ATOM      2  C   UNL     1     135.500 112.414  38.539  1.00  0.00     0.085 C 
BRANCH   2   3
ATOM      3  C   UNL     1     135.971 113.662  39.308  1.00  0.00     0.019 C 
BRANCH   3   4
ATOM      4  C   UNL     1     136.237 113.449  40.817  1.00  0.00    -0.010 C 
ATOM      5  C   UNL     1     138.843 114.748  41.551  1.00  0.00     0.056 C 
ATOM      6  C   UNL     1     137.581 115.586  41.263  1.00  0.00     0.019 C 
ATOM      7  C   UNL     1     138.791 113.402  40.799  1.00  0.00     0.019 C 
ATOM      8  C   UNL     1     136.301 114.797  41.555  1.00  0.00     0.005 C 
ATOM      9  C   UNL     1     137.507 112.635  41.117  1.00  0.00     0.005 C 
BRANCH   5  10
ATOM     10  N   UNL     1     140.132 115.430  41.310  1.00  0.00    -0.306 NA
ATOM     11  C   UNL     1     141.232 114.796  42.040  1.00  0.00     0.105 C 
ATOM     12  C   UNL     1     140.125 116.868  41.567  1.00  0.00     0.105 C 
ENDBRANCH   5  10
ENDBRANCH   3   4
ENDBRANCH   2   3
ENDBRANCH   1   2
BRANCH   1  13
ATOM     13  C   UNL     1     133.063 112.044  38.639  1.00  0.00     0.085 C 
BRANCH  13  14
ATOM     14  C   UNL     1     131.997 112.414  39.683  1.00  0.00     0.020 C 
BRANCH  14  15
ATOM     15  C   UNL     1     132.599 112.672  41.067  1.00  0.00     0.039 C 
BRANCH  15  16
ATOM     16  C   UNL     1     132.305 114.040  41.601  1.00  0.00    -0.023 A 
ATOM     17  C   UNL     1     131.709 114.327  42.815  1.00  0.00     0.087 A 
ATOM     18  C   UNL     1     132.585 115.296  40.971  1.00  0.00     0.003 A 
ATOM     19  N   UNL     1     131.617 115.687  42.939  1.00  0.00    -0.361 N 
ATOM     20  C   UNL     1     133.172 115.671  39.745  1.00  0.00     0.010 A 
ATOM     21  C   UNL     1     132.143 116.304  41.830  1.00  0.00     0.046 A 
ATOM     22  C   UNL     1     133.296 117.029  39.424  1.00  0.00     0.001 A 
ATOM     23  C   UNL     1     132.259 117.666  41.525  1.00  0.00     0.026 A 
ATOM     24  C   UNL     1     132.845 118.009  40.303  1.00  0.00     0.002 A 
ATOM     25  H   UNL     1     131.222 116.174  43.732  1.00  0.00     0.166 HD
ENDBRANCH  15  16
ENDBRANCH  14  15
ENDBRANCH  13  14
ENDBRANCH   1  13
BRANCH   1  26
ATOM     26  C   UNL     1     134.613 110.215  39.115  1.00  0.00     0.085 C 
BRANCH  26  27
ATOM     27  C   UNL     1     136.050 109.846  39.519  1.00  0.00     0.019 C 
BRANCH  27  28
ATOM     28  C   UNL     1     136.781 108.870  38.562  1.00  0.00    -0.010 C 
BRANCH  28  29
ATOM     29  C   UNL     1     137.761 107.973  39.335  1.00  0.00     0.003 C 
BRANCH  29  30
ATOM     30  C   UNL     1     139.075 108.652  39.716  1.00  0.00     0.000 C 
BRANCH  30  31
ATOM     31  C   UNL     1     140.150 108.503  38.645  1.00  0.00     0.000 CG0
ATOM     32  G   UNL     1     139.913 109.319  37.379  1.00  0.00     0.000 G0
ENDBRANCH  30  31
ENDBRANCH  29  30
ENDBRANCH  28  29
BRANCH  28  33
ATOM     33  C   UNL     1     137.348 109.573  37.315  1.00  0.00     0.003 C 
BRANCH  33  34
ATOM     34  C   UNL     1     138.692 110.282  37.479  1.00  0.00     0.000 C 
BRANCH  34  35
ATOM     35  C   UNL     1     139.885 109.331  37.388  1.00  0.00     0.000 CG0
ATOM     36  G   UNL     1     140.145 108.505  38.643  1.00  0.00     0.000 G0
ENDBRANCH  34  35
ENDBRANCH  33  34
ENDBRANCH  28  33
ENDBRANCH  27  28
ENDBRANCH  26  27
ENDBRANCH   1  26
TORSDOF 11
ENDMDL
MODEL 9
REMARK VINA RESULT:    -7.078      2.608      5.970
REMARK INTER + INTRA:         -16.625
REMARK INTER:                 -13.876
REMARK INTRA:                  -2.749
REMARK UNBOUND:                -2.513
REMARK SMILES CN(C)[C@H]1CC[C@@H](CCN(CCCc2c[nH]c3ccccc23)CCC2CCCCCC2)CC1
REMARK SMILES IDX 10 1 9 2 8 3 7 4 4 5 33 6 5 7 32 8 6 9 2 10 1 11 3 12 11 13
REMARK SMILES IDX 12 14 13 15 14 16 15 17 22 18 16 19 21 20 17 21 20 22 18 23
REMARK SMILES IDX 19 24 23 26 24 27 25 28 26 29 27 30 28 31 31 33 30 34 29 35
REMARK H PARENT 16 25
REMARK Flexibility Score:  127.900
ROOT
ATOM      1  N   UNL     1     135.244 111.827  42.559  1.00  0.00    -0.303 NA
ENDROOT
BRANCH   1   2
ATOM      2  C   UNL     1     134.101 112.515  43.183  1.00  0.00     0.085 C 
BRANCH   2   3
ATOM      3  C   UNL     1     133.877 113.965  42.718  1.00  0.00     0.019 C 
BRANCH   3   4
ATOM      4  C   UNL     1     132.610 114.199  41.862  1.00  0.00    -0.010 C 
ATOM      5  C   UNL     1     133.200 116.274  39.773  1.00  0.00     0.056 C 
ATOM      6  C   UNL     1     133.760 114.841  39.662  1.00  0.00     0.019 C 
ATOM      7  C   UNL     1     132.953 116.654  41.248  1.00  0.00     0.019 C 
ATOM      8  C   UNL     1     132.871 113.830  40.391  1.00  0.00     0.005 C 
ATOM      9  C   UNL     1     132.057 115.630  41.945  1.00  0.00     0.005 C 
BRANCH   5  10
ATOM     10  N   UNL     1     133.986 117.322  39.089  1.00  0.00    -0.306 NA
ATOM     11  C   UNL     1     135.113 117.781  39.904  1.00  0.00     0.105 C 
ATOM     12  C   UNL     1     133.209 118.467  38.621  1.00  0.00     0.105 C 
ENDBRANCH   5  10
ENDBRANCH   3   4
ENDBRANCH   2   3
ENDBRANCH   1   2
BRANCH   1  13
ATOM     13  C   UNL     1     134.910 110.489  42.031  1.00  0.00     0.085 C 
BRANCH  13  14
ATOM     14  C   UNL     1     133.904 110.447  40.869  1.00  0.00     0.020 C 
BRANCH  14  15
ATOM     15  C   UNL     1     134.431 109.655  39.668  1.00  0.00     0.039 C 
BRANCH  15  16
ATOM     16  C   UNL     1     135.411 110.419  38.832  1.00  0.00    -0.023 A 
ATOM     17  C   UNL     1     135.107 111.456  37.969  1.00  0.00     0.087 A 
ATOM     18  C   UNL     1     136.830 110.231  38.769  1.00  0.00     0.003 A 
ATOM     19  N   UNL     1     136.269 111.893  37.395  1.00  0.00    -0.361 N 
ATOM     20  C   UNL     1     137.734 109.350  39.398  1.00  0.00     0.010 A 
ATOM     21  C   UNL     1     137.337 111.165  37.864  1.00  0.00     0.046 A 
ATOM     22  C   UNL     1     139.100 109.433  39.101  1.00  0.00     0.001 A 
ATOM     23  C   UNL     1     138.700 111.261  37.555  1.00  0.00     0.026 A 
ATOM     24  C   UNL     1     139.572 110.375  38.194  1.00  0.00     0.002 A 
ATOM     25  H   UNL     1     136.341 112.645  36.723  1.00  0.00     0.166 HD
ENDBRANCH  15  16
ENDBRANCH  14  15
ENDBRANCH  13  14
ENDBRANCH   1  13
BRANCH   1  26
ATOM     26  C   UNL     1     135.898 112.670  41.540  1.00  0.00     0.085 C 
BRANCH  26  27
ATOM     27  C   UNL     1     137.416 112.427  41.494  1.00  0.00     0.019 C 
BRANCH  27  28
ATOM     28  C   UNL     1     138.219 113.405  40.599  1.00  0.00    -0.010 C 
BRANCH  28  29
ATOM     29  C   UNL     1     139.732 113.203  40.785  1.00  0.00     0.003 C 
BRANCH  29  30
ATOM     30  C   UNL     1     140.297 113.800  42.072  1.00  0.00     0.000 C 
BRANCH  30  31
ATOM     31  C   UNL     1     140.751 115.247  41.904  1.00  0.00     0.000 CG0
ATOM     32  G   UNL     1     139.626 116.251  41.675  1.00  0.00     0.000 G0
ENDBRANCH  30  31
ENDBRANCH  29  30
ENDBRANCH  28  29
BRANCH  28  33
ATOM     33  C   UNL     1     137.714 114.855  40.699  1.00  0.00     0.003 C 
BRANCH  33  34
ATOM     34  C   UNL     1     138.205 115.671  41.895  1.00  0.00     0.000 C 
BRANCH  34  35
ATOM     35  C   UNL     1     139.606 116.247  41.692  1.00  0.00     0.000 CG0
ATOM     36  G   UNL     1     140.744 115.256  41.907  1.00  0.00     0.000 G0
ENDBRANCH  34  35
ENDBRANCH  33  34
ENDBRANCH  28  33
ENDBRANCH  27  28
ENDBRANCH  26  27
ENDBRANCH   1  26
TORSDOF 11
ENDMDL
