MODEL 1
REMARK VINA RESULT:    -7.916      0.000      0.000
REMARK INTER + INTRA:         -19.045
REMARK INTER:                 -16.709
REMARK INTRA:                  -2.336
REMARK UNBOUND:                -2.336
REMARK SMILES O=C(CCCCc1ccc(O[C@@H]2O[C@H](CO)[C@@H](O)[C@H](O)[C@H]2O)c(O)c1)CCc1ccc(O[C@@H]2O[C@H](CO)[C@@H](O)[C@H](O)[C@H]2O)c(O)c1
REMARK SMILES IDX 3 1 2 2 1 3 26 4 27 5 28 6 29 7 46 8 30 9 44 10 31 11 45 12
REMARK SMILES IDX 32 14 33 15 34 16 42 17 35 18 40 19 38 20 43 21 36 23 37 24
REMARK SMILES IDX 41 26 39 28 4 30 5 31 6 32 7 33 8 34 25 35 9 36 23 37 10 38
REMARK SMILES IDX 24 39 11 41 12 42 13 43 21 44 14 45 19 46 17 47 22 48 15 50
REMARK SMILES IDX 16 51 20 53 18 55
REMARK H PARENT 45 13 43 22 37 25 41 27 39 29 24 40 22 49 16 52 20 54 18 56
ROOT
ATOM      1  C   UNL     1      11.210   8.917 -14.085  1.00  0.00     0.075 C 
ENDROOT
BRANCH   1   2
ATOM      2  C   UNL     1      10.908  10.271 -13.462  1.00  0.00     0.133 C 
ATOM      3  O   UNL     1      11.260  11.320 -13.999  1.00  0.00    -0.300 OA
BRANCH   2   4
ATOM      4  C   UNL     1      10.152  10.304 -12.145  1.00  0.00     0.080 C 
BRANCH   4   5
ATOM      5  C   UNL     1      11.049  10.350 -10.909  1.00  0.00     0.043 C 
BRANCH   5   6
ATOM      6  C   UNL     1      10.391  10.479  -9.553  1.00  0.00    -0.044 A 
ATOM      7  C   UNL     1       9.825   9.405  -8.846  1.00  0.00     0.008 A 
ATOM      8  C   UNL     1      10.370  11.752  -8.958  1.00  0.00     0.054 A 
ATOM      9  C   UNL     1       9.235   9.603  -7.589  1.00  0.00     0.051 A 
ATOM     10  C   UNL     1       9.772  11.939  -7.720  1.00  0.00     0.158 A 
ATOM     11  C   UNL     1       9.227  10.867  -7.012  1.00  0.00     0.164 A 
BRANCH  10  12
ATOM     12  O   UNL     1       9.726  13.208  -7.207  1.00  0.00    -0.504 OA
ATOM     13  H   UNL     1      10.152  13.149  -6.331  1.00  0.00     0.293 HD
ENDBRANCH  10  12
BRANCH  11  14
ATOM     14  O   UNL     1       8.685  11.175  -5.795  1.00  0.00    -0.458 OA
BRANCH  14  15
ATOM     15  C   UNL     1       7.876  10.150  -5.196  1.00  0.00     0.339 C 
ATOM     16  O   UNL     1       6.634  10.048  -5.895  1.00  0.00    -0.332 OA
ATOM     17  C   UNL     1       7.644  10.596  -3.739  1.00  0.00     0.214 C 
ATOM     18  C   UNL     1       5.752   9.084  -5.307  1.00  0.00     0.179 C 
ATOM     19  C   UNL     1       6.668   9.650  -3.051  1.00  0.00     0.180 C 
ATOM     20  C   UNL     1       5.389   9.501  -3.873  1.00  0.00     0.177 C 
BRANCH  17  21
ATOM     21  O   UNL     1       8.862  10.608  -2.976  1.00  0.00    -0.384 OA
ATOM     22  H   UNL     1       8.613  10.748  -2.040  1.00  0.00     0.211 HD
ENDBRANCH  17  21
BRANCH  18  23
ATOM     23  C   UNL     1       4.497   8.961  -6.180  1.00  0.00     0.191 C 
BRANCH  23  24
ATOM     24  O   UNL     1       3.990   7.629  -6.187  1.00  0.00    -0.394 OA
ATOM     25  H   UNL     1       4.699   7.052  -5.841  1.00  0.00     0.210 HD
ENDBRANCH  23  24
ENDBRANCH  18  23
BRANCH  19  26
ATOM     26  O   UNL     1       6.334  10.143  -1.745  1.00  0.00    -0.387 OA
ATOM     27  H   UNL     1       5.799   9.434  -1.329  1.00  0.00     0.211 HD
ENDBRANCH  19  26
BRANCH  20  28
ATOM     28  O   UNL     1       4.530   8.540  -3.251  1.00  0.00    -0.387 OA
ATOM     29  H   UNL     1       5.050   7.711  -3.237  1.00  0.00     0.211 HD
ENDBRANCH  20  28
ENDBRANCH  14  15
ENDBRANCH  11  14
ENDBRANCH   5   6
ENDBRANCH   4   5
ENDBRANCH   2   4
ENDBRANCH   1   2
BRANCH   1  30
ATOM     30  C   UNL     1      12.089   8.029 -13.199  1.00  0.00     0.008 C 
BRANCH  30  31
ATOM     31  C   UNL     1      11.322   6.885 -12.522  1.00  0.00     0.005 C 
BRANCH  31  32
ATOM     32  C   UNL     1      12.163   6.066 -11.539  1.00  0.00     0.035 C 
BRANCH  32  33
ATOM     33  C   UNL     1      11.303   5.367 -10.513  1.00  0.00    -0.044 A 
ATOM     34  C   UNL     1      10.860   4.054 -10.716  1.00  0.00     0.008 A 
ATOM     35  C   UNL     1      10.923   6.045  -9.345  1.00  0.00     0.054 A 
ATOM     36  C   UNL     1      10.062   3.416  -9.759  1.00  0.00     0.051 A 
ATOM     37  C   UNL     1      10.133   5.402  -8.401  1.00  0.00     0.158 A 
ATOM     38  C   UNL     1       9.722   4.084  -8.585  1.00  0.00     0.164 A 
BRANCH  37  39
ATOM     39  O   UNL     1       9.785   6.093  -7.275  1.00  0.00    -0.504 OA
ATOM     40  H   UNL     1      10.095   7.006  -7.426  1.00  0.00     0.293 HD
ENDBRANCH  37  39
BRANCH  38  41
ATOM     41  O   UNL     1       8.942   3.561  -7.587  1.00  0.00    -0.458 OA
BRANCH  41  42
ATOM     42  C   UNL     1       9.533   3.587  -6.280  1.00  0.00     0.339 C 
ATOM     43  O   UNL     1      10.270   2.367  -6.098  1.00  0.00    -0.332 OA
ATOM     44  C   UNL     1       8.386   3.677  -5.248  1.00  0.00     0.214 C 
ATOM     45  C   UNL     1      10.882   2.268  -4.800  1.00  0.00     0.179 C 
ATOM     46  C   UNL     1       8.958   3.535  -3.837  1.00  0.00     0.180 C 
ATOM     47  C   UNL     1       9.817   2.275  -3.698  1.00  0.00     0.177 C 
BRANCH  44  48
ATOM     48  O   UNL     1       7.675   4.921  -5.347  1.00  0.00    -0.384 OA
ATOM     49  H   UNL     1       7.146   5.019  -4.535  1.00  0.00     0.211 HD
ENDBRANCH  44  48
BRANCH  45  50
ATOM     50  C   UNL     1      11.705   0.972  -4.766  1.00  0.00     0.191 C 
BRANCH  50  51
ATOM     51  O   UNL     1      12.784   1.122  -3.838  1.00  0.00    -0.394 OA
ATOM     52  H   UNL     1      12.538   1.870  -3.264  1.00  0.00     0.210 HD
ENDBRANCH  50  51
ENDBRANCH  45  50
BRANCH  46  53
ATOM     53  O   UNL     1       7.896   3.514  -2.866  1.00  0.00    -0.387 OA
ATOM     54  H   UNL     1       7.435   4.373  -2.884  1.00  0.00     0.211 HD
ENDBRANCH  46  53
BRANCH  47  55
ATOM     55  O   UNL     1      10.420   2.245  -2.406  1.00  0.00    -0.387 OA
ATOM     56  H   UNL     1      11.038   1.484  -2.400  1.00  0.00     0.211 HD
ENDBRANCH  47  55
ENDBRANCH  41  42
ENDBRANCH  38  41
ENDBRANCH  32  33
ENDBRANCH  31  32
ENDBRANCH  30  31
ENDBRANCH   1  30
TORSDOF 24
ENDMDL
MODEL 2
REMARK VINA RESULT:    -7.592      2.704      4.636
REMARK INTER + INTRA:         -18.361
REMARK INTER:                 -16.929
REMARK INTRA:                  -1.431
REMARK UNBOUND:                -2.336
REMARK SMILES O=C(CCCCc1ccc(O[C@@H]2O[C@H](CO)[C@@H](O)[C@H](O)[C@H]2O)c(O)c1)CCc1ccc(O[C@@H]2O[C@H](CO)[C@@H](O)[C@H](O)[C@H]2O)c(O)c1
REMARK SMILES IDX 3 1 2 2 1 3 26 4 27 5 28 6 29 7 46 8 30 9 44 10 31 11 45 12
REMARK SMILES IDX 32 14 33 15 34 16 42 17 35 18 40 19 38 20 43 21 36 23 37 24
REMARK SMILES IDX 41 26 39 28 4 30 5 31 6 32 7 33 8 34 25 35 9 36 23 37 10 38
REMARK SMILES IDX 24 39 11 41 12 42 13 43 21 44 14 45 19 46 17 47 22 48 15 50
REMARK SMILES IDX 16 51 20 53 18 55
REMARK H PARENT 45 13 43 22 37 25 41 27 39 29 24 40 22 49 16 52 20 54 18 56
ROOT
ATOM      1  C   UNL     1      10.312   8.796 -13.187  1.00  0.00     0.075 C 
ENDROOT
BRANCH   1   2
ATOM      2  C   UNL     1      10.670  10.273 -13.232  1.00  0.00     0.133 C 
ATOM      3  O   UNL     1      10.820  10.867 -14.299  1.00  0.00    -0.300 OA
BRANCH   2   4
ATOM      4  C   UNL     1      10.843  11.011 -11.916  1.00  0.00     0.080 C 
BRANCH   4   5
ATOM      5  C   UNL     1      10.582  10.155 -10.679  1.00  0.00     0.043 C 
BRANCH   5   6
ATOM      6  C   UNL     1      10.550  10.840  -9.329  1.00  0.00    -0.044 A 
ATOM      7  C   UNL     1      10.915  10.220  -8.123  1.00  0.00     0.008 A 
ATOM      8  C   UNL     1      10.152  12.187  -9.292  1.00  0.00     0.054 A 
ATOM      9  C   UNL     1      10.864  10.922  -6.909  1.00  0.00     0.051 A 
ATOM     10  C   UNL     1      10.091  12.867  -8.085  1.00  0.00     0.158 A 
ATOM     11  C   UNL     1      10.472  12.255  -6.890  1.00  0.00     0.164 A 
BRANCH  10  12
ATOM     12  O   UNL     1       9.643  14.161  -8.092  1.00  0.00    -0.504 OA
ATOM     13  H   UNL     1       9.773  14.486  -7.181  1.00  0.00     0.293 HD
ENDBRANCH  10  12
BRANCH  11  14
ATOM     14  O   UNL     1      10.388  13.036  -5.771  1.00  0.00    -0.458 OA
BRANCH  14  15
ATOM     15  C   UNL     1      11.363  14.087  -5.670  1.00  0.00     0.339 C 
ATOM     16  O   UNL     1      12.555  13.704  -6.357  1.00  0.00    -0.332 OA
ATOM     17  C   UNL     1      11.636  14.262  -4.163  1.00  0.00     0.214 C 
ATOM     18  C   UNL     1      13.593  14.685  -6.241  1.00  0.00     0.179 C 
ATOM     19  C   UNL     1      12.772  15.256  -3.949  1.00  0.00     0.180 C 
ATOM     20  C   UNL     1      13.998  14.858  -4.768  1.00  0.00     0.177 C 
BRANCH  17  21
ATOM     21  O   UNL     1      10.483  14.750  -3.457  1.00  0.00    -0.384 OA
ATOM     22  H   UNL     1      10.137  15.512  -3.964  1.00  0.00     0.211 HD
ENDBRANCH  17  21
BRANCH  18  23
ATOM     23  C   UNL     1      14.790  14.245  -7.094  1.00  0.00     0.191 C 
BRANCH  23  24
ATOM     24  O   UNL     1      15.705  15.317  -7.307  1.00  0.00    -0.394 OA
ATOM     25  H   UNL     1      16.527  14.925  -7.662  1.00  0.00     0.210 HD
ENDBRANCH  23  24
ENDBRANCH  18  23
BRANCH  19  26
ATOM     26  O   UNL     1      13.129  15.311  -2.560  1.00  0.00    -0.387 OA
ATOM     27  H   UNL     1      14.029  15.700  -2.540  1.00  0.00     0.211 HD
ENDBRANCH  19  26
BRANCH  20  28
ATOM     28  O   UNL     1      15.016  15.853  -4.620  1.00  0.00    -0.387 OA
ATOM     29  H   UNL     1      15.680  15.636  -5.305  1.00  0.00     0.211 HD
ENDBRANCH  20  28
ENDBRANCH  14  15
ENDBRANCH  11  14
ENDBRANCH   5   6
ENDBRANCH   4   5
ENDBRANCH   2   4
ENDBRANCH   1   2
BRANCH   1  30
ATOM     30  C   UNL     1      11.533   7.877 -13.281  1.00  0.00     0.008 C 
BRANCH  30  31
ATOM     31  C   UNL     1      11.280   6.460 -12.748  1.00  0.00     0.005 C 
BRANCH  31  32
ATOM     32  C   UNL     1      12.089   6.112 -11.495  1.00  0.00     0.035 C 
BRANCH  32  33
ATOM     33  C   UNL     1      11.246   5.398 -10.466  1.00  0.00    -0.044 A 
ATOM     34  C   UNL     1      10.827   4.076 -10.666  1.00  0.00     0.008 A 
ATOM     35  C   UNL     1      10.856   6.068  -9.296  1.00  0.00     0.054 A 
ATOM     36  C   UNL     1      10.045   3.423  -9.706  1.00  0.00     0.051 A 
ATOM     37  C   UNL     1      10.082   5.411  -8.350  1.00  0.00     0.158 A 
ATOM     38  C   UNL     1       9.695   4.086  -8.531  1.00  0.00     0.164 A 
BRANCH  37  39
ATOM     39  O   UNL     1       9.725   6.096  -7.222  1.00  0.00    -0.504 OA
ATOM     40  H   UNL     1       9.003   6.692  -7.501  1.00  0.00     0.293 HD
ENDBRANCH  37  39
BRANCH  38  41
ATOM     41  O   UNL     1       8.929   3.549  -7.530  1.00  0.00    -0.458 OA
BRANCH  41  42
ATOM     42  C   UNL     1       9.529   3.576  -6.228  1.00  0.00     0.339 C 
ATOM     43  O   UNL     1      10.277   2.363  -6.053  1.00  0.00    -0.332 OA
ATOM     44  C   UNL     1       8.388   3.655  -5.188  1.00  0.00     0.214 C 
ATOM     45  C   UNL     1      10.899   2.266  -4.759  1.00  0.00     0.179 C 
ATOM     46  C   UNL     1       8.970   3.514  -3.780  1.00  0.00     0.180 C 
ATOM     47  C   UNL     1       9.841   2.262  -3.650  1.00  0.00     0.177 C 
BRANCH  44  48
ATOM     48  O   UNL     1       7.665   4.892  -5.279  1.00  0.00    -0.384 OA
ATOM     49  H   UNL     1       8.302   5.583  -5.539  1.00  0.00     0.211 HD
ENDBRANCH  44  48
BRANCH  45  50
ATOM     50  C   UNL     1      11.734   0.977  -4.733  1.00  0.00     0.191 C 
BRANCH  50  51
ATOM     51  O   UNL     1      12.657   1.035  -3.641  1.00  0.00    -0.394 OA
ATOM     52  H   UNL     1      13.202   0.230  -3.713  1.00  0.00     0.210 HD
ENDBRANCH  50  51
ENDBRANCH  45  50
BRANCH  46  53
ATOM     53  O   UNL     1       7.915   3.482  -2.803  1.00  0.00    -0.387 OA
ATOM     54  H   UNL     1       7.190   4.063  -3.101  1.00  0.00     0.211 HD
ENDBRANCH  46  53
BRANCH  47  55
ATOM     55  O   UNL     1      10.452   2.235  -2.362  1.00  0.00    -0.387 OA
ATOM     56  H   UNL     1       9.874   1.690  -1.787  1.00  0.00     0.211 HD
ENDBRANCH  47  55
ENDBRANCH  41  42
ENDBRANCH  38  41
ENDBRANCH  32  33
ENDBRANCH  31  32
ENDBRANCH  30  31
ENDBRANCH   1  30
TORSDOF 24
ENDMDL
MODEL 3
REMARK VINA RESULT:    -7.551      3.811      8.245
REMARK INTER + INTRA:         -18.274
REMARK INTER:                 -16.973
REMARK INTRA:                  -1.301
REMARK UNBOUND:                -2.336
REMARK SMILES O=C(CCCCc1ccc(O[C@@H]2O[C@H](CO)[C@@H](O)[C@H](O)[C@H]2O)c(O)c1)CCc1ccc(O[C@@H]2O[C@H](CO)[C@@H](O)[C@H](O)[C@H]2O)c(O)c1
REMARK SMILES IDX 3 1 2 2 1 3 26 4 27 5 28 6 29 7 46 8 30 9 44 10 31 11 45 12
REMARK SMILES IDX 32 14 33 15 34 16 42 17 35 18 40 19 38 20 43 21 36 23 37 24
REMARK SMILES IDX 41 26 39 28 4 30 5 31 6 32 7 33 8 34 25 35 9 36 23 37 10 38
REMARK SMILES IDX 24 39 11 41 12 42 13 43 21 44 14 45 19 46 17 47 22 48 15 50
REMARK SMILES IDX 16 51 20 53 18 55
REMARK H PARENT 45 13 43 22 37 25 41 27 39 29 24 40 22 49 16 52 20 54 18 56
ROOT
ATOM      1  C   UNL     1      10.853  13.707  -3.887  1.00  0.00     0.075 C 
ENDROOT
BRANCH   1   2
ATOM      2  C   UNL     1      12.236  14.340  -3.868  1.00  0.00     0.133 C 
ATOM      3  O   UNL     1      13.124  13.925  -3.125  1.00  0.00    -0.300 OA
BRANCH   2   4
ATOM      4  C   UNL     1      12.504  15.511  -4.798  1.00  0.00     0.080 C 
BRANCH   4   5
ATOM      5  C   UNL     1      13.027  15.109  -6.175  1.00  0.00     0.043 C 
BRANCH   5   6
ATOM      6  C   UNL     1      12.311  14.003  -6.918  1.00  0.00    -0.044 A 
ATOM      7  C   UNL     1      12.869  12.741  -7.181  1.00  0.00     0.008 A 
ATOM      8  C   UNL     1      10.997  14.252  -7.348  1.00  0.00     0.054 A 
ATOM      9  C   UNL     1      12.140  11.762  -7.874  1.00  0.00     0.051 A 
ATOM     10  C   UNL     1      10.290  13.283  -8.044  1.00  0.00     0.158 A 
ATOM     11  C   UNL     1      10.839  12.024  -8.288  1.00  0.00     0.164 A 
BRANCH  10  12
ATOM     12  O   UNL     1       9.033  13.593  -8.492  1.00  0.00    -0.504 OA
ATOM     13  H   UNL     1       8.424  13.251  -7.811  1.00  0.00     0.293 HD
ENDBRANCH  10  12
BRANCH  11  14
ATOM     14  O   UNL     1      10.037  11.149  -8.966  1.00  0.00    -0.458 OA
BRANCH  14  15
ATOM     15  C   UNL     1      10.670  10.419 -10.030  1.00  0.00     0.339 C 
ATOM     16  O   UNL     1      10.311  10.994 -11.287  1.00  0.00    -0.332 OA
ATOM     17  C   UNL     1      10.140   8.975  -9.921  1.00  0.00     0.214 C 
ATOM     18  C   UNL     1      10.860  10.273 -12.396  1.00  0.00     0.179 C 
ATOM     19  C   UNL     1      10.635   8.146 -11.100  1.00  0.00     0.180 C 
ATOM     20  C   UNL     1      10.309   8.838 -12.422  1.00  0.00     0.177 C 
BRANCH  17  21
ATOM     21  O   UNL     1      10.572   8.329  -8.713  1.00  0.00    -0.384 OA
ATOM     22  H   UNL     1      11.546   8.419  -8.673  1.00  0.00     0.211 HD
ENDBRANCH  17  21
BRANCH  18  23
ATOM     23  C   UNL     1      10.518  11.018 -13.692  1.00  0.00     0.191 C 
BRANCH  23  24
ATOM     24  O   UNL     1      11.301  10.551 -14.789  1.00  0.00    -0.394 OA
ATOM     25  H   UNL     1      11.714  11.336 -15.199  1.00  0.00     0.210 HD
ENDBRANCH  23  24
ENDBRANCH  18  23
BRANCH  19  26
ATOM     26  O   UNL     1      10.027   6.846 -11.084  1.00  0.00    -0.387 OA
ATOM     27  H   UNL     1       9.436   6.847 -10.302  1.00  0.00     0.211 HD
ENDBRANCH  19  26
BRANCH  20  28
ATOM     28  O   UNL     1      10.863   8.085 -13.506  1.00  0.00    -0.387 OA
ATOM     29  H   UNL     1      10.179   8.111 -14.204  1.00  0.00     0.211 HD
ENDBRANCH  20  28
ENDBRANCH  14  15
ENDBRANCH  11  14
ENDBRANCH   5   6
ENDBRANCH   4   5
ENDBRANCH   2   4
ENDBRANCH   1   2
BRANCH   1  30
ATOM     30  C   UNL     1      10.873  12.229  -4.286  1.00  0.00     0.008 C 
BRANCH  30  31
ATOM     31  C   UNL     1       9.593  11.472  -3.906  1.00  0.00     0.005 C 
BRANCH  31  32
ATOM     32  C   UNL     1       8.980  10.666  -5.054  1.00  0.00     0.035 C 
BRANCH  32  33
ATOM     33  C   UNL     1       7.556  10.261  -4.756  1.00  0.00    -0.044 A 
ATOM     34  C   UNL     1       7.060  10.279  -3.446  1.00  0.00     0.008 A 
ATOM     35  C   UNL     1       6.717   9.842  -5.800  1.00  0.00     0.054 A 
ATOM     36  C   UNL     1       5.738   9.900  -3.181  1.00  0.00     0.051 A 
ATOM     37  C   UNL     1       5.408   9.471  -5.526  1.00  0.00     0.158 A 
ATOM     38  C   UNL     1       4.902   9.522  -4.229  1.00  0.00     0.164 A 
BRANCH  37  39
ATOM     39  O   UNL     1       4.620   9.071  -6.568  1.00  0.00    -0.504 OA
ATOM     40  H   UNL     1       4.269   9.895  -6.957  1.00  0.00     0.293 HD
ENDBRANCH  37  39
BRANCH  38  41
ATOM     41  O   UNL     1       3.599   9.126  -4.085  1.00  0.00    -0.458 OA
BRANCH  41  42
ATOM     42  C   UNL     1       3.410   7.936  -3.306  1.00  0.00     0.339 C 
ATOM     43  O   UNL     1       3.123   8.327  -1.953  1.00  0.00    -0.332 OA
ATOM     44  C   UNL     1       4.725   7.127  -3.359  1.00  0.00     0.214 C 
ATOM     45  C   UNL     1       2.946   7.207  -1.069  1.00  0.00     0.179 C 
ATOM     46  C   UNL     1       4.630   5.935  -2.405  1.00  0.00     0.180 C 
ATOM     47  C   UNL     1       4.229   6.371  -0.993  1.00  0.00     0.177 C 
BRANCH  44  48
ATOM     48  O   UNL     1       5.006   6.649  -4.684  1.00  0.00    -0.384 OA
ATOM     49  H   UNL     1       4.161   6.623  -5.170  1.00  0.00     0.211 HD
ENDBRANCH  44  48
BRANCH  45  50
ATOM     50  C   UNL     1       2.559   7.754   0.313  1.00  0.00     0.191 C 
BRANCH  50  51
ATOM     51  O   UNL     1       2.219   9.139   0.194  1.00  0.00    -0.394 OA
ATOM     52  H   UNL     1       2.826   9.504  -0.476  1.00  0.00     0.210 HD
ENDBRANCH  50  51
ENDBRANCH  45  50
BRANCH  46  53
ATOM     53  O   UNL     1       5.881   5.225  -2.363  1.00  0.00    -0.387 OA
ATOM     54  H   UNL     1       6.200   5.202  -1.441  1.00  0.00     0.211 HD
ENDBRANCH  46  53
BRANCH  47  55
ATOM     55  O   UNL     1       4.041   5.220  -0.171  1.00  0.00    -0.387 OA
ATOM     56  H   UNL     1       3.073   5.109  -0.059  1.00  0.00     0.211 HD
ENDBRANCH  47  55
ENDBRANCH  41  42
ENDBRANCH  38  41
ENDBRANCH  32  33
ENDBRANCH  31  32
ENDBRANCH  30  31
ENDBRANCH   1  30
TORSDOF 24
ENDMDL
MODEL 4
REMARK VINA RESULT:    -7.528      2.805      8.683
REMARK INTER + INTRA:         -18.224
REMARK INTER:                 -16.878
REMARK INTRA:                  -1.346
REMARK UNBOUND:                -2.336
REMARK SMILES O=C(CCCCc1ccc(O[C@@H]2O[C@H](CO)[C@@H](O)[C@H](O)[C@H]2O)c(O)c1)CCc1ccc(O[C@@H]2O[C@H](CO)[C@@H](O)[C@H](O)[C@H]2O)c(O)c1
REMARK SMILES IDX 3 1 2 2 1 3 26 4 27 5 28 6 29 7 46 8 30 9 44 10 31 11 45 12
REMARK SMILES IDX 32 14 33 15 34 16 42 17 35 18 40 19 38 20 43 21 36 23 37 24
REMARK SMILES IDX 41 26 39 28 4 30 5 31 6 32 7 33 8 34 25 35 9 36 23 37 10 38
REMARK SMILES IDX 24 39 11 41 12 42 13 43 21 44 14 45 19 46 17 47 22 48 15 50
REMARK SMILES IDX 16 51 20 53 18 55
REMARK H PARENT 45 13 43 22 37 25 41 27 39 29 24 40 22 49 16 52 20 54 18 56
ROOT
ATOM      1  C   UNL     1      10.416   2.135  -4.536  1.00  0.00     0.075 C 
ENDROOT
BRANCH   1   2
ATOM      2  C   UNL     1      10.450   2.545  -3.071  1.00  0.00     0.133 C 
ATOM      3  O   UNL     1      11.015   1.858  -2.222  1.00  0.00    -0.300 OA
BRANCH   2   4
ATOM      4  C   UNL     1       9.763   3.840  -2.672  1.00  0.00     0.080 C 
BRANCH   4   5
ATOM      5  C   UNL     1       8.670   3.670  -1.619  1.00  0.00     0.043 C 
BRANCH   5   6
ATOM      6  C   UNL     1       7.285   4.192  -1.935  1.00  0.00    -0.044 A 
ATOM      7  C   UNL     1       6.888   4.657  -3.200  1.00  0.00     0.008 A 
ATOM      8  C   UNL     1       6.335   4.184  -0.900  1.00  0.00     0.054 A 
ATOM      9  C   UNL     1       5.583   5.123  -3.418  1.00  0.00     0.051 A 
ATOM     10  C   UNL     1       5.051   4.660  -1.123  1.00  0.00     0.158 A 
ATOM     11  C   UNL     1       4.654   5.104  -2.384  1.00  0.00     0.164 A 
BRANCH  10  12
ATOM     12  O   UNL     1       4.177   4.685  -0.068  1.00  0.00    -0.504 OA
ATOM     13  H   UNL     1       3.630   3.883  -0.165  1.00  0.00     0.293 HD
ENDBRANCH  10  12
BRANCH  11  14
ATOM     14  O   UNL     1       3.358   5.529  -2.482  1.00  0.00    -0.458 OA
BRANCH  14  15
ATOM     15  C   UNL     1       3.179   6.889  -2.912  1.00  0.00     0.339 C 
ATOM     16  O   UNL     1       3.134   6.940  -4.338  1.00  0.00    -0.332 OA
ATOM     17  C   UNL     1       4.402   7.661  -2.378  1.00  0.00     0.214 C 
ATOM     18  C   UNL     1       3.021   8.279  -4.835  1.00  0.00     0.179 C 
ATOM     19  C   UNL     1       4.389   9.091  -2.907  1.00  0.00     0.180 C 
ATOM     20  C   UNL     1       4.253   9.104  -4.428  1.00  0.00     0.177 C 
BRANCH  17  21
ATOM     21  O   UNL     1       4.421   7.720  -0.943  1.00  0.00    -0.384 OA
ATOM     22  H   UNL     1       4.345   8.664  -0.693  1.00  0.00     0.211 HD
ENDBRANCH  17  21
BRANCH  18  23
ATOM     23  C   UNL     1       2.869   8.232  -6.361  1.00  0.00     0.191 C 
BRANCH  23  24
ATOM     24  O   UNL     1       3.858   9.027  -7.012  1.00  0.00    -0.394 OA
ATOM     25  H   UNL     1       4.059   9.776  -6.416  1.00  0.00     0.210 HD
ENDBRANCH  23  24
ENDBRANCH  18  23
BRANCH  19  26
ATOM     26  O   UNL     1       5.599   9.769  -2.536  1.00  0.00    -0.387 OA
ATOM     27  H   UNL     1       6.263   9.060  -2.405  1.00  0.00     0.211 HD
ENDBRANCH  19  26
BRANCH  20  28
ATOM     28  O   UNL     1       4.153  10.455  -4.888  1.00  0.00    -0.387 OA
ATOM     29  H   UNL     1       4.937  10.584  -5.458  1.00  0.00     0.211 HD
ENDBRANCH  20  28
ENDBRANCH  14  15
ENDBRANCH  11  14
ENDBRANCH   5   6
ENDBRANCH   4   5
ENDBRANCH   2   4
ENDBRANCH   1   2
BRANCH   1  30
ATOM     30  C   UNL     1       8.996   2.022  -5.097  1.00  0.00     0.008 C 
BRANCH  30  31
ATOM     31  C   UNL     1       8.633   3.142  -6.081  1.00  0.00     0.005 C 
BRANCH  31  32
ATOM     32  C   UNL     1       9.666   4.269  -6.152  1.00  0.00     0.035 C 
BRANCH  32  33
ATOM     33  C   UNL     1       9.844   4.777  -7.563  1.00  0.00    -0.044 A 
ATOM     34  C   UNL     1      10.051   6.138  -7.820  1.00  0.00     0.008 A 
ATOM     35  C   UNL     1       9.784   3.879  -8.640  1.00  0.00     0.054 A 
ATOM     36  C   UNL     1      10.214   6.599  -9.132  1.00  0.00     0.051 A 
ATOM     37  C   UNL     1       9.948   4.347  -9.937  1.00  0.00     0.158 A 
ATOM     38  C   UNL     1      10.190   5.694 -10.191  1.00  0.00     0.164 A 
BRANCH  37  39
ATOM     39  O   UNL     1       9.885   3.442 -10.960  1.00  0.00    -0.504 OA
ATOM     40  H   UNL     1       8.944   3.408 -11.216  1.00  0.00     0.293 HD
ENDBRANCH  37  39
BRANCH  38  41
ATOM     41  O   UNL     1      10.329   6.033 -11.511  1.00  0.00    -0.458 OA
BRANCH  41  42
ATOM     42  C   UNL     1      10.898   7.329 -11.747  1.00  0.00     0.339 C 
ATOM     43  O   UNL     1       9.997   8.068 -12.586  1.00  0.00    -0.332 OA
ATOM     44  C   UNL     1      12.251   7.124 -12.465  1.00  0.00     0.214 C 
ATOM     45  C   UNL     1      10.484   9.381 -12.917  1.00  0.00     0.179 C 
ATOM     46  C   UNL     1      12.814   8.482 -12.889  1.00  0.00     0.180 C 
ATOM     47  C   UNL     1      11.798   9.288 -13.702  1.00  0.00     0.177 C 
BRANCH  44  48
ATOM     48  O   UNL     1      13.206   6.457 -11.626  1.00  0.00    -0.384 OA
ATOM     49  H   UNL     1      12.738   5.736 -11.167  1.00  0.00     0.211 HD
ENDBRANCH  44  48
BRANCH  45  50
ATOM     50  C   UNL     1       9.398  10.094 -13.736  1.00  0.00     0.191 C 
BRANCH  50  51
ATOM     51  O   UNL     1       9.843  11.415 -14.060  1.00  0.00    -0.394 OA
ATOM     52  H   UNL     1       9.076  11.997 -13.908  1.00  0.00     0.210 HD
ENDBRANCH  50  51
ENDBRANCH  45  50
BRANCH  46  53
ATOM     53  O   UNL     1      14.023   8.307 -13.650  1.00  0.00    -0.387 OA
ATOM     54  H   UNL     1      14.012   7.423 -14.063  1.00  0.00     0.211 HD
ENDBRANCH  46  53
BRANCH  47  55
ATOM     55  O   UNL     1      12.322  10.585 -13.975  1.00  0.00    -0.387 OA
ATOM     56  H   UNL     1      11.731  11.228 -13.530  1.00  0.00     0.211 HD
ENDBRANCH  47  55
ENDBRANCH  41  42
ENDBRANCH  38  41
ENDBRANCH  32  33
ENDBRANCH  31  32
ENDBRANCH  30  31
ENDBRANCH   1  30
TORSDOF 24
ENDMDL
MODEL 5
REMARK VINA RESULT:    -7.519      2.531      9.871
REMARK INTER + INTRA:         -18.206
REMARK INTER:                 -14.687
REMARK INTRA:                  -3.520
REMARK UNBOUND:                -2.336
REMARK SMILES O=C(CCCCc1ccc(O[C@@H]2O[C@H](CO)[C@@H](O)[C@H](O)[C@H]2O)c(O)c1)CCc1ccc(O[C@@H]2O[C@H](CO)[C@@H](O)[C@H](O)[C@H]2O)c(O)c1
REMARK SMILES IDX 3 1 2 2 1 3 26 4 27 5 28 6 29 7 46 8 30 9 44 10 31 11 45 12
REMARK SMILES IDX 32 14 33 15 34 16 42 17 35 18 40 19 38 20 43 21 36 23 37 24
REMARK SMILES IDX 41 26 39 28 4 30 5 31 6 32 7 33 8 34 25 35 9 36 23 37 10 38
REMARK SMILES IDX 24 39 11 41 12 42 13 43 21 44 14 45 19 46 17 47 22 48 15 50
REMARK SMILES IDX 16 51 20 53 18 55
REMARK H PARENT 45 13 43 22 37 25 41 27 39 29 24 40 22 49 16 52 20 54 18 56
ROOT
ATOM      1  C   UNL     1       4.956   5.370  -2.516  1.00  0.00     0.075 C 
ENDROOT
BRANCH   1   2
ATOM      2  C   UNL     1       5.969   4.653  -1.637  1.00  0.00     0.133 C 
ATOM      3  O   UNL     1       5.618   3.859  -0.766  1.00  0.00    -0.300 OA
BRANCH   2   4
ATOM      4  C   UNL     1       7.444   4.939  -1.860  1.00  0.00     0.080 C 
BRANCH   4   5
ATOM      5  C   UNL     1       8.239   3.751  -2.397  1.00  0.00     0.043 C 
BRANCH   5   6
ATOM      6  C   UNL     1       8.565   3.718  -3.875  1.00  0.00    -0.044 A 
ATOM      7  C   UNL     1       9.732   3.149  -4.411  1.00  0.00     0.008 A 
ATOM      8  C   UNL     1       7.626   4.272  -4.761  1.00  0.00     0.054 A 
ATOM      9  C   UNL     1       9.963   3.153  -5.795  1.00  0.00     0.051 A 
ATOM     10  C   UNL     1       7.871   4.283  -6.126  1.00  0.00     0.158 A 
ATOM     11  C   UNL     1       9.022   3.700  -6.658  1.00  0.00     0.164 A 
BRANCH  10  12
ATOM     12  O   UNL     1       6.952   4.885  -6.945  1.00  0.00    -0.504 OA
ATOM     13  H   UNL     1       7.319   4.809  -7.846  1.00  0.00     0.293 HD
ENDBRANCH  10  12
BRANCH  11  14
ATOM     14  O   UNL     1       9.139   3.757  -8.019  1.00  0.00    -0.458 OA
BRANCH  14  15
ATOM     15  C   UNL     1      10.085   4.714  -8.523  1.00  0.00     0.339 C 
ATOM     16  O   UNL     1       9.544   6.031  -8.408  1.00  0.00    -0.332 OA
ATOM     17  C   UNL     1      10.306   4.346 -10.004  1.00  0.00     0.214 C 
ATOM     18  C   UNL     1      10.413   7.031  -8.953  1.00  0.00     0.179 C 
ATOM     19  C   UNL     1      11.183   5.394 -10.679  1.00  0.00     0.180 C 
ATOM     20  C   UNL     1      10.617   6.795 -10.458  1.00  0.00     0.177 C 
BRANCH  17  21
ATOM     21  O   UNL     1      10.948   3.069 -10.154  1.00  0.00    -0.384 OA
ATOM     22  H   UNL     1      10.715   2.536  -9.366  1.00  0.00     0.211 HD
ENDBRANCH  17  21
BRANCH  18  23
ATOM     23  C   UNL     1       9.807   8.415  -8.688  1.00  0.00     0.191 C 
BRANCH  23  24
ATOM     24  O   UNL     1      10.659   9.214  -7.872  1.00  0.00    -0.394 OA
ATOM     25  H   UNL     1      10.090   9.652  -7.209  1.00  0.00     0.210 HD
ENDBRANCH  23  24
ENDBRANCH  18  23
BRANCH  19  26
ATOM     26  O   UNL     1      11.270   5.137 -12.088  1.00  0.00    -0.387 OA
ATOM     27  H   UNL     1      10.356   5.242 -12.427  1.00  0.00     0.211 HD
ENDBRANCH  19  26
BRANCH  20  28
ATOM     28  O   UNL     1      11.505   7.765 -11.023  1.00  0.00    -0.387 OA
ATOM     29  H   UNL     1      12.019   7.272 -11.694  1.00  0.00     0.211 HD
ENDBRANCH  20  28
ENDBRANCH  14  15
ENDBRANCH  11  14
ENDBRANCH   5   6
ENDBRANCH   4   5
ENDBRANCH   2   4
ENDBRANCH   1   2
BRANCH   1  30
ATOM     30  C   UNL     1       5.023   6.895  -2.392  1.00  0.00     0.008 C 
BRANCH  30  31
ATOM     31  C   UNL     1       3.664   7.586  -2.563  1.00  0.00     0.005 C 
BRANCH  31  32
ATOM     32  C   UNL     1       3.462   8.232  -3.937  1.00  0.00     0.035 C 
BRANCH  32  33
ATOM     33  C   UNL     1       4.766   8.720  -4.523  1.00  0.00    -0.044 A 
ATOM     34  C   UNL     1       5.301   9.963  -4.161  1.00  0.00     0.008 A 
ATOM     35  C   UNL     1       5.448   7.928  -5.459  1.00  0.00     0.054 A 
ATOM     36  C   UNL     1       6.509  10.406  -4.712  1.00  0.00     0.051 A 
ATOM     37  C   UNL     1       6.647   8.376  -5.998  1.00  0.00     0.158 A 
ATOM     38  C   UNL     1       7.198   9.595  -5.612  1.00  0.00     0.164 A 
BRANCH  37  39
ATOM     39  O   UNL     1       7.284   7.577  -6.905  1.00  0.00    -0.504 OA
ATOM     40  H   UNL     1       7.599   6.807  -6.394  1.00  0.00     0.293 HD
ENDBRANCH  37  39
BRANCH  38  41
ATOM     41  O   UNL     1       8.380   9.930  -6.217  1.00  0.00    -0.458 OA
BRANCH  41  42
ATOM     42  C   UNL     1       8.750  11.311  -6.101  1.00  0.00     0.339 C 
ATOM     43  O   UNL     1       9.110  11.790  -7.407  1.00  0.00    -0.332 OA
ATOM     44  C   UNL     1       9.965  11.394  -5.149  1.00  0.00     0.214 C 
ATOM     45  C   UNL     1       9.533  13.165  -7.406  1.00  0.00     0.179 C 
ATOM     46  C   UNL     1      10.501  12.826  -5.129  1.00  0.00     0.180 C 
ATOM     47  C   UNL     1      10.786  13.344  -6.541  1.00  0.00     0.177 C 
BRANCH  44  48
ATOM     48  O   UNL     1       9.623  10.998  -3.812  1.00  0.00    -0.384 OA
ATOM     49  H   UNL     1      10.194  10.244  -3.576  1.00  0.00     0.211 HD
ENDBRANCH  44  48
BRANCH  45  50
ATOM     50  C   UNL     1       9.801  13.576  -8.861  1.00  0.00     0.191 C 
BRANCH  50  51
ATOM     51  O   UNL     1       9.788  15.003  -8.959  1.00  0.00    -0.394 OA
ATOM     52  H   UNL     1      10.227  15.215  -9.803  1.00  0.00     0.210 HD
ENDBRANCH  50  51
ENDBRANCH  45  50
BRANCH  46  53
ATOM     53  O   UNL     1      11.693  12.904  -4.328  1.00  0.00    -0.387 OA
ATOM     54  H   UNL     1      12.048  12.004  -4.202  1.00  0.00     0.211 HD
ENDBRANCH  46  53
BRANCH  47  55
ATOM     55  O   UNL     1      11.172  14.716  -6.481  1.00  0.00    -0.387 OA
ATOM     56  H   UNL     1      11.662  14.908  -7.308  1.00  0.00     0.211 HD
ENDBRANCH  47  55
ENDBRANCH  41  42
ENDBRANCH  38  41
ENDBRANCH  32  33
ENDBRANCH  31  32
ENDBRANCH  30  31
ENDBRANCH   1  30
TORSDOF 24
ENDMDL
MODEL 6
REMARK VINA RESULT:    -7.473      2.575      8.234
REMARK INTER + INTRA:         -18.109
REMARK INTER:                 -15.802
REMARK INTRA:                  -2.308
REMARK UNBOUND:                -2.336
REMARK SMILES O=C(CCCCc1ccc(O[C@@H]2O[C@H](CO)[C@@H](O)[C@H](O)[C@H]2O)c(O)c1)CCc1ccc(O[C@@H]2O[C@H](CO)[C@@H](O)[C@H](O)[C@H]2O)c(O)c1
REMARK SMILES IDX 3 1 2 2 1 3 26 4 27 5 28 6 29 7 46 8 30 9 44 10 31 11 45 12
REMARK SMILES IDX 32 14 33 15 34 16 42 17 35 18 40 19 38 20 43 21 36 23 37 24
REMARK SMILES IDX 41 26 39 28 4 30 5 31 6 32 7 33 8 34 25 35 9 36 23 37 10 38
REMARK SMILES IDX 24 39 11 41 12 42 13 43 21 44 14 45 19 46 17 47 22 48 15 50
REMARK SMILES IDX 16 51 20 53 18 55
REMARK H PARENT 45 13 43 22 37 25 41 27 39 29 24 40 22 49 16 52 20 54 18 56
ROOT
ATOM      1  C   UNL     1       9.907   1.542  -4.285  1.00  0.00     0.075 C 
ENDROOT
BRANCH   1   2
ATOM      2  C   UNL     1      10.160   2.099  -2.893  1.00  0.00     0.133 C 
ATOM      3  O   UNL     1      11.052   1.654  -2.172  1.00  0.00    -0.300 OA
BRANCH   2   4
ATOM      4  C   UNL     1       9.277   3.233  -2.401  1.00  0.00     0.080 C 
BRANCH   4   5
ATOM      5  C   UNL     1       7.881   2.796  -1.963  1.00  0.00     0.043 C 
BRANCH   5   6
ATOM      6  C   UNL     1       6.755   3.803  -2.051  1.00  0.00    -0.044 A 
ATOM      7  C   UNL     1       6.519   4.624  -3.166  1.00  0.00     0.008 A 
ATOM      8  C   UNL     1       5.880   3.899  -0.956  1.00  0.00     0.054 A 
ATOM      9  C   UNL     1       5.450   5.533  -3.175  1.00  0.00     0.051 A 
ATOM     10  C   UNL     1       4.835   4.811  -0.970  1.00  0.00     0.158 A 
ATOM     11  C   UNL     1       4.591   5.613  -2.085  1.00  0.00     0.164 A 
BRANCH  10  12
ATOM     12  O   UNL     1       4.044   4.908   0.144  1.00  0.00    -0.504 OA
ATOM     13  H   UNL     1       3.955   5.864   0.316  1.00  0.00     0.293 HD
ENDBRANCH  10  12
BRANCH  11  14
ATOM     14  O   UNL     1       3.519   6.456  -1.986  1.00  0.00    -0.458 OA
BRANCH  14  15
ATOM     15  C   UNL     1       3.651   7.713  -2.669  1.00  0.00     0.339 C 
ATOM     16  O   UNL     1       3.813   7.485  -4.069  1.00  0.00    -0.332 OA
ATOM     17  C   UNL     1       4.909   8.381  -2.078  1.00  0.00     0.214 C 
ATOM     18  C   UNL     1       4.014   8.700  -4.803  1.00  0.00     0.179 C 
ATOM     19  C   UNL     1       5.228   9.662  -2.840  1.00  0.00     0.180 C 
ATOM     20  C   UNL     1       5.307   9.392  -4.341  1.00  0.00     0.177 C 
BRANCH  17  21
ATOM     21  O   UNL     1       4.740   8.722  -0.692  1.00  0.00    -0.384 OA
ATOM     22  H   UNL     1       4.361   7.936  -0.247  1.00  0.00     0.211 HD
ENDBRANCH  17  21
BRANCH  18  23
ATOM     23  C   UNL     1       4.068   8.373  -6.300  1.00  0.00     0.191 C 
BRANCH  23  24
ATOM     24  O   UNL     1       3.098   9.115  -7.035  1.00  0.00    -0.394 OA
ATOM     25  H   UNL     1       3.250   8.925  -7.982  1.00  0.00     0.210 HD
ENDBRANCH  23  24
ENDBRANCH  18  23
BRANCH  19  26
ATOM     26  O   UNL     1       6.478  10.208  -2.392  1.00  0.00    -0.387 OA
ATOM     27  H   UNL     1       6.323  11.173  -2.310  1.00  0.00     0.211 HD
ENDBRANCH  19  26
BRANCH  20  28
ATOM     28  O   UNL     1       5.518  10.623  -5.039  1.00  0.00    -0.387 OA
ATOM     29  H   UNL     1       5.227  11.317  -4.415  1.00  0.00     0.211 HD
ENDBRANCH  20  28
ENDBRANCH  14  15
ENDBRANCH  11  14
ENDBRANCH   5   6
ENDBRANCH   4   5
ENDBRANCH   2   4
ENDBRANCH   1   2
BRANCH   1  30
ATOM     30  C   UNL     1       9.025   2.451  -5.146  1.00  0.00     0.008 C 
BRANCH  30  31
ATOM     31  C   UNL     1       9.796   3.587  -5.831  1.00  0.00     0.005 C 
BRANCH  31  32
ATOM     32  C   UNL     1       9.407   3.812  -7.294  1.00  0.00     0.035 C 
BRANCH  32  33
ATOM     33  C   UNL     1       9.426   5.277  -7.659  1.00  0.00    -0.044 A 
ATOM     34  C   UNL     1      10.410   5.797  -8.510  1.00  0.00     0.008 A 
ATOM     35  C   UNL     1       8.456   6.141  -7.127  1.00  0.00     0.054 A 
ATOM     36  C   UNL     1      10.419   7.157  -8.842  1.00  0.00     0.051 A 
ATOM     37  C   UNL     1       8.473   7.488  -7.464  1.00  0.00     0.158 A 
ATOM     38  C   UNL     1       9.429   7.999  -8.338  1.00  0.00     0.164 A 
BRANCH  37  39
ATOM     39  O   UNL     1       7.511   8.297  -6.928  1.00  0.00    -0.504 OA
ATOM     40  H   UNL     1       6.879   7.694  -6.493  1.00  0.00     0.293 HD
ENDBRANCH  37  39
BRANCH  38  41
ATOM     41  O   UNL     1       9.345   9.343  -8.589  1.00  0.00    -0.458 OA
BRANCH  41  42
ATOM     42  C   UNL     1      10.230  10.161  -7.810  1.00  0.00     0.339 C 
ATOM     43  O   UNL     1       9.619  10.388  -6.530  1.00  0.00    -0.332 OA
ATOM     44  C   UNL     1      10.413  11.500  -8.559  1.00  0.00     0.214 C 
ATOM     45  C   UNL     1      10.408  11.230  -5.671  1.00  0.00     0.179 C 
ATOM     46  C   UNL     1      11.211  12.469  -7.685  1.00  0.00     0.180 C 
ATOM     47  C   UNL     1      10.590  12.619  -6.294  1.00  0.00     0.177 C 
BRANCH  44  48
ATOM     48  O   UNL     1      11.093  11.323  -9.812  1.00  0.00    -0.384 OA
ATOM     49  H   UNL     1      10.760  12.004 -10.423  1.00  0.00     0.211 HD
ENDBRANCH  44  48
BRANCH  45  50
ATOM     50  C   UNL     1       9.694  11.320  -4.314  1.00  0.00     0.191 C 
BRANCH  50  51
ATOM     51  O   UNL     1       8.480  10.564  -4.368  1.00  0.00    -0.394 OA
ATOM     52  H   UNL     1       8.537  10.029  -5.181  1.00  0.00     0.210 HD
ENDBRANCH  50  51
ENDBRANCH  45  50
BRANCH  46  53
ATOM     53  O   UNL     1      11.305  13.756  -8.321  1.00  0.00    -0.387 OA
ATOM     54  H   UNL     1      11.195  14.451  -7.646  1.00  0.00     0.211 HD
ENDBRANCH  46  53
BRANCH  47  55
ATOM     55  O   UNL     1      11.428  13.437  -5.480  1.00  0.00    -0.387 OA
ATOM     56  H   UNL     1      12.221  12.903  -5.264  1.00  0.00     0.211 HD
ENDBRANCH  47  55
ENDBRANCH  41  42
ENDBRANCH  38  41
ENDBRANCH  32  33
ENDBRANCH  31  32
ENDBRANCH  30  31
ENDBRANCH   1  30
TORSDOF 24
ENDMDL
MODEL 7
REMARK VINA RESULT:    -7.337      2.439      8.258
REMARK INTER + INTRA:         -17.821
REMARK INTER:                 -15.138
REMARK INTRA:                  -2.684
REMARK UNBOUND:                -2.336
REMARK SMILES O=C(CCCCc1ccc(O[C@@H]2O[C@H](CO)[C@@H](O)[C@H](O)[C@H]2O)c(O)c1)CCc1ccc(O[C@@H]2O[C@H](CO)[C@@H](O)[C@H](O)[C@H]2O)c(O)c1
REMARK SMILES IDX 3 1 2 2 1 3 26 4 27 5 28 6 29 7 46 8 30 9 44 10 31 11 45 12
REMARK SMILES IDX 32 14 33 15 34 16 42 17 35 18 40 19 38 20 43 21 36 23 37 24
REMARK SMILES IDX 41 26 39 28 4 30 5 31 6 32 7 33 8 34 25 35 9 36 23 37 10 38
REMARK SMILES IDX 24 39 11 41 12 42 13 43 21 44 14 45 19 46 17 47 22 48 15 50
REMARK SMILES IDX 16 51 20 53 18 55
REMARK H PARENT 45 13 43 22 37 25 41 27 39 29 24 40 22 49 16 52 20 54 18 56
ROOT
ATOM      1  C   UNL     1      10.096   3.854  -3.853  1.00  0.00     0.075 C 
ENDROOT
BRANCH   1   2
ATOM      2  C   UNL     1      10.010   2.990  -5.102  1.00  0.00     0.133 C 
ATOM      3  O   UNL     1      10.721   1.997  -5.249  1.00  0.00    -0.300 OA
BRANCH   2   4
ATOM      4  C   UNL     1       9.013   3.381  -6.179  1.00  0.00     0.080 C 
BRANCH   4   5
ATOM      5  C   UNL     1       9.653   3.815  -7.496  1.00  0.00     0.043 C 
BRANCH   5   6
ATOM      6  C   UNL     1       9.650   5.289  -7.841  1.00  0.00    -0.044 A 
ATOM      7  C   UNL     1      10.565   5.895  -8.718  1.00  0.00     0.008 A 
ATOM      8  C   UNL     1       8.651   6.090  -7.263  1.00  0.00     0.054 A 
ATOM      9  C   UNL     1      10.496   7.269  -8.992  1.00  0.00     0.051 A 
ATOM     10  C   UNL     1       8.601   7.451  -7.530  1.00  0.00     0.158 A 
ATOM     11  C   UNL     1       9.499   8.047  -8.416  1.00  0.00     0.164 A 
BRANCH  10  12
ATOM     12  O   UNL     1       7.644   8.200  -6.898  1.00  0.00    -0.504 OA
ATOM     13  H   UNL     1       6.794   7.770  -7.111  1.00  0.00     0.293 HD
ENDBRANCH  10  12
BRANCH  11  14
ATOM     14  O   UNL     1       9.334   9.390  -8.612  1.00  0.00    -0.458 OA
BRANCH  14  15
ATOM     15  C   UNL     1      10.199  10.242  -7.844  1.00  0.00     0.339 C 
ATOM     16  O   UNL     1       9.657  10.424  -6.535  1.00  0.00    -0.332 OA
ATOM     17  C   UNL     1      10.249  11.583  -8.604  1.00  0.00     0.214 C 
ATOM     18  C   UNL     1      10.442  11.318  -5.737  1.00  0.00     0.179 C 
ATOM     19  C   UNL     1      11.025  12.615  -7.794  1.00  0.00     0.180 C 
ATOM     20  C   UNL     1      10.469  12.717  -6.375  1.00  0.00     0.177 C 
BRANCH  17  21
ATOM     21  O   UNL     1      10.887  11.455  -9.885  1.00  0.00    -0.384 OA
ATOM     22  H   UNL     1      10.917  10.500 -10.097  1.00  0.00     0.211 HD
ENDBRANCH  17  21
BRANCH  18  23
ATOM     23  C   UNL     1       9.851  11.369  -4.322  1.00  0.00     0.191 C 
BRANCH  23  24
ATOM     24  O   UNL     1       8.628  10.642  -4.237  1.00  0.00    -0.394 OA
ATOM     25  H   UNL     1       8.767   9.795  -4.705  1.00  0.00     0.210 HD
ENDBRANCH  23  24
ENDBRANCH  18  23
BRANCH  19  26
ATOM     26  O   UNL     1      10.948  13.902  -8.424  1.00  0.00    -0.387 OA
ATOM     27  H   UNL     1      11.639  13.890  -9.120  1.00  0.00     0.211 HD
ENDBRANCH  19  26
BRANCH  20  28
ATOM     28  O   UNL     1      11.270  13.624  -5.611  1.00  0.00    -0.387 OA
ATOM     29  H   UNL     1      11.693  13.068  -4.926  1.00  0.00     0.211 HD
ENDBRANCH  20  28
ENDBRANCH  14  15
ENDBRANCH  11  14
ENDBRANCH   5   6
ENDBRANCH   4   5
ENDBRANCH   2   4
ENDBRANCH   1   2
BRANCH   1  30
ATOM     30  C   UNL     1       9.535   3.167  -2.605  1.00  0.00     0.008 C 
BRANCH  30  31
ATOM     31  C   UNL     1       8.085   2.690  -2.766  1.00  0.00     0.005 C 
BRANCH  31  32
ATOM     32  C   UNL     1       7.239   2.828  -1.497  1.00  0.00     0.035 C 
BRANCH  32  33
ATOM     33  C   UNL     1       6.179   3.894  -1.645  1.00  0.00    -0.044 A 
ATOM     34  C   UNL     1       6.085   4.662  -2.813  1.00  0.00     0.008 A 
ATOM     35  C   UNL     1       5.283   4.137  -0.594  1.00  0.00     0.054 A 
ATOM     36  C   UNL     1       5.100   5.648  -2.940  1.00  0.00     0.051 A 
ATOM     37  C   UNL     1       4.309   5.116  -0.730  1.00  0.00     0.158 A 
ATOM     38  C   UNL     1       4.191   5.855  -1.904  1.00  0.00     0.164 A 
BRANCH  37  39
ATOM     39  O   UNL     1       3.452   5.322   0.314  1.00  0.00    -0.504 OA
ATOM     40  H   UNL     1       4.015   5.329   1.112  1.00  0.00     0.293 HD
ENDBRANCH  37  39
BRANCH  38  41
ATOM     41  O   UNL     1       3.195   6.795  -1.917  1.00  0.00    -0.458 OA
BRANCH  41  42
ATOM     42  C   UNL     1       3.537   8.033  -2.556  1.00  0.00     0.339 C 
ATOM     43  O   UNL     1       3.592   7.805  -3.974  1.00  0.00    -0.332 OA
ATOM     44  C   UNL     1       4.925   8.464  -2.031  1.00  0.00     0.214 C 
ATOM     45  C   UNL     1       3.962   8.978  -4.719  1.00  0.00     0.179 C 
ATOM     46  C   UNL     1       5.407   9.689  -2.810  1.00  0.00     0.180 C 
ATOM     47  C   UNL     1       5.365   9.450  -4.322  1.00  0.00     0.177 C 
BRANCH  44  48
ATOM     48  O   UNL     1       4.892   8.778  -0.630  1.00  0.00    -0.384 OA
ATOM     49  H   UNL     1       5.815   8.869  -0.330  1.00  0.00     0.211 HD
ENDBRANCH  44  48
BRANCH  45  50
ATOM     50  C   UNL     1       3.897   8.627  -6.212  1.00  0.00     0.191 C 
BRANCH  50  51
ATOM     51  O   UNL     1       4.838   7.586  -6.494  1.00  0.00    -0.394 OA
ATOM     52  H   UNL     1       5.677   8.037  -6.700  1.00  0.00     0.210 HD
ENDBRANCH  50  51
ENDBRANCH  45  50
BRANCH  46  53
ATOM     53  O   UNL     1       6.742  10.045  -2.407  1.00  0.00    -0.387 OA
ATOM     54  H   UNL     1       7.326  10.019  -3.188  1.00  0.00     0.211 HD
ENDBRANCH  46  53
BRANCH  47  55
ATOM     55  O   UNL     1       5.712  10.652  -5.007  1.00  0.00    -0.387 OA
ATOM     56  H   UNL     1       6.672  10.598  -5.203  1.00  0.00     0.211 HD
ENDBRANCH  47  55
ENDBRANCH  41  42
ENDBRANCH  38  41
ENDBRANCH  32  33
ENDBRANCH  31  32
ENDBRANCH  30  31
ENDBRANCH   1  30
TORSDOF 24
ENDMDL
MODEL 8
REMARK VINA RESULT:    -7.320      2.531      9.585
REMARK INTER + INTRA:         -17.786
REMARK INTER:                 -16.856
REMARK INTRA:                  -0.930
REMARK UNBOUND:                -2.336
REMARK SMILES O=C(CCCCc1ccc(O[C@@H]2O[C@H](CO)[C@@H](O)[C@H](O)[C@H]2O)c(O)c1)CCc1ccc(O[C@@H]2O[C@H](CO)[C@@H](O)[C@H](O)[C@H]2O)c(O)c1
REMARK SMILES IDX 3 1 2 2 1 3 26 4 27 5 28 6 29 7 46 8 30 9 44 10 31 11 45 12
REMARK SMILES IDX 32 14 33 15 34 16 42 17 35 18 40 19 38 20 43 21 36 23 37 24
REMARK SMILES IDX 41 26 39 28 4 30 5 31 6 32 7 33 8 34 25 35 9 36 23 37 10 38
REMARK SMILES IDX 24 39 11 41 12 42 13 43 21 44 14 45 19 46 17 47 22 48 15 50
REMARK SMILES IDX 16 51 20 53 18 55
REMARK H PARENT 45 13 43 22 37 25 41 27 39 29 24 40 22 49 16 52 20 54 18 56
ROOT
ATOM      1  C   UNL     1      10.888   2.744  -3.620  1.00  0.00     0.075 C 
ENDROOT
BRANCH   1   2
ATOM      2  C   UNL     1      10.603   2.105  -4.971  1.00  0.00     0.133 C 
ATOM      3  O   UNL     1      11.250   1.140  -5.376  1.00  0.00    -0.300 OA
BRANCH   2   4
ATOM      4  C   UNL     1       9.489   2.688  -5.822  1.00  0.00     0.080 C 
BRANCH   4   5
ATOM      5  C   UNL     1       9.548   4.206  -5.976  1.00  0.00     0.043 C 
BRANCH   5   6
ATOM      6  C   UNL     1       9.767   4.776  -7.361  1.00  0.00    -0.044 A 
ATOM      7  C   UNL     1       9.981   6.139  -7.627  1.00  0.00     0.008 A 
ATOM      8  C   UNL     1       9.779   3.877  -8.440  1.00  0.00     0.054 A 
ATOM      9  C   UNL     1      10.180   6.593  -8.940  1.00  0.00     0.051 A 
ATOM     10  C   UNL     1       9.964   4.338  -9.736  1.00  0.00     0.158 A 
ATOM     11  C   UNL     1      10.194   5.689  -9.996  1.00  0.00     0.164 A 
BRANCH  10  12
ATOM     12  O   UNL     1       9.911   3.430 -10.760  1.00  0.00    -0.504 OA
ATOM     13  H   UNL     1      10.106   3.941 -11.569  1.00  0.00     0.293 HD
ENDBRANCH  10  12
BRANCH  11  14
ATOM     14  O   UNL     1      10.382   6.016 -11.310  1.00  0.00    -0.458 OA
BRANCH  14  15
ATOM     15  C   UNL     1      10.877   7.342 -11.558  1.00  0.00     0.339 C 
ATOM     16  O   UNL     1       9.905   8.089 -12.291  1.00  0.00    -0.332 OA
ATOM     17  C   UNL     1      12.163   7.162 -12.388  1.00  0.00     0.214 C 
ATOM     18  C   UNL     1      10.363   9.404 -12.627  1.00  0.00     0.179 C 
ATOM     19  C   UNL     1      12.692   8.519 -12.835  1.00  0.00     0.180 C 
ATOM     20  C   UNL     1      11.598   9.320 -13.538  1.00  0.00     0.177 C 
BRANCH  17  21
ATOM     21  O   UNL     1      13.201   6.506 -11.641  1.00  0.00    -0.384 OA
ATOM     22  H   UNL     1      12.880   5.605 -11.434  1.00  0.00     0.211 HD
ENDBRANCH  17  21
BRANCH  18  23
ATOM     23  C   UNL     1       9.223  10.168 -13.312  1.00  0.00     0.191 C 
BRANCH  23  24
ATOM     24  O   UNL     1       9.708  11.009 -14.356  1.00  0.00    -0.394 OA
ATOM     25  H   UNL     1       9.169  10.817 -15.149  1.00  0.00     0.210 HD
ENDBRANCH  23  24
ENDBRANCH  18  23
BRANCH  19  26
ATOM     26  O   UNL     1      13.802   8.350 -13.730  1.00  0.00    -0.387 OA
ATOM     27  H   UNL     1      13.402   8.164 -14.605  1.00  0.00     0.211 HD
ENDBRANCH  19  26
BRANCH  20  28
ATOM     28  O   UNL     1      12.094  10.622 -13.867  1.00  0.00    -0.387 OA
ATOM     29  H   UNL     1      12.711  10.474 -14.611  1.00  0.00     0.211 HD
ENDBRANCH  20  28
ENDBRANCH  14  15
ENDBRANCH  11  14
ENDBRANCH   5   6
ENDBRANCH   4   5
ENDBRANCH   2   4
ENDBRANCH   1   2
BRANCH   1  30
ATOM     30  C   UNL     1       9.892   2.326  -2.534  1.00  0.00     0.008 C 
BRANCH  30  31
ATOM     31  C   UNL     1       8.868   3.414  -2.187  1.00  0.00     0.005 C 
BRANCH  31  32
ATOM     32  C   UNL     1       7.541   2.873  -1.649  1.00  0.00     0.035 C 
BRANCH  32  33
ATOM     33  C   UNL     1       6.427   3.883  -1.788  1.00  0.00    -0.044 A 
ATOM     34  C   UNL     1       6.282   4.641  -2.957  1.00  0.00     0.008 A 
ATOM     35  C   UNL     1       5.530   4.082  -0.728  1.00  0.00     0.054 A 
ATOM     36  C   UNL     1       5.246   5.576  -3.076  1.00  0.00     0.051 A 
ATOM     37  C   UNL     1       4.505   5.010  -0.857  1.00  0.00     0.158 A 
ATOM     38  C   UNL     1       4.338   5.739  -2.031  1.00  0.00     0.164 A 
BRANCH  37  39
ATOM     39  O   UNL     1       3.650   5.175   0.196  1.00  0.00    -0.504 OA
ATOM     40  H   UNL     1       3.847   6.063   0.551  1.00  0.00     0.293 HD
ENDBRANCH  37  39
BRANCH  38  41
ATOM     41  O   UNL     1       3.295   6.627  -2.036  1.00  0.00    -0.458 OA
BRANCH  41  42
ATOM     42  C   UNL     1       3.566   7.876  -2.686  1.00  0.00     0.339 C 
ATOM     43  O   UNL     1       3.727   7.624  -4.091  1.00  0.00    -0.332 OA
ATOM     44  C   UNL     1       4.875   8.441  -2.091  1.00  0.00     0.214 C 
ATOM     45  C   UNL     1       4.037   8.810  -4.844  1.00  0.00     0.179 C 
ATOM     46  C   UNL     1       5.295   9.688  -2.873  1.00  0.00     0.180 C 
ATOM     47  C   UNL     1       5.366   9.415  -4.378  1.00  0.00     0.177 C 
BRANCH  44  48
ATOM     48  O   UNL     1       4.729   8.781  -0.704  1.00  0.00    -0.384 OA
ATOM     49  H   UNL     1       4.663   9.752  -0.646  1.00  0.00     0.211 HD
ENDBRANCH  44  48
BRANCH  45  50
ATOM     50  C   UNL     1       4.095   8.423  -6.329  1.00  0.00     0.191 C 
BRANCH  50  51
ATOM     51  O   UNL     1       3.060   9.113  -7.038  1.00  0.00    -0.394 OA
ATOM     52  H   UNL     1       2.482   8.419  -7.404  1.00  0.00     0.210 HD
ENDBRANCH  50  51
ENDBRANCH  45  50
BRANCH  46  53
ATOM     53  O   UNL     1       6.565  10.171  -2.401  1.00  0.00    -0.387 OA
ATOM     54  H   UNL     1       6.990  10.689  -3.110  1.00  0.00     0.211 HD
ENDBRANCH  46  53
BRANCH  47  55
ATOM     55  O   UNL     1       5.647  10.628  -5.073  1.00  0.00    -0.387 OA
ATOM     56  H   UNL     1       6.385  10.435  -5.690  1.00  0.00     0.211 HD
ENDBRANCH  47  55
ENDBRANCH  41  42
ENDBRANCH  38  41
ENDBRANCH  32  33
ENDBRANCH  31  32
ENDBRANCH  30  31
ENDBRANCH   1  30
TORSDOF 24
ENDMDL
MODEL 9
REMARK VINA RESULT:    -7.305      2.975      7.690
REMARK INTER + INTRA:         -17.753
REMARK INTER:                 -15.577
REMARK INTRA:                  -2.176
REMARK UNBOUND:                -2.336
REMARK SMILES O=C(CCCCc1ccc(O[C@@H]2O[C@H](CO)[C@@H](O)[C@H](O)[C@H]2O)c(O)c1)CCc1ccc(O[C@@H]2O[C@H](CO)[C@@H](O)[C@H](O)[C@H]2O)c(O)c1
REMARK SMILES IDX 3 1 2 2 1 3 26 4 27 5 28 6 29 7 46 8 30 9 44 10 31 11 45 12
REMARK SMILES IDX 32 14 33 15 34 16 42 17 35 18 40 19 38 20 43 21 36 23 37 24
REMARK SMILES IDX 41 26 39 28 4 30 5 31 6 32 7 33 8 34 25 35 9 36 23 37 10 38
REMARK SMILES IDX 24 39 11 41 12 42 13 43 21 44 14 45 19 46 17 47 22 48 15 50
REMARK SMILES IDX 16 51 20 53 18 55
REMARK H PARENT 45 13 43 22 37 25 41 27 39 29 24 40 22 49 16 52 20 54 18 56
ROOT
ATOM      1  C   UNL     1      10.694  14.232  -5.783  1.00  0.00     0.075 C 
ENDROOT
BRANCH   1   2
ATOM      2  C   UNL     1      10.474  14.782  -7.183  1.00  0.00     0.133 C 
ATOM      3  O   UNL     1      11.240  15.607  -7.680  1.00  0.00    -0.300 OA
BRANCH   2   4
ATOM      4  C   UNL     1       9.273  14.287  -7.969  1.00  0.00     0.080 C 
BRANCH   4   5
ATOM      5  C   UNL     1       9.530  14.116  -9.465  1.00  0.00     0.043 C 
BRANCH   5   6
ATOM      6  C   UNL     1       9.992  12.764  -9.962  1.00  0.00    -0.044 A 
ATOM      7  C   UNL     1      10.400  11.714  -9.123  1.00  0.00     0.008 A 
ATOM      8  C   UNL     1       9.987  12.544 -11.350  1.00  0.00     0.054 A 
ATOM      9  C   UNL     1      10.812  10.484  -9.658  1.00  0.00     0.051 A 
ATOM     10  C   UNL     1      10.411  11.329 -11.869  1.00  0.00     0.158 A 
ATOM     11  C   UNL     1      10.797  10.282 -11.033  1.00  0.00     0.164 A 
BRANCH  10  12
ATOM     12  O   UNL     1      10.442  11.182 -13.231  1.00  0.00    -0.504 OA
ATOM     13  H   UNL     1      11.289  10.738 -13.424  1.00  0.00     0.293 HD
ENDBRANCH  10  12
BRANCH  11  14
ATOM     14  O   UNL     1      11.174   9.129 -11.664  1.00  0.00    -0.458 OA
BRANCH  14  15
ATOM     15  C   UNL     1      10.491   7.936 -11.241  1.00  0.00     0.339 C 
ATOM     16  O   UNL     1      10.632   7.777  -9.829  1.00  0.00    -0.332 OA
ATOM     17  C   UNL     1      11.173   6.775 -11.991  1.00  0.00     0.214 C 
ATOM     18  C   UNL     1      10.027   6.570  -9.351  1.00  0.00     0.179 C 
ATOM     19  C   UNL     1      10.623   5.440 -11.500  1.00  0.00     0.180 C 
ATOM     20  C   UNL     1      10.713   5.345  -9.979  1.00  0.00     0.177 C 
BRANCH  17  21
ATOM     21  O   UNL     1      10.960   6.847 -13.410  1.00  0.00    -0.384 OA
ATOM     22  H   UNL     1      10.039   6.561 -13.577  1.00  0.00     0.211 HD
ENDBRANCH  17  21
BRANCH  18  23
ATOM     23  C   UNL     1      10.130   6.535  -7.821  1.00  0.00     0.191 C 
BRANCH  23  24
ATOM     24  O   UNL     1       9.023   5.852  -7.236  1.00  0.00    -0.394 OA
ATOM     25  H   UNL     1       9.303   5.567  -6.344  1.00  0.00     0.210 HD
ENDBRANCH  23  24
ENDBRANCH  18  23
BRANCH  19  26
ATOM     26  O   UNL     1      11.357   4.355 -12.086  1.00  0.00    -0.387 OA
ATOM     27  H   UNL     1      11.249   3.605 -11.463  1.00  0.00     0.211 HD
ENDBRANCH  19  26
BRANCH  20  28
ATOM     28  O   UNL     1      10.108   4.125  -9.539  1.00  0.00    -0.387 OA
ATOM     29  H   UNL     1      10.589   3.889  -8.720  1.00  0.00     0.211 HD
ENDBRANCH  20  28
ENDBRANCH  14  15
ENDBRANCH  11  14
ENDBRANCH   5   6
ENDBRANCH   4   5
ENDBRANCH   2   4
ENDBRANCH   1   2
BRANCH   1  30
ATOM     30  C   UNL     1      11.320  12.834  -5.776  1.00  0.00     0.008 C 
BRANCH  30  31
ATOM     31  C   UNL     1      10.518  11.806  -4.968  1.00  0.00     0.005 C 
BRANCH  31  32
ATOM     32  C   UNL     1       9.454  11.064  -5.782  1.00  0.00     0.035 C 
BRANCH  32  33
ATOM     33  C   UNL     1       8.286  10.641  -4.923  1.00  0.00    -0.044 A 
ATOM     34  C   UNL     1       8.385  10.630  -3.525  1.00  0.00     0.008 A 
ATOM     35  C   UNL     1       7.088  10.235  -5.527  1.00  0.00     0.054 A 
ATOM     36  C   UNL     1       7.297  10.235  -2.738  1.00  0.00     0.051 A 
ATOM     37  C   UNL     1       6.014   9.846  -4.737  1.00  0.00     0.158 A 
ATOM     38  C   UNL     1       6.098   9.869  -3.347  1.00  0.00     0.164 A 
BRANCH  37  39
ATOM     39  O   UNL     1       4.861   9.459  -5.362  1.00  0.00    -0.504 OA
ATOM     40  H   UNL     1       4.146   9.659  -4.729  1.00  0.00     0.293 HD
ENDBRANCH  37  39
BRANCH  38  41
ATOM     41  O   UNL     1       4.975   9.459  -2.678  1.00  0.00    -0.458 OA
BRANCH  41  42
ATOM     42  C   UNL     1       4.904   8.050  -2.421  1.00  0.00     0.339 C 
ATOM     43  O   UNL     1       4.541   7.388  -3.643  1.00  0.00    -0.332 OA
ATOM     44  C   UNL     1       3.816   7.823  -1.347  1.00  0.00     0.214 C 
ATOM     45  C   UNL     1       4.407   5.964  -3.495  1.00  0.00     0.179 C 
ATOM     46  C   UNL     1       3.585   6.322  -1.164  1.00  0.00     0.180 C 
ATOM     47  C   UNL     1       3.294   5.627  -2.496  1.00  0.00     0.177 C 
BRANCH  44  48
ATOM     48  O   UNL     1       4.181   8.402  -0.085  1.00  0.00    -0.384 OA
ATOM     49  H   UNL     1       4.294   7.671   0.550  1.00  0.00     0.211 HD
ENDBRANCH  44  48
BRANCH  45  50
ATOM     50  C   UNL     1       4.107   5.373  -4.880  1.00  0.00     0.191 C 
BRANCH  50  51
ATOM     51  O   UNL     1       4.437   6.336  -5.886  1.00  0.00    -0.394 OA
ATOM     52  H   UNL     1       4.795   5.824  -6.635  1.00  0.00     0.210 HD
ENDBRANCH  50  51
ENDBRANCH  45  50
BRANCH  46  53
ATOM     53  O   UNL     1       2.504   6.090  -0.243  1.00  0.00    -0.387 OA
ATOM     54  H   UNL     1       2.875   5.816   0.617  1.00  0.00     0.211 HD
ENDBRANCH  46  53
BRANCH  47  55
ATOM     55  O   UNL     1       3.200   4.218  -2.293  1.00  0.00    -0.387 OA
ATOM     56  H   UNL     1       4.013   3.947  -1.816  1.00  0.00     0.211 HD
ENDBRANCH  47  55
ENDBRANCH  41  42
ENDBRANCH  38  41
ENDBRANCH  32  33
ENDBRANCH  31  32
ENDBRANCH  30  31
ENDBRANCH   1  30
TORSDOF 24
ENDMDL
