MODEL 2
REMARK VINA RESULT:    -8.389      1.951      2.984
REMARK INTER + INTRA:         -17.313
REMARK INTER:                 -14.575
REMARK INTRA:                  -2.739
REMARK UNBOUND:                -4.021
REMARK SMILES N=C(N)NCCC1CCN(C(=O)[C@H](Cc2cccc(C(=N)N)c2)NS(=O)(=O)c2cccc3ccccc23)CC1
REMARK SMILES IDX 7 1 8 2 9 3 10 4 11 5 12 6 38 7 39 8 6 9 5 10 4 11 1 12 2 13
REMARK SMILES IDX 3 14 13 19 14 20 15 21 16 22 23 23 17 24 19 25 18 26 20 27
REMARK SMILES IDX 21 28 22 29 24 33 25 35 26 36 27 37 28 38 29 39 37 40 30 41
REMARK SMILES IDX 36 42 32 43 31 44 35 45 33 46 34 47
REMARK H PARENT 1 15 3 16 3 17 4 18 21 30 22 31 22 32 24 34
ROOT
ATOM      1  C   UNL     1     127.675 -13.909 162.680  1.00  0.00    -0.006 C 
ATOM      2  C   UNL     1     127.821 -15.050 163.711  1.00  0.00     0.025 C 
ATOM      3  C   UNL     1     128.915 -16.064 163.371  1.00  0.00     0.120 C 
ATOM      4  N   UNL     1     130.056 -15.428 162.723  1.00  0.00    -0.341 N 
ATOM      5  C   UNL     1     131.392 -15.716 162.976  1.00  0.00     0.241 C 
ATOM      6  O   UNL     1     132.296 -15.264 162.261  1.00  0.00    -0.273 OA
ATOM      7  C   UNL     1     129.767 -14.672 161.505  1.00  0.00     0.120 C 
ATOM      8  C   UNL     1     128.285 -14.328 161.337  1.00  0.00     0.025 C 
ENDROOT
BRANCH   1   9
ATOM      9  C   UNL     1     126.203 -13.474 162.574  1.00  0.00     0.025 C 
BRANCH   9  10
ATOM     10  C   UNL     1     125.720 -12.660 163.777  1.00  0.00     0.116 C 
BRANCH  10  11
ATOM     11  N   UNL     1     124.690 -13.405 164.488  1.00  0.00    -0.357 N 
ATOM     12  N   UNL     1     124.962 -12.187 166.465  1.00  0.00    -0.270 NA
ATOM     13  C   UNL     1     124.445 -13.148 165.794  1.00  0.00     0.185 C 
ATOM     14  N   UNL     1     123.566 -14.030 166.309  1.00  0.00    -0.370 N 
ATOM     15  H   UNL     1     124.636 -12.223 167.432  1.00  0.00     0.191 HD
ATOM     16  H   UNL     1     123.159 -13.741 167.189  1.00  0.00     0.159 HD
ATOM     17  H   UNL     1     122.840 -14.267 165.644  1.00  0.00     0.159 HD
ATOM     18  H   UNL     1     124.723 -14.402 164.302  1.00  0.00     0.163 HD
ENDBRANCH  10  11
ENDBRANCH   9  10
ENDBRANCH   1   9
BRANCH   5  19
ATOM     19  C   UNL     1     131.762 -16.548 164.216  1.00  0.00     0.163 C 
BRANCH  19  20
ATOM     20  C   UNL     1     131.937 -15.606 165.416  1.00  0.00     0.065 C 
BRANCH  20  21
ATOM     21  C   UNL     1     133.112 -15.991 166.287  1.00  0.00    -0.045 A 
ATOM     22  C   UNL     1     132.902 -16.550 167.557  1.00  0.00     0.004 A 
ATOM     23  C   UNL     1     134.427 -15.818 165.827  1.00  0.00     0.015 A 
ATOM     24  C   UNL     1     133.984 -16.924 168.354  1.00  0.00     0.001 A 
ATOM     25  C   UNL     1     135.511 -16.195 166.628  1.00  0.00     0.016 A 
ATOM     26  C   UNL     1     135.288 -16.743 167.894  1.00  0.00     0.012 A 
BRANCH  25  27
ATOM     27  C   UNL     1     136.906 -16.003 166.151  1.00  0.00     0.122 C 
ATOM     28  N   UNL     1     137.497 -14.850 166.144  1.00  0.00    -0.284 NA
ATOM     29  N   UNL     1     137.630 -17.067 165.701  1.00  0.00    -0.384 N 
ATOM     30  H   UNL     1     136.853 -14.114 166.451  1.00  0.00     0.189 HD
ATOM     31  H   UNL     1     138.611 -16.817 165.617  1.00  0.00     0.158 HD
ATOM     32  H   UNL     1     137.499 -17.929 166.216  1.00  0.00     0.158 HD
ENDBRANCH  25  27
ENDBRANCH  20  21
ENDBRANCH  19  20
BRANCH  19  33
ATOM     33  N   UNL     1     133.055 -17.225 163.915  1.00  0.00    -0.198 NA
ATOM     34  H   UNL     1     133.589 -16.760 163.170  1.00  0.00     0.142 HD
BRANCH  33  35
ATOM     35  S   UNL     1     133.000 -18.883 163.618  1.00  0.00     0.241 S 
ATOM     36  O   UNL     1     134.001 -19.125 162.601  1.00  0.00    -0.207 OA
ATOM     37  O   UNL     1     131.624 -19.271 163.408  1.00  0.00    -0.207 OA
BRANCH  35  38
ATOM     38  C   UNL     1     133.634 -19.527 165.161  1.00  0.00     0.090 A 
ATOM     39  C   UNL     1     135.034 -19.673 165.212  1.00  0.00     0.022 A 
ATOM     40  C   UNL     1     132.815 -19.864 166.281  1.00  0.00     0.002 A 
ATOM     41  C   UNL     1     135.653 -20.126 166.367  1.00  0.00     0.002 A 
ATOM     42  C   UNL     1     131.396 -19.794 166.359  1.00  0.00     0.010 A 
ATOM     43  C   UNL     1     133.483 -20.313 167.454  1.00  0.00    -0.017 A 
ATOM     44  C   UNL     1     134.880 -20.434 167.479  1.00  0.00     0.009 A 
ATOM     45  C   UNL     1     130.689 -20.131 167.518  1.00  0.00     0.001 A 
ATOM     46  C   UNL     1     132.758 -20.644 168.611  1.00  0.00     0.009 A 
ATOM     47  C   UNL     1     131.371 -20.553 168.646  1.00  0.00     0.001 A 
ENDBRANCH  35  38
ENDBRANCH  33  35
ENDBRANCH  19  33
ENDBRANCH   5  19
TORSDOF 10
ENDMDL
