MODEL 1
REMARK VINA RESULT:   -10.745      0.000      0.000
REMARK INTER + INTRA:         -17.179
REMARK INTER:                 -16.084
REMARK INTRA:                  -1.095
REMARK UNBOUND:                -1.095
REMARK SMILES CC(C)c1oc(-c2ccc(Cl)cc2Cl)nc1CCc1noc2cc(OC(C)(C)C(=O)O)ccc12
REMARK SMILES IDX 19 1 20 2 21 3 22 4 23 5 24 6 32 7 33 8 34 9 18 10 17 11
REMARK SMILES IDX 16 12 4 13 5 14 6 15 15 16 2 17 1 18 3 19 7 20 8 21 13 22
REMARK SMILES IDX 9 23 12 24 10 25 14 26 11 27 25 28 26 29 27 30 28 31 29 32
REMARK SMILES IDX 30 33 31 34
REMARK H PARENT 31 35
ROOT
ATOM      1  C   UNL     1      37.634   0.396 130.819  1.00  0.00     0.092 A 
ATOM      2  N   UNL     1      37.901  -0.911 130.695  1.00  0.00    -0.084 NA
ATOM      3  O   UNL     1      37.176  -1.342 129.596  1.00  0.00    -0.356 OA
ATOM      4  C   UNL     1      36.469  -0.302 129.081  1.00  0.00     0.170 A 
ATOM      5  C   UNL     1      35.617  -0.353 127.981  1.00  0.00     0.097 A 
ATOM      6  C   UNL     1      34.973   0.842 127.659  1.00  0.00     0.124 A 
ATOM      7  C   UNL     1      35.232   2.027 128.356  1.00  0.00     0.047 A 
ATOM      8  C   UNL     1      36.104   2.044 129.453  1.00  0.00     0.018 A 
ATOM      9  C   UNL     1      36.726   0.839 129.822  1.00  0.00     0.045 A 
ENDROOT
BRANCH   1  10
ATOM     10  C   UNL     1      38.255   1.190 131.915  1.00  0.00     0.067 C 
BRANCH  10  11
ATOM     11  C   UNL     1      39.413   2.050 131.410  1.00  0.00     0.066 C 
BRANCH  11  12
ATOM     12  C   UNL     1      40.725   1.537 131.880  1.00  0.00     0.083 A 
ATOM     13  C   UNL     1      41.797   2.218 132.420  1.00  0.00     0.130 A 
ATOM     14  O   UNL     1      42.782   1.302 132.675  1.00  0.00    -0.441 OA
ATOM     15  C   UNL     1      42.253   0.101 132.272  1.00  0.00     0.228 A 
ATOM     16  N   UNL     1      41.028   0.199 131.795  1.00  0.00    -0.214 NA
BRANCH  13  17
ATOM     17  C   UNL     1      42.080   3.644 132.740  1.00  0.00     0.051 C 
ATOM     18  C   UNL     1      40.910   4.272 133.497  1.00  0.00     0.016 C 
ATOM     19  C   UNL     1      42.406   4.443 131.479  1.00  0.00     0.016 C 
ENDBRANCH  13  17
BRANCH  15  20
ATOM     20  C   UNL     1      43.111  -1.070 132.448  1.00  0.00     0.056 A 
ATOM     21  C   UNL     1      43.548  -1.413 133.744  1.00  0.00     0.017 A 
ATOM     22  C   UNL     1      43.515  -1.889 131.378  1.00  0.00     0.055 A 
ATOM     23  C   UNL     1      44.350  -2.535 133.966  1.00  0.00     0.021 A 
ATOM     24  C   UNL     1      44.321  -3.015 131.603  1.00  0.00     0.041 A 
ATOM     25  C   UNL     1      44.733  -3.331 132.893  1.00  0.00     0.042 A 
ATOM     26  Cl  UNL     1      43.099  -1.566 129.728  1.00  0.00    -0.083 Cl
ATOM     27  Cl  UNL     1      45.720  -4.713 133.163  1.00  0.00    -0.084 Cl
ENDBRANCH  15  20
ENDBRANCH  11  12
ENDBRANCH  10  11
ENDBRANCH   1  10
BRANCH   6  28
ATOM     28  O   UNL     1      34.141   0.910 126.577  1.00  0.00    -0.476 OA
BRANCH  28  29
ATOM     29  C   UNL     1      32.759   0.546 126.800  1.00  0.00     0.199 C 
ATOM     30  C   UNL     1      32.301   0.520 128.268  1.00  0.00     0.069 C 
ATOM     31  C   UNL     1      32.454  -0.794 126.118  1.00  0.00     0.069 C 
BRANCH  29  32
ATOM     32  C   UNL     1      31.953   1.648 126.094  1.00  0.00     0.347 C 
ATOM     33  O   UNL     1      31.133   1.502 125.199  1.00  0.00    -0.248 OA
BRANCH  32  34
ATOM     34  O   UNL     1      32.200   2.890 126.572  1.00  0.00    -0.478 OA
ATOM     35  H   UNL     1      31.328   3.337 126.515  1.00  0.00     0.296 HD
ENDBRANCH  32  34
ENDBRANCH  29  32
ENDBRANCH  28  29
ENDBRANCH   6  28
TORSDOF 9
ENDMDL
