MODEL 1
REMARK VINA RESULT:    -8.338      0.000      0.000
REMARK INTER + INTRA:         -11.795
REMARK INTER:                 -10.776
REMARK INTRA:                  -1.019
REMARK UNBOUND:                -1.019
REMARK SMILES CCCC(=O)N1CCC(Nc2c(-c3cn[nH]c3)cnc3[nH]ccc23)CC1
REMARK SMILES IDX 4 1 5 2 6 3 7 4 8 5 9 6 25 7 26 8 3 9 2 10 1 11 10 12 11 14
REMARK SMILES IDX 12 15 24 16 18 17 23 18 20 19 19 20 22 21 21 22 13 24 14 25
REMARK SMILES IDX 17 26 15 27 16 28
REMARK H PARENT 10 13 21 23 16 29
ROOT
ATOM      1  C   UNL     1     -13.683  11.968  19.762  1.00  0.00     0.222 C 
ATOM      2  O   UNL     1     -14.275  11.050  19.193  1.00  0.00    -0.275 OA
ATOM      3  N   UNL     1     -14.334  13.129  20.163  1.00  0.00    -0.343 N 
ATOM      4  C   UNL     1     -15.774  13.248  19.941  1.00  0.00     0.121 C 
ATOM      5  C   UNL     1     -16.115  14.560  19.246  1.00  0.00     0.046 C 
ATOM      6  C   UNL     1     -15.541  15.750  20.032  1.00  0.00     0.082 C 
ATOM      7  C   UNL     1     -14.028  15.572  20.198  1.00  0.00     0.046 C 
ATOM      8  C   UNL     1     -13.719  14.245  20.884  1.00  0.00     0.121 C 
ENDROOT
BRANCH   1   9
ATOM      9  C   UNL     1     -12.191  11.879  20.053  1.00  0.00     0.100 C 
BRANCH   9  10
ATOM     10  C   UNL     1     -11.337  12.351  18.877  1.00  0.00     0.006 C 
ATOM     11  C   UNL     1     -10.383  13.459  19.290  1.00  0.00     0.004 C 
ENDBRANCH   9  10
ENDBRANCH   1   9
BRANCH   6  12
ATOM     12  N   UNL     1     -15.835  16.981  19.307  1.00  0.00    -0.381 N 
ATOM     13  H   UNL     1     -15.837  16.885  18.296  1.00  0.00     0.160 HD
BRANCH  12  14
ATOM     14  C   UNL     1     -15.717  18.285  19.756  1.00  0.00     0.055 A 
ATOM     15  C   UNL     1     -16.650  19.023  20.526  1.00  0.00     0.027 A 
ATOM     16  C   UNL     1     -14.530  19.001  19.422  1.00  0.00     0.042 A 
ATOM     17  C   UNL     1     -16.339  20.333  20.925  1.00  0.00     0.124 A 
ATOM     18  C   UNL     1     -13.344  18.703  18.677  1.00  0.00     0.032 A 
ATOM     19  C   UNL     1     -14.364  20.300  19.890  1.00  0.00     0.139 A 
ATOM     20  N   UNL     1     -15.207  21.017  20.645  1.00  0.00    -0.238 NA
ATOM     21  C   UNL     1     -12.521  19.809  18.712  1.00  0.00     0.085 A 
ATOM     22  N   UNL     1     -13.155  20.770  19.453  1.00  0.00    -0.346 N 
ATOM     23  H   UNL     1     -12.808  21.694  19.664  1.00  0.00     0.167 HD
BRANCH  15  24
ATOM     24  C   UNL     1     -17.958  18.541  20.911  1.00  0.00     0.023 A 
ATOM     25  C   UNL     1     -18.373  17.803  22.039  1.00  0.00     0.143 A 
ATOM     26  C   UNL     1     -19.128  18.845  20.249  1.00  0.00     0.114 A 
ATOM     27  N   UNL     1     -19.693  17.593  22.050  1.00  0.00    -0.184 NA
ATOM     28  N   UNL     1     -20.128  18.249  20.960  1.00  0.00    -0.285 N 
ATOM     29  H   UNL     1     -21.124  18.252  20.765  1.00  0.00     0.189 HD
ENDBRANCH  15  24
ENDBRANCH  12  14
ENDBRANCH   6  12
TORSDOF 5
ENDMDL
MODEL 2
REMARK VINA RESULT:    -8.215      3.079      7.845
REMARK INTER + INTRA:         -11.636
REMARK INTER:                 -10.621
REMARK INTRA:                  -1.015
REMARK UNBOUND:                -1.019
REMARK SMILES CCCC(=O)N1CCC(Nc2c(-c3cn[nH]c3)cnc3[nH]ccc23)CC1
REMARK SMILES IDX 4 1 5 2 6 3 7 4 8 5 9 6 25 7 26 8 3 9 2 10 1 11 10 12 11 14
REMARK SMILES IDX 12 15 24 16 18 17 23 18 20 19 19 20 22 21 21 22 13 24 14 25
REMARK SMILES IDX 17 26 15 27 16 28
REMARK H PARENT 10 13 21 23 16 29
ROOT
ATOM      1  C   UNL     1     -16.241  19.875  19.924  1.00  0.00     0.222 C 
ATOM      2  O   UNL     1     -16.759  20.417  20.901  1.00  0.00    -0.275 OA
ATOM      3  N   UNL     1     -15.850  18.541  19.942  1.00  0.00    -0.343 N 
ATOM      4  C   UNL     1     -16.100  17.744  21.143  1.00  0.00     0.121 C 
ATOM      5  C   UNL     1     -14.837  17.021  21.592  1.00  0.00     0.046 C 
ATOM      6  C   UNL     1     -14.257  16.184  20.441  1.00  0.00     0.082 C 
ATOM      7  C   UNL     1     -13.993  17.088  19.232  1.00  0.00     0.046 C 
ATOM      8  C   UNL     1     -15.272  17.808  18.815  1.00  0.00     0.121 C 
ENDROOT
BRANCH   1   9
ATOM      9  C   UNL     1     -15.994  20.648  18.636  1.00  0.00     0.100 C 
BRANCH   9  10
ATOM     10  C   UNL     1     -14.798  21.594  18.742  1.00  0.00     0.006 C 
ATOM     11  C   UNL     1     -13.540  20.967  18.163  1.00  0.00     0.004 C 
ENDBRANCH   9  10
ENDBRANCH   1   9
BRANCH   6  12
ATOM     12  N   UNL     1     -13.020  15.555  20.890  1.00  0.00    -0.381 N 
ATOM     13  H   UNL     1     -12.493  16.097  21.567  1.00  0.00     0.160 HD
BRANCH  12  14
ATOM     14  C   UNL     1     -12.288  14.565  20.258  1.00  0.00     0.055 A 
ATOM     15  C   UNL     1     -10.941  14.629  19.822  1.00  0.00     0.027 A 
ATOM     16  C   UNL     1     -12.934  13.321  19.997  1.00  0.00     0.042 A 
ATOM     17  C   UNL     1     -10.349  13.502  19.229  1.00  0.00     0.124 A 
ATOM     18  C   UNL     1     -14.245  12.794  20.226  1.00  0.00     0.032 A 
ATOM     19  C   UNL     1     -12.215  12.292  19.397  1.00  0.00     0.139 A 
ATOM     20  N   UNL     1     -10.934  12.305  19.002  1.00  0.00    -0.238 NA
ATOM     21  C   UNL     1     -14.278  11.496  19.762  1.00  0.00     0.085 A 
ATOM     22  N   UNL     1     -13.037  11.207  19.262  1.00  0.00    -0.346 N 
ATOM     23  H   UNL     1     -12.741  10.333  18.852  1.00  0.00     0.167 HD
BRANCH  15  24
ATOM     24  C   UNL     1     -10.111  15.811  19.898  1.00  0.00     0.023 A 
ATOM     25  C   UNL     1     -10.311  17.112  19.393  1.00  0.00     0.143 A 
ATOM     26  C   UNL     1      -8.949  15.902  20.632  1.00  0.00     0.114 A 
ATOM     27  N   UNL     1      -9.316  17.942  19.720  1.00  0.00    -0.184 NA
ATOM     28  N   UNL     1      -8.510  17.185  20.484  1.00  0.00    -0.285 N 
ATOM     29  H   UNL     1      -7.678  17.612  20.878  1.00  0.00     0.189 HD
ENDBRANCH  15  24
ENDBRANCH  12  14
ENDBRANCH   6  12
TORSDOF 5
ENDMDL
MODEL 3
REMARK VINA RESULT:    -8.100      1.189      4.022
REMARK INTER + INTRA:         -11.487
REMARK INTER:                 -10.485
REMARK INTRA:                  -1.001
REMARK UNBOUND:                -1.019
REMARK SMILES CCCC(=O)N1CCC(Nc2c(-c3cn[nH]c3)cnc3[nH]ccc23)CC1
REMARK SMILES IDX 4 1 5 2 6 3 7 4 8 5 9 6 25 7 26 8 3 9 2 10 1 11 10 12 11 14
REMARK SMILES IDX 12 15 24 16 18 17 23 18 20 19 19 20 22 21 21 22 13 24 14 25
REMARK SMILES IDX 17 26 15 27 16 28
REMARK H PARENT 10 13 21 23 16 29
ROOT
ATOM      1  C   UNL     1     -13.589  12.107  19.790  1.00  0.00     0.222 C 
ATOM      2  O   UNL     1     -14.337  11.253  19.311  1.00  0.00    -0.275 OA
ATOM      3  N   UNL     1     -14.045  13.373  20.141  1.00  0.00    -0.343 N 
ATOM      4  C   UNL     1     -15.464  13.686  19.979  1.00  0.00     0.121 C 
ATOM      5  C   UNL     1     -15.652  14.991  19.214  1.00  0.00     0.046 C 
ATOM      6  C   UNL     1     -14.871  16.129  19.890  1.00  0.00     0.082 C 
ATOM      7  C   UNL     1     -13.392  15.742  19.998  1.00  0.00     0.046 C 
ATOM      8  C   UNL     1     -13.238  14.428  20.756  1.00  0.00     0.121 C 
ENDROOT
BRANCH   1   9
ATOM      9  C   UNL     1     -12.111  11.819  20.016  1.00  0.00     0.100 C 
BRANCH   9  10
ATOM     10  C   UNL     1     -11.236  12.313  18.864  1.00  0.00     0.006 C 
ATOM     11  C   UNL     1     -10.073  13.151  19.369  1.00  0.00     0.004 C 
ENDBRANCH   9  10
ENDBRANCH   1   9
BRANCH   6  12
ATOM     12  N   UNL     1     -15.027  17.344  19.099  1.00  0.00    -0.381 N 
ATOM     13  H   UNL     1     -14.525  17.340  18.217  1.00  0.00     0.160 HD
BRANCH  12  14
ATOM     14  C   UNL     1     -15.408  18.602  19.533  1.00  0.00     0.055 A 
ATOM     15  C   UNL     1     -14.586  19.743  19.706  1.00  0.00     0.027 A 
ATOM     16  C   UNL     1     -16.781  18.810  19.855  1.00  0.00     0.042 A 
ATOM     17  C   UNL     1     -15.160  20.955  20.122  1.00  0.00     0.124 A 
ATOM     18  C   UNL     1     -17.955  17.990  19.857  1.00  0.00     0.032 A 
ATOM     19  C   UNL     1     -17.203  20.072  20.258  1.00  0.00     0.139 A 
ATOM     20  N   UNL     1     -16.462  21.180  20.402  1.00  0.00    -0.238 NA
ATOM     21  C   UNL     1     -19.024  18.764  20.259  1.00  0.00     0.085 A 
ATOM     22  N   UNL     1     -18.549  20.027  20.499  1.00  0.00    -0.346 N 
ATOM     23  H   UNL     1     -19.087  20.824  20.804  1.00  0.00     0.167 HD
BRANCH  15  24
ATOM     24  C   UNL     1     -13.150  19.754  19.527  1.00  0.00     0.023 A 
ATOM     25  C   UNL     1     -12.132  19.049  20.202  1.00  0.00     0.143 A 
ATOM     26  C   UNL     1     -12.496  20.417  18.512  1.00  0.00     0.114 A 
ATOM     27  N   UNL     1     -10.920  19.305  19.701  1.00  0.00    -0.184 NA
ATOM     28  N   UNL     1     -11.172  20.127  18.667  1.00  0.00    -0.285 N 
ATOM     29  H   UNL     1     -10.390  20.448  18.105  1.00  0.00     0.189 HD
ENDBRANCH  15  24
ENDBRANCH  12  14
ENDBRANCH   6  12
TORSDOF 5
ENDMDL
MODEL 4
REMARK VINA RESULT:    -7.935      3.096      7.186
REMARK INTER + INTRA:         -11.274
REMARK INTER:                 -10.261
REMARK INTRA:                  -1.013
REMARK UNBOUND:                -1.019
REMARK SMILES CCCC(=O)N1CCC(Nc2c(-c3cn[nH]c3)cnc3[nH]ccc23)CC1
REMARK SMILES IDX 4 1 5 2 6 3 7 4 8 5 9 6 25 7 26 8 3 9 2 10 1 11 10 12 11 14
REMARK SMILES IDX 12 15 24 16 18 17 23 18 20 19 19 20 22 21 21 22 13 24 14 25
REMARK SMILES IDX 17 26 15 27 16 28
REMARK H PARENT 10 13 21 23 16 29
ROOT
ATOM      1  C   UNL     1     -21.432  19.947  21.644  1.00  0.00     0.222 C 
ATOM      2  O   UNL     1     -21.993  19.852  22.736  1.00  0.00    -0.275 OA
ATOM      3  N   UNL     1     -20.427  19.069  21.251  1.00  0.00    -0.343 N 
ATOM      4  C   UNL     1     -20.056  17.972  22.144  1.00  0.00     0.121 C 
ATOM      5  C   UNL     1     -18.548  17.929  22.359  1.00  0.00     0.046 C 
ATOM      6  C   UNL     1     -17.813  17.865  21.010  1.00  0.00     0.082 C 
ATOM      7  C   UNL     1     -18.229  19.058  20.143  1.00  0.00     0.046 C 
ATOM      8  C   UNL     1     -19.742  19.082  19.958  1.00  0.00     0.121 C 
ENDROOT
BRANCH   1   9
ATOM      9  C   UNL     1     -21.808  21.047  20.660  1.00  0.00     0.100 C 
BRANCH   9  10
ATOM     10  C   UNL     1     -23.261  20.947  20.199  1.00  0.00     0.006 C 
ATOM     11  C   UNL     1     -23.517  19.655  19.441  1.00  0.00     0.004 C 
ENDBRANCH   9  10
ENDBRANCH   1   9
BRANCH   6  12
ATOM     12  N   UNL     1     -16.375  17.885  21.254  1.00  0.00    -0.381 N 
ATOM     13  H   UNL     1     -16.108  18.211  22.178  1.00  0.00     0.160 HD
BRANCH  12  14
ATOM     14  C   UNL     1     -15.352  17.911  20.322  1.00  0.00     0.055 A 
ATOM     15  C   UNL     1     -14.877  16.837  19.529  1.00  0.00     0.027 A 
ATOM     16  C   UNL     1     -14.673  19.147  20.111  1.00  0.00     0.042 A 
ATOM     17  C   UNL     1     -13.846  17.063  18.602  1.00  0.00     0.124 A 
ATOM     18  C   UNL     1     -14.774  20.464  20.662  1.00  0.00     0.032 A 
ATOM     19  C   UNL     1     -13.665  19.215  19.155  1.00  0.00     0.139 A 
ATOM     20  N   UNL     1     -13.212  18.232  18.365  1.00  0.00    -0.238 NA
ATOM     21  C   UNL     1     -13.841  21.267  20.040  1.00  0.00     0.085 A 
ATOM     22  N   UNL     1     -13.176  20.493  19.127  1.00  0.00    -0.346 N 
ATOM     23  H   UNL     1     -12.435  20.792  18.511  1.00  0.00     0.167 HD
BRANCH  15  24
ATOM     24  C   UNL     1     -15.348  15.474  19.628  1.00  0.00     0.023 A 
ATOM     25  C   UNL     1     -14.831  14.369  20.337  1.00  0.00     0.143 A 
ATOM     26  C   UNL     1     -16.536  15.019  19.100  1.00  0.00     0.114 A 
ATOM     27  N   UNL     1     -15.595  13.280  20.206  1.00  0.00    -0.184 NA
ATOM     28  N   UNL     1     -16.630  13.707  19.462  1.00  0.00    -0.285 N 
ATOM     29  H   UNL     1     -17.370  13.047  19.243  1.00  0.00     0.189 HD
ENDBRANCH  15  24
ENDBRANCH  12  14
ENDBRANCH   6  12
TORSDOF 5
ENDMDL
MODEL 5
REMARK VINA RESULT:    -7.932      2.835      7.593
REMARK INTER + INTRA:         -11.270
REMARK INTER:                 -10.321
REMARK INTRA:                  -0.950
REMARK UNBOUND:                -1.019
REMARK SMILES CCCC(=O)N1CCC(Nc2c(-c3cn[nH]c3)cnc3[nH]ccc23)CC1
REMARK SMILES IDX 4 1 5 2 6 3 7 4 8 5 9 6 25 7 26 8 3 9 2 10 1 11 10 12 11 14
REMARK SMILES IDX 12 15 24 16 18 17 23 18 20 19 19 20 22 21 21 22 13 24 14 25
REMARK SMILES IDX 17 26 15 27 16 28
REMARK H PARENT 10 13 21 23 16 29
ROOT
ATOM      1  C   UNL     1     -19.892  19.202  20.888  1.00  0.00     0.222 C 
ATOM      2  O   UNL     1     -20.245  20.204  20.264  1.00  0.00    -0.275 OA
ATOM      3  N   UNL     1     -18.562  18.800  20.947  1.00  0.00    -0.343 N 
ATOM      4  C   UNL     1     -17.545  19.615  20.285  1.00  0.00     0.121 C 
ATOM      5  C   UNL     1     -16.659  18.761  19.386  1.00  0.00     0.046 C 
ATOM      6  C   UNL     1     -16.053  17.593  20.181  1.00  0.00     0.082 C 
ATOM      7  C   UNL     1     -17.176  16.770  20.820  1.00  0.00     0.046 C 
ATOM      8  C   UNL     1     -18.052  17.654  21.701  1.00  0.00     0.121 C 
ENDROOT
BRANCH   1   9
ATOM      9  C   UNL     1     -20.906  18.341  21.628  1.00  0.00     0.100 C 
BRANCH   9  10
ATOM     10  C   UNL     1     -21.595  19.094  22.765  1.00  0.00     0.006 C 
ATOM     11  C   UNL     1     -22.921  18.450  23.137  1.00  0.00     0.004 C 
ENDBRANCH   9  10
ENDBRANCH   1   9
BRANCH   6  12
ATOM     12  N   UNL     1     -15.261  16.766  19.277  1.00  0.00    -0.381 N 
ATOM     13  H   UNL     1     -15.740  16.499  18.423  1.00  0.00     0.160 HD
BRANCH  12  14
ATOM     14  C   UNL     1     -14.155  15.991  19.578  1.00  0.00     0.055 A 
ATOM     15  C   UNL     1     -12.820  16.427  19.771  1.00  0.00     0.027 A 
ATOM     16  C   UNL     1     -14.342  14.584  19.714  1.00  0.00     0.042 A 
ATOM     17  C   UNL     1     -11.828  15.493  20.111  1.00  0.00     0.124 A 
ATOM     18  C   UNL     1     -15.459  13.697  19.602  1.00  0.00     0.032 A 
ATOM     19  C   UNL     1     -13.257  13.783  20.053  1.00  0.00     0.139 A 
ATOM     20  N   UNL     1     -11.991  14.162  20.276  1.00  0.00    -0.238 NA
ATOM     21  C   UNL     1     -15.023  12.415  19.863  1.00  0.00     0.085 A 
ATOM     22  N   UNL     1     -13.683  12.485  20.136  1.00  0.00    -0.346 N 
ATOM     23  H   UNL     1     -13.075  11.714  20.368  1.00  0.00     0.167 HD
BRANCH  15  24
ATOM     24  C   UNL     1     -12.370  17.791  19.600  1.00  0.00     0.023 A 
ATOM     25  C   UNL     1     -12.604  18.943  20.379  1.00  0.00     0.143 A 
ATOM     26  C   UNL     1     -11.473  18.201  18.639  1.00  0.00     0.114 A 
ATOM     27  N   UNL     1     -11.964  20.015  19.904  1.00  0.00    -0.184 NA
ATOM     28  N   UNL     1     -11.273  19.534  18.856  1.00  0.00    -0.285 N 
ATOM     29  H   UNL     1     -10.680  20.171  18.335  1.00  0.00     0.189 HD
ENDBRANCH  15  24
ENDBRANCH  12  14
ENDBRANCH   6  12
TORSDOF 5
ENDMDL
MODEL 6
REMARK VINA RESULT:    -7.892      2.982      6.898
REMARK INTER + INTRA:         -11.218
REMARK INTER:                 -10.327
REMARK INTRA:                  -0.891
REMARK UNBOUND:                -1.019
REMARK SMILES CCCC(=O)N1CCC(Nc2c(-c3cn[nH]c3)cnc3[nH]ccc23)CC1
REMARK SMILES IDX 4 1 5 2 6 3 7 4 8 5 9 6 25 7 26 8 3 9 2 10 1 11 10 12 11 14
REMARK SMILES IDX 12 15 24 16 18 17 23 18 20 19 19 20 22 21 21 22 13 24 14 25
REMARK SMILES IDX 17 26 15 27 16 28
REMARK H PARENT 10 13 21 23 16 29
ROOT
ATOM      1  C   UNL     1     -15.393  20.529  19.373  1.00  0.00     0.222 C 
ATOM      2  O   UNL     1     -16.575  20.735  19.650  1.00  0.00    -0.275 OA
ATOM      3  N   UNL     1     -14.916  19.258  19.073  1.00  0.00    -0.343 N 
ATOM      4  C   UNL     1     -15.854  18.137  19.041  1.00  0.00     0.121 C 
ATOM      5  C   UNL     1     -15.346  16.974  19.884  1.00  0.00     0.046 C 
ATOM      6  C   UNL     1     -13.930  16.569  19.444  1.00  0.00     0.082 C 
ATOM      7  C   UNL     1     -12.999  17.782  19.532  1.00  0.00     0.046 C 
ATOM      8  C   UNL     1     -13.541  18.933  18.690  1.00  0.00     0.121 C 
ENDROOT
BRANCH   1   9
ATOM      9  C   UNL     1     -14.382  21.667  19.353  1.00  0.00     0.100 C 
BRANCH   9  10
ATOM     10  C   UNL     1     -14.111  22.234  20.747  1.00  0.00     0.006 C 
ATOM     11  C   UNL     1     -13.080  21.405  21.495  1.00  0.00     0.004 C 
ENDBRANCH   9  10
ENDBRANCH   1   9
BRANCH   6  12
ATOM     12  N   UNL     1     -13.456  15.495  20.310  1.00  0.00    -0.381 N 
ATOM     13  H   UNL     1     -13.026  15.809  21.174  1.00  0.00     0.160 HD
BRANCH  12  14
ATOM     14  C   UNL     1     -13.151  14.190  19.963  1.00  0.00     0.055 A 
ATOM     15  C   UNL     1     -14.055  13.128  19.715  1.00  0.00     0.027 A 
ATOM     16  C   UNL     1     -11.776  13.838  19.832  1.00  0.00     0.042 A 
ATOM     17  C   UNL     1     -13.560  11.870  19.333  1.00  0.00     0.124 A 
ATOM     18  C   UNL     1     -10.534  14.532  19.990  1.00  0.00     0.032 A 
ATOM     19  C   UNL     1     -11.437  12.544  19.447  1.00  0.00     0.139 A 
ATOM     20  N   UNL     1     -12.263  11.525  19.174  1.00  0.00    -0.238 NA
ATOM     21  C   UNL     1      -9.507  13.655  19.709  1.00  0.00     0.085 A 
ATOM     22  N   UNL     1     -10.074  12.452  19.381  1.00  0.00    -0.346 N 
ATOM     23  H   UNL     1      -9.586  11.607  19.122  1.00  0.00     0.167 HD
BRANCH  15  24
ATOM     24  C   UNL     1     -15.490  13.219  19.869  1.00  0.00     0.023 A 
ATOM     25  C   UNL     1     -16.341  12.733  20.884  1.00  0.00     0.143 A 
ATOM     26  C   UNL     1     -16.318  13.952  19.048  1.00  0.00     0.114 A 
ATOM     27  N   UNL     1     -17.617  13.071  20.680  1.00  0.00    -0.184 NA
ATOM     28  N   UNL     1     -17.573  13.822  19.566  1.00  0.00    -0.285 N 
ATOM     29  H   UNL     1     -18.439  14.221  19.219  1.00  0.00     0.189 HD
ENDBRANCH  15  24
ENDBRANCH  12  14
ENDBRANCH   6  12
TORSDOF 5
ENDMDL
MODEL 7
REMARK VINA RESULT:    -7.849      1.890      4.592
REMARK INTER + INTRA:         -11.163
REMARK INTER:                 -10.198
REMARK INTRA:                  -0.965
REMARK UNBOUND:                -1.019
REMARK SMILES CCCC(=O)N1CCC(Nc2c(-c3cn[nH]c3)cnc3[nH]ccc23)CC1
REMARK SMILES IDX 4 1 5 2 6 3 7 4 8 5 9 6 25 7 26 8 3 9 2 10 1 11 10 12 11 14
REMARK SMILES IDX 12 15 24 16 18 17 23 18 20 19 19 20 22 21 21 22 13 24 14 25
REMARK SMILES IDX 17 26 15 27 16 28
REMARK H PARENT 10 13 21 23 16 29
ROOT
ATOM      1  C   UNL     1     -12.134  13.890  19.946  1.00  0.00     0.222 C 
ATOM      2  O   UNL     1     -10.926  14.060  20.109  1.00  0.00    -0.275 OA
ATOM      3  N   UNL     1     -12.977  14.920  19.543  1.00  0.00    -0.343 N 
ATOM      4  C   UNL     1     -12.404  16.236  19.262  1.00  0.00     0.121 C 
ATOM      5  C   UNL     1     -13.161  17.331  20.002  1.00  0.00     0.046 C 
ATOM      6  C   UNL     1     -14.662  17.261  19.680  1.00  0.00     0.082 C 
ATOM      7  C   UNL     1     -15.197  15.868  20.027  1.00  0.00     0.046 C 
ATOM      8  C   UNL     1     -14.411  14.794  19.282  1.00  0.00     0.121 C 
ENDROOT
BRANCH   1   9
ATOM      9  C   UNL     1     -12.775  12.530  20.187  1.00  0.00     0.100 C 
BRANCH   9  10
ATOM     10  C   UNL     1     -11.924  11.379  19.652  1.00  0.00     0.006 C 
ATOM     11  C   UNL     1     -12.732  10.461  18.749  1.00  0.00     0.004 C 
ENDBRANCH   9  10
ENDBRANCH   1   9
BRANCH   6  12
ATOM     12  N   UNL     1     -15.360  18.285  20.450  1.00  0.00    -0.381 N 
ATOM     13  H   UNL     1     -15.614  18.003  21.392  1.00  0.00     0.160 HD
BRANCH  12  14
ATOM     14  C   UNL     1     -16.053  19.384  19.976  1.00  0.00     0.055 A 
ATOM     15  C   UNL     1     -15.524  20.528  19.329  1.00  0.00     0.027 A 
ATOM     16  C   UNL     1     -17.469  19.404  20.145  1.00  0.00     0.042 A 
ATOM     17  C   UNL     1     -16.392  21.536  18.880  1.00  0.00     0.124 A 
ATOM     18  C   UNL     1     -18.431  18.520  20.730  1.00  0.00     0.032 A 
ATOM     19  C   UNL     1     -18.199  20.478  19.646  1.00  0.00     0.139 A 
ATOM     20  N   UNL     1     -17.738  21.558  19.002  1.00  0.00    -0.238 NA
ATOM     21  C   UNL     1     -19.683  19.078  20.577  1.00  0.00     0.085 A 
ATOM     22  N   UNL     1     -19.524  20.267  19.916  1.00  0.00    -0.346 N 
ATOM     23  H   UNL     1     -20.255  20.911  19.652  1.00  0.00     0.167 HD
BRANCH  15  24
ATOM     24  C   UNL     1     -14.113  20.775  19.124  1.00  0.00     0.023 A 
ATOM     25  C   UNL     1     -13.361  20.889  17.937  1.00  0.00     0.143 A 
ATOM     26  C   UNL     1     -13.220  21.079  20.128  1.00  0.00     0.114 A 
ATOM     27  N   UNL     1     -12.076  21.169  18.175  1.00  0.00    -0.184 NA
ATOM     28  N   UNL     1     -12.022  21.294  19.513  1.00  0.00    -0.285 N 
ATOM     29  H   UNL     1     -11.132  21.532  19.939  1.00  0.00     0.189 HD
ENDBRANCH  15  24
ENDBRANCH  12  14
ENDBRANCH   6  12
TORSDOF 5
ENDMDL
MODEL 8
REMARK VINA RESULT:    -7.804      2.944      7.900
REMARK INTER + INTRA:         -11.105
REMARK INTER:                 -10.148
REMARK INTRA:                  -0.956
REMARK UNBOUND:                -1.019
REMARK SMILES CCCC(=O)N1CCC(Nc2c(-c3cn[nH]c3)cnc3[nH]ccc23)CC1
REMARK SMILES IDX 4 1 5 2 6 3 7 4 8 5 9 6 25 7 26 8 3 9 2 10 1 11 10 12 11 14
REMARK SMILES IDX 12 15 24 16 18 17 23 18 20 19 19 20 22 21 21 22 13 24 14 25
REMARK SMILES IDX 17 26 15 27 16 28
REMARK H PARENT 10 13 21 23 16 29
ROOT
ATOM      1  C   UNL     1     -16.329  19.159  19.737  1.00  0.00     0.222 C 
ATOM      2  O   UNL     1     -16.631  19.217  18.544  1.00  0.00    -0.275 OA
ATOM      3  N   UNL     1     -15.125  18.612  20.167  1.00  0.00    -0.343 N 
ATOM      4  C   UNL     1     -14.168  18.131  19.172  1.00  0.00     0.121 C 
ATOM      5  C   UNL     1     -13.708  16.715  19.495  1.00  0.00     0.046 C 
ATOM      6  C   UNL     1     -13.154  16.643  20.928  1.00  0.00     0.082 C 
ATOM      7  C   UNL     1     -14.219  17.133  21.914  1.00  0.00     0.046 C 
ATOM      8  C   UNL     1     -14.668  18.546  21.556  1.00  0.00     0.121 C 
ENDROOT
BRANCH   1   9
ATOM      9  C   UNL     1     -17.272  19.682  20.812  1.00  0.00     0.100 C 
BRANCH   9  10
ATOM     10  C   UNL     1     -18.560  18.865  20.907  1.00  0.00     0.006 C 
ATOM     11  C   UNL     1     -18.429  17.735  21.915  1.00  0.00     0.004 C 
ENDBRANCH   9  10
ENDBRANCH   1   9
BRANCH   6  12
ATOM     12  N   UNL     1     -12.779  15.264  21.221  1.00  0.00    -0.381 N 
ATOM     13  H   UNL     1     -12.721  15.044  22.210  1.00  0.00     0.160 HD
BRANCH  12  14
ATOM     14  C   UNL     1     -12.126  14.364  20.397  1.00  0.00     0.055 A 
ATOM     15  C   UNL     1     -10.819  14.473  19.860  1.00  0.00     0.027 A 
ATOM     16  C   UNL     1     -12.821  13.177  20.020  1.00  0.00     0.042 A 
ATOM     17  C   UNL     1     -10.305  13.434  19.068  1.00  0.00     0.124 A 
ATOM     18  C   UNL     1     -14.121  12.639  20.285  1.00  0.00     0.032 A 
ATOM     19  C   UNL     1     -12.179  12.235  19.224  1.00  0.00     0.139 A 
ATOM     20  N   UNL     1     -10.936  12.288  18.726  1.00  0.00    -0.238 NA
ATOM     21  C   UNL     1     -14.224  11.420  19.648  1.00  0.00     0.085 A 
ATOM     22  N   UNL     1     -13.035  11.190  19.009  1.00  0.00    -0.346 N 
ATOM     23  H   UNL     1     -12.796  10.379  18.457  1.00  0.00     0.167 HD
BRANCH  15  24
ATOM     24  C   UNL     1      -9.957  15.622  20.029  1.00  0.00     0.023 A 
ATOM     25  C   UNL     1      -8.755  15.774  20.752  1.00  0.00     0.143 A 
ATOM     26  C   UNL     1     -10.114  16.820  19.367  1.00  0.00     0.114 A 
ATOM     27  N   UNL     1      -8.233  16.996  20.617  1.00  0.00    -0.184 NA
ATOM     28  N   UNL     1      -9.070  17.606  19.760  1.00  0.00    -0.285 N 
ATOM     29  H   UNL     1      -8.865  18.560  19.481  1.00  0.00     0.189 HD
ENDBRANCH  15  24
ENDBRANCH  12  14
ENDBRANCH   6  12
TORSDOF 5
ENDMDL
MODEL 9
REMARK VINA RESULT:    -7.741      2.919      6.954
REMARK INTER + INTRA:         -11.022
REMARK INTER:                 -10.463
REMARK INTRA:                  -0.560
REMARK UNBOUND:                -1.019
REMARK SMILES CCCC(=O)N1CCC(Nc2c(-c3cn[nH]c3)cnc3[nH]ccc23)CC1
REMARK SMILES IDX 4 1 5 2 6 3 7 4 8 5 9 6 25 7 26 8 3 9 2 10 1 11 10 12 11 14
REMARK SMILES IDX 12 15 24 16 18 17 23 18 20 19 19 20 22 21 21 22 13 24 14 25
REMARK SMILES IDX 17 26 15 27 16 28
REMARK H PARENT 10 13 21 23 16 29
ROOT
ATOM      1  C   UNL     1     -19.969  19.286  20.873  1.00  0.00     0.222 C 
ATOM      2  O   UNL     1     -20.466  20.218  20.241  1.00  0.00    -0.275 OA
ATOM      3  N   UNL     1     -18.600  19.043  20.876  1.00  0.00    -0.343 N 
ATOM      4  C   UNL     1     -17.717  19.948  20.141  1.00  0.00     0.121 C 
ATOM      5  C   UNL     1     -16.781  19.172  19.222  1.00  0.00     0.046 C 
ATOM      6  C   UNL     1     -16.005  18.110  20.017  1.00  0.00     0.082 C 
ATOM      7  C   UNL     1     -16.992  17.183  20.734  1.00  0.00     0.046 C 
ATOM      8  C   UNL     1     -17.923  17.989  21.634  1.00  0.00     0.121 C 
ENDROOT
BRANCH   1   9
ATOM      9  C   UNL     1     -20.838  18.338  21.687  1.00  0.00     0.100 C 
BRANCH   9  10
ATOM     10  C   UNL     1     -21.586  19.051  22.813  1.00  0.00     0.006 C 
ATOM     11  C   UNL     1     -22.869  18.322  23.179  1.00  0.00     0.004 C 
ENDBRANCH   9  10
ENDBRANCH   1   9
BRANCH   6  12
ATOM     12  N   UNL     1     -15.165  17.351  19.097  1.00  0.00    -0.381 N 
ATOM     13  H   UNL     1     -15.650  16.615  18.593  1.00  0.00     0.160 HD
BRANCH  12  14
ATOM     14  C   UNL     1     -13.787  17.222  19.108  1.00  0.00     0.055 A 
ATOM     15  C   UNL     1     -13.031  16.040  19.302  1.00  0.00     0.027 A 
ATOM     16  C   UNL     1     -13.005  18.397  18.906  1.00  0.00     0.042 A 
ATOM     17  C   UNL     1     -11.628  16.096  19.242  1.00  0.00     0.124 A 
ATOM     18  C   UNL     1     -13.297  19.782  18.689  1.00  0.00     0.032 A 
ATOM     19  C   UNL     1     -11.619  18.295  18.874  1.00  0.00     0.139 A 
ATOM     20  N   UNL     1     -10.871  17.193  19.021  1.00  0.00    -0.238 NA
ATOM     21  C   UNL     1     -12.105  20.459  18.544  1.00  0.00     0.085 A 
ATOM     22  N   UNL     1     -11.095  19.541  18.658  1.00  0.00    -0.346 N 
ATOM     23  H   UNL     1     -10.104  19.724  18.595  1.00  0.00     0.167 HD
BRANCH  15  24
ATOM     24  C   UNL     1     -13.597  14.745  19.611  1.00  0.00     0.023 A 
ATOM     25  C   UNL     1     -14.869  14.205  19.330  1.00  0.00     0.143 A 
ATOM     26  C   UNL     1     -12.895  13.701  20.172  1.00  0.00     0.114 A 
ATOM     27  N   UNL     1     -14.986  12.941  19.748  1.00  0.00    -0.184 NA
ATOM     28  N   UNL     1     -13.769  12.656  20.242  1.00  0.00    -0.285 N 
ATOM     29  H   UNL     1     -13.603  11.723  20.607  1.00  0.00     0.189 HD
ENDBRANCH  15  24
ENDBRANCH  12  14
ENDBRANCH   6  12
TORSDOF 5
ENDMDL
