REMARK SMILES Nc1ncnc2c1c(-c1ccc(Cl)c(O)c1)nn2C[C@@H]1CCCNC1
REMARK SMILES IDX 2 1 3 2 4 3 5 4 6 5 7 6 8 7 17 8 18 9 1 10 9 13 10 14 16 15
REMARK SMILES IDX 11 16 14 17 12 18 13 19 15 20 19 22 20 23 21 24 25 25 22 26
REMARK SMILES IDX 24 27 23 28
REMARK H PARENT 1 11 1 12 15 21 24 29
REMARK INDEX MAP 2 1 3 2 4 3 5 4 6 5 7 6 8 7 17 8 18 9 1 10 26 11 27 12 9 13
REMARK INDEX MAP 10 14 16 15 11 16 14 17 12 18 13 19 15 20 31 21 19 22 20 23
REMARK INDEX MAP 21 24 25 25 22 26 24 27 23 28 42 29
ROOT
ATOM      1  C   UNL     1      31.034  47.166  39.217  1.00  0.00     0.138 A 
ATOM      2  N   UNL     1      31.209  47.655  37.970  1.00  0.00    -0.219 NA
ATOM      3  C   UNL     1      32.455  47.957  37.560  1.00  0.00     0.226 A 
ATOM      4  N   UNL     1      33.601  47.843  38.250  1.00  0.00    -0.217 NA
ATOM      5  C   UNL     1      33.380  47.344  39.478  1.00  0.00     0.163 A 
ATOM      6  C   UNL     1      32.163  46.973  40.024  1.00  0.00     0.089 A 
ATOM      7  C   UNL     1      32.487  46.496  41.331  1.00  0.00     0.106 A 
ATOM      8  N   UNL     1      33.803  46.607  41.585  1.00  0.00    -0.170 NA
ATOM      9  N   UNL     1      34.314  47.116  40.447  1.00  0.00    -0.246 N 
ENDROOT
BRANCH   1  10
ATOM     10  N   UNL     1      29.738  46.915  39.595  1.00  0.00    -0.383 N 
ATOM     11  H   UNL     1      29.539  46.541  40.534  1.00  0.00     0.158 HD
ATOM     12  H   UNL     1      28.965  47.100  38.940  1.00  0.00     0.158 HD
ENDBRANCH   1  10
BRANCH   7  13
ATOM     13  C   UNL     1      31.600  45.943  42.349  1.00  0.00     0.007 A 
ATOM     14  C   UNL     1      30.772  44.851  42.037  1.00  0.00     0.012 A 
ATOM     15  C   UNL     1      31.538  46.507  43.628  1.00  0.00     0.058 A 
ATOM     16  C   UNL     1      29.911  44.315  42.998  1.00  0.00     0.025 A 
ATOM     17  C   UNL     1      30.681  45.965  44.583  1.00  0.00     0.134 A 
ATOM     18  C   UNL     1      29.869  44.872  44.274  1.00  0.00     0.082 A 
ATOM     19  Cl  UNL     1      28.810  44.207  45.461  1.00  0.00    -0.080 Cl
BRANCH  17  20
ATOM     20  O   UNL     1      30.674  46.548  45.822  1.00  0.00    -0.506 OA
ATOM     21  H   UNL     1      31.262  47.322  46.008  1.00  0.00     0.293 HD
ENDBRANCH  17  20
ENDBRANCH   7  13
BRANCH   9  22
ATOM     22  C   UNL     1      35.740  47.364  40.348  1.00  0.00     0.151 C 
BRANCH  22  23
ATOM     23  C   UNL     1      36.584  46.082  40.225  1.00  0.00     0.025 C 
ATOM     24  C   UNL     1      37.987  46.409  39.686  1.00  0.00     0.008 C 
ATOM     25  C   UNL     1      35.937  45.002  39.338  1.00  0.00     0.086 C 
ATOM     26  C   UNL     1      37.961  46.725  38.191  1.00  0.00     0.016 C 
ATOM     27  N   UNL     1      35.899  45.365  37.921  1.00  0.00    -0.316 NA
ATOM     28  C   UNL     1      37.238  45.635  37.403  1.00  0.00     0.081 C 
ATOM     29  H   UNL     1      35.319  46.209  37.807  1.00  0.00     0.122 HD
ENDBRANCH  22  23
ENDBRANCH   9  22
TORSDOF 5
