REMARK VINA RESULT:   -10.254      2.133      2.970
REMARK INTER + INTRA:         -19.265
REMARK INTER:                 -16.763
REMARK INTRA:                  -2.502
REMARK UNBOUND:                -2.418
REMARK SMILES CS(=O)(=O)CCNCc1ccc(-c2ccc3ncnc(Nc4ccc(OCc5cccc(F)c5)c(Cl)c4)c3c2)o1
REMARK SMILES IDX 13 1 14 2 15 3 16 4 17 5 18 6 19 7 20 8 38 9 39 10 12 11
REMARK SMILES IDX 9 12 10 13 40 14 11 15 8 16 7 17 6 19 5 20 2 21 3 22 4 23
REMARK SMILES IDX 1 24 21 25 22 27 23 28 37 29 24 30 35 31 25 32 36 33 26 34
REMARK SMILES IDX 27 35 28 36 29 37 34 38 30 39 32 40 31 41 33 42
REMARK H PARENT 7 18 21 26
ROOT
ATOM      1  C   UNL     1      17.252   2.549  25.333  1.00  0.00     0.018 A 
ATOM      2  C   UNL     1      18.131   1.498  25.076  1.00  0.00     0.014 A 
ATOM      3  C   UNL     1      17.960   0.258  25.704  1.00  0.00     0.030 A 
ATOM      4  C   UNL     1      16.926   0.023  26.600  1.00  0.00     0.076 A 
ATOM      5  N   UNL     1      16.829  -1.187  27.153  1.00  0.00    -0.236 NA
ATOM      6  C   UNL     1      15.813  -1.378  28.001  1.00  0.00     0.224 A 
ATOM      7  N   UNL     1      14.895  -0.474  28.347  1.00  0.00    -0.219 NA
ATOM      8  C   UNL     1      15.009   0.752  27.803  1.00  0.00     0.141 A 
ATOM      9  C   UNL     1      16.030   1.063  26.882  1.00  0.00     0.044 A 
ATOM     10  C   UNL     1      16.203   2.317  26.233  1.00  0.00     0.026 A 
ENDROOT
BRANCH   1  11
ATOM     11  C   UNL     1      17.426   3.847  24.687  1.00  0.00     0.134 A 
ATOM     12  C   UNL     1      16.749   5.882  24.184  1.00  0.00     0.118 A 
ATOM     13  C   UNL     1      17.995   5.736  23.612  1.00  0.00     0.047 A 
ATOM     14  O   UNL     1      16.397   4.734  24.833  1.00  0.00    -0.460 OA
ATOM     15  C   UNL     1      18.432   4.429  23.939  1.00  0.00     0.051 A 
BRANCH  12  16
ATOM     16  C   UNL     1      15.768   7.000  24.238  1.00  0.00     0.157 C 
BRANCH  16  17
ATOM     17  N   UNL     1      14.891   6.851  25.404  1.00  0.00    -0.309 NA
ATOM     18  H   UNL     1      15.177   7.557  26.089  1.00  0.00     0.123 HD
BRANCH  17  19
ATOM     19  C   UNL     1      13.478   7.061  25.062  1.00  0.00     0.097 C 
BRANCH  19  20
ATOM     20  C   UNL     1      12.811   5.787  24.562  1.00  0.00     0.152 C 
BRANCH  20  21
ATOM     21  S   UNL     1      12.535   4.661  25.914  1.00  0.00     0.148 S 
ATOM     22  O   UNL     1      13.752   4.568  26.696  1.00  0.00    -0.229 OA
ATOM     23  O   UNL     1      11.275   5.024  26.537  1.00  0.00    -0.229 OA
ATOM     24  C   UNL     1      12.299   3.104  25.094  1.00  0.00     0.158 C 
ENDBRANCH  20  21
ENDBRANCH  19  20
ENDBRANCH  17  19
ENDBRANCH  16  17
ENDBRANCH  12  16
ENDBRANCH   1  11
BRANCH   8  25
ATOM     25  N   UNL     1      14.070   1.747  28.160  1.00  0.00    -0.340 N 
ATOM     26  H   UNL     1      14.413   2.680  27.978  1.00  0.00     0.168 HD
BRANCH  25  27
ATOM     27  C   UNL     1      12.938   1.695  28.992  1.00  0.00     0.041 A 
ATOM     28  C   UNL     1      11.643   1.978  28.548  1.00  0.00     0.030 A 
ATOM     29  C   UNL     1      13.109   1.405  30.351  1.00  0.00     0.050 A 
ATOM     30  C   UNL     1      10.545   1.950  29.420  1.00  0.00     0.050 A 
ATOM     31  C   UNL     1      12.016   1.379  31.227  1.00  0.00     0.085 A 
ATOM     32  C   UNL     1      10.721   1.659  30.772  1.00  0.00     0.138 A 
ATOM     33  Cl  UNL     1      12.326   1.006  32.889  1.00  0.00    -0.080 Cl
BRANCH  32  34
ATOM     34  O   UNL     1       9.714   1.601  31.699  1.00  0.00    -0.487 OA
BRANCH  34  35
ATOM     35  C   UNL     1       8.359   1.713  31.260  1.00  0.00     0.265 C 
BRANCH  35  36
ATOM     36  C   UNL     1       7.822   3.125  31.339  1.00  0.00    -0.008 A 
ATOM     37  C   UNL     1       7.899   3.835  32.550  1.00  0.00     0.007 A 
ATOM     38  C   UNL     1       7.188   3.727  30.244  1.00  0.00     0.046 A 
ATOM     39  C   UNL     1       7.375   5.127  32.653  1.00  0.00     0.003 A 
ATOM     40  C   UNL     1       6.672   5.013  30.357  1.00  0.00     0.123 A 
ATOM     41  C   UNL     1       6.762   5.718  31.550  1.00  0.00     0.039 A 
ATOM     42  F   UNL     1       6.073   5.581  29.301  1.00  0.00    -0.207 F 
ENDBRANCH  35  36
ENDBRANCH  34  35
ENDBRANCH  32  34
ENDBRANCH  25  27
ENDBRANCH   8  25
TORSDOF 11
