REMARK VINA RESULT:    -9.702      2.822      9.384
REMARK INTER + INTRA:         -14.127
REMARK INTER:                 -14.243
REMARK INTRA:                   0.116
REMARK UNBOUND:                -1.022
REMARK SMILES CC(=N)N1CCC(Oc2ccc3nc(C(C)(C)C)n(Cc4ccc5ccc(C(=N)N)cc5c4)c3c2)CC1
REMARK SMILES IDX 9 1 10 2 11 3 12 4 13 5 14 6 19 7 34 8 35 9 8 10 7 11 2 12
REMARK SMILES IDX 3 13 4 14 5 15 37 16 6 17 36 18 1 19 20 21 21 22 22 23 33 24
REMARK SMILES IDX 23 25 32 26 24 27 31 28 25 29 27 30 26 31 28 32 29 33 30 34
REMARK SMILES IDX 15 38 16 39 17 40 18 41
REMARK H PARENT 3 20 29 35 30 36 30 37
ROOT
ATOM      1  C   UNL     1     130.030 -15.449 164.222  1.00  0.00     0.121 A 
ATOM      2  C   UNL     1     131.260 -14.860 163.917  1.00  0.00     0.049 A 
ATOM      3  C   UNL     1     131.511 -14.329 162.648  1.00  0.00     0.034 A 
ATOM      4  C   UNL     1     130.493 -14.377 161.687  1.00  0.00     0.089 A 
ATOM      5  N   UNL     1     130.500 -13.928 160.400  1.00  0.00    -0.233 NA
ATOM      6  C   UNL     1     129.304 -14.177 159.889  1.00  0.00     0.115 A 
ATOM      7  N   UNL     1     128.511 -14.800 160.847  1.00  0.00    -0.323 N 
ATOM      8  C   UNL     1     129.266 -14.939 162.005  1.00  0.00     0.072 A 
ATOM      9  C   UNL     1     128.999 -15.487 163.274  1.00  0.00     0.075 A 
ENDROOT
BRANCH   1  10
ATOM     10  O   UNL     1     129.921 -15.909 165.507  1.00  0.00    -0.490 OA
BRANCH  10  11
ATOM     11  C   UNL     1     130.554 -17.153 165.833  1.00  0.00     0.176 C 
ATOM     12  C   UNL     1     134.371 -18.800 165.706  1.00  0.00     0.093 C 
ATOM     13  N   UNL     1     134.792 -19.331 164.600  1.00  0.00    -0.289 NA
ATOM     14  N   UNL     1     133.022 -18.632 165.957  1.00  0.00    -0.361 N 
ATOM     15  C   UNL     1     132.012 -19.016 164.965  1.00  0.00     0.121 C 
ATOM     16  C   UNL     1     132.470 -18.070 167.186  1.00  0.00     0.121 C 
ATOM     17  C   UNL     1     131.175 -17.797 164.588  1.00  0.00     0.066 C 
ATOM     18  C   UNL     1     131.651 -16.830 166.855  1.00  0.00     0.066 C 
ATOM     19  C   UNL     1     135.398 -18.363 166.732  1.00  0.00     0.086 C 
ATOM     20  H   UNL     1     135.814 -19.378 164.580  1.00  0.00     0.189 HD
ENDBRANCH  10  11
ENDBRANCH   1  10
BRANCH   7  21
ATOM     21  C   UNL     1     127.115 -15.206 160.763  1.00  0.00     0.159 C 
BRANCH  21  22
ATOM     22  C   UNL     1     126.331 -15.008 162.037  1.00  0.00    -0.028 A 
ATOM     23  C   UNL     1     125.590 -16.040 162.629  1.00  0.00     0.006 A 
ATOM     24  C   UNL     1     126.395 -13.769 162.699  1.00  0.00     0.014 A 
ATOM     25  C   UNL     1     124.895 -15.826 163.823  1.00  0.00     0.009 A 
ATOM     26  C   UNL     1     125.703 -13.538 163.899  1.00  0.00    -0.017 A 
ATOM     27  C   UNL     1     124.938 -14.582 164.467  1.00  0.00    -0.018 A 
ATOM     28  C   UNL     1     125.748 -12.290 164.543  1.00  0.00     0.020 A 
ATOM     29  C   UNL     1     124.234 -14.355 165.661  1.00  0.00     0.009 A 
ATOM     30  C   UNL     1     125.040 -12.080 165.731  1.00  0.00     0.017 A 
ATOM     31  C   UNL     1     124.280 -13.108 166.290  1.00  0.00     0.012 A 
BRANCH  30  32
ATOM     32  C   UNL     1     125.086 -10.751 166.393  1.00  0.00     0.122 C 
ATOM     33  N   UNL     1     126.182 -10.072 166.498  1.00  0.00    -0.284 NA
ATOM     34  N   UNL     1     123.956 -10.208 166.907  1.00  0.00    -0.384 N 
ATOM     35  H   UNL     1     126.975 -10.593 166.113  1.00  0.00     0.189 HD
ATOM     36  H   UNL     1     124.034  -9.290 167.330  1.00  0.00     0.158 HD
ATOM     37  H   UNL     1     123.040 -10.616 166.794  1.00  0.00     0.158 HD
ENDBRANCH  30  32
ENDBRANCH  21  22
ENDBRANCH   7  21
BRANCH   6  38
ATOM     38  C   UNL     1     128.968 -13.836 158.435  1.00  0.00     0.020 C 
ATOM     39  C   UNL     1     127.710 -12.973 158.267  1.00  0.00     0.019 C 
ATOM     40  C   UNL     1     128.841 -15.125 157.606  1.00  0.00     0.019 C 
ATOM     41  C   UNL     1     130.142 -13.016 157.835  1.00  0.00     0.019 C 
ENDBRANCH   6  38
TORSDOF 6
