REMARK SMILES CCC(CC)n1cc(-c2nc(-c3cnn(C[C@H](O)CN4CC(OC)C4)c3)cn3nccc23)cn1
REMARK SMILES IDX 12 1 13 2 14 3 15 4 26 5 11 6 9 7 10 8 32 9 31 10 28 11
REMARK SMILES IDX 27 12 30 13 29 14 8 15 6 16 7 17 34 18 33 19 3 20 2 21 1 22
REMARK SMILES IDX 4 23 5 24 16 25 17 26 18 27 19 29 20 30 21 31 25 32 22 33
REMARK SMILES IDX 23 34 24 35
REMARK H PARENT 18 28
REMARK INDEX MAP 12 1 13 2 14 3 15 4 26 5 11 6 9 7 10 8 32 9 31 10 28 11 27 12
REMARK INDEX MAP 30 13 29 14 8 15 6 16 7 17 34 18 33 19 3 20 2 21 1 22 4 23
REMARK INDEX MAP 5 24 16 25 17 26 18 27 51 28 19 29 20 30 21 31 25 32 22 33
REMARK INDEX MAP 23 34 24 35
ROOT
ATOM      1  C   UNL     1      -3.504  23.668 -30.007  1.00  0.00     0.040 A 
ATOM      2  C   UNL     1      -2.147  23.296 -30.120  1.00  0.00     0.145 A 
ATOM      3  N   UNL     1      -1.759  22.465 -29.146  1.00  0.00    -0.181 NA
ATOM      4  N   UNL     1      -2.882  22.273 -28.431  1.00  0.00    -0.269 N 
ATOM      5  C   UNL     1      -3.950  22.990 -28.891  1.00  0.00     0.119 A 
ENDROOT
BRANCH   1   6
ATOM      6  C   UNL     1      -4.258  24.536 -30.860  1.00  0.00     0.092 A 
ATOM      7  C   UNL     1      -4.805  26.752 -31.251  1.00  0.00     0.100 A 
ATOM      8  N   UNL     1      -4.164  25.877 -30.528  1.00  0.00    -0.244 NA
ATOM      9  C   UNL     1      -5.594  26.371 -32.394  1.00  0.00     0.093 A 
ATOM     10  C   UNL     1      -6.298  27.020 -33.383  1.00  0.00     0.052 A 
ATOM     11  N   UNL     1      -5.681  25.020 -32.672  1.00  0.00    -0.237 N 
ATOM     12  C   UNL     1      -4.999  24.104 -31.894  1.00  0.00     0.142 A 
ATOM     13  C   UNL     1      -6.820  25.989 -34.182  1.00  0.00     0.136 A 
ATOM     14  N   UNL     1      -6.464  24.780 -33.751  1.00  0.00    -0.176 NA
BRANCH   7  15
ATOM     15  C   UNL     1      -4.680  28.142 -30.857  1.00  0.00     0.040 A 
ATOM     16  N   UNL     1      -4.148  30.069 -29.915  1.00  0.00    -0.269 N 
ATOM     17  C   UNL     1      -3.899  28.723 -29.876  1.00  0.00     0.119 A 
ATOM     18  N   UNL     1      -5.023  30.414 -30.874  1.00  0.00    -0.181 NA
ATOM     19  C   UNL     1      -5.329  29.252 -31.454  1.00  0.00     0.145 A 
BRANCH  16  20
ATOM     20  C   UNL     1      -3.588  31.105 -29.049  1.00  0.00     0.107 C 
BRANCH  20  21
ATOM     21  C   UNL     1      -4.464  32.376 -29.034  1.00  0.00     0.024 C 
ATOM     22  C   UNL     1      -5.251  32.541 -27.739  1.00  0.00     0.006 C 
ENDBRANCH  20  21
BRANCH  20  23
ATOM     23  C   UNL     1      -3.356  30.593 -27.613  1.00  0.00     0.024 C 
ATOM     24  C   UNL     1      -1.902  30.699 -27.170  1.00  0.00     0.006 C 
ENDBRANCH  20  23
ENDBRANCH  16  20
ENDBRANCH   7  15
ENDBRANCH   1   6
BRANCH   4  25
ATOM     25  C   UNL     1      -2.868  21.370 -27.301  1.00  0.00     0.177 C 
BRANCH  25  26
ATOM     26  C   UNL     1      -1.537  21.337 -26.549  1.00  0.00     0.150 C 
BRANCH  26  27
ATOM     27  O   UNL     1      -1.249  19.968 -26.207  1.00  0.00    -0.390 OA
ATOM     28  H   UNL     1      -1.229  19.871 -25.222  1.00  0.00     0.211 HD
ENDBRANCH  26  27
BRANCH  26  29
ATOM     29  C   UNL     1      -1.567  22.172 -25.250  1.00  0.00     0.118 C 
BRANCH  29  30
ATOM     30  N   UNL     1      -1.718  23.604 -25.580  1.00  0.00    -0.295 NA
ATOM     31  C   UNL     1      -1.613  24.444 -24.351  1.00  0.00     0.118 C 
ATOM     32  C   UNL     1      -0.413  24.169 -26.019  1.00  0.00     0.118 C 
ATOM     33  C   UNL     1      -0.728  25.423 -25.164  1.00  0.00     0.145 C 
BRANCH  33  34
ATOM     34  O   UNL     1       0.372  26.033 -24.451  1.00  0.00    -0.379 OA
ATOM     35  C   UNL     1       0.678  27.369 -24.827  1.00  0.00     0.195 C 
ENDBRANCH  33  34
ENDBRANCH  29  30
ENDBRANCH  26  29
ENDBRANCH  25  26
ENDBRANCH   4  25
TORSDOF 11
