MODEL 1
REMARK VINA RESULT:    -8.343      0.000      0.000
REMARK INTER + INTRA:         -14.949
REMARK INTER:                 -13.465
REMARK INTRA:                  -1.484
REMARK UNBOUND:                -1.484
REMARK SMILES O=C(CCCCCCOc1ccc2ncnc(Nc3ccc(F)c(Cl)c3)c2c1)NO
REMARK SMILES IDX 6 1 5 2 4 3 3 4 2 5 1 6 29 7 30 9 7 11 8 12 9 13 10 14 11 15
REMARK SMILES IDX 28 16 12 17 27 18 13 19 17 20 14 21 16 22 15 23 18 24 19 26
REMARK SMILES IDX 20 27 26 28 21 29 24 30 22 31 25 32 23 33
REMARK H PARENT 29 8 30 10 18 25
ROOT
ATOM      1  C   UNL     1      14.785   4.802  24.014  1.00  0.00     0.004 C 
ENDROOT
BRANCH   1   2
ATOM      2  C   UNL     1      13.479   4.677  23.229  1.00  0.00     0.001 C 
BRANCH   2   3
ATOM      3  C   UNL     1      12.623   3.521  23.756  1.00  0.00     0.010 C 
BRANCH   3   4
ATOM      4  C   UNL     1      12.566   3.487  25.282  1.00  0.00     0.102 C 
BRANCH   4   5
ATOM      5  C   UNL     1      11.609   4.503  25.873  1.00  0.00     0.243 C 
ATOM      6  O   UNL     1      11.799   5.115  26.921  1.00  0.00    -0.273 OA
ATOM      7  N   UNL     1      10.469   4.675  25.130  1.00  0.00    -0.238 N 
ATOM      8  H   UNL     1      10.248   4.196  24.265  1.00  0.00     0.198 HD
BRANCH   7   9
ATOM      9  O   UNL     1       9.524   5.599  25.624  1.00  0.00    -0.289 OA
ATOM     10  H   UNL     1       9.018   5.055  26.268  1.00  0.00     0.246 HD
ENDBRANCH   7   9
ENDBRANCH   4   5
ENDBRANCH   3   4
ENDBRANCH   2   3
ENDBRANCH   1   2
BRANCH   1  11
ATOM     11  C   UNL     1      15.993   4.827  23.080  1.00  0.00     0.042 C 
BRANCH  11  12
ATOM     12  C   UNL     1      17.231   4.229  23.744  1.00  0.00     0.229 C 
BRANCH  12  13
ATOM     13  O   UNL     1      16.923   4.007  25.121  1.00  0.00    -0.494 OA
BRANCH  13  14
ATOM     14  C   UNL     1      16.965   2.718  25.569  1.00  0.00     0.120 A 
ATOM     15  C   UNL     1      17.901   1.755  25.220  1.00  0.00     0.048 A 
ATOM     16  C   UNL     1      15.950   2.375  26.464  1.00  0.00     0.060 A 
ATOM     17  C   UNL     1      17.818   0.471  25.773  1.00  0.00     0.033 A 
ATOM     18  C   UNL     1      15.855   1.070  27.015  1.00  0.00     0.047 A 
ATOM     19  C   UNL     1      16.816   0.113  26.665  1.00  0.00     0.076 A 
ATOM     20  C   UNL     1      14.862   0.633  27.917  1.00  0.00     0.141 A 
ATOM     21  N   UNL     1      16.814  -1.129  27.153  1.00  0.00    -0.236 NA
ATOM     22  N   UNL     1      14.869  -0.612  28.430  1.00  0.00    -0.219 NA
ATOM     23  C   UNL     1      15.841  -1.431  28.018  1.00  0.00     0.224 A 
BRANCH  20  24
ATOM     24  N   UNL     1      13.832   1.521  28.300  1.00  0.00    -0.340 N 
ATOM     25  H   UNL     1      13.474   2.054  27.519  1.00  0.00     0.168 HD
BRANCH  24  26
ATOM     26  C   UNL     1      13.022   1.545  29.450  1.00  0.00     0.041 A 
ATOM     27  C   UNL     1      13.539   1.684  30.746  1.00  0.00     0.029 A 
ATOM     28  C   UNL     1      11.626   1.476  29.299  1.00  0.00     0.049 A 
ATOM     29  C   UNL     1      12.697   1.726  31.862  1.00  0.00     0.043 A 
ATOM     30  C   UNL     1      10.782   1.518  30.413  1.00  0.00     0.078 A 
ATOM     31  C   UNL     1      11.322   1.641  31.688  1.00  0.00     0.141 A 
ATOM     32  Cl  UNL     1       9.078   1.422  30.184  1.00  0.00    -0.081 Cl
ATOM     33  F   UNL     1      10.529   1.686  32.770  1.00  0.00    -0.205 F 
ENDBRANCH  24  26
ENDBRANCH  20  24
ENDBRANCH  13  14
ENDBRANCH  12  13
ENDBRANCH  11  12
ENDBRANCH   1  11
TORSDOF 11
ENDMDL
MODEL 2
REMARK VINA RESULT:    -8.138      3.451      6.032
REMARK INTER + INTRA:         -14.618
REMARK INTER:                 -13.158
REMARK INTRA:                  -1.460
REMARK UNBOUND:                -1.484
REMARK SMILES O=C(CCCCCCOc1ccc2ncnc(Nc3ccc(F)c(Cl)c3)c2c1)NO
REMARK SMILES IDX 6 1 5 2 4 3 3 4 2 5 1 6 29 7 30 9 7 11 8 12 9 13 10 14 11 15
REMARK SMILES IDX 28 16 12 17 27 18 13 19 17 20 14 21 16 22 15 23 18 24 19 26
REMARK SMILES IDX 20 27 26 28 21 29 24 30 22 31 25 32 23 33
REMARK H PARENT 29 8 30 10 18 25
ROOT
ATOM      1  C   UNL     1      13.628   3.996  25.071  1.00  0.00     0.004 C 
ENDROOT
BRANCH   1   2
ATOM      2  C   UNL     1      14.921   4.298  25.830  1.00  0.00     0.001 C 
BRANCH   2   3
ATOM      3  C   UNL     1      15.981   3.223  25.572  1.00  0.00     0.010 C 
BRANCH   3   4
ATOM      4  C   UNL     1      16.399   2.497  26.850  1.00  0.00     0.102 C 
BRANCH   4   5
ATOM      5  C   UNL     1      16.765   1.044  26.627  1.00  0.00     0.243 C 
ATOM      6  O   UNL     1      16.279   0.098  27.242  1.00  0.00    -0.273 OA
ATOM      7  N   UNL     1      17.730   0.866  25.669  1.00  0.00    -0.238 N 
ATOM      8  H   UNL     1      18.178   1.602  25.135  1.00  0.00     0.198 HD
BRANCH   7   9
ATOM      9  O   UNL     1      18.133  -0.462  25.413  1.00  0.00    -0.289 OA
ATOM     10  H   UNL     1      19.091  -0.356  25.223  1.00  0.00     0.246 HD
ENDBRANCH   7   9
ENDBRANCH   4   5
ENDBRANCH   3   4
ENDBRANCH   2   3
ENDBRANCH   1   2
BRANCH   1  11
ATOM     11  C   UNL     1      13.010   2.677  25.531  1.00  0.00     0.042 C 
BRANCH  11  12
ATOM     12  C   UNL     1      11.685   2.897  26.255  1.00  0.00     0.229 C 
BRANCH  12  13
ATOM     13  O   UNL     1      11.934   3.757  27.369  1.00  0.00    -0.494 OA
BRANCH  13  14
ATOM     14  C   UNL     1      12.233   3.162  28.561  1.00  0.00     0.120 A 
ATOM     15  C   UNL     1      13.497   3.016  29.113  1.00  0.00     0.048 A 
ATOM     16  C   UNL     1      11.132   2.665  29.261  1.00  0.00     0.060 A 
ATOM     17  C   UNL     1      13.646   2.388  30.355  1.00  0.00     0.033 A 
ATOM     18  C   UNL     1      11.281   2.014  30.514  1.00  0.00     0.047 A 
ATOM     19  C   UNL     1      12.562   1.888  31.066  1.00  0.00     0.076 A 
ATOM     20  C   UNL     1      10.231   1.475  31.286  1.00  0.00     0.141 A 
ATOM     21  N   UNL     1      12.789   1.312  32.248  1.00  0.00    -0.236 NA
ATOM     22  N   UNL     1      10.452   0.912  32.489  1.00  0.00    -0.219 NA
ATOM     23  C   UNL     1      11.719   0.855  32.906  1.00  0.00     0.224 A 
BRANCH  20  24
ATOM     24  N   UNL     1       8.907   1.527  30.791  1.00  0.00    -0.340 N 
ATOM     25  H   UNL     1       8.680   0.725  30.219  1.00  0.00     0.168 HD
BRANCH  24  26
ATOM     26  C   UNL     1       7.799   2.282  31.214  1.00  0.00     0.041 A 
ATOM     27  C   UNL     1       6.948   1.875  32.250  1.00  0.00     0.029 A 
ATOM     28  C   UNL     1       7.554   3.526  30.607  1.00  0.00     0.049 A 
ATOM     29  C   UNL     1       5.869   2.667  32.656  1.00  0.00     0.043 A 
ATOM     30  C   UNL     1       6.476   4.319  31.010  1.00  0.00     0.078 A 
ATOM     31  C   UNL     1       5.638   3.885  32.032  1.00  0.00     0.141 A 
ATOM     32  Cl  UNL     1       6.205   5.833  30.234  1.00  0.00    -0.081 Cl
ATOM     33  F   UNL     1       4.599   4.633  32.435  1.00  0.00    -0.205 F 
ENDBRANCH  24  26
ENDBRANCH  20  24
ENDBRANCH  13  14
ENDBRANCH  12  13
ENDBRANCH  11  12
ENDBRANCH   1  11
TORSDOF 11
ENDMDL
MODEL 3
REMARK VINA RESULT:    -8.095      2.601      4.509
REMARK INTER + INTRA:         -14.548
REMARK INTER:                 -13.358
REMARK INTRA:                  -1.190
REMARK UNBOUND:                -1.484
REMARK SMILES O=C(CCCCCCOc1ccc2ncnc(Nc3ccc(F)c(Cl)c3)c2c1)NO
REMARK SMILES IDX 6 1 5 2 4 3 3 4 2 5 1 6 29 7 30 9 7 11 8 12 9 13 10 14 11 15
REMARK SMILES IDX 28 16 12 17 27 18 13 19 17 20 14 21 16 22 15 23 18 24 19 26
REMARK SMILES IDX 20 27 26 28 21 29 24 30 22 31 25 32 23 33
REMARK H PARENT 29 8 30 10 18 25
ROOT
ATOM      1  C   UNL     1      18.338   5.623  24.282  1.00  0.00     0.004 C 
ENDROOT
BRANCH   1   2
ATOM      2  C   UNL     1      19.493   5.880  23.312  1.00  0.00     0.001 C 
BRANCH   2   3
ATOM      3  C   UNL     1      18.997   5.954  21.865  1.00  0.00     0.010 C 
BRANCH   3   4
ATOM      4  C   UNL     1      19.803   5.057  20.926  1.00  0.00     0.102 C 
BRANCH   4   5
ATOM      5  C   UNL     1      19.112   3.748  20.602  1.00  0.00     0.243 C 
ATOM      6  O   UNL     1      18.130   3.309  21.197  1.00  0.00    -0.273 OA
ATOM      7  N   UNL     1      19.702   3.060  19.573  1.00  0.00    -0.238 N 
ATOM      8  H   UNL     1      20.517   3.359  19.050  1.00  0.00     0.198 HD
BRANCH   7   9
ATOM      9  O   UNL     1      19.120   1.823  19.220  1.00  0.00    -0.289 OA
ATOM     10  H   UNL     1      19.904   1.293  18.953  1.00  0.00     0.246 HD
ENDBRANCH   7   9
ENDBRANCH   4   5
ENDBRANCH   3   4
ENDBRANCH   2   3
ENDBRANCH   1   2
BRANCH   1  11
ATOM     11  C   UNL     1      17.003   5.537  23.545  1.00  0.00     0.042 C 
BRANCH  11  12
ATOM     12  C   UNL     1      16.124   4.419  24.100  1.00  0.00     0.229 C 
BRANCH  12  13
ATOM     13  O   UNL     1      16.556   4.147  25.434  1.00  0.00    -0.494 OA
BRANCH  13  14
ATOM     14  C   UNL     1      16.689   2.836  25.791  1.00  0.00     0.120 A 
ATOM     15  C   UNL     1      17.682   1.964  25.367  1.00  0.00     0.048 A 
ATOM     16  C   UNL     1      15.711   2.364  26.668  1.00  0.00     0.060 A 
ATOM     17  C   UNL     1      17.692   0.643  25.829  1.00  0.00     0.033 A 
ATOM     18  C   UNL     1      15.709   1.021  27.126  1.00  0.00     0.047 A 
ATOM     19  C   UNL     1      16.727   0.157  26.702  1.00  0.00     0.076 A 
ATOM     20  C   UNL     1      14.760   0.456  28.003  1.00  0.00     0.141 A 
ATOM     21  N   UNL     1      16.815  -1.113  27.102  1.00  0.00    -0.236 NA
ATOM     22  N   UNL     1      14.856  -0.819  28.427  1.00  0.00    -0.219 NA
ATOM     23  C   UNL     1      15.875  -1.539  27.952  1.00  0.00     0.224 A 
BRANCH  20  24
ATOM     24  N   UNL     1      13.677   1.244  28.456  1.00  0.00    -0.340 N 
ATOM     25  H   UNL     1      13.179   1.685  27.695  1.00  0.00     0.168 HD
BRANCH  24  26
ATOM     26  C   UNL     1      12.995   1.246  29.687  1.00  0.00     0.041 A 
ATOM     27  C   UNL     1      13.586   1.668  30.886  1.00  0.00     0.029 A 
ATOM     28  C   UNL     1      11.646   0.854  29.716  1.00  0.00     0.049 A 
ATOM     29  C   UNL     1      12.865   1.676  32.085  1.00  0.00     0.043 A 
ATOM     30  C   UNL     1      10.924   0.860  30.912  1.00  0.00     0.078 A 
ATOM     31  C   UNL     1      11.538   1.270  32.091  1.00  0.00     0.141 A 
ATOM     32  Cl  UNL     1       9.275   0.364  30.906  1.00  0.00    -0.081 Cl
ATOM     33  F   UNL     1      10.861   1.286  33.250  1.00  0.00    -0.205 F 
ENDBRANCH  24  26
ENDBRANCH  20  24
ENDBRANCH  13  14
ENDBRANCH  12  13
ENDBRANCH  11  12
ENDBRANCH   1  11
TORSDOF 11
ENDMDL
MODEL 4
REMARK VINA RESULT:    -7.954      1.558      2.076
REMARK INTER + INTRA:         -14.321
REMARK INTER:                 -13.039
REMARK INTRA:                  -1.282
REMARK UNBOUND:                -1.484
REMARK SMILES O=C(CCCCCCOc1ccc2ncnc(Nc3ccc(F)c(Cl)c3)c2c1)NO
REMARK SMILES IDX 6 1 5 2 4 3 3 4 2 5 1 6 29 7 30 9 7 11 8 12 9 13 10 14 11 15
REMARK SMILES IDX 28 16 12 17 27 18 13 19 17 20 14 21 16 22 15 23 18 24 19 26
REMARK SMILES IDX 20 27 26 28 21 29 24 30 22 31 25 32 23 33
REMARK H PARENT 29 8 30 10 18 25
ROOT
ATOM      1  C   UNL     1      12.587   5.124  23.592  1.00  0.00     0.004 C 
ENDROOT
BRANCH   1   2
ATOM      2  C   UNL     1      11.941   4.327  24.727  1.00  0.00     0.001 C 
BRANCH   2   3
ATOM      3  C   UNL     1      11.112   5.234  25.641  1.00  0.00     0.010 C 
BRANCH   3   4
ATOM      4  C   UNL     1      10.630   6.496  24.926  1.00  0.00     0.102 C 
BRANCH   4   5
ATOM      5  C   UNL     1       9.128   6.690  24.992  1.00  0.00     0.243 C 
ATOM      6  O   UNL     1       8.529   7.198  25.937  1.00  0.00    -0.273 OA
ATOM      7  N   UNL     1       8.469   6.220  23.885  1.00  0.00    -0.238 N 
ATOM      8  H   UNL     1       8.900   5.783  23.079  1.00  0.00     0.198 HD
BRANCH   7   9
ATOM      9  O   UNL     1       7.064   6.356  23.879  1.00  0.00    -0.289 OA
ATOM     10  H   UNL     1       6.891   6.683  22.968  1.00  0.00     0.246 HD
ENDBRANCH   7   9
ENDBRANCH   4   5
ENDBRANCH   3   4
ENDBRANCH   2   3
ENDBRANCH   1   2
BRANCH   1  11
ATOM     11  C   UNL     1      13.847   4.433  23.076  1.00  0.00     0.042 C 
BRANCH  11  12
ATOM     12  C   UNL     1      15.084   5.310  23.253  1.00  0.00     0.229 C 
BRANCH  12  13
ATOM     13  O   UNL     1      15.541   5.155  24.597  1.00  0.00    -0.494 OA
BRANCH  13  14
ATOM     14  C   UNL     1      16.095   3.953  24.932  1.00  0.00     0.120 A 
ATOM     15  C   UNL     1      17.269   3.417  24.423  1.00  0.00     0.048 A 
ATOM     16  C   UNL     1      15.380   3.222  25.883  1.00  0.00     0.060 A 
ATOM     17  C   UNL     1      17.717   2.169  24.873  1.00  0.00     0.033 A 
ATOM     18  C   UNL     1      15.824   1.951  26.331  1.00  0.00     0.047 A 
ATOM     19  C   UNL     1      17.019   1.430  25.819  1.00  0.00     0.076 A 
ATOM     20  C   UNL     1      15.165   1.140  27.279  1.00  0.00     0.141 A 
ATOM     21  N   UNL     1      17.521   0.253  26.201  1.00  0.00    -0.236 NA
ATOM     22  N   UNL     1      15.678  -0.037  27.685  1.00  0.00    -0.219 NA
ATOM     23  C   UNL     1      16.826  -0.423  27.122  1.00  0.00     0.224 A 
BRANCH  20  24
ATOM     24  N   UNL     1      13.934   1.571  27.825  1.00  0.00    -0.340 N 
ATOM     25  H   UNL     1      13.216   1.669  27.121  1.00  0.00     0.168 HD
BRANCH  24  26
ATOM     26  C   UNL     1      13.463   1.554  29.150  1.00  0.00     0.041 A 
ATOM     27  C   UNL     1      14.026   2.333  30.171  1.00  0.00     0.029 A 
ATOM     28  C   UNL     1      12.346   0.761  29.464  1.00  0.00     0.049 A 
ATOM     29  C   UNL     1      13.513   2.304  31.471  1.00  0.00     0.043 A 
ATOM     30  C   UNL     1      11.831   0.731  30.763  1.00  0.00     0.078 A 
ATOM     31  C   UNL     1      12.418   1.502  31.760  1.00  0.00     0.141 A 
ATOM     32  Cl  UNL     1      10.466  -0.262  31.107  1.00  0.00    -0.081 Cl
ATOM     33  F   UNL     1      11.937   1.489  33.013  1.00  0.00    -0.205 F 
ENDBRANCH  24  26
ENDBRANCH  20  24
ENDBRANCH  13  14
ENDBRANCH  12  13
ENDBRANCH  11  12
ENDBRANCH   1  11
TORSDOF 11
ENDMDL
MODEL 5
REMARK VINA RESULT:    -7.933      3.793      6.567
REMARK INTER + INTRA:         -14.287
REMARK INTER:                 -13.071
REMARK INTRA:                  -1.216
REMARK UNBOUND:                -1.484
REMARK SMILES O=C(CCCCCCOc1ccc2ncnc(Nc3ccc(F)c(Cl)c3)c2c1)NO
REMARK SMILES IDX 6 1 5 2 4 3 3 4 2 5 1 6 29 7 30 9 7 11 8 12 9 13 10 14 11 15
REMARK SMILES IDX 28 16 12 17 27 18 13 19 17 20 14 21 16 22 15 23 18 24 19 26
REMARK SMILES IDX 20 27 26 28 21 29 24 30 22 31 25 32 23 33
REMARK H PARENT 29 8 30 10 18 25
ROOT
ATOM      1  C   UNL     1      12.975   2.037  30.877  1.00  0.00     0.004 C 
ENDROOT
BRANCH   1   2
ATOM      2  C   UNL     1      12.254   1.700  32.184  1.00  0.00     0.001 C 
BRANCH   2   3
ATOM      3  C   UNL     1      11.107   0.713  31.947  1.00  0.00     0.010 C 
BRANCH   3   4
ATOM      4  C   UNL     1       9.775   1.227  32.491  1.00  0.00     0.102 C 
BRANCH   4   5
ATOM      5  C   UNL     1       8.574   0.481  31.947  1.00  0.00     0.243 C 
ATOM      6  O   UNL     1       7.460   0.474  32.467  1.00  0.00    -0.273 OA
ATOM      7  N   UNL     1       8.842  -0.227  30.803  1.00  0.00    -0.238 N 
ATOM      8  H   UNL     1       9.738  -0.272  30.332  1.00  0.00     0.198 HD
BRANCH   7   9
ATOM      9  O   UNL     1       7.773  -0.958  30.243  1.00  0.00    -0.289 OA
ATOM     10  H   UNL     1       7.920  -0.834  29.278  1.00  0.00     0.246 HD
ENDBRANCH   7   9
ENDBRANCH   4   5
ENDBRANCH   3   4
ENDBRANCH   2   3
ENDBRANCH   1   2
BRANCH   1  11
ATOM     11  C   UNL     1      11.994   2.134  29.711  1.00  0.00     0.042 C 
BRANCH  11  12
ATOM     12  C   UNL     1      12.343   1.152  28.597  1.00  0.00     0.229 C 
BRANCH  12  13
ATOM     13  O   UNL     1      13.383   0.298  29.077  1.00  0.00    -0.494 OA
BRANCH  13  14
ATOM     14  C   UNL     1      14.507   0.191  28.310  1.00  0.00     0.120 A 
ATOM     15  C   UNL     1      15.323  -0.925  28.197  1.00  0.00     0.048 A 
ATOM     16  C   UNL     1      14.832   1.337  27.583  1.00  0.00     0.060 A 
ATOM     17  C   UNL     1      16.443  -0.886  27.358  1.00  0.00     0.033 A 
ATOM     18  C   UNL     1      15.975   1.385  26.742  1.00  0.00     0.047 A 
ATOM     19  C   UNL     1      16.781   0.245  26.627  1.00  0.00     0.076 A 
ATOM     20  C   UNL     1      16.385   2.499  25.979  1.00  0.00     0.141 A 
ATOM     21  N   UNL     1      17.860   0.196  25.842  1.00  0.00    -0.236 NA
ATOM     22  N   UNL     1      17.459   2.447  25.169  1.00  0.00    -0.219 NA
ATOM     23  C   UNL     1      18.144   1.301  25.146  1.00  0.00     0.224 A 
BRANCH  20  24
ATOM     24  N   UNL     1      15.650   3.704  26.060  1.00  0.00    -0.340 N 
ATOM     25  H   UNL     1      16.194   4.458  26.455  1.00  0.00     0.168 HD
BRANCH  24  26
ATOM     26  C   UNL     1      14.473   4.106  25.403  1.00  0.00     0.041 A 
ATOM     27  C   UNL     1      13.805   3.299  24.472  1.00  0.00     0.029 A 
ATOM     28  C   UNL     1      13.909   5.352  25.724  1.00  0.00     0.049 A 
ATOM     29  C   UNL     1      12.624   3.728  23.857  1.00  0.00     0.043 A 
ATOM     30  C   UNL     1      12.728   5.783  25.111  1.00  0.00     0.078 A 
ATOM     31  C   UNL     1      12.093   4.969  24.180  1.00  0.00     0.141 A 
ATOM     32  Cl  UNL     1      12.074   7.321  25.527  1.00  0.00    -0.081 Cl
ATOM     33  F   UNL     1      10.958   5.363  23.582  1.00  0.00    -0.205 F 
ENDBRANCH  24  26
ENDBRANCH  20  24
ENDBRANCH  13  14
ENDBRANCH  12  13
ENDBRANCH  11  12
ENDBRANCH   1  11
TORSDOF 11
ENDMDL
MODEL 6
REMARK VINA RESULT:    -7.924      4.656      8.685
REMARK INTER + INTRA:         -14.272
REMARK INTER:                 -13.055
REMARK INTRA:                  -1.216
REMARK UNBOUND:                -1.484
REMARK SMILES O=C(CCCCCCOc1ccc2ncnc(Nc3ccc(F)c(Cl)c3)c2c1)NO
REMARK SMILES IDX 6 1 5 2 4 3 3 4 2 5 1 6 29 7 30 9 7 11 8 12 9 13 10 14 11 15
REMARK SMILES IDX 28 16 12 17 27 18 13 19 17 20 14 21 16 22 15 23 18 24 19 26
REMARK SMILES IDX 20 27 26 28 21 29 24 30 22 31 25 32 23 33
REMARK H PARENT 29 8 30 10 18 25
ROOT
ATOM      1  C   UNL     1       5.857  -0.395  32.324  1.00  0.00     0.004 C 
ENDROOT
BRANCH   1   2
ATOM      2  C   UNL     1       5.931   0.605  33.479  1.00  0.00     0.001 C 
BRANCH   2   3
ATOM      3  C   UNL     1       4.760   1.592  33.436  1.00  0.00     0.010 C 
BRANCH   3   4
ATOM      4  C   UNL     1       5.225   3.048  33.452  1.00  0.00     0.102 C 
BRANCH   4   5
ATOM      5  C   UNL     1       6.022   3.440  32.225  1.00  0.00     0.243 C 
ATOM      6  O   UNL     1       7.249   3.453  32.162  1.00  0.00    -0.273 OA
ATOM      7  N   UNL     1       5.239   3.813  31.162  1.00  0.00    -0.238 N 
ATOM      8  H   UNL     1       4.226   3.834  31.152  1.00  0.00     0.198 HD
BRANCH   7   9
ATOM      9  O   UNL     1       5.911   4.203  29.984  1.00  0.00    -0.289 OA
ATOM     10  H   UNL     1       5.607   5.131  29.869  1.00  0.00     0.246 HD
ENDBRANCH   7   9
ENDBRANCH   4   5
ENDBRANCH   3   4
ENDBRANCH   2   3
ENDBRANCH   1   2
BRANCH   1  11
ATOM     11  C   UNL     1       7.092  -1.292  32.288  1.00  0.00     0.042 C 
BRANCH  11  12
ATOM     12  C   UNL     1       7.904  -1.080  31.013  1.00  0.00     0.229 C 
BRANCH  12  13
ATOM     13  O   UNL     1       8.202   0.313  30.912  1.00  0.00    -0.494 OA
BRANCH  13  14
ATOM     14  C   UNL     1       9.477   0.702  31.206  1.00  0.00     0.120 A 
ATOM     15  C   UNL     1      10.173   0.425  32.374  1.00  0.00     0.048 A 
ATOM     16  C   UNL     1      10.107   1.448  30.209  1.00  0.00     0.060 A 
ATOM     17  C   UNL     1      11.486   0.887  32.528  1.00  0.00     0.033 A 
ATOM     18  C   UNL     1      11.433   1.930  30.367  1.00  0.00     0.047 A 
ATOM     19  C   UNL     1      12.128   1.630  31.546  1.00  0.00     0.076 A 
ATOM     20  C   UNL     1      12.145   2.697  29.421  1.00  0.00     0.141 A 
ATOM     21  N   UNL     1      13.384   2.023  31.768  1.00  0.00    -0.236 NA
ATOM     22  N   UNL     1      13.419   3.077  29.630  1.00  0.00    -0.219 NA
ATOM     23  C   UNL     1      13.972   2.726  30.794  1.00  0.00     0.224 A 
BRANCH  20  24
ATOM     24  N   UNL     1      11.510   3.076  28.216  1.00  0.00    -0.340 N 
ATOM     25  H   UNL     1      10.551   3.360  28.361  1.00  0.00     0.168 HD
BRANCH  24  26
ATOM     26  C   UNL     1      12.051   3.440  26.970  1.00  0.00     0.041 A 
ATOM     27  C   UNL     1      12.595   2.511  26.073  1.00  0.00     0.029 A 
ATOM     28  C   UNL     1      12.004   4.789  26.577  1.00  0.00     0.049 A 
ATOM     29  C   UNL     1      13.103   2.911  24.833  1.00  0.00     0.043 A 
ATOM     30  C   UNL     1      12.510   5.192  25.338  1.00  0.00     0.078 A 
ATOM     31  C   UNL     1      13.058   4.251  24.473  1.00  0.00     0.141 A 
ATOM     32  Cl  UNL     1      12.440   6.856  24.899  1.00  0.00    -0.081 Cl
ATOM     33  F   UNL     1      13.547   4.617  23.278  1.00  0.00    -0.205 F 
ENDBRANCH  24  26
ENDBRANCH  20  24
ENDBRANCH  13  14
ENDBRANCH  12  13
ENDBRANCH  11  12
ENDBRANCH   1  11
TORSDOF 11
ENDMDL
MODEL 7
REMARK VINA RESULT:    -7.896      3.921      7.359
REMARK INTER + INTRA:         -14.226
REMARK INTER:                 -13.111
REMARK INTRA:                  -1.115
REMARK UNBOUND:                -1.484
REMARK SMILES O=C(CCCCCCOc1ccc2ncnc(Nc3ccc(F)c(Cl)c3)c2c1)NO
REMARK SMILES IDX 6 1 5 2 4 3 3 4 2 5 1 6 29 7 30 9 7 11 8 12 9 13 10 14 11 15
REMARK SMILES IDX 28 16 12 17 27 18 13 19 17 20 14 21 16 22 15 23 18 24 19 26
REMARK SMILES IDX 20 27 26 28 21 29 24 30 22 31 25 32 23 33
REMARK H PARENT 29 8 30 10 18 25
ROOT
ATOM      1  C   UNL     1      10.511   2.156  29.858  1.00  0.00     0.004 C 
ENDROOT
BRANCH   1   2
ATOM      2  C   UNL     1      11.353   1.845  31.097  1.00  0.00     0.001 C 
BRANCH   2   3
ATOM      3  C   UNL     1      11.209   0.378  31.513  1.00  0.00     0.010 C 
BRANCH   3   4
ATOM      4  C   UNL     1       9.782  -0.140  31.336  1.00  0.00     0.102 C 
BRANCH   4   5
ATOM      5  C   UNL     1       9.681  -1.651  31.371  1.00  0.00     0.243 C 
ATOM      6  O   UNL     1      10.516  -2.420  30.899  1.00  0.00    -0.273 OA
ATOM      7  N   UNL     1       8.535  -2.107  31.971  1.00  0.00    -0.238 N 
ATOM      8  H   UNL     1       7.804  -1.529  32.369  1.00  0.00     0.198 HD
BRANCH   7   9
ATOM      9  O   UNL     1       8.364  -3.507  32.031  1.00  0.00    -0.289 OA
ATOM     10  H   UNL     1       9.212  -3.836  31.658  1.00  0.00     0.246 HD
ENDBRANCH   7   9
ENDBRANCH   4   5
ENDBRANCH   3   4
ENDBRANCH   2   3
ENDBRANCH   1   2
BRANCH   1  11
ATOM     11  C   UNL     1      11.361   2.132  28.589  1.00  0.00     0.042 C 
BRANCH  11  12
ATOM     12  C   UNL     1      12.248   3.370  28.482  1.00  0.00     0.229 C 
BRANCH  12  13
ATOM     13  O   UNL     1      11.502   4.385  27.809  1.00  0.00    -0.494 OA
BRANCH  13  14
ATOM     14  C   UNL     1      11.870   4.685  26.529  1.00  0.00     0.120 A 
ATOM     15  C   UNL     1      11.039   5.148  25.521  1.00  0.00     0.048 A 
ATOM     16  C   UNL     1      13.224   4.492  26.249  1.00  0.00     0.060 A 
ATOM     17  C   UNL     1      11.567   5.421  24.253  1.00  0.00     0.033 A 
ATOM     18  C   UNL     1      13.761   4.754  24.961  1.00  0.00     0.047 A 
ATOM     19  C   UNL     1      12.911   5.237  23.957  1.00  0.00     0.076 A 
ATOM     20  C   UNL     1      15.109   4.581  24.584  1.00  0.00     0.141 A 
ATOM     21  N   UNL     1      13.336   5.530  22.726  1.00  0.00    -0.236 NA
ATOM     22  N   UNL     1      15.547   4.897  23.351  1.00  0.00    -0.219 NA
ATOM     23  C   UNL     1      14.638   5.350  22.484  1.00  0.00     0.224 A 
BRANCH  20  24
ATOM     24  N   UNL     1      16.031   4.066  25.523  1.00  0.00    -0.340 N 
ATOM     25  H   UNL     1      16.361   4.774  26.165  1.00  0.00     0.168 HD
BRANCH  24  26
ATOM     26  C   UNL     1      16.294   2.742  25.921  1.00  0.00     0.041 A 
ATOM     27  C   UNL     1      17.426   2.030  25.501  1.00  0.00     0.029 A 
ATOM     28  C   UNL     1      15.413   2.115  26.817  1.00  0.00     0.049 A 
ATOM     29  C   UNL     1      17.662   0.722  25.937  1.00  0.00     0.043 A 
ATOM     30  C   UNL     1      15.646   0.808  27.255  1.00  0.00     0.078 A 
ATOM     31  C   UNL     1      16.769   0.118  26.811  1.00  0.00     0.141 A 
ATOM     32  Cl  UNL     1      14.536   0.073  28.347  1.00  0.00    -0.081 Cl
ATOM     33  F   UNL     1      17.012  -1.136  27.221  1.00  0.00    -0.205 F 
ENDBRANCH  24  26
ENDBRANCH  20  24
ENDBRANCH  13  14
ENDBRANCH  12  13
ENDBRANCH  11  12
ENDBRANCH   1  11
TORSDOF 11
ENDMDL
MODEL 8
REMARK VINA RESULT:    -7.864      3.769      5.325
REMARK INTER + INTRA:         -14.175
REMARK INTER:                 -13.293
REMARK INTRA:                  -0.882
REMARK UNBOUND:                -1.484
REMARK SMILES O=C(CCCCCCOc1ccc2ncnc(Nc3ccc(F)c(Cl)c3)c2c1)NO
REMARK SMILES IDX 6 1 5 2 4 3 3 4 2 5 1 6 29 7 30 9 7 11 8 12 9 13 10 14 11 15
REMARK SMILES IDX 28 16 12 17 27 18 13 19 17 20 14 21 16 22 15 23 18 24 19 26
REMARK SMILES IDX 20 27 26 28 21 29 24 30 22 31 25 32 23 33
REMARK H PARENT 29 8 30 10 18 25
ROOT
ATOM      1  C   UNL     1      12.687   5.935  25.181  1.00  0.00     0.004 C 
ENDROOT
BRANCH   1   2
ATOM      2  C   UNL     1      11.831   5.830  23.917  1.00  0.00     0.001 C 
BRANCH   2   3
ATOM      3  C   UNL     1      11.185   7.175  23.571  1.00  0.00     0.010 C 
BRANCH   3   4
ATOM      4  C   UNL     1      10.225   7.657  24.658  1.00  0.00     0.102 C 
BRANCH   4   5
ATOM      5  C   UNL     1       8.770   7.623  24.236  1.00  0.00     0.243 C 
ATOM      6  O   UNL     1       8.029   8.603  24.198  1.00  0.00    -0.273 OA
ATOM      7  N   UNL     1       8.326   6.367  23.909  1.00  0.00    -0.238 N 
ATOM      8  H   UNL     1       8.880   5.519  23.930  1.00  0.00     0.198 HD
BRANCH   7   9
ATOM      9  O   UNL     1       6.975   6.254  23.516  1.00  0.00    -0.289 OA
ATOM     10  H   UNL     1       6.967   5.390  23.046  1.00  0.00     0.246 HD
ENDBRANCH   7   9
ENDBRANCH   4   5
ENDBRANCH   3   4
ENDBRANCH   2   3
ENDBRANCH   1   2
BRANCH   1  11
ATOM     11  C   UNL     1      12.175   5.003  26.277  1.00  0.00     0.042 C 
BRANCH  11  12
ATOM     12  C   UNL     1      12.605   3.559  26.035  1.00  0.00     0.229 C 
BRANCH  12  13
ATOM     13  O   UNL     1      11.778   2.716  26.838  1.00  0.00    -0.494 OA
BRANCH  13  14
ATOM     14  C   UNL     1      12.189   2.474  28.117  1.00  0.00     0.120 A 
ATOM     15  C   UNL     1      13.448   2.731  28.639  1.00  0.00     0.048 A 
ATOM     16  C   UNL     1      11.219   1.911  28.948  1.00  0.00     0.060 A 
ATOM     17  C   UNL     1      13.720   2.434  29.980  1.00  0.00     0.033 A 
ATOM     18  C   UNL     1      11.495   1.595  30.304  1.00  0.00     0.047 A 
ATOM     19  C   UNL     1      12.767   1.875  30.822  1.00  0.00     0.076 A 
ATOM     20  C   UNL     1      10.583   1.019  31.213  1.00  0.00     0.141 A 
ATOM     21  N   UNL     1      13.104   1.632  32.090  1.00  0.00    -0.236 NA
ATOM     22  N   UNL     1      10.911   0.792  32.499  1.00  0.00    -0.219 NA
ATOM     23  C   UNL     1      12.155   1.105  32.871  1.00  0.00     0.224 A 
BRANCH  20  24
ATOM     24  N   UNL     1       9.287   0.671  30.770  1.00  0.00    -0.340 N 
ATOM     25  H   UNL     1       9.307   0.087  29.945  1.00  0.00     0.168 HD
BRANCH  24  26
ATOM     26  C   UNL     1       8.049   0.706  31.437  1.00  0.00     0.041 A 
ATOM     27  C   UNL     1       7.318  -0.449  31.750  1.00  0.00     0.029 A 
ATOM     28  C   UNL     1       7.537   1.946  31.856  1.00  0.00     0.049 A 
ATOM     29  C   UNL     1       6.101  -0.373  32.435  1.00  0.00     0.043 A 
ATOM     30  C   UNL     1       6.321   2.025  32.541  1.00  0.00     0.078 A 
ATOM     31  C   UNL     1       5.609   0.865  32.825  1.00  0.00     0.141 A 
ATOM     32  Cl  UNL     1       5.725   3.566  33.028  1.00  0.00    -0.081 Cl
ATOM     33  F   UNL     1       4.441   0.919  33.484  1.00  0.00    -0.205 F 
ENDBRANCH  24  26
ENDBRANCH  20  24
ENDBRANCH  13  14
ENDBRANCH  12  13
ENDBRANCH  11  12
ENDBRANCH   1  11
TORSDOF 11
ENDMDL
MODEL 9
REMARK VINA RESULT:    -7.828      3.266      5.860
REMARK INTER + INTRA:         -14.116
REMARK INTER:                 -13.205
REMARK INTRA:                  -0.911
REMARK UNBOUND:                -1.484
REMARK SMILES O=C(CCCCCCOc1ccc2ncnc(Nc3ccc(F)c(Cl)c3)c2c1)NO
REMARK SMILES IDX 6 1 5 2 4 3 3 4 2 5 1 6 29 7 30 9 7 11 8 12 9 13 10 14 11 15
REMARK SMILES IDX 28 16 12 17 27 18 13 19 17 20 14 21 16 22 15 23 18 24 19 26
REMARK SMILES IDX 20 27 26 28 21 29 24 30 22 31 25 32 23 33
REMARK H PARENT 29 8 30 10 18 25
ROOT
ATOM      1  C   UNL     1      15.016   4.046  25.650  1.00  0.00     0.004 C 
ENDROOT
BRANCH   1   2
ATOM      2  C   UNL     1      15.753   4.148  24.314  1.00  0.00     0.001 C 
BRANCH   2   3
ATOM      3  C   UNL     1      16.367   2.803  23.913  1.00  0.00     0.010 C 
BRANCH   3   4
ATOM      4  C   UNL     1      17.656   2.501  24.674  1.00  0.00     0.102 C 
BRANCH   4   5
ATOM      5  C   UNL     1      17.499   1.417  25.721  1.00  0.00     0.243 C 
ATOM      6  O   UNL     1      17.042   1.593  26.848  1.00  0.00    -0.273 OA
ATOM      7  N   UNL     1      17.942   0.188  25.303  1.00  0.00    -0.238 N 
ATOM      8  H   UNL     1      18.338  -0.022  24.394  1.00  0.00     0.198 HD
BRANCH   7   9
ATOM      9  O   UNL     1      17.839  -0.872  26.229  1.00  0.00    -0.289 OA
ATOM     10  H   UNL     1      18.604  -0.705  26.824  1.00  0.00     0.246 HD
ENDBRANCH   7   9
ENDBRANCH   4   5
ENDBRANCH   3   4
ENDBRANCH   2   3
ENDBRANCH   1   2
BRANCH   1  11
ATOM     11  C   UNL     1      13.696   3.292  25.499  1.00  0.00     0.042 C 
BRANCH  11  12
ATOM     12  C   UNL     1      12.559   3.992  26.238  1.00  0.00     0.229 C 
BRANCH  12  13
ATOM     13  O   UNL     1      11.822   2.997  26.950  1.00  0.00    -0.494 OA
BRANCH  13  14
ATOM     14  C   UNL     1      12.241   2.695  28.213  1.00  0.00     0.120 A 
ATOM     15  C   UNL     1      13.497   2.945  28.746  1.00  0.00     0.048 A 
ATOM     16  C   UNL     1      11.282   2.076  29.017  1.00  0.00     0.060 A 
ATOM     17  C   UNL     1      13.777   2.584  30.069  1.00  0.00     0.033 A 
ATOM     18  C   UNL     1      11.566   1.695  30.354  1.00  0.00     0.047 A 
ATOM     19  C   UNL     1      12.834   1.968  30.883  1.00  0.00     0.076 A 
ATOM     20  C   UNL     1      10.666   1.058  31.234  1.00  0.00     0.141 A 
ATOM     21  N   UNL     1      13.179   1.665  32.136  1.00  0.00    -0.236 NA
ATOM     22  N   UNL     1      11.001   0.771  32.506  1.00  0.00    -0.219 NA
ATOM     23  C   UNL     1      12.241   1.084  32.891  1.00  0.00     0.224 A 
BRANCH  20  24
ATOM     24  N   UNL     1       9.374   0.714  30.775  1.00  0.00    -0.340 N 
ATOM     25  H   UNL     1       9.403   0.121  29.957  1.00  0.00     0.168 HD
BRANCH  24  26
ATOM     26  C   UNL     1       8.127   0.761  31.425  1.00  0.00     0.041 A 
ATOM     27  C   UNL     1       7.375  -0.385  31.718  1.00  0.00     0.029 A 
ATOM     28  C   UNL     1       7.627   2.005  31.844  1.00  0.00     0.049 A 
ATOM     29  C   UNL     1       6.149  -0.296  32.386  1.00  0.00     0.043 A 
ATOM     30  C   UNL     1       6.402   2.097  32.512  1.00  0.00     0.078 A 
ATOM     31  C   UNL     1       5.669   0.946  32.778  1.00  0.00     0.141 A 
ATOM     32  Cl  UNL     1       5.821   3.643  33.002  1.00  0.00    -0.081 Cl
ATOM     33  F   UNL     1       4.492   1.012  33.420  1.00  0.00    -0.205 F 
ENDBRANCH  24  26
ENDBRANCH  20  24
ENDBRANCH  13  14
ENDBRANCH  12  13
ENDBRANCH  11  12
ENDBRANCH   1  11
TORSDOF 11
ENDMDL
