MODEL 5
REMARK VINA RESULT:    -7.102      2.481      6.937
REMARK INTER + INTRA:         -13.966
REMARK INTER:                 -12.364
REMARK INTRA:                  -1.602
REMARK UNBOUND:                -2.090
REMARK SMILES NC(N)=NCCC[C@@H](CCl)NC(=O)[C@@H]1CCCN1C(=O)[C@H](N)Cc1ccccc1
REMARK SMILES IDX 11 1 12 2 13 3 8 5 7 6 6 7 5 8 4 9 1 10 2 11 3 12 9 17 10 18
REMARK SMILES IDX 14 19 15 20 18 21 16 22 17 23 19 24 20 25 21 26 22 27 23 30
REMARK SMILES IDX 24 31 25 32 29 33 26 34 28 35 27 36
REMARK H PARENT 11 4 1 13 1 14 3 15 3 16 22 28 22 29
ROOT
ATOM      1  N   UNL     1     130.051 -15.524 162.913  1.00  0.00    -0.350 N 
ATOM      2  C   UNL     1     128.955 -15.736 163.732  1.00  0.00     0.243 C 
ATOM      3  O   UNL     1     128.976 -15.535 164.943  1.00  0.00    -0.273 OA
ATOM      4  H   UNL     1     130.014 -15.887 161.974  1.00  0.00     0.163 HD
ENDROOT
BRANCH   1   5
ATOM      5  C   UNL     1     131.365 -15.200 163.467  1.00  0.00     0.097 C 
BRANCH   5   6
ATOM      6  C   UNL     1     132.246 -16.457 163.609  1.00  0.00     0.028 C 
BRANCH   6   7
ATOM      7  C   UNL     1     133.252 -16.509 164.767  1.00  0.00     0.026 C 
BRANCH   7   8
ATOM      8  C   UNL     1     133.019 -17.578 165.829  1.00  0.00     0.146 C 
BRANCH   8   9
ATOM      9  N   UNL     1     131.747 -18.234 165.570  1.00  0.00    -0.254 NA
ATOM     10  N   UNL     1     129.537 -18.510 166.015  1.00  0.00    -0.370 N 
ATOM     11  C   UNL     1     130.713 -17.883 166.235  1.00  0.00     0.185 C 
ATOM     12  N   UNL     1     130.566 -16.939 167.186  1.00  0.00    -0.370 N 
ATOM     13  H   UNL     1     129.691 -19.338 165.451  1.00  0.00     0.159 HD
ATOM     14  H   UNL     1     129.071 -18.758 166.878  1.00  0.00     0.159 HD
ATOM     15  H   UNL     1     131.341 -16.297 167.272  1.00  0.00     0.159 HD
ATOM     16  H   UNL     1     129.687 -16.442 167.090  1.00  0.00     0.159 HD
ENDBRANCH   8   9
ENDBRANCH   7   8
ENDBRANCH   6   7
ENDBRANCH   5   6
BRANCH   5  17
ATOM     17  C   UNL     1     132.057 -14.065 162.700  1.00  0.00     0.134 C 
ATOM     18  Cl  UNL     1     133.273 -14.707 161.554  1.00  0.00    -0.124 Cl
ENDBRANCH   5  17
ENDBRANCH   1   5
BRANCH   2  19
ATOM     19  C   UNL     1     127.694 -16.177 162.956  1.00  0.00     0.174 C 
ATOM     20  C   UNL     1     127.605 -17.709 162.954  1.00  0.00     0.037 C 
ATOM     21  N   UNL     1     127.763 -15.804 161.549  1.00  0.00    -0.329 N 
ATOM     22  C   UNL     1     127.232 -18.066 161.519  1.00  0.00     0.024 C 
ATOM     23  C   UNL     1     127.885 -16.969 160.697  1.00  0.00     0.120 C 
BRANCH  21  24
ATOM     24  C   UNL     1     127.724 -14.476 161.176  1.00  0.00     0.240 C 
ATOM     25  O   UNL     1     128.589 -14.010 160.432  1.00  0.00    -0.273 OA
BRANCH  24  26
ATOM     26  C   UNL     1     126.573 -13.600 161.739  1.00  0.00     0.145 C 
BRANCH  26  27
ATOM     27  N   UNL     1     126.130 -12.629 160.710  1.00  0.00    -0.320 NA
ATOM     28  H   UNL     1     125.455 -13.092 160.098  1.00  0.00     0.119 HD
ATOM     29  H   UNL     1     126.927 -12.382 160.122  1.00  0.00     0.119 HD
ENDBRANCH  26  27
BRANCH  26  30
ATOM     30  C   UNL     1     127.037 -12.892 163.030  1.00  0.00     0.064 C 
BRANCH  30  31
ATOM     31  C   UNL     1     126.005 -12.909 164.136  1.00  0.00    -0.046 A 
ATOM     32  C   UNL     1     125.209 -14.043 164.346  1.00  0.00     0.004 A 
ATOM     33  C   UNL     1     125.840 -11.800 164.977  1.00  0.00     0.004 A 
ATOM     34  C   UNL     1     124.280 -14.073 165.387  1.00  0.00     0.000 A 
ATOM     35  C   UNL     1     124.906 -11.831 166.011  1.00  0.00     0.000 A 
ATOM     36  C   UNL     1     124.130 -12.968 166.219  1.00  0.00     0.000 A 
ENDBRANCH  30  31
ENDBRANCH  26  30
ENDBRANCH  24  26
ENDBRANCH  21  24
ENDBRANCH   2  19
TORSDOF 12
ENDMDL
