MODEL 8
REMARK VINA RESULT:    -6.784      2.576      7.056
REMARK INTER + INTRA:         -13.435
REMARK INTER:                 -11.715
REMARK INTRA:                  -1.720
REMARK UNBOUND:                -2.090
REMARK SMILES NC(N)=NCCC[C@@H](CCl)NC(=O)[C@@H]1CCCN1C(=O)[C@H](N)Cc1ccccc1
REMARK SMILES IDX 11 1 12 2 13 3 8 5 7 6 6 7 5 8 4 9 1 10 2 11 3 12 9 17 10 18
REMARK SMILES IDX 14 19 15 20 18 21 16 22 17 23 19 24 20 25 21 26 22 27 23 30
REMARK SMILES IDX 24 31 25 32 29 33 26 34 28 35 27 36
REMARK H PARENT 11 4 1 13 1 14 3 15 3 16 22 28 22 29
ROOT
ATOM      1  N   UNL     1     129.246 -18.439 165.234  1.00  0.00    -0.350 N 
ATOM      2  C   UNL     1     129.195 -18.122 163.889  1.00  0.00     0.243 C 
ATOM      3  O   UNL     1     130.168 -18.207 163.144  1.00  0.00    -0.273 OA
ATOM      4  H   UNL     1     128.467 -18.166 165.812  1.00  0.00     0.163 HD
ENDROOT
BRANCH   1   5
ATOM      5  C   UNL     1     130.514 -18.742 165.899  1.00  0.00     0.097 C 
BRANCH   5   6
ATOM      6  C   UNL     1     130.691 -17.912 167.186  1.00  0.00     0.028 C 
BRANCH   6   7
ATOM      7  C   UNL     1     131.516 -16.620 167.105  1.00  0.00     0.026 C 
BRANCH   7   8
ATOM      8  C   UNL     1     132.432 -16.468 165.895  1.00  0.00     0.146 C 
BRANCH   8   9
ATOM      9  N   UNL     1     131.837 -15.520 164.967  1.00  0.00    -0.254 NA
ATOM     10  N   UNL     1     131.584 -14.705 162.862  1.00  0.00    -0.370 N 
ATOM     11  C   UNL     1     132.114 -15.602 163.721  1.00  0.00     0.185 C 
ATOM     12  N   UNL     1     132.896 -16.477 163.058  1.00  0.00    -0.370 N 
ATOM     13  H   UNL     1     131.162 -13.943 163.380  1.00  0.00     0.159 HD
ATOM     14  H   UNL     1     132.273 -14.346 162.214  1.00  0.00     0.159 HD
ATOM     15  H   UNL     1     133.172 -17.290 163.590  1.00  0.00     0.159 HD
ATOM     16  H   UNL     1     132.490 -16.743 162.166  1.00  0.00     0.159 HD
ENDBRANCH   8   9
ENDBRANCH   7   8
ENDBRANCH   6   7
ENDBRANCH   5   6
BRANCH   5  17
ATOM     17  C   UNL     1     130.708 -20.249 166.124  1.00  0.00     0.134 C 
ATOM     18  Cl  UNL     1     130.244 -20.719 167.787  1.00  0.00    -0.124 Cl
ENDBRANCH   5  17
ENDBRANCH   1   5
BRANCH   2  19
ATOM     19  C   UNL     1     127.781 -17.724 163.411  1.00  0.00     0.174 C 
ATOM     20  C   UNL     1     127.210 -18.837 162.523  1.00  0.00     0.037 C 
ATOM     21  N   UNL     1     127.807 -16.542 162.560  1.00  0.00    -0.329 N 
ATOM     22  C   UNL     1     126.584 -18.099 161.344  1.00  0.00     0.024 C 
ATOM     23  C   UNL     1     127.456 -16.865 161.192  1.00  0.00     0.120 C 
BRANCH  21  24
ATOM     24  C   UNL     1     128.151 -15.312 163.083  1.00  0.00     0.240 C 
ATOM     25  O   UNL     1     128.524 -15.212 164.254  1.00  0.00    -0.273 OA
BRANCH  24  26
ATOM     26  C   UNL     1     128.029 -14.073 162.157  1.00  0.00     0.145 C 
BRANCH  26  27
ATOM     27  N   UNL     1     128.884 -12.975 162.670  1.00  0.00    -0.320 NA
ATOM     28  H   UNL     1     128.637 -12.116 162.177  1.00  0.00     0.119 HD
ATOM     29  H   UNL     1     129.856 -13.173 162.432  1.00  0.00     0.119 HD
ENDBRANCH  26  27
BRANCH  26  30
ATOM     30  C   UNL     1     126.550 -13.642 162.048  1.00  0.00     0.064 C 
BRANCH  30  31
ATOM     31  C   UNL     1     125.901 -13.360 163.385  1.00  0.00    -0.046 A 
ATOM     32  C   UNL     1     126.135 -12.146 164.045  1.00  0.00     0.004 A 
ATOM     33  C   UNL     1     125.044 -14.298 163.975  1.00  0.00     0.004 A 
ATOM     34  C   UNL     1     125.510 -11.870 165.262  1.00  0.00     0.000 A 
ATOM     35  C   UNL     1     124.427 -14.022 165.195  1.00  0.00     0.000 A 
ATOM     36  C   UNL     1     124.656 -12.807 165.836  1.00  0.00     0.000 A 
ENDBRANCH  30  31
ENDBRANCH  26  30
ENDBRANCH  24  26
ENDBRANCH  21  24
ENDBRANCH   2  19
TORSDOF 12
ENDMDL
