MODEL 2
REMARK VINA RESULT:    -9.993      3.928      8.281
REMARK INTER + INTRA:         -19.594
REMARK INTER:                 -18.045
REMARK INTRA:                  -1.549
REMARK UNBOUND:                -1.714
REMARK SMILES O=C(CCCCCCn1cc(-c2ccc3ncnc(Nc4ccc(OCc5cccc(F)c5)c(Cl)c4)c3c2)nn1)NO
REMARK SMILES IDX 8 1 7 2 6 3 5 4 4 5 3 6 2 7 1 8 41 9 42 11 9 13 40 14 10 15
REMARK SMILES IDX 39 16 11 17 12 18 38 19 13 20 37 21 14 22 15 23 19 24 16 25
REMARK SMILES IDX 18 26 17 27 20 28 21 30 36 31 22 32 34 33 23 34 24 35 35 36
REMARK SMILES IDX 25 37 26 38 27 39 33 40 28 41 31 42 29 43 30 44 32 45
REMARK H PARENT 41 10 42 12 20 29
ROOT
ATOM      1  C   UNL     1      12.006   1.525  31.689  1.00  0.00     0.146 C 
ENDROOT
BRANCH   1   2
ATOM      2  C   UNL     1      10.669   0.765  31.832  1.00  0.00     0.024 C 
BRANCH   2   3
ATOM      3  C   UNL     1       9.454   1.661  32.148  1.00  0.00     0.002 C 
BRANCH   3   4
ATOM      4  C   UNL     1       8.127   1.071  31.638  1.00  0.00     0.001 C 
BRANCH   4   5
ATOM      5  C   UNL     1       7.631  -0.114  32.493  1.00  0.00     0.010 C 
BRANCH   5   6
ATOM      6  C   UNL     1       7.202  -1.356  31.679  1.00  0.00     0.102 C 
BRANCH   6   7
ATOM      7  C   UNL     1       8.361  -2.190  31.106  1.00  0.00     0.243 C 
ATOM      8  O   UNL     1       8.527  -2.265  29.887  1.00  0.00    -0.273 OA
ATOM      9  N   UNL     1       9.142  -2.811  32.007  1.00  0.00    -0.238 N 
ATOM     10  H   UNL     1       9.180  -2.604  32.995  1.00  0.00     0.198 HD
BRANCH   9  11
ATOM     11  O   UNL     1      10.303  -3.435  31.540  1.00  0.00    -0.289 OA
ATOM     12  H   UNL     1      10.788  -3.623  32.348  1.00  0.00     0.246 HD
ENDBRANCH   9  11
ENDBRANCH   6   7
ENDBRANCH   5   6
ENDBRANCH   4   5
ENDBRANCH   3   4
ENDBRANCH   2   3
ENDBRANCH   1   2
BRANCH   1  13
ATOM     13  N   UNL     1      12.605   1.321  30.373  1.00  0.00    -0.252 N 
ATOM     14  N   UNL     1      12.080   0.448  29.509  1.00  0.00    -0.067 NA
ATOM     15  C   UNL     1      13.731   1.900  29.851  1.00  0.00     0.139 A 
ATOM     16  N   UNL     1      12.890   0.475  28.388  1.00  0.00    -0.130 NA
ATOM     17  C   UNL     1      13.881   1.333  28.587  1.00  0.00     0.113 A 
BRANCH  17  18
ATOM     18  C   UNL     1      14.953   1.587  27.572  1.00  0.00     0.005 A 
ATOM     19  C   UNL     1      15.016   2.833  26.939  1.00  0.00     0.024 A 
ATOM     20  C   UNL     1      15.894   0.606  27.247  1.00  0.00     0.013 A 
ATOM     21  C   UNL     1      16.021   3.113  25.973  1.00  0.00     0.044 A 
ATOM     22  C   UNL     1      16.891   0.842  26.304  1.00  0.00     0.030 A 
ATOM     23  C   UNL     1      16.972   2.094  25.653  1.00  0.00     0.076 A 
ATOM     24  C   UNL     1      16.169   4.354  25.278  1.00  0.00     0.141 A 
ATOM     25  N   UNL     1      17.957   2.296  24.734  1.00  0.00    -0.236 NA
ATOM     26  N   UNL     1      17.148   4.547  24.359  1.00  0.00    -0.219 NA
ATOM     27  C   UNL     1      17.989   3.511  24.136  1.00  0.00     0.224 A 
BRANCH  24  28
ATOM     28  N   UNL     1      15.263   5.405  25.526  1.00  0.00    -0.340 N 
ATOM     29  H   UNL     1      15.666   6.155  26.069  1.00  0.00     0.168 HD
BRANCH  28  30
ATOM     30  C   UNL     1      13.924   5.639  25.168  1.00  0.00     0.041 A 
ATOM     31  C   UNL     1      13.688   6.419  24.033  1.00  0.00     0.050 A 
ATOM     32  C   UNL     1      12.829   5.108  25.861  1.00  0.00     0.030 A 
ATOM     33  C   UNL     1      12.388   6.681  23.603  1.00  0.00     0.085 A 
ATOM     34  C   UNL     1      11.527   5.369  25.433  1.00  0.00     0.050 A 
ATOM     35  C   UNL     1      11.288   6.160  24.297  1.00  0.00     0.138 A 
ATOM     36  Cl  UNL     1      12.156   7.658  22.194  1.00  0.00    -0.080 Cl
BRANCH  35  37
ATOM     37  O   UNL     1      10.027   6.457  23.813  1.00  0.00    -0.487 OA
BRANCH  37  38
ATOM     38  C   UNL     1       9.119   7.202  24.622  1.00  0.00     0.265 C 
BRANCH  38  39
ATOM     39  C   UNL     1       8.311   8.151  23.750  1.00  0.00    -0.008 A 
ATOM     40  C   UNL     1       6.934   7.961  23.579  1.00  0.00     0.046 A 
ATOM     41  C   UNL     1       8.936   9.236  23.124  1.00  0.00     0.007 A 
ATOM     42  C   UNL     1       6.195   8.838  22.784  1.00  0.00     0.123 A 
ATOM     43  C   UNL     1       8.196  10.112  22.330  1.00  0.00     0.003 A 
ATOM     44  C   UNL     1       6.826   9.913  22.159  1.00  0.00     0.039 A 
ATOM     45  F   UNL     1       4.866   8.648  22.622  1.00  0.00    -0.207 F 
ENDBRANCH  38  39
ENDBRANCH  37  38
ENDBRANCH  35  37
ENDBRANCH  28  30
ENDBRANCH  24  28
ENDBRANCH  17  18
ENDBRANCH   1  13
TORSDOF 14
ENDMDL
