MODEL 3
REMARK minimizedAffinity -7.42206144
REMARK CNNscore 0.816710293
REMARK CNNaffinity 6.59680796
REMARK SMILES CCOC(=O)c1cn2ncnc(NCc3ccccc3)c2c1CC
REMARK SMILES IDX 6 1 7 2 8 3 9 4 10 5 11 6 12 7 21 8 22 9 4 10 5 11 3 12 2 13
REMARK SMILES IDX 1 14 23 15 24 16 13 17 14 19 15 20 20 21 16 22 19 23 17 24
REMARK SMILES IDX 18 25
REMARK H PARENT 13 18
ROOT
ATOM      1  C   UNL     1      13.952   1.703  27.937  1.00  0.00     0.083 A 
ATOM      2  C   UNL     1      14.566   0.456  28.090  1.00  0.00     0.129 A 
ATOM      3  N   UNL     1      15.675   0.395  27.293  1.00  0.00    -0.235 N 
ATOM      4  N   UNL     1      16.509  -0.658  27.208  1.00  0.00    -0.156 NA
ATOM      5  C   UNL     1      17.537  -0.454  26.353  1.00  0.00     0.247 A 
ATOM      6  N   UNL     1      17.782   0.656  25.620  1.00  0.00    -0.215 NA
ATOM      7  C   UNL     1      16.908   1.695  25.739  1.00  0.00     0.154 A 
ATOM      8  C   UNL     1      15.786   1.617  26.597  1.00  0.00     0.111 A 
ATOM      9  C   UNL     1      14.683   2.445  26.985  1.00  0.00    -0.003 A 
ENDROOT
BRANCH   1  10
ATOM     10  C   UNL     1      12.752   2.145  28.666  1.00  0.00     0.340 C 
ATOM     11  O   UNL     1      11.602   1.823  28.362  1.00  0.00    -0.246 OA
BRANCH  10  12
ATOM     12  O   UNL     1      13.075   2.961  29.701  1.00  0.00    -0.462 OA
BRANCH  12  13
ATOM     13  C   UNL     1      13.763   2.459  30.839  1.00  0.00     0.230 C 
ATOM     14  C   UNL     1      12.770   1.738  31.755  1.00  0.00     0.049 C 
ENDBRANCH  12  13
ENDBRANCH  10  12
ENDBRANCH   1  10
BRANCH   9  15
ATOM     15  C   UNL     1      14.419   3.848  26.454  1.00  0.00     0.035 C 
ATOM     16  C   UNL     1      13.122   3.921  25.638  1.00  0.00     0.009 C 
ENDBRANCH   9  15
BRANCH   7  17
ATOM     17  N   UNL     1      17.134   2.873  25.005  1.00  0.00    -0.364 N 
ATOM     18  H   UNL     1      17.013   3.759  25.474  1.00  0.00     0.162 HD
BRANCH  17  19
ATOM     19  C   UNL     1      17.315   2.885  23.555  1.00  0.00     0.150 C 
BRANCH  19  20
ATOM     20  C   UNL     1      18.293   3.971  23.122  1.00  0.00    -0.029 A 
ATOM     21  C   UNL     1      18.725   4.030  21.794  1.00  0.00     0.005 A 
ATOM     22  C   UNL     1      18.754   4.910  24.050  1.00  0.00     0.005 A 
ATOM     23  C   UNL     1      19.621   5.019  21.397  1.00  0.00     0.000 A 
ATOM     24  C   UNL     1      19.649   5.899  23.652  1.00  0.00     0.000 A 
ATOM     25  C   UNL     1      20.079   5.949  22.328  1.00  0.00     0.000 A 
ENDBRANCH  19  20
ENDBRANCH  17  19
ENDBRANCH   7  17
TORSDOF 7
ENDMDL
