MODEL 5
REMARK VINA RESULT:    -9.252      1.686      2.668
REMARK INTER + INTRA:         -16.772
REMARK INTER:                 -15.030
REMARK INTRA:                  -1.742
REMARK UNBOUND:                -1.841
REMARK SMILES CC(C)(O)CC(=O)NCCn1ccc2ncnc(Nc3ccc(Oc4cccc(C(F)(F)F)c4)c(Cl)c3)c21
REMARK SMILES IDX 11 1 12 2 13 3 14 4 15 5 16 6 17 7 18 8 38 9 10 10 9 11 8 12
REMARK SMILES IDX 6 13 7 14 5 16 2 17 1 18 3 19 4 20 19 22 20 24 37 25 21 26
REMARK SMILES IDX 35 27 22 28 23 29 36 30 24 31 25 32 34 33 26 34 29 35 27 36
REMARK SMILES IDX 28 37 30 38 31 39 32 40 33 41
REMARK H PARENT 8 15 4 21 19 23
ROOT
ATOM      1  N   UNL     1      14.721   4.619  25.756  1.00  0.00    -0.341 N 
ATOM      2  C   UNL     1      15.637   5.552  25.317  1.00  0.00     0.088 A 
ATOM      3  C   UNL     1      16.904   5.010  25.286  1.00  0.00     0.048 A 
ATOM      4  C   UNL     1      16.769   3.655  25.711  1.00  0.00     0.094 A 
ATOM      5  N   UNL     1      17.694   2.699  25.849  1.00  0.00    -0.235 NA
ATOM      6  C   UNL     1      17.224   1.499  26.272  1.00  0.00     0.225 A 
ATOM      7  N   UNL     1      15.940   1.178  26.559  1.00  0.00    -0.217 NA
ATOM      8  C   UNL     1      14.986   2.137  26.418  1.00  0.00     0.158 A 
ATOM      9  C   UNL     1      15.386   3.420  25.992  1.00  0.00     0.110 A 
ENDROOT
BRANCH   1  10
ATOM     10  C   UNL     1      13.285   4.862  25.878  1.00  0.00     0.143 C 
BRANCH  10  11
ATOM     11  C   UNL     1      12.895   6.309  25.481  1.00  0.00     0.137 C 
BRANCH  11  12
ATOM     12  N   UNL     1      11.558   6.446  24.908  1.00  0.00    -0.354 N 
ATOM     13  C   UNL     1      11.196   7.414  24.050  1.00  0.00     0.222 C 
ATOM     14  O   UNL     1      11.970   8.293  23.666  1.00  0.00    -0.275 OA
ATOM     15  H   UNL     1      10.870   5.766  25.197  1.00  0.00     0.163 HD
BRANCH  13  16
ATOM     16  C   UNL     1       9.730   7.382  23.573  1.00  0.00     0.134 C 
BRANCH  16  17
ATOM     17  C   UNL     1       8.620   7.689  24.626  1.00  0.00     0.068 C 
ATOM     18  C   UNL     1       7.228   7.468  23.998  1.00  0.00     0.042 C 
ATOM     19  C   UNL     1       8.714   9.120  25.204  1.00  0.00     0.042 C 
BRANCH  17  20
ATOM     20  O   UNL     1       8.708   6.774  25.705  1.00  0.00    -0.390 OA
ATOM     21  H   UNL     1       9.619   6.757  26.012  1.00  0.00     0.211 HD
ENDBRANCH  17  20
ENDBRANCH  16  17
ENDBRANCH  13  16
ENDBRANCH  11  12
ENDBRANCH  10  11
ENDBRANCH   1  10
BRANCH   8  22
ATOM     22  N   UNL     1      13.646   1.839  26.718  1.00  0.00    -0.338 N 
ATOM     23  H   UNL     1      13.145   1.447  25.935  1.00  0.00     0.168 HD
BRANCH  22  24
ATOM     24  C   UNL     1      12.855   1.958  27.875  1.00  0.00     0.041 A 
ATOM     25  C   UNL     1      13.508   1.874  29.108  1.00  0.00     0.050 A 
ATOM     26  C   UNL     1      11.471   2.182  27.855  1.00  0.00     0.030 A 
ATOM     27  C   UNL     1      12.797   1.988  30.303  1.00  0.00     0.085 A 
ATOM     28  C   UNL     1      10.757   2.296  29.048  1.00  0.00     0.051 A 
ATOM     29  C   UNL     1      11.414   2.193  30.275  1.00  0.00     0.146 A 
ATOM     30  Cl  UNL     1      13.641   1.868  31.807  1.00  0.00    -0.080 Cl
BRANCH  29  31
ATOM     31  O   UNL     1      10.699   2.306  31.445  1.00  0.00    -0.456 OA
BRANCH  31  32
ATOM     32  C   UNL     1       9.601   1.502  31.687  1.00  0.00     0.128 A 
ATOM     33  C   UNL     1       9.797   0.121  31.621  1.00  0.00     0.060 A 
ATOM     34  C   UNL     1       8.316   1.991  31.978  1.00  0.00     0.047 A 
ATOM     35  C   UNL     1       8.742  -0.775  31.841  1.00  0.00     0.059 A 
ATOM     36  C   UNL     1       7.260   1.110  32.200  1.00  0.00     0.004 A 
ATOM     37  C   UNL     1       7.470  -0.267  32.134  1.00  0.00     0.013 A 
BRANCH  35  38
ATOM     38  C   UNL     1       8.995  -2.280  31.756  1.00  0.00     0.416 C 
ATOM     39  F   UNL     1       8.146  -2.934  32.549  1.00  0.00    -0.166 F 
ATOM     40  F   UNL     1       8.810  -2.686  30.500  1.00  0.00    -0.166 F 
ATOM     41  F   UNL     1      10.236  -2.606  32.121  1.00  0.00    -0.166 F 
ENDBRANCH  35  38
ENDBRANCH  31  32
ENDBRANCH  29  31
ENDBRANCH  22  24
ENDBRANCH   8  22
TORSDOF 11
ENDMDL
