MODEL 1
REMARK VINA RESULT:   -10.084      0.000      0.000
REMARK INTER + INTRA:         -15.955
REMARK INTER:                 -15.684
REMARK INTRA:                  -0.271
REMARK UNBOUND:                -0.271
REMARK SMILES Cc1sc(-c2ccc(OC(F)(F)F)cc2)nc1CCOc1ccc2c(c1)CC[C@H]2CC(=O)O
REMARK SMILES IDX 19 1 18 2 17 3 2 4 3 5 4 6 16 7 1 8 5 9 6 10 15 11 7 12
REMARK SMILES IDX 14 13 8 14 9 15 10 16 11 17 12 18 13 19 20 20 21 21 22 22
REMARK SMILES IDX 26 23 23 24 25 25 24 26 27 27 29 28 28 29 30 30 31 31 32 32
REMARK SMILES IDX 33 33
REMARK H PARENT 33 34
ROOT
ATOM      1  C   UNL     1       7.084   9.866  -5.605  1.00  0.00     0.236 C 
ENDROOT
BRANCH   1   2
ATOM      2  C   UNL     1       8.264  10.612  -4.982  1.00  0.00     0.099 C 
BRANCH   2   3
ATOM      3  C   UNL     1       9.338  10.927  -5.977  1.00  0.00     0.058 A 
ATOM      4  C   UNL     1      10.439  11.747  -5.805  1.00  0.00     0.025 A 
ATOM      5  S   UNL     1      11.366  11.773  -7.245  1.00  0.00    -0.119 S 
ATOM      6  C   UNL     1      10.238  10.721  -8.008  1.00  0.00     0.123 A 
ATOM      7  N   UNL     1       9.241  10.344  -7.231  1.00  0.00    -0.241 NA
ATOM      8  C   UNL     1      10.877  12.518  -4.611  1.00  0.00     0.058 C 
BRANCH   6   9
ATOM      9  C   UNL     1      10.409  10.268  -9.403  1.00  0.00     0.011 A 
ATOM     10  C   UNL     1      10.922  11.168 -10.350  1.00  0.00     0.015 A 
ATOM     11  C   UNL     1      10.106   8.971  -9.838  1.00  0.00     0.015 A 
ATOM     12  C   UNL     1      11.116  10.786 -11.680  1.00  0.00     0.047 A 
ATOM     13  C   UNL     1      10.304   8.585 -11.174  1.00  0.00     0.047 A 
ATOM     14  C   UNL     1      10.813   9.491 -12.102  1.00  0.00     0.129 A 
BRANCH  14  15
ATOM     15  O   UNL     1      11.058   9.252 -13.423  1.00  0.00    -0.406 OA
BRANCH  15  16
ATOM     16  C   UNL     1      10.849  10.314 -14.336  1.00  0.00     0.573 C 
ATOM     17  F   UNL     1      11.601  11.388 -14.013  1.00  0.00    -0.132 F 
ATOM     18  F   UNL     1      11.213   9.902 -15.571  1.00  0.00    -0.132 F 
ATOM     19  F   UNL     1       9.548  10.673 -14.382  1.00  0.00    -0.132 F 
ENDBRANCH  15  16
ENDBRANCH  14  15
ENDBRANCH   6   9
ENDBRANCH   2   3
ENDBRANCH   1   2
BRANCH   1  20
ATOM     20  O   UNL     1       5.842  10.230  -4.996  1.00  0.00    -0.493 OA
BRANCH  20  21
ATOM     21  C   UNL     1       5.286   9.386  -4.072  1.00  0.00     0.119 A 
ATOM     22  C   UNL     1       5.492   9.425  -2.685  1.00  0.00     0.047 A 
ATOM     23  C   UNL     1       4.454   8.405  -4.620  1.00  0.00     0.050 A 
ATOM     24  C   UNL     1       4.872   8.496  -1.839  1.00  0.00     0.008 A 
ATOM     25  C   UNL     1       3.851   7.483  -3.778  1.00  0.00    -0.041 A 
ATOM     26  C   UNL     1       4.061   7.523  -2.396  1.00  0.00    -0.041 A 
ATOM     27  C   UNL     1       2.897   6.394  -4.150  1.00  0.00     0.036 C 
ATOM     28  C   UNL     1       3.258   6.448  -1.707  1.00  0.00     0.031 C 
ATOM     29  C   UNL     1       2.966   5.506  -2.900  1.00  0.00     0.014 C 
BRANCH  28  30
ATOM     30  C   UNL     1       3.990   5.746  -0.565  1.00  0.00     0.131 C 
BRANCH  30  31
ATOM     31  C   UNL     1       4.992   4.747  -1.072  1.00  0.00     0.303 C 
ATOM     32  O   UNL     1       6.062   4.976  -1.610  1.00  0.00    -0.252 OA
BRANCH  31  33
ATOM     33  O   UNL     1       4.569   3.479  -0.903  1.00  0.00    -0.481 OA
ATOM     34  H   UNL     1       4.853   3.019  -1.721  1.00  0.00     0.296 HD
ENDBRANCH  31  33
ENDBRANCH  30  31
ENDBRANCH  28  30
ENDBRANCH  20  21
ENDBRANCH   1  20
TORSDOF 10
ENDMDL
MODEL 2
REMARK VINA RESULT:    -9.918      2.465      3.130
REMARK INTER + INTRA:         -15.698
REMARK INTER:                 -14.766
REMARK INTRA:                  -0.932
REMARK UNBOUND:                -0.271
REMARK SMILES Cc1sc(-c2ccc(OC(F)(F)F)cc2)nc1CCOc1ccc2c(c1)CC[C@H]2CC(=O)O
REMARK SMILES IDX 19 1 18 2 17 3 2 4 3 5 4 6 16 7 1 8 5 9 6 10 15 11 7 12
REMARK SMILES IDX 14 13 8 14 9 15 10 16 11 17 12 18 13 19 20 20 21 21 22 22
REMARK SMILES IDX 26 23 23 24 25 25 24 26 27 27 29 28 28 29 30 30 31 31 32 32
REMARK SMILES IDX 33 33
REMARK H PARENT 33 34
ROOT
ATOM      1  C   UNL     1       9.698  11.277  -4.153  1.00  0.00     0.236 C 
ENDROOT
BRANCH   1   2
ATOM      2  C   UNL     1      10.762  12.064  -4.919  1.00  0.00     0.099 C 
BRANCH   2   3
ATOM      3  C   UNL     1      10.531  12.057  -6.399  1.00  0.00     0.058 A 
ATOM      4  C   UNL     1      10.227  13.132  -7.215  1.00  0.00     0.025 A 
ATOM      5  S   UNL     1      10.063  12.596  -8.834  1.00  0.00    -0.119 S 
ATOM      6  C   UNL     1      10.377  10.976  -8.346  1.00  0.00     0.123 A 
ATOM      7  N   UNL     1      10.620  10.839  -7.056  1.00  0.00    -0.241 NA
ATOM      8  C   UNL     1      10.066  14.572  -6.876  1.00  0.00     0.058 C 
BRANCH   6   9
ATOM      9  C   UNL     1      10.398   9.858  -9.309  1.00  0.00     0.011 A 
ATOM     10  C   UNL     1      10.656  10.133 -10.660  1.00  0.00     0.015 A 
ATOM     11  C   UNL     1      10.192   8.520  -8.946  1.00  0.00     0.015 A 
ATOM     12  C   UNL     1      10.700   9.109 -11.612  1.00  0.00     0.047 A 
ATOM     13  C   UNL     1      10.239   7.491  -9.900  1.00  0.00     0.047 A 
ATOM     14  C   UNL     1      10.497   7.780 -11.238  1.00  0.00     0.129 A 
BRANCH  14  15
ATOM     15  O   UNL     1      10.575   6.883 -12.265  1.00  0.00    -0.406 OA
BRANCH  15  16
ATOM     16  C   UNL     1      11.747   6.095 -12.365  1.00  0.00     0.573 C 
ATOM     17  F   UNL     1      11.562   4.877 -11.810  1.00  0.00    -0.132 F 
ATOM     18  F   UNL     1      12.040   5.920 -13.673  1.00  0.00    -0.132 F 
ATOM     19  F   UNL     1      12.799   6.703 -11.777  1.00  0.00    -0.132 F 
ENDBRANCH  15  16
ENDBRANCH  14  15
ENDBRANCH   6   9
ENDBRANCH   2   3
ENDBRANCH   1   2
BRANCH   1  20
ATOM     20  O   UNL     1       8.633  10.851  -5.008  1.00  0.00    -0.493 OA
BRANCH  20  21
ATOM     21  C   UNL     1       7.507  10.316  -4.444  1.00  0.00     0.119 A 
ATOM     22  C   UNL     1       7.253  10.178  -3.071  1.00  0.00     0.047 A 
ATOM     23  C   UNL     1       6.559   9.869  -5.370  1.00  0.00     0.050 A 
ATOM     24  C   UNL     1       6.061   9.602  -2.614  1.00  0.00     0.008 A 
ATOM     25  C   UNL     1       5.386   9.291  -4.910  1.00  0.00    -0.041 A 
ATOM     26  C   UNL     1       5.137   9.153  -3.542  1.00  0.00    -0.041 A 
ATOM     27  C   UNL     1       4.232   8.797  -5.723  1.00  0.00     0.036 C 
ATOM     28  C   UNL     1       3.778   8.542  -3.308  1.00  0.00     0.031 C 
ATOM     29  C   UNL     1       3.510   7.913  -4.696  1.00  0.00     0.014 C 
BRANCH  28  30
ATOM     30  C   UNL     1       3.731   7.518  -2.176  1.00  0.00     0.131 C 
BRANCH  30  31
ATOM     31  C   UNL     1       3.317   8.143  -0.873  1.00  0.00     0.303 C 
ATOM     32  O   UNL     1       2.312   8.793  -0.648  1.00  0.00    -0.252 OA
BRANCH  31  33
ATOM     33  O   UNL     1       4.232   7.939   0.096  1.00  0.00    -0.481 OA
ATOM     34  H   UNL     1       4.350   8.823   0.506  1.00  0.00     0.296 HD
ENDBRANCH  31  33
ENDBRANCH  30  31
ENDBRANCH  28  30
ENDBRANCH  20  21
ENDBRANCH   1  20
TORSDOF 10
ENDMDL
MODEL 3
REMARK VINA RESULT:    -9.433      6.224     11.825
REMARK INTER + INTRA:         -14.943
REMARK INTER:                 -13.894
REMARK INTRA:                  -1.049
REMARK UNBOUND:                -0.271
REMARK SMILES Cc1sc(-c2ccc(OC(F)(F)F)cc2)nc1CCOc1ccc2c(c1)CC[C@H]2CC(=O)O
REMARK SMILES IDX 19 1 18 2 17 3 2 4 3 5 4 6 16 7 1 8 5 9 6 10 15 11 7 12
REMARK SMILES IDX 14 13 8 14 9 15 10 16 11 17 12 18 13 19 20 20 21 21 22 22
REMARK SMILES IDX 26 23 23 24 25 25 24 26 27 27 29 28 28 29 30 30 31 31 32 32
REMARK SMILES IDX 33 33
REMARK H PARENT 33 34
ROOT
ATOM      1  C   UNL     1       8.871   5.141  -7.106  1.00  0.00     0.236 C 
ENDROOT
BRANCH   1   2
ATOM      2  C   UNL     1       9.219   3.797  -6.466  1.00  0.00     0.099 C 
BRANCH   2   3
ATOM      3  C   UNL     1       8.922   3.762  -4.999  1.00  0.00     0.058 A 
ATOM      4  C   UNL     1       9.736   3.301  -3.980  1.00  0.00     0.025 A 
ATOM      5  S   UNL     1       8.934   3.482  -2.477  1.00  0.00    -0.119 S 
ATOM      6  C   UNL     1       7.554   4.131  -3.274  1.00  0.00     0.123 A 
ATOM      7  N   UNL     1       7.687   4.238  -4.583  1.00  0.00    -0.241 NA
ATOM      8  C   UNL     1      11.113   2.741  -4.038  1.00  0.00     0.058 C 
BRANCH   6   9
ATOM      9  C   UNL     1       6.348   4.554  -2.534  1.00  0.00     0.011 A 
ATOM     10  C   UNL     1       5.412   5.378  -3.178  1.00  0.00     0.015 A 
ATOM     11  C   UNL     1       6.070   4.160  -1.219  1.00  0.00     0.015 A 
ATOM     12  C   UNL     1       4.248   5.796  -2.527  1.00  0.00     0.047 A 
ATOM     13  C   UNL     1       4.900   4.577  -0.565  1.00  0.00     0.047 A 
ATOM     14  C   UNL     1       3.980   5.394  -1.217  1.00  0.00     0.129 A 
BRANCH  14  15
ATOM     15  O   UNL     1       2.806   5.868  -0.708  1.00  0.00    -0.406 OA
BRANCH  15  16
ATOM     16  C   UNL     1       2.858   7.031   0.100  1.00  0.00     0.573 C 
ATOM     17  F   UNL     1       1.873   7.895  -0.228  1.00  0.00    -0.132 F 
ATOM     18  F   UNL     1       2.686   6.670   1.391  1.00  0.00    -0.132 F 
ATOM     19  F   UNL     1       4.053   7.650  -0.007  1.00  0.00    -0.132 F 
ENDBRANCH  15  16
ENDBRANCH  14  15
ENDBRANCH   6   9
ENDBRANCH   2   3
ENDBRANCH   1   2
BRANCH   1  20
ATOM     20  O   UNL     1      10.031   5.958  -7.290  1.00  0.00    -0.493 OA
BRANCH  20  21
ATOM     21  C   UNL     1      10.137   6.708  -8.430  1.00  0.00     0.119 A 
ATOM     22  C   UNL     1       9.900   8.087  -8.540  1.00  0.00     0.047 A 
ATOM     23  C   UNL     1      10.507   5.978  -9.564  1.00  0.00     0.050 A 
ATOM     24  C   UNL     1      10.032   8.744  -9.770  1.00  0.00     0.008 A 
ATOM     25  C   UNL     1      10.626   6.634 -10.780  1.00  0.00    -0.041 A 
ATOM     26  C   UNL     1      10.387   8.007 -10.886  1.00  0.00    -0.041 A 
ATOM     27  C   UNL     1      11.053   6.055 -12.091  1.00  0.00     0.036 C 
ATOM     28  C   UNL     1      10.632   8.480 -12.297  1.00  0.00     0.031 C 
ATOM     29  C   UNL     1      10.559   7.136 -13.061  1.00  0.00     0.014 C 
BRANCH  28  30
ATOM     30  C   UNL     1       9.619   9.504 -12.805  1.00  0.00     0.131 C 
BRANCH  30  31
ATOM     31  C   UNL     1      10.271  10.816 -13.143  1.00  0.00     0.303 C 
ATOM     32  O   UNL     1      10.373  11.799 -12.431  1.00  0.00    -0.252 OA
BRANCH  31  33
ATOM     33  O   UNL     1      10.743  10.832 -14.406  1.00  0.00    -0.481 OA
ATOM     34  H   UNL     1      11.711  10.705 -14.303  1.00  0.00     0.296 HD
ENDBRANCH  31  33
ENDBRANCH  30  31
ENDBRANCH  28  30
ENDBRANCH  20  21
ENDBRANCH   1  20
TORSDOF 10
ENDMDL
MODEL 4
REMARK VINA RESULT:    -9.204      3.129      4.075
REMARK INTER + INTRA:         -14.587
REMARK INTER:                 -14.425
REMARK INTRA:                  -0.161
REMARK UNBOUND:                -0.271
REMARK SMILES Cc1sc(-c2ccc(OC(F)(F)F)cc2)nc1CCOc1ccc2c(c1)CC[C@H]2CC(=O)O
REMARK SMILES IDX 19 1 18 2 17 3 2 4 3 5 4 6 16 7 1 8 5 9 6 10 15 11 7 12
REMARK SMILES IDX 14 13 8 14 9 15 10 16 11 17 12 18 13 19 20 20 21 21 22 22
REMARK SMILES IDX 26 23 23 24 25 25 24 26 27 27 29 28 28 29 30 30 31 31 32 32
REMARK SMILES IDX 33 33
REMARK H PARENT 33 34
ROOT
ATOM      1  C   UNL     1       6.193   5.358  -6.282  1.00  0.00     0.236 C 
ENDROOT
BRANCH   1   2
ATOM      2  C   UNL     1       7.638   5.403  -5.786  1.00  0.00     0.099 C 
BRANCH   2   3
ATOM      3  C   UNL     1       8.634   5.364  -6.905  1.00  0.00     0.058 A 
ATOM      4  C   UNL     1       9.426   4.300  -7.298  1.00  0.00     0.025 A 
ATOM      5  S   UNL     1      10.393   4.767  -8.632  1.00  0.00    -0.119 S 
ATOM      6  C   UNL     1       9.721   6.350  -8.585  1.00  0.00     0.123 A 
ATOM      7  N   UNL     1       8.806   6.521  -7.650  1.00  0.00    -0.241 NA
ATOM      8  C   UNL     1       9.506   2.918  -6.754  1.00  0.00     0.058 C 
BRANCH   6   9
ATOM      9  C   UNL     1      10.127   7.402  -9.539  1.00  0.00     0.011 A 
ATOM     10  C   UNL     1      10.073   8.743  -9.132  1.00  0.00     0.015 A 
ATOM     11  C   UNL     1      10.588   7.135 -10.835  1.00  0.00     0.015 A 
ATOM     12  C   UNL     1      10.459   9.777  -9.991  1.00  0.00     0.047 A 
ATOM     13  C   UNL     1      10.978   8.171 -11.698  1.00  0.00     0.047 A 
ATOM     14  C   UNL     1      10.919   9.498 -11.279  1.00  0.00     0.129 A 
BRANCH  14  15
ATOM     15  O   UNL     1      11.268  10.599 -12.006  1.00  0.00    -0.406 OA
BRANCH  15  16
ATOM     16  C   UNL     1      10.229  11.357 -12.598  1.00  0.00     0.573 C 
ATOM     17  F   UNL     1      10.585  11.795 -13.825  1.00  0.00    -0.132 F 
ATOM     18  F   UNL     1       9.140  10.568 -12.733  1.00  0.00    -0.132 F 
ATOM     19  F   UNL     1       9.889  12.411 -11.825  1.00  0.00    -0.132 F 
ENDBRANCH  15  16
ENDBRANCH  14  15
ENDBRANCH   6   9
ENDBRANCH   2   3
ENDBRANCH   1   2
BRANCH   1  20
ATOM     20  O   UNL     1       5.443   6.493  -5.840  1.00  0.00    -0.493 OA
BRANCH  20  21
ATOM     21  C   UNL     1       4.648   6.369  -4.733  1.00  0.00     0.119 A 
ATOM     22  C   UNL     1       3.433   7.034  -4.507  1.00  0.00     0.047 A 
ATOM     23  C   UNL     1       5.148   5.494  -3.764  1.00  0.00     0.050 A 
ATOM     24  C   UNL     1       2.711   6.831  -3.323  1.00  0.00     0.008 A 
ATOM     25  C   UNL     1       4.433   5.306  -2.590  1.00  0.00    -0.041 A 
ATOM     26  C   UNL     1       3.225   5.973  -2.367  1.00  0.00    -0.041 A 
ATOM     27  C   UNL     1       4.763   4.388  -1.457  1.00  0.00     0.036 C 
ATOM     28  C   UNL     1       2.628   5.559  -1.045  1.00  0.00     0.031 C 
ATOM     29  C   UNL     1       3.874   4.964  -0.347  1.00  0.00     0.014 C 
BRANCH  28  30
ATOM     30  C   UNL     1       1.994   6.701  -0.252  1.00  0.00     0.131 C 
BRANCH  30  31
ATOM     31  C   UNL     1       2.900   7.898  -0.175  1.00  0.00     0.303 C 
ATOM     32  O   UNL     1       4.118   7.907  -0.152  1.00  0.00    -0.252 OA
BRANCH  31  33
ATOM     33  O   UNL     1       2.205   9.050  -0.094  1.00  0.00    -0.481 OA
ATOM     34  H   UNL     1       2.118   9.345  -1.026  1.00  0.00     0.296 HD
ENDBRANCH  31  33
ENDBRANCH  30  31
ENDBRANCH  28  30
ENDBRANCH  20  21
ENDBRANCH   1  20
TORSDOF 10
ENDMDL
MODEL 5
REMARK VINA RESULT:    -9.092      6.068      7.594
REMARK INTER + INTRA:         -14.412
REMARK INTER:                 -13.464
REMARK INTRA:                  -0.948
REMARK UNBOUND:                -0.271
REMARK SMILES Cc1sc(-c2ccc(OC(F)(F)F)cc2)nc1CCOc1ccc2c(c1)CC[C@H]2CC(=O)O
REMARK SMILES IDX 19 1 18 2 17 3 2 4 3 5 4 6 16 7 1 8 5 9 6 10 15 11 7 12
REMARK SMILES IDX 14 13 8 14 9 15 10 16 11 17 12 18 13 19 20 20 21 21 22 22
REMARK SMILES IDX 26 23 23 24 25 25 24 26 27 27 29 28 28 29 30 30 31 31 32 32
REMARK SMILES IDX 33 33
REMARK H PARENT 33 34
ROOT
ATOM      1  C   UNL     1       8.298   4.830  -6.555  1.00  0.00     0.236 C 
ENDROOT
BRANCH   1   2
ATOM      2  C   UNL     1       9.434   4.397  -7.482  1.00  0.00     0.099 C 
BRANCH   2   3
ATOM      3  C   UNL     1       9.828   5.469  -8.451  1.00  0.00     0.058 A 
ATOM      4  C   UNL     1      10.276   5.313  -9.751  1.00  0.00     0.025 A 
ATOM      5  S   UNL     1      10.591   6.850 -10.438  1.00  0.00    -0.119 S 
ATOM      6  C   UNL     1      10.142   7.618  -8.965  1.00  0.00     0.123 A 
ATOM      7  N   UNL     1       9.750   6.784  -8.020  1.00  0.00    -0.241 NA
ATOM      8  C   UNL     1      10.471   4.074 -10.551  1.00  0.00     0.058 C 
BRANCH   6   9
ATOM      9  C   UNL     1      10.172   9.085  -8.805  1.00  0.00     0.011 A 
ATOM     10  C   UNL     1       9.813   9.640  -7.568  1.00  0.00     0.015 A 
ATOM     11  C   UNL     1      10.561   9.966  -9.823  1.00  0.00     0.015 A 
ATOM     12  C   UNL     1       9.837  11.022  -7.359  1.00  0.00     0.047 A 
ATOM     13  C   UNL     1      10.589  11.354  -9.615  1.00  0.00     0.047 A 
ATOM     14  C   UNL     1      10.230  11.890  -8.380  1.00  0.00     0.129 A 
BRANCH  14  15
ATOM     15  O   UNL     1      10.214  13.211  -8.038  1.00  0.00    -0.406 OA
BRANCH  15  16
ATOM     16  C   UNL     1      11.277  13.699  -7.238  1.00  0.00     0.573 C 
ATOM     17  F   UNL     1      11.632  14.947  -7.612  1.00  0.00    -0.132 F 
ATOM     18  F   UNL     1      10.864  13.747  -5.952  1.00  0.00    -0.132 F 
ATOM     19  F   UNL     1      12.353  12.886  -7.303  1.00  0.00    -0.132 F 
ENDBRANCH  15  16
ENDBRANCH  14  15
ENDBRANCH   6   9
ENDBRANCH   2   3
ENDBRANCH   1   2
BRANCH   1  20
ATOM     20  O   UNL     1       8.027   3.849  -5.550  1.00  0.00    -0.493 OA
BRANCH  20  21
ATOM     21  C   UNL     1       9.079   3.232  -4.928  1.00  0.00     0.119 A 
ATOM     22  C   UNL     1      10.162   3.870  -4.304  1.00  0.00     0.047 A 
ATOM     23  C   UNL     1       9.024   1.836  -4.959  1.00  0.00     0.050 A 
ATOM     24  C   UNL     1      11.189   3.126  -3.708  1.00  0.00     0.008 A 
ATOM     25  C   UNL     1      10.048   1.106  -4.375  1.00  0.00    -0.041 A 
ATOM     26  C   UNL     1      11.127   1.745  -3.757  1.00  0.00    -0.041 A 
ATOM     27  C   UNL     1      10.158  -0.380  -4.256  1.00  0.00     0.036 C 
ATOM     28  C   UNL     1      12.073   0.732  -3.162  1.00  0.00     0.031 C 
ATOM     29  C   UNL     1      11.651  -0.538  -3.940  1.00  0.00     0.014 C 
BRANCH  28  30
ATOM     30  C   UNL     1      13.552   1.068  -3.336  1.00  0.00     0.131 C 
BRANCH  30  31
ATOM     31  C   UNL     1      14.124   1.731  -2.114  1.00  0.00     0.303 C 
ATOM     32  O   UNL     1      14.447   1.201  -1.065  1.00  0.00    -0.252 OA
BRANCH  31  33
ATOM     33  O   UNL     1      14.230   3.066  -2.269  1.00  0.00    -0.481 OA
ATOM     34  H   UNL     1      14.166   3.202  -3.238  1.00  0.00     0.296 HD
ENDBRANCH  31  33
ENDBRANCH  30  31
ENDBRANCH  28  30
ENDBRANCH  20  21
ENDBRANCH   1  20
TORSDOF 10
ENDMDL
MODEL 6
REMARK VINA RESULT:    -9.077      4.839      9.263
REMARK INTER + INTRA:         -14.389
REMARK INTER:                 -13.004
REMARK INTRA:                  -1.385
REMARK UNBOUND:                -0.271
REMARK SMILES Cc1sc(-c2ccc(OC(F)(F)F)cc2)nc1CCOc1ccc2c(c1)CC[C@H]2CC(=O)O
REMARK SMILES IDX 19 1 18 2 17 3 2 4 3 5 4 6 16 7 1 8 5 9 6 10 15 11 7 12
REMARK SMILES IDX 14 13 8 14 9 15 10 16 11 17 12 18 13 19 20 20 21 21 22 22
REMARK SMILES IDX 26 23 23 24 25 25 24 26 27 27 29 28 28 29 30 30 31 31 32 32
REMARK SMILES IDX 33 33
REMARK H PARENT 33 34
ROOT
ATOM      1  C   UNL     1      11.095  11.593  -8.667  1.00  0.00     0.236 C 
ENDROOT
BRANCH   1   2
ATOM      2  C   UNL     1      10.114  12.492  -7.915  1.00  0.00     0.099 C 
BRANCH   2   3
ATOM      3  C   UNL     1       9.587  11.854  -6.667  1.00  0.00     0.058 A 
ATOM      4  C   UNL     1      10.133  11.897  -5.397  1.00  0.00     0.025 A 
ATOM      5  S   UNL     1       9.146  11.007  -4.316  1.00  0.00    -0.119 S 
ATOM      6  C   UNL     1       8.077  10.601  -5.602  1.00  0.00     0.123 A 
ATOM      7  N   UNL     1       8.414  11.120  -6.767  1.00  0.00    -0.241 NA
ATOM      8  C   UNL     1      11.357  12.587  -4.907  1.00  0.00     0.058 C 
BRANCH   6   9
ATOM      9  C   UNL     1       6.877   9.768  -5.390  1.00  0.00     0.011 A 
ATOM     10  C   UNL     1       5.930  10.175  -4.438  1.00  0.00     0.015 A 
ATOM     11  C   UNL     1       6.615   8.592  -6.105  1.00  0.00     0.015 A 
ATOM     12  C   UNL     1       4.769   9.430  -4.208  1.00  0.00     0.047 A 
ATOM     13  C   UNL     1       5.449   7.844  -5.877  1.00  0.00     0.047 A 
ATOM     14  C   UNL     1       4.517   8.261  -4.928  1.00  0.00     0.129 A 
BRANCH  14  15
ATOM     15  O   UNL     1       3.346   7.639  -4.608  1.00  0.00    -0.406 OA
BRANCH  15  16
ATOM     16  C   UNL     1       3.415   6.474  -3.805  1.00  0.00     0.573 C 
ATOM     17  F   UNL     1       3.807   5.405  -4.533  1.00  0.00    -0.132 F 
ATOM     18  F   UNL     1       4.327   6.674  -2.829  1.00  0.00    -0.132 F 
ATOM     19  F   UNL     1       2.227   6.209  -3.221  1.00  0.00    -0.132 F 
ENDBRANCH  15  16
ENDBRANCH  14  15
ENDBRANCH   6   9
ENDBRANCH   2   3
ENDBRANCH   1   2
BRANCH   1  20
ATOM     20  O   UNL     1      10.538  11.105  -9.891  1.00  0.00    -0.493 OA
BRANCH  20  21
ATOM     21  C   UNL     1      10.486   9.754 -10.102  1.00  0.00     0.119 A 
ATOM     22  C   UNL     1      10.120   8.782  -9.157  1.00  0.00     0.047 A 
ATOM     23  C   UNL     1      10.853   9.360 -11.392  1.00  0.00     0.050 A 
ATOM     24  C   UNL     1      10.115   7.421  -9.491  1.00  0.00     0.008 A 
ATOM     25  C   UNL     1      10.855   8.011 -11.711  1.00  0.00    -0.041 A 
ATOM     26  C   UNL     1      10.493   7.045 -10.768  1.00  0.00    -0.041 A 
ATOM     27  C   UNL     1      11.165   7.386 -13.034  1.00  0.00     0.036 C 
ATOM     28  C   UNL     1      10.530   5.666 -11.378  1.00  0.00     0.031 C 
ATOM     29  C   UNL     1      11.420   5.931 -12.617  1.00  0.00     0.014 C 
BRANCH  28  30
ATOM     30  C   UNL     1      11.099   4.584 -10.462  1.00  0.00     0.131 C 
BRANCH  30  31
ATOM     31  C   UNL     1      10.033   3.638  -9.985  1.00  0.00     0.303 C 
ATOM     32  O   UNL     1       9.513   2.730 -10.610  1.00  0.00    -0.252 OA
BRANCH  31  33
ATOM     33  O   UNL     1       9.644   3.912  -8.724  1.00  0.00    -0.481 OA
ATOM     34  H   UNL     1      10.033   4.794  -8.539  1.00  0.00     0.296 HD
ENDBRANCH  31  33
ENDBRANCH  30  31
ENDBRANCH  28  30
ENDBRANCH  20  21
ENDBRANCH   1  20
TORSDOF 10
ENDMDL
MODEL 7
REMARK VINA RESULT:    -9.064      3.786      5.603
REMARK INTER + INTRA:         -14.369
REMARK INTER:                 -13.117
REMARK INTRA:                  -1.252
REMARK UNBOUND:                -0.271
REMARK SMILES Cc1sc(-c2ccc(OC(F)(F)F)cc2)nc1CCOc1ccc2c(c1)CC[C@H]2CC(=O)O
REMARK SMILES IDX 19 1 18 2 17 3 2 4 3 5 4 6 16 7 1 8 5 9 6 10 15 11 7 12
REMARK SMILES IDX 14 13 8 14 9 15 10 16 11 17 12 18 13 19 20 20 21 21 22 22
REMARK SMILES IDX 26 23 23 24 25 25 24 26 27 27 29 28 28 29 30 30 31 31 32 32
REMARK SMILES IDX 33 33
REMARK H PARENT 33 34
ROOT
ATOM      1  C   UNL     1       8.751   4.545  -6.389  1.00  0.00     0.236 C 
ENDROOT
BRANCH   1   2
ATOM      2  C   UNL     1       9.532   3.989  -7.580  1.00  0.00     0.099 C 
BRANCH   2   3
ATOM      3  C   UNL     1       9.893   5.046  -8.578  1.00  0.00     0.058 A 
ATOM      4  C   UNL     1      10.319   4.871  -9.882  1.00  0.00     0.025 A 
ATOM      5  S   UNL     1      10.600   6.398 -10.605  1.00  0.00    -0.119 S 
ATOM      6  C   UNL     1      10.167   7.189  -9.139  1.00  0.00     0.123 A 
ATOM      7  N   UNL     1       9.804   6.369  -8.171  1.00  0.00    -0.241 NA
ATOM      8  C   UNL     1      10.518   3.619 -10.661  1.00  0.00     0.058 C 
BRANCH   6   9
ATOM      9  C   UNL     1      10.179   8.659  -9.009  1.00  0.00     0.011 A 
ATOM     10  C   UNL     1       9.809   9.234  -7.785  1.00  0.00     0.015 A 
ATOM     11  C   UNL     1      10.563   9.524 -10.043  1.00  0.00     0.015 A 
ATOM     12  C   UNL     1       9.816  10.621  -7.604  1.00  0.00     0.047 A 
ATOM     13  C   UNL     1      10.573  10.917  -9.863  1.00  0.00     0.047 A 
ATOM     14  C   UNL     1      10.202  11.472  -8.640  1.00  0.00     0.129 A 
BRANCH  14  15
ATOM     15  O   UNL     1      10.170  12.800  -8.325  1.00  0.00    -0.406 OA
BRANCH  15  16
ATOM     16  C   UNL     1      11.124  13.282  -7.395  1.00  0.00     0.573 C 
ATOM     17  F   UNL     1      12.282  12.593  -7.486  1.00  0.00    -0.132 F 
ATOM     18  F   UNL     1      11.383  14.579  -7.673  1.00  0.00    -0.132 F 
ATOM     19  F   UNL     1      10.655  13.210  -6.131  1.00  0.00    -0.132 F 
ENDBRANCH  15  16
ENDBRANCH  14  15
ENDBRANCH   6   9
ENDBRANCH   2   3
ENDBRANCH   1   2
BRANCH   1  20
ATOM     20  O   UNL     1       7.352   4.647  -6.671  1.00  0.00    -0.493 OA
BRANCH  20  21
ATOM     21  C   UNL     1       6.688   5.791  -6.320  1.00  0.00     0.119 A 
ATOM     22  C   UNL     1       7.065   7.102  -6.650  1.00  0.00     0.047 A 
ATOM     23  C   UNL     1       5.542   5.574  -5.550  1.00  0.00     0.050 A 
ATOM     24  C   UNL     1       6.305   8.198  -6.222  1.00  0.00     0.008 A 
ATOM     25  C   UNL     1       4.800   6.665  -5.121  1.00  0.00    -0.041 A 
ATOM     26  C   UNL     1       5.180   7.970  -5.450  1.00  0.00    -0.041 A 
ATOM     27  C   UNL     1       3.527   6.652  -4.337  1.00  0.00     0.036 C 
ATOM     28  C   UNL     1       4.184   8.964  -4.907  1.00  0.00     0.031 C 
ATOM     29  C   UNL     1       3.482   8.100  -3.831  1.00  0.00     0.014 C 
BRANCH  28  30
ATOM     30  C   UNL     1       4.809  10.233  -4.330  1.00  0.00     0.131 C 
BRANCH  30  31
ATOM     31  C   UNL     1       5.922   9.923  -3.369  1.00  0.00     0.303 C 
ATOM     32  O   UNL     1       5.835   9.372  -2.285  1.00  0.00    -0.252 OA
BRANCH  31  33
ATOM     33  O   UNL     1       7.114  10.363  -3.820  1.00  0.00    -0.481 OA
ATOM     34  H   UNL     1       7.013  11.339  -3.851  1.00  0.00     0.296 HD
ENDBRANCH  31  33
ENDBRANCH  30  31
ENDBRANCH  28  30
ENDBRANCH  20  21
ENDBRANCH   1  20
TORSDOF 10
ENDMDL
MODEL 8
REMARK VINA RESULT:    -8.892      5.802      7.132
REMARK INTER + INTRA:         -14.101
REMARK INTER:                 -13.469
REMARK INTRA:                  -0.632
REMARK UNBOUND:                -0.271
REMARK SMILES Cc1sc(-c2ccc(OC(F)(F)F)cc2)nc1CCOc1ccc2c(c1)CC[C@H]2CC(=O)O
REMARK SMILES IDX 19 1 18 2 17 3 2 4 3 5 4 6 16 7 1 8 5 9 6 10 15 11 7 12
REMARK SMILES IDX 14 13 8 14 9 15 10 16 11 17 12 18 13 19 20 20 21 21 22 22
REMARK SMILES IDX 26 23 23 24 25 25 24 26 27 27 29 28 28 29 30 30 31 31 32 32
REMARK SMILES IDX 33 33
REMARK H PARENT 33 34
ROOT
ATOM      1  C   UNL     1       8.188   4.541  -6.534  1.00  0.00     0.236 C 
ENDROOT
BRANCH   1   2
ATOM      2  C   UNL     1       9.667   4.670  -6.902  1.00  0.00     0.099 C 
BRANCH   2   3
ATOM      3  C   UNL     1       9.881   4.866  -8.371  1.00  0.00     0.058 A 
ATOM      4  C   UNL     1       9.813   3.913  -9.373  1.00  0.00     0.025 A 
ATOM      5  S   UNL     1      10.135   4.647 -10.887  1.00  0.00    -0.119 S 
ATOM      6  C   UNL     1      10.369   6.168 -10.117  1.00  0.00     0.123 A 
ATOM      7  N   UNL     1      10.191   6.145  -8.810  1.00  0.00    -0.241 NA
ATOM      8  C   UNL     1       9.497   2.462  -9.289  1.00  0.00     0.058 C 
BRANCH   6   9
ATOM      9  C   UNL     1      10.710   7.386 -10.878  1.00  0.00     0.011 A 
ATOM     10  C   UNL     1      10.221   8.623 -10.432  1.00  0.00     0.015 A 
ATOM     11  C   UNL     1      11.521   7.383 -12.021  1.00  0.00     0.015 A 
ATOM     12  C   UNL     1      10.526   9.808 -11.108  1.00  0.00     0.047 A 
ATOM     13  C   UNL     1      11.829   8.573 -12.699  1.00  0.00     0.047 A 
ATOM     14  C   UNL     1      11.336   9.793 -12.244  1.00  0.00     0.129 A 
BRANCH  14  15
ATOM     15  O   UNL     1      11.558  11.020 -12.799  1.00  0.00    -0.406 OA
BRANCH  15  16
ATOM     16  C   UNL     1      10.809  11.371 -13.949  1.00  0.00     0.573 C 
ATOM     17  F   UNL     1      11.244  10.698 -15.036  1.00  0.00    -0.132 F 
ATOM     18  F   UNL     1       9.515  11.039 -13.740  1.00  0.00    -0.132 F 
ATOM     19  F   UNL     1      10.868  12.698 -14.187  1.00  0.00    -0.132 F 
ENDBRANCH  15  16
ENDBRANCH  14  15
ENDBRANCH   6   9
ENDBRANCH   2   3
ENDBRANCH   1   2
BRANCH   1  20
ATOM     20  O   UNL     1       8.001   3.765  -5.347  1.00  0.00    -0.493 OA
BRANCH  20  21
ATOM     21  C   UNL     1       9.089   3.172  -4.767  1.00  0.00     0.119 A 
ATOM     22  C   UNL     1      10.143   3.831  -4.115  1.00  0.00     0.047 A 
ATOM     23  C   UNL     1       9.107   1.778  -4.874  1.00  0.00     0.050 A 
ATOM     24  C   UNL     1      11.212   3.111  -3.567  1.00  0.00     0.008 A 
ATOM     25  C   UNL     1      10.173   1.073  -4.337  1.00  0.00    -0.041 A 
ATOM     26  C   UNL     1      11.223   1.733  -3.691  1.00  0.00    -0.041 A 
ATOM     27  C   UNL     1      10.361  -0.410  -4.300  1.00  0.00     0.036 C 
ATOM     28  C   UNL     1      12.225   0.740  -3.158  1.00  0.00     0.031 C 
ATOM     29  C   UNL     1      11.864  -0.506  -4.002  1.00  0.00     0.014 C 
BRANCH  28  30
ATOM     30  C   UNL     1      13.684   1.163  -3.323  1.00  0.00     0.131 C 
BRANCH  30  31
ATOM     31  C   UNL     1      14.255   1.713  -2.046  1.00  0.00     0.303 C 
ATOM     32  O   UNL     1      14.436   1.119  -0.998  1.00  0.00    -0.252 OA
BRANCH  31  33
ATOM     33  O   UNL     1      14.546   3.025  -2.149  1.00  0.00    -0.481 OA
ATOM     34  H   UNL     1      14.072   3.314  -2.958  1.00  0.00     0.296 HD
ENDBRANCH  31  33
ENDBRANCH  30  31
ENDBRANCH  28  30
ENDBRANCH  20  21
ENDBRANCH   1  20
TORSDOF 10
ENDMDL
MODEL 9
REMARK VINA RESULT:    -8.791      3.278      4.999
REMARK INTER + INTRA:         -13.945
REMARK INTER:                 -13.313
REMARK INTRA:                  -0.631
REMARK UNBOUND:                -0.271
REMARK SMILES Cc1sc(-c2ccc(OC(F)(F)F)cc2)nc1CCOc1ccc2c(c1)CC[C@H]2CC(=O)O
REMARK SMILES IDX 19 1 18 2 17 3 2 4 3 5 4 6 16 7 1 8 5 9 6 10 15 11 7 12
REMARK SMILES IDX 14 13 8 14 9 15 10 16 11 17 12 18 13 19 20 20 21 21 22 22
REMARK SMILES IDX 26 23 23 24 25 25 24 26 27 27 29 28 28 29 30 30 31 31 32 32
REMARK SMILES IDX 33 33
REMARK H PARENT 33 34
ROOT
ATOM      1  C   UNL     1       8.897   5.023  -6.741  1.00  0.00     0.236 C 
ENDROOT
BRANCH   1   2
ATOM      2  C   UNL     1       9.589   3.918  -7.539  1.00  0.00     0.099 C 
BRANCH   2   3
ATOM      3  C   UNL     1       9.943   4.346  -8.930  1.00  0.00     0.058 A 
ATOM      4  C   UNL     1      10.121   3.546 -10.044  1.00  0.00     0.025 A 
ATOM      5  S   UNL     1      10.514   4.521 -11.396  1.00  0.00    -0.119 S 
ATOM      6  C   UNL     1      10.450   5.933 -10.415  1.00  0.00     0.123 A 
ATOM      7  N   UNL     1      10.126   5.702  -9.157  1.00  0.00    -0.241 NA
ATOM      8  C   UNL     1       9.996   2.070 -10.189  1.00  0.00     0.058 C 
BRANCH   6   9
ATOM      9  C   UNL     1      10.710   7.280 -10.962  1.00  0.00     0.011 A 
ATOM     10  C   UNL     1      11.498   7.402 -12.116  1.00  0.00     0.015 A 
ATOM     11  C   UNL     1      10.192   8.455 -10.402  1.00  0.00     0.015 A 
ATOM     12  C   UNL     1      11.763   8.652 -12.683  1.00  0.00     0.047 A 
ATOM     13  C   UNL     1      10.455   9.711 -10.972  1.00  0.00     0.047 A 
ATOM     14  C   UNL     1      11.240   9.816 -12.118  1.00  0.00     0.129 A 
BRANCH  14  15
ATOM     15  O   UNL     1      11.571  10.965 -12.777  1.00  0.00    -0.406 OA
BRANCH  15  16
ATOM     16  C   UNL     1      10.767  11.350 -13.878  1.00  0.00     0.573 C 
ATOM     17  F   UNL     1      10.817  12.685 -14.073  1.00  0.00    -0.132 F 
ATOM     18  F   UNL     1      11.238  10.745 -14.991  1.00  0.00    -0.132 F 
ATOM     19  F   UNL     1       9.483  10.968 -13.706  1.00  0.00    -0.132 F 
ENDBRANCH  15  16
ENDBRANCH  14  15
ENDBRANCH   6   9
ENDBRANCH   2   3
ENDBRANCH   1   2
BRANCH   1  20
ATOM     20  O   UNL     1       7.648   4.585  -6.199  1.00  0.00    -0.493 OA
BRANCH  20  21
ATOM     21  C   UNL     1       6.661   5.508  -5.982  1.00  0.00     0.119 A 
ATOM     22  C   UNL     1       6.559   6.770  -6.589  1.00  0.00     0.047 A 
ATOM     23  C   UNL     1       5.698   5.110  -5.050  1.00  0.00     0.050 A 
ATOM     24  C   UNL     1       5.502   7.635  -6.276  1.00  0.00     0.008 A 
ATOM     25  C   UNL     1       4.661   5.975  -4.739  1.00  0.00    -0.041 A 
ATOM     26  C   UNL     1       4.563   7.232  -5.342  1.00  0.00    -0.041 A 
ATOM     27  C   UNL     1       3.512   5.728  -3.814  1.00  0.00     0.036 C 
ATOM     28  C   UNL     1       3.326   7.953  -4.870  1.00  0.00     0.031 C 
ATOM     29  C   UNL     1       3.014   7.160  -3.578  1.00  0.00     0.014 C 
BRANCH  28  30
ATOM     30  C   UNL     1       3.523   9.447  -4.614  1.00  0.00     0.131 C 
BRANCH  30  31
ATOM     31  C   UNL     1       4.834   9.730  -3.937  1.00  0.00     0.303 C 
ATOM     32  O   UNL     1       5.217   9.316  -2.856  1.00  0.00    -0.252 OA
BRANCH  31  33
ATOM     33  O   UNL     1       5.602  10.570  -4.659  1.00  0.00    -0.481 OA
ATOM     34  H   UNL     1       5.248  10.496  -5.571  1.00  0.00     0.296 HD
ENDBRANCH  31  33
ENDBRANCH  30  31
ENDBRANCH  28  30
ENDBRANCH  20  21
ENDBRANCH   1  20
TORSDOF 10
ENDMDL
