REMARK VINA RESULT:    -8.184      4.527      7.214
REMARK INTER + INTRA:         -11.432
REMARK INTER:                 -11.147
REMARK INTRA:                  -0.284
REMARK UNBOUND:                 0.101
REMARK SMILES COc1ccc(-c2cc3c(C)nc(N)nc3n([C@H]3CC[C@H](OCCO)CC3)c2=O)cn1
REMARK SMILES IDX 18 1 27 2 26 3 21 4 20 5 19 6 17 7 7 8 8 9 28 10 9 11 29 12
REMARK SMILES IDX 10 13 16 14 12 15 15 16 13 17 11 18 6 19 3 20 4 21 31 22
REMARK SMILES IDX 5 23 30 24 2 25 1 26 14 27 22 30 23 31 24 32 25 33
REMARK H PARENT 14 28 14 29 25 34
ROOT
ATOM      1  C   UNL     1      48.647  -0.866 -46.787  1.00  0.00     0.092 C 
ATOM      2  C   UNL     1      47.305  -0.561 -46.098  1.00  0.00     0.028 C 
ATOM      3  C   UNL     1      47.511  -0.039 -44.677  1.00  0.00     0.034 C 
ATOM      4  C   UNL     1      48.364  -0.992 -43.833  1.00  0.00     0.118 C 
ATOM      5  C   UNL     1      49.702  -1.272 -44.525  1.00  0.00     0.034 C 
ATOM      6  C   UNL     1      49.515  -1.813 -45.938  1.00  0.00     0.028 C 
ENDROOT
BRANCH   1   7
ATOM      7  N   UNL     1      48.470  -1.353 -48.175  1.00  0.00    -0.289 N 
ATOM      8  C   UNL     1      47.445  -2.852 -49.865  1.00  0.00     0.050 A 
ATOM      9  C   UNL     1      48.166  -2.261 -50.829  1.00  0.00     0.028 A 
ATOM     10  C   UNL     1      47.569  -2.379 -48.444  1.00  0.00     0.260 A 
ATOM     11  C   UNL     1      49.092  -1.179 -50.517  1.00  0.00     0.040 A 
ATOM     12  O   UNL     1      46.875  -2.913 -47.580  1.00  0.00    -0.269 OA
ATOM     13  C   UNL     1      49.872  -0.525 -51.463  1.00  0.00     0.052 A 
ATOM     14  C   UNL     1      49.238  -0.739 -49.209  1.00  0.00     0.148 A 
ATOM     15  N   UNL     1      50.720   0.472 -51.136  1.00  0.00    -0.218 NA
ATOM     16  N   UNL     1      50.085   0.258 -48.878  1.00  0.00    -0.195 NA
ATOM     17  C   UNL     1      50.792   0.822 -49.854  1.00  0.00     0.222 A 
ATOM     18  C   UNL     1      49.835  -0.877 -52.923  1.00  0.00     0.067 C 
BRANCH   8  19
ATOM     19  C   UNL     1      46.513  -3.940 -50.224  1.00  0.00     0.006 A 
ATOM     20  C   UNL     1      44.811  -6.020 -50.824  1.00  0.00     0.212 A 
ATOM     21  C   UNL     1      44.564  -4.779 -51.386  1.00  0.00     0.069 A 
ATOM     22  N   UNL     1      45.846  -6.272 -49.995  1.00  0.00    -0.221 NA
ATOM     23  C   UNL     1      45.427  -3.727 -51.081  1.00  0.00     0.016 A 
ATOM     24  C   UNL     1      46.675  -5.233 -49.727  1.00  0.00     0.124 A 
BRANCH  20  25
ATOM     25  O   UNL     1      43.926  -7.027 -51.152  1.00  0.00    -0.481 OA
ATOM     26  C   UNL     1      43.024  -6.657 -52.189  1.00  0.00     0.280 C 
ENDBRANCH  20  25
ENDBRANCH   8  19
BRANCH  17  27
ATOM     27  N   UNL     1      51.647   1.827 -49.520  1.00  0.00    -0.368 N 
ATOM     28  H   UNL     1      51.365   2.772 -49.716  1.00  0.00     0.159 HD
ATOM     29  H   UNL     1      52.525   1.586 -49.096  1.00  0.00     0.159 HD
ENDBRANCH  17  27
ENDBRANCH   1   7
BRANCH   4  30
ATOM     30  O   UNL     1      48.669  -0.416 -42.559  1.00  0.00    -0.376 OA
BRANCH  30  31
ATOM     31  C   UNL     1      49.730  -1.088 -41.868  1.00  0.00     0.188 C 
BRANCH  31  32
ATOM     32  C   UNL     1      49.868  -0.444 -40.491  1.00  0.00     0.184 C 
BRANCH  32  33
ATOM     33  O   UNL     1      51.250  -0.307 -40.161  1.00  0.00    -0.394 OA
ATOM     34  H   UNL     1      51.495  -1.157 -39.743  1.00  0.00     0.210 HD
ENDBRANCH  32  33
ENDBRANCH  31  32
ENDBRANCH  30  31
ENDBRANCH   4  30
TORSDOF 8
