MODEL 6
REMARK minimizedAffinity -6.40337563
REMARK CNNscore 0.269102901
REMARK CNNaffinity 5.7010231
REMARK SMILES COc1cc2ncnc(Nc3cccc(Br)c3)c2cc1OC
REMARK SMILES IDX 3 1 4 2 5 3 6 4 7 5 8 6 9 7 18 8 19 9 20 10 2 11 1 12 21 13
REMARK SMILES IDX 22 14 10 15 11 17 12 18 17 19 13 20 15 21 14 22 16 23
REMARK H PARENT 10 16
ROOT
ATOM      1  C   UNL     1       6.641   2.162  31.976  1.00  0.00     0.162 A 
ATOM      2  C   UNL     1       6.758   0.771  31.884  1.00  0.00     0.079 A 
ATOM      3  C   UNL     1       7.991   0.132  31.884  1.00  0.00     0.080 A 
ATOM      4  N   UNL     1       8.014  -1.199  31.782  1.00  0.00    -0.236 NA
ATOM      5  C   UNL     1       9.217  -1.782  31.778  1.00  0.00     0.224 A 
ATOM      6  N   UNL     1      10.393  -1.160  31.880  1.00  0.00    -0.219 NA
ATOM      7  C   UNL     1      10.365   0.179  31.998  1.00  0.00     0.141 A 
ATOM      8  C   UNL     1       9.154   0.904  31.990  1.00  0.00     0.047 A 
ATOM      9  C   UNL     1       9.047   2.316  32.068  1.00  0.00     0.064 A 
ATOM     10  C   UNL     1       7.802   2.946  32.060  1.00  0.00     0.161 A 
ENDROOT
BRANCH   1  11
ATOM     11  O   UNL     1       5.450   2.844  31.981  1.00  0.00    -0.493 OA
ATOM     12  C   UNL     1       4.315   2.189  32.533  1.00  0.00     0.278 C 
ENDBRANCH   1  11
BRANCH  10  13
ATOM     13  O   UNL     1       7.615   4.302  32.138  1.00  0.00    -0.493 OA
ATOM     14  C   UNL     1       8.245   5.000  33.202  1.00  0.00     0.278 C 
ENDBRANCH  10  13
BRANCH   7  15
ATOM     15  N   UNL     1      11.586   0.890  32.160  1.00  0.00    -0.340 N 
ATOM     16  H   UNL     1      12.178   0.369  32.799  1.00  0.00     0.168 HD
BRANCH  15  17
ATOM     17  C   UNL     1      12.352   1.553  31.173  1.00  0.00     0.041 A 
ATOM     18  C   UNL     1      13.616   2.096  31.437  1.00  0.00     0.026 A 
ATOM     19  C   UNL     1      11.899   1.554  29.845  1.00  0.00     0.041 A 
ATOM     20  C   UNL     1      14.380   2.681  30.422  1.00  0.00     0.003 A 
ATOM     21  C   UNL     1      12.663   2.138  28.832  1.00  0.00     0.020 A 
ATOM     22  C   UNL     1      13.901   2.709  29.116  1.00  0.00     0.016 A 
ATOM     23  Br  UNL     1      12.014   2.145  27.056  1.00  0.00    -0.051 Br
ENDBRANCH  15  17
ENDBRANCH   7  15
TORSDOF 4
ENDMDL
