MODEL 8
REMARK VINA RESULT:    -7.884      6.292      9.732
REMARK INTER + INTRA:         -10.676
REMARK INTER:                  -9.483
REMARK INTRA:                  -1.193
REMARK UNBOUND:                -0.717
REMARK SMILES Cc1ccccc1Nc1ncnn2ccc(CN3CCC([NH3+])CC3)c12
REMARK SMILES IDX 9 1 10 2 11 3 12 4 13 5 14 6 15 7 16 8 25 9 8 10 7 12 2 13
REMARK SMILES IDX 3 14 6 15 4 16 5 17 1 18 17 19 18 20 24 21 19 22 23 23 20 24
REMARK SMILES IDX 21 25 22 26
REMARK H PARENT 8 11 22 27 22 28 22 29
ROOT
ATOM      1  C   UNL     1      18.590  33.670  14.431  1.00  0.00     0.158 A 
ATOM      2  N   UNL     1      18.615  32.512  13.716  1.00  0.00    -0.215 NA
ATOM      3  C   UNL     1      19.716  32.257  12.974  1.00  0.00     0.247 A 
ATOM      4  N   UNL     1      20.819  33.032  12.853  1.00  0.00    -0.156 NA
ATOM      5  N   UNL     1      20.751  34.164  13.576  1.00  0.00    -0.235 N 
ATOM      6  C   UNL     1      21.732  35.119  13.630  1.00  0.00     0.114 A 
ATOM      7  C   UNL     1      21.296  36.128  14.474  1.00  0.00     0.027 A 
ATOM      8  C   UNL     1      20.034  35.837  14.986  1.00  0.00    -0.003 A 
ATOM      9  C   UNL     1      19.675  34.578  14.401  1.00  0.00     0.112 A 
ENDROOT
BRANCH   1  10
ATOM     10  N   UNL     1      17.448  33.972  15.191  1.00  0.00    -0.338 N 
ATOM     11  H   UNL     1      17.563  33.817  16.182  1.00  0.00     0.168 HD
BRANCH  10  12
ATOM     12  C   UNL     1      16.134  34.302  14.808  1.00  0.00     0.043 A 
ATOM     13  C   UNL     1      15.092  34.273  15.756  1.00  0.00    -0.028 A 
ATOM     14  C   UNL     1      13.785  34.573  15.359  1.00  0.00     0.005 A 
ATOM     15  C   UNL     1      15.832  34.612  13.474  1.00  0.00     0.026 A 
ATOM     16  C   UNL     1      13.502  34.890  14.032  1.00  0.00     0.000 A 
ATOM     17  C   UNL     1      14.525  34.908  13.089  1.00  0.00     0.002 A 
ATOM     18  C   UNL     1      15.350  33.952  17.224  1.00  0.00     0.046 C 
ENDBRANCH  10  12
ENDBRANCH   1  10
BRANCH   8  19
ATOM     19  C   UNL     1      19.233  36.700  15.947  1.00  0.00     0.122 C 
BRANCH  19  20
ATOM     20  N   UNL     1      19.132  36.126  17.291  1.00  0.00    -0.299 NA
ATOM     21  C   UNL     1      20.324  36.376  18.117  1.00  0.00     0.091 C 
ATOM     22  C   UNL     1      17.901  36.563  17.963  1.00  0.00     0.091 C 
ATOM     23  C   UNL     1      20.232  35.634  19.467  1.00  0.00     0.080 C 
ATOM     24  C   UNL     1      17.703  35.824  19.301  1.00  0.00     0.080 C 
ATOM     25  C   UNL     1      18.930  35.969  20.225  1.00  0.00     0.183 C 
BRANCH  25  26
ATOM     26  N   UNL     1      18.781  35.030  21.431  1.00  0.00    -0.355 N 
ATOM     27  H   UNL     1      19.688  34.831  21.829  1.00  0.00     0.344 HD
ATOM     28  H   UNL     1      18.354  34.159  21.145  1.00  0.00     0.344 HD
ATOM     29  H   UNL     1      18.202  35.459  22.140  1.00  0.00     0.344 HD
ENDBRANCH  25  26
ENDBRANCH  19  20
ENDBRANCH   8  19
TORSDOF 5
ENDMDL
