MODEL 1
REMARK VINA RESULT:    -9.951      0.000      0.000
REMARK INTER + INTRA:         -17.811
REMARK INTER:                 -16.351
REMARK INTRA:                  -1.461
REMARK UNBOUND:                -1.461
REMARK SMILES N=C(N)c1ccc([C@H](NC(=O)OCc2ccccc2)P(=O)(Oc2ccccc2)Oc2ccccc2)cc1
REMARK SMILES IDX 9 1 10 2 11 3 8 5 7 6 4 7 5 8 37 9 6 10 36 11 2 12 1 13 3 14
REMARK SMILES IDX 20 18 21 19 22 20 23 21 24 22 28 23 25 24 27 25 26 26 29 27
REMARK SMILES IDX 30 28 31 29 35 30 32 31 34 32 33 33 12 34 13 35 14 36 15 37
REMARK SMILES IDX 19 38 16 39 18 40 17 41
REMARK H PARENT 9 4 1 15 3 16 3 17
ROOT
ATOM      1  N   UNL     1     128.776 -16.280 163.695  1.00  0.00    -0.301 N 
ATOM      2  C   UNL     1     130.012 -16.740 164.012  1.00  0.00     0.408 C 
ATOM      3  O   UNL     1     130.720 -17.411 163.278  1.00  0.00    -0.225 OA
ATOM      4  H   UNL     1     128.330 -15.683 164.378  1.00  0.00     0.168 HD
ENDROOT
BRANCH   1   5
ATOM      5  C   UNL     1     128.225 -16.398 162.349  1.00  0.00     0.257 C 
BRANCH   5   6
ATOM      6  C   UNL     1     127.257 -17.566 162.307  1.00  0.00    -0.011 A 
ATOM      7  C   UNL     1     125.510 -19.763 162.344  1.00  0.00     0.016 A 
ATOM      8  C   UNL     1     125.196 -18.612 163.075  1.00  0.00     0.012 A 
ATOM      9  C   UNL     1     126.672 -19.807 161.570  1.00  0.00     0.012 A 
ATOM     10  C   UNL     1     126.066 -17.517 163.053  1.00  0.00     0.007 A 
ATOM     11  C   UNL     1     127.536 -18.710 161.544  1.00  0.00     0.007 A 
BRANCH   7  12
ATOM     12  C   UNL     1     124.615 -20.946 162.409  1.00  0.00     0.122 C 
ATOM     13  N   UNL     1     124.616 -21.751 163.424  1.00  0.00    -0.284 NA
ATOM     14  N   UNL     1     123.756 -21.218 161.395  1.00  0.00    -0.384 N 
ATOM     15  H   UNL     1     125.269 -21.424 164.145  1.00  0.00     0.189 HD
ATOM     16  H   UNL     1     123.730 -20.702 160.529  1.00  0.00     0.158 HD
ATOM     17  H   UNL     1     123.177 -22.042 161.497  1.00  0.00     0.158 HD
ENDBRANCH   7  12
ENDBRANCH   5   6
BRANCH   5  18
ATOM     18  P   UNL     1     127.573 -14.760 161.818  1.00  0.00     0.457 P 
ATOM     19  O   UNL     1     126.182 -14.802 161.235  1.00  0.00    -0.231 OA
BRANCH  18  20
ATOM     20  O   UNL     1     128.726 -14.126 160.873  1.00  0.00    -0.414 OA
BRANCH  20  21
ATOM     21  C   UNL     1     128.805 -14.389 159.536  1.00  0.00     0.130 A 
ATOM     22  C   UNL     1     129.578 -13.528 158.757  1.00  0.00     0.047 A 
ATOM     23  C   UNL     1     128.120 -15.449 158.948  1.00  0.00     0.047 A 
ATOM     24  C   UNL     1     129.710 -13.759 157.387  1.00  0.00     0.004 A 
ATOM     25  C   UNL     1     128.249 -15.676 157.575  1.00  0.00     0.004 A 
ATOM     26  C   UNL     1     129.050 -14.836 156.797  1.00  0.00     0.000 A 
ENDBRANCH  20  21
ENDBRANCH  18  20
BRANCH  18  27
ATOM     27  O   UNL     1     127.683 -13.869 163.160  1.00  0.00    -0.414 OA
BRANCH  27  28
ATOM     28  C   UNL     1     126.632 -13.517 163.955  1.00  0.00     0.130 A 
ATOM     29  C   UNL     1     126.531 -12.159 164.258  1.00  0.00     0.047 A 
ATOM     30  C   UNL     1     125.698 -14.417 164.464  1.00  0.00     0.047 A 
ATOM     31  C   UNL     1     125.488 -11.693 165.061  1.00  0.00     0.004 A 
ATOM     32  C   UNL     1     124.655 -13.951 165.269  1.00  0.00     0.004 A 
ATOM     33  C   UNL     1     124.551 -12.591 165.568  1.00  0.00     0.000 A 
ENDBRANCH  27  28
ENDBRANCH  18  27
ENDBRANCH   5  18
ENDBRANCH   1   5
BRANCH   2  34
ATOM     34  O   UNL     1     130.329 -16.332 165.258  1.00  0.00    -0.445 OA
BRANCH  34  35
ATOM     35  C   UNL     1     131.152 -17.260 165.971  1.00  0.00     0.270 C 
BRANCH  35  36
ATOM     36  C   UNL     1     132.407 -16.536 166.386  1.00  0.00    -0.011 A 
ATOM     37  C   UNL     1     133.517 -16.487 165.530  1.00  0.00     0.007 A 
ATOM     38  C   UNL     1     132.499 -15.943 167.653  1.00  0.00     0.007 A 
ATOM     39  C   UNL     1     134.691 -15.847 165.929  1.00  0.00     0.000 A 
ATOM     40  C   UNL     1     133.676 -15.302 168.050  1.00  0.00     0.000 A 
ATOM     41  C   UNL     1     134.771 -15.256 167.188  1.00  0.00     0.000 A 
ENDBRANCH  35  36
ENDBRANCH  34  35
ENDBRANCH   2  34
TORSDOF 11
ENDMDL
MODEL 2
REMARK VINA RESULT:    -9.914      2.716      6.544
REMARK INTER + INTRA:         -17.751
REMARK INTER:                 -15.648
REMARK INTRA:                  -2.103
REMARK UNBOUND:                -1.461
REMARK SMILES N=C(N)c1ccc([C@H](NC(=O)OCc2ccccc2)P(=O)(Oc2ccccc2)Oc2ccccc2)cc1
REMARK SMILES IDX 9 1 10 2 11 3 8 5 7 6 4 7 5 8 37 9 6 10 36 11 2 12 1 13 3 14
REMARK SMILES IDX 20 18 21 19 22 20 23 21 24 22 28 23 25 24 27 25 26 26 29 27
REMARK SMILES IDX 30 28 31 29 35 30 32 31 34 32 33 33 12 34 13 35 14 36 15 37
REMARK SMILES IDX 19 38 16 39 18 40 17 41
REMARK H PARENT 9 4 1 15 3 16 3 17
ROOT
ATOM      1  N   UNL     1     126.400 -16.784 163.742  1.00  0.00    -0.301 N 
ATOM      2  C   UNL     1     125.799 -17.956 163.413  1.00  0.00     0.408 C 
ATOM      3  O   UNL     1     125.044 -18.114 162.467  1.00  0.00    -0.225 OA
ATOM      4  H   UNL     1     127.051 -16.814 164.514  1.00  0.00     0.168 HD
ENDROOT
BRANCH   1   5
ATOM      5  C   UNL     1     126.337 -15.611 162.877  1.00  0.00     0.257 C 
BRANCH   5   6
ATOM      6  C   UNL     1     125.981 -14.395 163.712  1.00  0.00    -0.011 A 
ATOM      7  C   UNL     1     125.423 -12.170 165.331  1.00  0.00     0.016 A 
ATOM      8  C   UNL     1     126.419 -12.086 164.352  1.00  0.00     0.012 A 
ATOM      9  C   UNL     1     124.684 -13.346 165.481  1.00  0.00     0.012 A 
ATOM     10  C   UNL     1     126.693 -13.194 163.544  1.00  0.00     0.007 A 
ATOM     11  C   UNL     1     124.955 -14.449 164.669  1.00  0.00     0.007 A 
BRANCH   7  12
ATOM     12  C   UNL     1     125.167 -11.012 166.225  1.00  0.00     0.122 C 
ATOM     13  N   UNL     1     126.092 -10.154 166.515  1.00  0.00    -0.284 NA
ATOM     14  N   UNL     1     123.940 -10.817 166.767  1.00  0.00    -0.384 N 
ATOM     15  H   UNL     1     126.961 -10.375 166.017  1.00  0.00     0.189 HD
ATOM     16  H   UNL     1     123.174 -11.466 166.668  1.00  0.00     0.158 HD
ATOM     17  H   UNL     1     123.830 -10.014 167.372  1.00  0.00     0.158 HD
ENDBRANCH   7  12
ENDBRANCH   5   6
BRANCH   5  18
ATOM     18  P   UNL     1     127.884 -15.510 161.883  1.00  0.00     0.457 P 
ATOM     19  O   UNL     1     128.434 -16.845 161.448  1.00  0.00    -0.231 OA
BRANCH  18  20
ATOM     20  O   UNL     1     128.884 -14.569 162.744  1.00  0.00    -0.414 OA
BRANCH  20  21
ATOM     21  C   UNL     1     130.196 -14.889 162.950  1.00  0.00     0.130 A 
ATOM     22  C   UNL     1     130.507 -15.607 164.105  1.00  0.00     0.047 A 
ATOM     23  C   UNL     1     131.202 -14.494 162.072  1.00  0.00     0.047 A 
ATOM     24  C   UNL     1     131.828 -15.978 164.358  1.00  0.00     0.004 A 
ATOM     25  C   UNL     1     132.525 -14.862 162.329  1.00  0.00     0.004 A 
ATOM     26  C   UNL     1     132.837 -15.611 163.467  1.00  0.00     0.000 A 
ENDBRANCH  20  21
ENDBRANCH  18  20
BRANCH  18  27
ATOM     27  O   UNL     1     127.468 -14.552 160.652  1.00  0.00    -0.414 OA
BRANCH  27  28
ATOM     28  C   UNL     1     128.094 -14.516 159.441  1.00  0.00     0.130 A 
ATOM     29  C   UNL     1     129.180 -13.644 159.348  1.00  0.00     0.047 A 
ATOM     30  C   UNL     1     127.710 -15.272 158.336  1.00  0.00     0.047 A 
ATOM     31  C   UNL     1     129.895 -13.536 158.154  1.00  0.00     0.004 A 
ATOM     32  C   UNL     1     128.424 -15.162 157.139  1.00  0.00     0.004 A 
ATOM     33  C   UNL     1     129.514 -14.294 157.049  1.00  0.00     0.000 A 
ENDBRANCH  27  28
ENDBRANCH  18  27
ENDBRANCH   5  18
ENDBRANCH   1   5
BRANCH   2  34
ATOM     34  O   UNL     1     126.177 -18.908 164.291  1.00  0.00    -0.445 OA
BRANCH  34  35
ATOM     35  C   UNL     1     126.919 -19.974 163.692  1.00  0.00     0.270 C 
BRANCH  35  36
ATOM     36  C   UNL     1     128.363 -19.804 164.084  1.00  0.00    -0.011 A 
ATOM     37  C   UNL     1     128.729 -19.718 165.435  1.00  0.00     0.007 A 
ATOM     38  C   UNL     1     129.357 -19.682 163.102  1.00  0.00     0.007 A 
ATOM     39  C   UNL     1     130.063 -19.525 165.796  1.00  0.00     0.000 A 
ATOM     40  C   UNL     1     130.692 -19.489 163.467  1.00  0.00     0.000 A 
ATOM     41  C   UNL     1     131.043 -19.410 164.813  1.00  0.00     0.000 A 
ENDBRANCH  35  36
ENDBRANCH  34  35
ENDBRANCH   2  34
TORSDOF 11
ENDMDL
MODEL 3
REMARK VINA RESULT:    -9.683      1.167      4.356
REMARK INTER + INTRA:         -17.371
REMARK INTER:                 -15.023
REMARK INTRA:                  -2.348
REMARK UNBOUND:                -1.461
REMARK SMILES N=C(N)c1ccc([C@H](NC(=O)OCc2ccccc2)P(=O)(Oc2ccccc2)Oc2ccccc2)cc1
REMARK SMILES IDX 9 1 10 2 11 3 8 5 7 6 4 7 5 8 37 9 6 10 36 11 2 12 1 13 3 14
REMARK SMILES IDX 20 18 21 19 22 20 23 21 24 22 28 23 25 24 27 25 26 26 29 27
REMARK SMILES IDX 30 28 31 29 35 30 32 31 34 32 33 33 12 34 13 35 14 36 15 37
REMARK SMILES IDX 19 38 16 39 18 40 17 41
REMARK H PARENT 9 4 1 15 3 16 3 17
ROOT
ATOM      1  N   UNL     1     129.816 -17.638 164.028  1.00  0.00    -0.301 N 
ATOM      2  C   UNL     1     130.810 -18.542 164.220  1.00  0.00     0.408 C 
ATOM      3  O   UNL     1     131.206 -19.337 163.383  1.00  0.00    -0.225 OA
ATOM      4  H   UNL     1     129.636 -16.999 164.789  1.00  0.00     0.168 HD
ENDROOT
BRANCH   1   5
ATOM      5  C   UNL     1     129.223 -17.405 162.715  1.00  0.00     0.257 C 
BRANCH   5   6
ATOM      6  C   UNL     1     127.984 -18.268 162.568  1.00  0.00    -0.011 A 
ATOM      7  C   UNL     1     125.733 -19.936 162.391  1.00  0.00     0.016 A 
ATOM      8  C   UNL     1     125.796 -18.956 163.388  1.00  0.00     0.012 A 
ATOM      9  C   UNL     1     126.770 -20.062 161.464  1.00  0.00     0.012 A 
ATOM     10  C   UNL     1     126.917 -18.124 163.472  1.00  0.00     0.007 A 
ATOM     11  C   UNL     1     127.885 -19.225 161.546  1.00  0.00     0.007 A 
BRANCH   7  12
ATOM     12  C   UNL     1     124.569 -20.856 162.332  1.00  0.00     0.122 C 
ATOM     13  N   UNL     1     123.602 -20.684 161.487  1.00  0.00    -0.284 NA
ATOM     14  N   UNL     1     124.486 -21.919 163.170  1.00  0.00    -0.384 N 
ATOM     15  H   UNL     1     123.792 -19.881 160.878  1.00  0.00     0.189 HD
ATOM     16  H   UNL     1     125.143 -22.098 163.914  1.00  0.00     0.158 HD
ATOM     17  H   UNL     1     123.666 -22.505 163.084  1.00  0.00     0.158 HD
ENDBRANCH   7  12
ENDBRANCH   5   6
BRANCH   5  18
ATOM     18  P   UNL     1     129.008 -15.593 162.463  1.00  0.00     0.457 P 
ATOM     19  O   UNL     1     130.253 -14.875 162.007  1.00  0.00    -0.231 OA
BRANCH  18  20
ATOM     20  O   UNL     1     128.328 -15.050 163.830  1.00  0.00    -0.414 OA
BRANCH  20  21
ATOM     21  C   UNL     1     127.237 -14.229 163.831  1.00  0.00     0.130 A 
ATOM     22  C   UNL     1     126.029 -14.767 164.275  1.00  0.00     0.047 A 
ATOM     23  C   UNL     1     127.299 -12.914 163.376  1.00  0.00     0.047 A 
ATOM     24  C   UNL     1     124.885 -13.968 164.316  1.00  0.00     0.004 A 
ATOM     25  C   UNL     1     126.152 -12.117 163.413  1.00  0.00     0.004 A 
ATOM     26  C   UNL     1     124.948 -12.642 163.890  1.00  0.00     0.000 A 
ENDBRANCH  20  21
ENDBRANCH  18  20
BRANCH  18  27
ATOM     27  O   UNL     1     127.791 -15.512 161.405  1.00  0.00    -0.414 OA
BRANCH  27  28
ATOM     28  C   UNL     1     127.929 -15.255 160.073  1.00  0.00     0.130 A 
ATOM     29  C   UNL     1     128.057 -16.375 159.251  1.00  0.00     0.047 A 
ATOM     30  C   UNL     1     127.953 -13.977 159.518  1.00  0.00     0.047 A 
ATOM     31  C   UNL     1     128.197 -16.222 157.870  1.00  0.00     0.004 A 
ATOM     32  C   UNL     1     128.096 -13.823 158.137  1.00  0.00     0.004 A 
ATOM     33  C   UNL     1     128.219 -14.945 157.314  1.00  0.00     0.000 A 
ENDBRANCH  27  28
ENDBRANCH  18  27
ENDBRANCH   5  18
ENDBRANCH   1   5
BRANCH   2  34
ATOM     34  O   UNL     1     131.288 -18.411 165.475  1.00  0.00    -0.445 OA
BRANCH  34  35
ATOM     35  C   UNL     1     131.018 -17.133 166.058  1.00  0.00     0.270 C 
BRANCH  35  36
ATOM     36  C   UNL     1     132.337 -16.522 166.453  1.00  0.00    -0.011 A 
ATOM     37  C   UNL     1     132.520 -15.994 167.740  1.00  0.00     0.007 A 
ATOM     38  C   UNL     1     133.384 -16.428 165.525  1.00  0.00     0.007 A 
ATOM     39  C   UNL     1     133.730 -15.395 168.093  1.00  0.00     0.000 A 
ATOM     40  C   UNL     1     134.595 -15.829 165.882  1.00  0.00     0.000 A 
ATOM     41  C   UNL     1     134.766 -15.312 167.165  1.00  0.00     0.000 A 
ENDBRANCH  35  36
ENDBRANCH  34  35
ENDBRANCH   2  34
TORSDOF 11
ENDMDL
MODEL 4
REMARK VINA RESULT:    -9.629      2.342      5.862
REMARK INTER + INTRA:         -17.281
REMARK INTER:                 -15.600
REMARK INTRA:                  -1.681
REMARK UNBOUND:                -1.461
REMARK SMILES N=C(N)c1ccc([C@H](NC(=O)OCc2ccccc2)P(=O)(Oc2ccccc2)Oc2ccccc2)cc1
REMARK SMILES IDX 9 1 10 2 11 3 8 5 7 6 4 7 5 8 37 9 6 10 36 11 2 12 1 13 3 14
REMARK SMILES IDX 20 18 21 19 22 20 23 21 24 22 28 23 25 24 27 25 26 26 29 27
REMARK SMILES IDX 30 28 31 29 35 30 32 31 34 32 33 33 12 34 13 35 14 36 15 37
REMARK SMILES IDX 19 38 16 39 18 40 17 41
REMARK H PARENT 9 4 1 15 3 16 3 17
ROOT
ATOM      1  N   UNL     1     129.893 -15.290 162.015  1.00  0.00    -0.301 N 
ATOM      2  C   UNL     1     130.994 -14.835 162.664  1.00  0.00     0.408 C 
ATOM      3  O   UNL     1     131.344 -13.666 162.716  1.00  0.00    -0.225 OA
ATOM      4  H   UNL     1     129.691 -16.276 162.109  1.00  0.00     0.168 HD
ENDROOT
BRANCH   1   5
ATOM      5  C   UNL     1     128.899 -14.387 161.444  1.00  0.00     0.257 C 
BRANCH   5   6
ATOM      6  C   UNL     1     128.856 -14.580 159.940  1.00  0.00    -0.011 A 
ATOM      7  C   UNL     1     128.688 -14.843 157.150  1.00  0.00     0.016 A 
ATOM      8  C   UNL     1     129.435 -13.799 157.706  1.00  0.00     0.012 A 
ATOM      9  C   UNL     1     128.055 -15.773 157.980  1.00  0.00     0.012 A 
ATOM     10  C   UNL     1     129.520 -13.672 159.097  1.00  0.00     0.007 A 
ATOM     11  C   UNL     1     128.147 -15.647 159.367  1.00  0.00     0.007 A 
BRANCH   7  12
ATOM     12  C   UNL     1     128.551 -14.950 155.675  1.00  0.00     0.122 C 
ATOM     13  N   UNL     1     129.448 -14.477 154.869  1.00  0.00    -0.284 NA
ATOM     14  N   UNL     1     127.472 -15.557 155.124  1.00  0.00    -0.384 N 
ATOM     15  H   UNL     1     130.236 -14.082 155.394  1.00  0.00     0.189 HD
ATOM     16  H   UNL     1     126.683 -15.889 155.657  1.00  0.00     0.158 HD
ATOM     17  H   UNL     1     127.435 -15.593 154.114  1.00  0.00     0.158 HD
ENDBRANCH   7  12
ENDBRANCH   5   6
BRANCH   5  18
ATOM     18  P   UNL     1     127.310 -14.587 162.353  1.00  0.00     0.457 P 
ATOM     19  O   UNL     1     126.086 -14.597 161.472  1.00  0.00    -0.231 OA
BRANCH  18  20
ATOM     20  O   UNL     1     127.342 -13.467 163.523  1.00  0.00    -0.414 OA
BRANCH  20  21
ATOM     21  C   UNL     1     126.280 -13.240 164.351  1.00  0.00     0.130 A 
ATOM     22  C   UNL     1     126.131 -11.952 164.865  1.00  0.00     0.047 A 
ATOM     23  C   UNL     1     125.390 -14.250 164.707  1.00  0.00     0.047 A 
ATOM     24  C   UNL     1     125.053 -11.657 165.700  1.00  0.00     0.004 A 
ATOM     25  C   UNL     1     124.314 -13.954 165.548  1.00  0.00     0.004 A 
ATOM     26  C   UNL     1     124.141 -12.657 166.037  1.00  0.00     0.000 A 
ENDBRANCH  20  21
ENDBRANCH  18  20
BRANCH  18  27
ATOM     27  O   UNL     1     127.526 -15.962 163.172  1.00  0.00    -0.414 OA
BRANCH  27  28
ATOM     28  C   UNL     1     127.000 -17.171 162.824  1.00  0.00     0.130 A 
ATOM     29  C   UNL     1     125.771 -17.486 163.404  1.00  0.00     0.047 A 
ATOM     30  C   UNL     1     127.614 -18.074 161.958  1.00  0.00     0.047 A 
ATOM     31  C   UNL     1     125.144 -18.698 163.110  1.00  0.00     0.004 A 
ATOM     32  C   UNL     1     126.988 -19.288 161.665  1.00  0.00     0.004 A 
ATOM     33  C   UNL     1     125.755 -19.600 162.241  1.00  0.00     0.000 A 
ENDBRANCH  27  28
ENDBRANCH  18  27
ENDBRANCH   5  18
ENDBRANCH   1   5
BRANCH   2  34
ATOM     34  O   UNL     1     131.628 -15.876 163.242  1.00  0.00    -0.445 OA
BRANCH  34  35
ATOM     35  C   UNL     1     131.128 -16.196 164.544  1.00  0.00     0.270 C 
BRANCH  35  36
ATOM     36  C   UNL     1     132.259 -16.023 165.524  1.00  0.00    -0.011 A 
ATOM     37  C   UNL     1     133.585 -15.940 165.075  1.00  0.00     0.007 A 
ATOM     38  C   UNL     1     132.006 -15.993 166.904  1.00  0.00     0.007 A 
ATOM     39  C   UNL     1     134.634 -15.816 165.986  1.00  0.00     0.000 A 
ATOM     40  C   UNL     1     133.059 -15.869 167.813  1.00  0.00     0.000 A 
ATOM     41  C   UNL     1     134.372 -15.782 167.354  1.00  0.00     0.000 A 
ENDBRANCH  35  36
ENDBRANCH  34  35
ENDBRANCH   2  34
TORSDOF 11
ENDMDL
MODEL 5
REMARK VINA RESULT:    -9.578      2.210      2.941
REMARK INTER + INTRA:         -17.198
REMARK INTER:                 -15.150
REMARK INTRA:                  -2.048
REMARK UNBOUND:                -1.461
REMARK SMILES N=C(N)c1ccc([C@H](NC(=O)OCc2ccccc2)P(=O)(Oc2ccccc2)Oc2ccccc2)cc1
REMARK SMILES IDX 9 1 10 2 11 3 8 5 7 6 4 7 5 8 37 9 6 10 36 11 2 12 1 13 3 14
REMARK SMILES IDX 20 18 21 19 22 20 23 21 24 22 28 23 25 24 27 25 26 26 29 27
REMARK SMILES IDX 30 28 31 29 35 30 32 31 34 32 33 33 12 34 13 35 14 36 15 37
REMARK SMILES IDX 19 38 16 39 18 40 17 41
REMARK H PARENT 9 4 1 15 3 16 3 17
ROOT
ATOM      1  N   UNL     1     129.089 -17.845 164.612  1.00  0.00    -0.301 N 
ATOM      2  C   UNL     1     130.260 -18.391 165.028  1.00  0.00     0.408 C 
ATOM      3  O   UNL     1     131.038 -19.006 164.316  1.00  0.00    -0.225 OA
ATOM      4  H   UNL     1     128.575 -17.309 165.297  1.00  0.00     0.168 HD
ENDROOT
BRANCH   1   5
ATOM      5  C   UNL     1     128.716 -17.790 163.203  1.00  0.00     0.257 C 
BRANCH   5   6
ATOM      6  C   UNL     1     127.650 -18.834 162.928  1.00  0.00    -0.011 A 
ATOM      7  C   UNL     1     125.617 -20.682 162.348  1.00  0.00     0.016 A 
ATOM      8  C   UNL     1     126.620 -20.433 161.405  1.00  0.00     0.012 A 
ATOM      9  C   UNL     1     125.645 -20.039 163.589  1.00  0.00     0.012 A 
ATOM     10  C   UNL     1     127.634 -19.515 161.698  1.00  0.00     0.007 A 
ATOM     11  C   UNL     1     126.662 -19.129 163.881  1.00  0.00     0.007 A 
BRANCH   7  12
ATOM     12  C   UNL     1     124.510 -21.615 162.020  1.00  0.00     0.122 C 
ATOM     13  N   UNL     1     123.712 -21.406 161.021  1.00  0.00    -0.284 NA
ATOM     14  N   UNL     1     124.303 -22.730 162.764  1.00  0.00    -0.384 N 
ATOM     15  H   UNL     1     123.989 -20.563 160.506  1.00  0.00     0.189 HD
ATOM     16  H   UNL     1     124.816 -22.945 163.605  1.00  0.00     0.158 HD
ATOM     17  H   UNL     1     123.530 -23.323 162.492  1.00  0.00     0.158 HD
ENDBRANCH   7  12
ENDBRANCH   5   6
BRANCH   5  18
ATOM     18  P   UNL     1     128.308 -16.051 162.754  1.00  0.00     0.457 P 
ATOM     19  O   UNL     1     128.217 -15.795 161.271  1.00  0.00    -0.231 OA
BRANCH  18  20
ATOM     20  O   UNL     1     129.367 -15.139 163.574  1.00  0.00    -0.414 OA
BRANCH  20  21
ATOM     21  C   UNL     1     130.682 -15.043 163.220  1.00  0.00     0.130 A 
ATOM     22  C   UNL     1     130.971 -14.501 161.967  1.00  0.00     0.047 A 
ATOM     23  C   UNL     1     131.707 -15.495 164.047  1.00  0.00     0.047 A 
ATOM     24  C   UNL     1     132.298 -14.360 161.560  1.00  0.00     0.004 A 
ATOM     25  C   UNL     1     133.035 -15.358 163.636  1.00  0.00     0.004 A 
ATOM     26  C   UNL     1     133.331 -14.784 162.397  1.00  0.00     0.000 A 
ENDBRANCH  20  21
ENDBRANCH  18  20
BRANCH  18  27
ATOM     27  O   UNL     1     126.924 -15.784 163.541  1.00  0.00    -0.414 OA
BRANCH  27  28
ATOM     28  C   UNL     1     126.458 -14.557 163.911  1.00  0.00     0.130 A 
ATOM     29  C   UNL     1     125.269 -14.557 164.641  1.00  0.00     0.047 A 
ATOM     30  C   UNL     1     127.085 -13.353 163.600  1.00  0.00     0.047 A 
ATOM     31  C   UNL     1     124.709 -13.353 165.074  1.00  0.00     0.004 A 
ATOM     32  C   UNL     1     126.525 -12.147 164.032  1.00  0.00     0.004 A 
ATOM     33  C   UNL     1     125.337 -12.148 164.767  1.00  0.00     0.000 A 
ENDBRANCH  27  28
ENDBRANCH  18  27
ENDBRANCH   5  18
ENDBRANCH   1   5
BRANCH   2  34
ATOM     34  O   UNL     1     130.424 -18.136 166.343  1.00  0.00    -0.445 OA
BRANCH  34  35
ATOM     35  C   UNL     1     131.636 -18.672 166.881  1.00  0.00     0.270 C 
BRANCH  35  36
ATOM     36  C   UNL     1     132.637 -17.549 166.962  1.00  0.00    -0.011 A 
ATOM     37  C   UNL     1     133.925 -17.703 166.427  1.00  0.00     0.007 A 
ATOM     38  C   UNL     1     132.311 -16.352 167.615  1.00  0.00     0.007 A 
ATOM     39  C   UNL     1     134.863 -16.676 166.535  1.00  0.00     0.000 A 
ATOM     40  C   UNL     1     133.253 -15.325 167.720  1.00  0.00     0.000 A 
ATOM     41  C   UNL     1     134.528 -15.488 167.181  1.00  0.00     0.000 A 
ENDBRANCH  35  36
ENDBRANCH  34  35
ENDBRANCH   2  34
TORSDOF 11
ENDMDL
MODEL 6
REMARK VINA RESULT:    -9.540      2.913      7.821
REMARK INTER + INTRA:         -17.136
REMARK INTER:                 -14.521
REMARK INTRA:                  -2.614
REMARK UNBOUND:                -1.461
REMARK SMILES N=C(N)c1ccc([C@H](NC(=O)OCc2ccccc2)P(=O)(Oc2ccccc2)Oc2ccccc2)cc1
REMARK SMILES IDX 9 1 10 2 11 3 8 5 7 6 4 7 5 8 37 9 6 10 36 11 2 12 1 13 3 14
REMARK SMILES IDX 20 18 21 19 22 20 23 21 24 22 28 23 25 24 27 25 26 26 29 27
REMARK SMILES IDX 30 28 31 29 35 30 32 31 34 32 33 33 12 34 13 35 14 36 15 37
REMARK SMILES IDX 19 38 16 39 18 40 17 41
REMARK H PARENT 9 4 1 15 3 16 3 17
ROOT
ATOM      1  N   UNL     1     129.449 -15.533 163.134  1.00  0.00    -0.301 N 
ATOM      2  C   UNL     1     129.603 -14.367 162.457  1.00  0.00     0.408 C 
ATOM      3  O   UNL     1     130.625 -14.017 161.889  1.00  0.00    -0.225 OA
ATOM      4  H   UNL     1     128.527 -15.721 163.502  1.00  0.00     0.168 HD
ENDROOT
BRANCH   1   5
ATOM      5  C   UNL     1     130.459 -16.586 163.107  1.00  0.00     0.257 C 
BRANCH   5   6
ATOM      6  C   UNL     1     131.471 -16.335 164.209  1.00  0.00    -0.011 A 
ATOM      7  C   UNL     1     133.308 -15.748 166.249  1.00  0.00     0.016 A 
ATOM      8  C   UNL     1     131.954 -15.917 166.559  1.00  0.00     0.012 A 
ATOM      9  C   UNL     1     133.751 -15.904 164.933  1.00  0.00     0.012 A 
ATOM     10  C   UNL     1     131.041 -16.213 165.542  1.00  0.00     0.007 A 
ATOM     11  C   UNL     1     132.839 -16.207 163.921  1.00  0.00     0.007 A 
BRANCH   7  12
ATOM     12  C   UNL     1     134.271 -15.381 167.318  1.00  0.00     0.122 C 
ATOM     13  N   UNL     1     135.552 -15.417 167.127  1.00  0.00    -0.284 NA
ATOM     14  N   UNL     1     133.831 -14.988 168.539  1.00  0.00    -0.384 N 
ATOM     15  H   UNL     1     135.767 -15.683 166.160  1.00  0.00     0.189 HD
ATOM     16  H   UNL     1     132.861 -15.000 168.815  1.00  0.00     0.158 HD
ATOM     17  H   UNL     1     134.537 -14.757 169.226  1.00  0.00     0.158 HD
ENDBRANCH   7  12
ENDBRANCH   5   6
BRANCH   5  18
ATOM     18  P   UNL     1     129.621 -18.226 163.108  1.00  0.00     0.457 P 
ATOM     19  O   UNL     1     130.545 -19.398 162.893  1.00  0.00    -0.231 OA
BRANCH  18  20
ATOM     20  O   UNL     1     128.394 -18.079 162.060  1.00  0.00    -0.414 OA
BRANCH  20  21
ATOM     21  C   UNL     1     127.190 -18.695 162.249  1.00  0.00     0.130 A 
ATOM     22  C   UNL     1     127.074 -20.021 161.831  1.00  0.00     0.047 A 
ATOM     23  C   UNL     1     126.098 -18.032 162.805  1.00  0.00     0.047 A 
ATOM     24  C   UNL     1     125.873 -20.707 162.017  1.00  0.00     0.004 A 
ATOM     25  C   UNL     1     124.895 -18.719 162.986  1.00  0.00     0.004 A 
ATOM     26  C   UNL     1     124.785 -20.057 162.600  1.00  0.00     0.000 A 
ENDBRANCH  20  21
ENDBRANCH  18  20
BRANCH  18  27
ATOM     27  O   UNL     1     128.867 -18.252 164.536  1.00  0.00    -0.414 OA
BRANCH  27  28
ATOM     28  C   UNL     1     128.948 -19.265 165.445  1.00  0.00     0.130 A 
ATOM     29  C   UNL     1     127.900 -20.185 165.421  1.00  0.00     0.047 A 
ATOM     30  C   UNL     1     129.984 -19.412 166.366  1.00  0.00     0.047 A 
ATOM     31  C   UNL     1     127.889 -21.264 166.307  1.00  0.00     0.004 A 
ATOM     32  C   UNL     1     129.973 -20.490 167.255  1.00  0.00     0.004 A 
ATOM     33  C   UNL     1     128.926 -21.414 167.226  1.00  0.00     0.000 A 
ENDBRANCH  27  28
ENDBRANCH  18  27
ENDBRANCH   5  18
ENDBRANCH   1   5
BRANCH   2  34
ATOM     34  O   UNL     1     128.448 -13.671 162.508  1.00  0.00    -0.445 OA
BRANCH  34  35
ATOM     35  C   UNL     1     127.287 -14.500 162.606  1.00  0.00     0.270 C 
BRANCH  35  36
ATOM     36  C   UNL     1     126.357 -13.870 163.610  1.00  0.00    -0.011 A 
ATOM     37  C   UNL     1     126.524 -12.530 163.991  1.00  0.00     0.007 A 
ATOM     38  C   UNL     1     125.343 -14.627 164.214  1.00  0.00     0.007 A 
ATOM     39  C   UNL     1     125.685 -11.957 164.948  1.00  0.00     0.000 A 
ATOM     40  C   UNL     1     124.504 -14.050 165.171  1.00  0.00     0.000 A 
ATOM     41  C   UNL     1     124.676 -12.716 165.537  1.00  0.00     0.000 A 
ENDBRANCH  35  36
ENDBRANCH  34  35
ENDBRANCH   2  34
TORSDOF 11
ENDMDL
MODEL 7
REMARK VINA RESULT:    -9.268      2.524      5.032
REMARK INTER + INTRA:         -16.689
REMARK INTER:                 -15.107
REMARK INTRA:                  -1.581
REMARK UNBOUND:                -1.461
REMARK SMILES N=C(N)c1ccc([C@H](NC(=O)OCc2ccccc2)P(=O)(Oc2ccccc2)Oc2ccccc2)cc1
REMARK SMILES IDX 9 1 10 2 11 3 8 5 7 6 4 7 5 8 37 9 6 10 36 11 2 12 1 13 3 14
REMARK SMILES IDX 20 18 21 19 22 20 23 21 24 22 28 23 25 24 27 25 26 26 29 27
REMARK SMILES IDX 30 28 31 29 35 30 32 31 34 32 33 33 12 34 13 35 14 36 15 37
REMARK SMILES IDX 19 38 16 39 18 40 17 41
REMARK H PARENT 9 4 1 15 3 16 3 17
ROOT
ATOM      1  N   UNL     1     130.716 -15.300 162.174  1.00  0.00    -0.301 N 
ATOM      2  C   UNL     1     131.921 -14.824 162.576  1.00  0.00     0.408 C 
ATOM      3  O   UNL     1     132.209 -13.642 162.679  1.00  0.00    -0.225 OA
ATOM      4  H   UNL     1     130.598 -16.303 162.196  1.00  0.00     0.168 HD
ENDROOT
BRANCH   1   5
ATOM      5  C   UNL     1     129.562 -14.427 161.983  1.00  0.00     0.257 C 
BRANCH   5   6
ATOM      6  C   UNL     1     129.182 -14.417 160.514  1.00  0.00    -0.011 A 
ATOM      7  C   UNL     1     128.430 -14.282 157.813  1.00  0.00     0.016 A 
ATOM      8  C   UNL     1     129.584 -13.621 158.248  1.00  0.00     0.012 A 
ATOM      9  C   UNL     1     127.672 -15.035 158.713  1.00  0.00     0.012 A 
ATOM     10  C   UNL     1     129.959 -13.693 159.593  1.00  0.00     0.007 A 
ATOM     11  C   UNL     1     128.052 -15.111 160.054  1.00  0.00     0.007 A 
BRANCH   7  12
ATOM     12  C   UNL     1     128.000 -14.164 156.396  1.00  0.00     0.122 C 
ATOM     13  N   UNL     1     127.569 -15.184 155.725  1.00  0.00    -0.284 NA
ATOM     14  N   UNL     1     128.044 -12.968 155.759  1.00  0.00    -0.384 N 
ATOM     15  H   UNL     1     127.538 -16.021 156.317  1.00  0.00     0.189 HD
ATOM     16  H   UNL     1     128.434 -12.131 156.165  1.00  0.00     0.158 HD
ATOM     17  H   UNL     1     127.742 -12.954 154.793  1.00  0.00     0.158 HD
ENDBRANCH   7  12
ENDBRANCH   5   6
BRANCH   5  18
ATOM     18  P   UNL     1     128.243 -14.902 163.178  1.00  0.00     0.457 P 
ATOM     19  O   UNL     1     128.744 -15.222 164.564  1.00  0.00    -0.231 OA
BRANCH  18  20
ATOM     20  O   UNL     1     127.394 -16.066 162.437  1.00  0.00    -0.414 OA
BRANCH  20  21
ATOM     21  C   UNL     1     127.431 -17.370 162.839  1.00  0.00     0.130 A 
ATOM     22  C   UNL     1     128.587 -18.097 162.553  1.00  0.00     0.047 A 
ATOM     23  C   UNL     1     126.354 -17.979 163.479  1.00  0.00     0.047 A 
ATOM     24  C   UNL     1     128.688 -19.429 162.958  1.00  0.00     0.004 A 
ATOM     25  C   UNL     1     126.455 -19.314 163.879  1.00  0.00     0.004 A 
ATOM     26  C   UNL     1     127.625 -20.035 163.626  1.00  0.00     0.000 A 
ENDBRANCH  20  21
ENDBRANCH  18  20
BRANCH  18  27
ATOM     27  O   UNL     1     127.235 -13.642 163.132  1.00  0.00    -0.414 OA
BRANCH  27  28
ATOM     28  C   UNL     1     126.259 -13.385 164.049  1.00  0.00     0.130 A 
ATOM     29  C   UNL     1     126.222 -12.082 164.544  1.00  0.00     0.047 A 
ATOM     30  C   UNL     1     125.340 -14.329 164.501  1.00  0.00     0.047 A 
ATOM     31  C   UNL     1     125.257 -11.713 165.484  1.00  0.00     0.004 A 
ATOM     32  C   UNL     1     124.375 -13.962 165.443  1.00  0.00     0.004 A 
ATOM     33  C   UNL     1     124.335 -12.655 165.934  1.00  0.00     0.000 A 
ENDBRANCH  27  28
ENDBRANCH  18  27
ENDBRANCH   5  18
ENDBRANCH   1   5
BRANCH   2  34
ATOM     34  O   UNL     1     132.738 -15.863 162.848  1.00  0.00    -0.445 OA
BRANCH  34  35
ATOM     35  C   UNL     1     132.186 -16.791 163.787  1.00  0.00     0.270 C 
BRANCH  35  36
ATOM     36  C   UNL     1     132.638 -16.375 165.162  1.00  0.00    -0.011 A 
ATOM     37  C   UNL     1     133.930 -15.868 165.364  1.00  0.00     0.007 A 
ATOM     38  C   UNL     1     131.791 -16.536 166.269  1.00  0.00     0.007 A 
ATOM     39  C   UNL     1     134.361 -15.517 166.644  1.00  0.00     0.000 A 
ATOM     40  C   UNL     1     132.225 -16.183 167.549  1.00  0.00     0.000 A 
ATOM     41  C   UNL     1     133.509 -15.675 167.735  1.00  0.00     0.000 A 
ENDBRANCH  35  36
ENDBRANCH  34  35
ENDBRANCH   2  34
TORSDOF 11
ENDMDL
MODEL 8
REMARK VINA RESULT:    -9.144      2.938      8.195
REMARK INTER + INTRA:         -16.485
REMARK INTER:                 -14.158
REMARK INTRA:                  -2.327
REMARK UNBOUND:                -1.461
REMARK SMILES N=C(N)c1ccc([C@H](NC(=O)OCc2ccccc2)P(=O)(Oc2ccccc2)Oc2ccccc2)cc1
REMARK SMILES IDX 9 1 10 2 11 3 8 5 7 6 4 7 5 8 37 9 6 10 36 11 2 12 1 13 3 14
REMARK SMILES IDX 20 18 21 19 22 20 23 21 24 22 28 23 25 24 27 25 26 26 29 27
REMARK SMILES IDX 30 28 31 29 35 30 32 31 34 32 33 33 12 34 13 35 14 36 15 37
REMARK SMILES IDX 19 38 16 39 18 40 17 41
REMARK H PARENT 9 4 1 15 3 16 3 17
ROOT
ATOM      1  N   UNL     1     128.761 -15.069 162.878  1.00  0.00    -0.301 N 
ATOM      2  C   UNL     1     128.818 -13.936 162.133  1.00  0.00     0.408 C 
ATOM      3  O   UNL     1     129.700 -13.667 161.333  1.00  0.00    -0.225 OA
ATOM      4  H   UNL     1     127.939 -15.188 163.453  1.00  0.00     0.168 HD
ENDROOT
BRANCH   1   5
ATOM      5  C   UNL     1     129.680 -16.183 162.667  1.00  0.00     0.257 C 
BRANCH   5   6
ATOM      6  C   UNL     1     130.876 -16.023 163.587  1.00  0.00    -0.011 A 
ATOM      7  C   UNL     1     133.117 -15.850 165.269  1.00  0.00     0.016 A 
ATOM      8  C   UNL     1     133.285 -15.820 163.881  1.00  0.00     0.012 A 
ATOM      9  C   UNL     1     131.835 -15.932 165.819  1.00  0.00     0.012 A 
ATOM     10  C   UNL     1     132.167 -15.902 163.045  1.00  0.00     0.007 A 
ATOM     11  C   UNL     1     130.720 -16.008 164.982  1.00  0.00     0.007 A 
BRANCH   7  12
ATOM     12  C   UNL     1     134.305 -15.817 166.159  1.00  0.00     0.122 C 
ATOM     13  N   UNL     1     134.263 -15.280 167.337  1.00  0.00    -0.284 NA
ATOM     14  N   UNL     1     135.482 -16.358 165.759  1.00  0.00    -0.384 N 
ATOM     15  H   UNL     1     133.317 -14.945 167.549  1.00  0.00     0.189 HD
ATOM     16  H   UNL     1     135.643 -16.729 164.836  1.00  0.00     0.158 HD
ATOM     17  H   UNL     1     136.256 -16.298 166.409  1.00  0.00     0.158 HD
ENDBRANCH   7  12
ENDBRANCH   5   6
BRANCH   5  18
ATOM     18  P   UNL     1     128.746 -17.766 162.788  1.00  0.00     0.457 P 
ATOM     19  O   UNL     1     127.725 -17.805 163.897  1.00  0.00    -0.231 OA
BRANCH  18  20
ATOM     20  O   UNL     1     129.876 -18.927 162.814  1.00  0.00    -0.414 OA
BRANCH  20  21
ATOM     21  C   UNL     1     130.547 -19.273 163.951  1.00  0.00     0.130 A 
ATOM     22  C   UNL     1     129.792 -19.473 165.107  1.00  0.00     0.047 A 
ATOM     23  C   UNL     1     131.934 -19.391 163.986  1.00  0.00     0.047 A 
ATOM     24  C   UNL     1     130.422 -19.846 166.294  1.00  0.00     0.004 A 
ATOM     25  C   UNL     1     132.565 -19.760 165.177  1.00  0.00     0.004 A 
ATOM     26  C   UNL     1     131.809 -19.995 166.328  1.00  0.00     0.000 A 
ENDBRANCH  20  21
ENDBRANCH  18  20
BRANCH  18  27
ATOM     27  O   UNL     1     128.105 -17.927 161.315  1.00  0.00    -0.414 OA
BRANCH  27  28
ATOM     28  C   UNL     1     127.827 -19.115 160.707  1.00  0.00     0.130 A 
ATOM     29  C   UNL     1     126.940 -19.950 161.387  1.00  0.00     0.047 A 
ATOM     30  C   UNL     1     128.373 -19.521 159.491  1.00  0.00     0.047 A 
ATOM     31  C   UNL     1     126.585 -21.188 160.848  1.00  0.00     0.004 A 
ATOM     32  C   UNL     1     128.020 -20.761 158.952  1.00  0.00     0.004 A 
ATOM     33  C   UNL     1     127.127 -21.593 159.630  1.00  0.00     0.000 A 
ENDBRANCH  27  28
ENDBRANCH  18  27
ENDBRANCH   5  18
ENDBRANCH   1   5
BRANCH   2  34
ATOM     34  O   UNL     1     127.745 -13.168 162.414  1.00  0.00    -0.445 OA
BRANCH  34  35
ATOM     35  C   UNL     1     126.526 -13.910 162.522  1.00  0.00     0.270 C 
BRANCH  35  36
ATOM     36  C   UNL     1     125.828 -13.464 163.780  1.00  0.00    -0.011 A 
ATOM     37  C   UNL     1     124.904 -14.304 164.418  1.00  0.00     0.007 A 
ATOM     38  C   UNL     1     126.056 -12.183 164.304  1.00  0.00     0.007 A 
ATOM     39  C   UNL     1     124.231 -13.877 165.562  1.00  0.00     0.000 A 
ATOM     40  C   UNL     1     125.381 -11.758 165.452  1.00  0.00     0.000 A 
ATOM     41  C   UNL     1     124.468 -12.605 166.079  1.00  0.00     0.000 A 
ENDBRANCH  35  36
ENDBRANCH  34  35
ENDBRANCH   2  34
TORSDOF 11
ENDMDL
MODEL 9
REMARK VINA RESULT:    -8.953      2.952      8.235
REMARK INTER + INTRA:         -16.172
REMARK INTER:                 -13.541
REMARK INTRA:                  -2.631
REMARK UNBOUND:                -1.461
REMARK SMILES N=C(N)c1ccc([C@H](NC(=O)OCc2ccccc2)P(=O)(Oc2ccccc2)Oc2ccccc2)cc1
REMARK SMILES IDX 9 1 10 2 11 3 8 5 7 6 4 7 5 8 37 9 6 10 36 11 2 12 1 13 3 14
REMARK SMILES IDX 20 18 21 19 22 20 23 21 24 22 28 23 25 24 27 25 26 26 29 27
REMARK SMILES IDX 30 28 31 29 35 30 32 31 34 32 33 33 12 34 13 35 14 36 15 37
REMARK SMILES IDX 19 38 16 39 18 40 17 41
REMARK H PARENT 9 4 1 15 3 16 3 17
ROOT
ATOM      1  N   UNL     1     128.778 -16.484 163.831  1.00  0.00    -0.301 N 
ATOM      2  C   UNL     1     128.349 -15.765 162.763  1.00  0.00     0.408 C 
ATOM      3  O   UNL     1     128.967 -15.622 161.720  1.00  0.00    -0.225 OA
ATOM      4  H   UNL     1     128.134 -16.568 164.605  1.00  0.00     0.168 HD
ENDROOT
BRANCH   1   5
ATOM      5  C   UNL     1     129.974 -17.319 163.774  1.00  0.00     0.257 C 
BRANCH   5   6
ATOM      6  C   UNL     1     131.013 -16.768 164.731  1.00  0.00    -0.011 A 
ATOM      7  C   UNL     1     133.002 -15.857 166.492  1.00  0.00     0.016 A 
ATOM      8  C   UNL     1     133.229 -15.830 165.112  1.00  0.00     0.012 A 
ATOM      9  C   UNL     1     131.776 -16.305 166.992  1.00  0.00     0.012 A 
ATOM     10  C   UNL     1     132.236 -16.280 164.236  1.00  0.00     0.007 A 
ATOM     11  C   UNL     1     130.784 -16.747 166.116  1.00  0.00     0.007 A 
BRANCH   7  12
ATOM     12  C   UNL     1     134.074 -15.430 167.426  1.00  0.00     0.122 C 
ATOM     13  N   UNL     1     135.329 -15.533 167.121  1.00  0.00    -0.284 NA
ATOM     14  N   UNL     1     133.766 -14.908 168.638  1.00  0.00    -0.384 N 
ATOM     15  H   UNL     1     135.441 -15.896 166.168  1.00  0.00     0.189 HD
ATOM     16  H   UNL     1     132.827 -14.856 169.004  1.00  0.00     0.158 HD
ATOM     17  H   UNL     1     134.541 -14.641 169.231  1.00  0.00     0.158 HD
ENDBRANCH   7  12
ENDBRANCH   5   6
BRANCH   5  18
ATOM     18  P   UNL     1     129.489 -19.082 164.000  1.00  0.00     0.457 P 
ATOM     19  O   UNL     1     128.803 -19.376 165.310  1.00  0.00    -0.231 OA
BRANCH  18  20
ATOM     20  O   UNL     1     130.829 -19.937 163.685  1.00  0.00    -0.414 OA
BRANCH  20  21
ATOM     21  C   UNL     1     131.934 -19.890 164.486  1.00  0.00     0.130 A 
ATOM     22  C   UNL     1     131.746 -20.103 165.852  1.00  0.00     0.047 A 
ATOM     23  C   UNL     1     133.201 -19.608 163.983  1.00  0.00     0.047 A 
ATOM     24  C   UNL     1     132.842 -20.086 166.715  1.00  0.00     0.004 A 
ATOM     25  C   UNL     1     134.297 -19.587 164.850  1.00  0.00     0.004 A 
ATOM     26  C   UNL     1     134.119 -19.834 166.213  1.00  0.00     0.000 A 
ENDBRANCH  20  21
ENDBRANCH  18  20
BRANCH  18  27
ATOM     27  O   UNL     1     128.567 -19.377 162.708  1.00  0.00    -0.414 OA
BRANCH  27  28
ATOM     28  C   UNL     1     127.267 -19.786 162.750  1.00  0.00     0.130 A 
ATOM     29  C   UNL     1     126.313 -18.767 162.763  1.00  0.00     0.047 A 
ATOM     30  C   UNL     1     126.864 -21.119 162.788  1.00  0.00     0.047 A 
ATOM     31  C   UNL     1     124.952 -19.078 162.800  1.00  0.00     0.004 A 
ATOM     32  C   UNL     1     125.502 -21.430 162.827  1.00  0.00     0.004 A 
ATOM     33  C   UNL     1     124.548 -20.411 162.835  1.00  0.00     0.000 A 
ENDBRANCH  27  28
ENDBRANCH  18  27
ENDBRANCH   5  18
ENDBRANCH   1   5
BRANCH   2  34
ATOM     34  O   UNL     1     127.135 -15.245 163.040  1.00  0.00    -0.445 OA
BRANCH  34  35
ATOM     35  C   UNL     1     127.115 -13.815 163.049  1.00  0.00     0.270 C 
BRANCH  35  36
ATOM     36  C   UNL     1     126.130 -13.377 164.101  1.00  0.00    -0.011 A 
ATOM     37  C   UNL     1     126.183 -12.079 164.630  1.00  0.00     0.007 A 
ATOM     38  C   UNL     1     125.177 -14.276 164.602  1.00  0.00     0.007 A 
ATOM     39  C   UNL     1     125.294 -11.685 165.630  1.00  0.00     0.000 A 
ATOM     40  C   UNL     1     124.288 -13.878 165.604  1.00  0.00     0.000 A 
ATOM     41  C   UNL     1     124.348 -12.584 166.117  1.00  0.00     0.000 A 
ENDBRANCH  35  36
ENDBRANCH  34  35
ENDBRANCH   2  34
TORSDOF 11
ENDMDL
