REMARK SMILES O=C(O)C[C@@H]1CCc2cc(OCCCOc3ccc(-c4nc5c(s4)CCC5)cc3)ccc21
REMARK SMILES IDX 11 1 10 2 5 3 6 4 32 5 7 6 31 7 8 8 30 9 9 10 4 11 2 12 1 13
REMARK SMILES IDX 3 14 12 16 13 17 14 18 15 19 16 20 17 21 29 22 18 23 28 24
REMARK SMILES IDX 19 25 20 26 21 27 24 28 22 29 23 30 27 31 25 32 26 33
REMARK H PARENT 3 15
REMARK INDEX MAP 11 1 10 2 5 3 6 4 32 5 7 6 31 7 8 8 30 9 9 10 4 11 2 12 1 13
REMARK INDEX MAP 3 14 33 15 12 16 13 17 14 18 15 19 16 20 17 21 29 22 18 23
REMARK INDEX MAP 28 24 19 25 20 26 21 27 24 28 22 29 23 30 27 31 25 32 26 33
ROOT
ATOM      1  O   UNL     1      44.178 -41.829 105.117  1.00  0.00    -0.493 OA
ENDROOT
BRANCH   1   2
ATOM      2  C   UNL     1      43.883 -41.489 103.825  1.00  0.00     0.119 A 
ATOM      3  C   UNL     1      43.053 -40.627  99.715  1.00  0.00     0.031 C 
ATOM      4  C   UNL     1      42.551 -39.189  99.993  1.00  0.00     0.014 C 
ATOM      5  C   UNL     1      43.469 -41.043 101.103  1.00  0.00    -0.041 A 
ATOM      6  C   UNL     1      41.997 -39.190 101.422  1.00  0.00     0.036 C 
ATOM      7  C   UNL     1      44.276 -42.099 101.491  1.00  0.00     0.008 A 
ATOM      8  C   UNL     1      42.864 -40.225 102.065  1.00  0.00    -0.041 A 
ATOM      9  C   UNL     1      44.484 -42.312 102.857  1.00  0.00     0.047 A 
ATOM     10  C   UNL     1      43.056 -40.438 103.424  1.00  0.00     0.050 A 
BRANCH   3  11
ATOM     11  C   UNL     1      44.172 -40.676  98.675  1.00  0.00     0.131 C 
BRANCH  11  12
ATOM     12  C   UNL     1      43.899 -41.697  97.607  1.00  0.00     0.303 C 
ATOM     13  O   UNL     1      44.602 -42.636  97.279  1.00  0.00    -0.252 OA
BRANCH  12  14
ATOM     14  O   UNL     1      42.731 -41.463  96.974  1.00  0.00    -0.481 OA
ATOM     15  H   UNL     1      42.165 -40.698  97.246  1.00  0.00     0.296 HD
ENDBRANCH  12  14
ENDBRANCH  11  12
ENDBRANCH   3  11
ENDBRANCH   1   2
BRANCH   1  16
ATOM     16  C   UNL     1      45.133 -42.870 105.314  1.00  0.00     0.233 C 
BRANCH  16  17
ATOM     17  C   UNL     1      44.685 -43.740 106.483  1.00  0.00     0.083 C 
BRANCH  17  18
ATOM     18  C   UNL     1      44.313 -42.909 107.709  1.00  0.00     0.233 C 
BRANCH  18  19
ATOM     19  O   UNL     1      45.459 -42.702 108.537  1.00  0.00    -0.493 OA
BRANCH  19  20
ATOM     20  C   UNL     1      46.117 -41.507 108.471  1.00  0.00     0.119 A 
ATOM     21  C   UNL     1      47.494 -41.321 108.401  1.00  0.00     0.047 A 
ATOM     22  C   UNL     1      45.287 -40.387 108.493  1.00  0.00     0.047 A 
ATOM     23  C   UNL     1      48.035 -40.025 108.348  1.00  0.00     0.015 A 
ATOM     24  C   UNL     1      45.826 -39.097 108.440  1.00  0.00     0.015 A 
ATOM     25  C   UNL     1      47.212 -38.889 108.363  1.00  0.00     0.011 A 
BRANCH  25  26
ATOM     26  C   UNL     1      47.723 -37.503 108.315  1.00  0.00     0.123 A 
ATOM     27  N   UNL     1      47.374 -36.555 109.184  1.00  0.00    -0.241 NA
ATOM     28  S   UNL     1      48.844 -36.975 107.072  1.00  0.00    -0.119 S 
ATOM     29  C   UNL     1      48.018 -35.405 108.850  1.00  0.00     0.055 A 
ATOM     30  C   UNL     1      48.833 -35.454 107.759  1.00  0.00     0.028 A 
ATOM     31  C   UNL     1      47.996 -34.066 109.472  1.00  0.00     0.058 C 
ATOM     32  C   UNL     1      49.500 -34.177 107.450  1.00  0.00     0.049 C 
ATOM     33  C   UNL     1      48.695 -33.197 108.372  1.00  0.00     0.012 C 
ENDBRANCH  25  26
ENDBRANCH  19  20
ENDBRANCH  18  19
ENDBRANCH  17  18
ENDBRANCH  16  17
ENDBRANCH   1  16
TORSDOF 10
