MODEL 3
REMARK VINA RESULT:    -8.509      3.797      6.485
REMARK INTER + INTRA:         -12.502
REMARK INTER:                 -11.330
REMARK INTRA:                  -1.172
REMARK UNBOUND:                -1.506
REMARK SMILES O=C(Nc1c[nH]nc1-c1cc(Cl)ccc1OC(F)F)c1cncc2[nH]cnc12
REMARK SMILES IDX 9 1 10 2 11 3 12 4 13 5 14 6 15 7 8 8 4 9 5 10 6 11 7 12
REMARK SMILES IDX 3 14 1 15 2 16 20 18 21 19 28 20 22 21 27 22 24 23 23 24
REMARK SMILES IDX 26 25 25 26 16 28 17 29 18 30 19 31
REMARK H PARENT 6 13 3 17 25 27
ROOT
ATOM      1  C   UNL     1       7.015 -24.114  22.030  1.00  0.00     0.048 A 
ATOM      2  C   UNL     1       5.865 -24.405  21.280  1.00  0.00     0.035 A 
ATOM      3  C   UNL     1       4.942 -25.341  21.749  1.00  0.00     0.041 A 
ATOM      4  Cl  UNL     1       3.523 -25.672  20.833  1.00  0.00    -0.084 Cl
ATOM      5  C   UNL     1       5.151 -26.003  22.958  1.00  0.00     0.024 A 
ATOM      6  C   UNL     1       6.294 -25.726  23.708  1.00  0.00     0.049 A 
ATOM      7  C   UNL     1       7.230 -24.798  23.238  1.00  0.00     0.135 A 
ENDROOT
BRANCH   1   8
ATOM      8  C   UNL     1       7.951 -23.104  21.542  1.00  0.00     0.119 A 
ATOM      9  C   UNL     1       7.664 -21.760  21.143  1.00  0.00     0.087 A 
ATOM     10  C   UNL     1       8.876 -21.246  20.756  1.00  0.00     0.132 A 
ATOM     11  N   UNL     1       9.786 -22.240  20.931  1.00  0.00    -0.283 N 
ATOM     12  N   UNL     1       9.256 -23.386  21.392  1.00  0.00    -0.173 NA
ATOM     13  H   UNL     1      10.785 -22.207  20.752  1.00  0.00     0.189 HD
BRANCH   9  14
ATOM     14  N   UNL     1       6.433 -21.129  21.155  1.00  0.00    -0.319 N 
ATOM     15  O   UNL     1       6.682 -19.706  22.981  1.00  0.00    -0.269 OA
ATOM     16  C   UNL     1       6.027 -20.154  22.045  1.00  0.00     0.259 C 
ATOM     17  H   UNL     1       5.770 -21.414  20.433  1.00  0.00     0.170 HD
BRANCH  16  18
ATOM     18  C   UNL     1       4.673 -19.613  21.815  1.00  0.00     0.086 A 
ATOM     19  C   UNL     1       3.775 -19.444  22.860  1.00  0.00     0.127 A 
ATOM     20  C   UNL     1       4.206 -19.227  20.553  1.00  0.00     0.104 A 
ATOM     21  N   UNL     1       2.514 -18.947  22.732  1.00  0.00    -0.262 NA
ATOM     22  N   UNL     1       4.832 -19.259  19.318  1.00  0.00    -0.236 NA
ATOM     23  C   UNL     1       2.918 -18.717  20.427  1.00  0.00     0.085 A 
ATOM     24  C   UNL     1       2.067 -18.575  21.509  1.00  0.00     0.139 A 
ATOM     25  C   UNL     1       3.952 -18.777  18.468  1.00  0.00     0.197 A 
ATOM     26  N   UNL     1       2.783 -18.439  19.090  1.00  0.00    -0.343 N 
ATOM     27  H   UNL     1       1.966 -18.050  18.641  1.00  0.00     0.168 HD
ENDBRANCH  16  18
ENDBRANCH   9  14
ENDBRANCH   1   8
BRANCH   7  28
ATOM     28  O   UNL     1       8.300 -24.505  24.042  1.00  0.00    -0.434 OA
BRANCH  28  29
ATOM     29  C   UNL     1       9.042 -25.689  24.315  1.00  0.00     0.542 C 
ATOM     30  F   UNL     1      10.355 -25.399  24.115  1.00  0.00    -0.167 F 
ATOM     31  F   UNL     1       8.917 -25.976  25.638  1.00  0.00    -0.167 F 
ENDBRANCH  28  29
ENDBRANCH   7  28
TORSDOF 5
ENDMDL
