MODEL 4
REMARK VINA RESULT:    -8.848      5.003     10.360
REMARK INTER + INTRA:         -11.557
REMARK INTER:                 -11.346
REMARK INTRA:                  -0.211
REMARK UNBOUND:                -0.123
REMARK SMILES O=C(Nc1nc2cccc([C@H]3CC[C@H](NC(=O)[C@@H]4CC4(F)F)CC3)n2n1)C1CC1
REMARK SMILES IDX 11 1 24 2 23 3 14 4 13 5 12 6 10 7 4 8 5 9 26 10 6 11 25 12
REMARK SMILES IDX 7 13 8 14 9 15 3 16 1 17 2 18 27 20 28 21 29 22 15 23 16 24
REMARK SMILES IDX 17 25 18 27 19 28 20 29 21 30 22 31
REMARK H PARENT 3 19 15 26
ROOT
ATOM      1  C   UNL     1     -15.150  16.161  19.469  1.00  0.00     0.038 C 
ATOM      2  C   UNL     1     -16.390  15.906  18.595  1.00  0.00     0.012 C 
ATOM      3  C   UNL     1     -17.181  17.192  18.363  1.00  0.00     0.025 C 
ATOM      4  C   UNL     1     -17.570  17.873  19.683  1.00  0.00     0.082 C 
ATOM      5  C   UNL     1     -16.337  18.114  20.563  1.00  0.00     0.025 C 
ATOM      6  C   UNL     1     -15.539  16.832  20.799  1.00  0.00     0.012 C 
ENDROOT
BRANCH   1   7
ATOM      7  C   UNL     1     -14.291  14.920  19.647  1.00  0.00     0.048 A 
ATOM      8  C   UNL     1     -10.902  15.663  20.078  1.00  0.00     0.249 A 
ATOM      9  N   UNL     1     -10.819  14.306  20.173  1.00  0.00    -0.192 NA
ATOM     10  N   UNL     1     -12.125  16.142  19.883  1.00  0.00    -0.127 NA
ATOM     11  C   UNL     1     -12.064  13.921  20.018  1.00  0.00     0.157 A 
ATOM     12  N   UNL     1     -12.896  15.034  19.838  1.00  0.00    -0.216 N 
ATOM     13  C   UNL     1     -12.658  12.631  20.003  1.00  0.00     0.049 A 
ATOM     14  C   UNL     1     -13.984  12.514  19.819  1.00  0.00     0.006 A 
ATOM     15  C   UNL     1     -14.831  13.680  19.636  1.00  0.00     0.024 A 
BRANCH   8  16
ATOM     16  N   UNL     1      -9.739  16.367  20.191  1.00  0.00    -0.293 N 
ATOM     17  O   UNL     1     -10.090  18.082  18.646  1.00  0.00    -0.274 OA
ATOM     18  C   UNL     1      -9.423  17.492  19.482  1.00  0.00     0.229 C 
ATOM     19  H   UNL     1      -9.087  15.981  20.853  1.00  0.00     0.173 HD
BRANCH  18  20
ATOM     20  C   UNL     1      -8.081  18.036  19.844  1.00  0.00     0.079 C 
ATOM     21  C   UNL     1      -7.474  17.683  21.182  1.00  0.00     0.014 C 
ATOM     22  C   UNL     1      -7.920  19.089  20.916  1.00  0.00     0.014 C 
ENDBRANCH  18  20
ENDBRANCH   8  16
ENDBRANCH   1   7
BRANCH   4  23
ATOM     23  N   UNL     1     -18.247  19.139  19.428  1.00  0.00    -0.353 N 
ATOM     24  C   UNL     1     -19.529  19.375  19.860  1.00  0.00     0.229 C 
ATOM     25  O   UNL     1     -20.179  18.629  20.577  1.00  0.00    -0.275 OA
ATOM     26  H   UNL     1     -17.872  19.737  18.702  1.00  0.00     0.163 HD
BRANCH  24  27
ATOM     27  C   UNL     1     -20.114  20.655  19.420  1.00  0.00     0.154 C 
ATOM     28  C   UNL     1     -19.813  21.914  20.225  1.00  0.00     0.097 C 
ATOM     29  C   UNL     1     -21.171  21.334  20.203  1.00  0.00     0.260 C 
ATOM     30  F   UNL     1     -21.707  20.753  21.330  1.00  0.00    -0.206 F 
ATOM     31  F   UNL     1     -22.196  21.987  19.558  1.00  0.00    -0.206 F 
ENDBRANCH  24  27
ENDBRANCH   4  23
TORSDOF 5
ENDMDL
