REMARK SMILES CCC(CC)n1cc(-c2nc(-c3cnn(CC(C)(C)CO)c3)cn3nccc23)cn1
REMARK SMILES IDX 12 1 13 2 14 3 15 4 22 5 11 6 9 7 10 8 28 9 27 10 24 11
REMARK SMILES IDX 23 12 26 13 25 14 8 15 6 16 7 17 30 18 29 19 3 20 2 21 1 22
REMARK SMILES IDX 4 23 5 24 16 25 17 26 18 27 19 28 20 29 21 30
REMARK H PARENT 21 31
REMARK INDEX MAP 12 1 13 2 14 3 15 4 22 5 11 6 9 7 10 8 28 9 27 10 24 11 23 12
REMARK INDEX MAP 26 13 25 14 8 15 6 16 7 17 30 18 29 19 3 20 2 21 1 22 4 23
REMARK INDEX MAP 5 24 16 25 17 26 18 27 19 28 20 29 21 30 54 31
ROOT
ATOM      1  C   UNL     1       3.758 -18.452  21.204  1.00  0.00     0.040 A 
ATOM      2  C   UNL     1       2.364 -18.661  21.324  1.00  0.00     0.145 A 
ATOM      3  N   UNL     1       1.646 -17.631  20.864  1.00  0.00    -0.181 NA
ATOM      4  N   UNL     1       2.584 -16.759  20.441  1.00  0.00    -0.271 N 
ATOM      5  C   UNL     1       3.863 -17.200  20.633  1.00  0.00     0.119 A 
ENDROOT
BRANCH   1   6
ATOM      6  C   UNL     1       4.818 -19.334  21.589  1.00  0.00     0.092 A 
ATOM      7  C   UNL     1       5.492 -21.551  21.581  1.00  0.00     0.100 A 
ATOM      8  N   UNL     1       4.594 -20.662  21.261  1.00  0.00    -0.244 NA
ATOM      9  C   UNL     1       6.726 -21.195  22.230  1.00  0.00     0.093 A 
ATOM     10  C   UNL     1       7.878 -21.849  22.607  1.00  0.00     0.052 A 
ATOM     11  N   UNL     1       6.904 -19.863  22.547  1.00  0.00    -0.237 N 
ATOM     12  C   UNL     1       5.936 -18.934  22.222  1.00  0.00     0.142 A 
ATOM     13  C   UNL     1       8.677 -20.848  23.184  1.00  0.00     0.136 A 
ATOM     14  N   UNL     1       8.092 -19.651  23.162  1.00  0.00    -0.176 NA
BRANCH   7  15
ATOM     15  C   UNL     1       5.210 -22.933  21.254  1.00  0.00     0.040 A 
ATOM     16  N   UNL     1       4.796 -25.095  21.452  1.00  0.00    -0.269 N 
ATOM     17  C   UNL     1       5.014 -23.954  22.168  1.00  0.00     0.119 A 
ATOM     18  N   UNL     1       4.848 -24.896  20.121  1.00  0.00    -0.181 NA
ATOM     19  C   UNL     1       5.117 -23.593  20.008  1.00  0.00     0.145 A 
BRANCH  16  20
ATOM     20  C   UNL     1       4.533 -26.439  21.974  1.00  0.00     0.107 C 
BRANCH  20  21
ATOM     21  C   UNL     1       3.022 -26.699  22.138  1.00  0.00     0.024 C 
ATOM     22  C   UNL     1       2.384 -27.319  20.900  1.00  0.00     0.006 C 
ENDBRANCH  20  21
BRANCH  20  23
ATOM     23  C   UNL     1       5.320 -26.663  23.281  1.00  0.00     0.024 C 
ATOM     24  C   UNL     1       6.120 -27.958  23.292  1.00  0.00     0.006 C 
ENDBRANCH  20  23
ENDBRANCH  16  20
ENDBRANCH   7  15
ENDBRANCH   1   6
BRANCH   4  25
ATOM     25  C   UNL     1       2.172 -15.487  19.878  1.00  0.00     0.153 C 
BRANCH  25  26
ATOM     26  C   UNL     1       1.755 -15.534  18.386  1.00  0.00     0.007 C 
ATOM     27  C   UNL     1       1.550 -14.078  17.919  1.00  0.00     0.015 C 
ATOM     28  C   UNL     1       2.869 -16.163  17.530  1.00  0.00     0.015 C 
BRANCH  26  29
ATOM     29  C   UNL     1       0.448 -16.324  18.157  1.00  0.00     0.164 C 
BRANCH  29  30
ATOM     30  O   UNL     1       0.707 -17.697  17.899  1.00  0.00    -0.396 OA
ATOM     31  H   UNL     1       0.799 -18.182  18.757  1.00  0.00     0.210 HD
ENDBRANCH  29  30
ENDBRANCH  26  29
ENDBRANCH  25  26
ENDBRANCH   4  25
TORSDOF 9
