REMARK SMILES Cc1ccc(Oc2ccc(Nc3ncnc4[nH]nc(OCCN5CCC(O)CC5)c34)cc2F)cn1
REMARK SMILES IDX 12 1 13 2 14 3 15 4 16 5 17 6 18 7 19 8 30 9 11 11 10 13
REMARK SMILES IDX 7 14 8 15 32 16 9 17 31 18 33 19 6 20 5 21 2 22 3 23 35 24
REMARK SMILES IDX 4 25 34 26 1 27 20 28 21 29 22 30 23 31 24 32 29 33 25 34
REMARK SMILES IDX 28 35 26 36 27 37
REMARK H PARENT 17 10 11 12 27 38
REMARK INDEX MAP 12 1 13 2 14 3 15 4 16 5 17 6 18 7 19 8 30 9 45 10 11 11
REMARK INDEX MAP 43 12 10 13 7 14 8 15 32 16 9 17 31 18 33 19 6 20 5 21 2 22
REMARK INDEX MAP 3 23 35 24 4 25 34 26 1 27 20 28 21 29 22 30 23 31 24 32
REMARK INDEX MAP 29 33 25 34 28 35 26 36 27 37 55 38
ROOT
ATOM      1  C   UNL     1      15.525   3.261  24.244  1.00  0.00     0.148 A 
ATOM      2  N   UNL     1      16.513   3.471  23.333  1.00  0.00    -0.218 NA
ATOM      3  C   UNL     1      17.755   3.002  23.577  1.00  0.00     0.226 A 
ATOM      4  N   UNL     1      18.186   2.319  24.652  1.00  0.00    -0.217 NA
ATOM      5  C   UNL     1      17.188   2.132  25.527  1.00  0.00     0.164 A 
ATOM      6  N   UNL     1      17.266   1.481  26.724  1.00  0.00    -0.257 N 
ATOM      7  N   UNL     1      16.097   1.444  27.401  1.00  0.00    -0.135 NA
ATOM      8  C   UNL     1      15.265   2.101  26.587  1.00  0.00     0.246 A 
ATOM      9  C   UNL     1      15.880   2.555  25.403  1.00  0.00     0.125 A 
ATOM     10  H   UNL     1      18.135   1.057  27.078  1.00  0.00     0.192 HD
ENDROOT
BRANCH   1  11
ATOM     11  N   UNL     1      14.215   3.725  24.059  1.00  0.00    -0.339 N 
ATOM     12  H   UNL     1      13.687   3.196  23.351  1.00  0.00     0.168 HD
BRANCH  11  13
ATOM     13  C   UNL     1      13.478   4.766  24.645  1.00  0.00     0.043 A 
ATOM     14  C   UNL     1      11.891   6.767  25.852  1.00  0.00     0.163 A 
ATOM     15  C   UNL     1      13.251   6.980  25.655  1.00  0.00     0.052 A 
ATOM     16  C   UNL     1      11.316   5.577  25.420  1.00  0.00     0.167 A 
ATOM     17  C   UNL     1      14.036   5.981  25.066  1.00  0.00     0.030 A 
ATOM     18  C   UNL     1      12.097   4.584  24.831  1.00  0.00     0.069 A 
ATOM     19  F   UNL     1       9.999   5.365  25.555  1.00  0.00    -0.203 F 
BRANCH  14  20
ATOM     20  O   UNL     1      11.155   7.784  26.405  1.00  0.00    -0.453 OA
BRANCH  20  21
ATOM     21  C   UNL     1      10.289   8.455  25.576  1.00  0.00     0.145 A 
ATOM     22  C   UNL     1       8.360   9.752  24.105  1.00  0.00     0.038 A 
ATOM     23  C   UNL     1       9.493   9.265  23.458  1.00  0.00     0.027 A 
ATOM     24  N   UNL     1       8.158   9.601  25.436  1.00  0.00    -0.258 NA
ATOM     25  C   UNL     1      10.466   8.600  24.204  1.00  0.00     0.050 A 
ATOM     26  C   UNL     1       9.123   8.956  26.136  1.00  0.00     0.158 A 
ATOM     27  C   UNL     1       7.298  10.468  23.326  1.00  0.00     0.066 C 
ENDBRANCH  20  21
ENDBRANCH  14  20
ENDBRANCH  11  13
ENDBRANCH   1  11
BRANCH   8  28
ATOM     28  O   UNL     1      13.962   2.283  26.903  1.00  0.00    -0.475 OA
BRANCH  28  29
ATOM     29  C   UNL     1      13.556   1.766  28.177  1.00  0.00     0.247 C 
BRANCH  29  30
ATOM     30  C   UNL     1      13.092   2.894  29.117  1.00  0.00     0.126 C 
BRANCH  30  31
ATOM     31  N   UNL     1      12.105   2.461  30.130  1.00  0.00    -0.300 NA
ATOM     32  C   UNL     1      10.948   1.842  29.454  1.00  0.00     0.087 C 
ATOM     33  C   UNL     1      12.701   1.501  31.076  1.00  0.00     0.087 C 
ATOM     34  C   UNL     1       9.868   1.441  30.460  1.00  0.00     0.047 C 
ATOM     35  C   UNL     1      11.691   1.083  32.147  1.00  0.00     0.047 C 
ATOM     36  C   UNL     1      10.419   0.510  31.532  1.00  0.00     0.117 C 
BRANCH  36  37
ATOM     37  O   UNL     1      10.688  -0.767  30.951  1.00  0.00    -0.393 OA
ATOM     38  H   UNL     1      10.828  -1.433  31.669  1.00  0.00     0.210 HD
ENDBRANCH  36  37
ENDBRANCH  30  31
ENDBRANCH  29  30
ENDBRANCH  28  29
ENDBRANCH   8  28
TORSDOF 9
